MODEL 1
REMARK VINA RESULT:    -8.289      0.000      0.000
REMARK INTER + INTRA:         -14.689
REMARK INTER:                 -14.105
REMARK INTRA:                  -0.584
REMARK UNBOUND:                -0.584
REMARK SMILES C=C(C)[C@]12C[C@@H](C)[C@@]34O[C@](Cc5ccccc5)(O[C@@H]1[C@@H]3C=C(COC(=O)Cc1ccc(O)cc1)C[C@]1(O)C(=O)C(C)=C[C@@H]41)O2
REMARK SMILES IDX 23 1 22 2 21 3 20 4 9 5 8 6 10 7 6 8 18 10 44 11 19 12 5 13
REMARK SMILES IDX 7 14 4 15 11 16 12 17 13 18 17 19 14 20 16 21 15 22 2 23
REMARK SMILES IDX 3 24 1 25 35 26 36 27 43 28 38 29 42 30 39 32 40 33 41 34
REMARK SMILES IDX 37 35 24 37 25 38 26 39 27 40 28 41 29 42 34 43 30 44 33 45
REMARK SMILES IDX 31 46 32 47
REMARK H PARENT 37 36 32 48
REMARK Flexibility Score: 90.00
ROOT
ATOM      1  C   UNL     1      94.459  98.141  74.910  1.00  0.00     0.264 C 
ENDROOT
BRANCH   1   2
ATOM      2  C   UNL     1      94.039  99.539  74.519  1.00  0.00    -0.033 C 
ATOM      3  C   UNL     1      93.570  99.763  73.274  1.00  0.00    -0.015 C 
BRANCH   3   4
ATOM      4  C   UNL     1      93.159 101.071  72.618  1.00  0.00     0.078 C 
ATOM      5  O   UNL     1      90.723 101.316  72.962  1.00  0.00    -0.319 OA
ATOM      6  C   UNL     1      92.014 101.917  73.287  1.00  0.00     0.095 CG0
ATOM      7  C   UNL     1      90.573 100.881  71.596  1.00  0.00     0.289 C 
ATOM      8  C   UNL     1      92.080 103.378  72.679  1.00  0.00     0.023 C 
ATOM      9  G   UNL     1      92.101 101.834  74.839  1.00  0.00     0.000 G0
ATOM     10  O   UNL     1      91.581  99.940  71.239  1.00  0.00    -0.320 OA
ATOM     11  O   UNL     1      90.702 101.956  70.668  1.00  0.00    -0.313 OA
ATOM     12  C   UNL     1      92.720 100.811  71.156  1.00  0.00     0.170 C 
ATOM     13  C   UNL     1      92.551 103.359  71.193  1.00  0.00     0.049 C 
ATOM     14  C   UNL     1      90.784 104.200  72.792  1.00  0.00     0.011 C 
ATOM     15  C   UNL     1      92.128 102.073  70.482  1.00  0.00     0.122 C 
BRANCH   7  16
ATOM     16  C   UNL     1      89.203 100.248  71.447  1.00  0.00     0.135 C 
BRANCH  16  17
ATOM     17  C   UNL     1      89.155  99.267  70.303  1.00  0.00    -0.040 A 
ATOM     18  C   UNL     1      89.452  97.922  70.524  1.00  0.00     0.004 A 
ATOM     19  C   UNL     1      88.812  99.705  69.024  1.00  0.00     0.004 A 
ATOM     20  C   UNL     1      89.406  97.014  69.465  1.00  0.00     0.000 A 
ATOM     21  C   UNL     1      88.767  98.797  67.966  1.00  0.00     0.000 A 
ATOM     22  C   UNL     1      89.064  97.452  68.187  1.00  0.00     0.000 A 
ENDBRANCH  16  17
ENDBRANCH   7  16
BRANCH  15  23
ATOM     23  C   UNL     1      92.409 102.109  69.015  1.00  0.00    -0.046 C 
ATOM     24  C   UNL     1      93.835 102.352  68.619  1.00  0.00     0.042 C 
ATOM     25  C   UNL     1      91.441 101.936  68.103  1.00  0.00     0.010 C 
ENDBRANCH  15  23
ENDBRANCH   3   4
BRANCH   2  26
ATOM     26  C   UNL     1      94.204 100.546  75.642  1.00  0.00     0.078 C 
BRANCH  26  27
ATOM     27  C   UNL     1      93.555 101.916  75.452  1.00  0.00     0.140 C 
ATOM     28  C   UNL     1      92.134 101.811  74.858  1.00  0.00     0.086 CG0
ATOM     29  C   UNL     1      93.306 102.627  76.765  1.00  0.00     0.190 C 
ATOM     30  C   UNL     1      91.327 102.746  75.715  1.00  0.00    -0.010 C 
ATOM     31  G   UNL     1      92.030 101.915  73.308  1.00  0.00     0.000 G0
ATOM     32  O   UNL     1      94.125 102.765  77.661  1.00  0.00    -0.291 OA
ATOM     33  C   UNL     1      91.947 103.199  76.809  1.00  0.00    -0.008 C 
ATOM     34  C   UNL     1      91.442 104.053  77.903  1.00  0.00     0.048 C 
BRANCH  27  35
ATOM     35  O   UNL     1      94.407 102.800  74.744  1.00  0.00    -0.381 OA
ATOM     36  H   UNL     1      94.416 103.655  75.208  1.00  0.00     0.212 HD
ENDBRANCH  27  35
ENDBRANCH  26  27
ENDBRANCH   2  26
ENDBRANCH   1   2
BRANCH   1  37
ATOM     37  O   UNL     1      93.885  97.813  76.157  1.00  0.00    -0.461 OA
BRANCH  37  38
ATOM     38  C   UNL     1      93.891  96.480  76.497  1.00  0.00     0.310 C 
ATOM     39  O   UNL     1      94.249  95.569  75.763  1.00  0.00    -0.252 OA
BRANCH  38  40
ATOM     40  C   UNL     1      93.390  96.318  77.912  1.00  0.00     0.158 C 
BRANCH  40  41
ATOM     41  C   UNL     1      92.117  95.517  77.997  1.00  0.00    -0.037 A 
ATOM     42  C   UNL     1      90.932  96.033  77.472  1.00  0.00     0.008 A 
ATOM     43  C   UNL     1      92.122  94.260  78.600  1.00  0.00     0.008 A 
ATOM     44  C   UNL     1      89.752  95.293  77.551  1.00  0.00     0.046 A 
ATOM     45  C   UNL     1      90.942  93.518  78.679  1.00  0.00     0.046 A 
ATOM     46  C   UNL     1      89.758  94.035  78.155  1.00  0.00     0.115 A 
BRANCH  46  47
ATOM     47  O   UNL     1      88.607  93.312  78.232  1.00  0.00    -0.508 OA
ATOM     48  H   UNL     1      88.016  93.583  77.509  1.00  0.00     0.293 HD
ENDBRANCH  46  47
ENDBRANCH  40  41
ENDBRANCH  38  40
ENDBRANCH  37  38
ENDBRANCH   1  37
TORSDOF 10
ENDMDL
MODEL 2
REMARK VINA RESULT:    -7.261     28.908     32.250
REMARK INTER + INTRA:         -12.940
REMARK INTER:                 -11.916
REMARK INTRA:                  -1.023
REMARK UNBOUND:                -0.584
REMARK SMILES C=C(C)[C@]12C[C@@H](C)[C@@]34O[C@](Cc5ccccc5)(O[C@@H]1[C@@H]3C=C(COC(=O)Cc1ccc(O)cc1)C[C@]1(O)C(=O)C(C)=C[C@@H]41)O2
REMARK SMILES IDX 23 1 22 2 21 3 20 4 9 5 8 6 10 7 6 8 18 10 44 11 19 12 5 13
REMARK SMILES IDX 7 14 4 15 11 16 12 17 13 18 17 19 14 20 16 21 15 22 2 23
REMARK SMILES IDX 3 24 1 25 35 26 36 27 43 28 38 29 42 30 39 32 40 33 41 34
REMARK SMILES IDX 37 35 24 37 25 38 26 39 27 40 28 41 29 42 34 43 30 44 33 45
REMARK SMILES IDX 31 46 32 47
REMARK H PARENT 37 36 32 48
REMARK Flexibility Score: 90.00
ROOT
ATOM      1  C   UNL     1      66.160  82.938  81.271  1.00  0.00     0.264 C 
ENDROOT
BRANCH   1   2
ATOM      2  C   UNL     1      65.679  84.108  80.445  1.00  0.00    -0.033 C 
ATOM      3  C   UNL     1      65.736  84.032  79.099  1.00  0.00    -0.015 C 
BRANCH   3   4
ATOM      4  C   UNL     1      65.391  85.084  78.057  1.00  0.00     0.078 C 
ATOM      5  O   UNL     1      63.042  84.693  77.390  1.00  0.00    -0.319 OA
ATOM      6  C   UNL     1      63.928  85.661  78.033  1.00  0.00     0.095 CG0
ATOM      7  C   UNL     1      63.572  84.065  76.206  1.00  0.00     0.289 C 
ATOM      8  C   UNL     1      63.953  86.995  77.179  1.00  0.00     0.023 C 
ATOM      9  G   UNL     1      63.365  85.802  79.477  1.00  0.00     0.000 G0
ATOM     10  O   UNL     1      64.801  83.399  76.480  1.00  0.00    -0.320 OA
ATOM     11  O   UNL     1      63.866  85.007  75.178  1.00  0.00    -0.313 OA
ATOM     12  C   UNL     1      65.671  84.531  76.638  1.00  0.00     0.170 C 
ATOM     13  C   UNL     1      65.001  86.918  76.028  1.00  0.00     0.049 C 
ATOM     14  C   UNL     1      62.596  87.438  76.605  1.00  0.00     0.011 C 
ATOM     15  C   UNL     1      65.182  85.486  75.522  1.00  0.00     0.122 C 
BRANCH   7  16
ATOM     16  C   UNL     1      62.550  83.067  75.699  1.00  0.00     0.135 C 
BRANCH  16  17
ATOM     17  C   UNL     1      62.776  82.711  74.251  1.00  0.00    -0.040 A 
ATOM     18  C   UNL     1      62.060  83.368  73.251  1.00  0.00     0.004 A 
ATOM     19  C   UNL     1      63.701  81.724  73.914  1.00  0.00     0.004 A 
ATOM     20  C   UNL     1      62.270  83.038  71.911  1.00  0.00     0.000 A 
ATOM     21  C   UNL     1      63.911  81.394  72.574  1.00  0.00     0.000 A 
ATOM     22  C   UNL     1      63.195  82.051  71.574  1.00  0.00     0.000 A 
ENDBRANCH  16  17
ENDBRANCH   7  16
BRANCH  15  23
ATOM     23  C   UNL     1      66.043  85.413  74.303  1.00  0.00    -0.046 C 
ATOM     24  C   UNL     1      67.433  85.959  74.440  1.00  0.00     0.042 C 
ATOM     25  C   UNL     1      65.599  84.888  73.152  1.00  0.00     0.010 C 
ENDBRANCH  15  23
ENDBRANCH   3   4
BRANCH   2  26
ATOM     26  C   UNL     1      65.164  85.261  81.286  1.00  0.00     0.078 C 
BRANCH  26  27
ATOM     27  C   UNL     1      64.391  86.362  80.563  1.00  0.00     0.140 C 
ATOM     28  C   UNL     1      63.404  85.795  79.521  1.00  0.00     0.086 CG0
ATOM     29  C   UNL     1      63.477  87.134  81.491  1.00  0.00     0.190 C 
ATOM     30  C   UNL     1      62.141  86.568  79.780  1.00  0.00    -0.010 C 
ATOM     31  G   UNL     1      63.940  85.673  78.065  1.00  0.00     0.000 G0
ATOM     32  O   UNL     1      63.798  87.603  82.572  1.00  0.00    -0.291 OA
ATOM     33  C   UNL     1      62.139  87.307  80.893  1.00  0.00    -0.008 C 
ATOM     34  C   UNL     1      61.061  88.117  81.496  1.00  0.00     0.048 C 
BRANCH  27  35
ATOM     35  O   UNL     1      65.263  87.353  80.046  1.00  0.00    -0.381 OA
ATOM     36  H   UNL     1      65.171  88.155  80.587  1.00  0.00     0.212 HD
ENDBRANCH  27  35
ENDBRANCH  26  27
ENDBRANCH   2  26
ENDBRANCH   1   2
BRANCH   1  37
ATOM     37  O   UNL     1      66.004  83.240  82.642  1.00  0.00    -0.461 OA
BRANCH  37  38
ATOM     38  C   UNL     1      65.516  82.227  83.435  1.00  0.00     0.310 C 
ATOM     39  O   UNL     1      65.875  81.998  84.581  1.00  0.00    -0.252 OA
BRANCH  38  40
ATOM     40  C   UNL     1      64.472  81.448  82.671  1.00  0.00     0.158 C 
BRANCH  40  41
ATOM     41  C   UNL     1      64.670  79.957  82.760  1.00  0.00    -0.037 A 
ATOM     42  C   UNL     1      63.656  79.148  83.273  1.00  0.00     0.008 A 
ATOM     43  C   UNL     1      65.867  79.385  82.331  1.00  0.00     0.008 A 
ATOM     44  C   UNL     1      63.840  77.767  83.357  1.00  0.00     0.046 A 
ATOM     45  C   UNL     1      66.051  78.004  82.414  1.00  0.00     0.046 A 
ATOM     46  C   UNL     1      65.038  77.196  82.927  1.00  0.00     0.115 A 
BRANCH  46  47
ATOM     47  O   UNL     1      65.217  75.849  83.009  1.00  0.00    -0.508 OA
ATOM     48  H   UNL     1      64.606  75.412  82.390  1.00  0.00     0.293 HD
ENDBRANCH  46  47
ENDBRANCH  40  41
ENDBRANCH  38  40
ENDBRANCH  37  38
ENDBRANCH   1  37
TORSDOF 10
ENDMDL
MODEL 3
REMARK VINA RESULT:    -7.247     19.537     23.048
REMARK INTER + INTRA:         -12.915
REMARK INTER:                 -12.391
REMARK INTRA:                  -0.524
REMARK UNBOUND:                -0.584
REMARK SMILES C=C(C)[C@]12C[C@@H](C)[C@@]34O[C@](Cc5ccccc5)(O[C@@H]1[C@@H]3C=C(COC(=O)Cc1ccc(O)cc1)C[C@]1(O)C(=O)C(C)=C[C@@H]41)O2
REMARK SMILES IDX 23 1 22 2 21 3 20 4 9 5 8 6 10 7 6 8 18 10 44 11 19 12 5 13
REMARK SMILES IDX 7 14 4 15 11 16 12 17 13 18 17 19 14 20 16 21 15 22 2 23
REMARK SMILES IDX 3 24 1 25 35 26 36 27 43 28 38 29 42 30 39 32 40 33 41 34
REMARK SMILES IDX 37 35 24 37 25 38 26 39 27 40 28 41 29 42 34 43 30 44 33 45
REMARK SMILES IDX 31 46 32 47
REMARK H PARENT 37 36 32 48
REMARK Flexibility Score: 90.00
ROOT
ATOM      1  C   UNL     1      98.052  82.673  86.366  1.00  0.00     0.264 C 
ENDROOT
BRANCH   1   2
ATOM      2  C   UNL     1      96.675  83.209  86.682  1.00  0.00    -0.033 C 
ATOM      3  C   UNL     1      95.631  82.356  86.734  1.00  0.00    -0.015 C 
BRANCH   3   4
ATOM      4  C   UNL     1      94.156  82.648  86.954  1.00  0.00     0.078 C 
ATOM      5  O   UNL     1      93.730  82.425  89.379  1.00  0.00    -0.319 OA
ATOM      6  C   UNL     1      93.727  83.384  88.276  1.00  0.00     0.095 CG0
ATOM      7  C   UNL     1      93.165  81.135  89.075  1.00  0.00     0.289 C 
ATOM      8  C   UNL     1      92.257  83.934  88.065  1.00  0.00     0.023 C 
ATOM      9  G   UNL     1      94.786  84.448  88.686  1.00  0.00     0.000 G0
ATOM     10  O   UNL     1      93.837  80.522  87.978  1.00  0.00    -0.320 OA
ATOM     11  O   UNL     1      91.795  81.220  88.689  1.00  0.00    -0.313 OA
ATOM     12  C   UNL     1      93.344  81.330  86.898  1.00  0.00     0.170 C 
ATOM     13  C   UNL     1      91.420  82.992  87.145  1.00  0.00     0.049 C 
ATOM     14  C   UNL     1      91.466  84.222  89.353  1.00  0.00     0.011 C 
ATOM     15  C   UNL     1      91.858  81.533  87.282  1.00  0.00     0.122 C 
BRANCH   7  16
ATOM     16  C   UNL     1      93.289  80.260  90.306  1.00  0.00     0.135 C 
BRANCH  16  17
ATOM     17  C   UNL     1      92.111  79.330  90.460  1.00  0.00    -0.040 A 
ATOM     18  C   UNL     1      91.138  79.590  91.425  1.00  0.00     0.004 A 
ATOM     19  C   UNL     1      91.996  78.210  89.638  1.00  0.00     0.004 A 
ATOM     20  C   UNL     1      90.049  78.730  91.567  1.00  0.00     0.000 A 
ATOM     21  C   UNL     1      90.907  77.349  89.780  1.00  0.00     0.000 A 
ATOM     22  C   UNL     1      89.934  77.610  90.744  1.00  0.00     0.000 A 
ENDBRANCH  16  17
ENDBRANCH   7  16
BRANCH  15  23
ATOM     23  C   UNL     1      90.956  80.592  86.550  1.00  0.00    -0.046 C 
ATOM     24  C   UNL     1      91.611  79.392  85.934  1.00  0.00     0.042 C 
ATOM     25  C   UNL     1      89.636  80.809  86.451  1.00  0.00     0.010 C 
ENDBRANCH  15  23
ENDBRANCH   3   4
BRANCH   2  26
ATOM     26  C   UNL     1      96.659  84.708  86.917  1.00  0.00     0.078 C 
BRANCH  26  27
ATOM     27  C   UNL     1      95.384  85.308  87.506  1.00  0.00     0.140 C 
ATOM     28  C   UNL     1      94.817  84.457  88.661  1.00  0.00     0.086 CG0
ATOM     29  C   UNL     1      95.628  86.644  88.175  1.00  0.00     0.190 C 
ATOM     30  C   UNL     1      94.500  85.474  89.722  1.00  0.00    -0.010 C 
ATOM     31  G   UNL     1      93.744  83.400  88.271  1.00  0.00     0.000 G0
ATOM     32  O   UNL     1      96.245  87.579  87.687  1.00  0.00    -0.291 OA
ATOM     33  C   UNL     1      94.966  86.706  89.492  1.00  0.00    -0.008 C 
ATOM     34  C   UNL     1      94.915  87.915  90.339  1.00  0.00     0.048 C 
BRANCH  27  35
ATOM     35  O   UNL     1      94.435  85.605  86.494  1.00  0.00    -0.381 OA
ATOM     36  H   UNL     1      94.912  85.746  85.659  1.00  0.00     0.212 HD
ENDBRANCH  27  35
ENDBRANCH  26  27
ENDBRANCH   2  26
ENDBRANCH   1   2
BRANCH   1  37
ATOM     37  O   UNL     1      98.451  83.133  85.092  1.00  0.00    -0.461 OA
BRANCH  37  38
ATOM     38  C   UNL     1      98.012  82.397  84.016  1.00  0.00     0.310 C 
ATOM     39  O   UNL     1      97.822  81.189  84.021  1.00  0.00    -0.252 OA
BRANCH  38  40
ATOM     40  C   UNL     1      97.803  83.311  82.832  1.00  0.00     0.158 C 
BRANCH  40  41
ATOM     41  C   UNL     1      98.658  82.943  81.647  1.00  0.00    -0.037 A 
ATOM     42  C   UNL     1      98.213  83.216  80.354  1.00  0.00     0.008 A 
ATOM     43  C   UNL     1      99.896  82.331  81.843  1.00  0.00     0.008 A 
ATOM     44  C   UNL     1      99.004  82.875  79.257  1.00  0.00     0.046 A 
ATOM     45  C   UNL     1     100.688  81.991  80.747  1.00  0.00     0.046 A 
ATOM     46  C   UNL     1     100.243  82.262  79.454  1.00  0.00     0.115 A 
BRANCH  46  47
ATOM     47  O   UNL     1     101.014  81.929  78.384  1.00  0.00    -0.508 OA
ATOM     48  H   UNL     1     101.934  82.190  78.565  1.00  0.00     0.293 HD
ENDBRANCH  46  47
ENDBRANCH  40  41
ENDBRANCH  38  40
ENDBRANCH  37  38
ENDBRANCH   1  37
TORSDOF 10
ENDMDL
MODEL 4
REMARK VINA RESULT:    -7.092     19.370     22.978
REMARK INTER + INTRA:         -12.651
REMARK INTER:                 -11.966
REMARK INTRA:                  -0.685
REMARK UNBOUND:                -0.584
REMARK SMILES C=C(C)[C@]12C[C@@H](C)[C@@]34O[C@](Cc5ccccc5)(O[C@@H]1[C@@H]3C=C(COC(=O)Cc1ccc(O)cc1)C[C@]1(O)C(=O)C(C)=C[C@@H]41)O2
REMARK SMILES IDX 23 1 22 2 21 3 20 4 9 5 8 6 10 7 6 8 18 10 44 11 19 12 5 13
REMARK SMILES IDX 7 14 4 15 11 16 12 17 13 18 17 19 14 20 16 21 15 22 2 23
REMARK SMILES IDX 3 24 1 25 35 26 36 27 43 28 38 29 42 30 39 32 40 33 41 34
REMARK SMILES IDX 37 35 24 37 25 38 26 39 27 40 28 41 29 42 34 43 30 44 33 45
REMARK SMILES IDX 31 46 32 47
REMARK H PARENT 37 36 32 48
REMARK Flexibility Score: 90.00
ROOT
ATOM      1  C   UNL     1      95.682  87.558  88.686  1.00  0.00     0.264 C 
ENDROOT
BRANCH   1   2
ATOM      2  C   UNL     1      95.410  86.135  88.256  1.00  0.00    -0.033 C 
ATOM      3  C   UNL     1      96.399  85.419  87.683  1.00  0.00    -0.015 C 
BRANCH   3   4
ATOM      4  C   UNL     1      96.362  84.014  87.101  1.00  0.00     0.078 C 
ATOM      5  O   UNL     1      97.015  82.466  88.916  1.00  0.00    -0.319 OA
ATOM      6  C   UNL     1      95.909  82.831  88.033  1.00  0.00     0.095 CG0
ATOM      7  C   UNL     1      98.311  82.414  88.288  1.00  0.00     0.289 C 
ATOM      8  C   UNL     1      95.553  81.598  87.103  1.00  0.00     0.023 C 
ATOM      9  G   UNL     1      94.777  83.288  88.999  1.00  0.00     0.000 G0
ATOM     10  O   UNL     1      98.644  83.660  87.684  1.00  0.00    -0.320 OA
ATOM     11  O   UNL     1      98.368  81.450  87.240  1.00  0.00    -0.313 OA
ATOM     12  C   UNL     1      97.759  83.635  86.553  1.00  0.00     0.170 C 
ATOM     13  C   UNL     1      96.454  81.562  85.831  1.00  0.00     0.049 C 
ATOM     14  C   UNL     1      95.585  80.221  87.789  1.00  0.00     0.011 C 
ATOM     15  C   UNL     1      97.837  82.157  86.100  1.00  0.00     0.122 C 
BRANCH   7  16
ATOM     16  C   UNL     1      99.338  82.067  89.348  1.00  0.00     0.135 C 
BRANCH  16  17
ATOM     17  C   UNL     1     100.719  81.897  88.765  1.00  0.00    -0.040 A 
ATOM     18  C   UNL     1     101.548  83.006  88.601  1.00  0.00     0.004 A 
ATOM     19  C   UNL     1     101.165  80.630  88.390  1.00  0.00     0.004 A 
ATOM     20  C   UNL     1     102.826  82.848  88.062  1.00  0.00     0.000 A 
ATOM     21  C   UNL     1     102.442  80.473  87.851  1.00  0.00     0.000 A 
ATOM     22  C   UNL     1     103.272  81.581  87.687  1.00  0.00     0.000 A 
ENDBRANCH  16  17
ENDBRANCH   7  16
BRANCH  15  23
ATOM     23  C   UNL     1      98.775  81.969  84.952  1.00  0.00    -0.046 C 
ATOM     24  C   UNL     1      98.144  81.808  83.601  1.00  0.00     0.042 C 
ATOM     25  C   UNL     1     100.105  81.947  85.119  1.00  0.00     0.010 C 
ENDBRANCH  15  23
ENDBRANCH   3   4
BRANCH   2  26
ATOM     26  C   UNL     1      93.992  85.684  88.552  1.00  0.00     0.078 C 
BRANCH  26  27
ATOM     27  C   UNL     1      93.675  84.203  88.356  1.00  0.00     0.140 C 
ATOM     28  C   UNL     1      94.752  83.288  88.975  1.00  0.00     0.086 CG0
ATOM     29  C   UNL     1      92.423  83.775  89.092  1.00  0.00     0.190 C 
ATOM     30  C   UNL     1      93.950  82.255  89.716  1.00  0.00    -0.010 C 
ATOM     31  G   UNL     1      95.893  82.830  88.021  1.00  0.00     0.000 G0
ATOM     32  O   UNL     1      91.348  84.356  89.059  1.00  0.00    -0.291 OA
ATOM     33  C   UNL     1      92.643  82.513  89.823  1.00  0.00    -0.008 C 
ATOM     34  C   UNL     1      91.583  81.774  90.540  1.00  0.00     0.048 C 
BRANCH  27  35
ATOM     35  O   UNL     1      93.386  83.910  86.999  1.00  0.00    -0.381 OA
ATOM     36  H   UNL     1      92.424  83.973  86.870  1.00  0.00     0.212 HD
ENDBRANCH  27  35
ENDBRANCH  26  27
ENDBRANCH   2  26
ENDBRANCH   1   2
BRANCH   1  37
ATOM     37  O   UNL     1      96.044  87.572  90.051  1.00  0.00    -0.461 OA
BRANCH  37  38
ATOM     38  C   UNL     1      96.333  88.804  90.590  1.00  0.00     0.310 C 
ATOM     39  O   UNL     1      96.859  88.988  91.679  1.00  0.00    -0.252 OA
BRANCH  38  40
ATOM     40  C   UNL     1      95.901  89.887  89.631  1.00  0.00     0.158 C 
BRANCH  40  41
ATOM     41  C   UNL     1      94.722  90.681  90.133  1.00  0.00    -0.037 A 
ATOM     42  C   UNL     1      94.812  92.068  90.245  1.00  0.00     0.008 A 
ATOM     43  C   UNL     1      93.541  90.028  90.486  1.00  0.00     0.008 A 
ATOM     44  C   UNL     1      93.721  92.803  90.711  1.00  0.00     0.046 A 
ATOM     45  C   UNL     1      92.450  90.763  90.951  1.00  0.00     0.046 A 
ATOM     46  C   UNL     1      92.540  92.149  91.064  1.00  0.00     0.115 A 
BRANCH  46  47
ATOM     47  O   UNL     1      91.476  92.866  91.518  1.00  0.00    -0.508 OA
ATOM     48  H   UNL     1      91.032  92.360  92.221  1.00  0.00     0.293 HD
ENDBRANCH  46  47
ENDBRANCH  40  41
ENDBRANCH  38  40
ENDBRANCH  37  38
ENDBRANCH   1  37
TORSDOF 10
ENDMDL
MODEL 5
REMARK VINA RESULT:    -7.052     27.309     31.275
REMARK INTER + INTRA:         -12.584
REMARK INTER:                 -10.485
REMARK INTRA:                  -2.099
REMARK UNBOUND:                -0.584
REMARK SMILES C=C(C)[C@]12C[C@@H](C)[C@@]34O[C@](Cc5ccccc5)(O[C@@H]1[C@@H]3C=C(COC(=O)Cc1ccc(O)cc1)C[C@]1(O)C(=O)C(C)=C[C@@H]41)O2
REMARK SMILES IDX 23 1 22 2 21 3 20 4 9 5 8 6 10 7 6 8 18 10 44 11 19 12 5 13
REMARK SMILES IDX 7 14 4 15 11 16 12 17 13 18 17 19 14 20 16 21 15 22 2 23
REMARK SMILES IDX 3 24 1 25 35 26 36 27 43 28 38 29 42 30 39 32 40 33 41 34
REMARK SMILES IDX 37 35 24 37 25 38 26 39 27 40 28 41 29 42 34 43 30 44 33 45
REMARK SMILES IDX 31 46 32 47
REMARK H PARENT 37 36 32 48
REMARK Flexibility Score: 90.00
ROOT
ATOM      1  C   UNL     1      65.345  88.845  73.848  1.00  0.00     0.264 C 
ENDROOT
BRANCH   1   2
ATOM      2  C   UNL     1      64.344  87.731  74.048  1.00  0.00    -0.033 C 
ATOM      3  C   UNL     1      63.984  86.971  72.994  1.00  0.00    -0.015 C 
BRANCH   3   4
ATOM      4  C   UNL     1      62.954  85.855  72.915  1.00  0.00     0.078 C 
ATOM      5  O   UNL     1      64.160  83.734  73.318  1.00  0.00    -0.319 OA
ATOM      6  C   UNL     1      63.126  84.611  73.863  1.00  0.00     0.095 CG0
ATOM      7  C   UNL     1      64.108  83.533  71.893  1.00  0.00     0.289 C 
ATOM      8  C   UNL     1      61.744  83.837  73.892  1.00  0.00     0.023 C 
ATOM      9  G   UNL     1      63.677  85.046  75.252  1.00  0.00     0.000 G0
ATOM     10  O   UNL     1      64.191  84.771  71.192  1.00  0.00    -0.320 OA
ATOM     11  O   UNL     1      62.885  82.933  71.473  1.00  0.00    -0.313 OA
ATOM     12  C   UNL     1      62.886  85.303  71.470  1.00  0.00     0.170 C 
ATOM     13  C   UNL     1      61.002  83.939  72.524  1.00  0.00     0.049 C 
ATOM     14  C   UNL     1      61.822  82.361  74.320  1.00  0.00     0.011 C 
ATOM     15  C   UNL     1      61.982  84.052  71.355  1.00  0.00     0.122 C 
BRANCH   7  16
ATOM     16  C   UNL     1      65.269  82.641  71.497  1.00  0.00     0.135 C 
BRANCH  16  17
ATOM     17  C   UNL     1      66.556  83.415  71.358  1.00  0.00    -0.040 A 
ATOM     18  C   UNL     1      66.884  84.396  72.292  1.00  0.00     0.004 A 
ATOM     19  C   UNL     1      67.418  83.148  70.295  1.00  0.00     0.004 A 
ATOM     20  C   UNL     1      68.076  85.112  72.164  1.00  0.00     0.000 A 
ATOM     21  C   UNL     1      68.609  83.863  70.166  1.00  0.00     0.000 A 
ATOM     22  C   UNL     1      68.937  84.845  71.101  1.00  0.00     0.000 A 
ENDBRANCH  16  17
ENDBRANCH   7  16
BRANCH  15  23
ATOM     23  C   UNL     1      61.303  83.969  70.027  1.00  0.00    -0.046 C 
ATOM     24  C   UNL     1      59.844  84.317  70.007  1.00  0.00     0.042 C 
ATOM     25  C   UNL     1      61.959  83.605  68.916  1.00  0.00     0.010 C 
ENDBRANCH  15  23
ENDBRANCH   3   4
BRANCH   2  26
ATOM     26  C   UNL     1      63.864  87.612  75.483  1.00  0.00     0.078 C 
BRANCH  26  27
ATOM     27  C   UNL     1      63.055  86.370  75.847  1.00  0.00     0.140 C 
ATOM     28  C   UNL     1      63.671  85.080  75.265  1.00  0.00     0.086 CG0
ATOM     29  C   UNL     1      63.061  86.089  77.335  1.00  0.00     0.190 C 
ATOM     30  C   UNL     1      63.636  84.122  76.423  1.00  0.00    -0.010 C 
ATOM     31  G   UNL     1      63.125  84.624  73.881  1.00  0.00     0.000 G0
ATOM     32  O   UNL     1      62.830  86.910  78.211  1.00  0.00    -0.291 OA
ATOM     33  C   UNL     1      63.325  84.663  77.605  1.00  0.00    -0.008 C 
ATOM     34  C   UNL     1      63.277  84.051  78.949  1.00  0.00     0.048 C 
BRANCH  27  35
ATOM     35  O   UNL     1      61.681  86.537  75.540  1.00  0.00    -0.381 OA
ATOM     36  H   UNL     1      61.188  85.790  75.920  1.00  0.00     0.212 HD
ENDBRANCH  27  35
ENDBRANCH  26  27
ENDBRANCH   2  26
ENDBRANCH   1   2
BRANCH   1  37
ATOM     37  O   UNL     1      65.783  89.311  75.107  1.00  0.00    -0.461 OA
BRANCH  37  38
ATOM     38  C   UNL     1      67.141  89.286  75.325  1.00  0.00     0.310 C 
ATOM     39  O   UNL     1      67.805  90.231  75.730  1.00  0.00    -0.252 OA
BRANCH  38  40
ATOM     40  C   UNL     1      67.681  87.917  74.989  1.00  0.00     0.158 C 
BRANCH  40  41
ATOM     41  C   UNL     1      67.412  86.899  76.066  1.00  0.00    -0.037 A 
ATOM     42  C   UNL     1      67.387  85.540  75.751  1.00  0.00     0.008 A 
ATOM     43  C   UNL     1      67.189  87.313  77.378  1.00  0.00     0.008 A 
ATOM     44  C   UNL     1      67.137  84.597  76.748  1.00  0.00     0.046 A 
ATOM     45  C   UNL     1      66.940  86.370  78.376  1.00  0.00     0.046 A 
ATOM     46  C   UNL     1      66.914  85.012  78.061  1.00  0.00     0.115 A 
BRANCH  46  47
ATOM     47  O   UNL     1      66.670  84.092  79.034  1.00  0.00    -0.508 OA
ATOM     48  H   UNL     1      65.762  83.759  78.933  1.00  0.00     0.293 HD
ENDBRANCH  46  47
ENDBRANCH  40  41
ENDBRANCH  38  40
ENDBRANCH  37  38
ENDBRANCH   1  37
TORSDOF 10
ENDMDL
MODEL 6
REMARK VINA RESULT:    -7.040      5.634      9.167
REMARK INTER + INTRA:         -12.563
REMARK INTER:                 -12.058
REMARK INTRA:                  -0.505
REMARK UNBOUND:                -0.584
REMARK SMILES C=C(C)[C@]12C[C@@H](C)[C@@]34O[C@](Cc5ccccc5)(O[C@@H]1[C@@H]3C=C(COC(=O)Cc1ccc(O)cc1)C[C@]1(O)C(=O)C(C)=C[C@@H]41)O2
REMARK SMILES IDX 23 1 22 2 21 3 20 4 9 5 8 6 10 7 6 8 18 10 44 11 19 12 5 13
REMARK SMILES IDX 7 14 4 15 11 16 12 17 13 18 17 19 14 20 16 21 15 22 2 23
REMARK SMILES IDX 3 24 1 25 35 26 36 27 43 28 38 29 42 30 39 32 40 33 41 34
REMARK SMILES IDX 37 35 24 37 25 38 26 39 27 40 28 41 29 42 34 43 30 44 33 45
REMARK SMILES IDX 31 46 32 47
REMARK H PARENT 37 36 32 48
REMARK Flexibility Score: 90.00
ROOT
ATOM      1  C   UNL     1      95.130  97.744  75.078  1.00  0.00     0.264 C 
ENDROOT
BRANCH   1   2
ATOM      2  C   UNL     1      96.011  98.634  75.923  1.00  0.00    -0.033 C 
ATOM      3  C   UNL     1      95.829  98.664  77.260  1.00  0.00    -0.015 C 
BRANCH   3   4
ATOM      4  C   UNL     1      96.522  99.518  78.309  1.00  0.00     0.078 C 
ATOM      5  O   UNL     1      98.427  98.198  79.172  1.00  0.00    -0.319 OA
ATOM      6  C   UNL     1      98.086  99.418  78.443  1.00  0.00     0.095 CG0
ATOM      7  C   UNL     1      97.601  97.915  80.318  1.00  0.00     0.289 C 
ATOM      8  C   UNL     1      98.578 100.677  79.270  1.00  0.00     0.023 C 
ATOM      9  G   UNL     1      98.750  99.235  77.047  1.00  0.00     0.000 G0
ATOM     10  O   UNL     1      96.226  97.823  79.956  1.00  0.00    -0.320 OA
ATOM     11  O   UNL     1      97.671  98.942  81.304  1.00  0.00    -0.313 OA
ATOM     12  C   UNL     1      95.938  99.208  79.710  1.00  0.00     0.170 C 
ATOM     13  C   UNL     1      97.523 101.110  80.334  1.00  0.00     0.049 C 
ATOM     14  C   UNL     1      99.952 100.528  79.946  1.00  0.00     0.011 C 
ATOM     15  C   UNL     1      96.713  99.919  80.846  1.00  0.00     0.122 C 
BRANCH   7  16
ATOM     16  C   UNL     1      98.062  96.603  80.922  1.00  0.00     0.135 C 
BRANCH  16  17
ATOM     17  C   UNL     1      96.976  95.556  80.898  1.00  0.00    -0.040 A 
ATOM     18  C   UNL     1      96.423  95.097  82.092  1.00  0.00     0.004 A 
ATOM     19  C   UNL     1      96.527  95.048  79.679  1.00  0.00     0.004 A 
ATOM     20  C   UNL     1      95.418  94.128  82.069  1.00  0.00     0.000 A 
ATOM     21  C   UNL     1      95.522  94.080  79.656  1.00  0.00     0.000 A 
ATOM     22  C   UNL     1      94.969  93.620  80.850  1.00  0.00     0.000 A 
ENDBRANCH  16  17
ENDBRANCH   7  16
BRANCH  15  23
ATOM     23  C   UNL     1      95.824 100.278  81.992  1.00  0.00    -0.046 C 
ATOM     24  C   UNL     1      95.483  99.166  82.939  1.00  0.00     0.042 C 
ATOM     25  C   UNL     1      95.359 101.524  82.164  1.00  0.00     0.010 C 
ENDBRANCH  15  23
ENDBRANCH   3   4
BRANCH   2  26
ATOM     26  C   UNL     1      97.035  99.404  75.110  1.00  0.00     0.078 C 
BRANCH  26  27
ATOM     27  C   UNL     1      98.146 100.115  75.880  1.00  0.00     0.140 C 
ATOM     28  C   UNL     1      98.714  99.246  77.021  1.00  0.00     0.086 CG0
ATOM     29  C   UNL     1      99.370 100.373  75.027  1.00  0.00     0.190 C 
ATOM     30  C   UNL     1     100.202  99.395  76.867  1.00  0.00    -0.010 C 
ATOM     31  G   UNL     1      98.068  99.446  78.423  1.00  0.00     0.000 G0
ATOM     32  O   UNL     1      99.363 100.870  73.911  1.00  0.00    -0.291 OA
ATOM     33  C   UNL     1     100.603  99.998  75.744  1.00  0.00    -0.008 C 
ATOM     34  C   UNL     1     101.967 100.240  75.228  1.00  0.00     0.048 C 
BRANCH  27  35
ATOM     35  O   UNL     1      97.743 101.410  76.294  1.00  0.00    -0.381 OA
ATOM     36  H   UNL     1      97.671 101.414  77.263  1.00  0.00     0.212 HD
ENDBRANCH  27  35
ENDBRANCH  26  27
ENDBRANCH   2  26
ENDBRANCH   1   2
BRANCH   1  37
ATOM     37  O   UNL     1      93.815  97.765  75.592  1.00  0.00    -0.461 OA
BRANCH  37  38
ATOM     38  C   UNL     1      93.331  96.569  76.071  1.00  0.00     0.310 C 
ATOM     39  O   UNL     1      93.941  95.509  76.060  1.00  0.00    -0.252 OA
BRANCH  38  40
ATOM     40  C   UNL     1      91.935  96.770  76.609  1.00  0.00     0.158 C 
BRANCH  40  41
ATOM     41  C   UNL     1      91.404  95.560  77.333  1.00  0.00    -0.037 A 
ATOM     42  C   UNL     1      90.143  95.055  77.016  1.00  0.00     0.008 A 
ATOM     43  C   UNL     1      92.172  94.945  78.321  1.00  0.00     0.008 A 
ATOM     44  C   UNL     1      89.651  93.935  77.687  1.00  0.00     0.046 A 
ATOM     45  C   UNL     1      91.681  93.825  78.992  1.00  0.00     0.046 A 
ATOM     46  C   UNL     1      90.420  93.320  78.676  1.00  0.00     0.115 A 
BRANCH  46  47
ATOM     47  O   UNL     1      89.940  92.228  79.330  1.00  0.00    -0.508 OA
ATOM     48  H   UNL     1      89.362  92.524  80.055  1.00  0.00     0.293 HD
ENDBRANCH  46  47
ENDBRANCH  40  41
ENDBRANCH  38  40
ENDBRANCH  37  38
ENDBRANCH   1  37
TORSDOF 10
ENDMDL
MODEL 7
REMARK VINA RESULT:    -7.021     18.910     23.227
REMARK INTER + INTRA:         -12.531
REMARK INTER:                 -11.874
REMARK INTRA:                  -0.657
REMARK UNBOUND:                -0.584
REMARK SMILES C=C(C)[C@]12C[C@@H](C)[C@@]34O[C@](Cc5ccccc5)(O[C@@H]1[C@@H]3C=C(COC(=O)Cc1ccc(O)cc1)C[C@]1(O)C(=O)C(C)=C[C@@H]41)O2
REMARK SMILES IDX 23 1 22 2 21 3 20 4 9 5 8 6 10 7 6 8 18 10 44 11 19 12 5 13
REMARK SMILES IDX 7 14 4 15 11 16 12 17 13 18 17 19 14 20 16 21 15 22 2 23
REMARK SMILES IDX 3 24 1 25 35 26 36 27 43 28 38 29 42 30 39 32 40 33 41 34
REMARK SMILES IDX 37 35 24 37 25 38 26 39 27 40 28 41 29 42 34 43 30 44 33 45
REMARK SMILES IDX 31 46 32 47
REMARK H PARENT 37 36 32 48
REMARK Flexibility Score: 90.00
ROOT
ATOM      1  C   UNL     1      92.221  86.330  91.063  1.00  0.00     0.264 C 
ENDROOT
BRANCH   1   2
ATOM      2  C   UNL     1      92.568  85.325  89.989  1.00  0.00    -0.033 C 
ATOM      3  C   UNL     1      93.825  85.290  89.500  1.00  0.00    -0.015 C 
BRANCH   3   4
ATOM      4  C   UNL     1      94.402  84.439  88.381  1.00  0.00     0.078 C 
ATOM      5  O   UNL     1      95.334  82.403  89.431  1.00  0.00    -0.319 OA
ATOM      6  C   UNL     1      94.306  82.874  88.505  1.00  0.00     0.095 CG0
ATOM      7  C   UNL     1      96.627  83.021  89.280  1.00  0.00     0.289 C 
ATOM      8  C   UNL     1      94.574  82.261  87.069  1.00  0.00     0.023 C 
ATOM      9  G   UNL     1      92.963  82.453  89.171  1.00  0.00     0.000 G0
ATOM     10  O   UNL     1      96.544  84.436  89.421  1.00  0.00    -0.320 OA
ATOM     11  O   UNL     1      97.188  82.795  87.989  1.00  0.00    -0.313 OA
ATOM     12  C   UNL     1      95.900  84.775  88.183  1.00  0.00     0.170 C 
ATOM     13  C   UNL     1      95.588  83.125  86.259  1.00  0.00     0.049 C 
ATOM     14  C   UNL     1      95.028  80.791  87.052  1.00  0.00     0.011 C 
ATOM     15  C   UNL     1      96.593  83.826  87.175  1.00  0.00     0.122 C 
BRANCH   7  16
ATOM     16  C   UNL     1      97.551  82.453  90.339  1.00  0.00     0.135 C 
BRANCH  16  17
ATOM     17  C   UNL     1      98.877  82.023  89.762  1.00  0.00    -0.040 A 
ATOM     18  C   UNL     1     100.010  82.812  89.955  1.00  0.00     0.004 A 
ATOM     19  C   UNL     1      98.969  80.837  89.035  1.00  0.00     0.004 A 
ATOM     20  C   UNL     1     101.237  82.415  89.422  1.00  0.00     0.000 A 
ATOM     21  C   UNL     1     100.195  80.439  88.501  1.00  0.00     0.000 A 
ATOM     22  C   UNL     1     101.329  81.228  88.695  1.00  0.00     0.000 A 
ENDBRANCH  16  17
ENDBRANCH   7  16
BRANCH  15  23
ATOM     23  C   UNL     1      97.681  84.511  86.414  1.00  0.00    -0.046 C 
ATOM     24  C   UNL     1      97.241  85.486  85.362  1.00  0.00     0.042 C 
ATOM     25  C   UNL     1      98.978  84.269  86.658  1.00  0.00     0.010 C 
ENDBRANCH  15  23
ENDBRANCH   3   4
BRANCH   2  26
ATOM     26  C   UNL     1      91.397  84.444  89.597  1.00  0.00     0.078 C 
BRANCH  26  27
ATOM     27  C   UNL     1      91.696  83.243  88.702  1.00  0.00     0.140 C 
ATOM     28  C   UNL     1      92.947  82.468  89.164  1.00  0.00     0.086 CG0
ATOM     29  C   UNL     1      90.615  82.185  88.771  1.00  0.00     0.190 C 
ATOM     30  C   UNL     1      92.508  81.031  89.112  1.00  0.00    -0.010 C 
ATOM     31  G   UNL     1      94.293  82.879  88.498  1.00  0.00     0.000 G0
ATOM     32  O   UNL     1      89.415  82.391  88.666  1.00  0.00    -0.291 OA
ATOM     33  C   UNL     1      91.199  80.839  88.921  1.00  0.00    -0.008 C 
ATOM     34  C   UNL     1      90.415  79.587  88.898  1.00  0.00     0.048 C 
BRANCH  27  35
ATOM     35  O   UNL     1      91.723  83.611  87.333  1.00  0.00    -0.381 OA
ATOM     36  H   UNL     1      92.495  83.190  86.918  1.00  0.00     0.212 HD
ENDBRANCH  27  35
ENDBRANCH  26  27
ENDBRANCH   2  26
ENDBRANCH   1   2
BRANCH   1  37
ATOM     37  O   UNL     1      93.408  86.790  91.672  1.00  0.00    -0.461 OA
BRANCH  37  38
ATOM     38  C   UNL     1      93.400  88.094  92.111  1.00  0.00     0.310 C 
ATOM     39  O   UNL     1      94.112  88.541  92.999  1.00  0.00    -0.252 OA
BRANCH  38  40
ATOM     40  C   UNL     1      92.378  88.883  91.327  1.00  0.00     0.158 C 
BRANCH  40  41
ATOM     41  C   UNL     1      92.772  90.324  91.133  1.00  0.00    -0.037 A 
ATOM     42  C   UNL     1      93.676  90.672  90.129  1.00  0.00     0.008 A 
ATOM     43  C   UNL     1      92.233  91.312  91.956  1.00  0.00     0.008 A 
ATOM     44  C   UNL     1      94.041  92.006  89.949  1.00  0.00     0.046 A 
ATOM     45  C   UNL     1      92.597  92.647  91.777  1.00  0.00     0.046 A 
ATOM     46  C   UNL     1      93.501  92.994  90.774  1.00  0.00     0.115 A 
BRANCH  46  47
ATOM     47  O   UNL     1      93.858  94.295  90.598  1.00  0.00    -0.508 OA
ATOM     48  H   UNL     1      94.023  94.453  89.652  1.00  0.00     0.293 HD
ENDBRANCH  46  47
ENDBRANCH  40  41
ENDBRANCH  38  40
ENDBRANCH  37  38
ENDBRANCH   1  37
TORSDOF 10
ENDMDL
MODEL 8
REMARK VINA RESULT:    -6.993     18.424     23.396
REMARK INTER + INTRA:         -12.483
REMARK INTER:                 -11.623
REMARK INTRA:                  -0.860
REMARK UNBOUND:                -0.584
REMARK SMILES C=C(C)[C@]12C[C@@H](C)[C@@]34O[C@](Cc5ccccc5)(O[C@@H]1[C@@H]3C=C(COC(=O)Cc1ccc(O)cc1)C[C@]1(O)C(=O)C(C)=C[C@@H]41)O2
REMARK SMILES IDX 23 1 22 2 21 3 20 4 9 5 8 6 10 7 6 8 18 10 44 11 19 12 5 13
REMARK SMILES IDX 7 14 4 15 11 16 12 17 13 18 17 19 14 20 16 21 15 22 2 23
REMARK SMILES IDX 3 24 1 25 35 26 36 27 43 28 38 29 42 30 39 32 40 33 41 34
REMARK SMILES IDX 37 35 24 37 25 38 26 39 27 40 28 41 29 42 34 43 30 44 33 45
REMARK SMILES IDX 31 46 32 47
REMARK H PARENT 37 36 32 48
REMARK Flexibility Score: 90.00
ROOT
ATOM      1  C   UNL     1      98.578  80.760  82.971  1.00  0.00     0.264 C 
ENDROOT
BRANCH   1   2
ATOM      2  C   UNL     1      98.532  81.151  84.430  1.00  0.00    -0.033 C 
ATOM      3  C   UNL     1      97.444  81.791  84.906  1.00  0.00    -0.015 C 
BRANCH   3   4
ATOM      4  C   UNL     1      97.185  82.351  86.296  1.00  0.00     0.078 C 
ATOM      5  O   UNL     1      96.024  80.585  87.580  1.00  0.00    -0.319 OA
ATOM      6  C   UNL     1      97.256  81.370  87.524  1.00  0.00     0.095 CG0
ATOM      7  C   UNL     1      94.812  81.324  87.337  1.00  0.00     0.289 C 
ATOM      8  C   UNL     1      97.377  82.251  88.835  1.00  0.00     0.023 C 
ATOM      9  G   UNL     1      98.381  80.313  87.323  1.00  0.00     0.000 G0
ATOM     10  O   UNL     1      94.845  81.970  86.067  1.00  0.00    -0.320 OA
ATOM     11  O   UNL     1      94.609  82.363  88.292  1.00  0.00    -0.313 OA
ATOM     12  C   UNL     1      95.788  83.018  86.343  1.00  0.00     0.170 C 
ATOM     13  C   UNL     1      96.604  83.598  88.693  1.00  0.00     0.049 C 
ATOM     14  C   UNL     1      96.953  81.555  90.140  1.00  0.00     0.011 C 
ATOM     15  C   UNL     1      95.390  83.459  87.773  1.00  0.00     0.122 C 
BRANCH   7  16
ATOM     16  C   UNL     1      93.647  80.356  87.390  1.00  0.00     0.135 C 
BRANCH  16  17
ATOM     17  C   UNL     1      92.356  81.043  87.760  1.00  0.00    -0.040 A 
ATOM     18  C   UNL     1      91.630  81.733  86.790  1.00  0.00     0.004 A 
ATOM     19  C   UNL     1      91.890  80.987  89.073  1.00  0.00     0.004 A 
ATOM     20  C   UNL     1      90.435  82.367  87.132  1.00  0.00     0.000 A 
ATOM     21  C   UNL     1      90.695  81.622  89.415  1.00  0.00     0.000 A 
ATOM     22  C   UNL     1      89.969  82.312  88.445  1.00  0.00     0.000 A 
ENDBRANCH  16  17
ENDBRANCH   7  16
BRANCH  15  23
ATOM     23  C   UNL     1      94.534  84.684  87.764  1.00  0.00    -0.046 C 
ATOM     24  C   UNL     1      95.018  85.824  86.918  1.00  0.00     0.042 C 
ATOM     25  C   UNL     1      93.398  84.759  88.472  1.00  0.00     0.010 C 
ENDBRANCH  15  23
ENDBRANCH   3   4
BRANCH   2  26
ATOM     26  C   UNL     1      99.775  80.740  85.196  1.00  0.00     0.078 C 
BRANCH  26  27
ATOM     27  C   UNL     1      99.724  80.851  86.719  1.00  0.00     0.140 C 
ATOM     28  C   UNL     1      98.399  80.315  87.299  1.00  0.00     0.086 CG0
ATOM     29  C   UNL     1     100.755  79.974  87.398  1.00  0.00     0.190 C 
ATOM     30  C   UNL     1      98.843  79.460  88.453  1.00  0.00    -0.010 C 
ATOM     31  G   UNL     1      97.272  81.366  87.517  1.00  0.00     0.000 G0
ATOM     32  O   UNL     1     101.940  79.916  87.105  1.00  0.00    -0.291 OA
ATOM     33  C   UNL     1     100.157  79.226  88.520  1.00  0.00    -0.008 C 
ATOM     34  C   UNL     1     100.926  78.378  89.454  1.00  0.00     0.048 C 
BRANCH  27  35
ATOM     35  O   UNL     1     100.053  82.159  87.155  1.00  0.00    -0.381 OA
ATOM     36  H   UNL     1      99.233  82.610  87.418  1.00  0.00     0.212 HD
ENDBRANCH  27  35
ENDBRANCH  26  27
ENDBRANCH   2  26
ENDBRANCH   1   2
BRANCH   1  37
ATOM     37  O   UNL     1      99.924  80.642  82.562  1.00  0.00    -0.461 OA
BRANCH  37  38
ATOM     38  C   UNL     1     100.175  80.859  81.227  1.00  0.00     0.310 C 
ATOM     39  O   UNL     1     100.298  79.982  80.384  1.00  0.00    -0.252 OA
BRANCH  38  40
ATOM     40  C   UNL     1     100.275  82.343  80.968  1.00  0.00     0.158 C 
BRANCH  40  41
ATOM     41  C   UNL     1      99.399  82.802  79.832  1.00  0.00    -0.037 A 
ATOM     42  C   UNL     1      99.914  82.870  78.537  1.00  0.00     0.008 A 
ATOM     43  C   UNL     1      98.073  83.159  80.073  1.00  0.00     0.008 A 
ATOM     44  C   UNL     1      99.103  83.296  77.485  1.00  0.00     0.046 A 
ATOM     45  C   UNL     1      97.261  83.584  79.021  1.00  0.00     0.046 A 
ATOM     46  C   UNL     1      97.776  83.653  77.727  1.00  0.00     0.115 A 
BRANCH  46  47
ATOM     47  O   UNL     1      96.986  84.068  76.700  1.00  0.00    -0.508 OA
ATOM     48  H   UNL     1      96.054  83.992  76.969  1.00  0.00     0.293 HD
ENDBRANCH  46  47
ENDBRANCH  40  41
ENDBRANCH  38  40
ENDBRANCH  37  38
ENDBRANCH   1  37
TORSDOF 10
ENDMDL
MODEL 9
REMARK VINA RESULT:    -6.843     20.182     24.123
REMARK INTER + INTRA:         -12.228
REMARK INTER:                 -10.282
REMARK INTRA:                  -1.946
REMARK UNBOUND:                -0.584
REMARK SMILES C=C(C)[C@]12C[C@@H](C)[C@@]34O[C@](Cc5ccccc5)(O[C@@H]1[C@@H]3C=C(COC(=O)Cc1ccc(O)cc1)C[C@]1(O)C(=O)C(C)=C[C@@H]41)O2
REMARK SMILES IDX 23 1 22 2 21 3 20 4 9 5 8 6 10 7 6 8 18 10 44 11 19 12 5 13
REMARK SMILES IDX 7 14 4 15 11 16 12 17 13 18 17 19 14 20 16 21 15 22 2 23
REMARK SMILES IDX 3 24 1 25 35 26 36 27 43 28 38 29 42 30 39 32 40 33 41 34
REMARK SMILES IDX 37 35 24 37 25 38 26 39 27 40 28 41 29 42 34 43 30 44 33 45
REMARK SMILES IDX 31 46 32 47
REMARK H PARENT 37 36 32 48
REMARK Flexibility Score: 90.00
ROOT
ATOM      1  C   UNL     1      96.752  79.686  89.007  1.00  0.00     0.264 C 
ENDROOT
BRANCH   1   2
ATOM      2  C   UNL     1      95.267  79.961  89.051  1.00  0.00    -0.033 C 
ATOM      3  C   UNL     1      94.806  80.965  89.826  1.00  0.00    -0.015 C 
BRANCH   3   4
ATOM      4  C   UNL     1      93.373  81.392  90.100  1.00  0.00     0.078 C 
ATOM      5  O   UNL     1      92.818  83.154  88.455  1.00  0.00    -0.319 OA
ATOM      6  C   UNL     1      92.467  81.800  88.880  1.00  0.00     0.095 CG0
ATOM      7  C   UNL     1      93.032  84.098  89.522  1.00  0.00     0.289 C 
ATOM      8  C   UNL     1      90.961  81.781  89.373  1.00  0.00     0.023 C 
ATOM      9  G   UNL     1      92.776  80.912  87.640  1.00  0.00     0.000 G0
ATOM     10  O   UNL     1      94.054  83.653  90.410  1.00  0.00    -0.320 OA
ATOM     11  O   UNL     1      91.871  84.275  90.330  1.00  0.00    -0.313 OA
ATOM     12  C   UNL     1      93.359  82.590  91.081  1.00  0.00     0.170 C 
ATOM     13  C   UNL     1      90.844  82.198  90.871  1.00  0.00     0.049 C 
ATOM     14  C   UNL     1      89.979  82.616  88.534  1.00  0.00     0.011 C 
ATOM     15  C   UNL     1      91.942  83.184  91.272  1.00  0.00     0.122 C 
BRANCH   7  16
ATOM     16  C   UNL     1      93.428  85.426  88.908  1.00  0.00     0.135 C 
BRANCH  16  17
ATOM     17  C   UNL     1      93.848  86.430  89.953  1.00  0.00    -0.040 A 
ATOM     18  C   UNL     1      95.196  86.750  90.111  1.00  0.00     0.004 A 
ATOM     19  C   UNL     1      92.887  87.038  90.761  1.00  0.00     0.004 A 
ATOM     20  C   UNL     1      95.584  87.679  91.077  1.00  0.00     0.000 A 
ATOM     21  C   UNL     1      93.276  87.967  91.727  1.00  0.00     0.000 A 
ATOM     22  C   UNL     1      94.624  88.287  91.885  1.00  0.00     0.000 A 
ENDBRANCH  16  17
ENDBRANCH   7  16
BRANCH  15  23
ATOM     23  C   UNL     1      91.745  83.736  92.646  1.00  0.00    -0.046 C 
ATOM     24  C   UNL     1      92.904  84.488  93.230  1.00  0.00     0.042 C 
ATOM     25  C   UNL     1      90.598  83.568  93.320  1.00  0.00     0.010 C 
ENDBRANCH  15  23
ENDBRANCH   3   4
BRANCH   2  26
ATOM     26  C   UNL     1      94.461  79.027  88.168  1.00  0.00     0.078 C 
BRANCH  26  27
ATOM     27  C   UNL     1      92.997  79.387  87.924  1.00  0.00     0.140 C 
ATOM     28  C   UNL     1      92.804  80.893  87.649  1.00  0.00     0.086 CG0
ATOM     29  C   UNL     1      92.446  78.754  86.664  1.00  0.00     0.190 C 
ATOM     30  C   UNL     1      91.888  80.917  86.458  1.00  0.00    -0.010 C 
ATOM     31  G   UNL     1      92.472  81.779  88.886  1.00  0.00     0.000 G0
ATOM     32  O   UNL     1      92.559  77.577  86.356  1.00  0.00    -0.291 OA
ATOM     33  C   UNL     1      91.690  79.736  85.865  1.00  0.00    -0.008 C 
ATOM     34  C   UNL     1      90.930  79.401  84.643  1.00  0.00     0.048 C 
BRANCH  27  35
ATOM     35  O   UNL     1      92.161  78.881  88.951  1.00  0.00    -0.381 OA
ATOM     36  H   UNL     1      92.558  78.062  89.294  1.00  0.00     0.212 HD
ENDBRANCH  27  35
ENDBRANCH  26  27
ENDBRANCH   2  26
ENDBRANCH   1   2
BRANCH   1  37
ATOM     37  O   UNL     1      97.143  79.445  87.672  1.00  0.00    -0.461 OA
BRANCH  37  38
ATOM     38  C   UNL     1      97.884  80.434  87.068  1.00  0.00     0.310 C 
ATOM     39  O   UNL     1      99.014  80.766  87.398  1.00  0.00    -0.252 OA
BRANCH  38  40
ATOM     40  C   UNL     1      97.087  81.042  85.939  1.00  0.00     0.158 C 
BRANCH  40  41
ATOM     41  C   UNL     1      96.877  82.525  86.100  1.00  0.00    -0.037 A 
ATOM     42  C   UNL     1      96.577  83.055  87.355  1.00  0.00     0.008 A 
ATOM     43  C   UNL     1      96.981  83.369  84.994  1.00  0.00     0.008 A 
ATOM     44  C   UNL     1      96.381  84.428  87.504  1.00  0.00     0.046 A 
ATOM     45  C   UNL     1      96.786  84.742  85.143  1.00  0.00     0.046 A 
ATOM     46  C   UNL     1      96.486  85.272  86.397  1.00  0.00     0.115 A 
BRANCH  46  47
ATOM     47  O   UNL     1      96.295  86.611  86.543  1.00  0.00    -0.508 OA
ATOM     48  H   UNL     1      95.427  86.763  86.957  1.00  0.00     0.293 HD
ENDBRANCH  46  47
ENDBRANCH  40  41
ENDBRANCH  38  40
ENDBRANCH  37  38
ENDBRANCH   1  37
TORSDOF 10
ENDMDL
MODEL 10
REMARK VINA RESULT:    -6.720     20.610     25.078
REMARK INTER + INTRA:         -12.019
REMARK INTER:                 -10.522
REMARK INTRA:                  -1.497
REMARK UNBOUND:                -0.584
REMARK SMILES C=C(C)[C@]12C[C@@H](C)[C@@]34O[C@](Cc5ccccc5)(O[C@@H]1[C@@H]3C=C(COC(=O)Cc1ccc(O)cc1)C[C@]1(O)C(=O)C(C)=C[C@@H]41)O2
REMARK SMILES IDX 23 1 22 2 21 3 20 4 9 5 8 6 10 7 6 8 18 10 44 11 19 12 5 13
REMARK SMILES IDX 7 14 4 15 11 16 12 17 13 18 17 19 14 20 16 21 15 22 2 23
REMARK SMILES IDX 3 24 1 25 35 26 36 27 43 28 38 29 42 30 39 32 40 33 41 34
REMARK SMILES IDX 37 35 24 37 25 38 26 39 27 40 28 41 29 42 34 43 30 44 33 45
REMARK SMILES IDX 31 46 32 47
REMARK H PARENT 37 36 32 48
REMARK Flexibility Score: 90.00
ROOT
ATOM      1  C   UNL     1      69.883  83.541  67.512  1.00  0.00     0.264 C 
ENDROOT
BRANCH   1   2
ATOM      2  C   UNL     1      71.102  84.049  66.778  1.00  0.00    -0.033 C 
ATOM      3  C   UNL     1      71.580  85.278  67.065  1.00  0.00    -0.015 C 
BRANCH   3   4
ATOM      4  C   UNL     1      72.729  86.040  66.425  1.00  0.00     0.078 C 
ATOM      5  O   UNL     1      74.750  85.558  67.767  1.00  0.00    -0.319 OA
ATOM      6  C   UNL     1      74.160  85.388  66.440  1.00  0.00     0.095 CG0
ATOM      7  C   UNL     1      74.559  86.856  68.363  1.00  0.00     0.289 C 
ATOM      8  C   UNL     1      75.046  86.152  65.372  1.00  0.00     0.023 C 
ATOM      9  G   UNL     1      74.068  83.846  66.251  1.00  0.00     0.000 G0
ATOM     10  O   UNL     1      73.176  87.179  68.469  1.00  0.00    -0.320 OA
ATOM     11  O   UNL     1      75.140  87.900  67.585  1.00  0.00    -0.313 OA
ATOM     12  C   UNL     1      72.870  87.432  67.089  1.00  0.00     0.170 C 
ATOM     13  C   UNL     1      74.649  87.657  65.270  1.00  0.00     0.049 C 
ATOM     14  C   UNL     1      76.567  86.039  65.571  1.00  0.00     0.011 C 
ATOM     15  C   UNL     1      74.127  88.196  66.602  1.00  0.00     0.122 C 
BRANCH   7  16
ATOM     16  C   UNL     1      75.191  86.842  69.741  1.00  0.00     0.135 C 
BRANCH  16  17
ATOM     17  C   UNL     1      74.829  88.068  70.542  1.00  0.00    -0.040 A 
ATOM     18  C   UNL     1      75.588  89.232  70.417  1.00  0.00     0.004 A 
ATOM     19  C   UNL     1      73.736  88.038  71.406  1.00  0.00     0.004 A 
ATOM     20  C   UNL     1      75.253  90.366  71.157  1.00  0.00     0.000 A 
ATOM     21  C   UNL     1      73.401  89.172  72.147  1.00  0.00     0.000 A 
ATOM     22  C   UNL     1      74.160  90.335  72.022  1.00  0.00     0.000 A 
ENDBRANCH  16  17
ENDBRANCH   7  16
BRANCH  15  23
ATOM     23  C   UNL     1      73.911  89.674  66.579  1.00  0.00    -0.046 C 
ATOM     24  C   UNL     1      74.612  90.428  65.488  1.00  0.00     0.042 C 
ATOM     25  C   UNL     1      73.136  90.292  67.482  1.00  0.00     0.010 C 
ENDBRANCH  15  23
ENDBRANCH   3   4
BRANCH   2  26
ATOM     26  C   UNL     1      71.651  83.053  65.774  1.00  0.00     0.078 C 
BRANCH  26  27
ATOM     27  C   UNL     1      73.032  83.341  65.189  1.00  0.00     0.140 C 
ATOM     28  C   UNL     1      74.029  83.832  66.259  1.00  0.00     0.086 CG0
ATOM     29  C   UNL     1      73.710  82.094  64.661  1.00  0.00     0.190 C 
ATOM     30  C   UNL     1      75.266  83.025  65.981  1.00  0.00    -0.010 C 
ATOM     31  G   UNL     1      74.145  85.374  66.432  1.00  0.00     0.000 G0
ATOM     32  O   UNL     1      73.196  81.269  63.920  1.00  0.00    -0.291 OA
ATOM     33  C   UNL     1      75.113  82.024  65.109  1.00  0.00    -0.008 C 
ATOM     34  C   UNL     1      76.074  80.993  64.666  1.00  0.00     0.048 C 
BRANCH  27  35
ATOM     35  O   UNL     1      72.948  84.187  64.054  1.00  0.00    -0.381 OA
ATOM     36  H   UNL     1      72.266  83.833  63.458  1.00  0.00     0.212 HD
ENDBRANCH  27  35
ENDBRANCH  26  27
ENDBRANCH   2  26
ENDBRANCH   1   2
BRANCH   1  37
ATOM     37  O   UNL     1      70.288  82.911  68.709  1.00  0.00    -0.461 OA
BRANCH  37  38
ATOM     38  C   UNL     1      69.571  83.233  69.838  1.00  0.00     0.310 C 
ATOM     39  O   UNL     1      68.420  82.884  70.063  1.00  0.00    -0.252 OA
BRANCH  38  40
ATOM     40  C   UNL     1      70.424  84.080  70.752  1.00  0.00     0.158 C 
BRANCH  40  41
ATOM     41  C   UNL     1      69.942  85.504  70.853  1.00  0.00    -0.037 A 
ATOM     42  C   UNL     1      68.690  85.779  71.402  1.00  0.00     0.008 A 
ATOM     43  C   UNL     1      70.748  86.547  70.397  1.00  0.00     0.008 A 
ATOM     44  C   UNL     1      68.243  87.098  71.495  1.00  0.00     0.046 A 
ATOM     45  C   UNL     1      70.302  87.866  70.490  1.00  0.00     0.046 A 
ATOM     46  C   UNL     1      69.050  88.141  71.039  1.00  0.00     0.115 A 
BRANCH  46  47
ATOM     47  O   UNL     1      68.614  89.427  71.129  1.00  0.00    -0.508 OA
ATOM     48  H   UNL     1      68.644  89.706  72.061  1.00  0.00     0.293 HD
ENDBRANCH  46  47
ENDBRANCH  40  41
ENDBRANCH  38  40
ENDBRANCH  37  38
ENDBRANCH   1  37
TORSDOF 10
ENDMDL
