MODEL 1
REMARK VINA RESULT:    -6.798      0.000      0.000
REMARK INTER + INTRA:         -12.310
REMARK INTER:                 -10.970
REMARK INTRA:                  -1.340
REMARK UNBOUND:                -1.340
REMARK SMILES COc1cc(CNC(=O)CCCCC/C=C/C(C)C)ccc1O
REMARK SMILES IDX 11 1 10 2 8 3 7 4 9 6 6 7 5 8 3 9 22 10 4 11 21 12 20 13
REMARK SMILES IDX 2 14 1 15 23 16 12 18 13 19 14 20 15 21 16 22 17 23 18 24
REMARK SMILES IDX 19 25
REMARK H PARENT 7 5 23 17
REMARK Flexibility Score: inf
ROOT
ATOM      1  C   UNL     1      90.494  92.930  77.328  1.00  0.00     0.010 C 
ENDROOT
BRANCH   1   2
ATOM      2  C   UNL     1      90.723  93.978  76.208  1.00  0.00     0.100 C 
BRANCH   2   3
ATOM      3  C   UNL     1      92.135  94.132  75.810  1.00  0.00     0.220 C 
ATOM      4  N   UNL     1      93.106  94.179  76.764  1.00  0.00    -0.352 N 
ATOM      5  H   UNL     1      92.764  94.176  77.715  1.00  0.00     0.163 HD
ATOM      6  O   UNL     1      92.408  94.176  74.588  1.00  0.00    -0.275 OA
BRANCH   4   7
ATOM      7  C   UNL     1      94.511  94.228  76.516  1.00  0.00     0.151 C 
BRANCH   7   8
ATOM      8  C   UNL     1      95.274  94.794  77.658  1.00  0.00    -0.025 A 
ATOM      9  C   UNL     1      95.564  95.129  80.077  1.00  0.00     0.160 A 
ATOM     10  C   UNL     1      96.705  95.923  79.829  1.00  0.00     0.157 A 
ATOM     11  C   UNL     1      94.853  94.579  78.991  1.00  0.00     0.056 A 
ATOM     12  C   UNL     1      97.142  96.130  78.508  1.00  0.00     0.050 A 
ATOM     13  C   UNL     1      96.438  95.561  77.431  1.00  0.00     0.009 A 
BRANCH   9  14
ATOM     14  O   UNL     1      95.181  94.849  81.362  1.00  0.00    -0.493 OA
ATOM     15  C   UNL     1      95.676  93.596  81.863  1.00  0.00     0.278 C 
ENDBRANCH   9  14
BRANCH  10  16
ATOM     16  O   UNL     1      97.400  96.494  80.845  1.00  0.00    -0.504 OA
ATOM     17  H   UNL     1      98.054  97.098  80.484  1.00  0.00     0.293 HD
ENDBRANCH  10  16
ENDBRANCH   7   8
ENDBRANCH   4   7
ENDBRANCH   2   3
ENDBRANCH   1   2
BRANCH   1  18
ATOM     18  C   UNL     1      89.482  91.845  76.880  1.00  0.00     0.001 C 
BRANCH  18  19
ATOM     19  C   UNL     1      90.054  90.405  76.920  1.00  0.00     0.004 C 
BRANCH  19  20
ATOM     20  C   UNL     1      90.875  90.085  75.639  1.00  0.00     0.027 C 
BRANCH  20  21
ATOM     21  C   UNL     1      90.309  90.650  74.426  1.00  0.00    -0.031 C 
ATOM     22  C   UNL     1      91.071  91.218  73.475  1.00  0.00    -0.028 C 
BRANCH  22  23
ATOM     23  C   UNL     1      90.534  91.790  72.242  1.00  0.00     0.005 C 
ATOM     24  C   UNL     1      89.929  90.673  71.350  1.00  0.00     0.012 C 
ATOM     25  C   UNL     1      89.505  92.905  72.572  1.00  0.00     0.012 C 
ENDBRANCH  22  23
ENDBRANCH  20  21
ENDBRANCH  19  20
ENDBRANCH  18  19
ENDBRANCH   1  18
TORSDOF 11
ENDMDL
MODEL 2
REMARK VINA RESULT:    -6.471      1.447      2.402
REMARK INTER + INTRA:         -11.782
REMARK INTER:                 -10.786
REMARK INTRA:                  -0.996
REMARK UNBOUND:                -1.340
REMARK SMILES COc1cc(CNC(=O)CCCCC/C=C/C(C)C)ccc1O
REMARK SMILES IDX 11 1 10 2 8 3 7 4 9 6 6 7 5 8 3 9 22 10 4 11 21 12 20 13
REMARK SMILES IDX 2 14 1 15 23 16 12 18 13 19 14 20 15 21 16 22 17 23 18 24
REMARK SMILES IDX 19 25
REMARK H PARENT 7 5 23 17
REMARK Flexibility Score: inf
ROOT
ATOM      1  C   UNL     1      91.164  94.725  76.445  1.00  0.00     0.010 C 
ENDROOT
BRANCH   1   2
ATOM      2  C   UNL     1      92.225  94.245  75.421  1.00  0.00     0.100 C 
BRANCH   2   3
ATOM      3  C   UNL     1      93.571  94.803  75.646  1.00  0.00     0.220 C 
ATOM      4  N   UNL     1      94.379  94.260  76.599  1.00  0.00    -0.352 N 
ATOM      5  H   UNL     1      93.949  93.530  77.151  1.00  0.00     0.163 HD
ATOM      6  O   UNL     1      93.954  95.748  74.917  1.00  0.00    -0.275 OA
BRANCH   4   7
ATOM      7  C   UNL     1      95.732  94.636  76.853  1.00  0.00     0.151 C 
BRANCH   7   8
ATOM      8  C   UNL     1      96.027  94.765  78.303  1.00  0.00    -0.025 A 
ATOM      9  C   UNL     1      97.369  95.711  80.134  1.00  0.00     0.160 A 
ATOM     10  C   UNL     1      96.619  94.964  81.069  1.00  0.00     0.157 A 
ATOM     11  C   UNL     1      97.074  95.599  78.760  1.00  0.00     0.056 A 
ATOM     12  C   UNL     1      95.564  94.145  80.627  1.00  0.00     0.050 A 
ATOM     13  C   UNL     1      95.263  94.054  79.255  1.00  0.00     0.009 A 
BRANCH   9  14
ATOM     14  O   UNL     1      98.340  96.578  80.560  1.00  0.00    -0.493 OA
ATOM     15  C   UNL     1      99.453  96.702  79.660  1.00  0.00     0.278 C 
ENDBRANCH   9  14
BRANCH  10  16
ATOM     16  O   UNL     1      96.889  95.022  82.397  1.00  0.00    -0.504 OA
ATOM     17  H   UNL     1      96.113  94.750  82.893  1.00  0.00     0.293 HD
ENDBRANCH  10  16
ENDBRANCH   7   8
ENDBRANCH   4   7
ENDBRANCH   2   3
ENDBRANCH   1   2
BRANCH   1  18
ATOM     18  C   UNL     1      89.909  93.815  76.418  1.00  0.00     0.001 C 
BRANCH  18  19
ATOM     19  C   UNL     1      89.972  92.638  77.425  1.00  0.00     0.004 C 
BRANCH  19  20
ATOM     20  C   UNL     1      89.908  91.266  76.698  1.00  0.00     0.027 C 
BRANCH  20  21
ATOM     21  C   UNL     1      89.779  91.375  75.255  1.00  0.00    -0.031 C 
ATOM     22  C   UNL     1      88.810  90.742  74.570  1.00  0.00    -0.028 C 
BRANCH  22  23
ATOM     23  C   UNL     1      88.650  90.835  73.121  1.00  0.00     0.005 C 
ATOM     24  C   UNL     1      87.204  90.448  72.713  1.00  0.00     0.012 C 
ATOM     25  C   UNL     1      89.043  92.254  72.628  1.00  0.00     0.012 C 
ENDBRANCH  22  23
ENDBRANCH  20  21
ENDBRANCH  19  20
ENDBRANCH  18  19
ENDBRANCH   1  18
TORSDOF 11
ENDMDL
MODEL 3
REMARK VINA RESULT:    -6.367      1.436      2.114
REMARK INTER + INTRA:         -11.616
REMARK INTER:                 -10.659
REMARK INTRA:                  -0.956
REMARK UNBOUND:                -1.340
REMARK SMILES COc1cc(CNC(=O)CCCCC/C=C/C(C)C)ccc1O
REMARK SMILES IDX 11 1 10 2 8 3 7 4 9 6 6 7 5 8 3 9 22 10 4 11 21 12 20 13
REMARK SMILES IDX 2 14 1 15 23 16 12 18 13 19 14 20 15 21 16 22 17 23 18 24
REMARK SMILES IDX 19 25
REMARK H PARENT 7 5 23 17
REMARK Flexibility Score: inf
ROOT
ATOM      1  C   UNL     1      91.341  93.878  76.331  1.00  0.00     0.010 C 
ENDROOT
BRANCH   1   2
ATOM      2  C   UNL     1      92.206  94.124  75.067  1.00  0.00     0.100 C 
BRANCH   2   3
ATOM      3  C   UNL     1      93.569  94.605  75.358  1.00  0.00     0.220 C 
ATOM      4  N   UNL     1      94.465  93.777  75.964  1.00  0.00    -0.352 N 
ATOM      5  H   UNL     1      94.089  92.882  76.245  1.00  0.00     0.163 HD
ATOM      6  O   UNL     1      93.882  95.764  74.997  1.00  0.00    -0.275 OA
BRANCH   4   7
ATOM      7  C   UNL     1      95.837  94.080  76.214  1.00  0.00     0.151 C 
BRANCH   7   8
ATOM      8  C   UNL     1      96.040  94.792  77.502  1.00  0.00    -0.025 A 
ATOM      9  C   UNL     1      95.563  95.044  79.902  1.00  0.00     0.160 A 
ATOM     10  C   UNL     1      96.391  96.187  79.945  1.00  0.00     0.157 A 
ATOM     11  C   UNL     1      95.387  94.361  78.681  1.00  0.00     0.056 A 
ATOM     12  C   UNL     1      97.059  96.614  78.783  1.00  0.00     0.050 A 
ATOM     13  C   UNL     1      96.893  95.915  77.573  1.00  0.00     0.009 A 
BRANCH   9  14
ATOM     14  O   UNL     1      94.978  94.569  81.046  1.00  0.00    -0.493 OA
ATOM     15  C   UNL     1      95.807  93.669  81.799  1.00  0.00     0.278 C 
ENDBRANCH   9  14
BRANCH  10  16
ATOM     16  O   UNL     1      96.564  96.889  81.093  1.00  0.00    -0.504 OA
ATOM     17  H   UNL     1      96.870  96.298  81.786  1.00  0.00     0.293 HD
ENDBRANCH  10  16
ENDBRANCH   7   8
ENDBRANCH   4   7
ENDBRANCH   2   3
ENDBRANCH   1   2
BRANCH   1  18
ATOM     18  C   UNL     1      91.469  92.412  76.819  1.00  0.00     0.001 C 
BRANCH  18  19
ATOM     19  C   UNL     1      90.295  91.950  77.718  1.00  0.00     0.004 C 
BRANCH  19  20
ATOM     20  C   UNL     1      89.068  91.512  76.869  1.00  0.00     0.027 C 
BRANCH  20  21
ATOM     21  C   UNL     1      89.423  90.780  75.665  1.00  0.00    -0.031 C 
ATOM     22  C   UNL     1      89.513  89.439  75.639  1.00  0.00    -0.028 C 
BRANCH  22  23
ATOM     23  C   UNL     1      89.862  88.674  74.444  1.00  0.00     0.005 C 
ATOM     24  C   UNL     1      90.293  89.630  73.300  1.00  0.00     0.012 C 
ATOM     25  C   UNL     1      90.955  87.624  74.779  1.00  0.00     0.012 C 
ENDBRANCH  22  23
ENDBRANCH  20  21
ENDBRANCH  19  20
ENDBRANCH  18  19
ENDBRANCH   1  18
TORSDOF 11
ENDMDL
MODEL 4
REMARK VINA RESULT:    -6.294      2.994      8.331
REMARK INTER + INTRA:         -11.497
REMARK INTER:                 -10.333
REMARK INTRA:                  -1.164
REMARK UNBOUND:                -1.340
REMARK SMILES COc1cc(CNC(=O)CCCCC/C=C/C(C)C)ccc1O
REMARK SMILES IDX 11 1 10 2 8 3 7 4 9 6 6 7 5 8 3 9 22 10 4 11 21 12 20 13
REMARK SMILES IDX 2 14 1 15 23 16 12 18 13 19 14 20 15 21 16 22 17 23 18 24
REMARK SMILES IDX 19 25
REMARK H PARENT 7 5 23 17
REMARK Flexibility Score: inf
ROOT
ATOM      1  C   UNL     1      95.018  94.195  75.344  1.00  0.00     0.010 C 
ENDROOT
BRANCH   1   2
ATOM      2  C   UNL     1      94.179  93.870  76.607  1.00  0.00     0.100 C 
BRANCH   2   3
ATOM      3  C   UNL     1      92.834  93.340  76.314  1.00  0.00     0.220 C 
ATOM      4  N   UNL     1      91.888  93.314  77.292  1.00  0.00    -0.352 N 
ATOM      5  H   UNL     1      92.215  93.606  78.203  1.00  0.00     0.163 HD
ATOM      6  O   UNL     1      92.585  92.960  75.145  1.00  0.00    -0.275 OA
BRANCH   4   7
ATOM      7  C   UNL     1      90.527  92.920  77.120  1.00  0.00     0.151 C 
BRANCH   7   8
ATOM      8  C   UNL     1      90.313  91.473  77.380  1.00  0.00    -0.025 A 
ATOM      9  C   UNL     1      90.004  89.177  76.554  1.00  0.00     0.160 A 
ATOM     10  C   UNL     1      89.852  88.721  77.881  1.00  0.00     0.157 A 
ATOM     11  C   UNL     1      90.224  90.548  76.313  1.00  0.00     0.056 A 
ATOM     12  C   UNL     1      89.956  89.628  78.951  1.00  0.00     0.050 A 
ATOM     13  C   UNL     1      90.195  90.992  78.703  1.00  0.00     0.009 A 
BRANCH   9  14
ATOM     14  O   UNL     1      89.992  88.289  75.511  1.00  0.00    -0.493 OA
ATOM     15  C   UNL     1      91.114  88.413  74.621  1.00  0.00     0.278 C 
ENDBRANCH   9  14
BRANCH  10  16
ATOM     16  O   UNL     1      89.610  87.414  78.154  1.00  0.00    -0.504 OA
ATOM     17  H   UNL     1      90.434  86.921  78.111  1.00  0.00     0.293 HD
ENDBRANCH  10  16
ENDBRANCH   7   8
ENDBRANCH   4   7
ENDBRANCH   2   3
ENDBRANCH   1   2
BRANCH   1  18
ATOM     18  C   UNL     1      96.475  94.567  75.721  1.00  0.00     0.001 C 
BRANCH  18  19
ATOM     19  C   UNL     1      96.753  96.092  75.703  1.00  0.00     0.004 C 
BRANCH  19  20
ATOM     20  C   UNL     1      97.408  96.564  77.030  1.00  0.00     0.027 C 
BRANCH  20  21
ATOM     21  C   UNL     1      97.136  95.692  78.160  1.00  0.00    -0.031 C 
ATOM     22  C   UNL     1      96.445  96.104  79.237  1.00  0.00    -0.028 C 
BRANCH  22  23
ATOM     23  C   UNL     1      96.149  95.251  80.385  1.00  0.00     0.005 C 
ATOM     24  C   UNL     1      95.537  93.906  79.912  1.00  0.00     0.012 C 
ATOM     25  C   UNL     1      97.426  95.047  81.245  1.00  0.00     0.012 C 
ENDBRANCH  22  23
ENDBRANCH  20  21
ENDBRANCH  19  20
ENDBRANCH  18  19
ENDBRANCH   1  18
TORSDOF 11
ENDMDL
MODEL 5
REMARK VINA RESULT:    -6.263      3.264      7.765
REMARK INTER + INTRA:         -11.447
REMARK INTER:                 -10.556
REMARK INTRA:                  -0.891
REMARK UNBOUND:                -1.340
REMARK SMILES COc1cc(CNC(=O)CCCCC/C=C/C(C)C)ccc1O
REMARK SMILES IDX 11 1 10 2 8 3 7 4 9 6 6 7 5 8 3 9 22 10 4 11 21 12 20 13
REMARK SMILES IDX 2 14 1 15 23 16 12 18 13 19 14 20 15 21 16 22 17 23 18 24
REMARK SMILES IDX 19 25
REMARK H PARENT 7 5 23 17
REMARK Flexibility Score: inf
ROOT
ATOM      1  C   UNL     1      93.341  94.067  76.156  1.00  0.00     0.010 C 
ENDROOT
BRANCH   1   2
ATOM      2  C   UNL     1      92.051  94.788  76.626  1.00  0.00     0.100 C 
BRANCH   2   3
ATOM      3  C   UNL     1      90.805  94.120  76.207  1.00  0.00     0.220 C 
ATOM      4  N   UNL     1      90.803  92.781  75.960  1.00  0.00    -0.352 N 
ATOM      5  H   UNL     1      91.711  92.341  76.015  1.00  0.00     0.163 HD
ATOM      6  O   UNL     1      89.759  94.807  76.128  1.00  0.00    -0.275 OA
BRANCH   4   7
ATOM      7  C   UNL     1      89.653  91.998  75.644  1.00  0.00     0.151 C 
BRANCH   7   8
ATOM      8  C   UNL     1      89.984  90.572  75.391  1.00  0.00    -0.025 A 
ATOM      9  C   UNL     1      90.381  88.291  76.221  1.00  0.00     0.160 A 
ATOM     10  C   UNL     1      90.670  87.864  74.907  1.00  0.00     0.157 A 
ATOM     11  C   UNL     1      90.050  89.641  76.454  1.00  0.00     0.056 A 
ATOM     12  C   UNL     1      90.592  88.776  73.839  1.00  0.00     0.050 A 
ATOM     13  C   UNL     1      90.241  90.118  74.078  1.00  0.00     0.009 A 
BRANCH   9  14
ATOM     14  O   UNL     1      90.369  87.392  77.255  1.00  0.00    -0.493 OA
ATOM     15  C   UNL     1      89.765  87.891  78.460  1.00  0.00     0.278 C 
ENDBRANCH   9  14
BRANCH  10  16
ATOM     16  O   UNL     1      91.021  86.580  74.645  1.00  0.00    -0.504 OA
ATOM     17  H   UNL     1      91.822  86.362  75.127  1.00  0.00     0.293 HD
ENDBRANCH  10  16
ENDBRANCH   7   8
ENDBRANCH   4   7
ENDBRANCH   2   3
ENDBRANCH   1   2
BRANCH   1  18
ATOM     18  C   UNL     1      94.339  93.886  77.329  1.00  0.00     0.001 C 
BRANCH  18  19
ATOM     19  C   UNL     1      95.528  94.880  77.295  1.00  0.00     0.004 C 
BRANCH  19  20
ATOM     20  C   UNL     1      96.284  94.813  75.938  1.00  0.00     0.027 C 
BRANCH  20  21
ATOM     21  C   UNL     1      96.289  96.070  75.210  1.00  0.00    -0.031 C 
ATOM     22  C   UNL     1      95.202  96.532  74.567  1.00  0.00    -0.028 C 
BRANCH  22  23
ATOM     23  C   UNL     1      95.173  97.794  73.831  1.00  0.00     0.005 C 
ATOM     24  C   UNL     1      93.737  98.086  73.321  1.00  0.00     0.012 C 
ATOM     25  C   UNL     1      95.731  98.943  74.713  1.00  0.00     0.012 C 
ENDBRANCH  22  23
ENDBRANCH  20  21
ENDBRANCH  19  20
ENDBRANCH  18  19
ENDBRANCH   1  18
TORSDOF 11
ENDMDL
MODEL 6
REMARK VINA RESULT:    -6.195      2.340      8.592
REMARK INTER + INTRA:         -11.337
REMARK INTER:                 -10.197
REMARK INTRA:                  -1.140
REMARK UNBOUND:                -1.340
REMARK SMILES COc1cc(CNC(=O)CCCCC/C=C/C(C)C)ccc1O
REMARK SMILES IDX 11 1 10 2 8 3 7 4 9 6 6 7 5 8 3 9 22 10 4 11 21 12 20 13
REMARK SMILES IDX 2 14 1 15 23 16 12 18 13 19 14 20 15 21 16 22 17 23 18 24
REMARK SMILES IDX 19 25
REMARK H PARENT 7 5 23 17
REMARK Flexibility Score: inf
ROOT
ATOM      1  C   UNL     1      94.986  94.156  76.024  1.00  0.00     0.010 C 
ENDROOT
BRANCH   1   2
ATOM      2  C   UNL     1      94.176  94.100  77.345  1.00  0.00     0.100 C 
BRANCH   2   3
ATOM      3  C   UNL     1      92.729  93.889  77.153  1.00  0.00     0.220 C 
ATOM      4  N   UNL     1      92.145  92.746  77.607  1.00  0.00    -0.352 N 
ATOM      5  H   UNL     1      92.788  92.069  77.993  1.00  0.00     0.163 HD
ATOM      6  O   UNL     1      92.062  94.799  76.606  1.00  0.00    -0.275 OA
BRANCH   4   7
ATOM      7  C   UNL     1      90.748  92.458  77.574  1.00  0.00     0.151 C 
BRANCH   7   8
ATOM      8  C   UNL     1      90.346  91.715  76.352  1.00  0.00    -0.025 A 
ATOM      9  C   UNL     1      89.954  89.591  75.175  1.00  0.00     0.160 A 
ATOM     10  C   UNL     1      89.629  90.303  74.000  1.00  0.00     0.157 A 
ATOM     11  C   UNL     1      90.318  90.301  76.338  1.00  0.00     0.056 A 
ATOM     12  C   UNL     1      89.636  91.710  74.008  1.00  0.00     0.050 A 
ATOM     13  C   UNL     1      89.981  92.411  75.178  1.00  0.00     0.009 A 
BRANCH   9  14
ATOM     14  O   UNL     1      89.866  88.224  75.204  1.00  0.00    -0.493 OA
ATOM     15  C   UNL     1      91.136  87.553  75.192  1.00  0.00     0.278 C 
ENDBRANCH   9  14
BRANCH  10  16
ATOM     16  O   UNL     1      89.301  89.657  72.853  1.00  0.00    -0.504 OA
ATOM     17  H   UNL     1      89.247  90.291  72.134  1.00  0.00     0.293 HD
ENDBRANCH  10  16
ENDBRANCH   7   8
ENDBRANCH   4   7
ENDBRANCH   2   3
ENDBRANCH   1   2
BRANCH   1  18
ATOM     18  C   UNL     1      96.477  94.483  76.295  1.00  0.00     0.001 C 
BRANCH  18  19
ATOM     19  C   UNL     1      96.716  95.928  76.802  1.00  0.00     0.004 C 
BRANCH  19  20
ATOM     20  C   UNL     1      97.761  95.960  77.952  1.00  0.00     0.027 C 
BRANCH  20  21
ATOM     21  C   UNL     1      97.240  95.501  79.228  1.00  0.00    -0.031 C 
ATOM     22  C   UNL     1      96.097  95.980  79.752  1.00  0.00    -0.028 C 
BRANCH  22  23
ATOM     23  C   UNL     1      95.544  95.536  81.029  1.00  0.00     0.005 C 
ATOM     24  C   UNL     1      95.815  94.022  81.235  1.00  0.00     0.012 C 
ATOM     25  C   UNL     1      96.110  96.400  82.188  1.00  0.00     0.012 C 
ENDBRANCH  22  23
ENDBRANCH  20  21
ENDBRANCH  19  20
ENDBRANCH  18  19
ENDBRANCH   1  18
TORSDOF 11
ENDMDL
MODEL 7
REMARK VINA RESULT:    -6.165      1.779      3.398
REMARK INTER + INTRA:         -11.289
REMARK INTER:                 -10.438
REMARK INTRA:                  -0.851
REMARK UNBOUND:                -1.340
REMARK SMILES COc1cc(CNC(=O)CCCCC/C=C/C(C)C)ccc1O
REMARK SMILES IDX 11 1 10 2 8 3 7 4 9 6 6 7 5 8 3 9 22 10 4 11 21 12 20 13
REMARK SMILES IDX 2 14 1 15 23 16 12 18 13 19 14 20 15 21 16 22 17 23 18 24
REMARK SMILES IDX 19 25
REMARK H PARENT 7 5 23 17
REMARK Flexibility Score: inf
ROOT
ATOM      1  C   UNL     1      91.816  94.510  76.584  1.00  0.00     0.010 C 
ENDROOT
BRANCH   1   2
ATOM      2  C   UNL     1      92.942  94.384  75.525  1.00  0.00     0.100 C 
BRANCH   2   3
ATOM      3  C   UNL     1      94.250  94.893  75.977  1.00  0.00     0.220 C 
ATOM      4  N   UNL     1      94.782  94.450  77.150  1.00  0.00    -0.352 N 
ATOM      5  H   UNL     1      94.180  93.834  77.679  1.00  0.00     0.163 HD
ATOM      6  O   UNL     1      94.863  95.699  75.238  1.00  0.00    -0.275 OA
BRANCH   4   7
ATOM      7  C   UNL     1      96.074  94.785  77.653  1.00  0.00     0.151 C 
BRANCH   7   8
ATOM      8  C   UNL     1      96.050  95.152  79.093  1.00  0.00    -0.025 A 
ATOM      9  C   UNL     1      96.631  96.701  80.913  1.00  0.00     0.160 A 
ATOM     10  C   UNL     1      96.046  95.819  81.849  1.00  0.00     0.157 A 
ATOM     11  C   UNL     1      96.636  96.357  79.546  1.00  0.00     0.056 A 
ATOM     12  C   UNL     1      95.445  94.626  81.408  1.00  0.00     0.050 A 
ATOM     13  C   UNL     1      95.437  94.300  80.039  1.00  0.00     0.009 A 
BRANCH   9  14
ATOM     14  O   UNL     1      97.141  97.905  81.321  1.00  0.00    -0.493 OA
ATOM     15  C   UNL     1      96.213  98.999  81.224  1.00  0.00     0.278 C 
ENDBRANCH   9  14
BRANCH  10  16
ATOM     16  O   UNL     1      96.046  96.100  83.176  1.00  0.00    -0.504 OA
ATOM     17  H   UNL     1      95.218  96.525  83.412  1.00  0.00     0.293 HD
ENDBRANCH  10  16
ENDBRANCH   7   8
ENDBRANCH   4   7
ENDBRANCH   2   3
ENDBRANCH   1   2
BRANCH   1  18
ATOM     18  C   UNL     1      91.429  93.122  77.157  1.00  0.00     0.001 C 
BRANCH  18  19
ATOM     19  C   UNL     1      90.028  92.633  76.711  1.00  0.00     0.004 C 
BRANCH  19  20
ATOM     20  C   UNL     1      90.080  91.965  75.309  1.00  0.00     0.027 C 
BRANCH  20  21
ATOM     21  C   UNL     1      90.140  90.514  75.354  1.00  0.00    -0.031 C 
ATOM     22  C   UNL     1      89.855  89.817  76.469  1.00  0.00    -0.028 C 
BRANCH  22  23
ATOM     23  C   UNL     1      89.900  88.359  76.546  1.00  0.00     0.005 C 
ATOM     24  C   UNL     1      91.104  87.815  75.732  1.00  0.00     0.012 C 
ATOM     25  C   UNL     1      89.936  87.901  78.029  1.00  0.00     0.012 C 
ENDBRANCH  22  23
ENDBRANCH  20  21
ENDBRANCH  19  20
ENDBRANCH  18  19
ENDBRANCH   1  18
TORSDOF 11
ENDMDL
MODEL 8
REMARK VINA RESULT:    -5.962      4.817      7.682
REMARK INTER + INTRA:         -10.962
REMARK INTER:                 -10.209
REMARK INTRA:                  -0.753
REMARK UNBOUND:                -1.340
REMARK SMILES COc1cc(CNC(=O)CCCCC/C=C/C(C)C)ccc1O
REMARK SMILES IDX 11 1 10 2 8 3 7 4 9 6 6 7 5 8 3 9 22 10 4 11 21 12 20 13
REMARK SMILES IDX 2 14 1 15 23 16 12 18 13 19 14 20 15 21 16 22 17 23 18 24
REMARK SMILES IDX 19 25
REMARK H PARENT 7 5 23 17
REMARK Flexibility Score: inf
ROOT
ATOM      1  C   UNL     1      94.988  98.337  72.754  1.00  0.00     0.010 C 
ENDROOT
BRANCH   1   2
ATOM      2  C   UNL     1      94.075  97.796  73.885  1.00  0.00     0.100 C 
BRANCH   2   3
ATOM      3  C   UNL     1      94.503  96.493  74.430  1.00  0.00     0.220 C 
ATOM      4  N   UNL     1      93.569  95.590  74.838  1.00  0.00    -0.352 N 
ATOM      5  H   UNL     1      92.615  95.924  74.802  1.00  0.00     0.163 HD
ATOM      6  O   UNL     1      95.729  96.236  74.464  1.00  0.00    -0.275 OA
BRANCH   4   7
ATOM      7  C   UNL     1      93.840  94.265  75.291  1.00  0.00     0.151 C 
BRANCH   7   8
ATOM      8  C   UNL     1      92.606  93.521  75.655  1.00  0.00    -0.025 A 
ATOM      9  C   UNL     1      90.966  91.747  75.194  1.00  0.00     0.160 A 
ATOM     10  C   UNL     1      90.221  92.142  76.326  1.00  0.00     0.157 A 
ATOM     11  C   UNL     1      92.146  92.444  74.862  1.00  0.00     0.056 A 
ATOM     12  C   UNL     1      90.678  93.201  77.132  1.00  0.00     0.050 A 
ATOM     13  C   UNL     1      91.867  93.879  76.805  1.00  0.00     0.009 A 
BRANCH   9  14
ATOM     14  O   UNL     1      90.577  90.663  74.453  1.00  0.00    -0.493 OA
ATOM     15  C   UNL     1      91.461  89.534  74.555  1.00  0.00     0.278 C 
ENDBRANCH   9  14
BRANCH  10  16
ATOM     16  O   UNL     1      89.065  91.517  76.663  1.00  0.00    -0.504 OA
ATOM     17  H   UNL     1      89.216  90.961  77.432  1.00  0.00     0.293 HD
ENDBRANCH  10  16
ENDBRANCH   7   8
ENDBRANCH   4   7
ENDBRANCH   2   3
ENDBRANCH   1   2
BRANCH   1  18
ATOM     18  C   UNL     1      94.537  97.806  71.369  1.00  0.00     0.001 C 
BRANCH  18  19
ATOM     19  C   UNL     1      94.117  98.922  70.380  1.00  0.00     0.004 C 
BRANCH  19  20
ATOM     20  C   UNL     1      92.762  99.563  70.790  1.00  0.00     0.027 C 
BRANCH  20  21
ATOM     21  C   UNL     1      91.720  99.419  69.787  1.00  0.00    -0.031 C 
ATOM     22  C   UNL     1      91.357  98.220  69.296  1.00  0.00    -0.028 C 
BRANCH  22  23
ATOM     23  C   UNL     1      90.310  98.041  68.293  1.00  0.00     0.005 C 
ATOM     24  C   UNL     1      90.357  99.194  67.255  1.00  0.00     0.012 C 
ATOM     25  C   UNL     1      90.439  96.644  67.627  1.00  0.00     0.012 C 
ENDBRANCH  22  23
ENDBRANCH  20  21
ENDBRANCH  19  20
ENDBRANCH  18  19
ENDBRANCH   1  18
TORSDOF 11
ENDMDL
MODEL 9
REMARK VINA RESULT:    -5.479     15.306     18.095
REMARK INTER + INTRA:         -10.183
REMARK INTER:                  -7.889
REMARK INTRA:                  -2.294
REMARK UNBOUND:                -1.340
REMARK SMILES COc1cc(CNC(=O)CCCCC/C=C/C(C)C)ccc1O
REMARK SMILES IDX 11 1 10 2 8 3 7 4 9 6 6 7 5 8 3 9 22 10 4 11 21 12 20 13
REMARK SMILES IDX 2 14 1 15 23 16 12 18 13 19 14 20 15 21 16 22 17 23 18 24
REMARK SMILES IDX 19 25
REMARK H PARENT 7 5 23 17
REMARK Flexibility Score: inf
ROOT
ATOM      1  C   UNL     1      81.555  89.754  84.551  1.00  0.00     0.010 C 
ENDROOT
BRANCH   1   2
ATOM      2  C   UNL     1      81.016  88.487  83.838  1.00  0.00     0.100 C 
BRANCH   2   3
ATOM      3  C   UNL     1      80.850  87.322  84.727  1.00  0.00     0.220 C 
ATOM      4  N   UNL     1      80.478  87.506  86.024  1.00  0.00    -0.352 N 
ATOM      5  H   UNL     1      80.411  88.474  86.310  1.00  0.00     0.163 HD
ATOM      6  O   UNL     1      81.020  86.176  84.246  1.00  0.00    -0.275 OA
BRANCH   4   7
ATOM      7  C   UNL     1      80.190  86.469  86.960  1.00  0.00     0.151 C 
BRANCH   7   8
ATOM      8  C   UNL     1      80.436  86.882  88.366  1.00  0.00    -0.025 A 
ATOM      9  C   UNL     1      79.655  87.145  90.683  1.00  0.00     0.160 A 
ATOM     10  C   UNL     1      80.894  87.723  91.035  1.00  0.00     0.157 A 
ATOM     11  C   UNL     1      79.432  86.738  89.352  1.00  0.00     0.056 A 
ATOM     12  C   UNL     1      81.905  87.857  90.066  1.00  0.00     0.050 A 
ATOM     13  C   UNL     1      81.682  87.430  88.744  1.00  0.00     0.009 A 
BRANCH   9  14
ATOM     14  O   UNL     1      78.695  86.930  91.637  1.00  0.00    -0.493 OA
ATOM     15  C   UNL     1      78.597  85.564  92.074  1.00  0.00     0.278 C 
ENDBRANCH   9  14
BRANCH  10  16
ATOM     16  O   UNL     1      81.138  88.154  92.298  1.00  0.00    -0.504 OA
ATOM     17  H   UNL     1      80.572  87.679  92.912  1.00  0.00     0.293 HD
ENDBRANCH  10  16
ENDBRANCH   7   8
ENDBRANCH   4   7
ENDBRANCH   2   3
ENDBRANCH   1   2
BRANCH   1  18
ATOM     18  C   UNL     1      83.091  89.679  84.740  1.00  0.00     0.001 C 
BRANCH  18  19
ATOM     19  C   UNL     1      83.529  89.464  86.210  1.00  0.00     0.004 C 
BRANCH  19  20
ATOM     20  C   UNL     1      83.976  90.798  86.870  1.00  0.00     0.027 C 
BRANCH  20  21
ATOM     21  C   UNL     1      83.108  91.235  87.951  1.00  0.00    -0.031 C 
ATOM     22  C   UNL     1      81.775  91.059  87.918  1.00  0.00    -0.028 C 
BRANCH  22  23
ATOM     23  C   UNL     1      80.876  91.480  88.990  1.00  0.00     0.005 C 
ATOM     24  C   UNL     1      79.598  90.601  88.998  1.00  0.00     0.012 C 
ATOM     25  C   UNL     1      81.618  91.455  90.354  1.00  0.00     0.012 C 
ENDBRANCH  22  23
ENDBRANCH  20  21
ENDBRANCH  19  20
ENDBRANCH  18  19
ENDBRANCH   1  18
TORSDOF 11
ENDMDL
MODEL 10
REMARK VINA RESULT:    -5.414     14.604     17.615
REMARK INTER + INTRA:         -10.076
REMARK INTER:                  -8.026
REMARK INTRA:                  -2.050
REMARK UNBOUND:                -1.340
REMARK SMILES COc1cc(CNC(=O)CCCCC/C=C/C(C)C)ccc1O
REMARK SMILES IDX 11 1 10 2 8 3 7 4 9 6 6 7 5 8 3 9 22 10 4 11 21 12 20 13
REMARK SMILES IDX 2 14 1 15 23 16 12 18 13 19 14 20 15 21 16 22 17 23 18 24
REMARK SMILES IDX 19 25
REMARK H PARENT 7 5 23 17
REMARK Flexibility Score: inf
ROOT
ATOM      1  C   UNL     1      81.599  92.524  89.077  1.00  0.00     0.010 C 
ENDROOT
BRANCH   1   2
ATOM      2  C   UNL     1      82.886  91.690  89.305  1.00  0.00     0.100 C 
BRANCH   2   3
ATOM      3  C   UNL     1      83.256  90.833  88.164  1.00  0.00     0.220 C 
ATOM      4  N   UNL     1      82.879  91.182  86.903  1.00  0.00    -0.352 N 
ATOM      5  H   UNL     1      82.287  92.000  86.852  1.00  0.00     0.163 HD
ATOM      6  O   UNL     1      83.951  89.813  88.386  1.00  0.00    -0.275 OA
BRANCH   4   7
ATOM      7  C   UNL     1      83.250  90.499  85.707  1.00  0.00     0.151 C 
BRANCH   7   8
ATOM      8  C   UNL     1      82.285  89.432  85.335  1.00  0.00    -0.025 A 
ATOM      9  C   UNL     1      81.732  87.051  85.066  1.00  0.00     0.160 A 
ATOM     10  C   UNL     1      80.458  87.403  84.572  1.00  0.00     0.157 A 
ATOM     11  C   UNL     1      82.638  88.066  85.435  1.00  0.00     0.056 A 
ATOM     12  C   UNL     1      80.089  88.758  84.484  1.00  0.00     0.050 A 
ATOM     13  C   UNL     1      80.992  89.765  84.872  1.00  0.00     0.009 A 
BRANCH   9  14
ATOM     14  O   UNL     1      82.069  85.734  85.238  1.00  0.00    -0.493 OA
ATOM     15  C   UNL     1      82.561  85.420  86.551  1.00  0.00     0.278 C 
ENDBRANCH   9  14
BRANCH  10  16
ATOM     16  O   UNL     1      79.567  86.457  84.180  1.00  0.00    -0.504 OA
ATOM     17  H   UNL     1      79.765  86.187  83.280  1.00  0.00     0.293 HD
ENDBRANCH  10  16
ENDBRANCH   7   8
ENDBRANCH   4   7
ENDBRANCH   2   3
ENDBRANCH   1   2
BRANCH   1  18
ATOM     18  C   UNL     1      80.666  92.463  90.313  1.00  0.00     0.001 C 
BRANCH  18  19
ATOM     19  C   UNL     1      81.296  91.748  91.535  1.00  0.00     0.004 C 
BRANCH  19  20
ATOM     20  C   UNL     1      80.474  90.494  91.944  1.00  0.00     0.027 C 
BRANCH  20  21
ATOM     21  C   UNL     1      80.195  89.592  90.839  1.00  0.00    -0.031 C 
ATOM     22  C   UNL     1      81.015  88.576  90.516  1.00  0.00    -0.028 C 
BRANCH  22  23
ATOM     23  C   UNL     1      80.760  87.650  89.416  1.00  0.00     0.005 C 
ATOM     24  C   UNL     1      79.812  86.511  89.880  1.00  0.00     0.012 C 
ATOM     25  C   UNL     1      80.202  88.417  88.186  1.00  0.00     0.012 C 
ENDBRANCH  22  23
ENDBRANCH  20  21
ENDBRANCH  19  20
ENDBRANCH  18  19
ENDBRANCH   1  18
TORSDOF 11
ENDMDL
