MODEL 1
REMARK VINA RESULT:    -5.955      0.000      0.000
REMARK INTER + INTRA:         -10.730
REMARK INTER:                  -9.610
REMARK INTRA:                  -1.120
REMARK UNBOUND:                -1.120
REMARK SMILES CCCCCCCCC(=O)NCc1ccc(O)c(OC)c1
REMARK SMILES IDX 7 1 6 2 5 3 4 4 3 5 2 6 1 7 8 8 9 9 10 10 11 11 12 13 13 14
REMARK SMILES IDX 21 15 14 16 18 17 15 18 16 19 19 20 20 21 17 22
REMARK H PARENT 11 12 17 23
REMARK Flexibility Score: inf
ROOT
ATOM      1  C   UNL     1      90.097  92.196  72.505  1.00  0.00     0.010 C 
ENDROOT
BRANCH   1   2
ATOM      2  C   UNL     1      88.590  91.870  72.296  1.00  0.00     0.001 C 
BRANCH   2   3
ATOM      3  C   UNL     1      88.196  90.490  72.900  1.00  0.00     0.000 C 
BRANCH   3   4
ATOM      4  C   UNL     1      89.397  89.699  73.492  1.00  0.00    -0.000 C 
BRANCH   4   5
ATOM      5  C   UNL     1      89.164  89.270  74.968  1.00  0.00    -0.000 C 
BRANCH   5   6
ATOM      6  C   UNL     1      88.851  90.474  75.896  1.00  0.00    -0.003 C 
ATOM      7  C   UNL     1      89.753  90.517  77.149  1.00  0.00     0.004 C 
ENDBRANCH   5   6
ENDBRANCH   4   5
ENDBRANCH   3   4
ENDBRANCH   2   3
ENDBRANCH   1   2
BRANCH   1   8
ATOM      8  C   UNL     1      90.357  93.340  73.525  1.00  0.00     0.100 C 
BRANCH   8   9
ATOM      9  C   UNL     1      91.215  92.881  74.644  1.00  0.00     0.220 C 
ATOM     10  O   UNL     1      91.881  91.829  74.490  1.00  0.00    -0.275 OA
ATOM     11  N   UNL     1      91.294  93.605  75.799  1.00  0.00    -0.352 N 
ATOM     12  H   UNL     1      90.653  94.382  75.849  1.00  0.00     0.163 HD
BRANCH  11  13
ATOM     13  C   UNL     1      92.186  93.345  76.888  1.00  0.00     0.151 C 
BRANCH  13  14
ATOM     14  C   UNL     1      93.462  94.105  76.814  1.00  0.00    -0.025 A 
ATOM     15  C   UNL     1      94.288  94.223  77.957  1.00  0.00     0.056 A 
ATOM     16  C   UNL     1      93.871  94.724  75.610  1.00  0.00     0.009 A 
ATOM     17  C   UNL     1      95.513  94.928  77.898  1.00  0.00     0.160 A 
ATOM     18  C   UNL     1      95.088  95.425  75.544  1.00  0.00     0.050 A 
ATOM     19  C   UNL     1      95.907  95.536  76.685  1.00  0.00     0.157 A 
BRANCH  17  20
ATOM     20  O   UNL     1      96.292  95.077  79.018  1.00  0.00    -0.493 OA
ATOM     21  C   UNL     1      95.548  95.329  80.223  1.00  0.00     0.278 C 
ENDBRANCH  17  20
BRANCH  19  22
ATOM     22  O   UNL     1      97.066  96.238  76.618  1.00  0.00    -0.504 OA
ATOM     23  H   UNL     1      97.325  96.513  77.501  1.00  0.00     0.293 HD
ENDBRANCH  19  22
ENDBRANCH  13  14
ENDBRANCH  11  13
ENDBRANCH   8   9
ENDBRANCH   1   8
TORSDOF 11
ENDMDL
MODEL 2
REMARK VINA RESULT:    -5.848      2.338      4.059
REMARK INTER + INTRA:         -10.558
REMARK INTER:                  -9.887
REMARK INTRA:                  -0.672
REMARK UNBOUND:                -1.120
REMARK SMILES CCCCCCCCC(=O)NCc1ccc(O)c(OC)c1
REMARK SMILES IDX 7 1 6 2 5 3 4 4 3 5 2 6 1 7 8 8 9 9 10 10 11 11 12 13 13 14
REMARK SMILES IDX 21 15 14 16 18 17 15 18 16 19 19 20 20 21 17 22
REMARK H PARENT 11 12 17 23
REMARK Flexibility Score: inf
ROOT
ATOM      1  C   UNL     1      91.539  92.688  77.572  1.00  0.00     0.010 C 
ENDROOT
BRANCH   1   2
ATOM      2  C   UNL     1      90.032  92.300  77.568  1.00  0.00     0.001 C 
BRANCH   2   3
ATOM      3  C   UNL     1      89.542  91.853  76.159  1.00  0.00     0.000 C 
BRANCH   3   4
ATOM      4  C   UNL     1      88.796  90.489  76.158  1.00  0.00    -0.000 C 
BRANCH   4   5
ATOM      5  C   UNL     1      89.155  89.610  74.926  1.00  0.00    -0.000 C 
BRANCH   5   6
ATOM      6  C   UNL     1      90.677  89.605  74.620  1.00  0.00    -0.003 C 
ATOM      7  C   UNL     1      91.335  88.231  74.872  1.00  0.00     0.004 C 
ENDBRANCH   5   6
ENDBRANCH   4   5
ENDBRANCH   3   4
ENDBRANCH   2   3
ENDBRANCH   1   2
BRANCH   1   8
ATOM      8  C   UNL     1      91.879  93.899  76.660  1.00  0.00     0.100 C 
BRANCH   8   9
ATOM      9  C   UNL     1      93.336  94.175  76.650  1.00  0.00     0.220 C 
ATOM     10  O   UNL     1      93.801  94.883  75.724  1.00  0.00    -0.275 OA
ATOM     11  N   UNL     1      94.140  93.692  77.642  1.00  0.00    -0.352 N 
ATOM     12  H   UNL     1      93.679  93.065  78.285  1.00  0.00     0.163 HD
BRANCH  11  13
ATOM     13  C   UNL     1      95.525  94.004  77.821  1.00  0.00     0.151 C 
BRANCH  13  14
ATOM     14  C   UNL     1      95.855  94.521  79.175  1.00  0.00    -0.025 A 
ATOM     15  C   UNL     1      96.422  95.809  79.327  1.00  0.00     0.056 A 
ATOM     16  C   UNL     1      95.614  93.741  80.330  1.00  0.00     0.009 A 
ATOM     17  C   UNL     1      96.725  96.322  80.610  1.00  0.00     0.160 A 
ATOM     18  C   UNL     1      95.912  94.246  81.608  1.00  0.00     0.050 A 
ATOM     19  C   UNL     1      96.474  95.529  81.752  1.00  0.00     0.157 A 
BRANCH  17  20
ATOM     20  O   UNL     1      97.314  97.553  80.752  1.00  0.00    -0.493 OA
ATOM     21  C   UNL     1      97.137  98.424  79.621  1.00  0.00     0.278 C 
ENDBRANCH  17  20
BRANCH  19  22
ATOM     22  O   UNL     1      96.783  95.996  82.989  1.00  0.00    -0.504 OA
ATOM     23  H   UNL     1      95.983  96.293  83.428  1.00  0.00     0.293 HD
ENDBRANCH  19  22
ENDBRANCH  13  14
ENDBRANCH  11  13
ENDBRANCH   8   9
ENDBRANCH   1   8
TORSDOF 11
ENDMDL
MODEL 3
REMARK VINA RESULT:    -5.588      1.752      3.364
REMARK INTER + INTRA:         -10.138
REMARK INTER:                  -9.504
REMARK INTRA:                  -0.634
REMARK UNBOUND:                -1.120
REMARK SMILES CCCCCCCCC(=O)NCc1ccc(O)c(OC)c1
REMARK SMILES IDX 7 1 6 2 5 3 4 4 3 5 2 6 1 7 8 8 9 9 10 10 11 11 12 13 13 14
REMARK SMILES IDX 21 15 14 16 18 17 15 18 16 19 19 20 20 21 17 22
REMARK H PARENT 11 12 17 23
REMARK Flexibility Score: inf
ROOT
ATOM      1  C   UNL     1      90.642  92.145  77.642  1.00  0.00     0.010 C 
ENDROOT
BRANCH   1   2
ATOM      2  C   UNL     1      89.978  90.940  76.916  1.00  0.00     0.001 C 
BRANCH   2   3
ATOM      3  C   UNL     1      89.608  91.272  75.440  1.00  0.00     0.000 C 
BRANCH   3   4
ATOM      4  C   UNL     1      88.778  90.161  74.737  1.00  0.00    -0.000 C 
BRANCH   4   5
ATOM      5  C   UNL     1      88.332  90.564  73.302  1.00  0.00    -0.000 C 
BRANCH   5   6
ATOM      6  C   UNL     1      89.458  91.275  72.505  1.00  0.00    -0.003 C 
ATOM      7  C   UNL     1      89.851  90.519  71.217  1.00  0.00     0.004 C 
ENDBRANCH   5   6
ENDBRANCH   4   5
ENDBRANCH   3   4
ENDBRANCH   2   3
ENDBRANCH   1   2
BRANCH   1   8
ATOM      8  C   UNL     1      90.951  93.350  76.709  1.00  0.00     0.100 C 
BRANCH   8   9
ATOM      9  C   UNL     1      92.396  93.426  76.387  1.00  0.00     0.220 C 
ATOM     10  O   UNL     1      92.853  92.652  75.513  1.00  0.00    -0.275 OA
ATOM     11  N   UNL     1      93.198  94.339  77.010  1.00  0.00    -0.352 N 
ATOM     12  H   UNL     1      92.748  94.850  77.756  1.00  0.00     0.163 HD
BRANCH  11  13
ATOM     13  C   UNL     1      94.567  94.606  76.689  1.00  0.00     0.151 C 
BRANCH  13  14
ATOM     14  C   UNL     1      95.400  94.973  77.865  1.00  0.00    -0.025 A 
ATOM     15  C   UNL     1      94.955  94.672  79.175  1.00  0.00     0.056 A 
ATOM     16  C   UNL     1      96.641  95.629  77.700  1.00  0.00     0.009 A 
ATOM     17  C   UNL     1      95.744  95.000  80.301  1.00  0.00     0.160 A 
ATOM     18  C   UNL     1      97.431  95.957  78.816  1.00  0.00     0.050 A 
ATOM     19  C   UNL     1      96.984  95.652  80.116  1.00  0.00     0.157 A 
BRANCH  17  20
ATOM     20  O   UNL     1      95.293  94.745  81.572  1.00  0.00    -0.493 OA
ATOM     21  C   UNL     1      95.589  93.420  82.047  1.00  0.00     0.278 C 
ENDBRANCH  17  20
BRANCH  19  22
ATOM     22  O   UNL     1      97.741  95.996  81.189  1.00  0.00    -0.504 OA
ATOM     23  H   UNL     1      97.168  96.241  81.920  1.00  0.00     0.293 HD
ENDBRANCH  19  22
ENDBRANCH  13  14
ENDBRANCH  11  13
ENDBRANCH   8   9
ENDBRANCH   1   8
TORSDOF 11
ENDMDL
MODEL 4
REMARK VINA RESULT:    -5.561     15.012     16.847
REMARK INTER + INTRA:         -10.094
REMARK INTER:                  -8.486
REMARK INTRA:                  -1.608
REMARK UNBOUND:                -1.120
REMARK SMILES CCCCCCCCC(=O)NCc1ccc(O)c(OC)c1
REMARK SMILES IDX 7 1 6 2 5 3 4 4 3 5 2 6 1 7 8 8 9 9 10 10 11 11 12 13 13 14
REMARK SMILES IDX 21 15 14 16 18 17 15 18 16 19 19 20 20 21 17 22
REMARK H PARENT 11 12 17 23
REMARK Flexibility Score: inf
ROOT
ATOM      1  C   UNL     1      80.378  85.900  85.487  1.00  0.00     0.010 C 
ENDROOT
BRANCH   1   2
ATOM      2  C   UNL     1      80.884  86.196  84.046  1.00  0.00     0.001 C 
BRANCH   2   3
ATOM      3  C   UNL     1      80.284  87.512  83.470  1.00  0.00     0.000 C 
BRANCH   3   4
ATOM      4  C   UNL     1      79.776  88.499  84.558  1.00  0.00    -0.000 C 
BRANCH   4   5
ATOM      5  C   UNL     1      80.598  89.819  84.602  1.00  0.00    -0.000 C 
BRANCH   5   6
ATOM      6  C   UNL     1      81.566  89.878  85.815  1.00  0.00    -0.003 C 
ATOM      7  C   UNL     1      82.910  89.167  85.546  1.00  0.00     0.004 C 
ENDBRANCH   5   6
ENDBRANCH   4   5
ENDBRANCH   3   4
ENDBRANCH   2   3
ENDBRANCH   1   2
BRANCH   1   8
ATOM      8  C   UNL     1      81.506  85.864  86.555  1.00  0.00     0.100 C 
BRANCH   8   9
ATOM      9  C   UNL     1      81.149  86.672  87.746  1.00  0.00     0.220 C 
ATOM     10  O   UNL     1      80.056  87.288  87.741  1.00  0.00    -0.275 OA
ATOM     11  N   UNL     1      81.979  86.717  88.829  1.00  0.00    -0.352 N 
ATOM     12  H   UNL     1      82.868  86.258  88.693  1.00  0.00     0.163 HD
BRANCH  11  13
ATOM     13  C   UNL     1      81.684  87.341  90.083  1.00  0.00     0.151 C 
BRANCH  13  14
ATOM     14  C   UNL     1      82.499  88.555  90.357  1.00  0.00    -0.025 A 
ATOM     15  C   UNL     1      82.601  89.579  89.384  1.00  0.00     0.056 A 
ATOM     16  C   UNL     1      83.185  88.708  91.583  1.00  0.00     0.009 A 
ATOM     17  C   UNL     1      83.357  90.746  89.637  1.00  0.00     0.160 A 
ATOM     18  C   UNL     1      83.938  89.868  91.841  1.00  0.00     0.050 A 
ATOM     19  C   UNL     1      84.033  90.883  90.870  1.00  0.00     0.157 A 
BRANCH  17  20
ATOM     20  O   UNL     1      83.489  91.718  88.677  1.00  0.00    -0.493 OA
ATOM     21  C   UNL     1      82.368  92.615  88.589  1.00  0.00     0.278 C 
ENDBRANCH  17  20
BRANCH  19  22
ATOM     22  O   UNL     1      84.785  91.986  91.118  1.00  0.00    -0.504 OA
ATOM     23  H   UNL     1      84.359  92.518  91.795  1.00  0.00     0.293 HD
ENDBRANCH  19  22
ENDBRANCH  13  14
ENDBRANCH  11  13
ENDBRANCH   8   9
ENDBRANCH   1   8
TORSDOF 11
ENDMDL
MODEL 5
REMARK VINA RESULT:    -5.420     14.114     17.026
REMARK INTER + INTRA:          -9.866
REMARK INTER:                  -8.575
REMARK INTRA:                  -1.291
REMARK UNBOUND:                -1.120
REMARK SMILES CCCCCCCCC(=O)NCc1ccc(O)c(OC)c1
REMARK SMILES IDX 7 1 6 2 5 3 4 4 3 5 2 6 1 7 8 8 9 9 10 10 11 11 12 13 13 14
REMARK SMILES IDX 21 15 14 16 18 17 15 18 16 19 19 20 20 21 17 22
REMARK H PARENT 11 12 17 23
REMARK Flexibility Score: inf
ROOT
ATOM      1  C   UNL     1      84.514  89.909  85.329  1.00  0.00     0.010 C 
ENDROOT
BRANCH   1   2
ATOM      2  C   UNL     1      83.199  89.087  85.209  1.00  0.00     0.001 C 
BRANCH   2   3
ATOM      3  C   UNL     1      82.002  89.959  84.726  1.00  0.00     0.000 C 
BRANCH   3   4
ATOM      4  C   UNL     1      80.691  89.725  85.529  1.00  0.00    -0.000 C 
BRANCH   4   5
ATOM      5  C   UNL     1      79.596  89.004  84.693  1.00  0.00    -0.000 C 
BRANCH   5   6
ATOM      6  C   UNL     1      79.931  87.510  84.435  1.00  0.00    -0.003 C 
ATOM      7  C   UNL     1      80.125  87.189  82.936  1.00  0.00     0.004 C 
ENDBRANCH   5   6
ENDBRANCH   4   5
ENDBRANCH   3   4
ENDBRANCH   2   3
ENDBRANCH   1   2
BRANCH   1   8
ATOM      8  C   UNL     1      84.303  91.365  85.830  1.00  0.00     0.100 C 
BRANCH   8   9
ATOM      9  C   UNL     1      83.725  91.388  87.195  1.00  0.00     0.220 C 
ATOM     10  O   UNL     1      82.997  92.358  87.517  1.00  0.00    -0.275 OA
ATOM     11  N   UNL     1      83.959  90.362  88.065  1.00  0.00    -0.352 N 
ATOM     12  H   UNL     1      84.625  89.680  87.736  1.00  0.00     0.163 HD
BRANCH  11  13
ATOM     13  C   UNL     1      83.348  90.200  89.349  1.00  0.00     0.151 C 
BRANCH  13  14
ATOM     14  C   UNL     1      82.029  89.514  89.305  1.00  0.00    -0.025 A 
ATOM     15  C   UNL     1      81.936  88.176  88.852  1.00  0.00     0.056 A 
ATOM     16  C   UNL     1      80.849  90.182  89.708  1.00  0.00     0.009 A 
ATOM     17  C   UNL     1      80.691  87.506  88.821  1.00  0.00     0.160 A 
ATOM     18  C   UNL     1      79.608  89.520  89.680  1.00  0.00     0.050 A 
ATOM     19  C   UNL     1      79.523  88.188  89.231  1.00  0.00     0.157 A 
BRANCH  17  20
ATOM     20  O   UNL     1      80.597  86.224  88.342  1.00  0.00    -0.493 OA
ATOM     21  C   UNL     1      81.475  85.942  87.238  1.00  0.00     0.278 C 
ENDBRANCH  17  20
BRANCH  19  22
ATOM     22  O   UNL     1      78.317  87.568  89.182  1.00  0.00    -0.504 OA
ATOM     23  H   UNL     1      77.971  87.470  90.073  1.00  0.00     0.293 HD
ENDBRANCH  19  22
ENDBRANCH  13  14
ENDBRANCH  11  13
ENDBRANCH   8   9
ENDBRANCH   1   8
TORSDOF 11
ENDMDL
MODEL 6
REMARK VINA RESULT:    -5.292      2.614      3.958
REMARK INTER + INTRA:          -9.660
REMARK INTER:                  -8.947
REMARK INTRA:                  -0.713
REMARK UNBOUND:                -1.120
REMARK SMILES CCCCCCCCC(=O)NCc1ccc(O)c(OC)c1
REMARK SMILES IDX 7 1 6 2 5 3 4 4 3 5 2 6 1 7 8 8 9 9 10 10 11 11 12 13 13 14
REMARK SMILES IDX 21 15 14 16 18 17 15 18 16 19 19 20 20 21 17 22
REMARK H PARENT 11 12 17 23
REMARK Flexibility Score: inf
ROOT
ATOM      1  C   UNL     1      91.282  94.737  76.440  1.00  0.00     0.010 C 
ENDROOT
BRANCH   1   2
ATOM      2  C   UNL     1      89.856  94.136  76.281  1.00  0.00     0.001 C 
BRANCH   2   3
ATOM      3  C   UNL     1      89.639  92.887  77.185  1.00  0.00     0.000 C 
BRANCH   3   4
ATOM      4  C   UNL     1      89.179  91.622  76.406  1.00  0.00    -0.000 C 
BRANCH   4   5
ATOM      5  C   UNL     1      90.277  90.522  76.346  1.00  0.00    -0.000 C 
BRANCH   5   6
ATOM      6  C   UNL     1      89.909  89.266  77.179  1.00  0.00    -0.003 C 
ATOM      7  C   UNL     1      90.649  87.994  76.708  1.00  0.00     0.004 C 
ENDBRANCH   5   6
ENDBRANCH   4   5
ENDBRANCH   3   4
ENDBRANCH   2   3
ENDBRANCH   1   2
BRANCH   1   8
ATOM      8  C   UNL     1      92.325  93.738  77.014  1.00  0.00     0.100 C 
BRANCH   8   9
ATOM      9  C   UNL     1      93.681  94.007  76.476  1.00  0.00     0.220 C 
ATOM     10  O   UNL     1      93.782  94.692  75.431  1.00  0.00    -0.275 OA
ATOM     11  N   UNL     1      94.789  93.542  77.125  1.00  0.00    -0.352 N 
ATOM     12  H   UNL     1      94.591  92.931  77.904  1.00  0.00     0.163 HD
BRANCH  11  13
ATOM     13  C   UNL     1      96.145  93.850  76.789  1.00  0.00     0.151 C 
BRANCH  13  14
ATOM     14  C   UNL     1      96.743  94.924  77.627  1.00  0.00    -0.025 A 
ATOM     15  C   UNL     1      97.897  95.614  77.184  1.00  0.00     0.056 A 
ATOM     16  C   UNL     1      96.178  95.271  78.875  1.00  0.00     0.009 A 
ATOM     17  C   UNL     1      98.466  96.648  77.962  1.00  0.00     0.160 A 
ATOM     18  C   UNL     1      96.738  96.300  79.653  1.00  0.00     0.050 A 
ATOM     19  C   UNL     1      97.885  96.984  79.205  1.00  0.00     0.157 A 
BRANCH  17  20
ATOM     20  O   UNL     1      99.609  97.287  77.551  1.00  0.00    -0.493 OA
ATOM     21  C   UNL     1     100.747  96.420  77.401  1.00  0.00     0.278 C 
ENDBRANCH  17  20
BRANCH  19  22
ATOM     22  O   UNL     1      98.435  97.957  79.976  1.00  0.00    -0.504 OA
ATOM     23  H   UNL     1      99.153  98.377  79.497  1.00  0.00     0.293 HD
ENDBRANCH  19  22
ENDBRANCH  13  14
ENDBRANCH  11  13
ENDBRANCH   8   9
ENDBRANCH   1   8
TORSDOF 11
ENDMDL
MODEL 7
REMARK VINA RESULT:    -5.208     26.648     28.496
REMARK INTER + INTRA:          -9.525
REMARK INTER:                  -7.541
REMARK INTRA:                  -1.984
REMARK UNBOUND:                -1.120
REMARK SMILES CCCCCCCCC(=O)NCc1ccc(O)c(OC)c1
REMARK SMILES IDX 7 1 6 2 5 3 4 4 3 5 2 6 1 7 8 8 9 9 10 10 11 11 12 13 13 14
REMARK SMILES IDX 21 15 14 16 18 17 15 18 16 19 19 20 20 21 17 22
REMARK H PARENT 11 12 17 23
REMARK Flexibility Score: inf
ROOT
ATOM      1  C   UNL     1      80.599  67.438  72.767  1.00  0.00     0.010 C 
ENDROOT
BRANCH   1   2
ATOM      2  C   UNL     1      79.835  66.319  73.531  1.00  0.00     0.001 C 
BRANCH   2   3
ATOM      3  C   UNL     1      80.260  64.894  73.068  1.00  0.00     0.000 C 
BRANCH   3   4
ATOM      4  C   UNL     1      80.802  63.998  74.217  1.00  0.00    -0.000 C 
BRANCH   4   5
ATOM      5  C   UNL     1      82.174  64.487  74.764  1.00  0.00    -0.000 C 
BRANCH   5   6
ATOM      6  C   UNL     1      82.115  64.862  76.270  1.00  0.00    -0.003 C 
ATOM      7  C   UNL     1      81.671  66.322  76.508  1.00  0.00     0.004 C 
ENDBRANCH   5   6
ENDBRANCH   4   5
ENDBRANCH   3   4
ENDBRANCH   2   3
ENDBRANCH   1   2
BRANCH   1   8
ATOM      8  C   UNL     1      81.599  66.905  71.703  1.00  0.00     0.100 C 
BRANCH   8   9
ATOM      9  C   UNL     1      83.004  67.100  72.136  1.00  0.00     0.220 C 
ATOM     10  O   UNL     1      83.921  66.721  71.369  1.00  0.00    -0.275 OA
ATOM     11  N   UNL     1      83.285  67.705  73.327  1.00  0.00    -0.352 N 
ATOM     12  H   UNL     1      82.476  67.891  73.902  1.00  0.00     0.163 HD
BRANCH  11  13
ATOM     13  C   UNL     1      84.587  68.076  73.790  1.00  0.00     0.151 C 
BRANCH  13  14
ATOM     14  C   UNL     1      84.952  67.480  75.103  1.00  0.00    -0.025 A 
ATOM     15  C   UNL     1      85.504  66.178  75.165  1.00  0.00     0.056 A 
ATOM     16  C   UNL     1      84.751  68.195  76.306  1.00  0.00     0.009 A 
ATOM     17  C   UNL     1      85.872  65.605  76.404  1.00  0.00     0.160 A 
ATOM     18  C   UNL     1      85.115  67.631  77.542  1.00  0.00     0.050 A 
ATOM     19  C   UNL     1      85.667  66.337  77.596  1.00  0.00     0.157 A 
BRANCH  17  20
ATOM     20  O   UNL     1      86.368  64.328  76.467  1.00  0.00    -0.493 OA
ATOM     21  C   UNL     1      85.468  63.322  75.970  1.00  0.00     0.278 C 
ENDBRANCH  17  20
BRANCH  19  22
ATOM     22  O   UNL     1      85.990  65.790  78.796  1.00  0.00    -0.504 OA
ATOM     23  H   UNL     1      85.339  65.125  79.031  1.00  0.00     0.293 HD
ENDBRANCH  19  22
ENDBRANCH  13  14
ENDBRANCH  11  13
ENDBRANCH   8   9
ENDBRANCH   1   8
TORSDOF 11
ENDMDL
MODEL 8
REMARK VINA RESULT:    -5.114     13.875     15.957
REMARK INTER + INTRA:          -9.372
REMARK INTER:                  -7.838
REMARK INTRA:                  -1.535
REMARK UNBOUND:                -1.120
REMARK SMILES CCCCCCCCC(=O)NCc1ccc(O)c(OC)c1
REMARK SMILES IDX 7 1 6 2 5 3 4 4 3 5 2 6 1 7 8 8 9 9 10 10 11 11 12 13 13 14
REMARK SMILES IDX 21 15 14 16 18 17 15 18 16 19 19 20 20 21 17 22
REMARK H PARENT 11 12 17 23
REMARK Flexibility Score: inf
ROOT
ATOM      1  C   UNL     1      80.340  86.282  87.455  1.00  0.00     0.010 C 
ENDROOT
BRANCH   1   2
ATOM      2  C   UNL     1      81.727  86.816  86.995  1.00  0.00     0.001 C 
BRANCH   2   3
ATOM      3  C   UNL     1      81.867  86.833  85.444  1.00  0.00     0.000 C 
BRANCH   3   4
ATOM      4  C   UNL     1      80.531  87.109  84.697  1.00  0.00    -0.000 C 
BRANCH   4   5
ATOM      5  C   UNL     1      80.635  88.301  83.703  1.00  0.00    -0.000 C 
BRANCH   5   6
ATOM      6  C   UNL     1      81.065  89.621  84.398  1.00  0.00    -0.003 C 
ATOM      7  C   UNL     1      80.047  90.104  85.453  1.00  0.00     0.004 C 
ENDBRANCH   5   6
ENDBRANCH   4   5
ENDBRANCH   3   4
ENDBRANCH   2   3
ENDBRANCH   1   2
BRANCH   1   8
ATOM      8  C   UNL     1      79.577  87.248  88.404  1.00  0.00     0.100 C 
BRANCH   8   9
ATOM      9  C   UNL     1      80.508  88.164  89.106  1.00  0.00     0.220 C 
ATOM     10  O   UNL     1      81.294  87.678  89.954  1.00  0.00    -0.275 OA
ATOM     11  N   UNL     1      80.526  89.497  88.810  1.00  0.00    -0.352 N 
ATOM     12  H   UNL     1      79.796  89.794  88.179  1.00  0.00     0.163 HD
BRANCH  11  13
ATOM     13  C   UNL     1      81.466  90.452  89.311  1.00  0.00     0.151 C 
BRANCH  13  14
ATOM     14  C   UNL     1      82.492  90.864  88.316  1.00  0.00    -0.025 A 
ATOM     15  C   UNL     1      82.702  92.236  88.037  1.00  0.00     0.056 A 
ATOM     16  C   UNL     1      83.269  89.902  87.631  1.00  0.00     0.009 A 
ATOM     17  C   UNL     1      83.686  92.644  87.107  1.00  0.00     0.160 A 
ATOM     18  C   UNL     1      84.249  90.301  86.705  1.00  0.00     0.050 A 
ATOM     19  C   UNL     1      84.455  91.668  86.435  1.00  0.00     0.157 A 
BRANCH  17  20
ATOM     20  O   UNL     1      83.859  93.972  86.807  1.00  0.00    -0.493 OA
ATOM     21  C   UNL     1      83.943  94.830  87.959  1.00  0.00     0.278 C 
ENDBRANCH  17  20
BRANCH  19  22
ATOM     22  O   UNL     1      85.385  92.042  85.519  1.00  0.00    -0.504 OA
ATOM     23  H   UNL     1      85.359  92.996  85.408  1.00  0.00     0.293 HD
ENDBRANCH  19  22
ENDBRANCH  13  14
ENDBRANCH  11  13
ENDBRANCH   8   9
ENDBRANCH   1   8
TORSDOF 11
ENDMDL
MODEL 9
REMARK VINA RESULT:    -5.072     27.090     29.266
REMARK INTER + INTRA:          -9.305
REMARK INTER:                  -8.301
REMARK INTRA:                  -1.004
REMARK UNBOUND:                -1.120
REMARK SMILES CCCCCCCCC(=O)NCc1ccc(O)c(OC)c1
REMARK SMILES IDX 7 1 6 2 5 3 4 4 3 5 2 6 1 7 8 8 9 9 10 10 11 11 12 13 13 14
REMARK SMILES IDX 21 15 14 16 18 17 15 18 16 19 19 20 20 21 17 22
REMARK H PARENT 11 12 17 23
REMARK Flexibility Score: inf
ROOT
ATOM      1  C   UNL     1      81.712  64.507  74.791  1.00  0.00     0.010 C 
ENDROOT
BRANCH   1   2
ATOM      2  C   UNL     1      80.303  64.986  74.336  1.00  0.00     0.001 C 
BRANCH   2   3
ATOM      3  C   UNL     1      80.071  64.771  72.812  1.00  0.00     0.000 C 
BRANCH   3   4
ATOM      4  C   UNL     1      80.661  65.901  71.922  1.00  0.00    -0.000 C 
BRANCH   4   5
ATOM      5  C   UNL     1      80.519  67.309  72.568  1.00  0.00    -0.000 C 
BRANCH   5   6
ATOM      6  C   UNL     1      81.819  68.150  72.455  1.00  0.00    -0.003 C 
ATOM      7  C   UNL     1      82.970  67.594  73.322  1.00  0.00     0.004 C 
ENDBRANCH   5   6
ENDBRANCH   4   5
ENDBRANCH   3   4
ENDBRANCH   2   3
ENDBRANCH   1   2
BRANCH   1   8
ATOM      8  C   UNL     1      82.231  65.209  76.077  1.00  0.00     0.100 C 
BRANCH   8   9
ATOM      9  C   UNL     1      83.568  64.700  76.467  1.00  0.00     0.220 C 
ATOM     10  O   UNL     1      84.579  65.204  75.920  1.00  0.00    -0.275 OA
ATOM     11  N   UNL     1      83.691  63.729  77.419  1.00  0.00    -0.352 N 
ATOM     12  H   UNL     1      82.814  63.335  77.728  1.00  0.00     0.163 HD
BRANCH  11  13
ATOM     13  C   UNL     1      84.920  63.259  77.979  1.00  0.00     0.151 C 
BRANCH  13  14
ATOM     14  C   UNL     1      85.312  63.951  79.236  1.00  0.00    -0.025 A 
ATOM     15  C   UNL     1      86.032  65.168  79.184  1.00  0.00     0.056 A 
ATOM     16  C   UNL     1      84.978  63.409  80.499  1.00  0.00     0.009 A 
ATOM     17  C   UNL     1      86.397  65.846  80.370  1.00  0.00     0.160 A 
ATOM     18  C   UNL     1      85.337  64.079  81.682  1.00  0.00     0.050 A 
ATOM     19  C   UNL     1      86.051  65.291  81.623  1.00  0.00     0.157 A 
BRANCH  17  20
ATOM     20  O   UNL     1      87.131  67.004  80.319  1.00  0.00    -0.493 OA
ATOM     21  C   UNL     1      88.424  66.854  79.706  1.00  0.00     0.278 C 
ENDBRANCH  17  20
BRANCH  19  22
ATOM     22  O   UNL     1      86.416  65.917  82.771  1.00  0.00    -0.504 OA
ATOM     23  H   UNL     1      85.681  65.905  83.389  1.00  0.00     0.293 HD
ENDBRANCH  19  22
ENDBRANCH  13  14
ENDBRANCH  11  13
ENDBRANCH   8   9
ENDBRANCH   1   8
TORSDOF 11
ENDMDL
MODEL 10
REMARK VINA RESULT:    -5.030     24.849     27.717
REMARK INTER + INTRA:          -9.237
REMARK INTER:                  -7.678
REMARK INTRA:                  -1.559
REMARK UNBOUND:                -1.120
REMARK SMILES CCCCCCCCC(=O)NCc1ccc(O)c(OC)c1
REMARK SMILES IDX 7 1 6 2 5 3 4 4 3 5 2 6 1 7 8 8 9 9 10 10 11 11 12 13 13 14
REMARK SMILES IDX 21 15 14 16 18 17 15 18 16 19 19 20 20 21 17 22
REMARK H PARENT 11 12 17 23
REMARK Flexibility Score: inf
ROOT
ATOM      1  C   UNL     1      80.099  65.715  73.277  1.00  0.00     0.010 C 
ENDROOT
BRANCH   1   2
ATOM      2  C   UNL     1      79.976  64.244  73.768  1.00  0.00     0.001 C 
BRANCH   2   3
ATOM      3  C   UNL     1      81.357  63.631  74.144  1.00  0.00     0.000 C 
BRANCH   3   4
ATOM      4  C   UNL     1      82.485  64.686  74.318  1.00  0.00    -0.000 C 
BRANCH   4   5
ATOM      5  C   UNL     1      83.386  64.404  75.554  1.00  0.00    -0.000 C 
BRANCH   5   6
ATOM      6  C   UNL     1      83.062  65.336  76.752  1.00  0.00    -0.003 C 
ATOM      7  C   UNL     1      82.079  66.469  76.383  1.00  0.00     0.004 C 
ENDBRANCH   5   6
ENDBRANCH   4   5
ENDBRANCH   3   4
ENDBRANCH   2   3
ENDBRANCH   1   2
BRANCH   1   8
ATOM      8  C   UNL     1      80.172  65.859  71.731  1.00  0.00     0.100 C 
BRANCH   8   9
ATOM      9  C   UNL     1      81.425  66.529  71.309  1.00  0.00     0.220 C 
ATOM     10  O   UNL     1      82.233  65.886  70.597  1.00  0.00    -0.275 OA
ATOM     11  N   UNL     1      81.675  67.823  71.667  1.00  0.00    -0.352 N 
ATOM     12  H   UNL     1      81.003  68.216  72.310  1.00  0.00     0.163 HD
BRANCH  11  13
ATOM     13  C   UNL     1      82.772  68.620  71.209  1.00  0.00     0.151 C 
BRANCH  13  14
ATOM     14  C   UNL     1      83.903  68.696  72.172  1.00  0.00    -0.025 A 
ATOM     15  C   UNL     1      85.090  69.384  71.824  1.00  0.00     0.056 A 
ATOM     16  C   UNL     1      83.817  68.083  73.443  1.00  0.00     0.009 A 
ATOM     17  C   UNL     1      86.167  69.479  72.735  1.00  0.00     0.160 A 
ATOM     18  C   UNL     1      84.884  68.174  74.355  1.00  0.00     0.050 A 
ATOM     19  C   UNL     1      86.061  68.863  74.003  1.00  0.00     0.157 A 
BRANCH  17  20
ATOM     20  O   UNL     1      87.332  70.110  72.380  1.00  0.00    -0.493 OA
ATOM     21  C   UNL     1      88.186  69.332  71.523  1.00  0.00     0.278 C 
ENDBRANCH  17  20
BRANCH  19  22
ATOM     22  O   UNL     1      87.096  68.923  74.879  1.00  0.00    -0.504 OA
ATOM     23  H   UNL     1      87.647  69.682  74.673  1.00  0.00     0.293 HD
ENDBRANCH  19  22
ENDBRANCH  13  14
ENDBRANCH  11  13
ENDBRANCH   8   9
ENDBRANCH   1   8
TORSDOF 11
ENDMDL
