MODEL 1
REMARK VINA RESULT:    -6.882      0.000      0.000
REMARK INTER + INTRA:         -11.893
REMARK INTER:                 -10.704
REMARK INTRA:                  -1.189
REMARK UNBOUND:                -1.189
REMARK SMILES CCCCC/C=C/C(=O)CCc1ccc(O)c(OC)c1
REMARK SMILES IDX 6 1 7 2 8 3 9 4 10 5 11 6 12 7 17 8 20 9 15 10 14 11 13 12
REMARK SMILES IDX 18 13 19 14 16 15 5 17 4 18 3 19 2 20 1 21
REMARK H PARENT 16 16
REMARK Flexibility Score: inf
ROOT
ATOM      1  C   UNL     1      92.233  94.462  76.605  1.00  0.00    -0.023 C 
ATOM      2  C   UNL     1      92.556  95.743  76.386  1.00  0.00     0.043 C 
ENDROOT
BRANCH   2   3
ATOM      3  C   UNL     1      93.622  96.082  75.404  1.00  0.00     0.155 C 
ATOM      4  O   UNL     1      93.425  96.865  74.477  1.00  0.00    -0.295 OA
BRANCH   3   5
ATOM      5  C   UNL     1      94.950  95.370  75.575  1.00  0.00     0.085 C 
BRANCH   5   6
ATOM      6  C   UNL     1      95.713  95.902  76.789  1.00  0.00     0.044 C 
BRANCH   6   7
ATOM      7  C   UNL     1      95.659  94.968  77.974  1.00  0.00    -0.044 A 
ATOM      8  C   UNL     1      95.597  94.631  80.349  1.00  0.00     0.160 A 
ATOM      9  C   UNL     1      95.648  95.495  79.255  1.00  0.00     0.054 A 
ATOM     10  C   UNL     1      95.557  93.252  80.148  1.00  0.00     0.157 A 
ATOM     11  C   UNL     1      95.570  92.736  78.851  1.00  0.00     0.050 A 
ATOM     12  C   UNL     1      95.621  93.600  77.757  1.00  0.00     0.008 A 
BRANCH   8  13
ATOM     13  O   UNL     1      95.586  95.147  81.610  1.00  0.00    -0.493 OA
ATOM     14  C   UNL     1      96.177  96.433  81.789  1.00  0.00     0.278 C 
ENDBRANCH   8  13
BRANCH  10  15
ATOM     15  O   UNL     1      95.507  92.398  81.208  1.00  0.00    -0.504 OA
ATOM     16  H   UNL     1      95.109  91.563  80.909  1.00  0.00     0.293 HD
ENDBRANCH  10  15
ENDBRANCH   6   7
ENDBRANCH   5   6
ENDBRANCH   3   5
ENDBRANCH   2   3
BRANCH   1  17
ATOM     17  C   UNL     1      91.171  94.039  77.578  1.00  0.00     0.027 C 
BRANCH  17  18
ATOM     18  C   UNL     1      90.361  92.830  77.096  1.00  0.00     0.004 C 
BRANCH  18  19
ATOM     19  C   UNL     1      90.766  92.336  75.704  1.00  0.00     0.000 C 
BRANCH  19  20
ATOM     20  C   UNL     1      90.105  90.995  75.381  1.00  0.00    -0.003 C 
ATOM     21  C   UNL     1      91.000  90.128  74.510  1.00  0.00     0.004 C 
ENDBRANCH  19  20
ENDBRANCH  18  19
ENDBRANCH  17  18
ENDBRANCH   1  17
TORSDOF 10
ENDMDL
MODEL 2
REMARK VINA RESULT:    -5.825     20.992     23.529
REMARK INTER + INTRA:         -10.249
REMARK INTER:                  -8.646
REMARK INTRA:                  -1.603
REMARK UNBOUND:                -1.189
REMARK SMILES CCCCC/C=C/C(=O)CCc1ccc(O)c(OC)c1
REMARK SMILES IDX 6 1 7 2 8 3 9 4 10 5 11 6 12 7 17 8 20 9 15 10 14 11 13 12
REMARK SMILES IDX 18 13 19 14 16 15 5 17 4 18 3 19 2 20 1 21
REMARK H PARENT 16 16
REMARK Flexibility Score: inf
ROOT
ATOM      1  C   UNL     1      77.185  87.942  67.503  1.00  0.00    -0.023 C 
ATOM      2  C   UNL     1      77.180  86.789  66.823  1.00  0.00     0.043 C 
ENDROOT
BRANCH   2   3
ATOM      3  C   UNL     1      77.382  85.502  67.542  1.00  0.00     0.155 C 
ATOM      4  O   UNL     1      77.787  84.494  66.967  1.00  0.00    -0.295 OA
BRANCH   3   5
ATOM      5  C   UNL     1      77.012  85.484  69.012  1.00  0.00     0.085 C 
BRANCH   5   6
ATOM      6  C   UNL     1      75.686  84.758  69.242  1.00  0.00     0.044 C 
BRANCH   6   7
ATOM      7  C   UNL     1      74.517  85.443  68.573  1.00  0.00    -0.044 A 
ATOM      8  C   UNL     1      72.884  85.516  66.817  1.00  0.00     0.160 A 
ATOM      9  C   UNL     1      73.963  84.882  67.433  1.00  0.00     0.054 A 
ATOM     10  C   UNL     1      72.374  86.700  67.346  1.00  0.00     0.157 A 
ATOM     11  C   UNL     1      72.943  87.253  68.494  1.00  0.00     0.050 A 
ATOM     12  C   UNL     1      74.023  86.620  69.111  1.00  0.00     0.008 A 
BRANCH   8  13
ATOM     13  O   UNL     1      72.337  84.966  65.696  1.00  0.00    -0.493 OA
ATOM     14  C   UNL     1      71.548  83.790  65.869  1.00  0.00     0.278 C 
ENDBRANCH   8  13
BRANCH  10  15
ATOM     15  O   UNL     1      71.320  87.328  66.753  1.00  0.00    -0.504 OA
ATOM     16  H   UNL     1      70.577  86.702  66.710  1.00  0.00     0.293 HD
ENDBRANCH  10  15
ENDBRANCH   6   7
ENDBRANCH   5   6
ENDBRANCH   3   5
ENDBRANCH   2   3
BRANCH   1  17
ATOM     17  C   UNL     1      76.989  89.280  66.852  1.00  0.00     0.027 C 
BRANCH  17  18
ATOM     18  C   UNL     1      75.798  90.058  67.422  1.00  0.00     0.004 C 
BRANCH  18  19
ATOM     19  C   UNL     1      75.635  89.908  68.938  1.00  0.00     0.000 C 
BRANCH  19  20
ATOM     20  C   UNL     1      74.848  91.079  69.527  1.00  0.00    -0.003 C 
ATOM     21  C   UNL     1      73.515  90.624  70.098  1.00  0.00     0.004 C 
ENDBRANCH  19  20
ENDBRANCH  18  19
ENDBRANCH  17  18
ENDBRANCH   1  17
TORSDOF 10
ENDMDL
MODEL 3
REMARK VINA RESULT:    -5.580      1.770      3.185
REMARK INTER + INTRA:          -9.869
REMARK INTER:                  -8.555
REMARK INTRA:                  -1.314
REMARK UNBOUND:                -1.189
REMARK SMILES CCCCC/C=C/C(=O)CCc1ccc(O)c(OC)c1
REMARK SMILES IDX 6 1 7 2 8 3 9 4 10 5 11 6 12 7 17 8 20 9 15 10 14 11 13 12
REMARK SMILES IDX 18 13 19 14 16 15 5 17 4 18 3 19 2 20 1 21
REMARK H PARENT 16 16
REMARK Flexibility Score: inf
ROOT
ATOM      1  C   UNL     1      94.807  95.502  75.820  1.00  0.00    -0.023 C 
ATOM      2  C   UNL     1      95.070  96.800  75.624  1.00  0.00     0.043 C 
ENDROOT
BRANCH   2   3
ATOM      3  C   UNL     1      96.471  97.247  75.397  1.00  0.00     0.155 C 
ATOM      4  O   UNL     1      96.774  97.979  74.457  1.00  0.00    -0.295 OA
BRANCH   3   5
ATOM      5  C   UNL     1      97.516  96.708  76.354  1.00  0.00     0.085 C 
BRANCH   5   6
ATOM      6  C   UNL     1      97.490  97.460  77.686  1.00  0.00     0.044 C 
BRANCH   6   7
ATOM      7  C   UNL     1      97.002  96.607  78.833  1.00  0.00    -0.044 A 
ATOM      8  C   UNL     1      96.437  94.450  79.719  1.00  0.00     0.160 A 
ATOM      9  C   UNL     1      96.887  95.237  78.659  1.00  0.00     0.054 A 
ATOM     10  C   UNL     1      96.108  95.042  80.938  1.00  0.00     0.157 A 
ATOM     11  C   UNL     1      96.229  96.423  81.097  1.00  0.00     0.050 A 
ATOM     12  C   UNL     1      96.679  97.210  80.037  1.00  0.00     0.008 A 
BRANCH   8  13
ATOM     13  O   UNL     1      96.322  93.102  79.550  1.00  0.00    -0.493 OA
ATOM     14  C   UNL     1      95.982  92.639  78.245  1.00  0.00     0.278 C 
ENDBRANCH   8  13
BRANCH  10  15
ATOM     15  O   UNL     1      95.668  94.283  81.980  1.00  0.00    -0.504 OA
ATOM     16  H   UNL     1      95.386  94.880  82.694  1.00  0.00     0.293 HD
ENDBRANCH  10  15
ENDBRANCH   6   7
ENDBRANCH   5   6
ENDBRANCH   3   5
ENDBRANCH   2   3
BRANCH   1  17
ATOM     17  C   UNL     1      93.422  94.972  76.056  1.00  0.00     0.027 C 
BRANCH  17  18
ATOM     18  C   UNL     1      93.001  95.026  77.529  1.00  0.00     0.004 C 
BRANCH  18  19
ATOM     19  C   UNL     1      92.542  93.674  78.086  1.00  0.00     0.000 C 
BRANCH  19  20
ATOM     20  C   UNL     1      91.596  92.969  77.112  1.00  0.00    -0.003 C 
ATOM     21  C   UNL     1      90.178  92.911  77.657  1.00  0.00     0.004 C 
ENDBRANCH  19  20
ENDBRANCH  18  19
ENDBRANCH  17  18
ENDBRANCH   1  17
TORSDOF 10
ENDMDL
MODEL 4
REMARK VINA RESULT:    -5.313     31.196     34.331
REMARK INTER + INTRA:          -9.453
REMARK INTER:                  -8.365
REMARK INTRA:                  -1.088
REMARK UNBOUND:                -1.189
REMARK SMILES CCCCC/C=C/C(=O)CCc1ccc(O)c(OC)c1
REMARK SMILES IDX 6 1 7 2 8 3 9 4 10 5 11 6 12 7 17 8 20 9 15 10 14 11 13 12
REMARK SMILES IDX 18 13 19 14 16 15 5 17 4 18 3 19 2 20 1 21
REMARK H PARENT 16 16
REMARK Flexibility Score: inf
ROOT
ATOM      1  C   UNL     1      61.903  84.177  69.066  1.00  0.00    -0.023 C 
ATOM      2  C   UNL     1      61.826  82.942  68.555  1.00  0.00     0.043 C 
ENDROOT
BRANCH   2   3
ATOM      3  C   UNL     1      63.041  82.084  68.502  1.00  0.00     0.155 C 
ATOM      4  O   UNL     1      63.066  81.033  67.865  1.00  0.00    -0.295 OA
BRANCH   3   5
ATOM      5  C   UNL     1      64.232  82.547  69.319  1.00  0.00     0.085 C 
BRANCH   5   6
ATOM      6  C   UNL     1      64.499  81.604  70.493  1.00  0.00     0.044 C 
BRANCH   6   7
ATOM      7  C   UNL     1      63.811  82.039  71.765  1.00  0.00    -0.044 A 
ATOM      8  C   UNL     1      63.221  83.773  73.315  1.00  0.00     0.160 A 
ATOM      9  C   UNL     1      63.858  83.372  72.141  1.00  0.00     0.054 A 
ATOM     10  C   UNL     1      62.546  82.837  74.098  1.00  0.00     0.157 A 
ATOM     11  C   UNL     1      62.508  81.498  73.707  1.00  0.00     0.050 A 
ATOM     12  C   UNL     1      63.145  81.097  72.532  1.00  0.00     0.008 A 
BRANCH   8  13
ATOM     13  O   UNL     1      63.267  85.083  73.687  1.00  0.00    -0.493 OA
ATOM     14  C   UNL     1      64.537  85.729  73.634  1.00  0.00     0.278 C 
ENDBRANCH   8  13
BRANCH  10  15
ATOM     15  O   UNL     1      61.921  83.217  75.247  1.00  0.00    -0.504 OA
ATOM     16  H   UNL     1      62.283  84.076  75.523  1.00  0.00     0.293 HD
ENDBRANCH  10  15
ENDBRANCH   6   7
ENDBRANCH   5   6
ENDBRANCH   3   5
ENDBRANCH   2   3
BRANCH   1  17
ATOM     17  C   UNL     1      60.726  85.104  69.155  1.00  0.00     0.027 C 
BRANCH  17  18
ATOM     18  C   UNL     1      59.774  84.760  70.306  1.00  0.00     0.004 C 
BRANCH  18  19
ATOM     19  C   UNL     1      58.585  85.717  70.426  1.00  0.00     0.000 C 
BRANCH  19  20
ATOM     20  C   UNL     1      57.302  84.962  70.777  1.00  0.00    -0.003 C 
ATOM     21  C   UNL     1      56.882  85.216  72.216  1.00  0.00     0.004 C 
ENDBRANCH  19  20
ENDBRANCH  18  19
ENDBRANCH  17  18
ENDBRANCH   1  17
TORSDOF 10
ENDMDL
MODEL 5
REMARK VINA RESULT:    -5.231     11.844     14.418
REMARK INTER + INTRA:          -9.326
REMARK INTER:                  -8.590
REMARK INTRA:                  -0.736
REMARK UNBOUND:                -1.189
REMARK SMILES CCCCC/C=C/C(=O)CCc1ccc(O)c(OC)c1
REMARK SMILES IDX 6 1 7 2 8 3 9 4 10 5 11 6 12 7 17 8 20 9 15 10 14 11 13 12
REMARK SMILES IDX 18 13 19 14 16 15 5 17 4 18 3 19 2 20 1 21
REMARK H PARENT 16 16
REMARK Flexibility Score: inf
ROOT
ATOM      1  C   UNL     1      97.672  81.960  77.396  1.00  0.00    -0.023 C 
ATOM      2  C   UNL     1      96.431  82.415  77.181  1.00  0.00     0.043 C 
ENDROOT
BRANCH   2   3
ATOM      3  C   UNL     1      96.141  83.237  75.975  1.00  0.00     0.155 C 
ATOM      4  O   UNL     1      95.541  84.307  76.048  1.00  0.00    -0.295 OA
BRANCH   3   5
ATOM      5  C   UNL     1      96.578  82.660  74.642  1.00  0.00     0.085 C 
BRANCH   5   6
ATOM      6  C   UNL     1      97.795  83.402  74.088  1.00  0.00     0.044 C 
BRANCH   6   7
ATOM      7  C   UNL     1      98.627  82.553  73.157  1.00  0.00    -0.044 A 
ATOM      8  C   UNL     1     100.428  82.354  71.584  1.00  0.00     0.160 A 
ATOM      9  C   UNL     1      99.660  83.139  72.444  1.00  0.00     0.054 A 
ATOM     10  C   UNL     1     100.153  80.994  71.447  1.00  0.00     0.157 A 
ATOM     11  C   UNL     1      99.108  80.418  72.172  1.00  0.00     0.050 A 
ATOM     12  C   UNL     1      98.340  81.203  73.032  1.00  0.00     0.008 A 
BRANCH   8  13
ATOM     13  O   UNL     1     101.445  82.928  70.882  1.00  0.00    -0.493 OA
ATOM     14  C   UNL     1     101.422  84.348  70.752  1.00  0.00     0.278 C 
ENDBRANCH   8  13
BRANCH  10  15
ATOM     15  O   UNL     1     100.896  80.217  70.611  1.00  0.00    -0.504 OA
ATOM     16  H   UNL     1     101.827  80.489  70.687  1.00  0.00     0.293 HD
ENDBRANCH  10  15
ENDBRANCH   6   7
ENDBRANCH   5   6
ENDBRANCH   3   5
ENDBRANCH   2   3
BRANCH   1  17
ATOM     17  C   UNL     1      98.045  81.127  78.587  1.00  0.00     0.027 C 
BRANCH  17  18
ATOM     18  C   UNL     1      97.442  81.645  79.897  1.00  0.00     0.004 C 
BRANCH  18  19
ATOM     19  C   UNL     1      97.108  80.536  80.900  1.00  0.00     0.000 C 
BRANCH  19  20
ATOM     20  C   UNL     1      96.558  81.119  82.203  1.00  0.00    -0.003 C 
ATOM     21  C   UNL     1      96.361  82.623  82.102  1.00  0.00     0.004 C 
ENDBRANCH  19  20
ENDBRANCH  18  19
ENDBRANCH  17  18
ENDBRANCH   1  17
TORSDOF 10
ENDMDL
MODEL 6
REMARK VINA RESULT:    -5.219     20.850     23.136
REMARK INTER + INTRA:          -9.307
REMARK INTER:                  -7.702
REMARK INTRA:                  -1.605
REMARK UNBOUND:                -1.189
REMARK SMILES CCCCC/C=C/C(=O)CCc1ccc(O)c(OC)c1
REMARK SMILES IDX 6 1 7 2 8 3 9 4 10 5 11 6 12 7 17 8 20 9 15 10 14 11 13 12
REMARK SMILES IDX 18 13 19 14 16 15 5 17 4 18 3 19 2 20 1 21
REMARK H PARENT 16 16
REMARK Flexibility Score: inf
ROOT
ATOM      1  C   UNL     1      75.717  88.228  65.352  1.00  0.00    -0.023 C 
ATOM      2  C   UNL     1      75.819  87.840  64.075  1.00  0.00     0.043 C 
ENDROOT
BRANCH   2   3
ATOM      3  C   UNL     1      75.036  86.672  63.589  1.00  0.00     0.155 C 
ATOM      4  O   UNL     1      73.816  86.724  63.444  1.00  0.00    -0.295 OA
BRANCH   3   5
ATOM      5  C   UNL     1      75.813  85.396  63.333  1.00  0.00     0.085 C 
BRANCH   5   6
ATOM      6  C   UNL     1      75.368  84.276  64.275  1.00  0.00     0.044 C 
BRANCH   6   7
ATOM      7  C   UNL     1      75.768  84.521  65.710  1.00  0.00    -0.044 A 
ATOM      8  C   UNL     1      75.156  84.970  67.987  1.00  0.00     0.160 A 
ATOM      9  C   UNL     1      74.785  84.743  66.661  1.00  0.00     0.054 A 
ATOM     10  C   UNL     1      76.503  84.971  68.344  1.00  0.00     0.157 A 
ATOM     11  C   UNL     1      77.482  84.747  67.375  1.00  0.00     0.050 A 
ATOM     12  C   UNL     1      77.111  84.521  66.049  1.00  0.00     0.008 A 
BRANCH   8  13
ATOM     13  O   UNL     1      74.191  85.188  68.924  1.00  0.00    -0.493 OA
ATOM     14  C   UNL     1      73.040  85.922  68.511  1.00  0.00     0.278 C 
ENDBRANCH   8  13
BRANCH  10  15
ATOM     15  O   UNL     1      76.878  85.191  69.636  1.00  0.00    -0.504 OA
ATOM     16  H   UNL     1      77.183  84.348  70.012  1.00  0.00     0.293 HD
ENDBRANCH  10  15
ENDBRANCH   6   7
ENDBRANCH   5   6
ENDBRANCH   3   5
ENDBRANCH   2   3
BRANCH   1  17
ATOM     17  C   UNL     1      76.473  89.395  65.919  1.00  0.00     0.027 C 
BRANCH  17  18
ATOM     18  C   UNL     1      76.806  89.231  67.406  1.00  0.00     0.004 C 
BRANCH  18  19
ATOM     19  C   UNL     1      75.774  88.402  68.178  1.00  0.00     0.000 C 
BRANCH  19  20
ATOM     20  C   UNL     1      74.774  89.304  68.904  1.00  0.00    -0.003 C 
ATOM     21  C   UNL     1      75.395  90.642  69.272  1.00  0.00     0.004 C 
ENDBRANCH  19  20
ENDBRANCH  18  19
ENDBRANCH  17  18
ENDBRANCH   1  17
TORSDOF 10
ENDMDL
MODEL 7
REMARK VINA RESULT:    -5.200      3.916      6.073
REMARK INTER + INTRA:          -9.278
REMARK INTER:                  -8.718
REMARK INTRA:                  -0.560
REMARK UNBOUND:                -1.189
REMARK SMILES CCCCC/C=C/C(=O)CCc1ccc(O)c(OC)c1
REMARK SMILES IDX 6 1 7 2 8 3 9 4 10 5 11 6 12 7 17 8 20 9 15 10 14 11 13 12
REMARK SMILES IDX 18 13 19 14 16 15 5 17 4 18 3 19 2 20 1 21
REMARK H PARENT 16 16
REMARK Flexibility Score: inf
ROOT
ATOM      1  C   UNL     1      95.758  96.915  71.875  1.00  0.00    -0.023 C 
ATOM      2  C   UNL     1      95.584  96.210  72.999  1.00  0.00     0.043 C 
ENDROOT
BRANCH   2   3
ATOM      3  C   UNL     1      94.828  96.802  74.137  1.00  0.00     0.155 C 
ATOM      4  O   UNL     1      94.055  97.745  73.982  1.00  0.00    -0.295 OA
BRANCH   3   5
ATOM      5  C   UNL     1      95.102  96.215  75.508  1.00  0.00     0.085 C 
BRANCH   5   6
ATOM      6  C   UNL     1      93.801  95.851  76.225  1.00  0.00     0.044 C 
BRANCH   6   7
ATOM      7  C   UNL     1      94.012  94.889  77.371  1.00  0.00    -0.044 A 
ATOM      8  C   UNL     1      95.404  94.025  79.124  1.00  0.00     0.160 A 
ATOM      9  C   UNL     1      95.211  94.913  78.066  1.00  0.00     0.054 A 
ATOM     10  C   UNL     1      94.398  93.124  79.473  1.00  0.00     0.157 A 
ATOM     11  C   UNL     1      93.197  93.112  78.762  1.00  0.00     0.050 A 
ATOM     12  C   UNL     1      93.003  94.000  77.704  1.00  0.00     0.008 A 
BRANCH   8  13
ATOM     13  O   UNL     1      96.582  94.046  79.809  1.00  0.00    -0.493 OA
ATOM     14  C   UNL     1      97.601  94.916  79.320  1.00  0.00     0.278 C 
ENDBRANCH   8  13
BRANCH  10  15
ATOM     15  O   UNL     1      94.575  92.252  80.504  1.00  0.00    -0.504 OA
ATOM     16  H   UNL     1      95.506  91.969  80.507  1.00  0.00     0.293 HD
ENDBRANCH  10  15
ENDBRANCH   6   7
ENDBRANCH   5   6
ENDBRANCH   3   5
ENDBRANCH   2   3
BRANCH   1  17
ATOM     17  C   UNL     1      96.507  96.390  70.684  1.00  0.00     0.027 C 
BRANCH  17  18
ATOM     18  C   UNL     1      97.369  97.455  69.998  1.00  0.00     0.004 C 
BRANCH  18  19
ATOM     19  C   UNL     1      96.899  97.807  68.583  1.00  0.00     0.000 C 
BRANCH  19  20
ATOM     20  C   UNL     1      96.722  99.318  68.420  1.00  0.00    -0.003 C 
ATOM     21  C   UNL     1      96.034  99.931  69.630  1.00  0.00     0.004 C 
ENDBRANCH  19  20
ENDBRANCH  18  19
ENDBRANCH  17  18
ENDBRANCH   1  17
TORSDOF 10
ENDMDL
MODEL 8
REMARK VINA RESULT:    -5.172     12.084     14.096
REMARK INTER + INTRA:          -9.233
REMARK INTER:                  -8.293
REMARK INTRA:                  -0.940
REMARK UNBOUND:                -1.189
REMARK SMILES CCCCC/C=C/C(=O)CCc1ccc(O)c(OC)c1
REMARK SMILES IDX 6 1 7 2 8 3 9 4 10 5 11 6 12 7 17 8 20 9 15 10 14 11 13 12
REMARK SMILES IDX 18 13 19 14 16 15 5 17 4 18 3 19 2 20 1 21
REMARK H PARENT 16 16
REMARK Flexibility Score: inf
ROOT
ATOM      1  C   UNL     1      97.781  81.537  77.613  1.00  0.00    -0.023 C 
ATOM      2  C   UNL     1      96.512  81.698  77.218  1.00  0.00     0.043 C 
ENDROOT
BRANCH   2   3
ATOM      3  C   UNL     1      96.193  82.647  76.117  1.00  0.00     0.155 C 
ATOM      4  O   UNL     1      95.491  83.639  76.299  1.00  0.00    -0.295 OA
BRANCH   3   5
ATOM      5  C   UNL     1      96.735  82.297  74.745  1.00  0.00     0.085 C 
BRANCH   5   6
ATOM      6  C   UNL     1      97.410  83.503  74.090  1.00  0.00     0.044 C 
BRANCH   6   7
ATOM      7  C   UNL     1      98.880  83.280  73.822  1.00  0.00    -0.044 A 
ATOM      8  C   UNL     1     100.856  81.942  74.080  1.00  0.00     0.160 A 
ATOM      9  C   UNL     1      99.499  82.148  74.329  1.00  0.00     0.054 A 
ATOM     10  C   UNL     1     101.576  82.869  73.328  1.00  0.00     0.157 A 
ATOM     11  C   UNL     1     100.939  84.004  72.824  1.00  0.00     0.050 A 
ATOM     12  C   UNL     1      99.582  84.210  73.073  1.00  0.00     0.008 A 
BRANCH   8  13
ATOM     13  O   UNL     1     101.466  80.831  74.578  1.00  0.00    -0.493 OA
ATOM     14  C   UNL     1     101.061  80.394  75.874  1.00  0.00     0.278 C 
ENDBRANCH   8  13
BRANCH  10  15
ATOM     15  O   UNL     1     102.901  82.679  73.078  1.00  0.00    -0.504 OA
ATOM     16  H   UNL     1     103.388  83.455  73.405  1.00  0.00     0.293 HD
ENDBRANCH  10  15
ENDBRANCH   6   7
ENDBRANCH   5   6
ENDBRANCH   3   5
ENDBRANCH   2   3
BRANCH   1  17
ATOM     17  C   UNL     1      98.185  80.602  78.715  1.00  0.00     0.027 C 
BRANCH  17  18
ATOM     18  C   UNL     1      98.218  81.273  80.092  1.00  0.00     0.004 C 
BRANCH  18  19
ATOM     19  C   UNL     1      97.008  80.934  80.969  1.00  0.00     0.000 C 
BRANCH  19  20
ATOM     20  C   UNL     1      96.639  82.107  81.878  1.00  0.00    -0.003 C 
ATOM     21  C   UNL     1      95.854  81.644  83.095  1.00  0.00     0.004 C 
ENDBRANCH  19  20
ENDBRANCH  18  19
ENDBRANCH  17  18
ENDBRANCH   1  17
TORSDOF 10
ENDMDL
MODEL 9
REMARK VINA RESULT:    -5.052     21.308     25.039
REMARK INTER + INTRA:          -9.048
REMARK INTER:                  -7.754
REMARK INTRA:                  -1.294
REMARK UNBOUND:                -1.189
REMARK SMILES CCCCC/C=C/C(=O)CCc1ccc(O)c(OC)c1
REMARK SMILES IDX 6 1 7 2 8 3 9 4 10 5 11 6 12 7 17 8 20 9 15 10 14 11 13 12
REMARK SMILES IDX 18 13 19 14 16 15 5 17 4 18 3 19 2 20 1 21
REMARK H PARENT 16 16
REMARK Flexibility Score: inf
ROOT
ATOM      1  C   UNL     1      72.882  81.262  64.345  1.00  0.00    -0.023 C 
ATOM      2  C   UNL     1      73.859  81.536  65.219  1.00  0.00     0.043 C 
ENDROOT
BRANCH   2   3
ATOM      3  C   UNL     1      75.224  81.865  64.726  1.00  0.00     0.155 C 
ATOM      4  O   UNL     1      75.707  81.314  63.739  1.00  0.00    -0.295 OA
BRANCH   3   5
ATOM      5  C   UNL     1      76.010  82.877  65.537  1.00  0.00     0.085 C 
BRANCH   5   6
ATOM      6  C   UNL     1      75.163  83.462  66.667  1.00  0.00     0.044 C 
BRANCH   6   7
ATOM      7  C   UNL     1      75.587  84.858  67.058  1.00  0.00    -0.044 A 
ATOM      8  C   UNL     1      75.105  86.947  68.136  1.00  0.00     0.160 A 
ATOM      9  C   UNL     1      74.712  85.658  67.775  1.00  0.00     0.054 A 
ATOM     10  C   UNL     1      76.367  87.419  67.775  1.00  0.00     0.157 A 
ATOM     11  C   UNL     1      77.237  86.601  67.053  1.00  0.00     0.050 A 
ATOM     12  C   UNL     1      76.844  85.312  66.692  1.00  0.00     0.008 A 
BRANCH   8  13
ATOM     13  O   UNL     1      74.246  87.736  68.840  1.00  0.00    -0.493 OA
ATOM     14  C   UNL     1      72.867  87.677  68.480  1.00  0.00     0.278 C 
ENDBRANCH   8  13
BRANCH  10  15
ATOM     15  O   UNL     1      76.762  88.675  68.122  1.00  0.00    -0.504 OA
ATOM     16  H   UNL     1      77.629  88.845  67.717  1.00  0.00     0.293 HD
ENDBRANCH  10  15
ENDBRANCH   6   7
ENDBRANCH   5   6
ENDBRANCH   3   5
ENDBRANCH   2   3
BRANCH   1  17
ATOM     17  C   UNL     1      71.481  80.922  64.762  1.00  0.00     0.027 C 
BRANCH  17  18
ATOM     18  C   UNL     1      70.502  82.089  64.593  1.00  0.00     0.004 C 
BRANCH  18  19
ATOM     19  C   UNL     1      70.102  82.750  65.916  1.00  0.00     0.000 C 
BRANCH  19  20
ATOM     20  C   UNL     1      71.019  83.931  66.242  1.00  0.00    -0.003 C 
ATOM     21  C   UNL     1      71.483  84.641  64.980  1.00  0.00     0.004 C 
ENDBRANCH  19  20
ENDBRANCH  18  19
ENDBRANCH  17  18
ENDBRANCH   1  17
TORSDOF 10
ENDMDL
MODEL 10
REMARK VINA RESULT:    -4.971     28.110     31.558
REMARK INTER + INTRA:          -8.921
REMARK INTER:                  -7.760
REMARK INTRA:                  -1.162
REMARK UNBOUND:                -1.189
REMARK SMILES CCCCC/C=C/C(=O)CCc1ccc(O)c(OC)c1
REMARK SMILES IDX 6 1 7 2 8 3 9 4 10 5 11 6 12 7 17 8 20 9 15 10 14 11 13 12
REMARK SMILES IDX 18 13 19 14 16 15 5 17 4 18 3 19 2 20 1 21
REMARK H PARENT 16 16
REMARK Flexibility Score: inf
ROOT
ATOM      1  C   UNL     1      82.729  63.862  76.489  1.00  0.00    -0.023 C 
ATOM      2  C   UNL     1      81.649  63.189  76.073  1.00  0.00     0.043 C 
ENDROOT
BRANCH   2   3
ATOM      3  C   UNL     1      80.322  63.862  76.044  1.00  0.00     0.155 C 
ATOM      4  O   UNL     1      79.316  63.295  75.622  1.00  0.00    -0.295 OA
BRANCH   3   5
ATOM      5  C   UNL     1      80.284  65.304  76.512  1.00  0.00     0.085 C 
BRANCH   5   6
ATOM      6  C   UNL     1      79.836  66.241  75.389  1.00  0.00     0.044 C 
BRANCH   6   7
ATOM      7  C   UNL     1      80.850  66.350  74.275  1.00  0.00    -0.044 A 
ATOM      8  C   UNL     1      82.934  67.200  73.444  1.00  0.00     0.160 A 
ATOM      9  C   UNL     1      81.998  67.100  74.473  1.00  0.00     0.054 A 
ATOM     10  C   UNL     1      82.710  66.550  72.230  1.00  0.00     0.157 A 
ATOM     11  C   UNL     1      81.549  65.799  72.046  1.00  0.00     0.050 A 
ATOM     12  C   UNL     1      80.612  65.699  73.075  1.00  0.00     0.008 A 
BRANCH   8  13
ATOM     13  O   UNL     1      84.065  67.936  73.636  1.00  0.00    -0.493 OA
ATOM     14  C   UNL     1      84.477  68.151  74.984  1.00  0.00     0.278 C 
ENDBRANCH   8  13
BRANCH  10  15
ATOM     15  O   UNL     1      83.617  66.640  71.218  1.00  0.00    -0.504 OA
ATOM     16  H   UNL     1      83.447  65.916  70.591  1.00  0.00     0.293 HD
ENDBRANCH  10  15
ENDBRANCH   6   7
ENDBRANCH   5   6
ENDBRANCH   3   5
ENDBRANCH   2   3
BRANCH   1  17
ATOM     17  C   UNL     1      84.101  63.255  76.548  1.00  0.00     0.027 C 
BRANCH  17  18
ATOM     18  C   UNL     1      84.802  63.484  77.891  1.00  0.00     0.004 C 
BRANCH  18  19
ATOM     19  C   UNL     1      85.406  64.884  78.038  1.00  0.00     0.000 C 
BRANCH  19  20
ATOM     20  C   UNL     1      85.761  65.182  79.495  1.00  0.00    -0.003 C 
ATOM     21  C   UNL     1      85.388  64.024  80.407  1.00  0.00     0.004 C 
ENDBRANCH  19  20
ENDBRANCH  18  19
ENDBRANCH  17  18
ENDBRANCH   1  17
TORSDOF 10
ENDMDL
