MODEL 1
REMARK VINA RESULT:    -5.973      0.000      0.000
REMARK INTER + INTRA:          -9.941
REMARK INTER:                  -9.290
REMARK INTRA:                  -0.651
REMARK UNBOUND:                -0.651
REMARK SMILES CCCCC/C=C/C(=O)CCc1ccc(O)c(OC)c1
REMARK SMILES IDX 6 1 7 2 8 3 9 4 10 5 11 6 12 7 17 8 20 9 15 10 14 11 13 12
REMARK SMILES IDX 18 13 19 14 16 15 5 17 4 18 3 19 2 20 1 21
REMARK H PARENT 16 16
REMARK Flexibility Score: inf
ROOT
ATOM      1  C   UNL     1      93.858  98.774  72.355  1.00  0.00    -0.023 C 
ATOM      2  C   UNL     1      94.101  98.129  73.503  1.00  0.00     0.043 C 
ENDROOT
BRANCH   2   3
ATOM      3  C   UNL     1      95.109  97.035  73.541  1.00  0.00     0.155 C 
ATOM      4  O   UNL     1      96.161  97.100  72.909  1.00  0.00    -0.295 OA
BRANCH   3   5
ATOM      5  C   UNL     1      94.747  95.810  74.359  1.00  0.00     0.085 C 
BRANCH   5   6
ATOM      6  C   UNL     1      94.437  96.183  75.809  1.00  0.00     0.044 C 
BRANCH   6   7
ATOM      7  C   UNL     1      93.524  95.190  76.488  1.00  0.00    -0.044 A 
ATOM      8  C   UNL     1      93.121  93.609  78.248  1.00  0.00     0.160 A 
ATOM      9  C   UNL     1      93.965  94.525  77.621  1.00  0.00     0.054 A 
ATOM     10  C   UNL     1      91.847  93.369  77.735  1.00  0.00     0.157 A 
ATOM     11  C   UNL     1      91.417  94.045  76.592  1.00  0.00     0.050 A 
ATOM     12  C   UNL     1      92.261  94.962  75.965  1.00  0.00     0.008 A 
BRANCH   8  13
ATOM     13  O   UNL     1      93.552  92.954  79.363  1.00  0.00    -0.493 OA
ATOM     14  C   UNL     1      94.936  93.072  79.689  1.00  0.00     0.278 C 
ENDBRANCH   8  13
BRANCH  10  15
ATOM     15  O   UNL     1      91.013  92.477  78.338  1.00  0.00    -0.504 OA
ATOM     16  H   UNL     1      90.229  92.361  77.774  1.00  0.00     0.293 HD
ENDBRANCH  10  15
ENDBRANCH   6   7
ENDBRANCH   5   6
ENDBRANCH   3   5
ENDBRANCH   2   3
BRANCH   1  17
ATOM     17  C   UNL     1      92.858  99.886  72.235  1.00  0.00     0.027 C 
BRANCH  17  18
ATOM     18  C   UNL     1      92.068  99.846  70.922  1.00  0.00     0.004 C 
BRANCH  18  19
ATOM     19  C   UNL     1      90.629 100.354  71.056  1.00  0.00     0.000 C 
BRANCH  19  20
ATOM     20  C   UNL     1      89.622  99.222  70.846  1.00  0.00    -0.003 C 
ATOM     21  C   UNL     1      90.035  98.315  69.697  1.00  0.00     0.004 C 
ENDBRANCH  19  20
ENDBRANCH  18  19
ENDBRANCH  17  18
ENDBRANCH   1  17
TORSDOF 10
ENDMDL
MODEL 2
REMARK VINA RESULT:    -5.897      1.489      2.237
REMARK INTER + INTRA:          -9.822
REMARK INTER:                  -9.002
REMARK INTRA:                  -0.820
REMARK UNBOUND:                -0.651
REMARK SMILES CCCCC/C=C/C(=O)CCc1ccc(O)c(OC)c1
REMARK SMILES IDX 6 1 7 2 8 3 9 4 10 5 11 6 12 7 17 8 20 9 15 10 14 11 13 12
REMARK SMILES IDX 18 13 19 14 16 15 5 17 4 18 3 19 2 20 1 21
REMARK H PARENT 16 16
REMARK Flexibility Score: inf
ROOT
ATOM      1  C   UNL     1      93.581  98.328  73.458  1.00  0.00    -0.023 C 
ATOM      2  C   UNL     1      94.447  97.729  74.284  1.00  0.00     0.043 C 
ENDROOT
BRANCH   2   3
ATOM      3  C   UNL     1      94.643  96.255  74.211  1.00  0.00     0.155 C 
ATOM      4  O   UNL     1      95.535  95.753  73.531  1.00  0.00    -0.295 OA
BRANCH   3   5
ATOM      5  C   UNL     1      93.651  95.402  74.977  1.00  0.00     0.085 C 
BRANCH   5   6
ATOM      6  C   UNL     1      93.381  95.978  76.368  1.00  0.00     0.044 C 
BRANCH   6   7
ATOM      7  C   UNL     1      93.741  95.022  77.480  1.00  0.00    -0.044 A 
ATOM      8  C   UNL     1      95.157  94.421  79.322  1.00  0.00     0.160 A 
ATOM      9  C   UNL     1      94.826  95.305  78.294  1.00  0.00     0.054 A 
ATOM     10  C   UNL     1      94.401  93.266  79.521  1.00  0.00     0.157 A 
ATOM     11  C   UNL     1      93.312  92.995  78.691  1.00  0.00     0.050 A 
ATOM     12  C   UNL     1      92.980  93.879  77.664  1.00  0.00     0.008 A 
BRANCH   8  13
ATOM     13  O   UNL     1      96.224  94.697  80.124  1.00  0.00    -0.493 OA
ATOM     14  C   UNL     1      97.522  94.529  79.558  1.00  0.00     0.278 C 
ENDBRANCH   8  13
BRANCH  10  15
ATOM     15  O   UNL     1      94.715  92.396  80.520  1.00  0.00    -0.504 OA
ATOM     16  H   UNL     1      93.887  92.043  80.888  1.00  0.00     0.293 HD
ENDBRANCH  10  15
ENDBRANCH   6   7
ENDBRANCH   5   6
ENDBRANCH   3   5
ENDBRANCH   2   3
BRANCH   1  17
ATOM     17  C   UNL     1      93.326  99.808  73.469  1.00  0.00     0.027 C 
BRANCH  17  18
ATOM     18  C   UNL     1      93.419 100.445  72.078  1.00  0.00     0.004 C 
BRANCH  18  19
ATOM     19  C   UNL     1      93.100  99.475  70.936  1.00  0.00     0.000 C 
BRANCH  19  20
ATOM     20  C   UNL     1      91.794  99.855  70.238  1.00  0.00    -0.003 C 
ATOM     21  C   UNL     1      90.590  99.247  70.938  1.00  0.00     0.004 C 
ENDBRANCH  19  20
ENDBRANCH  18  19
ENDBRANCH  17  18
ENDBRANCH   1  17
TORSDOF 10
ENDMDL
MODEL 3
REMARK VINA RESULT:    -5.860     13.938     16.358
REMARK INTER + INTRA:          -9.765
REMARK INTER:                  -8.617
REMARK INTRA:                  -1.148
REMARK UNBOUND:                -0.651
REMARK SMILES CCCCC/C=C/C(=O)CCc1ccc(O)c(OC)c1
REMARK SMILES IDX 6 1 7 2 8 3 9 4 10 5 11 6 12 7 17 8 20 9 15 10 14 11 13 12
REMARK SMILES IDX 18 13 19 14 16 15 5 17 4 18 3 19 2 20 1 21
REMARK H PARENT 16 16
REMARK Flexibility Score: inf
ROOT
ATOM      1  C   UNL     1      97.837  83.055  74.189  1.00  0.00    -0.023 C 
ATOM      2  C   UNL     1      96.701  82.568  74.702  1.00  0.00     0.043 C 
ENDROOT
BRANCH   2   3
ATOM      3  C   UNL     1      96.056  83.250  75.857  1.00  0.00     0.155 C 
ATOM      4  O   UNL     1      95.607  84.391  75.768  1.00  0.00    -0.295 OA
BRANCH   3   5
ATOM      5  C   UNL     1      96.029  82.485  77.166  1.00  0.00     0.085 C 
BRANCH   5   6
ATOM      6  C   UNL     1      97.411  81.930  77.513  1.00  0.00     0.044 C 
BRANCH   6   7
ATOM      7  C   UNL     1      97.562  81.605  78.980  1.00  0.00    -0.044 A 
ATOM      8  C   UNL     1      98.683  80.414  80.736  1.00  0.00     0.160 A 
ATOM      9  C   UNL     1      98.545  80.714  79.381  1.00  0.00     0.054 A 
ATOM     10  C   UNL     1      97.838  81.008  81.673  1.00  0.00     0.157 A 
ATOM     11  C   UNL     1      96.852  81.903  81.254  1.00  0.00     0.050 A 
ATOM     12  C   UNL     1      96.714  82.203  79.898  1.00  0.00     0.008 A 
BRANCH   8  13
ATOM     13  O   UNL     1      99.649  79.539  81.133  1.00  0.00    -0.493 OA
ATOM     14  C   UNL     1     100.780  79.389  80.277  1.00  0.00     0.278 C 
ENDBRANCH   8  13
BRANCH  10  15
ATOM     15  O   UNL     1      97.963  80.723  82.999  1.00  0.00    -0.504 OA
ATOM     16  H   UNL     1      98.029  81.562  83.486  1.00  0.00     0.293 HD
ENDBRANCH  10  15
ENDBRANCH   6   7
ENDBRANCH   5   6
ENDBRANCH   3   5
ENDBRANCH   2   3
BRANCH   1  17
ATOM     17  C   UNL     1      98.549  82.425  73.027  1.00  0.00     0.027 C 
BRANCH  17  18
ATOM     18  C   UNL     1      99.762  81.587  73.446  1.00  0.00     0.004 C 
BRANCH  18  19
ATOM     19  C   UNL     1     100.095  81.693  74.937  1.00  0.00     0.000 C 
BRANCH  19  20
ATOM     20  C   UNL     1     100.010  80.327  75.620  1.00  0.00    -0.003 C 
ATOM     21  C   UNL     1     101.234  80.058  76.481  1.00  0.00     0.004 C 
ENDBRANCH  19  20
ENDBRANCH  18  19
ENDBRANCH  17  18
ENDBRANCH   1  17
TORSDOF 10
ENDMDL
MODEL 4
REMARK VINA RESULT:    -5.852      6.043     11.513
REMARK INTER + INTRA:          -9.753
REMARK INTER:                  -8.784
REMARK INTRA:                  -0.970
REMARK UNBOUND:                -0.651
REMARK SMILES CCCCC/C=C/C(=O)CCc1ccc(O)c(OC)c1
REMARK SMILES IDX 6 1 7 2 8 3 9 4 10 5 11 6 12 7 17 8 20 9 15 10 14 11 13 12
REMARK SMILES IDX 18 13 19 14 16 15 5 17 4 18 3 19 2 20 1 21
REMARK H PARENT 16 16
REMARK Flexibility Score: inf
ROOT
ATOM      1  C   UNL     1      89.588  99.508  69.787  1.00  0.00    -0.023 C 
ATOM      2  C   UNL     1      90.266  98.607  69.066  1.00  0.00     0.043 C 
ENDROOT
BRANCH   2   3
ATOM      3  C   UNL     1      89.633  97.983  67.873  1.00  0.00     0.155 C 
ATOM      4  O   UNL     1      89.260  96.811  67.874  1.00  0.00    -0.295 OA
BRANCH   3   5
ATOM      5  C   UNL     1      89.519  98.852  66.636  1.00  0.00     0.085 C 
BRANCH   5   6
ATOM      6  C   UNL     1      88.098  99.395  66.468  1.00  0.00     0.044 C 
BRANCH   6   7
ATOM      7  C   UNL     1      88.050 100.903  66.406  1.00  0.00    -0.044 A 
ATOM      8  C   UNL     1      89.185 103.017  66.417  1.00  0.00     0.160 A 
ATOM      9  C   UNL     1      89.231 101.624  66.475  1.00  0.00     0.054 A 
ATOM     10  C   UNL     1      87.959 103.671  66.291  1.00  0.00     0.157 A 
ATOM     11  C   UNL     1      86.778 102.930  66.223  1.00  0.00     0.050 A 
ATOM     12  C   UNL     1      86.824 101.537  66.281  1.00  0.00     0.008 A 
BRANCH   8  13
ATOM     13  O   UNL     1      90.345 103.729  66.485  1.00  0.00    -0.493 OA
ATOM     14  C   UNL     1      91.287 103.534  65.432  1.00  0.00     0.278 C 
ENDBRANCH   8  13
BRANCH  10  15
ATOM     15  O   UNL     1      87.901 105.030  66.233  1.00  0.00    -0.504 OA
ATOM     16  H   UNL     1      87.581 105.285  65.351  1.00  0.00     0.293 HD
ENDBRANCH  10  15
ENDBRANCH   6   7
ENDBRANCH   5   6
ENDBRANCH   3   5
ENDBRANCH   2   3
BRANCH   1  17
ATOM     17  C   UNL     1      90.156 100.182  71.003  1.00  0.00     0.027 C 
BRANCH  17  18
ATOM     18  C   UNL     1      91.647  99.896  71.208  1.00  0.00     0.004 C 
BRANCH  18  19
ATOM     19  C   UNL     1      92.373 100.974  72.019  1.00  0.00     0.000 C 
BRANCH  19  20
ATOM     20  C   UNL     1      93.540 100.378  72.808  1.00  0.00    -0.003 C 
ATOM     21  C   UNL     1      93.329  98.898  73.083  1.00  0.00     0.004 C 
ENDBRANCH  19  20
ENDBRANCH  18  19
ENDBRANCH  17  18
ENDBRANCH   1  17
TORSDOF 10
ENDMDL
MODEL 5
REMARK VINA RESULT:    -5.831      6.172     11.921
REMARK INTER + INTRA:          -9.720
REMARK INTER:                  -8.737
REMARK INTRA:                  -0.983
REMARK UNBOUND:                -0.651
REMARK SMILES CCCCC/C=C/C(=O)CCc1ccc(O)c(OC)c1
REMARK SMILES IDX 6 1 7 2 8 3 9 4 10 5 11 6 12 7 17 8 20 9 15 10 14 11 13 12
REMARK SMILES IDX 18 13 19 14 16 15 5 17 4 18 3 19 2 20 1 21
REMARK H PARENT 16 16
REMARK Flexibility Score: inf
ROOT
ATOM      1  C   UNL     1      89.583  99.155  69.954  1.00  0.00    -0.023 C 
ATOM      2  C   UNL     1      90.196  99.106  68.765  1.00  0.00     0.043 C 
ENDROOT
BRANCH   2   3
ATOM      3  C   UNL     1      89.683  98.198  67.703  1.00  0.00     0.155 C 
ATOM      4  O   UNL     1      89.643  96.979  67.855  1.00  0.00    -0.295 OA
BRANCH   3   5
ATOM      5  C   UNL     1      89.262  98.851  66.401  1.00  0.00     0.085 C 
BRANCH   5   6
ATOM      6  C   UNL     1      87.920  99.570  66.549  1.00  0.00     0.044 C 
BRANCH   6   7
ATOM      7  C   UNL     1      88.040 101.070  66.423  1.00  0.00    -0.044 A 
ATOM      8  C   UNL     1      87.004 103.221  66.182  1.00  0.00     0.160 A 
ATOM      9  C   UNL     1      86.892 101.835  66.298  1.00  0.00     0.054 A 
ATOM     10  C   UNL     1      88.261 103.823  66.193  1.00  0.00     0.157 A 
ATOM     11  C   UNL     1      89.409 103.039  66.319  1.00  0.00     0.050 A 
ATOM     12  C   UNL     1      89.297 101.653  66.435  1.00  0.00     0.008 A 
BRANCH   8  13
ATOM     13  O   UNL     1      85.876 103.976  66.060  1.00  0.00    -0.493 OA
ATOM     14  C   UNL     1      84.718 103.331  65.532  1.00  0.00     0.278 C 
ENDBRANCH   8  13
BRANCH  10  15
ATOM     15  O   UNL     1      88.383 105.175  66.081  1.00  0.00    -0.504 OA
ATOM     16  H   UNL     1      88.483 105.548  66.974  1.00  0.00     0.293 HD
ENDBRANCH  10  15
ENDBRANCH   6   7
ENDBRANCH   5   6
ENDBRANCH   3   5
ENDBRANCH   2   3
BRANCH   1  17
ATOM     17  C   UNL     1      90.038 100.043  71.076  1.00  0.00     0.027 C 
BRANCH  17  18
ATOM     18  C   UNL     1      91.356 100.764  70.775  1.00  0.00     0.004 C 
BRANCH  18  19
ATOM     19  C   UNL     1      92.347 100.744  71.943  1.00  0.00     0.000 C 
BRANCH  19  20
ATOM     20  C   UNL     1      92.774  99.315  72.280  1.00  0.00    -0.003 C 
ATOM     21  C   UNL     1      94.064  99.294  73.084  1.00  0.00     0.004 C 
ENDBRANCH  19  20
ENDBRANCH  18  19
ENDBRANCH  17  18
ENDBRANCH   1  17
TORSDOF 10
ENDMDL
MODEL 6
REMARK VINA RESULT:    -5.817      3.150      4.967
REMARK INTER + INTRA:          -9.699
REMARK INTER:                  -8.663
REMARK INTRA:                  -1.036
REMARK UNBOUND:                -0.651
REMARK SMILES CCCCC/C=C/C(=O)CCc1ccc(O)c(OC)c1
REMARK SMILES IDX 6 1 7 2 8 3 9 4 10 5 11 6 12 7 17 8 20 9 15 10 14 11 13 12
REMARK SMILES IDX 18 13 19 14 16 15 5 17 4 18 3 19 2 20 1 21
REMARK H PARENT 16 16
REMARK Flexibility Score: inf
ROOT
ATOM      1  C   UNL     1      93.367  96.268  75.077  1.00  0.00    -0.023 C 
ATOM      2  C   UNL     1      93.351  94.935  75.204  1.00  0.00     0.043 C 
ENDROOT
BRANCH   2   3
ATOM      3  C   UNL     1      92.242  94.274  75.943  1.00  0.00     0.155 C 
ATOM      4  O   UNL     1      91.073  94.636  75.820  1.00  0.00    -0.295 OA
BRANCH   3   5
ATOM      5  C   UNL     1      92.634  93.164  76.899  1.00  0.00     0.085 C 
BRANCH   5   6
ATOM      6  C   UNL     1      92.702  93.671  78.341  1.00  0.00     0.044 C 
BRANCH   6   7
ATOM      7  C   UNL     1      94.117  93.906  78.814  1.00  0.00    -0.044 A 
ATOM      8  C   UNL     1      96.061  95.308  78.925  1.00  0.00     0.160 A 
ATOM      9  C   UNL     1      94.754  95.092  78.486  1.00  0.00     0.054 A 
ATOM     10  C   UNL     1      96.713  94.337  79.684  1.00  0.00     0.157 A 
ATOM     11  C   UNL     1      96.057  93.148  80.005  1.00  0.00     0.050 A 
ATOM     12  C   UNL     1      94.751  92.931  79.567  1.00  0.00     0.008 A 
BRANCH   8  13
ATOM     13  O   UNL     1      96.690  96.473  78.604  1.00  0.00    -0.493 OA
ATOM     14  C   UNL     1      96.982  96.694  77.225  1.00  0.00     0.278 C 
ENDBRANCH   8  13
BRANCH  10  15
ATOM     15  O   UNL     1      97.988  94.537  80.118  1.00  0.00    -0.504 OA
ATOM     16  H   UNL     1      98.519  94.858  79.369  1.00  0.00     0.293 HD
ENDBRANCH  10  15
ENDBRANCH   6   7
ENDBRANCH   5   6
ENDBRANCH   3   5
ENDBRANCH   2   3
BRANCH   1  17
ATOM     17  C   UNL     1      94.449  97.010  74.348  1.00  0.00     0.027 C 
BRANCH  17  18
ATOM     18  C   UNL     1      95.493  96.083  73.715  1.00  0.00     0.004 C 
BRANCH  18  19
ATOM     19  C   UNL     1      95.989  96.561  72.347  1.00  0.00     0.000 C 
BRANCH  19  20
ATOM     20  C   UNL     1      95.493  97.975  72.043  1.00  0.00    -0.003 C 
ATOM     21  C   UNL     1      95.428  98.233  70.546  1.00  0.00     0.004 C 
ENDBRANCH  19  20
ENDBRANCH  18  19
ENDBRANCH  17  18
ENDBRANCH   1  17
TORSDOF 10
ENDMDL
MODEL 7
REMARK VINA RESULT:    -5.795      7.687     10.619
REMARK INTER + INTRA:          -9.664
REMARK INTER:                  -7.976
REMARK INTRA:                  -1.688
REMARK UNBOUND:                -0.651
REMARK SMILES CCCCC/C=C/C(=O)CCc1ccc(O)c(OC)c1
REMARK SMILES IDX 6 1 7 2 8 3 9 4 10 5 11 6 12 7 17 8 20 9 15 10 14 11 13 12
REMARK SMILES IDX 18 13 19 14 16 15 5 17 4 18 3 19 2 20 1 21
REMARK H PARENT 16 16
REMARK Flexibility Score: inf
ROOT
ATOM      1  C   UNL     1      88.003  99.532  67.369  1.00  0.00    -0.023 C 
ATOM      2  C   UNL     1      88.831  98.497  67.182  1.00  0.00     0.043 C 
ENDROOT
BRANCH   2   3
ATOM      3  C   UNL     1      89.721  98.050  68.288  1.00  0.00     0.155 C 
ATOM      4  O   UNL     1      90.502  97.110  68.154  1.00  0.00    -0.295 OA
BRANCH   3   5
ATOM      5  C   UNL     1      89.577  98.782  69.609  1.00  0.00     0.085 C 
BRANCH   5   6
ATOM      6  C   UNL     1      90.870  99.507  69.985  1.00  0.00     0.044 C 
BRANCH   6   7
ATOM      7  C   UNL     1      90.987 100.870  69.345  1.00  0.00    -0.044 A 
ATOM      8  C   UNL     1      91.904 102.291  67.642  1.00  0.00     0.160 A 
ATOM      9  C   UNL     1      91.798 101.031  68.233  1.00  0.00     0.054 A 
ATOM     10  C   UNL     1      91.199 103.372  68.171  1.00  0.00     0.157 A 
ATOM     11  C   UNL     1      90.387 103.193  69.291  1.00  0.00     0.050 A 
ATOM     12  C   UNL     1      90.280 101.934  69.882  1.00  0.00     0.008 A 
BRANCH   8  13
ATOM     13  O   UNL     1      92.701 102.452  66.549  1.00  0.00    -0.493 OA
ATOM     14  C   UNL     1      92.200 101.966  65.305  1.00  0.00     0.278 C 
ENDBRANCH   8  13
BRANCH  10  15
ATOM     15  O   UNL     1      91.295 104.606  67.602  1.00  0.00    -0.504 OA
ATOM     16  H   UNL     1      91.812 104.525  66.782  1.00  0.00     0.293 HD
ENDBRANCH  10  15
ENDBRANCH   6   7
ENDBRANCH   5   6
ENDBRANCH   3   5
ENDBRANCH   2   3
BRANCH   1  17
ATOM     17  C   UNL     1      87.075 100.043  66.305  1.00  0.00     0.027 C 
BRANCH  17  18
ATOM     18  C   UNL     1      86.918 101.567  66.325  1.00  0.00     0.004 C 
BRANCH  18  19
ATOM     19  C   UNL     1      88.251 102.322  66.330  1.00  0.00     0.000 C 
BRANCH  19  20
ATOM     20  C   UNL     1      88.029 103.835  66.333  1.00  0.00    -0.003 C 
ATOM     21  C   UNL     1      86.570 104.184  66.087  1.00  0.00     0.004 C 
ENDBRANCH  19  20
ENDBRANCH  18  19
ENDBRANCH  17  18
ENDBRANCH   1  17
TORSDOF 10
ENDMDL
MODEL 8
REMARK VINA RESULT:    -5.705     14.053     17.674
REMARK INTER + INTRA:          -9.525
REMARK INTER:                  -8.708
REMARK INTRA:                  -0.818
REMARK UNBOUND:                -0.651
REMARK SMILES CCCCC/C=C/C(=O)CCc1ccc(O)c(OC)c1
REMARK SMILES IDX 6 1 7 2 8 3 9 4 10 5 11 6 12 7 17 8 20 9 15 10 14 11 13 12
REMARK SMILES IDX 18 13 19 14 16 15 5 17 4 18 3 19 2 20 1 21
REMARK H PARENT 16 16
REMARK Flexibility Score: inf
ROOT
ATOM      1  C   UNL     1      97.391  80.715  81.502  1.00  0.00    -0.023 C 
ATOM      2  C   UNL     1      97.452  79.670  80.667  1.00  0.00     0.043 C 
ENDROOT
BRANCH   2   3
ATOM      3  C   UNL     1      98.656  79.473  79.815  1.00  0.00     0.155 C 
ATOM      4  O   UNL     1      99.270  78.407  79.795  1.00  0.00    -0.295 OA
BRANCH   3   5
ATOM      5  C   UNL     1      99.119  80.671  79.010  1.00  0.00     0.085 C 
BRANCH   5   6
ATOM      6  C   UNL     1      98.972  80.422  77.508  1.00  0.00     0.044 C 
BRANCH   6   7
ATOM      7  C   UNL     1      98.040  81.404  76.838  1.00  0.00    -0.044 A 
ATOM      8  C   UNL     1      97.494  82.795  74.960  1.00  0.00     0.160 A 
ATOM      9  C   UNL     1      98.355  81.888  75.579  1.00  0.00     0.054 A 
ATOM     10  C   UNL     1      96.330  83.206  75.609  1.00  0.00     0.157 A 
ATOM     11  C   UNL     1      96.027  82.710  76.878  1.00  0.00     0.050 A 
ATOM     12  C   UNL     1      96.888  81.803  77.496  1.00  0.00     0.008 A 
BRANCH   8  13
ATOM     13  O   UNL     1      97.801  83.272  73.722  1.00  0.00    -0.493 OA
ATOM     14  C   UNL     1      99.173  83.232  73.333  1.00  0.00     0.278 C 
ENDBRANCH   8  13
BRANCH  10  15
ATOM     15  O   UNL     1      95.481  84.090  75.016  1.00  0.00    -0.504 OA
ATOM     16  H   UNL     1      94.654  83.625  74.805  1.00  0.00     0.293 HD
ENDBRANCH  10  15
ENDBRANCH   6   7
ENDBRANCH   5   6
ENDBRANCH   3   5
ENDBRANCH   2   3
BRANCH   1  17
ATOM     17  C   UNL     1      96.213  80.984  82.394  1.00  0.00     0.027 C 
BRANCH  17  18
ATOM     18  C   UNL     1      95.810  79.773  83.241  1.00  0.00     0.004 C 
BRANCH  18  19
ATOM     19  C   UNL     1      95.072  80.144  84.531  1.00  0.00     0.000 C 
BRANCH  19  20
ATOM     20  C   UNL     1      94.288  81.446  84.362  1.00  0.00    -0.003 C 
ATOM     21  C   UNL     1      92.860  81.306  84.865  1.00  0.00     0.004 C 
ENDBRANCH  19  20
ENDBRANCH  18  19
ENDBRANCH  17  18
ENDBRANCH   1  17
TORSDOF 10
ENDMDL
MODEL 9
REMARK VINA RESULT:    -5.590     13.585     16.229
REMARK INTER + INTRA:          -9.345
REMARK INTER:                  -8.363
REMARK INTRA:                  -0.982
REMARK UNBOUND:                -0.651
REMARK SMILES CCCCC/C=C/C(=O)CCc1ccc(O)c(OC)c1
REMARK SMILES IDX 6 1 7 2 8 3 9 4 10 5 11 6 12 7 17 8 20 9 15 10 14 11 13 12
REMARK SMILES IDX 18 13 19 14 16 15 5 17 4 18 3 19 2 20 1 21
REMARK H PARENT 16 16
REMARK Flexibility Score: inf
ROOT
ATOM      1  C   UNL     1      97.873  82.834  74.210  1.00  0.00    -0.023 C 
ATOM      2  C   UNL     1      96.574  82.787  74.532  1.00  0.00     0.043 C 
ENDROOT
BRANCH   2   3
ATOM      3  C   UNL     1      96.057  83.621  75.650  1.00  0.00     0.155 C 
ATOM      4  O   UNL     1      95.845  84.825  75.519  1.00  0.00    -0.295 OA
BRANCH   3   5
ATOM      5  C   UNL     1      95.853  82.919  76.979  1.00  0.00     0.085 C 
BRANCH   5   6
ATOM      6  C   UNL     1      96.221  81.437  76.886  1.00  0.00     0.044 C 
BRANCH   6   7
ATOM      7  C   UNL     1      97.355  81.055  77.807  1.00  0.00    -0.044 A 
ATOM      8  C   UNL     1      98.268  80.905  80.021  1.00  0.00     0.160 A 
ATOM      9  C   UNL     1      97.221  81.260  79.171  1.00  0.00     0.054 A 
ATOM     10  C   UNL     1      99.436  80.352  79.497  1.00  0.00     0.157 A 
ATOM     11  C   UNL     1      99.556  80.152  78.121  1.00  0.00     0.050 A 
ATOM     12  C   UNL     1      98.509  80.506  77.271  1.00  0.00     0.008 A 
BRANCH   8  13
ATOM     13  O   UNL     1      98.139  81.106  81.363  1.00  0.00    -0.493 OA
ATOM     14  C   UNL     1      96.831  80.971  81.915  1.00  0.00     0.278 C 
ENDBRANCH   8  13
BRANCH  10  15
ATOM     15  O   UNL     1     100.466  80.002  80.317  1.00  0.00    -0.504 OA
ATOM     16  H   UNL     1     100.626  80.735  80.936  1.00  0.00     0.293 HD
ENDBRANCH  10  15
ENDBRANCH   6   7
ENDBRANCH   5   6
ENDBRANCH   3   5
ENDBRANCH   2   3
BRANCH   1  17
ATOM     17  C   UNL     1      98.472  82.025  73.097  1.00  0.00     0.027 C 
BRANCH  17  18
ATOM     18  C   UNL     1      98.139  80.532  73.191  1.00  0.00     0.004 C 
BRANCH  18  19
ATOM     19  C   UNL     1      96.913  80.124  72.368  1.00  0.00     0.000 C 
BRANCH  19  20
ATOM     20  C   UNL     1      97.246  78.977  71.413  1.00  0.00    -0.003 C 
ATOM     21  C   UNL     1      98.074  79.458  70.232  1.00  0.00     0.004 C 
ENDBRANCH  19  20
ENDBRANCH  18  19
ENDBRANCH  17  18
ENDBRANCH   1  17
TORSDOF 10
ENDMDL
MODEL 10
REMARK VINA RESULT:    -5.489     14.000     17.826
REMARK INTER + INTRA:          -9.188
REMARK INTER:                  -8.399
REMARK INTRA:                  -0.789
REMARK UNBOUND:                -0.651
REMARK SMILES CCCCC/C=C/C(=O)CCc1ccc(O)c(OC)c1
REMARK SMILES IDX 6 1 7 2 8 3 9 4 10 5 11 6 12 7 17 8 20 9 15 10 14 11 13 12
REMARK SMILES IDX 18 13 19 14 16 15 5 17 4 18 3 19 2 20 1 21
REMARK H PARENT 16 16
REMARK Flexibility Score: inf
ROOT
ATOM      1  C   UNL     1     102.162  79.141  78.370  1.00  0.00    -0.023 C 
ATOM      2  C   UNL     1     101.718  79.822  79.433  1.00  0.00     0.043 C 
ENDROOT
BRANCH   2   3
ATOM      3  C   UNL     1     100.256  79.923  79.692  1.00  0.00     0.155 C 
ATOM      4  O   UNL     1      99.777  79.706  80.803  1.00  0.00    -0.295 OA
BRANCH   3   5
ATOM      5  C   UNL     1      99.380  80.256  78.500  1.00  0.00     0.085 C 
BRANCH   5   6
ATOM      6  C   UNL     1      98.030  80.821  78.944  1.00  0.00     0.044 C 
BRANCH   6   7
ATOM      7  C   UNL     1      97.372  81.673  77.884  1.00  0.00    -0.044 A 
ATOM      8  C   UNL     1      97.380  82.603  75.671  1.00  0.00     0.160 A 
ATOM      9  C   UNL     1      97.988  81.817  76.650  1.00  0.00     0.054 A 
ATOM     10  C   UNL     1      96.165  83.235  75.938  1.00  0.00     0.157 A 
ATOM     11  C   UNL     1      95.558  83.080  77.185  1.00  0.00     0.050 A 
ATOM     12  C   UNL     1      96.166  82.294  78.164  1.00  0.00     0.008 A 
BRANCH   8  13
ATOM     13  O   UNL     1      97.982  82.746  74.458  1.00  0.00    -0.493 OA
ATOM     14  C   UNL     1      97.799  81.692  73.514  1.00  0.00     0.278 C 
ENDBRANCH   8  13
BRANCH  10  15
ATOM     15  O   UNL     1      95.562  84.004  74.990  1.00  0.00    -0.504 OA
ATOM     16  H   UNL     1      96.216  84.207  74.300  1.00  0.00     0.293 HD
ENDBRANCH  10  15
ENDBRANCH   6   7
ENDBRANCH   5   6
ENDBRANCH   3   5
ENDBRANCH   2   3
BRANCH   1  17
ATOM     17  C   UNL     1     103.619  78.993  78.040  1.00  0.00     0.027 C 
BRANCH  17  18
ATOM     18  C   UNL     1     103.973  79.500  76.638  1.00  0.00     0.004 C 
BRANCH  18  19
ATOM     19  C   UNL     1     102.761  79.993  75.839  1.00  0.00     0.000 C 
BRANCH  19  20
ATOM     20  C   UNL     1     103.192  80.608  74.507  1.00  0.00    -0.003 C 
ATOM     21  C   UNL     1     102.006  80.804  73.576  1.00  0.00     0.004 C 
ENDBRANCH  19  20
ENDBRANCH  18  19
ENDBRANCH  17  18
ENDBRANCH   1  17
TORSDOF 10
ENDMDL
