MODEL 1
REMARK VINA RESULT:    -5.936      0.000      0.000
REMARK INTER + INTRA:         -10.742
REMARK INTER:                  -9.753
REMARK INTRA:                  -0.988
REMARK UNBOUND:                -0.988
REMARK SMILES CCCCC[C@H](O)CC(=O)CCc1ccc(O)c(OC)c1
REMARK SMILES IDX 8 1 6 2 7 3 5 5 4 6 3 7 2 8 1 9 9 10 10 11 11 12 12 13 13 14
REMARK SMILES IDX 21 15 14 16 18 17 15 18 16 19 19 20 20 21 17 22
REMARK H PARENT 7 4 17 23
REMARK Flexibility Score: inf
ROOT
ATOM      1  C   UNL     1      79.065  65.325  70.112  1.00  0.00     0.107 C 
ENDROOT
BRANCH   1   2
ATOM      2  C   UNL     1      79.184  64.289  68.991  1.00  0.00     0.121 C 
BRANCH   2   3
ATOM      3  O   UNL     1      80.199  63.341  69.315  1.00  0.00    -0.393 OA
ATOM      4  H   UNL     1      80.268  63.300  70.285  1.00  0.00     0.210 HD
ENDBRANCH   2   3
BRANCH   2   5
ATOM      5  C   UNL     1      77.870  63.548  68.718  1.00  0.00     0.032 C 
BRANCH   5   6
ATOM      6  C   UNL     1      77.349  63.803  67.298  1.00  0.00     0.003 C 
BRANCH   6   7
ATOM      7  C   UNL     1      76.847  65.234  67.084  1.00  0.00    -0.000 C 
BRANCH   7   8
ATOM      8  C   UNL     1      75.780  65.665  68.088  1.00  0.00    -0.003 C 
ATOM      9  C   UNL     1      74.506  64.850  67.927  1.00  0.00     0.004 C 
ENDBRANCH   7   8
ENDBRANCH   6   7
ENDBRANCH   5   6
ENDBRANCH   2   5
ENDBRANCH   1   2
BRANCH   1  10
ATOM     10  C   UNL     1      80.383  65.587  70.823  1.00  0.00     0.135 C 
ATOM     11  O   UNL     1      81.377  65.956  70.198  1.00  0.00    -0.300 OA
BRANCH  10  12
ATOM     12  C   UNL     1      80.388  65.413  72.334  1.00  0.00     0.080 C 
BRANCH  12  13
ATOM     13  C   UNL     1      80.834  66.662  73.096  1.00  0.00     0.043 C 
BRANCH  13  14
ATOM     14  C   UNL     1      82.270  66.595  73.556  1.00  0.00    -0.044 A 
ATOM     15  C   UNL     1      83.120  67.683  73.355  1.00  0.00     0.054 A 
ATOM     16  C   UNL     1      82.747  65.443  74.183  1.00  0.00     0.008 A 
ATOM     17  C   UNL     1      84.446  67.619  73.782  1.00  0.00     0.160 A 
ATOM     18  C   UNL     1      84.074  65.380  74.610  1.00  0.00     0.050 A 
ATOM     19  C   UNL     1      84.923  66.468  74.409  1.00  0.00     0.157 A 
BRANCH  17  20
ATOM     20  O   UNL     1      85.267  68.688  73.580  1.00  0.00    -0.493 OA
ATOM     21  C   UNL     1      85.837  68.830  72.280  1.00  0.00     0.278 C 
ENDBRANCH  17  20
BRANCH  19  22
ATOM     22  O   UNL     1      86.217  66.394  74.830  1.00  0.00    -0.504 OA
ATOM     23  H   UNL     1      86.703  65.780  74.253  1.00  0.00     0.293 HD
ENDBRANCH  19  22
ENDBRANCH  13  14
ENDBRANCH  12  13
ENDBRANCH  10  12
ENDBRANCH   1  10
TORSDOF 12
ENDMDL
MODEL 2
REMARK VINA RESULT:    -5.883     15.436     19.131
REMARK INTER + INTRA:         -10.655
REMARK INTER:                  -9.732
REMARK INTRA:                  -0.923
REMARK UNBOUND:                -0.988
REMARK SMILES CCCCC[C@H](O)CC(=O)CCc1ccc(O)c(OC)c1
REMARK SMILES IDX 8 1 6 2 7 3 5 5 4 6 3 7 2 8 1 9 9 10 10 11 11 12 12 13 13 14
REMARK SMILES IDX 21 15 14 16 18 17 15 18 16 19 19 20 20 21 17 22
REMARK H PARENT 7 4 17 23
REMARK Flexibility Score: inf
ROOT
ATOM      1  C   UNL     1      91.561  75.673  81.787  1.00  0.00     0.107 C 
ENDROOT
BRANCH   1   2
ATOM      2  C   UNL     1      91.241  74.693  80.656  1.00  0.00     0.121 C 
BRANCH   2   3
ATOM      3  O   UNL     1      89.898  74.232  80.781  1.00  0.00    -0.393 OA
ATOM      4  H   UNL     1      89.804  73.436  80.229  1.00  0.00     0.210 HD
ENDBRANCH   2   3
BRANCH   2   5
ATOM      5  C   UNL     1      91.437  75.301  79.262  1.00  0.00     0.032 C 
BRANCH   5   6
ATOM      6  C   UNL     1      90.216  75.082  78.360  1.00  0.00     0.003 C 
BRANCH   6   7
ATOM      7  C   UNL     1      90.342  75.763  76.993  1.00  0.00    -0.000 C 
BRANCH   7   8
ATOM      8  C   UNL     1      91.679  76.471  76.782  1.00  0.00    -0.003 C 
ATOM      9  C   UNL     1      91.514  77.983  76.798  1.00  0.00     0.004 C 
ENDBRANCH   7   8
ENDBRANCH   6   7
ENDBRANCH   5   6
ENDBRANCH   2   5
ENDBRANCH   1   2
BRANCH   1  10
ATOM     10  C   UNL     1      90.912  75.291  83.107  1.00  0.00     0.135 C 
ATOM     11  O   UNL     1      90.884  74.119  83.483  1.00  0.00    -0.300 OA
BRANCH  10  12
ATOM     12  C   UNL     1      90.349  76.429  83.945  1.00  0.00     0.080 C 
BRANCH  12  13
ATOM     13  C   UNL     1      91.398  77.461  84.365  1.00  0.00     0.043 C 
BRANCH  13  14
ATOM     14  C   UNL     1      90.905  78.884  84.255  1.00  0.00    -0.044 A 
ATOM     15  C   UNL     1      89.537  79.145  84.180  1.00  0.00     0.054 A 
ATOM     16  C   UNL     1      91.819  79.938  84.228  1.00  0.00     0.008 A 
ATOM     17  C   UNL     1      89.083  80.460  84.079  1.00  0.00     0.160 A 
ATOM     18  C   UNL     1      91.365  81.253  84.128  1.00  0.00     0.050 A 
ATOM     19  C   UNL     1      89.997  81.514  84.053  1.00  0.00     0.157 A 
BRANCH  17  20
ATOM     20  O   UNL     1      87.745  80.703  84.006  1.00  0.00    -0.493 OA
ATOM     21  C   UNL     1      87.127  80.548  82.729  1.00  0.00     0.278 C 
ENDBRANCH  17  20
BRANCH  19  22
ATOM     22  O   UNL     1      89.566  82.802  83.954  1.00  0.00    -0.504 OA
ATOM     23  H   UNL     1      90.107  83.268  83.294  1.00  0.00     0.293 HD
ENDBRANCH  19  22
ENDBRANCH  13  14
ENDBRANCH  12  13
ENDBRANCH  10  12
ENDBRANCH   1  10
TORSDOF 12
ENDMDL
MODEL 3
REMARK VINA RESULT:    -5.766     31.931     34.573
REMARK INTER + INTRA:         -10.462
REMARK INTER:                  -9.226
REMARK INTRA:                  -1.237
REMARK UNBOUND:                -0.988
REMARK SMILES CCCCC[C@H](O)CC(=O)CCc1ccc(O)c(OC)c1
REMARK SMILES IDX 8 1 6 2 7 3 5 5 4 6 3 7 2 8 1 9 9 10 10 11 11 12 12 13 13 14
REMARK SMILES IDX 21 15 14 16 18 17 15 18 16 19 19 20 20 21 17 22
REMARK H PARENT 7 4 17 23
REMARK Flexibility Score: inf
ROOT
ATOM      1  C   UNL     1      92.204  96.078  76.724  1.00  0.00     0.107 C 
ENDROOT
BRANCH   1   2
ATOM      2  C   UNL     1      92.331  95.167  77.948  1.00  0.00     0.121 C 
BRANCH   2   3
ATOM      3  O   UNL     1      91.670  93.929  77.700  1.00  0.00    -0.393 OA
ATOM      4  H   UNL     1      92.343  93.283  77.423  1.00  0.00     0.210 HD
ENDBRANCH   2   3
BRANCH   2   5
ATOM      5  C   UNL     1      93.787  94.892  78.343  1.00  0.00     0.032 C 
BRANCH   5   6
ATOM      6  C   UNL     1      94.617  96.179  78.416  1.00  0.00     0.003 C 
BRANCH   6   7
ATOM      7  C   UNL     1      96.128  95.929  78.380  1.00  0.00    -0.000 C 
BRANCH   7   8
ATOM      8  C   UNL     1      96.869  96.485  79.595  1.00  0.00    -0.003 C 
ATOM      9  C   UNL     1      96.156  97.697  80.173  1.00  0.00     0.004 C 
ENDBRANCH   7   8
ENDBRANCH   6   7
ENDBRANCH   5   6
ENDBRANCH   2   5
ENDBRANCH   1   2
BRANCH   1  10
ATOM     10  C   UNL     1      92.363  95.333  75.408  1.00  0.00     0.135 C 
ATOM     11  O   UNL     1      91.446  94.650  74.953  1.00  0.00    -0.300 OA
BRANCH  10  12
ATOM     12  C   UNL     1      93.685  95.516  74.677  1.00  0.00     0.080 C 
BRANCH  12  13
ATOM     13  C   UNL     1      94.198  96.957  74.685  1.00  0.00     0.043 C 
BRANCH  13  14
ATOM     14  C   UNL     1      94.550  97.467  73.308  1.00  0.00    -0.044 A 
ATOM     15  C   UNL     1      93.776  98.464  72.714  1.00  0.00     0.054 A 
ATOM     16  C   UNL     1      95.651  96.942  72.631  1.00  0.00     0.008 A 
ATOM     17  C   UNL     1      94.103  98.935  71.443  1.00  0.00     0.160 A 
ATOM     18  C   UNL     1      95.978  97.413  71.359  1.00  0.00     0.050 A 
ATOM     19  C   UNL     1      95.203  98.409  70.765  1.00  0.00     0.157 A 
BRANCH  17  20
ATOM     20  O   UNL     1      93.338  99.908  70.872  1.00  0.00    -0.493 OA
ATOM     21  C   UNL     1      91.962  99.952  71.244  1.00  0.00     0.278 C 
ENDBRANCH  17  20
BRANCH  19  22
ATOM     22  O   UNL     1      95.532  98.862  69.523  1.00  0.00    -0.504 OA
ATOM     23  H   UNL     1      96.044  99.684  69.611  1.00  0.00     0.293 HD
ENDBRANCH  19  22
ENDBRANCH  13  14
ENDBRANCH  12  13
ENDBRANCH  10  12
ENDBRANCH   1  10
TORSDOF 12
ENDMDL
MODEL 4
REMARK VINA RESULT:    -5.625     16.020     19.001
REMARK INTER + INTRA:         -10.230
REMARK INTER:                  -9.271
REMARK INTRA:                  -0.959
REMARK UNBOUND:                -0.988
REMARK SMILES CCCCC[C@H](O)CC(=O)CCc1ccc(O)c(OC)c1
REMARK SMILES IDX 8 1 6 2 7 3 5 5 4 6 3 7 2 8 1 9 9 10 10 11 11 12 12 13 13 14
REMARK SMILES IDX 21 15 14 16 18 17 15 18 16 19 19 20 20 21 17 22
REMARK H PARENT 7 4 17 23
REMARK Flexibility Score: inf
ROOT
ATOM      1  C   UNL     1      91.861  75.718  81.548  1.00  0.00     0.107 C 
ENDROOT
BRANCH   1   2
ATOM      2  C   UNL     1      91.362  74.928  80.336  1.00  0.00     0.121 C 
BRANCH   2   3
ATOM      3  O   UNL     1      90.197  74.186  80.689  1.00  0.00    -0.393 OA
ATOM      4  H   UNL     1      89.920  73.677  79.907  1.00  0.00     0.210 HD
ENDBRANCH   2   3
BRANCH   2   5
ATOM      5  C   UNL     1      91.046  75.819  79.128  1.00  0.00     0.032 C 
BRANCH   5   6
ATOM      6  C   UNL     1      91.437  75.152  77.803  1.00  0.00     0.003 C 
BRANCH   6   7
ATOM      7  C   UNL     1      91.872  76.152  76.726  1.00  0.00    -0.000 C 
BRANCH   7   8
ATOM      8  C   UNL     1      91.130  77.486  76.794  1.00  0.00    -0.003 C 
ATOM      9  C   UNL     1      91.771  78.523  75.885  1.00  0.00     0.004 C 
ENDBRANCH   7   8
ENDBRANCH   6   7
ENDBRANCH   5   6
ENDBRANCH   2   5
ENDBRANCH   1   2
BRANCH   1  10
ATOM     10  C   UNL     1      91.879  74.898  82.827  1.00  0.00     0.135 C 
ATOM     11  O   UNL     1      92.285  73.736  82.828  1.00  0.00    -0.300 OA
BRANCH  10  12
ATOM     12  C   UNL     1      91.417  75.600  84.095  1.00  0.00     0.080 C 
BRANCH  12  13
ATOM     13  C   UNL     1      91.824  77.073  84.165  1.00  0.00     0.043 C 
BRANCH  13  14
ATOM     14  C   UNL     1      90.643  78.014  84.181  1.00  0.00    -0.044 A 
ATOM     15  C   UNL     1      90.845  79.390  84.071  1.00  0.00     0.054 A 
ATOM     16  C   UNL     1      89.350  77.507  84.307  1.00  0.00     0.008 A 
ATOM     17  C   UNL     1      89.753  80.258  84.085  1.00  0.00     0.160 A 
ATOM     18  C   UNL     1      88.258  78.375  84.321  1.00  0.00     0.050 A 
ATOM     19  C   UNL     1      88.460  79.750  84.211  1.00  0.00     0.157 A 
BRANCH  17  20
ATOM     20  O   UNL     1      89.963  81.600  83.977  1.00  0.00    -0.493 OA
ATOM     21  C   UNL     1      91.213  82.100  84.447  1.00  0.00     0.278 C 
ENDBRANCH  17  20
BRANCH  19  22
ATOM     22  O   UNL     1      87.386  80.588  84.226  1.00  0.00    -0.504 OA
ATOM     23  H   UNL     1      86.879  80.468  83.405  1.00  0.00     0.293 HD
ENDBRANCH  19  22
ENDBRANCH  13  14
ENDBRANCH  12  13
ENDBRANCH  10  12
ENDBRANCH   1  10
TORSDOF 12
ENDMDL
MODEL 5
REMARK VINA RESULT:    -5.587     21.722     25.285
REMARK INTER + INTRA:         -10.168
REMARK INTER:                  -9.041
REMARK INTRA:                  -1.127
REMARK UNBOUND:                -0.988
REMARK SMILES CCCCC[C@H](O)CC(=O)CCc1ccc(O)c(OC)c1
REMARK SMILES IDX 8 1 6 2 7 3 5 5 4 6 3 7 2 8 1 9 9 10 10 11 11 12 12 13 13 14
REMARK SMILES IDX 21 15 14 16 18 17 15 18 16 19 19 20 20 21 17 22
REMARK H PARENT 7 4 17 23
REMARK Flexibility Score: inf
ROOT
ATOM      1  C   UNL     1      95.322  84.301  85.396  1.00  0.00     0.107 C 
ENDROOT
BRANCH   1   2
ATOM      2  C   UNL     1      93.887  84.235  85.925  1.00  0.00     0.121 C 
BRANCH   2   3
ATOM      3  O   UNL     1      93.015  84.940  85.045  1.00  0.00    -0.393 OA
ATOM      4  H   UNL     1      92.368  85.422  85.590  1.00  0.00     0.210 HD
ENDBRANCH   2   3
BRANCH   2   5
ATOM      5  C   UNL     1      93.376  82.799  86.098  1.00  0.00     0.032 C 
BRANCH   5   6
ATOM      6  C   UNL     1      92.761  82.247  84.806  1.00  0.00     0.003 C 
BRANCH   6   7
ATOM      7  C   UNL     1      91.337  81.714  84.993  1.00  0.00    -0.000 C 
BRANCH   7   8
ATOM      8  C   UNL     1      90.781  81.005  83.759  1.00  0.00    -0.003 C 
ATOM      9  C   UNL     1      90.823  79.494  83.921  1.00  0.00     0.004 C 
ENDBRANCH   7   8
ENDBRANCH   6   7
ENDBRANCH   5   6
ENDBRANCH   2   5
ENDBRANCH   1   2
BRANCH   1  10
ATOM     10  C   UNL     1      95.468  85.201  84.180  1.00  0.00     0.135 C 
ATOM     11  O   UNL     1      95.259  86.411  84.260  1.00  0.00    -0.300 OA
BRANCH  10  12
ATOM     12  C   UNL     1      95.924  84.536  82.890  1.00  0.00     0.080 C 
BRANCH  12  13
ATOM     13  C   UNL     1      96.296  83.061  83.056  1.00  0.00     0.043 C 
BRANCH  13  14
ATOM     14  C   UNL     1      96.779  82.425  81.775  1.00  0.00    -0.044 A 
ATOM     15  C   UNL     1      96.969  81.044  81.710  1.00  0.00     0.054 A 
ATOM     16  C   UNL     1      97.036  83.218  80.656  1.00  0.00     0.008 A 
ATOM     17  C   UNL     1      97.415  80.457  80.526  1.00  0.00     0.160 A 
ATOM     18  C   UNL     1      97.482  82.631  79.472  1.00  0.00     0.050 A 
ATOM     19  C   UNL     1      97.672  81.251  79.407  1.00  0.00     0.157 A 
BRANCH  17  20
ATOM     20  O   UNL     1      97.598  79.108  80.474  1.00  0.00    -0.493 OA
ATOM     21  C   UNL     1      98.782  78.591  81.078  1.00  0.00     0.278 C 
ENDBRANCH  17  20
BRANCH  19  22
ATOM     22  O   UNL     1      98.108  80.689  78.245  1.00  0.00    -0.504 OA
ATOM     23  H   UNL     1      98.065  79.721  78.326  1.00  0.00     0.293 HD
ENDBRANCH  19  22
ENDBRANCH  13  14
ENDBRANCH  12  13
ENDBRANCH  10  12
ENDBRANCH   1  10
TORSDOF 12
ENDMDL
MODEL 6
REMARK VINA RESULT:    -5.574     24.030     25.582
REMARK INTER + INTRA:         -10.147
REMARK INTER:                  -9.370
REMARK INTRA:                  -0.776
REMARK UNBOUND:                -0.988
REMARK SMILES CCCCC[C@H](O)CC(=O)CCc1ccc(O)c(OC)c1
REMARK SMILES IDX 8 1 6 2 7 3 5 5 4 6 3 7 2 8 1 9 9 10 10 11 11 12 12 13 13 14
REMARK SMILES IDX 21 15 14 16 18 17 15 18 16 19 19 20 20 21 17 22
REMARK H PARENT 7 4 17 23
REMARK Flexibility Score: inf
ROOT
ATOM      1  C   UNL     1      98.038  84.133  75.986  1.00  0.00     0.107 C 
ENDROOT
BRANCH   1   2
ATOM      2  C   UNL     1      97.290  84.041  74.654  1.00  0.00     0.121 C 
BRANCH   2   3
ATOM      3  O   UNL     1      96.139  84.882  74.687  1.00  0.00    -0.393 OA
ATOM      4  H   UNL     1      95.725  84.853  73.807  1.00  0.00     0.210 HD
ENDBRANCH   2   3
BRANCH   2   5
ATOM      5  C   UNL     1      98.160  84.423  73.450  1.00  0.00     0.032 C 
BRANCH   5   6
ATOM      6  C   UNL     1      99.472  83.630  73.411  1.00  0.00     0.003 C 
BRANCH   6   7
ATOM      7  C   UNL     1     100.635  84.412  72.794  1.00  0.00    -0.000 C 
BRANCH   7   8
ATOM      8  C   UNL     1     100.918  85.741  73.491  1.00  0.00    -0.003 C 
ATOM      9  C   UNL     1     101.498  85.526  74.881  1.00  0.00     0.004 C 
ENDBRANCH   7   8
ENDBRANCH   6   7
ENDBRANCH   5   6
ENDBRANCH   2   5
ENDBRANCH   1   2
BRANCH   1  10
ATOM     10  C   UNL     1      97.145  83.873  77.189  1.00  0.00     0.135 C 
ATOM     11  O   UNL     1      96.009  84.343  77.247  1.00  0.00    -0.300 OA
BRANCH  10  12
ATOM     12  C   UNL     1      97.713  82.976  78.278  1.00  0.00     0.080 C 
BRANCH  12  13
ATOM     13  C   UNL     1      97.469  83.499  79.695  1.00  0.00     0.043 C 
BRANCH  13  14
ATOM     14  C   UNL     1      97.171  82.401  80.688  1.00  0.00    -0.044 A 
ATOM     15  C   UNL     1      96.686  82.720  81.957  1.00  0.00     0.054 A 
ATOM     16  C   UNL     1      97.380  81.067  80.336  1.00  0.00     0.008 A 
ATOM     17  C   UNL     1      96.411  81.704  82.873  1.00  0.00     0.160 A 
ATOM     18  C   UNL     1      97.104  80.052  81.252  1.00  0.00     0.050 A 
ATOM     19  C   UNL     1      96.620  80.371  82.521  1.00  0.00     0.157 A 
BRANCH  17  20
ATOM     20  O   UNL     1      95.938  82.028  84.109  1.00  0.00    -0.493 OA
ATOM     21  C   UNL     1      96.155  83.365  84.556  1.00  0.00     0.278 C 
ENDBRANCH  17  20
BRANCH  19  22
ATOM     22  O   UNL     1      96.355  79.371  83.407  1.00  0.00    -0.504 OA
ATOM     23  H   UNL     1      96.560  79.681  84.305  1.00  0.00     0.293 HD
ENDBRANCH  19  22
ENDBRANCH  13  14
ENDBRANCH  12  13
ENDBRANCH  10  12
ENDBRANCH   1  10
TORSDOF 12
ENDMDL
MODEL 7
REMARK VINA RESULT:    -5.521     21.811     23.149
REMARK INTER + INTRA:         -10.059
REMARK INTER:                  -7.975
REMARK INTRA:                  -2.084
REMARK UNBOUND:                -0.988
REMARK SMILES CCCCC[C@H](O)CC(=O)CCc1ccc(O)c(OC)c1
REMARK SMILES IDX 8 1 6 2 7 3 5 5 4 6 3 7 2 8 1 9 9 10 10 11 11 12 12 13 13 14
REMARK SMILES IDX 21 15 14 16 18 17 15 18 16 19 19 20 20 21 17 22
REMARK H PARENT 7 4 17 23
REMARK Flexibility Score: inf
ROOT
ATOM      1  C   UNL     1      73.724  89.236  66.581  1.00  0.00     0.107 C 
ENDROOT
BRANCH   1   2
ATOM      2  C   UNL     1      73.096  87.920  67.046  1.00  0.00     0.121 C 
BRANCH   2   3
ATOM      3  O   UNL     1      73.942  86.829  66.692  1.00  0.00    -0.393 OA
ATOM      4  H   UNL     1      73.573  86.414  65.893  1.00  0.00     0.210 HD
ENDBRANCH   2   3
BRANCH   2   5
ATOM      5  C   UNL     1      72.830  87.883  68.556  1.00  0.00     0.032 C 
BRANCH   5   6
ATOM      6  C   UNL     1      71.836  88.966  68.993  1.00  0.00     0.003 C 
BRANCH   6   7
ATOM      7  C   UNL     1      72.258  89.697  70.272  1.00  0.00    -0.000 C 
BRANCH   7   8
ATOM      8  C   UNL     1      73.719  89.465  70.655  1.00  0.00    -0.003 C 
ATOM      9  C   UNL     1      74.575  90.681  70.339  1.00  0.00     0.004 C 
ENDBRANCH   7   8
ENDBRANCH   6   7
ENDBRANCH   5   6
ENDBRANCH   2   5
ENDBRANCH   1   2
BRANCH   1  10
ATOM     10  C   UNL     1      75.195  89.101  66.223  1.00  0.00     0.135 C 
ATOM     11  O   UNL     1      75.547  88.496  65.210  1.00  0.00    -0.300 OA
BRANCH  10  12
ATOM     12  C   UNL     1      76.188  89.784  67.151  1.00  0.00     0.080 C 
BRANCH  12  13
ATOM     13  C   UNL     1      77.433  88.945  67.444  1.00  0.00     0.043 C 
BRANCH  13  14
ATOM     14  C   UNL     1      77.110  87.585  68.016  1.00  0.00    -0.044 A 
ATOM     15  C   UNL     1      77.591  86.434  67.393  1.00  0.00     0.054 A 
ATOM     16  C   UNL     1      76.330  87.482  69.169  1.00  0.00     0.008 A 
ATOM     17  C   UNL     1      77.292  85.178  67.924  1.00  0.00     0.160 A 
ATOM     18  C   UNL     1      76.032  86.227  69.699  1.00  0.00     0.050 A 
ATOM     19  C   UNL     1      76.513  85.075  69.076  1.00  0.00     0.157 A 
BRANCH  17  20
ATOM     20  O   UNL     1      77.767  84.061  67.307  1.00  0.00    -0.493 OA
ATOM     21  C   UNL     1      77.570  83.966  65.897  1.00  0.00     0.278 C 
ENDBRANCH  17  20
BRANCH  19  22
ATOM     22  O   UNL     1      76.214  83.855  69.603  1.00  0.00    -0.504 OA
ATOM     23  H   UNL     1      75.478  83.465  69.101  1.00  0.00     0.293 HD
ENDBRANCH  19  22
ENDBRANCH  13  14
ENDBRANCH  12  13
ENDBRANCH  10  12
ENDBRANCH   1  10
TORSDOF 12
ENDMDL
MODEL 8
REMARK VINA RESULT:    -5.439     24.659     26.238
REMARK INTER + INTRA:          -9.926
REMARK INTER:                  -8.987
REMARK INTRA:                  -0.939
REMARK UNBOUND:                -0.988
REMARK SMILES CCCCC[C@H](O)CC(=O)CCc1ccc(O)c(OC)c1
REMARK SMILES IDX 8 1 6 2 7 3 5 5 4 6 3 7 2 8 1 9 9 10 10 11 11 12 12 13 13 14
REMARK SMILES IDX 21 15 14 16 18 17 15 18 16 19 19 20 20 21 17 22
REMARK H PARENT 7 4 17 23
REMARK Flexibility Score: inf
ROOT
ATOM      1  C   UNL     1      98.470  84.027  75.486  1.00  0.00     0.107 C 
ENDROOT
BRANCH   1   2
ATOM      2  C   UNL     1      98.510  83.698  73.992  1.00  0.00     0.121 C 
BRANCH   2   3
ATOM      3  O   UNL     1      97.250  83.174  73.578  1.00  0.00    -0.393 OA
ATOM      4  H   UNL     1      97.420  82.454  72.946  1.00  0.00     0.210 HD
ENDBRANCH   2   3
BRANCH   2   5
ATOM      5  C   UNL     1      98.864  84.908  73.120  1.00  0.00     0.032 C 
BRANCH   5   6
ATOM      6  C   UNL     1      99.901  85.818  73.791  1.00  0.00     0.003 C 
BRANCH   6   7
ATOM      7  C   UNL     1     101.339  85.310  73.645  1.00  0.00    -0.000 C 
BRANCH   7   8
ATOM      8  C   UNL     1     102.153  85.400  74.934  1.00  0.00    -0.003 C 
ATOM      9  C   UNL     1     103.138  86.558  74.888  1.00  0.00     0.004 C 
ENDBRANCH   7   8
ENDBRANCH   6   7
ENDBRANCH   5   6
ENDBRANCH   2   5
ENDBRANCH   1   2
BRANCH   1  10
ATOM     10  C   UNL     1      97.076  84.375  75.982  1.00  0.00     0.135 C 
ATOM     11  O   UNL     1      96.311  85.054  75.297  1.00  0.00    -0.300 OA
BRANCH  10  12
ATOM     12  C   UNL     1      96.671  83.805  77.333  1.00  0.00     0.080 C 
BRANCH  12  13
ATOM     13  C   UNL     1      97.511  82.604  77.771  1.00  0.00     0.043 C 
BRANCH  13  14
ATOM     14  C   UNL     1      97.595  82.455  79.272  1.00  0.00    -0.044 A 
ATOM     15  C   UNL     1      98.516  81.573  79.835  1.00  0.00     0.054 A 
ATOM     16  C   UNL     1      96.751  83.202  80.094  1.00  0.00     0.008 A 
ATOM     17  C   UNL     1      98.594  81.437  81.221  1.00  0.00     0.160 A 
ATOM     18  C   UNL     1      96.828  83.066  81.480  1.00  0.00     0.050 A 
ATOM     19  C   UNL     1      97.749  82.183  82.044  1.00  0.00     0.157 A 
BRANCH  17  20
ATOM     20  O   UNL     1      99.497  80.571  81.760  1.00  0.00    -0.493 OA
ATOM     21  C   UNL     1     100.874  80.930  81.666  1.00  0.00     0.278 C 
ENDBRANCH  17  20
BRANCH  19  22
ATOM     22  O   UNL     1      97.815  82.059  83.399  1.00  0.00    -0.504 OA
ATOM     23  H   UNL     1      97.025  82.467  83.793  1.00  0.00     0.293 HD
ENDBRANCH  19  22
ENDBRANCH  13  14
ENDBRANCH  12  13
ENDBRANCH  10  12
ENDBRANCH   1  10
TORSDOF 12
ENDMDL
MODEL 9
REMARK VINA RESULT:    -5.417     23.881     25.767
REMARK INTER + INTRA:          -9.888
REMARK INTER:                  -8.804
REMARK INTRA:                  -1.085
REMARK UNBOUND:                -0.988
REMARK SMILES CCCCC[C@H](O)CC(=O)CCc1ccc(O)c(OC)c1
REMARK SMILES IDX 8 1 6 2 7 3 5 5 4 6 3 7 2 8 1 9 9 10 10 11 11 12 12 13 13 14
REMARK SMILES IDX 21 15 14 16 18 17 15 18 16 19 19 20 20 21 17 22
REMARK H PARENT 7 4 17 23
REMARK Flexibility Score: inf
ROOT
ATOM      1  C   UNL     1      98.973  81.558  80.940  1.00  0.00     0.107 C 
ENDROOT
BRANCH   1   2
ATOM      2  C   UNL     1      98.736  81.847  79.456  1.00  0.00     0.121 C 
BRANCH   2   3
ATOM      3  O   UNL     1      97.828  80.890  78.915  1.00  0.00    -0.393 OA
ATOM      4  H   UNL     1      97.007  80.932  79.437  1.00  0.00     0.210 HD
ENDBRANCH   2   3
BRANCH   2   5
ATOM      5  C   UNL     1      98.195  83.259  79.198  1.00  0.00     0.032 C 
BRANCH   5   6
ATOM      6  C   UNL     1      96.692  83.253  78.895  1.00  0.00     0.003 C 
BRANCH   6   7
ATOM      7  C   UNL     1      96.337  83.944  77.575  1.00  0.00    -0.000 C 
BRANCH   7   8
ATOM      8  C   UNL     1      97.468  83.923  76.549  1.00  0.00    -0.003 C 
ATOM      9  C   UNL     1      97.073  84.649  75.273  1.00  0.00     0.004 C 
ENDBRANCH   7   8
ENDBRANCH   6   7
ENDBRANCH   5   6
ENDBRANCH   2   5
ENDBRANCH   1   2
BRANCH   1  10
ATOM     10  C   UNL     1      97.687  81.296  81.708  1.00  0.00     0.135 C 
ATOM     11  O   UNL     1      96.965  80.341  81.426  1.00  0.00    -0.300 OA
BRANCH  10  12
ATOM     12  C   UNL     1      97.374  82.243  82.857  1.00  0.00     0.080 C 
BRANCH  12  13
ATOM     13  C   UNL     1      96.493  83.427  82.455  1.00  0.00     0.043 C 
BRANCH  13  14
ATOM     14  C   UNL     1      95.580  83.890  83.566  1.00  0.00    -0.044 A 
ATOM     15  C   UNL     1      94.586  83.040  84.052  1.00  0.00     0.054 A 
ATOM     16  C   UNL     1      95.733  85.167  84.107  1.00  0.00     0.008 A 
ATOM     17  C   UNL     1      93.745  83.468  85.079  1.00  0.00     0.160 A 
ATOM     18  C   UNL     1      94.891  85.595  85.134  1.00  0.00     0.050 A 
ATOM     19  C   UNL     1      93.897  84.745  85.620  1.00  0.00     0.157 A 
BRANCH  17  20
ATOM     20  O   UNL     1      92.777  82.630  85.545  1.00  0.00    -0.493 OA
ATOM     21  C   UNL     1      92.067  81.859  84.577  1.00  0.00     0.278 C 
ENDBRANCH  17  20
BRANCH  19  22
ATOM     22  O   UNL     1      93.081  85.174  86.622  1.00  0.00    -0.504 OA
ATOM     23  H   UNL     1      93.626  85.424  87.389  1.00  0.00     0.293 HD
ENDBRANCH  19  22
ENDBRANCH  13  14
ENDBRANCH  12  13
ENDBRANCH  10  12
ENDBRANCH   1  10
TORSDOF 12
ENDMDL
MODEL 10
REMARK VINA RESULT:    -5.400     23.781     25.191
REMARK INTER + INTRA:          -9.862
REMARK INTER:                  -8.409
REMARK INTRA:                  -1.452
REMARK UNBOUND:                -0.988
REMARK SMILES CCCCC[C@H](O)CC(=O)CCc1ccc(O)c(OC)c1
REMARK SMILES IDX 8 1 6 2 7 3 5 5 4 6 3 7 2 8 1 9 9 10 10 11 11 12 12 13 13 14
REMARK SMILES IDX 21 15 14 16 18 17 15 18 16 19 19 20 20 21 17 22
REMARK H PARENT 7 4 17 23
REMARK Flexibility Score: inf
ROOT
ATOM      1  C   UNL     1      98.344  83.442  76.673  1.00  0.00     0.107 C 
ENDROOT
BRANCH   1   2
ATOM      2  C   UNL     1      98.378  82.593  75.400  1.00  0.00     0.121 C 
BRANCH   2   3
ATOM      3  O   UNL     1      97.969  83.380  74.283  1.00  0.00    -0.393 OA
ATOM      4  H   UNL     1      97.964  84.313  74.563  1.00  0.00     0.210 HD
ENDBRANCH   2   3
BRANCH   2   5
ATOM      5  C   UNL     1      99.760  81.993  75.115  1.00  0.00     0.032 C 
BRANCH   5   6
ATOM      6  C   UNL     1     100.893  82.872  75.658  1.00  0.00     0.003 C 
BRANCH   6   7
ATOM      7  C   UNL     1     101.896  82.102  76.524  1.00  0.00    -0.000 C 
BRANCH   7   8
ATOM      8  C   UNL     1     101.265  80.973  77.335  1.00  0.00    -0.003 C 
ATOM      9  C   UNL     1     100.856  81.446  78.721  1.00  0.00     0.004 C 
ENDBRANCH   7   8
ENDBRANCH   6   7
ENDBRANCH   5   6
ENDBRANCH   2   5
ENDBRANCH   1   2
BRANCH   1  10
ATOM     10  C   UNL     1      96.954  83.959  77.008  1.00  0.00     0.135 C 
ATOM     11  O   UNL     1      96.312  84.621  76.193  1.00  0.00    -0.300 OA
BRANCH  10  12
ATOM     12  C   UNL     1      96.395  83.577  78.370  1.00  0.00     0.080 C 
BRANCH  12  13
ATOM     13  C   UNL     1      97.455  83.492  79.469  1.00  0.00     0.043 C 
BRANCH  13  14
ATOM     14  C   UNL     1      97.192  82.385  80.462  1.00  0.00    -0.044 A 
ATOM     15  C   UNL     1      97.422  81.057  80.104  1.00  0.00     0.054 A 
ATOM     16  C   UNL     1      96.718  82.691  81.738  1.00  0.00     0.008 A 
ATOM     17  C   UNL     1      97.179  80.035  81.022  1.00  0.00     0.160 A 
ATOM     18  C   UNL     1      96.475  81.670  82.656  1.00  0.00     0.050 A 
ATOM     19  C   UNL     1      96.705  80.341  82.298  1.00  0.00     0.157 A 
BRANCH  17  20
ATOM     20  O   UNL     1      97.408  78.741  80.661  1.00  0.00    -0.493 OA
ATOM     21  C   UNL     1      98.768  78.346  80.493  1.00  0.00     0.278 C 
ENDBRANCH  17  20
BRANCH  19  22
ATOM     22  O   UNL     1      96.464  79.353  83.203  1.00  0.00    -0.504 OA
ATOM     23  H   UNL     1      95.519  79.355  83.431  1.00  0.00     0.293 HD
ENDBRANCH  19  22
ENDBRANCH  13  14
ENDBRANCH  12  13
ENDBRANCH  10  12
ENDBRANCH   1  10
TORSDOF 12
ENDMDL
