MODEL 1
REMARK VINA RESULT:    -5.996      0.000      0.000
REMARK INTER + INTRA:         -11.269
REMARK INTER:                 -10.027
REMARK INTRA:                  -1.242
REMARK UNBOUND:                -1.242
REMARK SMILES COc1cc(CNC(=O)CCCCCCCC(C)C)ccc1O
REMARK SMILES IDX 11 1 10 2 8 3 9 4 7 5 6 7 5 8 4 9 20 10 3 11 21 12 22 13
REMARK SMILES IDX 2 14 1 15 23 16 12 18 13 19 14 20 15 21 16 22 17 23 18 24
REMARK SMILES IDX 19 25
REMARK H PARENT 7 6 23 17
REMARK Flexibility Score: inf
ROOT
ATOM      1  C   UNL     1      95.468  95.998  74.463  1.00  0.00     0.010 C 
ENDROOT
BRANCH   1   2
ATOM      2  C   UNL     1      96.574  96.987  74.101  1.00  0.00     0.100 C 
BRANCH   2   3
ATOM      3  C   UNL     1      97.630  97.098  75.188  1.00  0.00     0.220 C 
ATOM      4  O   UNL     1      98.836  97.124  74.956  1.00  0.00    -0.275 OA
ATOM      5  N   UNL     1      97.058  97.157  76.450  1.00  0.00    -0.352 N 
ATOM      6  H   UNL     1      96.047  97.118  76.545  1.00  0.00     0.163 HD
BRANCH   5   7
ATOM      7  C   UNL     1      97.840  97.258  77.661  1.00  0.00     0.151 C 
BRANCH   7   8
ATOM      8  C   UNL     1      97.251  96.447  78.778  1.00  0.00    -0.025 A 
ATOM      9  C   UNL     1      97.808  96.521  80.049  1.00  0.00     0.056 A 
ATOM     10  C   UNL     1      96.155  95.630  78.530  1.00  0.00     0.009 A 
ATOM     11  C   UNL     1      97.261  95.767  81.087  1.00  0.00     0.160 A 
ATOM     12  C   UNL     1      95.608  94.875  79.568  1.00  0.00     0.050 A 
ATOM     13  C   UNL     1      96.161  94.943  80.847  1.00  0.00     0.157 A 
BRANCH  11  14
ATOM     14  O   UNL     1      97.810  95.842  82.332  1.00  0.00    -0.493 OA
ATOM     15  C   UNL     1      99.229  95.722  82.422  1.00  0.00     0.278 C 
ENDBRANCH  11  14
BRANCH  13  16
ATOM     16  O   UNL     1      95.617  94.203  81.853  1.00  0.00    -0.504 OA
ATOM     17  H   UNL     1      94.930  93.622  81.482  1.00  0.00     0.293 HD
ENDBRANCH  13  16
ENDBRANCH   7   8
ENDBRANCH   5   7
ENDBRANCH   2   3
ENDBRANCH   1   2
BRANCH   1  18
ATOM     18  C   UNL     1      94.103  96.659  74.671  1.00  0.00     0.001 C 
BRANCH  18  19
ATOM     19  C   UNL     1      93.013  95.760  75.264  1.00  0.00     0.000 C 
BRANCH  19  20
ATOM     20  C   UNL     1      92.378  96.336  76.533  1.00  0.00     0.000 C 
BRANCH  20  21
ATOM     21  C   UNL     1      91.176  95.528  77.034  1.00  0.00     0.000 C 
BRANCH  21  22
ATOM     22  C   UNL     1      90.997  94.192  76.306  1.00  0.00     0.003 C 
BRANCH  22  23
ATOM     23  C   UNL     1      91.270  92.965  77.198  1.00  0.00    -0.017 C 
ATOM     24  C   UNL     1      89.971  92.518  77.874  1.00  0.00     0.007 C 
ATOM     25  C   UNL     1      92.335  93.238  78.261  1.00  0.00     0.007 C 
ENDBRANCH  22  23
ENDBRANCH  21  22
ENDBRANCH  20  21
ENDBRANCH  19  20
ENDBRANCH  18  19
ENDBRANCH   1  18
TORSDOF 12
ENDMDL
MODEL 2
REMARK VINA RESULT:    -5.889      9.100     12.768
REMARK INTER + INTRA:         -11.089
REMARK INTER:                 -10.368
REMARK INTRA:                  -0.722
REMARK UNBOUND:                -1.242
REMARK SMILES COc1cc(CNC(=O)CCCCCCCC(C)C)ccc1O
REMARK SMILES IDX 11 1 10 2 8 3 9 4 7 5 6 7 5 8 4 9 20 10 3 11 21 12 22 13
REMARK SMILES IDX 2 14 1 15 23 16 12 18 13 19 14 20 15 21 16 22 17 23 18 24
REMARK SMILES IDX 19 25
REMARK H PARENT 7 6 23 17
REMARK Flexibility Score: inf
ROOT
ATOM      1  C   UNL     1      91.546  99.596  71.243  1.00  0.00     0.010 C 
ENDROOT
BRANCH   1   2
ATOM      2  C   UNL     1      91.691  99.123  69.799  1.00  0.00     0.100 C 
BRANCH   2   3
ATOM      3  C   UNL     1      90.353  98.769  69.169  1.00  0.00     0.220 C 
ATOM      4  O   UNL     1      89.391  98.365  69.814  1.00  0.00    -0.275 OA
ATOM      5  N   UNL     1      90.373  98.954  67.794  1.00  0.00    -0.352 N 
ATOM      6  H   UNL     1      91.223  99.284  67.344  1.00  0.00     0.163 HD
BRANCH   5   7
ATOM      7  C   UNL     1      89.231  98.684  66.951  1.00  0.00     0.151 C 
BRANCH   7   8
ATOM      8  C   UNL     1      88.430  99.923  66.677  1.00  0.00    -0.025 A 
ATOM      9  C   UNL     1      89.061 101.161  66.659  1.00  0.00     0.056 A 
ATOM     10  C   UNL     1      87.064  99.819  66.443  1.00  0.00     0.009 A 
ATOM     11  C   UNL     1      88.316 102.312  66.405  1.00  0.00     0.160 A 
ATOM     12  C   UNL     1      86.318 100.972  66.189  1.00  0.00     0.050 A 
ATOM     13  C   UNL     1      86.944 102.218  66.170  1.00  0.00     0.157 A 
BRANCH  11  14
ATOM     14  O   UNL     1      88.939 103.524  66.389  1.00  0.00    -0.493 OA
ATOM     15  C   UNL     1      90.308 103.543  65.987  1.00  0.00     0.278 C 
ENDBRANCH  11  14
BRANCH  13  16
ATOM     16  O   UNL     1      86.206 103.335  65.919  1.00  0.00    -0.504 OA
ATOM     17  H   UNL     1      86.402 103.648  65.019  1.00  0.00     0.293 HD
ENDBRANCH  13  16
ENDBRANCH   7   8
ENDBRANCH   5   7
ENDBRANCH   2   3
ENDBRANCH   1   2
BRANCH   1  18
ATOM     18  C   UNL     1      92.689 100.503  71.706  1.00  0.00     0.001 C 
BRANCH  18  19
ATOM     19  C   UNL     1      93.581  99.935  72.815  1.00  0.00     0.000 C 
BRANCH  19  20
ATOM     20  C   UNL     1      93.593  98.405  72.857  1.00  0.00     0.000 C 
BRANCH  20  21
ATOM     21  C   UNL     1      93.592  97.834  74.280  1.00  0.00     0.000 C 
BRANCH  21  22
ATOM     22  C   UNL     1      94.077  96.382  74.351  1.00  0.00     0.003 C 
BRANCH  22  23
ATOM     23  C   UNL     1      93.888  95.738  75.738  1.00  0.00    -0.017 C 
ATOM     24  C   UNL     1      94.088  94.224  75.638  1.00  0.00     0.007 C 
ATOM     25  C   UNL     1      92.514  96.036  76.340  1.00  0.00     0.007 C 
ENDBRANCH  22  23
ENDBRANCH  21  22
ENDBRANCH  20  21
ENDBRANCH  19  20
ENDBRANCH  18  19
ENDBRANCH   1  18
TORSDOF 12
ENDMDL
MODEL 3
REMARK VINA RESULT:    -5.778     14.246     16.144
REMARK INTER + INTRA:         -10.905
REMARK INTER:                  -9.824
REMARK INTRA:                  -1.081
REMARK UNBOUND:                -1.242
REMARK SMILES COc1cc(CNC(=O)CCCCCCCC(C)C)ccc1O
REMARK SMILES IDX 11 1 10 2 8 3 9 4 7 5 6 7 5 8 4 9 20 10 3 11 21 12 22 13
REMARK SMILES IDX 2 14 1 15 23 16 12 18 13 19 14 20 15 21 16 22 17 23 18 24
REMARK SMILES IDX 19 25
REMARK H PARENT 7 6 23 17
REMARK Flexibility Score: inf
ROOT
ATOM      1  C   UNL     1      97.174  81.351  77.973  1.00  0.00     0.010 C 
ENDROOT
BRANCH   1   2
ATOM      2  C   UNL     1      96.165  82.454  77.664  1.00  0.00     0.100 C 
BRANCH   2   3
ATOM      3  C   UNL     1      96.324  83.007  76.258  1.00  0.00     0.220 C 
ATOM      4  O   UNL     1      95.478  83.708  75.709  1.00  0.00    -0.275 OA
ATOM      5  N   UNL     1      97.527  82.614  75.689  1.00  0.00    -0.352 N 
ATOM      6  H   UNL     1      98.162  82.022  76.217  1.00  0.00     0.163 HD
BRANCH   5   7
ATOM      7  C   UNL     1      97.924  82.996  74.353  1.00  0.00     0.151 C 
BRANCH   7   8
ATOM      8  C   UNL     1      97.904  81.831  73.407  1.00  0.00    -0.025 A 
ATOM      9  C   UNL     1      99.063  81.478  72.727  1.00  0.00     0.056 A 
ATOM     10  C   UNL     1      96.726  81.118  73.220  1.00  0.00     0.009 A 
ATOM     11  C   UNL     1      99.045  80.396  71.847  1.00  0.00     0.160 A 
ATOM     12  C   UNL     1      96.708  80.036  72.340  1.00  0.00     0.050 A 
ATOM     13  C   UNL     1      97.866  79.674  71.653  1.00  0.00     0.157 A 
BRANCH  11  14
ATOM     14  O   UNL     1     100.183  80.053  71.182  1.00  0.00    -0.493 OA
ATOM     15  C   UNL     1     101.260  79.538  71.963  1.00  0.00     0.278 C 
ENDBRANCH  11  14
BRANCH  13  16
ATOM     16  O   UNL     1      97.836  78.615  70.797  1.00  0.00    -0.504 OA
ATOM     17  H   UNL     1      96.941  78.534  70.426  1.00  0.00     0.293 HD
ENDBRANCH  13  16
ENDBRANCH   7   8
ENDBRANCH   5   7
ENDBRANCH   2   3
ENDBRANCH   1   2
BRANCH   1  18
ATOM     18  C   UNL     1      98.219  81.755  79.017  1.00  0.00     0.001 C 
BRANCH  18  19
ATOM     19  C   UNL     1      98.606  80.668  80.026  1.00  0.00     0.000 C 
BRANCH  19  20
ATOM     20  C   UNL     1      97.511  79.618  80.233  1.00  0.00     0.000 C 
BRANCH  20  21
ATOM     21  C   UNL     1      96.798  79.739  81.584  1.00  0.00     0.000 C 
BRANCH  21  22
ATOM     22  C   UNL     1      97.221  80.975  82.385  1.00  0.00     0.003 C 
BRANCH  22  23
ATOM     23  C   UNL     1      96.072  81.973  82.627  1.00  0.00    -0.017 C 
ATOM     24  C   UNL     1      96.646  83.360  82.925  1.00  0.00     0.007 C 
ATOM     25  C   UNL     1      95.152  81.542  83.769  1.00  0.00     0.007 C 
ENDBRANCH  22  23
ENDBRANCH  21  22
ENDBRANCH  20  21
ENDBRANCH  19  20
ENDBRANCH  18  19
ENDBRANCH   1  18
TORSDOF 12
ENDMDL
MODEL 4
REMARK VINA RESULT:    -5.752      5.435      7.852
REMARK INTER + INTRA:         -10.861
REMARK INTER:                 -10.201
REMARK INTRA:                  -0.661
REMARK UNBOUND:                -1.242
REMARK SMILES COc1cc(CNC(=O)CCCCCCCC(C)C)ccc1O
REMARK SMILES IDX 11 1 10 2 8 3 9 4 7 5 6 7 5 8 4 9 20 10 3 11 21 12 22 13
REMARK SMILES IDX 2 14 1 15 23 16 12 18 13 19 14 20 15 21 16 22 17 23 18 24
REMARK SMILES IDX 19 25
REMARK H PARENT 7 6 23 17
REMARK Flexibility Score: inf
ROOT
ATOM      1  C   UNL     1      93.328  98.635  72.864  1.00  0.00     0.010 C 
ENDROOT
BRANCH   1   2
ATOM      2  C   UNL     1      94.581  98.954  73.676  1.00  0.00     0.100 C 
BRANCH   2   3
ATOM      3  C   UNL     1      95.038  97.777  74.522  1.00  0.00     0.220 C 
ATOM      4  O   UNL     1      96.011  97.822  75.268  1.00  0.00    -0.275 OA
ATOM      5  N   UNL     1      94.227  96.668  74.332  1.00  0.00    -0.352 N 
ATOM      6  H   UNL     1      93.447  96.722  73.682  1.00  0.00     0.163 HD
BRANCH   5   7
ATOM      7  C   UNL     1      94.446  95.412  75.011  1.00  0.00     0.151 C 
BRANCH   7   8
ATOM      8  C   UNL     1      93.209  94.927  75.709  1.00  0.00    -0.025 A 
ATOM      9  C   UNL     1      92.862  93.583  75.640  1.00  0.00     0.056 A 
ATOM     10  C   UNL     1      92.422  95.828  76.417  1.00  0.00     0.009 A 
ATOM     11  C   UNL     1      91.712  93.134  76.289  1.00  0.00     0.160 A 
ATOM     12  C   UNL     1      91.271  95.378  77.065  1.00  0.00     0.050 A 
ATOM     13  C   UNL     1      90.916  94.031  77.001  1.00  0.00     0.157 A 
BRANCH  11  14
ATOM     14  O   UNL     1      91.375  91.815  76.218  1.00  0.00    -0.493 OA
ATOM     15  C   UNL     1      91.077  91.291  74.925  1.00  0.00     0.278 C 
ENDBRANCH  11  14
BRANCH  13  16
ATOM     16  O   UNL     1      89.791  93.604  77.639  1.00  0.00    -0.504 OA
ATOM     17  H   UNL     1      89.011  93.937  77.162  1.00  0.00     0.293 HD
ENDBRANCH  13  16
ENDBRANCH   7   8
ENDBRANCH   5   7
ENDBRANCH   2   3
ENDBRANCH   1   2
BRANCH   1  18
ATOM     18  C   UNL     1      92.796  99.829  72.067  1.00  0.00     0.001 C 
BRANCH  18  19
ATOM     19  C   UNL     1      92.667  99.615  70.555  1.00  0.00     0.000 C 
BRANCH  19  20
ATOM     20  C   UNL     1      91.530 100.423  69.924  1.00  0.00     0.000 C 
BRANCH  20  21
ATOM     21  C   UNL     1      90.748  99.645  68.860  1.00  0.00     0.000 C 
BRANCH  21  22
ATOM     22  C   UNL     1      90.275 100.521  67.695  1.00  0.00     0.003 C 
BRANCH  22  23
ATOM     23  C   UNL     1      89.327  99.791  66.723  1.00  0.00    -0.017 C 
ATOM     24  C   UNL     1      87.944 100.446  66.759  1.00  0.00     0.007 C 
ATOM     25  C   UNL     1      89.199  98.300  67.038  1.00  0.00     0.007 C 
ENDBRANCH  22  23
ENDBRANCH  21  22
ENDBRANCH  20  21
ENDBRANCH  19  20
ENDBRANCH  18  19
ENDBRANCH   1  18
TORSDOF 12
ENDMDL
MODEL 5
REMARK VINA RESULT:    -5.730     23.417     27.321
REMARK INTER + INTRA:         -10.823
REMARK INTER:                  -9.340
REMARK INTRA:                  -1.483
REMARK UNBOUND:                -1.242
REMARK SMILES COc1cc(CNC(=O)CCCCCCCC(C)C)ccc1O
REMARK SMILES IDX 11 1 10 2 8 3 9 4 7 5 6 7 5 8 4 9 20 10 3 11 21 12 22 13
REMARK SMILES IDX 2 14 1 15 23 16 12 18 13 19 14 20 15 21 16 22 17 23 18 24
REMARK SMILES IDX 19 25
REMARK H PARENT 7 6 23 17
REMARK Flexibility Score: inf
ROOT
ATOM      1  C   UNL     1      73.613  88.369  68.784  1.00  0.00     0.010 C 
ENDROOT
BRANCH   1   2
ATOM      2  C   UNL     1      73.596  86.842  68.742  1.00  0.00     0.100 C 
BRANCH   2   3
ATOM      3  C   UNL     1      72.269  86.292  68.247  1.00  0.00     0.220 C 
ATOM      4  O   UNL     1      71.389  85.879  68.997  1.00  0.00    -0.275 OA
ATOM      5  N   UNL     1      72.194  86.311  66.863  1.00  0.00    -0.352 N 
ATOM      6  H   UNL     1      72.980  86.662  66.322  1.00  0.00     0.163 HD
BRANCH   5   7
ATOM      7  C   UNL     1      71.041  85.835  66.134  1.00  0.00     0.151 C 
BRANCH   7   8
ATOM      8  C   UNL     1      71.144  84.371  65.815  1.00  0.00    -0.025 A 
ATOM      9  C   UNL     1      72.356  83.844  65.386  1.00  0.00     0.056 A 
ATOM     10  C   UNL     1      70.025  83.559  65.953  1.00  0.00     0.009 A 
ATOM     11  C   UNL     1      72.450  82.485  65.089  1.00  0.00     0.160 A 
ATOM     12  C   UNL     1      70.120  82.198  65.656  1.00  0.00     0.050 A 
ATOM     13  C   UNL     1      71.332  81.661  65.224  1.00  0.00     0.157 A 
BRANCH  11  14
ATOM     14  O   UNL     1      73.640  81.972  64.668  1.00  0.00    -0.493 OA
ATOM     15  C   UNL     1      74.592  81.631  65.675  1.00  0.00     0.278 C 
ENDBRANCH  11  14
BRANCH  13  16
ATOM     16  O   UNL     1      71.413  80.332  64.939  1.00  0.00    -0.504 OA
ATOM     17  H   UNL     1      71.830  80.220  64.067  1.00  0.00     0.293 HD
ENDBRANCH  13  16
ENDBRANCH   7   8
ENDBRANCH   5   7
ENDBRANCH   2   3
ENDBRANCH   1   2
BRANCH   1  18
ATOM     18  C   UNL     1      74.530  88.998  67.732  1.00  0.00     0.001 C 
BRANCH  18  19
ATOM     19  C   UNL     1      75.885  89.497  68.244  1.00  0.00     0.000 C 
BRANCH  19  20
ATOM     20  C   UNL     1      77.076  88.768  67.614  1.00  0.00     0.000 C 
BRANCH  20  21
ATOM     21  C   UNL     1      77.184  87.299  68.035  1.00  0.00     0.000 C 
BRANCH  21  22
ATOM     22  C   UNL     1      77.130  86.324  66.855  1.00  0.00     0.003 C 
BRANCH  22  23
ATOM     23  C   UNL     1      76.635  84.917  67.243  1.00  0.00    -0.017 C 
ATOM     24  C   UNL     1      76.586  84.788  68.768  1.00  0.00     0.007 C 
ATOM     25  C   UNL     1      77.510  83.806  66.661  1.00  0.00     0.007 C 
ENDBRANCH  22  23
ENDBRANCH  21  22
ENDBRANCH  20  21
ENDBRANCH  19  20
ENDBRANCH  18  19
ENDBRANCH   1  18
TORSDOF 12
ENDMDL
MODEL 6
REMARK VINA RESULT:    -5.701     13.060     15.289
REMARK INTER + INTRA:         -10.776
REMARK INTER:                 -10.004
REMARK INTRA:                  -0.772
REMARK UNBOUND:                -1.242
REMARK SMILES COc1cc(CNC(=O)CCCCCCCC(C)C)ccc1O
REMARK SMILES IDX 11 1 10 2 8 3 9 4 7 5 6 7 5 8 4 9 20 10 3 11 21 12 22 13
REMARK SMILES IDX 2 14 1 15 23 16 12 18 13 19 14 20 15 21 16 22 17 23 18 24
REMARK SMILES IDX 19 25
REMARK H PARENT 7 6 23 17
REMARK Flexibility Score: inf
ROOT
ATOM      1  C   UNL     1      96.332  80.126  83.568  1.00  0.00     0.010 C 
ENDROOT
BRANCH   1   2
ATOM      2  C   UNL     1      96.318  79.928  82.053  1.00  0.00     0.100 C 
BRANCH   2   3
ATOM      3  C   UNL     1      97.168  80.957  81.327  1.00  0.00     0.220 C 
ATOM      4  O   UNL     1      97.412  82.071  81.781  1.00  0.00    -0.275 OA
ATOM      5  N   UNL     1      97.613  80.478  80.104  1.00  0.00    -0.352 N 
ATOM      6  H   UNL     1      97.350  79.543  79.805  1.00  0.00     0.163 HD
BRANCH   5   7
ATOM      7  C   UNL     1      98.435  81.260  79.208  1.00  0.00     0.151 C 
BRANCH   7   8
ATOM      8  C   UNL     1      97.634  81.853  78.086  1.00  0.00    -0.025 A 
ATOM      9  C   UNL     1      98.179  81.916  76.810  1.00  0.00     0.056 A 
ATOM     10  C   UNL     1      96.354  82.335  78.335  1.00  0.00     0.009 A 
ATOM     11  C   UNL     1      97.435  82.467  75.767  1.00  0.00     0.160 A 
ATOM     12  C   UNL     1      95.610  82.887  77.292  1.00  0.00     0.050 A 
ATOM     13  C   UNL     1      96.150  82.954  76.008  1.00  0.00     0.157 A 
BRANCH  11  14
ATOM     14  O   UNL     1      97.974  82.527  74.517  1.00  0.00    -0.493 OA
ATOM     15  C   UNL     1      99.251  81.918  74.332  1.00  0.00     0.278 C 
ENDBRANCH  11  14
BRANCH  13  16
ATOM     16  O   UNL     1      95.413  83.494  74.998  1.00  0.00    -0.504 OA
ATOM     17  H   UNL     1      94.936  82.781  74.538  1.00  0.00     0.293 HD
ENDBRANCH  13  16
ENDBRANCH   7   8
ENDBRANCH   5   7
ENDBRANCH   2   3
ENDBRANCH   1   2
BRANCH   1  18
ATOM     18  C   UNL     1      95.179  80.992  84.081  1.00  0.00     0.001 C 
BRANCH  18  19
ATOM     19  C   UNL     1      95.584  82.229  84.889  1.00  0.00     0.000 C 
BRANCH  19  20
ATOM     20  C   UNL     1      95.399  83.540  84.121  1.00  0.00     0.000 C 
BRANCH  20  21
ATOM     21  C   UNL     1      95.128  84.745  85.028  1.00  0.00     0.000 C 
BRANCH  21  22
ATOM     22  C   UNL     1      94.069  84.471  86.101  1.00  0.00     0.003 C 
BRANCH  22  23
ATOM     23  C   UNL     1      94.605  84.597  87.540  1.00  0.00    -0.017 C 
ATOM     24  C   UNL     1      93.495  85.103  88.464  1.00  0.00     0.007 C 
ATOM     25  C   UNL     1      95.816  85.526  87.635  1.00  0.00     0.007 C 
ENDBRANCH  22  23
ENDBRANCH  21  22
ENDBRANCH  20  21
ENDBRANCH  19  20
ENDBRANCH  18  19
ENDBRANCH   1  18
TORSDOF 12
ENDMDL
MODEL 7
REMARK VINA RESULT:    -5.665     14.474     16.226
REMARK INTER + INTRA:         -10.715
REMARK INTER:                  -8.664
REMARK INTRA:                  -2.051
REMARK UNBOUND:                -1.242
REMARK SMILES COc1cc(CNC(=O)CCCCCCCC(C)C)ccc1O
REMARK SMILES IDX 11 1 10 2 8 3 9 4 7 5 6 7 5 8 4 9 20 10 3 11 21 12 22 13
REMARK SMILES IDX 2 14 1 15 23 16 12 18 13 19 14 20 15 21 16 22 17 23 18 24
REMARK SMILES IDX 19 25
REMARK H PARENT 7 6 23 17
REMARK Flexibility Score: inf
ROOT
ATOM      1  C   UNL     1      96.981  81.950  77.794  1.00  0.00     0.010 C 
ENDROOT
BRANCH   1   2
ATOM      2  C   UNL     1      95.845  82.777  77.195  1.00  0.00     0.100 C 
BRANCH   2   3
ATOM      3  C   UNL     1      96.241  83.442  75.887  1.00  0.00     0.220 C 
ATOM      4  O   UNL     1      95.563  84.306  75.339  1.00  0.00    -0.275 OA
ATOM      5  N   UNL     1      97.441  82.942  75.404  1.00  0.00    -0.352 N 
ATOM      6  H   UNL     1      97.927  82.215  75.923  1.00  0.00     0.163 HD
BRANCH   5   7
ATOM      7  C   UNL     1      98.040  83.397  74.170  1.00  0.00     0.151 C 
BRANCH   7   8
ATOM      8  C   UNL     1      98.390  82.255  73.262  1.00  0.00    -0.025 A 
ATOM      9  C   UNL     1      99.564  82.301  72.520  1.00  0.00     0.056 A 
ATOM     10  C   UNL     1      97.536  81.162  73.171  1.00  0.00     0.009 A 
ATOM     11  C   UNL     1      99.889  81.240  71.675  1.00  0.00     0.160 A 
ATOM     12  C   UNL     1      97.861  80.101  72.325  1.00  0.00     0.050 A 
ATOM     13  C   UNL     1      99.037  80.139  71.577  1.00  0.00     0.157 A 
BRANCH  11  14
ATOM     14  O   UNL     1     101.041  81.289  70.949  1.00  0.00    -0.493 OA
ATOM     15  C   UNL     1     102.243  81.581  71.660  1.00  0.00     0.278 C 
ENDBRANCH  11  14
BRANCH  13  16
ATOM     16  O   UNL     1      99.344  79.097  70.756  1.00  0.00    -0.504 OA
ATOM     17  H   UNL     1     100.311  79.028  70.680  1.00  0.00     0.293 HD
ENDBRANCH  13  16
ENDBRANCH   7   8
ENDBRANCH   5   7
ENDBRANCH   2   3
ENDBRANCH   1   2
BRANCH   1  18
ATOM     18  C   UNL     1      97.051  82.026  79.322  1.00  0.00     0.001 C 
BRANCH  18  19
ATOM     19  C   UNL     1      97.849  80.911  80.006  1.00  0.00     0.000 C 
BRANCH  19  20
ATOM     20  C   UNL     1      99.314  80.858  79.566  1.00  0.00     0.000 C 
BRANCH  20  21
ATOM     21  C   UNL     1      99.752  79.476  79.067  1.00  0.00     0.000 C 
BRANCH  21  22
ATOM     22  C   UNL     1     100.617  79.534  77.803  1.00  0.00     0.003 C 
BRANCH  22  23
ATOM     23  C   UNL     1      99.916  80.212  76.610  1.00  0.00    -0.017 C 
ATOM     24  C   UNL     1      98.852  79.274  76.033  1.00  0.00     0.007 C 
ATOM     25  C   UNL     1     100.895  80.618  75.508  1.00  0.00     0.007 C 
ENDBRANCH  22  23
ENDBRANCH  21  22
ENDBRANCH  20  21
ENDBRANCH  19  20
ENDBRANCH  18  19
ENDBRANCH   1  18
TORSDOF 12
ENDMDL
MODEL 8
REMARK VINA RESULT:    -5.335     14.544     16.289
REMARK INTER + INTRA:         -10.163
REMARK INTER:                  -7.922
REMARK INTRA:                  -2.241
REMARK UNBOUND:                -1.242
REMARK SMILES COc1cc(CNC(=O)CCCCCCCC(C)C)ccc1O
REMARK SMILES IDX 11 1 10 2 8 3 9 4 7 5 6 7 5 8 4 9 20 10 3 11 21 12 22 13
REMARK SMILES IDX 2 14 1 15 23 16 12 18 13 19 14 20 15 21 16 22 17 23 18 24
REMARK SMILES IDX 19 25
REMARK H PARENT 7 6 23 17
REMARK Flexibility Score: inf
ROOT
ATOM      1  C   UNL     1      97.316  80.749  77.924  1.00  0.00     0.010 C 
ENDROOT
BRANCH   1   2
ATOM      2  C   UNL     1      96.778  82.156  78.177  1.00  0.00     0.100 C 
BRANCH   2   3
ATOM      3  C   UNL     1      96.384  82.865  76.891  1.00  0.00     0.220 C 
ATOM      4  O   UNL     1      95.307  83.433  76.738  1.00  0.00    -0.275 OA
ATOM      5  N   UNL     1      97.384  82.775  75.934  1.00  0.00    -0.352 N 
ATOM      6  H   UNL     1      98.241  82.272  76.148  1.00  0.00     0.163 HD
BRANCH   5   7
ATOM      7  C   UNL     1      97.261  83.357  74.617  1.00  0.00     0.151 C 
BRANCH   7   8
ATOM      8  C   UNL     1      98.145  82.672  73.616  1.00  0.00    -0.025 A 
ATOM      9  C   UNL     1      99.308  83.297  73.183  1.00  0.00     0.056 A 
ATOM     10  C   UNL     1      97.790  81.418  73.131  1.00  0.00     0.009 A 
ATOM     11  C   UNL     1     100.129  82.660  72.253  1.00  0.00     0.160 A 
ATOM     12  C   UNL     1      98.612  80.782  72.200  1.00  0.00     0.050 A 
ATOM     13  C   UNL     1      99.781  81.402  71.760  1.00  0.00     0.157 A 
BRANCH  11  14
ATOM     14  O   UNL     1     101.268  83.276  71.831  1.00  0.00    -0.493 OA
ATOM     15  C   UNL     1     101.971  84.066  72.789  1.00  0.00     0.278 C 
ENDBRANCH  11  14
BRANCH  13  16
ATOM     16  O   UNL     1     100.574  80.769  70.852  1.00  0.00    -0.504 OA
ATOM     17  H   UNL     1     100.987  79.997  71.276  1.00  0.00     0.293 HD
ENDBRANCH  13  16
ENDBRANCH   7   8
ENDBRANCH   5   7
ENDBRANCH   2   3
ENDBRANCH   1   2
BRANCH   1  18
ATOM     18  C   UNL     1      98.491  80.374  78.831  1.00  0.00     0.001 C 
BRANCH  18  19
ATOM     19  C   UNL     1      99.793  80.002  78.113  1.00  0.00     0.000 C 
BRANCH  19  20
ATOM     20  C   UNL     1      99.592  78.989  76.983  1.00  0.00     0.000 C 
BRANCH  20  21
ATOM     21  C   UNL     1      99.755  79.596  75.585  1.00  0.00     0.000 C 
BRANCH  21  22
ATOM     22  C   UNL     1     100.790  80.724  75.530  1.00  0.00     0.003 C 
BRANCH  22  23
ATOM     23  C   UNL     1     102.074  80.343  74.765  1.00  0.00    -0.017 C 
ATOM     24  C   UNL     1     101.805  79.124  73.879  1.00  0.00     0.007 C 
ATOM     25  C   UNL     1     103.248  80.050  75.701  1.00  0.00     0.007 C 
ENDBRANCH  22  23
ENDBRANCH  21  22
ENDBRANCH  20  21
ENDBRANCH  19  20
ENDBRANCH  18  19
ENDBRANCH   1  18
TORSDOF 12
ENDMDL
MODEL 9
REMARK VINA RESULT:    -5.266     14.030     16.558
REMARK INTER + INTRA:         -10.049
REMARK INTER:                  -9.050
REMARK INTRA:                  -0.999
REMARK UNBOUND:                -1.242
REMARK SMILES COc1cc(CNC(=O)CCCCCCCC(C)C)ccc1O
REMARK SMILES IDX 11 1 10 2 8 3 9 4 7 5 6 7 5 8 4 9 20 10 3 11 21 12 22 13
REMARK SMILES IDX 2 14 1 15 23 16 12 18 13 19 14 20 15 21 16 22 17 23 18 24
REMARK SMILES IDX 19 25
REMARK H PARENT 7 6 23 17
REMARK Flexibility Score: inf
ROOT
ATOM      1  C   UNL     1      93.201  80.777  85.000  1.00  0.00     0.010 C 
ENDROOT
BRANCH   1   2
ATOM      2  C   UNL     1      93.625  82.130  85.570  1.00  0.00     0.100 C 
BRANCH   2   3
ATOM      3  C   UNL     1      94.990  82.568  85.065  1.00  0.00     0.220 C 
ATOM      4  O   UNL     1      95.960  82.730  85.800  1.00  0.00    -0.275 OA
ATOM      5  N   UNL     1      94.987  82.762  83.692  1.00  0.00    -0.352 N 
ATOM      6  H   UNL     1      94.130  82.613  83.165  1.00  0.00     0.163 HD
BRANCH   5   7
ATOM      7  C   UNL     1      96.157  83.189  82.958  1.00  0.00     0.151 C 
BRANCH   7   8
ATOM      8  C   UNL     1      96.588  82.168  81.946  1.00  0.00    -0.025 A 
ATOM      9  C   UNL     1      96.941  82.576  80.665  1.00  0.00     0.056 A 
ATOM     10  C   UNL     1      96.628  80.825  82.299  1.00  0.00     0.009 A 
ATOM     11  C   UNL     1      97.341  81.628  79.724  1.00  0.00     0.160 A 
ATOM     12  C   UNL     1      97.028  79.876  81.357  1.00  0.00     0.050 A 
ATOM     13  C   UNL     1      97.384  80.277  80.070  1.00  0.00     0.157 A 
BRANCH  11  14
ATOM     14  O   UNL     1      97.687  82.032  78.470  1.00  0.00    -0.493 OA
ATOM     15  C   UNL     1      96.626  82.221  77.535  1.00  0.00     0.278 C 
ENDBRANCH  11  14
BRANCH  13  16
ATOM     16  O   UNL     1      97.774  79.341  79.160  1.00  0.00    -0.504 OA
ATOM     17  H   UNL     1      97.563  79.661  78.267  1.00  0.00     0.293 HD
ENDBRANCH  13  16
ENDBRANCH   7   8
ENDBRANCH   5   7
ENDBRANCH   2   3
ENDBRANCH   1   2
BRANCH   1  18
ATOM     18  C   UNL     1      91.719  80.462  85.218  1.00  0.00     0.001 C 
BRANCH  18  19
ATOM     19  C   UNL     1      90.744  81.603  84.910  1.00  0.00     0.000 C 
BRANCH  19  20
ATOM     20  C   UNL     1      89.486  81.142  84.170  1.00  0.00     0.000 C 
BRANCH  20  21
ATOM     21  C   UNL     1      88.787  79.952  84.838  1.00  0.00     0.000 C 
BRANCH  21  22
ATOM     22  C   UNL     1      88.844  78.669  84.003  1.00  0.00     0.003 C 
BRANCH  22  23
ATOM     23  C   UNL     1      89.495  77.483  84.742  1.00  0.00    -0.017 C 
ATOM     24  C   UNL     1      90.789  77.079  84.031  1.00  0.00     0.007 C 
ATOM     25  C   UNL     1      88.564  76.274  84.844  1.00  0.00     0.007 C 
ENDBRANCH  22  23
ENDBRANCH  21  22
ENDBRANCH  20  21
ENDBRANCH  19  20
ENDBRANCH  18  19
ENDBRANCH   1  18
TORSDOF 12
ENDMDL
MODEL 10
REMARK VINA RESULT:    -5.260     18.220     21.620
REMARK INTER + INTRA:         -10.038
REMARK INTER:                  -8.979
REMARK INTRA:                  -1.059
REMARK UNBOUND:                -1.242
REMARK SMILES COc1cc(CNC(=O)CCCCCCCC(C)C)ccc1O
REMARK SMILES IDX 11 1 10 2 8 3 9 4 7 5 6 7 5 8 4 9 20 10 3 11 21 12 22 13
REMARK SMILES IDX 2 14 1 15 23 16 12 18 13 19 14 20 15 21 16 22 17 23 18 24
REMARK SMILES IDX 19 25
REMARK H PARENT 7 6 23 17
REMARK Flexibility Score: inf
ROOT
ATOM      1  C   UNL     1      74.992  90.962  67.937  1.00  0.00     0.010 C 
ENDROOT
BRANCH   1   2
ATOM      2  C   UNL     1      75.184  91.023  69.451  1.00  0.00     0.100 C 
BRANCH   2   3
ATOM      3  C   UNL     1      75.031  92.433  69.998  1.00  0.00     0.220 C 
ATOM      4  O   UNL     1      74.961  92.687  71.197  1.00  0.00    -0.275 OA
ATOM      5  N   UNL     1      74.973  93.371  68.978  1.00  0.00    -0.352 N 
ATOM      6  H   UNL     1      75.028  93.065  68.010  1.00  0.00     0.163 HD
BRANCH   5   7
ATOM      7  C   UNL     1      74.820  94.787  69.223  1.00  0.00     0.151 C 
BRANCH   7   8
ATOM      8  C   UNL     1      76.145  95.479  69.356  1.00  0.00    -0.025 A 
ATOM      9  C   UNL     1      76.590  95.878  70.611  1.00  0.00     0.056 A 
ATOM     10  C   UNL     1      76.913  95.716  68.222  1.00  0.00     0.009 A 
ATOM     11  C   UNL     1      77.822  96.521  70.734  1.00  0.00     0.160 A 
ATOM     12  C   UNL     1      78.145  96.361  68.346  1.00  0.00     0.050 A 
ATOM     13  C   UNL     1      78.599  96.763  69.601  1.00  0.00     0.157 A 
BRANCH  11  14
ATOM     14  O   UNL     1      78.255  96.911  71.966  1.00  0.00    -0.493 OA
ATOM     15  C   UNL     1      78.505  95.880  72.920  1.00  0.00     0.278 C 
ENDBRANCH  11  14
BRANCH  13  16
ATOM     16  O   UNL     1      79.803  97.391  69.709  1.00  0.00    -0.504 OA
ATOM     17  H   UNL     1      80.266  97.055  70.495  1.00  0.00     0.293 HD
ENDBRANCH  13  16
ENDBRANCH   7   8
ENDBRANCH   5   7
ENDBRANCH   2   3
ENDBRANCH   1   2
BRANCH   1  18
ATOM     18  C   UNL     1      75.553  89.687  67.302  1.00  0.00     0.001 C 
BRANCH  18  19
ATOM     19  C   UNL     1      76.452  88.835  68.204  1.00  0.00     0.000 C 
BRANCH  19  20
ATOM     20  C   UNL     1      77.494  88.025  67.428  1.00  0.00     0.000 C 
BRANCH  20  21
ATOM     21  C   UNL     1      76.903  86.820  66.689  1.00  0.00     0.000 C 
BRANCH  21  22
ATOM     22  C   UNL     1      77.362  85.474  67.259  1.00  0.00     0.003 C 
BRANCH  22  23
ATOM     23  C   UNL     1      76.243  84.697  67.980  1.00  0.00    -0.017 C 
ATOM     24  C   UNL     1      74.877  85.223  67.530  1.00  0.00     0.007 C 
ATOM     25  C   UNL     1      76.352  84.788  69.502  1.00  0.00     0.007 C 
ENDBRANCH  22  23
ENDBRANCH  21  22
ENDBRANCH  20  21
ENDBRANCH  19  20
ENDBRANCH  18  19
ENDBRANCH   1  18
TORSDOF 12
ENDMDL
