MODEL 1
REMARK VINA RESULT:    -7.866      0.000      0.000
REMARK INTER + INTRA:         -13.877
REMARK INTER:                 -13.384
REMARK INTRA:                  -0.493
REMARK UNBOUND:                -0.493
REMARK SMILES C=C(C)[C@]12C[C@@H](C)[C@@]34O[C@](Cc5ccccc5)(O[C@@H]1[C@@H]3C=C(COC(=O)Cc1ccc(O)cc1)C[C@]1(O)C(=O)C(C)=C[C@@H]41)O2
REMARK SMILES IDX 23 1 22 2 21 3 20 4 9 5 8 6 10 7 6 8 18 10 44 11 19 12 5 13
REMARK SMILES IDX 7 14 4 15 11 16 12 17 13 18 17 19 14 20 16 21 15 22 2 23
REMARK SMILES IDX 3 24 1 25 35 26 36 27 43 28 38 29 42 30 39 32 40 33 41 34
REMARK SMILES IDX 37 35 24 37 25 38 26 39 27 40 28 41 29 42 34 43 30 44 33 45
REMARK SMILES IDX 31 46 32 47
REMARK H PARENT 37 36 32 48
REMARK Flexibility Score: 90.00
ROOT
ATOM      1  C   UNL     1      95.473  98.122  74.101  1.00  0.00     0.264 C 
ENDROOT
BRANCH   1   2
ATOM      2  C   UNL     1      94.854  99.477  73.850  1.00  0.00    -0.033 C 
ATOM      3  C   UNL     1      94.190  99.695  72.696  1.00  0.00    -0.015 C 
BRANCH   3   4
ATOM      4  C   UNL     1      93.552 100.974  72.177  1.00  0.00     0.078 C 
ATOM      5  O   UNL     1      91.182 100.934  72.883  1.00  0.00    -0.319 OA
ATOM      6  C   UNL     1      92.438 101.662  73.049  1.00  0.00     0.095 CG0
ATOM      7  C   UNL     1      90.875 100.537  71.532  1.00  0.00     0.289 C 
ATOM      8  C   UNL     1      92.259 103.143  72.516  1.00  0.00     0.023 C 
ATOM      9  G   UNL     1      92.764 101.532  74.565  1.00  0.00     0.000 G0
ATOM     10  O   UNL     1      91.910  99.726  70.983  1.00  0.00    -0.320 OA
ATOM     11  O   UNL     1      90.752 101.652  70.654  1.00  0.00    -0.313 OA
ATOM     12  C   UNL     1      92.927 100.721  70.782  1.00  0.00     0.170 C 
ATOM     13  C   UNL     1      92.502 103.231  70.978  1.00  0.00     0.049 C 
ATOM     14  C   UNL     1      90.917 103.812  72.859  1.00  0.00     0.011 C 
ATOM     15  C   UNL     1      92.113 101.933  70.269  1.00  0.00     0.122 C 
BRANCH   7  16
ATOM     16  C   UNL     1      89.572  99.762  71.550  1.00  0.00     0.135 C 
BRANCH  16  17
ATOM     17  C   UNL     1      89.319  99.050  70.245  1.00  0.00    -0.040 A 
ATOM     18  C   UNL     1      88.692  99.721  69.195  1.00  0.00     0.004 A 
ATOM     19  C   UNL     1      89.711  97.721  70.089  1.00  0.00     0.004 A 
ATOM     20  C   UNL     1      88.458  99.062  67.987  1.00  0.00     0.000 A 
ATOM     21  C   UNL     1      89.477  97.063  68.881  1.00  0.00     0.000 A 
ATOM     22  C   UNL     1      88.851  97.733  67.831  1.00  0.00     0.000 A 
ENDBRANCH  16  17
ENDBRANCH   7  16
BRANCH  15  23
ATOM     23  C   UNL     1      92.166 102.055  68.780  1.00  0.00    -0.046 C 
ATOM     24  C   UNL     1      93.519 102.308  68.184  1.00  0.00     0.042 C 
ATOM     25  C   UNL     1      91.066 101.945  68.021  1.00  0.00     0.010 C 
ENDBRANCH  15  23
ENDBRANCH   3   4
BRANCH   2  26
ATOM     26  C   UNL     1      95.070 100.451  74.993  1.00  0.00     0.078 C 
BRANCH  26  27
ATOM     27  C   UNL     1      94.259 101.745  74.970  1.00  0.00     0.140 C 
ATOM     28  C   UNL     1      92.788 101.506  74.569  1.00  0.00     0.086 CG0
ATOM     29  C   UNL     1      94.124 102.370  76.343  1.00  0.00     0.190 C 
ATOM     30  C   UNL     1      92.015 102.307  75.579  1.00  0.00    -0.010 C 
ATOM     31  G   UNL     1      92.456 101.660  73.056  1.00  0.00     0.000 G0
ATOM     32  O   UNL     1      95.041 102.563  77.126  1.00  0.00    -0.291 OA
ATOM     33  C   UNL     1      92.731 102.782  76.603  1.00  0.00    -0.008 C 
ATOM     34  C   UNL     1      92.298 103.528  77.802  1.00  0.00     0.048 C 
BRANCH  27  35
ATOM     35  O   UNL     1      94.905 102.749  74.204  1.00  0.00    -0.381 OA
ATOM     36  H   UNL     1      95.527 103.223  74.782  1.00  0.00     0.212 HD
ENDBRANCH  27  35
ENDBRANCH  26  27
ENDBRANCH   2  26
ENDBRANCH   1   2
BRANCH   1  37
ATOM     37  O   UNL     1      95.484  97.863  75.489  1.00  0.00    -0.461 OA
BRANCH  37  38
ATOM     38  C   UNL     1      94.729  96.795  75.914  1.00  0.00     0.310 C 
ATOM     39  O   UNL     1      94.912  95.631  75.586  1.00  0.00    -0.252 OA
BRANCH  38  40
ATOM     40  C   UNL     1      93.643  97.282  76.844  1.00  0.00     0.158 C 
BRANCH  40  41
ATOM     41  C   UNL     1      92.828  96.162  77.434  1.00  0.00    -0.037 A 
ATOM     42  C   UNL     1      91.466  96.064  77.147  1.00  0.00     0.008 A 
ATOM     43  C   UNL     1      93.433  95.222  78.267  1.00  0.00     0.008 A 
ATOM     44  C   UNL     1      90.710  95.027  77.695  1.00  0.00     0.046 A 
ATOM     45  C   UNL     1      92.677  94.184  78.814  1.00  0.00     0.046 A 
ATOM     46  C   UNL     1      91.316  94.087  78.528  1.00  0.00     0.115 A 
BRANCH  46  47
ATOM     47  O   UNL     1      90.579  93.076  79.062  1.00  0.00    -0.508 OA
ATOM     48  H   UNL     1      90.339  92.452  78.355  1.00  0.00     0.293 HD
ENDBRANCH  46  47
ENDBRANCH  40  41
ENDBRANCH  38  40
ENDBRANCH  37  38
ENDBRANCH   1  37
TORSDOF 10
ENDMDL
MODEL 2
REMARK VINA RESULT:    -7.037     18.939     23.300
REMARK INTER + INTRA:         -12.466
REMARK INTER:                 -12.187
REMARK INTRA:                  -0.280
REMARK UNBOUND:                -0.493
REMARK SMILES C=C(C)[C@]12C[C@@H](C)[C@@]34O[C@](Cc5ccccc5)(O[C@@H]1[C@@H]3C=C(COC(=O)Cc1ccc(O)cc1)C[C@]1(O)C(=O)C(C)=C[C@@H]41)O2
REMARK SMILES IDX 23 1 22 2 21 3 20 4 9 5 8 6 10 7 6 8 18 10 44 11 19 12 5 13
REMARK SMILES IDX 7 14 4 15 11 16 12 17 13 18 17 19 14 20 16 21 15 22 2 23
REMARK SMILES IDX 3 24 1 25 35 26 36 27 43 28 38 29 42 30 39 32 40 33 41 34
REMARK SMILES IDX 37 35 24 37 25 38 26 39 27 40 28 41 29 42 34 43 30 44 33 45
REMARK SMILES IDX 31 46 32 47
REMARK H PARENT 37 36 32 48
REMARK Flexibility Score: 90.00
ROOT
ATOM      1  C   UNL     1      97.036  82.096  86.006  1.00  0.00     0.264 C 
ENDROOT
BRANCH   1   2
ATOM      2  C   UNL     1      95.865  82.845  86.601  1.00  0.00    -0.033 C 
ATOM      3  C   UNL     1      94.773  82.156  86.993  1.00  0.00    -0.015 C 
BRANCH   3   4
ATOM      4  C   UNL     1      93.453  82.672  87.543  1.00  0.00     0.078 C 
ATOM      5  O   UNL     1      93.669  82.724  90.006  1.00  0.00    -0.319 OA
ATOM      6  C   UNL     1      93.480  83.573  88.832  1.00  0.00     0.095 CG0
ATOM      7  C   UNL     1      92.901  81.505  90.013  1.00  0.00     0.289 C 
ATOM      8  C   UNL     1      92.078  84.305  88.935  1.00  0.00     0.023 C 
ATOM      9  G   UNL     1      94.723  84.510  88.826  1.00  0.00     0.000 G0
ATOM     10  O   UNL     1      93.181  80.710  88.865  1.00  0.00    -0.320 OA
ATOM     11  O   UNL     1      91.497  81.748  89.980  1.00  0.00    -0.313 OA
ATOM     12  C   UNL     1      92.513  81.482  87.855  1.00  0.00     0.170 C 
ATOM     13  C   UNL     1      90.926  83.413  88.379  1.00  0.00     0.049 C 
ATOM     14  C   UNL     1      91.699  84.813  90.336  1.00  0.00     0.011 C 
ATOM     15  C   UNL     1      91.216  81.925  88.576  1.00  0.00     0.122 C 
BRANCH   7  16
ATOM     16  C   UNL     1      93.250  80.732  91.270  1.00  0.00     0.135 C 
BRANCH  16  17
ATOM     17  C   UNL     1      92.064  80.586  92.192  1.00  0.00    -0.040 A 
ATOM     18  C   UNL     1      91.771  81.587  93.116  1.00  0.00     0.004 A 
ATOM     19  C   UNL     1      91.262  79.448  92.118  1.00  0.00     0.004 A 
ATOM     20  C   UNL     1      90.674  81.451  93.968  1.00  0.00     0.000 A 
ATOM     21  C   UNL     1      90.165  79.312  92.970  1.00  0.00     0.000 A 
ATOM     22  C   UNL     1      89.872  80.313  93.894  1.00  0.00     0.000 A 
ENDBRANCH  16  17
ENDBRANCH   7  16
BRANCH  15  23
ATOM     23  C   UNL     1      90.051  81.060  88.218  1.00  0.00    -0.046 C 
ATOM     24  C   UNL     1      89.048  81.659  87.277  1.00  0.00     0.042 C 
ATOM     25  C   UNL     1      89.910  79.820  88.709  1.00  0.00     0.010 C 
ENDBRANCH  15  23
ENDBRANCH   3   4
BRANCH   2  26
ATOM     26  C   UNL     1      96.096  84.342  86.684  1.00  0.00     0.078 C 
BRANCH  26  27
ATOM     27  C   UNL     1      95.068  85.164  87.459  1.00  0.00     0.140 C 
ATOM     28  C   UNL     1      94.714  84.525  88.818  1.00  0.00     0.086 CG0
ATOM     29  C   UNL     1      95.600  86.522  87.867  1.00  0.00     0.190 C 
ATOM     30  C   UNL     1      94.767  85.684  89.774  1.00  0.00    -0.010 C 
ATOM     31  G   UNL     1      93.477  83.581  88.830  1.00  0.00     0.000 G0
ATOM     32  O   UNL     1      96.172  87.309  87.128  1.00  0.00    -0.291 OA
ATOM     33  C   UNL     1      95.285  86.812  89.279  1.00  0.00    -0.008 C 
ATOM     34  C   UNL     1      95.563  88.103  89.941  1.00  0.00     0.048 C 
BRANCH  27  35
ATOM     35  O   UNL     1      93.938  85.470  86.659  1.00  0.00    -0.381 OA
ATOM     36  H   UNL     1      94.226  86.044  85.929  1.00  0.00     0.212 HD
ENDBRANCH  27  35
ENDBRANCH  26  27
ENDBRANCH   2  26
ENDBRANCH   1   2
BRANCH   1  37
ATOM     37  O   UNL     1      97.099  82.354  84.620  1.00  0.00    -0.461 OA
BRANCH  37  38
ATOM     38  C   UNL     1      98.018  81.620  83.906  1.00  0.00     0.310 C 
ATOM     39  O   UNL     1      98.087  80.399  83.897  1.00  0.00    -0.252 OA
BRANCH  38  40
ATOM     40  C   UNL     1      98.924  82.555  83.140  1.00  0.00     0.158 C 
BRANCH  40  41
ATOM     41  C   UNL     1      98.678  82.523  81.654  1.00  0.00    -0.037 A 
ATOM     42  C   UNL     1      99.324  81.575  80.860  1.00  0.00     0.008 A 
ATOM     43  C   UNL     1      97.806  83.442  81.071  1.00  0.00     0.008 A 
ATOM     44  C   UNL     1      99.098  81.546  79.484  1.00  0.00     0.046 A 
ATOM     45  C   UNL     1      97.579  83.413  79.694  1.00  0.00     0.046 A 
ATOM     46  C   UNL     1      98.225  82.466  78.901  1.00  0.00     0.115 A 
BRANCH  46  47
ATOM     47  O   UNL     1      98.005  82.438  77.558  1.00  0.00    -0.508 OA
ATOM     48  H   UNL     1      97.545  81.611  77.331  1.00  0.00     0.293 HD
ENDBRANCH  46  47
ENDBRANCH  40  41
ENDBRANCH  38  40
ENDBRANCH  37  38
ENDBRANCH   1  37
TORSDOF 10
ENDMDL
MODEL 3
REMARK VINA RESULT:    -7.011      1.693      2.458
REMARK INTER + INTRA:         -12.423
REMARK INTER:                 -12.038
REMARK INTRA:                  -0.385
REMARK UNBOUND:                -0.493
REMARK SMILES C=C(C)[C@]12C[C@@H](C)[C@@]34O[C@](Cc5ccccc5)(O[C@@H]1[C@@H]3C=C(COC(=O)Cc1ccc(O)cc1)C[C@]1(O)C(=O)C(C)=C[C@@H]41)O2
REMARK SMILES IDX 23 1 22 2 21 3 20 4 9 5 8 6 10 7 6 8 18 10 44 11 19 12 5 13
REMARK SMILES IDX 7 14 4 15 11 16 12 17 13 18 17 19 14 20 16 21 15 22 2 23
REMARK SMILES IDX 3 24 1 25 35 26 36 27 43 28 38 29 42 30 39 32 40 33 41 34
REMARK SMILES IDX 37 35 24 37 25 38 26 39 27 40 28 41 29 42 34 43 30 44 33 45
REMARK SMILES IDX 31 46 32 47
REMARK H PARENT 37 36 32 48
REMARK Flexibility Score: 90.00
ROOT
ATOM      1  C   UNL     1      93.521 100.090  75.525  1.00  0.00     0.264 C 
ENDROOT
BRANCH   1   2
ATOM      2  C   UNL     1      92.927 101.225  74.724  1.00  0.00    -0.033 C 
ATOM      3  C   UNL     1      92.636 101.031  73.421  1.00  0.00    -0.015 C 
BRANCH   3   4
ATOM      4  C   UNL     1      92.111 102.019  72.392  1.00  0.00     0.078 C 
ATOM      5  O   UNL     1      89.643 101.865  72.439  1.00  0.00    -0.319 OA
ATOM      6  C   UNL     1      90.762 102.770  72.695  1.00  0.00     0.095 CG0
ATOM      7  C   UNL     1      89.755 101.071  71.242  1.00  0.00     0.289 C 
ATOM      8  C   UNL     1      90.670 104.008  71.711  1.00  0.00     0.023 C 
ATOM      9  G   UNL     1      90.647 103.110  74.210  1.00  0.00     0.000 G0
ATOM     10  O   UNL     1      90.943 100.285  71.252  1.00  0.00    -0.320 OA
ATOM     11  O   UNL     1      89.833 101.873  70.066  1.00  0.00    -0.313 OA
ATOM     12  C   UNL     1      91.925 101.309  71.029  1.00  0.00     0.170 C 
ATOM     13  C   UNL     1      91.338 103.696  70.337  1.00  0.00     0.049 C 
ATOM     14  C   UNL     1      89.255 104.562  71.476  1.00  0.00     0.011 C 
ATOM     15  C   UNL     1      91.233 102.213  69.979  1.00  0.00     0.122 C 
BRANCH   7  16
ATOM     16  C   UNL     1      88.541 100.167  71.157  1.00  0.00     0.135 C 
BRANCH  16  17
ATOM     17  C   UNL     1      88.789  98.968  70.276  1.00  0.00    -0.040 A 
ATOM     18  C   UNL     1      89.360  97.814  70.813  1.00  0.00     0.004 A 
ATOM     19  C   UNL     1      88.447  99.014  68.925  1.00  0.00     0.004 A 
ATOM     20  C   UNL     1      89.588  96.705  69.998  1.00  0.00     0.000 A 
ATOM     21  C   UNL     1      88.676  97.905  68.110  1.00  0.00     0.000 A 
ATOM     22  C   UNL     1      89.246  96.751  68.647  1.00  0.00     0.000 A 
ENDBRANCH  16  17
ENDBRANCH   7  16
BRANCH  15  23
ATOM     23  C   UNL     1      91.702 101.922  68.591  1.00  0.00    -0.046 C 
ATOM     24  C   UNL     1      90.640 101.561  67.595  1.00  0.00     0.042 C 
ATOM     25  C   UNL     1      92.999 101.981  68.254  1.00  0.00     0.010 C 
ENDBRANCH  15  23
ENDBRANCH   3   4
BRANCH   2  26
ATOM     26  C   UNL     1      92.722 102.487  75.541  1.00  0.00     0.078 C 
BRANCH  26  27
ATOM     27  C   UNL     1      91.952 103.629  74.881  1.00  0.00     0.140 C 
ATOM     28  C   UNL     1      90.654 103.143  74.204  1.00  0.00     0.086 CG0
ATOM     29  C   UNL     1      91.437 104.638  75.885  1.00  0.00     0.190 C 
ATOM     30  C   UNL     1      89.628 104.147  74.651  1.00  0.00    -0.010 C 
ATOM     31  G   UNL     1      90.761 102.783  72.693  1.00  0.00     0.000 G0
ATOM     32  O   UNL     1      92.097 105.150  76.777  1.00  0.00    -0.291 OA
ATOM     33  C   UNL     1      90.028 104.982  75.615  1.00  0.00    -0.008 C 
ATOM     34  C   UNL     1      89.276 106.025  76.342  1.00  0.00     0.048 C 
BRANCH  27  35
ATOM     35  O   UNL     1      92.789 104.395  74.030  1.00  0.00    -0.381 OA
ATOM     36  H   UNL     1      92.304 105.193  73.761  1.00  0.00     0.212 HD
ENDBRANCH  27  35
ENDBRANCH  26  27
ENDBRANCH   2  26
ENDBRANCH   1   2
BRANCH   1  37
ATOM     37  O   UNL     1      94.689  99.626  74.881  1.00  0.00    -0.461 OA
BRANCH  37  38
ATOM     38  C   UNL     1      95.656  99.083  75.695  1.00  0.00     0.310 C 
ATOM     39  O   UNL     1      96.347  99.714  76.482  1.00  0.00    -0.252 OA
BRANCH  38  40
ATOM     40  C   UNL     1      95.730  97.592  75.464  1.00  0.00     0.158 C 
BRANCH  40  41
ATOM     41  C   UNL     1      94.763  96.816  76.320  1.00  0.00    -0.037 A 
ATOM     42  C   UNL     1      93.577  96.331  75.769  1.00  0.00     0.008 A 
ATOM     43  C   UNL     1      95.053  96.583  77.664  1.00  0.00     0.008 A 
ATOM     44  C   UNL     1      92.681  95.614  76.561  1.00  0.00     0.046 A 
ATOM     45  C   UNL     1      94.157  95.865  78.457  1.00  0.00     0.046 A 
ATOM     46  C   UNL     1      92.971  95.380  77.906  1.00  0.00     0.115 A 
BRANCH  46  47
ATOM     47  O   UNL     1      92.097  94.681  78.679  1.00  0.00    -0.508 OA
ATOM     48  H   UNL     1      92.175  93.734  78.467  1.00  0.00     0.293 HD
ENDBRANCH  46  47
ENDBRANCH  40  41
ENDBRANCH  38  40
ENDBRANCH  37  38
ENDBRANCH   1  37
TORSDOF 10
ENDMDL
MODEL 4
REMARK VINA RESULT:    -6.976     17.859     22.042
REMARK INTER + INTRA:         -12.363
REMARK INTER:                 -11.597
REMARK INTRA:                  -0.766
REMARK UNBOUND:                -0.493
REMARK SMILES C=C(C)[C@]12C[C@@H](C)[C@@]34O[C@](Cc5ccccc5)(O[C@@H]1[C@@H]3C=C(COC(=O)Cc1ccc(O)cc1)C[C@]1(O)C(=O)C(C)=C[C@@H]41)O2
REMARK SMILES IDX 23 1 22 2 21 3 20 4 9 5 8 6 10 7 6 8 18 10 44 11 19 12 5 13
REMARK SMILES IDX 7 14 4 15 11 16 12 17 13 18 17 19 14 20 16 21 15 22 2 23
REMARK SMILES IDX 3 24 1 25 35 26 36 27 43 28 38 29 42 30 39 32 40 33 41 34
REMARK SMILES IDX 37 35 24 37 25 38 26 39 27 40 28 41 29 42 34 43 30 44 33 45
REMARK SMILES IDX 31 46 32 47
REMARK H PARENT 37 36 32 48
REMARK Flexibility Score: 90.00
ROOT
ATOM      1  C   UNL     1      77.572  86.963  69.183  1.00  0.00     0.264 C 
ENDROOT
BRANCH   1   2
ATOM      2  C   UNL     1      76.282  87.694  68.891  1.00  0.00    -0.033 C 
ATOM      3  C   UNL     1      75.711  88.438  69.862  1.00  0.00    -0.015 C 
BRANCH   3   4
ATOM      4  C   UNL     1      74.395  89.198  69.848  1.00  0.00     0.078 C 
ATOM      5  O   UNL     1      74.909  91.516  69.156  1.00  0.00    -0.319 OA
ATOM      6  C   UNL     1      74.185  90.311  68.756  1.00  0.00     0.095 CG0
ATOM      7  C   UNL     1      74.799  91.865  70.549  1.00  0.00     0.289 C 
ATOM      8  C   UNL     1      72.634  90.629  68.688  1.00  0.00     0.023 C 
ATOM      9  G   UNL     1      74.841  89.894  67.408  1.00  0.00     0.000 G0
ATOM     10  O   UNL     1      75.249  90.803  71.386  1.00  0.00    -0.320 OA
ATOM     11  O   UNL     1      73.452  92.120  70.941  1.00  0.00    -0.313 OA
ATOM     12  C   UNL     1      74.164  89.876  71.220  1.00  0.00     0.170 C 
ATOM     13  C   UNL     1      71.957  90.478  70.084  1.00  0.00     0.049 C 
ATOM     14  C   UNL     1      72.266  91.997  68.088  1.00  0.00     0.011 C 
ATOM     15  C   UNL     1      72.926  90.806  71.222  1.00  0.00     0.122 C 
BRANCH   7  16
ATOM     16  C   UNL     1      75.639  93.103  70.796  1.00  0.00     0.135 C 
BRANCH  16  17
ATOM     17  C   UNL     1      76.314  93.070  72.144  1.00  0.00    -0.040 A 
ATOM     18  C   UNL     1      75.618  93.473  73.283  1.00  0.00     0.004 A 
ATOM     19  C   UNL     1      77.635  92.637  72.251  1.00  0.00     0.004 A 
ATOM     20  C   UNL     1      76.243  93.442  74.531  1.00  0.00     0.000 A 
ATOM     21  C   UNL     1      78.260  92.606  73.498  1.00  0.00     0.000 A 
ATOM     22  C   UNL     1      77.564  93.009  74.637  1.00  0.00     0.000 A 
ENDBRANCH  16  17
ENDBRANCH   7  16
BRANCH  15  23
ATOM     23  C   UNL     1      72.254  90.844  72.555  1.00  0.00    -0.046 C 
ATOM     24  C   UNL     1      71.374  92.031  72.819  1.00  0.00     0.042 C 
ATOM     25  C   UNL     1      72.427  89.874  73.465  1.00  0.00     0.010 C 
ENDBRANCH  15  23
ENDBRANCH   3   4
BRANCH   2  26
ATOM     26  C   UNL     1      75.787  87.486  67.472  1.00  0.00     0.078 C 
BRANCH  26  27
ATOM     27  C   UNL     1      74.655  88.390  66.988  1.00  0.00     0.140 C 
ATOM     28  C   UNL     1      74.858  89.859  67.413  1.00  0.00     0.086 CG0
ATOM     29  C   UNL     1      74.600  88.493  65.479  1.00  0.00     0.190 C 
ATOM     30  C   UNL     1      74.562  90.631  66.157  1.00  0.00    -0.010 C 
ATOM     31  G   UNL     1      74.183  90.286  68.749  1.00  0.00     0.000 G0
ATOM     32  O   UNL     1      74.631  87.549  64.703  1.00  0.00    -0.291 OA
ATOM     33  C   UNL     1      74.440  89.895  65.049  1.00  0.00    -0.008 C 
ATOM     34  C   UNL     1      74.234  90.313  63.647  1.00  0.00     0.048 C 
BRANCH  27  35
ATOM     35  O   UNL     1      73.385  87.863  67.338  1.00  0.00    -0.381 OA
ATOM     36  H   UNL     1      73.161  87.159  66.706  1.00  0.00     0.212 HD
ENDBRANCH  27  35
ENDBRANCH  26  27
ENDBRANCH   2  26
ENDBRANCH   1   2
BRANCH   1  37
ATOM     37  O   UNL     1      78.063  86.389  67.991  1.00  0.00    -0.461 OA
BRANCH  37  38
ATOM     38  C   UNL     1      78.118  85.015  67.956  1.00  0.00     0.310 C 
ATOM     39  O   UNL     1      78.267  84.293  68.932  1.00  0.00    -0.252 OA
BRANCH  38  40
ATOM     40  C   UNL     1      77.968  84.541  66.530  1.00  0.00     0.158 C 
BRANCH  40  41
ATOM     41  C   UNL     1      76.838  83.561  66.353  1.00  0.00    -0.037 A 
ATOM     42  C   UNL     1      77.077  82.318  65.766  1.00  0.00     0.008 A 
ATOM     43  C   UNL     1      75.551  83.895  66.774  1.00  0.00     0.008 A 
ATOM     44  C   UNL     1      76.030  81.410  65.601  1.00  0.00     0.046 A 
ATOM     45  C   UNL     1      74.504  82.988  66.610  1.00  0.00     0.046 A 
ATOM     46  C   UNL     1      74.744  81.746  66.023  1.00  0.00     0.115 A 
BRANCH  46  47
ATOM     47  O   UNL     1      73.723  80.861  65.862  1.00  0.00    -0.508 OA
ATOM     48  H   UNL     1      74.020  80.139  65.281  1.00  0.00     0.293 HD
ENDBRANCH  46  47
ENDBRANCH  40  41
ENDBRANCH  38  40
ENDBRANCH  37  38
ENDBRANCH   1  37
TORSDOF 10
ENDMDL
MODEL 5
REMARK VINA RESULT:    -6.960     19.976     23.384
REMARK INTER + INTRA:         -12.336
REMARK INTER:                 -11.153
REMARK INTRA:                  -1.182
REMARK UNBOUND:                -0.493
REMARK SMILES C=C(C)[C@]12C[C@@H](C)[C@@]34O[C@](Cc5ccccc5)(O[C@@H]1[C@@H]3C=C(COC(=O)Cc1ccc(O)cc1)C[C@]1(O)C(=O)C(C)=C[C@@H]41)O2
REMARK SMILES IDX 23 1 22 2 21 3 20 4 9 5 8 6 10 7 6 8 18 10 44 11 19 12 5 13
REMARK SMILES IDX 7 14 4 15 11 16 12 17 13 18 17 19 14 20 16 21 15 22 2 23
REMARK SMILES IDX 3 24 1 25 35 26 36 27 43 28 38 29 42 30 39 32 40 33 41 34
REMARK SMILES IDX 37 35 24 37 25 38 26 39 27 40 28 41 29 42 34 43 30 44 33 45
REMARK SMILES IDX 31 46 32 47
REMARK H PARENT 37 36 32 48
REMARK Flexibility Score: 90.00
ROOT
ATOM      1  C   UNL     1      95.123  85.840  87.306  1.00  0.00     0.264 C 
ENDROOT
BRANCH   1   2
ATOM      2  C   UNL     1      93.969  85.201  88.044  1.00  0.00    -0.033 C 
ATOM      3  C   UNL     1      93.284  84.199  87.455  1.00  0.00    -0.015 C 
BRANCH   3   4
ATOM      4  C   UNL     1      92.054  83.451  87.946  1.00  0.00     0.078 C 
ATOM      5  O   UNL     1      92.861  81.442  89.142  1.00  0.00    -0.319 OA
ATOM      6  C   UNL     1      92.137  82.699  89.325  1.00  0.00     0.095 CG0
ATOM      7  C   UNL     1      92.520  80.703  87.953  1.00  0.00     0.289 C 
ATOM      8  C   UNL     1      90.655  82.385  89.789  1.00  0.00     0.023 C 
ATOM      9  G   UNL     1      93.000  83.500  90.342  1.00  0.00     0.000 G0
ATOM     10  O   UNL     1      92.724  81.485  86.780  1.00  0.00    -0.320 OA
ATOM     11  O   UNL     1      91.147  80.321  87.928  1.00  0.00    -0.313 OA
ATOM     12  C   UNL     1      91.623  82.400  86.894  1.00  0.00     0.170 C 
ATOM     13  C   UNL     1      89.719  82.113  88.571  1.00  0.00     0.049 C 
ATOM     14  C   UNL     1      90.509  81.243  90.809  1.00  0.00     0.011 C 
ATOM     15  C   UNL     1      90.480  81.488  87.401  1.00  0.00     0.122 C 
BRANCH   7  16
ATOM     16  C   UNL     1      93.389  79.462  87.901  1.00  0.00     0.135 C 
BRANCH  16  17
ATOM     17  C   UNL     1      94.854  79.801  87.774  1.00  0.00    -0.040 A 
ATOM     18  C   UNL     1      95.486  80.544  88.770  1.00  0.00     0.004 A 
ATOM     19  C   UNL     1      95.574  79.371  86.661  1.00  0.00     0.004 A 
ATOM     20  C   UNL     1      96.841  80.858  88.654  1.00  0.00     0.000 A 
ATOM     21  C   UNL     1      96.929  79.684  86.544  1.00  0.00     0.000 A 
ATOM     22  C   UNL     1      97.561  80.427  87.540  1.00  0.00     0.000 A 
ENDBRANCH  16  17
ENDBRANCH   7  16
BRANCH  15  23
ATOM     23  C   UNL     1      89.575  81.053  86.295  1.00  0.00    -0.046 C 
ATOM     24  C   UNL     1      90.131  80.030  85.349  1.00  0.00     0.042 C 
ATOM     25  C   UNL     1      88.337  81.548  86.155  1.00  0.00     0.010 C 
ENDBRANCH  15  23
ENDBRANCH   3   4
BRANCH   2  26
ATOM     26  C   UNL     1      93.734  85.802  89.417  1.00  0.00     0.078 C 
BRANCH  26  27
ATOM     27  C   UNL     1      92.787  85.054  90.354  1.00  0.00     0.140 C 
ATOM     28  C   UNL     1      93.015  83.528  90.318  1.00  0.00     0.086 CG0
ATOM     29  C   UNL     1      93.031  85.385  91.811  1.00  0.00     0.190 C 
ATOM     30  C   UNL     1      93.024  83.142  91.771  1.00  0.00    -0.010 C 
ATOM     31  G   UNL     1      92.130  82.726  89.320  1.00  0.00     0.000 G0
ATOM     32  O   UNL     1      93.139  86.511  92.272  1.00  0.00    -0.291 OA
ATOM     33  C   UNL     1      93.062  84.161  92.634  1.00  0.00    -0.008 C 
ATOM     34  C   UNL     1      93.161  84.156  94.108  1.00  0.00     0.048 C 
BRANCH  27  35
ATOM     35  O   UNL     1      91.438  85.436  90.141  1.00  0.00    -0.381 OA
ATOM     36  H   UNL     1      91.010  85.546  91.007  1.00  0.00     0.212 HD
ENDBRANCH  27  35
ENDBRANCH  26  27
ENDBRANCH   2  26
ENDBRANCH   1   2
BRANCH   1  37
ATOM     37  O   UNL     1      95.854  84.840  86.630  1.00  0.00    -0.461 OA
BRANCH  37  38
ATOM     38  C   UNL     1      96.685  85.273  85.621  1.00  0.00     0.310 C 
ATOM     39  O   UNL     1      97.057  86.427  85.464  1.00  0.00    -0.252 OA
BRANCH  38  40
ATOM     40  C   UNL     1      97.063  84.104  84.744  1.00  0.00     0.158 C 
BRANCH  40  41
ATOM     41  C   UNL     1      98.295  83.382  85.225  1.00  0.00    -0.037 A 
ATOM     42  C   UNL     1      98.905  83.764  86.420  1.00  0.00     0.008 A 
ATOM     43  C   UNL     1      98.827  82.334  84.475  1.00  0.00     0.008 A 
ATOM     44  C   UNL     1     100.047  83.097  86.865  1.00  0.00     0.046 A 
ATOM     45  C   UNL     1      99.968  81.665  84.920  1.00  0.00     0.046 A 
ATOM     46  C   UNL     1     100.578  82.047  86.114  1.00  0.00     0.115 A 
BRANCH  46  47
ATOM     47  O   UNL     1     101.692  81.397  86.548  1.00  0.00    -0.508 OA
ATOM     48  H   UNL     1     101.428  80.547  86.943  1.00  0.00     0.293 HD
ENDBRANCH  46  47
ENDBRANCH  40  41
ENDBRANCH  38  40
ENDBRANCH  37  38
ENDBRANCH   1  37
TORSDOF 10
ENDMDL
MODEL 6
REMARK VINA RESULT:    -6.899     19.219     23.095
REMARK INTER + INTRA:         -12.231
REMARK INTER:                 -12.010
REMARK INTRA:                  -0.222
REMARK UNBOUND:                -0.493
REMARK SMILES C=C(C)[C@]12C[C@@H](C)[C@@]34O[C@](Cc5ccccc5)(O[C@@H]1[C@@H]3C=C(COC(=O)Cc1ccc(O)cc1)C[C@]1(O)C(=O)C(C)=C[C@@H]41)O2
REMARK SMILES IDX 23 1 22 2 21 3 20 4 9 5 8 6 10 7 6 8 18 10 44 11 19 12 5 13
REMARK SMILES IDX 7 14 4 15 11 16 12 17 13 18 17 19 14 20 16 21 15 22 2 23
REMARK SMILES IDX 3 24 1 25 35 26 36 27 43 28 38 29 42 30 39 32 40 33 41 34
REMARK SMILES IDX 37 35 24 37 25 38 26 39 27 40 28 41 29 42 34 43 30 44 33 45
REMARK SMILES IDX 31 46 32 47
REMARK H PARENT 37 36 32 48
REMARK Flexibility Score: 90.00
ROOT
ATOM      1  C   UNL     1      98.086  82.603  86.407  1.00  0.00     0.264 C 
ENDROOT
BRANCH   1   2
ATOM      2  C   UNL     1      96.702  83.116  86.734  1.00  0.00    -0.033 C 
ATOM      3  C   UNL     1      95.653  82.270  86.670  1.00  0.00    -0.015 C 
BRANCH   3   4
ATOM      4  C   UNL     1      94.173  82.550  86.874  1.00  0.00     0.078 C 
ATOM      5  O   UNL     1      93.686  82.148  89.265  1.00  0.00    -0.319 OA
ATOM      6  C   UNL     1      93.712  83.187  88.236  1.00  0.00     0.095 CG0
ATOM      7  C   UNL     1      93.127  80.887  88.850  1.00  0.00     0.289 C 
ATOM      8  C   UNL     1      92.248  83.756  88.029  1.00  0.00     0.023 C 
ATOM      9  G   UNL     1      94.762  84.214  88.750  1.00  0.00     0.000 G0
ATOM     10  O   UNL     1      93.825  80.354  87.728  1.00  0.00    -0.320 OA
ATOM     11  O   UNL     1      91.767  81.005  88.438  1.00  0.00    -0.313 OA
ATOM     12  C   UNL     1      93.361  81.243  86.700  1.00  0.00     0.170 C 
ATOM     13  C   UNL     1      91.434  82.888  87.021  1.00  0.00     0.049 C 
ATOM     14  C   UNL     1      91.426  83.950  89.314  1.00  0.00     0.011 C 
ATOM     15  C   UNL     1      91.866  81.421  87.060  1.00  0.00     0.122 C 
BRANCH   7  16
ATOM     16  C   UNL     1      93.218  79.922  90.016  1.00  0.00     0.135 C 
BRANCH  16  17
ATOM     17  C   UNL     1      92.230  78.788  89.892  1.00  0.00    -0.040 A 
ATOM     18  C   UNL     1      92.361  77.859  88.860  1.00  0.00     0.004 A 
ATOM     19  C   UNL     1      91.187  78.670  90.809  1.00  0.00     0.004 A 
ATOM     20  C   UNL     1      91.448  76.810  88.746  1.00  0.00     0.000 A 
ATOM     21  C   UNL     1      90.273  77.622  90.694  1.00  0.00     0.000 A 
ATOM     22  C   UNL     1      90.404  76.692  89.663  1.00  0.00     0.000 A 
ENDBRANCH  16  17
ENDBRANCH   7  16
BRANCH  15  23
ATOM     23  C   UNL     1      90.982  80.541  86.238  1.00  0.00    -0.046 C 
ATOM     24  C   UNL     1      89.537  80.937  86.165  1.00  0.00     0.042 C 
ATOM     25  C   UNL     1      91.452  79.458  85.602  1.00  0.00     0.010 C 
ENDBRANCH  15  23
ENDBRANCH   3   4
BRANCH   2  26
ATOM     26  C   UNL     1      96.686  84.584  87.115  1.00  0.00     0.078 C 
BRANCH  26  27
ATOM     27  C   UNL     1      95.376  85.149  87.662  1.00  0.00     0.140 C 
ATOM     28  C   UNL     1      94.752  84.236  88.738  1.00  0.00     0.086 CG0
ATOM     29  C   UNL     1      95.574  86.449  88.413  1.00  0.00     0.190 C 
ATOM     30  C   UNL     1      94.369  85.195  89.831  1.00  0.00    -0.010 C 
ATOM     31  G   UNL     1      93.708  83.197  88.234  1.00  0.00     0.000 G0
ATOM     32  O   UNL     1      96.211  87.410  88.009  1.00  0.00    -0.291 OA
ATOM     33  C   UNL     1      94.839  86.438  89.693  1.00  0.00    -0.008 C 
ATOM     34  C   UNL     1      94.734  87.602  90.597  1.00  0.00     0.048 C 
BRANCH  27  35
ATOM     35  O   UNL     1      94.483  85.495  86.617  1.00  0.00    -0.381 OA
ATOM     36  H   UNL     1      94.959  85.425  85.772  1.00  0.00     0.212 HD
ENDBRANCH  27  35
ENDBRANCH  26  27
ENDBRANCH   2  26
ENDBRANCH   1   2
BRANCH   1  37
ATOM     37  O   UNL     1      98.474  83.085  85.138  1.00  0.00    -0.461 OA
BRANCH  37  38
ATOM     38  C   UNL     1      99.255  82.242  84.382  1.00  0.00     0.310 C 
ATOM     39  O   UNL     1     100.439  82.011  84.585  1.00  0.00    -0.252 OA
BRANCH  38  40
ATOM     40  C   UNL     1      98.426  81.650  83.267  1.00  0.00     0.158 C 
BRANCH  40  41
ATOM     41  C   UNL     1      98.848  82.130  81.902  1.00  0.00    -0.037 A 
ATOM     42  C   UNL     1     100.078  81.737  81.375  1.00  0.00     0.008 A 
ATOM     43  C   UNL     1      98.009  82.966  81.166  1.00  0.00     0.008 A 
ATOM     44  C   UNL     1     100.470  82.182  80.112  1.00  0.00     0.046 A 
ATOM     45  C   UNL     1      98.400  83.410  79.903  1.00  0.00     0.046 A 
ATOM     46  C   UNL     1      99.630  83.018  79.376  1.00  0.00     0.115 A 
BRANCH  46  47
ATOM     47  O   UNL     1     100.012  83.452  78.144  1.00  0.00    -0.508 OA
ATOM     48  H   UNL     1     100.957  83.256  78.019  1.00  0.00     0.293 HD
ENDBRANCH  46  47
ENDBRANCH  40  41
ENDBRANCH  38  40
ENDBRANCH  37  38
ENDBRANCH   1  37
TORSDOF 10
ENDMDL
MODEL 7
REMARK VINA RESULT:    -6.890     38.094     42.994
REMARK INTER + INTRA:         -12.217
REMARK INTER:                 -11.507
REMARK INTRA:                  -0.710
REMARK UNBOUND:                -0.493
REMARK SMILES C=C(C)[C@]12C[C@@H](C)[C@@]34O[C@](Cc5ccccc5)(O[C@@H]1[C@@H]3C=C(COC(=O)Cc1ccc(O)cc1)C[C@]1(O)C(=O)C(C)=C[C@@H]41)O2
REMARK SMILES IDX 23 1 22 2 21 3 20 4 9 5 8 6 10 7 6 8 18 10 44 11 19 12 5 13
REMARK SMILES IDX 7 14 4 15 11 16 12 17 13 18 17 19 14 20 16 21 15 22 2 23
REMARK SMILES IDX 3 24 1 25 35 26 36 27 43 28 38 29 42 30 39 32 40 33 41 34
REMARK SMILES IDX 37 35 24 37 25 38 26 39 27 40 28 41 29 42 34 43 30 44 33 45
REMARK SMILES IDX 31 46 32 47
REMARK H PARENT 37 36 32 48
REMARK Flexibility Score: 90.00
ROOT
ATOM      1  C   UNL     1      69.553  66.347  81.358  1.00  0.00     0.264 C 
ENDROOT
BRANCH   1   2
ATOM      2  C   UNL     1      68.103  65.958  81.183  1.00  0.00    -0.033 C 
ATOM      3  C   UNL     1      67.160  66.580  81.920  1.00  0.00    -0.015 C 
BRANCH   3   4
ATOM      4  C   UNL     1      65.663  66.324  81.987  1.00  0.00     0.078 C 
ATOM      5  O   UNL     1      64.601  67.826  80.334  1.00  0.00    -0.319 OA
ATOM      6  C   UNL     1      64.828  66.419  80.657  1.00  0.00     0.095 CG0
ATOM      7  C   UNL     1      64.247  68.665  81.451  1.00  0.00     0.289 C 
ATOM      8  C   UNL     1      63.435  65.710  80.914  1.00  0.00     0.023 C 
ATOM      9  G   UNL     1      65.644  65.870  79.450  1.00  0.00     0.000 G0
ATOM     10  O   UNL     1      65.243  68.618  82.469  1.00  0.00    -0.320 OA
ATOM     11  O   UNL     1      63.036  68.250  82.078  1.00  0.00    -0.313 OA
ATOM     12  C   UNL     1      65.006  67.302  82.992  1.00  0.00     0.170 C 
ATOM     13  C   UNL     1      62.964  65.892  82.390  1.00  0.00     0.049 C 
ATOM     14  C   UNL     1      62.298  66.120  79.962  1.00  0.00     0.011 C 
ATOM     15  C   UNL     1      63.461  67.211  82.984  1.00  0.00     0.122 C 
BRANCH   7  16
ATOM     16  C   UNL     1      64.094  70.086  80.947  1.00  0.00     0.135 C 
BRANCH  16  17
ATOM     17  C   UNL     1      62.954  70.807  81.623  1.00  0.00    -0.040 A 
ATOM     18  C   UNL     1      61.725  70.929  80.977  1.00  0.00     0.004 A 
ATOM     19  C   UNL     1      63.132  71.351  82.895  1.00  0.00     0.004 A 
ATOM     20  C   UNL     1      60.671  71.595  81.603  1.00  0.00     0.000 A 
ATOM     21  C   UNL     1      62.077  72.017  83.521  1.00  0.00     0.000 A 
ATOM     22  C   UNL     1      60.848  72.139  82.875  1.00  0.00     0.000 A 
ENDBRANCH  16  17
ENDBRANCH   7  16
BRANCH  15  23
ATOM     23  C   UNL     1      62.875  67.492  84.329  1.00  0.00    -0.046 C 
ATOM     24  C   UNL     1      63.610  66.918  85.504  1.00  0.00     0.042 C 
ATOM     25  C   UNL     1      61.755  68.215  84.478  1.00  0.00     0.010 C 
ENDBRANCH  15  23
ENDBRANCH   3   4
BRANCH   2  26
ATOM     26  C   UNL     1      67.900  64.872  80.143  1.00  0.00     0.078 C 
BRANCH  26  27
ATOM     27  C   UNL     1      66.466  64.590  79.701  1.00  0.00     0.140 C 
ATOM     28  C   UNL     1      65.662  65.885  79.463  1.00  0.00     0.086 CG0
ATOM     29  C   UNL     1      66.399  63.913  78.347  1.00  0.00     0.190 C 
ATOM     30  C   UNL     1      64.973  65.634  78.151  1.00  0.00    -0.010 C 
ATOM     31  G   UNL     1      64.834  66.409  80.673  1.00  0.00     0.000 G0
ATOM     32  O   UNL     1      67.053  62.938  78.011  1.00  0.00    -0.291 OA
ATOM     33  C   UNL     1      65.384  64.550  77.487  1.00  0.00    -0.008 C 
ATOM     34  C   UNL     1      64.995  64.048  76.153  1.00  0.00     0.048 C 
BRANCH  27  35
ATOM     35  O   UNL     1      65.826  63.670  80.570  1.00  0.00    -0.381 OA
ATOM     36  H   UNL     1      65.252  63.094  80.038  1.00  0.00     0.212 HD
ENDBRANCH  27  35
ENDBRANCH  26  27
ENDBRANCH   2  26
ENDBRANCH   1   2
BRANCH   1  37
ATOM     37  O   UNL     1      70.223  65.336  82.081  1.00  0.00    -0.461 OA
BRANCH  37  38
ATOM     38  C   UNL     1      70.388  65.561  83.429  1.00  0.00     0.310 C 
ATOM     39  O   UNL     1      70.632  64.698  84.260  1.00  0.00    -0.252 OA
BRANCH  38  40
ATOM     40  C   UNL     1      70.220  67.033  83.718  1.00  0.00     0.158 C 
BRANCH  40  41
ATOM     41  C   UNL     1      71.501  67.697  84.152  1.00  0.00    -0.037 A 
ATOM     42  C   UNL     1      72.729  67.191  83.723  1.00  0.00     0.008 A 
ATOM     43  C   UNL     1      71.461  68.816  84.982  1.00  0.00     0.008 A 
ATOM     44  C   UNL     1      73.915  67.805  84.125  1.00  0.00     0.046 A 
ATOM     45  C   UNL     1      72.647  69.431  85.384  1.00  0.00     0.046 A 
ATOM     46  C   UNL     1      73.874  68.925  84.956  1.00  0.00     0.115 A 
BRANCH  46  47
ATOM     47  O   UNL     1      75.032  69.523  85.348  1.00  0.00    -0.508 OA
ATOM     48  H   UNL     1      75.204  69.297  86.279  1.00  0.00     0.293 HD
ENDBRANCH  46  47
ENDBRANCH  40  41
ENDBRANCH  38  40
ENDBRANCH  37  38
ENDBRANCH   1  37
TORSDOF 10
ENDMDL
MODEL 8
REMARK VINA RESULT:    -6.743     20.630     23.365
REMARK INTER + INTRA:         -11.966
REMARK INTER:                 -12.045
REMARK INTRA:                   0.079
REMARK UNBOUND:                -0.493
REMARK SMILES C=C(C)[C@]12C[C@@H](C)[C@@]34O[C@](Cc5ccccc5)(O[C@@H]1[C@@H]3C=C(COC(=O)Cc1ccc(O)cc1)C[C@]1(O)C(=O)C(C)=C[C@@H]41)O2
REMARK SMILES IDX 23 1 22 2 21 3 20 4 9 5 8 6 10 7 6 8 18 10 44 11 19 12 5 13
REMARK SMILES IDX 7 14 4 15 11 16 12 17 13 18 17 19 14 20 16 21 15 22 2 23
REMARK SMILES IDX 3 24 1 25 35 26 36 27 43 28 38 29 42 30 39 32 40 33 41 34
REMARK SMILES IDX 37 35 24 37 25 38 26 39 27 40 28 41 29 42 34 43 30 44 33 45
REMARK SMILES IDX 31 46 32 47
REMARK H PARENT 37 36 32 48
REMARK Flexibility Score: 90.00
ROOT
ATOM      1  C   UNL     1      96.341  85.258  87.193  1.00  0.00     0.264 C 
ENDROOT
BRANCH   1   2
ATOM      2  C   UNL     1      95.060  84.916  87.920  1.00  0.00    -0.033 C 
ATOM      3  C   UNL     1      94.243  83.974  87.405  1.00  0.00    -0.015 C 
BRANCH   3   4
ATOM      4  C   UNL     1      92.881  83.507  87.894  1.00  0.00     0.078 C 
ATOM      5  O   UNL     1      93.275  81.576  89.388  1.00  0.00    -0.319 OA
ATOM      6  C   UNL     1      92.763  82.945  89.358  1.00  0.00     0.095 CG0
ATOM      7  C   UNL     1      92.876  80.746  88.280  1.00  0.00     0.289 C 
ATOM      8  C   UNL     1      91.228  82.939  89.748  1.00  0.00     0.023 C 
ATOM      9  G   UNL     1      93.696  83.729  90.328  1.00  0.00     0.000 G0
ATOM     10  O   UNL     1      93.270  81.319  87.036  1.00  0.00    -0.320 OA
ATOM     11  O   UNL     1      91.461  80.589  88.202  1.00  0.00    -0.313 OA
ATOM     12  C   UNL     1      92.334  82.405  86.953  1.00  0.00     0.170 C 
ATOM     13  C   UNL     1      90.324  82.657  88.509  1.00  0.00     0.049 C 
ATOM     14  C   UNL     1      90.839  81.984  90.890  1.00  0.00     0.011 C 
ATOM     15  C   UNL     1      91.029  81.765  87.486  1.00  0.00     0.122 C 
BRANCH   7  16
ATOM     16  C   UNL     1      93.526  79.387  88.448  1.00  0.00     0.135 C 
BRANCH  16  17
ATOM     17  C   UNL     1      92.823  78.320  87.645  1.00  0.00    -0.040 A 
ATOM     18  C   UNL     1      93.129  78.146  86.296  1.00  0.00     0.004 A 
ATOM     19  C   UNL     1      91.866  77.509  88.254  1.00  0.00     0.004 A 
ATOM     20  C   UNL     1      92.479  77.159  85.555  1.00  0.00     0.000 A 
ATOM     21  C   UNL     1      91.216  76.522  87.512  1.00  0.00     0.000 A 
ATOM     22  C   UNL     1      91.522  76.348  86.163  1.00  0.00     0.000 A 
ENDBRANCH  16  17
ENDBRANCH   7  16
BRANCH  15  23
ATOM     23  C   UNL     1      90.122  81.334  86.379  1.00  0.00    -0.046 C 
ATOM     24  C   UNL     1      88.814  82.061  86.274  1.00  0.00     0.042 C 
ATOM     25  C   UNL     1      90.458  80.353  85.528  1.00  0.00     0.010 C 
ENDBRANCH  15  23
ENDBRANCH   3   4
BRANCH   2  26
ATOM     26  C   UNL     1      94.867  85.714  89.195  1.00  0.00     0.078 C 
BRANCH  26  27
ATOM     27  C   UNL     1      93.743  85.273  90.131  1.00  0.00     0.140 C 
ATOM     28  C   UNL     1      93.710  83.742  90.322  1.00  0.00     0.086 CG0
ATOM     29  C   UNL     1      93.938  85.773  91.547  1.00  0.00     0.190 C 
ATOM     30  C   UNL     1      93.553  83.578  91.808  1.00  0.00    -0.010 C 
ATOM     31  G   UNL     1      92.773  82.952  89.363  1.00  0.00     0.000 G0
ATOM     32  O   UNL     1      94.205  86.923  91.861  1.00  0.00    -0.291 OA
ATOM     33  C   UNL     1      93.703  84.695  92.526  1.00  0.00    -0.008 C 
ATOM     34  C   UNL     1      93.697  84.893  93.991  1.00  0.00     0.048 C 
BRANCH  27  35
ATOM     35  O   UNL     1      92.498  85.829  89.744  1.00  0.00    -0.381 OA
ATOM     36  H   UNL     1      92.243  86.497  90.403  1.00  0.00     0.212 HD
ENDBRANCH  27  35
ENDBRANCH  26  27
ENDBRANCH   2  26
ENDBRANCH   1   2
BRANCH   1  37
ATOM     37  O   UNL     1      96.971  84.068  86.773  1.00  0.00    -0.461 OA
BRANCH  37  38
ATOM     38  C   UNL     1      96.714  83.667  85.482  1.00  0.00     0.310 C 
ATOM     39  O   UNL     1      96.344  84.404  84.578  1.00  0.00    -0.252 OA
BRANCH  38  40
ATOM     40  C   UNL     1      96.960  82.183  85.356  1.00  0.00     0.158 C 
BRANCH  40  41
ATOM     41  C   UNL     1      97.791  81.825  84.151  1.00  0.00    -0.037 A 
ATOM     42  C   UNL     1      98.153  82.812  83.235  1.00  0.00     0.008 A 
ATOM     43  C   UNL     1      98.198  80.506  83.951  1.00  0.00     0.008 A 
ATOM     44  C   UNL     1      98.922  82.481  82.119  1.00  0.00     0.046 A 
ATOM     45  C   UNL     1      98.967  80.174  82.836  1.00  0.00     0.046 A 
ATOM     46  C   UNL     1      99.329  81.161  81.920  1.00  0.00     0.115 A 
BRANCH  46  47
ATOM     47  O   UNL     1     100.078  80.838  80.831  1.00  0.00    -0.508 OA
ATOM     48  H   UNL     1      99.819  81.410  80.088  1.00  0.00     0.293 HD
ENDBRANCH  46  47
ENDBRANCH  40  41
ENDBRANCH  38  40
ENDBRANCH  37  38
ENDBRANCH   1  37
TORSDOF 10
ENDMDL
MODEL 9
REMARK VINA RESULT:    -6.700     28.219     32.013
REMARK INTER + INTRA:         -11.894
REMARK INTER:                 -11.369
REMARK INTRA:                  -0.524
REMARK UNBOUND:                -0.493
REMARK SMILES C=C(C)[C@]12C[C@@H](C)[C@@]34O[C@](Cc5ccccc5)(O[C@@H]1[C@@H]3C=C(COC(=O)Cc1ccc(O)cc1)C[C@]1(O)C(=O)C(C)=C[C@@H]41)O2
REMARK SMILES IDX 23 1 22 2 21 3 20 4 9 5 8 6 10 7 6 8 18 10 44 11 19 12 5 13
REMARK SMILES IDX 7 14 4 15 11 16 12 17 13 18 17 19 14 20 16 21 15 22 2 23
REMARK SMILES IDX 3 24 1 25 35 26 36 27 43 28 38 29 42 30 39 32 40 33 41 34
REMARK SMILES IDX 37 35 24 37 25 38 26 39 27 40 28 41 29 42 34 43 30 44 33 45
REMARK SMILES IDX 31 46 32 47
REMARK H PARENT 37 36 32 48
REMARK Flexibility Score: 90.00
ROOT
ATOM      1  C   UNL     1      67.791  87.463  71.387  1.00  0.00     0.264 C 
ENDROOT
BRANCH   1   2
ATOM      2  C   UNL     1      67.305  86.107  70.931  1.00  0.00    -0.033 C 
ATOM      3  C   UNL     1      66.135  85.632  71.407  1.00  0.00    -0.015 C 
BRANCH   3   4
ATOM      4  C   UNL     1      65.471  84.286  71.168  1.00  0.00     0.078 C 
ATOM      5  O   UNL     1      63.963  84.560  69.227  1.00  0.00    -0.319 OA
ATOM      6  C   UNL     1      65.159  83.857  69.687  1.00  0.00     0.095 CG0
ATOM      7  C   UNL     1      62.887  84.632  70.182  1.00  0.00     0.289 C 
ATOM      8  C   UNL     1      64.882  82.297  69.688  1.00  0.00     0.023 C 
ATOM      9  G   UNL     1      66.285  84.336  68.724  1.00  0.00     0.000 G0
ATOM     10  O   UNL     1      63.308  85.258  71.391  1.00  0.00    -0.320 OA
ATOM     11  O   UNL     1      62.411  83.343  70.561  1.00  0.00    -0.313 OA
ATOM     12  C   UNL     1      64.130  84.216  71.940  1.00  0.00     0.170 C 
ATOM     13  C   UNL     1      64.198  81.838  71.011  1.00  0.00     0.049 C 
ATOM     14  C   UNL     1      64.078  81.768  68.488  1.00  0.00     0.011 C 
ATOM     15  C   UNL     1      63.320  82.939  71.607  1.00  0.00     0.122 C 
BRANCH   7  16
ATOM     16  C   UNL     1      61.754  85.426  69.561  1.00  0.00     0.135 C 
BRANCH  16  17
ATOM     17  C   UNL     1      60.581  85.567  70.499  1.00  0.00    -0.040 A 
ATOM     18  C   UNL     1      59.503  84.688  70.406  1.00  0.00     0.004 A 
ATOM     19  C   UNL     1      60.576  86.579  71.460  1.00  0.00     0.004 A 
ATOM     20  C   UNL     1      58.419  84.819  71.275  1.00  0.00     0.000 A 
ATOM     21  C   UNL     1      59.492  86.710  72.328  1.00  0.00     0.000 A 
ATOM     22  C   UNL     1      58.414  85.830  72.235  1.00  0.00     0.000 A 
ENDBRANCH  16  17
ENDBRANCH   7  16
BRANCH  15  23
ATOM     23  C   UNL     1      62.515  82.465  72.772  1.00  0.00    -0.046 C 
ATOM     24  C   UNL     1      61.441  83.393  73.257  1.00  0.00     0.042 C 
ATOM     25  C   UNL     1      62.739  81.276  73.352  1.00  0.00     0.010 C 
ENDBRANCH  15  23
ENDBRANCH   3   4
BRANCH   2  26
ATOM     26  C   UNL     1      68.243  85.438  69.945  1.00  0.00     0.078 C 
BRANCH  26  27
ATOM     27  C   UNL     1      67.743  84.169  69.256  1.00  0.00     0.140 C 
ATOM     28  C   UNL     1      66.304  84.324  68.722  1.00  0.00     0.086 CG0
ATOM     29  C   UNL     1      68.523  83.846  67.999  1.00  0.00     0.190 C 
ATOM     30  C   UNL     1      66.383  83.753  67.333  1.00  0.00    -0.010 C 
ATOM     31  G   UNL     1      65.166  83.857  69.676  1.00  0.00     0.000 G0
ATOM     32  O   UNL     1      69.742  83.819  67.909  1.00  0.00    -0.291 OA
ATOM     33  C   UNL     1      67.617  83.501  66.888  1.00  0.00    -0.008 C 
ATOM     34  C   UNL     1      68.072  83.023  65.566  1.00  0.00     0.048 C 
BRANCH  27  35
ATOM     35  O   UNL     1      67.931  83.027  70.074  1.00  0.00    -0.381 OA
ATOM     36  H   UNL     1      67.433  82.287  69.687  1.00  0.00     0.212 HD
ENDBRANCH  27  35
ENDBRANCH  26  27
ENDBRANCH   2  26
ENDBRANCH   1   2
BRANCH   1  37
ATOM     37  O   UNL     1      68.334  87.351  72.686  1.00  0.00    -0.461 OA
BRANCH  37  38
ATOM     38  C   UNL     1      67.428  87.214  73.713  1.00  0.00     0.310 C 
ATOM     39  O   UNL     1      66.628  88.071  74.062  1.00  0.00    -0.252 OA
BRANCH  38  40
ATOM     40  C   UNL     1      67.578  85.848  74.337  1.00  0.00     0.158 C 
BRANCH  40  41
ATOM     41  C   UNL     1      66.521  85.555  75.370  1.00  0.00    -0.037 A 
ATOM     42  C   UNL     1      66.865  85.487  76.720  1.00  0.00     0.008 A 
ATOM     43  C   UNL     1      65.198  85.351  74.977  1.00  0.00     0.008 A 
ATOM     44  C   UNL     1      65.887  85.215  77.677  1.00  0.00     0.046 A 
ATOM     45  C   UNL     1      64.220  85.080  75.934  1.00  0.00     0.046 A 
ATOM     46  C   UNL     1      64.564  85.011  77.283  1.00  0.00     0.115 A 
BRANCH  46  47
ATOM     47  O   UNL     1      63.610  84.745  78.217  1.00  0.00    -0.508 OA
ATOM     48  H   UNL     1      62.785  84.500  77.764  1.00  0.00     0.293 HD
ENDBRANCH  46  47
ENDBRANCH  40  41
ENDBRANCH  38  40
ENDBRANCH  37  38
ENDBRANCH   1  37
TORSDOF 10
ENDMDL
MODEL 10
REMARK VINA RESULT:    -6.654     28.360     31.970
REMARK INTER + INTRA:         -11.816
REMARK INTER:                  -9.987
REMARK INTRA:                  -1.828
REMARK UNBOUND:                -0.493
REMARK SMILES C=C(C)[C@]12C[C@@H](C)[C@@]34O[C@](Cc5ccccc5)(O[C@@H]1[C@@H]3C=C(COC(=O)Cc1ccc(O)cc1)C[C@]1(O)C(=O)C(C)=C[C@@H]41)O2
REMARK SMILES IDX 23 1 22 2 21 3 20 4 9 5 8 6 10 7 6 8 18 10 44 11 19 12 5 13
REMARK SMILES IDX 7 14 4 15 11 16 12 17 13 18 17 19 14 20 16 21 15 22 2 23
REMARK SMILES IDX 3 24 1 25 35 26 36 27 43 28 38 29 42 30 39 32 40 33 41 34
REMARK SMILES IDX 37 35 24 37 25 38 26 39 27 40 28 41 29 42 34 43 30 44 33 45
REMARK SMILES IDX 31 46 32 47
REMARK H PARENT 37 36 32 48
REMARK Flexibility Score: 90.00
ROOT
ATOM      1  C   UNL     1      67.443  87.198  72.072  1.00  0.00     0.264 C 
ENDROOT
BRANCH   1   2
ATOM      2  C   UNL     1      66.390  86.885  73.110  1.00  0.00    -0.033 C 
ATOM      3  C   UNL     1      65.169  86.477  72.707  1.00  0.00    -0.015 C 
BRANCH   3   4
ATOM      4  C   UNL     1      63.930  86.178  73.535  1.00  0.00     0.078 C 
ATOM      5  O   UNL     1      63.975  83.760  74.052  1.00  0.00    -0.319 OA
ATOM      6  C   UNL     1      64.029  85.086  74.663  1.00  0.00     0.095 CG0
ATOM      7  C   UNL     1      62.999  83.605  73.004  1.00  0.00     0.289 C 
ATOM      8  C   UNL     1      62.782  85.272  75.622  1.00  0.00     0.023 C 
ATOM      9  G   UNL     1      65.421  85.136  75.360  1.00  0.00     0.000 G0
ATOM     10  O   UNL     1      63.209  84.547  71.956  1.00  0.00    -0.320 OA
ATOM     11  O   UNL     1      61.669  83.832  73.465  1.00  0.00    -0.313 OA
ATOM     12  C   UNL     1      62.767  85.749  72.607  1.00  0.00     0.170 C 
ATOM     13  C   UNL     1      61.528  85.769  74.840  1.00  0.00     0.049 C 
ATOM     14  C   UNL     1      62.403  84.039  76.461  1.00  0.00     0.011 C 
ATOM     15  C   UNL     1      61.526  85.266  73.395  1.00  0.00     0.122 C 
BRANCH   7  16
ATOM     16  C   UNL     1      63.109  82.195  72.457  1.00  0.00     0.135 C 
BRANCH  16  17
ATOM     17  C   UNL     1      63.254  82.180  70.956  1.00  0.00    -0.040 A 
ATOM     18  C   UNL     1      62.302  82.812  70.157  1.00  0.00     0.004 A 
ATOM     19  C   UNL     1      64.341  81.534  70.368  1.00  0.00     0.004 A 
ATOM     20  C   UNL     1      62.436  82.798  68.768  1.00  0.00     0.000 A 
ATOM     21  C   UNL     1      64.475  81.520  68.979  1.00  0.00     0.000 A 
ATOM     22  C   UNL     1      63.523  82.152  68.180  1.00  0.00     0.000 A 
ENDBRANCH  16  17
ENDBRANCH   7  16
BRANCH  15  23
ATOM     23  C   UNL     1      60.251  85.577  72.681  1.00  0.00    -0.046 C 
ATOM     24  C   UNL     1      59.498  84.403  72.129  1.00  0.00     0.042 C 
ATOM     25  C   UNL     1      59.804  86.834  72.542  1.00  0.00     0.010 C 
ENDBRANCH  15  23
ENDBRANCH   3   4
BRANCH   2  26
ATOM     26  C   UNL     1      66.881  87.075  74.533  1.00  0.00     0.078 C 
BRANCH  26  27
ATOM     27  C   UNL     1      65.983  86.559  75.655  1.00  0.00     0.140 C 
ATOM     28  C   UNL     1      65.422  85.154  75.355  1.00  0.00     0.086 CG0
ATOM     29  C   UNL     1      66.740  86.338  76.948  1.00  0.00     0.190 C 
ATOM     30  C   UNL     1      65.635  84.409  76.644  1.00  0.00    -0.010 C 
ATOM     31  G   UNL     1      64.028  85.105  74.666  1.00  0.00     0.000 G0
ATOM     32  O   UNL     1      67.502  87.139  77.468  1.00  0.00    -0.291 OA
ATOM     33  C   UNL     1      66.394  85.035  77.548  1.00  0.00    -0.008 C 
ATOM     34  C   UNL     1      66.873  84.578  78.869  1.00  0.00     0.048 C 
BRANCH  27  35
ATOM     35  O   UNL     1      64.990  87.509  76.003  1.00  0.00    -0.381 OA
ATOM     36  H   UNL     1      65.017  88.233  75.355  1.00  0.00     0.212 HD
ENDBRANCH  27  35
ENDBRANCH  26  27
ENDBRANCH   2  26
ENDBRANCH   1   2
BRANCH   1  37
ATOM     37  O   UNL     1      67.464  86.171  71.104  1.00  0.00    -0.461 OA
BRANCH  37  38
ATOM     38  C   UNL     1      68.052  84.987  71.485  1.00  0.00     0.310 C 
ATOM     39  O   UNL     1      68.958  84.884  72.300  1.00  0.00    -0.252 OA
BRANCH  38  40
ATOM     40  C   UNL     1      67.406  83.841  70.744  1.00  0.00     0.158 C 
BRANCH  40  41
ATOM     41  C   UNL     1      66.774  84.265  69.443  1.00  0.00    -0.037 A 
ATOM     42  C   UNL     1      67.404  83.972  68.234  1.00  0.00     0.008 A 
ATOM     43  C   UNL     1      65.559  84.950  69.448  1.00  0.00     0.008 A 
ATOM     44  C   UNL     1      66.820  84.365  67.029  1.00  0.00     0.046 A 
ATOM     45  C   UNL     1      64.974  85.342  68.244  1.00  0.00     0.046 A 
ATOM     46  C   UNL     1      65.605  85.050  67.035  1.00  0.00     0.115 A 
BRANCH  46  47
ATOM     47  O   UNL     1      65.035  85.433  65.860  1.00  0.00    -0.508 OA
ATOM     48  H   UNL     1      65.631  86.056  65.408  1.00  0.00     0.293 HD
ENDBRANCH  46  47
ENDBRANCH  40  41
ENDBRANCH  38  40
ENDBRANCH  37  38
ENDBRANCH   1  37
TORSDOF 10
ENDMDL
