MODEL 1
REMARK VINA RESULT:    -6.514      0.000      0.000
REMARK INTER + INTRA:         -10.751
REMARK INTER:                 -10.131
REMARK INTRA:                  -0.620
REMARK UNBOUND:                -0.620
REMARK SMILES COc1cc(CNC(=O)CCCC/C=C/C(C)C)ccc1O
REMARK SMILES IDX 10 1 8 2 7 3 9 5 6 6 5 7 3 8 21 9 4 10 20 11 19 12 2 13 1 14
REMARK SMILES IDX 22 15 11 17 12 18 13 19 14 20 15 21 16 22 17 23 18 24
REMARK H PARENT 7 4 22 16
REMARK Flexibility Score: inf
ROOT
ATOM      1  C   UNL     1      93.919  99.004  72.486  1.00  0.00     0.100 C 
ENDROOT
BRANCH   1   2
ATOM      2  C   UNL     1      92.841  99.869  71.971  1.00  0.00     0.220 C 
ATOM      3  N   UNL     1      91.652  99.332  71.577  1.00  0.00    -0.352 N 
ATOM      4  H   UNL     1      91.595  98.325  71.646  1.00  0.00     0.163 HD
ATOM      5  O   UNL     1      93.043 101.107  71.929  1.00  0.00    -0.275 OA
BRANCH   3   6
ATOM      6  C   UNL     1      90.537 100.084  71.095  1.00  0.00     0.151 C 
BRANCH   6   7
ATOM      7  C   UNL     1      90.080  99.593  69.766  1.00  0.00    -0.025 A 
ATOM      8  C   UNL     1      89.353 100.057  67.460  1.00  0.00     0.160 A 
ATOM      9  C   UNL     1      89.226  98.673  67.221  1.00  0.00     0.157 A 
ATOM     10  C   UNL     1      89.776 100.504  68.730  1.00  0.00     0.056 A 
ATOM     11  C   UNL     1      89.507  97.754  68.251  1.00  0.00     0.050 A 
ATOM     12  C   UNL     1      89.940  98.208  69.511  1.00  0.00     0.009 A 
BRANCH   8  13
ATOM     13  O   UNL     1      89.018 100.958  66.482  1.00  0.00    -0.493 OA
ATOM     14  C   UNL     1      87.709 101.536  66.640  1.00  0.00     0.278 C 
ENDBRANCH   8  13
BRANCH   9  15
ATOM     15  O   UNL     1      88.834  98.210  66.006  1.00  0.00    -0.504 OA
ATOM     16  H   UNL     1      88.020  98.645  65.744  1.00  0.00     0.293 HD
ENDBRANCH   9  15
ENDBRANCH   6   7
ENDBRANCH   3   6
ENDBRANCH   1   2
BRANCH   1  17
ATOM     17  C   UNL     1      93.522  98.333  73.829  1.00  0.00     0.010 C 
BRANCH  17  18
ATOM     18  C   UNL     1      94.662  97.463  74.430  1.00  0.00     0.005 C 
BRANCH  18  19
ATOM     19  C   UNL     1      94.296  95.954  74.467  1.00  0.00     0.027 C 
BRANCH  19  20
ATOM     20  C   UNL     1      93.229  95.673  75.415  1.00  0.00    -0.031 C 
ATOM     21  C   UNL     1      93.413  95.070  76.603  1.00  0.00    -0.028 C 
BRANCH  21  22
ATOM     22  C   UNL     1      92.327  94.815  77.550  1.00  0.00     0.005 C 
ATOM     23  C   UNL     1      90.927  94.951  76.892  1.00  0.00     0.012 C 
ATOM     24  C   UNL     1      92.500  93.417  78.199  1.00  0.00     0.012 C 
ENDBRANCH  21  22
ENDBRANCH  19  20
ENDBRANCH  18  19
ENDBRANCH  17  18
ENDBRANCH   1  17
TORSDOF 10
ENDMDL
MODEL 2
REMARK VINA RESULT:    -6.193     18.684     21.921
REMARK INTER + INTRA:         -10.252
REMARK INTER:                  -9.713
REMARK INTRA:                  -0.539
REMARK UNBOUND:                -0.620
REMARK SMILES COc1cc(CNC(=O)CCCC/C=C/C(C)C)ccc1O
REMARK SMILES IDX 10 1 8 2 7 3 9 5 6 6 5 7 3 8 21 9 4 10 20 11 19 12 2 13 1 14
REMARK SMILES IDX 22 15 11 17 12 18 13 19 14 20 15 21 16 22 17 23 18 24
REMARK H PARENT 7 4 22 16
REMARK Flexibility Score: inf
ROOT
ATOM      1  C   UNL     1      95.708  80.979  83.748  1.00  0.00     0.100 C 
ENDROOT
BRANCH   1   2
ATOM      2  C   UNL     1      94.599  81.405  84.623  1.00  0.00     0.220 C 
ATOM      3  N   UNL     1      93.308  81.128  84.288  1.00  0.00    -0.352 N 
ATOM      4  H   UNL     1      93.190  80.645  83.408  1.00  0.00     0.163 HD
ATOM      5  O   UNL     1      94.882  82.004  85.689  1.00  0.00    -0.275 OA
BRANCH   3   6
ATOM      6  C   UNL     1      92.169  81.468  85.080  1.00  0.00     0.151 C 
BRANCH   6   7
ATOM      7  C   UNL     1      91.096  80.442  84.962  1.00  0.00    -0.025 A 
ATOM      8  C   UNL     1      88.800  79.828  84.319  1.00  0.00     0.160 A 
ATOM      9  C   UNL     1      89.046  78.496  84.713  1.00  0.00     0.157 A 
ATOM     10  C   UNL     1      89.825  80.788  84.449  1.00  0.00     0.056 A 
ATOM     11  C   UNL     1      90.301  78.141  85.244  1.00  0.00     0.050 A 
ATOM     12  C   UNL     1      91.323  79.104  85.359  1.00  0.00     0.009 A 
BRANCH   8  13
ATOM     13  O   UNL     1      87.559  80.192  83.863  1.00  0.00    -0.493 OA
ATOM     14  C   UNL     1      87.027  81.374  84.490  1.00  0.00     0.278 C 
ENDBRANCH   8  13
BRANCH   9  15
ATOM     15  O   UNL     1      88.084  77.545  84.589  1.00  0.00    -0.504 OA
ATOM     16  H   UNL     1      88.151  76.924  85.318  1.00  0.00     0.293 HD
ENDBRANCH   9  15
ENDBRANCH   6   7
ENDBRANCH   3   6
ENDBRANCH   1   2
BRANCH   1  17
ATOM     17  C   UNL     1      96.579  82.183  83.300  1.00  0.00     0.010 C 
BRANCH  17  18
ATOM     18  C   UNL     1      96.348  82.576  81.813  1.00  0.00     0.005 C 
BRANCH  18  19
ATOM     19  C   UNL     1      97.295  81.813  80.847  1.00  0.00     0.027 C 
BRANCH  19  20
ATOM     20  C   UNL     1      97.025  82.131  79.453  1.00  0.00    -0.031 C 
ATOM     21  C   UNL     1      97.253  81.289  78.428  1.00  0.00    -0.028 C 
BRANCH  21  22
ATOM     22  C   UNL     1      96.955  81.622  77.035  1.00  0.00     0.005 C 
ATOM     23  C   UNL     1      95.887  82.744  76.913  1.00  0.00     0.012 C 
ATOM     24  C   UNL     1      98.256  82.013  76.288  1.00  0.00     0.012 C 
ENDBRANCH  21  22
ENDBRANCH  19  20
ENDBRANCH  18  19
ENDBRANCH  17  18
ENDBRANCH   1  17
TORSDOF 10
ENDMDL
MODEL 3
REMARK VINA RESULT:    -6.159     17.009     19.569
REMARK INTER + INTRA:         -10.199
REMARK INTER:                  -9.074
REMARK INTRA:                  -1.126
REMARK UNBOUND:                -0.620
REMARK SMILES COc1cc(CNC(=O)CCCC/C=C/C(C)C)ccc1O
REMARK SMILES IDX 10 1 8 2 7 3 9 5 6 6 5 7 3 8 21 9 4 10 20 11 19 12 2 13 1 14
REMARK SMILES IDX 22 15 11 17 12 18 13 19 14 20 15 21 16 22 17 23 18 24
REMARK H PARENT 7 4 22 16
REMARK Flexibility Score: inf
ROOT
ATOM      1  C   UNL     1      98.276  78.991  80.475  1.00  0.00     0.100 C 
ENDROOT
BRANCH   1   2
ATOM      2  C   UNL     1      98.461  79.183  79.024  1.00  0.00     0.220 C 
ATOM      3  N   UNL     1      97.411  79.040  78.168  1.00  0.00    -0.352 N 
ATOM      4  H   UNL     1      96.538  78.778  78.604  1.00  0.00     0.163 HD
ATOM      5  O   UNL     1      99.602  79.501  78.609  1.00  0.00    -0.275 OA
BRANCH   3   6
ATOM      6  C   UNL     1      97.478  79.235  76.755  1.00  0.00     0.151 C 
BRANCH   6   7
ATOM      7  C   UNL     1      97.018  80.596  76.368  1.00  0.00    -0.025 A 
ATOM      8  C   UNL     1      96.910  82.417  74.713  1.00  0.00     0.160 A 
ATOM      9  C   UNL     1      96.132  83.182  75.606  1.00  0.00     0.157 A 
ATOM     10  C   UNL     1      97.348  81.133  75.103  1.00  0.00     0.056 A 
ATOM     11  C   UNL     1      95.812  82.668  76.878  1.00  0.00     0.050 A 
ATOM     12  C   UNL     1      96.243  81.381  77.253  1.00  0.00     0.009 A 
BRANCH   8  13
ATOM     13  O   UNL     1      97.280  82.940  73.500  1.00  0.00    -0.493 OA
ATOM     14  C   UNL     1      98.654  83.365  73.438  1.00  0.00     0.278 C 
ENDBRANCH   8  13
BRANCH   9  15
ATOM     15  O   UNL     1      95.684  84.416  75.257  1.00  0.00    -0.504 OA
ATOM     16  H   UNL     1      94.908  84.330  74.698  1.00  0.00     0.293 HD
ENDBRANCH   9  15
ENDBRANCH   6   7
ENDBRANCH   3   6
ENDBRANCH   1   2
BRANCH   1  17
ATOM     17  C   UNL     1      97.122  79.872  81.026  1.00  0.00     0.010 C 
BRANCH  17  18
ATOM     18  C   UNL     1      97.372  81.393  80.822  1.00  0.00     0.005 C 
BRANCH  18  19
ATOM     19  C   UNL     1      96.572  82.263  81.828  1.00  0.00     0.027 C 
BRANCH  19  20
ATOM     20  C   UNL     1      95.897  81.457  82.834  1.00  0.00    -0.031 C 
ATOM     21  C   UNL     1      95.164  81.963  83.842  1.00  0.00    -0.028 C 
BRANCH  21  22
ATOM     22  C   UNL     1      94.478  81.132  84.832  1.00  0.00     0.005 C 
ATOM     23  C   UNL     1      92.936  81.315  84.787  1.00  0.00     0.012 C 
ATOM     24  C   UNL     1      94.864  79.642  84.640  1.00  0.00     0.012 C 
ENDBRANCH  21  22
ENDBRANCH  19  20
ENDBRANCH  18  19
ENDBRANCH  17  18
ENDBRANCH   1  17
TORSDOF 10
ENDMDL
MODEL 4
REMARK VINA RESULT:    -6.004     18.770     21.747
REMARK INTER + INTRA:          -9.958
REMARK INTER:                  -9.182
REMARK INTRA:                  -0.775
REMARK UNBOUND:                -0.620
REMARK SMILES COc1cc(CNC(=O)CCCC/C=C/C(C)C)ccc1O
REMARK SMILES IDX 10 1 8 2 7 3 9 5 6 6 5 7 3 8 21 9 4 10 20 11 19 12 2 13 1 14
REMARK SMILES IDX 22 15 11 17 12 18 13 19 14 20 15 21 16 22 17 23 18 24
REMARK H PARENT 7 4 22 16
REMARK Flexibility Score: inf
ROOT
ATOM      1  C   UNL     1      95.188  81.334  83.913  1.00  0.00     0.100 C 
ENDROOT
BRANCH   1   2
ATOM      2  C   UNL     1      93.940  81.410  84.697  1.00  0.00     0.220 C 
ATOM      3  N   UNL     1      93.547  82.587  85.259  1.00  0.00    -0.352 N 
ATOM      4  H   UNL     1      94.180  83.362  85.113  1.00  0.00     0.163 HD
ATOM      5  O   UNL     1      93.246  80.370  84.808  1.00  0.00    -0.275 OA
BRANCH   3   6
ATOM      6  C   UNL     1      92.344  82.773  86.006  1.00  0.00     0.151 C 
BRANCH   6   7
ATOM      7  C   UNL     1      92.551  83.700  87.152  1.00  0.00    -0.025 A 
ATOM      8  C   UNL     1      93.894  85.432  88.274  1.00  0.00     0.160 A 
ATOM      9  C   UNL     1      92.950  85.488  89.320  1.00  0.00     0.157 A 
ATOM     10  C   UNL     1      93.687  84.538  87.202  1.00  0.00     0.056 A 
ATOM     11  C   UNL     1      91.822  84.644  89.294  1.00  0.00     0.050 A 
ATOM     12  C   UNL     1      91.618  83.763  88.213  1.00  0.00     0.009 A 
BRANCH   8  13
ATOM     13  O   UNL     1      95.027  86.204  88.328  1.00  0.00    -0.493 OA
ATOM     14  C   UNL     1      96.245  85.477  88.080  1.00  0.00     0.278 C 
ENDBRANCH   8  13
BRANCH   9  15
ATOM     15  O   UNL     1      93.113  86.346  90.360  1.00  0.00    -0.504 OA
ATOM     16  H   UNL     1      93.511  87.160  90.044  1.00  0.00     0.293 HD
ENDBRANCH   9  15
ENDBRANCH   6   7
ENDBRANCH   3   6
ENDBRANCH   1   2
BRANCH   1  17
ATOM     17  C   UNL     1      95.722  82.745  83.549  1.00  0.00     0.010 C 
BRANCH  17  18
ATOM     18  C   UNL     1      96.411  82.790  82.156  1.00  0.00     0.005 C 
BRANCH  18  19
ATOM     19  C   UNL     1      97.118  81.454  81.803  1.00  0.00     0.027 C 
BRANCH  19  20
ATOM     20  C   UNL     1      97.332  81.309  80.371  1.00  0.00    -0.031 C 
ATOM     21  C   UNL     1      96.839  82.151  79.444  1.00  0.00    -0.028 C 
BRANCH  21  22
ATOM     22  C   UNL     1      97.084  81.998  78.010  1.00  0.00     0.005 C 
ATOM     23  C   UNL     1      97.323  80.516  77.608  1.00  0.00     0.012 C 
ATOM     24  C   UNL     1      95.912  82.609  77.198  1.00  0.00     0.012 C 
ENDBRANCH  21  22
ENDBRANCH  19  20
ENDBRANCH  18  19
ENDBRANCH  17  18
ENDBRANCH   1  17
TORSDOF 10
ENDMDL
MODEL 5
REMARK VINA RESULT:    -5.924     17.654     21.158
REMARK INTER + INTRA:          -9.833
REMARK INTER:                  -9.040
REMARK INTRA:                  -0.793
REMARK UNBOUND:                -0.620
REMARK SMILES COc1cc(CNC(=O)CCCC/C=C/C(C)C)ccc1O
REMARK SMILES IDX 10 1 8 2 7 3 9 5 6 6 5 7 3 8 21 9 4 10 20 11 19 12 2 13 1 14
REMARK SMILES IDX 22 15 11 17 12 18 13 19 14 20 15 21 16 22 17 23 18 24
REMARK H PARENT 7 4 22 16
REMARK Flexibility Score: inf
ROOT
ATOM      1  C   UNL     1      97.173  80.944  78.386  1.00  0.00     0.100 C 
ENDROOT
BRANCH   1   2
ATOM      2  C   UNL     1      97.534  81.304  79.770  1.00  0.00     0.220 C 
ATOM      3  N   UNL     1      96.653  81.977  80.562  1.00  0.00    -0.352 N 
ATOM      4  H   UNL     1      95.777  82.216  80.118  1.00  0.00     0.163 HD
ATOM      5  O   UNL     1      98.660  80.953  80.199  1.00  0.00    -0.275 OA
BRANCH   3   6
ATOM      6  C   UNL     1      96.893  82.344  81.921  1.00  0.00     0.151 C 
BRANCH   6   7
ATOM      7  C   UNL     1      96.090  81.515  82.861  1.00  0.00    -0.025 A 
ATOM      8  C   UNL     1      94.337  81.343  84.581  1.00  0.00     0.160 A 
ATOM      9  C   UNL     1      94.534  79.948  84.644  1.00  0.00     0.157 A 
ATOM     10  C   UNL     1      95.116  82.113  83.693  1.00  0.00     0.056 A 
ATOM     11  C   UNL     1      95.515  79.341  83.834  1.00  0.00     0.050 A 
ATOM     12  C   UNL     1      96.280  80.116  82.942  1.00  0.00     0.009 A 
BRANCH   8  13
ATOM     13  O   UNL     1      93.430  81.947  85.414  1.00  0.00    -0.493 OA
ATOM     14  C   UNL     1      94.028  82.719  86.472  1.00  0.00     0.278 C 
ENDBRANCH   8  13
BRANCH   9  15
ATOM     15  O   UNL     1      93.791  79.176  85.478  1.00  0.00    -0.504 OA
ATOM     16  H   UNL     1      93.376  78.470  84.978  1.00  0.00     0.293 HD
ENDBRANCH   9  15
ENDBRANCH   6   7
ENDBRANCH   3   6
ENDBRANCH   1   2
BRANCH   1  17
ATOM     17  C   UNL     1      97.300  82.158  77.426  1.00  0.00     0.010 C 
BRANCH  17  18
ATOM     18  C   UNL     1      95.930  82.818  77.101  1.00  0.00     0.005 C 
BRANCH  18  19
ATOM     19  C   UNL     1      95.926  83.518  75.716  1.00  0.00     0.027 C 
BRANCH  19  20
ATOM     20  C   UNL     1      96.953  82.989  74.832  1.00  0.00    -0.031 C 
ATOM     21  C   UNL     1      96.716  82.117  73.834  1.00  0.00    -0.028 C 
BRANCH  21  22
ATOM     22  C   UNL     1      97.762  81.612  72.944  1.00  0.00     0.005 C 
ATOM     23  C   UNL     1      99.112  82.356  73.141  1.00  0.00     0.012 C 
ATOM     24  C   UNL     1      97.939  80.084  73.138  1.00  0.00     0.012 C 
ENDBRANCH  21  22
ENDBRANCH  19  20
ENDBRANCH  18  19
ENDBRANCH  17  18
ENDBRANCH   1  17
TORSDOF 10
ENDMDL
MODEL 6
REMARK VINA RESULT:    -5.922     16.775     18.857
REMARK INTER + INTRA:          -9.830
REMARK INTER:                  -9.071
REMARK INTRA:                  -0.759
REMARK UNBOUND:                -0.620
REMARK SMILES COc1cc(CNC(=O)CCCC/C=C/C(C)C)ccc1O
REMARK SMILES IDX 10 1 8 2 7 3 9 5 6 6 5 7 3 8 21 9 4 10 20 11 19 12 2 13 1 14
REMARK SMILES IDX 22 15 11 17 12 18 13 19 14 20 15 21 16 22 17 23 18 24
REMARK H PARENT 7 4 22 16
REMARK Flexibility Score: inf
ROOT
ATOM      1  C   UNL     1      96.301  81.866  77.412  1.00  0.00     0.100 C 
ENDROOT
BRANCH   1   2
ATOM      2  C   UNL     1      96.393  82.848  76.314  1.00  0.00     0.220 C 
ATOM      3  N   UNL     1      97.430  82.801  75.430  1.00  0.00    -0.352 N 
ATOM      4  H   UNL     1      98.111  82.076  75.609  1.00  0.00     0.163 HD
ATOM      5  O   UNL     1      95.483  83.704  76.207  1.00  0.00    -0.275 OA
BRANCH   3   6
ATOM      6  C   UNL     1      97.593  83.682  74.318  1.00  0.00     0.151 C 
BRANCH   6   7
ATOM      7  C   UNL     1      98.566  83.140  73.331  1.00  0.00    -0.025 A 
ATOM      8  C   UNL     1      99.488  81.232  72.077  1.00  0.00     0.160 A 
ATOM      9  C   UNL     1     100.401  82.094  71.435  1.00  0.00     0.157 A 
ATOM     10  C   UNL     1      98.581  81.762  73.019  1.00  0.00     0.056 A 
ATOM     11  C   UNL     1     100.411  83.467  71.751  1.00  0.00     0.050 A 
ATOM     12  C   UNL     1      99.495  83.989  72.684  1.00  0.00     0.009 A 
BRANCH   8  13
ATOM     13  O   UNL     1      99.518  79.884  71.822  1.00  0.00    -0.493 OA
ATOM     14  C   UNL     1      98.327  79.184  72.225  1.00  0.00     0.278 C 
ENDBRANCH   8  13
BRANCH   9  15
ATOM     15  O   UNL     1     101.278  81.618  70.514  1.00  0.00    -0.504 OA
ATOM     16  H   UNL     1     102.099  81.374  70.948  1.00  0.00     0.293 HD
ENDBRANCH   9  15
ENDBRANCH   6   7
ENDBRANCH   3   6
ENDBRANCH   1   2
BRANCH   1  17
ATOM     17  C   UNL     1      97.678  81.217  77.717  1.00  0.00     0.010 C 
BRANCH  17  18
ATOM     18  C   UNL     1      98.168  81.493  79.167  1.00  0.00     0.005 C 
BRANCH  18  19
ATOM     19  C   UNL     1      97.063  82.128  80.053  1.00  0.00     0.027 C 
BRANCH  19  20
ATOM     20  C   UNL     1      96.982  81.496  81.362  1.00  0.00    -0.031 C 
ATOM     21  C   UNL     1      96.667  80.203  81.559  1.00  0.00    -0.028 C 
BRANCH  21  22
ATOM     22  C   UNL     1      96.610  79.584  82.883  1.00  0.00     0.005 C 
ATOM     23  C   UNL     1      95.595  80.293  83.822  1.00  0.00     0.012 C 
ATOM     24  C   UNL     1      96.284  78.073  82.755  1.00  0.00     0.012 C 
ENDBRANCH  21  22
ENDBRANCH  19  20
ENDBRANCH  18  19
ENDBRANCH  17  18
ENDBRANCH   1  17
TORSDOF 10
ENDMDL
MODEL 7
REMARK VINA RESULT:    -5.897      5.863      9.005
REMARK INTER + INTRA:          -9.792
REMARK INTER:                  -8.714
REMARK INTRA:                  -1.078
REMARK UNBOUND:                -0.620
REMARK SMILES COc1cc(CNC(=O)CCCC/C=C/C(C)C)ccc1O
REMARK SMILES IDX 10 1 8 2 7 3 9 5 6 6 5 7 3 8 21 9 4 10 20 11 19 12 2 13 1 14
REMARK SMILES IDX 22 15 11 17 12 18 13 19 14 20 15 21 16 22 17 23 18 24
REMARK H PARENT 7 4 22 16
REMARK Flexibility Score: inf
ROOT
ATOM      1  C   UNL     1      97.590  97.047  77.074  1.00  0.00     0.100 C 
ENDROOT
BRANCH   1   2
ATOM      2  C   UNL     1      96.723  96.215  77.931  1.00  0.00     0.220 C 
ATOM      3  N   UNL     1      95.906  95.273  77.382  1.00  0.00    -0.352 N 
ATOM      4  H   UNL     1      95.933  95.222  76.373  1.00  0.00     0.163 HD
ATOM      5  O   UNL     1      96.781  96.384  79.173  1.00  0.00    -0.275 OA
BRANCH   3   6
ATOM      6  C   UNL     1      95.055  94.398  78.124  1.00  0.00     0.151 C 
BRANCH   6   7
ATOM      7  C   UNL     1      93.626  94.578  77.749  1.00  0.00    -0.025 A 
ATOM      8  C   UNL     1      91.345  93.671  77.562  1.00  0.00     0.160 A 
ATOM      9  C   UNL     1      90.893  94.908  77.058  1.00  0.00     0.157 A 
ATOM     10  C   UNL     1      92.705  93.516  77.901  1.00  0.00     0.056 A 
ATOM     11  C   UNL     1      91.804  95.969  76.882  1.00  0.00     0.050 A 
ATOM     12  C   UNL     1      93.158  95.809  77.234  1.00  0.00     0.009 A 
BRANCH   8  13
ATOM     13  O   UNL     1      90.476  92.615  77.673  1.00  0.00    -0.493 OA
ATOM     14  C   UNL     1      90.397  91.794  76.493  1.00  0.00     0.278 C 
ENDBRANCH   8  13
BRANCH   9  15
ATOM     15  O   UNL     1      89.587  95.093  76.735  1.00  0.00    -0.504 OA
ATOM     16  H   UNL     1      89.526  95.655  75.958  1.00  0.00     0.293 HD
ENDBRANCH   9  15
ENDBRANCH   6   7
ENDBRANCH   3   6
ENDBRANCH   1   2
BRANCH   1  17
ATOM     17  C   UNL     1      97.014  97.183  75.639  1.00  0.00     0.010 C 
BRANCH  17  18
ATOM     18  C   UNL     1      98.119  97.281  74.550  1.00  0.00     0.005 C 
BRANCH  18  19
ATOM     19  C   UNL     1      97.571  97.814  73.199  1.00  0.00     0.027 C 
BRANCH  19  20
ATOM     20  C   UNL     1      96.119  97.911  73.197  1.00  0.00    -0.031 C 
ATOM     21  C   UNL     1      95.438  99.044  72.946  1.00  0.00    -0.028 C 
BRANCH  21  22
ATOM     22  C   UNL     1      93.977  99.115  72.930  1.00  0.00     0.005 C 
ATOM     23  C   UNL     1      93.325  98.029  73.829  1.00  0.00     0.012 C 
ATOM     24  C   UNL     1      93.505 100.533  73.344  1.00  0.00     0.012 C 
ENDBRANCH  21  22
ENDBRANCH  19  20
ENDBRANCH  18  19
ENDBRANCH  17  18
ENDBRANCH   1  17
TORSDOF 10
ENDMDL
MODEL 8
REMARK VINA RESULT:    -5.852     16.839     20.509
REMARK INTER + INTRA:          -9.722
REMARK INTER:                  -8.711
REMARK INTRA:                  -1.011
REMARK UNBOUND:                -0.620
REMARK SMILES COc1cc(CNC(=O)CCCC/C=C/C(C)C)ccc1O
REMARK SMILES IDX 10 1 8 2 7 3 9 5 6 6 5 7 3 8 21 9 4 10 20 11 19 12 2 13 1 14
REMARK SMILES IDX 22 15 11 17 12 18 13 19 14 20 15 21 16 22 17 23 18 24
REMARK H PARENT 7 4 22 16
REMARK Flexibility Score: inf
ROOT
ATOM      1  C   UNL     1      96.757  82.926  74.107  1.00  0.00     0.100 C 
ENDROOT
BRANCH   1   2
ATOM      2  C   UNL     1      96.284  83.185  75.481  1.00  0.00     0.220 C 
ATOM      3  N   UNL     1      96.631  82.351  76.500  1.00  0.00    -0.352 N 
ATOM      4  H   UNL     1      97.199  81.559  76.230  1.00  0.00     0.163 HD
ATOM      5  O   UNL     1      95.578  84.202  75.682  1.00  0.00    -0.275 OA
BRANCH   3   6
ATOM      6  C   UNL     1      96.253  82.530  77.866  1.00  0.00     0.151 C 
BRANCH   6   7
ATOM      7  C   UNL     1      97.082  81.694  78.777  1.00  0.00    -0.025 A 
ATOM      8  C   UNL     1      97.814  81.112  81.054  1.00  0.00     0.160 A 
ATOM      9  C   UNL     1      98.640  80.096  80.530  1.00  0.00     0.157 A 
ATOM     10  C   UNL     1      97.046  81.902  80.174  1.00  0.00     0.056 A 
ATOM     11  C   UNL     1      98.702  79.890  79.137  1.00  0.00     0.050 A 
ATOM     12  C   UNL     1      97.922  80.676  78.267  1.00  0.00     0.009 A 
BRANCH   8  13
ATOM     13  O   UNL     1      97.801  81.359  82.403  1.00  0.00    -0.493 OA
ATOM     14  C   UNL     1      96.515  81.171  83.022  1.00  0.00     0.278 C 
ENDBRANCH   8  13
BRANCH   9  15
ATOM     15  O   UNL     1      99.383  79.309  81.350  1.00  0.00    -0.504 OA
ATOM     16  H   UNL     1      98.975  78.443  81.420  1.00  0.00     0.293 HD
ENDBRANCH   9  15
ENDBRANCH   6   7
ENDBRANCH   3   6
ENDBRANCH   1   2
BRANCH   1  17
ATOM     17  C   UNL     1      97.927  81.906  74.087  1.00  0.00     0.010 C 
BRANCH  17  18
ATOM     18  C   UNL     1      99.122  82.374  73.210  1.00  0.00     0.005 C 
BRANCH  18  19
ATOM     19  C   UNL     1     100.411  82.609  74.044  1.00  0.00     0.027 C 
BRANCH  19  20
ATOM     20  C   UNL     1     100.790  81.430  74.809  1.00  0.00    -0.031 C 
ATOM     21  C   UNL     1     102.049  80.968  74.911  1.00  0.00    -0.028 C 
BRANCH  21  22
ATOM     22  C   UNL     1     102.410  79.792  75.702  1.00  0.00     0.005 C 
ATOM     23  C   UNL     1     103.945  79.670  75.910  1.00  0.00     0.012 C 
ATOM     24  C   UNL     1     101.668  79.814  77.064  1.00  0.00     0.012 C 
ENDBRANCH  21  22
ENDBRANCH  19  20
ENDBRANCH  18  19
ENDBRANCH  17  18
ENDBRANCH   1  17
TORSDOF 10
ENDMDL
MODEL 9
REMARK VINA RESULT:    -5.827      7.603     11.952
REMARK INTER + INTRA:          -9.683
REMARK INTER:                  -8.873
REMARK INTRA:                  -0.810
REMARK UNBOUND:                -0.620
REMARK SMILES COc1cc(CNC(=O)CCCC/C=C/C(C)C)ccc1O
REMARK SMILES IDX 10 1 8 2 7 3 9 5 6 6 5 7 3 8 21 9 4 10 20 11 19 12 2 13 1 14
REMARK SMILES IDX 22 15 11 17 12 18 13 19 14 20 15 21 16 22 17 23 18 24
REMARK H PARENT 7 4 22 16
REMARK Flexibility Score: inf
ROOT
ATOM      1  C   UNL     1      94.792  92.983  78.788  1.00  0.00     0.100 C 
ENDROOT
BRANCH   1   2
ATOM      2  C   UNL     1      95.243  93.420  80.123  1.00  0.00     0.220 C 
ATOM      3  N   UNL     1      95.477  94.739  80.376  1.00  0.00    -0.352 N 
ATOM      4  H   UNL     1      95.340  95.355  79.587  1.00  0.00     0.163 HD
ATOM      5  O   UNL     1      95.380  92.550  81.016  1.00  0.00    -0.275 OA
BRANCH   3   6
ATOM      6  C   UNL     1      95.883  95.267  81.639  1.00  0.00     0.151 C 
BRANCH   6   7
ATOM      7  C   UNL     1      96.580  96.573  81.486  1.00  0.00    -0.025 A 
ATOM      8  C   UNL     1      96.585  99.024  81.725  1.00  0.00     0.160 A 
ATOM      9  C   UNL     1      97.901  99.071  81.220  1.00  0.00     0.157 A 
ATOM     10  C   UNL     1      95.937  97.777  81.851  1.00  0.00     0.056 A 
ATOM     11  C   UNL     1      98.548  97.880  80.834  1.00  0.00     0.050 A 
ATOM     12  C   UNL     1      97.897  96.639  80.975  1.00  0.00     0.009 A 
BRANCH   8  13
ATOM     13  O   UNL     1      95.928 100.185  82.040  1.00  0.00    -0.493 OA
ATOM     14  C   UNL     1      95.815 100.431  83.454  1.00  0.00     0.278 C 
ENDBRANCH   8  13
BRANCH   9  15
ATOM     15  O   UNL     1      98.559 100.253  81.099  1.00  0.00    -0.504 OA
ATOM     16  H   UNL     1      98.985 100.296  80.239  1.00  0.00     0.293 HD
ENDBRANCH   9  15
ENDBRANCH   6   7
ENDBRANCH   3   6
ENDBRANCH   1   2
BRANCH   1  17
ATOM     17  C   UNL     1      93.282  93.273  78.570  1.00  0.00     0.010 C 
BRANCH  17  18
ATOM     18  C   UNL     1      93.023  94.309  77.440  1.00  0.00     0.005 C 
BRANCH  18  19
ATOM     19  C   UNL     1      93.280  93.719  76.027  1.00  0.00     0.027 C 
BRANCH  19  20
ATOM     20  C   UNL     1      93.840  94.706  75.116  1.00  0.00    -0.031 C 
ATOM     21  C   UNL     1      94.262  95.927  75.491  1.00  0.00    -0.028 C 
BRANCH  21  22
ATOM     22  C   UNL     1      94.841  96.896  74.560  1.00  0.00     0.005 C 
ATOM     23  C   UNL     1      95.621  96.211  73.405  1.00  0.00     0.012 C 
ATOM     24  C   UNL     1      93.735  97.830  74.003  1.00  0.00     0.012 C 
ENDBRANCH  21  22
ENDBRANCH  19  20
ENDBRANCH  18  19
ENDBRANCH  17  18
ENDBRANCH   1  17
TORSDOF 10
ENDMDL
MODEL 10
REMARK VINA RESULT:    -5.678     19.068     21.601
REMARK INTER + INTRA:          -9.451
REMARK INTER:                  -8.744
REMARK INTRA:                  -0.707
REMARK UNBOUND:                -0.620
REMARK SMILES COc1cc(CNC(=O)CCCC/C=C/C(C)C)ccc1O
REMARK SMILES IDX 10 1 8 2 7 3 9 5 6 6 5 7 3 8 21 9 4 10 20 11 19 12 2 13 1 14
REMARK SMILES IDX 22 15 11 17 12 18 13 19 14 20 15 21 16 22 17 23 18 24
REMARK H PARENT 7 4 22 16
REMARK Flexibility Score: inf
ROOT
ATOM      1  C   UNL     1      95.385  81.512  83.552  1.00  0.00     0.100 C 
ENDROOT
BRANCH   1   2
ATOM      2  C   UNL     1      94.388  81.859  84.583  1.00  0.00     0.220 C 
ATOM      3  N   UNL     1      94.426  83.072  85.201  1.00  0.00    -0.352 N 
ATOM      4  H   UNL     1      95.185  83.674  84.914  1.00  0.00     0.163 HD
ATOM      5  O   UNL     1      93.497  81.017  84.852  1.00  0.00    -0.275 OA
BRANCH   3   6
ATOM      6  C   UNL     1      93.491  83.516  86.185  1.00  0.00     0.151 C 
BRANCH   6   7
ATOM      7  C   UNL     1      94.071  84.580  87.049  1.00  0.00    -0.025 A 
ATOM      8  C   UNL     1      94.002  85.917  89.115  1.00  0.00     0.160 A 
ATOM      9  C   UNL     1      95.173  86.594  88.718  1.00  0.00     0.157 A 
ATOM     10  C   UNL     1      93.461  84.920  88.278  1.00  0.00     0.056 A 
ATOM     11  C   UNL     1      95.782  86.280  87.486  1.00  0.00     0.050 A 
ATOM     12  C   UNL     1      95.241  85.274  86.662  1.00  0.00     0.009 A 
BRANCH   8  13
ATOM     13  O   UNL     1      93.369  86.265  90.282  1.00  0.00    -0.493 OA
ATOM     14  C   UNL     1      91.949  86.460  90.144  1.00  0.00     0.278 C 
ENDBRANCH   8  13
BRANCH   9  15
ATOM     15  O   UNL     1      95.727  87.550  89.507  1.00  0.00    -0.504 OA
ATOM     16  H   UNL     1      95.615  87.309  90.429  1.00  0.00     0.293 HD
ENDBRANCH   9  15
ENDBRANCH   6   7
ENDBRANCH   3   6
ENDBRANCH   1   2
BRANCH   1  17
ATOM     17  C   UNL     1      96.148  82.767  83.048  1.00  0.00     0.010 C 
BRANCH  17  18
ATOM     18  C   UNL     1      96.717  82.593  81.612  1.00  0.00     0.005 C 
BRANCH  18  19
ATOM     19  C   UNL     1      96.974  81.104  81.255  1.00  0.00     0.027 C 
BRANCH  19  20
ATOM     20  C   UNL     1      97.465  80.944  79.895  1.00  0.00    -0.031 C 
ATOM     21  C   UNL     1      97.484  81.928  78.977  1.00  0.00    -0.028 C 
BRANCH  21  22
ATOM     22  C   UNL     1      98.001  81.750  77.621  1.00  0.00     0.005 C 
ATOM     23  C   UNL     1      98.320  80.263  77.302  1.00  0.00     0.012 C 
ATOM     24  C   UNL     1      97.006  82.337  76.586  1.00  0.00     0.012 C 
ENDBRANCH  21  22
ENDBRANCH  19  20
ENDBRANCH  18  19
ENDBRANCH  17  18
ENDBRANCH   1  17
TORSDOF 10
ENDMDL
