MODEL 1
REMARK VINA RESULT:    -5.819      0.000      0.000
REMARK INTER + INTRA:         -10.284
REMARK INTER:                  -9.391
REMARK INTRA:                  -0.893
REMARK UNBOUND:                -0.893
REMARK SMILES CCCCCCCCC(=O)NCc1ccc(O)c(OC)c1
REMARK SMILES IDX 7 1 6 2 5 3 4 4 3 5 2 6 1 7 8 8 9 9 10 10 11 11 12 13 13 14
REMARK SMILES IDX 21 15 14 16 18 17 15 18 16 19 19 20 20 21 17 22
REMARK H PARENT 11 12 17 23
REMARK Flexibility Score: inf
ROOT
ATOM      1  C   UNL     1      93.501  95.078  77.935  1.00  0.00     0.010 C 
ENDROOT
BRANCH   1   2
ATOM      2  C   UNL     1      92.421  95.671  76.985  1.00  0.00     0.001 C 
BRANCH   2   3
ATOM      3  C   UNL     1      91.519  94.569  76.356  1.00  0.00     0.000 C 
BRANCH   3   4
ATOM      4  C   UNL     1      90.511  93.937  77.357  1.00  0.00    -0.000 C 
BRANCH   4   5
ATOM      5  C   UNL     1      90.250  92.430  77.075  1.00  0.00    -0.000 C 
BRANCH   5   6
ATOM      6  C   UNL     1      91.105  91.887  75.898  1.00  0.00    -0.003 C 
ATOM      7  C   UNL     1      90.276  91.070  74.882  1.00  0.00     0.004 C 
ENDBRANCH   5   6
ENDBRANCH   4   5
ENDBRANCH   3   4
ENDBRANCH   2   3
ENDBRANCH   1   2
BRANCH   1   8
ATOM      8  C   UNL     1      93.997  93.665  77.518  1.00  0.00     0.100 C 
BRANCH   8   9
ATOM      9  C   UNL     1      94.985  93.132  78.487  1.00  0.00     0.220 C 
ATOM     10  O   UNL     1      96.000  92.546  78.041  1.00  0.00    -0.275 OA
ATOM     11  N   UNL     1      94.803  93.305  79.830  1.00  0.00    -0.352 N 
ATOM     12  H   UNL     1      93.914  93.712  80.081  1.00  0.00     0.163 HD
BRANCH  11  13
ATOM     13  C   UNL     1      95.745  92.965  80.852  1.00  0.00     0.151 C 
BRANCH  13  14
ATOM     14  C   UNL     1      96.769  94.015  81.098  1.00  0.00    -0.025 A 
ATOM     15  C   UNL     1      96.505  95.363  80.756  1.00  0.00     0.056 A 
ATOM     16  C   UNL     1      98.020  93.690  81.671  1.00  0.00     0.009 A 
ATOM     17  C   UNL     1      97.462  96.374  81.001  1.00  0.00     0.160 A 
ATOM     18  C   UNL     1      98.976  94.691  81.917  1.00  0.00     0.050 A 
ATOM     19  C   UNL     1      98.705  96.030  81.578  1.00  0.00     0.157 A 
BRANCH  17  20
ATOM     20  O   UNL     1      97.220  97.673  80.630  1.00  0.00    -0.493 OA
ATOM     21  C   UNL     1      97.460  97.943  79.237  1.00  0.00     0.278 C 
ENDBRANCH  17  20
BRANCH  19  22
ATOM     22  O   UNL     1      99.645  96.986  81.794  1.00  0.00    -0.504 OA
ATOM     23  H   UNL     1      99.926  97.354  80.953  1.00  0.00     0.293 HD
ENDBRANCH  19  22
ENDBRANCH  13  14
ENDBRANCH  11  13
ENDBRANCH   8   9
ENDBRANCH   1   8
TORSDOF 11
ENDMDL
MODEL 2
REMARK VINA RESULT:    -5.764     13.108     15.579
REMARK INTER + INTRA:         -10.195
REMARK INTER:                  -9.546
REMARK INTRA:                  -0.649
REMARK UNBOUND:                -0.893
REMARK SMILES CCCCCCCCC(=O)NCc1ccc(O)c(OC)c1
REMARK SMILES IDX 7 1 6 2 5 3 4 4 3 5 2 6 1 7 8 8 9 9 10 10 11 11 12 13 13 14
REMARK SMILES IDX 21 15 14 16 18 17 15 18 16 19 19 20 20 21 17 22
REMARK H PARENT 11 12 17 23
REMARK Flexibility Score: inf
ROOT
ATOM      1  C   UNL     1      95.895  82.787  82.860  1.00  0.00     0.010 C 
ENDROOT
BRANCH   1   2
ATOM      2  C   UNL     1      96.856  82.426  81.690  1.00  0.00     0.001 C 
BRANCH   2   3
ATOM      3  C   UNL     1      96.820  80.907  81.346  1.00  0.00     0.000 C 
BRANCH   3   4
ATOM      4  C   UNL     1      97.475  80.559  79.979  1.00  0.00    -0.000 C 
BRANCH   4   5
ATOM      5  C   UNL     1      97.613  81.796  79.047  1.00  0.00    -0.000 C 
BRANCH   5   6
ATOM      6  C   UNL     1      96.811  81.639  77.727  1.00  0.00    -0.003 C 
ATOM      7  C   UNL     1      95.732  82.729  77.547  1.00  0.00     0.004 C 
ENDBRANCH   5   6
ENDBRANCH   4   5
ENDBRANCH   3   4
ENDBRANCH   2   3
ENDBRANCH   1   2
BRANCH   1   8
ATOM      8  C   UNL     1      95.276  81.550  83.570  1.00  0.00     0.100 C 
BRANCH   8   9
ATOM      9  C   UNL     1      94.565  81.941  84.811  1.00  0.00     0.220 C 
ATOM     10  O   UNL     1      95.247  82.192  85.834  1.00  0.00    -0.275 OA
ATOM     11  N   UNL     1      93.204  82.051  84.826  1.00  0.00    -0.352 N 
ATOM     12  H   UNL     1      92.751  81.743  83.978  1.00  0.00     0.163 HD
BRANCH  11  13
ATOM     13  C   UNL     1      92.417  82.552  85.911  1.00  0.00     0.151 C 
BRANCH  13  14
ATOM     14  C   UNL     1      91.080  81.912  86.030  1.00  0.00    -0.025 A 
ATOM     15  C   UNL     1      90.488  81.286  84.907  1.00  0.00     0.056 A 
ATOM     16  C   UNL     1      90.378  81.919  87.257  1.00  0.00     0.009 A 
ATOM     17  C   UNL     1      89.225  80.658  85.010  1.00  0.00     0.160 A 
ATOM     18  C   UNL     1      89.122  81.295  87.366  1.00  0.00     0.050 A 
ATOM     19  C   UNL     1      88.539  80.672  86.246  1.00  0.00     0.157 A 
BRANCH  17  20
ATOM     20  O   UNL     1      88.634  80.089  83.910  1.00  0.00    -0.493 OA
ATOM     21  C   UNL     1      89.144  78.786  83.576  1.00  0.00     0.278 C 
ENDBRANCH  17  20
BRANCH  19  22
ATOM     22  O   UNL     1      87.315  80.097  86.354  1.00  0.00    -0.504 OA
ATOM     23  H   UNL     1      86.653  80.679  85.973  1.00  0.00     0.293 HD
ENDBRANCH  19  22
ENDBRANCH  13  14
ENDBRANCH  11  13
ENDBRANCH   8   9
ENDBRANCH   1   8
TORSDOF 11
ENDMDL
MODEL 3
REMARK VINA RESULT:    -5.590      5.794      8.030
REMARK INTER + INTRA:          -9.915
REMARK INTER:                  -9.395
REMARK INTRA:                  -0.520
REMARK UNBOUND:                -0.893
REMARK SMILES CCCCCCCCC(=O)NCc1ccc(O)c(OC)c1
REMARK SMILES IDX 7 1 6 2 5 3 4 4 3 5 2 6 1 7 8 8 9 9 10 10 11 11 12 13 13 14
REMARK SMILES IDX 21 15 14 16 18 17 15 18 16 19 19 20 20 21 17 22
REMARK H PARENT 11 12 17 23
REMARK Flexibility Score: inf
ROOT
ATOM      1  C   UNL     1      93.361  99.681  71.574  1.00  0.00     0.010 C 
ENDROOT
BRANCH   1   2
ATOM      2  C   UNL     1      91.995 100.125  70.974  1.00  0.00     0.001 C 
BRANCH   2   3
ATOM      3  C   UNL     1      90.945  98.975  70.987  1.00  0.00     0.000 C 
BRANCH   3   4
ATOM      4  C   UNL     1      89.900  99.068  69.839  1.00  0.00    -0.000 C 
BRANCH   4   5
ATOM      5  C   UNL     1      89.719  97.722  69.081  1.00  0.00    -0.000 C 
BRANCH   5   6
ATOM      6  C   UNL     1      89.319  97.924  67.595  1.00  0.00    -0.003 C 
ATOM      7  C   UNL     1      90.017  99.140  66.946  1.00  0.00     0.004 C 
ENDBRANCH   5   6
ENDBRANCH   4   5
ENDBRANCH   3   4
ENDBRANCH   2   3
ENDBRANCH   1   2
BRANCH   1   8
ATOM      8  C   UNL     1      93.285  99.260  73.068  1.00  0.00     0.100 C 
BRANCH   8   9
ATOM      9  C   UNL     1      94.162  98.098  73.347  1.00  0.00     0.220 C 
ATOM     10  O   UNL     1      95.189  97.945  72.643  1.00  0.00    -0.275 OA
ATOM     11  N   UNL     1      93.869  97.236  74.365  1.00  0.00    -0.352 N 
ATOM     12  H   UNL     1      92.978  97.402  74.809  1.00  0.00     0.163 HD
BRANCH  11  13
ATOM     13  C   UNL     1      94.704  96.167  74.821  1.00  0.00     0.151 C 
BRANCH  13  14
ATOM     14  C   UNL     1      94.054  95.282  75.824  1.00  0.00    -0.025 A 
ATOM     15  C   UNL     1      93.250  94.197  75.402  1.00  0.00     0.056 A 
ATOM     16  C   UNL     1      94.221  95.509  77.210  1.00  0.00     0.009 A 
ATOM     17  C   UNL     1      92.639  93.337  76.344  1.00  0.00     0.160 A 
ATOM     18  C   UNL     1      93.617  94.657  78.152  1.00  0.00     0.050 A 
ATOM     19  C   UNL     1      92.821  93.577  77.725  1.00  0.00     0.157 A 
BRANCH  17  20
ATOM     20  O   UNL     1      91.826  92.311  75.933  1.00  0.00    -0.493 OA
ATOM     21  C   UNL     1      90.486  92.717  75.605  1.00  0.00     0.278 C 
ENDBRANCH  17  20
BRANCH  19  22
ATOM     22  O   UNL     1      92.220  92.776  78.642  1.00  0.00    -0.504 OA
ATOM     23  H   UNL     1      91.789  92.045  78.194  1.00  0.00     0.293 HD
ENDBRANCH  19  22
ENDBRANCH  13  14
ENDBRANCH  11  13
ENDBRANCH   8   9
ENDBRANCH   1   8
TORSDOF 11
ENDMDL
MODEL 4
REMARK VINA RESULT:    -5.570     11.143     14.524
REMARK INTER + INTRA:          -9.883
REMARK INTER:                  -9.223
REMARK INTRA:                  -0.660
REMARK UNBOUND:                -0.893
REMARK SMILES CCCCCCCCC(=O)NCc1ccc(O)c(OC)c1
REMARK SMILES IDX 7 1 6 2 5 3 4 4 3 5 2 6 1 7 8 8 9 9 10 10 11 11 12 13 13 14
REMARK SMILES IDX 21 15 14 16 18 17 15 18 16 19 19 20 20 21 17 22
REMARK H PARENT 11 12 17 23
REMARK Flexibility Score: inf
ROOT
ATOM      1  C   UNL     1      91.853  99.939  70.462  1.00  0.00     0.010 C 
ENDROOT
BRANCH   1   2
ATOM      2  C   UNL     1      93.140  99.422  71.167  1.00  0.00     0.001 C 
BRANCH   2   3
ATOM      3  C   UNL     1      92.966  99.321  72.711  1.00  0.00     0.000 C 
BRANCH   3   4
ATOM      4  C   UNL     1      94.309  99.236  73.490  1.00  0.00    -0.000 C 
BRANCH   4   5
ATOM      5  C   UNL     1      94.832  97.778  73.627  1.00  0.00    -0.000 C 
BRANCH   5   6
ATOM      6  C   UNL     1      93.833  96.854  74.374  1.00  0.00    -0.003 C 
ATOM      7  C   UNL     1      94.395  95.437  74.620  1.00  0.00     0.004 C 
ENDBRANCH   5   6
ENDBRANCH   4   5
ENDBRANCH   3   4
ENDBRANCH   2   3
ENDBRANCH   1   2
BRANCH   1   8
ATOM      8  C   UNL     1      90.635  98.983  70.595  1.00  0.00     0.100 C 
BRANCH   8   9
ATOM      9  C   UNL     1      90.015  98.712  69.275  1.00  0.00     0.220 C 
ATOM     10  O   UNL     1      88.971  98.019  69.239  1.00  0.00    -0.275 OA
ATOM     11  N   UNL     1      90.557  99.232  68.134  1.00  0.00    -0.352 N 
ATOM     12  H   UNL     1      91.441  99.700  68.268  1.00  0.00     0.163 HD
BRANCH  11  13
ATOM     13  C   UNL     1      89.979  99.162  66.827  1.00  0.00     0.151 C 
BRANCH  13  14
ATOM     14  C   UNL     1      88.898 100.157  66.594  1.00  0.00    -0.025 A 
ATOM     15  C   UNL     1      89.207 101.535  66.493  1.00  0.00     0.056 A 
ATOM     16  C   UNL     1      87.549  99.750  66.473  1.00  0.00     0.009 A 
ATOM     17  C   UNL     1      88.192 102.490  66.254  1.00  0.00     0.160 A 
ATOM     18  C   UNL     1      86.535 100.695  66.235  1.00  0.00     0.050 A 
ATOM     19  C   UNL     1      86.850 102.063  66.132  1.00  0.00     0.157 A 
BRANCH  17  20
ATOM     20  O   UNL     1      88.489 103.828  66.198  1.00  0.00    -0.493 OA
ATOM     21  C   UNL     1      89.756 104.176  66.782  1.00  0.00     0.278 C 
ENDBRANCH  17  20
BRANCH  19  22
ATOM     22  O   UNL     1      85.861 102.971  65.929  1.00  0.00    -0.504 OA
ATOM     23  H   UNL     1      86.243 103.797  65.622  1.00  0.00     0.293 HD
ENDBRANCH  19  22
ENDBRANCH  13  14
ENDBRANCH  11  13
ENDBRANCH   8   9
ENDBRANCH   1   8
TORSDOF 11
ENDMDL
MODEL 5
REMARK VINA RESULT:    -5.442     12.518     14.094
REMARK INTER + INTRA:          -9.675
REMARK INTER:                  -9.172
REMARK INTRA:                  -0.504
REMARK UNBOUND:                -0.893
REMARK SMILES CCCCCCCCC(=O)NCc1ccc(O)c(OC)c1
REMARK SMILES IDX 7 1 6 2 5 3 4 4 3 5 2 6 1 7 8 8 9 9 10 10 11 11 12 13 13 14
REMARK SMILES IDX 21 15 14 16 18 17 15 18 16 19 19 20 20 21 17 22
REMARK H PARENT 11 12 17 23
REMARK Flexibility Score: inf
ROOT
ATOM      1  C   UNL     1      97.967  81.301  80.352  1.00  0.00     0.010 C 
ENDROOT
BRANCH   1   2
ATOM      2  C   UNL     1      97.699  81.191  78.823  1.00  0.00     0.001 C 
BRANCH   2   3
ATOM      3  C   UNL     1      96.571  82.156  78.352  1.00  0.00     0.000 C 
BRANCH   3   4
ATOM      4  C   UNL     1      96.303  82.107  76.821  1.00  0.00    -0.000 C 
BRANCH   4   5
ATOM      5  C   UNL     1      95.948  83.501  76.230  1.00  0.00    -0.000 C 
BRANCH   5   6
ATOM      6  C   UNL     1      96.426  83.665  74.762  1.00  0.00    -0.003 C 
ATOM      7  C   UNL     1      96.679  82.314  74.059  1.00  0.00     0.004 C 
ENDBRANCH   5   6
ENDBRANCH   4   5
ENDBRANCH   3   4
ENDBRANCH   2   3
ENDBRANCH   1   2
BRANCH   1   8
ATOM      8  C   UNL     1      96.849  82.043  81.136  1.00  0.00     0.100 C 
BRANCH   8   9
ATOM      9  C   UNL     1      96.263  81.179  82.188  1.00  0.00     0.220 C 
ATOM     10  O   UNL     1      96.468  79.943  82.126  1.00  0.00    -0.275 OA
ATOM     11  N   UNL     1      95.544  81.724  83.213  1.00  0.00    -0.352 N 
ATOM     12  H   UNL     1      95.367  82.714  83.119  1.00  0.00     0.163 HD
BRANCH  11  13
ATOM     13  C   UNL     1      95.051  81.019  84.356  1.00  0.00     0.151 C 
BRANCH  13  14
ATOM     14  C   UNL     1      93.929  81.707  85.049  1.00  0.00    -0.025 A 
ATOM     15  C   UNL     1      92.589  81.359  84.754  1.00  0.00     0.056 A 
ATOM     16  C   UNL     1      94.176  82.717  86.007  1.00  0.00     0.009 A 
ATOM     17  C   UNL     1      91.512  81.992  85.417  1.00  0.00     0.160 A 
ATOM     18  C   UNL     1      93.110  83.349  86.671  1.00  0.00     0.050 A 
ATOM     19  C   UNL     1      91.779  82.996  86.375  1.00  0.00     0.157 A 
BRANCH  17  20
ATOM     20  O   UNL     1      90.214  81.683  85.100  1.00  0.00    -0.493 OA
ATOM     21  C   UNL     1      90.073  80.524  84.259  1.00  0.00     0.278 C 
ENDBRANCH  17  20
BRANCH  19  22
ATOM     22  O   UNL     1      90.756  83.632  87.001  1.00  0.00    -0.504 OA
ATOM     23  H   UNL     1      90.392  83.059  87.680  1.00  0.00     0.293 HD
ENDBRANCH  19  22
ENDBRANCH  13  14
ENDBRANCH  11  13
ENDBRANCH   8   9
ENDBRANCH   1   8
TORSDOF 11
ENDMDL
MODEL 6
REMARK VINA RESULT:    -5.384      2.954      4.503
REMARK INTER + INTRA:          -9.583
REMARK INTER:                  -8.658
REMARK INTRA:                  -0.925
REMARK UNBOUND:                -0.893
REMARK SMILES CCCCCCCCC(=O)NCc1ccc(O)c(OC)c1
REMARK SMILES IDX 7 1 6 2 5 3 4 4 3 5 2 6 1 7 8 8 9 9 10 10 11 11 12 13 13 14
REMARK SMILES IDX 21 15 14 16 18 17 15 18 16 19 19 20 20 21 17 22
REMARK H PARENT 11 12 17 23
REMARK Flexibility Score: inf
ROOT
ATOM      1  C   UNL     1      96.843  97.029  75.460  1.00  0.00     0.010 C 
ENDROOT
BRANCH   1   2
ATOM      2  C   UNL     1      96.157  96.981  74.065  1.00  0.00     0.001 C 
BRANCH   2   3
ATOM      3  C   UNL     1      95.015  95.924  74.006  1.00  0.00     0.000 C 
BRANCH   3   4
ATOM      4  C   UNL     1      94.580  95.393  75.401  1.00  0.00    -0.000 C 
BRANCH   4   5
ATOM      5  C   UNL     1      93.145  95.846  75.794  1.00  0.00    -0.000 C 
BRANCH   5   6
ATOM      6  C   UNL     1      92.171  94.650  75.973  1.00  0.00    -0.003 C 
ATOM      7  C   UNL     1      91.100  94.905  77.057  1.00  0.00     0.004 C 
ENDBRANCH   5   6
ENDBRANCH   4   5
ENDBRANCH   3   4
ENDBRANCH   2   3
ENDBRANCH   1   2
BRANCH   1   8
ATOM      8  C   UNL     1      98.316  97.524  75.420  1.00  0.00     0.100 C 
BRANCH   8   9
ATOM      9  C   UNL     1      99.074  97.061  76.608  1.00  0.00     0.220 C 
ATOM     10  O   UNL     1     100.301  97.315  76.667  1.00  0.00    -0.275 OA
ATOM     11  N   UNL     1      98.440  96.399  77.620  1.00  0.00    -0.352 N 
ATOM     12  H   UNL     1      97.475  96.172  77.431  1.00  0.00     0.163 HD
BRANCH  11  13
ATOM     13  C   UNL     1      99.027  96.029  78.872  1.00  0.00     0.151 C 
BRANCH  13  14
ATOM     14  C   UNL     1      98.164  95.147  79.702  1.00  0.00    -0.025 A 
ATOM     15  C   UNL     1      96.810  94.934  79.346  1.00  0.00     0.056 A 
ATOM     16  C   UNL     1      98.673  94.511  80.858  1.00  0.00     0.009 A 
ATOM     17  C   UNL     1      95.983  94.085  80.116  1.00  0.00     0.160 A 
ATOM     18  C   UNL     1      97.856  93.664  81.627  1.00  0.00     0.050 A 
ATOM     19  C   UNL     1      96.511  93.454  81.266  1.00  0.00     0.157 A 
BRANCH  17  20
ATOM     20  O   UNL     1      94.660  93.913  79.793  1.00  0.00    -0.493 OA
ATOM     21  C   UNL     1      94.442  93.168  78.583  1.00  0.00     0.278 C 
ENDBRANCH  17  20
BRANCH  19  22
ATOM     22  O   UNL     1      95.722  92.657  82.030  1.00  0.00    -0.504 OA
ATOM     23  H   UNL     1      95.716  91.769  81.665  1.00  0.00     0.293 HD
ENDBRANCH  19  22
ENDBRANCH  13  14
ENDBRANCH  11  13
ENDBRANCH   8   9
ENDBRANCH   1   8
TORSDOF 11
ENDMDL
MODEL 7
REMARK VINA RESULT:    -5.272     12.239     14.560
REMARK INTER + INTRA:          -9.402
REMARK INTER:                  -8.756
REMARK INTRA:                  -0.646
REMARK UNBOUND:                -0.893
REMARK SMILES CCCCCCCCC(=O)NCc1ccc(O)c(OC)c1
REMARK SMILES IDX 7 1 6 2 5 3 4 4 3 5 2 6 1 7 8 8 9 9 10 10 11 11 12 13 13 14
REMARK SMILES IDX 21 15 14 16 18 17 15 18 16 19 19 20 20 21 17 22
REMARK H PARENT 11 12 17 23
REMARK Flexibility Score: inf
ROOT
ATOM      1  C   UNL     1      97.040  82.460  82.844  1.00  0.00     0.010 C 
ENDROOT
BRANCH   1   2
ATOM      2  C   UNL     1      96.417  81.324  81.982  1.00  0.00     0.001 C 
BRANCH   2   3
ATOM      3  C   UNL     1      97.502  80.441  81.299  1.00  0.00     0.000 C 
BRANCH   3   4
ATOM      4  C   UNL     1      98.218  81.137  80.106  1.00  0.00    -0.000 C 
BRANCH   4   5
ATOM      5  C   UNL     1      97.281  82.100  79.324  1.00  0.00    -0.000 C 
BRANCH   5   6
ATOM      6  C   UNL     1      96.905  81.555  77.920  1.00  0.00    -0.003 C 
ATOM      7  C   UNL     1      95.890  82.454  77.179  1.00  0.00     0.004 C 
ENDBRANCH   5   6
ENDBRANCH   4   5
ENDBRANCH   3   4
ENDBRANCH   2   3
ENDBRANCH   1   2
BRANCH   1   8
ATOM      8  C   UNL     1      96.057  83.622  83.159  1.00  0.00     0.100 C 
BRANCH   8   9
ATOM      9  C   UNL     1      95.562  83.548  84.555  1.00  0.00     0.220 C 
ATOM     10  O   UNL     1      96.208  82.856  85.379  1.00  0.00    -0.275 OA
ATOM     11  N   UNL     1      94.448  84.240  84.934  1.00  0.00    -0.352 N 
ATOM     12  H   UNL     1      93.959  84.691  84.175  1.00  0.00     0.163 HD
BRANCH  11  13
ATOM     13  C   UNL     1      93.955  84.362  86.271  1.00  0.00     0.151 C 
BRANCH  13  14
ATOM     14  C   UNL     1      92.715  83.582  86.528  1.00  0.00    -0.025 A 
ATOM     15  C   UNL     1      92.392  82.469  85.715  1.00  0.00     0.056 A 
ATOM     16  C   UNL     1      91.838  83.936  87.580  1.00  0.00     0.009 A 
ATOM     17  C   UNL     1      91.225  81.708  85.958  1.00  0.00     0.160 A 
ATOM     18  C   UNL     1      90.677  83.182  87.828  1.00  0.00     0.050 A 
ATOM     19  C   UNL     1      90.363  82.074  87.017  1.00  0.00     0.157 A 
BRANCH  17  20
ATOM     20  O   UNL     1      90.892  80.655  85.143  1.00  0.00    -0.493 OA
ATOM     21  C   UNL     1      91.878  79.609  85.101  1.00  0.00     0.278 C 
ENDBRANCH  17  20
BRANCH  19  22
ATOM     22  O   UNL     1      89.226  81.370  87.246  1.00  0.00    -0.504 OA
ATOM     23  H   UNL     1      88.845  81.641  88.085  1.00  0.00     0.293 HD
ENDBRANCH  19  22
ENDBRANCH  13  14
ENDBRANCH  11  13
ENDBRANCH   8   9
ENDBRANCH   1   8
TORSDOF 11
ENDMDL
MODEL 8
REMARK VINA RESULT:    -5.163     25.485     30.021
REMARK INTER + INTRA:          -9.225
REMARK INTER:                  -8.101
REMARK INTRA:                  -1.124
REMARK UNBOUND:                -0.893
REMARK SMILES CCCCCCCCC(=O)NCc1ccc(O)c(OC)c1
REMARK SMILES IDX 7 1 6 2 5 3 4 4 3 5 2 6 1 7 8 8 9 9 10 10 11 11 12 13 13 14
REMARK SMILES IDX 21 15 14 16 18 17 15 18 16 19 19 20 20 21 17 22
REMARK H PARENT 11 12 17 23
REMARK Flexibility Score: inf
ROOT
ATOM      1  C   UNL     1      81.572  64.275  76.020  1.00  0.00     0.010 C 
ENDROOT
BRANCH   1   2
ATOM      2  C   UNL     1      80.225  64.416  75.254  1.00  0.00     0.001 C 
BRANCH   2   3
ATOM      3  C   UNL     1      80.274  65.542  74.179  1.00  0.00     0.000 C 
BRANCH   3   4
ATOM      4  C   UNL     1      81.137  65.184  72.935  1.00  0.00    -0.000 C 
BRANCH   4   5
ATOM      5  C   UNL     1      81.030  66.246  71.805  1.00  0.00    -0.000 C 
BRANCH   5   6
ATOM      6  C   UNL     1      81.097  65.617  70.387  1.00  0.00    -0.003 C 
ATOM      7  C   UNL     1      81.102  66.674  69.261  1.00  0.00     0.004 C 
ENDBRANCH   5   6
ENDBRANCH   4   5
ENDBRANCH   3   4
ENDBRANCH   2   3
ENDBRANCH   1   2
BRANCH   1   8
ATOM      8  C   UNL     1      82.211  65.633  76.426  1.00  0.00     0.100 C 
BRANCH   8   9
ATOM      9  C   UNL     1      83.494  65.859  75.718  1.00  0.00     0.220 C 
ATOM     10  O   UNL     1      83.999  64.903  75.082  1.00  0.00    -0.275 OA
ATOM     11  N   UNL     1      84.090  67.087  75.738  1.00  0.00    -0.352 N 
ATOM     12  H   UNL     1      83.646  67.757  76.348  1.00  0.00     0.163 HD
BRANCH  11  13
ATOM     13  C   UNL     1      85.246  67.468  74.985  1.00  0.00     0.151 C 
BRANCH  13  14
ATOM     14  C   UNL     1      84.958  68.424  73.883  1.00  0.00    -0.025 A 
ATOM     15  C   UNL     1      85.304  69.790  74.017  1.00  0.00     0.056 A 
ATOM     16  C   UNL     1      84.334  67.992  72.690  1.00  0.00     0.009 A 
ATOM     17  C   UNL     1      85.052  70.708  72.971  1.00  0.00     0.160 A 
ATOM     18  C   UNL     1      84.081  68.900  71.646  1.00  0.00     0.050 A 
ATOM     19  C   UNL     1      84.431  70.257  71.785  1.00  0.00     0.157 A 
BRANCH  17  20
ATOM     20  O   UNL     1      85.349  72.039  73.120  1.00  0.00    -0.493 OA
ATOM     21  C   UNL     1      86.159  72.337  74.271  1.00  0.00     0.278 C 
ENDBRANCH  17  20
BRANCH  19  22
ATOM     22  O   UNL     1      84.158  71.131  70.782  1.00  0.00    -0.504 OA
ATOM     23  H   UNL     1      84.224  70.679  69.937  1.00  0.00     0.293 HD
ENDBRANCH  19  22
ENDBRANCH  13  14
ENDBRANCH  11  13
ENDBRANCH   8   9
ENDBRANCH   1   8
TORSDOF 11
ENDMDL
MODEL 9
REMARK VINA RESULT:    -5.056     12.899     15.255
REMARK INTER + INTRA:          -9.052
REMARK INTER:                  -8.476
REMARK INTRA:                  -0.576
REMARK UNBOUND:                -0.893
REMARK SMILES CCCCCCCCC(=O)NCc1ccc(O)c(OC)c1
REMARK SMILES IDX 7 1 6 2 5 3 4 4 3 5 2 6 1 7 8 8 9 9 10 10 11 11 12 13 13 14
REMARK SMILES IDX 21 15 14 16 18 17 15 18 16 19 19 20 20 21 17 22
REMARK H PARENT 11 12 17 23
REMARK Flexibility Score: inf
ROOT
ATOM      1  C   UNL     1      97.013  82.373  82.325  1.00  0.00     0.010 C 
ENDROOT
BRANCH   1   2
ATOM      2  C   UNL     1      96.508  81.010  81.772  1.00  0.00     0.001 C 
BRANCH   2   3
ATOM      3  C   UNL     1      97.533  80.353  80.800  1.00  0.00     0.000 C 
BRANCH   3   4
ATOM      4  C   UNL     1      98.139  81.342  79.766  1.00  0.00    -0.000 C 
BRANCH   4   5
ATOM      5  C   UNL     1      97.097  81.830  78.720  1.00  0.00    -0.000 C 
BRANCH   5   6
ATOM      6  C   UNL     1      97.722  82.061  77.318  1.00  0.00    -0.003 C 
ATOM      7  C   UNL     1      96.878  81.452  76.177  1.00  0.00     0.004 C 
ENDBRANCH   5   6
ENDBRANCH   4   5
ENDBRANCH   3   4
ENDBRANCH   2   3
ENDBRANCH   1   2
BRANCH   1   8
ATOM      8  C   UNL     1      95.901  83.237  82.983  1.00  0.00     0.100 C 
BRANCH   8   9
ATOM      9  C   UNL     1      95.468  82.663  84.280  1.00  0.00     0.220 C 
ATOM     10  O   UNL     1      96.340  82.450  85.156  1.00  0.00    -0.275 OA
ATOM     11  N   UNL     1      94.149  82.403  84.518  1.00  0.00    -0.352 N 
ATOM     12  H   UNL     1      93.547  82.530  83.718  1.00  0.00     0.163 HD
BRANCH  11  13
ATOM     13  C   UNL     1      93.592  81.986  85.769  1.00  0.00     0.151 C 
BRANCH  13  14
ATOM     14  C   UNL     1      92.144  81.652  85.701  1.00  0.00    -0.025 A 
ATOM     15  C   UNL     1      91.331  81.773  86.853  1.00  0.00     0.056 A 
ATOM     16  C   UNL     1      91.557  81.208  84.494  1.00  0.00     0.009 A 
ATOM     17  C   UNL     1      89.949  81.476  86.799  1.00  0.00     0.160 A 
ATOM     18  C   UNL     1      90.183  80.912  84.433  1.00  0.00     0.050 A 
ATOM     19  C   UNL     1      89.379  81.037  85.583  1.00  0.00     0.157 A 
BRANCH  17  20
ATOM     20  O   UNL     1      89.171  81.552  87.926  1.00  0.00    -0.493 OA
ATOM     21  C   UNL     1      89.870  81.246  89.146  1.00  0.00     0.278 C 
ENDBRANCH  17  20
BRANCH  19  22
ATOM     22  O   UNL     1      88.060  80.723  85.521  1.00  0.00    -0.504 OA
ATOM     23  H   UNL     1      87.941  79.949  84.965  1.00  0.00     0.293 HD
ENDBRANCH  19  22
ENDBRANCH  13  14
ENDBRANCH  11  13
ENDBRANCH   8   9
ENDBRANCH   1   8
TORSDOF 11
ENDMDL
MODEL 10
REMARK VINA RESULT:    -5.019     12.266     14.235
REMARK INTER + INTRA:          -8.993
REMARK INTER:                  -8.044
REMARK INTRA:                  -0.948
REMARK UNBOUND:                -0.893
REMARK SMILES CCCCCCCCC(=O)NCc1ccc(O)c(OC)c1
REMARK SMILES IDX 7 1 6 2 5 3 4 4 3 5 2 6 1 7 8 8 9 9 10 10 11 11 12 13 13 14
REMARK SMILES IDX 21 15 14 16 18 17 15 18 16 19 19 20 20 21 17 22
REMARK H PARENT 11 12 17 23
REMARK Flexibility Score: inf
ROOT
ATOM      1  C   UNL     1      97.361  80.587  75.193  1.00  0.00     0.010 C 
ENDROOT
BRANCH   1   2
ATOM      2  C   UNL     1      96.997  81.499  73.986  1.00  0.00     0.001 C 
BRANCH   2   3
ATOM      3  C   UNL     1      98.015  82.663  73.799  1.00  0.00     0.000 C 
BRANCH   3   4
ATOM      4  C   UNL     1      99.267  82.554  74.715  1.00  0.00    -0.000 C 
BRANCH   4   5
ATOM      5  C   UNL     1     100.589  82.885  73.966  1.00  0.00    -0.000 C 
BRANCH   5   6
ATOM      6  C   UNL     1     101.637  81.745  74.075  1.00  0.00    -0.003 C 
ATOM      7  C   UNL     1     101.010  80.389  74.467  1.00  0.00     0.004 C 
ENDBRANCH   5   6
ENDBRANCH   4   5
ENDBRANCH   3   4
ENDBRANCH   2   3
ENDBRANCH   1   2
BRANCH   1   8
ATOM      8  C   UNL     1      96.381  80.712  76.394  1.00  0.00     0.100 C 
BRANCH   8   9
ATOM      9  C   UNL     1      96.994  81.466  77.514  1.00  0.00     0.220 C 
ATOM     10  O   UNL     1      96.970  82.719  77.472  1.00  0.00    -0.275 OA
ATOM     11  N   UNL     1      97.543  80.806  78.576  1.00  0.00    -0.352 N 
ATOM     12  H   UNL     1      97.586  79.803  78.468  1.00  0.00     0.163 HD
BRANCH  11  13
ATOM     13  C   UNL     1      98.034  81.414  79.775  1.00  0.00     0.151 C 
BRANCH  13  14
ATOM     14  C   UNL     1      97.246  81.072  80.989  1.00  0.00    -0.025 A 
ATOM     15  C   UNL     1      96.670  82.097  81.777  1.00  0.00     0.056 A 
ATOM     16  C   UNL     1      97.062  79.726  81.380  1.00  0.00     0.009 A 
ATOM     17  C   UNL     1      95.905  81.786  82.924  1.00  0.00     0.160 A 
ATOM     18  C   UNL     1      96.301  79.410  82.520  1.00  0.00     0.050 A 
ATOM     19  C   UNL     1      95.728  80.435  83.297  1.00  0.00     0.157 A 
BRANCH  17  20
ATOM     20  O   UNL     1      95.383  82.783  83.710  1.00  0.00    -0.493 OA
ATOM     21  C   UNL     1      95.972  84.076  83.490  1.00  0.00     0.278 C 
ENDBRANCH  17  20
BRANCH  19  22
ATOM     22  O   UNL     1      95.018  80.121  84.411  1.00  0.00    -0.504 OA
ATOM     23  H   UNL     1      94.600  80.913  84.758  1.00  0.00     0.293 HD
ENDBRANCH  19  22
ENDBRANCH  13  14
ENDBRANCH  11  13
ENDBRANCH   8   9
ENDBRANCH   1   8
TORSDOF 11
ENDMDL
