MODEL 1
REMARK VINA RESULT:    -6.537      0.000      0.000
REMARK INTER + INTRA:         -11.072
REMARK INTER:                 -10.167
REMARK INTRA:                  -0.904
REMARK UNBOUND:                -0.904
REMARK SMILES COc1cc(CNC(=O)CCCC/C=C/C(C)C)ccc1O
REMARK SMILES IDX 10 1 8 2 7 3 9 5 6 6 5 7 3 8 21 9 4 10 20 11 19 12 2 13 1 14
REMARK SMILES IDX 22 15 11 17 12 18 13 19 14 20 15 21 16 22 17 23 18 24
REMARK H PARENT 7 4 22 16
REMARK Flexibility Score: inf
ROOT
ATOM      1  C   UNL     1      94.153  93.701  75.305  1.00  0.00     0.100 C 
ENDROOT
BRANCH   1   2
ATOM      2  C   UNL     1      92.699  93.536  75.492  1.00  0.00     0.220 C 
ATOM      3  N   UNL     1      92.213  92.868  76.576  1.00  0.00    -0.352 N 
ATOM      4  H   UNL     1      92.917  92.494  77.197  1.00  0.00     0.163 HD
ATOM      5  O   UNL     1      91.930  94.046  74.642  1.00  0.00    -0.275 OA
BRANCH   3   6
ATOM      6  C   UNL     1      90.827  92.682  76.865  1.00  0.00     0.151 C 
BRANCH   6   7
ATOM      7  C   UNL     1      90.334  91.373  76.355  1.00  0.00    -0.025 A 
ATOM      8  C   UNL     1      89.426  90.011  74.516  1.00  0.00     0.160 A 
ATOM      9  C   UNL     1      89.408  88.881  75.361  1.00  0.00     0.157 A 
ATOM     10  C   UNL     1      89.886  91.245  75.021  1.00  0.00     0.056 A 
ATOM     11  C   UNL     1      89.833  88.999  76.699  1.00  0.00     0.050 A 
ATOM     12  C   UNL     1      90.302  90.233  77.191  1.00  0.00     0.009 A 
BRANCH   8  13
ATOM     13  O   UNL     1      88.952  89.917  73.233  1.00  0.00    -0.493 OA
ATOM     14  C   UNL     1      87.624  90.442  73.058  1.00  0.00     0.278 C 
ENDBRANCH   8  13
BRANCH   9  15
ATOM     15  O   UNL     1      88.984  87.675  74.903  1.00  0.00    -0.504 OA
ATOM     16  H   UNL     1      88.233  87.801  74.319  1.00  0.00     0.293 HD
ENDBRANCH   9  15
ENDBRANCH   6   7
ENDBRANCH   3   6
ENDBRANCH   1   2
BRANCH   1  17
ATOM     17  C   UNL     1      94.603  95.163  75.573  1.00  0.00     0.010 C 
BRANCH  17  18
ATOM     18  C   UNL     1      95.823  95.255  76.532  1.00  0.00     0.005 C 
BRANCH  18  19
ATOM     19  C   UNL     1      96.094  93.917  77.272  1.00  0.00     0.027 C 
BRANCH  19  20
ATOM     20  C   UNL     1      95.933  94.045  78.712  1.00  0.00    -0.031 C 
ATOM     21  C   UNL     1      95.430  95.134  79.322  1.00  0.00    -0.028 C 
BRANCH  21  22
ATOM     22  C   UNL     1      95.257  95.234  80.771  1.00  0.00     0.005 C 
ATOM     23  C   UNL     1      95.776  93.972  81.514  1.00  0.00     0.012 C 
ATOM     24  C   UNL     1      95.949  96.514  81.306  1.00  0.00     0.012 C 
ENDBRANCH  21  22
ENDBRANCH  19  20
ENDBRANCH  18  19
ENDBRANCH  17  18
ENDBRANCH   1  17
TORSDOF 10
ENDMDL
MODEL 2
REMARK VINA RESULT:    -5.906      2.007      3.411
REMARK INTER + INTRA:         -10.090
REMARK INTER:                  -9.283
REMARK INTRA:                  -0.807
REMARK UNBOUND:                -0.904
REMARK SMILES COc1cc(CNC(=O)CCCC/C=C/C(C)C)ccc1O
REMARK SMILES IDX 10 1 8 2 7 3 9 5 6 6 5 7 3 8 21 9 4 10 20 11 19 12 2 13 1 14
REMARK SMILES IDX 22 15 11 17 12 18 13 19 14 20 15 21 16 22 17 23 18 24
REMARK H PARENT 7 4 22 16
REMARK Flexibility Score: inf
ROOT
ATOM      1  C   UNL     1      95.722  94.082  77.550  1.00  0.00     0.100 C 
ENDROOT
BRANCH   1   2
ATOM      2  C   UNL     1      95.128  93.835  76.222  1.00  0.00     0.220 C 
ATOM      3  N   UNL     1      93.777  93.719  76.080  1.00  0.00    -0.352 N 
ATOM      4  H   UNL     1      93.250  93.790  76.939  1.00  0.00     0.163 HD
ATOM      5  O   UNL     1      95.897  93.761  75.234  1.00  0.00    -0.275 OA
BRANCH   3   6
ATOM      6  C   UNL     1      93.103  93.513  74.838  1.00  0.00     0.151 C 
BRANCH   6   7
ATOM      7  C   UNL     1      92.203  92.329  74.895  1.00  0.00    -0.025 A 
ATOM      8  C   UNL     1      90.830  90.760  76.205  1.00  0.00     0.160 A 
ATOM      9  C   UNL     1      90.470  90.084  75.021  1.00  0.00     0.157 A 
ATOM     10  C   UNL     1      91.693  91.873  76.132  1.00  0.00     0.056 A 
ATOM     11  C   UNL     1      90.986  90.515  73.782  1.00  0.00     0.050 A 
ATOM     12  C   UNL     1      91.838  91.635  73.718  1.00  0.00     0.009 A 
BRANCH   8  13
ATOM     13  O   UNL     1      90.383  90.304  77.419  1.00  0.00    -0.493 OA
ATOM     14  C   UNL     1      90.370  91.305  78.454  1.00  0.00     0.278 C 
ENDBRANCH   8  13
BRANCH   9  15
ATOM     15  O   UNL     1      89.630  89.018  75.055  1.00  0.00    -0.504 OA
ATOM     16  H   UNL     1      89.843  88.419  74.336  1.00  0.00     0.293 HD
ENDBRANCH   9  15
ENDBRANCH   6   7
ENDBRANCH   3   6
ENDBRANCH   1   2
BRANCH   1  17
ATOM     17  C   UNL     1      94.651  94.044  78.673  1.00  0.00     0.010 C 
BRANCH  17  18
ATOM     18  C   UNL     1      94.992  94.980  79.866  1.00  0.00     0.005 C 
BRANCH  18  19
ATOM     19  C   UNL     1      96.426  94.743  80.412  1.00  0.00     0.027 C 
BRANCH  19  20
ATOM     20  C   UNL     1      97.059  95.980  80.846  1.00  0.00    -0.031 C 
ATOM     21  C   UNL     1      96.423  97.162  80.937  1.00  0.00    -0.028 C 
BRANCH  21  22
ATOM     22  C   UNL     1      97.074  98.389  81.395  1.00  0.00     0.005 C 
ATOM     23  C   UNL     1      97.987  99.015  80.304  1.00  0.00     0.012 C 
ATOM     24  C   UNL     1      96.012  99.410  81.880  1.00  0.00     0.012 C 
ENDBRANCH  21  22
ENDBRANCH  19  20
ENDBRANCH  18  19
ENDBRANCH  17  18
ENDBRANCH   1  17
TORSDOF 10
ENDMDL
MODEL 3
REMARK VINA RESULT:    -5.834     17.052     19.708
REMARK INTER + INTRA:          -9.978
REMARK INTER:                  -9.150
REMARK INTRA:                  -0.828
REMARK UNBOUND:                -0.904
REMARK SMILES COc1cc(CNC(=O)CCCC/C=C/C(C)C)ccc1O
REMARK SMILES IDX 10 1 8 2 7 3 9 5 6 6 5 7 3 8 21 9 4 10 20 11 19 12 2 13 1 14
REMARK SMILES IDX 22 15 11 17 12 18 13 19 14 20 15 21 16 22 17 23 18 24
REMARK H PARENT 7 4 22 16
REMARK Flexibility Score: inf
ROOT
ATOM      1  C   UNL     1      76.504  89.619  65.386  1.00  0.00     0.100 C 
ENDROOT
BRANCH   1   2
ATOM      2  C   UNL     1      76.864  90.902  64.753  1.00  0.00     0.220 C 
ATOM      3  N   UNL     1      76.225  92.052  65.109  1.00  0.00    -0.352 N 
ATOM      4  H   UNL     1      75.497  91.938  65.801  1.00  0.00     0.163 HD
ATOM      5  O   UNL     1      77.785  90.904  63.900  1.00  0.00    -0.275 OA
BRANCH   3   6
ATOM      6  C   UNL     1      76.520  93.345  64.581  1.00  0.00     0.151 C 
BRANCH   6   7
ATOM      7  C   UNL     1      77.480  94.083  65.447  1.00  0.00    -0.025 A 
ATOM      8  C   UNL     1      78.063  95.052  67.634  1.00  0.00     0.160 A 
ATOM      9  C   UNL     1      79.306  95.472  67.117  1.00  0.00     0.157 A 
ATOM     10  C   UNL     1      77.162  94.364  66.795  1.00  0.00     0.056 A 
ATOM     11  C   UNL     1      79.629  95.217  65.770  1.00  0.00     0.050 A 
ATOM     12  C   UNL     1      78.727  94.519  64.943  1.00  0.00     0.009 A 
BRANCH   8  13
ATOM     13  O   UNL     1      77.717  95.356  68.926  1.00  0.00    -0.493 OA
ATOM     14  C   UNL     1      76.404  95.930  69.062  1.00  0.00     0.278 C 
ENDBRANCH   8  13
BRANCH   9  15
ATOM     15  O   UNL     1      80.202  96.125  67.902  1.00  0.00    -0.504 OA
ATOM     16  H   UNL     1      79.738  96.571  68.615  1.00  0.00     0.293 HD
ENDBRANCH   9  15
ENDBRANCH   6   7
ENDBRANCH   3   6
ENDBRANCH   1   2
BRANCH   1  17
ATOM     17  C   UNL     1      77.625  88.559  65.210  1.00  0.00     0.010 C 
BRANCH  17  18
ATOM     18  C   UNL     1      78.227  88.084  66.562  1.00  0.00     0.005 C 
BRANCH  18  19
ATOM     19  C   UNL     1      78.324  86.538  66.655  1.00  0.00     0.027 C 
BRANCH  19  20
ATOM     20  C   UNL     1      77.272  85.972  67.484  1.00  0.00    -0.031 C 
ATOM     21  C   UNL     1      76.014  85.747  67.062  1.00  0.00    -0.028 C 
BRANCH  21  22
ATOM     22  C   UNL     1      74.976  85.158  67.908  1.00  0.00     0.005 C 
ATOM     23  C   UNL     1      75.569  84.251  69.021  1.00  0.00     0.012 C 
ATOM     24  C   UNL     1      74.086  86.272  68.517  1.00  0.00     0.012 C 
ENDBRANCH  21  22
ENDBRANCH  19  20
ENDBRANCH  18  19
ENDBRANCH  17  18
ENDBRANCH   1  17
TORSDOF 10
ENDMDL
MODEL 4
REMARK VINA RESULT:    -5.832     12.147     14.131
REMARK INTER + INTRA:          -9.975
REMARK INTER:                  -9.332
REMARK INTRA:                  -0.643
REMARK UNBOUND:                -0.904
REMARK SMILES COc1cc(CNC(=O)CCCC/C=C/C(C)C)ccc1O
REMARK SMILES IDX 10 1 8 2 7 3 9 5 6 6 5 7 3 8 21 9 4 10 20 11 19 12 2 13 1 14
REMARK SMILES IDX 22 15 11 17 12 18 13 19 14 20 15 21 16 22 17 23 18 24
REMARK H PARENT 7 4 22 16
REMARK Flexibility Score: inf
ROOT
ATOM      1  C   UNL     1      95.891  81.689  84.900  1.00  0.00     0.100 C 
ENDROOT
BRANCH   1   2
ATOM      2  C   UNL     1      94.632  81.922  85.632  1.00  0.00     0.220 C 
ATOM      3  N   UNL     1      93.460  82.086  84.957  1.00  0.00    -0.352 N 
ATOM      4  H   UNL     1      93.540  82.058  83.950  1.00  0.00     0.163 HD
ATOM      5  O   UNL     1      94.671  81.941  86.886  1.00  0.00    -0.275 OA
BRANCH   3   6
ATOM      6  C   UNL     1      92.186  82.285  85.571  1.00  0.00     0.151 C 
BRANCH   6   7
ATOM      7  C   UNL     1      91.279  81.128  85.337  1.00  0.00    -0.025 A 
ATOM      8  C   UNL     1      89.005  80.231  85.045  1.00  0.00     0.160 A 
ATOM      9  C   UNL     1      89.537  78.937  84.870  1.00  0.00     0.157 A 
ATOM     10  C   UNL     1      89.880  81.313  85.279  1.00  0.00     0.056 A 
ATOM     11  C   UNL     1      90.930  78.734  84.944  1.00  0.00     0.050 A 
ATOM     12  C   UNL     1      91.796  79.822  85.166  1.00  0.00     0.009 A 
BRANCH   8  13
ATOM     13  O   UNL     1      87.647  80.422  85.039  1.00  0.00    -0.493 OA
ATOM     14  C   UNL     1      87.112  80.795  83.756  1.00  0.00     0.278 C 
ENDBRANCH   8  13
BRANCH   9  15
ATOM     15  O   UNL     1      88.724  77.876  84.630  1.00  0.00    -0.504 OA
ATOM     16  H   UNL     1      87.819  78.111  84.846  1.00  0.00     0.293 HD
ENDBRANCH   9  15
ENDBRANCH   6   7
ENDBRANCH   3   6
ENDBRANCH   1   2
BRANCH   1  17
ATOM     17  C   UNL     1      95.859  82.329  83.486  1.00  0.00     0.010 C 
BRANCH  17  18
ATOM     18  C   UNL     1      96.873  81.679  82.504  1.00  0.00     0.005 C 
BRANCH  18  19
ATOM     19  C   UNL     1      97.649  82.735  81.671  1.00  0.00     0.027 C 
BRANCH  19  20
ATOM     20  C   UNL     1      97.613  82.443  80.246  1.00  0.00    -0.031 C 
ATOM     21  C   UNL     1      96.510  82.544  79.481  1.00  0.00    -0.028 C 
BRANCH  21  22
ATOM     22  C   UNL     1      96.501  82.264  78.046  1.00  0.00     0.005 C 
ATOM     23  C   UNL     1      97.393  83.255  77.247  1.00  0.00     0.012 C 
ATOM     24  C   UNL     1      96.931  80.798  77.783  1.00  0.00     0.012 C 
ENDBRANCH  21  22
ENDBRANCH  19  20
ENDBRANCH  18  19
ENDBRANCH  17  18
ENDBRANCH   1  17
TORSDOF 10
ENDMDL
MODEL 5
REMARK VINA RESULT:    -5.780      2.204      3.349
REMARK INTER + INTRA:          -9.895
REMARK INTER:                  -9.140
REMARK INTRA:                  -0.755
REMARK UNBOUND:                -0.904
REMARK SMILES COc1cc(CNC(=O)CCCC/C=C/C(C)C)ccc1O
REMARK SMILES IDX 10 1 8 2 7 3 9 5 6 6 5 7 3 8 21 9 4 10 20 11 19 12 2 13 1 14
REMARK SMILES IDX 22 15 11 17 12 18 13 19 14 20 15 21 16 22 17 23 18 24
REMARK H PARENT 7 4 22 16
REMARK Flexibility Score: inf
ROOT
ATOM      1  C   UNL     1      96.262  94.638  77.286  1.00  0.00     0.100 C 
ENDROOT
BRANCH   1   2
ATOM      2  C   UNL     1      95.463  94.122  76.158  1.00  0.00     0.220 C 
ATOM      3  N   UNL     1      94.118  93.942  76.289  1.00  0.00    -0.352 N 
ATOM      4  H   UNL     1      93.745  94.163  77.202  1.00  0.00     0.163 HD
ATOM      5  O   UNL     1      96.051  93.880  75.077  1.00  0.00    -0.275 OA
BRANCH   3   6
ATOM      6  C   UNL     1      93.253  93.480  75.251  1.00  0.00     0.151 C 
BRANCH   6   7
ATOM      7  C   UNL     1      92.204  92.567  75.781  1.00  0.00    -0.025 A 
ATOM      8  C   UNL     1      90.720  90.625  75.477  1.00  0.00     0.160 A 
ATOM      9  C   UNL     1      90.217  90.804  76.783  1.00  0.00     0.157 A 
ATOM     10  C   UNL     1      91.706  91.508  74.989  1.00  0.00     0.056 A 
ATOM     11  C   UNL     1      90.690  91.867  77.578  1.00  0.00     0.050 A 
ATOM     12  C   UNL     1      91.683  92.736  77.085  1.00  0.00     0.009 A 
BRANCH   8  13
ATOM     13  O   UNL     1      90.216  89.632  74.676  1.00  0.00    -0.493 OA
ATOM     14  C   UNL     1      90.237  89.945  73.271  1.00  0.00     0.278 C 
ENDBRANCH   8  13
BRANCH   9  15
ATOM     15  O   UNL     1      89.278  89.964  77.289  1.00  0.00    -0.504 OA
ATOM     16  H   UNL     1      88.490  90.463  77.515  1.00  0.00     0.293 HD
ENDBRANCH   9  15
ENDBRANCH   6   7
ENDBRANCH   3   6
ENDBRANCH   1   2
BRANCH   1  17
ATOM     17  C   UNL     1      95.549  94.409  78.646  1.00  0.00     0.010 C 
BRANCH  17  18
ATOM     18  C   UNL     1      95.908  95.487  79.707  1.00  0.00     0.005 C 
BRANCH  18  19
ATOM     19  C   UNL     1      97.366  95.999  79.559  1.00  0.00     0.027 C 
BRANCH  19  20
ATOM     20  C   UNL     1      97.467  97.434  79.781  1.00  0.00    -0.031 C 
ATOM     21  C   UNL     1      96.693  98.122  80.639  1.00  0.00    -0.028 C 
BRANCH  21  22
ATOM     22  C   UNL     1      96.826  99.562  80.862  1.00  0.00     0.005 C 
ATOM     23  C   UNL     1      97.142 100.334  79.551  1.00  0.00     0.012 C 
ATOM     24  C   UNL     1      95.547 100.120  81.538  1.00  0.00     0.012 C 
ENDBRANCH  21  22
ENDBRANCH  19  20
ENDBRANCH  18  19
ENDBRANCH  17  18
ENDBRANCH   1  17
TORSDOF 10
ENDMDL
MODEL 6
REMARK VINA RESULT:    -5.759     12.882     14.604
REMARK INTER + INTRA:          -9.862
REMARK INTER:                  -7.806
REMARK INTRA:                  -2.055
REMARK UNBOUND:                -0.904
REMARK SMILES COc1cc(CNC(=O)CCCC/C=C/C(C)C)ccc1O
REMARK SMILES IDX 10 1 8 2 7 3 9 5 6 6 5 7 3 8 21 9 4 10 20 11 19 12 2 13 1 14
REMARK SMILES IDX 22 15 11 17 12 18 13 19 14 20 15 21 16 22 17 23 18 24
REMARK H PARENT 7 4 22 16
REMARK Flexibility Score: inf
ROOT
ATOM      1  C   UNL     1     102.324  81.111  81.639  1.00  0.00     0.100 C 
ENDROOT
BRANCH   1   2
ATOM      2  C   UNL     1     100.851  81.155  81.723  1.00  0.00     0.220 C 
ATOM      3  N   UNL     1     100.165  82.244  81.275  1.00  0.00    -0.352 N 
ATOM      4  H   UNL     1     100.742  82.993  80.918  1.00  0.00     0.163 HD
ATOM      5  O   UNL     1     100.255  80.157  82.196  1.00  0.00    -0.275 OA
BRANCH   3   6
ATOM      6  C   UNL     1      98.743  82.372  81.283  1.00  0.00     0.151 C 
BRANCH   6   7
ATOM      7  C   UNL     1      98.197  82.485  79.903  1.00  0.00    -0.025 A 
ATOM      8  C   UNL     1      98.565  82.763  77.484  1.00  0.00     0.160 A 
ATOM      9  C   UNL     1      97.174  82.685  77.263  1.00  0.00     0.157 A 
ATOM     10  C   UNL     1      99.062  82.665  78.801  1.00  0.00     0.056 A 
ATOM     11  C   UNL     1      96.297  82.525  78.355  1.00  0.00     0.050 A 
ATOM     12  C   UNL     1      96.805  82.416  79.664  1.00  0.00     0.009 A 
BRANCH   8  13
ATOM     13  O   UNL     1      99.417  82.985  76.433  1.00  0.00    -0.493 OA
ATOM     14  C   UNL     1      99.724  81.804  75.668  1.00  0.00     0.278 C 
ENDBRANCH   8  13
BRANCH   9  15
ATOM     15  O   UNL     1      96.663  82.762  76.007  1.00  0.00    -0.504 OA
ATOM     16  H   UNL     1      97.109  82.129  75.440  1.00  0.00     0.293 HD
ENDBRANCH   9  15
ENDBRANCH   6   7
ENDBRANCH   3   6
ENDBRANCH   1   2
BRANCH   1  17
ATOM     17  C   UNL     1     102.806  80.072  80.590  1.00  0.00     0.010 C 
BRANCH  17  18
ATOM     18  C   UNL     1     102.687  80.589  79.128  1.00  0.00     0.005 C 
BRANCH  18  19
ATOM     19  C   UNL     1     102.137  79.506  78.162  1.00  0.00     0.027 C 
BRANCH  19  20
ATOM     20  C   UNL     1     100.855  78.978  78.605  1.00  0.00    -0.031 C 
ATOM     21  C   UNL     1      99.705  79.111  77.919  1.00  0.00    -0.028 C 
BRANCH  21  22
ATOM     22  C   UNL     1      98.431  78.555  78.373  1.00  0.00     0.005 C 
ATOM     23  C   UNL     1      98.161  78.851  79.875  1.00  0.00     0.012 C 
ATOM     24  C   UNL     1      97.270  79.080  77.489  1.00  0.00     0.012 C 
ENDBRANCH  21  22
ENDBRANCH  19  20
ENDBRANCH  18  19
ENDBRANCH  17  18
ENDBRANCH   1  17
TORSDOF 10
ENDMDL
MODEL 7
REMARK VINA RESULT:    -5.758     11.125     13.355
REMARK INTER + INTRA:          -9.860
REMARK INTER:                  -9.241
REMARK INTRA:                  -0.619
REMARK UNBOUND:                -0.904
REMARK SMILES COc1cc(CNC(=O)CCCC/C=C/C(C)C)ccc1O
REMARK SMILES IDX 10 1 8 2 7 3 9 5 6 6 5 7 3 8 21 9 4 10 20 11 19 12 2 13 1 14
REMARK SMILES IDX 22 15 11 17 12 18 13 19 14 20 15 21 16 22 17 23 18 24
REMARK H PARENT 7 4 22 16
REMARK Flexibility Score: inf
ROOT
ATOM      1  C   UNL     1      96.493  83.220  82.610  1.00  0.00     0.100 C 
ENDROOT
BRANCH   1   2
ATOM      2  C   UNL     1      96.343  84.371  83.521  1.00  0.00     0.220 C 
ATOM      3  N   UNL     1      95.352  84.387  84.457  1.00  0.00    -0.352 N 
ATOM      4  H   UNL     1      94.744  83.580  84.448  1.00  0.00     0.163 HD
ATOM      5  O   UNL     1      97.163  85.315  83.424  1.00  0.00    -0.275 OA
BRANCH   3   6
ATOM      6  C   UNL     1      95.142  85.435  85.403  1.00  0.00     0.151 C 
BRANCH   6   7
ATOM      7  C   UNL     1      94.009  85.126  86.318  1.00  0.00    -0.025 A 
ATOM      8  C   UNL     1      92.040  83.759  86.882  1.00  0.00     0.160 A 
ATOM      9  C   UNL     1      91.855  84.510  88.061  1.00  0.00     0.157 A 
ATOM     10  C   UNL     1      93.112  84.075  86.022  1.00  0.00     0.056 A 
ATOM     11  C   UNL     1      92.730  85.574  88.361  1.00  0.00     0.050 A 
ATOM     12  C   UNL     1      93.805  85.874  87.501  1.00  0.00     0.009 A 
BRANCH   8  13
ATOM     13  O   UNL     1      91.153  82.766  86.553  1.00  0.00    -0.493 OA
ATOM     14  C   UNL     1      91.698  81.756  85.685  1.00  0.00     0.278 C 
ENDBRANCH   8  13
BRANCH   9  15
ATOM     15  O   UNL     1      90.841  84.224  88.918  1.00  0.00    -0.504 OA
ATOM     16  H   UNL     1      91.196  83.807  89.707  1.00  0.00     0.293 HD
ENDBRANCH   9  15
ENDBRANCH   6   7
ENDBRANCH   3   6
ENDBRANCH   1   2
BRANCH   1  17
ATOM     17  C   UNL     1      97.980  82.980  82.231  1.00  0.00     0.010 C 
BRANCH  17  18
ATOM     18  C   UNL     1      98.162  82.523  80.757  1.00  0.00     0.005 C 
BRANCH  18  19
ATOM     19  C   UNL     1      96.807  82.230  80.058  1.00  0.00     0.027 C 
BRANCH  19  20
ATOM     20  C   UNL     1      96.759  82.771  78.708  1.00  0.00    -0.031 C 
ATOM     21  C   UNL     1      97.061  82.068  77.601  1.00  0.00    -0.028 C 
BRANCH  21  22
ATOM     22  C   UNL     1      96.987  82.627  76.251  1.00  0.00     0.005 C 
ATOM     23  C   UNL     1      97.705  84.001  76.142  1.00  0.00     0.012 C 
ATOM     24  C   UNL     1      97.562  81.620  75.221  1.00  0.00     0.012 C 
ENDBRANCH  21  22
ENDBRANCH  19  20
ENDBRANCH  18  19
ENDBRANCH  17  18
ENDBRANCH   1  17
TORSDOF 10
ENDMDL
MODEL 8
REMARK VINA RESULT:    -5.689     20.301     24.450
REMARK INTER + INTRA:          -9.752
REMARK INTER:                  -8.734
REMARK INTRA:                  -1.018
REMARK UNBOUND:                -0.904
REMARK SMILES COc1cc(CNC(=O)CCCC/C=C/C(C)C)ccc1O
REMARK SMILES IDX 10 1 8 2 7 3 9 5 6 6 5 7 3 8 21 9 4 10 20 11 19 12 2 13 1 14
REMARK SMILES IDX 22 15 11 17 12 18 13 19 14 20 15 21 16 22 17 23 18 24
REMARK H PARENT 7 4 22 16
REMARK Flexibility Score: inf
ROOT
ATOM      1  C   UNL     1      73.752  80.680  63.543  1.00  0.00     0.100 C 
ENDROOT
BRANCH   1   2
ATOM      2  C   UNL     1      72.340  81.082  63.689  1.00  0.00     0.220 C 
ATOM      3  N   UNL     1      72.001  82.399  63.775  1.00  0.00    -0.352 N 
ATOM      4  H   UNL     1      72.781  83.042  63.754  1.00  0.00     0.163 HD
ATOM      5  O   UNL     1      71.467  80.181  63.708  1.00  0.00    -0.275 OA
BRANCH   3   6
ATOM      6  C   UNL     1      70.665  82.892  63.886  1.00  0.00     0.151 C 
BRANCH   6   7
ATOM      7  C   UNL     1      70.361  83.338  65.273  1.00  0.00    -0.025 A 
ATOM      8  C   UNL     1      70.905  84.735  67.227  1.00  0.00     0.160 A 
ATOM      9  C   UNL     1      69.785  84.216  67.910  1.00  0.00     0.157 A 
ATOM     10  C   UNL     1      71.184  84.290  65.918  1.00  0.00     0.056 A 
ATOM     11  C   UNL     1      68.967  83.253  67.287  1.00  0.00     0.050 A 
ATOM     12  C   UNL     1      69.247  82.823  65.975  1.00  0.00     0.009 A 
BRANCH   8  13
ATOM     13  O   UNL     1      71.741  85.623  67.853  1.00  0.00    -0.493 OA
ATOM     14  C   UNL     1      71.539  86.994  67.463  1.00  0.00     0.278 C 
ENDBRANCH   8  13
BRANCH   9  15
ATOM     15  O   UNL     1      69.481  84.633  69.166  1.00  0.00    -0.504 OA
ATOM     16  H   UNL     1      69.707  83.944  69.796  1.00  0.00     0.293 HD
ENDBRANCH   9  15
ENDBRANCH   6   7
ENDBRANCH   3   6
ENDBRANCH   1   2
BRANCH   1  17
ATOM     17  C   UNL     1      74.545  80.884  64.861  1.00  0.00     0.010 C 
BRANCH  17  18
ATOM     18  C   UNL     1      76.031  81.275  64.620  1.00  0.00     0.005 C 
BRANCH  18  19
ATOM     19  C   UNL     1      76.220  82.808  64.464  1.00  0.00     0.027 C 
BRANCH  19  20
ATOM     20  C   UNL     1      76.655  83.434  65.704  1.00  0.00    -0.031 C 
ATOM     21  C   UNL     1      75.870  83.596  66.784  1.00  0.00    -0.028 C 
BRANCH  21  22
ATOM     22  C   UNL     1      76.333  84.211  68.028  1.00  0.00     0.005 C 
ATOM     23  C   UNL     1      77.312  85.391  67.773  1.00  0.00     0.012 C 
ATOM     24  C   UNL     1      75.123  84.671  68.882  1.00  0.00     0.012 C 
ENDBRANCH  21  22
ENDBRANCH  19  20
ENDBRANCH  18  19
ENDBRANCH  17  18
ENDBRANCH   1  17
TORSDOF 10
ENDMDL
MODEL 9
REMARK VINA RESULT:    -5.571     13.939     16.515
REMARK INTER + INTRA:          -9.569
REMARK INTER:                  -8.435
REMARK INTRA:                  -1.135
REMARK UNBOUND:                -0.904
REMARK SMILES COc1cc(CNC(=O)CCCC/C=C/C(C)C)ccc1O
REMARK SMILES IDX 10 1 8 2 7 3 9 5 6 6 5 7 3 8 21 9 4 10 20 11 19 12 2 13 1 14
REMARK SMILES IDX 22 15 11 17 12 18 13 19 14 20 15 21 16 22 17 23 18 24
REMARK H PARENT 7 4 22 16
REMARK Flexibility Score: inf
ROOT
ATOM      1  C   UNL     1      80.275  86.069  86.160  1.00  0.00     0.100 C 
ENDROOT
BRANCH   1   2
ATOM      2  C   UNL     1      80.793  87.110  85.252  1.00  0.00     0.220 C 
ATOM      3  N   UNL     1      80.539  88.427  85.493  1.00  0.00    -0.352 N 
ATOM      4  H   UNL     1      79.964  88.608  86.305  1.00  0.00     0.163 HD
ATOM      5  O   UNL     1      81.490  86.749  84.273  1.00  0.00    -0.275 OA
BRANCH   3   6
ATOM      6  C   UNL     1      81.020  89.510  84.697  1.00  0.00     0.151 C 
BRANCH   6   7
ATOM      7  C   UNL     1      82.319  90.027  85.206  1.00  0.00    -0.025 A 
ATOM      8  C   UNL     1      83.660  90.981  87.037  1.00  0.00     0.160 A 
ATOM      9  C   UNL     1      84.794  91.000  86.198  1.00  0.00     0.157 A 
ATOM     10  C   UNL     1      82.435  90.497  86.533  1.00  0.00     0.056 A 
ATOM     11  C   UNL     1      84.689  90.553  84.866  1.00  0.00     0.050 A 
ATOM     12  C   UNL     1      83.464  90.061  84.376  1.00  0.00     0.009 A 
BRANCH   8  13
ATOM     13  O   UNL     1      83.741  91.476  88.314  1.00  0.00    -0.493 OA
ATOM     14  C   UNL     1      82.730  92.451  88.630  1.00  0.00     0.278 C 
ENDBRANCH   8  13
BRANCH   9  15
ATOM     15  O   UNL     1      85.992  91.446  86.657  1.00  0.00    -0.504 OA
ATOM     16  H   UNL     1      86.110  91.169  87.568  1.00  0.00     0.293 HD
ENDBRANCH   9  15
ENDBRANCH   6   7
ENDBRANCH   3   6
ENDBRANCH   1   2
BRANCH   1  17
ATOM     17  C   UNL     1      80.669  86.347  87.635  1.00  0.00     0.010 C 
BRANCH  17  18
ATOM     18  C   UNL     1      79.496  86.925  88.476  1.00  0.00     0.005 C 
BRANCH  18  19
ATOM     19  C   UNL     1      79.606  86.551  89.979  1.00  0.00     0.027 C 
BRANCH  19  20
ATOM     20  C   UNL     1      80.171  87.632  90.772  1.00  0.00    -0.031 C 
ATOM     21  C   UNL     1      81.460  88.015  90.720  1.00  0.00    -0.028 C 
BRANCH  21  22
ATOM     22  C   UNL     1      82.001  89.119  91.513  1.00  0.00     0.005 C 
ATOM     23  C   UNL     1      83.489  89.413  91.173  1.00  0.00     0.012 C 
ATOM     24  C   UNL     1      81.130  90.388  91.329  1.00  0.00     0.012 C 
ENDBRANCH  21  22
ENDBRANCH  19  20
ENDBRANCH  18  19
ENDBRANCH  17  18
ENDBRANCH   1  17
TORSDOF 10
ENDMDL
MODEL 10
REMARK VINA RESULT:    -5.476     26.134     28.924
REMARK INTER + INTRA:          -9.421
REMARK INTER:                  -7.415
REMARK INTRA:                  -2.005
REMARK UNBOUND:                -0.904
REMARK SMILES COc1cc(CNC(=O)CCCC/C=C/C(C)C)ccc1O
REMARK SMILES IDX 10 1 8 2 7 3 9 5 6 6 5 7 3 8 21 9 4 10 20 11 19 12 2 13 1 14
REMARK SMILES IDX 22 15 11 17 12 18 13 19 14 20 15 21 16 22 17 23 18 24
REMARK H PARENT 7 4 22 16
REMARK Flexibility Score: inf
ROOT
ATOM      1  C   UNL     1      84.798  65.558  77.368  1.00  0.00     0.100 C 
ENDROOT
BRANCH   1   2
ATOM      2  C   UNL     1      84.331  66.672  76.520  1.00  0.00     0.220 C 
ATOM      3  N   UNL     1      85.118  67.156  75.519  1.00  0.00    -0.352 N 
ATOM      4  H   UNL     1      86.022  66.712  75.434  1.00  0.00     0.163 HD
ATOM      5  O   UNL     1      83.187  67.140  76.735  1.00  0.00    -0.275 OA
BRANCH   3   6
ATOM      6  C   UNL     1      84.747  68.206  74.625  1.00  0.00     0.151 C 
BRANCH   6   7
ATOM      7  C   UNL     1      84.387  67.678  73.281  1.00  0.00    -0.025 A 
ATOM      8  C   UNL     1      84.836  66.147  71.405  1.00  0.00     0.160 A 
ATOM      9  C   UNL     1      83.704  66.645  70.727  1.00  0.00     0.157 A 
ATOM     10  C   UNL     1      85.168  66.669  72.673  1.00  0.00     0.056 A 
ATOM     11  C   UNL     1      82.928  67.665  71.312  1.00  0.00     0.050 A 
ATOM     12  C   UNL     1      83.260  68.171  72.583  1.00  0.00     0.009 A 
BRANCH   8  13
ATOM     13  O   UNL     1      85.632  65.201  70.811  1.00  0.00    -0.493 OA
ATOM     14  C   UNL     1      85.314  63.848  71.184  1.00  0.00     0.278 C 
ENDBRANCH   8  13
BRANCH   9  15
ATOM     15  O   UNL     1      83.349  66.156  69.511  1.00  0.00    -0.504 OA
ATOM     16  H   UNL     1      83.279  66.878  68.882  1.00  0.00     0.293 HD
ENDBRANCH   9  15
ENDBRANCH   6   7
ENDBRANCH   3   6
ENDBRANCH   1   2
BRANCH   1  17
ATOM     17  C   UNL     1      83.895  64.305  77.216  1.00  0.00     0.010 C 
BRANCH  17  18
ATOM     18  C   UNL     1      84.413  63.312  76.138  1.00  0.00     0.005 C 
BRANCH  18  19
ATOM     19  C   UNL     1      83.997  63.730  74.702  1.00  0.00     0.027 C 
BRANCH  19  20
ATOM     20  C   UNL     1      82.567  63.977  74.596  1.00  0.00    -0.031 C 
ATOM     21  C   UNL     1      82.007  64.795  73.687  1.00  0.00    -0.028 C 
BRANCH  21  22
ATOM     22  C   UNL     1      80.564  65.014  73.587  1.00  0.00     0.005 C 
ATOM     23  C   UNL     1      80.151  65.594  72.205  1.00  0.00     0.012 C 
ATOM     24  C   UNL     1      79.800  63.698  73.885  1.00  0.00     0.012 C 
ENDBRANCH  21  22
ENDBRANCH  19  20
ENDBRANCH  18  19
ENDBRANCH  17  18
ENDBRANCH   1  17
TORSDOF 10
ENDMDL
