MODEL 1
REMARK VINA RESULT:    -6.568      0.000      0.000
REMARK INTER + INTRA:         -11.044
REMARK INTER:                 -10.600
REMARK INTRA:                  -0.444
REMARK UNBOUND:                -0.444
REMARK SMILES COc1cc(CNC(=O)CCCCC/C=C/C(C)C)ccc1O
REMARK SMILES IDX 11 1 10 2 8 3 7 4 9 6 6 7 5 8 3 9 22 10 4 11 21 12 20 13
REMARK SMILES IDX 2 14 1 15 23 16 12 18 13 19 14 20 15 21 16 22 17 23 18 24
REMARK SMILES IDX 19 25
REMARK H PARENT 7 5 23 17
REMARK Flexibility Score: inf
ROOT
ATOM      1  C   UNL     1      96.151  82.486  83.889  1.00  0.00     0.010 C 
ENDROOT
BRANCH   1   2
ATOM      2  C   UNL     1      96.181  83.289  82.563  1.00  0.00     0.100 C 
BRANCH   2   3
ATOM      3  C   UNL     1      96.878  82.602  81.460  1.00  0.00     0.220 C 
ATOM      4  N   UNL     1      97.581  83.326  80.546  1.00  0.00    -0.352 N 
ATOM      5  H   UNL     1      97.509  84.328  80.657  1.00  0.00     0.163 HD
ATOM      6  O   UNL     1      96.837  81.349  81.418  1.00  0.00    -0.275 OA
BRANCH   4   7
ATOM      7  C   UNL     1      98.376  82.785  79.493  1.00  0.00     0.151 C 
BRANCH   7   8
ATOM      8  C   UNL     1      97.955  83.268  78.152  1.00  0.00    -0.025 A 
ATOM      9  C   UNL     1      98.446  83.674  75.777  1.00  0.00     0.160 A 
ATOM     10  C   UNL     1      97.164  84.240  75.609  1.00  0.00     0.157 A 
ATOM     11  C   UNL     1      98.835  83.201  77.046  1.00  0.00     0.056 A 
ATOM     12  C   UNL     1      96.274  84.296  76.698  1.00  0.00     0.050 A 
ATOM     13  C   UNL     1      96.663  83.804  77.957  1.00  0.00     0.009 A 
BRANCH   9  14
ATOM     14  O   UNL     1      99.287  83.534  74.704  1.00  0.00    -0.493 OA
ATOM     15  C   UNL     1      99.242  82.237  74.087  1.00  0.00     0.278 C 
ENDBRANCH   9  14
BRANCH  10  16
ATOM     16  O   UNL     1      96.761  84.732  74.411  1.00  0.00    -0.504 OA
ATOM     17  H   UNL     1      95.811  84.871  74.425  1.00  0.00     0.293 HD
ENDBRANCH  10  16
ENDBRANCH   7   8
ENDBRANCH   4   7
ENDBRANCH   2   3
ENDBRANCH   1   2
BRANCH   1  18
ATOM     18  C   UNL     1      94.930  81.532  83.938  1.00  0.00     0.001 C 
BRANCH  18  19
ATOM     19  C   UNL     1      93.623  82.217  84.411  1.00  0.00     0.004 C 
BRANCH  19  20
ATOM     20  C   UNL     1      92.687  81.212  85.138  1.00  0.00     0.027 C 
BRANCH  20  21
ATOM     21  C   UNL     1      91.363  81.115  84.549  1.00  0.00    -0.031 C 
ATOM     22  C   UNL     1      90.406  82.033  84.776  1.00  0.00    -0.028 C 
BRANCH  22  23
ATOM     23  C   UNL     1      89.068  81.967  84.195  1.00  0.00     0.005 C 
ATOM     24  C   UNL     1      88.659  80.490  83.950  1.00  0.00     0.012 C 
ATOM     25  C   UNL     1      88.053  82.718  85.099  1.00  0.00     0.012 C 
ENDBRANCH  22  23
ENDBRANCH  20  21
ENDBRANCH  19  20
ENDBRANCH  18  19
ENDBRANCH   1  18
TORSDOF 11
ENDMDL
MODEL 2
REMARK VINA RESULT:    -6.505      2.254      4.189
REMARK INTER + INTRA:         -10.943
REMARK INTER:                 -10.288
REMARK INTRA:                  -0.655
REMARK UNBOUND:                -0.444
REMARK SMILES COc1cc(CNC(=O)CCCCC/C=C/C(C)C)ccc1O
REMARK SMILES IDX 11 1 10 2 8 3 7 4 9 6 6 7 5 8 3 9 22 10 4 11 21 12 20 13
REMARK SMILES IDX 2 14 1 15 23 16 12 18 13 19 14 20 15 21 16 22 17 23 18 24
REMARK SMILES IDX 19 25
REMARK H PARENT 7 5 23 17
REMARK Flexibility Score: inf
ROOT
ATOM      1  C   UNL     1      93.565  82.179  85.563  1.00  0.00     0.010 C 
ENDROOT
BRANCH   1   2
ATOM      2  C   UNL     1      93.774  83.714  85.627  1.00  0.00     0.100 C 
BRANCH   2   3
ATOM      3  C   UNL     1      94.891  84.203  84.797  1.00  0.00     0.220 C 
ATOM      4  N   UNL     1      95.170  83.596  83.610  1.00  0.00    -0.352 N 
ATOM      5  H   UNL     1      94.611  82.777  83.414  1.00  0.00     0.163 HD
ATOM      6  O   UNL     1      95.535  85.203  85.195  1.00  0.00    -0.275 OA
BRANCH   4   7
ATOM      7  C   UNL     1      96.153  84.026  82.670  1.00  0.00     0.151 C 
BRANCH   7   8
ATOM      8  C   UNL     1      96.642  82.919  81.808  1.00  0.00    -0.025 A 
ATOM      9  C   UNL     1      97.504  82.112  79.650  1.00  0.00     0.160 A 
ATOM     10  C   UNL     1      97.524  80.793  80.152  1.00  0.00     0.157 A 
ATOM     11  C   UNL     1      97.056  83.162  80.478  1.00  0.00     0.056 A 
ATOM     12  C   UNL     1      97.131  80.541  81.480  1.00  0.00     0.050 A 
ATOM     13  C   UNL     1      96.704  81.598  82.305  1.00  0.00     0.009 A 
BRANCH   9  14
ATOM     14  O   UNL     1      97.967  82.381  78.389  1.00  0.00    -0.493 OA
ATOM     15  C   UNL     1      97.432  83.583  77.811  1.00  0.00     0.278 C 
ENDBRANCH   9  14
BRANCH  10  16
ATOM     16  O   UNL     1      97.921  79.751  79.380  1.00  0.00    -0.504 OA
ATOM     17  H   UNL     1      98.403  79.119  79.919  1.00  0.00     0.293 HD
ENDBRANCH  10  16
ENDBRANCH   7   8
ENDBRANCH   4   7
ENDBRANCH   2   3
ENDBRANCH   1   2
BRANCH   1  18
ATOM     18  C   UNL     1      92.405  81.812  84.603  1.00  0.00     0.001 C 
BRANCH  18  19
ATOM     19  C   UNL     1      91.048  81.595  85.320  1.00  0.00     0.004 C 
BRANCH  19  20
ATOM     20  C   UNL     1      89.983  81.009  84.352  1.00  0.00     0.027 C 
BRANCH  20  21
ATOM     21  C   UNL     1      88.868  81.905  84.098  1.00  0.00    -0.031 C 
ATOM     22  C   UNL     1      87.676  81.759  84.704  1.00  0.00    -0.028 C 
BRANCH  22  23
ATOM     23  C   UNL     1      86.538  82.646  84.475  1.00  0.00     0.005 C 
ATOM     24  C   UNL     1      86.662  83.919  85.354  1.00  0.00     0.012 C 
ATOM     25  C   UNL     1      86.415  82.982  82.964  1.00  0.00     0.012 C 
ENDBRANCH  22  23
ENDBRANCH  20  21
ENDBRANCH  19  20
ENDBRANCH  18  19
ENDBRANCH   1  18
TORSDOF 11
ENDMDL
MODEL 3
REMARK VINA RESULT:    -6.482      7.311      9.778
REMARK INTER + INTRA:         -10.906
REMARK INTER:                  -9.860
REMARK INTRA:                  -1.045
REMARK UNBOUND:                -0.444
REMARK SMILES COc1cc(CNC(=O)CCCCC/C=C/C(C)C)ccc1O
REMARK SMILES IDX 11 1 10 2 8 3 7 4 9 6 6 7 5 8 3 9 22 10 4 11 21 12 20 13
REMARK SMILES IDX 2 14 1 15 23 16 12 18 13 19 14 20 15 21 16 22 17 23 18 24
REMARK SMILES IDX 19 25
REMARK H PARENT 7 5 23 17
REMARK Flexibility Score: inf
ROOT
ATOM      1  C   UNL     1      92.932  81.514  87.567  1.00  0.00     0.010 C 
ENDROOT
BRANCH   1   2
ATOM      2  C   UNL     1      92.716  82.256  86.223  1.00  0.00     0.100 C 
BRANCH   2   3
ATOM      3  C   UNL     1      92.029  81.451  85.196  1.00  0.00     0.220 C 
ATOM      4  N   UNL     1      90.828  80.875  85.478  1.00  0.00    -0.352 N 
ATOM      5  H   UNL     1      90.520  80.988  86.433  1.00  0.00     0.163 HD
ATOM      6  O   UNL     1      92.558  81.352  84.064  1.00  0.00    -0.275 OA
BRANCH   4   7
ATOM      7  C   UNL     1      90.015  80.156  84.551  1.00  0.00     0.151 C 
BRANCH   7   8
ATOM      8  C   UNL     1      88.824  80.930  84.114  1.00  0.00    -0.025 A 
ATOM      9  C   UNL     1      87.417  82.943  84.249  1.00  0.00     0.160 A 
ATOM     10  C   UNL     1      86.522  82.379  83.314  1.00  0.00     0.157 A 
ATOM     11  C   UNL     1      88.555  82.212  84.648  1.00  0.00     0.056 A 
ATOM     12  C   UNL     1      86.789  81.112  82.763  1.00  0.00     0.050 A 
ATOM     13  C   UNL     1      87.937  80.397  83.152  1.00  0.00     0.009 A 
BRANCH   9  14
ATOM     14  O   UNL     1      87.214  84.211  84.725  1.00  0.00    -0.493 OA
ATOM     15  C   UNL     1      86.455  84.266  85.944  1.00  0.00     0.278 C 
ENDBRANCH   9  14
BRANCH  10  16
ATOM     16  O   UNL     1      85.402  83.037  82.925  1.00  0.00    -0.504 OA
ATOM     17  H   UNL     1      85.103  83.607  83.638  1.00  0.00     0.293 HD
ENDBRANCH  10  16
ENDBRANCH   7   8
ENDBRANCH   4   7
ENDBRANCH   2   3
ENDBRANCH   1   2
BRANCH   1  18
ATOM     18  C   UNL     1      93.572  80.120  87.339  1.00  0.00     0.001 C 
BRANCH  18  19
ATOM     19  C   UNL     1      95.013  80.181  86.775  1.00  0.00     0.004 C 
BRANCH  19  20
ATOM     20  C   UNL     1      95.090  79.569  85.348  1.00  0.00     0.027 C 
BRANCH  20  21
ATOM     21  C   UNL     1      94.485  78.251  85.245  1.00  0.00    -0.031 C 
ATOM     22  C   UNL     1      93.443  78.001  84.432  1.00  0.00    -0.028 C 
BRANCH  22  23
ATOM     23  C   UNL     1      92.817  76.687  84.301  1.00  0.00     0.005 C 
ATOM     24  C   UNL     1      92.194  76.527  82.889  1.00  0.00     0.012 C 
ATOM     25  C   UNL     1      93.844  75.568  84.623  1.00  0.00     0.012 C 
ENDBRANCH  22  23
ENDBRANCH  20  21
ENDBRANCH  19  20
ENDBRANCH  18  19
ENDBRANCH   1  18
TORSDOF 11
ENDMDL
MODEL 4
REMARK VINA RESULT:    -6.298      6.457     10.036
REMARK INTER + INTRA:         -10.608
REMARK INTER:                  -9.794
REMARK INTRA:                  -0.815
REMARK UNBOUND:                -0.444
REMARK SMILES COc1cc(CNC(=O)CCCCC/C=C/C(C)C)ccc1O
REMARK SMILES IDX 11 1 10 2 8 3 7 4 9 6 6 7 5 8 3 9 22 10 4 11 21 12 20 13
REMARK SMILES IDX 2 14 1 15 23 16 12 18 13 19 14 20 15 21 16 22 17 23 18 24
REMARK SMILES IDX 19 25
REMARK H PARENT 7 5 23 17
REMARK Flexibility Score: inf
ROOT
ATOM      1  C   UNL     1      92.705  75.469  81.774  1.00  0.00     0.010 C 
ENDROOT
BRANCH   1   2
ATOM      2  C   UNL     1      91.943  74.959  83.024  1.00  0.00     0.100 C 
BRANCH   2   3
ATOM      3  C   UNL     1      90.865  75.857  83.478  1.00  0.00     0.220 C 
ATOM      4  N   UNL     1      91.166  77.110  83.918  1.00  0.00    -0.352 N 
ATOM      5  H   UNL     1      92.155  77.312  83.968  1.00  0.00     0.163 HD
ATOM      6  O   UNL     1      89.681  75.449  83.408  1.00  0.00    -0.275 OA
BRANCH   4   7
ATOM      7  C   UNL     1      90.218  78.108  84.291  1.00  0.00     0.151 C 
BRANCH   7   8
ATOM      8  C   UNL     1      90.813  79.469  84.350  1.00  0.00    -0.025 A 
ATOM      9  C   UNL     1      92.751  80.939  84.715  1.00  0.00     0.160 A 
ATOM     10  C   UNL     1      91.929  82.070  84.514  1.00  0.00     0.157 A 
ATOM     11  C   UNL     1      92.186  79.650  84.640  1.00  0.00     0.056 A 
ATOM     12  C   UNL     1      90.566  81.902  84.207  1.00  0.00     0.050 A 
ATOM     13  C   UNL     1      90.014  80.610  84.116  1.00  0.00     0.009 A 
BRANCH   9  14
ATOM     14  O   UNL     1      94.095  81.089  84.926  1.00  0.00    -0.493 OA
ATOM     15  C   UNL     1      94.478  81.068  86.312  1.00  0.00     0.278 C 
ENDBRANCH   9  14
BRANCH  10  16
ATOM     16  O   UNL     1      92.428  83.328  84.604  1.00  0.00    -0.504 OA
ATOM     17  H   UNL     1      91.711  83.944  84.776  1.00  0.00     0.293 HD
ENDBRANCH  10  16
ENDBRANCH   7   8
ENDBRANCH   4   7
ENDBRANCH   2   3
ENDBRANCH   1   2
BRANCH   1  18
ATOM     18  C   UNL     1      92.296  74.676  80.507  1.00  0.00     0.001 C 
BRANCH  18  19
ATOM     19  C   UNL     1      91.069  75.270  79.769  1.00  0.00     0.004 C 
BRANCH  19  20
ATOM     20  C   UNL     1      90.809  74.539  78.422  1.00  0.00     0.027 C 
BRANCH  20  21
ATOM     21  C   UNL     1      90.600  75.438  77.300  1.00  0.00    -0.031 C 
ATOM     22  C   UNL     1      91.004  76.721  77.323  1.00  0.00    -0.028 C 
BRANCH  22  23
ATOM     23  C   UNL     1      90.813  77.649  76.210  1.00  0.00     0.005 C 
ATOM     24  C   UNL     1      92.162  78.314  75.828  1.00  0.00     0.012 C 
ATOM     25  C   UNL     1      90.154  76.918  75.009  1.00  0.00     0.012 C 
ENDBRANCH  22  23
ENDBRANCH  20  21
ENDBRANCH  19  20
ENDBRANCH  18  19
ENDBRANCH   1  18
TORSDOF 11
ENDMDL
MODEL 5
REMARK VINA RESULT:    -6.044      2.956     10.394
REMARK INTER + INTRA:         -10.198
REMARK INTER:                  -9.444
REMARK INTRA:                  -0.754
REMARK UNBOUND:                -0.444
REMARK SMILES COc1cc(CNC(=O)CCCCC/C=C/C(C)C)ccc1O
REMARK SMILES IDX 11 1 10 2 8 3 7 4 9 6 6 7 5 8 3 9 22 10 4 11 21 12 20 13
REMARK SMILES IDX 2 14 1 15 23 16 12 18 13 19 14 20 15 21 16 22 17 23 18 24
REMARK SMILES IDX 19 25
REMARK H PARENT 7 5 23 17
REMARK Flexibility Score: inf
ROOT
ATOM      1  C   UNL     1      98.253  83.126  78.827  1.00  0.00     0.010 C 
ENDROOT
BRANCH   1   2
ATOM      2  C   UNL     1      97.098  83.533  79.779  1.00  0.00     0.100 C 
BRANCH   2   3
ATOM      3  C   UNL     1      97.035  82.739  81.020  1.00  0.00     0.220 C 
ATOM      4  N   UNL     1      97.037  83.368  82.228  1.00  0.00    -0.352 N 
ATOM      5  H   UNL     1      97.158  84.370  82.181  1.00  0.00     0.163 HD
ATOM      6  O   UNL     1      96.940  81.492  80.926  1.00  0.00    -0.275 OA
BRANCH   4   7
ATOM      7  C   UNL     1      96.883  82.731  83.495  1.00  0.00     0.151 C 
BRANCH   7   8
ATOM      8  C   UNL     1      95.502  82.845  84.030  1.00  0.00    -0.025 A 
ATOM      9  C   UNL     1      93.767  84.127  85.212  1.00  0.00     0.160 A 
ATOM     10  C   UNL     1      92.881  83.035  85.094  1.00  0.00     0.157 A 
ATOM     11  C   UNL     1      95.072  84.021  84.688  1.00  0.00     0.056 A 
ATOM     12  C   UNL     1      93.292  81.866  84.426  1.00  0.00     0.050 A 
ATOM     13  C   UNL     1      94.589  81.776  83.889  1.00  0.00     0.009 A 
BRANCH   9  14
ATOM     14  O   UNL     1      93.349  85.300  85.782  1.00  0.00    -0.493 OA
ATOM     15  C   UNL     1      94.061  86.462  85.324  1.00  0.00     0.278 C 
ENDBRANCH   9  14
BRANCH  10  16
ATOM     16  O   UNL     1      91.627  83.086  85.609  1.00  0.00    -0.504 OA
ATOM     17  H   UNL     1      90.994  82.822  84.937  1.00  0.00     0.293 HD
ENDBRANCH  10  16
ENDBRANCH   7   8
ENDBRANCH   4   7
ENDBRANCH   2   3
ENDBRANCH   1   2
BRANCH   1  18
ATOM     18  C   UNL     1      97.887  83.415  77.349  1.00  0.00     0.001 C 
BRANCH  18  19
ATOM     19  C   UNL     1      98.060  82.191  76.414  1.00  0.00     0.004 C 
BRANCH  19  20
ATOM     20  C   UNL     1      99.462  82.184  75.742  1.00  0.00     0.027 C 
BRANCH  20  21
ATOM     21  C   UNL     1      99.749  83.386  74.978  1.00  0.00    -0.031 C 
ATOM     22  C   UNL     1     100.961  83.970  74.986  1.00  0.00    -0.028 C 
BRANCH  22  23
ATOM     23  C   UNL     1     101.283  85.174  74.225  1.00  0.00     0.005 C 
ATOM     24  C   UNL     1      99.983  85.872  73.746  1.00  0.00     0.012 C 
ATOM     25  C   UNL     1     102.182  86.118  75.070  1.00  0.00     0.012 C 
ENDBRANCH  22  23
ENDBRANCH  20  21
ENDBRANCH  19  20
ENDBRANCH  18  19
ENDBRANCH   1  18
TORSDOF 11
ENDMDL
MODEL 6
REMARK VINA RESULT:    -6.009     23.444     26.505
REMARK INTER + INTRA:         -10.142
REMARK INTER:                  -9.103
REMARK INTRA:                  -1.039
REMARK UNBOUND:                -0.444
REMARK SMILES COc1cc(CNC(=O)CCCCC/C=C/C(C)C)ccc1O
REMARK SMILES IDX 11 1 10 2 8 3 7 4 9 6 6 7 5 8 3 9 22 10 4 11 21 12 20 13
REMARK SMILES IDX 2 14 1 15 23 16 12 18 13 19 14 20 15 21 16 22 17 23 18 24
REMARK SMILES IDX 19 25
REMARK H PARENT 7 5 23 17
REMARK Flexibility Score: inf
ROOT
ATOM      1  C   UNL     1      76.798  84.188  65.830  1.00  0.00     0.010 C 
ENDROOT
BRANCH   1   2
ATOM      2  C   UNL     1      75.557  83.266  65.940  1.00  0.00     0.100 C 
BRANCH   2   3
ATOM      3  C   UNL     1      74.274  83.954  65.700  1.00  0.00     0.220 C 
ATOM      4  N   UNL     1      73.771  84.797  66.644  1.00  0.00    -0.352 N 
ATOM      5  H   UNL     1      74.301  84.833  67.503  1.00  0.00     0.163 HD
ATOM      6  O   UNL     1      73.697  83.772  64.602  1.00  0.00    -0.275 OA
BRANCH   4   7
ATOM      7  C   UNL     1      72.597  85.596  66.501  1.00  0.00     0.151 C 
BRANCH   7   8
ATOM      8  C   UNL     1      71.529  85.221  67.464  1.00  0.00    -0.025 A 
ATOM      9  C   UNL     1      70.124  85.756  69.410  1.00  0.00     0.160 A 
ATOM     10  C   UNL     1      69.529  84.478  69.331  1.00  0.00     0.157 A 
ATOM     11  C   UNL     1      71.125  86.114  68.484  1.00  0.00     0.056 A 
ATOM     12  C   UNL     1      69.912  83.588  68.310  1.00  0.00     0.050 A 
ATOM     13  C   UNL     1      70.897  83.961  67.377  1.00  0.00     0.009 A 
BRANCH   9  14
ATOM     14  O   UNL     1      69.697  86.661  70.345  1.00  0.00    -0.493 OA
ATOM     15  C   UNL     1      68.757  87.625  69.843  1.00  0.00     0.278 C 
ENDBRANCH   9  14
BRANCH  10  16
ATOM     16  O   UNL     1      68.583  84.084  70.220  1.00  0.00    -0.504 OA
ATOM     17  H   UNL     1      68.547  83.124  70.244  1.00  0.00     0.293 HD
ENDBRANCH  10  16
ENDBRANCH   7   8
ENDBRANCH   4   7
ENDBRANCH   2   3
ENDBRANCH   1   2
BRANCH   1  18
ATOM     18  C   UNL     1      77.508  84.335  67.200  1.00  0.00     0.001 C 
BRANCH  18  19
ATOM     19  C   UNL     1      76.548  84.249  68.413  1.00  0.00     0.004 C 
BRANCH  19  20
ATOM     20  C   UNL     1      76.908  85.301  69.498  1.00  0.00     0.027 C 
BRANCH  20  21
ATOM     21  C   UNL     1      77.040  86.653  68.981  1.00  0.00    -0.031 C 
ATOM     22  C   UNL     1      75.981  87.464  68.813  1.00  0.00    -0.028 C 
BRANCH  22  23
ATOM     23  C   UNL     1      76.080  88.829  68.301  1.00  0.00     0.005 C 
ATOM     24  C   UNL     1      75.585  89.841  69.367  1.00  0.00     0.012 C 
ATOM     25  C   UNL     1      77.533  89.124  67.838  1.00  0.00     0.012 C 
ENDBRANCH  22  23
ENDBRANCH  20  21
ENDBRANCH  19  20
ENDBRANCH  18  19
ENDBRANCH   1  18
TORSDOF 11
ENDMDL
MODEL 7
REMARK VINA RESULT:    -5.916      3.837      5.805
REMARK INTER + INTRA:          -9.992
REMARK INTER:                  -9.280
REMARK INTRA:                  -0.712
REMARK UNBOUND:                -0.444
REMARK SMILES COc1cc(CNC(=O)CCCCC/C=C/C(C)C)ccc1O
REMARK SMILES IDX 11 1 10 2 8 3 7 4 9 6 6 7 5 8 3 9 22 10 4 11 21 12 20 13
REMARK SMILES IDX 2 14 1 15 23 16 12 18 13 19 14 20 15 21 16 22 17 23 18 24
REMARK SMILES IDX 19 25
REMARK H PARENT 7 5 23 17
REMARK Flexibility Score: inf
ROOT
ATOM      1  C   UNL     1      98.200  83.189  78.387  1.00  0.00     0.010 C 
ENDROOT
BRANCH   1   2
ATOM      2  C   UNL     1      96.836  83.367  77.672  1.00  0.00     0.100 C 
BRANCH   2   3
ATOM      3  C   UNL     1      96.873  84.303  76.533  1.00  0.00     0.220 C 
ATOM      4  N   UNL     1      97.885  84.224  75.624  1.00  0.00    -0.352 N 
ATOM      5  H   UNL     1      98.602  83.548  75.849  1.00  0.00     0.163 HD
ATOM      6  O   UNL     1      95.938  85.129  76.409  1.00  0.00    -0.275 OA
BRANCH   4   7
ATOM      7  C   UNL     1      97.989  84.998  74.430  1.00  0.00     0.151 C 
BRANCH   7   8
ATOM      8  C   UNL     1      98.765  84.308  73.367  1.00  0.00    -0.025 A 
ATOM      9  C   UNL     1      99.453  82.242  72.223  1.00  0.00     0.160 A 
ATOM     10  C   UNL     1     100.291  82.994  71.371  1.00  0.00     0.157 A 
ATOM     11  C   UNL     1      98.704  82.903  73.219  1.00  0.00     0.056 A 
ATOM     12  C   UNL     1     100.346  84.394  71.498  1.00  0.00     0.050 A 
ATOM     13  C   UNL     1      99.581  85.048  72.482  1.00  0.00     0.009 A 
BRANCH   9  14
ATOM     14  O   UNL     1      99.324  80.890  72.051  1.00  0.00    -0.493 OA
ATOM     15  C   UNL     1     100.062  80.104  73.001  1.00  0.00     0.278 C 
ENDBRANCH   9  14
BRANCH  10  16
ATOM     16  O   UNL     1     101.049  82.394  70.419  1.00  0.00    -0.504 OA
ATOM     17  H   UNL     1     101.896  82.842  70.356  1.00  0.00     0.293 HD
ENDBRANCH  10  16
ENDBRANCH   7   8
ENDBRANCH   4   7
ENDBRANCH   2   3
ENDBRANCH   1   2
BRANCH   1  18
ATOM     18  C   UNL     1      98.010  82.656  79.830  1.00  0.00     0.001 C 
BRANCH  18  19
ATOM     19  C   UNL     1      97.564  81.174  79.893  1.00  0.00     0.004 C 
BRANCH  19  20
ATOM     20  C   UNL     1      96.992  80.813  81.293  1.00  0.00     0.027 C 
BRANCH  20  21
ATOM     21  C   UNL     1      97.219  81.836  82.299  1.00  0.00    -0.031 C 
ATOM     22  C   UNL     1      96.217  82.560  82.827  1.00  0.00    -0.028 C 
BRANCH  22  23
ATOM     23  C   UNL     1      96.412  83.591  83.843  1.00  0.00     0.005 C 
ATOM     24  C   UNL     1      95.879  84.957  83.333  1.00  0.00     0.012 C 
ATOM     25  C   UNL     1      95.747  83.161  85.179  1.00  0.00     0.012 C 
ENDBRANCH  22  23
ENDBRANCH  20  21
ENDBRANCH  19  20
ENDBRANCH  18  19
ENDBRANCH   1  18
TORSDOF 11
ENDMDL
MODEL 8
REMARK VINA RESULT:    -5.857     23.274     26.120
REMARK INTER + INTRA:          -9.897
REMARK INTER:                  -8.207
REMARK INTRA:                  -1.690
REMARK UNBOUND:                -0.444
REMARK SMILES COc1cc(CNC(=O)CCCCC/C=C/C(C)C)ccc1O
REMARK SMILES IDX 11 1 10 2 8 3 7 4 9 6 6 7 5 8 3 9 22 10 4 11 21 12 20 13
REMARK SMILES IDX 2 14 1 15 23 16 12 18 13 19 14 20 15 21 16 22 17 23 18 24
REMARK SMILES IDX 19 25
REMARK H PARENT 7 5 23 17
REMARK Flexibility Score: inf
ROOT
ATOM      1  C   UNL     1      76.928  84.418  66.019  1.00  0.00     0.010 C 
ENDROOT
BRANCH   1   2
ATOM      2  C   UNL     1      75.978  83.213  65.790  1.00  0.00     0.100 C 
BRANCH   2   3
ATOM      3  C   UNL     1      74.568  83.591  65.584  1.00  0.00     0.220 C 
ATOM      4  N   UNL     1      74.157  84.858  65.870  1.00  0.00    -0.352 N 
ATOM      5  H   UNL     1      74.865  85.447  66.286  1.00  0.00     0.163 HD
ATOM      6  O   UNL     1      73.785  82.736  65.108  1.00  0.00    -0.275 OA
BRANCH   4   7
ATOM      7  C   UNL     1      72.852  85.381  65.628  1.00  0.00     0.151 C 
BRANCH   7   8
ATOM      8  C   UNL     1      72.292  86.091  66.807  1.00  0.00    -0.025 A 
ATOM      9  C   UNL     1      70.645  86.242  68.627  1.00  0.00     0.160 A 
ATOM     10  C   UNL     1      71.197  87.479  69.023  1.00  0.00     0.157 A 
ATOM     11  C   UNL     1      71.190  85.563  67.518  1.00  0.00     0.056 A 
ATOM     12  C   UNL     1      72.305  88.006  68.334  1.00  0.00     0.050 A 
ATOM     13  C   UNL     1      72.855  87.313  67.241  1.00  0.00     0.009 A 
BRANCH   9  14
ATOM     14  O   UNL     1      69.623  85.678  69.344  1.00  0.00    -0.493 OA
ATOM     15  C   UNL     1      69.907  84.356  69.831  1.00  0.00     0.278 C 
ENDBRANCH   9  14
BRANCH  10  16
ATOM     16  O   UNL     1      70.684  88.178  70.067  1.00  0.00    -0.504 OA
ATOM     17  H   UNL     1      70.770  89.119  69.894  1.00  0.00     0.293 HD
ENDBRANCH  10  16
ENDBRANCH   7   8
ENDBRANCH   4   7
ENDBRANCH   2   3
ENDBRANCH   1   2
BRANCH   1  18
ATOM     18  C   UNL     1      77.548  84.379  67.439  1.00  0.00     0.001 C 
BRANCH  18  19
ATOM     19  C   UNL     1      76.520  84.086  68.561  1.00  0.00     0.004 C 
BRANCH  19  20
ATOM     20  C   UNL     1      76.442  85.258  69.579  1.00  0.00     0.027 C 
BRANCH  20  21
ATOM     21  C   UNL     1      75.895  86.483  69.020  1.00  0.00    -0.031 C 
ATOM     22  C   UNL     1      76.675  87.511  68.639  1.00  0.00    -0.028 C 
BRANCH  22  23
ATOM     23  C   UNL     1      76.156  88.752  68.069  1.00  0.00     0.005 C 
ATOM     24  C   UNL     1      75.716  89.720  69.199  1.00  0.00     0.012 C 
ATOM     25  C   UNL     1      77.210  89.389  67.123  1.00  0.00     0.012 C 
ENDBRANCH  22  23
ENDBRANCH  20  21
ENDBRANCH  19  20
ENDBRANCH  18  19
ENDBRANCH   1  18
TORSDOF 11
ENDMDL
MODEL 9
REMARK VINA RESULT:    -5.800     15.803     18.576
REMARK INTER + INTRA:          -9.805
REMARK INTER:                  -8.857
REMARK INTRA:                  -0.949
REMARK UNBOUND:                -0.444
REMARK SMILES COc1cc(CNC(=O)CCCCC/C=C/C(C)C)ccc1O
REMARK SMILES IDX 11 1 10 2 8 3 7 4 9 6 6 7 5 8 3 9 22 10 4 11 21 12 20 13
REMARK SMILES IDX 2 14 1 15 23 16 12 18 13 19 14 20 15 21 16 22 17 23 18 24
REMARK SMILES IDX 19 25
REMARK H PARENT 7 5 23 17
REMARK Flexibility Score: inf
ROOT
ATOM      1  C   UNL     1      94.702  97.011  74.334  1.00  0.00     0.010 C 
ENDROOT
BRANCH   1   2
ATOM      2  C   UNL     1      95.188  96.955  72.862  1.00  0.00     0.100 C 
BRANCH   2   3
ATOM      3  C   UNL     1      94.819  98.139  72.063  1.00  0.00     0.220 C 
ATOM      4  N   UNL     1      94.199  99.194  72.661  1.00  0.00    -0.352 N 
ATOM      5  H   UNL     1      93.964  99.049  73.633  1.00  0.00     0.163 HD
ATOM      6  O   UNL     1      95.129  98.158  70.848  1.00  0.00    -0.275 OA
BRANCH   4   7
ATOM      7  C   UNL     1      93.877 100.433  72.030  1.00  0.00     0.151 C 
BRANCH   7   8
ATOM      8  C   UNL     1      92.423 100.573  71.755  1.00  0.00    -0.025 A 
ATOM      9  C   UNL     1      90.250 101.620  72.235  1.00  0.00     0.160 A 
ATOM     10  C   UNL     1      89.640 100.798  71.262  1.00  0.00     0.157 A 
ATOM     11  C   UNL     1      91.632 101.495  72.480  1.00  0.00     0.056 A 
ATOM     12  C   UNL     1      90.420  99.889  70.523  1.00  0.00     0.050 A 
ATOM     13  C   UNL     1      91.803  99.785  70.760  1.00  0.00     0.009 A 
BRANCH   9  14
ATOM     14  O   UNL     1      89.517 102.569  72.897  1.00  0.00    -0.493 OA
ATOM     15  C   UNL     1      89.263 102.257  74.277  1.00  0.00     0.278 C 
ENDBRANCH   9  14
BRANCH  10  16
ATOM     16  O   UNL     1      88.308 100.866  71.015  1.00  0.00    -0.504 OA
ATOM     17  H   UNL     1      88.102 101.711  70.607  1.00  0.00     0.293 HD
ENDBRANCH  10  16
ENDBRANCH   7   8
ENDBRANCH   4   7
ENDBRANCH   2   3
ENDBRANCH   1   2
BRANCH   1  18
ATOM     18  C   UNL     1      93.487  96.075  74.558  1.00  0.00     0.001 C 
BRANCH  18  19
ATOM     19  C   UNL     1      93.550  95.280  75.886  1.00  0.00     0.004 C 
BRANCH  19  20
ATOM     20  C   UNL     1      93.202  96.181  77.104  1.00  0.00     0.027 C 
BRANCH  20  21
ATOM     21  C   UNL     1      94.310  96.377  78.022  1.00  0.00    -0.031 C 
ATOM     22  C   UNL     1      94.776  97.599  78.336  1.00  0.00    -0.028 C 
BRANCH  22  23
ATOM     23  C   UNL     1      95.885  97.830  79.259  1.00  0.00     0.005 C 
ATOM     24  C   UNL     1      95.470  98.850  80.353  1.00  0.00     0.012 C 
ATOM     25  C   UNL     1      96.371  96.484  79.862  1.00  0.00     0.012 C 
ENDBRANCH  22  23
ENDBRANCH  20  21
ENDBRANCH  19  20
ENDBRANCH  18  19
ENDBRANCH   1  18
TORSDOF 11
ENDMDL
MODEL 10
REMARK VINA RESULT:    -5.661      5.176      7.887
REMARK INTER + INTRA:          -9.580
REMARK INTER:                  -8.029
REMARK INTRA:                  -1.551
REMARK UNBOUND:                -0.444
REMARK SMILES COc1cc(CNC(=O)CCCCC/C=C/C(C)C)ccc1O
REMARK SMILES IDX 11 1 10 2 8 3 7 4 9 6 6 7 5 8 3 9 22 10 4 11 21 12 20 13
REMARK SMILES IDX 2 14 1 15 23 16 12 18 13 19 14 20 15 21 16 22 17 23 18 24
REMARK SMILES IDX 19 25
REMARK H PARENT 7 5 23 17
REMARK Flexibility Score: inf
ROOT
ATOM      1  C   UNL     1      96.527  83.582  78.930  1.00  0.00     0.010 C 
ENDROOT
BRANCH   1   2
ATOM      2  C   UNL     1      97.079  82.852  77.679  1.00  0.00     0.100 C 
BRANCH   2   3
ATOM      3  C   UNL     1      97.071  83.672  76.453  1.00  0.00     0.220 C 
ATOM      4  N   UNL     1      97.826  83.299  75.383  1.00  0.00    -0.352 N 
ATOM      5  H   UNL     1      98.415  82.493  75.543  1.00  0.00     0.163 HD
ATOM      6  O   UNL     1      96.327  84.680  76.416  1.00  0.00    -0.275 OA
BRANCH   4   7
ATOM      7  C   UNL     1      97.836  83.943  74.110  1.00  0.00     0.151 C 
BRANCH   7   8
ATOM      8  C   UNL     1      99.196  84.377  73.699  1.00  0.00    -0.025 A 
ATOM      9  C   UNL     1     101.642  84.218  73.904  1.00  0.00     0.160 A 
ATOM     10  C   UNL     1     101.788  85.248  72.949  1.00  0.00     0.157 A 
ATOM     11  C   UNL     1     100.350  83.797  74.278  1.00  0.00     0.056 A 
ATOM     12  C   UNL     1     100.648  85.820  72.354  1.00  0.00     0.050 A 
ATOM     13  C   UNL     1      99.362  85.380  72.718  1.00  0.00     0.009 A 
BRANCH   9  14
ATOM     14  O   UNL     1     102.745  83.595  74.424  1.00  0.00    -0.493 OA
ATOM     15  C   UNL     1     103.084  82.359  73.772  1.00  0.00     0.278 C 
ENDBRANCH   9  14
BRANCH  10  16
ATOM     16  O   UNL     1     103.013  85.702  72.582  1.00  0.00    -0.504 OA
ATOM     17  H   UNL     1     103.554  84.962  72.295  1.00  0.00     0.293 HD
ENDBRANCH  10  16
ENDBRANCH   7   8
ENDBRANCH   4   7
ENDBRANCH   2   3
ENDBRANCH   1   2
BRANCH   1  18
ATOM     18  C   UNL     1      97.119  82.986  80.233  1.00  0.00     0.001 C 
BRANCH  18  19
ATOM     19  C   UNL     1      97.987  81.723  80.002  1.00  0.00     0.004 C 
BRANCH  19  20
ATOM     20  C   UNL     1      99.444  81.938  80.499  1.00  0.00     0.027 C 
BRANCH  20  21
ATOM     21  C   UNL     1     100.454  81.602  79.510  1.00  0.00    -0.031 C 
ATOM     22  C   UNL     1     100.154  80.972  78.361  1.00  0.00    -0.028 C 
BRANCH  22  23
ATOM     23  C   UNL     1     101.145  80.624  77.345  1.00  0.00     0.005 C 
ATOM     24  C   UNL     1     100.482  80.570  75.943  1.00  0.00     0.012 C 
ATOM     25  C   UNL     1     102.336  81.619  77.396  1.00  0.00     0.012 C 
ENDBRANCH  22  23
ENDBRANCH  20  21
ENDBRANCH  19  20
ENDBRANCH  18  19
ENDBRANCH   1  18
TORSDOF 11
ENDMDL
