MODEL 1
REMARK VINA RESULT:    -6.185      0.000      0.000
REMARK INTER + INTRA:         -10.523
REMARK INTER:                  -9.620
REMARK INTRA:                  -0.903
REMARK UNBOUND:                -0.903
REMARK SMILES COc1cc(CNC(=O)CCCCCC(C)C)ccc1O
REMARK SMILES IDX 10 1 8 2 7 3 9 5 6 6 5 7 3 8 20 9 4 10 19 11 18 12 2 13 1 14
REMARK SMILES IDX 21 15 11 17 12 18 13 19 14 20 15 21 16 22 17 23
REMARK H PARENT 7 4 21 16
REMARK Flexibility Score: inf
ROOT
ATOM      1  C   UNL     1      91.730  94.828  75.822  1.00  0.00     0.100 C 
ENDROOT
BRANCH   1   2
ATOM      2  C   UNL     1      93.173  95.145  75.858  1.00  0.00     0.220 C 
ATOM      3  N   UNL     1      93.817  95.199  77.057  1.00  0.00    -0.352 N 
ATOM      4  H   UNL     1      93.215  95.145  77.866  1.00  0.00     0.163 HD
ATOM      5  O   UNL     1      93.786  95.316  74.775  1.00  0.00    -0.275 OA
BRANCH   3   6
ATOM      6  C   UNL     1      95.230  95.322  77.227  1.00  0.00     0.151 C 
BRANCH   6   7
ATOM      7  C   UNL     1      95.722  94.710  78.491  1.00  0.00    -0.025 A 
ATOM      8  C   UNL     1      97.369  94.615  80.314  1.00  0.00     0.160 A 
ATOM      9  C   UNL     1      96.623  93.590  80.933  1.00  0.00     0.157 A 
ATOM     10  C   UNL     1      96.925  95.155  79.088  1.00  0.00     0.056 A 
ATOM     11  C   UNL     1      95.439  93.122  80.334  1.00  0.00     0.050 A 
ATOM     12  C   UNL     1      94.989  93.680  79.126  1.00  0.00     0.009 A 
BRANCH   8  13
ATOM     13  O   UNL     1      98.535  95.072  80.870  1.00  0.00    -0.493 OA
ATOM     14  C   UNL     1      98.369  96.246  81.688  1.00  0.00     0.278 C 
ENDBRANCH   8  13
BRANCH   9  15
ATOM     15  O   UNL     1      97.042  93.063  82.110  1.00  0.00    -0.504 OA
ATOM     16  H   UNL     1      96.283  92.764  82.616  1.00  0.00     0.293 HD
ENDBRANCH   9  15
ENDBRANCH   6   7
ENDBRANCH   3   6
ENDBRANCH   1   2
BRANCH   1  17
ATOM     17  C   UNL     1      91.113  94.505  77.210  1.00  0.00     0.010 C 
BRANCH  17  18
ATOM     18  C   UNL     1      91.148  92.982  77.511  1.00  0.00     0.001 C 
BRANCH  18  19
ATOM     19  C   UNL     1      89.758  92.300  77.403  1.00  0.00     0.000 C 
BRANCH  19  20
ATOM     20  C   UNL     1      89.808  90.993  76.561  1.00  0.00     0.003 C 
BRANCH  20  21
ATOM     21  C   UNL     1      90.203  91.189  75.061  1.00  0.00    -0.017 C 
ATOM     22  C   UNL     1      88.938  91.372  74.172  1.00  0.00     0.007 C 
ATOM     23  C   UNL     1      91.079  90.026  74.510  1.00  0.00     0.007 C 
ENDBRANCH  20  21
ENDBRANCH  19  20
ENDBRANCH  18  19
ENDBRANCH  17  18
ENDBRANCH   1  17
TORSDOF 10
ENDMDL
MODEL 2
REMARK VINA RESULT:    -6.134      2.562      6.986
REMARK INTER + INTRA:         -10.444
REMARK INTER:                  -9.449
REMARK INTRA:                  -0.995
REMARK UNBOUND:                -0.903
REMARK SMILES COc1cc(CNC(=O)CCCCCC(C)C)ccc1O
REMARK SMILES IDX 10 1 8 2 7 3 9 5 6 6 5 7 3 8 20 9 4 10 19 11 18 12 2 13 1 14
REMARK SMILES IDX 21 15 11 17 12 18 13 19 14 20 15 21 16 22 17 23
REMARK H PARENT 7 4 21 16
REMARK Flexibility Score: inf
ROOT
ATOM      1  C   UNL     1      97.223  96.238  79.843  1.00  0.00     0.100 C 
ENDROOT
BRANCH   1   2
ATOM      2  C   UNL     1      96.622  94.936  79.486  1.00  0.00     0.220 C 
ATOM      3  N   UNL     1      95.266  94.819  79.424  1.00  0.00    -0.352 N 
ATOM      4  H   UNL     1      94.754  95.621  79.764  1.00  0.00     0.163 HD
ATOM      5  O   UNL     1      97.378  93.974  79.205  1.00  0.00    -0.275 OA
BRANCH   3   6
ATOM      6  C   UNL     1      94.561  93.681  78.929  1.00  0.00     0.151 C 
BRANCH   6   7
ATOM      7  C   UNL     1      93.291  94.034  78.239  1.00  0.00    -0.025 A 
ATOM      8  C   UNL     1      90.985  93.472  77.597  1.00  0.00     0.160 A 
ATOM      9  C   UNL     1      90.851  94.734  76.982  1.00  0.00     0.157 A 
ATOM     10  C   UNL     1      92.210  93.122  78.205  1.00  0.00     0.056 A 
ATOM     11  C   UNL     1      91.929  95.639  76.987  1.00  0.00     0.050 A 
ATOM     12  C   UNL     1      93.138  95.294  77.615  1.00  0.00     0.009 A 
BRANCH   8  13
ATOM     13  O   UNL     1      89.954  92.569  77.586  1.00  0.00    -0.493 OA
ATOM     14  C   UNL     1      90.031  91.610  76.513  1.00  0.00     0.278 C 
ENDBRANCH   8  13
BRANCH   9  15
ATOM     15  O   UNL     1      89.678  95.079  76.393  1.00  0.00    -0.504 OA
ATOM     16  H   UNL     1      89.205  95.694  76.958  1.00  0.00     0.293 HD
ENDBRANCH   9  15
ENDBRANCH   6   7
ENDBRANCH   3   6
ENDBRANCH   1   2
BRANCH   1  17
ATOM     17  C   UNL     1      97.194  97.289  78.701  1.00  0.00     0.010 C 
BRANCH  17  18
ATOM     18  C   UNL     1      97.460  96.638  77.316  1.00  0.00     0.001 C 
BRANCH  18  19
ATOM     19  C   UNL     1      96.223  96.652  76.380  1.00  0.00     0.000 C 
BRANCH  19  20
ATOM     20  C   UNL     1      96.623  96.675  74.876  1.00  0.00     0.003 C 
BRANCH  20  21
ATOM     21  C   UNL     1      95.500  96.223  73.887  1.00  0.00    -0.017 C 
ATOM     22  C   UNL     1      95.888  96.557  72.416  1.00  0.00     0.007 C 
ATOM     23  C   UNL     1      94.112  96.839  74.226  1.00  0.00     0.007 C 
ENDBRANCH  20  21
ENDBRANCH  19  20
ENDBRANCH  18  19
ENDBRANCH  17  18
ENDBRANCH   1  17
TORSDOF 10
ENDMDL
MODEL 3
REMARK VINA RESULT:    -5.882      2.319      4.067
REMARK INTER + INTRA:         -10.052
REMARK INTER:                  -9.125
REMARK INTRA:                  -0.926
REMARK UNBOUND:                -0.903
REMARK SMILES COc1cc(CNC(=O)CCCCCC(C)C)ccc1O
REMARK SMILES IDX 10 1 8 2 7 3 9 5 6 6 5 7 3 8 20 9 4 10 19 11 18 12 2 13 1 14
REMARK SMILES IDX 21 15 11 17 12 18 13 19 14 20 15 21 16 22 17 23
REMARK H PARENT 7 4 21 16
REMARK Flexibility Score: inf
ROOT
ATOM      1  C   UNL     1      94.106  93.545  78.629  1.00  0.00     0.100 C 
ENDROOT
BRANCH   1   2
ATOM      2  C   UNL     1      95.051  93.299  79.738  1.00  0.00     0.220 C 
ATOM      3  N   UNL     1      96.236  93.970  79.769  1.00  0.00    -0.352 N 
ATOM      4  H   UNL     1      96.444  94.505  78.938  1.00  0.00     0.163 HD
ATOM      5  O   UNL     1      94.721  92.506  80.654  1.00  0.00    -0.275 OA
BRANCH   3   6
ATOM      6  C   UNL     1      97.158  93.960  80.860  1.00  0.00     0.151 C 
BRANCH   6   7
ATOM      7  C   UNL     1      97.261  95.274  81.550  1.00  0.00    -0.025 A 
ATOM      8  C   UNL     1      98.552  96.887  82.884  1.00  0.00     0.160 A 
ATOM      9  C   UNL     1      97.482  97.803  82.808  1.00  0.00     0.157 A 
ATOM     10  C   UNL     1      98.428  95.622  82.271  1.00  0.00     0.056 A 
ATOM     11  C   UNL     1      96.306  97.457  82.117  1.00  0.00     0.050 A 
ATOM     12  C   UNL     1      96.198  96.205  81.488  1.00  0.00     0.009 A 
BRANCH   8  13
ATOM     13  O   UNL     1      99.697  97.196  83.569  1.00  0.00    -0.493 OA
ATOM     14  C   UNL     1     100.901  97.038  82.793  1.00  0.00     0.278 C 
ENDBRANCH   8  13
BRANCH   9  15
ATOM     15  O   UNL     1      97.590  99.021  83.396  1.00  0.00    -0.504 OA
ATOM     16  H   UNL     1      97.758  98.910  84.334  1.00  0.00     0.293 HD
ENDBRANCH   9  15
ENDBRANCH   6   7
ENDBRANCH   3   6
ENDBRANCH   1   2
BRANCH   1  17
ATOM     17  C   UNL     1      94.014  95.031  78.186  1.00  0.00     0.010 C 
BRANCH  17  18
ATOM     18  C   UNL     1      93.192  95.189  76.878  1.00  0.00     0.001 C 
BRANCH  18  19
ATOM     19  C   UNL     1      91.701  95.538  77.125  1.00  0.00     0.000 C 
BRANCH  19  20
ATOM     20  C   UNL     1      90.738  94.542  76.416  1.00  0.00     0.003 C 
BRANCH  20  21
ATOM     21  C   UNL     1      90.968  93.037  76.769  1.00  0.00    -0.017 C 
ATOM     22  C   UNL     1      90.844  92.143  75.500  1.00  0.00     0.007 C 
ATOM     23  C   UNL     1      90.006  92.522  77.880  1.00  0.00     0.007 C 
ENDBRANCH  20  21
ENDBRANCH  19  20
ENDBRANCH  18  19
ENDBRANCH  17  18
ENDBRANCH   1  17
TORSDOF 10
ENDMDL
MODEL 4
REMARK VINA RESULT:    -5.640     10.010     14.005
REMARK INTER + INTRA:          -9.675
REMARK INTER:                  -8.938
REMARK INTRA:                  -0.737
REMARK UNBOUND:                -0.903
REMARK SMILES COc1cc(CNC(=O)CCCCCC(C)C)ccc1O
REMARK SMILES IDX 10 1 8 2 7 3 9 5 6 6 5 7 3 8 20 9 4 10 19 11 18 12 2 13 1 14
REMARK SMILES IDX 21 15 11 17 12 18 13 19 14 20 15 21 16 22 17 23
REMARK H PARENT 7 4 21 16
REMARK Flexibility Score: inf
ROOT
ATOM      1  C   UNL     1      89.871  97.973  70.082  1.00  0.00     0.100 C 
ENDROOT
BRANCH   1   2
ATOM      2  C   UNL     1      89.568  98.118  68.643  1.00  0.00     0.220 C 
ATOM      3  N   UNL     1      88.502  98.874  68.257  1.00  0.00    -0.352 N 
ATOM      4  H   UNL     1      87.904  99.183  69.010  1.00  0.00     0.163 HD
ATOM      5  O   UNL     1      90.326  97.574  67.803  1.00  0.00    -0.275 OA
BRANCH   3   6
ATOM      6  C   UNL     1      88.199  99.239  66.910  1.00  0.00     0.151 C 
BRANCH   6   7
ATOM      7  C   UNL     1      88.125 100.711  66.705  1.00  0.00    -0.025 A 
ATOM      8  C   UNL     1      89.229 102.905  66.589  1.00  0.00     0.160 A 
ATOM      9  C   UNL     1      87.997 103.504  66.250  1.00  0.00     0.157 A 
ATOM     10  C   UNL     1      89.282 101.516  66.833  1.00  0.00     0.056 A 
ATOM     11  C   UNL     1      86.836 102.717  66.147  1.00  0.00     0.050 A 
ATOM     12  C   UNL     1      86.900 101.331  66.367  1.00  0.00     0.009 A 
BRANCH   8  13
ATOM     13  O   UNL     1      90.368 103.657  66.714  1.00  0.00    -0.493 OA
ATOM     14  C   UNL     1      91.195 103.661  65.535  1.00  0.00     0.278 C 
ENDBRANCH   8  13
BRANCH   9  15
ATOM     15  O   UNL     1      87.935 104.839  66.016  1.00  0.00    -0.504 OA
ATOM     16  H   UNL     1      88.692 105.108  65.491  1.00  0.00     0.293 HD
ENDBRANCH   9  15
ENDBRANCH   6   7
ENDBRANCH   3   6
ENDBRANCH   1   2
BRANCH   1  17
ATOM     17  C   UNL     1      90.538  99.219  70.723  1.00  0.00     0.010 C 
BRANCH  17  18
ATOM     18  C   UNL     1      92.003  99.399  70.236  1.00  0.00     0.001 C 
BRANCH  18  19
ATOM     19  C   UNL     1      92.922 100.078  71.285  1.00  0.00     0.000 C 
BRANCH  19  20
ATOM     20  C   UNL     1      92.833  99.391  72.678  1.00  0.00     0.003 C 
BRANCH  20  21
ATOM     21  C   UNL     1      94.113  98.603  73.109  1.00  0.00    -0.017 C 
ATOM     22  C   UNL     1      93.773  97.547  74.202  1.00  0.00     0.007 C 
ATOM     23  C   UNL     1      95.258  99.534  73.604  1.00  0.00     0.007 C 
ENDBRANCH  20  21
ENDBRANCH  19  20
ENDBRANCH  18  19
ENDBRANCH  17  18
ENDBRANCH   1  17
TORSDOF 10
ENDMDL
MODEL 5
REMARK VINA RESULT:    -5.636      2.749      7.927
REMARK INTER + INTRA:          -9.669
REMARK INTER:                  -8.873
REMARK INTRA:                  -0.796
REMARK UNBOUND:                -0.903
REMARK SMILES COc1cc(CNC(=O)CCCCCC(C)C)ccc1O
REMARK SMILES IDX 10 1 8 2 7 3 9 5 6 6 5 7 3 8 20 9 4 10 19 11 18 12 2 13 1 14
REMARK SMILES IDX 21 15 11 17 12 18 13 19 14 20 15 21 16 22 17 23
REMARK H PARENT 7 4 21 16
REMARK Flexibility Score: inf
ROOT
ATOM      1  C   UNL     1      96.498  96.311  81.016  1.00  0.00     0.100 C 
ENDROOT
BRANCH   1   2
ATOM      2  C   UNL     1      95.751  95.134  80.527  1.00  0.00     0.220 C 
ATOM      3  N   UNL     1      95.317  95.105  79.236  1.00  0.00    -0.352 N 
ATOM      4  H   UNL     1      95.428  95.973  78.731  1.00  0.00     0.163 HD
ATOM      5  O   UNL     1      95.568  94.163  81.303  1.00  0.00    -0.275 OA
BRANCH   3   6
ATOM      6  C   UNL     1      94.741  93.971  78.587  1.00  0.00     0.151 C 
BRANCH   6   7
ATOM      7  C   UNL     1      93.385  94.238  78.035  1.00  0.00    -0.025 A 
ATOM      8  C   UNL     1      91.068  93.522  77.632  1.00  0.00     0.160 A 
ATOM      9  C   UNL     1      90.786  94.774  77.045  1.00  0.00     0.157 A 
ATOM     10  C   UNL     1      92.370  93.255  78.106  1.00  0.00     0.056 A 
ATOM     11  C   UNL     1      91.795  95.749  76.945  1.00  0.00     0.050 A 
ATOM     12  C   UNL     1      93.083  95.486  77.441  1.00  0.00     0.009 A 
BRANCH   8  13
ATOM     13  O   UNL     1      90.104  92.552  77.720  1.00  0.00    -0.493 OA
ATOM     14  C   UNL     1      90.115  91.619  76.623  1.00  0.00     0.278 C 
ENDBRANCH   8  13
BRANCH   9  15
ATOM     15  O   UNL     1      89.538  95.040  76.583  1.00  0.00    -0.504 OA
ATOM     16  H   UNL     1      89.086  95.620  77.200  1.00  0.00     0.293 HD
ENDBRANCH   9  15
ENDBRANCH   6   7
ENDBRANCH   3   6
ENDBRANCH   1   2
BRANCH   1  17
ATOM     17  C   UNL     1      97.447  96.946  79.965  1.00  0.00     0.010 C 
BRANCH  17  18
ATOM     18  C   UNL     1      98.834  96.245  79.949  1.00  0.00     0.001 C 
BRANCH  18  19
ATOM     19  C   UNL     1      99.419  96.069  78.523  1.00  0.00     0.000 C 
BRANCH  19  20
ATOM     20  C   UNL     1      99.188  97.325  77.633  1.00  0.00     0.003 C 
BRANCH  20  21
ATOM     21  C   UNL     1      98.388  97.063  76.316  1.00  0.00    -0.017 C 
ATOM     22  C   UNL     1      99.326  97.128  75.074  1.00  0.00     0.007 C 
ATOM     23  C   UNL     1      97.191  98.040  76.131  1.00  0.00     0.007 C 
ENDBRANCH  20  21
ENDBRANCH  19  20
ENDBRANCH  18  19
ENDBRANCH  17  18
ENDBRANCH   1  17
TORSDOF 10
ENDMDL
MODEL 6
REMARK VINA RESULT:    -5.632     12.144     13.849
REMARK INTER + INTRA:          -9.663
REMARK INTER:                  -8.391
REMARK INTRA:                  -1.272
REMARK UNBOUND:                -0.903
REMARK SMILES COc1cc(CNC(=O)CCCCCC(C)C)ccc1O
REMARK SMILES IDX 10 1 8 2 7 3 9 5 6 6 5 7 3 8 20 9 4 10 19 11 18 12 2 13 1 14
REMARK SMILES IDX 21 15 11 17 12 18 13 19 14 20 15 21 16 22 17 23
REMARK H PARENT 7 4 21 16
REMARK Flexibility Score: inf
ROOT
ATOM      1  C   UNL     1      96.767  82.806  74.137  1.00  0.00     0.100 C 
ENDROOT
BRANCH   1   2
ATOM      2  C   UNL     1      96.300  83.158  75.494  1.00  0.00     0.220 C 
ATOM      3  N   UNL     1      96.429  82.252  76.504  1.00  0.00    -0.352 N 
ATOM      4  H   UNL     1      96.724  81.331  76.212  1.00  0.00     0.163 HD
ATOM      5  O   UNL     1      95.831  84.305  75.698  1.00  0.00    -0.275 OA
BRANCH   3   6
ATOM      6  C   UNL     1      96.182  82.519  77.884  1.00  0.00     0.151 C 
BRANCH   6   7
ATOM      7  C   UNL     1      97.108  81.792  78.794  1.00  0.00    -0.025 A 
ATOM      8  C   UNL     1      97.782  81.128  81.064  1.00  0.00     0.160 A 
ATOM      9  C   UNL     1      98.830  80.353  80.524  1.00  0.00     0.157 A 
ATOM     10  C   UNL     1      96.939  81.857  80.198  1.00  0.00     0.056 A 
ATOM     11  C   UNL     1      99.023  80.302  79.131  1.00  0.00     0.050 A 
ATOM     12  C   UNL     1      98.166  81.011  78.272  1.00  0.00     0.009 A 
BRANCH   8  13
ATOM     13  O   UNL     1      97.589  81.206  82.419  1.00  0.00    -0.493 OA
ATOM     14  C   UNL     1      96.992  82.444  82.851  1.00  0.00     0.278 C 
ENDBRANCH   8  13
BRANCH   9  15
ATOM     15  O   UNL     1      99.647  79.650  81.348  1.00  0.00    -0.504 OA
ATOM     16  H   UNL     1      99.240  78.806  81.558  1.00  0.00     0.293 HD
ENDBRANCH   9  15
ENDBRANCH   6   7
ENDBRANCH   3   6
ENDBRANCH   1   2
BRANCH   1  17
ATOM     17  C   UNL     1      98.208  83.284  73.814  1.00  0.00     0.010 C 
BRANCH  17  18
ATOM     18  C   UNL     1      99.275  82.424  74.545  1.00  0.00     0.001 C 
BRANCH  18  19
ATOM     19  C   UNL     1      99.267  80.934  74.112  1.00  0.00     0.000 C 
BRANCH  19  20
ATOM     20  C   UNL     1     100.007  80.021  75.132  1.00  0.00     0.003 C 
BRANCH  20  21
ATOM     21  C   UNL     1     101.402  80.549  75.599  1.00  0.00    -0.017 C 
ATOM     22  C   UNL     1     102.430  80.515  74.430  1.00  0.00     0.007 C 
ATOM     23  C   UNL     1     101.963  79.772  76.826  1.00  0.00     0.007 C 
ENDBRANCH  20  21
ENDBRANCH  19  20
ENDBRANCH  18  19
ENDBRANCH  17  18
ENDBRANCH   1  17
TORSDOF 10
ENDMDL
MODEL 7
REMARK VINA RESULT:    -5.601      2.351      8.072
REMARK INTER + INTRA:          -9.615
REMARK INTER:                  -8.481
REMARK INTRA:                  -1.134
REMARK UNBOUND:                -0.903
REMARK SMILES COc1cc(CNC(=O)CCCCCC(C)C)ccc1O
REMARK SMILES IDX 10 1 8 2 7 3 9 5 6 6 5 7 3 8 20 9 4 10 19 11 18 12 2 13 1 14
REMARK SMILES IDX 21 15 11 17 12 18 13 19 14 20 15 21 16 22 17 23
REMARK H PARENT 7 4 21 16
REMARK Flexibility Score: inf
ROOT
ATOM      1  C   UNL     1      97.053  94.748  78.576  1.00  0.00     0.100 C 
ENDROOT
BRANCH   1   2
ATOM      2  C   UNL     1      96.016  93.696  78.559  1.00  0.00     0.220 C 
ATOM      3  N   UNL     1      94.791  93.954  79.098  1.00  0.00    -0.352 N 
ATOM      4  H   UNL     1      94.724  94.827  79.601  1.00  0.00     0.163 HD
ATOM      5  O   UNL     1      96.272  92.597  78.008  1.00  0.00    -0.275 OA
BRANCH   3   6
ATOM      6  C   UNL     1      93.652  93.099  78.997  1.00  0.00     0.151 C 
BRANCH   6   7
ATOM      7  C   UNL     1      92.666  93.558  77.981  1.00  0.00    -0.025 A 
ATOM      8  C   UNL     1      90.907  93.056  76.338  1.00  0.00     0.160 A 
ATOM      9  C   UNL     1      90.742  94.436  76.096  1.00  0.00     0.157 A 
ATOM     10  C   UNL     1      91.880  92.625  77.265  1.00  0.00     0.056 A 
ATOM     11  C   UNL     1      91.537  95.372  76.783  1.00  0.00     0.050 A 
ATOM     12  C   UNL     1      92.488  94.937  77.722  1.00  0.00     0.009 A 
BRANCH   8  13
ATOM     13  O   UNL     1      90.157  92.128  75.665  1.00  0.00    -0.493 OA
ATOM     14  C   UNL     1      90.939  91.111  75.010  1.00  0.00     0.278 C 
ENDBRANCH   8  13
BRANCH   9  15
ATOM     15  O   UNL     1      89.811  94.861  75.206  1.00  0.00    -0.504 OA
ATOM     16  H   UNL     1      89.505  94.117  74.682  1.00  0.00     0.293 HD
ENDBRANCH   9  15
ENDBRANCH   6   7
ENDBRANCH   3   6
ENDBRANCH   1   2
BRANCH   1  17
ATOM     17  C   UNL     1      96.603  96.098  77.955  1.00  0.00     0.010 C 
BRANCH  17  18
ATOM     18  C   UNL     1      97.472  97.281  78.466  1.00  0.00     0.001 C 
BRANCH  18  19
ATOM     19  C   UNL     1      98.446  96.883  79.606  1.00  0.00     0.000 C 
BRANCH  19  20
ATOM     20  C   UNL     1      98.050  97.521  80.968  1.00  0.00     0.003 C 
BRANCH  20  21
ATOM     21  C   UNL     1      96.512  97.600  81.238  1.00  0.00    -0.017 C 
ATOM     22  C   UNL     1      96.171  98.803  82.165  1.00  0.00     0.007 C 
ATOM     23  C   UNL     1      95.935  96.284  81.838  1.00  0.00     0.007 C 
ENDBRANCH  20  21
ENDBRANCH  19  20
ENDBRANCH  18  19
ENDBRANCH  17  18
ENDBRANCH   1  17
TORSDOF 10
ENDMDL
MODEL 8
REMARK VINA RESULT:    -5.598     12.252     14.423
REMARK INTER + INTRA:          -9.610
REMARK INTER:                  -9.047
REMARK INTRA:                  -0.562
REMARK UNBOUND:                -0.903
REMARK SMILES COc1cc(CNC(=O)CCCCCC(C)C)ccc1O
REMARK SMILES IDX 10 1 8 2 7 3 9 5 6 6 5 7 3 8 20 9 4 10 19 11 18 12 2 13 1 14
REMARK SMILES IDX 21 15 11 17 12 18 13 19 14 20 15 21 16 22 17 23
REMARK H PARENT 7 4 21 16
REMARK Flexibility Score: inf
ROOT
ATOM      1  C   UNL     1      97.054  79.255  81.591  1.00  0.00     0.100 C 
ENDROOT
BRANCH   1   2
ATOM      2  C   UNL     1      97.528  79.407  80.200  1.00  0.00     0.220 C 
ATOM      3  N   UNL     1      98.006  80.614  79.784  1.00  0.00    -0.352 N 
ATOM      4  H   UNL     1      97.876  81.371  80.439  1.00  0.00     0.163 HD
ATOM      5  O   UNL     1      97.520  78.408  79.441  1.00  0.00    -0.275 OA
BRANCH   3   6
ATOM      6  C   UNL     1      98.651  80.855  78.533  1.00  0.00     0.151 C 
BRANCH   6   7
ATOM      7  C   UNL     1      97.817  81.647  77.589  1.00  0.00    -0.025 A 
ATOM      8  C   UNL     1      97.432  82.572  75.343  1.00  0.00     0.160 A 
ATOM      9  C   UNL     1      96.196  83.098  75.773  1.00  0.00     0.157 A 
ATOM     10  C   UNL     1      98.243  81.866  76.258  1.00  0.00     0.056 A 
ATOM     11  C   UNL     1      95.774  82.908  77.102  1.00  0.00     0.050 A 
ATOM     12  C   UNL     1      96.575  82.184  78.002  1.00  0.00     0.009 A 
BRANCH   8  13
ATOM     13  O   UNL     1      97.871  82.762  74.059  1.00  0.00    -0.493 OA
ATOM     14  C   UNL     1      99.021  81.966  73.712  1.00  0.00     0.278 C 
ENDBRANCH   8  13
BRANCH   9  15
ATOM     15  O   UNL     1      95.410  83.779  74.903  1.00  0.00    -0.504 OA
ATOM     16  H   UNL     1      94.631  84.103  75.360  1.00  0.00     0.293 HD
ENDBRANCH   9  15
ENDBRANCH   6   7
ENDBRANCH   3   6
ENDBRANCH   1   2
BRANCH   1  17
ATOM     17  C   UNL     1      97.281  80.505  82.483  1.00  0.00     0.010 C 
BRANCH  17  18
ATOM     18  C   UNL     1      96.080  81.487  82.409  1.00  0.00     0.001 C 
BRANCH  18  19
ATOM     19  C   UNL     1      95.585  81.961  83.801  1.00  0.00     0.000 C 
BRANCH  19  20
ATOM     20  C   UNL     1      94.528  80.994  84.410  1.00  0.00     0.003 C 
BRANCH  20  21
ATOM     21  C   UNL     1      93.358  81.692  85.176  1.00  0.00    -0.017 C 
ATOM     22  C   UNL     1      93.556  81.575  86.717  1.00  0.00     0.007 C 
ATOM     23  C   UNL     1      91.959  81.142  84.775  1.00  0.00     0.007 C 
ENDBRANCH  20  21
ENDBRANCH  19  20
ENDBRANCH  18  19
ENDBRANCH  17  18
ENDBRANCH   1  17
TORSDOF 10
ENDMDL
MODEL 9
REMARK VINA RESULT:    -5.524     28.058     31.286
REMARK INTER + INTRA:          -9.495
REMARK INTER:                  -8.115
REMARK INTRA:                  -1.380
REMARK UNBOUND:                -0.903
REMARK SMILES COc1cc(CNC(=O)CCCCCC(C)C)ccc1O
REMARK SMILES IDX 10 1 8 2 7 3 9 5 6 6 5 7 3 8 20 9 4 10 19 11 18 12 2 13 1 14
REMARK SMILES IDX 21 15 11 17 12 18 13 19 14 20 15 21 16 22 17 23
REMARK H PARENT 7 4 21 16
REMARK Flexibility Score: inf
ROOT
ATOM      1  C   UNL     1      63.154  84.007  75.326  1.00  0.00     0.100 C 
ENDROOT
BRANCH   1   2
ATOM      2  C   UNL     1      64.018  84.967  74.608  1.00  0.00     0.220 C 
ATOM      3  N   UNL     1      63.973  85.022  73.247  1.00  0.00    -0.352 N 
ATOM      4  H   UNL     1      63.431  84.289  72.811  1.00  0.00     0.163 HD
ATOM      5  O   UNL     1      64.747  85.744  75.273  1.00  0.00    -0.275 OA
BRANCH   3   6
ATOM      6  C   UNL     1      64.617  86.009  72.443  1.00  0.00     0.151 C 
BRANCH   6   7
ATOM      7  C   UNL     1      65.894  85.534  71.844  1.00  0.00    -0.025 A 
ATOM      8  C   UNL     1      67.154  84.671  69.917  1.00  0.00     0.160 A 
ATOM      9  C   UNL     1      68.338  84.691  70.685  1.00  0.00     0.157 A 
ATOM     10  C   UNL     1      65.937  85.075  70.506  1.00  0.00     0.056 A 
ATOM     11  C   UNL     1      68.301  85.120  72.024  1.00  0.00     0.050 A 
ATOM     12  C   UNL     1      67.090  85.543  72.598  1.00  0.00     0.009 A 
BRANCH   8  13
ATOM     13  O   UNL     1      67.164  84.239  68.617  1.00  0.00    -0.493 OA
ATOM     14  C   UNL     1      65.912  84.427  67.931  1.00  0.00     0.278 C 
ENDBRANCH   8  13
BRANCH   9  15
ATOM     15  O   UNL     1      69.512  84.303  70.128  1.00  0.00    -0.504 OA
ATOM     16  H   UNL     1      70.201  84.927  70.367  1.00  0.00     0.293 HD
ENDBRANCH   9  15
ENDBRANCH   6   7
ENDBRANCH   3   6
ENDBRANCH   1   2
BRANCH   1  17
ATOM     17  C   UNL     1      61.932  83.512  74.506  1.00  0.00     0.010 C 
BRANCH  17  18
ATOM     18  C   UNL     1      61.895  81.962  74.411  1.00  0.00     0.001 C 
BRANCH  18  19
ATOM     19  C   UNL     1      61.952  81.433  72.953  1.00  0.00     0.000 C 
BRANCH  19  20
ATOM     20  C   UNL     1      63.413  81.242  72.453  1.00  0.00     0.003 C 
BRANCH  20  21
ATOM     21  C   UNL     1      63.771  82.023  71.146  1.00  0.00    -0.017 C 
ATOM     22  C   UNL     1      62.589  81.981  70.133  1.00  0.00     0.007 C 
ATOM     23  C   UNL     1      65.073  81.505  70.470  1.00  0.00     0.007 C 
ENDBRANCH  20  21
ENDBRANCH  19  20
ENDBRANCH  18  19
ENDBRANCH  17  18
ENDBRANCH   1  17
TORSDOF 10
ENDMDL
MODEL 10
REMARK VINA RESULT:    -5.441     25.212     28.780
REMARK INTER + INTRA:          -9.366
REMARK INTER:                  -8.570
REMARK INTRA:                  -0.795
REMARK UNBOUND:                -0.903
REMARK SMILES COc1cc(CNC(=O)CCCCCC(C)C)ccc1O
REMARK SMILES IDX 10 1 8 2 7 3 9 5 6 6 5 7 3 8 20 9 4 10 19 11 18 12 2 13 1 14
REMARK SMILES IDX 21 15 11 17 12 18 13 19 14 20 15 21 16 22 17 23
REMARK H PARENT 7 4 21 16
REMARK Flexibility Score: inf
ROOT
ATOM      1  C   UNL     1      81.079  65.936  71.360  1.00  0.00     0.100 C 
ENDROOT
BRANCH   1   2
ATOM      2  C   UNL     1      82.309  66.571  70.842  1.00  0.00     0.220 C 
ATOM      3  N   UNL     1      83.150  67.207  71.706  1.00  0.00    -0.352 N 
ATOM      4  H   UNL     1      82.794  67.311  72.645  1.00  0.00     0.163 HD
ATOM      5  O   UNL     1      82.574  66.476  69.619  1.00  0.00    -0.275 OA
BRANCH   3   6
ATOM      6  C   UNL     1      84.444  67.708  71.373  1.00  0.00     0.151 C 
BRANCH   6   7
ATOM      7  C   UNL     1      84.775  68.980  72.071  1.00  0.00    -0.025 A 
ATOM      8  C   UNL     1      85.532  70.173  74.084  1.00  0.00     0.160 A 
ATOM      9  C   UNL     1      85.470  71.395  73.381  1.00  0.00     0.157 A 
ATOM     10  C   UNL     1      85.167  68.976  73.431  1.00  0.00     0.056 A 
ATOM     11  C   UNL     1      85.056  71.413  72.036  1.00  0.00     0.050 A 
ATOM     12  C   UNL     1      84.717  70.215  71.384  1.00  0.00     0.009 A 
BRANCH   8  13
ATOM     13  O   UNL     1      85.913  70.136  75.400  1.00  0.00    -0.493 OA
ATOM     14  C   UNL     1      86.981  69.208  75.670  1.00  0.00     0.278 C 
ENDBRANCH   8  13
BRANCH   9  15
ATOM     15  O   UNL     1      85.817  72.551  74.000  1.00  0.00    -0.504 OA
ATOM     16  H   UNL     1      85.100  72.835  74.572  1.00  0.00     0.293 HD
ENDBRANCH   9  15
ENDBRANCH   6   7
ENDBRANCH   3   6
ENDBRANCH   1   2
BRANCH   1  17
ATOM     17  C   UNL     1      81.151  65.535  72.858  1.00  0.00     0.010 C 
BRANCH  17  18
ATOM     18  C   UNL     1      80.450  66.583  73.766  1.00  0.00     0.001 C 
BRANCH  18  19
ATOM     19  C   UNL     1      80.704  66.356  75.279  1.00  0.00     0.000 C 
BRANCH  19  20
ATOM     20  C   UNL     1      79.557  65.547  75.953  1.00  0.00     0.003 C 
BRANCH  20  21
ATOM     21  C   UNL     1      79.927  64.080  76.346  1.00  0.00    -0.017 C 
ATOM     22  C   UNL     1      81.456  63.831  76.189  1.00  0.00     0.007 C 
ATOM     23  C   UNL     1      79.127  63.017  75.537  1.00  0.00     0.007 C 
ENDBRANCH  20  21
ENDBRANCH  19  20
ENDBRANCH  18  19
ENDBRANCH  17  18
ENDBRANCH   1  17
TORSDOF 10
ENDMDL
