MODEL 1
REMARK VINA RESULT:    -7.720      0.000      0.000
REMARK INTER + INTRA:         -13.368
REMARK INTER:                 -13.136
REMARK INTRA:                  -0.232
REMARK UNBOUND:                -0.232
REMARK SMILES C=C(C)[C@]12C[C@@H](C)[C@@]34O[C@](Cc5ccccc5)(O[C@@H]1[C@@H]3C=C(COC(=O)Cc1ccc(O)cc1)C[C@]1(O)C(=O)C(C)=C[C@@H]41)O2
REMARK SMILES IDX 23 1 22 2 21 3 20 4 9 5 8 6 10 7 6 8 18 10 44 11 19 12 5 13
REMARK SMILES IDX 7 14 4 15 11 16 12 17 13 18 17 19 14 20 16 21 15 22 2 23
REMARK SMILES IDX 3 24 1 25 35 26 36 27 43 28 38 29 42 30 39 32 40 33 41 34
REMARK SMILES IDX 37 35 24 37 25 38 26 39 27 40 28 41 29 42 34 43 30 44 33 45
REMARK SMILES IDX 31 46 32 47
REMARK H PARENT 37 36 32 48
REMARK Flexibility Score: 90.00
ROOT
ATOM      1  C   UNL     1      63.659  86.566  76.671  1.00  0.00     0.264 C 
ENDROOT
BRANCH   1   2
ATOM      2  C   UNL     1      63.107  85.499  75.754  1.00  0.00    -0.033 C 
ATOM      3  C   UNL     1      62.283  85.858  74.747  1.00  0.00    -0.015 C 
BRANCH   3   4
ATOM      4  C   UNL     1      61.544  84.984  73.747  1.00  0.00     0.078 C 
ATOM      5  O   UNL     1      62.997  84.778  71.757  1.00  0.00    -0.319 OA
ATOM      6  C   UNL     1      62.383  84.011  72.839  1.00  0.00     0.095 CG0
ATOM      7  C   UNL     1      62.144  85.761  71.139  1.00  0.00     0.289 C 
ATOM      8  C   UNL     1      61.383  82.947  72.224  1.00  0.00     0.023 C 
ATOM      9  G   UNL     1      63.588  83.420  73.627  1.00  0.00     0.000 G0
ATOM     10  O   UNL     1      61.653  86.696  72.095  1.00  0.00    -0.320 OA
ATOM     11  O   UNL     1      60.988  85.178  70.542  1.00  0.00    -0.313 OA
ATOM     12  C   UNL     1      60.707  85.870  72.791  1.00  0.00     0.170 C 
ATOM     13  C   UNL     1      59.975  83.565  71.969  1.00  0.00     0.049 C 
ATOM     14  C   UNL     1      61.871  82.243  70.946  1.00  0.00     0.011 C 
ATOM     15  C   UNL     1      60.063  85.057  71.642  1.00  0.00     0.122 C 
BRANCH   7  16
ATOM     16  C   UNL     1      62.948  86.487  70.078  1.00  0.00     0.135 C 
BRANCH  16  17
ATOM     17  C   UNL     1      62.675  85.950  68.695  1.00  0.00    -0.040 A 
ATOM     18  C   UNL     1      62.032  86.749  67.750  1.00  0.00     0.004 A 
ATOM     19  C   UNL     1      63.066  84.654  68.361  1.00  0.00     0.004 A 
ATOM     20  C   UNL     1      61.780  86.252  66.471  1.00  0.00     0.000 A 
ATOM     21  C   UNL     1      62.815  84.157  67.082  1.00  0.00     0.000 A 
ATOM     22  C   UNL     1      62.172  84.956  66.138  1.00  0.00     0.000 A 
ENDBRANCH  16  17
ENDBRANCH   7  16
BRANCH  15  23
ATOM     23  C   UNL     1      58.750  85.629  71.217  1.00  0.00    -0.046 C 
ATOM     24  C   UNL     1      57.611  84.660  71.103  1.00  0.00     0.042 C 
ATOM     25  C   UNL     1      58.598  86.935  70.952  1.00  0.00     0.010 C 
ENDBRANCH  15  23
ENDBRANCH   3   4
BRANCH   2  26
ATOM     26  C   UNL     1      63.585  84.104  76.107  1.00  0.00     0.078 C 
BRANCH  26  27
ATOM     27  C   UNL     1      63.277  82.988  75.111  1.00  0.00     0.140 C 
ATOM     28  C   UNL     1      63.566  83.408  73.655  1.00  0.00     0.086 CG0
ATOM     29  C   UNL     1      64.182  81.786  75.287  1.00  0.00     0.190 C 
ATOM     30  C   UNL     1      64.317  82.233  73.093  1.00  0.00    -0.010 C 
ATOM     31  G   UNL     1      62.365  83.998  72.860  1.00  0.00     0.000 G0
ATOM     32  O   UNL     1      64.423  81.232  76.349  1.00  0.00    -0.291 OA
ATOM     33  C   UNL     1      64.701  81.318  73.989  1.00  0.00    -0.008 C 
ATOM     34  C   UNL     1      65.513  80.096  73.812  1.00  0.00     0.048 C 
BRANCH  27  35
ATOM     35  O   UNL     1      61.975  82.462  75.307  1.00  0.00    -0.381 OA
ATOM     36  H   UNL     1      61.636  82.155  74.449  1.00  0.00     0.212 HD
ENDBRANCH  27  35
ENDBRANCH  26  27
ENDBRANCH   2  26
ENDBRANCH   1   2
BRANCH   1  37
ATOM     37  O   UNL     1      64.519  85.967  77.618  1.00  0.00    -0.461 OA
BRANCH  37  38
ATOM     38  C   UNL     1      65.430  86.801  78.224  1.00  0.00     0.310 C 
ATOM     39  O   UNL     1      65.330  88.018  78.294  1.00  0.00    -0.252 OA
BRANCH  38  40
ATOM     40  C   UNL     1      66.567  85.982  78.785  1.00  0.00     0.158 C 
BRANCH  40  41
ATOM     41  C   UNL     1      66.391  85.657  80.246  1.00  0.00    -0.037 A 
ATOM     42  C   UNL     1      65.319  86.196  80.957  1.00  0.00     0.008 A 
ATOM     43  C   UNL     1      67.300  84.816  80.888  1.00  0.00     0.008 A 
ATOM     44  C   UNL     1      65.157  85.896  82.310  1.00  0.00     0.046 A 
ATOM     45  C   UNL     1      67.138  84.515  82.241  1.00  0.00     0.046 A 
ATOM     46  C   UNL     1      66.067  85.055  82.952  1.00  0.00     0.115 A 
BRANCH  46  47
ATOM     47  O   UNL     1      65.909  84.763  84.271  1.00  0.00    -0.508 OA
ATOM     48  H   UNL     1      65.144  84.170  84.373  1.00  0.00     0.293 HD
ENDBRANCH  46  47
ENDBRANCH  40  41
ENDBRANCH  38  40
ENDBRANCH  37  38
ENDBRANCH   1  37
TORSDOF 10
ENDMDL
MODEL 2
REMARK VINA RESULT:    -7.550     30.800     34.727
REMARK INTER + INTRA:         -13.078
REMARK INTER:                 -12.525
REMARK INTRA:                  -0.554
REMARK UNBOUND:                -0.232
REMARK SMILES C=C(C)[C@]12C[C@@H](C)[C@@]34O[C@](Cc5ccccc5)(O[C@@H]1[C@@H]3C=C(COC(=O)Cc1ccc(O)cc1)C[C@]1(O)C(=O)C(C)=C[C@@H]41)O2
REMARK SMILES IDX 23 1 22 2 21 3 20 4 9 5 8 6 10 7 6 8 18 10 44 11 19 12 5 13
REMARK SMILES IDX 7 14 4 15 11 16 12 17 13 18 17 19 14 20 16 21 15 22 2 23
REMARK SMILES IDX 3 24 1 25 35 26 36 27 43 28 38 29 42 30 39 32 40 33 41 34
REMARK SMILES IDX 37 35 24 37 25 38 26 39 27 40 28 41 29 42 34 43 30 44 33 45
REMARK SMILES IDX 31 46 32 47
REMARK H PARENT 37 36 32 48
REMARK Flexibility Score: 90.00
ROOT
ATOM      1  C   UNL     1      92.398  94.464  75.693  1.00  0.00     0.264 C 
ENDROOT
BRANCH   1   2
ATOM      2  C   UNL     1      93.855  94.797  75.915  1.00  0.00    -0.033 C 
ATOM      3  C   UNL     1      94.505  95.550  75.004  1.00  0.00    -0.015 C 
BRANCH   3   4
ATOM      4  C   UNL     1      95.970  95.957  74.956  1.00  0.00     0.078 C 
ATOM      5  O   UNL     1      96.153  98.131  76.120  1.00  0.00    -0.319 OA
ATOM      6  C   UNL     1      96.572  96.732  76.184  1.00  0.00     0.095 CG0
ATOM      7  C   UNL     1      96.209  98.730  74.811  1.00  0.00     0.289 C 
ATOM      8  C   UNL     1      98.151  96.653  76.074  1.00  0.00     0.023 C 
ATOM      9  G   UNL     1      95.968  96.208  77.520  1.00  0.00     0.000 G0
ATOM     10  O   UNL     1      95.416  98.006  73.875  1.00  0.00    -0.320 OA
ATOM     11  O   UNL     1      97.530  98.735  74.273  1.00  0.00    -0.313 OA
ATOM     12  C   UNL     1      96.231  96.835  73.707  1.00  0.00     0.170 C 
ATOM     13  C   UNL     1      98.621  96.644  74.588  1.00  0.00     0.049 C 
ATOM     14  C   UNL     1      98.923  97.737  76.846  1.00  0.00     0.011 C 
ATOM     15  C   UNL     1      97.663  97.424  73.686  1.00  0.00     0.122 C 
BRANCH   7  16
ATOM     16  C   UNL     1      95.703 100.155  74.918  1.00  0.00     0.135 C 
BRANCH  16  17
ATOM     17  C   UNL     1      96.139 100.815  76.203  1.00  0.00    -0.040 A 
ATOM     18  C   UNL     1      95.192 101.160  77.166  1.00  0.00     0.004 A 
ATOM     19  C   UNL     1      97.490 101.080  76.426  1.00  0.00     0.004 A 
ATOM     20  C   UNL     1      95.595 101.770  78.355  1.00  0.00     0.000 A 
ATOM     21  C   UNL     1      97.893 101.690  77.614  1.00  0.00     0.000 A 
ATOM     22  C   UNL     1      96.946 102.035  78.578  1.00  0.00     0.000 A 
ENDBRANCH  16  17
ENDBRANCH   7  16
BRANCH  15  23
ATOM     23  C   UNL     1      98.184  97.582  72.295  1.00  0.00    -0.046 C 
ATOM     24  C   UNL     1      98.424  96.314  71.530  1.00  0.00     0.042 C 
ATOM     25  C   UNL     1      98.424  98.788  71.761  1.00  0.00     0.010 C 
ENDBRANCH  15  23
ENDBRANCH   3   4
BRANCH   2  26
ATOM     26  C   UNL     1      94.410  94.215  77.202  1.00  0.00     0.078 C 
BRANCH  26  27
ATOM     27  C   UNL     1      95.813  94.651  77.617  1.00  0.00     0.140 C 
ATOM     28  C   UNL     1      96.001  96.180  77.526  1.00  0.00     0.086 CG0
ATOM     29  C   UNL     1      96.098  94.376  79.078  1.00  0.00     0.190 C 
ATOM     30  C   UNL     1      96.678  96.528  78.822  1.00  0.00    -0.010 C 
ATOM     31  G   UNL     1      96.587  96.720  76.189  1.00  0.00     0.000 G0
ATOM     32  O   UNL     1      95.891  93.317  79.652  1.00  0.00    -0.291 OA
ATOM     33  C   UNL     1      96.723  95.544  79.726  1.00  0.00    -0.008 C 
ATOM     34  C   UNL     1      97.229  95.550  81.114  1.00  0.00     0.048 C 
BRANCH  27  35
ATOM     35  O   UNL     1      96.810  93.910  76.933  1.00  0.00    -0.381 OA
ATOM     36  H   UNL     1      97.209  93.283  77.559  1.00  0.00     0.212 HD
ENDBRANCH  27  35
ENDBRANCH  26  27
ENDBRANCH   2  26
ENDBRANCH   1   2
BRANCH   1  37
ATOM     37  O   UNL     1      91.889  93.811  76.837  1.00  0.00    -0.461 OA
BRANCH  37  38
ATOM     38  C   UNL     1      90.864  92.919  76.621  1.00  0.00     0.310 C 
ATOM     39  O   UNL     1      89.788  92.932  77.202  1.00  0.00    -0.252 OA
BRANCH  38  40
ATOM     40  C   UNL     1      91.275  91.927  75.560  1.00  0.00     0.158 C 
BRANCH  40  41
ATOM     41  C   UNL     1      90.215  91.718  74.509  1.00  0.00    -0.037 A 
ATOM     42  C   UNL     1      89.363  90.616  74.587  1.00  0.00     0.008 A 
ATOM     43  C   UNL     1      90.087  92.625  73.458  1.00  0.00     0.008 A 
ATOM     44  C   UNL     1      88.383  90.422  73.614  1.00  0.00     0.046 A 
ATOM     45  C   UNL     1      89.106  92.431  72.484  1.00  0.00     0.046 A 
ATOM     46  C   UNL     1      88.255  91.330  72.562  1.00  0.00     0.115 A 
BRANCH  46  47
ATOM     47  O   UNL     1      87.299  91.140  71.612  1.00  0.00    -0.508 OA
ATOM     48  H   UNL     1      86.510  90.754  72.031  1.00  0.00     0.293 HD
ENDBRANCH  46  47
ENDBRANCH  40  41
ENDBRANCH  38  40
ENDBRANCH  37  38
ENDBRANCH   1  37
TORSDOF 10
ENDMDL
MODEL 3
REMARK VINA RESULT:    -7.512     20.978     24.395
REMARK INTER + INTRA:         -13.015
REMARK INTER:                 -11.536
REMARK INTRA:                  -1.479
REMARK UNBOUND:                -0.232
REMARK SMILES C=C(C)[C@]12C[C@@H](C)[C@@]34O[C@](Cc5ccccc5)(O[C@@H]1[C@@H]3C=C(COC(=O)Cc1ccc(O)cc1)C[C@]1(O)C(=O)C(C)=C[C@@H]41)O2
REMARK SMILES IDX 23 1 22 2 21 3 20 4 9 5 8 6 10 7 6 8 18 10 44 11 19 12 5 13
REMARK SMILES IDX 7 14 4 15 11 16 12 17 13 18 17 19 14 20 16 21 15 22 2 23
REMARK SMILES IDX 3 24 1 25 35 26 36 27 43 28 38 29 42 30 39 32 40 33 41 34
REMARK SMILES IDX 37 35 24 37 25 38 26 39 27 40 28 41 29 42 34 43 30 44 33 45
REMARK SMILES IDX 31 46 32 47
REMARK H PARENT 37 36 32 48
REMARK Flexibility Score: 90.00
ROOT
ATOM      1  C   UNL     1      77.952  92.627  90.356  1.00  0.00     0.264 C 
ENDROOT
BRANCH   1   2
ATOM      2  C   UNL     1      78.295  91.211  89.954  1.00  0.00    -0.033 C 
ATOM      3  C   UNL     1      79.054  91.003  88.858  1.00  0.00    -0.015 C 
BRANCH   3   4
ATOM      4  C   UNL     1      79.470  89.693  88.208  1.00  0.00     0.078 C 
ATOM      5  O   UNL     1      81.650  89.061  89.191  1.00  0.00    -0.319 OA
ATOM      6  C   UNL     1      80.254  88.642  89.076  1.00  0.00     0.095 CG0
ATOM      7  C   UNL     1      82.245  89.557  87.976  1.00  0.00     0.289 C 
ATOM      8  C   UNL     1      80.186  87.250  88.322  1.00  0.00     0.023 C 
ATOM      9  G   UNL     1      79.730  88.634  90.542  1.00  0.00     0.000 G0
ATOM     10  O   UNL     1      81.512  90.661  87.453  1.00  0.00    -0.320 OA
ATOM     11  O   UNL     1      82.258  88.578  86.940  1.00  0.00    -0.313 OA
ATOM     12  C   UNL     1      80.346  89.979  86.963  1.00  0.00     0.170 C 
ATOM     13  C   UNL     1      80.175  87.438  86.774  1.00  0.00     0.049 C 
ATOM     14  C   UNL     1      81.278  86.236  88.705  1.00  0.00     0.011 C 
ATOM     15  C   UNL     1      80.945  88.690  86.351  1.00  0.00     0.122 C 
BRANCH   7  16
ATOM     16  C   UNL     1      83.666  89.984  88.284  1.00  0.00     0.135 C 
BRANCH  16  17
ATOM     17  C   UNL     1      84.409  90.417  87.044  1.00  0.00    -0.040 A 
ATOM     18  C   UNL     1      85.171  89.494  86.329  1.00  0.00     0.004 A 
ATOM     19  C   UNL     1      84.331  91.741  86.613  1.00  0.00     0.004 A 
ATOM     20  C   UNL     1      85.857  89.895  85.182  1.00  0.00     0.000 A 
ATOM     21  C   UNL     1      85.018  92.142  85.466  1.00  0.00     0.000 A 
ATOM     22  C   UNL     1      85.780  91.219  84.751  1.00  0.00     0.000 A 
ENDBRANCH  16  17
ENDBRANCH   7  16
BRANCH  15  23
ATOM     23  C   UNL     1      81.103  88.793  84.868  1.00  0.00    -0.046 C 
ATOM     24  C   UNL     1      80.193  87.930  84.045  1.00  0.00     0.042 C 
ATOM     25  C   UNL     1      82.006  89.609  84.306  1.00  0.00     0.010 C 
ENDBRANCH  15  23
ENDBRANCH   3   4
BRANCH   2  26
ATOM     26  C   UNL     1      77.715  90.169  90.891  1.00  0.00     0.078 C 
BRANCH  26  27
ATOM     27  C   UNL     1      78.186  88.727  90.709  1.00  0.00     0.140 C 
ATOM     28  C   UNL     1      79.717  88.629  90.550  1.00  0.00     0.086 CG0
ATOM     29  C   UNL     1      77.931  87.875  91.934  1.00  0.00     0.190 C 
ATOM     30  C   UNL     1      80.093  87.498  91.467  1.00  0.00    -0.010 C 
ATOM     31  G   UNL     1      80.257  88.640  89.091  1.00  0.00     0.000 G0
ATOM     32  O   UNL     1      76.873  87.808  92.543  1.00  0.00    -0.291 OA
ATOM     33  C   UNL     1      79.119  87.071  92.277  1.00  0.00    -0.008 C 
ATOM     34  C   UNL     1      79.150  86.052  93.346  1.00  0.00     0.048 C 
BRANCH  27  35
ATOM     35  O   UNL     1      77.460  88.070  89.683  1.00  0.00    -0.381 OA
ATOM     36  H   UNL     1      76.858  88.714  89.273  1.00  0.00     0.212 HD
ENDBRANCH  27  35
ENDBRANCH  26  27
ENDBRANCH   2  26
ENDBRANCH   1   2
BRANCH   1  37
ATOM     37  O   UNL     1      78.342  92.839  91.696  1.00  0.00    -0.461 OA
BRANCH  37  38
ATOM     38  C   UNL     1      79.620  93.311  91.889  1.00  0.00     0.310 C 
ATOM     39  O   UNL     1      80.481  92.755  92.556  1.00  0.00    -0.252 OA
BRANCH  38  40
ATOM     40  C   UNL     1      79.791  94.618  91.152  1.00  0.00     0.158 C 
BRANCH  40  41
ATOM     41  C   UNL     1      81.039  94.658  90.309  1.00  0.00    -0.037 A 
ATOM     42  C   UNL     1      81.737  93.481  90.040  1.00  0.00     0.008 A 
ATOM     43  C   UNL     1      81.496  95.872  89.797  1.00  0.00     0.008 A 
ATOM     44  C   UNL     1      82.893  93.519  89.260  1.00  0.00     0.046 A 
ATOM     45  C   UNL     1      82.652  95.910  89.017  1.00  0.00     0.046 A 
ATOM     46  C   UNL     1      83.350  94.734  88.748  1.00  0.00     0.115 A 
BRANCH  46  47
ATOM     47  O   UNL     1      84.478  94.770  87.988  1.00  0.00    -0.508 OA
ATOM     48  H   UNL     1      84.764  93.858  87.803  1.00  0.00     0.293 HD
ENDBRANCH  46  47
ENDBRANCH  40  41
ENDBRANCH  38  40
ENDBRANCH  37  38
ENDBRANCH   1  37
TORSDOF 10
ENDMDL
MODEL 4
REMARK VINA RESULT:    -7.470     30.711     34.594
REMARK INTER + INTRA:         -12.943
REMARK INTER:                 -12.682
REMARK INTRA:                  -0.261
REMARK UNBOUND:                -0.232
REMARK SMILES C=C(C)[C@]12C[C@@H](C)[C@@]34O[C@](Cc5ccccc5)(O[C@@H]1[C@@H]3C=C(COC(=O)Cc1ccc(O)cc1)C[C@]1(O)C(=O)C(C)=C[C@@H]41)O2
REMARK SMILES IDX 23 1 22 2 21 3 20 4 9 5 8 6 10 7 6 8 18 10 44 11 19 12 5 13
REMARK SMILES IDX 7 14 4 15 11 16 12 17 13 18 17 19 14 20 16 21 15 22 2 23
REMARK SMILES IDX 3 24 1 25 35 26 36 27 43 28 38 29 42 30 39 32 40 33 41 34
REMARK SMILES IDX 37 35 24 37 25 38 26 39 27 40 28 41 29 42 34 43 30 44 33 45
REMARK SMILES IDX 31 46 32 47
REMARK H PARENT 37 36 32 48
REMARK Flexibility Score: 90.00
ROOT
ATOM      1  C   UNL     1      92.965  94.220  75.701  1.00  0.00     0.264 C 
ENDROOT
BRANCH   1   2
ATOM      2  C   UNL     1      94.308  94.588  76.287  1.00  0.00    -0.033 C 
ATOM      3  C   UNL     1      95.180  95.298  75.542  1.00  0.00    -0.015 C 
BRANCH   3   4
ATOM      4  C   UNL     1      96.603  95.724  75.866  1.00  0.00     0.078 C 
ATOM      5  O   UNL     1      96.470  97.982  76.866  1.00  0.00    -0.319 OA
ATOM      6  C   UNL     1      96.849  96.599  77.150  1.00  0.00     0.095 CG0
ATOM      7  C   UNL     1      96.886  98.483  75.581  1.00  0.00     0.289 C 
ATOM      8  C   UNL     1      98.396  96.539  77.483  1.00  0.00     0.023 C 
ATOM      9  G   UNL     1      95.899  96.166  78.305  1.00  0.00     0.000 G0
ATOM     10  O   UNL     1      96.376  97.678  74.522  1.00  0.00    -0.320 OA
ATOM     11  O   UNL     1      98.303  98.470  75.427  1.00  0.00    -0.313 OA
ATOM     12  C   UNL     1      97.201  96.512  74.674  1.00  0.00     0.170 C 
ATOM     13  C   UNL     1      99.256  96.427  76.187  1.00  0.00     0.049 C 
ATOM     14  C   UNL     1      98.932  97.690  78.352  1.00  0.00     0.011 C 
ATOM     15  C   UNL     1      98.586  97.121  75.001  1.00  0.00     0.122 C 
BRANCH   7  16
ATOM     16  C   UNL     1      96.375  99.903  75.437  1.00  0.00     0.135 C 
BRANCH  16  17
ATOM     17  C   UNL     1      95.363 100.031  74.327  1.00  0.00    -0.040 A 
ATOM     18  C   UNL     1      95.782 100.334  73.032  1.00  0.00     0.004 A 
ATOM     19  C   UNL     1      94.007  99.847  74.596  1.00  0.00     0.004 A 
ATOM     20  C   UNL     1      94.845 100.452  72.005  1.00  0.00     0.000 A 
ATOM     21  C   UNL     1      93.070  99.965  73.569  1.00  0.00     0.000 A 
ATOM     22  C   UNL     1      93.489 100.267  72.274  1.00  0.00     0.000 A 
ENDBRANCH  16  17
ENDBRANCH   7  16
BRANCH  15  23
ATOM     23  C   UNL     1      99.470  97.184  73.798  1.00  0.00    -0.046 C 
ATOM     24  C   UNL     1      98.877  96.683  72.514  1.00  0.00     0.042 C 
ATOM     25  C   UNL     1     100.721  97.661  73.862  1.00  0.00     0.010 C 
ENDBRANCH  15  23
ENDBRANCH   3   4
BRANCH   2  26
ATOM     26  C   UNL     1      94.496  94.088  77.707  1.00  0.00     0.078 C 
BRANCH  26  27
ATOM     27  C   UNL     1      95.708  94.609  78.476  1.00  0.00     0.140 C 
ATOM     28  C   UNL     1      95.901  96.130  78.302  1.00  0.00     0.086 CG0
ATOM     29  C   UNL     1      95.547  94.472  79.976  1.00  0.00     0.190 C 
ATOM     30  C   UNL     1      96.158  96.613  79.702  1.00  0.00    -0.010 C 
ATOM     31  G   UNL     1      96.854  96.573  77.154  1.00  0.00     0.000 G0
ATOM     32  O   UNL     1      95.188  93.460  80.559  1.00  0.00    -0.291 OA
ATOM     33  C   UNL     1      95.941  95.714  80.667  1.00  0.00    -0.008 C 
ATOM     34  C   UNL     1      96.011  95.859  82.135  1.00  0.00     0.048 C 
BRANCH  27  35
ATOM     35  O   UNL     1      96.870  93.848  78.190  1.00  0.00    -0.381 OA
ATOM     36  H   UNL     1      96.606  92.921  78.062  1.00  0.00     0.212 HD
ENDBRANCH  27  35
ENDBRANCH  26  27
ENDBRANCH   2  26
ENDBRANCH   1   2
BRANCH   1  37
ATOM     37  O   UNL     1      93.080  92.998  75.002  1.00  0.00    -0.461 OA
BRANCH  37  38
ATOM     38  C   UNL     1      92.043  92.108  75.159  1.00  0.00     0.310 C 
ATOM     39  O   UNL     1      91.363  91.993  76.169  1.00  0.00    -0.252 OA
BRANCH  38  40
ATOM     40  C   UNL     1      91.876  91.300  73.894  1.00  0.00     0.158 C 
BRANCH  40  41
ATOM     41  C   UNL     1      90.470  91.338  73.354  1.00  0.00    -0.037 A 
ATOM     42  C   UNL     1      89.666  90.200  73.423  1.00  0.00     0.008 A 
ATOM     43  C   UNL     1      89.972  92.509  72.784  1.00  0.00     0.008 A 
ATOM     44  C   UNL     1      88.364  90.234  72.922  1.00  0.00     0.046 A 
ATOM     45  C   UNL     1      88.671  92.544  72.283  1.00  0.00     0.046 A 
ATOM     46  C   UNL     1      87.867  91.406  72.352  1.00  0.00     0.115 A 
BRANCH  46  47
ATOM     47  O   UNL     1      86.598  91.439  71.863  1.00  0.00    -0.508 OA
ATOM     48  H   UNL     1      86.347  92.365  71.697  1.00  0.00     0.293 HD
ENDBRANCH  46  47
ENDBRANCH  40  41
ENDBRANCH  38  40
ENDBRANCH  37  38
ENDBRANCH   1  37
TORSDOF 10
ENDMDL
MODEL 5
REMARK VINA RESULT:    -7.230     26.344     29.163
REMARK INTER + INTRA:         -12.534
REMARK INTER:                 -12.067
REMARK INTRA:                  -0.467
REMARK UNBOUND:                -0.232
REMARK SMILES C=C(C)[C@]12C[C@@H](C)[C@@]34O[C@](Cc5ccccc5)(O[C@@H]1[C@@H]3C=C(COC(=O)Cc1ccc(O)cc1)C[C@]1(O)C(=O)C(C)=C[C@@H]41)O2
REMARK SMILES IDX 23 1 22 2 21 3 20 4 9 5 8 6 10 7 6 8 18 10 44 11 19 12 5 13
REMARK SMILES IDX 7 14 4 15 11 16 12 17 13 18 17 19 14 20 16 21 15 22 2 23
REMARK SMILES IDX 3 24 1 25 35 26 36 27 43 28 38 29 42 30 39 32 40 33 41 34
REMARK SMILES IDX 37 35 24 37 25 38 26 39 27 40 28 41 29 42 34 43 30 44 33 45
REMARK SMILES IDX 31 46 32 47
REMARK H PARENT 37 36 32 48
REMARK Flexibility Score: 90.00
ROOT
ATOM      1  C   UNL     1      84.723  70.069  71.632  1.00  0.00     0.264 C 
ENDROOT
BRANCH   1   2
ATOM      2  C   UNL     1      86.090  69.943  71.001  1.00  0.00    -0.033 C 
ATOM      3  C   UNL     1      86.216  70.093  69.666  1.00  0.00    -0.015 C 
BRANCH   3   4
ATOM      4  C   UNL     1      87.449  69.941  68.790  1.00  0.00     0.078 C 
ATOM      5  O   UNL     1      88.471  72.184  68.590  1.00  0.00    -0.319 OA
ATOM      6  C   UNL     1      88.704  70.835  69.103  1.00  0.00     0.095 CG0
ATOM      7  C   UNL     1      87.867  72.249  67.284  1.00  0.00     0.289 C 
ATOM      8  C   UNL     1      89.946  70.198  68.354  1.00  0.00     0.023 C 
ATOM      9  G   UNL     1      88.876  71.029  70.638  1.00  0.00     0.000 G0
ATOM     10  O   UNL     1      86.618  71.563  67.256  1.00  0.00    -0.320 OA
ATOM     11  O   UNL     1      88.670  71.628  66.283  1.00  0.00    -0.313 OA
ATOM     12  C   UNL     1      87.078  70.203  67.309  1.00  0.00     0.170 C 
ATOM     13  C   UNL     1      89.523  69.529  67.011  1.00  0.00     0.049 C 
ATOM     14  C   UNL     1      91.126  71.152  68.099  1.00  0.00     0.011 C 
ATOM     15  C   UNL     1      88.318  70.232  66.383  1.00  0.00     0.122 C 
BRANCH   7  16
ATOM     16  C   UNL     1      87.658  73.708  66.929  1.00  0.00     0.135 C 
BRANCH  16  17
ATOM     17  C   UNL     1      88.854  74.296  66.222  1.00  0.00    -0.040 A 
ATOM     18  C   UNL     1      88.797  74.556  64.853  1.00  0.00     0.004 A 
ATOM     19  C   UNL     1      90.017  74.578  66.938  1.00  0.00     0.004 A 
ATOM     20  C   UNL     1      89.903  75.100  64.200  1.00  0.00     0.000 A 
ATOM     21  C   UNL     1      91.123  75.122  66.284  1.00  0.00     0.000 A 
ATOM     22  C   UNL     1      91.066  75.382  64.916  1.00  0.00     0.000 A 
ENDBRANCH  16  17
ENDBRANCH   7  16
BRANCH  15  23
ATOM     23  C   UNL     1      88.008  69.726  65.013  1.00  0.00    -0.046 C 
ATOM     24  C   UNL     1      87.225  68.448  64.941  1.00  0.00     0.042 C 
ATOM     25  C   UNL     1      88.407  70.375  63.909  1.00  0.00     0.010 C 
ENDBRANCH  15  23
ENDBRANCH   3   4
BRANCH   2  26
ATOM     26  C   UNL     1      87.188  69.660  72.009  1.00  0.00     0.078 C 
BRANCH  26  27
ATOM     27  C   UNL     1      88.630  69.755  71.515  1.00  0.00     0.140 C 
ATOM     28  C   UNL     1      88.870  71.010  70.651  1.00  0.00     0.086 CG0
ATOM     29  C   UNL     1      89.619  69.945  72.646  1.00  0.00     0.190 C 
ATOM     30  C   UNL     1      90.157  71.568  71.193  1.00  0.00    -0.010 C 
ATOM     31  G   UNL     1      88.705  70.825  69.114  1.00  0.00     0.000 G0
ATOM     32  O   UNL     1      89.658  69.282  73.671  1.00  0.00    -0.291 OA
ATOM     33  C   UNL     1      90.589  71.010  72.328  1.00  0.00    -0.008 C 
ATOM     34  C   UNL     1      91.750  71.353  73.174  1.00  0.00     0.048 C 
BRANCH  27  35
ATOM     35  O   UNL     1      89.048  68.547  70.900  1.00  0.00    -0.381 OA
ATOM     36  H   UNL     1      89.497  68.002  71.568  1.00  0.00     0.212 HD
ENDBRANCH  27  35
ENDBRANCH  26  27
ENDBRANCH   2  26
ENDBRANCH   1   2
BRANCH   1  37
ATOM     37  O   UNL     1      83.843  69.145  71.028  1.00  0.00    -0.461 OA
BRANCH  37  38
ATOM     38  C   UNL     1      83.159  68.311  71.882  1.00  0.00     0.310 C 
ATOM     39  O   UNL     1      82.819  68.597  73.021  1.00  0.00    -0.252 OA
BRANCH  38  40
ATOM     40  C   UNL     1      82.894  66.993  71.194  1.00  0.00     0.158 C 
BRANCH  40  41
ATOM     41  C   UNL     1      82.023  66.070  72.006  1.00  0.00    -0.037 A 
ATOM     42  C   UNL     1      80.652  66.005  71.755  1.00  0.00     0.008 A 
ATOM     43  C   UNL     1      82.585  65.282  73.010  1.00  0.00     0.008 A 
ATOM     44  C   UNL     1      79.844  65.152  72.508  1.00  0.00     0.046 A 
ATOM     45  C   UNL     1      81.778  64.428  73.762  1.00  0.00     0.046 A 
ATOM     46  C   UNL     1      80.408  64.363  73.511  1.00  0.00     0.115 A 
BRANCH  46  47
ATOM     47  O   UNL     1      79.620  63.531  74.246  1.00  0.00    -0.508 OA
ATOM     48  H   UNL     1      79.527  62.686  73.773  1.00  0.00     0.293 HD
ENDBRANCH  46  47
ENDBRANCH  40  41
ENDBRANCH  38  40
ENDBRANCH  37  38
ENDBRANCH   1  37
TORSDOF 10
ENDMDL
MODEL 6
REMARK VINA RESULT:    -7.197     31.157     34.649
REMARK INTER + INTRA:         -12.478
REMARK INTER:                 -11.866
REMARK INTRA:                  -0.611
REMARK UNBOUND:                -0.232
REMARK SMILES C=C(C)[C@]12C[C@@H](C)[C@@]34O[C@](Cc5ccccc5)(O[C@@H]1[C@@H]3C=C(COC(=O)Cc1ccc(O)cc1)C[C@]1(O)C(=O)C(C)=C[C@@H]41)O2
REMARK SMILES IDX 23 1 22 2 21 3 20 4 9 5 8 6 10 7 6 8 18 10 44 11 19 12 5 13
REMARK SMILES IDX 7 14 4 15 11 16 12 17 13 18 17 19 14 20 16 21 15 22 2 23
REMARK SMILES IDX 3 24 1 25 35 26 36 27 43 28 38 29 42 30 39 32 40 33 41 34
REMARK SMILES IDX 37 35 24 37 25 38 26 39 27 40 28 41 29 42 34 43 30 44 33 45
REMARK SMILES IDX 31 46 32 47
REMARK H PARENT 37 36 32 48
REMARK Flexibility Score: 90.00
ROOT
ATOM      1  C   UNL     1      94.290  93.677  76.537  1.00  0.00     0.264 C 
ENDROOT
BRANCH   1   2
ATOM      2  C   UNL     1      95.396  94.689  76.342  1.00  0.00    -0.033 C 
ATOM      3  C   UNL     1      95.524  95.304  75.148  1.00  0.00    -0.015 C 
BRANCH   3   4
ATOM      4  C   UNL     1      96.583  96.289  74.678  1.00  0.00     0.078 C 
ATOM      5  O   UNL     1      95.712  98.557  75.142  1.00  0.00    -0.319 OA
ATOM      6  C   UNL     1      96.779  97.621  75.492  1.00  0.00     0.095 CG0
ATOM      7  C   UNL     1      95.391  98.628  73.740  1.00  0.00     0.289 C 
ATOM      8  C   UNL     1      98.176  98.238  75.071  1.00  0.00     0.023 C 
ATOM      9  G   UNL     1      96.591  97.370  77.017  1.00  0.00     0.000 G0
ATOM     10  O   UNL     1      95.019  97.351  73.228  1.00  0.00    -0.320 OA
ATOM     11  O   UNL     1      96.501  99.051  72.950  1.00  0.00    -0.313 OA
ATOM     12  C   UNL     1      96.302  96.704  73.213  1.00  0.00     0.170 C 
ATOM     13  C   UNL     1      98.508  97.937  73.577  1.00  0.00     0.049 C 
ATOM     14  C   UNL     1      98.340  99.745  75.336  1.00  0.00     0.011 C 
ATOM     15  C   UNL     1      97.242  97.833  72.726  1.00  0.00     0.122 C 
BRANCH   7  16
ATOM     16  C   UNL     1      94.245  99.605  73.564  1.00  0.00     0.135 C 
BRANCH  16  17
ATOM     17  C   UNL     1      93.820  99.724  72.122  1.00  0.00    -0.040 A 
ATOM     18  C   UNL     1      92.938  98.793  71.575  1.00  0.00     0.004 A 
ATOM     19  C   UNL     1      94.308 100.768  71.336  1.00  0.00     0.004 A 
ATOM     20  C   UNL     1      92.543  98.904  70.241  1.00  0.00     0.000 A 
ATOM     21  C   UNL     1      93.914 100.879  70.002  1.00  0.00     0.000 A 
ATOM     22  C   UNL     1      93.032  99.948  69.455  1.00  0.00     0.000 A 
ENDBRANCH  16  17
ENDBRANCH   7  16
BRANCH  15  23
ATOM     23  C   UNL     1      97.539  97.726  71.266  1.00  0.00    -0.046 C 
ATOM     24  C   UNL     1      97.739  96.339  70.731  1.00  0.00     0.042 C 
ATOM     25  C   UNL     1      97.623  98.808  70.478  1.00  0.00     0.010 C 
ENDBRANCH  15  23
ENDBRANCH   3   4
BRANCH   2  26
ATOM     26  C   UNL     1      96.246  94.889  77.583  1.00  0.00     0.078 C 
BRANCH  26  27
ATOM     27  C   UNL     1      97.248  96.042  77.565  1.00  0.00     0.140 C 
ATOM     28  C   UNL     1      96.626  97.346  77.021  1.00  0.00     0.086 CG0
ATOM     29  C   UNL     1      97.690  96.448  78.955  1.00  0.00     0.190 C 
ATOM     30  C   UNL     1      97.083  98.387  78.005  1.00  0.00    -0.010 C 
ATOM     31  G   UNL     1      96.803  97.606  75.497  1.00  0.00     0.000 G0
ATOM     32  O   UNL     1      98.075  95.683  79.826  1.00  0.00    -0.291 OA
ATOM     33  C   UNL     1      97.658  97.914  79.114  1.00  0.00    -0.008 C 
ATOM     34  C   UNL     1      98.145  98.628  80.312  1.00  0.00     0.048 C 
BRANCH  27  35
ATOM     35  O   UNL     1      98.455  95.671  76.920  1.00  0.00    -0.381 OA
ATOM     36  H   UNL     1      98.232  95.239  76.077  1.00  0.00     0.212 HD
ENDBRANCH  27  35
ENDBRANCH  26  27
ENDBRANCH   2  26
ENDBRANCH   1   2
BRANCH   1  37
ATOM     37  O   UNL     1      93.510  93.607  75.362  1.00  0.00    -0.461 OA
BRANCH  37  38
ATOM     38  C   UNL     1      92.197  94.001  75.481  1.00  0.00     0.310 C 
ATOM     39  O   UNL     1      91.787  94.856  76.252  1.00  0.00    -0.252 OA
BRANCH  38  40
ATOM     40  C   UNL     1      91.346  93.214  74.513  1.00  0.00     0.158 C 
BRANCH  40  41
ATOM     41  C   UNL     1      91.119  91.791  74.953  1.00  0.00    -0.037 A 
ATOM     42  C   UNL     1      90.411  91.528  76.126  1.00  0.00     0.008 A 
ATOM     43  C   UNL     1      91.615  90.736  74.187  1.00  0.00     0.008 A 
ATOM     44  C   UNL     1      90.201  90.211  76.534  1.00  0.00     0.046 A 
ATOM     45  C   UNL     1      91.405  89.418  74.594  1.00  0.00     0.046 A 
ATOM     46  C   UNL     1      90.698  89.156  75.768  1.00  0.00     0.115 A 
BRANCH  46  47
ATOM     47  O   UNL     1      90.493  87.871  76.166  1.00  0.00    -0.508 OA
ATOM     48  H   UNL     1      91.302  87.356  75.998  1.00  0.00     0.293 HD
ENDBRANCH  46  47
ENDBRANCH  40  41
ENDBRANCH  38  40
ENDBRANCH  37  38
ENDBRANCH   1  37
TORSDOF 10
ENDMDL
MODEL 7
REMARK VINA RESULT:    -7.181     32.380     36.055
REMARK INTER + INTRA:         -12.451
REMARK INTER:                 -11.950
REMARK INTRA:                  -0.501
REMARK UNBOUND:                -0.232
REMARK SMILES C=C(C)[C@]12C[C@@H](C)[C@@]34O[C@](Cc5ccccc5)(O[C@@H]1[C@@H]3C=C(COC(=O)Cc1ccc(O)cc1)C[C@]1(O)C(=O)C(C)=C[C@@H]41)O2
REMARK SMILES IDX 23 1 22 2 21 3 20 4 9 5 8 6 10 7 6 8 18 10 44 11 19 12 5 13
REMARK SMILES IDX 7 14 4 15 11 16 12 17 13 18 17 19 14 20 16 21 15 22 2 23
REMARK SMILES IDX 3 24 1 25 35 26 36 27 43 28 38 29 42 30 39 32 40 33 41 34
REMARK SMILES IDX 37 35 24 37 25 38 26 39 27 40 28 41 29 42 34 43 30 44 33 45
REMARK SMILES IDX 31 46 32 47
REMARK H PARENT 37 36 32 48
REMARK Flexibility Score: 90.00
ROOT
ATOM      1  C   UNL     1      94.049 101.360  70.264  1.00  0.00     0.264 C 
ENDROOT
BRANCH   1   2
ATOM      2  C   UNL     1      95.238 100.673  70.895  1.00  0.00    -0.033 C 
ATOM      3  C   UNL     1      95.197 100.356  72.206  1.00  0.00    -0.015 C 
BRANCH   3   4
ATOM      4  C   UNL     1      96.274  99.740  73.084  1.00  0.00     0.078 C 
ATOM      5  O   UNL     1      95.928  97.291  73.037  1.00  0.00    -0.319 OA
ATOM      6  C   UNL     1      96.872  98.345  72.668  1.00  0.00     0.095 CG0
ATOM      7  C   UNL     1      95.317  97.439  74.333  1.00  0.00     0.289 C 
ATOM      8  C   UNL     1      98.222  98.144  73.472  1.00  0.00     0.023 C 
ATOM      9  G   UNL     1      96.992  98.234  71.120  1.00  0.00     0.000 G0
ATOM     10  O   UNL     1      94.628  98.681  74.442  1.00  0.00    -0.320 OA
ATOM     11  O   UNL     1      96.276  97.435  75.388  1.00  0.00    -0.313 OA
ATOM     12  C   UNL     1      95.745  99.580  74.531  1.00  0.00     0.170 C 
ATOM     13  C   UNL     1      98.153  98.806  74.882  1.00  0.00     0.049 C 
ATOM     14  C   UNL     1      98.695  96.687  73.615  1.00  0.00     0.011 C 
ATOM     15  C   UNL     1      96.729  98.804  75.439  1.00  0.00     0.122 C 
BRANCH   7  16
ATOM     16  C   UNL     1      94.344  96.293  74.532  1.00  0.00     0.135 C 
BRANCH  16  17
ATOM     17  C   UNL     1      94.845  95.293  75.544  1.00  0.00    -0.040 A 
ATOM     18  C   UNL     1      95.985  94.537  75.272  1.00  0.00     0.004 A 
ATOM     19  C   UNL     1      94.168  95.126  76.752  1.00  0.00     0.004 A 
ATOM     20  C   UNL     1      96.448  93.612  76.209  1.00  0.00     0.000 A 
ATOM     21  C   UNL     1      94.632  94.202  77.688  1.00  0.00     0.000 A 
ATOM     22  C   UNL     1      95.771  93.445  77.417  1.00  0.00     0.000 A 
ENDBRANCH  16  17
ENDBRANCH   7  16
BRANCH  15  23
ATOM     23  C   UNL     1      96.668  99.267  76.858  1.00  0.00    -0.046 C 
ATOM     24  C   UNL     1      96.065 100.621  77.087  1.00  0.00     0.042 C 
ATOM     25  C   UNL     1      97.126  98.515  77.870  1.00  0.00     0.010 C 
ENDBRANCH  15  23
ENDBRANCH   3   4
BRANCH   2  26
ATOM     26  C   UNL     1      96.368 100.416  69.915  1.00  0.00     0.078 C 
BRANCH  26  27
ATOM     27  C   UNL     1      97.509  99.517  70.386  1.00  0.00     0.140 C 
ATOM     28  C   UNL     1      96.997  98.254  71.109  1.00  0.00     0.086 CG0
ATOM     29  C   UNL     1      98.300  98.934  69.234  1.00  0.00     0.190 C 
ATOM     30  C   UNL     1      97.813  97.148  70.501  1.00  0.00    -0.010 C 
ATOM     31  G   UNL     1      96.878  98.353  72.658  1.00  0.00     0.000 G0
ATOM     32  O   UNL     1      98.740  99.565  68.285  1.00  0.00    -0.291 OA
ATOM     33  C   UNL     1      98.534  97.490  69.429  1.00  0.00    -0.008 C 
ATOM     34  C   UNL     1      99.375  96.659  68.543  1.00  0.00     0.048 C 
BRANCH  27  35
ATOM     35  O   UNL     1      98.474 100.248  71.123  1.00  0.00    -0.381 OA
ATOM     36  H   UNL     1      98.121 101.138  71.293  1.00  0.00     0.212 HD
ENDBRANCH  27  35
ENDBRANCH  26  27
ENDBRANCH   2  26
ENDBRANCH   1   2
BRANCH   1  37
ATOM     37  O   UNL     1      92.875 100.642  70.577  1.00  0.00    -0.461 OA
BRANCH  37  38
ATOM     38  C   UNL     1      91.718 101.075  69.971  1.00  0.00     0.310 C 
ATOM     39  O   UNL     1      90.748 101.535  70.556  1.00  0.00    -0.252 OA
BRANCH  38  40
ATOM     40  C   UNL     1      91.835 100.893  68.476  1.00  0.00     0.158 C 
BRANCH  40  41
ATOM     41  C   UNL     1      91.120  99.665  67.976  1.00  0.00    -0.037 A 
ATOM     42  C   UNL     1      91.220  98.464  68.679  1.00  0.00     0.008 A 
ATOM     43  C   UNL     1      90.358  99.727  66.810  1.00  0.00     0.008 A 
ATOM     44  C   UNL     1      90.559  97.326  68.215  1.00  0.00     0.046 A 
ATOM     45  C   UNL     1      89.696  98.590  66.346  1.00  0.00     0.046 A 
ATOM     46  C   UNL     1      89.797  97.390  67.049  1.00  0.00     0.115 A 
BRANCH  46  47
ATOM     47  O   UNL     1      89.152  96.280  66.596  1.00  0.00    -0.508 OA
ATOM     48  H   UNL     1      89.364  95.532  67.181  1.00  0.00     0.293 HD
ENDBRANCH  46  47
ENDBRANCH  40  41
ENDBRANCH  38  40
ENDBRANCH  37  38
ENDBRANCH   1  37
TORSDOF 10
ENDMDL
MODEL 8
REMARK VINA RESULT:    -7.111     31.257     34.406
REMARK INTER + INTRA:         -12.331
REMARK INTER:                 -11.781
REMARK INTRA:                  -0.550
REMARK UNBOUND:                -0.232
REMARK SMILES C=C(C)[C@]12C[C@@H](C)[C@@]34O[C@](Cc5ccccc5)(O[C@@H]1[C@@H]3C=C(COC(=O)Cc1ccc(O)cc1)C[C@]1(O)C(=O)C(C)=C[C@@H]41)O2
REMARK SMILES IDX 23 1 22 2 21 3 20 4 9 5 8 6 10 7 6 8 18 10 44 11 19 12 5 13
REMARK SMILES IDX 7 14 4 15 11 16 12 17 13 18 17 19 14 20 16 21 15 22 2 23
REMARK SMILES IDX 3 24 1 25 35 26 36 27 43 28 38 29 42 30 39 32 40 33 41 34
REMARK SMILES IDX 37 35 24 37 25 38 26 39 27 40 28 41 29 42 34 43 30 44 33 45
REMARK SMILES IDX 31 46 32 47
REMARK H PARENT 37 36 32 48
REMARK Flexibility Score: 90.00
ROOT
ATOM      1  C   UNL     1      95.000  96.339  75.378  1.00  0.00     0.264 C 
ENDROOT
BRANCH   1   2
ATOM      2  C   UNL     1      95.345  96.980  74.054  1.00  0.00    -0.033 C 
ATOM      3  C   UNL     1      94.412  97.718  73.416  1.00  0.00    -0.015 C 
BRANCH   3   4
ATOM      4  C   UNL     1      94.481  98.395  72.056  1.00  0.00     0.078 C 
ATOM      5  O   UNL     1      95.257 100.711  72.444  1.00  0.00    -0.319 OA
ATOM      6  C   UNL     1      95.621  99.449  71.802  1.00  0.00     0.095 CG0
ATOM      7  C   UNL     1      93.881 101.108  72.285  1.00  0.00     0.289 C 
ATOM      8  C   UNL     1      95.730  99.670  70.237  1.00  0.00     0.023 C 
ATOM      9  G   UNL     1      96.939  99.020  72.510  1.00  0.00     0.000 G0
ATOM     10  O   UNL     1      92.994 100.109  72.781  1.00  0.00    -0.320 OA
ATOM     11  O   UNL     1      93.525 101.295  70.917  1.00  0.00    -0.313 OA
ATOM     12  C   UNL     1      93.142  99.112  71.757  1.00  0.00     0.170 C 
ATOM     13  C   UNL     1      94.341  99.533  69.542  1.00  0.00     0.049 C 
ATOM     14  C   UNL     1      96.391 100.988  69.800  1.00  0.00     0.011 C 
ATOM     15  C   UNL     1      93.201  99.964  70.466  1.00  0.00     0.122 C 
BRANCH   7  16
ATOM     16  C   UNL     1      93.670 102.403  73.043  1.00  0.00     0.135 C 
BRANCH  16  17
ATOM     17  C   UNL     1      92.265 102.524  73.577  1.00  0.00    -0.040 A 
ATOM     18  C   UNL     1      91.251 103.033  72.765  1.00  0.00     0.004 A 
ATOM     19  C   UNL     1      91.979 102.128  74.883  1.00  0.00     0.004 A 
ATOM     20  C   UNL     1      89.951 103.144  73.259  1.00  0.00     0.000 A 
ATOM     21  C   UNL     1      90.679 102.239  75.377  1.00  0.00     0.000 A 
ATOM     22  C   UNL     1      89.666 102.748  74.565  1.00  0.00     0.000 A 
ENDBRANCH  16  17
ENDBRANCH   7  16
BRANCH  15  23
ATOM     23  C   UNL     1      91.882 100.013  69.765  1.00  0.00    -0.046 C 
ATOM     24  C   UNL     1      91.141  98.714  69.657  1.00  0.00     0.042 C 
ATOM     25  C   UNL     1      91.389 101.154  69.261  1.00  0.00     0.010 C 
ENDBRANCH  15  23
ENDBRANCH   3   4
BRANCH   2  26
ATOM     26  C   UNL     1      96.767  96.698  73.607  1.00  0.00     0.078 C 
BRANCH  26  27
ATOM     27  C   UNL     1      97.294  97.490  72.412  1.00  0.00     0.140 C 
ATOM     28  C   UNL     1      96.947  98.990  72.508  1.00  0.00     0.086 CG0
ATOM     29  C   UNL     1      98.807  97.509  72.351  1.00  0.00     0.190 C 
ATOM     30  C   UNL     1      98.240  99.671  72.157  1.00  0.00    -0.010 C 
ATOM     31  G   UNL     1      95.633  99.436  71.802  1.00  0.00     0.000 G0
ATOM     32  O   UNL     1      99.532  96.531  72.452  1.00  0.00    -0.291 OA
ATOM     33  C   UNL     1      99.309  98.871  72.089  1.00  0.00    -0.008 C 
ATOM     34  C   UNL     1     100.730  99.200  71.854  1.00  0.00     0.048 C 
BRANCH  27  35
ATOM     35  O   UNL     1      96.913  96.891  71.185  1.00  0.00    -0.381 OA
ATOM     36  H   UNL     1      97.170  95.954  71.208  1.00  0.00     0.212 HD
ENDBRANCH  27  35
ENDBRANCH  26  27
ENDBRANCH   2  26
ENDBRANCH   1   2
BRANCH   1  37
ATOM     37  O   UNL     1      95.305  94.962  75.322  1.00  0.00    -0.461 OA
BRANCH  37  38
ATOM     38  C   UNL     1      94.716  94.170  76.281  1.00  0.00     0.310 C 
ATOM     39  O   UNL     1      95.269  93.252  76.871  1.00  0.00    -0.252 OA
BRANCH  38  40
ATOM     40  C   UNL     1      93.287  94.612  76.491  1.00  0.00     0.158 C 
BRANCH  40  41
ATOM     41  C   UNL     1      92.284  93.554  76.113  1.00  0.00    -0.037 A 
ATOM     42  C   UNL     1      91.790  92.681  77.084  1.00  0.00     0.008 A 
ATOM     43  C   UNL     1      91.848  93.445  74.793  1.00  0.00     0.008 A 
ATOM     44  C   UNL     1      90.861  91.701  76.733  1.00  0.00     0.046 A 
ATOM     45  C   UNL     1      90.919  92.465  74.442  1.00  0.00     0.046 A 
ATOM     46  C   UNL     1      90.426  91.593  75.412  1.00  0.00     0.115 A 
BRANCH  46  47
ATOM     47  O   UNL     1      89.520  90.636  75.070  1.00  0.00    -0.508 OA
ATOM     48  H   UNL     1      89.938  89.761  75.157  1.00  0.00     0.293 HD
ENDBRANCH  46  47
ENDBRANCH  40  41
ENDBRANCH  38  40
ENDBRANCH  37  38
ENDBRANCH   1  37
TORSDOF 10
ENDMDL
MODEL 9
REMARK VINA RESULT:    -7.107     31.325     34.650
REMARK INTER + INTRA:         -12.326
REMARK INTER:                 -12.455
REMARK INTRA:                   0.129
REMARK UNBOUND:                -0.232
REMARK SMILES C=C(C)[C@]12C[C@@H](C)[C@@]34O[C@](Cc5ccccc5)(O[C@@H]1[C@@H]3C=C(COC(=O)Cc1ccc(O)cc1)C[C@]1(O)C(=O)C(C)=C[C@@H]41)O2
REMARK SMILES IDX 23 1 22 2 21 3 20 4 9 5 8 6 10 7 6 8 18 10 44 11 19 12 5 13
REMARK SMILES IDX 7 14 4 15 11 16 12 17 13 18 17 19 14 20 16 21 15 22 2 23
REMARK SMILES IDX 3 24 1 25 35 26 36 27 43 28 38 29 42 30 39 32 40 33 41 34
REMARK SMILES IDX 37 35 24 37 25 38 26 39 27 40 28 41 29 42 34 43 30 44 33 45
REMARK SMILES IDX 31 46 32 47
REMARK H PARENT 37 36 32 48
REMARK Flexibility Score: 90.00
ROOT
ATOM      1  C   UNL     1      95.192  96.011  75.631  1.00  0.00     0.264 C 
ENDROOT
BRANCH   1   2
ATOM      2  C   UNL     1      95.539  96.708  74.336  1.00  0.00    -0.033 C 
ATOM      3  C   UNL     1      94.589  97.421  73.697  1.00  0.00    -0.015 C 
BRANCH   3   4
ATOM      4  C   UNL     1      94.660  98.142  72.360  1.00  0.00     0.078 C 
ATOM      5  O   UNL     1      95.334 100.474  72.835  1.00  0.00    -0.319 OA
ATOM      6  C   UNL     1      95.762  99.247  72.164  1.00  0.00     0.095 CG0
ATOM      7  C   UNL     1      93.948 100.821  72.658  1.00  0.00     0.289 C 
ATOM      8  C   UNL     1      95.895  99.521  70.609  1.00  0.00     0.023 C 
ATOM      9  G   UNL     1      97.081  98.848  72.887  1.00  0.00     0.000 G0
ATOM     10  O   UNL     1      93.091  99.773  73.103  1.00  0.00    -0.320 OA
ATOM     11  O   UNL     1      93.613 101.037  71.289  1.00  0.00    -0.313 OA
ATOM     12  C   UNL     1      93.299  98.815  72.053  1.00  0.00     0.170 C 
ATOM     13  C   UNL     1      94.527  99.351  69.879  1.00  0.00     0.049 C 
ATOM     14  C   UNL     1      96.512 100.877  70.226  1.00  0.00     0.011 C 
ATOM     15  C   UNL     1      93.351  99.709  70.790  1.00  0.00     0.122 C 
BRANCH   7  16
ATOM     16  C   UNL     1      93.669 102.083  73.450  1.00  0.00     0.135 C 
BRANCH  16  17
ATOM     17  C   UNL     1      93.957 101.904  74.920  1.00  0.00    -0.040 A 
ATOM     18  C   UNL     1      93.128 102.498  75.871  1.00  0.00     0.004 A 
ATOM     19  C   UNL     1      95.054 101.144  75.327  1.00  0.00     0.004 A 
ATOM     20  C   UNL     1      93.394 102.332  77.230  1.00  0.00     0.000 A 
ATOM     21  C   UNL     1      95.320 100.978  76.687  1.00  0.00     0.000 A 
ATOM     22  C   UNL     1      94.491 101.572  77.637  1.00  0.00     0.000 A 
ENDBRANCH  16  17
ENDBRANCH   7  16
BRANCH  15  23
ATOM     23  C   UNL     1      92.047  99.729  70.062  1.00  0.00    -0.046 C 
ATOM     24  C   UNL     1      91.437 101.080  69.834  1.00  0.00     0.042 C 
ATOM     25  C   UNL     1      91.455  98.603  69.636  1.00  0.00     0.010 C 
ENDBRANCH  15  23
ENDBRANCH   3   4
BRANCH   2  26
ATOM     26  C   UNL     1      96.984  96.506  73.919  1.00  0.00     0.078 C 
BRANCH  26  27
ATOM     27  C   UNL     1      97.504  97.364  72.768  1.00  0.00     0.140 C 
ATOM     28  C   UNL     1      97.075  98.840  72.900  1.00  0.00     0.086 CG0
ATOM     29  C   UNL     1      99.015  97.464  72.757  1.00  0.00     0.190 C 
ATOM     30  C   UNL     1      98.341  99.599  72.613  1.00  0.00    -0.010 C 
ATOM     31  G   UNL     1      95.762  99.240  72.166  1.00  0.00     0.000 G0
ATOM     32  O   UNL     1      99.788  96.522  72.850  1.00  0.00    -0.291 OA
ATOM     33  C   UNL     1      99.452  98.859  72.555  1.00  0.00    -0.008 C 
ATOM     34  C   UNL     1     100.860  99.269  72.377  1.00  0.00     0.048 C 
BRANCH  27  35
ATOM     35  O   UNL     1      97.194  96.787  71.510  1.00  0.00    -0.381 OA
ATOM     36  H   UNL     1      97.388  95.836  71.553  1.00  0.00     0.212 HD
ENDBRANCH  27  35
ENDBRANCH  26  27
ENDBRANCH   2  26
ENDBRANCH   1   2
BRANCH   1  37
ATOM     37  O   UNL     1      94.859  94.666  75.362  1.00  0.00    -0.461 OA
BRANCH  37  38
ATOM     38  C   UNL     1      93.518  94.356  75.383  1.00  0.00     0.310 C 
ATOM     39  O   UNL     1      92.691  94.762  74.579  1.00  0.00    -0.252 OA
BRANCH  38  40
ATOM     40  C   UNL     1      93.231  93.441  76.549  1.00  0.00     0.158 C 
BRANCH  40  41
ATOM     41  C   UNL     1      91.915  92.719  76.419  1.00  0.00    -0.037 A 
ATOM     42  C   UNL     1      91.794  91.642  75.542  1.00  0.00     0.008 A 
ATOM     43  C   UNL     1      90.817  93.127  77.176  1.00  0.00     0.008 A 
ATOM     44  C   UNL     1      90.576  90.973  75.420  1.00  0.00     0.046 A 
ATOM     45  C   UNL     1      89.598  92.459  77.056  1.00  0.00     0.046 A 
ATOM     46  C   UNL     1      89.477  91.383  76.178  1.00  0.00     0.115 A 
BRANCH  46  47
ATOM     47  O   UNL     1      88.289  90.731  76.059  1.00  0.00    -0.508 OA
ATOM     48  H   UNL     1      87.570  91.337  76.311  1.00  0.00     0.293 HD
ENDBRANCH  46  47
ENDBRANCH  40  41
ENDBRANCH  38  40
ENDBRANCH  37  38
ENDBRANCH   1  37
TORSDOF 10
ENDMDL
MODEL 10
REMARK VINA RESULT:    -6.995     31.743     34.658
REMARK INTER + INTRA:         -12.135
REMARK INTER:                 -11.866
REMARK INTRA:                  -0.269
REMARK UNBOUND:                -0.232
REMARK SMILES C=C(C)[C@]12C[C@@H](C)[C@@]34O[C@](Cc5ccccc5)(O[C@@H]1[C@@H]3C=C(COC(=O)Cc1ccc(O)cc1)C[C@]1(O)C(=O)C(C)=C[C@@H]41)O2
REMARK SMILES IDX 23 1 22 2 21 3 20 4 9 5 8 6 10 7 6 8 18 10 44 11 19 12 5 13
REMARK SMILES IDX 7 14 4 15 11 16 12 17 13 18 17 19 14 20 16 21 15 22 2 23
REMARK SMILES IDX 3 24 1 25 35 26 36 27 43 28 38 29 42 30 39 32 40 33 41 34
REMARK SMILES IDX 37 35 24 37 25 38 26 39 27 40 28 41 29 42 34 43 30 44 33 45
REMARK SMILES IDX 31 46 32 47
REMARK H PARENT 37 36 32 48
REMARK Flexibility Score: 90.00
ROOT
ATOM      1  C   UNL     1      94.941  97.002  74.097  1.00  0.00     0.264 C 
ENDROOT
BRANCH   1   2
ATOM      2  C   UNL     1      95.019  98.441  73.643  1.00  0.00    -0.033 C 
ATOM      3  C   UNL     1      94.799  98.736  72.345  1.00  0.00    -0.015 C 
BRANCH   3   4
ATOM      4  C   UNL     1      94.892 100.074  71.629  1.00  0.00     0.078 C 
ATOM      5  O   UNL     1      92.628 101.069  71.663  1.00  0.00    -0.319 OA
ATOM      6  C   UNL     1      93.996 101.261  72.142  1.00  0.00     0.095 CG0
ATOM      7  C   UNL     1      92.510 100.636  70.294  1.00  0.00     0.289 C 
ATOM      8  C   UNL     1      94.580 102.601  71.532  1.00  0.00     0.023 C 
ATOM      9  G   UNL     1      93.872 101.230  73.693  1.00  0.00     0.000 G0
ATOM     10  O   UNL     1      93.211  99.415  70.075  1.00  0.00    -0.320 OA
ATOM     11  O   UNL     1      93.072 101.573  69.379  1.00  0.00    -0.313 OA
ATOM     12  C   UNL     1      94.566  99.891  70.127  1.00  0.00     0.170 C 
ATOM     13  C   UNL     1      95.191 102.367  70.116  1.00  0.00     0.049 C 
ATOM     14  C   UNL     1      93.599 103.785  71.474  1.00  0.00     0.011 C 
ATOM     15  C   UNL     1      94.476 101.239  69.371  1.00  0.00     0.122 C 
BRANCH   7  16
ATOM     16  C   UNL     1      91.039 100.446  69.982  1.00  0.00     0.135 C 
BRANCH  16  17
ATOM     17  C   UNL     1      90.814  99.365  68.954  1.00  0.00    -0.040 A 
ATOM     18  C   UNL     1      90.561  98.056  69.361  1.00  0.00     0.004 A 
ATOM     19  C   UNL     1      90.857  99.677  67.595  1.00  0.00     0.004 A 
ATOM     20  C   UNL     1      90.352  97.057  68.410  1.00  0.00     0.000 A 
ATOM     21  C   UNL     1      90.648  98.678  66.644  1.00  0.00     0.000 A 
ATOM     22  C   UNL     1      90.396  97.369  67.051  1.00  0.00     0.000 A 
ENDBRANCH  16  17
ENDBRANCH   7  16
BRANCH  15  23
ATOM     23  C   UNL     1      94.922 101.118  67.950  1.00  0.00    -0.046 C 
ATOM     24  C   UNL     1      93.914 101.494  66.905  1.00  0.00     0.042 C 
ATOM     25  C   UNL     1      96.153 100.695  67.627  1.00  0.00     0.010 C 
ENDBRANCH  15  23
ENDBRANCH   3   4
BRANCH   2  26
ATOM     26  C   UNL     1      95.345  99.405  74.769  1.00  0.00     0.078 C 
BRANCH  26  27
ATOM     27  C   UNL     1      95.184 100.896  74.480  1.00  0.00     0.140 C 
ATOM     28  C   UNL     1      93.888 101.203  73.702  1.00  0.00     0.086 CG0
ATOM     29  C   UNL     1      95.008 101.715  75.741  1.00  0.00     0.190 C 
ATOM     30  C   UNL     1      93.311 102.383  74.434  1.00  0.00    -0.010 C 
ATOM     31  G   UNL     1      94.015 101.255  72.151  1.00  0.00     0.000 G0
ATOM     32  O   UNL     1      95.710 101.640  76.738  1.00  0.00    -0.291 OA
ATOM     33  C   UNL     1      93.900 102.678  75.597  1.00  0.00    -0.008 C 
ATOM     34  C   UNL     1      93.554 103.701  76.606  1.00  0.00     0.048 C 
BRANCH  27  35
ATOM     35  O   UNL     1      96.351 101.438  73.885  1.00  0.00    -0.381 OA
ATOM     36  H   UNL     1      96.933 100.703  73.627  1.00  0.00     0.212 HD
ENDBRANCH  27  35
ENDBRANCH  26  27
ENDBRANCH   2  26
ENDBRANCH   1   2
BRANCH   1  37
ATOM     37  O   UNL     1      95.570  96.875  75.354  1.00  0.00    -0.461 OA
BRANCH  37  38
ATOM     38  C   UNL     1      95.593  95.610  75.897  1.00  0.00     0.310 C 
ATOM     39  O   UNL     1      94.789  94.724  75.646  1.00  0.00    -0.252 OA
BRANCH  38  40
ATOM     40  C   UNL     1      96.762  95.491  76.845  1.00  0.00     0.158 C 
BRANCH  40  41
ATOM     41  C   UNL     1      96.339  95.308  78.279  1.00  0.00    -0.037 A 
ATOM     42  C   UNL     1      95.582  94.196  78.647  1.00  0.00     0.008 A 
ATOM     43  C   UNL     1      96.704  96.251  79.240  1.00  0.00     0.008 A 
ATOM     44  C   UNL     1      95.189  94.027  79.975  1.00  0.00     0.046 A 
ATOM     45  C   UNL     1      96.313  96.082  80.568  1.00  0.00     0.046 A 
ATOM     46  C   UNL     1      95.555  94.971  80.936  1.00  0.00     0.115 A 
BRANCH  46  47
ATOM     47  O   UNL     1      95.172  94.807  82.231  1.00  0.00    -0.508 OA
ATOM     48  H   UNL     1      95.875  94.335  82.711  1.00  0.00     0.293 HD
ENDBRANCH  46  47
ENDBRANCH  40  41
ENDBRANCH  38  40
ENDBRANCH  37  38
ENDBRANCH   1  37
TORSDOF 10
ENDMDL
