MODEL 1
REMARK VINA RESULT:    -6.124      0.000      0.000
REMARK INTER + INTRA:         -10.207
REMARK INTER:                  -9.525
REMARK INTRA:                  -0.682
REMARK UNBOUND:                -0.682
REMARK SMILES COc1cc(CNC(=O)CCCCCC(C)C)ccc1O
REMARK SMILES IDX 10 1 8 2 7 3 9 5 6 6 5 7 3 8 20 9 4 10 19 11 18 12 2 13 1 14
REMARK SMILES IDX 21 15 11 17 12 18 13 19 14 20 15 21 16 22 17 23
REMARK H PARENT 7 4 21 16
REMARK Flexibility Score: inf
ROOT
ATOM      1  C   UNL     1      96.295  84.031  83.589  1.00  0.00     0.100 C 
ENDROOT
BRANCH   1   2
ATOM      2  C   UNL     1      95.237  83.568  84.511  1.00  0.00     0.220 C 
ATOM      3  N   UNL     1      94.902  82.247  84.537  1.00  0.00    -0.352 N 
ATOM      4  H   UNL     1      95.324  81.687  83.810  1.00  0.00     0.163 HD
ATOM      5  O   UNL     1      94.697  84.397  85.284  1.00  0.00    -0.275 OA
BRANCH   3   6
ATOM      6  C   UNL     1      94.030  81.639  85.491  1.00  0.00     0.151 C 
BRANCH   6   7
ATOM      7  C   UNL     1      92.687  81.321  84.935  1.00  0.00    -0.025 A 
ATOM      8  C   UNL     1      91.019  79.670  84.202  1.00  0.00     0.160 A 
ATOM      9  C   UNL     1      90.106  80.713  83.939  1.00  0.00     0.157 A 
ATOM     10  C   UNL     1      92.309  79.982  84.680  1.00  0.00     0.056 A 
ATOM     11  C   UNL     1      90.480  82.050  84.163  1.00  0.00     0.050 A 
ATOM     12  C   UNL     1      91.758  82.353  84.662  1.00  0.00     0.009 A 
BRANCH   8  13
ATOM     13  O   UNL     1      90.681  78.362  83.972  1.00  0.00    -0.493 OA
ATOM     14  C   UNL     1      91.808  77.465  83.953  1.00  0.00     0.278 C 
ENDBRANCH   8  13
BRANCH   9  15
ATOM     15  O   UNL     1      88.863  80.424  83.477  1.00  0.00    -0.504 OA
ATOM     16  H   UNL     1      88.388  81.240  83.303  1.00  0.00     0.293 HD
ENDBRANCH   9  15
ENDBRANCH   6   7
ENDBRANCH   3   6
ENDBRANCH   1   2
BRANCH   1  17
ATOM     17  C   UNL     1      96.224  83.404  82.171  1.00  0.00     0.010 C 
BRANCH  17  18
ATOM     18  C   UNL     1      97.409  82.431  81.915  1.00  0.00     0.001 C 
BRANCH  18  19
ATOM     19  C   UNL     1      97.810  82.328  80.420  1.00  0.00     0.000 C 
BRANCH  19  20
ATOM     20  C   UNL     1      97.048  83.357  79.534  1.00  0.00     0.003 C 
BRANCH  20  21
ATOM     21  C   UNL     1      97.400  83.306  78.012  1.00  0.00    -0.017 C 
ATOM     22  C   UNL     1      96.397  84.160  77.181  1.00  0.00     0.007 C 
ATOM     23  C   UNL     1      97.455  81.854  77.453  1.00  0.00     0.007 C 
ENDBRANCH  20  21
ENDBRANCH  19  20
ENDBRANCH  18  19
ENDBRANCH  17  18
ENDBRANCH   1  17
TORSDOF 10
ENDMDL
MODEL 2
REMARK VINA RESULT:    -6.039      2.932      5.146
REMARK INTER + INTRA:         -10.076
REMARK INTER:                  -9.325
REMARK INTRA:                  -0.750
REMARK UNBOUND:                -0.682
REMARK SMILES COc1cc(CNC(=O)CCCCCC(C)C)ccc1O
REMARK SMILES IDX 10 1 8 2 7 3 9 5 6 6 5 7 3 8 20 9 4 10 19 11 18 12 2 13 1 14
REMARK SMILES IDX 21 15 11 17 12 18 13 19 14 20 15 21 16 22 17 23
REMARK H PARENT 7 4 21 16
REMARK Flexibility Score: inf
ROOT
ATOM      1  C   UNL     1      96.993  83.234  79.283  1.00  0.00     0.100 C 
ENDROOT
BRANCH   1   2
ATOM      2  C   UNL     1      97.165  82.528  80.570  1.00  0.00     0.220 C 
ATOM      3  N   UNL     1      97.170  83.243  81.730  1.00  0.00    -0.352 N 
ATOM      4  H   UNL     1      97.186  84.246  81.611  1.00  0.00     0.163 HD
ATOM      5  O   UNL     1      97.261  81.276  80.570  1.00  0.00    -0.275 OA
BRANCH   3   6
ATOM      6  C   UNL     1      97.153  82.680  83.042  1.00  0.00     0.151 C 
BRANCH   6   7
ATOM      7  C   UNL     1      95.914  83.003  83.801  1.00  0.00    -0.025 A 
ATOM      8  C   UNL     1      94.653  84.503  85.286  1.00  0.00     0.160 A 
ATOM      9  C   UNL     1      93.533  83.651  85.191  1.00  0.00     0.157 A 
ATOM     10  C   UNL     1      95.843  84.164  84.606  1.00  0.00     0.056 A 
ATOM     11  C   UNL     1      93.602  82.480  84.415  1.00  0.00     0.050 A 
ATOM     12  C   UNL     1      94.781  82.161  83.720  1.00  0.00     0.009 A 
BRANCH   8  13
ATOM     13  O   UNL     1      94.613  85.638  86.053  1.00  0.00    -0.493 OA
ATOM     14  C   UNL     1      94.250  86.823  85.319  1.00  0.00     0.278 C 
ENDBRANCH   8  13
BRANCH   9  15
ATOM     15  O   UNL     1      92.385  83.967  85.843  1.00  0.00    -0.504 OA
ATOM     16  H   UNL     1      92.029  84.784  85.487  1.00  0.00     0.293 HD
ENDBRANCH   9  15
ENDBRANCH   6   7
ENDBRANCH   3   6
ENDBRANCH   1   2
BRANCH   1  17
ATOM     17  C   UNL     1      97.285  82.361  78.033  1.00  0.00     0.010 C 
BRANCH  17  18
ATOM     18  C   UNL     1      98.784  82.424  77.628  1.00  0.00     0.001 C 
BRANCH  18  19
ATOM     19  C   UNL     1      99.043  83.270  76.354  1.00  0.00     0.000 C 
BRANCH  19  20
ATOM     20  C   UNL     1      98.122  82.851  75.171  1.00  0.00     0.003 C 
BRANCH  20  21
ATOM     21  C   UNL     1      97.363  84.028  74.476  1.00  0.00    -0.017 C 
ATOM     22  C   UNL     1      98.315  84.823  73.534  1.00  0.00     0.007 C 
ATOM     23  C   UNL     1      96.687  84.995  75.492  1.00  0.00     0.007 C 
ENDBRANCH  20  21
ENDBRANCH  19  20
ENDBRANCH  18  19
ENDBRANCH  17  18
ENDBRANCH   1  17
TORSDOF 10
ENDMDL
MODEL 3
REMARK VINA RESULT:    -6.021      2.885      7.978
REMARK INTER + INTRA:         -10.048
REMARK INTER:                  -9.501
REMARK INTRA:                  -0.546
REMARK UNBOUND:                -0.682
REMARK SMILES COc1cc(CNC(=O)CCCCCC(C)C)ccc1O
REMARK SMILES IDX 10 1 8 2 7 3 9 5 6 6 5 7 3 8 20 9 4 10 19 11 18 12 2 13 1 14
REMARK SMILES IDX 21 15 11 17 12 18 13 19 14 20 15 21 16 22 17 23
REMARK H PARENT 7 4 21 16
REMARK Flexibility Score: inf
ROOT
ATOM      1  C   UNL     1      93.417  81.944  84.466  1.00  0.00     0.100 C 
ENDROOT
BRANCH   1   2
ATOM      2  C   UNL     1      94.639  82.708  84.139  1.00  0.00     0.220 C 
ATOM      3  N   UNL     1      95.545  82.182  83.268  1.00  0.00    -0.352 N 
ATOM      4  H   UNL     1      95.372  81.222  83.003  1.00  0.00     0.163 HD
ATOM      5  O   UNL     1      94.796  83.849  84.640  1.00  0.00    -0.275 OA
BRANCH   3   6
ATOM      6  C   UNL     1      96.672  82.877  82.735  1.00  0.00     0.151 C 
BRANCH   6   7
ATOM      7  C   UNL     1      97.038  82.431  81.363  1.00  0.00    -0.025 A 
ATOM      8  C   UNL     1      97.487  82.948  79.001  1.00  0.00     0.160 A 
ATOM      9  C   UNL     1      97.801  81.592  78.767  1.00  0.00     0.157 A 
ATOM     10  C   UNL     1      97.090  83.355  80.293  1.00  0.00     0.056 A 
ATOM     11  C   UNL     1      97.727  80.660  79.818  1.00  0.00     0.050 A 
ATOM     12  C   UNL     1      97.354  81.076  81.107  1.00  0.00     0.009 A 
BRANCH   8  13
ATOM     13  O   UNL     1      97.534  83.868  77.987  1.00  0.00    -0.493 OA
ATOM     14  C   UNL     1      96.243  84.187  77.431  1.00  0.00     0.278 C 
ENDBRANCH   8  13
BRANCH   9  15
ATOM     15  O   UNL     1      98.182  81.190  77.528  1.00  0.00    -0.504 OA
ATOM     16  H   UNL     1      98.108  80.235  77.465  1.00  0.00     0.293 HD
ENDBRANCH   9  15
ENDBRANCH   6   7
ENDBRANCH   3   6
ENDBRANCH   1   2
BRANCH   1  17
ATOM     17  C   UNL     1      93.676  80.468  84.869  1.00  0.00     0.010 C 
BRANCH  17  18
ATOM     18  C   UNL     1      92.587  79.518  84.298  1.00  0.00     0.001 C 
BRANCH  18  19
ATOM     19  C   UNL     1      91.149  79.888  84.748  1.00  0.00     0.000 C 
BRANCH  19  20
ATOM     20  C   UNL     1      90.273  80.390  83.563  1.00  0.00     0.003 C 
BRANCH  20  21
ATOM     21  C   UNL     1      88.750  80.533  83.884  1.00  0.00    -0.017 C 
ATOM     22  C   UNL     1      88.513  81.612  84.982  1.00  0.00     0.007 C 
ATOM     23  C   UNL     1      88.091  79.188  84.306  1.00  0.00     0.007 C 
ENDBRANCH  20  21
ENDBRANCH  19  20
ENDBRANCH  18  19
ENDBRANCH  17  18
ENDBRANCH   1  17
TORSDOF 10
ENDMDL
MODEL 4
REMARK VINA RESULT:    -5.821      1.184      2.399
REMARK INTER + INTRA:          -9.737
REMARK INTER:                  -8.913
REMARK INTRA:                  -0.824
REMARK UNBOUND:                -0.682
REMARK SMILES COc1cc(CNC(=O)CCCCCC(C)C)ccc1O
REMARK SMILES IDX 10 1 8 2 7 3 9 5 6 6 5 7 3 8 20 9 4 10 19 11 18 12 2 13 1 14
REMARK SMILES IDX 21 15 11 17 12 18 13 19 14 20 15 21 16 22 17 23
REMARK H PARENT 7 4 21 16
REMARK Flexibility Score: inf
ROOT
ATOM      1  C   UNL     1      95.986  84.026  83.860  1.00  0.00     0.100 C 
ENDROOT
BRANCH   1   2
ATOM      2  C   UNL     1      94.924  83.851  84.872  1.00  0.00     0.220 C 
ATOM      3  N   UNL     1      93.652  83.573  84.466  1.00  0.00    -0.352 N 
ATOM      4  H   UNL     1      93.501  83.637  83.470  1.00  0.00     0.163 HD
ATOM      5  O   UNL     1      95.224  83.920  86.089  1.00  0.00    -0.275 OA
BRANCH   3   6
ATOM      6  C   UNL     1      92.575  83.211  85.330  1.00  0.00     0.151 C 
BRANCH   6   7
ATOM      7  C   UNL     1      92.010  81.868  85.030  1.00  0.00    -0.025 A 
ATOM      8  C   UNL     1      90.183  80.468  84.164  1.00  0.00     0.160 A 
ATOM      9  C   UNL     1      90.961  79.313  84.395  1.00  0.00     0.157 A 
ATOM     10  C   UNL     1      90.705  81.735  84.499  1.00  0.00     0.056 A 
ATOM     11  C   UNL     1      92.250  79.432  84.947  1.00  0.00     0.050 A 
ATOM     12  C   UNL     1      92.773  80.699  85.257  1.00  0.00     0.009 A 
BRANCH   8  13
ATOM     13  O   UNL     1      88.918  80.373  83.646  1.00  0.00    -0.493 OA
ATOM     14  C   UNL     1      87.878  80.701  84.587  1.00  0.00     0.278 C 
ENDBRANCH   8  13
BRANCH   9  15
ATOM     15  O   UNL     1      90.469  78.090  84.078  1.00  0.00    -0.504 OA
ATOM     16  H   UNL     1      91.196  77.481  83.929  1.00  0.00     0.293 HD
ENDBRANCH   9  15
ENDBRANCH   6   7
ENDBRANCH   3   6
ENDBRANCH   1   2
BRANCH   1  17
ATOM     17  C   UNL     1      97.122  82.970  83.939  1.00  0.00     0.010 C 
BRANCH  17  18
ATOM     18  C   UNL     1      96.615  81.553  83.553  1.00  0.00     0.001 C 
BRANCH  18  19
ATOM     19  C   UNL     1      96.612  81.295  82.023  1.00  0.00     0.000 C 
BRANCH  19  20
ATOM     20  C   UNL     1      97.662  82.168  81.277  1.00  0.00     0.003 C 
BRANCH  20  21
ATOM     21  C   UNL     1      97.596  82.091  79.717  1.00  0.00    -0.017 C 
ATOM     22  C   UNL     1      98.996  81.762  79.118  1.00  0.00     0.007 C 
ATOM     23  C   UNL     1      97.031  83.389  79.070  1.00  0.00     0.007 C 
ENDBRANCH  20  21
ENDBRANCH  19  20
ENDBRANCH  18  19
ENDBRANCH  17  18
ENDBRANCH   1  17
TORSDOF 10
ENDMDL
MODEL 5
REMARK VINA RESULT:    -5.715      2.813      4.036
REMARK INTER + INTRA:          -9.571
REMARK INTER:                  -9.056
REMARK INTRA:                  -0.515
REMARK UNBOUND:                -0.682
REMARK SMILES COc1cc(CNC(=O)CCCCCC(C)C)ccc1O
REMARK SMILES IDX 10 1 8 2 7 3 9 5 6 6 5 7 3 8 20 9 4 10 19 11 18 12 2 13 1 14
REMARK SMILES IDX 21 15 11 17 12 18 13 19 14 20 15 21 16 22 17 23
REMARK H PARENT 7 4 21 16
REMARK Flexibility Score: inf
ROOT
ATOM      1  C   UNL     1      96.846  83.523  79.871  1.00  0.00     0.100 C 
ENDROOT
BRANCH   1   2
ATOM      2  C   UNL     1      97.049  82.592  81.000  1.00  0.00     0.220 C 
ATOM      3  N   UNL     1      97.068  83.077  82.273  1.00  0.00    -0.352 N 
ATOM      4  H   UNL     1      97.071  84.084  82.344  1.00  0.00     0.163 HD
ATOM      5  O   UNL     1      97.159  81.364  80.763  1.00  0.00    -0.275 OA
BRANCH   3   6
ATOM      6  C   UNL     1      97.081  82.278  83.457  1.00  0.00     0.151 C 
BRANCH   6   7
ATOM      7  C   UNL     1      95.728  81.807  83.859  1.00  0.00    -0.025 A 
ATOM      8  C   UNL     1      94.215  79.989  84.531  1.00  0.00     0.160 A 
ATOM      9  C   UNL     1      93.168  80.922  84.691  1.00  0.00     0.157 A 
ATOM     10  C   UNL     1      95.482  80.435  84.099  1.00  0.00     0.056 A 
ATOM     11  C   UNL     1      93.394  82.286  84.430  1.00  0.00     0.050 A 
ATOM     12  C   UNL     1      94.665  82.726  84.022  1.00  0.00     0.009 A 
BRANCH   8  13
ATOM     13  O   UNL     1      94.011  78.654  84.761  1.00  0.00    -0.493 OA
ATOM     14  C   UNL     1      94.992  78.056  85.630  1.00  0.00     0.278 C 
ENDBRANCH   8  13
BRANCH   9  15
ATOM     15  O   UNL     1      91.946  80.503  85.104  1.00  0.00    -0.504 OA
ATOM     16  H   UNL     1      91.876  80.610  86.055  1.00  0.00     0.293 HD
ENDBRANCH   9  15
ENDBRANCH   6   7
ENDBRANCH   3   6
ENDBRANCH   1   2
BRANCH   1  17
ATOM     17  C   UNL     1      97.448  83.037  78.525  1.00  0.00     0.010 C 
BRANCH  17  18
ATOM     18  C   UNL     1      96.820  83.781  77.315  1.00  0.00     0.001 C 
BRANCH  18  19
ATOM     19  C   UNL     1      97.784  83.914  76.106  1.00  0.00     0.000 C 
BRANCH  19  20
ATOM     20  C   UNL     1      97.060  84.437  74.831  1.00  0.00     0.003 C 
BRANCH  20  21
ATOM     21  C   UNL     1      97.952  84.512  73.549  1.00  0.00    -0.017 C 
ATOM     22  C   UNL     1      98.170  83.095  72.941  1.00  0.00     0.007 C 
ATOM     23  C   UNL     1      99.324  85.200  73.807  1.00  0.00     0.007 C 
ENDBRANCH  20  21
ENDBRANCH  19  20
ENDBRANCH  18  19
ENDBRANCH  17  18
ENDBRANCH   1  17
TORSDOF 10
ENDMDL
MODEL 6
REMARK VINA RESULT:    -5.620     10.905     13.652
REMARK INTER + INTRA:          -9.423
REMARK INTER:                  -8.004
REMARK INTRA:                  -1.420
REMARK UNBOUND:                -0.682
REMARK SMILES COc1cc(CNC(=O)CCCCCC(C)C)ccc1O
REMARK SMILES IDX 10 1 8 2 7 3 9 5 6 6 5 7 3 8 20 9 4 10 19 11 18 12 2 13 1 14
REMARK SMILES IDX 21 15 11 17 12 18 13 19 14 20 15 21 16 22 17 23
REMARK H PARENT 7 4 21 16
REMARK Flexibility Score: inf
ROOT
ATOM      1  C   UNL     1      91.269  94.484  91.785  1.00  0.00     0.100 C 
ENDROOT
BRANCH   1   2
ATOM      2  C   UNL     1      91.549  93.037  91.886  1.00  0.00     0.220 C 
ATOM      3  N   UNL     1      91.468  92.260  90.768  1.00  0.00    -0.352 N 
ATOM      4  H   UNL     1      91.085  92.722  89.956  1.00  0.00     0.163 HD
ATOM      5  O   UNL     1      91.897  92.560  92.993  1.00  0.00    -0.275 OA
BRANCH   3   6
ATOM      6  C   UNL     1      91.877  90.895  90.686  1.00  0.00     0.151 C 
BRANCH   6   7
ATOM      7  C   UNL     1      92.870  90.646  89.606  1.00  0.00    -0.025 A 
ATOM      8  C   UNL     1      94.011  89.097  88.074  1.00  0.00     0.160 A 
ATOM      9  C   UNL     1      94.712  90.181  87.504  1.00  0.00     0.157 A 
ATOM     10  C   UNL     1      93.109  89.334  89.133  1.00  0.00     0.056 A 
ATOM     11  C   UNL     1      94.502  91.487  87.985  1.00  0.00     0.050 A 
ATOM     12  C   UNL     1      93.584  91.719  89.024  1.00  0.00     0.009 A 
BRANCH   8  13
ATOM     13  O   UNL     1      94.215  87.816  87.634  1.00  0.00    -0.493 OA
ATOM     14  C   UNL     1      93.480  86.822  88.373  1.00  0.00     0.278 C 
ENDBRANCH   8  13
BRANCH   9  15
ATOM     15  O   UNL     1      95.583  89.965  86.487  1.00  0.00    -0.504 OA
ATOM     16  H   UNL     1      95.862  89.046  86.495  1.00  0.00     0.293 HD
ENDBRANCH   9  15
ENDBRANCH   6   7
ENDBRANCH   3   6
ENDBRANCH   1   2
BRANCH   1  17
ATOM     17  C   UNL     1      91.262  95.034  90.333  1.00  0.00     0.010 C 
BRANCH  17  18
ATOM     18  C   UNL     1      91.910  96.444  90.251  1.00  0.00     0.001 C 
BRANCH  18  19
ATOM     19  C   UNL     1      93.419  96.450  90.611  1.00  0.00     0.000 C 
BRANCH  19  20
ATOM     20  C   UNL     1      94.184  95.260  89.961  1.00  0.00     0.003 C 
BRANCH  20  21
ATOM     21  C   UNL     1      95.424  94.753  90.767  1.00  0.00    -0.017 C 
ATOM     22  C   UNL     1      95.061  93.496  91.612  1.00  0.00     0.007 C 
ATOM     23  C   UNL     1      96.040  95.851  91.682  1.00  0.00     0.007 C 
ENDBRANCH  20  21
ENDBRANCH  19  20
ENDBRANCH  18  19
ENDBRANCH  17  18
ENDBRANCH   1  17
TORSDOF 10
ENDMDL
MODEL 7
REMARK VINA RESULT:    -5.534     24.088     26.068
REMARK INTER + INTRA:          -9.289
REMARK INTER:                  -8.228
REMARK INTRA:                  -1.061
REMARK UNBOUND:                -0.682
REMARK SMILES COc1cc(CNC(=O)CCCCCC(C)C)ccc1O
REMARK SMILES IDX 10 1 8 2 7 3 9 5 6 6 5 7 3 8 20 9 4 10 19 11 18 12 2 13 1 14
REMARK SMILES IDX 21 15 11 17 12 18 13 19 14 20 15 21 16 22 17 23
REMARK H PARENT 7 4 21 16
REMARK Flexibility Score: inf
ROOT
ATOM      1  C   UNL     1      77.541  84.797  67.848  1.00  0.00     0.100 C 
ENDROOT
BRANCH   1   2
ATOM      2  C   UNL     1      77.163  84.364  66.486  1.00  0.00     0.220 C 
ATOM      3  N   UNL     1      76.007  84.827  65.933  1.00  0.00    -0.352 N 
ATOM      4  H   UNL     1      75.411  85.344  66.564  1.00  0.00     0.163 HD
ATOM      5  O   UNL     1      77.940  83.611  65.849  1.00  0.00    -0.275 OA
BRANCH   3   6
ATOM      6  C   UNL     1      75.610  84.632  64.575  1.00  0.00     0.151 C 
BRANCH   6   7
ATOM      7  C   UNL     1      74.261  84.017  64.444  1.00  0.00    -0.025 A 
ATOM      8  C   UNL     1      71.878  83.956  65.048  1.00  0.00     0.160 A 
ATOM      9  C   UNL     1      71.679  82.891  64.144  1.00  0.00     0.157 A 
ATOM     10  C   UNL     1      73.170  84.500  65.206  1.00  0.00     0.056 A 
ATOM     11  C   UNL     1      72.761  82.386  63.401  1.00  0.00     0.050 A 
ATOM     12  C   UNL     1      74.041  82.948  63.545  1.00  0.00     0.009 A 
BRANCH   8  13
ATOM     13  O   UNL     1      70.841  84.449  65.796  1.00  0.00    -0.493 OA
ATOM     14  C   UNL     1      70.735  83.858  67.106  1.00  0.00     0.278 C 
ENDBRANCH   8  13
BRANCH   9  15
ATOM     15  O   UNL     1      70.440  82.359  63.987  1.00  0.00    -0.504 OA
ATOM     16  H   UNL     1      70.516  81.422  63.793  1.00  0.00     0.293 HD
ENDBRANCH   9  15
ENDBRANCH   6   7
ENDBRANCH   3   6
ENDBRANCH   1   2
BRANCH   1  17
ATOM     17  C   UNL     1      76.549  84.353  68.956  1.00  0.00     0.010 C 
BRANCH  17  18
ATOM     18  C   UNL     1      75.833  85.570  69.604  1.00  0.00     0.001 C 
BRANCH  18  19
ATOM     19  C   UNL     1      76.436  86.936  69.183  1.00  0.00     0.000 C 
BRANCH  19  20
ATOM     20  C   UNL     1      75.526  87.695  68.173  1.00  0.00     0.003 C 
BRANCH  20  21
ATOM     21  C   UNL     1      76.254  88.781  67.317  1.00  0.00    -0.017 C 
ATOM     22  C   UNL     1      76.237  88.401  65.807  1.00  0.00     0.007 C 
ATOM     23  C   UNL     1      77.715  89.042  67.785  1.00  0.00     0.007 C 
ENDBRANCH  20  21
ENDBRANCH  19  20
ENDBRANCH  18  19
ENDBRANCH  17  18
ENDBRANCH   1  17
TORSDOF 10
ENDMDL
MODEL 8
REMARK VINA RESULT:    -5.491      1.485      2.264
REMARK INTER + INTRA:          -9.222
REMARK INTER:                  -8.270
REMARK INTRA:                  -0.952
REMARK UNBOUND:                -0.682
REMARK SMILES COc1cc(CNC(=O)CCCCCC(C)C)ccc1O
REMARK SMILES IDX 10 1 8 2 7 3 9 5 6 6 5 7 3 8 20 9 4 10 19 11 18 12 2 13 1 14
REMARK SMILES IDX 21 15 11 17 12 18 13 19 14 20 15 21 16 22 17 23
REMARK H PARENT 7 4 21 16
REMARK Flexibility Score: inf
ROOT
ATOM      1  C   UNL     1      95.812  83.916  83.847  1.00  0.00     0.100 C 
ENDROOT
BRANCH   1   2
ATOM      2  C   UNL     1      94.721  83.550  84.774  1.00  0.00     0.220 C 
ATOM      3  N   UNL     1      93.513  83.173  84.269  1.00  0.00    -0.352 N 
ATOM      4  H   UNL     1      93.409  83.301  83.273  1.00  0.00     0.163 HD
ATOM      5  O   UNL     1      94.945  83.553  86.009  1.00  0.00    -0.275 OA
BRANCH   3   6
ATOM      6  C   UNL     1      92.435  82.633  85.035  1.00  0.00     0.151 C 
BRANCH   6   7
ATOM      7  C   UNL     1      92.133  81.216  84.699  1.00  0.00    -0.025 A 
ATOM      8  C   UNL     1      92.791  78.846  84.661  1.00  0.00     0.160 A 
ATOM      9  C   UNL     1      91.532  78.508  84.121  1.00  0.00     0.157 A 
ATOM     10  C   UNL     1      93.090  80.199  84.929  1.00  0.00     0.056 A 
ATOM     11  C   UNL     1      90.582  79.514  83.863  1.00  0.00     0.050 A 
ATOM     12  C   UNL     1      90.878  80.856  84.155  1.00  0.00     0.009 A 
BRANCH   8  13
ATOM     13  O   UNL     1      93.736  77.884  84.902  1.00  0.00    -0.493 OA
ATOM     14  C   UNL     1      94.860  77.936  84.002  1.00  0.00     0.278 C 
ENDBRANCH   8  13
BRANCH   9  15
ATOM     15  O   UNL     1      91.235  77.211  83.858  1.00  0.00    -0.504 OA
ATOM     16  H   UNL     1      90.282  77.092  83.867  1.00  0.00     0.293 HD
ENDBRANCH   9  15
ENDBRANCH   6   7
ENDBRANCH   3   6
ENDBRANCH   1   2
BRANCH   1  17
ATOM     17  C   UNL     1      97.051  82.983  83.918  1.00  0.00     0.010 C 
BRANCH  17  18
ATOM     18  C   UNL     1      96.694  81.526  83.511  1.00  0.00     0.001 C 
BRANCH  18  19
ATOM     19  C   UNL     1      96.646  81.309  81.976  1.00  0.00     0.000 C 
BRANCH  19  20
ATOM     20  C   UNL     1      97.609  82.266  81.216  1.00  0.00     0.003 C 
BRANCH  20  21
ATOM     21  C   UNL     1      97.536  82.175  79.657  1.00  0.00    -0.017 C 
ATOM     22  C   UNL     1      98.949  81.931  79.048  1.00  0.00     0.007 C 
ATOM     23  C   UNL     1      96.885  83.431  79.008  1.00  0.00     0.007 C 
ENDBRANCH  20  21
ENDBRANCH  19  20
ENDBRANCH  18  19
ENDBRANCH  17  18
ENDBRANCH   1  17
TORSDOF 10
ENDMDL
MODEL 9
REMARK VINA RESULT:    -5.436     24.011     26.016
REMARK INTER + INTRA:          -9.137
REMARK INTER:                  -7.317
REMARK INTRA:                  -1.820
REMARK UNBOUND:                -0.682
REMARK SMILES COc1cc(CNC(=O)CCCCCC(C)C)ccc1O
REMARK SMILES IDX 10 1 8 2 7 3 9 5 6 6 5 7 3 8 20 9 4 10 19 11 18 12 2 13 1 14
REMARK SMILES IDX 21 15 11 17 12 18 13 19 14 20 15 21 16 22 17 23
REMARK H PARENT 7 4 21 16
REMARK Flexibility Score: inf
ROOT
ATOM      1  C   UNL     1      76.500  88.525  66.086  1.00  0.00     0.100 C 
ENDROOT
BRANCH   1   2
ATOM      2  C   UNL     1      75.340  87.711  65.667  1.00  0.00     0.220 C 
ATOM      3  N   UNL     1      74.081  88.129  65.978  1.00  0.00    -0.352 N 
ATOM      4  H   UNL     1      74.039  88.921  66.603  1.00  0.00     0.163 HD
ATOM      5  O   UNL     1      75.539  86.669  64.994  1.00  0.00    -0.275 OA
BRANCH   3   6
ATOM      6  C   UNL     1      72.875  87.539  65.492  1.00  0.00     0.151 C 
BRANCH   6   7
ATOM      7  C   UNL     1      72.289  86.547  66.434  1.00  0.00    -0.025 A 
ATOM      8  C   UNL     1      71.324  84.327  66.864  1.00  0.00     0.160 A 
ATOM      9  C   UNL     1      71.235  84.634  68.238  1.00  0.00     0.157 A 
ATOM     10  C   UNL     1      71.832  85.291  65.968  1.00  0.00     0.056 A 
ATOM     11  C   UNL     1      71.662  85.890  68.708  1.00  0.00     0.050 A 
ATOM     12  C   UNL     1      72.190  86.837  67.815  1.00  0.00     0.009 A 
BRANCH   8  13
ATOM     13  O   UNL     1      70.895  83.117  66.383  1.00  0.00    -0.493 OA
ATOM     14  C   UNL     1      71.739  82.569  65.352  1.00  0.00     0.278 C 
ENDBRANCH   8  13
BRANCH   9  15
ATOM     15  O   UNL     1      70.746  83.715  69.107  1.00  0.00    -0.504 OA
ATOM     16  H   UNL     1      70.019  84.098  69.603  1.00  0.00     0.293 HD
ENDBRANCH   9  15
ENDBRANCH   6   7
ENDBRANCH   3   6
ENDBRANCH   1   2
BRANCH   1  17
ATOM     17  C   UNL     1      77.222  88.002  67.357  1.00  0.00     0.010 C 
BRANCH  17  18
ATOM     18  C   UNL     1      76.336  88.158  68.624  1.00  0.00     0.001 C 
BRANCH  18  19
ATOM     19  C   UNL     1      75.821  86.807  69.187  1.00  0.00     0.000 C 
BRANCH  19  20
ATOM     20  C   UNL     1      76.904  85.692  69.122  1.00  0.00     0.003 C 
BRANCH  20  21
ATOM     21  C   UNL     1      76.549  84.479  68.203  1.00  0.00    -0.017 C 
ATOM     22  C   UNL     1      77.554  84.367  67.018  1.00  0.00     0.007 C 
ATOM     23  C   UNL     1      75.091  84.537  67.662  1.00  0.00     0.007 C 
ENDBRANCH  20  21
ENDBRANCH  19  20
ENDBRANCH  18  19
ENDBRANCH  17  18
ENDBRANCH   1  17
TORSDOF 10
ENDMDL
MODEL 10
REMARK VINA RESULT:    -5.434      4.996      8.842
REMARK INTER + INTRA:          -9.133
REMARK INTER:                  -8.162
REMARK INTRA:                  -0.971
REMARK UNBOUND:                -0.682
REMARK SMILES COc1cc(CNC(=O)CCCCCC(C)C)ccc1O
REMARK SMILES IDX 10 1 8 2 7 3 9 5 6 6 5 7 3 8 20 9 4 10 19 11 18 12 2 13 1 14
REMARK SMILES IDX 21 15 11 17 12 18 13 19 14 20 15 21 16 22 17 23
REMARK H PARENT 7 4 21 16
REMARK Flexibility Score: inf
ROOT
ATOM      1  C   UNL     1      98.411  80.475  80.745  1.00  0.00     0.100 C 
ENDROOT
BRANCH   1   2
ATOM      2  C   UNL     1      98.322  81.857  80.230  1.00  0.00     0.220 C 
ATOM      3  N   UNL     1      97.311  82.190  79.378  1.00  0.00    -0.352 N 
ATOM      4  H   UNL     1      96.758  81.412  79.051  1.00  0.00     0.163 HD
ATOM      5  O   UNL     1      99.157  82.708  80.622  1.00  0.00    -0.275 OA
BRANCH   3   6
ATOM      6  C   UNL     1      97.006  83.516  78.945  1.00  0.00     0.151 C 
BRANCH   6   7
ATOM      7  C   UNL     1      97.320  83.748  77.509  1.00  0.00    -0.025 A 
ATOM      8  C   UNL     1      98.792  83.414  75.567  1.00  0.00     0.160 A 
ATOM      9  C   UNL     1      97.885  84.134  74.760  1.00  0.00     0.157 A 
ATOM     10  C   UNL     1      98.513  83.242  76.940  1.00  0.00     0.056 A 
ATOM     11  C   UNL     1      96.709  84.664  75.321  1.00  0.00     0.050 A 
ATOM     12  C   UNL     1      96.426  84.469  76.684  1.00  0.00     0.009 A 
BRANCH   8  13
ATOM     13  O   UNL     1      99.952  82.907  75.045  1.00  0.00    -0.493 OA
ATOM     14  C   UNL     1      99.790  81.627  74.402  1.00  0.00     0.278 C 
ENDBRANCH   8  13
BRANCH   9  15
ATOM     15  O   UNL     1      98.145  84.307  73.440  1.00  0.00    -0.504 OA
ATOM     16  H   UNL     1      98.891  84.901  73.335  1.00  0.00     0.293 HD
ENDBRANCH   9  15
ENDBRANCH   6   7
ENDBRANCH   3   6
ENDBRANCH   1   2
BRANCH   1  17
ATOM     17  C   UNL     1      97.060  79.888  81.237  1.00  0.00     0.010 C 
BRANCH  17  18
ATOM     18  C   UNL     1      97.135  79.449  82.725  1.00  0.00     0.001 C 
BRANCH  18  19
ATOM     19  C   UNL     1      97.583  80.585  83.681  1.00  0.00     0.000 C 
BRANCH  19  20
ATOM     20  C   UNL     1      96.469  81.652  83.890  1.00  0.00     0.003 C 
BRANCH  20  21
ATOM     21  C   UNL     1      96.909  83.127  83.617  1.00  0.00    -0.017 C 
ATOM     22  C   UNL     1      96.833  83.979  84.918  1.00  0.00     0.007 C 
ATOM     23  C   UNL     1      96.081  83.805  82.486  1.00  0.00     0.007 C 
ENDBRANCH  20  21
ENDBRANCH  19  20
ENDBRANCH  18  19
ENDBRANCH  17  18
ENDBRANCH   1  17
TORSDOF 10
ENDMDL
