MODEL 1
REMARK VINA RESULT:    -6.832      0.000      0.000
REMARK INTER + INTRA:         -13.342
REMARK INTER:                 -11.625
REMARK INTRA:                  -1.717
REMARK UNBOUND:                -1.717
REMARK SMILES C=C(C)[C@]12C[C@@H](C)[C@@]34O[C@](Cc5ccccc5)(O[C@@H]1[C@@H]3C=C(COC(=O)Cc1ccc(O)cc1)C[C@]1(O)C(=O)C(C)=C[C@@H]41)O2
REMARK SMILES IDX 23 1 22 2 21 3 20 4 9 5 8 6 10 7 6 8 18 10 44 11 19 12 5 13
REMARK SMILES IDX 7 14 4 15 11 16 12 17 13 18 17 19 14 20 16 21 15 22 2 23
REMARK SMILES IDX 3 24 1 25 35 26 36 27 43 28 38 29 42 30 39 32 40 33 41 34
REMARK SMILES IDX 37 35 24 37 25 38 26 39 27 40 28 41 29 42 34 43 30 44 33 45
REMARK SMILES IDX 31 46 32 47
REMARK H PARENT 37 36 32 48
REMARK Flexibility Score: 90.00
ROOT
ATOM      1  C   UNL     1      65.598  86.892  73.658  1.00  0.00     0.264 C 
ENDROOT
BRANCH   1   2
ATOM      2  C   UNL     1      64.274  86.742  72.945  1.00  0.00    -0.033 C 
ATOM      3  C   UNL     1      64.078  85.683  72.133  1.00  0.00    -0.015 C 
BRANCH   3   4
ATOM      4  C   UNL     1      62.883  85.347  71.255  1.00  0.00     0.078 C 
ATOM      5  O   UNL     1      61.364  83.944  72.612  1.00  0.00    -0.319 OA
ATOM      6  C   UNL     1      61.467  85.233  71.930  1.00  0.00     0.095 CG0
ATOM      7  C   UNL     1      61.891  82.819  71.882  1.00  0.00     0.289 C 
ATOM      8  C   UNL     1      60.380  85.305  70.780  1.00  0.00     0.023 C 
ATOM      9  G   UNL     1      61.310  86.286  73.066  1.00  0.00     0.000 G0
ATOM     10  O   UNL     1      63.262  83.014  71.549  1.00  0.00    -0.320 OA
ATOM     11  O   UNL     1      61.218  82.614  70.642  1.00  0.00    -0.313 OA
ATOM     12  C   UNL     1      63.131  84.007  70.519  1.00  0.00     0.170 C 
ATOM     13  C   UNL     1      60.899  84.655  69.461  1.00  0.00     0.049 C 
ATOM     14  C   UNL     1      59.004  84.715  71.133  1.00  0.00     0.011 C 
ATOM     15  C   UNL     1      61.885  83.520  69.740  1.00  0.00     0.122 C 
BRANCH   7  16
ATOM     16  C   UNL     1      61.743  81.582  72.747  1.00  0.00     0.135 C 
BRANCH  16  17
ATOM     17  C   UNL     1      62.969  81.331  73.590  1.00  0.00    -0.040 A 
ATOM     18  C   UNL     1      64.014  80.557  73.088  1.00  0.00     0.004 A 
ATOM     19  C   UNL     1      63.055  81.874  74.871  1.00  0.00     0.004 A 
ATOM     20  C   UNL     1      65.148  80.326  73.868  1.00  0.00     0.000 A 
ATOM     21  C   UNL     1      64.189  81.643  75.651  1.00  0.00     0.000 A 
ATOM     22  C   UNL     1      65.235  80.869  75.149  1.00  0.00     0.000 A 
ENDBRANCH  16  17
ENDBRANCH   7  16
BRANCH  15  23
ATOM     23  C   UNL     1      62.256  82.765  68.505  1.00  0.00    -0.046 C 
ATOM     24  C   UNL     1      62.941  81.447  68.715  1.00  0.00     0.042 C 
ATOM     25  C   UNL     1      61.991  83.238  67.278  1.00  0.00     0.010 C 
ENDBRANCH  15  23
ENDBRANCH   3   4
BRANCH   2  26
ATOM     26  C   UNL     1      63.297  87.858  73.263  1.00  0.00     0.078 C 
BRANCH  26  27
ATOM     27  C   UNL     1      61.864  87.696  72.759  1.00  0.00     0.140 C 
ATOM     28  C   UNL     1      61.298  86.291  73.049  1.00  0.00     0.086 CG0
ATOM     29  C   UNL     1      60.888  88.596  73.486  1.00  0.00     0.190 C 
ATOM     30  C   UNL     1      59.927  86.572  73.599  1.00  0.00    -0.010 C 
ATOM     31  G   UNL     1      61.465  85.237  71.916  1.00  0.00     0.000 G0
ATOM     32  O   UNL     1      61.041  89.792  73.685  1.00  0.00    -0.291 OA
ATOM     33  C   UNL     1      59.676  87.854  73.882  1.00  0.00    -0.008 C 
ATOM     34  C   UNL     1      58.488  88.476  74.500  1.00  0.00     0.048 C 
BRANCH  27  35
ATOM     35  O   UNL     1      61.744  88.093  71.403  1.00  0.00    -0.381 OA
ATOM     36  H   UNL     1      62.431  87.637  70.888  1.00  0.00     0.212 HD
ENDBRANCH  27  35
ENDBRANCH  26  27
ENDBRANCH   2  26
ENDBRANCH   1   2
BRANCH   1  37
ATOM     37  O   UNL     1      65.835  85.745  74.446  1.00  0.00    -0.461 OA
BRANCH  37  38
ATOM     38  C   UNL     1      65.893  85.945  75.807  1.00  0.00     0.310 C 
ATOM     39  O   UNL     1      66.730  86.626  76.382  1.00  0.00    -0.252 OA
BRANCH  38  40
ATOM     40  C   UNL     1      64.766  85.194  76.474  1.00  0.00     0.158 C 
BRANCH  40  41
ATOM     41  C   UNL     1      63.712  86.105  77.048  1.00  0.00    -0.037 A 
ATOM     42  C   UNL     1      62.444  86.157  76.469  1.00  0.00     0.008 A 
ATOM     43  C   UNL     1      64.004  86.898  78.158  1.00  0.00     0.008 A 
ATOM     44  C   UNL     1      61.468  87.001  77.000  1.00  0.00     0.046 A 
ATOM     45  C   UNL     1      63.028  87.742  78.689  1.00  0.00     0.046 A 
ATOM     46  C   UNL     1      61.761  87.794  78.111  1.00  0.00     0.115 A 
BRANCH  46  47
ATOM     47  O   UNL     1      60.809  88.617  78.628  1.00  0.00    -0.508 OA
ATOM     48  H   UNL     1      60.286  88.123  79.283  1.00  0.00     0.293 HD
ENDBRANCH  46  47
ENDBRANCH  40  41
ENDBRANCH  38  40
ENDBRANCH  37  38
ENDBRANCH   1  37
TORSDOF 10
ENDMDL
MODEL 2
REMARK VINA RESULT:    -6.770      2.246      5.987
REMARK INTER + INTRA:         -13.235
REMARK INTER:                 -11.505
REMARK INTRA:                  -1.730
REMARK UNBOUND:                -1.717
REMARK SMILES C=C(C)[C@]12C[C@@H](C)[C@@]34O[C@](Cc5ccccc5)(O[C@@H]1[C@@H]3C=C(COC(=O)Cc1ccc(O)cc1)C[C@]1(O)C(=O)C(C)=C[C@@H]41)O2
REMARK SMILES IDX 23 1 22 2 21 3 20 4 9 5 8 6 10 7 6 8 18 10 44 11 19 12 5 13
REMARK SMILES IDX 7 14 4 15 11 16 12 17 13 18 17 19 14 20 16 21 15 22 2 23
REMARK SMILES IDX 3 24 1 25 35 26 36 27 43 28 38 29 42 30 39 32 40 33 41 34
REMARK SMILES IDX 37 35 24 37 25 38 26 39 27 40 28 41 29 42 34 43 30 44 33 45
REMARK SMILES IDX 31 46 32 47
REMARK H PARENT 37 36 32 48
REMARK Flexibility Score: 90.00
ROOT
ATOM      1  C   UNL     1      65.326  86.997  68.911  1.00  0.00     0.264 C 
ENDROOT
BRANCH   1   2
ATOM      2  C   UNL     1      64.519  87.015  70.188  1.00  0.00    -0.033 C 
ATOM      3  C   UNL     1      63.246  86.570  70.171  1.00  0.00    -0.015 C 
BRANCH   3   4
ATOM      4  C   UNL     1      62.213  86.554  71.287  1.00  0.00     0.078 C 
ATOM      5  O   UNL     1      62.384  84.350  72.395  1.00  0.00    -0.319 OA
ATOM      6  C   UNL     1      62.558  85.785  72.614  1.00  0.00     0.095 CG0
ATOM      7  C   UNL     1      61.207  83.980  71.650  1.00  0.00     0.289 C 
ATOM      8  C   UNL     1      61.542  86.271  73.728  1.00  0.00     0.023 C 
ATOM      9  G   UNL     1      64.065  85.942  72.970  1.00  0.00     0.000 G0
ATOM     10  O   UNL     1      61.184  84.611  70.373  1.00  0.00    -0.320 OA
ATOM     11  O   UNL     1      60.005  84.383  72.301  1.00  0.00    -0.313 OA
ATOM     12  C   UNL     1      60.883  85.959  70.764  1.00  0.00     0.170 C 
ATOM     13  C   UNL     1      60.147  86.613  73.121  1.00  0.00     0.049 C 
ATOM     14  C   UNL     1      61.358  85.315  74.919  1.00  0.00     0.011 C 
ATOM     15  C   UNL     1      59.841  85.757  71.891  1.00  0.00     0.122 C 
BRANCH   7  16
ATOM     16  C   UNL     1      61.208  82.474  71.479  1.00  0.00     0.135 C 
BRANCH  16  17
ATOM     17  C   UNL     1      62.220  81.803  72.374  1.00  0.00    -0.040 A 
ATOM     18  C   UNL     1      63.379  81.253  71.827  1.00  0.00     0.004 A 
ATOM     19  C   UNL     1      61.995  81.733  73.749  1.00  0.00     0.004 A 
ATOM     20  C   UNL     1      64.315  80.633  72.656  1.00  0.00     0.000 A 
ATOM     21  C   UNL     1      62.931  81.112  74.577  1.00  0.00     0.000 A 
ATOM     22  C   UNL     1      64.090  80.563  74.030  1.00  0.00     0.000 A 
ENDBRANCH  16  17
ENDBRANCH   7  16
BRANCH  15  23
ATOM     23  C   UNL     1      58.441  85.937  71.400  1.00  0.00    -0.046 C 
ATOM     24  C   UNL     1      57.622  84.688  71.263  1.00  0.00     0.042 C 
ATOM     25  C   UNL     1      57.945  87.146  71.100  1.00  0.00     0.010 C 
ENDBRANCH  15  23
ENDBRANCH   3   4
BRANCH   2  26
ATOM     26  C   UNL     1      65.297  87.553  71.375  1.00  0.00     0.078 C 
BRANCH  26  27
ATOM     27  C   UNL     1      64.677  87.363  72.759  1.00  0.00     0.140 C 
ATOM     28  C   UNL     1      64.081  85.952  72.943  1.00  0.00     0.086 CG0
ATOM     29  C   UNL     1      65.706  87.428  73.868  1.00  0.00     0.190 C 
ATOM     30  C   UNL     1      64.583  85.533  74.296  1.00  0.00    -0.010 C 
ATOM     31  G   UNL     1      62.568  85.799  72.609  1.00  0.00     0.000 G0
ATOM     32  O   UNL     1      66.555  88.298  73.997  1.00  0.00    -0.291 OA
ATOM     33  C   UNL     1      65.517  86.326  74.830  1.00  0.00    -0.008 C 
ATOM     34  C   UNL     1      66.283  86.181  76.086  1.00  0.00     0.048 C 
BRANCH  27  35
ATOM     35  O   UNL     1      63.775  88.411  73.071  1.00  0.00    -0.381 OA
ATOM     36  H   UNL     1      63.335  88.197  73.911  1.00  0.00     0.212 HD
ENDBRANCH  27  35
ENDBRANCH  26  27
ENDBRANCH   2  26
ENDBRANCH   1   2
BRANCH   1  37
ATOM     37  O   UNL     1      65.774  85.682  68.661  1.00  0.00    -0.461 OA
BRANCH  37  38
ATOM     38  C   UNL     1      66.526  85.502  67.523  1.00  0.00     0.310 C 
ATOM     39  O   UNL     1      67.425  86.242  67.150  1.00  0.00    -0.252 OA
BRANCH  38  40
ATOM     40  C   UNL     1      66.067  84.253  66.809  1.00  0.00     0.158 C 
BRANCH  40  41
ATOM     41  C   UNL     1      64.627  83.911  67.089  1.00  0.00    -0.037 A 
ATOM     42  C   UNL     1      64.310  82.762  67.815  1.00  0.00     0.008 A 
ATOM     43  C   UNL     1      63.609  84.742  66.622  1.00  0.00     0.008 A 
ATOM     44  C   UNL     1      62.977  82.445  68.074  1.00  0.00     0.046 A 
ATOM     45  C   UNL     1      62.275  84.426  66.881  1.00  0.00     0.046 A 
ATOM     46  C   UNL     1      61.959  83.278  67.606  1.00  0.00     0.115 A 
BRANCH  46  47
ATOM     47  O   UNL     1      60.658  82.968  67.858  1.00  0.00    -0.508 OA
ATOM     48  H   UNL     1      60.128  83.160  67.065  1.00  0.00     0.293 HD
ENDBRANCH  46  47
ENDBRANCH  40  41
ENDBRANCH  38  40
ENDBRANCH  37  38
ENDBRANCH   1  37
TORSDOF 10
ENDMDL
MODEL 3
REMARK VINA RESULT:    -6.603      1.651      2.042
REMARK INTER + INTRA:         -12.952
REMARK INTER:                 -12.328
REMARK INTRA:                  -0.624
REMARK UNBOUND:                -1.717
REMARK SMILES C=C(C)[C@]12C[C@@H](C)[C@@]34O[C@](Cc5ccccc5)(O[C@@H]1[C@@H]3C=C(COC(=O)Cc1ccc(O)cc1)C[C@]1(O)C(=O)C(C)=C[C@@H]41)O2
REMARK SMILES IDX 23 1 22 2 21 3 20 4 9 5 8 6 10 7 6 8 18 10 44 11 19 12 5 13
REMARK SMILES IDX 7 14 4 15 11 16 12 17 13 18 17 19 14 20 16 21 15 22 2 23
REMARK SMILES IDX 3 24 1 25 35 26 36 27 43 28 38 29 42 30 39 32 40 33 41 34
REMARK SMILES IDX 37 35 24 37 25 38 26 39 27 40 28 41 29 42 34 43 30 44 33 45
REMARK SMILES IDX 31 46 32 47
REMARK H PARENT 37 36 32 48
REMARK Flexibility Score: 90.00
ROOT
ATOM      1  C   UNL     1      64.958  87.718  74.015  1.00  0.00     0.264 C 
ENDROOT
BRANCH   1   2
ATOM      2  C   UNL     1      63.719  87.367  73.224  1.00  0.00    -0.033 C 
ATOM      3  C   UNL     1      63.675  86.198  72.551  1.00  0.00    -0.015 C 
BRANCH   3   4
ATOM      4  C   UNL     1      62.593  85.652  71.634  1.00  0.00     0.078 C 
ATOM      5  O   UNL     1      61.095  84.267  73.031  1.00  0.00    -0.319 OA
ATOM      6  C   UNL     1      61.140  85.476  72.212  1.00  0.00     0.095 CG0
ATOM      7  C   UNL     1      61.778  83.125  72.480  1.00  0.00     0.289 C 
ATOM      8  C   UNL     1      60.152  85.315  70.984  1.00  0.00     0.023 C 
ATOM      9  G   UNL     1      60.795  86.628  73.201  1.00  0.00     0.000 G0
ATOM     10  O   UNL     1      63.150  83.414  72.227  1.00  0.00    -0.320 OA
ATOM     11  O   UNL     1      61.233  82.719  71.227  1.00  0.00    -0.313 OA
ATOM     12  C   UNL     1      63.019  84.270  71.081  1.00  0.00     0.170 C 
ATOM     13  C   UNL     1      60.835  84.576  69.793  1.00  0.00     0.049 C 
ATOM     14  C   UNL     1      58.809  84.636  71.302  1.00  0.00     0.011 C 
ATOM     15  C   UNL     1      61.891  83.580  70.275  1.00  0.00     0.122 C 
BRANCH   7  16
ATOM     16  C   UNL     1      61.669  81.983  73.471  1.00  0.00     0.135 C 
BRANCH  16  17
ATOM     17  C   UNL     1      63.022  81.478  73.905  1.00  0.00    -0.040 A 
ATOM     18  C   UNL     1      63.503  81.778  75.179  1.00  0.00     0.004 A 
ATOM     19  C   UNL     1      63.792  80.711  73.031  1.00  0.00     0.004 A 
ATOM     20  C   UNL     1      64.755  81.310  75.581  1.00  0.00     0.000 A 
ATOM     21  C   UNL     1      65.044  80.244  73.433  1.00  0.00     0.000 A 
ATOM     22  C   UNL     1      65.525  80.543  74.707  1.00  0.00     0.000 A 
ENDBRANCH  16  17
ENDBRANCH   7  16
BRANCH  15  23
ATOM     23  C   UNL     1      62.429  82.733  69.168  1.00  0.00    -0.046 C 
ATOM     24  C   UNL     1      62.145  83.207  67.774  1.00  0.00     0.042 C 
ATOM     25  C   UNL     1      63.127  81.613  69.407  1.00  0.00     0.010 C 
ENDBRANCH  15  23
ENDBRANCH   3   4
BRANCH   2  26
ATOM     26  C   UNL     1      62.638  88.428  73.308  1.00  0.00     0.078 C 
BRANCH  26  27
ATOM     27  C   UNL     1      61.263  88.070  72.748  1.00  0.00     0.140 C 
ATOM     28  C   UNL     1      60.804  86.663  73.181  1.00  0.00     0.086 CG0
ATOM     29  C   UNL     1      60.164  88.954  73.298  1.00  0.00     0.190 C 
ATOM     30  C   UNL     1      59.380  86.876  73.612  1.00  0.00    -0.010 C 
ATOM     31  G   UNL     1      61.140  85.500  72.202  1.00  0.00     0.000 G0
ATOM     32  O   UNL     1      60.198  90.175  73.352  1.00  0.00    -0.291 OA
ATOM     33  C   UNL     1      58.998  88.153  73.715  1.00  0.00    -0.008 C 
ATOM     34  C   UNL     1      57.720  88.729  74.181  1.00  0.00     0.048 C 
BRANCH  27  35
ATOM     35  O   UNL     1      61.202  88.286  71.348  1.00  0.00    -0.381 OA
ATOM     36  H   UNL     1      61.572  87.506  70.901  1.00  0.00     0.212 HD
ENDBRANCH  27  35
ENDBRANCH  26  27
ENDBRANCH   2  26
ENDBRANCH   1   2
BRANCH   1  37
ATOM     37  O   UNL     1      65.244  86.674  74.922  1.00  0.00    -0.461 OA
BRANCH  37  38
ATOM     38  C   UNL     1      66.569  86.330  75.054  1.00  0.00     0.310 C 
ATOM     39  O   UNL     1      67.101  85.366  74.523  1.00  0.00    -0.252 OA
BRANCH  38  40
ATOM     40  C   UNL     1      67.261  87.327  75.954  1.00  0.00     0.158 C 
BRANCH  40  41
ATOM     41  C   UNL     1      66.700  87.344  77.352  1.00  0.00    -0.037 A 
ATOM     42  C   UNL     1      66.166  88.522  77.874  1.00  0.00     0.008 A 
ATOM     43  C   UNL     1      66.715  86.184  78.125  1.00  0.00     0.008 A 
ATOM     44  C   UNL     1      65.647  88.539  79.170  1.00  0.00     0.046 A 
ATOM     45  C   UNL     1      66.196  86.200  79.420  1.00  0.00     0.046 A 
ATOM     46  C   UNL     1      65.663  87.377  79.942  1.00  0.00     0.115 A 
BRANCH  46  47
ATOM     47  O   UNL     1      65.157  87.394  81.205  1.00  0.00    -0.508 OA
ATOM     48  H   UNL     1      65.607  88.090  81.716  1.00  0.00     0.293 HD
ENDBRANCH  46  47
ENDBRANCH  40  41
ENDBRANCH  38  40
ENDBRANCH  37  38
ENDBRANCH   1  37
TORSDOF 10
ENDMDL
MODEL 4
REMARK VINA RESULT:    -6.553     21.615     25.360
REMARK INTER + INTRA:         -12.867
REMARK INTER:                 -11.011
REMARK INTRA:                  -1.856
REMARK UNBOUND:                -1.717
REMARK SMILES C=C(C)[C@]12C[C@@H](C)[C@@]34O[C@](Cc5ccccc5)(O[C@@H]1[C@@H]3C=C(COC(=O)Cc1ccc(O)cc1)C[C@]1(O)C(=O)C(C)=C[C@@H]41)O2
REMARK SMILES IDX 23 1 22 2 21 3 20 4 9 5 8 6 10 7 6 8 18 10 44 11 19 12 5 13
REMARK SMILES IDX 7 14 4 15 11 16 12 17 13 18 17 19 14 20 16 21 15 22 2 23
REMARK SMILES IDX 3 24 1 25 35 26 36 27 43 28 38 29 42 30 39 32 40 33 41 34
REMARK SMILES IDX 37 35 24 37 25 38 26 39 27 40 28 41 29 42 34 43 30 44 33 45
REMARK SMILES IDX 31 46 32 47
REMARK H PARENT 37 36 32 48
REMARK Flexibility Score: 90.00
ROOT
ATOM      1  C   UNL     1      77.983  92.625  90.382  1.00  0.00     0.264 C 
ENDROOT
BRANCH   1   2
ATOM      2  C   UNL     1      78.321  91.200  90.009  1.00  0.00    -0.033 C 
ATOM      3  C   UNL     1      79.084  90.967  88.921  1.00  0.00    -0.015 C 
BRANCH   3   4
ATOM      4  C   UNL     1      79.496  89.643  88.297  1.00  0.00     0.078 C 
ATOM      5  O   UNL     1      81.692  89.044  89.266  1.00  0.00    -0.319 OA
ATOM      6  C   UNL     1      80.296  88.617  89.181  1.00  0.00     0.095 CG0
ATOM      7  C   UNL     1      82.268  89.511  88.031  1.00  0.00     0.289 C 
ATOM      8  C   UNL     1      80.223  87.207  88.463  1.00  0.00     0.023 C 
ATOM      9  G   UNL     1      79.792  88.644  90.653  1.00  0.00     0.000 G0
ATOM     10  O   UNL     1      81.524  90.599  87.492  1.00  0.00    -0.320 OA
ATOM     11  O   UNL     1      82.271  88.507  87.020  1.00  0.00    -0.313 OA
ATOM     12  C   UNL     1      80.355  89.902  87.034  1.00  0.00     0.170 C 
ATOM     13  C   UNL     1      80.191  87.356  86.911  1.00  0.00     0.049 C 
ATOM     14  C   UNL     1      81.324  86.206  88.855  1.00  0.00     0.011 C 
ATOM     15  C   UNL     1      80.950  88.599  86.446  1.00  0.00     0.122 C 
BRANCH   7  16
ATOM     16  C   UNL     1      83.692  89.951  88.309  1.00  0.00     0.135 C 
BRANCH  16  17
ATOM     17  C   UNL     1      84.356  90.528  87.084  1.00  0.00    -0.040 A 
ATOM     18  C   UNL     1      84.145  91.862  86.738  1.00  0.00     0.004 A 
ATOM     19  C   UNL     1      85.182  89.725  86.297  1.00  0.00     0.004 A 
ATOM     20  C   UNL     1      84.759  92.395  85.604  1.00  0.00     0.000 A 
ATOM     21  C   UNL     1      85.797  90.258  85.163  1.00  0.00     0.000 A 
ATOM     22  C   UNL     1      85.585  91.592  84.818  1.00  0.00     0.000 A 
ENDBRANCH  16  17
ENDBRANCH   7  16
BRANCH  15  23
ATOM     23  C   UNL     1      81.087  88.666  84.960  1.00  0.00    -0.046 C 
ATOM     24  C   UNL     1      79.837  88.982  84.193  1.00  0.00     0.042 C 
ATOM     25  C   UNL     1      82.261  88.455  84.345  1.00  0.00     0.010 C 
ENDBRANCH  15  23
ENDBRANCH   3   4
BRANCH   2  26
ATOM     26  C   UNL     1      77.732  90.179  90.964  1.00  0.00     0.078 C 
BRANCH  26  27
ATOM     27  C   UNL     1      78.220  88.737  90.831  1.00  0.00     0.140 C 
ATOM     28  C   UNL     1      79.750  88.652  90.657  1.00  0.00     0.086 CG0
ATOM     29  C   UNL     1      77.991  87.930  92.092  1.00  0.00     0.190 C 
ATOM     30  C   UNL     1      80.151  87.563  91.612  1.00  0.00    -0.010 C 
ATOM     31  G   UNL     1      80.273  88.614  89.192  1.00  0.00     0.000 G0
ATOM     32  O   UNL     1      76.942  87.874  92.716  1.00  0.00    -0.291 OA
ATOM     33  C   UNL     1      79.194  87.155  92.450  1.00  0.00    -0.008 C 
ATOM     34  C   UNL     1      79.251  86.178  93.557  1.00  0.00     0.048 C 
BRANCH  27  35
ATOM     35  O   UNL     1      77.491  88.032  89.841  1.00  0.00    -0.381 OA
ATOM     36  H   UNL     1      77.204  87.183  90.217  1.00  0.00     0.212 HD
ENDBRANCH  27  35
ENDBRANCH  26  27
ENDBRANCH   2  26
ENDBRANCH   1   2
BRANCH   1  37
ATOM     37  O   UNL     1      78.293  92.837  91.743  1.00  0.00    -0.461 OA
BRANCH  37  38
ATOM     38  C   UNL     1      78.888  94.039  92.051  1.00  0.00     0.310 C 
ATOM     39  O   UNL     1      78.692  94.678  93.075  1.00  0.00    -0.252 OA
BRANCH  38  40
ATOM     40  C   UNL     1      79.817  94.442  90.931  1.00  0.00     0.158 C 
BRANCH  40  41
ATOM     41  C   UNL     1      81.192  93.839  91.062  1.00  0.00    -0.037 A 
ATOM     42  C   UNL     1      81.751  93.645  92.325  1.00  0.00     0.008 A 
ATOM     43  C   UNL     1      81.906  93.476  89.921  1.00  0.00     0.008 A 
ATOM     44  C   UNL     1      83.024  93.088  92.447  1.00  0.00     0.046 A 
ATOM     45  C   UNL     1      83.179  92.918  90.042  1.00  0.00     0.046 A 
ATOM     46  C   UNL     1      83.738  92.724  91.304  1.00  0.00     0.115 A 
BRANCH  46  47
ATOM     47  O   UNL     1      84.980  92.181  91.423  1.00  0.00    -0.508 OA
ATOM     48  H   UNL     1      85.058  91.433  90.805  1.00  0.00     0.293 HD
ENDBRANCH  46  47
ENDBRANCH  40  41
ENDBRANCH  38  40
ENDBRANCH  37  38
ENDBRANCH   1  37
TORSDOF 10
ENDMDL
MODEL 5
REMARK VINA RESULT:    -5.981      2.444      5.807
REMARK INTER + INTRA:         -11.893
REMARK INTER:                 -11.971
REMARK INTRA:                   0.078
REMARK UNBOUND:                -1.717
REMARK SMILES C=C(C)[C@]12C[C@@H](C)[C@@]34O[C@](Cc5ccccc5)(O[C@@H]1[C@@H]3C=C(COC(=O)Cc1ccc(O)cc1)C[C@]1(O)C(=O)C(C)=C[C@@H]41)O2
REMARK SMILES IDX 23 1 22 2 21 3 20 4 9 5 8 6 10 7 6 8 18 10 44 11 19 12 5 13
REMARK SMILES IDX 7 14 4 15 11 16 12 17 13 18 17 19 14 20 16 21 15 22 2 23
REMARK SMILES IDX 3 24 1 25 35 26 36 27 43 28 38 29 42 30 39 32 40 33 41 34
REMARK SMILES IDX 37 35 24 37 25 38 26 39 27 40 28 41 29 42 34 43 30 44 33 45
REMARK SMILES IDX 31 46 32 47
REMARK H PARENT 37 36 32 48
REMARK Flexibility Score: 90.00
ROOT
ATOM      1  C   UNL     1      63.006  86.256  77.143  1.00  0.00     0.264 C 
ENDROOT
BRANCH   1   2
ATOM      2  C   UNL     1      62.586  85.301  76.050  1.00  0.00    -0.033 C 
ATOM      3  C   UNL     1      61.755  85.735  75.080  1.00  0.00    -0.015 C 
BRANCH   3   4
ATOM      4  C   UNL     1      61.132  84.964  73.927  1.00  0.00     0.078 C 
ATOM      5  O   UNL     1      62.670  85.180  72.002  1.00  0.00    -0.319 OA
ATOM      6  C   UNL     1      62.086  84.211  72.928  1.00  0.00     0.095 CG0
ATOM      7  C   UNL     1      61.757  86.172  71.493  1.00  0.00     0.289 C 
ATOM      8  C   UNL     1      61.207  83.173  72.115  1.00  0.00     0.023 C 
ATOM      9  G   UNL     1      63.309  83.608  73.679  1.00  0.00     0.000 G0
ATOM     10  O   UNL     1      61.152  86.909  72.552  1.00  0.00    -0.320 OA
ATOM     11  O   UNL     1      60.680  85.593  70.761  1.00  0.00    -0.313 OA
ATOM     12  C   UNL     1      60.257  85.912  73.071  1.00  0.00     0.170 C 
ATOM     13  C   UNL     1      59.760  83.707  71.884  1.00  0.00     0.049 C 
ATOM     14  C   UNL     1      61.801  82.712  70.773  1.00  0.00     0.011 C 
ATOM     15  C   UNL     1      59.729  85.233  71.785  1.00  0.00     0.122 C 
BRANCH   7  16
ATOM     16  C   UNL     1      62.532  87.112  70.591  1.00  0.00     0.135 C 
BRANCH  16  17
ATOM     17  C   UNL     1      62.281  86.831  69.131  1.00  0.00    -0.040 A 
ATOM     18  C   UNL     1      61.630  87.778  68.340  1.00  0.00     0.004 A 
ATOM     19  C   UNL     1      62.700  85.624  68.572  1.00  0.00     0.004 A 
ATOM     20  C   UNL     1      61.398  87.518  66.989  1.00  0.00     0.000 A 
ATOM     21  C   UNL     1      62.468  85.364  67.221  1.00  0.00     0.000 A 
ATOM     22  C   UNL     1      61.817  86.311  66.430  1.00  0.00     0.000 A 
ENDBRANCH  16  17
ENDBRANCH   7  16
BRANCH  15  23
ATOM     23  C   UNL     1      58.387  85.754  71.384  1.00  0.00    -0.046 C 
ATOM     24  C   UNL     1      57.310  84.728  71.189  1.00  0.00     0.042 C 
ATOM     25  C   UNL     1      58.159  87.064  71.208  1.00  0.00     0.010 C 
ENDBRANCH  15  23
ENDBRANCH   3   4
BRANCH   2  26
ATOM     26  C   UNL     1      63.196  83.920  76.199  1.00  0.00     0.078 C 
BRANCH  26  27
ATOM     27  C   UNL     1      62.979  82.934  75.053  1.00  0.00     0.140 C 
ATOM     28  C   UNL     1      63.295  83.559  73.678  1.00  0.00     0.086 CG0
ATOM     29  C   UNL     1      63.937  81.763  75.106  1.00  0.00     0.190 C 
ATOM     30  C   UNL     1      64.123  82.505  72.997  1.00  0.00    -0.010 C 
ATOM     31  G   UNL     1      62.092  84.193  72.920  1.00  0.00     0.000 G0
ATOM     32  O   UNL     1      64.171  81.083  76.094  1.00  0.00    -0.291 OA
ATOM     33  C   UNL     1      64.524  81.498  73.779  1.00  0.00    -0.008 C 
ATOM     34  C   UNL     1      65.402  80.349  73.475  1.00  0.00     0.048 C 
BRANCH  27  35
ATOM     35  O   UNL     1      61.699  82.328  75.125  1.00  0.00    -0.381 OA
ATOM     36  H   UNL     1      61.055  83.002  75.399  1.00  0.00     0.212 HD
ENDBRANCH  27  35
ENDBRANCH  26  27
ENDBRANCH   2  26
ENDBRANCH   1   2
BRANCH   1  37
ATOM     37  O   UNL     1      63.276  87.522  76.579  1.00  0.00    -0.461 OA
BRANCH  37  38
ATOM     38  C   UNL     1      64.000  88.393  77.360  1.00  0.00     0.310 C 
ATOM     39  O   UNL     1      63.556  89.407  77.879  1.00  0.00    -0.252 OA
BRANCH  38  40
ATOM     40  C   UNL     1      65.424  87.903  77.473  1.00  0.00     0.158 C 
BRANCH  40  41
ATOM     41  C   UNL     1      65.681  87.133  78.743  1.00  0.00    -0.037 A 
ATOM     42  C   UNL     1      66.822  86.339  78.858  1.00  0.00     0.008 A 
ATOM     43  C   UNL     1      64.778  87.214  79.802  1.00  0.00     0.008 A 
ATOM     44  C   UNL     1      67.060  85.625  80.033  1.00  0.00     0.046 A 
ATOM     45  C   UNL     1      65.016  86.501  80.978  1.00  0.00     0.046 A 
ATOM     46  C   UNL     1      66.156  85.707  81.093  1.00  0.00     0.115 A 
BRANCH  46  47
ATOM     47  O   UNL     1      66.388  85.010  82.239  1.00  0.00    -0.508 OA
ATOM     48  H   UNL     1      65.997  84.123  82.154  1.00  0.00     0.293 HD
ENDBRANCH  46  47
ENDBRANCH  40  41
ENDBRANCH  38  40
ENDBRANCH  37  38
ENDBRANCH   1  37
TORSDOF 10
ENDMDL
MODEL 6
REMARK VINA RESULT:    -5.918      3.803      6.052
REMARK INTER + INTRA:         -11.787
REMARK INTER:                 -11.861
REMARK INTRA:                   0.075
REMARK UNBOUND:                -1.717
REMARK SMILES C=C(C)[C@]12C[C@@H](C)[C@@]34O[C@](Cc5ccccc5)(O[C@@H]1[C@@H]3C=C(COC(=O)Cc1ccc(O)cc1)C[C@]1(O)C(=O)C(C)=C[C@@H]41)O2
REMARK SMILES IDX 23 1 22 2 21 3 20 4 9 5 8 6 10 7 6 8 18 10 44 11 19 12 5 13
REMARK SMILES IDX 7 14 4 15 11 16 12 17 13 18 17 19 14 20 16 21 15 22 2 23
REMARK SMILES IDX 3 24 1 25 35 26 36 27 43 28 38 29 42 30 39 32 40 33 41 34
REMARK SMILES IDX 37 35 24 37 25 38 26 39 27 40 28 41 29 42 34 43 30 44 33 45
REMARK SMILES IDX 31 46 32 47
REMARK H PARENT 37 36 32 48
REMARK Flexibility Score: 90.00
ROOT
ATOM      1  C   UNL     1      65.991  85.912  80.415  1.00  0.00     0.264 C 
ENDROOT
BRANCH   1   2
ATOM      2  C   UNL     1      65.112  86.619  79.409  1.00  0.00    -0.033 C 
ATOM      3  C   UNL     1      65.096  86.188  78.131  1.00  0.00    -0.015 C 
BRANCH   3   4
ATOM      4  C   UNL     1      64.368  86.765  76.927  1.00  0.00     0.078 C 
ATOM      5  O   UNL     1      62.181  85.617  76.790  1.00  0.00    -0.319 OA
ATOM      6  C   UNL     1      62.804  86.922  77.003  1.00  0.00     0.095 CG0
ATOM      7  C   UNL     1      62.760  84.824  75.736  1.00  0.00     0.289 C 
ATOM      8  C   UNL     1      62.365  87.908  75.843  1.00  0.00     0.023 C 
ATOM      9  G   UNL     1      62.359  87.335  78.436  1.00  0.00     0.000 G0
ATOM     10  O   UNL     1      64.149  84.599  75.960  1.00  0.00    -0.320 OA
ATOM     11  O   UNL     1      62.674  85.464  74.465  1.00  0.00    -0.313 OA
ATOM     12  C   UNL     1      64.665  85.908  75.672  1.00  0.00     0.170 C 
ATOM     13  C   UNL     1      63.281  87.762  74.590  1.00  0.00     0.049 C 
ATOM     14  C   UNL     1      60.892  87.806  75.412  1.00  0.00     0.011 C 
ATOM     15  C   UNL     1      63.822  86.338  74.447  1.00  0.00     0.122 C 
BRANCH   7  16
ATOM     16  C   UNL     1      62.028  83.498  75.682  1.00  0.00     0.135 C 
BRANCH  16  17
ATOM     17  C   UNL     1      62.871  82.409  75.066  1.00  0.00    -0.040 A 
ATOM     18  C   UNL     1      64.107  82.084  75.623  1.00  0.00     0.004 A 
ATOM     19  C   UNL     1      62.413  81.728  73.939  1.00  0.00     0.004 A 
ATOM     20  C   UNL     1      64.887  81.077  75.052  1.00  0.00     0.000 A 
ATOM     21  C   UNL     1      63.192  80.721  73.368  1.00  0.00     0.000 A 
ATOM     22  C   UNL     1      64.428  80.396  73.925  1.00  0.00     0.000 A 
ENDBRANCH  16  17
ENDBRANCH   7  16
BRANCH  15  23
ATOM     23  C   UNL     1      64.553  86.129  73.161  1.00  0.00    -0.046 C 
ATOM     24  C   UNL     1      66.044  86.277  73.215  1.00  0.00     0.042 C 
ATOM     25  C   UNL     1      63.912  85.826  72.022  1.00  0.00     0.010 C 
ENDBRANCH  15  23
ENDBRANCH   3   4
BRANCH   2  26
ATOM     26  C   UNL     1      64.325  87.768  80.009  1.00  0.00     0.078 C 
BRANCH  26  27
ATOM     27  C   UNL     1      63.246  88.406  79.137  1.00  0.00     0.140 C 
ATOM     28  C   UNL     1      62.360  87.352  78.441  1.00  0.00     0.086 CG0
ATOM     29  C   UNL     1      62.237  89.194  79.946  1.00  0.00     0.190 C 
ATOM     30  C   UNL     1      60.965  87.865  78.663  1.00  0.00    -0.010 C 
ATOM     31  G   UNL     1      62.799  86.926  77.009  1.00  0.00     0.000 G0
ATOM     32  O   UNL     1      62.509  90.022  80.803  1.00  0.00    -0.291 OA
ATOM     33  C   UNL     1      60.859  88.881  79.524  1.00  0.00    -0.008 C 
ATOM     34  C   UNL     1      59.658  89.572  80.037  1.00  0.00     0.048 C 
BRANCH  27  35
ATOM     35  O   UNL     1      63.795  89.367  78.252  1.00  0.00    -0.381 OA
ATOM     36  H   UNL     1      63.079  89.714  77.693  1.00  0.00     0.212 HD
ENDBRANCH  27  35
ENDBRANCH  26  27
ENDBRANCH   2  26
ENDBRANCH   1   2
BRANCH   1  37
ATOM     37  O   UNL     1      65.731  86.425  81.704  1.00  0.00    -0.461 OA
BRANCH  37  38
ATOM     38  C   UNL     1      65.895  85.549  82.752  1.00  0.00     0.310 C 
ATOM     39  O   UNL     1      66.439  84.457  82.675  1.00  0.00    -0.252 OA
BRANCH  38  40
ATOM     40  C   UNL     1      65.299  86.145  84.005  1.00  0.00     0.158 C 
BRANCH  40  41
ATOM     41  C   UNL     1      64.042  85.443  84.449  1.00  0.00    -0.037 A 
ATOM     42  C   UNL     1      62.800  85.873  83.981  1.00  0.00     0.008 A 
ATOM     43  C   UNL     1      64.119  84.364  85.329  1.00  0.00     0.008 A 
ATOM     44  C   UNL     1      61.636  85.223  84.394  1.00  0.00     0.046 A 
ATOM     45  C   UNL     1      62.956  83.714  85.742  1.00  0.00     0.046 A 
ATOM     46  C   UNL     1      61.714  84.144  85.274  1.00  0.00     0.115 A 
BRANCH  46  47
ATOM     47  O   UNL     1      60.579  83.511  85.677  1.00  0.00    -0.508 OA
ATOM     48  H   UNL     1      59.996  83.388  84.907  1.00  0.00     0.293 HD
ENDBRANCH  46  47
ENDBRANCH  40  41
ENDBRANCH  38  40
ENDBRANCH  37  38
ENDBRANCH   1  37
TORSDOF 10
ENDMDL
MODEL 7
REMARK VINA RESULT:    -5.905      2.119      5.878
REMARK INTER + INTRA:         -11.764
REMARK INTER:                  -9.754
REMARK INTRA:                  -2.010
REMARK UNBOUND:                -1.717
REMARK SMILES C=C(C)[C@]12C[C@@H](C)[C@@]34O[C@](Cc5ccccc5)(O[C@@H]1[C@@H]3C=C(COC(=O)Cc1ccc(O)cc1)C[C@]1(O)C(=O)C(C)=C[C@@H]41)O2
REMARK SMILES IDX 23 1 22 2 21 3 20 4 9 5 8 6 10 7 6 8 18 10 44 11 19 12 5 13
REMARK SMILES IDX 7 14 4 15 11 16 12 17 13 18 17 19 14 20 16 21 15 22 2 23
REMARK SMILES IDX 3 24 1 25 35 26 36 27 43 28 38 29 42 30 39 32 40 33 41 34
REMARK SMILES IDX 37 35 24 37 25 38 26 39 27 40 28 41 29 42 34 43 30 44 33 45
REMARK SMILES IDX 31 46 32 47
REMARK H PARENT 37 36 32 48
REMARK Flexibility Score: 90.00
ROOT
ATOM      1  C   UNL     1      63.503  86.316  77.073  1.00  0.00     0.264 C 
ENDROOT
BRANCH   1   2
ATOM      2  C   UNL     1      63.009  85.309  76.060  1.00  0.00    -0.033 C 
ATOM      3  C   UNL     1      62.141  85.706  75.106  1.00  0.00    -0.015 C 
BRANCH   3   4
ATOM      4  C   UNL     1      61.445  84.885  74.033  1.00  0.00     0.078 C 
ATOM      5  O   UNL     1      62.880  84.965  72.021  1.00  0.00    -0.319 OA
ATOM      6  C   UNL     1      62.331  84.060  73.029  1.00  0.00     0.095 CG0
ATOM      7  C   UNL     1      61.958  85.945  71.506  1.00  0.00     0.289 C 
ATOM      8  C   UNL     1      61.393  82.997  72.323  1.00  0.00     0.023 C 
ATOM      9  G   UNL     1      63.582  83.476  73.747  1.00  0.00     0.000 G0
ATOM     10  O   UNL     1      61.422  86.751  72.552  1.00  0.00    -0.320 OA
ATOM     11  O   UNL     1      60.833  85.348  70.865  1.00  0.00    -0.313 OA
ATOM     12  C   UNL     1      60.540  85.802  73.173  1.00  0.00     0.170 C 
ATOM     13  C   UNL     1      59.945  83.545  72.138  1.00  0.00     0.049 C 
ATOM     14  C   UNL     1      61.907  82.451  70.979  1.00  0.00     0.011 C 
ATOM     15  C   UNL     1      59.933  85.063  71.956  1.00  0.00     0.122 C 
BRANCH   7  16
ATOM     16  C   UNL     1      62.699  86.819  70.514  1.00  0.00     0.135 C 
BRANCH  16  17
ATOM     17  C   UNL     1      63.212  86.029  69.336  1.00  0.00    -0.040 A 
ATOM     18  C   UNL     1      64.572  85.739  69.229  1.00  0.00     0.004 A 
ATOM     19  C   UNL     1      62.325  85.588  68.354  1.00  0.00     0.004 A 
ATOM     20  C   UNL     1      65.046  85.008  68.139  1.00  0.00     0.000 A 
ATOM     21  C   UNL     1      62.799  84.856  67.265  1.00  0.00     0.000 A 
ATOM     22  C   UNL     1      64.159  84.567  67.158  1.00  0.00     0.000 A 
ENDBRANCH  16  17
ENDBRANCH   7  16
BRANCH  15  23
ATOM     23  C   UNL     1      58.580  85.587  71.598  1.00  0.00    -0.046 C 
ATOM     24  C   UNL     1      58.259  86.972  72.078  1.00  0.00     0.042 C 
ATOM     25  C   UNL     1      57.704  84.862  70.888  1.00  0.00     0.010 C 
ENDBRANCH  15  23
ENDBRANCH   3   4
BRANCH   2  26
ATOM     26  C   UNL     1      63.593  83.924  76.262  1.00  0.00     0.078 C 
BRANCH  26  27
ATOM     27  C   UNL     1      63.322  82.887  75.175  1.00  0.00     0.140 C 
ATOM     28  C   UNL     1      63.572  83.446  73.759  1.00  0.00     0.086 CG0
ATOM     29  C   UNL     1      64.281  81.717  75.236  1.00  0.00     0.190 C 
ATOM     30  C   UNL     1      64.366  82.359  73.089  1.00  0.00    -0.010 C 
ATOM     31  G   UNL     1      62.335  84.047  73.030  1.00  0.00     0.000 G0
ATOM     32  O   UNL     1      64.561  81.083  76.243  1.00  0.00    -0.291 OA
ATOM     33  C   UNL     1      64.803  81.388  73.896  1.00  0.00    -0.008 C 
ATOM     34  C   UNL     1      65.666  80.225  73.605  1.00  0.00     0.048 C 
BRANCH  27  35
ATOM     35  O   UNL     1      62.047  82.287  75.336  1.00  0.00    -0.381 OA
ATOM     36  H   UNL     1      61.401  82.988  75.528  1.00  0.00     0.212 HD
ENDBRANCH  27  35
ENDBRANCH  26  27
ENDBRANCH   2  26
ENDBRANCH   1   2
BRANCH   1  37
ATOM     37  O   UNL     1      63.466  87.607  76.504  1.00  0.00    -0.461 OA
BRANCH  37  38
ATOM     38  C   UNL     1      64.684  88.201  76.264  1.00  0.00     0.310 C 
ATOM     39  O   UNL     1      65.664  88.111  76.989  1.00  0.00    -0.252 OA
BRANCH  38  40
ATOM     40  C   UNL     1      64.619  88.977  74.970  1.00  0.00     0.158 C 
BRANCH  40  41
ATOM     41  C   UNL     1      65.408  88.334  73.859  1.00  0.00    -0.037 A 
ATOM     42  C   UNL     1      66.264  89.107  73.074  1.00  0.00     0.008 A 
ATOM     43  C   UNL     1      65.284  86.967  73.615  1.00  0.00     0.008 A 
ATOM     44  C   UNL     1      66.995  88.513  72.045  1.00  0.00     0.046 A 
ATOM     45  C   UNL     1      66.015  86.372  72.586  1.00  0.00     0.046 A 
ATOM     46  C   UNL     1      66.870  87.144  71.801  1.00  0.00     0.115 A 
BRANCH  46  47
ATOM     47  O   UNL     1      67.582  86.565  70.797  1.00  0.00    -0.508 OA
ATOM     48  H   UNL     1      68.502  86.447  71.090  1.00  0.00     0.293 HD
ENDBRANCH  46  47
ENDBRANCH  40  41
ENDBRANCH  38  40
ENDBRANCH  37  38
ENDBRANCH   1  37
TORSDOF 10
ENDMDL
MODEL 8
REMARK VINA RESULT:    -5.697      3.833      6.380
REMARK INTER + INTRA:         -11.411
REMARK INTER:                 -10.610
REMARK INTRA:                  -0.801
REMARK UNBOUND:                -1.717
REMARK SMILES C=C(C)[C@]12C[C@@H](C)[C@@]34O[C@](Cc5ccccc5)(O[C@@H]1[C@@H]3C=C(COC(=O)Cc1ccc(O)cc1)C[C@]1(O)C(=O)C(C)=C[C@@H]41)O2
REMARK SMILES IDX 23 1 22 2 21 3 20 4 9 5 8 6 10 7 6 8 18 10 44 11 19 12 5 13
REMARK SMILES IDX 7 14 4 15 11 16 12 17 13 18 17 19 14 20 16 21 15 22 2 23
REMARK SMILES IDX 3 24 1 25 35 26 36 27 43 28 38 29 42 30 39 32 40 33 41 34
REMARK SMILES IDX 37 35 24 37 25 38 26 39 27 40 28 41 29 42 34 43 30 44 33 45
REMARK SMILES IDX 31 46 32 47
REMARK H PARENT 37 36 32 48
REMARK Flexibility Score: 90.00
ROOT
ATOM      1  C   UNL     1      66.583  85.482  80.663  1.00  0.00     0.264 C 
ENDROOT
BRANCH   1   2
ATOM      2  C   UNL     1      65.785  86.319  79.690  1.00  0.00    -0.033 C 
ATOM      3  C   UNL     1      65.761  85.970  78.387  1.00  0.00    -0.015 C 
BRANCH   3   4
ATOM      4  C   UNL     1      65.108  86.678  77.210  1.00  0.00     0.078 C 
ATOM      5  O   UNL     1      62.860  85.687  76.932  1.00  0.00    -0.319 OA
ATOM      6  C   UNL     1      63.556  86.930  77.257  1.00  0.00     0.095 CG0
ATOM      7  C   UNL     1      63.420  84.935  75.838  1.00  0.00     0.289 C 
ATOM      8  C   UNL     1      63.215  88.023  76.162  1.00  0.00     0.023 C 
ATOM      9  G   UNL     1      63.093  87.267  78.704  1.00  0.00     0.000 G0
ATOM     10  O   UNL     1      64.784  84.606  76.081  1.00  0.00    -0.320 OA
ATOM     11  O   UNL     1      63.413  85.670  74.616  1.00  0.00    -0.313 OA
ATOM     12  C   UNL     1      65.390  85.896  75.904  1.00  0.00     0.170 C 
ATOM     13  C   UNL     1      64.158  87.908  74.926  1.00  0.00     0.049 C 
ATOM     14  C   UNL     1      61.752  88.048  75.686  1.00  0.00     0.011 C 
ATOM     15  C   UNL     1      64.613  86.467  74.692  1.00  0.00     0.122 C 
BRANCH   7  16
ATOM     16  C   UNL     1      62.608  83.666  75.668  1.00  0.00     0.135 C 
BRANCH  16  17
ATOM     17  C   UNL     1      63.285  82.679  74.750  1.00  0.00    -0.040 A 
ATOM     18  C   UNL     1      63.004  82.691  73.385  1.00  0.00     0.004 A 
ATOM     19  C   UNL     1      64.192  81.756  75.269  1.00  0.00     0.004 A 
ATOM     20  C   UNL     1      63.631  81.778  72.536  1.00  0.00     0.000 A 
ATOM     21  C   UNL     1      64.819  80.843  74.420  1.00  0.00     0.000 A 
ATOM     22  C   UNL     1      64.538  80.854  73.054  1.00  0.00     0.000 A 
ENDBRANCH  16  17
ENDBRANCH   7  16
BRANCH  15  23
ATOM     23  C   UNL     1      65.368  86.303  73.413  1.00  0.00    -0.046 C 
ATOM     24  C   UNL     1      64.549  85.984  72.198  1.00  0.00     0.042 C 
ATOM     25  C   UNL     1      66.702  86.434  73.355  1.00  0.00     0.010 C 
ENDBRANCH  15  23
ENDBRANCH   3   4
BRANCH   2  26
ATOM     26  C   UNL     1      65.081  87.490  80.349  1.00  0.00     0.078 C 
BRANCH  26  27
ATOM     27  C   UNL     1      64.034  88.231  79.520  1.00  0.00     0.140 C 
ATOM     28  C   UNL     1      63.125  87.266  78.731  1.00  0.00     0.086 CG0
ATOM     29  C   UNL     1      63.040  88.984  80.379  1.00  0.00     0.190 C 
ATOM     30  C   UNL     1      61.743  87.805  78.979  1.00  0.00    -0.010 C 
ATOM     31  G   UNL     1      63.568  86.943  77.274  1.00  0.00     0.000 G0
ATOM     32  O   UNL     1      63.327  89.730  81.304  1.00  0.00    -0.291 OA
ATOM     33  C   UNL     1      61.658  88.750  79.919  1.00  0.00    -0.008 C 
ATOM     34  C   UNL     1      60.473  89.437  80.474  1.00  0.00     0.048 C 
BRANCH  27  35
ATOM     35  O   UNL     1      64.625  89.242  78.721  1.00  0.00    -0.381 OA
ATOM     36  H   UNL     1      64.542  88.984  77.788  1.00  0.00     0.212 HD
ENDBRANCH  27  35
ENDBRANCH  26  27
ENDBRANCH   2  26
ENDBRANCH   1   2
BRANCH   1  37
ATOM     37  O   UNL     1      66.216  85.826  81.983  1.00  0.00    -0.461 OA
BRANCH  37  38
ATOM     38  C   UNL     1      66.694  85.005  82.979  1.00  0.00     0.310 C 
ATOM     39  O   UNL     1      67.148  83.883  82.807  1.00  0.00    -0.252 OA
BRANCH  38  40
ATOM     40  C   UNL     1      66.569  85.705  84.311  1.00  0.00     0.158 C 
BRANCH  40  41
ATOM     41  C   UNL     1      66.456  87.202  84.180  1.00  0.00    -0.037 A 
ATOM     42  C   UNL     1      65.204  87.815  84.231  1.00  0.00     0.008 A 
ATOM     43  C   UNL     1      67.604  87.976  84.008  1.00  0.00     0.008 A 
ATOM     44  C   UNL     1      65.100  89.201  84.109  1.00  0.00     0.046 A 
ATOM     45  C   UNL     1      67.500  89.362  83.886  1.00  0.00     0.046 A 
ATOM     46  C   UNL     1      66.248  89.974  83.936  1.00  0.00     0.115 A 
BRANCH  46  47
ATOM     47  O   UNL     1      66.146  91.326  83.817  1.00  0.00    -0.508 OA
ATOM     48  H   UNL     1      65.248  91.549  83.517  1.00  0.00     0.293 HD
ENDBRANCH  46  47
ENDBRANCH  40  41
ENDBRANCH  38  40
ENDBRANCH  37  38
ENDBRANCH   1  37
TORSDOF 10
ENDMDL
MODEL 9
REMARK VINA RESULT:    -5.691     31.684     35.299
REMARK INTER + INTRA:         -11.400
REMARK INTER:                 -10.560
REMARK INTRA:                  -0.840
REMARK UNBOUND:                -1.717
REMARK SMILES C=C(C)[C@]12C[C@@H](C)[C@@]34O[C@](Cc5ccccc5)(O[C@@H]1[C@@H]3C=C(COC(=O)Cc1ccc(O)cc1)C[C@]1(O)C(=O)C(C)=C[C@@H]41)O2
REMARK SMILES IDX 23 1 22 2 21 3 20 4 9 5 8 6 10 7 6 8 18 10 44 11 19 12 5 13
REMARK SMILES IDX 7 14 4 15 11 16 12 17 13 18 17 19 14 20 16 21 15 22 2 23
REMARK SMILES IDX 3 24 1 25 35 26 36 27 43 28 38 29 42 30 39 32 40 33 41 34
REMARK SMILES IDX 37 35 24 37 25 38 26 39 27 40 28 41 29 42 34 43 30 44 33 45
REMARK SMILES IDX 31 46 32 47
REMARK H PARENT 37 36 32 48
REMARK Flexibility Score: 90.00
ROOT
ATOM      1  C   UNL     1      96.412  96.004  74.208  1.00  0.00     0.264 C 
ENDROOT
BRANCH   1   2
ATOM      2  C   UNL     1      96.346  97.480  73.893  1.00  0.00    -0.033 C 
ATOM      3  C   UNL     1      96.249  97.877  72.607  1.00  0.00    -0.015 C 
BRANCH   3   4
ATOM      4  C   UNL     1      96.244  99.282  72.029  1.00  0.00     0.078 C 
ATOM      5  O   UNL     1      93.876  99.968  71.824  1.00  0.00    -0.319 OA
ATOM      6  C   UNL     1      95.130 100.284  72.507  1.00  0.00     0.095 CG0
ATOM      7  C   UNL     1      93.999  99.668  70.421  1.00  0.00     0.289 C 
ATOM      8  C   UNL     1      95.592 101.745  72.102  1.00  0.00     0.023 C 
ATOM      9  G   UNL     1      94.811 100.079  74.017  1.00  0.00     0.000 G0
ATOM     10  O   UNL     1      94.889  98.577  70.201  1.00  0.00    -0.320 OA
ATOM     11  O   UNL     1      94.537 100.759  69.677  1.00  0.00    -0.313 OA
ATOM     12  C   UNL     1      96.144  99.215  70.485  1.00  0.00     0.170 C 
ATOM     13  C   UNL     1      96.408 101.739  70.773  1.00  0.00     0.049 C 
ATOM     14  C   UNL     1      94.469 102.792  72.006  1.00  0.00     0.011 C 
ATOM     15  C   UNL     1      95.963 100.611  69.841  1.00  0.00     0.122 C 
BRANCH   7  16
ATOM     16  C   UNL     1      92.623  99.323  69.887  1.00  0.00     0.135 C 
BRANCH  16  17
ATOM     17  C   UNL     1      92.046 100.436  69.047  1.00  0.00    -0.040 A 
ATOM     18  C   UNL     1      91.659 101.633  69.646  1.00  0.00     0.004 A 
ATOM     19  C   UNL     1      91.901 100.265  67.670  1.00  0.00     0.004 A 
ATOM     20  C   UNL     1      91.126 102.662  68.869  1.00  0.00     0.000 A 
ATOM     21  C   UNL     1      91.369 101.294  66.893  1.00  0.00     0.000 A 
ATOM     22  C   UNL     1      90.981 102.492  67.492  1.00  0.00     0.000 A 
ENDBRANCH  16  17
ENDBRANCH   7  16
BRANCH  15  23
ATOM     23  C   UNL     1      96.601 100.695  68.493  1.00  0.00    -0.046 C 
ATOM     24  C   UNL     1      98.101 100.651  68.467  1.00  0.00     0.042 C 
ATOM     25  C   UNL     1      95.876 100.804  67.370  1.00  0.00     0.010 C 
ENDBRANCH  15  23
ENDBRANCH   3   4
BRANCH   2  26
ATOM     26  C   UNL     1      96.394  98.356  75.132  1.00  0.00     0.078 C 
BRANCH  26  27
ATOM     27  C   UNL     1      96.060  99.836  74.953  1.00  0.00     0.140 C 
ATOM     28  C   UNL     1      94.839 100.052  74.034  1.00  0.00     0.086 CG0
ATOM     29  C   UNL     1      95.613 100.489  76.244  1.00  0.00     0.190 C 
ATOM     30  C   UNL     1      94.014 101.063  74.779  1.00  0.00    -0.010 C 
ATOM     31  G   UNL     1      95.149 100.281  72.526  1.00  0.00     0.000 G0
ATOM     32  O   UNL     1      96.190 100.402  77.318  1.00  0.00    -0.291 OA
ATOM     33  C   UNL     1      94.406 101.310  76.033  1.00  0.00    -0.008 C 
ATOM     34  C   UNL     1      93.796 102.168  77.069  1.00  0.00     0.048 C 
BRANCH  27  35
ATOM     35  O   UNL     1      97.202 100.583  74.573  1.00  0.00    -0.381 OA
ATOM     36  H   UNL     1      97.857 100.528  75.290  1.00  0.00     0.212 HD
ENDBRANCH  27  35
ENDBRANCH  26  27
ENDBRANCH   2  26
ENDBRANCH   1   2
BRANCH   1  37
ATOM     37  O   UNL     1      96.947  95.826  75.502  1.00  0.00    -0.461 OA
BRANCH  37  38
ATOM     38  C   UNL     1      96.145  95.168  76.406  1.00  0.00     0.310 C 
ATOM     39  O   UNL     1      96.041  95.452  77.591  1.00  0.00    -0.252 OA
BRANCH  38  40
ATOM     40  C   UNL     1      95.416  94.045  75.708  1.00  0.00     0.158 C 
BRANCH  40  41
ATOM     41  C   UNL     1      93.932  94.058  75.965  1.00  0.00    -0.037 A 
ATOM     42  C   UNL     1      93.404  93.344  77.041  1.00  0.00     0.008 A 
ATOM     43  C   UNL     1      93.085  94.783  75.128  1.00  0.00     0.008 A 
ATOM     44  C   UNL     1      92.029  93.355  77.279  1.00  0.00     0.046 A 
ATOM     45  C   UNL     1      91.710  94.796  75.366  1.00  0.00     0.046 A 
ATOM     46  C   UNL     1      91.182  94.081  76.441  1.00  0.00     0.115 A 
BRANCH  46  47
ATOM     47  O   UNL     1      89.841  94.092  76.673  1.00  0.00    -0.508 OA
ATOM     48  H   UNL     1      89.410  93.470  76.062  1.00  0.00     0.293 HD
ENDBRANCH  46  47
ENDBRANCH  40  41
ENDBRANCH  38  40
ENDBRANCH  37  38
ENDBRANCH   1  37
TORSDOF 10
ENDMDL
MODEL 10
REMARK VINA RESULT:    -5.596     33.051     36.579
REMARK INTER + INTRA:         -11.238
REMARK INTER:                  -9.210
REMARK INTRA:                  -2.029
REMARK UNBOUND:                -1.717
REMARK SMILES C=C(C)[C@]12C[C@@H](C)[C@@]34O[C@](Cc5ccccc5)(O[C@@H]1[C@@H]3C=C(COC(=O)Cc1ccc(O)cc1)C[C@]1(O)C(=O)C(C)=C[C@@H]41)O2
REMARK SMILES IDX 23 1 22 2 21 3 20 4 9 5 8 6 10 7 6 8 18 10 44 11 19 12 5 13
REMARK SMILES IDX 7 14 4 15 11 16 12 17 13 18 17 19 14 20 16 21 15 22 2 23
REMARK SMILES IDX 3 24 1 25 35 26 36 27 43 28 38 29 42 30 39 32 40 33 41 34
REMARK SMILES IDX 37 35 24 37 25 38 26 39 27 40 28 41 29 42 34 43 30 44 33 45
REMARK SMILES IDX 31 46 32 47
REMARK H PARENT 37 36 32 48
REMARK Flexibility Score: 90.00
ROOT
ATOM      1  C   UNL     1      96.901  99.409  78.374  1.00  0.00     0.264 C 
ENDROOT
BRANCH   1   2
ATOM      2  C   UNL     1      96.502 100.195  77.147  1.00  0.00    -0.033 C 
ATOM      3  C   UNL     1      97.145  99.970  75.982  1.00  0.00    -0.015 C 
BRANCH   3   4
ATOM      4  C   UNL     1      96.988 100.670  74.642  1.00  0.00     0.078 C 
ATOM      5  O   UNL     1      95.313  99.388  73.351  1.00  0.00    -0.319 OA
ATOM      6  C   UNL     1      95.566 100.688  73.969  1.00  0.00     0.095 CG0
ATOM      7  C   UNL     1      96.426  98.821  72.633  1.00  0.00     0.289 C 
ATOM      8  C   UNL     1      95.581 101.808  72.848  1.00  0.00     0.023 C 
ATOM      9  G   UNL     1      94.448 100.832  75.042  1.00  0.00     0.000 G0
ATOM     10  O   UNL     1      97.565  98.675  73.477  1.00  0.00    -0.320 OA
ATOM     11  O   UNL     1      96.851  99.647  71.551  1.00  0.00    -0.313 OA
ATOM     12  C   UNL     1      97.959 100.050  73.608  1.00  0.00     0.170 C 
ATOM     13  C   UNL     1      96.987 101.936  72.186  1.00  0.00     0.049 C 
ATOM     14  C   UNL     1      94.513 101.659  71.751  1.00  0.00     0.011 C 
ATOM     15  C   UNL     1      97.733 100.601  72.178  1.00  0.00     0.122 C 
BRANCH   7  16
ATOM     16  C   UNL     1      96.006  97.466  72.099  1.00  0.00     0.135 C 
BRANCH  16  17
ATOM     17  C   UNL     1      96.889  97.005  70.967  1.00  0.00    -0.040 A 
ATOM     18  C   UNL     1      96.439  97.095  69.650  1.00  0.00     0.004 A 
ATOM     19  C   UNL     1      98.156  96.490  71.237  1.00  0.00     0.004 A 
ATOM     20  C   UNL     1      97.256  96.669  68.602  1.00  0.00     0.000 A 
ATOM     21  C   UNL     1      98.974  96.064  70.190  1.00  0.00     0.000 A 
ATOM     22  C   UNL     1      98.523  96.153  68.873  1.00  0.00     0.000 A 
ENDBRANCH  16  17
ENDBRANCH   7  16
BRANCH  15  23
ATOM     23  C   UNL     1      99.001 100.657  71.391  1.00  0.00    -0.046 C 
ATOM     24  C   UNL     1      98.957 100.050  70.020  1.00  0.00     0.042 C 
ATOM     25  C   UNL     1     100.117 101.218  71.882  1.00  0.00     0.010 C 
ENDBRANCH  15  23
ENDBRANCH   3   4
BRANCH   2  26
ATOM     26  C   UNL     1      95.372 101.173  77.408  1.00  0.00     0.078 C 
BRANCH  26  27
ATOM     27  C   UNL     1      94.722 101.829  76.191  1.00  0.00     0.140 C 
ATOM     28  C   UNL     1      94.466 100.821  75.051  1.00  0.00     0.086 CG0
ATOM     29  C   UNL     1      93.330 102.347  76.485  1.00  0.00     0.190 C 
ATOM     30  C   UNL     1      93.059 101.130  74.620  1.00  0.00    -0.010 C 
ATOM     31  G   UNL     1      95.585 100.703  73.976  1.00  0.00     0.000 G0
ATOM     32  O   UNL     1      93.020 103.038  77.445  1.00  0.00    -0.291 OA
ATOM     33  C   UNL     1      92.385 101.962  75.420  1.00  0.00    -0.008 C 
ATOM     34  C   UNL     1      90.981 102.415  75.355  1.00  0.00     0.048 C 
BRANCH  27  35
ATOM     35  O   UNL     1      95.435 102.985  75.783  1.00  0.00    -0.381 OA
ATOM     36  H   UNL     1      95.101 103.745  76.289  1.00  0.00     0.212 HD
ENDBRANCH  27  35
ENDBRANCH  26  27
ENDBRANCH   2  26
ENDBRANCH   1   2
BRANCH   1  37
ATOM     37  O   UNL     1      97.734  98.335  77.991  1.00  0.00    -0.461 OA
BRANCH  37  38
ATOM     38  C   UNL     1      97.253  97.072  78.246  1.00  0.00     0.310 C 
ATOM     39  O   UNL     1      96.666  96.736  79.265  1.00  0.00    -0.252 OA
BRANCH  38  40
ATOM     40  C   UNL     1      97.563  96.169  77.076  1.00  0.00     0.158 C 
BRANCH  40  41
ATOM     41  C   UNL     1      96.327  95.609  76.422  1.00  0.00    -0.037 A 
ATOM     42  C   UNL     1      95.952  94.286  76.656  1.00  0.00     0.008 A 
ATOM     43  C   UNL     1      95.556  96.413  75.583  1.00  0.00     0.008 A 
ATOM     44  C   UNL     1      94.807  93.767  76.050  1.00  0.00     0.046 A 
ATOM     45  C   UNL     1      94.411  95.895  74.977  1.00  0.00     0.046 A 
ATOM     46  C   UNL     1      94.037  94.572  75.210  1.00  0.00     0.115 A 
BRANCH  46  47
ATOM     47  O   UNL     1      92.921  94.066  74.618  1.00  0.00    -0.508 OA
ATOM     48  H   UNL     1      92.149  94.582  74.908  1.00  0.00     0.293 HD
ENDBRANCH  46  47
ENDBRANCH  40  41
ENDBRANCH  38  40
ENDBRANCH  37  38
ENDBRANCH   1  37
TORSDOF 10
ENDMDL
