MODEL 1
REMARK VINA RESULT:    -6.492      0.000      0.000
REMARK INTER + INTRA:         -10.824
REMARK INTER:                 -10.097
REMARK INTRA:                  -0.727
REMARK UNBOUND:                -0.727
REMARK SMILES COc1cc(CNC(=O)CCCCCC(C)C)ccc1O
REMARK SMILES IDX 10 1 8 2 7 3 9 5 6 6 5 7 3 8 20 9 4 10 19 11 18 12 2 13 1 14
REMARK SMILES IDX 21 15 11 17 12 18 13 19 14 20 15 21 16 22 17 23
REMARK H PARENT 7 4 21 16
REMARK Flexibility Score: inf
ROOT
ATOM      1  C   UNL     1      92.937  94.183  75.543  1.00  0.00     0.100 C 
ENDROOT
BRANCH   1   2
ATOM      2  C   UNL     1      94.317  94.138  76.068  1.00  0.00     0.220 C 
ATOM      3  N   UNL     1      94.519  94.037  77.412  1.00  0.00    -0.352 N 
ATOM      4  H   UNL     1      93.687  94.136  77.975  1.00  0.00     0.163 HD
ATOM      5  O   UNL     1      95.277  94.149  75.259  1.00  0.00    -0.275 OA
BRANCH   3   6
ATOM      6  C   UNL     1      95.783  93.811  78.038  1.00  0.00     0.151 C 
BRANCH   6   7
ATOM      7  C   UNL     1      95.892  94.447  79.379  1.00  0.00    -0.025 A 
ATOM      8  C   UNL     1      96.320  96.428  80.771  1.00  0.00     0.160 A 
ATOM      9  C   UNL     1      96.035  95.674  81.929  1.00  0.00     0.157 A 
ATOM     10  C   UNL     1      96.265  95.806  79.505  1.00  0.00     0.056 A 
ATOM     11  C   UNL     1      95.689  94.315  81.816  1.00  0.00     0.050 A 
ATOM     12  C   UNL     1      95.612  93.707  80.552  1.00  0.00     0.009 A 
BRANCH   8  13
ATOM     13  O   UNL     1      96.679  97.748  80.860  1.00  0.00    -0.493 OA
ATOM     14  C   UNL     1      97.484  98.208  79.758  1.00  0.00     0.278 C 
ENDBRANCH   8  13
BRANCH   9  15
ATOM     15  O   UNL     1      96.087  96.262  83.150  1.00  0.00    -0.504 OA
ATOM     16  H   UNL     1      95.373  95.928  83.697  1.00  0.00     0.293 HD
ENDBRANCH   9  15
ENDBRANCH   6   7
ENDBRANCH   3   6
ENDBRANCH   1   2
BRANCH   1  17
ATOM     17  C   UNL     1      91.852  94.449  76.621  1.00  0.00     0.010 C 
BRANCH  17  18
ATOM     18  C   UNL     1      90.421  94.214  76.064  1.00  0.00     0.001 C 
BRANCH  18  19
ATOM     19  C   UNL     1      89.541  93.324  76.981  1.00  0.00     0.000 C 
BRANCH  19  20
ATOM     20  C   UNL     1      90.350  92.161  77.624  1.00  0.00     0.003 C 
BRANCH  20  21
ATOM     21  C   UNL     1      90.075  90.748  77.014  1.00  0.00    -0.017 C 
ATOM     22  C   UNL     1      88.857  90.790  76.044  1.00  0.00     0.007 C 
ATOM     23  C   UNL     1      89.856  89.653  78.098  1.00  0.00     0.007 C 
ENDBRANCH  20  21
ENDBRANCH  19  20
ENDBRANCH  18  19
ENDBRANCH  17  18
ENDBRANCH   1  17
TORSDOF 10
ENDMDL
MODEL 2
REMARK VINA RESULT:    -5.996      2.669      7.746
REMARK INTER + INTRA:         -10.053
REMARK INTER:                  -9.430
REMARK INTRA:                  -0.623
REMARK UNBOUND:                -0.727
REMARK SMILES COc1cc(CNC(=O)CCCCCC(C)C)ccc1O
REMARK SMILES IDX 10 1 8 2 7 3 9 5 6 6 5 7 3 8 20 9 4 10 19 11 18 12 2 13 1 14
REMARK SMILES IDX 21 15 11 17 12 18 13 19 14 20 15 21 16 22 17 23
REMARK H PARENT 7 4 21 16
REMARK Flexibility Score: inf
ROOT
ATOM      1  C   UNL     1      96.254  94.895  75.944  1.00  0.00     0.100 C 
ENDROOT
BRANCH   1   2
ATOM      2  C   UNL     1      94.900  94.962  75.354  1.00  0.00     0.220 C 
ATOM      3  N   UNL     1      94.134  93.836  75.307  1.00  0.00    -0.352 N 
ATOM      4  H   UNL     1      94.612  92.985  75.569  1.00  0.00     0.163 HD
ATOM      5  O   UNL     1      94.468  96.067  74.945  1.00  0.00    -0.275 OA
BRANCH   3   6
ATOM      6  C   UNL     1      92.759  93.793  74.927  1.00  0.00     0.151 C 
BRANCH   6   7
ATOM      7  C   UNL     1      91.962  92.821  75.724  1.00  0.00    -0.025 A 
ATOM      8  C   UNL     1      90.884  90.622  75.945  1.00  0.00     0.160 A 
ATOM      9  C   UNL     1      90.503  90.944  77.265  1.00  0.00     0.157 A 
ATOM     10  C   UNL     1      91.595  91.569  75.177  1.00  0.00     0.056 A 
ATOM     11  C   UNL     1      90.840  92.197  77.809  1.00  0.00     0.050 A 
ATOM     12  C   UNL     1      91.568  93.126  77.047  1.00  0.00     0.009 A 
BRANCH   8  13
ATOM     13  O   UNL     1      90.549  89.415  75.389  1.00  0.00    -0.493 OA
ATOM     14  C   UNL     1      89.326  89.444  74.629  1.00  0.00     0.278 C 
ENDBRANCH   8  13
BRANCH   9  15
ATOM     15  O   UNL     1      89.818  90.042  78.011  1.00  0.00    -0.504 OA
ATOM     16  H   UNL     1      89.306  89.471  77.434  1.00  0.00     0.293 HD
ENDBRANCH   9  15
ENDBRANCH   6   7
ENDBRANCH   3   6
ENDBRANCH   1   2
BRANCH   1  17
ATOM     17  C   UNL     1      96.291  95.113  77.481  1.00  0.00     0.010 C 
BRANCH  17  18
ATOM     18  C   UNL     1      95.648  93.922  78.244  1.00  0.00     0.001 C 
BRANCH  18  19
ATOM     19  C   UNL     1      95.714  94.071  79.787  1.00  0.00     0.000 C 
BRANCH  19  20
ATOM     20  C   UNL     1      95.484  95.540  80.246  1.00  0.00     0.003 C 
BRANCH  20  21
ATOM     21  C   UNL     1      96.730  96.234  80.887  1.00  0.00    -0.017 C 
ATOM     22  C   UNL     1      96.868  95.849  82.390  1.00  0.00     0.007 C 
ATOM     23  C   UNL     1      96.706  97.782  80.732  1.00  0.00     0.007 C 
ENDBRANCH  20  21
ENDBRANCH  19  20
ENDBRANCH  18  19
ENDBRANCH  17  18
ENDBRANCH   1  17
TORSDOF 10
ENDMDL
MODEL 3
REMARK VINA RESULT:    -5.842     14.494     17.295
REMARK INTER + INTRA:          -9.814
REMARK INTER:                  -8.584
REMARK INTRA:                  -1.231
REMARK UNBOUND:                -0.727
REMARK SMILES COc1cc(CNC(=O)CCCCCC(C)C)ccc1O
REMARK SMILES IDX 10 1 8 2 7 3 9 5 6 6 5 7 3 8 20 9 4 10 19 11 18 12 2 13 1 14
REMARK SMILES IDX 21 15 11 17 12 18 13 19 14 20 15 21 16 22 17 23
REMARK H PARENT 7 4 21 16
REMARK Flexibility Score: inf
ROOT
ATOM      1  C   UNL     1      83.592  88.692  85.408  1.00  0.00     0.100 C 
ENDROOT
BRANCH   1   2
ATOM      2  C   UNL     1      83.116  87.480  86.107  1.00  0.00     0.220 C 
ATOM      3  N   UNL     1      82.386  87.610  87.250  1.00  0.00    -0.352 N 
ATOM      4  H   UNL     1      82.333  88.550  87.616  1.00  0.00     0.163 HD
ATOM      5  O   UNL     1      83.360  86.354  85.608  1.00  0.00    -0.275 OA
BRANCH   3   6
ATOM      6  C   UNL     1      81.722  86.542  87.927  1.00  0.00     0.151 C 
BRANCH   6   7
ATOM      7  C   UNL     1      81.043  86.975  89.178  1.00  0.00    -0.025 A 
ATOM      8  C   UNL     1      80.955  88.422  91.164  1.00  0.00     0.160 A 
ATOM      9  C   UNL     1      79.718  87.847  91.525  1.00  0.00     0.157 A 
ATOM     10  C   UNL     1      81.618  87.970  90.004  1.00  0.00     0.056 A 
ATOM     11  C   UNL     1      79.149  86.839  90.725  1.00  0.00     0.050 A 
ATOM     12  C   UNL     1      79.804  86.410  89.558  1.00  0.00     0.009 A 
BRANCH   8  13
ATOM     13  O   UNL     1      81.535  89.391  91.940  1.00  0.00    -0.493 OA
ATOM     14  C   UNL     1      81.413  90.721  91.398  1.00  0.00     0.278 C 
ENDBRANCH   8  13
BRANCH   9  15
ATOM     15  O   UNL     1      79.072  88.273  92.640  1.00  0.00    -0.504 OA
ATOM     16  H   UNL     1      79.486  89.077  92.962  1.00  0.00     0.293 HD
ENDBRANCH   9  15
ENDBRANCH   6   7
ENDBRANCH   3   6
ENDBRANCH   1   2
BRANCH   1  17
ATOM     17  C   UNL     1      82.673  89.931  85.581  1.00  0.00     0.010 C 
BRANCH  17  18
ATOM     18  C   UNL     1      81.538  89.955  84.521  1.00  0.00     0.001 C 
BRANCH  18  19
ATOM     19  C   UNL     1      80.119  89.825  85.135  1.00  0.00     0.000 C 
BRANCH  19  20
ATOM     20  C   UNL     1      79.323  88.633  84.530  1.00  0.00     0.003 C 
BRANCH  20  21
ATOM     21  C   UNL     1      80.189  87.390  84.143  1.00  0.00    -0.017 C 
ATOM     22  C   UNL     1      80.031  87.052  82.632  1.00  0.00     0.007 C 
ATOM     23  C   UNL     1      79.866  86.136  85.007  1.00  0.00     0.007 C 
ENDBRANCH  20  21
ENDBRANCH  19  20
ENDBRANCH  18  19
ENDBRANCH  17  18
ENDBRANCH   1  17
TORSDOF 10
ENDMDL
MODEL 4
REMARK VINA RESULT:    -5.781     14.757     16.999
REMARK INTER + INTRA:          -9.719
REMARK INTER:                  -7.697
REMARK INTRA:                  -2.021
REMARK UNBOUND:                -0.727
REMARK SMILES COc1cc(CNC(=O)CCCCCC(C)C)ccc1O
REMARK SMILES IDX 10 1 8 2 7 3 9 5 6 6 5 7 3 8 20 9 4 10 19 11 18 12 2 13 1 14
REMARK SMILES IDX 21 15 11 17 12 18 13 19 14 20 15 21 16 22 17 23
REMARK H PARENT 7 4 21 16
REMARK Flexibility Score: inf
ROOT
ATOM      1  C   UNL     1      80.952  85.796  84.345  1.00  0.00     0.100 C 
ENDROOT
BRANCH   1   2
ATOM      2  C   UNL     1      81.619  85.896  85.660  1.00  0.00     0.220 C 
ATOM      3  N   UNL     1      80.903  86.304  86.745  1.00  0.00    -0.352 N 
ATOM      4  H   UNL     1      79.974  86.642  86.538  1.00  0.00     0.163 HD
ATOM      5  O   UNL     1      82.825  85.561  85.758  1.00  0.00    -0.275 OA
BRANCH   3   6
ATOM      6  C   UNL     1      81.370  86.280  88.095  1.00  0.00     0.151 C 
BRANCH   6   7
ATOM      7  C   UNL     1      81.106  87.549  88.826  1.00  0.00    -0.025 A 
ATOM      8  C   UNL     1      81.774  89.225  90.497  1.00  0.00     0.160 A 
ATOM      9  C   UNL     1      80.639  89.998  90.172  1.00  0.00     0.157 A 
ATOM     10  C   UNL     1      81.990  87.997  89.836  1.00  0.00     0.056 A 
ATOM     11  C   UNL     1      79.739  89.548  89.188  1.00  0.00     0.050 A 
ATOM     12  C   UNL     1      79.973  88.337  88.517  1.00  0.00     0.009 A 
BRANCH   8  13
ATOM     13  O   UNL     1      82.652  89.635  91.465  1.00  0.00    -0.493 OA
ATOM     14  C   UNL     1      82.506  88.937  92.717  1.00  0.00     0.278 C 
ENDBRANCH   8  13
BRANCH   9  15
ATOM     15  O   UNL     1      80.420  91.179  90.803  1.00  0.00    -0.504 OA
ATOM     16  H   UNL     1      80.187  91.849  90.157  1.00  0.00     0.293 HD
ENDBRANCH   9  15
ENDBRANCH   6   7
ENDBRANCH   3   6
ENDBRANCH   1   2
BRANCH   1  17
ATOM     17  C   UNL     1      79.866  86.876  84.097  1.00  0.00     0.010 C 
BRANCH  17  18
ATOM     18  C   UNL     1      80.491  88.222  83.637  1.00  0.00     0.001 C 
BRANCH  18  19
ATOM     19  C   UNL     1      80.348  89.358  84.684  1.00  0.00     0.000 C 
BRANCH  19  20
ATOM     20  C   UNL     1      81.695  90.094  84.941  1.00  0.00     0.003 C 
BRANCH  20  21
ATOM     21  C   UNL     1      82.457  89.645  86.230  1.00  0.00    -0.017 C 
ATOM     22  C   UNL     1      82.721  90.858  87.170  1.00  0.00     0.007 C 
ATOM     23  C   UNL     1      83.793  88.910  85.918  1.00  0.00     0.007 C 
ENDBRANCH  20  21
ENDBRANCH  19  20
ENDBRANCH  18  19
ENDBRANCH  17  18
ENDBRANCH   1  17
TORSDOF 10
ENDMDL
MODEL 5
REMARK VINA RESULT:    -5.733     13.200     16.509
REMARK INTER + INTRA:          -9.645
REMARK INTER:                  -8.093
REMARK INTRA:                  -1.552
REMARK UNBOUND:                -0.727
REMARK SMILES COc1cc(CNC(=O)CCCCCC(C)C)ccc1O
REMARK SMILES IDX 10 1 8 2 7 3 9 5 6 6 5 7 3 8 20 9 4 10 19 11 18 12 2 13 1 14
REMARK SMILES IDX 21 15 11 17 12 18 13 19 14 20 15 21 16 22 17 23
REMARK H PARENT 7 4 21 16
REMARK Flexibility Score: inf
ROOT
ATOM      1  C   UNL     1      81.668  92.975  89.200  1.00  0.00     0.100 C 
ENDROOT
BRANCH   1   2
ATOM      2  C   UNL     1      81.298  91.553  89.350  1.00  0.00     0.220 C 
ATOM      3  N   UNL     1      80.472  90.975  88.433  1.00  0.00    -0.352 N 
ATOM      4  H   UNL     1      80.058  91.616  87.771  1.00  0.00     0.163 HD
ATOM      5  O   UNL     1      81.788  90.893  90.299  1.00  0.00    -0.275 OA
BRANCH   3   6
ATOM      6  C   UNL     1      80.174  89.581  88.358  1.00  0.00     0.151 C 
BRANCH   6   7
ATOM      7  C   UNL     1      80.488  88.987  87.030  1.00  0.00    -0.025 A 
ATOM      8  C   UNL     1      81.110  87.044  85.657  1.00  0.00     0.160 A 
ATOM      9  C   UNL     1      81.021  87.840  84.495  1.00  0.00     0.157 A 
ATOM     10  C   UNL     1      80.862  87.627  86.918  1.00  0.00     0.056 A 
ATOM     11  C   UNL     1      80.676  89.200  84.597  1.00  0.00     0.050 A 
ATOM     12  C   UNL     1      80.406  89.768  85.854  1.00  0.00     0.009 A 
BRANCH   8  13
ATOM     13  O   UNL     1      81.464  85.723  85.581  1.00  0.00    -0.493 OA
ATOM     14  C   UNL     1      82.605  85.378  86.390  1.00  0.00     0.278 C 
ENDBRANCH   8  13
BRANCH   9  15
ATOM     15  O   UNL     1      81.259  87.290  83.278  1.00  0.00    -0.504 OA
ATOM     16  H   UNL     1      80.967  87.894  82.591  1.00  0.00     0.293 HD
ENDBRANCH   9  15
ENDBRANCH   6   7
ENDBRANCH   3   6
ENDBRANCH   1   2
BRANCH   1  17
ATOM     17  C   UNL     1      83.188  93.222  88.999  1.00  0.00     0.010 C 
BRANCH  17  18
ATOM     18  C   UNL     1      83.492  93.802  87.590  1.00  0.00     0.001 C 
BRANCH  18  19
ATOM     19  C   UNL     1      84.283  92.826  86.680  1.00  0.00     0.000 C 
BRANCH  19  20
ATOM     20  C   UNL     1      83.653  91.404  86.654  1.00  0.00     0.003 C 
BRANCH  20  21
ATOM     21  C   UNL     1      84.169  90.474  85.508  1.00  0.00    -0.017 C 
ATOM     22  C   UNL     1      84.269  88.997  85.994  1.00  0.00     0.007 C 
ATOM     23  C   UNL     1      85.534  90.937  84.922  1.00  0.00     0.007 C 
ENDBRANCH  20  21
ENDBRANCH  19  20
ENDBRANCH  18  19
ENDBRANCH  17  18
ENDBRANCH   1  17
TORSDOF 10
ENDMDL
MODEL 6
REMARK VINA RESULT:    -5.610     15.425     18.008
REMARK INTER + INTRA:          -9.452
REMARK INTER:                  -7.615
REMARK INTRA:                  -1.837
REMARK UNBOUND:                -0.727
REMARK SMILES COc1cc(CNC(=O)CCCCCC(C)C)ccc1O
REMARK SMILES IDX 10 1 8 2 7 3 9 5 6 6 5 7 3 8 20 9 4 10 19 11 18 12 2 13 1 14
REMARK SMILES IDX 21 15 11 17 12 18 13 19 14 20 15 21 16 22 17 23
REMARK H PARENT 7 4 21 16
REMARK Flexibility Score: inf
ROOT
ATOM      1  C   UNL     1      81.009  85.780  84.642  1.00  0.00     0.100 C 
ENDROOT
BRANCH   1   2
ATOM      2  C   UNL     1      81.740  85.941  85.916  1.00  0.00     0.220 C 
ATOM      3  N   UNL     1      81.040  86.095  87.075  1.00  0.00    -0.352 N 
ATOM      4  H   UNL     1      80.045  86.222  86.956  1.00  0.00     0.163 HD
ATOM      5  O   UNL     1      82.994  85.890  85.909  1.00  0.00    -0.275 OA
BRANCH   3   6
ATOM      6  C   UNL     1      81.607  86.087  88.385  1.00  0.00     0.151 C 
BRANCH   6   7
ATOM      7  C   UNL     1      81.052  87.148  89.269  1.00  0.00    -0.025 A 
ATOM      8  C   UNL     1      79.124  88.251  90.323  1.00  0.00     0.160 A 
ATOM      9  C   UNL     1      79.998  89.125  91.004  1.00  0.00     0.157 A 
ATOM     10  C   UNL     1      79.654  87.281  89.446  1.00  0.00     0.056 A 
ATOM     11  C   UNL     1      81.389  89.018  90.814  1.00  0.00     0.050 A 
ATOM     12  C   UNL     1      81.912  88.035  89.958  1.00  0.00     0.009 A 
BRANCH   8  13
ATOM     13  O   UNL     1      77.766  88.351  90.479  1.00  0.00    -0.493 OA
ATOM     14  C   UNL     1      77.253  87.608  91.601  1.00  0.00     0.278 C 
ENDBRANCH   8  13
BRANCH   9  15
ATOM     15  O   UNL     1      79.499  90.062  91.847  1.00  0.00    -0.504 OA
ATOM     16  H   UNL     1      79.898  89.959  92.714  1.00  0.00     0.293 HD
ENDBRANCH   9  15
ENDBRANCH   6   7
ENDBRANCH   3   6
ENDBRANCH   1   2
BRANCH   1  17
ATOM     17  C   UNL     1      79.907  86.847  84.399  1.00  0.00     0.010 C 
BRANCH  17  18
ATOM     18  C   UNL     1      80.377  87.938  83.398  1.00  0.00     0.001 C 
BRANCH  18  19
ATOM     19  C   UNL     1      80.965  89.196  84.091  1.00  0.00     0.000 C 
BRANCH  19  20
ATOM     20  C   UNL     1      80.089  89.673  85.286  1.00  0.00     0.003 C 
BRANCH  20  21
ATOM     21  C   UNL     1      80.773  89.569  86.688  1.00  0.00    -0.017 C 
ATOM     22  C   UNL     1      80.203  90.640  87.664  1.00  0.00     0.007 C 
ATOM     23  C   UNL     1      82.323  89.684  86.614  1.00  0.00     0.007 C 
ENDBRANCH  20  21
ENDBRANCH  19  20
ENDBRANCH  18  19
ENDBRANCH  17  18
ENDBRANCH   1  17
TORSDOF 10
ENDMDL
MODEL 7
REMARK VINA RESULT:    -5.605      2.828      8.644
REMARK INTER + INTRA:          -9.444
REMARK INTER:                  -8.816
REMARK INTRA:                  -0.628
REMARK UNBOUND:                -0.727
REMARK SMILES COc1cc(CNC(=O)CCCCCC(C)C)ccc1O
REMARK SMILES IDX 10 1 8 2 7 3 9 5 6 6 5 7 3 8 20 9 4 10 19 11 18 12 2 13 1 14
REMARK SMILES IDX 21 15 11 17 12 18 13 19 14 20 15 21 16 22 17 23
REMARK H PARENT 7 4 21 16
REMARK Flexibility Score: inf
ROOT
ATOM      1  C   UNL     1      94.803  94.466  78.673  1.00  0.00     0.100 C 
ENDROOT
BRANCH   1   2
ATOM      2  C   UNL     1      94.731  93.924  77.300  1.00  0.00     0.220 C 
ATOM      3  N   UNL     1      93.513  93.703  76.731  1.00  0.00    -0.352 N 
ATOM      4  H   UNL     1      92.726  93.807  77.356  1.00  0.00     0.163 HD
ATOM      5  O   UNL     1      95.797  93.717  76.670  1.00  0.00    -0.275 OA
BRANCH   3   6
ATOM      6  C   UNL     1      93.296  93.350  75.364  1.00  0.00     0.151 C 
BRANCH   6   7
ATOM      7  C   UNL     1      92.029  92.600  75.148  1.00  0.00    -0.025 A 
ATOM      8  C   UNL     1      90.170  91.255  76.032  1.00  0.00     0.160 A 
ATOM      9  C   UNL     1      89.582  91.229  74.750  1.00  0.00     0.157 A 
ATOM     10  C   UNL     1      91.399  91.924  76.219  1.00  0.00     0.056 A 
ATOM     11  C   UNL     1      90.214  91.875  73.672  1.00  0.00     0.050 A 
ATOM     12  C   UNL     1      91.425  92.560  73.870  1.00  0.00     0.009 A 
BRANCH   8  13
ATOM     13  O   UNL     1      89.581  90.615  77.091  1.00  0.00    -0.493 OA
ATOM     14  C   UNL     1      90.017  89.253  77.264  1.00  0.00     0.278 C 
ENDBRANCH   8  13
BRANCH   9  15
ATOM     15  O   UNL     1      88.403  90.587  74.559  1.00  0.00    -0.504 OA
ATOM     16  H   UNL     1      88.248  89.979  75.285  1.00  0.00     0.293 HD
ENDBRANCH   9  15
ENDBRANCH   6   7
ENDBRANCH   3   6
ENDBRANCH   1   2
BRANCH   1  17
ATOM     17  C   UNL     1      96.158  95.137  79.024  1.00  0.00     0.010 C 
BRANCH  17  18
ATOM     18  C   UNL     1      96.465  95.048  80.544  1.00  0.00     0.001 C 
BRANCH  18  19
ATOM     19  C   UNL     1      97.906  95.491  80.909  1.00  0.00     0.000 C 
BRANCH  19  20
ATOM     20  C   UNL     1      97.929  96.839  81.687  1.00  0.00     0.003 C 
BRANCH  20  21
ATOM     21  C   UNL     1      96.530  97.349  82.164  1.00  0.00    -0.017 C 
ATOM     22  C   UNL     1      96.251  98.785  81.631  1.00  0.00     0.007 C 
ATOM     23  C   UNL     1      96.370  97.314  83.712  1.00  0.00     0.007 C 
ENDBRANCH  20  21
ENDBRANCH  19  20
ENDBRANCH  18  19
ENDBRANCH  17  18
ENDBRANCH   1  17
TORSDOF 10
ENDMDL
MODEL 8
REMARK VINA RESULT:    -5.566      4.215      6.908
REMARK INTER + INTRA:          -9.384
REMARK INTER:                  -8.457
REMARK INTRA:                  -0.927
REMARK UNBOUND:                -0.727
REMARK SMILES COc1cc(CNC(=O)CCCCCC(C)C)ccc1O
REMARK SMILES IDX 10 1 8 2 7 3 9 5 6 6 5 7 3 8 20 9 4 10 19 11 18 12 2 13 1 14
REMARK SMILES IDX 21 15 11 17 12 18 13 19 14 20 15 21 16 22 17 23
REMARK H PARENT 7 4 21 16
REMARK Flexibility Score: inf
ROOT
ATOM      1  C   UNL     1      94.197  93.961  76.510  1.00  0.00     0.100 C 
ENDROOT
BRANCH   1   2
ATOM      2  C   UNL     1      95.108  94.662  75.582  1.00  0.00     0.220 C 
ATOM      3  N   UNL     1      95.045  96.020  75.480  1.00  0.00    -0.352 N 
ATOM      4  H   UNL     1      94.269  96.447  75.964  1.00  0.00     0.163 HD
ATOM      5  O   UNL     1      95.952  93.994  74.937  1.00  0.00    -0.275 OA
BRANCH   3   6
ATOM      6  C   UNL     1      95.972  96.834  74.761  1.00  0.00     0.151 C 
BRANCH   6   7
ATOM      7  C   UNL     1      95.403  97.400  73.508  1.00  0.00    -0.025 A 
ATOM      8  C   UNL     1      95.614  97.920  71.114  1.00  0.00     0.160 A 
ATOM      9  C   UNL     1      94.294  98.418  71.108  1.00  0.00     0.157 A 
ATOM     10  C   UNL     1      96.166  97.432  72.317  1.00  0.00     0.056 A 
ATOM     11  C   UNL     1      93.535  98.416  72.292  1.00  0.00     0.050 A 
ATOM     12  C   UNL     1      94.082  97.906  73.482  1.00  0.00     0.009 A 
BRANCH   8  13
ATOM     13  O   UNL     1      96.377  97.931  69.976  1.00  0.00    -0.493 OA
ATOM     14  C   UNL     1      96.639  96.621  69.438  1.00  0.00     0.278 C 
ENDBRANCH   8  13
BRANCH   9  15
ATOM     15  O   UNL     1      93.755  98.892  69.957  1.00  0.00    -0.504 OA
ATOM     16  H   UNL     1      93.167  99.624  70.156  1.00  0.00     0.293 HD
ENDBRANCH   9  15
ENDBRANCH   6   7
ENDBRANCH   3   6
ENDBRANCH   1   2
BRANCH   1  17
ATOM     17  C   UNL     1      92.740  94.498  76.503  1.00  0.00     0.010 C 
BRANCH  17  18
ATOM     18  C   UNL     1      91.762  93.512  77.199  1.00  0.00     0.001 C 
BRANCH  18  19
ATOM     19  C   UNL     1      90.316  93.583  76.643  1.00  0.00     0.000 C 
BRANCH  19  20
ATOM     20  C   UNL     1      90.253  93.261  75.122  1.00  0.00     0.003 C 
BRANCH  20  21
ATOM     21  C   UNL     1      90.626  91.790  74.743  1.00  0.00    -0.017 C 
ATOM     22  C   UNL     1      91.827  91.759  73.753  1.00  0.00     0.007 C 
ATOM     23  C   UNL     1      89.426  90.996  74.151  1.00  0.00     0.007 C 
ENDBRANCH  20  21
ENDBRANCH  19  20
ENDBRANCH  18  19
ENDBRANCH  17  18
ENDBRANCH   1  17
TORSDOF 10
ENDMDL
MODEL 9
REMARK VINA RESULT:    -5.562     27.897     30.226
REMARK INTER + INTRA:          -9.379
REMARK INTER:                  -7.899
REMARK INTRA:                  -1.479
REMARK UNBOUND:                -0.727
REMARK SMILES COc1cc(CNC(=O)CCCCCC(C)C)ccc1O
REMARK SMILES IDX 10 1 8 2 7 3 9 5 6 6 5 7 3 8 20 9 4 10 19 11 18 12 2 13 1 14
REMARK SMILES IDX 21 15 11 17 12 18 13 19 14 20 15 21 16 22 17 23
REMARK H PARENT 7 4 21 16
REMARK Flexibility Score: inf
ROOT
ATOM      1  C   UNL     1      80.218  66.268  74.127  1.00  0.00     0.100 C 
ENDROOT
BRANCH   1   2
ATOM      2  C   UNL     1      81.091  66.079  75.304  1.00  0.00     0.220 C 
ATOM      3  N   UNL     1      81.652  64.858  75.532  1.00  0.00    -0.352 N 
ATOM      4  H   UNL     1      81.315  64.117  74.934  1.00  0.00     0.163 HD
ATOM      5  O   UNL     1      81.331  67.061  76.048  1.00  0.00    -0.275 OA
BRANCH   3   6
ATOM      6  C   UNL     1      82.642  64.581  76.523  1.00  0.00     0.151 C 
BRANCH   6   7
ATOM      7  C   UNL     1      84.010  65.000  76.114  1.00  0.00    -0.025 A 
ATOM      8  C   UNL     1      85.988  66.427  76.434  1.00  0.00     0.160 A 
ATOM      9  C   UNL     1      86.641  65.754  75.379  1.00  0.00     0.157 A 
ATOM     10  C   UNL     1      84.670  66.059  76.782  1.00  0.00     0.056 A 
ATOM     11  C   UNL     1      85.983  64.717  74.691  1.00  0.00     0.050 A 
ATOM     12  C   UNL     1      84.681  64.340  75.059  1.00  0.00     0.009 A 
BRANCH   8  13
ATOM     13  O   UNL     1      86.603  67.452  77.104  1.00  0.00    -0.493 OA
ATOM     14  C   UNL     1      86.431  67.398  78.533  1.00  0.00     0.278 C 
ENDBRANCH   8  13
BRANCH   9  15
ATOM     15  O   UNL     1      87.906  66.101  75.035  1.00  0.00    -0.504 OA
ATOM     16  H   UNL     1      88.474  66.049  75.807  1.00  0.00     0.293 HD
ENDBRANCH   9  15
ENDBRANCH   6   7
ENDBRANCH   3   6
ENDBRANCH   1   2
BRANCH   1  17
ATOM     17  C   UNL     1      80.468  65.255  72.977  1.00  0.00     0.010 C 
BRANCH  17  18
ATOM     18  C   UNL     1      80.210  65.893  71.585  1.00  0.00     0.001 C 
BRANCH  18  19
ATOM     19  C   UNL     1      80.526  67.412  71.535  1.00  0.00     0.000 C 
BRANCH  19  20
ATOM     20  C   UNL     1      82.024  67.690  71.219  1.00  0.00     0.003 C 
BRANCH  20  21
ATOM     21  C   UNL     1      82.781  68.531  72.298  1.00  0.00    -0.017 C 
ATOM     22  C   UNL     1      83.650  69.638  71.631  1.00  0.00     0.007 C 
ATOM     23  C   UNL     1      83.660  67.656  73.239  1.00  0.00     0.007 C 
ENDBRANCH  20  21
ENDBRANCH  19  20
ENDBRANCH  18  19
ENDBRANCH  17  18
ENDBRANCH   1  17
TORSDOF 10
ENDMDL
MODEL 10
REMARK VINA RESULT:    -5.432     13.457     16.053
REMARK INTER + INTRA:          -9.176
REMARK INTER:                  -7.697
REMARK INTRA:                  -1.478
REMARK UNBOUND:                -0.727
REMARK SMILES COc1cc(CNC(=O)CCCCCC(C)C)ccc1O
REMARK SMILES IDX 10 1 8 2 7 3 9 5 6 6 5 7 3 8 20 9 4 10 19 11 18 12 2 13 1 14
REMARK SMILES IDX 21 15 11 17 12 18 13 19 14 20 15 21 16 22 17 23
REMARK H PARENT 7 4 21 16
REMARK Flexibility Score: inf
ROOT
ATOM      1  C   UNL     1      80.114  87.113  85.719  1.00  0.00     0.100 C 
ENDROOT
BRANCH   1   2
ATOM      2  C   UNL     1      80.187  87.484  87.147  1.00  0.00     0.220 C 
ATOM      3  N   UNL     1      80.138  88.800  87.500  1.00  0.00    -0.352 N 
ATOM      4  H   UNL     1      80.188  89.449  86.728  1.00  0.00     0.163 HD
ATOM      5  O   UNL     1      80.250  86.575  88.010  1.00  0.00    -0.275 OA
BRANCH   3   6
ATOM      6  C   UNL     1      80.025  89.288  88.837  1.00  0.00     0.151 C 
BRANCH   6   7
ATOM      7  C   UNL     1      81.267  89.946  89.326  1.00  0.00    -0.025 A 
ATOM      8  C   UNL     1      82.742  91.911  89.424  1.00  0.00     0.160 A 
ATOM      9  C   UNL     1      83.597  91.222  90.310  1.00  0.00     0.157 A 
ATOM     10  C   UNL     1      81.593  91.262  88.923  1.00  0.00     0.056 A 
ATOM     11  C   UNL     1      83.296  89.903  90.697  1.00  0.00     0.050 A 
ATOM     12  C   UNL     1      82.138  89.272  90.213  1.00  0.00     0.009 A 
BRANCH   8  13
ATOM     13  O   UNL     1      83.028  93.189  89.019  1.00  0.00    -0.493 OA
ATOM     14  C   UNL     1      82.179  94.190  89.612  1.00  0.00     0.278 C 
ENDBRANCH   8  13
BRANCH   9  15
ATOM     15  O   UNL     1      84.705  91.835  90.796  1.00  0.00    -0.504 OA
ATOM     16  H   UNL     1      84.688  91.816  91.755  1.00  0.00     0.293 HD
ENDBRANCH   9  15
ENDBRANCH   6   7
ENDBRANCH   3   6
ENDBRANCH   1   2
BRANCH   1  17
ATOM     17  C   UNL     1      79.956  88.318  84.753  1.00  0.00     0.010 C 
BRANCH  17  18
ATOM     18  C   UNL     1      81.227  88.526  83.884  1.00  0.00     0.001 C 
BRANCH  18  19
ATOM     19  C   UNL     1      82.516  88.747  84.720  1.00  0.00     0.000 C 
BRANCH  19  20
ATOM     20  C   UNL     1      83.012  90.221  84.659  1.00  0.00     0.003 C 
BRANCH  20  21
ATOM     21  C   UNL     1      83.631  90.764  85.988  1.00  0.00    -0.017 C 
ATOM     22  C   UNL     1      84.689  91.869  85.696  1.00  0.00     0.007 C 
ATOM     23  C   UNL     1      84.259  89.642  86.865  1.00  0.00     0.007 C 
ENDBRANCH  20  21
ENDBRANCH  19  20
ENDBRANCH  18  19
ENDBRANCH  17  18
ENDBRANCH   1  17
TORSDOF 10
ENDMDL
