MODEL 1
REMARK VINA RESULT:    -6.096      0.000      0.000
REMARK INTER + INTRA:         -10.537
REMARK INTER:                  -9.482
REMARK INTRA:                  -1.055
REMARK UNBOUND:                -1.055
REMARK SMILES COc1cc(CNC(=O)CCCCCC(C)C)ccc1O
REMARK SMILES IDX 10 1 8 2 7 3 9 5 6 6 5 7 3 8 20 9 4 10 19 11 18 12 2 13 1 14
REMARK SMILES IDX 21 15 11 17 12 18 13 19 14 20 15 21 16 22 17 23
REMARK H PARENT 7 4 21 16
REMARK Flexibility Score: inf
ROOT
ATOM      1  C   UNL     1      95.995  97.549  75.250  1.00  0.00     0.100 C 
ENDROOT
BRANCH   1   2
ATOM      2  C   UNL     1      97.081  97.281  76.216  1.00  0.00     0.220 C 
ATOM      3  N   UNL     1      96.879  96.380  77.218  1.00  0.00    -0.352 N 
ATOM      4  H   UNL     1      95.929  96.049  77.306  1.00  0.00     0.163 HD
ATOM      5  O   UNL     1      98.184  97.860  76.066  1.00  0.00    -0.275 OA
BRANCH   3   6
ATOM      6  C   UNL     1      97.887  95.901  78.108  1.00  0.00     0.151 C 
BRANCH   6   7
ATOM      7  C   UNL     1      97.353  95.006  79.170  1.00  0.00    -0.025 A 
ATOM      8  C   UNL     1      97.654  93.794  81.288  1.00  0.00     0.160 A 
ATOM      9  C   UNL     1      96.313  93.358  81.226  1.00  0.00     0.157 A 
ATOM     10  C   UNL     1      98.170  94.599  80.250  1.00  0.00     0.056 A 
ATOM     11  C   UNL     1      95.499  93.735  80.143  1.00  0.00     0.050 A 
ATOM     12  C   UNL     1      96.012  94.557  79.125  1.00  0.00     0.009 A 
BRANCH   8  13
ATOM     13  O   UNL     1      98.470  93.422  82.324  1.00  0.00    -0.493 OA
ATOM     14  C   UNL     1      99.340  94.473  82.785  1.00  0.00     0.278 C 
ENDBRANCH   8  13
BRANCH   9  15
ATOM     15  O   UNL     1      95.808  92.581  82.217  1.00  0.00    -0.504 OA
ATOM     16  H   UNL     1      95.103  93.054  82.666  1.00  0.00     0.293 HD
ENDBRANCH   9  15
ENDBRANCH   6   7
ENDBRANCH   3   6
ENDBRANCH   1   2
BRANCH   1  17
ATOM     17  C   UNL     1      95.545  96.307  74.435  1.00  0.00     0.010 C 
BRANCH  17  18
ATOM     18  C   UNL     1      94.022  96.039  74.591  1.00  0.00     0.001 C 
BRANCH  18  19
ATOM     19  C   UNL     1      93.636  95.472  75.983  1.00  0.00     0.000 C 
BRANCH  19  20
ATOM     20  C   UNL     1      93.192  93.983  75.909  1.00  0.00     0.003 C 
BRANCH  20  21
ATOM     21  C   UNL     1      91.946  93.621  76.781  1.00  0.00    -0.017 C 
ATOM     22  C   UNL     1      90.914  94.788  76.785  1.00  0.00     0.007 C 
ATOM     23  C   UNL     1      92.322  93.236  78.242  1.00  0.00     0.007 C 
ENDBRANCH  20  21
ENDBRANCH  19  20
ENDBRANCH  18  19
ENDBRANCH  17  18
ENDBRANCH   1  17
TORSDOF 10
ENDMDL
MODEL 2
REMARK VINA RESULT:    -5.902     12.320     13.942
REMARK INTER + INTRA:         -10.236
REMARK INTER:                  -9.305
REMARK INTRA:                  -0.931
REMARK UNBOUND:                -1.055
REMARK SMILES COc1cc(CNC(=O)CCCCCC(C)C)ccc1O
REMARK SMILES IDX 10 1 8 2 7 3 9 5 6 6 5 7 3 8 20 9 4 10 19 11 18 12 2 13 1 14
REMARK SMILES IDX 21 15 11 17 12 18 13 19 14 20 15 21 16 22 17 23
REMARK H PARENT 7 4 21 16
REMARK Flexibility Score: inf
ROOT
ATOM      1  C   UNL     1      97.471  82.087  77.549  1.00  0.00     0.100 C 
ENDROOT
BRANCH   1   2
ATOM      2  C   UNL     1      97.583  81.167  78.700  1.00  0.00     0.220 C 
ATOM      3  N   UNL     1      97.847  81.672  79.938  1.00  0.00    -0.352 N 
ATOM      4  H   UNL     1      98.082  82.654  79.955  1.00  0.00     0.163 HD
ATOM      5  O   UNL     1      97.390  79.939  78.519  1.00  0.00    -0.275 OA
BRANCH   3   6
ATOM      6  C   UNL     1      97.811  80.926  81.155  1.00  0.00     0.151 C 
BRANCH   6   7
ATOM      7  C   UNL     1      96.849  81.475  82.148  1.00  0.00    -0.025 A 
ATOM      8  C   UNL     1      95.174  81.123  83.914  1.00  0.00     0.160 A 
ATOM      9  C   UNL     1      95.066  82.519  84.087  1.00  0.00     0.157 A 
ATOM     10  C   UNL     1      96.050  80.610  82.934  1.00  0.00     0.056 A 
ATOM     11  C   UNL     1      95.836  83.389  83.293  1.00  0.00     0.050 A 
ATOM     12  C   UNL     1      96.725  82.871  82.335  1.00  0.00     0.009 A 
BRANCH   8  13
ATOM     13  O   UNL     1      94.418  80.259  84.663  1.00  0.00    -0.493 OA
ATOM     14  C   UNL     1      95.158  79.591  85.703  1.00  0.00     0.278 C 
ENDBRANCH   8  13
BRANCH   9  15
ATOM     15  O   UNL     1      94.225  83.022  85.025  1.00  0.00    -0.504 OA
ATOM     16  H   UNL     1      93.363  83.178  84.632  1.00  0.00     0.293 HD
ENDBRANCH   9  15
ENDBRANCH   6   7
ENDBRANCH   3   6
ENDBRANCH   1   2
BRANCH   1  17
ATOM     17  C   UNL     1      96.013  82.460  77.170  1.00  0.00     0.010 C 
BRANCH  17  18
ATOM     18  C   UNL     1      95.969  83.610  76.126  1.00  0.00     0.001 C 
BRANCH  18  19
ATOM     19  C   UNL     1      96.199  83.129  74.669  1.00  0.00     0.000 C 
BRANCH  19  20
ATOM     20  C   UNL     1      97.622  83.484  74.150  1.00  0.00     0.003 C 
BRANCH  20  21
ATOM     21  C   UNL     1      98.494  82.259  73.722  1.00  0.00    -0.017 C 
ATOM     22  C   UNL     1      97.661  80.944  73.764  1.00  0.00     0.007 C 
ATOM     23  C   UNL     1      99.781  82.103  74.582  1.00  0.00     0.007 C 
ENDBRANCH  20  21
ENDBRANCH  19  20
ENDBRANCH  18  19
ENDBRANCH  17  18
ENDBRANCH   1  17
TORSDOF 10
ENDMDL
MODEL 3
REMARK VINA RESULT:    -5.808      6.310     10.477
REMARK INTER + INTRA:         -10.089
REMARK INTER:                  -9.389
REMARK INTRA:                  -0.700
REMARK UNBOUND:                -1.055
REMARK SMILES COc1cc(CNC(=O)CCCCCC(C)C)ccc1O
REMARK SMILES IDX 10 1 8 2 7 3 9 5 6 6 5 7 3 8 20 9 4 10 19 11 18 12 2 13 1 14
REMARK SMILES IDX 21 15 11 17 12 18 13 19 14 20 15 21 16 22 17 23
REMARK H PARENT 7 4 21 16
REMARK Flexibility Score: inf
ROOT
ATOM      1  C   UNL     1      94.780  97.828  73.121  1.00  0.00     0.100 C 
ENDROOT
BRANCH   1   2
ATOM      2  C   UNL     1      93.976  99.021  72.782  1.00  0.00     0.220 C 
ATOM      3  N   UNL     1      93.857  99.400  71.478  1.00  0.00    -0.352 N 
ATOM      4  H   UNL     1      94.452  98.898  70.834  1.00  0.00     0.163 HD
ATOM      5  O   UNL     1      93.383  99.637  73.701  1.00  0.00    -0.275 OA
BRANCH   3   6
ATOM      6  C   UNL     1      92.981 100.418  70.995  1.00  0.00     0.151 C 
BRANCH   6   7
ATOM      7  C   UNL     1      91.767  99.876  70.328  1.00  0.00    -0.025 A 
ATOM      8  C   UNL     1      90.423  99.533  68.297  1.00  0.00     0.160 A 
ATOM      9  C   UNL     1      89.488  98.785  69.044  1.00  0.00     0.157 A 
ATOM     10  C   UNL     1      91.545 100.089  68.946  1.00  0.00     0.056 A 
ATOM     11  C   UNL     1      89.685  98.589  70.423  1.00  0.00     0.050 A 
ATOM     12  C   UNL     1      90.817  99.125  71.059  1.00  0.00     0.009 A 
BRANCH   8  13
ATOM     13  O   UNL     1      90.240  99.753  66.957  1.00  0.00    -0.493 OA
ATOM     14  C   UNL     1      91.019 100.846  66.434  1.00  0.00     0.278 C 
ENDBRANCH   8  13
BRANCH   9  15
ATOM     15  O   UNL     1      88.405  98.248  68.430  1.00  0.00    -0.504 OA
ATOM     16  H   UNL     1      87.669  98.862  68.482  1.00  0.00     0.293 HD
ENDBRANCH   9  15
ENDBRANCH   6   7
ENDBRANCH   3   6
ENDBRANCH   1   2
BRANCH   1  17
ATOM     17  C   UNL     1      94.232  97.008  74.320  1.00  0.00     0.010 C 
BRANCH  17  18
ATOM     18  C   UNL     1      94.904  95.611  74.413  1.00  0.00     0.001 C 
BRANCH  18  19
ATOM     19  C   UNL     1      94.110  94.602  75.285  1.00  0.00     0.000 C 
BRANCH  19  20
ATOM     20  C   UNL     1      92.625  95.027  75.471  1.00  0.00     0.003 C 
BRANCH  20  21
ATOM     21  C   UNL     1      92.161  95.172  76.957  1.00  0.00    -0.017 C 
ATOM     22  C   UNL     1      93.244  94.623  77.933  1.00  0.00     0.007 C 
ATOM     23  C   UNL     1      90.794  94.482  77.234  1.00  0.00     0.007 C 
ENDBRANCH  20  21
ENDBRANCH  19  20
ENDBRANCH  18  19
ENDBRANCH  17  18
ENDBRANCH   1  17
TORSDOF 10
ENDMDL
MODEL 4
REMARK VINA RESULT:    -5.749     12.548     14.597
REMARK INTER + INTRA:          -9.996
REMARK INTER:                  -9.638
REMARK INTRA:                  -0.358
REMARK UNBOUND:                -1.055
REMARK SMILES COc1cc(CNC(=O)CCCCCC(C)C)ccc1O
REMARK SMILES IDX 10 1 8 2 7 3 9 5 6 6 5 7 3 8 20 9 4 10 19 11 18 12 2 13 1 14
REMARK SMILES IDX 21 15 11 17 12 18 13 19 14 20 15 21 16 22 17 23
REMARK H PARENT 7 4 21 16
REMARK Flexibility Score: inf
ROOT
ATOM      1  C   UNL     1      97.286  81.293  82.704  1.00  0.00     0.100 C 
ENDROOT
BRANCH   1   2
ATOM      2  C   UNL     1      97.444  80.779  81.327  1.00  0.00     0.220 C 
ATOM      3  N   UNL     1      98.043  81.560  80.385  1.00  0.00    -0.352 N 
ATOM      4  H   UNL     1      98.224  82.511  80.674  1.00  0.00     0.163 HD
ATOM      5  O   UNL     1      97.058  79.613  81.065  1.00  0.00    -0.275 OA
BRANCH   3   6
ATOM      6  C   UNL     1      98.414  81.130  79.075  1.00  0.00     0.151 C 
BRANCH   6   7
ATOM      7  C   UNL     1      97.635  81.799  77.998  1.00  0.00    -0.025 A 
ATOM      8  C   UNL     1      97.409  82.506  75.654  1.00  0.00     0.160 A 
ATOM      9  C   UNL     1      96.123  83.014  75.933  1.00  0.00     0.157 A 
ATOM     10  C   UNL     1      98.164  81.919  76.692  1.00  0.00     0.056 A 
ATOM     11  C   UNL     1      95.597  82.924  77.235  1.00  0.00     0.050 A 
ATOM     12  C   UNL     1      96.344  82.316  78.258  1.00  0.00     0.009 A 
BRANCH   8  13
ATOM     13  O   UNL     1      97.948  82.601  74.398  1.00  0.00    -0.493 OA
ATOM     14  C   UNL     1      97.346  81.712  73.437  1.00  0.00     0.278 C 
ENDBRANCH   8  13
BRANCH   9  15
ATOM     15  O   UNL     1      95.390  83.582  74.943  1.00  0.00    -0.504 OA
ATOM     16  H   UNL     1      94.457  83.516  75.157  1.00  0.00     0.293 HD
ENDBRANCH   9  15
ENDBRANCH   6   7
ENDBRANCH   3   6
ENDBRANCH   1   2
BRANCH   1  17
ATOM     17  C   UNL     1      96.233  82.425  82.846  1.00  0.00     0.010 C 
BRANCH  17  18
ATOM     18  C   UNL     1      95.066  82.007  83.781  1.00  0.00     0.001 C 
BRANCH  18  19
ATOM     19  C   UNL     1      95.245  82.491  85.245  1.00  0.00     0.000 C 
BRANCH  19  20
ATOM     20  C   UNL     1      95.005  84.022  85.391  1.00  0.00     0.003 C 
BRANCH  20  21
ATOM     21  C   UNL     1      93.686  84.415  86.132  1.00  0.00    -0.017 C 
ATOM     22  C   UNL     1      93.991  84.955  87.561  1.00  0.00     0.007 C 
ATOM     23  C   UNL     1      92.665  83.243  86.212  1.00  0.00     0.007 C 
ENDBRANCH  20  21
ENDBRANCH  19  20
ENDBRANCH  18  19
ENDBRANCH  17  18
ENDBRANCH   1  17
TORSDOF 10
ENDMDL
MODEL 5
REMARK VINA RESULT:    -5.745     12.559     15.012
REMARK INTER + INTRA:          -9.990
REMARK INTER:                  -9.061
REMARK INTRA:                  -0.929
REMARK UNBOUND:                -1.055
REMARK SMILES COc1cc(CNC(=O)CCCCCC(C)C)ccc1O
REMARK SMILES IDX 10 1 8 2 7 3 9 5 6 6 5 7 3 8 20 9 4 10 19 11 18 12 2 13 1 14
REMARK SMILES IDX 21 15 11 17 12 18 13 19 14 20 15 21 16 22 17 23
REMARK H PARENT 7 4 21 16
REMARK Flexibility Score: inf
ROOT
ATOM      1  C   UNL     1      97.355  81.556  82.570  1.00  0.00     0.100 C 
ENDROOT
BRANCH   1   2
ATOM      2  C   UNL     1      97.465  80.960  81.222  1.00  0.00     0.220 C 
ATOM      3  N   UNL     1      98.035  81.681  80.216  1.00  0.00    -0.352 N 
ATOM      4  H   UNL     1      98.227  82.647  80.441  1.00  0.00     0.163 HD
ATOM      5  O   UNL     1      97.068  79.783  81.043  1.00  0.00    -0.275 OA
BRANCH   3   6
ATOM      6  C   UNL     1      98.359  81.172  78.922  1.00  0.00     0.151 C 
BRANCH   6   7
ATOM      7  C   UNL     1      97.632  81.862  77.823  1.00  0.00    -0.025 A 
ATOM      8  C   UNL     1      97.527  82.632  75.490  1.00  0.00     0.160 A 
ATOM      9  C   UNL     1      96.220  83.117  75.711  1.00  0.00     0.157 A 
ATOM     10  C   UNL     1      98.231  82.025  76.551  1.00  0.00     0.056 A 
ATOM     11  C   UNL     1      95.625  82.984  76.979  1.00  0.00     0.050 A 
ATOM     12  C   UNL     1      96.322  82.357  78.025  1.00  0.00     0.009 A 
BRANCH   8  13
ATOM     13  O   UNL     1      98.132  82.769  74.268  1.00  0.00    -0.493 OA
ATOM     14  C   UNL     1      99.571  82.734  74.325  1.00  0.00     0.278 C 
ENDBRANCH   8  13
BRANCH   9  15
ATOM     15  O   UNL     1      95.536  83.704  74.698  1.00  0.00    -0.504 OA
ATOM     16  H   UNL     1      96.154  84.030  74.040  1.00  0.00     0.293 HD
ENDBRANCH   9  15
ENDBRANCH   6   7
ENDBRANCH   3   6
ENDBRANCH   1   2
BRANCH   1  17
ATOM     17  C   UNL     1      96.652  82.940  82.601  1.00  0.00     0.010 C 
BRANCH  17  18
ATOM     18  C   UNL     1      95.577  83.011  83.721  1.00  0.00     0.001 C 
BRANCH  18  19
ATOM     19  C   UNL     1      94.817  81.675  83.931  1.00  0.00     0.000 C 
BRANCH  19  20
ATOM     20  C   UNL     1      94.785  81.245  85.426  1.00  0.00     0.003 C 
BRANCH  20  21
ATOM     21  C   UNL     1      95.304  79.797  85.708  1.00  0.00    -0.017 C 
ATOM     22  C   UNL     1      96.856  79.777  85.832  1.00  0.00     0.007 C 
ATOM     23  C   UNL     1      94.841  78.770  84.634  1.00  0.00     0.007 C 
ENDBRANCH  20  21
ENDBRANCH  19  20
ENDBRANCH  18  19
ENDBRANCH  17  18
ENDBRANCH   1  17
TORSDOF 10
ENDMDL
MODEL 6
REMARK VINA RESULT:    -5.568     12.931     15.385
REMARK INTER + INTRA:          -9.715
REMARK INTER:                  -8.742
REMARK INTRA:                  -0.974
REMARK UNBOUND:                -1.055
REMARK SMILES COc1cc(CNC(=O)CCCCCC(C)C)ccc1O
REMARK SMILES IDX 10 1 8 2 7 3 9 5 6 6 5 7 3 8 20 9 4 10 19 11 18 12 2 13 1 14
REMARK SMILES IDX 21 15 11 17 12 18 13 19 14 20 15 21 16 22 17 23
REMARK H PARENT 7 4 21 16
REMARK Flexibility Score: inf
ROOT
ATOM      1  C   UNL     1      97.205  77.932  81.046  1.00  0.00     0.100 C 
ENDROOT
BRANCH   1   2
ATOM      2  C   UNL     1      98.070  78.883  80.317  1.00  0.00     0.220 C 
ATOM      3  N   UNL     1      97.531  80.031  79.817  1.00  0.00    -0.352 N 
ATOM      4  H   UNL     1      96.524  80.086  79.872  1.00  0.00     0.163 HD
ATOM      5  O   UNL     1      99.295  78.633  80.209  1.00  0.00    -0.275 OA
BRANCH   3   6
ATOM      6  C   UNL     1      98.275  81.109  79.249  1.00  0.00     0.151 C 
BRANCH   6   7
ATOM      7  C   UNL     1      97.561  81.789  78.135  1.00  0.00    -0.025 A 
ATOM      8  C   UNL     1      97.467  82.503  75.783  1.00  0.00     0.160 A 
ATOM      9  C   UNL     1      96.173  83.024  75.996  1.00  0.00     0.157 A 
ATOM     10  C   UNL     1      98.160  81.906  76.858  1.00  0.00     0.056 A 
ATOM     11  C   UNL     1      95.578  82.936  77.268  1.00  0.00     0.050 A 
ATOM     12  C   UNL     1      96.264  82.319  78.328  1.00  0.00     0.009 A 
BRANCH   8  13
ATOM     13  O   UNL     1      98.072  82.595  74.557  1.00  0.00    -0.493 OA
ATOM     14  C   UNL     1      97.728  81.524  73.657  1.00  0.00     0.278 C 
ENDBRANCH   8  13
BRANCH   9  15
ATOM     15  O   UNL     1      95.499  83.601  74.970  1.00  0.00    -0.504 OA
ATOM     16  H   UNL     1      95.984  84.370  74.661  1.00  0.00     0.293 HD
ENDBRANCH   9  15
ENDBRANCH   6   7
ENDBRANCH   3   6
ENDBRANCH   1   2
BRANCH   1  17
ATOM     17  C   UNL     1      96.547  78.519  82.323  1.00  0.00     0.010 C 
BRANCH  17  18
ATOM     18  C   UNL     1      97.607  79.104  83.297  1.00  0.00     0.001 C 
BRANCH  18  19
ATOM     19  C   UNL     1      97.150  80.416  83.989  1.00  0.00     0.000 C 
BRANCH  19  20
ATOM     20  C   UNL     1      95.710  80.831  83.571  1.00  0.00     0.003 C 
BRANCH  20  21
ATOM     21  C   UNL     1      95.530  82.350  83.244  1.00  0.00    -0.017 C 
ATOM     22  C   UNL     1      96.507  82.794  82.115  1.00  0.00     0.007 C 
ATOM     23  C   UNL     1      95.706  83.262  84.492  1.00  0.00     0.007 C 
ENDBRANCH  20  21
ENDBRANCH  19  20
ENDBRANCH  18  19
ENDBRANCH  17  18
ENDBRANCH   1  17
TORSDOF 10
ENDMDL
MODEL 7
REMARK VINA RESULT:    -5.522     23.096     26.321
REMARK INTER + INTRA:          -9.644
REMARK INTER:                  -9.036
REMARK INTRA:                  -0.609
REMARK UNBOUND:                -1.055
REMARK SMILES COc1cc(CNC(=O)CCCCCC(C)C)ccc1O
REMARK SMILES IDX 10 1 8 2 7 3 9 5 6 6 5 7 3 8 20 9 4 10 19 11 18 12 2 13 1 14
REMARK SMILES IDX 21 15 11 17 12 18 13 19 14 20 15 21 16 22 17 23
REMARK H PARENT 7 4 21 16
REMARK Flexibility Score: inf
ROOT
ATOM      1  C   UNL     1      76.857  84.315  65.474  1.00  0.00     0.100 C 
ENDROOT
BRANCH   1   2
ATOM      2  C   UNL     1      77.301  85.191  66.578  1.00  0.00     0.220 C 
ATOM      3  N   UNL     1      77.117  86.538  66.479  1.00  0.00    -0.352 N 
ATOM      4  H   UNL     1      76.799  86.858  65.575  1.00  0.00     0.163 HD
ATOM      5  O   UNL     1      77.802  84.671  67.604  1.00  0.00    -0.275 OA
BRANCH   3   6
ATOM      6  C   UNL     1      77.338  87.477  67.531  1.00  0.00     0.151 C 
BRANCH   6   7
ATOM      7  C   UNL     1      76.078  88.045  68.081  1.00  0.00    -0.025 A 
ATOM      8  C   UNL     1      73.738  87.759  68.784  1.00  0.00     0.160 A 
ATOM      9  C   UNL     1      73.698  89.110  69.191  1.00  0.00     0.157 A 
ATOM     10  C   UNL     1      74.921  87.241  68.215  1.00  0.00     0.056 A 
ATOM     11  C   UNL     1      74.834  89.926  69.039  1.00  0.00     0.050 A 
ATOM     12  C   UNL     1      76.016  89.397  68.494  1.00  0.00     0.009 A 
BRANCH   8  13
ATOM     13  O   UNL     1      72.637  86.953  68.906  1.00  0.00    -0.493 OA
ATOM     14  C   UNL     1      71.846  86.863  67.705  1.00  0.00     0.278 C 
ENDBRANCH   8  13
BRANCH   9  15
ATOM     15  O   UNL     1      72.565  89.619  69.738  1.00  0.00    -0.504 OA
ATOM     16  H   UNL     1      71.909  89.749  69.050  1.00  0.00     0.293 HD
ENDBRANCH   9  15
ENDBRANCH   6   7
ENDBRANCH   3   6
ENDBRANCH   1   2
BRANCH   1  17
ATOM     17  C   UNL     1      75.641  83.416  65.823  1.00  0.00     0.010 C 
BRANCH  17  18
ATOM     18  C   UNL     1      75.756  82.014  65.163  1.00  0.00     0.001 C 
BRANCH  18  19
ATOM     19  C   UNL     1      74.616  81.713  64.154  1.00  0.00     0.000 C 
BRANCH  19  20
ATOM     20  C   UNL     1      73.355  81.124  64.851  1.00  0.00     0.003 C 
BRANCH  20  21
ATOM     21  C   UNL     1      72.005  81.394  64.109  1.00  0.00    -0.017 C 
ATOM     22  C   UNL     1      70.870  81.720  65.124  1.00  0.00     0.007 C 
ATOM     23  C   UNL     1      71.576  80.215  63.188  1.00  0.00     0.007 C 
ENDBRANCH  20  21
ENDBRANCH  19  20
ENDBRANCH  18  19
ENDBRANCH  17  18
ENDBRANCH   1  17
TORSDOF 10
ENDMDL
MODEL 8
REMARK VINA RESULT:    -5.299     12.620     14.542
REMARK INTER + INTRA:          -9.297
REMARK INTER:                  -8.584
REMARK INTRA:                  -0.713
REMARK UNBOUND:                -1.055
REMARK SMILES COc1cc(CNC(=O)CCCCCC(C)C)ccc1O
REMARK SMILES IDX 10 1 8 2 7 3 9 5 6 6 5 7 3 8 20 9 4 10 19 11 18 12 2 13 1 14
REMARK SMILES IDX 21 15 11 17 12 18 13 19 14 20 15 21 16 22 17 23
REMARK H PARENT 7 4 21 16
REMARK Flexibility Score: inf
ROOT
ATOM      1  C   UNL     1      97.716  78.465  79.221  1.00  0.00     0.100 C 
ENDROOT
BRANCH   1   2
ATOM      2  C   UNL     1      97.817  78.907  80.628  1.00  0.00     0.220 C 
ATOM      3  N   UNL     1      96.679  79.145  81.339  1.00  0.00    -0.352 N 
ATOM      4  H   UNL     1      95.827  79.126  80.796  1.00  0.00     0.163 HD
ATOM      5  O   UNL     1      98.953  79.014  81.152  1.00  0.00    -0.275 OA
BRANCH   3   6
ATOM      6  C   UNL     1      96.625  79.405  82.741  1.00  0.00     0.151 C 
BRANCH   6   7
ATOM      7  C   UNL     1      96.398  80.841  83.060  1.00  0.00    -0.025 A 
ATOM      8  C   UNL     1      95.951  82.615  84.703  1.00  0.00     0.160 A 
ATOM      9  C   UNL     1      96.032  83.581  83.678  1.00  0.00     0.157 A 
ATOM     10  C   UNL     1      96.115  81.250  84.385  1.00  0.00     0.056 A 
ATOM     11  C   UNL     1      96.286  83.183  82.353  1.00  0.00     0.050 A 
ATOM     12  C   UNL     1      96.473  81.825  82.047  1.00  0.00     0.009 A 
BRANCH   8  13
ATOM     13  O   UNL     1      95.684  82.980  85.997  1.00  0.00    -0.493 OA
ATOM     14  C   UNL     1      94.791  82.082  86.683  1.00  0.00     0.278 C 
ENDBRANCH   8  13
BRANCH   9  15
ATOM     15  O   UNL     1      95.872  84.896  83.973  1.00  0.00    -0.504 OA
ATOM     16  H   UNL     1      95.601  84.988  84.889  1.00  0.00     0.293 HD
ENDBRANCH   9  15
ENDBRANCH   6   7
ENDBRANCH   3   6
ENDBRANCH   1   2
BRANCH   1  17
ATOM     17  C   UNL     1      98.168  79.528  78.184  1.00  0.00     0.010 C 
BRANCH  17  18
ATOM     18  C   UNL     1      97.441  80.884  78.400  1.00  0.00     0.001 C 
BRANCH  18  19
ATOM     19  C   UNL     1      96.791  81.448  77.109  1.00  0.00     0.000 C 
BRANCH  19  20
ATOM     20  C   UNL     1      97.821  82.185  76.205  1.00  0.00     0.003 C 
BRANCH  20  21
ATOM     21  C   UNL     1      97.201  82.973  75.005  1.00  0.00    -0.017 C 
ATOM     22  C   UNL     1      96.014  83.862  75.479  1.00  0.00     0.007 C 
ATOM     23  C   UNL     1      96.743  82.044  73.844  1.00  0.00     0.007 C 
ENDBRANCH  20  21
ENDBRANCH  19  20
ENDBRANCH  18  19
ENDBRANCH  17  18
ENDBRANCH   1  17
TORSDOF 10
ENDMDL
MODEL 9
REMARK VINA RESULT:    -5.187     13.183     15.577
REMARK INTER + INTRA:          -9.123
REMARK INTER:                  -8.569
REMARK INTRA:                  -0.553
REMARK UNBOUND:                -1.055
REMARK SMILES COc1cc(CNC(=O)CCCCCC(C)C)ccc1O
REMARK SMILES IDX 10 1 8 2 7 3 9 5 6 6 5 7 3 8 20 9 4 10 19 11 18 12 2 13 1 14
REMARK SMILES IDX 21 15 11 17 12 18 13 19 14 20 15 21 16 22 17 23
REMARK H PARENT 7 4 21 16
REMARK Flexibility Score: inf
ROOT
ATOM      1  C   UNL     1      94.052  81.561  84.810  1.00  0.00     0.100 C 
ENDROOT
BRANCH   1   2
ATOM      2  C   UNL     1      95.439  81.709  84.320  1.00  0.00     0.220 C 
ATOM      3  N   UNL     1      95.665  81.846  82.983  1.00  0.00    -0.352 N 
ATOM      4  H   UNL     1      94.854  81.701  82.398  1.00  0.00     0.163 HD
ATOM      5  O   UNL     1      96.378  81.748  85.152  1.00  0.00    -0.275 OA
BRANCH   3   6
ATOM      6  C   UNL     1      96.924  82.168  82.391  1.00  0.00     0.151 C 
BRANCH   6   7
ATOM      7  C   UNL     1      97.135  81.511  81.073  1.00  0.00    -0.025 A 
ATOM      8  C   UNL     1      97.337  81.655  78.626  1.00  0.00     0.160 A 
ATOM      9  C   UNL     1      97.603  80.271  78.569  1.00  0.00     0.157 A 
ATOM     10  C   UNL     1      97.086  82.262  79.875  1.00  0.00     0.056 A 
ATOM     11  C   UNL     1      97.628  79.508  79.751  1.00  0.00     0.050 A 
ATOM     12  C   UNL     1      97.402  80.124  80.994  1.00  0.00     0.009 A 
BRANCH   8  13
ATOM     13  O   UNL     1      97.288  82.411  77.485  1.00  0.00    -0.493 OA
ATOM     14  C   UNL     1      95.951  82.702  77.036  1.00  0.00     0.278 C 
ENDBRANCH   8  13
BRANCH   9  15
ATOM     15  O   UNL     1      97.844  79.676  77.373  1.00  0.00    -0.504 OA
ATOM     16  H   UNL     1      98.124  78.770  77.517  1.00  0.00     0.293 HD
ENDBRANCH   9  15
ENDBRANCH   6   7
ENDBRANCH   3   6
ENDBRANCH   1   2
BRANCH   1  17
ATOM     17  C   UNL     1      93.622  80.093  85.075  1.00  0.00     0.010 C 
BRANCH  17  18
ATOM     18  C   UNL     1      92.076  79.943  85.086  1.00  0.00     0.001 C 
BRANCH  18  19
ATOM     19  C   UNL     1      91.326  81.298  85.170  1.00  0.00     0.000 C 
BRANCH  19  20
ATOM     20  C   UNL     1      90.023  81.304  84.317  1.00  0.00     0.003 C 
BRANCH  20  21
ATOM     21  C   UNL     1      88.770  80.691  85.023  1.00  0.00    -0.017 C 
ATOM     22  C   UNL     1      87.455  81.239  84.393  1.00  0.00     0.007 C 
ATOM     23  C   UNL     1      88.765  80.930  86.561  1.00  0.00     0.007 C 
ENDBRANCH  20  21
ENDBRANCH  19  20
ENDBRANCH  18  19
ENDBRANCH  17  18
ENDBRANCH   1  17
TORSDOF 10
ENDMDL
MODEL 10
REMARK VINA RESULT:    -4.943     24.058     27.629
REMARK INTER + INTRA:          -8.744
REMARK INTER:                  -7.333
REMARK INTRA:                  -1.411
REMARK UNBOUND:                -1.055
REMARK SMILES COc1cc(CNC(=O)CCCCCC(C)C)ccc1O
REMARK SMILES IDX 10 1 8 2 7 3 9 5 6 6 5 7 3 8 20 9 4 10 19 11 18 12 2 13 1 14
REMARK SMILES IDX 21 15 11 17 12 18 13 19 14 20 15 21 16 22 17 23
REMARK H PARENT 7 4 21 16
REMARK Flexibility Score: inf
ROOT
ATOM      1  C   UNL     1      70.872  83.506  65.044  1.00  0.00     0.100 C 
ENDROOT
BRANCH   1   2
ATOM      2  C   UNL     1      71.068  84.174  66.348  1.00  0.00     0.220 C 
ATOM      3  N   UNL     1      72.280  84.722  66.644  1.00  0.00    -0.352 N 
ATOM      4  H   UNL     1      73.015  84.510  65.983  1.00  0.00     0.163 HD
ATOM      5  O   UNL     1      70.098  84.259  67.140  1.00  0.00    -0.275 OA
BRANCH   3   6
ATOM      6  C   UNL     1      72.557  85.539  67.781  1.00  0.00     0.151 C 
BRANCH   6   7
ATOM      7  C   UNL     1      73.943  86.080  67.789  1.00  0.00    -0.025 A 
ATOM      8  C   UNL     1      76.350  85.782  67.383  1.00  0.00     0.160 A 
ATOM      9  C   UNL     1      76.575  87.129  67.739  1.00  0.00     0.157 A 
ATOM     10  C   UNL     1      75.040  85.261  67.428  1.00  0.00     0.056 A 
ATOM     11  C   UNL     1      75.495  87.945  68.125  1.00  0.00     0.050 A 
ATOM     12  C   UNL     1      74.189  87.427  68.144  1.00  0.00     0.009 A 
BRANCH   8  13
ATOM     13  O   UNL     1      77.390  84.966  67.023  1.00  0.00    -0.493 OA
ATOM     14  C   UNL     1      77.229  84.355  65.728  1.00  0.00     0.278 C 
ENDBRANCH   8  13
BRANCH   9  15
ATOM     15  O   UNL     1      77.831  87.639  67.701  1.00  0.00    -0.504 OA
ATOM     16  H   UNL     1      78.384  87.088  67.143  1.00  0.00     0.293 HD
ENDBRANCH   9  15
ENDBRANCH   6   7
ENDBRANCH   3   6
ENDBRANCH   1   2
BRANCH   1  17
ATOM     17  C   UNL     1      70.803  81.957  65.124  1.00  0.00     0.010 C 
BRANCH  17  18
ATOM     18  C   UNL     1      70.873  81.307  63.715  1.00  0.00     0.001 C 
BRANCH  18  19
ATOM     19  C   UNL     1      72.177  81.647  62.944  1.00  0.00     0.000 C 
BRANCH  19  20
ATOM     20  C   UNL     1      73.418  80.924  63.542  1.00  0.00     0.003 C 
BRANCH  20  21
ATOM     21  C   UNL     1      74.473  81.866  64.208  1.00  0.00    -0.017 C 
ATOM     22  C   UNL     1      74.452  81.716  65.758  1.00  0.00     0.007 C 
ATOM     23  C   UNL     1      74.284  83.360  63.814  1.00  0.00     0.007 C 
ENDBRANCH  20  21
ENDBRANCH  19  20
ENDBRANCH  18  19
ENDBRANCH  17  18
ENDBRANCH   1  17
TORSDOF 10
ENDMDL
