MODEL 1
REMARK VINA RESULT:    -7.238      0.000      0.000
REMARK INTER + INTRA:         -12.548
REMARK INTER:                 -11.680
REMARK INTRA:                  -0.868
REMARK UNBOUND:                -0.868
REMARK SMILES COc1cc(CNC(=O)CCCCC/C=C/C(C)C)ccc1O
REMARK SMILES IDX 11 1 10 2 8 3 7 4 9 6 6 7 5 8 3 9 22 10 4 11 21 12 20 13
REMARK SMILES IDX 2 14 1 15 23 16 12 18 13 19 14 20 15 21 16 22 17 23 18 24
REMARK SMILES IDX 19 25
REMARK H PARENT 7 5 23 17
REMARK Flexibility Score: inf
ROOT
ATOM      1  C   UNL     1      89.545  89.909  77.306  1.00  0.00     0.010 C 
ENDROOT
BRANCH   1   2
ATOM      2  C   UNL     1      90.307  90.905  78.217  1.00  0.00     0.100 C 
BRANCH   2   3
ATOM      3  C   UNL     1      90.562  92.217  77.592  1.00  0.00     0.220 C 
ATOM      4  N   UNL     1      91.841  92.614  77.346  1.00  0.00    -0.352 N 
ATOM      5  H   UNL     1      92.551  91.983  77.690  1.00  0.00     0.163 HD
ATOM      6  O   UNL     1      89.577  92.921  77.264  1.00  0.00    -0.275 OA
BRANCH   4   7
ATOM      7  C   UNL     1      92.222  93.807  76.663  1.00  0.00     0.151 C 
BRANCH   7   8
ATOM      8  C   UNL     1      93.683  94.067  76.738  1.00  0.00    -0.025 A 
ATOM      9  C   UNL     1      95.693  94.599  78.051  1.00  0.00     0.160 A 
ATOM     10  C   UNL     1      96.461  94.616  76.866  1.00  0.00     0.157 A 
ATOM     11  C   UNL     1      94.311  94.334  77.977  1.00  0.00     0.056 A 
ATOM     12  C   UNL     1      95.851  94.335  75.630  1.00  0.00     0.050 A 
ATOM     13  C   UNL     1      94.474  94.052  75.567  1.00  0.00     0.009 A 
BRANCH   9  14
ATOM     14  O   UNL     1      96.294  94.784  79.268  1.00  0.00    -0.493 OA
ATOM     15  C   UNL     1      95.815  93.905  80.299  1.00  0.00     0.278 C 
ENDBRANCH   9  14
BRANCH  10  16
ATOM     16  O   UNL     1      97.789  94.894  76.891  1.00  0.00    -0.504 OA
ATOM     17  H   UNL     1      97.940  95.766  76.517  1.00  0.00     0.293 HD
ENDBRANCH  10  16
ENDBRANCH   7   8
ENDBRANCH   4   7
ENDBRANCH   2   3
ENDBRANCH   1   2
BRANCH   1  18
ATOM     18  C   UNL     1      90.110  88.473  77.452  1.00  0.00     0.001 C 
BRANCH  18  19
ATOM     19  C   UNL     1      90.952  88.008  76.237  1.00  0.00     0.004 C 
BRANCH  19  20
ATOM     20  C   UNL     1      90.087  87.917  74.949  1.00  0.00     0.027 C 
BRANCH  20  21
ATOM     21  C   UNL     1      90.522  88.810  73.889  1.00  0.00    -0.031 C 
ATOM     22  C   UNL     1      89.869  89.949  73.596  1.00  0.00    -0.028 C 
BRANCH  22  23
ATOM     23  C   UNL     1      90.283  90.871  72.541  1.00  0.00     0.005 C 
ATOM     24  C   UNL     1      89.833  90.338  71.155  1.00  0.00     0.012 C 
ATOM     25  C   UNL     1      89.740  92.297  72.830  1.00  0.00     0.012 C 
ENDBRANCH  22  23
ENDBRANCH  20  21
ENDBRANCH  19  20
ENDBRANCH  18  19
ENDBRANCH   1  18
TORSDOF 11
ENDMDL
MODEL 2
REMARK VINA RESULT:    -6.588      2.459      4.362
REMARK INTER + INTRA:         -11.499
REMARK INTER:                 -10.408
REMARK INTRA:                  -1.092
REMARK UNBOUND:                -0.868
REMARK SMILES COc1cc(CNC(=O)CCCCC/C=C/C(C)C)ccc1O
REMARK SMILES IDX 11 1 10 2 8 3 7 4 9 6 6 7 5 8 3 9 22 10 4 11 21 12 20 13
REMARK SMILES IDX 2 14 1 15 23 16 12 18 13 19 14 20 15 21 16 22 17 23 18 24
REMARK SMILES IDX 19 25
REMARK H PARENT 7 5 23 17
REMARK Flexibility Score: inf
ROOT
ATOM      1  C   UNL     1      92.286  94.118  76.805  1.00  0.00     0.010 C 
ENDROOT
BRANCH   1   2
ATOM      2  C   UNL     1      93.354  93.643  75.787  1.00  0.00     0.100 C 
BRANCH   2   3
ATOM      3  C   UNL     1      94.725  94.084  76.106  1.00  0.00     0.220 C 
ATOM      4  N   UNL     1      95.037  94.463  77.377  1.00  0.00    -0.352 N 
ATOM      5  H   UNL     1      94.253  94.483  78.015  1.00  0.00     0.163 HD
ATOM      6  O   UNL     1      95.587  94.057  75.196  1.00  0.00    -0.275 OA
BRANCH   4   7
ATOM      7  C   UNL     1      96.339  94.816  77.841  1.00  0.00     0.151 C 
BRANCH   7   8
ATOM      8  C   UNL     1      96.349  95.203  79.276  1.00  0.00    -0.025 A 
ATOM      9  C   UNL     1      97.546  96.043  81.253  1.00  0.00     0.160 A 
ATOM     10  C   UNL     1      96.375  95.889  82.026  1.00  0.00     0.157 A 
ATOM     11  C   UNL     1      97.527  95.691  79.888  1.00  0.00     0.056 A 
ATOM     12  C   UNL     1      95.193  95.420  81.424  1.00  0.00     0.050 A 
ATOM     13  C   UNL     1      95.177  95.090  80.056  1.00  0.00     0.009 A 
BRANCH   9  14
ATOM     14  O   UNL     1      98.677  96.581  81.808  1.00  0.00    -0.493 OA
ATOM     15  C   UNL     1      99.410  97.447  80.926  1.00  0.00     0.278 C 
ENDBRANCH   9  14
BRANCH  10  16
ATOM     16  O   UNL     1      96.359  96.189  83.349  1.00  0.00    -0.504 OA
ATOM     17  H   UNL     1      96.412  97.142  83.461  1.00  0.00     0.293 HD
ENDBRANCH  10  16
ENDBRANCH   7   8
ENDBRANCH   4   7
ENDBRANCH   2   3
ENDBRANCH   1   2
BRANCH   1  18
ATOM     18  C   UNL     1      91.640  92.916  77.540  1.00  0.00     0.001 C 
BRANCH  18  19
ATOM     19  C   UNL     1      90.229  92.549  77.015  1.00  0.00     0.004 C 
BRANCH  19  20
ATOM     20  C   UNL     1      90.229  91.166  76.306  1.00  0.00     0.027 C 
BRANCH  20  21
ATOM     21  C   UNL     1      89.949  91.239  74.882  1.00  0.00    -0.031 C 
ATOM     22  C   UNL     1      90.551  92.131  74.076  1.00  0.00    -0.028 C 
BRANCH  22  23
ATOM     23  C   UNL     1      90.296  92.226  72.641  1.00  0.00     0.005 C 
ATOM     24  C   UNL     1      89.828  90.855  72.086  1.00  0.00     0.012 C 
ATOM     25  C   UNL     1      89.274  93.359  72.351  1.00  0.00     0.012 C 
ENDBRANCH  22  23
ENDBRANCH  20  21
ENDBRANCH  19  20
ENDBRANCH  18  19
ENDBRANCH   1  18
TORSDOF 11
ENDMDL
MODEL 3
REMARK VINA RESULT:    -6.568      1.987      3.607
REMARK INTER + INTRA:         -11.467
REMARK INTER:                 -10.523
REMARK INTRA:                  -0.944
REMARK UNBOUND:                -0.868
REMARK SMILES COc1cc(CNC(=O)CCCCC/C=C/C(C)C)ccc1O
REMARK SMILES IDX 11 1 10 2 8 3 7 4 9 6 6 7 5 8 3 9 22 10 4 11 21 12 20 13
REMARK SMILES IDX 2 14 1 15 23 16 12 18 13 19 14 20 15 21 16 22 17 23 18 24
REMARK SMILES IDX 19 25
REMARK H PARENT 7 5 23 17
REMARK Flexibility Score: inf
ROOT
ATOM      1  C   UNL     1      89.873  93.197  76.007  1.00  0.00     0.010 C 
ENDROOT
BRANCH   1   2
ATOM      2  C   UNL     1      90.530  93.458  74.628  1.00  0.00     0.100 C 
BRANCH   2   3
ATOM      3  C   UNL     1      91.960  93.102  74.567  1.00  0.00     0.220 C 
ATOM      4  N   UNL     1      92.900  93.995  74.984  1.00  0.00    -0.352 N 
ATOM      5  H   UNL     1      92.533  94.900  75.248  1.00  0.00     0.163 HD
ATOM      6  O   UNL     1      92.272  91.956  74.166  1.00  0.00    -0.275 OA
BRANCH   4   7
ATOM      7  C   UNL     1      94.302  93.746  75.070  1.00  0.00     0.151 C 
BRANCH   7   8
ATOM      8  C   UNL     1      94.894  94.237  76.341  1.00  0.00    -0.025 A 
ATOM      9  C   UNL     1      96.743  95.300  77.566  1.00  0.00     0.160 A 
ATOM     10  C   UNL     1      96.040  95.123  78.778  1.00  0.00     0.157 A 
ATOM     11  C   UNL     1      96.169  94.848  76.360  1.00  0.00     0.056 A 
ATOM     12  C   UNL     1      94.763  94.532  78.769  1.00  0.00     0.050 A 
ATOM     13  C   UNL     1      94.189  94.102  77.558  1.00  0.00     0.009 A 
BRANCH   9  14
ATOM     14  O   UNL     1      97.947  95.952  77.553  1.00  0.00    -0.493 OA
ATOM     15  C   UNL     1      97.860  97.339  77.184  1.00  0.00     0.278 C 
ENDBRANCH   9  14
BRANCH  10  16
ATOM     16  O   UNL     1      96.568  95.518  79.964  1.00  0.00    -0.504 OA
ATOM     17  H   UNL     1      97.514  95.653  79.862  1.00  0.00     0.293 HD
ENDBRANCH  10  16
ENDBRANCH   7   8
ENDBRANCH   4   7
ENDBRANCH   2   3
ENDBRANCH   1   2
BRANCH   1  18
ATOM     18  C   UNL     1      90.916  93.288  77.151  1.00  0.00     0.001 C 
BRANCH  18  19
ATOM     19  C   UNL     1      91.103  91.963  77.931  1.00  0.00     0.004 C 
BRANCH  19  20
ATOM     20  C   UNL     1      89.783  91.144  77.983  1.00  0.00     0.027 C 
BRANCH  20  21
ATOM     21  C   UNL     1      89.922  89.781  77.499  1.00  0.00    -0.031 C 
ATOM     22  C   UNL     1      90.239  89.500  76.223  1.00  0.00    -0.028 C 
BRANCH  22  23
ATOM     23  C   UNL     1      90.391  88.141  75.707  1.00  0.00     0.005 C 
ATOM     24  C   UNL     1      89.092  87.691  74.988  1.00  0.00     0.012 C 
ATOM     25  C   UNL     1      91.637  88.054  74.784  1.00  0.00     0.012 C 
ENDBRANCH  22  23
ENDBRANCH  20  21
ENDBRANCH  19  20
ENDBRANCH  18  19
ENDBRANCH   1  18
TORSDOF 11
ENDMDL
MODEL 4
REMARK VINA RESULT:    -6.541      2.376      4.503
REMARK INTER + INTRA:         -11.424
REMARK INTER:                 -10.564
REMARK INTRA:                  -0.860
REMARK UNBOUND:                -0.868
REMARK SMILES COc1cc(CNC(=O)CCCCC/C=C/C(C)C)ccc1O
REMARK SMILES IDX 11 1 10 2 8 3 7 4 9 6 6 7 5 8 3 9 22 10 4 11 21 12 20 13
REMARK SMILES IDX 2 14 1 15 23 16 12 18 13 19 14 20 15 21 16 22 17 23 18 24
REMARK SMILES IDX 19 25
REMARK H PARENT 7 5 23 17
REMARK Flexibility Score: inf
ROOT
ATOM      1  C   UNL     1      91.948  93.993  76.778  1.00  0.00     0.010 C 
ENDROOT
BRANCH   1   2
ATOM      2  C   UNL     1      93.011  93.599  75.721  1.00  0.00     0.100 C 
BRANCH   2   3
ATOM      3  C   UNL     1      94.389  93.977  76.085  1.00  0.00     0.220 C 
ATOM      4  N   UNL     1      94.715  94.174  77.393  1.00  0.00    -0.352 N 
ATOM      5  H   UNL     1      93.936  94.113  78.035  1.00  0.00     0.163 HD
ATOM      6  O   UNL     1      95.243  94.067  75.172  1.00  0.00    -0.275 OA
BRANCH   4   7
ATOM      7  C   UNL     1      96.024  94.446  77.890  1.00  0.00     0.151 C 
BRANCH   7   8
ATOM      8  C   UNL     1      96.013  94.941  79.290  1.00  0.00    -0.025 A 
ATOM      9  C   UNL     1      96.438  96.726  80.929  1.00  0.00     0.160 A 
ATOM     10  C   UNL     1      96.039  95.862  81.972  1.00  0.00     0.157 A 
ATOM     11  C   UNL     1      96.430  96.257  79.599  1.00  0.00     0.056 A 
ATOM     12  C   UNL     1      95.606  94.557  81.675  1.00  0.00     0.050 A 
ATOM     13  C   UNL     1      95.583  94.103  80.343  1.00  0.00     0.009 A 
BRANCH   9  14
ATOM     14  O   UNL     1      96.778  98.025  81.197  1.00  0.00    -0.493 OA
ATOM     15  C   UNL     1      98.193  98.275  81.195  1.00  0.00     0.278 C 
ENDBRANCH   9  14
BRANCH  10  16
ATOM     16  O   UNL     1      96.059  96.264  83.267  1.00  0.00    -0.504 OA
ATOM     17  H   UNL     1      96.612  97.045  83.350  1.00  0.00     0.293 HD
ENDBRANCH  10  16
ENDBRANCH   7   8
ENDBRANCH   4   7
ENDBRANCH   2   3
ENDBRANCH   1   2
BRANCH   1  18
ATOM     18  C   UNL     1      91.345  92.739  77.461  1.00  0.00     0.001 C 
BRANCH  18  19
ATOM     19  C   UNL     1      89.807  92.625  77.309  1.00  0.00     0.004 C 
BRANCH  19  20
ATOM     20  C   UNL     1      89.415  92.030  75.928  1.00  0.00     0.027 C 
BRANCH  20  21
ATOM     21  C   UNL     1      89.977  90.714  75.678  1.00  0.00    -0.031 C 
ATOM     22  C   UNL     1      89.560  89.935  74.664  1.00  0.00    -0.028 C 
BRANCH  22  23
ATOM     23  C   UNL     1      90.107  88.610  74.383  1.00  0.00     0.005 C 
ATOM     24  C   UNL     1      91.564  88.507  74.910  1.00  0.00     0.012 C 
ATOM     25  C   UNL     1      89.186  87.512  74.979  1.00  0.00     0.012 C 
ENDBRANCH  22  23
ENDBRANCH  20  21
ENDBRANCH  19  20
ENDBRANCH  18  19
ENDBRANCH   1  18
TORSDOF 11
ENDMDL
MODEL 5
REMARK VINA RESULT:    -6.213      2.821      5.082
REMARK INTER + INTRA:         -10.894
REMARK INTER:                 -10.179
REMARK INTRA:                  -0.714
REMARK UNBOUND:                -0.868
REMARK SMILES COc1cc(CNC(=O)CCCCC/C=C/C(C)C)ccc1O
REMARK SMILES IDX 11 1 10 2 8 3 7 4 9 6 6 7 5 8 3 9 22 10 4 11 21 12 20 13
REMARK SMILES IDX 2 14 1 15 23 16 12 18 13 19 14 20 15 21 16 22 17 23 18 24
REMARK SMILES IDX 19 25
REMARK H PARENT 7 5 23 17
REMARK Flexibility Score: inf
ROOT
ATOM      1  C   UNL     1      92.843  94.370  76.482  1.00  0.00     0.010 C 
ENDROOT
BRANCH   1   2
ATOM      2  C   UNL     1      93.870  94.602  75.344  1.00  0.00     0.100 C 
BRANCH   2   3
ATOM      3  C   UNL     1      95.075  95.342  75.765  1.00  0.00     0.220 C 
ATOM      4  N   UNL     1      95.524  95.234  77.046  1.00  0.00    -0.352 N 
ATOM      5  H   UNL     1      94.931  94.687  77.656  1.00  0.00     0.163 HD
ATOM      6  O   UNL     1      95.682  96.028  74.909  1.00  0.00    -0.275 OA
BRANCH   4   7
ATOM      7  C   UNL     1      96.723  95.815  77.556  1.00  0.00     0.151 C 
BRANCH   7   8
ATOM      8  C   UNL     1      96.588  96.257  78.969  1.00  0.00    -0.025 A 
ATOM      9  C   UNL     1      95.843  95.842  81.275  1.00  0.00     0.160 A 
ATOM     10  C   UNL     1      96.286  97.129  81.649  1.00  0.00     0.157 A 
ATOM     11  C   UNL     1      95.989  95.420  79.938  1.00  0.00     0.056 A 
ATOM     12  C   UNL     1      96.899  97.964  80.697  1.00  0.00     0.050 A 
ATOM     13  C   UNL     1      97.059  97.528  79.369  1.00  0.00     0.009 A 
BRANCH   9  14
ATOM     14  O   UNL     1      95.324  94.989  82.213  1.00  0.00    -0.493 OA
ATOM     15  C   UNL     1      95.610  93.602  81.967  1.00  0.00     0.278 C 
ENDBRANCH   9  14
BRANCH  10  16
ATOM     16  O   UNL     1      96.138  97.584  82.919  1.00  0.00    -0.504 OA
ATOM     17  H   UNL     1      95.265  97.970  83.020  1.00  0.00     0.293 HD
ENDBRANCH  10  16
ENDBRANCH   7   8
ENDBRANCH   4   7
ENDBRANCH   2   3
ENDBRANCH   1   2
BRANCH   1  18
ATOM     18  C   UNL     1      91.958  93.130  76.193  1.00  0.00     0.001 C 
BRANCH  18  19
ATOM     19  C   UNL     1      91.299  92.526  77.458  1.00  0.00     0.004 C 
BRANCH  19  20
ATOM     20  C   UNL     1      89.867  92.004  77.157  1.00  0.00     0.027 C 
BRANCH  20  21
ATOM     21  C   UNL     1      89.747  90.557  77.218  1.00  0.00    -0.031 C 
ATOM     22  C   UNL     1      90.574  89.738  76.544  1.00  0.00    -0.028 C 
BRANCH  22  23
ATOM     23  C   UNL     1      90.484  88.281  76.589  1.00  0.00     0.005 C 
ATOM     24  C   UNL     1      89.908  87.819  77.954  1.00  0.00     0.012 C 
ATOM     25  C   UNL     1      89.648  87.758  75.389  1.00  0.00     0.012 C 
ENDBRANCH  22  23
ENDBRANCH  20  21
ENDBRANCH  19  20
ENDBRANCH  18  19
ENDBRANCH   1  18
TORSDOF 11
ENDMDL
MODEL 6
REMARK VINA RESULT:    -5.874     26.271     29.047
REMARK INTER + INTRA:         -10.347
REMARK INTER:                  -9.677
REMARK INTRA:                  -0.670
REMARK UNBOUND:                -0.868
REMARK SMILES COc1cc(CNC(=O)CCCCC/C=C/C(C)C)ccc1O
REMARK SMILES IDX 11 1 10 2 8 3 7 4 9 6 6 7 5 8 3 9 22 10 4 11 21 12 20 13
REMARK SMILES IDX 2 14 1 15 23 16 12 18 13 19 14 20 15 21 16 22 17 23 18 24
REMARK SMILES IDX 19 25
REMARK H PARENT 7 5 23 17
REMARK Flexibility Score: inf
ROOT
ATOM      1  C   UNL     1      84.995  64.135  78.289  1.00  0.00     0.010 C 
ENDROOT
BRANCH   1   2
ATOM      2  C   UNL     1      83.929  63.811  77.211  1.00  0.00     0.100 C 
BRANCH   2   3
ATOM      3  C   UNL     1      83.425  64.995  76.490  1.00  0.00     0.220 C 
ATOM      4  N   UNL     1      82.121  65.365  76.620  1.00  0.00    -0.352 N 
ATOM      5  H   UNL     1      81.556  64.731  77.169  1.00  0.00     0.163 HD
ATOM      6  O   UNL     1      84.233  65.660  75.799  1.00  0.00    -0.275 OA
BRANCH   4   7
ATOM      7  C   UNL     1      81.531  66.536  76.060  1.00  0.00     0.151 C 
BRANCH   7   8
ATOM      8  C   UNL     1      81.126  66.350  74.642  1.00  0.00    -0.025 A 
ATOM      9  C   UNL     1      80.997  67.182  72.331  1.00  0.00     0.160 A 
ATOM     10  C   UNL     1      80.303  66.012  71.950  1.00  0.00     0.157 A 
ATOM     11  C   UNL     1      81.394  67.346  73.673  1.00  0.00     0.056 A 
ATOM     12  C   UNL     1      80.046  65.008  72.901  1.00  0.00     0.050 A 
ATOM     13  C   UNL     1      80.464  65.171  74.235  1.00  0.00     0.009 A 
BRANCH   9  14
ATOM     14  O   UNL     1      81.329  68.125  71.395  1.00  0.00    -0.493 OA
ATOM     15  C   UNL     1      82.692  68.052  70.945  1.00  0.00     0.278 C 
ENDBRANCH   9  14
BRANCH  10  16
ATOM     16  O   UNL     1      79.878  65.828  70.675  1.00  0.00    -0.504 OA
ATOM     17  H   UNL     1      78.977  66.148  70.589  1.00  0.00     0.293 HD
ENDBRANCH  10  16
ENDBRANCH   7   8
ENDBRANCH   4   7
ENDBRANCH   2   3
ENDBRANCH   1   2
BRANCH   1  18
ATOM     18  C   UNL     1      85.156  62.960  79.287  1.00  0.00     0.001 C 
BRANCH  18  19
ATOM     19  C   UNL     1      84.982  63.374  80.771  1.00  0.00     0.004 C 
BRANCH  19  20
ATOM     20  C   UNL     1      86.158  64.269  81.251  1.00  0.00     0.027 C 
BRANCH  20  21
ATOM     21  C   UNL     1      85.805  65.163  82.341  1.00  0.00    -0.031 C 
ATOM     22  C   UNL     1      86.442  66.329  82.550  1.00  0.00    -0.028 C 
BRANCH  22  23
ATOM     23  C   UNL     1      86.107  67.251  83.632  1.00  0.00     0.005 C 
ATOM     24  C   UNL     1      85.405  66.491  84.789  1.00  0.00     0.012 C 
ATOM     25  C   UNL     1      87.379  68.004  84.108  1.00  0.00     0.012 C 
ENDBRANCH  22  23
ENDBRANCH  20  21
ENDBRANCH  19  20
ENDBRANCH  18  19
ENDBRANCH   1  18
TORSDOF 11
ENDMDL
MODEL 7
REMARK VINA RESULT:    -5.731      3.593      5.094
REMARK INTER + INTRA:         -10.116
REMARK INTER:                  -9.260
REMARK INTRA:                  -0.856
REMARK UNBOUND:                -0.868
REMARK SMILES COc1cc(CNC(=O)CCCCC/C=C/C(C)C)ccc1O
REMARK SMILES IDX 11 1 10 2 8 3 7 4 9 6 6 7 5 8 3 9 22 10 4 11 21 12 20 13
REMARK SMILES IDX 2 14 1 15 23 16 12 18 13 19 14 20 15 21 16 22 17 23 18 24
REMARK SMILES IDX 19 25
REMARK H PARENT 7 5 23 17
REMARK Flexibility Score: inf
ROOT
ATOM      1  C   UNL     1      91.488  94.021  76.754  1.00  0.00     0.010 C 
ENDROOT
BRANCH   1   2
ATOM      2  C   UNL     1      92.265  94.207  75.426  1.00  0.00     0.100 C 
BRANCH   2   3
ATOM      3  C   UNL     1      93.642  94.705  75.601  1.00  0.00     0.220 C 
ATOM      4  N   UNL     1      94.049  95.822  74.938  1.00  0.00    -0.352 N 
ATOM      5  H   UNL     1      93.369  96.201  74.293  1.00  0.00     0.163 HD
ATOM      6  O   UNL     1      94.398  94.099  76.398  1.00  0.00    -0.275 OA
BRANCH   4   7
ATOM      7  C   UNL     1      95.315  96.463  75.090  1.00  0.00     0.151 C 
BRANCH   7   8
ATOM      8  C   UNL     1      95.906  96.877  73.791  1.00  0.00    -0.025 A 
ATOM      9  C   UNL     1      97.739  96.787  72.154  1.00  0.00     0.160 A 
ATOM     10  C   UNL     1      97.053  97.712  71.337  1.00  0.00     0.157 A 
ATOM     11  C   UNL     1      97.166  96.384  73.377  1.00  0.00     0.056 A 
ATOM     12  C   UNL     1      95.792  98.195  71.731  1.00  0.00     0.050 A 
ATOM     13  C   UNL     1      95.218  97.773  72.944  1.00  0.00     0.009 A 
BRANCH   9  14
ATOM     14  O   UNL     1      98.926  96.244  71.740  1.00  0.00    -0.493 OA
ATOM     15  C   UNL     1     100.073  96.708  72.471  1.00  0.00     0.278 C 
ENDBRANCH   9  14
BRANCH  10  16
ATOM     16  O   UNL     1      97.583  98.147  70.166  1.00  0.00    -0.504 OA
ATOM     17  H   UNL     1      98.524  97.953  70.150  1.00  0.00     0.293 HD
ENDBRANCH  10  16
ENDBRANCH   7   8
ENDBRANCH   4   7
ENDBRANCH   2   3
ENDBRANCH   1   2
BRANCH   1  18
ATOM     18  C   UNL     1      91.600  92.563  77.269  1.00  0.00     0.001 C 
BRANCH  18  19
ATOM     19  C   UNL     1      90.286  92.015  77.882  1.00  0.00     0.004 C 
BRANCH  19  20
ATOM     20  C   UNL     1      89.510  91.134  76.864  1.00  0.00     0.027 C 
BRANCH  20  21
ATOM     21  C   UNL     1      90.094  91.126  75.533  1.00  0.00    -0.031 C 
ATOM     22  C   UNL     1      89.522  91.759  74.493  1.00  0.00    -0.028 C 
BRANCH  22  23
ATOM     23  C   UNL     1      90.085  91.774  73.146  1.00  0.00     0.005 C 
ATOM     24  C   UNL     1      89.817  90.421  72.435  1.00  0.00     0.012 C 
ATOM     25  C   UNL     1      89.528  92.982  72.344  1.00  0.00     0.012 C 
ENDBRANCH  22  23
ENDBRANCH  20  21
ENDBRANCH  19  20
ENDBRANCH  18  19
ENDBRANCH   1  18
TORSDOF 11
ENDMDL
MODEL 8
REMARK VINA RESULT:    -5.711     12.988     15.716
REMARK INTER + INTRA:         -10.084
REMARK INTER:                  -8.415
REMARK INTRA:                  -1.669
REMARK UNBOUND:                -0.868
REMARK SMILES COc1cc(CNC(=O)CCCCC/C=C/C(C)C)ccc1O
REMARK SMILES IDX 11 1 10 2 8 3 7 4 9 6 6 7 5 8 3 9 22 10 4 11 21 12 20 13
REMARK SMILES IDX 2 14 1 15 23 16 12 18 13 19 14 20 15 21 16 22 17 23 18 24
REMARK SMILES IDX 19 25
REMARK H PARENT 7 5 23 17
REMARK Flexibility Score: inf
ROOT
ATOM      1  C   UNL     1      80.539  87.488  87.052  1.00  0.00     0.010 C 
ENDROOT
BRANCH   1   2
ATOM      2  C   UNL     1      81.054  86.657  88.256  1.00  0.00     0.100 C 
BRANCH   2   3
ATOM      3  C   UNL     1      81.499  87.472  89.402  1.00  0.00     0.220 C 
ATOM      4  N   UNL     1      82.569  88.303  89.268  1.00  0.00    -0.352 N 
ATOM      5  H   UNL     1      83.041  88.242  88.376  1.00  0.00     0.163 HD
ATOM      6  O   UNL     1      80.845  87.406  90.469  1.00  0.00    -0.275 OA
BRANCH   4   7
ATOM      7  C   UNL     1      83.042  89.213  90.259  1.00  0.00     0.151 C 
BRANCH   7   8
ATOM      8  C   UNL     1      83.033  90.624  89.793  1.00  0.00    -0.025 A 
ATOM      9  C   UNL     1      83.333  93.024  90.239  1.00  0.00     0.160 A 
ATOM     10  C   UNL     1      82.961  93.317  88.909  1.00  0.00     0.157 A 
ATOM     11  C   UNL     1      83.358  91.682  90.673  1.00  0.00     0.056 A 
ATOM     12  C   UNL     1      82.652  92.271  88.020  1.00  0.00     0.050 A 
ATOM     13  C   UNL     1      82.698  90.933  88.456  1.00  0.00     0.009 A 
BRANCH   9  14
ATOM     14  O   UNL     1      83.720  94.027  91.088  1.00  0.00    -0.493 OA
ATOM     15  C   UNL     1      84.883  93.718  91.873  1.00  0.00     0.278 C 
ENDBRANCH   9  14
BRANCH  10  16
ATOM     16  O   UNL     1      82.897  94.596  88.461  1.00  0.00    -0.504 OA
ATOM     17  H   UNL     1      82.261  95.087  88.986  1.00  0.00     0.293 HD
ENDBRANCH  10  16
ENDBRANCH   7   8
ENDBRANCH   4   7
ENDBRANCH   2   3
ENDBRANCH   1   2
BRANCH   1  18
ATOM     18  C   UNL     1      80.775  86.740  85.715  1.00  0.00     0.001 C 
BRANCH  18  19
ATOM     19  C   UNL     1      81.089  87.680  84.523  1.00  0.00     0.004 C 
BRANCH  19  20
ATOM     20  C   UNL     1      81.396  89.125  85.006  1.00  0.00     0.027 C 
BRANCH  20  21
ATOM     21  C   UNL     1      82.803  89.365  85.277  1.00  0.00    -0.031 C 
ATOM     22  C   UNL     1      83.497  90.340  84.663  1.00  0.00    -0.028 C 
BRANCH  22  23
ATOM     23  C   UNL     1      84.910  90.610  84.917  1.00  0.00     0.005 C 
ATOM     24  C   UNL     1      85.116  92.105  85.277  1.00  0.00     0.012 C 
ATOM     25  C   UNL     1      85.449  89.658  86.020  1.00  0.00     0.012 C 
ENDBRANCH  22  23
ENDBRANCH  20  21
ENDBRANCH  19  20
ENDBRANCH  18  19
ENDBRANCH   1  18
TORSDOF 11
ENDMDL
MODEL 9
REMARK VINA RESULT:    -5.626     13.877     16.767
REMARK INTER + INTRA:          -9.947
REMARK INTER:                  -9.007
REMARK INTRA:                  -0.941
REMARK UNBOUND:                -0.868
REMARK SMILES COc1cc(CNC(=O)CCCCC/C=C/C(C)C)ccc1O
REMARK SMILES IDX 11 1 10 2 8 3 7 4 9 6 6 7 5 8 3 9 22 10 4 11 21 12 20 13
REMARK SMILES IDX 2 14 1 15 23 16 12 18 13 19 14 20 15 21 16 22 17 23 18 24
REMARK SMILES IDX 19 25
REMARK H PARENT 7 5 23 17
REMARK Flexibility Score: inf
ROOT
ATOM      1  C   UNL     1      82.479  92.550  88.416  1.00  0.00     0.010 C 
ENDROOT
BRANCH   1   2
ATOM      2  C   UNL     1      83.516  92.152  87.334  1.00  0.00     0.100 C 
BRANCH   2   3
ATOM      3  C   UNL     1      83.786  90.704  87.264  1.00  0.00     0.220 C 
ATOM      4  N   UNL     1      83.906  90.095  86.052  1.00  0.00    -0.352 N 
ATOM      5  H   UNL     1      83.723  90.694  85.259  1.00  0.00     0.163 HD
ATOM      6  O   UNL     1      83.938  90.074  88.337  1.00  0.00    -0.275 OA
BRANCH   4   7
ATOM      7  C   UNL     1      84.260  88.729  85.842  1.00  0.00     0.151 C 
BRANCH   7   8
ATOM      8  C   UNL     1      83.073  87.842  85.725  1.00  0.00    -0.025 A 
ATOM      9  C   UNL     1      80.738  87.477  85.046  1.00  0.00     0.160 A 
ATOM     10  C   UNL     1      80.796  86.161  85.554  1.00  0.00     0.157 A 
ATOM     11  C   UNL     1      81.872  88.309  85.143  1.00  0.00     0.056 A 
ATOM     12  C   UNL     1      81.991  85.680  86.120  1.00  0.00     0.050 A 
ATOM     13  C   UNL     1      83.125  86.511  86.195  1.00  0.00     0.009 A 
BRANCH   9  14
ATOM     14  O   UNL     1      79.608  87.926  84.414  1.00  0.00    -0.493 OA
ATOM     15  C   UNL     1      79.278  89.295  84.703  1.00  0.00     0.278 C 
ENDBRANCH   9  14
BRANCH  10  16
ATOM     16  O   UNL     1      79.719  85.338  85.506  1.00  0.00    -0.504 OA
ATOM     17  H   UNL     1      79.839  84.696  84.802  1.00  0.00     0.293 HD
ENDBRANCH  10  16
ENDBRANCH   7   8
ENDBRANCH   4   7
ENDBRANCH   2   3
ENDBRANCH   1   2
BRANCH   1  18
ATOM     18  C   UNL     1      82.594  94.053  88.775  1.00  0.00     0.001 C 
BRANCH  18  19
ATOM     19  C   UNL     1      83.816  94.756  88.132  1.00  0.00     0.004 C 
BRANCH  19  20
ATOM     20  C   UNL     1      83.377  95.931  87.214  1.00  0.00     0.027 C 
BRANCH  20  21
ATOM     21  C   UNL     1      81.978  96.297  87.363  1.00  0.00    -0.031 C 
ATOM     22  C   UNL     1      81.585  97.568  87.560  1.00  0.00    -0.028 C 
BRANCH  22  23
ATOM     23  C   UNL     1      80.188  97.969  87.708  1.00  0.00     0.005 C 
ATOM     24  C   UNL     1      79.437  97.808  86.360  1.00  0.00     0.012 C 
ATOM     25  C   UNL     1      79.518  97.166  88.856  1.00  0.00     0.012 C 
ENDBRANCH  22  23
ENDBRANCH  20  21
ENDBRANCH  19  20
ENDBRANCH  18  19
ENDBRANCH   1  18
TORSDOF 11
ENDMDL
