MODEL 1
REMARK VINA RESULT:    -7.114      0.000      0.000
REMARK INTER + INTRA:         -12.839
REMARK INTER:                 -12.521
REMARK INTRA:                  -0.318
REMARK UNBOUND:                -0.318
REMARK SMILES C=C(C)[C@]12C[C@@H](C)[C@@]34O[C@](Cc5ccccc5)(O[C@@H]1[C@@H]3C=C(COC(=O)Cc1ccc(O)c(OC)c1)C[C@]1(O)C(=O)C(C)=C[C@@H]41)O2
REMARK SMILES IDX 23 1 22 2 21 3 20 4 9 5 8 6 10 7 6 8 18 9 46 10 19 11 5 12
REMARK SMILES IDX 7 13 4 14 45 15 38 16 44 17 40 18 42 20 41 21 43 22 39 23
REMARK SMILES IDX 11 25 12 26 13 27 17 28 14 29 16 30 15 31 2 32 3 33 1 34
REMARK SMILES IDX 37 35 24 37 25 38 26 39 27 40 28 41 36 42 29 43 33 44 30 45
REMARK SMILES IDX 31 46 34 47 35 48 32 49
REMARK H PARENT 39 24 32 50
REMARK Flexibility Score: 90.00
ROOT
ATOM      1  C   UNL     1      97.999  82.929  86.973  1.00  0.00     0.264 C 
ENDROOT
BRANCH   1   2
ATOM      2  C   UNL     1      96.617  83.452  87.290  1.00  0.00    -0.033 C 
ATOM      3  C   UNL     1      95.586  82.587  87.364  1.00  0.00    -0.015 C 
BRANCH   3   4
ATOM      4  C   UNL     1      94.108  82.864  87.587  1.00  0.00     0.078 C 
ATOM      5  O   UNL     1      93.715  82.748  90.027  1.00  0.00    -0.319 OA
ATOM      6  C   UNL     1      93.682  83.654  88.881  1.00  0.00     0.095 C 
ATOM      7  C   UNL     1      93.169  81.436  89.792  1.00  0.00     0.289 C 
ATOM      8  C   UNL     1      92.199  84.168  88.662  1.00  0.00     0.023 C 
ATOM      9  O   UNL     1      93.839  80.783  88.716  1.00  0.00    -0.320 OA
ATOM     10  O   UNL     1      91.794  81.481  89.419  1.00  0.00    -0.313 OA
ATOM     11  C   UNL     1      93.320  81.531  87.605  1.00  0.00     0.170 C 
ATOM     12  C   UNL     1      91.370  83.169  87.797  1.00  0.00     0.049 C 
ATOM     13  C   UNL     1      91.421  84.503  89.944  1.00  0.00     0.011 C 
ATOM     14  C   UNL     1      91.834  81.726  87.998  1.00  0.00     0.122 C 
BRANCH   6  15
ATOM     15  C   UNL     1      94.727  84.754  89.225  1.00  0.00     0.086 C 
ATOM     16  C   UNL     1      95.287  85.557  88.032  1.00  0.00     0.140 CG0
ATOM     17  C   UNL     1      94.374  85.818  90.227  1.00  0.00    -0.010 C 
ATOM     18  C   UNL     1      95.494  86.931  88.632  1.00  0.00     0.190 C 
ATOM     19  G   UNL     1      96.582  84.955  87.489  1.00  0.00     0.000 G0
ATOM     20  C   UNL     1      94.815  87.046  89.937  1.00  0.00    -0.008 C 
ATOM     21  O   UNL     1      96.096  87.853  88.102  1.00  0.00    -0.291 OA
ATOM     22  C   UNL     1      94.728  88.297  90.718  1.00  0.00     0.048 C 
BRANCH  16  23
ATOM     23  O   UNL     1      94.345  85.778  86.996  1.00  0.00    -0.381 OA
ATOM     24  H   UNL     1      93.630  85.127  87.087  1.00  0.00     0.212 HD
ENDBRANCH  16  23
ENDBRANCH   6  15
BRANCH   7  25
ATOM     25  C   UNL     1      93.324  80.623  91.061  1.00  0.00     0.135 C 
BRANCH  25  26
ATOM     26  C   UNL     1      92.014  80.030  91.515  1.00  0.00    -0.040 A 
ATOM     27  C   UNL     1      91.222  80.714  92.438  1.00  0.00     0.004 A 
ATOM     28  C   UNL     1      91.593  78.799  91.012  1.00  0.00     0.004 A 
ATOM     29  C   UNL     1      90.009  80.166  92.859  1.00  0.00     0.000 A 
ATOM     30  C   UNL     1      90.380  78.251  91.433  1.00  0.00     0.000 A 
ATOM     31  C   UNL     1      89.589  78.935  92.356  1.00  0.00     0.000 A 
ENDBRANCH  25  26
ENDBRANCH   7  25
BRANCH  14  32
ATOM     32  C   UNL     1      90.941  80.736  87.325  1.00  0.00    -0.046 C 
ATOM     33  C   UNL     1      91.340  79.295  87.444  1.00  0.00     0.042 C 
ATOM     34  C   UNL     1      89.844  81.114  86.651  1.00  0.00     0.010 C 
ENDBRANCH  14  32
ENDBRANCH   3   4
BRANCH   2  35
ATOM     35  C   UNL     1      96.583  84.954  87.498  1.00  0.00     0.078 CG0
ATOM     36  G   UNL     1      95.282  85.557  88.027  1.00  0.00     0.000 G0
ENDBRANCH   2  35
ENDBRANCH   1   2
BRANCH   1  37
ATOM     37  O   UNL     1      98.561  83.696  85.930  1.00  0.00    -0.461 OA
BRANCH  37  38
ATOM     38  C   UNL     1      97.850  83.737  84.754  1.00  0.00     0.310 C 
ATOM     39  O   UNL     1      97.307  84.732  84.294  1.00  0.00    -0.252 OA
BRANCH  38  40
ATOM     40  C   UNL     1      97.843  82.365  84.121  1.00  0.00     0.158 C 
BRANCH  40  41
ATOM     41  C   UNL     1      98.667  82.294  82.861  1.00  0.00    -0.033 A 
ATOM     42  C   UNL     1      98.239  82.957  81.710  1.00  0.00     0.054 A 
ATOM     43  C   UNL     1      99.857  81.568  82.846  1.00  0.00     0.008 A 
ATOM     44  C   UNL     1      99.002  82.892  80.544  1.00  0.00     0.160 A 
ATOM     45  C   UNL     1     100.620  81.503  81.680  1.00  0.00     0.050 A 
ATOM     46  C   UNL     1     100.193  82.164  80.529  1.00  0.00     0.157 A 
BRANCH  44  47
ATOM     47  O   UNL     1      98.574  83.542  79.426  1.00  0.00    -0.493 OA
ATOM     48  C   UNL     1      97.164  83.678  79.255  1.00  0.00     0.278 C 
ENDBRANCH  44  47
BRANCH  46  49
ATOM     49  O   UNL     1     100.946  82.094  79.396  1.00  0.00    -0.504 OA
ATOM     50  H   UNL     1     100.717  82.841  78.817  1.00  0.00     0.293 HD
ENDBRANCH  46  49
ENDBRANCH  40  41
ENDBRANCH  38  40
ENDBRANCH  37  38
ENDBRANCH   1  37
TORSDOF 11
ENDMDL
MODEL 2
REMARK VINA RESULT:    -6.503      6.162     14.802
REMARK INTER + INTRA:         -11.763
REMARK INTER:                 -10.562
REMARK INTRA:                  -1.201
REMARK UNBOUND:                -0.318
REMARK SMILES C=C(C)[C@]12C[C@@H](C)[C@@]34O[C@](Cc5ccccc5)(O[C@@H]1[C@@H]3C=C(COC(=O)Cc1ccc(O)c(OC)c1)C[C@]1(O)C(=O)C(C)=C[C@@H]41)O2
REMARK SMILES IDX 23 1 22 2 21 3 20 4 9 5 8 6 10 7 6 8 18 9 46 10 19 11 5 12
REMARK SMILES IDX 7 13 4 14 45 15 38 16 44 17 40 18 42 20 41 21 43 22 39 23
REMARK SMILES IDX 11 25 12 26 13 27 17 28 14 29 16 30 15 31 2 32 3 33 1 34
REMARK SMILES IDX 37 35 24 37 25 38 26 39 27 40 28 41 36 42 29 43 33 44 30 45
REMARK SMILES IDX 31 46 34 47 35 48 32 49
REMARK H PARENT 39 24 32 50
REMARK Flexibility Score: 90.00
ROOT
ATOM      1  C   UNL     1      98.344  80.726  78.350  1.00  0.00     0.264 C 
ENDROOT
BRANCH   1   2
ATOM      2  C   UNL     1      99.072  80.606  77.031  1.00  0.00    -0.033 C 
ATOM      3  C   UNL     1      99.905  81.594  76.646  1.00  0.00    -0.015 C 
BRANCH   3   4
ATOM      4  C   UNL     1     100.684  81.748  75.350  1.00  0.00     0.078 C 
ATOM      5  O   UNL     1     102.922  80.765  75.734  1.00  0.00    -0.319 OA
ATOM      6  C   UNL     1     101.699  80.614  74.947  1.00  0.00     0.095 C 
ATOM      7  C   UNL     1     103.398  82.116  75.881  1.00  0.00     0.289 C 
ATOM      8  C   UNL     1     102.040  80.799  73.411  1.00  0.00     0.023 C 
ATOM      9  O   UNL     1     102.407  82.952  76.473  1.00  0.00    -0.320 OA
ATOM     10  O   UNL     1     103.711  82.718  74.628  1.00  0.00    -0.313 OA
ATOM     11  C   UNL     1     101.489  83.071  75.375  1.00  0.00     0.170 C 
ATOM     12  C   UNL     1     102.027  82.303  72.999  1.00  0.00     0.049 C 
ATOM     13  C   UNL     1     103.354  80.152  72.944  1.00  0.00     0.011 C 
ATOM     14  C   UNL     1     102.439  83.211  74.159  1.00  0.00     0.122 C 
BRANCH   6  15
ATOM     15  C   UNL     1     101.150  79.214  75.347  1.00  0.00     0.086 C 
ATOM     16  C   UNL     1      99.657  78.961  75.053  1.00  0.00     0.140 CG0
ATOM     17  C   UNL     1     101.825  77.980  74.819  1.00  0.00    -0.010 C 
ATOM     18  C   UNL     1      99.638  77.487  74.708  1.00  0.00     0.190 C 
ATOM     19  G   UNL     1      98.768  79.292  76.252  1.00  0.00     0.000 G0
ATOM     20  C   UNL     1     101.005  76.981  74.477  1.00  0.00    -0.008 C 
ATOM     21  O   UNL     1      98.635  76.802  74.581  1.00  0.00    -0.291 OA
ATOM     22  C   UNL     1     101.313  75.615  74.007  1.00  0.00     0.048 C 
BRANCH  16  23
ATOM     23  O   UNL     1      99.189  79.591  73.872  1.00  0.00    -0.381 OA
ATOM     24  H   UNL     1      98.228  79.462  73.815  1.00  0.00     0.212 HD
ENDBRANCH  16  23
ENDBRANCH   6  15
BRANCH   7  25
ATOM     25  C   UNL     1     104.636  82.092  76.754  1.00  0.00     0.135 C 
BRANCH  25  26
ATOM     26  C   UNL     1     104.436  81.257  77.995  1.00  0.00    -0.040 A 
ATOM     27  C   UNL     1     103.565  81.692  78.994  1.00  0.00     0.004 A 
ATOM     28  C   UNL     1     105.121  80.051  78.142  1.00  0.00     0.004 A 
ATOM     29  C   UNL     1     103.380  80.920  80.142  1.00  0.00     0.000 A 
ATOM     30  C   UNL     1     104.935  79.280  79.290  1.00  0.00     0.000 A 
ATOM     31  C   UNL     1     104.065  79.715  80.289  1.00  0.00     0.000 A 
ENDBRANCH  25  26
ENDBRANCH   7  25
BRANCH  14  32
ATOM     32  C   UNL     1     102.610  84.635  73.741  1.00  0.00    -0.046 C 
ATOM     33  C   UNL     1     103.986  85.033  73.296  1.00  0.00     0.042 C 
ATOM     34  C   UNL     1     101.592  85.507  73.762  1.00  0.00     0.010 C 
ENDBRANCH  14  32
ENDBRANCH   3   4
BRANCH   2  35
ATOM     35  C   UNL     1      98.754  79.321  76.290  1.00  0.00     0.078 CG0
ATOM     36  G   UNL     1      99.633  78.970  75.091  1.00  0.00     0.000 G0
ENDBRANCH   2  35
ENDBRANCH   1   2
BRANCH   1  37
ATOM     37  O   UNL     1      99.064  81.589  79.204  1.00  0.00    -0.461 OA
BRANCH  37  38
ATOM     38  C   UNL     1      98.354  82.632  79.753  1.00  0.00     0.310 C 
ATOM     39  O   UNL     1      97.278  83.043  79.341  1.00  0.00    -0.252 OA
BRANCH  38  40
ATOM     40  C   UNL     1      99.108  83.186  80.938  1.00  0.00     0.158 C 
BRANCH  40  41
ATOM     41  C   UNL     1      98.568  82.700  82.259  1.00  0.00    -0.033 A 
ATOM     42  C   UNL     1      97.840  83.566  83.076  1.00  0.00     0.054 A 
ATOM     43  C   UNL     1      98.796  81.385  82.663  1.00  0.00     0.008 A 
ATOM     44  C   UNL     1      97.341  83.115  84.298  1.00  0.00     0.160 A 
ATOM     45  C   UNL     1      98.296  80.935  83.885  1.00  0.00     0.050 A 
ATOM     46  C   UNL     1      97.569  81.799  84.703  1.00  0.00     0.157 A 
BRANCH  44  47
ATOM     47  O   UNL     1      96.632  83.970  85.087  1.00  0.00    -0.493 OA
ATOM     48  C   UNL     1      97.374  84.948  85.813  1.00  0.00     0.278 C 
ENDBRANCH  44  47
BRANCH  46  49
ATOM     49  O   UNL     1      97.085  81.348  85.893  1.00  0.00    -0.504 OA
ATOM     50  H   UNL     1      96.711  80.460  85.767  1.00  0.00     0.293 HD
ENDBRANCH  46  49
ENDBRANCH  40  41
ENDBRANCH  38  40
ENDBRANCH  37  38
ENDBRANCH   1  37
TORSDOF 11
ENDMDL
MODEL 3
REMARK VINA RESULT:    -6.351      1.513      2.365
REMARK INTER + INTRA:         -11.496
REMARK INTER:                 -10.296
REMARK INTRA:                  -1.199
REMARK UNBOUND:                -0.318
REMARK SMILES C=C(C)[C@]12C[C@@H](C)[C@@]34O[C@](Cc5ccccc5)(O[C@@H]1[C@@H]3C=C(COC(=O)Cc1ccc(O)c(OC)c1)C[C@]1(O)C(=O)C(C)=C[C@@H]41)O2
REMARK SMILES IDX 23 1 22 2 21 3 20 4 9 5 8 6 10 7 6 8 18 9 46 10 19 11 5 12
REMARK SMILES IDX 7 13 4 14 45 15 38 16 44 17 40 18 42 20 41 21 43 22 39 23
REMARK SMILES IDX 11 25 12 26 13 27 17 28 14 29 16 30 15 31 2 32 3 33 1 34
REMARK SMILES IDX 37 35 24 37 25 38 26 39 27 40 28 41 36 42 29 43 33 44 30 45
REMARK SMILES IDX 31 46 34 47 35 48 32 49
REMARK H PARENT 39 24 32 50
REMARK Flexibility Score: 90.00
ROOT
ATOM      1  C   UNL     1      98.365  81.004  86.380  1.00  0.00     0.264 C 
ENDROOT
BRANCH   1   2
ATOM      2  C   UNL     1      97.075  81.781  86.499  1.00  0.00    -0.033 C 
ATOM      3  C   UNL     1      95.937  81.128  86.808  1.00  0.00    -0.015 C 
BRANCH   3   4
ATOM      4  C   UNL     1      94.517  81.659  86.910  1.00  0.00     0.078 C 
ATOM      5  O   UNL     1      94.162  82.319  89.268  1.00  0.00    -0.319 OA
ATOM      6  C   UNL     1      94.230  82.844  87.906  1.00  0.00     0.095 C 
ATOM      7  C   UNL     1      93.437  81.084  89.417  1.00  0.00     0.289 C 
ATOM      8  C   UNL     1      92.828  83.470  87.516  1.00  0.00     0.023 C 
ATOM      9  O   UNL     1      93.987  80.058  88.594  1.00  0.00    -0.320 OA
ATOM     10  O   UNL     1      92.074  81.205  89.019  1.00  0.00    -0.313 OA
ATOM     11  C   UNL     1      93.553  80.511  87.302  1.00  0.00     0.170 C 
ATOM     12  C   UNL     1      91.851  82.386  86.965  1.00  0.00     0.049 C 
ATOM     13  C   UNL     1      92.130  84.270  88.627  1.00  0.00     0.011 C 
ATOM     14  C   UNL     1      92.117  81.016  87.590  1.00  0.00     0.122 C 
BRANCH   6  15
ATOM     15  C   UNL     1      95.424  83.842  87.934  1.00  0.00     0.086 C 
ATOM     16  C   UNL     1      96.053  84.188  86.568  1.00  0.00     0.140 CG0
ATOM     17  C   UNL     1      95.247  85.184  88.587  1.00  0.00    -0.010 C 
ATOM     18  C   UNL     1      96.461  85.634  86.754  1.00  0.00     0.190 C 
ATOM     19  G   UNL     1      97.239  83.284  86.234  1.00  0.00     0.000 G0
ATOM     20  C   UNL     1      95.840  86.207  87.963  1.00  0.00    -0.008 C 
ATOM     21  O   UNL     1      97.166  86.275  85.989  1.00  0.00    -0.291 OA
ATOM     22  C   UNL     1      95.946  87.628  88.354  1.00  0.00     0.048 C 
BRANCH  16  23
ATOM     23  O   UNL     1      95.120  84.233  85.501  1.00  0.00    -0.381 OA
ATOM     24  H   UNL     1      95.261  85.056  85.005  1.00  0.00     0.212 HD
ENDBRANCH  16  23
ENDBRANCH   6  15
BRANCH   7  25
ATOM     25  C   UNL     1      93.505  80.664  90.871  1.00  0.00     0.135 C 
BRANCH  25  26
ATOM     26  C   UNL     1      92.264  81.061  91.632  1.00  0.00    -0.040 A 
ATOM     27  C   UNL     1      91.293  80.105  91.930  1.00  0.00     0.004 A 
ATOM     28  C   UNL     1      92.088  82.383  92.039  1.00  0.00     0.004 A 
ATOM     29  C   UNL     1      90.146  80.471  92.635  1.00  0.00     0.000 A 
ATOM     30  C   UNL     1      90.941  82.750  92.743  1.00  0.00     0.000 A 
ATOM     31  C   UNL     1      89.970  81.794  93.040  1.00  0.00     0.000 A 
ENDBRANCH  25  26
ENDBRANCH   7  25
BRANCH  14  32
ATOM     32  C   UNL     1      91.082  80.004  87.218  1.00  0.00    -0.046 C 
ATOM     33  C   UNL     1      91.029  79.612  85.771  1.00  0.00     0.042 C 
ATOM     34  C   UNL     1      90.247  79.477  88.126  1.00  0.00     0.010 C 
ENDBRANCH  14  32
ENDBRANCH   3   4
BRANCH   2  35
ATOM     35  C   UNL     1      97.251  83.267  86.249  1.00  0.00     0.078 CG0
ATOM     36  G   UNL     1      96.064  84.175  86.566  1.00  0.00     0.000 G0
ENDBRANCH   2  35
ENDBRANCH   1   2
BRANCH   1  37
ATOM     37  O   UNL     1      98.504  80.529  85.058  1.00  0.00    -0.461 OA
BRANCH  37  38
ATOM     38  C   UNL     1      99.790  80.419  84.583  1.00  0.00     0.310 C 
ATOM     39  O   UNL     1     100.427  79.377  84.515  1.00  0.00    -0.252 OA
BRANCH  38  40
ATOM     40  C   UNL     1     100.290  81.780  84.160  1.00  0.00     0.158 C 
BRANCH  40  41
ATOM     41  C   UNL     1      99.670  82.261  82.873  1.00  0.00    -0.033 A 
ATOM     42  C   UNL     1     100.375  82.143  81.674  1.00  0.00     0.054 A 
ATOM     43  C   UNL     1      98.394  82.822  82.880  1.00  0.00     0.008 A 
ATOM     44  C   UNL     1      99.801  82.588  80.483  1.00  0.00     0.160 A 
ATOM     45  C   UNL     1      97.821  83.267  81.689  1.00  0.00     0.050 A 
ATOM     46  C   UNL     1      98.524  83.150  80.490  1.00  0.00     0.157 A 
BRANCH  44  47
ATOM     47  O   UNL     1     100.498  82.468  79.319  1.00  0.00    -0.493 OA
ATOM     48  C   UNL     1     100.537  81.175  78.716  1.00  0.00     0.278 C 
ENDBRANCH  44  47
BRANCH  46  49
ATOM     49  O   UNL     1      97.954  83.587  79.333  1.00  0.00    -0.504 OA
ATOM     50  H   UNL     1      98.417  84.387  79.034  1.00  0.00     0.293 HD
ENDBRANCH  46  49
ENDBRANCH  40  41
ENDBRANCH  38  40
ENDBRANCH  37  38
ENDBRANCH   1  37
TORSDOF 11
ENDMDL
MODEL 4
REMARK VINA RESULT:    -6.225      6.080     13.228
REMARK INTER + INTRA:         -11.274
REMARK INTER:                 -10.151
REMARK INTRA:                  -1.122
REMARK UNBOUND:                -0.318
REMARK SMILES C=C(C)[C@]12C[C@@H](C)[C@@]34O[C@](Cc5ccccc5)(O[C@@H]1[C@@H]3C=C(COC(=O)Cc1ccc(O)c(OC)c1)C[C@]1(O)C(=O)C(C)=C[C@@H]41)O2
REMARK SMILES IDX 23 1 22 2 21 3 20 4 9 5 8 6 10 7 6 8 18 9 46 10 19 11 5 12
REMARK SMILES IDX 7 13 4 14 45 15 38 16 44 17 40 18 42 20 41 21 43 22 39 23
REMARK SMILES IDX 11 25 12 26 13 27 17 28 14 29 16 30 15 31 2 32 3 33 1 34
REMARK SMILES IDX 37 35 24 37 25 38 26 39 27 40 28 41 36 42 29 43 33 44 30 45
REMARK SMILES IDX 31 46 34 47 35 48 32 49
REMARK H PARENT 39 24 32 50
REMARK Flexibility Score: 90.00
ROOT
ATOM      1  C   UNL     1      99.315  78.483  82.006  1.00  0.00     0.264 C 
ENDROOT
BRANCH   1   2
ATOM      2  C   UNL     1      99.951  79.554  81.150  1.00  0.00    -0.033 C 
ATOM      3  C   UNL     1     101.061  79.260  80.444  1.00  0.00    -0.015 C 
BRANCH   3   4
ATOM      4  C   UNL     1     101.924  80.166  79.581  1.00  0.00     0.078 C 
ATOM      5  O   UNL     1     101.070  79.984  77.266  1.00  0.00    -0.319 OA
ATOM      6  C   UNL     1     101.247  80.919  78.375  1.00  0.00     0.095 C 
ATOM      7  C   UNL     1     102.186  79.110  77.013  1.00  0.00     0.289 C 
ATOM      8  C   UNL     1     102.223  82.084  77.927  1.00  0.00     0.023 C 
ATOM      9  O   UNL     1     102.514  78.341  78.168  1.00  0.00    -0.320 OA
ATOM     10  O   UNL     1     103.371  79.829  76.680  1.00  0.00    -0.313 OA
ATOM     11  C   UNL     1     103.106  79.360  78.989  1.00  0.00     0.170 C 
ATOM     12  C   UNL     1     103.717  81.685  78.127  1.00  0.00     0.049 C 
ATOM     13  C   UNL     1     102.019  82.601  76.494  1.00  0.00     0.011 C 
ATOM     14  C   UNL     1     103.928  80.180  77.963  1.00  0.00     0.122 C 
BRANCH   6  15
ATOM     15  C   UNL     1      99.801  81.362  78.744  1.00  0.00     0.086 C 
ATOM     16  C   UNL     1      99.612  81.962  80.152  1.00  0.00     0.140 CG0
ATOM     17  C   UNL     1      99.078  82.331  77.851  1.00  0.00    -0.010 C 
ATOM     18  C   UNL     1      98.533  82.999  79.923  1.00  0.00     0.190 C 
ATOM     19  G   UNL     1      99.202  80.908  81.179  1.00  0.00     0.000 G0
ATOM     20  C   UNL     1      98.335  83.246  78.482  1.00  0.00    -0.008 C 
ATOM     21  O   UNL     1      97.931  83.601  80.799  1.00  0.00    -0.291 OA
ATOM     22  C   UNL     1      97.439  84.286  77.936  1.00  0.00     0.048 C 
BRANCH  16  23
ATOM     23  O   UNL     1     100.720  82.722  80.606  1.00  0.00    -0.381 OA
ATOM     24  H   UNL     1     101.518  82.400  80.155  1.00  0.00     0.212 HD
ENDBRANCH  16  23
ENDBRANCH   6  15
BRANCH   7  25
ATOM     25  C   UNL     1     101.817  78.186  75.870  1.00  0.00     0.135 C 
BRANCH  25  26
ATOM     26  C   UNL     1     101.674  78.929  74.565  1.00  0.00    -0.040 A 
ATOM     27  C   UNL     1     100.461  79.536  74.238  1.00  0.00     0.004 A 
ATOM     28  C   UNL     1     102.754  79.011  73.687  1.00  0.00     0.004 A 
ATOM     29  C   UNL     1     100.329  80.224  73.032  1.00  0.00     0.000 A 
ATOM     30  C   UNL     1     102.621  79.699  72.480  1.00  0.00     0.000 A 
ATOM     31  C   UNL     1     101.408  80.305  72.153  1.00  0.00     0.000 A 
ENDBRANCH  25  26
ENDBRANCH   7  25
BRANCH  14  32
ATOM     32  C   UNL     1     105.373  79.798  77.969  1.00  0.00    -0.046 C 
ATOM     33  C   UNL     1     106.333  80.831  77.458  1.00  0.00     0.042 C 
ATOM     34  C   UNL     1     105.788  78.600  78.407  1.00  0.00     0.010 C 
ENDBRANCH  14  32
ENDBRANCH   3   4
BRANCH   2  35
ATOM     35  C   UNL     1      99.210  80.876  81.203  1.00  0.00     0.078 CG0
ATOM     36  G   UNL     1      99.599  81.937  80.174  1.00  0.00     0.000 G0
ENDBRANCH   2  35
ENDBRANCH   1   2
BRANCH   1  37
ATOM     37  O   UNL     1      98.576  79.092  83.043  1.00  0.00    -0.461 OA
BRANCH  37  38
ATOM     38  C   UNL     1      99.138  79.045  84.298  1.00  0.00     0.310 C 
ATOM     39  O   UNL     1     100.247  78.599  84.555  1.00  0.00    -0.252 OA
BRANCH  38  40
ATOM     40  C   UNL     1      98.173  79.627  85.304  1.00  0.00     0.158 C 
BRANCH  40  41
ATOM     41  C   UNL     1      98.178  81.134  85.319  1.00  0.00    -0.033 A 
ATOM     42  C   UNL     1      98.920  81.819  86.283  1.00  0.00     0.054 A 
ATOM     43  C   UNL     1      97.443  81.844  84.370  1.00  0.00     0.008 A 
ATOM     44  C   UNL     1      98.924  83.214  86.297  1.00  0.00     0.160 A 
ATOM     45  C   UNL     1      97.447  83.239  84.385  1.00  0.00     0.050 A 
ATOM     46  C   UNL     1      98.188  83.924  85.347  1.00  0.00     0.157 A 
BRANCH  44  47
ATOM     47  O   UNL     1      99.651  83.872  87.242  1.00  0.00    -0.493 OA
ATOM     48  C   UNL     1     100.844  83.237  87.701  1.00  0.00     0.278 C 
ENDBRANCH  44  47
BRANCH  46  49
ATOM     49  O   UNL     1      98.186  85.286  85.351  1.00  0.00    -0.504 OA
ATOM     50  H   UNL     1      97.427  85.601  85.871  1.00  0.00     0.293 HD
ENDBRANCH  46  49
ENDBRANCH  40  41
ENDBRANCH  38  40
ENDBRANCH  37  38
ENDBRANCH   1  37
TORSDOF 11
ENDMDL
MODEL 5
REMARK VINA RESULT:    -6.048      3.705      8.857
REMARK INTER + INTRA:         -10.962
REMARK INTER:                  -8.968
REMARK INTRA:                  -1.994
REMARK UNBOUND:                -0.318
REMARK SMILES C=C(C)[C@]12C[C@@H](C)[C@@]34O[C@](Cc5ccccc5)(O[C@@H]1[C@@H]3C=C(COC(=O)Cc1ccc(O)c(OC)c1)C[C@]1(O)C(=O)C(C)=C[C@@H]41)O2
REMARK SMILES IDX 23 1 22 2 21 3 20 4 9 5 8 6 10 7 6 8 18 9 46 10 19 11 5 12
REMARK SMILES IDX 7 13 4 14 45 15 38 16 44 17 40 18 42 20 41 21 43 22 39 23
REMARK SMILES IDX 11 25 12 26 13 27 17 28 14 29 16 30 15 31 2 32 3 33 1 34
REMARK SMILES IDX 37 35 24 37 25 38 26 39 27 40 28 41 36 42 29 43 33 44 30 45
REMARK SMILES IDX 31 46 34 47 35 48 32 49
REMARK H PARENT 39 24 32 50
REMARK Flexibility Score: 90.00
ROOT
ATOM      1  C   UNL     1      95.788  82.442  91.470  1.00  0.00     0.264 C 
ENDROOT
BRANCH   1   2
ATOM      2  C   UNL     1      96.125  81.768  90.160  1.00  0.00    -0.033 C 
ATOM      3  C   UNL     1      96.527  82.520  89.116  1.00  0.00    -0.015 C 
BRANCH   3   4
ATOM      4  C   UNL     1      96.846  82.100  87.691  1.00  0.00     0.078 C 
ATOM      5  O   UNL     1      99.272  81.621  87.606  1.00  0.00    -0.319 OA
ATOM      6  C   UNL     1      97.954  81.005  87.463  1.00  0.00     0.095 C 
ATOM      7  C   UNL     1      99.419  82.912  86.985  1.00  0.00     0.289 C 
ATOM      8  C   UNL     1      97.791  80.457  85.985  1.00  0.00     0.023 C 
ATOM      9  O   UNL     1      98.460  83.840  87.487  1.00  0.00    -0.320 OA
ATOM     10  O   UNL     1      99.207  82.863  85.577  1.00  0.00    -0.313 OA
ATOM     11  C   UNL     1      97.271  83.336  86.860  1.00  0.00     0.170 C 
ATOM     12  C   UNL     1      97.289  81.571  85.015  1.00  0.00     0.049 C 
ATOM     13  C   UNL     1      99.037  79.783  85.389  1.00  0.00     0.011 C 
ATOM     14  C   UNL     1      97.773  82.956  85.445  1.00  0.00     0.122 C 
BRANCH   6  15
ATOM     15  C   UNL     1      97.905  79.928  88.585  1.00  0.00     0.086 C 
ATOM     16  C   UNL     1      96.501  79.447  89.005  1.00  0.00     0.140 CG0
ATOM     17  C   UNL     1      98.675  78.649  88.412  1.00  0.00    -0.010 C 
ATOM     18  C   UNL     1      96.742  77.991  89.342  1.00  0.00     0.190 C 
ATOM     19  G   UNL     1      95.950  80.239  90.190  1.00  0.00     0.000 G0
ATOM     20  C   UNL     1      98.060  77.546  88.853  1.00  0.00    -0.008 C 
ATOM     21  O   UNL     1      95.944  77.252  89.898  1.00  0.00    -0.291 OA
ATOM     22  C   UNL     1      98.541  76.151  88.920  1.00  0.00     0.048 C 
BRANCH  16  23
ATOM     23  O   UNL     1      95.568  79.398  87.937  1.00  0.00    -0.381 OA
ATOM     24  H   UNL     1      94.880  78.749  88.161  1.00  0.00     0.212 HD
ENDBRANCH  16  23
ENDBRANCH   6  15
BRANCH   7  25
ATOM     25  C   UNL     1     100.819  83.419  87.268  1.00  0.00     0.135 C 
BRANCH  25  26
ATOM     26  C   UNL     1     101.411  82.784  88.502  1.00  0.00    -0.040 A 
ATOM     27  C   UNL     1     102.371  81.779  88.375  1.00  0.00     0.004 A 
ATOM     28  C   UNL     1     101.001  83.201  89.767  1.00  0.00     0.004 A 
ATOM     29  C   UNL     1     102.920  81.191  89.516  1.00  0.00     0.000 A 
ATOM     30  C   UNL     1     101.550  82.613  90.908  1.00  0.00     0.000 A 
ATOM     31  C   UNL     1     102.509  81.608  90.781  1.00  0.00     0.000 A 
ENDBRANCH  25  26
ENDBRANCH   7  25
BRANCH  14  32
ATOM     32  C   UNL     1      97.461  84.013  84.436  1.00  0.00    -0.046 C 
ATOM     33  C   UNL     1      97.796  83.687  83.011  1.00  0.00     0.042 C 
ATOM     34  C   UNL     1      96.912  85.186  84.784  1.00  0.00     0.010 C 
ENDBRANCH  14  32
ENDBRANCH   3   4
BRANCH   2  35
ATOM     35  C   UNL     1      95.963  80.260  90.208  1.00  0.00     0.078 CG0
ATOM     36  G   UNL     1      96.503  79.461  89.023  1.00  0.00     0.000 G0
ENDBRANCH   2  35
ENDBRANCH   1   2
BRANCH   1  37
ATOM     37  O   UNL     1      95.560  83.816  91.243  1.00  0.00    -0.461 OA
BRANCH  37  38
ATOM     38  C   UNL     1      94.317  84.292  91.591  1.00  0.00     0.310 C 
ATOM     39  O   UNL     1      93.830  84.232  92.711  1.00  0.00    -0.252 OA
BRANCH  38  40
ATOM     40  C   UNL     1      93.652  84.897  90.378  1.00  0.00     0.158 C 
BRANCH  40  41
ATOM     41  C   UNL     1      94.456  86.013  89.761  1.00  0.00    -0.033 A 
ATOM     42  C   UNL     1      94.556  87.243  90.412  1.00  0.00     0.054 A 
ATOM     43  C   UNL     1      95.100  85.816  88.540  1.00  0.00     0.008 A 
ATOM     44  C   UNL     1      95.300  88.276  89.841  1.00  0.00     0.160 A 
ATOM     45  C   UNL     1      95.844  86.849  87.969  1.00  0.00     0.050 A 
ATOM     46  C   UNL     1      95.944  88.078  88.619  1.00  0.00     0.157 A 
BRANCH  44  47
ATOM     47  O   UNL     1      95.390  89.472  90.486  1.00  0.00    -0.493 OA
ATOM     48  C   UNL     1      94.166  90.089  90.882  1.00  0.00     0.278 C 
ENDBRANCH  44  47
BRANCH  46  49
ATOM     49  O   UNL     1      96.674  89.079  88.053  1.00  0.00    -0.504 OA
ATOM     50  H   UNL     1      96.375  89.931  88.411  1.00  0.00     0.293 HD
ENDBRANCH  46  49
ENDBRANCH  40  41
ENDBRANCH  38  40
ENDBRANCH  37  38
ENDBRANCH   1  37
TORSDOF 11
ENDMDL
MODEL 6
REMARK VINA RESULT:    -5.908     25.752     30.184
REMARK INTER + INTRA:         -10.715
REMARK INTER:                  -8.925
REMARK INTRA:                  -1.791
REMARK UNBOUND:                -0.318
REMARK SMILES C=C(C)[C@]12C[C@@H](C)[C@@]34O[C@](Cc5ccccc5)(O[C@@H]1[C@@H]3C=C(COC(=O)Cc1ccc(O)c(OC)c1)C[C@]1(O)C(=O)C(C)=C[C@@H]41)O2
REMARK SMILES IDX 23 1 22 2 21 3 20 4 9 5 8 6 10 7 6 8 18 9 46 10 19 11 5 12
REMARK SMILES IDX 7 13 4 14 45 15 38 16 44 17 40 18 42 20 41 21 43 22 39 23
REMARK SMILES IDX 11 25 12 26 13 27 17 28 14 29 16 30 15 31 2 32 3 33 1 34
REMARK SMILES IDX 37 35 24 37 25 38 26 39 27 40 28 41 36 42 29 43 33 44 30 45
REMARK SMILES IDX 31 46 34 47 35 48 32 49
REMARK H PARENT 39 24 32 50
REMARK Flexibility Score: 90.00
ROOT
ATOM      1  C   UNL     1      66.152  87.394  85.593  1.00  0.00     0.264 C 
ENDROOT
BRANCH   1   2
ATOM      2  C   UNL     1      65.500  86.639  84.458  1.00  0.00    -0.033 C 
ATOM      3  C   UNL     1      65.081  87.317  83.371  1.00  0.00    -0.015 C 
BRANCH   3   4
ATOM      4  C   UNL     1      64.336  86.811  82.146  1.00  0.00     0.078 C 
ATOM      5  O   UNL     1      66.044  86.233  80.453  1.00  0.00    -0.319 OA
ATOM      6  C   UNL     1      64.993  85.663  81.292  1.00  0.00     0.095 C 
ATOM      7  C   UNL     1      65.716  87.483  79.817  1.00  0.00     0.289 C 
ATOM      8  C   UNL     1      63.863  85.045  80.369  1.00  0.00     0.023 C 
ATOM      9  O   UNL     1      65.357  88.473  80.778  1.00  0.00    -0.320 OA
ATOM     10  O   UNL     1      64.595  87.369  78.945  1.00  0.00    -0.313 OA
ATOM     11  C   UNL     1      64.065  87.984  81.173  1.00  0.00     0.170 C 
ATOM     12  C   UNL     1      62.825  86.126  79.937  1.00  0.00     0.049 C 
ATOM     13  C   UNL     1      64.365  84.293  79.126  1.00  0.00     0.011 C 
ATOM     14  C   UNL     1      63.462  87.511  79.827  1.00  0.00     0.122 C 
BRANCH   6  15
ATOM     15  C   UNL     1      65.736  84.649  82.209  1.00  0.00     0.086 C 
ATOM     16  C   UNL     1      65.003  84.240  83.504  1.00  0.00     0.140 CG0
ATOM     17  C   UNL     1      66.194  83.336  81.637  1.00  0.00    -0.010 C 
ATOM     18  C   UNL     1      65.425  82.796  83.675  1.00  0.00     0.190 C 
ATOM     19  G   UNL     1      65.403  85.111  84.693  1.00  0.00     0.000 G0
ATOM     20  C   UNL     1      66.058  82.281  82.446  1.00  0.00    -0.008 C 
ATOM     21  O   UNL     1      65.231  82.115  84.671  1.00  0.00    -0.291 OA
ATOM     22  C   UNL     1      66.470  80.875  82.254  1.00  0.00     0.048 C 
BRANCH  16  23
ATOM     23  O   UNL     1      63.594  84.166  83.367  1.00  0.00    -0.381 OA
ATOM     24  H   UNL     1      63.373  84.234  82.423  1.00  0.00     0.212 HD
ENDBRANCH  16  23
ENDBRANCH   6  15
BRANCH   7  25
ATOM     25  C   UNL     1      66.924  87.949  79.030  1.00  0.00     0.135 C 
BRANCH  25  26
ATOM     26  C   UNL     1      67.004  87.290  77.676  1.00  0.00    -0.040 A 
ATOM     27  C   UNL     1      67.493  85.988  77.562  1.00  0.00     0.004 A 
ATOM     28  C   UNL     1      66.589  87.980  76.538  1.00  0.00     0.004 A 
ATOM     29  C   UNL     1      67.567  85.377  76.309  1.00  0.00     0.000 A 
ATOM     30  C   UNL     1      66.663  87.370  75.285  1.00  0.00     0.000 A 
ATOM     31  C   UNL     1      67.152  86.069  75.172  1.00  0.00     0.000 A 
ENDBRANCH  25  26
ENDBRANCH   7  25
BRANCH  14  32
ATOM     32  C   UNL     1      62.534  88.525  79.241  1.00  0.00    -0.046 C 
ATOM     33  C   UNL     1      62.504  88.609  77.744  1.00  0.00     0.042 C 
ATOM     34  C   UNL     1      61.771  89.316  80.010  1.00  0.00     0.010 C 
ENDBRANCH  14  32
ENDBRANCH   3   4
BRANCH   2  35
ATOM     35  C   UNL     1      65.410  85.146  84.711  1.00  0.00     0.078 CG0
ATOM     36  G   UNL     1      65.000  84.262  83.534  1.00  0.00     0.000 G0
ENDBRANCH   2  35
ENDBRANCH   1   2
BRANCH   1  37
ATOM     37  O   UNL     1      67.140  88.258  85.073  1.00  0.00    -0.461 OA
BRANCH  37  38
ATOM     38  C   UNL     1      68.436  87.801  85.125  1.00  0.00     0.310 C 
ATOM     39  O   UNL     1      69.056  87.561  86.152  1.00  0.00    -0.252 OA
BRANCH  38  40
ATOM     40  C   UNL     1      68.973  87.644  83.722  1.00  0.00     0.158 C 
BRANCH  40  41
ATOM     41  C   UNL     1      69.835  88.801  83.289  1.00  0.00    -0.033 A 
ATOM     42  C   UNL     1      69.293  89.819  82.504  1.00  0.00     0.054 A 
ATOM     43  C   UNL     1      71.175  88.855  83.673  1.00  0.00     0.008 A 
ATOM     44  C   UNL     1      70.091  90.891  82.103  1.00  0.00     0.160 A 
ATOM     45  C   UNL     1      71.973  89.927  83.272  1.00  0.00     0.050 A 
ATOM     46  C   UNL     1      71.432  90.944  82.487  1.00  0.00     0.157 A 
BRANCH  44  47
ATOM     47  O   UNL     1      69.551  91.879  81.336  1.00  0.00    -0.493 OA
ATOM     48  C   UNL     1      68.537  92.684  81.937  1.00  0.00     0.278 C 
ENDBRANCH  44  47
BRANCH  46  49
ATOM     49  O   UNL     1      72.220  91.986  82.103  1.00  0.00    -0.504 OA
ATOM     50  H   UNL     1      71.903  92.325  81.249  1.00  0.00     0.293 HD
ENDBRANCH  46  49
ENDBRANCH  40  41
ENDBRANCH  38  40
ENDBRANCH  37  38
ENDBRANCH   1  37
TORSDOF 11
ENDMDL
MODEL 7
REMARK VINA RESULT:    -5.720      3.701      7.946
REMARK INTER + INTRA:         -10.385
REMARK INTER:                  -8.983
REMARK INTRA:                  -1.402
REMARK UNBOUND:                -0.318
REMARK SMILES C=C(C)[C@]12C[C@@H](C)[C@@]34O[C@](Cc5ccccc5)(O[C@@H]1[C@@H]3C=C(COC(=O)Cc1ccc(O)c(OC)c1)C[C@]1(O)C(=O)C(C)=C[C@@H]41)O2
REMARK SMILES IDX 23 1 22 2 21 3 20 4 9 5 8 6 10 7 6 8 18 9 46 10 19 11 5 12
REMARK SMILES IDX 7 13 4 14 45 15 38 16 44 17 40 18 42 20 41 21 43 22 39 23
REMARK SMILES IDX 11 25 12 26 13 27 17 28 14 29 16 30 15 31 2 32 3 33 1 34
REMARK SMILES IDX 37 35 24 37 25 38 26 39 27 40 28 41 36 42 29 43 33 44 30 45
REMARK SMILES IDX 31 46 34 47 35 48 32 49
REMARK H PARENT 39 24 32 50
REMARK Flexibility Score: 90.00
ROOT
ATOM      1  C   UNL     1      93.371  87.144  93.039  1.00  0.00     0.264 C 
ENDROOT
BRANCH   1   2
ATOM      2  C   UNL     1      93.731  85.719  92.691  1.00  0.00    -0.033 C 
ATOM      3  C   UNL     1      93.048  85.086  91.716  1.00  0.00    -0.015 C 
BRANCH   3   4
ATOM      4  C   UNL     1      93.162  83.648  91.236  1.00  0.00     0.078 C 
ATOM      5  O   UNL     1      94.785  83.640  89.369  1.00  0.00    -0.319 OA
ATOM      6  C   UNL     1      94.561  83.139  90.723  1.00  0.00     0.095 C 
ATOM      7  C   UNL     1      93.646  83.572  88.490  1.00  0.00     0.289 C 
ATOM      8  C   UNL     1      94.514  81.555  90.694  1.00  0.00     0.023 C 
ATOM      9  O   UNL     1      92.536  84.285  89.027  1.00  0.00    -0.320 OA
ATOM     10  O   UNL     1      93.189  82.236  88.298  1.00  0.00    -0.313 OA
ATOM     11  C   UNL     1      92.154  83.396  90.088  1.00  0.00     0.170 C 
ATOM     12  C   UNL     1      93.086  81.032  90.348  1.00  0.00     0.049 C 
ATOM     13  C   UNL     1      95.543  80.881  89.773  1.00  0.00     0.011 C 
ATOM     14  C   UNL     1      92.334  82.002  89.436  1.00  0.00     0.122 C 
BRANCH   6  15
ATOM     15  C   UNL     1      95.715  83.759  91.562  1.00  0.00     0.086 C 
ATOM     16  C   UNL     1      95.491  83.817  93.088  1.00  0.00     0.140 CG0
ATOM     17  C   UNL     1      97.103  83.197  91.434  1.00  0.00    -0.010 C 
ATOM     18  C   UNL     1      96.888  83.602  93.631  1.00  0.00     0.190 C 
ATOM     19  G   UNL     1      94.889  85.149  93.533  1.00  0.00     0.000 G0
ATOM     20  C   UNL     1      97.798  83.121  92.574  1.00  0.00    -0.008 C 
ATOM     21  O   UNL     1      97.226  83.750  94.795  1.00  0.00    -0.291 OA
ATOM     22  C   UNL     1      99.196  82.706  92.810  1.00  0.00     0.048 C 
BRANCH  16  23
ATOM     23  O   UNL     1      94.756  82.719  93.602  1.00  0.00    -0.381 OA
ATOM     24  H   UNL     1      93.812  82.878  93.439  1.00  0.00     0.212 HD
ENDBRANCH  16  23
ENDBRANCH   6  15
BRANCH   7  25
ATOM     25  C   UNL     1      94.040  84.169  87.154  1.00  0.00     0.135 C 
BRANCH  25  26
ATOM     26  C   UNL     1      95.345  83.607  86.647  1.00  0.00    -0.040 A 
ATOM     27  C   UNL     1      96.489  84.405  86.632  1.00  0.00     0.004 A 
ATOM     28  C   UNL     1      95.409  82.290  86.194  1.00  0.00     0.004 A 
ATOM     29  C   UNL     1      97.696  83.886  86.163  1.00  0.00     0.000 A 
ATOM     30  C   UNL     1      96.616  81.770  85.725  1.00  0.00     0.000 A 
ATOM     31  C   UNL     1      97.759  82.569  85.710  1.00  0.00     0.000 A 
ENDBRANCH  25  26
ENDBRANCH   7  25
BRANCH  14  32
ATOM     32  C   UNL     1      91.040  81.441  88.944  1.00  0.00    -0.046 C 
ATOM     33  C   UNL     1      90.414  82.145  87.777  1.00  0.00     0.042 C 
ATOM     34  C   UNL     1      90.469  80.369  89.514  1.00  0.00     0.010 C 
ENDBRANCH  14  32
ENDBRANCH   3   4
BRANCH   2  35
ATOM     35  C   UNL     1      94.876  85.174  93.524  1.00  0.00     0.078 CG0
ATOM     36  G   UNL     1      95.488  83.845  93.085  1.00  0.00     0.000 G0
ENDBRANCH   2  35
ENDBRANCH   1   2
BRANCH   1  37
ATOM     37  O   UNL     1      94.370  87.688  93.875  1.00  0.00    -0.461 OA
BRANCH  37  38
ATOM     38  C   UNL     1      94.730  88.992  93.625  1.00  0.00     0.310 C 
ATOM     39  O   UNL     1      95.720  89.547  94.080  1.00  0.00    -0.252 OA
BRANCH  38  40
ATOM     40  C   UNL     1      93.714  89.628  92.705  1.00  0.00     0.158 C 
BRANCH  40  41
ATOM     41  C   UNL     1      94.261  89.908  91.329  1.00  0.00    -0.033 A 
ATOM     42  C   UNL     1      94.704  88.855  90.527  1.00  0.00     0.054 A 
ATOM     43  C   UNL     1      94.324  91.218  90.857  1.00  0.00     0.008 A 
ATOM     44  C   UNL     1      95.210  89.115  89.254  1.00  0.00     0.160 A 
ATOM     45  C   UNL     1      94.830  91.478  89.583  1.00  0.00     0.050 A 
ATOM     46  C   UNL     1      95.273  90.427  88.782  1.00  0.00     0.157 A 
BRANCH  44  47
ATOM     47  O   UNL     1      95.640  88.079  88.480  1.00  0.00    -0.493 OA
ATOM     48  C   UNL     1      96.434  87.080  89.118  1.00  0.00     0.278 C 
ENDBRANCH  44  47
BRANCH  46  49
ATOM     49  O   UNL     1      95.764  90.692  87.539  1.00  0.00    -0.504 OA
ATOM     50  H   UNL     1      96.732  90.767  87.591  1.00  0.00     0.293 HD
ENDBRANCH  46  49
ENDBRANCH  40  41
ENDBRANCH  38  40
ENDBRANCH  37  38
ENDBRANCH   1  37
TORSDOF 11
ENDMDL
MODEL 8
REMARK VINA RESULT:    -5.717     14.770     16.571
REMARK INTER + INTRA:         -10.379
REMARK INTER:                  -9.529
REMARK INTRA:                  -0.850
REMARK UNBOUND:                -0.318
REMARK SMILES C=C(C)[C@]12C[C@@H](C)[C@@]34O[C@](Cc5ccccc5)(O[C@@H]1[C@@H]3C=C(COC(=O)Cc1ccc(O)c(OC)c1)C[C@]1(O)C(=O)C(C)=C[C@@H]41)O2
REMARK SMILES IDX 23 1 22 2 21 3 20 4 9 5 8 6 10 7 6 8 18 9 46 10 19 11 5 12
REMARK SMILES IDX 7 13 4 14 45 15 38 16 44 17 40 18 42 20 41 21 43 22 39 23
REMARK SMILES IDX 11 25 12 26 13 27 17 28 14 29 16 30 15 31 2 32 3 33 1 34
REMARK SMILES IDX 37 35 24 37 25 38 26 39 27 40 28 41 36 42 29 43 33 44 30 45
REMARK SMILES IDX 31 46 34 47 35 48 32 49
REMARK H PARENT 39 24 32 50
REMARK Flexibility Score: 90.00
ROOT
ATOM      1  C   UNL     1     102.337  98.740  82.258  1.00  0.00     0.264 C 
ENDROOT
BRANCH   1   2
ATOM      2  C   UNL     1     101.411  99.035  83.415  1.00  0.00    -0.033 C 
ATOM      3  C   UNL     1     100.104  99.262  83.171  1.00  0.00    -0.015 C 
BRANCH   3   4
ATOM      4  C   UNL     1      98.997  99.651  84.137  1.00  0.00     0.078 C 
ATOM      5  O   UNL     1      97.940  97.550  84.904  1.00  0.00    -0.319 OA
ATOM      6  C   UNL     1      98.706  98.707  85.362  1.00  0.00     0.095 C 
ATOM      7  C   UNL     1      96.880  97.842  83.974  1.00  0.00     0.289 C 
ATOM      8  C   UNL     1      97.841  99.527  86.406  1.00  0.00     0.023 C 
ATOM      9  O   UNL     1      97.377  98.507  82.816  1.00  0.00    -0.320 OA
ATOM     10  O   UNL     1      95.899  98.715  84.528  1.00  0.00    -0.313 OA
ATOM     11  C   UNL     1      97.660  99.801  83.370  1.00  0.00     0.170 C 
ATOM     12  C   UNL     1      96.891 100.537  85.692  1.00  0.00     0.049 C 
ATOM     13  C   UNL     1      97.032  98.681  87.403  1.00  0.00     0.011 C 
ATOM     14  C   UNL     1      96.455 100.029  84.318  1.00  0.00     0.122 C 
BRANCH   6  15
ATOM     15  C   UNL     1     100.028  98.102  85.918  1.00  0.00     0.086 C 
ATOM     16  C   UNL     1     101.227  99.067  86.023  1.00  0.00     0.140 CG0
ATOM     17  C   UNL     1     100.018  97.412  87.253  1.00  0.00    -0.010 C 
ATOM     18  C   UNL     1     101.942  98.567  87.260  1.00  0.00     0.190 C 
ATOM     19  G   UNL     1     102.112  99.025  84.778  1.00  0.00     0.000 G0
ATOM     20  C   UNL     1     101.092  97.631  88.019  1.00  0.00    -0.008 C 
ATOM     21  O   UNL     1     103.053  98.919  87.626  1.00  0.00    -0.291 OA
ATOM     22  C   UNL     1     101.456  97.062  89.333  1.00  0.00     0.048 C 
BRANCH  16  23
ATOM     23  O   UNL     1     100.865 100.397  86.355  1.00  0.00    -0.381 OA
ATOM     24  H   UNL     1      99.937 100.401  86.642  1.00  0.00     0.212 HD
ENDBRANCH  16  23
ENDBRANCH   6  15
BRANCH   7  25
ATOM     25  C   UNL     1      96.226  96.535  83.573  1.00  0.00     0.135 C 
BRANCH  25  26
ATOM     26  C   UNL     1      96.087  96.409  82.076  1.00  0.00    -0.040 A 
ATOM     27  C   UNL     1      97.157  95.941  81.313  1.00  0.00     0.004 A 
ATOM     28  C   UNL     1      94.888  96.758  81.455  1.00  0.00     0.004 A 
ATOM     29  C   UNL     1      97.028  95.824  79.929  1.00  0.00     0.000 A 
ATOM     30  C   UNL     1      94.759  96.641  80.071  1.00  0.00     0.000 A 
ATOM     31  C   UNL     1      95.830  96.174  79.308  1.00  0.00     0.000 A 
ENDBRANCH  25  26
ENDBRANCH   7  25
BRANCH  14  32
ATOM     32  C   UNL     1      95.405 100.889  83.694  1.00  0.00    -0.046 C 
ATOM     33  C   UNL     1      94.473 101.587  84.639  1.00  0.00     0.042 C 
ATOM     34  C   UNL     1      95.302 101.030  82.364  1.00  0.00     0.010 C 
ENDBRANCH  14  32
ENDBRANCH   3   4
BRANCH   2  35
ATOM     35  C   UNL     1     102.115  99.025  84.758  1.00  0.00     0.078 CG0
ATOM     36  G   UNL     1     101.238  99.099  86.007  1.00  0.00     0.000 G0
ENDBRANCH   2  35
ENDBRANCH   1   2
BRANCH   1  37
ATOM     37  O   UNL     1     101.595  98.185  81.195  1.00  0.00    -0.461 OA
BRANCH  37  38
ATOM     38  C   UNL     1     102.323  97.612  80.178  1.00  0.00     0.310 C 
ATOM     39  O   UNL     1     103.435  97.974  79.820  1.00  0.00    -0.252 OA
BRANCH  38  40
ATOM     40  C   UNL     1     101.537  96.471  79.575  1.00  0.00     0.158 C 
BRANCH  40  41
ATOM     41  C   UNL     1     102.386  95.259  79.289  1.00  0.00    -0.033 A 
ATOM     42  C   UNL     1     102.328  94.647  78.037  1.00  0.00     0.054 A 
ATOM     43  C   UNL     1     103.230  94.749  80.276  1.00  0.00     0.008 A 
ATOM     44  C   UNL     1     103.114  93.525  77.772  1.00  0.00     0.160 A 
ATOM     45  C   UNL     1     104.015  93.627  80.011  1.00  0.00     0.050 A 
ATOM     46  C   UNL     1     103.957  93.015  78.760  1.00  0.00     0.157 A 
BRANCH  44  47
ATOM     47  O   UNL     1     103.048  92.936  76.545  1.00  0.00    -0.493 OA
ATOM     48  C   UNL     1     102.027  93.392  75.660  1.00  0.00     0.278 C 
ENDBRANCH  44  47
BRANCH  46  49
ATOM     49  O   UNL     1     104.730  91.921  78.512  1.00  0.00    -0.504 OA
ATOM     50  H   UNL     1     104.798  91.792  77.551  1.00  0.00     0.293 HD
ENDBRANCH  46  49
ENDBRANCH  40  41
ENDBRANCH  38  40
ENDBRANCH  37  38
ENDBRANCH   1  37
TORSDOF 11
ENDMDL
MODEL 9
REMARK VINA RESULT:    -5.605     15.552     20.945
REMARK INTER + INTRA:         -10.182
REMARK INTER:                  -8.279
REMARK INTRA:                  -1.903
REMARK UNBOUND:                -0.318
REMARK SMILES C=C(C)[C@]12C[C@@H](C)[C@@]34O[C@](Cc5ccccc5)(O[C@@H]1[C@@H]3C=C(COC(=O)Cc1ccc(O)c(OC)c1)C[C@]1(O)C(=O)C(C)=C[C@@H]41)O2
REMARK SMILES IDX 23 1 22 2 21 3 20 4 9 5 8 6 10 7 6 8 18 9 46 10 19 11 5 12
REMARK SMILES IDX 7 13 4 14 45 15 38 16 44 17 40 18 42 20 41 21 43 22 39 23
REMARK SMILES IDX 11 25 12 26 13 27 17 28 14 29 16 30 15 31 2 32 3 33 1 34
REMARK SMILES IDX 37 35 24 37 25 38 26 39 27 40 28 41 36 42 29 43 33 44 30 45
REMARK SMILES IDX 31 46 34 47 35 48 32 49
REMARK H PARENT 39 24 32 50
REMARK Flexibility Score: 90.00
ROOT
ATOM      1  C   UNL     1      81.439  68.177  86.671  1.00  0.00     0.264 C 
ENDROOT
BRANCH   1   2
ATOM      2  C   UNL     1      80.046  68.346  87.231  1.00  0.00    -0.033 C 
ATOM      3  C   UNL     1      79.853  69.167  88.283  1.00  0.00    -0.015 C 
BRANCH   3   4
ATOM      4  C   UNL     1      78.583  69.446  89.069  1.00  0.00     0.078 C 
ATOM      5  O   UNL     1      77.514  71.422  88.034  1.00  0.00    -0.319 OA
ATOM      6  C   UNL     1      77.328  69.996  88.294  1.00  0.00     0.095 C 
ATOM      7  C   UNL     1      78.053  72.184  89.130  1.00  0.00     0.289 C 
ATOM      8  C   UNL     1      76.062  69.795  89.225  1.00  0.00     0.023 C 
ATOM      9  O   UNL     1      79.311  71.662  89.553  1.00  0.00    -0.320 OA
ATOM     10  O   UNL     1      77.214  72.144  90.281  1.00  0.00    -0.313 OA
ATOM     11  C   UNL     1      78.878  70.458  90.204  1.00  0.00     0.170 C 
ATOM     12  C   UNL     1      76.433  69.942  90.733  1.00  0.00     0.049 C 
ATOM     13  C   UNL     1      74.857  70.694  88.905  1.00  0.00     0.011 C 
ATOM     14  C   UNL     1      77.593  70.917  90.938  1.00  0.00     0.122 C 
BRANCH   6  15
ATOM     15  C   UNL     1      77.227  69.353  86.880  1.00  0.00     0.086 C 
ATOM     16  C   UNL     1      77.504  67.838  86.801  1.00  0.00     0.140 CG0
ATOM     17  C   UNL     1      75.963  69.520  86.084  1.00  0.00    -0.010 C 
ATOM     18  C   UNL     1      76.563  67.391  85.703  1.00  0.00     0.190 C 
ATOM     19  G   UNL     1      78.967  67.535  86.478  1.00  0.00     0.000 G0
ATOM     20  C   UNL     1      75.578  68.444  85.389  1.00  0.00    -0.008 C 
ATOM     21  O   UNL     1      76.568  66.292  85.170  1.00  0.00    -0.291 OA
ATOM     22  C   UNL     1      74.453  68.272  84.448  1.00  0.00     0.048 C 
BRANCH  16  23
ATOM     23  O   UNL     1      77.065  67.114  87.939  1.00  0.00    -0.381 OA
ATOM     24  H   UNL     1      77.476  67.503  88.728  1.00  0.00     0.212 HD
ENDBRANCH  16  23
ENDBRANCH   6  15
BRANCH   7  25
ATOM     25  C   UNL     1      78.221  73.619  88.676  1.00  0.00     0.135 C 
BRANCH  25  26
ATOM     26  C   UNL     1      77.926  74.601  89.782  1.00  0.00    -0.040 A 
ATOM     27  C   UNL     1      78.974  75.182  90.497  1.00  0.00     0.004 A 
ATOM     28  C   UNL     1      76.606  74.930  90.089  1.00  0.00     0.004 A 
ATOM     29  C   UNL     1      78.701  76.090  91.521  1.00  0.00     0.000 A 
ATOM     30  C   UNL     1      76.333  75.838  91.113  1.00  0.00     0.000 A 
ATOM     31  C   UNL     1      77.381  76.418  91.828  1.00  0.00     0.000 A 
ENDBRANCH  25  26
ENDBRANCH   7  25
BRANCH  14  32
ATOM     32  C   UNL     1      77.846  71.214  92.380  1.00  0.00    -0.046 C 
ATOM     33  C   UNL     1      77.964  70.027  93.290  1.00  0.00     0.042 C 
ATOM     34  C   UNL     1      77.962  72.470  92.836  1.00  0.00     0.010 C 
ENDBRANCH  14  32
ENDBRANCH   3   4
BRANCH   2  35
ATOM     35  C   UNL     1      79.004  67.531  86.489  1.00  0.00     0.078 CG0
ATOM     36  G   UNL     1      77.536  67.841  86.781  1.00  0.00     0.000 G0
ENDBRANCH   2  35
ENDBRANCH   1   2
BRANCH   1  37
ATOM     37  O   UNL     1      82.001  69.449  86.427  1.00  0.00    -0.461 OA
BRANCH  37  38
ATOM     38  C   UNL     1      83.356  69.565  86.636  1.00  0.00     0.310 C 
ATOM     39  O   UNL     1      84.167  68.658  86.509  1.00  0.00    -0.252 OA
BRANCH  38  40
ATOM     40  C   UNL     1      83.683  70.982  87.045  1.00  0.00     0.158 C 
BRANCH  40  41
ATOM     41  C   UNL     1      83.771  71.156  88.540  1.00  0.00    -0.033 A 
ATOM     42  C   UNL     1      85.012  71.096  89.177  1.00  0.00     0.054 A 
ATOM     43  C   UNL     1      82.614  71.379  89.286  1.00  0.00     0.008 A 
ATOM     44  C   UNL     1      85.093  71.257  90.560  1.00  0.00     0.160 A 
ATOM     45  C   UNL     1      82.696  71.540  90.669  1.00  0.00     0.050 A 
ATOM     46  C   UNL     1      83.935  71.479  91.306  1.00  0.00     0.157 A 
BRANCH  44  47
ATOM     47  O   UNL     1      86.309  71.195  91.171  1.00  0.00    -0.493 OA
ATOM     48  C   UNL     1      87.426  71.704  90.444  1.00  0.00     0.278 C 
ENDBRANCH  44  47
BRANCH  46  49
ATOM     49  O   UNL     1      84.003  71.640  92.657  1.00  0.00    -0.504 OA
ATOM     50  H   UNL     1      84.067  70.765  93.077  1.00  0.00     0.293 HD
ENDBRANCH  46  49
ENDBRANCH  40  41
ENDBRANCH  38  40
ENDBRANCH  37  38
ENDBRANCH   1  37
TORSDOF 11
ENDMDL
MODEL 10
REMARK VINA RESULT:    -5.191     18.344     23.033
REMARK INTER + INTRA:          -9.455
REMARK INTER:                  -8.552
REMARK INTRA:                  -0.903
REMARK UNBOUND:                -0.318
REMARK SMILES C=C(C)[C@]12C[C@@H](C)[C@@]34O[C@](Cc5ccccc5)(O[C@@H]1[C@@H]3C=C(COC(=O)Cc1ccc(O)c(OC)c1)C[C@]1(O)C(=O)C(C)=C[C@@H]41)O2
REMARK SMILES IDX 23 1 22 2 21 3 20 4 9 5 8 6 10 7 6 8 18 9 46 10 19 11 5 12
REMARK SMILES IDX 7 13 4 14 45 15 38 16 44 17 40 18 42 20 41 21 43 22 39 23
REMARK SMILES IDX 11 25 12 26 13 27 17 28 14 29 16 30 15 31 2 32 3 33 1 34
REMARK SMILES IDX 37 35 24 37 25 38 26 39 27 40 28 41 36 42 29 43 33 44 30 45
REMARK SMILES IDX 31 46 34 47 35 48 32 49
REMARK H PARENT 39 24 32 50
REMARK Flexibility Score: 90.00
ROOT
ATOM      1  C   UNL     1      95.727  98.038  75.854  1.00  0.00     0.264 C 
ENDROOT
BRANCH   1   2
ATOM      2  C   UNL     1      96.148  99.255  75.064  1.00  0.00    -0.033 C 
ATOM      3  C   UNL     1      95.438  99.612  73.975  1.00  0.00    -0.015 C 
BRANCH   3   4
ATOM      4  C   UNL     1      95.695 100.732  72.980  1.00  0.00     0.078 C 
ATOM      5  O   UNL     1      94.445 102.710  73.782  1.00  0.00    -0.319 OA
ATOM      6  C   UNL     1      95.792 102.207  73.521  1.00  0.00     0.095 C 
ATOM      7  C   UNL     1      93.463 102.392  72.778  1.00  0.00     0.289 C 
ATOM      8  C   UNL     1      96.470 103.089  72.393  1.00  0.00     0.023 C 
ATOM      9  O   UNL     1      93.359 100.984  72.584  1.00  0.00    -0.320 OA
ATOM     10  O   UNL     1      93.798 102.932  71.503  1.00  0.00    -0.313 OA
ATOM     11  C   UNL     1      94.593 100.733  71.893  1.00  0.00     0.170 C 
ATOM     12  C   UNL     1      96.090 102.584  70.967  1.00  0.00     0.049 C 
ATOM     13  C   UNL     1      96.205 104.600  72.488  1.00  0.00     0.011 C 
ATOM     14  C   UNL     1      94.697 101.953  70.943  1.00  0.00     0.122 C 
BRANCH   6  15
ATOM     15  C   UNL     1      96.495 102.241  74.909  1.00  0.00     0.086 C 
ATOM     16  C   UNL     1      97.737 101.339  75.065  1.00  0.00     0.140 CG0
ATOM     17  C   UNL     1      96.946 103.558  75.475  1.00  0.00    -0.010 C 
ATOM     18  C   UNL     1      98.614 102.150  75.995  1.00  0.00     0.190 C 
ATOM     19  G   UNL     1      97.386  99.967  75.639  1.00  0.00     0.000 G0
ATOM     20  C   UNL     1      98.120 103.534  76.115  1.00  0.00    -0.008 C 
ATOM     21  O   UNL     1      99.628 101.745  76.543  1.00  0.00    -0.291 OA
ATOM     22  C   UNL     1      98.823 104.603  76.853  1.00  0.00     0.048 C 
BRANCH  16  23
ATOM     23  O   UNL     1      98.513 101.223  73.883  1.00  0.00    -0.381 OA
ATOM     24  H   UNL     1      99.393 101.595  74.056  1.00  0.00     0.212 HD
ENDBRANCH  16  23
ENDBRANCH   6  15
BRANCH   7  25
ATOM     25  C   UNL     1      92.126 102.946  73.228  1.00  0.00     0.135 C 
BRANCH  25  26
ATOM     26  C   UNL     1      91.103 102.924  72.119  1.00  0.00    -0.040 A 
ATOM     27  C   UNL     1      90.992 104.010  71.251  1.00  0.00     0.004 A 
ATOM     28  C   UNL     1      90.269 101.817  71.962  1.00  0.00     0.004 A 
ATOM     29  C   UNL     1      90.047 103.989  70.225  1.00  0.00     0.000 A 
ATOM     30  C   UNL     1      89.323 101.797  70.936  1.00  0.00     0.000 A 
ATOM     31  C   UNL     1      89.213 102.883  70.068  1.00  0.00     0.000 A 
ENDBRANCH  25  26
ENDBRANCH   7  25
BRANCH  14  32
ATOM     32  C   UNL     1      94.237 101.629  69.560  1.00  0.00    -0.046 C 
ATOM     33  C   UNL     1      95.314 101.379  68.545  1.00  0.00     0.042 C 
ATOM     34  C   UNL     1      92.936 101.564  69.241  1.00  0.00     0.010 C 
ENDBRANCH  14  32
ENDBRANCH   3   4
BRANCH   2  35
ATOM     35  C   UNL     1      97.370  99.945  75.640  1.00  0.00     0.078 CG0
ATOM     36  G   UNL     1      97.727 101.320  75.078  1.00  0.00     0.000 G0
ENDBRANCH   2  35
ENDBRANCH   1   2
BRANCH   1  37
ATOM     37  O   UNL     1      94.461  97.604  75.404  1.00  0.00    -0.461 OA
BRANCH  37  38
ATOM     38  C   UNL     1      93.937  96.500  76.035  1.00  0.00     0.310 C 
ATOM     39  O   UNL     1      94.488  95.410  76.117  1.00  0.00    -0.252 OA
BRANCH  38  40
ATOM     40  C   UNL     1      92.582  96.841  76.606  1.00  0.00     0.158 C 
BRANCH  40  41
ATOM     41  C   UNL     1      91.884  95.652  77.215  1.00  0.00    -0.033 A 
ATOM     42  C   UNL     1      90.850  95.021  76.522  1.00  0.00     0.054 A 
ATOM     43  C   UNL     1      92.271  95.182  78.469  1.00  0.00     0.008 A 
ATOM     44  C   UNL     1      90.204  93.920  77.085  1.00  0.00     0.160 A 
ATOM     45  C   UNL     1      91.625  94.081  79.032  1.00  0.00     0.050 A 
ATOM     46  C   UNL     1      90.592  93.450  78.341  1.00  0.00     0.157 A 
BRANCH  44  47
ATOM     47  O   UNL     1      89.196  93.312  76.400  1.00  0.00    -0.493 OA
ATOM     48  C   UNL     1      89.514  92.782  75.114  1.00  0.00     0.278 C 
ENDBRANCH  44  47
BRANCH  46  49
ATOM     49  O   UNL     1      89.969  92.376  78.900  1.00  0.00    -0.504 OA
ATOM     50  H   UNL     1      89.007  92.507  78.851  1.00  0.00     0.293 HD
ENDBRANCH  46  49
ENDBRANCH  40  41
ENDBRANCH  38  40
ENDBRANCH  37  38
ENDBRANCH   1  37
TORSDOF 11
ENDMDL
