MODEL 1
REMARK VINA RESULT:    -7.053      0.000      0.000
REMARK INTER + INTRA:          -8.716
REMARK INTER:                  -8.290
REMARK INTRA:                  -0.426
REMARK UNBOUND:                -0.426
REMARK SMILES O=C(/C=C/C=C/c1ccc2c(c1)OCO2)N1CCCCC1
REMARK SMILES IDX 3 1 4 2 2 3 1 4 16 5 17 6 21 7 18 8 20 9 19 10 5 11 6 12
REMARK SMILES IDX 7 13 12 14 8 15 11 16 9 17 13 18 10 19 14 20 15 21
REMARK H PARENT
REMARK Flexibility Score: inf
ROOT
ATOM      1  C   UNL     1      99.725  82.626  80.925  1.00  0.00     0.071 C 
ATOM      2  C   UNL     1      99.064  81.727  81.651  1.00  0.00     0.006 C 
ENDROOT
BRANCH   1   3
ATOM      3  C   UNL     1     100.280  82.196  79.626  1.00  0.00     0.246 C 
ATOM      4  O   UNL     1     101.208  81.387  79.643  1.00  0.00    -0.270 OA
ATOM      5  N   UNL     1      99.722  82.739  78.469  1.00  0.00    -0.339 N 
ATOM      6  C   UNL     1     100.256  82.336  77.165  1.00  0.00     0.120 C 
ATOM      7  C   UNL     1      98.646  83.740  78.411  1.00  0.00     0.120 C 
ATOM      8  C   UNL     1      99.149  81.845  76.238  1.00  0.00     0.022 C 
ATOM      9  C   UNL     1      97.517  83.285  77.486  1.00  0.00     0.022 C 
ATOM     10  C   UNL     1      98.041  82.885  76.110  1.00  0.00     0.004 C 
ENDBRANCH   1   3
BRANCH   2  11
ATOM     11  C   UNL     1      98.484  82.052  82.937  1.00  0.00     0.001 C 
ATOM     12  C   UNL     1      97.756  83.161  83.146  1.00  0.00     0.008 C 
BRANCH  12  13
ATOM     13  C   UNL     1      97.152  83.545  84.433  1.00  0.00    -0.022 A 
ATOM     14  C   UNL     1      97.020  84.891  84.743  1.00  0.00     0.058 A 
ATOM     15  C   UNL     1      96.727  82.541  85.307  1.00  0.00     0.012 A 
ATOM     16  C   UNL     1      96.447  85.201  85.959  1.00  0.00     0.166 A 
ATOM     17  C   UNL     1      96.151  82.883  86.533  1.00  0.00     0.051 A 
ATOM     18  O   UNL     1      96.233  86.454  86.445  1.00  0.00    -0.454 OA
ATOM     19  C   UNL     1      96.024  84.223  86.831  1.00  0.00     0.165 A 
ATOM     20  C   UNL     1      95.627  86.156  87.719  1.00  0.00     0.468 C 
ATOM     21  O   UNL     1      95.492  84.742  87.971  1.00  0.00    -0.454 OA
ENDBRANCH  12  13
ENDBRANCH   2  11
TORSDOF 3
ENDMDL
MODEL 2
REMARK VINA RESULT:    -7.016      2.843      8.646
REMARK INTER + INTRA:          -8.673
REMARK INTER:                  -8.356
REMARK INTRA:                  -0.316
REMARK UNBOUND:                -0.426
REMARK SMILES O=C(/C=C/C=C/c1ccc2c(c1)OCO2)N1CCCCC1
REMARK SMILES IDX 3 1 4 2 2 3 1 4 16 5 17 6 21 7 18 8 20 9 19 10 5 11 6 12
REMARK SMILES IDX 7 13 12 14 8 15 11 16 9 17 13 18 10 19 14 20 15 21
REMARK H PARENT
REMARK Flexibility Score: inf
ROOT
ATOM      1  C   UNL     1      98.286  83.158  85.537  1.00  0.00     0.071 C 
ATOM      2  C   UNL     1      97.830  82.300  84.627  1.00  0.00     0.006 C 
ENDROOT
BRANCH   1   3
ATOM      3  C   UNL     1      97.747  83.069  86.908  1.00  0.00     0.246 C 
ATOM      4  O   UNL     1      98.334  82.334  87.703  1.00  0.00    -0.270 OA
ATOM      5  N   UNL     1      96.610  83.816  87.209  1.00  0.00    -0.339 N 
ATOM      6  C   UNL     1      96.048  83.744  88.562  1.00  0.00     0.120 C 
ATOM      7  C   UNL     1      95.857  84.668  86.276  1.00  0.00     0.120 C 
ATOM      8  C   UNL     1      95.869  85.132  89.166  1.00  0.00     0.022 C 
ATOM      9  C   UNL     1      95.653  86.070  86.849  1.00  0.00     0.022 C 
ATOM     10  C   UNL     1      95.042  86.025  88.246  1.00  0.00     0.004 C 
ENDBRANCH   1   3
BRANCH   2  11
ATOM     11  C   UNL     1      98.297  82.310  83.257  1.00  0.00     0.001 C 
ATOM     12  C   UNL     1      97.810  83.149  82.329  1.00  0.00     0.008 C 
BRANCH  12  13
ATOM     13  C   UNL     1      98.243  83.196  80.922  1.00  0.00    -0.022 A 
ATOM     14  C   UNL     1      97.312  83.501  79.939  1.00  0.00     0.058 A 
ATOM     15  C   UNL     1      99.580  82.932  80.616  1.00  0.00     0.012 A 
ATOM     16  C   UNL     1      97.765  83.533  78.636  1.00  0.00     0.166 A 
ATOM     17  C   UNL     1     100.012  82.972  79.288  1.00  0.00     0.051 A 
ATOM     18  O   UNL     1      97.012  83.809  77.536  1.00  0.00    -0.454 OA
ATOM     19  C   UNL     1      99.079  83.276  78.319  1.00  0.00     0.165 A 
ATOM     20  C   UNL     1      98.000  83.696  76.491  1.00  0.00     0.468 C 
ATOM     21  O   UNL     1      99.314  83.358  76.981  1.00  0.00    -0.454 OA
ENDBRANCH  12  13
ENDBRANCH   2  11
TORSDOF 3
ENDMDL
MODEL 3
REMARK VINA RESULT:    -6.954     17.299     18.984
REMARK INTER + INTRA:          -8.600
REMARK INTER:                  -8.213
REMARK INTRA:                  -0.387
REMARK UNBOUND:                -0.426
REMARK SMILES O=C(/C=C/C=C/c1ccc2c(c1)OCO2)N1CCCCC1
REMARK SMILES IDX 3 1 4 2 2 3 1 4 16 5 17 6 21 7 18 8 20 9 19 10 5 11 6 12
REMARK SMILES IDX 7 13 12 14 8 15 11 16 9 17 13 18 10 19 14 20 15 21
REMARK H PARENT
REMARK Flexibility Score: inf
ROOT
ATOM      1  C   UNL     1      91.141  99.530  71.979  1.00  0.00     0.071 C 
ATOM      2  C   UNL     1      92.131 100.251  72.502  1.00  0.00     0.006 C 
ENDROOT
BRANCH   1   3
ATOM      3  C   UNL     1      90.302 100.156  70.938  1.00  0.00     0.246 C 
ATOM      4  O   UNL     1      90.380 101.377  70.801  1.00  0.00    -0.270 OA
ATOM      5  N   UNL     1      89.474  99.325  70.184  1.00  0.00    -0.339 N 
ATOM      6  C   UNL     1      88.625  99.918  69.146  1.00  0.00     0.120 C 
ATOM      7  C   UNL     1      89.321  97.871  70.348  1.00  0.00     0.120 C 
ATOM      8  C   UNL     1      88.824  99.227  67.802  1.00  0.00     0.022 C 
ATOM      9  C   UNL     1      89.510  97.142  69.018  1.00  0.00     0.022 C 
ATOM     10  C   UNL     1      88.615  97.721  67.925  1.00  0.00     0.004 C 
ENDBRANCH   1   3
BRANCH   2  11
ATOM     11  C   UNL     1      93.007  99.725  73.527  1.00  0.00     0.001 C 
ATOM     12  C   UNL     1      92.585  98.879  74.480  1.00  0.00     0.008 C 
BRANCH  12  13
ATOM     13  C   UNL     1      93.430  98.321  75.549  1.00  0.00    -0.022 A 
ATOM     14  C   UNL     1      93.141  97.059  76.049  1.00  0.00     0.058 A 
ATOM     15  C   UNL     1      94.500  99.079  76.032  1.00  0.00     0.012 A 
ATOM     16  C   UNL     1      93.961  96.579  77.050  1.00  0.00     0.166 A 
ATOM     17  C   UNL     1      95.314  98.569  77.045  1.00  0.00     0.051 A 
ATOM     18  O   UNL     1      93.844  95.372  77.668  1.00  0.00    -0.454 OA
ATOM     19  C   UNL     1      95.019  97.314  77.535  1.00  0.00     0.165 A 
ATOM     20  C   UNL     1      94.946  95.429  78.596  1.00  0.00     0.468 C 
ATOM     21  O   UNL     1      95.696  96.659  78.517  1.00  0.00    -0.454 OA
ENDBRANCH  12  13
ENDBRANCH   2  11
TORSDOF 3
ENDMDL
MODEL 4
REMARK VINA RESULT:    -6.875     24.310     26.430
REMARK INTER + INTRA:          -8.508
REMARK INTER:                  -8.075
REMARK INTRA:                  -0.433
REMARK UNBOUND:                -0.426
REMARK SMILES O=C(/C=C/C=C/c1ccc2c(c1)OCO2)N1CCCCC1
REMARK SMILES IDX 3 1 4 2 2 3 1 4 16 5 17 6 21 7 18 8 20 9 19 10 5 11 6 12
REMARK SMILES IDX 7 13 12 14 8 15 11 16 9 17 13 18 10 19 14 20 15 21
REMARK H PARENT
REMARK Flexibility Score: inf
ROOT
ATOM      1  C   UNL     1      75.403  91.689  70.710  1.00  0.00     0.071 C 
ATOM      2  C   UNL     1      74.781  90.675  71.309  1.00  0.00     0.006 C 
ENDROOT
BRANCH   1   3
ATOM      3  C   UNL     1      75.205  93.046  71.258  1.00  0.00     0.246 C 
ATOM      4  O   UNL     1      74.138  93.609  71.010  1.00  0.00    -0.270 OA
ATOM      5  N   UNL     1      76.238  93.600  72.012  1.00  0.00    -0.339 N 
ATOM      6  C   UNL     1      76.073  94.948  72.564  1.00  0.00     0.120 C 
ATOM      7  C   UNL     1      77.541  92.977  72.290  1.00  0.00     0.120 C 
ATOM      8  C   UNL     1      76.343  94.972  74.064  1.00  0.00     0.022 C 
ATOM      9  C   UNL     1      77.850  92.985  73.786  1.00  0.00     0.022 C 
ATOM     10  C   UNL     1      77.714  94.383  74.383  1.00  0.00     0.004 C 
ENDBRANCH   1   3
BRANCH   2  11
ATOM     11  C   UNL     1      74.913  89.310  70.846  1.00  0.00     0.001 C 
ATOM     12  C   UNL     1      76.082  88.792  70.437  1.00  0.00     0.008 C 
BRANCH  12  13
ATOM     13  C   UNL     1      76.270  87.415  69.949  1.00  0.00    -0.022 A 
ATOM     14  C   UNL     1      77.381  87.120  69.169  1.00  0.00     0.058 A 
ATOM     15  C   UNL     1      75.325  86.442  70.285  1.00  0.00     0.012 A 
ATOM     16  C   UNL     1      77.514  85.817  68.737  1.00  0.00     0.166 A 
ATOM     17  C   UNL     1      75.485  85.130  69.833  1.00  0.00     0.051 A 
ATOM     18  O   UNL     1      78.526  85.331  67.967  1.00  0.00    -0.454 OA
ATOM     19  C   UNL     1      76.591  84.848  69.059  1.00  0.00     0.165 A 
ATOM     20  C   UNL     1      78.137  83.948  67.841  1.00  0.00     0.468 C 
ATOM     21  O   UNL     1      76.910  83.634  68.532  1.00  0.00    -0.454 OA
ENDBRANCH  12  13
ENDBRANCH   2  11
TORSDOF 3
ENDMDL
MODEL 5
REMARK VINA RESULT:    -6.627     16.717     18.138
REMARK INTER + INTRA:          -8.216
REMARK INTER:                  -7.846
REMARK INTRA:                  -0.369
REMARK UNBOUND:                -0.426
REMARK SMILES O=C(/C=C/C=C/c1ccc2c(c1)OCO2)N1CCCCC1
REMARK SMILES IDX 3 1 4 2 2 3 1 4 16 5 17 6 21 7 18 8 20 9 19 10 5 11 6 12
REMARK SMILES IDX 7 13 12 14 8 15 11 16 9 17 13 18 10 19 14 20 15 21
REMARK H PARENT
REMARK Flexibility Score: inf
ROOT
ATOM      1  C   UNL     1      92.098  99.679  73.250  1.00  0.00     0.071 C 
ATOM      2  C   UNL     1      92.979  99.871  74.230  1.00  0.00     0.006 C 
ENDROOT
BRANCH   1   3
ATOM      3  C   UNL     1      92.114 100.616  72.108  1.00  0.00     0.246 C 
ATOM      4  O   UNL     1      93.146 101.258  71.914  1.00  0.00    -0.270 OA
ATOM      5  N   UNL     1      90.960 100.714  71.333  1.00  0.00    -0.339 N 
ATOM      6  C   UNL     1      90.943 101.640  70.196  1.00  0.00     0.120 C 
ATOM      7  C   UNL     1      89.695  99.999  71.561  1.00  0.00     0.120 C 
ATOM      8  C   UNL     1      90.513 100.939  68.912  1.00  0.00     0.022 C 
ATOM      9  C   UNL     1      89.228  99.284  70.293  1.00  0.00     0.022 C 
ATOM     10  C   UNL     1      89.174 100.232  69.098  1.00  0.00     0.004 C 
ENDBRANCH   1   3
BRANCH   2  11
ATOM     11  C   UNL     1      93.040  99.006  75.389  1.00  0.00     0.001 C 
ATOM     12  C   UNL     1      92.941  97.670  75.304  1.00  0.00     0.008 C 
BRANCH  12  13
ATOM     13  C   UNL     1      92.988  96.745  76.450  1.00  0.00    -0.022 A 
ATOM     14  C   UNL     1      94.222  96.330  76.932  1.00  0.00     0.058 A 
ATOM     15  C   UNL     1      91.789  96.312  77.021  1.00  0.00     0.012 A 
ATOM     16  C   UNL     1      94.215  95.465  78.006  1.00  0.00     0.166 A 
ATOM     17  C   UNL     1      91.812  95.435  78.108  1.00  0.00     0.051 A 
ATOM     18  O   UNL     1      95.314  94.945  78.619  1.00  0.00    -0.454 OA
ATOM     19  C   UNL     1      93.043  95.029  78.579  1.00  0.00     0.165 A 
ATOM     20  C   UNL     1      94.701  94.133  79.642  1.00  0.00     0.468 C 
ATOM     21  O   UNL     1      93.260  94.182  79.622  1.00  0.00    -0.454 OA
ENDBRANCH  12  13
ENDBRANCH   2  11
TORSDOF 3
ENDMDL
MODEL 6
REMARK VINA RESULT:    -6.624      2.112      2.708
REMARK INTER + INTRA:          -8.212
REMARK INTER:                  -7.885
REMARK INTRA:                  -0.327
REMARK UNBOUND:                -0.426
REMARK SMILES O=C(/C=C/C=C/c1ccc2c(c1)OCO2)N1CCCCC1
REMARK SMILES IDX 3 1 4 2 2 3 1 4 16 5 17 6 21 7 18 8 20 9 19 10 5 11 6 12
REMARK SMILES IDX 7 13 12 14 8 15 11 16 9 17 13 18 10 19 14 20 15 21
REMARK H PARENT
REMARK Flexibility Score: inf
ROOT
ATOM      1  C   UNL     1      98.691  82.955  79.867  1.00  0.00     0.071 C 
ATOM      2  C   UNL     1      97.946  83.417  80.869  1.00  0.00     0.006 C 
ENDROOT
BRANCH   1   3
ATOM      3  C   UNL     1      98.280  83.285  78.487  1.00  0.00     0.246 C 
ATOM      4  O   UNL     1      97.124  83.673  78.315  1.00  0.00    -0.270 OA
ATOM      5  N   UNL     1      99.225  83.131  77.474  1.00  0.00    -0.339 N 
ATOM      6  C   UNL     1      98.846  83.446  76.094  1.00  0.00     0.120 C 
ATOM      7  C   UNL     1     100.598  82.629  77.635  1.00  0.00     0.120 C 
ATOM      8  C   UNL     1      99.827  84.424  75.455  1.00  0.00     0.022 C 
ATOM      9  C   UNL     1     101.613  83.582  77.003  1.00  0.00     0.022 C 
ATOM     10  C   UNL     1     101.258  83.905  75.555  1.00  0.00     0.004 C 
ENDBRANCH   1   3
BRANCH   2  11
ATOM     11  C   UNL     1      98.267  83.146  82.255  1.00  0.00     0.001 C 
ATOM     12  C   UNL     1      97.510  83.581  83.274  1.00  0.00     0.008 C 
BRANCH  12  13
ATOM     13  C   UNL     1      97.794  83.341  84.699  1.00  0.00    -0.022 A 
ATOM     14  C   UNL     1      96.834  83.674  85.645  1.00  0.00     0.058 A 
ATOM     15  C   UNL     1      99.024  82.785  85.061  1.00  0.00     0.012 A 
ATOM     16  C   UNL     1      97.146  83.431  86.967  1.00  0.00     0.166 A 
ATOM     17  C   UNL     1      99.314  82.549  86.406  1.00  0.00     0.051 A 
ATOM     18  O   UNL     1      96.344  83.687  88.037  1.00  0.00    -0.454 OA
ATOM     19  C   UNL     1      98.353  82.883  87.338  1.00  0.00     0.165 A 
ATOM     20  C   UNL     1      97.182  83.239  89.122  1.00  0.00     0.468 C 
ATOM     21  O   UNL     1      98.458  82.728  88.686  1.00  0.00    -0.454 OA
ENDBRANCH  12  13
ENDBRANCH   2  11
TORSDOF 3
ENDMDL
MODEL 7
REMARK VINA RESULT:    -6.559     24.667     25.936
REMARK INTER + INTRA:          -8.136
REMARK INTER:                  -7.778
REMARK INTRA:                  -0.358
REMARK UNBOUND:                -0.426
REMARK SMILES O=C(/C=C/C=C/c1ccc2c(c1)OCO2)N1CCCCC1
REMARK SMILES IDX 3 1 4 2 2 3 1 4 16 5 17 6 21 7 18 8 20 9 19 10 5 11 6 12
REMARK SMILES IDX 7 13 12 14 8 15 11 16 9 17 13 18 10 19 14 20 15 21
REMARK H PARENT
REMARK Flexibility Score: inf
ROOT
ATOM      1  C   UNL     1      75.762  88.948  70.298  1.00  0.00     0.071 C 
ATOM      2  C   UNL     1      75.058  89.873  70.948  1.00  0.00     0.006 C 
ENDROOT
BRANCH   1   3
ATOM      3  C   UNL     1      75.273  87.555  70.328  1.00  0.00     0.246 C 
ATOM      4  O   UNL     1      74.089  87.374  70.617  1.00  0.00    -0.270 OA
ATOM      5  N   UNL     1      76.183  86.541  70.034  1.00  0.00    -0.339 N 
ATOM      6  C   UNL     1      75.728  85.148  70.061  1.00  0.00     0.120 C 
ATOM      7  C   UNL     1      77.611  86.716  69.729  1.00  0.00     0.120 C 
ATOM      8  C   UNL     1      76.067  84.425  68.761  1.00  0.00     0.022 C 
ATOM      9  C   UNL     1      77.991  86.002  68.432  1.00  0.00     0.022 C 
ATOM     10  C   UNL     1      77.555  84.539  68.445  1.00  0.00     0.004 C 
ENDBRANCH   1   3
BRANCH   2  11
ATOM     11  C   UNL     1      75.457  91.264  70.977  1.00  0.00     0.001 C 
ATOM     12  C   UNL     1      76.516  91.702  71.677  1.00  0.00     0.008 C 
BRANCH  12  13
ATOM     13  C   UNL     1      76.960  93.105  71.747  1.00  0.00    -0.022 A 
ATOM     14  C   UNL     1      76.267  94.070  71.030  1.00  0.00     0.058 A 
ATOM     15  C   UNL     1      78.069  93.426  72.535  1.00  0.00     0.012 A 
ATOM     16  C   UNL     1      76.721  95.369  71.127  1.00  0.00     0.166 A 
ATOM     17  C   UNL     1      78.507  94.749  72.615  1.00  0.00     0.051 A 
ATOM     18  O   UNL     1      76.181  96.452  70.503  1.00  0.00    -0.454 OA
ATOM     19  C   UNL     1      77.811  95.700  71.899  1.00  0.00     0.165 A 
ATOM     20  C   UNL     1      77.054  97.501  70.969  1.00  0.00     0.468 C 
ATOM     21  O   UNL     1      78.090  97.031  71.855  1.00  0.00    -0.454 OA
ENDBRANCH  12  13
ENDBRANCH   2  11
TORSDOF 3
ENDMDL
MODEL 8
REMARK VINA RESULT:    -6.543     24.635     25.793
REMARK INTER + INTRA:          -8.117
REMARK INTER:                  -7.770
REMARK INTRA:                  -0.346
REMARK UNBOUND:                -0.426
REMARK SMILES O=C(/C=C/C=C/c1ccc2c(c1)OCO2)N1CCCCC1
REMARK SMILES IDX 3 1 4 2 2 3 1 4 16 5 17 6 21 7 18 8 20 9 19 10 5 11 6 12
REMARK SMILES IDX 7 13 12 14 8 15 11 16 9 17 13 18 10 19 14 20 15 21
REMARK H PARENT
REMARK Flexibility Score: inf
ROOT
ATOM      1  C   UNL     1      76.086  88.084  69.931  1.00  0.00     0.071 C 
ATOM      2  C   UNL     1      75.285  88.865  70.654  1.00  0.00     0.006 C 
ENDROOT
BRANCH   1   3
ATOM      3  C   UNL     1      75.932  86.621  70.063  1.00  0.00     0.246 C 
ATOM      4  O   UNL     1      74.978  86.206  70.722  1.00  0.00    -0.270 OA
ATOM      5  N   UNL     1      76.879  85.810  69.440  1.00  0.00    -0.339 N 
ATOM      6  C   UNL     1      76.756  84.354  69.558  1.00  0.00     0.120 C 
ATOM      7  C   UNL     1      78.055  86.269  68.685  1.00  0.00     0.120 C 
ATOM      8  C   UNL     1      76.782  83.680  68.190  1.00  0.00     0.022 C 
ATOM      9  C   UNL     1      78.118  85.611  67.306  1.00  0.00     0.022 C 
ATOM     10  C   UNL     1      78.021  84.091  67.401  1.00  0.00     0.004 C 
ENDBRANCH   1   3
BRANCH   2  11
ATOM     11  C   UNL     1      75.360  90.310  70.592  1.00  0.00     0.001 C 
ATOM     12  C   UNL     1      76.142  91.032  71.411  1.00  0.00     0.008 C 
BRANCH  12  13
ATOM     13  C   UNL     1      76.250  92.501  71.397  1.00  0.00    -0.022 A 
ATOM     14  C   UNL     1      77.208  93.115  72.192  1.00  0.00     0.058 A 
ATOM     15  C   UNL     1      75.385  93.236  70.583  1.00  0.00     0.012 A 
ATOM     16  C   UNL     1      77.270  94.493  72.145  1.00  0.00     0.166 A 
ATOM     17  C   UNL     1      75.470  94.630  70.555  1.00  0.00     0.051 A 
ATOM     18  O   UNL     1      78.134  95.277  72.847  1.00  0.00    -0.454 OA
ATOM     19  C   UNL     1      76.425  95.230  71.348  1.00  0.00     0.165 A 
ATOM     20  C   UNL     1      77.737  96.590  72.402  1.00  0.00     0.468 C 
ATOM     21  O   UNL     1      76.653  96.568  71.451  1.00  0.00    -0.454 OA
ENDBRANCH  12  13
ENDBRANCH   2  11
TORSDOF 3
ENDMDL
MODEL 9
REMARK VINA RESULT:    -6.431      3.410      8.984
REMARK INTER + INTRA:          -7.985
REMARK INTER:                  -7.658
REMARK INTRA:                  -0.327
REMARK UNBOUND:                -0.426
REMARK SMILES O=C(/C=C/C=C/c1ccc2c(c1)OCO2)N1CCCCC1
REMARK SMILES IDX 3 1 4 2 2 3 1 4 16 5 17 6 21 7 18 8 20 9 19 10 5 11 6 12
REMARK SMILES IDX 7 13 12 14 8 15 11 16 9 17 13 18 10 19 14 20 15 21
REMARK H PARENT
REMARK Flexibility Score: inf
ROOT
ATOM      1  C   UNL     1      95.759  83.048  85.776  1.00  0.00     0.071 C 
ATOM      2  C   UNL     1      97.005  83.359  85.427  1.00  0.00     0.006 C 
ENDROOT
BRANCH   1   3
ATOM      3  C   UNL     1      95.451  82.925  87.215  1.00  0.00     0.246 C 
ATOM      4  O   UNL     1      96.313  83.292  88.015  1.00  0.00    -0.270 OA
ATOM      5  N   UNL     1      94.211  82.398  87.571  1.00  0.00    -0.339 N 
ATOM      6  C   UNL     1      93.879  82.258  88.992  1.00  0.00     0.120 C 
ATOM      7  C   UNL     1      93.176  81.908  86.647  1.00  0.00     0.120 C 
ATOM      8  C   UNL     1      92.544  82.919  89.320  1.00  0.00     0.022 C 
ATOM      9  C   UNL     1      91.820  82.546  86.947  1.00  0.00     0.022 C 
ATOM     10  C   UNL     1      91.436  82.391  88.416  1.00  0.00     0.004 C 
ENDBRANCH   1   3
BRANCH   2  11
ATOM     11  C   UNL     1      97.403  83.501  84.042  1.00  0.00     0.001 C 
ATOM     12  C   UNL     1      98.201  82.617  83.421  1.00  0.00     0.008 C 
BRANCH  12  13
ATOM     13  C   UNL     1      98.642  82.718  82.019  1.00  0.00    -0.022 A 
ATOM     14  C   UNL     1      97.778  83.256  81.076  1.00  0.00     0.058 A 
ATOM     15  C   UNL     1      99.920  82.269  81.678  1.00  0.00     0.012 A 
ATOM     16  C   UNL     1      98.237  83.330  79.777  1.00  0.00     0.166 A 
ATOM     17  C   UNL     1     100.359  82.356  80.355  1.00  0.00     0.051 A 
ATOM     18  O   UNL     1      97.544  83.822  78.712  1.00  0.00    -0.454 OA
ATOM     19  C   UNL     1      99.493  82.892  79.425  1.00  0.00     0.165 A 
ATOM     20  C   UNL     1      98.505  83.643  77.653  1.00  0.00     0.468 C 
ATOM     21  O   UNL     1      99.745  83.054  78.098  1.00  0.00    -0.454 OA
ENDBRANCH  12  13
ENDBRANCH   2  11
TORSDOF 3
ENDMDL
MODEL 10
REMARK VINA RESULT:    -6.419      4.742      7.946
REMARK INTER + INTRA:          -7.971
REMARK INTER:                  -7.551
REMARK INTRA:                  -0.419
REMARK UNBOUND:                -0.426
REMARK SMILES O=C(/C=C/C=C/c1ccc2c(c1)OCO2)N1CCCCC1
REMARK SMILES IDX 3 1 4 2 2 3 1 4 16 5 17 6 21 7 18 8 20 9 19 10 5 11 6 12
REMARK SMILES IDX 7 13 12 14 8 15 11 16 9 17 13 18 10 19 14 20 15 21
REMARK H PARENT
REMARK Flexibility Score: inf
ROOT
ATOM      1  C   UNL     1      96.792  84.777  88.232  1.00  0.00     0.071 C 
ATOM      2  C   UNL     1      95.618  84.690  88.855  1.00  0.00     0.006 C 
ENDROOT
BRANCH   1   3
ATOM      3  C   UNL     1      97.399  83.534  87.716  1.00  0.00     0.246 C 
ATOM      4  O   UNL     1      97.502  82.585  88.495  1.00  0.00    -0.270 OA
ATOM      5  N   UNL     1      97.818  83.519  86.387  1.00  0.00    -0.339 N 
ATOM      6  C   UNL     1      98.429  82.300  85.847  1.00  0.00     0.120 C 
ATOM      7  C   UNL     1      97.753  84.644  85.442  1.00  0.00     0.120 C 
ATOM      8  C   UNL     1      97.739  81.852  84.564  1.00  0.00     0.022 C 
ATOM      9  C   UNL     1      97.069  84.232  84.138  1.00  0.00     0.022 C 
ATOM     10  C   UNL     1      97.705  82.981  83.539  1.00  0.00     0.004 C 
ENDBRANCH   1   3
BRANCH   2  11
ATOM     11  C   UNL     1      94.945  85.852  89.395  1.00  0.00     0.001 C 
ATOM     12  C   UNL     1      95.491  87.079  89.381  1.00  0.00     0.008 C 
BRANCH  12  13
ATOM     13  C   UNL     1      94.855  88.292  89.923  1.00  0.00    -0.022 A 
ATOM     14  C   UNL     1      95.260  89.534  89.455  1.00  0.00     0.058 A 
ATOM     15  C   UNL     1      93.860  88.159  90.895  1.00  0.00     0.012 A 
ATOM     16  C   UNL     1      94.635  90.640  89.992  1.00  0.00     0.166 A 
ATOM     17  C   UNL     1      93.244  89.296  91.422  1.00  0.00     0.051 A 
ATOM     18  O   UNL     1      94.890  91.938  89.667  1.00  0.00    -0.454 OA
ATOM     19  C   UNL     1      93.654  90.525  90.949  1.00  0.00     0.165 A 
ATOM     20  C   UNL     1      93.959  92.625  90.528  1.00  0.00     0.468 C 
ATOM     21  O   UNL     1      93.171  91.735  91.344  1.00  0.00    -0.454 OA
ENDBRANCH  12  13
ENDBRANCH   2  11
TORSDOF 3
ENDMDL
