MODEL 1
REMARK VINA RESULT:    -6.794      0.000      0.000
REMARK INTER + INTRA:         -12.952
REMARK INTER:                 -11.957
REMARK INTRA:                  -0.996
REMARK UNBOUND:                -0.996
REMARK SMILES C=C(C)[C@]12C[C@@H](C)[C@@]34O[C@](Cc5ccccc5)(O[C@@H]1[C@@H]3C=C(COC(=O)Cc1ccc(O)c(OC)c1)C[C@]1(O)C(=O)C(C)=C[C@@H]41)O2
REMARK SMILES IDX 23 1 22 2 21 3 20 4 9 5 8 6 10 7 6 8 18 9 46 10 19 11 5 12
REMARK SMILES IDX 7 13 4 14 45 15 38 16 44 17 40 18 42 20 41 21 43 22 39 23
REMARK SMILES IDX 11 25 12 26 13 27 17 28 14 29 16 30 15 31 2 32 3 33 1 34
REMARK SMILES IDX 37 35 24 37 25 38 26 39 27 40 28 41 36 42 29 43 33 44 30 45
REMARK SMILES IDX 31 46 34 47 35 48 32 49
REMARK H PARENT 39 24 32 50
REMARK Flexibility Score: 90.00
ROOT
ATOM      1  C   UNL     1      67.412  85.599  79.940  1.00  0.00     0.264 C 
ENDROOT
BRANCH   1   2
ATOM      2  C   UNL     1      66.414  86.395  79.131  1.00  0.00    -0.033 C 
ATOM      3  C   UNL     1      66.175  86.045  77.851  1.00  0.00    -0.015 C 
BRANCH   3   4
ATOM      4  C   UNL     1      65.289  86.719  76.816  1.00  0.00     0.078 C 
ATOM      5  O   UNL     1      63.064  85.647  76.964  1.00  0.00    -0.319 OA
ATOM      6  C   UNL     1      63.763  86.917  77.151  1.00  0.00     0.095 C 
ATOM      7  C   UNL     1      63.436  84.907  75.786  1.00  0.00     0.289 C 
ATOM      8  C   UNL     1      63.184  87.988  76.137  1.00  0.00     0.023 C 
ATOM      9  O   UNL     1      64.834  84.628  75.771  1.00  0.00    -0.320 OA
ATOM     10  O   UNL     1      63.175  85.631  74.586  1.00  0.00    -0.313 OA
ATOM     11  C   UNL     1      65.349  85.936  75.481  1.00  0.00     0.170 C 
ATOM     12  C   UNL     1      63.885  87.896  74.746  1.00  0.00     0.049 C 
ATOM     13  C   UNL     1      61.659  87.957  75.943  1.00  0.00     0.011 C 
ATOM     14  C   UNL     1      64.339  86.469  74.435  1.00  0.00     0.122 C 
BRANCH   6  15
ATOM     15  C   UNL     1      63.568  87.249  78.658  1.00  0.00     0.086 C 
ATOM     16  C   UNL     1      64.572  88.248  79.270  1.00  0.00     0.140 CG0
ATOM     17  C   UNL     1      62.236  87.758  79.134  1.00  0.00    -0.010 C 
ATOM     18  C   UNL     1      63.721  88.989  80.280  1.00  0.00     0.190 C 
ATOM     19  G   UNL     1      65.765  87.543  79.915  1.00  0.00     0.000 G0
ATOM     20  C   UNL     1      62.288  88.716  80.065  1.00  0.00    -0.008 C 
ATOM     21  O   UNL     1      64.142  89.754  81.134  1.00  0.00    -0.291 OA
ATOM     22  C   UNL     1      61.198  89.381  80.808  1.00  0.00     0.048 C 
BRANCH  16  23
ATOM     23  O   UNL     1      64.993  89.262  78.373  1.00  0.00    -0.381 OA
ATOM     24  H   UNL     1      64.921  90.119  78.823  1.00  0.00     0.212 HD
ENDBRANCH  16  23
ENDBRANCH   6  15
BRANCH   7  25
ATOM     25  C   UNL     1      62.655  83.608  75.774  1.00  0.00     0.135 C 
BRANCH  25  26
ATOM     26  C   UNL     1      63.342  82.542  74.958  1.00  0.00    -0.040 A 
ATOM     27  C   UNL     1      64.307  81.725  75.550  1.00  0.00     0.004 A 
ATOM     28  C   UNL     1      63.014  82.371  73.614  1.00  0.00     0.004 A 
ATOM     29  C   UNL     1      64.943  80.739  74.796  1.00  0.00     0.000 A 
ATOM     30  C   UNL     1      63.650  81.385  72.860  1.00  0.00     0.000 A 
ATOM     31  C   UNL     1      64.615  80.569  73.451  1.00  0.00     0.000 A 
ENDBRANCH  25  26
ENDBRANCH   7  25
BRANCH  14  32
ATOM     32  C   UNL     1      64.847  86.321  73.038  1.00  0.00    -0.046 C 
ATOM     33  C   UNL     1      63.949  85.596  72.080  1.00  0.00     0.042 C 
ATOM     34  C   UNL     1      66.039  86.807  72.661  1.00  0.00     0.010 C 
ENDBRANCH  14  32
ENDBRANCH   3   4
BRANCH   2  35
ATOM     35  C   UNL     1      65.783  87.530  79.914  1.00  0.00     0.078 CG0
ATOM     36  G   UNL     1      64.599  88.250  79.271  1.00  0.00     0.000 G0
ENDBRANCH   2  35
ENDBRANCH   1   2
BRANCH   1  37
ATOM     37  O   UNL     1      67.147  85.779  81.315  1.00  0.00    -0.461 OA
BRANCH  37  38
ATOM     38  C   UNL     1      67.136  84.640  82.086  1.00  0.00     0.310 C 
ATOM     39  O   UNL     1      67.789  83.630  81.857  1.00  0.00    -0.252 OA
BRANCH  38  40
ATOM     40  C   UNL     1      66.196  84.829  83.253  1.00  0.00     0.158 C 
BRANCH  40  41
ATOM     41  C   UNL     1      66.906  85.219  84.523  1.00  0.00    -0.033 A 
ATOM     42  C   UNL     1      67.014  86.565  84.877  1.00  0.00     0.054 A 
ATOM     43  C   UNL     1      67.456  84.235  85.345  1.00  0.00     0.008 A 
ATOM     44  C   UNL     1      67.672  86.925  86.053  1.00  0.00     0.160 A 
ATOM     45  C   UNL     1      68.114  84.596  86.521  1.00  0.00     0.050 A 
ATOM     46  C   UNL     1      68.222  85.941  86.875  1.00  0.00     0.157 A 
BRANCH  44  47
ATOM     47  O   UNL     1      67.771  88.242  86.388  1.00  0.00    -0.493 OA
ATOM     48  C   UNL     1      67.431  89.194  85.382  1.00  0.00     0.278 C 
ENDBRANCH  44  47
BRANCH  46  49
ATOM     49  O   UNL     1      68.866  86.281  88.026  1.00  0.00    -0.504 OA
ATOM     50  H   UNL     1      69.703  86.722  87.802  1.00  0.00     0.293 HD
ENDBRANCH  46  49
ENDBRANCH  40  41
ENDBRANCH  38  40
ENDBRANCH  37  38
ENDBRANCH   1  37
TORSDOF 11
ENDMDL
MODEL 2
REMARK VINA RESULT:    -6.578     31.176     33.149
REMARK INTER + INTRA:         -12.573
REMARK INTER:                 -11.374
REMARK INTRA:                  -1.199
REMARK UNBOUND:                -0.996
REMARK SMILES C=C(C)[C@]12C[C@@H](C)[C@@]34O[C@](Cc5ccccc5)(O[C@@H]1[C@@H]3C=C(COC(=O)Cc1ccc(O)c(OC)c1)C[C@]1(O)C(=O)C(C)=C[C@@H]41)O2
REMARK SMILES IDX 23 1 22 2 21 3 20 4 9 5 8 6 10 7 6 8 18 9 46 10 19 11 5 12
REMARK SMILES IDX 7 13 4 14 45 15 38 16 44 17 40 18 42 20 41 21 43 22 39 23
REMARK SMILES IDX 11 25 12 26 13 27 17 28 14 29 16 30 15 31 2 32 3 33 1 34
REMARK SMILES IDX 37 35 24 37 25 38 26 39 27 40 28 41 36 42 29 43 33 44 30 45
REMARK SMILES IDX 31 46 34 47 35 48 32 49
REMARK H PARENT 39 24 32 50
REMARK Flexibility Score: 90.00
ROOT
ATOM      1  C   UNL     1      95.844  95.092  75.281  1.00  0.00     0.264 C 
ENDROOT
BRANCH   1   2
ATOM      2  C   UNL     1      96.100  96.499  74.796  1.00  0.00    -0.033 C 
ATOM      3  C   UNL     1      96.042  96.762  73.475  1.00  0.00    -0.015 C 
BRANCH   3   4
ATOM      4  C   UNL     1      96.332  98.058  72.736  1.00  0.00     0.078 C 
ATOM      5  O   UNL     1      94.180  99.258  72.516  1.00  0.00    -0.319 OA
ATOM      6  C   UNL     1      95.506  99.341  73.123  1.00  0.00     0.095 C 
ATOM      7  C   UNL     1      94.153  98.788  71.155  1.00  0.00     0.289 C 
ATOM      8  C   UNL     1      96.272 100.599  72.537  1.00  0.00     0.023 C 
ATOM      9  O   UNL     1      94.753  97.501  71.041  1.00  0.00    -0.320 OA
ATOM     10  O   UNL     1      94.888  99.635  70.276  1.00  0.00    -0.313 OA
ATOM     11  C   UNL     1      96.135  97.851  71.214  1.00  0.00     0.170 C 
ATOM     12  C   UNL     1      96.992 100.257  71.197  1.00  0.00     0.049 C 
ATOM     13  C   UNL     1      95.417 101.864  72.350  1.00  0.00     0.011 C 
ATOM     14  C   UNL     1      96.247  99.174  70.415  1.00  0.00     0.122 C 
BRANCH   6  15
ATOM     15  C   UNL     1      95.231  99.379  74.654  1.00  0.00     0.086 C 
ATOM     16  C   UNL     1      96.416  99.001  75.567  1.00  0.00     0.140 CG0
ATOM     17  C   UNL     1      94.699 100.640  75.276  1.00  0.00    -0.010 C 
ATOM     18  C   UNL     1      96.199  99.895  76.770  1.00  0.00     0.190 C 
ATOM     19  G   UNL     1      96.412  97.517  75.932  1.00  0.00     0.000 G0
ATOM     20  C   UNL     1      95.203 100.943  76.477  1.00  0.00    -0.008 C 
ATOM     21  O   UNL     1      96.795  99.809  77.833  1.00  0.00    -0.291 OA
ATOM     22  C   UNL     1      94.859 102.041  77.404  1.00  0.00     0.048 C 
BRANCH  16  23
ATOM     23  O   UNL     1      97.679  99.408  75.067  1.00  0.00    -0.381 OA
ATOM     24  H   UNL     1      97.537 100.104  74.404  1.00  0.00     0.212 HD
ENDBRANCH  16  23
ENDBRANCH   6  15
BRANCH   7  25
ATOM     25  C   UNL     1      92.708  98.722  70.703  1.00  0.00     0.135 C 
BRANCH  25  26
ATOM     26  C   UNL     1      92.264 100.000  70.037  1.00  0.00    -0.040 A 
ATOM     27  C   UNL     1      92.200 100.075  68.645  1.00  0.00     0.004 A 
ATOM     28  C   UNL     1      91.917 101.107  70.812  1.00  0.00     0.004 A 
ATOM     29  C   UNL     1      91.789 101.258  68.029  1.00  0.00     0.000 A 
ATOM     30  C   UNL     1      91.507 102.289  70.196  1.00  0.00     0.000 A 
ATOM     31  C   UNL     1      91.443 102.364  68.804  1.00  0.00     0.000 A 
ENDBRANCH  25  26
ENDBRANCH   7  25
BRANCH  14  32
ATOM     32  C   UNL     1      96.814  98.959  69.050  1.00  0.00    -0.046 C 
ATOM     33  C   UNL     1      96.513 100.020  68.033  1.00  0.00     0.042 C 
ATOM     34  C   UNL     1      97.551  97.879  68.749  1.00  0.00     0.010 C 
ENDBRANCH  14  32
ENDBRANCH   3   4
BRANCH   2  35
ATOM     35  C   UNL     1      96.393  97.473  75.922  1.00  0.00     0.078 CG0
ATOM     36  G   UNL     1      96.434  98.959  75.569  1.00  0.00     0.000 G0
ENDBRANCH   2  35
ENDBRANCH   1   2
BRANCH   1  37
ATOM     37  O   UNL     1      94.590  95.042  75.928  1.00  0.00    -0.461 OA
BRANCH  37  38
ATOM     38  C   UNL     1      94.490  94.178  76.995  1.00  0.00     0.310 C 
ATOM     39  O   UNL     1      93.458  93.634  77.364  1.00  0.00    -0.252 OA
BRANCH  38  40
ATOM     40  C   UNL     1      95.848  94.008  77.635  1.00  0.00     0.158 C 
BRANCH  40  41
ATOM     41  C   UNL     1      95.903  94.539  79.045  1.00  0.00    -0.033 A 
ATOM     42  C   UNL     1      96.292  95.858  79.279  1.00  0.00     0.054 A 
ATOM     43  C   UNL     1      95.564  93.712  80.115  1.00  0.00     0.008 A 
ATOM     44  C   UNL     1      96.344  96.349  80.583  1.00  0.00     0.160 A 
ATOM     45  C   UNL     1      95.616  94.203  81.420  1.00  0.00     0.050 A 
ATOM     46  C   UNL     1      96.005  95.521  81.654  1.00  0.00     0.157 A 
BRANCH  44  47
ATOM     47  O   UNL     1      96.726  97.639  80.799  1.00  0.00    -0.493 OA
ATOM     48  C   UNL     1      97.944  97.843  81.512  1.00  0.00     0.278 C 
ENDBRANCH  44  47
BRANCH  46  49
ATOM     49  O   UNL     1      96.051  95.990  82.932  1.00  0.00    -0.504 OA
ATOM     50  H   UNL     1      96.647  96.757  82.967  1.00  0.00     0.293 HD
ENDBRANCH  46  49
ENDBRANCH  40  41
ENDBRANCH  38  40
ENDBRANCH  37  38
ENDBRANCH   1  37
TORSDOF 11
ENDMDL
MODEL 3
REMARK VINA RESULT:    -6.567     31.550     34.462
REMARK INTER + INTRA:         -12.553
REMARK INTER:                 -11.491
REMARK INTRA:                  -1.062
REMARK UNBOUND:                -0.996
REMARK SMILES C=C(C)[C@]12C[C@@H](C)[C@@]34O[C@](Cc5ccccc5)(O[C@@H]1[C@@H]3C=C(COC(=O)Cc1ccc(O)c(OC)c1)C[C@]1(O)C(=O)C(C)=C[C@@H]41)O2
REMARK SMILES IDX 23 1 22 2 21 3 20 4 9 5 8 6 10 7 6 8 18 9 46 10 19 11 5 12
REMARK SMILES IDX 7 13 4 14 45 15 38 16 44 17 40 18 42 20 41 21 43 22 39 23
REMARK SMILES IDX 11 25 12 26 13 27 17 28 14 29 16 30 15 31 2 32 3 33 1 34
REMARK SMILES IDX 37 35 24 37 25 38 26 39 27 40 28 41 36 42 29 43 33 44 30 45
REMARK SMILES IDX 31 46 34 47 35 48 32 49
REMARK H PARENT 39 24 32 50
REMARK Flexibility Score: 90.00
ROOT
ATOM      1  C   UNL     1      95.178  93.895  75.910  1.00  0.00     0.264 C 
ENDROOT
BRANCH   1   2
ATOM      2  C   UNL     1      95.982  95.169  76.021  1.00  0.00    -0.033 C 
ATOM      3  C   UNL     1      96.297  95.645  77.243  1.00  0.00    -0.015 C 
BRANCH   3   4
ATOM      4  C   UNL     1      97.020  96.927  77.621  1.00  0.00     0.078 C 
ATOM      5  O   UNL     1      99.423  96.372  77.806  1.00  0.00    -0.319 OA
ATOM      6  C   UNL     1      98.465  97.170  77.046  1.00  0.00     0.095 C 
ATOM      7  C   UNL     1      99.226  96.366  79.233  1.00  0.00     0.289 C 
ATOM      8  C   UNL     1      98.802  98.708  77.229  1.00  0.00     0.023 C 
ATOM      9  O   UNL     1      97.922  95.901  79.572  1.00  0.00    -0.320 OA
ATOM     10  O   UNL     1      99.328  97.670  79.799  1.00  0.00    -0.313 OA
ATOM     11  C   UNL     1      97.136  97.030  79.162  1.00  0.00     0.170 C 
ATOM     12  C   UNL     1      98.143  99.288  78.518  1.00  0.00     0.049 C 
ATOM     13  C   UNL     1     100.298  99.062  77.215  1.00  0.00     0.011 C 
ATOM     14  C   UNL     1      98.011  98.227  79.612  1.00  0.00     0.122 C 
BRANCH   6  15
ATOM     15  C   UNL     1      98.577  96.630  75.591  1.00  0.00     0.086 C 
ATOM     16  C   UNL     1      97.377  96.916  74.664  1.00  0.00     0.140 CG0
ATOM     17  C   UNL     1      99.765  97.012  74.753  1.00  0.00    -0.010 C 
ATOM     18  C   UNL     1      98.043  97.102  73.317  1.00  0.00     0.190 C 
ATOM     19  G   UNL     1      96.363  95.774  74.664  1.00  0.00     0.000 G0
ATOM     20  C   UNL     1      99.502  97.257  73.465  1.00  0.00    -0.008 C 
ATOM     21  O   UNL     1      97.462  97.168  72.244  1.00  0.00    -0.291 OA
ATOM     22  C   UNL     1     100.419  97.572  72.350  1.00  0.00     0.048 C 
BRANCH  16  23
ATOM     23  O   UNL     1      96.750  98.165  74.906  1.00  0.00    -0.381 OA
ATOM     24  H   UNL     1      97.408  98.869  74.779  1.00  0.00     0.212 HD
ENDBRANCH  16  23
ENDBRANCH   6  15
BRANCH   7  25
ATOM     25  C   UNL     1     100.270  95.461  79.854  1.00  0.00     0.135 C 
BRANCH  25  26
ATOM     26  C   UNL     1     101.618  95.617  79.194  1.00  0.00    -0.040 A 
ATOM     27  C   UNL     1     102.420  96.718  79.498  1.00  0.00     0.004 A 
ATOM     28  C   UNL     1     102.062  94.661  78.281  1.00  0.00     0.004 A 
ATOM     29  C   UNL     1     103.666  96.862  78.887  1.00  0.00     0.000 A 
ATOM     30  C   UNL     1     103.309  94.806  77.671  1.00  0.00     0.000 A 
ATOM     31  C   UNL     1     104.110  95.907  77.974  1.00  0.00     0.000 A 
ENDBRANCH  25  26
ENDBRANCH   7  25
BRANCH  14  32
ATOM     32  C   UNL     1      97.553  98.799  80.914  1.00  0.00    -0.046 C 
ATOM     33  C   UNL     1      96.069  98.915  81.101  1.00  0.00     0.042 C 
ATOM     34  C   UNL     1      98.419  99.187  81.862  1.00  0.00     0.010 C 
ENDBRANCH  14  32
ENDBRANCH   3   4
BRANCH   2  35
ATOM     35  C   UNL     1      96.348  95.760  74.673  1.00  0.00     0.078 CG0
ATOM     36  G   UNL     1      97.349  96.915  74.666  1.00  0.00     0.000 G0
ENDBRANCH   2  35
ENDBRANCH   1   2
BRANCH   1  37
ATOM     37  O   UNL     1      94.245  93.837  76.968  1.00  0.00    -0.461 OA
BRANCH  37  38
ATOM     38  C   UNL     1      92.931  93.645  76.611  1.00  0.00     0.310 C 
ATOM     39  O   UNL     1      92.021  93.391  77.389  1.00  0.00    -0.252 OA
BRANCH  38  40
ATOM     40  C   UNL     1      92.787  93.794  75.115  1.00  0.00     0.158 C 
BRANCH  40  41
ATOM     41  C   UNL     1      91.823  92.803  74.515  1.00  0.00    -0.033 A 
ATOM     42  C   UNL     1      91.984  91.439  74.758  1.00  0.00     0.054 A 
ATOM     43  C   UNL     1      90.770  93.250  73.717  1.00  0.00     0.008 A 
ATOM     44  C   UNL     1      91.091  90.521  74.203  1.00  0.00     0.160 A 
ATOM     45  C   UNL     1      89.877  92.333  73.162  1.00  0.00     0.050 A 
ATOM     46  C   UNL     1      90.038  90.969  73.404  1.00  0.00     0.157 A 
BRANCH  44  47
ATOM     47  O   UNL     1      91.258  89.192  74.447  1.00  0.00    -0.493 OA
ATOM     48  C   UNL     1      90.688  88.677  75.649  1.00  0.00     0.278 C 
ENDBRANCH  44  47
BRANCH  46  49
ATOM     49  O   UNL     1      89.160  90.083  72.858  1.00  0.00    -0.504 OA
ATOM     50  H   UNL     1      88.641  90.535  72.171  1.00  0.00     0.293 HD
ENDBRANCH  46  49
ENDBRANCH  40  41
ENDBRANCH  38  40
ENDBRANCH  37  38
ENDBRANCH   1  37
TORSDOF 11
ENDMDL
MODEL 4
REMARK VINA RESULT:    -6.557      2.035      2.742
REMARK INTER + INTRA:         -12.536
REMARK INTER:                 -11.134
REMARK INTRA:                  -1.402
REMARK UNBOUND:                -0.996
REMARK SMILES C=C(C)[C@]12C[C@@H](C)[C@@]34O[C@](Cc5ccccc5)(O[C@@H]1[C@@H]3C=C(COC(=O)Cc1ccc(O)c(OC)c1)C[C@]1(O)C(=O)C(C)=C[C@@H]41)O2
REMARK SMILES IDX 23 1 22 2 21 3 20 4 9 5 8 6 10 7 6 8 18 9 46 10 19 11 5 12
REMARK SMILES IDX 7 13 4 14 45 15 38 16 44 17 40 18 42 20 41 21 43 22 39 23
REMARK SMILES IDX 11 25 12 26 13 27 17 28 14 29 16 30 15 31 2 32 3 33 1 34
REMARK SMILES IDX 37 35 24 37 25 38 26 39 27 40 28 41 36 42 29 43 33 44 30 45
REMARK SMILES IDX 31 46 34 47 35 48 32 49
REMARK H PARENT 39 24 32 50
REMARK Flexibility Score: 90.00
ROOT
ATOM      1  C   UNL     1      66.778  85.047  80.517  1.00  0.00     0.264 C 
ENDROOT
BRANCH   1   2
ATOM      2  C   UNL     1      65.981  86.047  79.712  1.00  0.00    -0.033 C 
ATOM      3  C   UNL     1      65.863  85.876  78.379  1.00  0.00    -0.015 C 
BRANCH   3   4
ATOM      4  C   UNL     1      65.190  86.768  77.349  1.00  0.00     0.078 C 
ATOM      5  O   UNL     1      62.854  85.985  77.134  1.00  0.00    -0.319 OA
ATOM      6  C   UNL     1      63.670  87.125  77.545  1.00  0.00     0.095 C 
ATOM      7  C   UNL     1      63.272  85.334  75.919  1.00  0.00     0.289 C 
ATOM      8  C   UNL     1      63.344  88.366  76.615  1.00  0.00     0.023 C 
ATOM      9  O   UNL     1      64.620  84.879  76.015  1.00  0.00    -0.320 OA
ATOM     10  O   UNL     1      63.241  86.211  74.796  1.00  0.00    -0.313 OA
ATOM     11  C   UNL     1      65.315  86.133  75.942  1.00  0.00     0.170 C 
ATOM     12  C   UNL     1      64.188  88.334  75.304  1.00  0.00     0.049 C 
ATOM     13  C   UNL     1      61.859  88.554  76.263  1.00  0.00     0.011 C 
ATOM     14  C   UNL     1      64.505  86.903  74.869  1.00  0.00     0.122 C 
BRANCH   6  15
ATOM     15  C   UNL     1      63.338  87.315  79.054  1.00  0.00     0.086 C 
ATOM     16  C   UNL     1      64.372  88.105  79.883  1.00  0.00     0.140 CG0
ATOM     17  C   UNL     1      62.027  87.935  79.448  1.00  0.00    -0.010 C 
ATOM     18  C   UNL     1      63.500  88.835  80.882  1.00  0.00     0.190 C 
ATOM     19  G   UNL     1      65.393  87.189  80.557  1.00  0.00     0.000 G0
ATOM     20  C   UNL     1      62.079  88.773  80.489  1.00  0.00    -0.008 C 
ATOM     21  O   UNL     1      63.902  89.445  81.861  1.00  0.00    -0.291 OA
ATOM     22  C   UNL     1      60.993  89.487  81.191  1.00  0.00     0.048 C 
BRANCH  16  23
ATOM     23  O   UNL     1      65.008  89.148  79.163  1.00  0.00    -0.381 OA
ATOM     24  H   UNL     1      64.514  89.299  78.340  1.00  0.00     0.212 HD
ENDBRANCH  16  23
ENDBRANCH   6  15
BRANCH   7  25
ATOM     25  C   UNL     1      62.351  84.157  75.668  1.00  0.00     0.135 C 
BRANCH  25  26
ATOM     26  C   UNL     1      63.096  82.960  75.134  1.00  0.00    -0.040 A 
ATOM     27  C   UNL     1      63.462  81.925  75.995  1.00  0.00     0.004 A 
ATOM     28  C   UNL     1      63.418  82.886  73.779  1.00  0.00     0.004 A 
ATOM     29  C   UNL     1      64.151  80.817  75.501  1.00  0.00     0.000 A 
ATOM     30  C   UNL     1      64.107  81.777  73.285  1.00  0.00     0.000 A 
ATOM     31  C   UNL     1      64.473  80.743  74.147  1.00  0.00     0.000 A 
ENDBRANCH  25  26
ENDBRANCH   7  25
BRANCH  14  32
ATOM     32  C   UNL     1      65.153  86.841  73.525  1.00  0.00    -0.046 C 
ATOM     33  C   UNL     1      66.612  87.187  73.476  1.00  0.00     0.042 C 
ATOM     34  C   UNL     1      64.470  86.497  72.423  1.00  0.00     0.010 C 
ENDBRANCH  14  32
ENDBRANCH   3   4
BRANCH   2  35
ATOM     35  C   UNL     1      65.389  87.156  80.560  1.00  0.00     0.078 CG0
ATOM     36  G   UNL     1      64.409  88.111  79.877  1.00  0.00     0.000 G0
ENDBRANCH   2  35
ENDBRANCH   1   2
BRANCH   1  37
ATOM     37  O   UNL     1      67.047  85.584  81.794  1.00  0.00    -0.461 OA
BRANCH  37  38
ATOM     38  C   UNL     1      66.888  84.729  82.859  1.00  0.00     0.310 C 
ATOM     39  O   UNL     1      67.093  83.524  82.830  1.00  0.00    -0.252 OA
BRANCH  38  40
ATOM     40  C   UNL     1      66.420  85.509  84.066  1.00  0.00     0.158 C 
BRANCH  40  41
ATOM     41  C   UNL     1      64.949  85.336  84.344  1.00  0.00    -0.033 A 
ATOM     42  C   UNL     1      64.515  84.313  85.188  1.00  0.00     0.054 A 
ATOM     43  C   UNL     1      64.022  86.197  83.758  1.00  0.00     0.008 A 
ATOM     44  C   UNL     1      63.153  84.153  85.446  1.00  0.00     0.160 A 
ATOM     45  C   UNL     1      62.661  86.037  84.015  1.00  0.00     0.050 A 
ATOM     46  C   UNL     1      62.226  85.015  84.859  1.00  0.00     0.157 A 
BRANCH  44  47
ATOM     47  O   UNL     1      62.741  83.151  86.271  1.00  0.00    -0.493 OA
ATOM     48  C   UNL     1      63.751  82.448  86.992  1.00  0.00     0.278 C 
ENDBRANCH  44  47
BRANCH  46  49
ATOM     49  O   UNL     1      60.894  84.869  85.103  1.00  0.00    -0.504 OA
ATOM     50  H   UNL     1      60.431  85.680  84.832  1.00  0.00     0.293 HD
ENDBRANCH  46  49
ENDBRANCH  40  41
ENDBRANCH  38  40
ENDBRANCH  37  38
ENDBRANCH   1  37
TORSDOF 11
ENDMDL
MODEL 5
REMARK VINA RESULT:    -6.347     12.846     17.430
REMARK INTER + INTRA:         -12.166
REMARK INTER:                 -11.133
REMARK INTRA:                  -1.033
REMARK UNBOUND:                -0.996
REMARK SMILES C=C(C)[C@]12C[C@@H](C)[C@@]34O[C@](Cc5ccccc5)(O[C@@H]1[C@@H]3C=C(COC(=O)Cc1ccc(O)c(OC)c1)C[C@]1(O)C(=O)C(C)=C[C@@H]41)O2
REMARK SMILES IDX 23 1 22 2 21 3 20 4 9 5 8 6 10 7 6 8 18 9 46 10 19 11 5 12
REMARK SMILES IDX 7 13 4 14 45 15 38 16 44 17 40 18 42 20 41 21 43 22 39 23
REMARK SMILES IDX 11 25 12 26 13 27 17 28 14 29 16 30 15 31 2 32 3 33 1 34
REMARK SMILES IDX 37 35 24 37 25 38 26 39 27 40 28 41 36 42 29 43 33 44 30 45
REMARK SMILES IDX 31 46 34 47 35 48 32 49
REMARK H PARENT 39 24 32 50
REMARK Flexibility Score: 90.00
ROOT
ATOM      1  C   UNL     1      76.537  90.177  63.955  1.00  0.00     0.264 C 
ENDROOT
BRANCH   1   2
ATOM      2  C   UNL     1      76.222  89.221  65.082  1.00  0.00    -0.033 C 
ATOM      3  C   UNL     1      75.144  89.449  65.859  1.00  0.00    -0.015 C 
BRANCH   3   4
ATOM      4  C   UNL     1      74.662  88.692  67.085  1.00  0.00     0.078 C 
ATOM      5  O   UNL     1      73.065  86.978  66.292  1.00  0.00    -0.319 OA
ATOM      6  C   UNL     1      74.360  87.153  66.945  1.00  0.00     0.095 C 
ATOM      7  C   UNL     1      72.021  87.861  66.744  1.00  0.00     0.289 C 
ATOM      8  C   UNL     1      74.297  86.542  68.405  1.00  0.00     0.023 C 
ATOM      9  O   UNL     1      72.395  89.227  66.584  1.00  0.00    -0.320 OA
ATOM     10  O   UNL     1      71.739  87.699  68.131  1.00  0.00    -0.313 OA
ATOM     11  C   UNL     1      73.369  89.346  67.632  1.00  0.00     0.170 C 
ATOM     12  C   UNL     1      73.727  87.569  69.431  1.00  0.00     0.049 C 
ATOM     13  C   UNL     1      73.532  85.215  68.532  1.00  0.00     0.011 C 
ATOM     14  C   UNL     1      72.728  88.525  68.779  1.00  0.00     0.122 C 
BRANCH   6  15
ATOM     15  C   UNL     1      75.377  86.477  65.980  1.00  0.00     0.086 C 
ATOM     16  C   UNL     1      76.853  86.895  66.146  1.00  0.00     0.140 CG0
ATOM     17  C   UNL     1      75.443  84.977  65.913  1.00  0.00    -0.010 C 
ATOM     18  C   UNL     1      77.593  85.616  65.816  1.00  0.00     0.190 C 
ATOM     19  G   UNL     1      77.234  88.048  65.218  1.00  0.00     0.000 G0
ATOM     20  C   UNL     1      76.672  84.464  65.793  1.00  0.00    -0.008 C 
ATOM     21  O   UNL     1      78.798  85.520  65.640  1.00  0.00    -0.291 OA
ATOM     22  C   UNL     1      77.104  83.062  65.619  1.00  0.00     0.048 C 
BRANCH  16  23
ATOM     23  O   UNL     1      77.225  87.166  67.487  1.00  0.00    -0.381 OA
ATOM     24  H   UNL     1      77.894  86.515  67.757  1.00  0.00     0.212 HD
ENDBRANCH  16  23
ENDBRANCH   6  15
BRANCH   7  25
ATOM     25  C   UNL     1      70.772  87.574  65.936  1.00  0.00     0.135 C 
BRANCH  25  26
ATOM     26  C   UNL     1      70.272  86.167  66.149  1.00  0.00    -0.040 A 
ATOM     27  C   UNL     1      70.898  85.100  65.503  1.00  0.00     0.004 A 
ATOM     28  C   UNL     1      69.186  85.932  66.991  1.00  0.00     0.004 A 
ATOM     29  C   UNL     1      70.436  83.798  65.699  1.00  0.00     0.000 A 
ATOM     30  C   UNL     1      68.725  84.630  67.188  1.00  0.00     0.000 A 
ATOM     31  C   UNL     1      69.350  83.563  66.541  1.00  0.00     0.000 A 
ENDBRANCH  25  26
ENDBRANCH   7  25
BRANCH  14  32
ATOM     32  C   UNL     1      72.035  89.398  69.774  1.00  0.00    -0.046 C 
ATOM     33  C   UNL     1      70.564  89.603  69.563  1.00  0.00     0.042 C 
ATOM     34  C   UNL     1      72.690  89.965  70.798  1.00  0.00     0.010 C 
ENDBRANCH  14  32
ENDBRANCH   3   4
BRANCH   2  35
ATOM     35  C   UNL     1      77.210  88.074  65.181  1.00  0.00     0.078 CG0
ATOM     36  G   UNL     1      76.858  86.929  66.130  1.00  0.00     0.000 G0
ENDBRANCH   2  35
ENDBRANCH   1   2
BRANCH   1  37
ATOM     37  O   UNL     1      77.216  91.301  64.473  1.00  0.00    -0.461 OA
BRANCH  37  38
ATOM     38  C   UNL     1      76.566  92.509  64.363  1.00  0.00     0.310 C 
ATOM     39  O   UNL     1      75.356  92.666  64.452  1.00  0.00    -0.252 OA
BRANCH  38  40
ATOM     40  C   UNL     1      77.575  93.605  64.116  1.00  0.00     0.158 C 
BRANCH  40  41
ATOM     41  C   UNL     1      78.023  94.287  65.383  1.00  0.00    -0.033 A 
ATOM     42  C   UNL     1      77.168  94.344  66.484  1.00  0.00     0.054 A 
ATOM     43  C   UNL     1      79.292  94.862  65.455  1.00  0.00     0.008 A 
ATOM     44  C   UNL     1      77.582  94.976  67.657  1.00  0.00     0.160 A 
ATOM     45  C   UNL     1      79.706  95.494  66.628  1.00  0.00     0.050 A 
ATOM     46  C   UNL     1      78.852  95.551  67.729  1.00  0.00     0.157 A 
BRANCH  44  47
ATOM     47  O   UNL     1      76.739  95.026  68.725  1.00  0.00    -0.493 OA
ATOM     48  C   UNL     1      75.918  93.882  68.957  1.00  0.00     0.278 C 
ENDBRANCH  44  47
BRANCH  46  49
ATOM     49  O   UNL     1      79.268  96.170  68.868  1.00  0.00    -0.504 OA
ATOM     50  H   UNL     1      78.786  95.796  69.625  1.00  0.00     0.293 HD
ENDBRANCH  46  49
ENDBRANCH  40  41
ENDBRANCH  38  40
ENDBRANCH  37  38
ENDBRANCH   1  37
TORSDOF 11
ENDMDL
MODEL 6
REMARK VINA RESULT:    -6.138     30.717     32.642
REMARK INTER + INTRA:         -11.799
REMARK INTER:                 -11.535
REMARK INTRA:                  -0.264
REMARK UNBOUND:                -0.996
REMARK SMILES C=C(C)[C@]12C[C@@H](C)[C@@]34O[C@](Cc5ccccc5)(O[C@@H]1[C@@H]3C=C(COC(=O)Cc1ccc(O)c(OC)c1)C[C@]1(O)C(=O)C(C)=C[C@@H]41)O2
REMARK SMILES IDX 23 1 22 2 21 3 20 4 9 5 8 6 10 7 6 8 18 9 46 10 19 11 5 12
REMARK SMILES IDX 7 13 4 14 45 15 38 16 44 17 40 18 42 20 41 21 43 22 39 23
REMARK SMILES IDX 11 25 12 26 13 27 17 28 14 29 16 30 15 31 2 32 3 33 1 34
REMARK SMILES IDX 37 35 24 37 25 38 26 39 27 40 28 41 36 42 29 43 33 44 30 45
REMARK SMILES IDX 31 46 34 47 35 48 32 49
REMARK H PARENT 39 24 32 50
REMARK Flexibility Score: 90.00
ROOT
ATOM      1  C   UNL     1      96.788  98.865  72.392  1.00  0.00     0.264 C 
ENDROOT
BRANCH   1   2
ATOM      2  C   UNL     1      96.057 100.122  71.985  1.00  0.00    -0.033 C 
ATOM      3  C   UNL     1      95.365 100.137  70.828  1.00  0.00    -0.015 C 
BRANCH   3   4
ATOM      4  C   UNL     1      94.619 101.284  70.164  1.00  0.00     0.078 C 
ATOM      5  O   UNL     1      92.274 101.165  70.943  1.00  0.00    -0.319 OA
ATOM      6  C   UNL     1      93.474 101.999  70.972  1.00  0.00     0.095 C 
ATOM      7  C   UNL     1      91.969 100.568  69.668  1.00  0.00     0.289 C 
ATOM      8  C   UNL     1      93.169 103.379  70.254  1.00  0.00     0.023 C 
ATOM      9  O   UNL     1      93.053  99.770  69.198  1.00  0.00    -0.320 OA
ATOM     10  O   UNL     1      91.742 101.544  68.655  1.00  0.00    -0.313 OA
ATOM     11  C   UNL     1      93.986 100.800  68.836  1.00  0.00     0.170 C 
ATOM     12  C   UNL     1      93.372 103.276  68.711  1.00  0.00     0.049 C 
ATOM     13  C   UNL     1      91.788 103.985  70.549  1.00  0.00     0.011 C 
ATOM     14  C   UNL     1      93.069 101.870  68.192  1.00  0.00     0.122 C 
BRANCH   6  15
ATOM     15  C   UNL     1      93.842 102.098  72.481  1.00  0.00     0.086 C 
ATOM     16  C   UNL     1      95.296 102.502  72.801  1.00  0.00     0.140 CG0
ATOM     17  C   UNL     1      93.027 102.983  73.382  1.00  0.00    -0.010 C 
ATOM     18  C   UNL     1      95.137 103.314  74.069  1.00  0.00     0.190 C 
ATOM     19  G   UNL     1      96.203 101.288  72.993  1.00  0.00     0.000 G0
ATOM     20  C   UNL     1      93.722 103.659  74.303  1.00  0.00    -0.008 C 
ATOM     21  O   UNL     1      96.050 103.688  74.790  1.00  0.00    -0.291 OA
ATOM     22  C   UNL     1      93.253 104.542  75.390  1.00  0.00     0.048 C 
BRANCH  16  23
ATOM     23  O   UNL     1      95.852 103.423  71.877  1.00  0.00    -0.381 OA
ATOM     24  H   UNL     1      96.166 104.199  72.369  1.00  0.00     0.212 HD
ENDBRANCH  16  23
ENDBRANCH   6  15
BRANCH   7  25
ATOM     25  C   UNL     1      90.732  99.708  69.830  1.00  0.00     0.135 C 
BRANCH  25  26
ATOM     26  C   UNL     1      90.470  98.861  68.609  1.00  0.00    -0.040 A 
ATOM     27  C   UNL     1      90.278  99.468  67.367  1.00  0.00     0.004 A 
ATOM     28  C   UNL     1      90.420  97.472  68.721  1.00  0.00     0.004 A 
ATOM     29  C   UNL     1      90.036  98.685  66.238  1.00  0.00     0.000 A 
ATOM     30  C   UNL     1      90.177  96.689  67.592  1.00  0.00     0.000 A 
ATOM     31  C   UNL     1      89.985  97.296  66.351  1.00  0.00     0.000 A 
ENDBRANCH  25  26
ENDBRANCH   7  25
BRANCH  14  32
ATOM     32  C   UNL     1      93.079 101.794  66.700  1.00  0.00    -0.046 C 
ATOM     33  C   UNL     1      94.405 101.508  66.061  1.00  0.00     0.042 C 
ATOM     34  C   UNL     1      91.966 101.970  65.973  1.00  0.00     0.010 C 
ENDBRANCH  14  32
ENDBRANCH   3   4
BRANCH   2  35
ATOM     35  C   UNL     1      96.205 101.249  72.990  1.00  0.00     0.078 CG0
ATOM     36  G   UNL     1      95.316 102.477  72.799  1.00  0.00     0.000 G0
ENDBRANCH   2  35
ENDBRANCH   1   2
BRANCH   1  37
ATOM     37  O   UNL     1      95.869  97.796  72.471  1.00  0.00    -0.461 OA
BRANCH  37  38
ATOM     38  C   UNL     1      95.467  97.431  73.735  1.00  0.00     0.310 C 
ATOM     39  O   UNL     1      94.716  98.082  74.448  1.00  0.00    -0.252 OA
BRANCH  38  40
ATOM     40  C   UNL     1      96.094  96.107  74.102  1.00  0.00     0.158 C 
BRANCH  40  41
ATOM     41  C   UNL     1      95.326  95.367  75.166  1.00  0.00    -0.033 A 
ATOM     42  C   UNL     1      93.943  95.217  75.050  1.00  0.00     0.054 A 
ATOM     43  C   UNL     1      95.995  94.832  76.266  1.00  0.00     0.008 A 
ATOM     44  C   UNL     1      93.231  94.532  76.035  1.00  0.00     0.160 A 
ATOM     45  C   UNL     1      95.284  94.147  77.251  1.00  0.00     0.050 A 
ATOM     46  C   UNL     1      93.902  93.997  77.136  1.00  0.00     0.157 A 
BRANCH  44  47
ATOM     47  O   UNL     1      91.882  94.392  75.912  1.00  0.00    -0.493 OA
ATOM     48  C   UNL     1      91.390  93.085  75.619  1.00  0.00     0.278 C 
ENDBRANCH  44  47
BRANCH  46  49
ATOM     49  O   UNL     1      93.218  93.325  78.103  1.00  0.00    -0.504 OA
ATOM     50  H   UNL     1      93.030  92.424  77.791  1.00  0.00     0.293 HD
ENDBRANCH  46  49
ENDBRANCH  40  41
ENDBRANCH  38  40
ENDBRANCH  37  38
ENDBRANCH   1  37
TORSDOF 11
ENDMDL
MODEL 7
REMARK VINA RESULT:    -5.709     30.734     33.051
REMARK INTER + INTRA:         -11.044
REMARK INTER:                 -10.495
REMARK INTRA:                  -0.548
REMARK UNBOUND:                -0.996
REMARK SMILES C=C(C)[C@]12C[C@@H](C)[C@@]34O[C@](Cc5ccccc5)(O[C@@H]1[C@@H]3C=C(COC(=O)Cc1ccc(O)c(OC)c1)C[C@]1(O)C(=O)C(C)=C[C@@H]41)O2
REMARK SMILES IDX 23 1 22 2 21 3 20 4 9 5 8 6 10 7 6 8 18 9 46 10 19 11 5 12
REMARK SMILES IDX 7 13 4 14 45 15 38 16 44 17 40 18 42 20 41 21 43 22 39 23
REMARK SMILES IDX 11 25 12 26 13 27 17 28 14 29 16 30 15 31 2 32 3 33 1 34
REMARK SMILES IDX 37 35 24 37 25 38 26 39 27 40 28 41 36 42 29 43 33 44 30 45
REMARK SMILES IDX 31 46 34 47 35 48 32 49
REMARK H PARENT 39 24 32 50
REMARK Flexibility Score: 90.00
ROOT
ATOM      1  C   UNL     1      91.577 106.143  71.327  1.00  0.00     0.264 C 
ENDROOT
BRANCH   1   2
ATOM      2  C   UNL     1      92.061 105.418  70.093  1.00  0.00    -0.033 C 
ATOM      3  C   UNL     1      92.687 104.231  70.229  1.00  0.00    -0.015 C 
BRANCH   3   4
ATOM      4  C   UNL     1      93.328 103.352  69.168  1.00  0.00     0.078 C 
ATOM      5  O   UNL     1      91.603 101.740  68.430  1.00  0.00    -0.319 OA
ATOM      6  C   UNL     1      92.436 102.850  67.972  1.00  0.00     0.095 C 
ATOM      7  C   UNL     1      92.268 100.774  69.265  1.00  0.00     0.289 C 
ATOM      8  C   UNL     1      93.407 102.339  66.830  1.00  0.00     0.023 C 
ATOM      9  O   UNL     1      92.828 101.390  70.423  1.00  0.00    -0.320 OA
ATOM     10  O   UNL     1      93.359 100.143  68.600  1.00  0.00    -0.313 OA
ATOM     11  C   UNL     1      93.933 102.088  69.827  1.00  0.00     0.170 C 
ATOM     12  C   UNL     1      94.706 101.711  67.423  1.00  0.00     0.049 C 
ATOM     13  C   UNL     1      92.783 101.363  65.820  1.00  0.00     0.011 C 
ATOM     14  C   UNL     1      94.452 101.066  68.785  1.00  0.00     0.122 C 
BRANCH   6  15
ATOM     15  C   UNL     1      91.419 103.947  67.544  1.00  0.00     0.086 C 
ATOM     16  C   UNL     1      91.966 105.388  67.465  1.00  0.00     0.140 CG0
ATOM     17  C   UNL     1      90.665 103.789  66.253  1.00  0.00    -0.010 C 
ATOM     18  C   UNL     1      91.181 105.973  66.311  1.00  0.00     0.190 C 
ATOM     19  G   UNL     1      91.753 106.158  68.768  1.00  0.00     0.000 G0
ATOM     20  C   UNL     1      90.490 104.914  65.551  1.00  0.00    -0.008 C 
ATOM     21  O   UNL     1      91.150 107.154  66.001  1.00  0.00    -0.291 OA
ATOM     22  C   UNL     1      89.739 105.147  64.300  1.00  0.00     0.048 C 
BRANCH  16  23
ATOM     23  O   UNL     1      93.314 105.467  67.032  1.00  0.00    -0.381 OA
ATOM     24  H   UNL     1      93.891 105.231  67.778  1.00  0.00     0.212 HD
ENDBRANCH  16  23
ENDBRANCH   6  15
BRANCH   7  25
ATOM     25  C   UNL     1      91.255  99.727  69.682  1.00  0.00     0.135 C 
BRANCH  25  26
ATOM     26  C   UNL     1      90.726  98.952  68.501  1.00  0.00    -0.040 A 
ATOM     27  C   UNL     1      90.214  99.630  67.395  1.00  0.00     0.004 A 
ATOM     28  C   UNL     1      90.749  97.558  68.514  1.00  0.00     0.004 A 
ATOM     29  C   UNL     1      89.724  98.913  66.302  1.00  0.00     0.000 A 
ATOM     30  C   UNL     1      90.260  96.841  67.422  1.00  0.00     0.000 A 
ATOM     31  C   UNL     1      89.747  97.519  66.316  1.00  0.00     0.000 A 
ENDBRANCH  25  26
ENDBRANCH   7  25
BRANCH  14  32
ATOM     32  C   UNL     1      95.633 100.302  69.289  1.00  0.00    -0.046 C 
ATOM     33  C   UNL     1      95.828 100.287  70.776  1.00  0.00     0.042 C 
ATOM     34  C   UNL     1      96.472  99.665  68.458  1.00  0.00     0.010 C 
ENDBRANCH  14  32
ENDBRANCH   3   4
BRANCH   2  35
ATOM     35  C   UNL     1      91.753 106.161  68.807  1.00  0.00     0.078 CG0
ATOM     36  G   UNL     1      91.965 105.406  67.496  1.00  0.00     0.000 G0
ENDBRANCH   2  35
ENDBRANCH   1   2
BRANCH   1  37
ATOM     37  O   UNL     1      91.825 105.346  72.465  1.00  0.00    -0.461 OA
BRANCH  37  38
ATOM     38  C   UNL     1      90.810 105.275  73.391  1.00  0.00     0.310 C 
ATOM     39  O   UNL     1      89.928 106.110  73.531  1.00  0.00    -0.252 OA
BRANCH  38  40
ATOM     40  C   UNL     1      90.955 104.009  74.203  1.00  0.00     0.158 C 
BRANCH  40  41
ATOM     41  C   UNL     1      90.374 104.129  75.588  1.00  0.00    -0.033 A 
ATOM     42  C   UNL     1      91.199 104.457  76.664  1.00  0.00     0.054 A 
ATOM     43  C   UNL     1      89.012 103.913  75.794  1.00  0.00     0.008 A 
ATOM     44  C   UNL     1      90.661 104.569  77.947  1.00  0.00     0.160 A 
ATOM     45  C   UNL     1      88.474 104.025  77.076  1.00  0.00     0.050 A 
ATOM     46  C   UNL     1      89.298 104.352  78.153  1.00  0.00     0.157 A 
BRANCH  44  47
ATOM     47  O   UNL     1      91.477 104.889  78.990  1.00  0.00    -0.493 OA
ATOM     48  C   UNL     1      92.126 103.810  79.660  1.00  0.00     0.278 C 
ENDBRANCH  44  47
BRANCH  46  49
ATOM     49  O   UNL     1      88.762 104.459  79.400  1.00  0.00    -0.504 OA
ATOM     50  H   UNL     1      88.684 103.571  79.788  1.00  0.00     0.293 HD
ENDBRANCH  46  49
ENDBRANCH  40  41
ENDBRANCH  38  40
ENDBRANCH  37  38
ENDBRANCH   1  37
TORSDOF 11
ENDMDL
MODEL 8
REMARK VINA RESULT:    -5.637     14.291     18.664
REMARK INTER + INTRA:         -10.917
REMARK INTER:                  -9.535
REMARK INTRA:                  -1.382
REMARK UNBOUND:                -0.996
REMARK SMILES C=C(C)[C@]12C[C@@H](C)[C@@]34O[C@](Cc5ccccc5)(O[C@@H]1[C@@H]3C=C(COC(=O)Cc1ccc(O)c(OC)c1)C[C@]1(O)C(=O)C(C)=C[C@@H]41)O2
REMARK SMILES IDX 23 1 22 2 21 3 20 4 9 5 8 6 10 7 6 8 18 9 46 10 19 11 5 12
REMARK SMILES IDX 7 13 4 14 45 15 38 16 44 17 40 18 42 20 41 21 43 22 39 23
REMARK SMILES IDX 11 25 12 26 13 27 17 28 14 29 16 30 15 31 2 32 3 33 1 34
REMARK SMILES IDX 37 35 24 37 25 38 26 39 27 40 28 41 36 42 29 43 33 44 30 45
REMARK SMILES IDX 31 46 34 47 35 48 32 49
REMARK H PARENT 39 24 32 50
REMARK Flexibility Score: 90.00
ROOT
ATOM      1  C   UNL     1      72.785  94.825  68.317  1.00  0.00     0.264 C 
ENDROOT
BRANCH   1   2
ATOM      2  C   UNL     1      74.141  95.489  68.377  1.00  0.00    -0.033 C 
ATOM      3  C   UNL     1      74.649  95.845  69.574  1.00  0.00    -0.015 C 
BRANCH   3   4
ATOM      4  C   UNL     1      75.938  96.585  69.894  1.00  0.00     0.078 C 
ATOM      5  O   UNL     1      77.676  94.869  70.283  1.00  0.00    -0.319 OA
ATOM      6  C   UNL     1      77.298  95.968  69.398  1.00  0.00     0.095 C 
ATOM      7  C   UNL     1      77.487  95.117  71.689  1.00  0.00     0.289 C 
ATOM      8  C   UNL     1      78.399  97.106  69.477  1.00  0.00     0.023 C 
ATOM      9  O   UNL     1      76.131  95.447  71.978  1.00  0.00    -0.320 OA
ATOM     10  O   UNL     1      78.260  96.221  72.152  1.00  0.00    -0.313 OA
ATOM     11  C   UNL     1      76.071  96.771  71.425  1.00  0.00     0.170 C 
ATOM     12  C   UNL     1      78.132  98.077  70.668  1.00  0.00     0.049 C 
ATOM     13  C   UNL     1      79.854  96.614  69.534  1.00  0.00     0.011 C 
ATOM     14  C   UNL     1      77.442  97.366  71.833  1.00  0.00     0.122 C 
BRANCH   6  15
ATOM     15  C   UNL     1      77.126  95.301  68.002  1.00  0.00     0.086 C 
ATOM     16  C   UNL     1      76.276  96.080  66.977  1.00  0.00     0.140 CG0
ATOM     17  C   UNL     1      78.346  94.907  67.218  1.00  0.00    -0.010 C 
ATOM     18  C   UNL     1      76.957  95.743  65.667  1.00  0.00     0.190 C 
ATOM     19  G   UNL     1      74.809  95.654  67.001  1.00  0.00     0.000 G0
ATOM     20  C   UNL     1      78.272  95.116  65.900  1.00  0.00    -0.008 C 
ATOM     21  O   UNL     1      76.516  95.993  64.555  1.00  0.00    -0.291 OA
ATOM     22  C   UNL     1      79.230  94.780  64.827  1.00  0.00     0.048 C 
BRANCH  16  23
ATOM     23  O   UNL     1      76.408  97.488  67.074  1.00  0.00    -0.381 OA
ATOM     24  H   UNL     1      76.508  97.723  68.011  1.00  0.00     0.212 HD
ENDBRANCH  16  23
ENDBRANCH   6  15
BRANCH   7  25
ATOM     25  C   UNL     1      77.883  93.868  72.450  1.00  0.00     0.135 C 
BRANCH  25  26
ATOM     26  C   UNL     1      76.945  93.583  73.596  1.00  0.00    -0.040 A 
ATOM     27  C   UNL     1      75.947  92.618  73.457  1.00  0.00     0.004 A 
ATOM     28  C   UNL     1      77.076  94.282  74.796  1.00  0.00     0.004 A 
ATOM     29  C   UNL     1      75.079  92.354  74.517  1.00  0.00     0.000 A 
ATOM     30  C   UNL     1      76.208  94.018  75.856  1.00  0.00     0.000 A 
ATOM     31  C   UNL     1      75.209  93.054  75.716  1.00  0.00     0.000 A 
ENDBRANCH  25  26
ENDBRANCH   7  25
BRANCH  14  32
ATOM     32  C   UNL     1      77.341  98.226  73.051  1.00  0.00    -0.046 C 
ATOM     33  C   UNL     1      78.032  97.717  74.281  1.00  0.00     0.042 C 
ATOM     34  C   UNL     1      76.669  99.387  73.045  1.00  0.00     0.010 C 
ENDBRANCH  14  32
ENDBRANCH   3   4
BRANCH   2  35
ATOM     35  C   UNL     1      74.778  95.664  67.011  1.00  0.00     0.078 CG0
ATOM     36  G   UNL     1      76.250  96.075  66.974  1.00  0.00     0.000 G0
ENDBRANCH   2  35
ENDBRANCH   1   2
BRANCH   1  37
ATOM     37  O   UNL     1      72.928  93.447  68.586  1.00  0.00    -0.461 OA
BRANCH  37  38
ATOM     38  C   UNL     1      73.057  92.624  67.491  1.00  0.00     0.310 C 
ATOM     39  O   UNL     1      72.158  92.352  66.707  1.00  0.00    -0.252 OA
BRANCH  38  40
ATOM     40  C   UNL     1      74.476  92.113  67.409  1.00  0.00     0.158 C 
BRANCH  40  41
ATOM     41  C   UNL     1      74.583  90.633  67.670  1.00  0.00    -0.033 A 
ATOM     42  C   UNL     1      75.331  89.825  66.812  1.00  0.00     0.054 A 
ATOM     43  C   UNL     1      73.936  90.070  68.769  1.00  0.00     0.008 A 
ATOM     44  C   UNL     1      75.431  88.455  67.054  1.00  0.00     0.160 A 
ATOM     45  C   UNL     1      74.036  88.699  69.011  1.00  0.00     0.050 A 
ATOM     46  C   UNL     1      74.782  87.892  68.154  1.00  0.00     0.157 A 
BRANCH  44  47
ATOM     47  O   UNL     1      76.163  87.677  66.209  1.00  0.00    -0.493 OA
ATOM     48  C   UNL     1      77.202  88.321  65.472  1.00  0.00     0.278 C 
ENDBRANCH  44  47
BRANCH  46  49
ATOM     49  O   UNL     1      74.873  86.556  68.401  1.00  0.00    -0.504 OA
ATOM     50  H   UNL     1      74.396  86.352  69.223  1.00  0.00     0.293 HD
ENDBRANCH  46  49
ENDBRANCH  40  41
ENDBRANCH  38  40
ENDBRANCH  37  38
ENDBRANCH   1  37
TORSDOF 11
ENDMDL
MODEL 9
REMARK VINA RESULT:    -5.422     30.561     34.212
REMARK INTER + INTRA:         -10.538
REMARK INTER:                  -9.058
REMARK INTRA:                  -1.480
REMARK UNBOUND:                -0.996
REMARK SMILES C=C(C)[C@]12C[C@@H](C)[C@@]34O[C@](Cc5ccccc5)(O[C@@H]1[C@@H]3C=C(COC(=O)Cc1ccc(O)c(OC)c1)C[C@]1(O)C(=O)C(C)=C[C@@H]41)O2
REMARK SMILES IDX 23 1 22 2 21 3 20 4 9 5 8 6 10 7 6 8 18 9 46 10 19 11 5 12
REMARK SMILES IDX 7 13 4 14 45 15 38 16 44 17 40 18 42 20 41 21 43 22 39 23
REMARK SMILES IDX 11 25 12 26 13 27 17 28 14 29 16 30 15 31 2 32 3 33 1 34
REMARK SMILES IDX 37 35 24 37 25 38 26 39 27 40 28 41 36 42 29 43 33 44 30 45
REMARK SMILES IDX 31 46 34 47 35 48 32 49
REMARK H PARENT 39 24 32 50
REMARK Flexibility Score: 90.00
ROOT
ATOM      1  C   UNL     1      96.698  97.374  76.564  1.00  0.00     0.264 C 
ENDROOT
BRANCH   1   2
ATOM      2  C   UNL     1      97.024  97.256  78.034  1.00  0.00    -0.033 C 
ATOM      3  C   UNL     1      97.355  98.364  78.727  1.00  0.00    -0.015 C 
BRANCH   3   4
ATOM      4  C   UNL     1      97.794  98.501  80.175  1.00  0.00     0.078 C 
ATOM      5  O   UNL     1      95.756  98.930  81.509  1.00  0.00    -0.319 OA
ATOM      6  C   UNL     1      96.834  97.966  81.303  1.00  0.00     0.095 C 
ATOM      7  C   UNL     1      96.158 100.312  81.525  1.00  0.00     0.289 C 
ATOM      8  C   UNL     1      97.683  97.837  82.635  1.00  0.00     0.023 C 
ATOM      9  O   UNL     1      96.822 100.671  80.316  1.00  0.00    -0.320 OA
ATOM     10  O   UNL     1      97.085 100.594  82.571  1.00  0.00    -0.313 OA
ATOM     11  C   UNL     1      98.072  99.989  80.503  1.00  0.00     0.170 C 
ATOM     12  C   UNL     1      98.786  98.937  82.718  1.00  0.00     0.049 C 
ATOM     13  C   UNL     1      96.869  97.831  83.938  1.00  0.00     0.011 C 
ATOM     14  C   UNL     1      98.359 100.222  82.007  1.00  0.00     0.122 C 
BRANCH   6  15
ATOM     15  C   UNL     1      96.112  96.667  80.842  1.00  0.00     0.086 C 
ATOM     16  C   UNL     1      96.977  95.643  80.077  1.00  0.00     0.140 CG0
ATOM     17  C   UNL     1      95.391  95.826  81.857  1.00  0.00    -0.010 C 
ATOM     18  C   UNL     1      96.389  94.322  80.524  1.00  0.00     0.190 C 
ATOM     19  G   UNL     1      96.896  95.837  78.563  1.00  0.00     0.000 G0
ATOM     20  C   UNL     1      95.504  94.504  81.690  1.00  0.00    -0.008 C 
ATOM     21  O   UNL     1      96.642  93.232  80.033  1.00  0.00    -0.291 OA
ATOM     22  C   UNL     1      94.874  93.393  82.433  1.00  0.00     0.048 C 
BRANCH  16  23
ATOM     23  O   UNL     1      98.322  95.583  80.520  1.00  0.00    -0.381 OA
ATOM     24  H   UNL     1      98.377  94.945  81.251  1.00  0.00     0.212 HD
ENDBRANCH  16  23
ENDBRANCH   6  15
BRANCH   7  25
ATOM     25  C   UNL     1      94.920 101.167  81.702  1.00  0.00     0.135 C 
BRANCH  25  26
ATOM     26  C   UNL     1      95.205 102.419  82.493  1.00  0.00    -0.040 A 
ATOM     27  C   UNL     1      94.847 102.491  83.839  1.00  0.00     0.004 A 
ATOM     28  C   UNL     1      95.828 103.505  81.879  1.00  0.00     0.004 A 
ATOM     29  C   UNL     1      95.111 103.649  84.571  1.00  0.00     0.000 A 
ATOM     30  C   UNL     1      96.093 104.664  82.610  1.00  0.00     0.000 A 
ATOM     31  C   UNL     1      95.733 104.735  83.956  1.00  0.00     0.000 A 
ENDBRANCH  25  26
ENDBRANCH   7  25
BRANCH  14  32
ATOM     32  C   UNL     1      99.317 101.346  82.228  1.00  0.00    -0.046 C 
ATOM     33  C   UNL     1     100.515 101.383  81.326  1.00  0.00     0.042 C 
ATOM     34  C   UNL     1      99.119 102.271  83.180  1.00  0.00     0.010 C 
ENDBRANCH  14  32
ENDBRANCH   3   4
BRANCH   2  35
ATOM     35  C   UNL     1      96.920  95.835  78.554  1.00  0.00     0.078 CG0
ATOM     36  G   UNL     1      96.976  95.639  80.069  1.00  0.00     0.000 G0
ENDBRANCH   2  35
ENDBRANCH   1   2
BRANCH   1  37
ATOM     37  O   UNL     1      96.694  96.088  75.982  1.00  0.00    -0.461 OA
BRANCH  37  38
ATOM     38  C   UNL     1      95.690  95.833  75.077  1.00  0.00     0.310 C 
ATOM     39  O   UNL     1      95.089  96.684  74.435  1.00  0.00    -0.252 OA
BRANCH  38  40
ATOM     40  C   UNL     1      95.446  94.344  75.000  1.00  0.00     0.158 C 
BRANCH  40  41
ATOM     41  C   UNL     1      94.169  93.922  75.680  1.00  0.00    -0.033 A 
ATOM     42  C   UNL     1      93.106  93.428  74.922  1.00  0.00     0.054 A 
ATOM     43  C   UNL     1      94.049  94.024  77.066  1.00  0.00     0.008 A 
ATOM     44  C   UNL     1      91.924  93.037  75.552  1.00  0.00     0.160 A 
ATOM     45  C   UNL     1      92.867  93.633  77.695  1.00  0.00     0.050 A 
ATOM     46  C   UNL     1      91.804  93.140  76.938  1.00  0.00     0.157 A 
BRANCH  44  47
ATOM     47  O   UNL     1      90.893  92.557  74.802  1.00  0.00    -0.493 OA
ATOM     48  C   UNL     1      90.880  91.155  74.540  1.00  0.00     0.278 C 
ENDBRANCH  44  47
BRANCH  46  49
ATOM     49  O   UNL     1      90.656  92.760  77.563  1.00  0.00    -0.504 OA
ATOM     50  H   UNL     1      90.856  92.040  78.184  1.00  0.00     0.293 HD
ENDBRANCH  46  49
ENDBRANCH  40  41
ENDBRANCH  38  40
ENDBRANCH  37  38
ENDBRANCH   1  37
TORSDOF 11
ENDMDL
MODEL 10
REMARK VINA RESULT:    -5.403     15.574     18.324
REMARK INTER + INTRA:         -10.504
REMARK INTER:                  -8.699
REMARK INTRA:                  -1.805
REMARK UNBOUND:                -0.996
REMARK SMILES C=C(C)[C@]12C[C@@H](C)[C@@]34O[C@](Cc5ccccc5)(O[C@@H]1[C@@H]3C=C(COC(=O)Cc1ccc(O)c(OC)c1)C[C@]1(O)C(=O)C(C)=C[C@@H]41)O2
REMARK SMILES IDX 23 1 22 2 21 3 20 4 9 5 8 6 10 7 6 8 18 9 46 10 19 11 5 12
REMARK SMILES IDX 7 13 4 14 45 15 38 16 44 17 40 18 42 20 41 21 43 22 39 23
REMARK SMILES IDX 11 25 12 26 13 27 17 28 14 29 16 30 15 31 2 32 3 33 1 34
REMARK SMILES IDX 37 35 24 37 25 38 26 39 27 40 28 41 36 42 29 43 33 44 30 45
REMARK SMILES IDX 31 46 34 47 35 48 32 49
REMARK H PARENT 39 24 32 50
REMARK Flexibility Score: 90.00
ROOT
ATOM      1  C   UNL     1      78.444  99.940  71.200  1.00  0.00     0.264 C 
ENDROOT
BRANCH   1   2
ATOM      2  C   UNL     1      78.328  98.435  71.128  1.00  0.00    -0.033 C 
ATOM      3  C   UNL     1      77.702  97.774  72.122  1.00  0.00    -0.015 C 
BRANCH   3   4
ATOM      4  C   UNL     1      77.523  96.278  72.322  1.00  0.00     0.078 C 
ATOM      5  O   UNL     1      75.361  95.667  71.285  1.00  0.00    -0.319 OA
ATOM      6  C   UNL     1      76.804  95.452  71.191  1.00  0.00     0.095 C 
ATOM      7  C   UNL     1      74.821  95.650  72.620  1.00  0.00     0.289 C 
ATOM      8  C   UNL     1      77.122  93.920  71.439  1.00  0.00     0.023 C 
ATOM      9  O   UNL     1      75.451  96.627  73.445  1.00  0.00    -0.320 OA
ATOM     10  O   UNL     1      75.033  94.401  73.273  1.00  0.00    -0.313 OA
ATOM     11  C   UNL     1      76.735  96.012  73.629  1.00  0.00     0.170 C 
ATOM     12  C   UNL     1      77.253  93.602  72.960  1.00  0.00     0.049 C 
ATOM     13  C   UNL     1      76.141  92.929  70.792  1.00  0.00     0.011 C 
ATOM     14  C   UNL     1      76.368  94.518  73.807  1.00  0.00     0.122 C 
BRANCH   6  15
ATOM     15  C   UNL     1      77.186  95.995  69.784  1.00  0.00     0.086 C 
ATOM     16  C   UNL     1      78.673  96.351  69.573  1.00  0.00     0.140 CG0
ATOM     17  C   UNL     1      76.845  95.186  68.564  1.00  0.00    -0.010 C 
ATOM     18  C   UNL     1      78.892  95.992  68.119  1.00  0.00     0.190 C 
ATOM     19  G   UNL     1      78.959  97.824  69.862  1.00  0.00     0.000 G0
ATOM     20  C   UNL     1      77.771  95.186  67.599  1.00  0.00    -0.008 C 
ATOM     21  O   UNL     1      79.880  96.277  67.460  1.00  0.00    -0.291 OA
ATOM     22  C   UNL     1      77.741  94.580  66.252  1.00  0.00     0.048 C 
BRANCH  16  23
ATOM     23  O   UNL     1      79.570  95.503  70.270  1.00  0.00    -0.381 OA
ATOM     24  H   UNL     1      80.424  95.959  70.350  1.00  0.00     0.212 HD
ENDBRANCH  16  23
ENDBRANCH   6  15
BRANCH   7  25
ATOM     25  C   UNL     1      73.335  95.931  72.535  1.00  0.00     0.135 C 
BRANCH  25  26
ATOM     26  C   UNL     1      72.639  95.695  73.853  1.00  0.00    -0.040 A 
ATOM     27  C   UNL     1      72.328  96.775  74.680  1.00  0.00     0.004 A 
ATOM     28  C   UNL     1      72.306  94.399  74.244  1.00  0.00     0.004 A 
ATOM     29  C   UNL     1      71.684  96.558  75.898  1.00  0.00     0.000 A 
ATOM     30  C   UNL     1      71.662  94.182  75.463  1.00  0.00     0.000 A 
ATOM     31  C   UNL     1      71.352  95.261  76.289  1.00  0.00     0.000 A 
ENDBRANCH  25  26
ENDBRANCH   7  25
BRANCH  14  32
ATOM     32  C   UNL     1      76.336  94.116  75.246  1.00  0.00    -0.046 C 
ATOM     33  C   UNL     1      77.254  94.866  76.164  1.00  0.00     0.042 C 
ATOM     34  C   UNL     1      75.532  93.138  75.692  1.00  0.00     0.010 C 
ENDBRANCH  14  32
ENDBRANCH   3   4
BRANCH   2  35
ATOM     35  C   UNL     1      78.957  97.849  69.878  1.00  0.00     0.078 CG0
ATOM     36  G   UNL     1      78.689  96.373  69.586  1.00  0.00     0.000 G0
ENDBRANCH   2  35
ENDBRANCH   1   2
BRANCH   1  37
ATOM     37  O   UNL     1      79.654 100.284  71.840  1.00  0.00    -0.461 OA
BRANCH  37  38
ATOM     38  C   UNL     1      79.541 100.997  73.011  1.00  0.00     0.310 C 
ATOM     39  O   UNL     1      79.047 102.111  73.111  1.00  0.00    -0.252 OA
BRANCH  38  40
ATOM     40  C   UNL     1      80.121 100.191  74.150  1.00  0.00     0.158 C 
BRANCH  40  41
ATOM     41  C   UNL     1      79.137  99.960  75.268  1.00  0.00    -0.033 A 
ATOM     42  C   UNL     1      78.841 100.992  76.160  1.00  0.00     0.054 A 
ATOM     43  C   UNL     1      78.521  98.717  75.410  1.00  0.00     0.008 A 
ATOM     44  C   UNL     1      77.930 100.778  77.195  1.00  0.00     0.160 A 
ATOM     45  C   UNL     1      77.610  98.503  76.445  1.00  0.00     0.050 A 
ATOM     46  C   UNL     1      77.315  99.533  77.337  1.00  0.00     0.157 A 
BRANCH  44  47
ATOM     47  O   UNL     1      77.649 101.792  78.060  1.00  0.00    -0.493 OA
ATOM     48  C   UNL     1      78.573 102.879  78.107  1.00  0.00     0.278 C 
ENDBRANCH  44  47
BRANCH  46  49
ATOM     49  O   UNL     1      76.423  99.314  78.343  1.00  0.00    -0.504 OA
ATOM     50  H   UNL     1      76.168 100.167  78.732  1.00  0.00     0.293 HD
ENDBRANCH  46  49
ENDBRANCH  40  41
ENDBRANCH  38  40
ENDBRANCH  37  38
ENDBRANCH   1  37
TORSDOF 11
ENDMDL
