MODEL 1
REMARK VINA RESULT:    -6.020      0.000      0.000
REMARK INTER + INTRA:         -10.161
REMARK INTER:                  -9.715
REMARK INTRA:                  -0.446
REMARK UNBOUND:                -0.446
REMARK SMILES CCCCCCCCC(=O)NCc1ccc(O)c(OC)c1
REMARK SMILES IDX 7 1 6 2 5 3 4 4 3 5 2 6 1 7 8 8 9 9 10 10 11 11 12 13 13 14
REMARK SMILES IDX 21 15 14 16 18 17 15 18 16 19 19 20 20 21 17 22
REMARK H PARENT 11 12 17 23
REMARK Flexibility Score: inf
ROOT
ATOM      1  C   UNL     1      93.106  98.194  75.076  1.00  0.00     0.010 C 
ENDROOT
BRANCH   1   2
ATOM      2  C   UNL     1      93.765  97.442  76.268  1.00  0.00     0.001 C 
BRANCH   2   3
ATOM      3  C   UNL     1      93.594  95.898  76.159  1.00  0.00     0.000 C 
BRANCH   3   4
ATOM      4  C   UNL     1      93.618  95.166  77.530  1.00  0.00    -0.000 C 
BRANCH   4   5
ATOM      5  C   UNL     1      92.328  95.411  78.364  1.00  0.00    -0.000 C 
BRANCH   5   6
ATOM      6  C   UNL     1      91.175  96.013  77.515  1.00  0.00    -0.003 C 
ATOM      7  C   UNL     1      89.900  95.141  77.532  1.00  0.00     0.004 C 
ENDBRANCH   5   6
ENDBRANCH   4   5
ENDBRANCH   3   4
ENDBRANCH   2   3
ENDBRANCH   1   2
BRANCH   1   8
ATOM      8  C   UNL     1      93.600  99.657  74.903  1.00  0.00     0.100 C 
BRANCH   8   9
ATOM      9  C   UNL     1      92.670 100.445  74.059  1.00  0.00     0.220 C 
ATOM     10  O   UNL     1      92.260 101.547  74.495  1.00  0.00    -0.275 OA
ATOM     11  N   UNL     1      92.297  99.990  72.827  1.00  0.00    -0.352 N 
ATOM     12  H   UNL     1      92.615  99.056  72.613  1.00  0.00     0.163 HD
BRANCH  11  13
ATOM     13  C   UNL     1      91.525 100.717  71.866  1.00  0.00     0.151 C 
BRANCH  13  14
ATOM     14  C   UNL     1      90.609  99.864  71.061  1.00  0.00    -0.025 A 
ATOM     15  C   UNL     1      90.157 100.304  69.794  1.00  0.00     0.056 A 
ATOM     16  C   UNL     1      90.173  98.609  71.544  1.00  0.00     0.009 A 
ATOM     17  C   UNL     1      89.300  99.497  69.011  1.00  0.00     0.160 A 
ATOM     18  C   UNL     1      89.322  97.801  70.769  1.00  0.00     0.050 A 
ATOM     19  C   UNL     1      88.878  98.243  69.508  1.00  0.00     0.157 A 
BRANCH  17  20
ATOM     20  O   UNL     1      88.829  99.942  67.801  1.00  0.00    -0.493 OA
ATOM     21  C   UNL     1      88.557 101.354  67.760  1.00  0.00     0.278 C 
ENDBRANCH  17  20
BRANCH  19  22
ATOM     22  O   UNL     1      88.035  97.468  68.779  1.00  0.00    -0.504 OA
ATOM     23  H   UNL     1      87.565  98.015  68.145  1.00  0.00     0.293 HD
ENDBRANCH  19  22
ENDBRANCH  13  14
ENDBRANCH  11  13
ENDBRANCH   8   9
ENDBRANCH   1   8
TORSDOF 11
ENDMDL
MODEL 2
REMARK VINA RESULT:    -6.013      6.330     10.173
REMARK INTER + INTRA:         -10.150
REMARK INTER:                  -9.393
REMARK INTRA:                  -0.757
REMARK UNBOUND:                -0.446
REMARK SMILES CCCCCCCCC(=O)NCc1ccc(O)c(OC)c1
REMARK SMILES IDX 7 1 6 2 5 3 4 4 3 5 2 6 1 7 8 8 9 9 10 10 11 11 12 13 13 14
REMARK SMILES IDX 21 15 14 16 18 17 15 18 16 19 19 20 20 21 17 22
REMARK H PARENT 11 12 17 23
REMARK Flexibility Score: inf
ROOT
ATOM      1  C   UNL     1      94.244  96.381  75.695  1.00  0.00     0.010 C 
ENDROOT
BRANCH   1   2
ATOM      2  C   UNL     1      93.389  95.307  76.428  1.00  0.00     0.001 C 
BRANCH   2   3
ATOM      3  C   UNL     1      92.711  95.870  77.712  1.00  0.00     0.000 C 
BRANCH   3   4
ATOM      4  C   UNL     1      91.218  96.254  77.516  1.00  0.00    -0.000 C 
BRANCH   4   5
ATOM      5  C   UNL     1      90.281  95.014  77.460  1.00  0.00    -0.000 C 
BRANCH   5   6
ATOM      6  C   UNL     1      90.719  93.892  78.439  1.00  0.00    -0.003 C 
ATOM      7  C   UNL     1      89.602  92.860  78.709  1.00  0.00     0.004 C 
ENDBRANCH   5   6
ENDBRANCH   4   5
ENDBRANCH   3   4
ENDBRANCH   2   3
ENDBRANCH   1   2
BRANCH   1   8
ATOM      8  C   UNL     1      94.070  97.818  76.261  1.00  0.00     0.100 C 
BRANCH   8   9
ATOM      9  C   UNL     1      95.268  98.247  77.022  1.00  0.00     0.220 C 
ATOM     10  O   UNL     1      95.738  99.388  76.797  1.00  0.00    -0.275 OA
ATOM     11  N   UNL     1      95.823  97.427  77.963  1.00  0.00    -0.352 N 
ATOM     12  H   UNL     1      95.420  96.503  78.001  1.00  0.00     0.163 HD
BRANCH  11  13
ATOM     13  C   UNL     1      96.885  97.779  78.855  1.00  0.00     0.151 C 
BRANCH  13  14
ATOM     14  C   UNL     1      96.938  96.943  80.085  1.00  0.00    -0.025 A 
ATOM     15  C   UNL     1      95.991  95.911  80.286  1.00  0.00     0.056 A 
ATOM     16  C   UNL     1      97.927  97.164  81.071  1.00  0.00     0.009 A 
ATOM     17  C   UNL     1      96.040  95.097  81.441  1.00  0.00     0.160 A 
ATOM     18  C   UNL     1      97.981  96.358  82.222  1.00  0.00     0.050 A 
ATOM     19  C   UNL     1      97.037  95.331  82.415  1.00  0.00     0.157 A 
BRANCH  17  20
ATOM     20  O   UNL     1      95.095  94.125  81.655  1.00  0.00    -0.493 OA
ATOM     21  C   UNL     1      94.863  93.270  80.521  1.00  0.00     0.278 C 
ENDBRANCH  17  20
BRANCH  19  22
ATOM     22  O   UNL     1      97.081  94.576  83.542  1.00  0.00    -0.504 OA
ATOM     23  H   UNL     1      97.975  94.577  83.893  1.00  0.00     0.293 HD
ENDBRANCH  19  22
ENDBRANCH  13  14
ENDBRANCH  11  13
ENDBRANCH   8   9
ENDBRANCH   1   8
TORSDOF 11
ENDMDL
MODEL 3
REMARK VINA RESULT:    -5.760     20.078     23.061
REMARK INTER + INTRA:          -9.742
REMARK INTER:                  -8.674
REMARK INTRA:                  -1.069
REMARK UNBOUND:                -0.446
REMARK SMILES CCCCCCCCC(=O)NCc1ccc(O)c(OC)c1
REMARK SMILES IDX 7 1 6 2 5 3 4 4 3 5 2 6 1 7 8 8 9 9 10 10 11 11 12 13 13 14
REMARK SMILES IDX 21 15 14 16 18 17 15 18 16 19 19 20 20 21 17 22
REMARK H PARENT 11 12 17 23
REMARK Flexibility Score: inf
ROOT
ATOM      1  C   UNL     1      74.986  81.587  66.202  1.00  0.00     0.010 C 
ENDROOT
BRANCH   1   2
ATOM      2  C   UNL     1      74.082  82.838  66.398  1.00  0.00     0.001 C 
BRANCH   2   3
ATOM      3  C   UNL     1      73.197  83.127  65.149  1.00  0.00     0.000 C 
BRANCH   3   4
ATOM      4  C   UNL     1      71.689  83.312  65.479  1.00  0.00    -0.000 C 
BRANCH   4   5
ATOM      5  C   UNL     1      71.179  82.303  66.546  1.00  0.00    -0.000 C 
BRANCH   5   6
ATOM      6  C   UNL     1      69.796  82.699  67.129  1.00  0.00    -0.003 C 
ATOM      7  C   UNL     1      69.855  83.044  68.633  1.00  0.00     0.004 C 
ENDBRANCH   5   6
ENDBRANCH   4   5
ENDBRANCH   3   4
ENDBRANCH   2   3
ENDBRANCH   1   2
BRANCH   1   8
ATOM      8  C   UNL     1      76.020  81.732  65.051  1.00  0.00     0.100 C 
BRANCH   8   9
ATOM      9  C   UNL     1      77.014  82.791  65.347  1.00  0.00     0.220 C 
ATOM     10  O   UNL     1      77.204  83.686  64.489  1.00  0.00    -0.275 OA
ATOM     11  N   UNL     1      77.681  82.803  66.539  1.00  0.00    -0.352 N 
ATOM     12  H   UNL     1      77.517  81.992  67.117  1.00  0.00     0.163 HD
BRANCH  11  13
ATOM     13  C   UNL     1      78.552  83.840  66.999  1.00  0.00     0.151 C 
BRANCH  13  14
ATOM     14  C   UNL     1      77.872  84.879  67.818  1.00  0.00    -0.025 A 
ATOM     15  C   UNL     1      77.039  84.501  68.898  1.00  0.00     0.056 A 
ATOM     16  C   UNL     1      78.038  86.254  67.533  1.00  0.00     0.009 A 
ATOM     17  C   UNL     1      76.399  85.477  69.697  1.00  0.00     0.160 A 
ATOM     18  C   UNL     1      77.405  87.229  68.324  1.00  0.00     0.050 A 
ATOM     19  C   UNL     1      76.581  86.846  69.399  1.00  0.00     0.157 A 
BRANCH  17  20
ATOM     20  O   UNL     1      75.560  85.107  70.717  1.00  0.00    -0.493 OA
ATOM     21  C   UNL     1      76.006  83.960  71.461  1.00  0.00     0.278 C 
ENDBRANCH  17  20
BRANCH  19  22
ATOM     22  O   UNL     1      75.953  87.795  70.140  1.00  0.00    -0.504 OA
ATOM     23  H   UNL     1      76.459  87.966  70.937  1.00  0.00     0.293 HD
ENDBRANCH  19  22
ENDBRANCH  13  14
ENDBRANCH  11  13
ENDBRANCH   8   9
ENDBRANCH   1   8
TORSDOF 11
ENDMDL
MODEL 4
REMARK VINA RESULT:    -5.732     18.021     20.805
REMARK INTER + INTRA:          -9.697
REMARK INTER:                  -8.620
REMARK INTRA:                  -1.077
REMARK UNBOUND:                -0.446
REMARK SMILES CCCCCCCCC(=O)NCc1ccc(O)c(OC)c1
REMARK SMILES IDX 7 1 6 2 5 3 4 4 3 5 2 6 1 7 8 8 9 9 10 10 11 11 12 13 13 14
REMARK SMILES IDX 21 15 14 16 18 17 15 18 16 19 19 20 20 21 17 22
REMARK H PARENT 11 12 17 23
REMARK Flexibility Score: inf
ROOT
ATOM      1  C   UNL     1      98.074  82.820  79.236  1.00  0.00     0.010 C 
ENDROOT
BRANCH   1   2
ATOM      2  C   UNL     1      97.545  83.967  78.328  1.00  0.00     0.001 C 
BRANCH   2   3
ATOM      3  C   UNL     1      97.547  83.574  76.821  1.00  0.00     0.000 C 
BRANCH   3   4
ATOM      4  C   UNL     1      98.917  83.794  76.118  1.00  0.00    -0.000 C 
BRANCH   4   5
ATOM      5  C   UNL     1      99.662  82.461  75.826  1.00  0.00    -0.000 C 
BRANCH   5   6
ATOM      6  C   UNL     1     101.120  82.463  76.360  1.00  0.00    -0.003 C 
ATOM      7  C   UNL     1     101.596  83.865  76.799  1.00  0.00     0.004 C 
ENDBRANCH   5   6
ENDBRANCH   4   5
ENDBRANCH   3   4
ENDBRANCH   2   3
ENDBRANCH   1   2
BRANCH   1   8
ATOM      8  C   UNL     1      99.504  83.068  79.794  1.00  0.00     0.100 C 
BRANCH   8   9
ATOM      9  C   UNL     1      99.670  82.468  81.139  1.00  0.00     0.220 C 
ATOM     10  O   UNL     1     100.831  82.351  81.599  1.00  0.00    -0.275 OA
ATOM     11  N   UNL     1      98.580  82.081  81.865  1.00  0.00    -0.352 N 
ATOM     12  H   UNL     1      97.704  82.139  81.367  1.00  0.00     0.163 HD
BRANCH  11  13
ATOM     13  C   UNL     1      98.600  81.623  83.221  1.00  0.00     0.151 C 
BRANCH  13  14
ATOM     14  C   UNL     1      97.702  82.389  84.127  1.00  0.00    -0.025 A 
ATOM     15  C   UNL     1      97.140  81.765  85.267  1.00  0.00     0.056 A 
ATOM     16  C   UNL     1      97.392  83.744  83.868  1.00  0.00     0.009 A 
ATOM     17  C   UNL     1      96.300  82.485  86.147  1.00  0.00     0.160 A 
ATOM     18  C   UNL     1      96.558  84.466  84.740  1.00  0.00     0.050 A 
ATOM     19  C   UNL     1      96.004  83.840  85.873  1.00  0.00     0.157 A 
BRANCH  17  20
ATOM     20  O   UNL     1      95.722  81.868  87.228  1.00  0.00    -0.493 OA
ATOM     21  C   UNL     1      94.600  81.031  86.897  1.00  0.00     0.278 C 
ENDBRANCH  17  20
BRANCH  19  22
ATOM     22  O   UNL     1      95.178  84.538  86.694  1.00  0.00    -0.504 OA
ATOM     23  H   UNL     1      94.830  83.952  87.371  1.00  0.00     0.293 HD
ENDBRANCH  19  22
ENDBRANCH  13  14
ENDBRANCH  11  13
ENDBRANCH   8   9
ENDBRANCH   1   8
TORSDOF 11
ENDMDL
MODEL 5
REMARK VINA RESULT:    -5.724      1.275      2.311
REMARK INTER + INTRA:          -9.684
REMARK INTER:                  -8.963
REMARK INTRA:                  -0.720
REMARK UNBOUND:                -0.446
REMARK SMILES CCCCCCCCC(=O)NCc1ccc(O)c(OC)c1
REMARK SMILES IDX 7 1 6 2 5 3 4 4 3 5 2 6 1 7 8 8 9 9 10 10 11 11 12 13 13 14
REMARK SMILES IDX 21 15 14 16 18 17 15 18 16 19 19 20 20 21 17 22
REMARK H PARENT 11 12 17 23
REMARK Flexibility Score: inf
ROOT
ATOM      1  C   UNL     1      94.377  97.033  75.511  1.00  0.00     0.010 C 
ENDROOT
BRANCH   1   2
ATOM      2  C   UNL     1      94.756  96.470  76.911  1.00  0.00     0.001 C 
BRANCH   2   3
ATOM      3  C   UNL     1      93.915  95.215  77.289  1.00  0.00     0.000 C 
BRANCH   3   4
ATOM      4  C   UNL     1      92.931  95.452  78.469  1.00  0.00    -0.000 C 
BRANCH   4   5
ATOM      5  C   UNL     1      91.677  94.536  78.398  1.00  0.00    -0.000 C 
BRANCH   5   6
ATOM      6  C   UNL     1      90.476  95.222  77.692  1.00  0.00    -0.003 C 
ATOM      7  C   UNL     1      89.835  94.337  76.601  1.00  0.00     0.004 C 
ENDBRANCH   5   6
ENDBRANCH   4   5
ENDBRANCH   3   4
ENDBRANCH   2   3
ENDBRANCH   1   2
BRANCH   1   8
ATOM      8  C   UNL     1      93.154  97.992  75.527  1.00  0.00     0.100 C 
BRANCH   8   9
ATOM      9  C   UNL     1      93.351  99.133  74.601  1.00  0.00     0.220 C 
ATOM     10  O   UNL     1      94.465  99.710  74.595  1.00  0.00    -0.275 OA
ATOM     11  N   UNL     1      92.350  99.522  73.757  1.00  0.00    -0.352 N 
ATOM     12  H   UNL     1      91.471  99.048  73.905  1.00  0.00     0.163 HD
BRANCH  11  13
ATOM     13  C   UNL     1      92.462 100.508  72.726  1.00  0.00     0.151 C 
BRANCH  13  14
ATOM     14  C   UNL     1      91.428 100.387  71.664  1.00  0.00    -0.025 A 
ATOM     15  C   UNL     1      90.632  99.220  71.573  1.00  0.00     0.056 A 
ATOM     16  C   UNL     1      91.223 101.426  70.727  1.00  0.00     0.009 A 
ATOM     17  C   UNL     1      89.634  99.098  70.580  1.00  0.00     0.160 A 
ATOM     18  C   UNL     1      90.231 101.312  69.737  1.00  0.00     0.050 A 
ATOM     19  C   UNL     1      89.441 100.149  69.655  1.00  0.00     0.157 A 
BRANCH  17  20
ATOM     20  O   UNL     1      88.893  97.949  70.467  1.00  0.00    -0.493 OA
ATOM     21  C   UNL     1      89.672  96.769  70.203  1.00  0.00     0.278 C 
ENDBRANCH  17  20
BRANCH  19  22
ATOM     22  O   UNL     1      88.505 100.037  68.679  1.00  0.00    -0.504 OA
ATOM     23  H   UNL     1      88.939  99.969  67.825  1.00  0.00     0.293 HD
ENDBRANCH  19  22
ENDBRANCH  13  14
ENDBRANCH  11  13
ENDBRANCH   8   9
ENDBRANCH   1   8
TORSDOF 11
ENDMDL
MODEL 6
REMARK VINA RESULT:    -5.597      6.614     11.181
REMARK INTER + INTRA:          -9.478
REMARK INTER:                  -8.386
REMARK INTRA:                  -1.093
REMARK UNBOUND:                -0.446
REMARK SMILES CCCCCCCCC(=O)NCc1ccc(O)c(OC)c1
REMARK SMILES IDX 7 1 6 2 5 3 4 4 3 5 2 6 1 7 8 8 9 9 10 10 11 11 12 13 13 14
REMARK SMILES IDX 21 15 14 16 18 17 15 18 16 19 19 20 20 21 17 22
REMARK H PARENT 11 12 17 23
REMARK Flexibility Score: inf
ROOT
ATOM      1  C   UNL     1      92.159  94.653  77.286  1.00  0.00     0.010 C 
ENDROOT
BRANCH   1   2
ATOM      2  C   UNL     1      92.070  96.176  76.980  1.00  0.00     0.001 C 
BRANCH   2   3
ATOM      3  C   UNL     1      93.131  96.630  75.935  1.00  0.00     0.000 C 
BRANCH   3   4
ATOM      4  C   UNL     1      93.271  98.174  75.815  1.00  0.00    -0.000 C 
BRANCH   4   5
ATOM      5  C   UNL     1      94.754  98.642  75.790  1.00  0.00    -0.000 C 
BRANCH   5   6
ATOM      6  C   UNL     1      95.680  97.732  76.641  1.00  0.00    -0.003 C 
ATOM      7  C   UNL     1      95.673  98.102  78.141  1.00  0.00     0.004 C 
ENDBRANCH   5   6
ENDBRANCH   4   5
ENDBRANCH   3   4
ENDBRANCH   2   3
ENDBRANCH   1   2
BRANCH   1   8
ATOM      8  C   UNL     1      92.251  94.319  78.801  1.00  0.00     0.100 C 
BRANCH   8   9
ATOM      9  C   UNL     1      93.654  94.079  79.217  1.00  0.00     0.220 C 
ATOM     10  O   UNL     1      94.560  94.212  78.360  1.00  0.00    -0.275 OA
ATOM     11  N   UNL     1      93.948  93.750  80.509  1.00  0.00    -0.352 N 
ATOM     12  H   UNL     1      93.140  93.584  81.092  1.00  0.00     0.163 HD
BRANCH  11  13
ATOM     13  C   UNL     1      95.262  93.632  81.063  1.00  0.00     0.151 C 
BRANCH  13  14
ATOM     14  C   UNL     1      95.940  94.937  81.285  1.00  0.00    -0.025 A 
ATOM     15  C   UNL     1      95.514  95.793  82.330  1.00  0.00     0.056 A 
ATOM     16  C   UNL     1      97.013  95.348  80.461  1.00  0.00     0.009 A 
ATOM     17  C   UNL     1      96.160  97.028  82.564  1.00  0.00     0.160 A 
ATOM     18  C   UNL     1      97.661  96.575  80.690  1.00  0.00     0.050 A 
ATOM     19  C   UNL     1      97.234  97.420  81.732  1.00  0.00     0.157 A 
BRANCH  17  20
ATOM     20  O   UNL     1      95.719  97.875  83.549  1.00  0.00    -0.493 OA
ATOM     21  C   UNL     1      96.308  97.635  84.839  1.00  0.00     0.278 C 
ENDBRANCH  17  20
BRANCH  19  22
ATOM     22  O   UNL     1      97.847  98.616  81.927  1.00  0.00    -0.504 OA
ATOM     23  H   UNL     1      98.382  98.575  82.724  1.00  0.00     0.293 HD
ENDBRANCH  19  22
ENDBRANCH  13  14
ENDBRANCH  11  13
ENDBRANCH   8   9
ENDBRANCH   1   8
TORSDOF 11
ENDMDL
MODEL 7
REMARK VINA RESULT:    -5.574     18.768     21.613
REMARK INTER + INTRA:          -9.441
REMARK INTER:                  -8.756
REMARK INTRA:                  -0.685
REMARK UNBOUND:                -0.446
REMARK SMILES CCCCCCCCC(=O)NCc1ccc(O)c(OC)c1
REMARK SMILES IDX 7 1 6 2 5 3 4 4 3 5 2 6 1 7 8 8 9 9 10 10 11 11 12 13 13 14
REMARK SMILES IDX 21 15 14 16 18 17 15 18 16 19 19 20 20 21 17 22
REMARK H PARENT 11 12 17 23
REMARK Flexibility Score: inf
ROOT
ATOM      1  C   UNL     1      97.898  83.384  84.184  1.00  0.00     0.010 C 
ENDROOT
BRANCH   1   2
ATOM      2  C   UNL     1      97.679  83.032  82.684  1.00  0.00     0.001 C 
BRANCH   2   3
ATOM      3  C   UNL     1      98.943  82.390  82.039  1.00  0.00     0.000 C 
BRANCH   3   4
ATOM      4  C   UNL     1      99.406  83.094  80.733  1.00  0.00    -0.000 C 
BRANCH   4   5
ATOM      5  C   UNL     1      99.447  82.130  79.513  1.00  0.00    -0.000 C 
BRANCH   5   6
ATOM      6  C   UNL     1      98.119  82.128  78.709  1.00  0.00    -0.003 C 
ATOM      7  C   UNL     1      97.277  83.403  78.939  1.00  0.00     0.004 C 
ENDBRANCH   5   6
ENDBRANCH   4   5
ENDBRANCH   3   4
ENDBRANCH   2   3
ENDBRANCH   1   2
BRANCH   1   8
ATOM      8  C   UNL     1      96.709  84.147  84.832  1.00  0.00     0.100 C 
BRANCH   8   9
ATOM      9  C   UNL     1      96.081  83.350  85.913  1.00  0.00     0.220 C 
ATOM     10  O   UNL     1      96.766  82.457  86.469  1.00  0.00    -0.275 OA
ATOM     11  N   UNL     1      94.800  83.605  86.309  1.00  0.00    -0.352 N 
ATOM     12  H   UNL     1      94.314  84.282  85.739  1.00  0.00     0.163 HD
BRANCH  11  13
ATOM     13  C   UNL     1      94.135  83.006  87.426  1.00  0.00     0.151 C 
BRANCH  13  14
ATOM     14  C   UNL     1      93.251  81.867  87.060  1.00  0.00    -0.025 A 
ATOM     15  C   UNL     1      91.905  82.100  86.690  1.00  0.00     0.056 A 
ATOM     16  C   UNL     1      93.734  80.538  87.078  1.00  0.00     0.009 A 
ATOM     17  C   UNL     1      91.059  81.029  86.322  1.00  0.00     0.160 A 
ATOM     18  C   UNL     1      92.897  79.469  86.713  1.00  0.00     0.050 A 
ATOM     19  C   UNL     1      91.560  79.708  86.343  1.00  0.00     0.157 A 
BRANCH  17  20
ATOM     20  O   UNL     1      89.743  81.253  86.004  1.00  0.00    -0.493 OA
ATOM     21  C   UNL     1      88.890  81.464  87.143  1.00  0.00     0.278 C 
ENDBRANCH  17  20
BRANCH  19  22
ATOM     22  O   UNL     1      90.752  78.666  86.018  1.00  0.00    -0.504 OA
ATOM     23  H   UNL     1      90.213  78.431  86.777  1.00  0.00     0.293 HD
ENDBRANCH  19  22
ENDBRANCH  13  14
ENDBRANCH  11  13
ENDBRANCH   8   9
ENDBRANCH   1   8
TORSDOF 11
ENDMDL
MODEL 8
REMARK VINA RESULT:    -5.482     19.685     21.662
REMARK INTER + INTRA:          -9.293
REMARK INTER:                  -8.163
REMARK INTRA:                  -1.130
REMARK UNBOUND:                -0.446
REMARK SMILES CCCCCCCCC(=O)NCc1ccc(O)c(OC)c1
REMARK SMILES IDX 7 1 6 2 5 3 4 4 3 5 2 6 1 7 8 8 9 9 10 10 11 11 12 13 13 14
REMARK SMILES IDX 21 15 14 16 18 17 15 18 16 19 19 20 20 21 17 22
REMARK H PARENT 11 12 17 23
REMARK Flexibility Score: inf
ROOT
ATOM      1  C   UNL     1      90.613  82.142  86.564  1.00  0.00     0.010 C 
ENDROOT
BRANCH   1   2
ATOM      2  C   UNL     1      89.822  81.930  87.887  1.00  0.00     0.001 C 
BRANCH   2   3
ATOM      3  C   UNL     1      90.311  82.876  89.023  1.00  0.00     0.000 C 
BRANCH   3   4
ATOM      4  C   UNL     1      91.356  83.928  88.557  1.00  0.00    -0.000 C 
BRANCH   4   5
ATOM      5  C   UNL     1      92.591  84.006  89.499  1.00  0.00    -0.000 C 
BRANCH   5   6
ATOM      6  C   UNL     1      92.223  84.502  90.924  1.00  0.00    -0.003 C 
ATOM      7  C   UNL     1      91.408  85.813  90.911  1.00  0.00     0.004 C 
ENDBRANCH   5   6
ENDBRANCH   4   5
ENDBRANCH   3   4
ENDBRANCH   2   3
ENDBRANCH   1   2
BRANCH   1   8
ATOM      8  C   UNL     1      91.275  80.849  86.012  1.00  0.00     0.100 C 
BRANCH   8   9
ATOM      9  C   UNL     1      92.671  80.710  86.492  1.00  0.00     0.220 C 
ATOM     10  O   UNL     1      93.076  79.569  86.820  1.00  0.00    -0.275 OA
ATOM     11  N   UNL     1      93.497  81.795  86.545  1.00  0.00    -0.352 N 
ATOM     12  H   UNL     1      93.045  82.675  86.342  1.00  0.00     0.163 HD
BRANCH  11  13
ATOM     13  C   UNL     1      94.895  81.767  86.853  1.00  0.00     0.151 C 
BRANCH  13  14
ATOM     14  C   UNL     1      95.641  82.960  86.370  1.00  0.00    -0.025 A 
ATOM     15  C   UNL     1      95.311  84.249  86.852  1.00  0.00     0.056 A 
ATOM     16  C   UNL     1      96.684  82.831  85.425  1.00  0.00     0.009 A 
ATOM     17  C   UNL     1      96.023  85.390  86.416  1.00  0.00     0.160 A 
ATOM     18  C   UNL     1      97.396  83.962  84.987  1.00  0.00     0.050 A 
ATOM     19  C   UNL     1      97.065  85.241  85.473  1.00  0.00     0.157 A 
BRANCH  17  20
ATOM     20  O   UNL     1      95.674  86.644  86.852  1.00  0.00    -0.493 OA
ATOM     21  C   UNL     1      95.897  86.861  88.257  1.00  0.00     0.278 C 
ENDBRANCH  17  20
BRANCH  19  22
ATOM     22  O   UNL     1      97.740  86.330  85.024  1.00  0.00    -0.504 OA
ATOM     23  H   UNL     1      97.871  86.257  84.076  1.00  0.00     0.293 HD
ENDBRANCH  19  22
ENDBRANCH  13  14
ENDBRANCH  11  13
ENDBRANCH   8   9
ENDBRANCH   1   8
TORSDOF 11
ENDMDL
MODEL 9
REMARK VINA RESULT:    -5.478      8.322     12.526
REMARK INTER + INTRA:          -9.286
REMARK INTER:                  -8.615
REMARK INTRA:                  -0.671
REMARK UNBOUND:                -0.446
REMARK SMILES CCCCCCCCC(=O)NCc1ccc(O)c(OC)c1
REMARK SMILES IDX 7 1 6 2 5 3 4 4 3 5 2 6 1 7 8 8 9 9 10 10 11 11 12 13 13 14
REMARK SMILES IDX 21 15 14 16 18 17 15 18 16 19 19 20 20 21 17 22
REMARK H PARENT 11 12 17 23
REMARK Flexibility Score: inf
ROOT
ATOM      1  C   UNL     1      95.239  95.793  79.486  1.00  0.00     0.010 C 
ENDROOT
BRANCH   1   2
ATOM      2  C   UNL     1      94.254  96.138  78.331  1.00  0.00     0.001 C 
BRANCH   2   3
ATOM      3  C   UNL     1      92.835  95.545  78.570  1.00  0.00     0.000 C 
BRANCH   3   4
ATOM      4  C   UNL     1      91.905  95.622  77.326  1.00  0.00    -0.000 C 
BRANCH   4   5
ATOM      5  C   UNL     1      90.438  95.983  77.694  1.00  0.00    -0.000 C 
BRANCH   5   6
ATOM      6  C   UNL     1      89.444  94.833  77.380  1.00  0.00    -0.003 C 
ATOM      7  C   UNL     1      89.691  93.574  78.239  1.00  0.00     0.004 C 
ENDBRANCH   5   6
ENDBRANCH   4   5
ENDBRANCH   3   4
ENDBRANCH   2   3
ENDBRANCH   1   2
BRANCH   1   8
ATOM      8  C   UNL     1      94.754  94.634  80.401  1.00  0.00     0.100 C 
BRANCH   8   9
ATOM      9  C   UNL     1      95.557  94.557  81.645  1.00  0.00     0.220 C 
ATOM     10  O   UNL     1      95.240  93.701  82.506  1.00  0.00    -0.275 OA
ATOM     11  N   UNL     1      96.632  95.378  81.829  1.00  0.00    -0.352 N 
ATOM     12  H   UNL     1      96.745  96.085  81.117  1.00  0.00     0.163 HD
BRANCH  11  13
ATOM     13  C   UNL     1      97.563  95.306  82.913  1.00  0.00     0.151 C 
BRANCH  13  14
ATOM     14  C   UNL     1      97.506  96.471  83.835  1.00  0.00    -0.025 A 
ATOM     15  C   UNL     1      96.596  97.528  83.591  1.00  0.00     0.056 A 
ATOM     16  C   UNL     1      98.355  96.548  84.963  1.00  0.00     0.009 A 
ATOM     17  C   UNL     1      96.517  98.634  84.469  1.00  0.00     0.160 A 
ATOM     18  C   UNL     1      98.281  97.645  85.840  1.00  0.00     0.050 A 
ATOM     19  C   UNL     1      97.371  98.692  85.593  1.00  0.00     0.157 A 
BRANCH  17  20
ATOM     20  O   UNL     1      95.664  99.677  84.208  1.00  0.00    -0.493 OA
ATOM     21  C   UNL     1      95.109  99.665  82.881  1.00  0.00     0.278 C 
ENDBRANCH  17  20
BRANCH  19  22
ATOM     22  O   UNL     1      97.327  99.759  86.430  1.00  0.00    -0.504 OA
ATOM     23  H   UNL     1      96.464  99.801  86.850  1.00  0.00     0.293 HD
ENDBRANCH  19  22
ENDBRANCH  13  14
ENDBRANCH  11  13
ENDBRANCH   8   9
ENDBRANCH   1   8
TORSDOF 11
ENDMDL
MODEL 10
REMARK VINA RESULT:    -5.389     17.679     20.549
REMARK INTER + INTRA:          -9.143
REMARK INTER:                  -8.431
REMARK INTRA:                  -0.712
REMARK UNBOUND:                -0.446
REMARK SMILES CCCCCCCCC(=O)NCc1ccc(O)c(OC)c1
REMARK SMILES IDX 7 1 6 2 5 3 4 4 3 5 2 6 1 7 8 8 9 9 10 10 11 11 12 13 13 14
REMARK SMILES IDX 21 15 14 16 18 17 15 18 16 19 19 20 20 21 17 22
REMARK H PARENT 11 12 17 23
REMARK Flexibility Score: inf
ROOT
ATOM      1  C   UNL     1      97.967  83.243  79.789  1.00  0.00     0.010 C 
ENDROOT
BRANCH   1   2
ATOM      2  C   UNL     1      97.911  82.662  78.347  1.00  0.00     0.001 C 
BRANCH   2   3
ATOM      3  C   UNL     1      97.460  83.724  77.301  1.00  0.00     0.000 C 
BRANCH   3   4
ATOM      4  C   UNL     1      98.623  84.278  76.429  1.00  0.00    -0.000 C 
BRANCH   4   5
ATOM      5  C   UNL     1      99.957  83.511  76.651  1.00  0.00    -0.000 C 
BRANCH   5   6
ATOM      6  C   UNL     1     100.410  82.728  75.389  1.00  0.00    -0.003 C 
ATOM      7  C   UNL     1     100.000  81.239  75.427  1.00  0.00     0.004 C 
ENDBRANCH   5   6
ENDBRANCH   4   5
ENDBRANCH   3   4
ENDBRANCH   2   3
ENDBRANCH   1   2
BRANCH   1   8
ATOM      8  C   UNL     1      99.342  83.057  80.489  1.00  0.00     0.100 C 
BRANCH   8   9
ATOM      9  C   UNL     1      99.194  82.377  81.798  1.00  0.00     0.220 C 
ATOM     10  O   UNL     1      99.361  81.134  81.845  1.00  0.00    -0.275 OA
ATOM     11  N   UNL     1      98.911  83.094  82.925  1.00  0.00    -0.352 N 
ATOM     12  H   UNL     1      98.712  84.070  82.760  1.00  0.00     0.163 HD
BRANCH  11  13
ATOM     13  C   UNL     1      98.883  82.577  84.259  1.00  0.00     0.151 C 
BRANCH  13  14
ATOM     14  C   UNL     1      97.618  82.862  84.988  1.00  0.00    -0.025 A 
ATOM     15  C   UNL     1      97.183  84.197  85.165  1.00  0.00     0.056 A 
ATOM     16  C   UNL     1      96.832  81.812  85.516  1.00  0.00     0.009 A 
ATOM     17  C   UNL     1      95.973  84.481  85.840  1.00  0.00     0.160 A 
ATOM     18  C   UNL     1      95.628  82.088  86.188  1.00  0.00     0.050 A 
ATOM     19  C   UNL     1      95.199  83.418  86.358  1.00  0.00     0.157 A 
BRANCH  17  20
ATOM     20  O   UNL     1      95.574  85.778  86.048  1.00  0.00    -0.493 OA
ATOM     21  C   UNL     1      95.983  86.323  87.315  1.00  0.00     0.278 C 
ENDBRANCH  17  20
BRANCH  19  22
ATOM     22  O   UNL     1      94.049  83.676  87.032  1.00  0.00    -0.504 OA
ATOM     23  H   UNL     1      93.463  84.195  86.476  1.00  0.00     0.293 HD
ENDBRANCH  19  22
ENDBRANCH  13  14
ENDBRANCH  11  13
ENDBRANCH   8   9
ENDBRANCH   1   8
TORSDOF 11
ENDMDL
