MODEL 1
REMARK VINA RESULT:    -6.486      0.000      0.000
REMARK INTER + INTRA:         -11.050
REMARK INTER:                 -10.467
REMARK INTRA:                  -0.582
REMARK UNBOUND:                -0.582
REMARK SMILES COc1cc(CNC(=O)CCCCCCC(C)C)ccc1O
REMARK SMILES IDX 11 1 10 2 8 3 7 4 9 6 6 7 5 8 3 9 21 10 4 11 20 12 19 13
REMARK SMILES IDX 2 14 1 15 22 16 12 18 13 19 14 20 15 21 16 22 17 23 18 24
REMARK H PARENT 7 5 22 17
REMARK Flexibility Score: inf
ROOT
ATOM      1  C   UNL     1      94.269  98.201  74.945  1.00  0.00     0.010 C 
ENDROOT
BRANCH   1   2
ATOM      2  C   UNL     1      93.136  99.264  74.957  1.00  0.00     0.100 C 
BRANCH   2   3
ATOM      3  C   UNL     1      92.957  99.943  73.653  1.00  0.00     0.220 C 
ATOM      4  N   UNL     1      91.860  99.682  72.885  1.00  0.00    -0.352 N 
ATOM      5  H   UNL     1      91.241  98.979  73.261  1.00  0.00     0.163 HD
ATOM      6  O   UNL     1      93.821 100.777  73.286  1.00  0.00    -0.275 OA
BRANCH   4   7
ATOM      7  C   UNL     1      91.554 100.318  71.640  1.00  0.00     0.151 C 
BRANCH   7   8
ATOM      8  C   UNL     1      90.555  99.569  70.829  1.00  0.00    -0.025 A 
ATOM      9  C   UNL     1      89.007  99.467  68.920  1.00  0.00     0.160 A 
ATOM     10  C   UNL     1      88.684  98.133  69.251  1.00  0.00     0.157 A 
ATOM     11  C   UNL     1      89.924 100.180  69.721  1.00  0.00     0.056 A 
ATOM     12  C   UNL     1      89.276  97.527  70.374  1.00  0.00     0.050 A 
ATOM     13  C   UNL     1      90.213  98.235  71.152  1.00  0.00     0.009 A 
BRANCH   9  14
ATOM     14  O   UNL     1      88.408 100.079  67.853  1.00  0.00    -0.493 OA
ATOM     15  C   UNL     1      88.725 101.478  67.734  1.00  0.00     0.278 C 
ENDBRANCH   9  14
BRANCH  10  16
ATOM     16  O   UNL     1      87.803  97.423  68.499  1.00  0.00    -0.504 OA
ATOM     17  H   UNL     1      87.296  96.839  69.067  1.00  0.00     0.293 HD
ENDBRANCH  10  16
ENDBRANCH   7   8
ENDBRANCH   4   7
ENDBRANCH   2   3
ENDBRANCH   1   2
BRANCH   1  18
ATOM     18  C   UNL     1      94.057  97.106  76.029  1.00  0.00     0.001 C 
BRANCH  18  19
ATOM     19  C   UNL     1      92.568  96.893  76.422  1.00  0.00     0.000 C 
BRANCH  19  20
ATOM     20  C   UNL     1      92.310  95.443  76.922  1.00  0.00     0.000 C 
BRANCH  20  21
ATOM     21  C   UNL     1      90.895  95.219  77.524  1.00  0.00     0.003 C 
BRANCH  21  22
ATOM     22  C   UNL     1      90.302  93.794  77.276  1.00  0.00    -0.017 C 
ATOM     23  C   UNL     1      89.916  93.124  78.625  1.00  0.00     0.007 C 
ATOM     24  C   UNL     1      91.237  92.861  76.452  1.00  0.00     0.007 C 
ENDBRANCH  21  22
ENDBRANCH  20  21
ENDBRANCH  19  20
ENDBRANCH  18  19
ENDBRANCH   1  18
TORSDOF 11
ENDMDL
MODEL 2
REMARK VINA RESULT:    -5.899     17.181     19.356
REMARK INTER + INTRA:         -10.102
REMARK INTER:                  -9.496
REMARK INTRA:                  -0.606
REMARK UNBOUND:                -0.582
REMARK SMILES COc1cc(CNC(=O)CCCCCCC(C)C)ccc1O
REMARK SMILES IDX 11 1 10 2 8 3 7 4 9 6 6 7 5 8 3 9 21 10 4 11 20 12 19 13
REMARK SMILES IDX 2 14 1 15 22 16 12 18 13 19 14 20 15 21 16 22 17 23 18 24
REMARK H PARENT 7 5 22 17
REMARK Flexibility Score: inf
ROOT
ATOM      1  C   UNL     1      96.977  82.593  85.936  1.00  0.00     0.010 C 
ENDROOT
BRANCH   1   2
ATOM      2  C   UNL     1      97.096  83.341  84.580  1.00  0.00     0.100 C 
BRANCH   2   3
ATOM      3  C   UNL     1      98.124  82.767  83.683  1.00  0.00     0.220 C 
ATOM      4  N   UNL     1      98.308  83.276  82.430  1.00  0.00    -0.352 N 
ATOM      5  H   UNL     1      97.669  84.015  82.178  1.00  0.00     0.163 HD
ATOM      6  O   UNL     1      98.835  81.824  84.109  1.00  0.00    -0.275 OA
BRANCH   4   7
ATOM      7  C   UNL     1      99.306  82.842  81.501  1.00  0.00     0.151 C 
BRANCH   7   8
ATOM      8  C   UNL     1      98.920  83.062  80.080  1.00  0.00    -0.025 A 
ATOM      9  C   UNL     1      99.503  83.063  77.690  1.00  0.00     0.160 A 
ATOM     10  C   UNL     1      98.181  83.438  77.366  1.00  0.00     0.157 A 
ATOM     11  C   UNL     1      99.867  82.897  79.043  1.00  0.00     0.056 A 
ATOM     12  C   UNL     1      97.240  83.644  78.391  1.00  0.00     0.050 A 
ATOM     13  C   UNL     1      97.603  83.448  79.738  1.00  0.00     0.009 A 
BRANCH   9  14
ATOM     14  O   UNL     1     100.436  82.898  76.704  1.00  0.00    -0.493 OA
ATOM     15  C   UNL     1     101.414  83.953  76.648  1.00  0.00     0.278 C 
ENDBRANCH   9  14
BRANCH  10  16
ATOM     16  O   UNL     1      97.803  83.607  76.072  1.00  0.00    -0.504 OA
ATOM     17  H   UNL     1      98.509  83.313  75.492  1.00  0.00     0.293 HD
ENDBRANCH  10  16
ENDBRANCH   7   8
ENDBRANCH   4   7
ENDBRANCH   2   3
ENDBRANCH   1   2
BRANCH   1  18
ATOM     18  C   UNL     1      95.540  82.055  86.186  1.00  0.00     0.001 C 
BRANCH  18  19
ATOM     19  C   UNL     1      94.629  83.040  86.971  1.00  0.00     0.000 C 
BRANCH  19  20
ATOM     20  C   UNL     1      93.147  82.569  86.976  1.00  0.00     0.000 C 
BRANCH  20  21
ATOM     21  C   UNL     1      92.960  81.054  86.688  1.00  0.00     0.003 C 
BRANCH  21  22
ATOM     22  C   UNL     1      91.481  80.622  86.418  1.00  0.00    -0.017 C 
ATOM     23  C   UNL     1      91.404  79.694  85.173  1.00  0.00     0.007 C 
ATOM     24  C   UNL     1      90.497  81.819  86.267  1.00  0.00     0.007 C 
ENDBRANCH  21  22
ENDBRANCH  20  21
ENDBRANCH  19  20
ENDBRANCH  18  19
ENDBRANCH   1  18
TORSDOF 11
ENDMDL
MODEL 3
REMARK VINA RESULT:    -5.818     18.182     21.017
REMARK INTER + INTRA:          -9.972
REMARK INTER:                  -9.413
REMARK INTRA:                  -0.560
REMARK UNBOUND:                -0.582
REMARK SMILES COc1cc(CNC(=O)CCCCCCC(C)C)ccc1O
REMARK SMILES IDX 11 1 10 2 8 3 7 4 9 6 6 7 5 8 3 9 21 10 4 11 20 12 19 13
REMARK SMILES IDX 2 14 1 15 22 16 12 18 13 19 14 20 15 21 16 22 17 23 18 24
REMARK H PARENT 7 5 22 17
REMARK Flexibility Score: inf
ROOT
ATOM      1  C   UNL     1      97.404  83.253  84.415  1.00  0.00     0.010 C 
ENDROOT
BRANCH   1   2
ATOM      2  C   UNL     1      96.599  84.395  85.096  1.00  0.00     0.100 C 
BRANCH   2   3
ATOM      3  C   UNL     1      95.823  83.942  86.273  1.00  0.00     0.220 C 
ATOM      4  N   UNL     1      94.920  82.927  86.153  1.00  0.00    -0.352 N 
ATOM      5  H   UNL     1      94.811  82.568  85.216  1.00  0.00     0.163 HD
ATOM      6  O   UNL     1      96.033  84.495  87.380  1.00  0.00    -0.275 OA
BRANCH   4   7
ATOM      7  C   UNL     1      94.158  82.368  87.229  1.00  0.00     0.151 C 
BRANCH   7   8
ATOM      8  C   UNL     1      92.785  81.958  86.824  1.00  0.00    -0.025 A 
ATOM      9  C   UNL     1      91.285  80.386  85.671  1.00  0.00     0.160 A 
ATOM     10  C   UNL     1      90.169  81.145  86.085  1.00  0.00     0.157 A 
ATOM     11  C   UNL     1      92.584  80.808  86.026  1.00  0.00     0.056 A 
ATOM     12  C   UNL     1      90.359  82.313  86.846  1.00  0.00     0.050 A 
ATOM     13  C   UNL     1      91.656  82.712  87.222  1.00  0.00     0.009 A 
BRANCH   9  14
ATOM     14  O   UNL     1      91.114  79.271  84.897  1.00  0.00    -0.493 OA
ATOM     15  C   UNL     1      91.499  78.047  85.550  1.00  0.00     0.278 C 
ENDBRANCH   9  14
BRANCH  10  16
ATOM     16  O   UNL     1      88.907  80.763  85.755  1.00  0.00    -0.504 OA
ATOM     17  H   UNL     1      88.909  80.379  84.875  1.00  0.00     0.293 HD
ENDBRANCH  10  16
ENDBRANCH   7   8
ENDBRANCH   4   7
ENDBRANCH   2   3
ENDBRANCH   1   2
BRANCH   1  18
ATOM     18  C   UNL     1      97.591  83.496  82.890  1.00  0.00     0.001 C 
BRANCH  18  19
ATOM     19  C   UNL     1      98.636  82.554  82.230  1.00  0.00     0.000 C 
BRANCH  19  20
ATOM     20  C   UNL     1      99.160  83.134  80.886  1.00  0.00     0.000 C 
BRANCH  20  21
ATOM     21  C   UNL     1      99.213  82.103  79.724  1.00  0.00     0.003 C 
BRANCH  21  22
ATOM     22  C   UNL     1      98.341  82.479  78.481  1.00  0.00    -0.017 C 
ATOM     23  C   UNL     1      99.246  82.773  77.252  1.00  0.00     0.007 C 
ATOM     24  C   UNL     1      97.367  83.666  78.736  1.00  0.00     0.007 C 
ENDBRANCH  21  22
ENDBRANCH  20  21
ENDBRANCH  19  20
ENDBRANCH  18  19
ENDBRANCH   1  18
TORSDOF 11
ENDMDL
MODEL 4
REMARK VINA RESULT:    -5.802      1.765      2.602
REMARK INTER + INTRA:          -9.945
REMARK INTER:                  -9.112
REMARK INTRA:                  -0.834
REMARK UNBOUND:                -0.582
REMARK SMILES COc1cc(CNC(=O)CCCCCCC(C)C)ccc1O
REMARK SMILES IDX 11 1 10 2 8 3 7 4 9 6 6 7 5 8 3 9 21 10 4 11 20 12 19 13
REMARK SMILES IDX 2 14 1 15 22 16 12 18 13 19 14 20 15 21 16 22 17 23 18 24
REMARK H PARENT 7 5 22 17
REMARK Flexibility Score: inf
ROOT
ATOM      1  C   UNL     1      93.880  98.503  75.692  1.00  0.00     0.010 C 
ENDROOT
BRANCH   1   2
ATOM      2  C   UNL     1      94.066  99.107  74.273  1.00  0.00     0.100 C 
BRANCH   2   3
ATOM      3  C   UNL     1      92.925  99.945  73.839  1.00  0.00     0.220 C 
ATOM      4  N   UNL     1      92.535  99.955  72.532  1.00  0.00    -0.352 N 
ATOM      5  H   UNL     1      93.108  99.395  71.917  1.00  0.00     0.163 HD
ATOM      6  O   UNL     1      92.313 100.621  74.702  1.00  0.00    -0.275 OA
BRANCH   4   7
ATOM      7  C   UNL     1      91.415 100.677  72.009  1.00  0.00     0.151 C 
BRANCH   7   8
ATOM      8  C   UNL     1      90.526  99.843  71.154  1.00  0.00    -0.025 A 
ATOM      9  C   UNL     1      89.189  99.563  69.109  1.00  0.00     0.160 A 
ATOM     10  C   UNL     1      88.867  98.244  69.498  1.00  0.00     0.157 A 
ATOM     11  C   UNL     1      89.998 100.357  69.948  1.00  0.00     0.056 A 
ATOM     12  C   UNL     1      89.354  97.734  70.715  1.00  0.00     0.050 A 
ATOM     13  C   UNL     1      90.186  98.523  71.533  1.00  0.00     0.009 A 
BRANCH   9  14
ATOM     14  O   UNL     1      88.688 100.082  67.947  1.00  0.00    -0.493 OA
ATOM     15  C   UNL     1      88.637 101.520  67.928  1.00  0.00     0.278 C 
ENDBRANCH   9  14
BRANCH  10  16
ATOM     16  O   UNL     1      88.088  97.457  68.711  1.00  0.00    -0.504 OA
ATOM     17  H   UNL     1      87.305  97.191  69.200  1.00  0.00     0.293 HD
ENDBRANCH  10  16
ENDBRANCH   7   8
ENDBRANCH   4   7
ENDBRANCH   2   3
ENDBRANCH   1   2
BRANCH   1  18
ATOM     18  C   UNL     1      92.932  97.270  75.686  1.00  0.00     0.001 C 
BRANCH  18  19
ATOM     19  C   UNL     1      93.637  95.937  76.064  1.00  0.00     0.000 C 
BRANCH  19  20
ATOM     20  C   UNL     1      93.528  95.644  77.587  1.00  0.00     0.000 C 
BRANCH  20  21
ATOM     21  C   UNL     1      94.828  95.076  78.221  1.00  0.00     0.003 C 
BRANCH  21  22
ATOM     22  C   UNL     1      95.515  96.024  79.257  1.00  0.00    -0.017 C 
ATOM     23  C   UNL     1      94.578  96.270  80.474  1.00  0.00     0.007 C 
ATOM     24  C   UNL     1      95.985  97.378  78.649  1.00  0.00     0.007 C 
ENDBRANCH  21  22
ENDBRANCH  20  21
ENDBRANCH  19  20
ENDBRANCH  18  19
ENDBRANCH   1  18
TORSDOF 11
ENDMDL
MODEL 5
REMARK VINA RESULT:    -5.774     17.249     19.772
REMARK INTER + INTRA:          -9.900
REMARK INTER:                  -8.817
REMARK INTRA:                  -1.083
REMARK UNBOUND:                -0.582
REMARK SMILES COc1cc(CNC(=O)CCCCCCC(C)C)ccc1O
REMARK SMILES IDX 11 1 10 2 8 3 7 4 9 6 6 7 5 8 3 9 21 10 4 11 20 12 19 13
REMARK SMILES IDX 2 14 1 15 22 16 12 18 13 19 14 20 15 21 16 22 17 23 18 24
REMARK H PARENT 7 5 22 17
REMARK Flexibility Score: inf
ROOT
ATOM      1  C   UNL     1      98.070  80.215  84.236  1.00  0.00     0.010 C 
ENDROOT
BRANCH   1   2
ATOM      2  C   UNL     1      99.168  79.467  83.430  1.00  0.00     0.100 C 
BRANCH   2   3
ATOM      3  C   UNL     1      99.933  80.352  82.524  1.00  0.00     0.220 C 
ATOM      4  N   UNL     1      99.407  81.543  82.117  1.00  0.00    -0.352 N 
ATOM      5  H   UNL     1      98.470  81.724  82.446  1.00  0.00     0.163 HD
ATOM      6  O   UNL     1     101.081  79.994  82.162  1.00  0.00    -0.275 OA
BRANCH   4   7
ATOM      7  C   UNL     1     100.075  82.503  81.292  1.00  0.00     0.151 C 
BRANCH   7   8
ATOM      8  C   UNL     1      99.287  82.895  80.092  1.00  0.00    -0.025 A 
ATOM      9  C   UNL     1      99.148  83.276  77.666  1.00  0.00     0.160 A 
ATOM     10  C   UNL     1      97.780  83.600  77.793  1.00  0.00     0.157 A 
ATOM     11  C   UNL     1      99.894  82.945  78.816  1.00  0.00     0.056 A 
ATOM     12  C   UNL     1      97.173  83.592  79.062  1.00  0.00     0.050 A 
ATOM     13  C   UNL     1      97.917  83.232  80.202  1.00  0.00     0.009 A 
BRANCH   9  14
ATOM     14  O   UNL     1      99.758  83.319  76.442  1.00  0.00    -0.493 OA
ATOM     15  C   UNL     1     100.032  82.021  75.884  1.00  0.00     0.278 C 
ENDBRANCH   9  14
BRANCH  10  16
ATOM     16  O   UNL     1      97.037  83.924  76.702  1.00  0.00    -0.504 OA
ATOM     17  H   UNL     1      96.384  84.585  76.945  1.00  0.00     0.293 HD
ENDBRANCH  10  16
ENDBRANCH   7   8
ENDBRANCH   4   7
ENDBRANCH   2   3
ENDBRANCH   1   2
BRANCH   1  18
ATOM     18  C   UNL     1      98.460  80.396  85.731  1.00  0.00     0.001 C 
BRANCH  18  19
ATOM     19  C   UNL     1      98.817  81.861  86.112  1.00  0.00     0.000 C 
BRANCH  19  20
ATOM     20  C   UNL     1      97.619  82.584  86.790  1.00  0.00     0.000 C 
BRANCH  20  21
ATOM     21  C   UNL     1      96.404  82.820  85.851  1.00  0.00     0.003 C 
BRANCH  21  22
ATOM     22  C   UNL     1      96.492  84.121  84.989  1.00  0.00    -0.017 C 
ATOM     23  C   UNL     1      97.271  83.849  83.671  1.00  0.00     0.007 C 
ATOM     24  C   UNL     1      97.110  85.334  85.746  1.00  0.00     0.007 C 
ENDBRANCH  21  22
ENDBRANCH  20  21
ENDBRANCH  19  20
ENDBRANCH  18  19
ENDBRANCH   1  18
TORSDOF 11
ENDMDL
MODEL 6
REMARK VINA RESULT:    -5.750     18.423     20.987
REMARK INTER + INTRA:          -9.862
REMARK INTER:                  -9.179
REMARK INTRA:                  -0.683
REMARK UNBOUND:                -0.582
REMARK SMILES COc1cc(CNC(=O)CCCCCCC(C)C)ccc1O
REMARK SMILES IDX 11 1 10 2 8 3 7 4 9 6 6 7 5 8 3 9 21 10 4 11 20 12 19 13
REMARK SMILES IDX 2 14 1 15 22 16 12 18 13 19 14 20 15 21 16 22 17 23 18 24
REMARK H PARENT 7 5 22 17
REMARK Flexibility Score: inf
ROOT
ATOM      1  C   UNL     1      97.058  84.014  84.105  1.00  0.00     0.010 C 
ENDROOT
BRANCH   1   2
ATOM      2  C   UNL     1      97.272  85.069  85.225  1.00  0.00     0.100 C 
BRANCH   2   3
ATOM      3  C   UNL     1      96.655  84.686  86.515  1.00  0.00     0.220 C 
ATOM      4  N   UNL     1      95.323  84.396  86.582  1.00  0.00    -0.352 N 
ATOM      5  H   UNL     1      94.823  84.510  85.713  1.00  0.00     0.163 HD
ATOM      6  O   UNL     1      97.385  84.612  87.532  1.00  0.00    -0.275 OA
BRANCH   4   7
ATOM      7  C   UNL     1      94.631  83.960  87.757  1.00  0.00     0.151 C 
BRANCH   7   8
ATOM      8  C   UNL     1      93.506  83.030  87.464  1.00  0.00    -0.025 A 
ATOM      9  C   UNL     1      91.151  82.382  87.745  1.00  0.00     0.160 A 
ATOM     10  C   UNL     1      91.346  81.286  86.876  1.00  0.00     0.157 A 
ATOM     11  C   UNL     1      92.235  83.233  88.047  1.00  0.00     0.056 A 
ATOM     12  C   UNL     1      92.617  81.051  86.321  1.00  0.00     0.050 A 
ATOM     13  C   UNL     1      93.688  81.921  86.603  1.00  0.00     0.009 A 
BRANCH   9  14
ATOM     14  O   UNL     1      89.928  82.597  88.321  1.00  0.00    -0.493 OA
ATOM     15  C   UNL     1      89.995  82.892  89.728  1.00  0.00     0.278 C 
ENDBRANCH   9  14
BRANCH  10  16
ATOM     16  O   UNL     1      90.320  80.450  86.569  1.00  0.00    -0.504 OA
ATOM     17  H   UNL     1      89.716  80.892  85.968  1.00  0.00     0.293 HD
ENDBRANCH  10  16
ENDBRANCH   7   8
ENDBRANCH   4   7
ENDBRANCH   2   3
ENDBRANCH   1   2
BRANCH   1  18
ATOM     18  C   UNL     1      98.037  82.812  84.235  1.00  0.00     0.001 C 
BRANCH  18  19
ATOM     19  C   UNL     1      98.495  82.226  82.870  1.00  0.00     0.000 C 
BRANCH  19  20
ATOM     20  C   UNL     1      98.211  83.210  81.701  1.00  0.00     0.000 C 
BRANCH  20  21
ATOM     21  C   UNL     1      99.269  83.171  80.564  1.00  0.00     0.003 C 
BRANCH  21  22
ATOM     22  C   UNL     1      98.715  82.714  79.175  1.00  0.00    -0.017 C 
ATOM     23  C   UNL     1      99.774  82.953  78.062  1.00  0.00     0.007 C 
ATOM     24  C   UNL     1      97.362  83.382  78.791  1.00  0.00     0.007 C 
ENDBRANCH  21  22
ENDBRANCH  20  21
ENDBRANCH  19  20
ENDBRANCH  18  19
ENDBRANCH   1  18
TORSDOF 11
ENDMDL
MODEL 7
REMARK VINA RESULT:    -5.604     18.282     20.789
REMARK INTER + INTRA:          -9.627
REMARK INTER:                  -8.804
REMARK INTRA:                  -0.823
REMARK UNBOUND:                -0.582
REMARK SMILES COc1cc(CNC(=O)CCCCCCC(C)C)ccc1O
REMARK SMILES IDX 11 1 10 2 8 3 7 4 9 6 6 7 5 8 3 9 21 10 4 11 20 12 19 13
REMARK SMILES IDX 2 14 1 15 22 16 12 18 13 19 14 20 15 21 16 22 17 23 18 24
REMARK H PARENT 7 5 22 17
REMARK Flexibility Score: inf
ROOT
ATOM      1  C   UNL     1      97.014  84.104  84.496  1.00  0.00     0.010 C 
ENDROOT
BRANCH   1   2
ATOM      2  C   UNL     1      98.027  83.856  85.648  1.00  0.00     0.100 C 
BRANCH   2   3
ATOM      3  C   UNL     1      97.628  84.493  86.923  1.00  0.00     0.220 C 
ATOM      4  N   UNL     1      96.487  85.238  86.995  1.00  0.00    -0.352 N 
ATOM      5  H   UNL     1      95.996  85.340  86.119  1.00  0.00     0.163 HD
ATOM      6  O   UNL     1      98.348  84.312  87.936  1.00  0.00    -0.275 OA
BRANCH   4   7
ATOM      7  C   UNL     1      95.974  85.850  88.182  1.00  0.00     0.151 C 
BRANCH   7   8
ATOM      8  C   UNL     1      94.574  85.448  88.492  1.00  0.00    -0.025 A 
ATOM      9  C   UNL     1      92.559  84.153  87.936  1.00  0.00     0.160 A 
ATOM     10  C   UNL     1      91.922  84.642  89.098  1.00  0.00     0.157 A 
ATOM     11  C   UNL     1      93.871  84.573  87.633  1.00  0.00     0.056 A 
ATOM     12  C   UNL     1      92.597  85.543  89.940  1.00  0.00     0.050 A 
ATOM     13  C   UNL     1      93.918  85.936  89.646  1.00  0.00     0.009 A 
BRANCH   9  14
ATOM     14  O   UNL     1      91.896  83.306  87.090  1.00  0.00    -0.493 OA
ATOM     15  C   UNL     1      92.391  81.955  87.115  1.00  0.00     0.278 C 
ENDBRANCH   9  14
BRANCH  10  16
ATOM     16  O   UNL     1      90.658  84.255  89.414  1.00  0.00    -0.504 OA
ATOM     17  H   UNL     1      90.092  84.351  88.644  1.00  0.00     0.293 HD
ENDBRANCH  10  16
ENDBRANCH   7   8
ENDBRANCH   4   7
ENDBRANCH   2   3
ENDBRANCH   1   2
BRANCH   1  18
ATOM     18  C   UNL     1      97.530  83.558  83.134  1.00  0.00     0.001 C 
BRANCH  18  19
ATOM     19  C   UNL     1      98.461  82.320  83.267  1.00  0.00     0.000 C 
BRANCH  19  20
ATOM     20  C   UNL     1      99.468  82.232  82.086  1.00  0.00     0.000 C 
BRANCH  20  21
ATOM     21  C   UNL     1      99.122  83.153  80.883  1.00  0.00     0.003 C 
BRANCH  21  22
ATOM     22  C   UNL     1      98.200  82.495  79.805  1.00  0.00    -0.017 C 
ATOM     23  C   UNL     1      99.036  81.599  78.848  1.00  0.00     0.007 C 
ATOM     24  C   UNL     1      97.357  83.522  78.993  1.00  0.00     0.007 C 
ENDBRANCH  21  22
ENDBRANCH  20  21
ENDBRANCH  19  20
ENDBRANCH  18  19
ENDBRANCH   1  18
TORSDOF 11
ENDMDL
MODEL 8
REMARK VINA RESULT:    -5.478     17.290     20.009
REMARK INTER + INTRA:          -9.423
REMARK INTER:                  -8.369
REMARK INTRA:                  -1.054
REMARK UNBOUND:                -0.582
REMARK SMILES COc1cc(CNC(=O)CCCCCCC(C)C)ccc1O
REMARK SMILES IDX 11 1 10 2 8 3 7 4 9 6 6 7 5 8 3 9 21 10 4 11 20 12 19 13
REMARK SMILES IDX 2 14 1 15 22 16 12 18 13 19 14 20 15 21 16 22 17 23 18 24
REMARK H PARENT 7 5 22 17
REMARK Flexibility Score: inf
ROOT
ATOM      1  C   UNL     1     103.948  80.968  80.597  1.00  0.00     0.010 C 
ENDROOT
BRANCH   1   2
ATOM      2  C   UNL     1     103.357  81.635  81.870  1.00  0.00     0.100 C 
BRANCH   2   3
ATOM      3  C   UNL     1     101.897  81.435  82.011  1.00  0.00     0.220 C 
ATOM      4  N   UNL     1     101.039  82.484  81.854  1.00  0.00    -0.352 N 
ATOM      5  H   UNL     1     101.487  83.373  81.686  1.00  0.00     0.163 HD
ATOM      6  O   UNL     1     101.469  80.280  82.252  1.00  0.00    -0.275 OA
BRANCH   4   7
ATOM      7  C   UNL     1      99.611  82.399  81.910  1.00  0.00     0.151 C 
BRANCH   7   8
ATOM      8  C   UNL     1      98.948  82.832  80.649  1.00  0.00    -0.025 A 
ATOM      9  C   UNL     1      99.014  83.161  78.212  1.00  0.00     0.160 A 
ATOM     10  C   UNL     1      97.677  83.612  78.235  1.00  0.00     0.157 A 
ATOM     11  C   UNL     1      99.645  82.793  79.420  1.00  0.00     0.056 A 
ATOM     12  C   UNL     1      96.985  83.692  79.457  1.00  0.00     0.050 A 
ATOM     13  C   UNL     1      97.611  83.295  80.655  1.00  0.00     0.009 A 
BRANCH   9  14
ATOM     14  O   UNL     1      99.709  83.116  77.034  1.00  0.00    -0.493 OA
ATOM     15  C   UNL     1      99.547  81.882  76.312  1.00  0.00     0.278 C 
ENDBRANCH   9  14
BRANCH  10  16
ATOM     16  O   UNL     1      97.045  83.975  77.087  1.00  0.00    -0.504 OA
ATOM     17  H   UNL     1      96.119  83.727  77.141  1.00  0.00     0.293 HD
ENDBRANCH  10  16
ENDBRANCH   7   8
ENDBRANCH   4   7
ENDBRANCH   2   3
ENDBRANCH   1   2
BRANCH   1  18
ATOM     18  C   UNL     1     103.141  81.329  79.317  1.00  0.00     0.001 C 
BRANCH  18  19
ATOM     19  C   UNL     1     104.031  81.759  78.117  1.00  0.00     0.000 C 
BRANCH  19  20
ATOM     20  C   UNL     1     103.173  82.150  76.881  1.00  0.00     0.000 C 
BRANCH  20  21
ATOM     21  C   UNL     1     103.889  83.104  75.885  1.00  0.00     0.003 C 
BRANCH  21  22
ATOM     22  C   UNL     1     102.938  84.089  75.129  1.00  0.00    -0.017 C 
ATOM     23  C   UNL     1     103.679  84.752  73.935  1.00  0.00     0.007 C 
ATOM     24  C   UNL     1     102.304  85.175  76.048  1.00  0.00     0.007 C 
ENDBRANCH  21  22
ENDBRANCH  20  21
ENDBRANCH  19  20
ENDBRANCH  18  19
ENDBRANCH   1  18
TORSDOF 11
ENDMDL
MODEL 9
REMARK VINA RESULT:    -5.436     18.114     21.564
REMARK INTER + INTRA:          -9.356
REMARK INTER:                  -8.090
REMARK INTRA:                  -1.266
REMARK UNBOUND:                -0.582
REMARK SMILES COc1cc(CNC(=O)CCCCCCC(C)C)ccc1O
REMARK SMILES IDX 11 1 10 2 8 3 7 4 9 6 6 7 5 8 3 9 21 10 4 11 20 12 19 13
REMARK SMILES IDX 2 14 1 15 22 16 12 18 13 19 14 20 15 21 16 22 17 23 18 24
REMARK H PARENT 7 5 22 17
REMARK Flexibility Score: inf
ROOT
ATOM      1  C   UNL     1     101.907  80.339  81.621  1.00  0.00     0.010 C 
ENDROOT
BRANCH   1   2
ATOM      2  C   UNL     1     100.910  79.151  81.522  1.00  0.00     0.100 C 
BRANCH   2   3
ATOM      3  C   UNL     1      99.843  79.195  82.547  1.00  0.00     0.220 C 
ATOM      4  N   UNL     1      99.932  80.062  83.596  1.00  0.00    -0.352 N 
ATOM      5  H   UNL     1     100.780  80.608  83.621  1.00  0.00     0.163 HD
ATOM      6  O   UNL     1      98.851  78.438  82.415  1.00  0.00    -0.275 OA
BRANCH   4   7
ATOM      7  C   UNL     1      98.938  80.234  84.612  1.00  0.00     0.151 C 
BRANCH   7   8
ATOM      8  C   UNL     1      98.557  81.657  84.827  1.00  0.00    -0.025 A 
ATOM      9  C   UNL     1      98.616  83.693  86.205  1.00  0.00     0.160 A 
ATOM     10  C   UNL     1      97.874  84.383  85.222  1.00  0.00     0.157 A 
ATOM     11  C   UNL     1      98.936  82.333  86.009  1.00  0.00     0.056 A 
ATOM     12  C   UNL     1      97.458  83.710  84.059  1.00  0.00     0.050 A 
ATOM     13  C   UNL     1      97.805  82.360  83.856  1.00  0.00     0.009 A 
BRANCH   9  14
ATOM     14  O   UNL     1      98.992  84.326  87.359  1.00  0.00    -0.493 OA
ATOM     15  C   UNL     1     100.380  84.147  87.693  1.00  0.00     0.278 C 
ENDBRANCH   9  14
BRANCH  10  16
ATOM     16  O   UNL     1      97.550  85.692  85.386  1.00  0.00    -0.504 OA
ATOM     17  H   UNL     1      98.325  86.179  85.678  1.00  0.00     0.293 HD
ENDBRANCH  10  16
ENDBRANCH   7   8
ENDBRANCH   4   7
ENDBRANCH   2   3
ENDBRANCH   1   2
BRANCH   1  18
ATOM     18  C   UNL     1     101.490  81.531  80.714  1.00  0.00     0.001 C 
BRANCH  18  19
ATOM     19  C   UNL     1     100.623  82.598  81.441  1.00  0.00     0.000 C 
BRANCH  19  20
ATOM     20  C   UNL     1      99.352  82.957  80.622  1.00  0.00     0.000 C 
BRANCH  20  21
ATOM     21  C   UNL     1      99.584  83.038  79.087  1.00  0.00     0.003 C 
BRANCH  21  22
ATOM     22  C   UNL     1      98.369  83.591  78.274  1.00  0.00    -0.017 C 
ATOM     23  C   UNL     1      97.074  83.548  79.134  1.00  0.00     0.007 C 
ATOM     24  C   UNL     1      98.144  82.864  76.915  1.00  0.00     0.007 C 
ENDBRANCH  21  22
ENDBRANCH  20  21
ENDBRANCH  19  20
ENDBRANCH  18  19
ENDBRANCH   1  18
TORSDOF 11
ENDMDL
MODEL 10
REMARK VINA RESULT:    -5.436     17.862     20.670
REMARK INTER + INTRA:          -9.355
REMARK INTER:                  -8.461
REMARK INTRA:                  -0.894
REMARK UNBOUND:                -0.582
REMARK SMILES COc1cc(CNC(=O)CCCCCCC(C)C)ccc1O
REMARK SMILES IDX 11 1 10 2 8 3 7 4 9 6 6 7 5 8 3 9 21 10 4 11 20 12 19 13
REMARK SMILES IDX 2 14 1 15 22 16 12 18 13 19 14 20 15 21 16 22 17 23 18 24
REMARK H PARENT 7 5 22 17
REMARK Flexibility Score: inf
ROOT
ATOM      1  C   UNL     1      98.021  82.366  79.308  1.00  0.00     0.010 C 
ENDROOT
BRANCH   1   2
ATOM      2  C   UNL     1      99.527  82.594  79.613  1.00  0.00     0.100 C 
BRANCH   2   3
ATOM      3  C   UNL     1      99.873  82.388  81.037  1.00  0.00     0.220 C 
ATOM      4  N   UNL     1      98.900  82.096  81.948  1.00  0.00    -0.352 N 
ATOM      5  H   UNL     1      97.963  82.083  81.573  1.00  0.00     0.163 HD
ATOM      6  O   UNL     1     101.079  82.463  81.380  1.00  0.00    -0.275 OA
BRANCH   4   7
ATOM      7  C   UNL     1      99.122  81.820  83.335  1.00  0.00     0.151 C 
BRANCH   7   8
ATOM      8  C   UNL     1      98.513  82.834  84.239  1.00  0.00    -0.025 A 
ATOM      9  C   UNL     1      98.519  84.065  86.369  1.00  0.00     0.160 A 
ATOM     10  C   UNL     1      97.385  84.795  85.952  1.00  0.00     0.157 A 
ATOM     11  C   UNL     1      99.062  83.078  85.519  1.00  0.00     0.056 A 
ATOM     12  C   UNL     1      96.806  84.534  84.696  1.00  0.00     0.050 A 
ATOM     13  C   UNL     1      97.371  83.568  83.841  1.00  0.00     0.009 A 
BRANCH   9  14
ATOM     14  O   UNL     1      99.065  84.283  87.604  1.00  0.00    -0.493 OA
ATOM     15  C   UNL     1     100.440  83.871  87.711  1.00  0.00     0.278 C 
ENDBRANCH   9  14
BRANCH  10  16
ATOM     16  O   UNL     1      96.839  85.750  86.750  1.00  0.00    -0.504 OA
ATOM     17  H   UNL     1      97.334  86.568  86.654  1.00  0.00     0.293 HD
ENDBRANCH  10  16
ENDBRANCH   7   8
ENDBRANCH   4   7
ENDBRANCH   2   3
ENDBRANCH   1   2
BRANCH   1  18
ATOM     18  C   UNL     1      97.469  83.389  78.275  1.00  0.00     0.001 C 
BRANCH  18  19
ATOM     19  C   UNL     1      98.554  83.963  77.321  1.00  0.00     0.000 C 
BRANCH  19  20
ATOM     20  C   UNL     1      98.682  83.115  76.024  1.00  0.00     0.000 C 
BRANCH  20  21
ATOM     21  C   UNL     1     100.059  82.415  75.853  1.00  0.00     0.003 C 
BRANCH  21  22
ATOM     22  C   UNL     1      99.994  81.014  75.163  1.00  0.00    -0.017 C 
ATOM     23  C   UNL     1     100.875  80.997  73.882  1.00  0.00     0.007 C 
ATOM     24  C   UNL     1      98.546  80.544  74.834  1.00  0.00     0.007 C 
ENDBRANCH  21  22
ENDBRANCH  20  21
ENDBRANCH  19  20
ENDBRANCH  18  19
ENDBRANCH   1  18
TORSDOF 11
ENDMDL
