MODEL 1
REMARK VINA RESULT:    -6.501      0.000      0.000
REMARK INTER + INTRA:         -10.929
REMARK INTER:                 -10.112
REMARK INTRA:                  -0.817
REMARK UNBOUND:                -0.817
REMARK SMILES COc1cc(CNC(=O)CCCC/C=C/C(C)C)ccc1O
REMARK SMILES IDX 10 1 8 2 7 3 9 5 6 6 5 7 3 8 21 9 4 10 20 11 19 12 2 13 1 14
REMARK SMILES IDX 22 15 11 17 12 18 13 19 14 20 15 21 16 22 17 23 18 24
REMARK H PARENT 7 4 22 16
REMARK Flexibility Score: inf
ROOT
ATOM      1  C   UNL     1      79.816  65.834  71.495  1.00  0.00     0.100 C 
ENDROOT
BRANCH   1   2
ATOM      2  C   UNL     1      80.616  66.100  72.706  1.00  0.00     0.220 C 
ATOM      3  N   UNL     1      81.846  65.535  72.859  1.00  0.00    -0.352 N 
ATOM      4  H   UNL     1      82.132  64.924  72.107  1.00  0.00     0.163 HD
ATOM      5  O   UNL     1      80.142  66.876  73.570  1.00  0.00    -0.275 OA
BRANCH   3   6
ATOM      6  C   UNL     1      82.710  65.754  73.975  1.00  0.00     0.151 C 
BRANCH   6   7
ATOM      7  C   UNL     1      83.594  66.932  73.759  1.00  0.00    -0.025 A 
ATOM      8  C   UNL     1      85.272  68.519  74.613  1.00  0.00     0.160 A 
ATOM      9  C   UNL     1      85.300  69.165  73.359  1.00  0.00     0.157 A 
ATOM     10  C   UNL     1      84.419  67.411  74.801  1.00  0.00     0.056 A 
ATOM     11  C   UNL     1      84.468  68.710  72.317  1.00  0.00     0.050 A 
ATOM     12  C   UNL     1      83.628  67.596  72.511  1.00  0.00     0.009 A 
BRANCH   8  13
ATOM     13  O   UNL     1      86.031  68.998  75.650  1.00  0.00    -0.493 OA
ATOM     14  C   UNL     1      87.196  68.204  75.941  1.00  0.00     0.278 C 
ENDBRANCH   8  13
BRANCH   9  15
ATOM     15  O   UNL     1      86.119  70.225  73.140  1.00  0.00    -0.504 OA
ATOM     16  H   UNL     1      85.750  70.778  72.447  1.00  0.00     0.293 HD
ENDBRANCH   9  15
ENDBRANCH   6   7
ENDBRANCH   3   6
ENDBRANCH   1   2
BRANCH   1  17
ATOM     17  C   UNL     1      80.711  65.713  70.232  1.00  0.00     0.010 C 
BRANCH  17  18
ATOM     18  C   UNL     1      80.055  64.867  69.105  1.00  0.00     0.005 C 
BRANCH  18  19
ATOM     19  C   UNL     1      79.004  63.865  69.654  1.00  0.00     0.027 C 
BRANCH  19  20
ATOM     20  C   UNL     1      77.716  64.005  68.990  1.00  0.00    -0.031 C 
ATOM     21  C   UNL     1      77.094  65.180  68.788  1.00  0.00    -0.028 C 
BRANCH  21  22
ATOM     22  C   UNL     1      75.808  65.299  68.101  1.00  0.00     0.005 C 
ATOM     23  C   UNL     1      75.968  65.774  66.630  1.00  0.00     0.012 C 
ATOM     24  C   UNL     1      75.039  63.954  68.167  1.00  0.00     0.012 C 
ENDBRANCH  21  22
ENDBRANCH  19  20
ENDBRANCH  18  19
ENDBRANCH  17  18
ENDBRANCH   1  17
TORSDOF 10
ENDMDL
MODEL 2
REMARK VINA RESULT:    -6.389     21.181     23.803
REMARK INTER + INTRA:         -10.755
REMARK INTER:                 -10.355
REMARK INTRA:                  -0.400
REMARK UNBOUND:                -0.817
REMARK SMILES COc1cc(CNC(=O)CCCC/C=C/C(C)C)ccc1O
REMARK SMILES IDX 10 1 8 2 7 3 9 5 6 6 5 7 3 8 21 9 4 10 20 11 19 12 2 13 1 14
REMARK SMILES IDX 22 15 11 17 12 18 13 19 14 20 15 21 16 22 17 23 18 24
REMARK H PARENT 7 4 22 16
REMARK Flexibility Score: inf
ROOT
ATOM      1  C   UNL     1      96.924  82.534  81.697  1.00  0.00     0.100 C 
ENDROOT
BRANCH   1   2
ATOM      2  C   UNL     1      96.069  82.883  82.848  1.00  0.00     0.220 C 
ATOM      3  N   UNL     1      95.363  81.919  83.502  1.00  0.00    -0.352 N 
ATOM      4  H   UNL     1      95.460  80.987  83.122  1.00  0.00     0.163 HD
ATOM      5  O   UNL     1      96.032  84.082  83.216  1.00  0.00    -0.275 OA
BRANCH   3   6
ATOM      6  C   UNL     1      94.535  82.147  84.643  1.00  0.00     0.151 C 
BRANCH   6   7
ATOM      7  C   UNL     1      93.313  81.299  84.610  1.00  0.00    -0.025 A 
ATOM      8  C   UNL     1      90.889  81.071  84.244  1.00  0.00     0.160 A 
ATOM      9  C   UNL     1      90.976  79.691  84.523  1.00  0.00     0.157 A 
ATOM     10  C   UNL     1      92.056  81.861  84.292  1.00  0.00     0.056 A 
ATOM     11  C   UNL     1      92.218  79.120  84.861  1.00  0.00     0.050 A 
ATOM     12  C   UNL     1      93.381  79.915  84.895  1.00  0.00     0.009 A 
BRANCH   8  13
ATOM     13  O   UNL     1      89.671  81.644  83.979  1.00  0.00    -0.493 OA
ATOM     14  C   UNL     1      88.923  82.002  85.156  1.00  0.00     0.278 C 
ENDBRANCH   8  13
BRANCH   9  15
ATOM     15  O   UNL     1      89.873  78.900  84.473  1.00  0.00    -0.504 OA
ATOM     16  H   UNL     1      89.555  78.851  83.568  1.00  0.00     0.293 HD
ENDBRANCH   9  15
ENDBRANCH   6   7
ENDBRANCH   3   6
ENDBRANCH   1   2
BRANCH   1  17
ATOM     17  C   UNL     1      96.745  83.538  80.526  1.00  0.00     0.010 C 
BRANCH  17  18
ATOM     18  C   UNL     1      97.315  83.006  79.181  1.00  0.00     0.005 C 
BRANCH  18  19
ATOM     19  C   UNL     1      96.575  83.597  77.951  1.00  0.00     0.027 C 
BRANCH  19  20
ATOM     20  C   UNL     1      97.438  83.682  76.782  1.00  0.00    -0.031 C 
ATOM     21  C   UNL     1      97.209  84.490  75.731  1.00  0.00    -0.028 C 
BRANCH  21  22
ATOM     22  C   UNL     1      98.101  84.573  74.574  1.00  0.00     0.005 C 
ATOM     23  C   UNL     1      99.593  84.384  74.966  1.00  0.00     0.012 C 
ATOM     24  C   UNL     1      97.677  83.544  73.495  1.00  0.00     0.012 C 
ENDBRANCH  21  22
ENDBRANCH  19  20
ENDBRANCH  18  19
ENDBRANCH  17  18
ENDBRANCH   1  17
TORSDOF 10
ENDMDL
MODEL 3
REMARK VINA RESULT:    -6.147     20.114     23.611
REMARK INTER + INTRA:         -10.378
REMARK INTER:                  -9.742
REMARK INTRA:                  -0.636
REMARK UNBOUND:                -0.817
REMARK SMILES COc1cc(CNC(=O)CCCC/C=C/C(C)C)ccc1O
REMARK SMILES IDX 10 1 8 2 7 3 9 5 6 6 5 7 3 8 21 9 4 10 20 11 19 12 2 13 1 14
REMARK SMILES IDX 22 15 11 17 12 18 13 19 14 20 15 21 16 22 17 23 18 24
REMARK H PARENT 7 4 22 16
REMARK Flexibility Score: inf
ROOT
ATOM      1  C   UNL     1      97.067  81.341  81.050  1.00  0.00     0.100 C 
ENDROOT
BRANCH   1   2
ATOM      2  C   UNL     1      96.705  80.867  82.400  1.00  0.00     0.220 C 
ATOM      3  N   UNL     1      95.838  81.579  83.173  1.00  0.00    -0.352 N 
ATOM      4  H   UNL     1      95.503  82.438  82.758  1.00  0.00     0.163 HD
ATOM      5  O   UNL     1      97.198  79.785  82.800  1.00  0.00    -0.275 OA
BRANCH   3   6
ATOM      6  C   UNL     1      95.400  81.192  84.476  1.00  0.00     0.151 C 
BRANCH   6   7
ATOM      7  C   UNL     1      93.917  81.090  84.546  1.00  0.00    -0.025 A 
ATOM      8  C   UNL     1      91.889  79.725  84.837  1.00  0.00     0.160 A 
ATOM      9  C   UNL     1      91.091  80.880  84.702  1.00  0.00     0.157 A 
ATOM     10  C   UNL     1      93.292  79.840  84.756  1.00  0.00     0.056 A 
ATOM     11  C   UNL     1      91.699  82.130  84.473  1.00  0.00     0.050 A 
ATOM     12  C   UNL     1      93.102  82.237  84.405  1.00  0.00     0.009 A 
BRANCH   8  13
ATOM     13  O   UNL     1      91.299  78.496  84.995  1.00  0.00    -0.493 OA
ATOM     14  C   UNL     1      91.507  77.599  83.888  1.00  0.00     0.278 C 
ENDBRANCH   8  13
BRANCH   9  15
ATOM     15  O   UNL     1      89.738  80.806  84.789  1.00  0.00    -0.504 OA
ATOM     16  H   UNL     1      89.445  81.225  85.601  1.00  0.00     0.293 HD
ENDBRANCH   9  15
ENDBRANCH   6   7
ENDBRANCH   3   6
ENDBRANCH   1   2
BRANCH   1  17
ATOM     17  C   UNL     1      97.108  82.891  80.979  1.00  0.00     0.010 C 
BRANCH  17  18
ATOM     18  C   UNL     1      97.594  83.421  79.601  1.00  0.00     0.005 C 
BRANCH  18  19
ATOM     19  C   UNL     1      96.433  83.564  78.580  1.00  0.00     0.027 C 
BRANCH  19  20
ATOM     20  C   UNL     1      96.905  83.983  77.269  1.00  0.00    -0.031 C 
ATOM     21  C   UNL     1      98.052  83.561  76.708  1.00  0.00    -0.028 C 
BRANCH  21  22
ATOM     22  C   UNL     1      98.498  83.980  75.380  1.00  0.00     0.005 C 
ATOM     23  C   UNL     1      99.317  82.876  74.657  1.00  0.00     0.012 C 
ATOM     24  C   UNL     1      97.283  84.420  74.521  1.00  0.00     0.012 C 
ENDBRANCH  21  22
ENDBRANCH  19  20
ENDBRANCH  18  19
ENDBRANCH  17  18
ENDBRANCH   1  17
TORSDOF 10
ENDMDL
MODEL 4
REMARK VINA RESULT:    -6.001     21.412     23.858
REMARK INTER + INTRA:         -10.152
REMARK INTER:                  -9.447
REMARK INTRA:                  -0.705
REMARK UNBOUND:                -0.817
REMARK SMILES COc1cc(CNC(=O)CCCC/C=C/C(C)C)ccc1O
REMARK SMILES IDX 10 1 8 2 7 3 9 5 6 6 5 7 3 8 21 9 4 10 20 11 19 12 2 13 1 14
REMARK SMILES IDX 22 15 11 17 12 18 13 19 14 20 15 21 16 22 17 23 18 24
REMARK H PARENT 7 4 22 16
REMARK Flexibility Score: inf
ROOT
ATOM      1  C   UNL     1      97.000  79.767  81.603  1.00  0.00     0.100 C 
ENDROOT
BRANCH   1   2
ATOM      2  C   UNL     1      97.932  80.184  80.537  1.00  0.00     0.220 C 
ATOM      3  N   UNL     1      98.065  81.500  80.211  1.00  0.00    -0.352 N 
ATOM      4  H   UNL     1      97.471  82.131  80.731  1.00  0.00     0.163 HD
ATOM      5  O   UNL     1      98.608  79.297  79.961  1.00  0.00    -0.275 OA
BRANCH   3   6
ATOM      6  C   UNL     1      98.959  82.008  79.220  1.00  0.00     0.151 C 
BRANCH   6   7
ATOM      7  C   UNL     1      98.236  82.790  78.180  1.00  0.00    -0.025 A 
ATOM      8  C   UNL     1      98.170  83.793  75.933  1.00  0.00     0.160 A 
ATOM      9  C   UNL     1      96.863  84.262  76.179  1.00  0.00     0.157 A 
ATOM     10  C   UNL     1      98.844  83.065  76.935  1.00  0.00     0.056 A 
ATOM     11  C   UNL     1      96.251  84.012  77.423  1.00  0.00     0.050 A 
ATOM     12  C   UNL     1      96.927  83.274  78.413  1.00  0.00     0.009 A 
BRANCH   8  13
ATOM     13  O   UNL     1      98.795  84.090  74.748  1.00  0.00    -0.493 OA
ATOM     14  C   UNL     1     100.209  84.331  74.875  1.00  0.00     0.278 C 
ENDBRANCH   8  13
BRANCH   9  15
ATOM     15  O   UNL     1      96.181  84.955  75.231  1.00  0.00    -0.504 OA
ATOM     16  H   UNL     1      96.788  85.523  74.750  1.00  0.00     0.293 HD
ENDBRANCH   9  15
ENDBRANCH   6   7
ENDBRANCH   3   6
ENDBRANCH   1   2
BRANCH   1  17
ATOM     17  C   UNL     1      96.469  80.984  82.407  1.00  0.00     0.010 C 
BRANCH  17  18
ATOM     18  C   UNL     1      96.428  80.726  83.939  1.00  0.00     0.005 C 
BRANCH  18  19
ATOM     19  C   UNL     1      95.206  79.865  84.361  1.00  0.00     0.027 C 
BRANCH  19  20
ATOM     20  C   UNL     1      93.969  80.631  84.356  1.00  0.00    -0.031 C 
ATOM     21  C   UNL     1      92.783  80.155  84.776  1.00  0.00    -0.028 C 
BRANCH  21  22
ATOM     22  C   UNL     1      91.555  80.950  84.781  1.00  0.00     0.005 C 
ATOM     23  C   UNL     1      91.841  82.476  84.712  1.00  0.00     0.012 C 
ATOM     24  C   UNL     1      90.627  80.509  83.620  1.00  0.00     0.012 C 
ENDBRANCH  21  22
ENDBRANCH  19  20
ENDBRANCH  18  19
ENDBRANCH  17  18
ENDBRANCH   1  17
TORSDOF 10
ENDMDL
MODEL 5
REMARK VINA RESULT:    -5.971     29.584     33.543
REMARK INTER + INTRA:         -10.104
REMARK INTER:                  -9.406
REMARK INTRA:                  -0.698
REMARK UNBOUND:                -0.817
REMARK SMILES COc1cc(CNC(=O)CCCC/C=C/C(C)C)ccc1O
REMARK SMILES IDX 10 1 8 2 7 3 9 5 6 6 5 7 3 8 21 9 4 10 20 11 19 12 2 13 1 14
REMARK SMILES IDX 22 15 11 17 12 18 13 19 14 20 15 21 16 22 17 23 18 24
REMARK H PARENT 7 4 22 16
REMARK Flexibility Score: inf
ROOT
ATOM      1  C   UNL     1      94.801  97.446  78.081  1.00  0.00     0.100 C 
ENDROOT
BRANCH   1   2
ATOM      2  C   UNL     1      95.504  96.377  78.815  1.00  0.00     0.220 C 
ATOM      3  N   UNL     1      95.860  96.552  80.118  1.00  0.00    -0.352 N 
ATOM      4  H   UNL     1      95.627  97.455  80.506  1.00  0.00     0.163 HD
ATOM      5  O   UNL     1      95.741  95.302  78.212  1.00  0.00    -0.275 OA
BRANCH   3   6
ATOM      6  C   UNL     1      96.514  95.570  80.924  1.00  0.00     0.151 C 
BRANCH   6   7
ATOM      7  C   UNL     1      97.831  96.056  81.417  1.00  0.00    -0.025 A 
ATOM      8  C   UNL     1      99.449  96.327  83.253  1.00  0.00     0.160 A 
ATOM      9  C   UNL     1     100.347  96.960  82.369  1.00  0.00     0.157 A 
ATOM     10  C   UNL     1      98.200  95.884  82.770  1.00  0.00     0.056 A 
ATOM     11  C   UNL     1      99.985  97.157  81.022  1.00  0.00     0.050 A 
ATOM     12  C   UNL     1      98.741  96.700  80.546  1.00  0.00     0.009 A 
BRANCH   8  13
ATOM     13  O   UNL     1      99.769  96.192  84.580  1.00  0.00    -0.493 OA
ATOM     14  C   UNL     1      99.447  97.343  85.382  1.00  0.00     0.278 C 
ENDBRANCH   8  13
BRANCH   9  15
ATOM     15  O   UNL     1     101.563  97.387  82.799  1.00  0.00    -0.504 OA
ATOM     16  H   UNL     1     102.187  96.658  82.771  1.00  0.00     0.293 HD
ENDBRANCH   9  15
ENDBRANCH   6   7
ENDBRANCH   3   6
ENDBRANCH   1   2
BRANCH   1  17
ATOM     17  C   UNL     1      93.525  96.912  77.375  1.00  0.00     0.010 C 
BRANCH  17  18
ATOM     18  C   UNL     1      93.667  96.857  75.828  1.00  0.00     0.005 C 
BRANCH  18  19
ATOM     19  C   UNL     1      93.506  95.416  75.271  1.00  0.00     0.027 C 
BRANCH  19  20
ATOM     20  C   UNL     1      92.324  94.754  75.802  1.00  0.00    -0.031 C 
ATOM     21  C   UNL     1      91.440  94.071  75.052  1.00  0.00    -0.028 C 
BRANCH  21  22
ATOM     22  C   UNL     1      90.268  93.396  75.609  1.00  0.00     0.005 C 
ATOM     23  C   UNL     1      90.167  91.915  75.150  1.00  0.00     0.012 C 
ATOM     24  C   UNL     1      90.278  93.495  77.157  1.00  0.00     0.012 C 
ENDBRANCH  21  22
ENDBRANCH  19  20
ENDBRANCH  18  19
ENDBRANCH  17  18
ENDBRANCH   1  17
TORSDOF 10
ENDMDL
MODEL 6
REMARK VINA RESULT:    -5.832     22.292     23.898
REMARK INTER + INTRA:          -9.888
REMARK INTER:                  -9.177
REMARK INTRA:                  -0.711
REMARK UNBOUND:                -0.817
REMARK SMILES COc1cc(CNC(=O)CCCC/C=C/C(C)C)ccc1O
REMARK SMILES IDX 10 1 8 2 7 3 9 5 6 6 5 7 3 8 21 9 4 10 20 11 19 12 2 13 1 14
REMARK SMILES IDX 22 15 11 17 12 18 13 19 14 20 15 21 16 22 17 23 18 24
REMARK H PARENT 7 4 22 16
REMARK Flexibility Score: inf
ROOT
ATOM      1  C   UNL     1      97.422  81.096  80.311  1.00  0.00     0.100 C 
ENDROOT
BRANCH   1   2
ATOM      2  C   UNL     1      97.307  80.362  81.585  1.00  0.00     0.220 C 
ATOM      3  N   UNL     1      96.315  80.662  82.470  1.00  0.00    -0.352 N 
ATOM      4  H   UNL     1      95.709  81.420  82.189  1.00  0.00     0.163 HD
ATOM      5  O   UNL     1      98.131  79.444  81.816  1.00  0.00    -0.275 OA
BRANCH   3   6
ATOM      6  C   UNL     1      96.100  79.991  83.712  1.00  0.00     0.151 C 
BRANCH   6   7
ATOM      7  C   UNL     1      94.734  80.252  84.244  1.00  0.00    -0.025 A 
ATOM      8  C   UNL     1      92.940  81.837  84.816  1.00  0.00     0.160 A 
ATOM      9  C   UNL     1      92.126  80.765  85.238  1.00  0.00     0.157 A 
ATOM     10  C   UNL     1      94.236  81.571  84.326  1.00  0.00     0.056 A 
ATOM     11  C   UNL     1      92.617  79.446  85.180  1.00  0.00     0.050 A 
ATOM     12  C   UNL     1      93.908  79.189  84.678  1.00  0.00     0.009 A 
BRANCH   8  13
ATOM     13  O   UNL     1      92.491  83.129  84.932  1.00  0.00    -0.493 OA
ATOM     14  C   UNL     1      93.222  83.920  85.887  1.00  0.00     0.278 C 
ENDBRANCH   8  13
BRANCH   9  15
ATOM     15  O   UNL     1      90.869  80.986  85.702  1.00  0.00    -0.504 OA
ATOM     16  H   UNL     1      90.230  80.654  85.068  1.00  0.00     0.293 HD
ENDBRANCH   9  15
ENDBRANCH   6   7
ENDBRANCH   3   6
ENDBRANCH   1   2
BRANCH   1  17
ATOM     17  C   UNL     1      97.091  82.603  80.486  1.00  0.00     0.010 C 
BRANCH  17  18
ATOM     18  C   UNL     1      97.572  83.471  79.290  1.00  0.00     0.005 C 
BRANCH  18  19
ATOM     19  C   UNL     1      96.466  83.668  78.219  1.00  0.00     0.027 C 
BRANCH  19  20
ATOM     20  C   UNL     1      97.020  83.849  76.886  1.00  0.00    -0.031 C 
ATOM     21  C   UNL     1      97.984  83.074  76.356  1.00  0.00    -0.028 C 
BRANCH  21  22
ATOM     22  C   UNL     1      98.513  83.262  75.006  1.00  0.00     0.005 C 
ATOM     23  C   UNL     1      97.439  83.807  74.023  1.00  0.00     0.012 C 
ATOM     24  C   UNL     1      99.753  84.193  75.041  1.00  0.00     0.012 C 
ENDBRANCH  21  22
ENDBRANCH  19  20
ENDBRANCH  18  19
ENDBRANCH  17  18
ENDBRANCH   1  17
TORSDOF 10
ENDMDL
MODEL 7
REMARK VINA RESULT:    -5.827     19.966     22.682
REMARK INTER + INTRA:          -9.880
REMARK INTER:                  -9.492
REMARK INTRA:                  -0.388
REMARK UNBOUND:                -0.817
REMARK SMILES COc1cc(CNC(=O)CCCC/C=C/C(C)C)ccc1O
REMARK SMILES IDX 10 1 8 2 7 3 9 5 6 6 5 7 3 8 21 9 4 10 20 11 19 12 2 13 1 14
REMARK SMILES IDX 22 15 11 17 12 18 13 19 14 20 15 21 16 22 17 23 18 24
REMARK H PARENT 7 4 22 16
REMARK Flexibility Score: inf
ROOT
ATOM      1  C   UNL     1      92.620  78.467  84.732  1.00  0.00     0.100 C 
ENDROOT
BRANCH   1   2
ATOM      2  C   UNL     1      94.089  78.477  84.587  1.00  0.00     0.220 C 
ATOM      3  N   UNL     1      94.705  79.446  83.855  1.00  0.00    -0.352 N 
ATOM      4  H   UNL     1      94.082  80.114  83.421  1.00  0.00     0.163 HD
ATOM      5  O   UNL     1      94.748  77.584  85.174  1.00  0.00    -0.275 OA
BRANCH   3   6
ATOM      6  C   UNL     1      96.118  79.562  83.680  1.00  0.00     0.151 C 
BRANCH   6   7
ATOM      7  C   UNL     1      96.464  80.675  82.755  1.00  0.00    -0.025 A 
ATOM      8  C   UNL     1      96.496  83.083  82.238  1.00  0.00     0.160 A 
ATOM      9  C   UNL     1      97.135  82.811  81.011  1.00  0.00     0.157 A 
ATOM     10  C   UNL     1      96.165  82.013  83.096  1.00  0.00     0.056 A 
ATOM     11  C   UNL     1      97.423  81.481  80.647  1.00  0.00     0.050 A 
ATOM     12  C   UNL     1      97.099  80.421  81.517  1.00  0.00     0.009 A 
BRANCH   8  13
ATOM     13  O   UNL     1      96.155  84.370  82.566  1.00  0.00    -0.493 OA
ATOM     14  C   UNL     1      96.143  84.632  83.982  1.00  0.00     0.278 C 
ENDBRANCH   8  13
BRANCH   9  15
ATOM     15  O   UNL     1      97.480  83.819  80.167  1.00  0.00    -0.504 OA
ATOM     16  H   UNL     1      96.687  84.206  79.790  1.00  0.00     0.293 HD
ENDBRANCH   9  15
ENDBRANCH   6   7
ENDBRANCH   3   6
ENDBRANCH   1   2
BRANCH   1  17
ATOM     17  C   UNL     1      92.107  79.747  85.445  1.00  0.00     0.010 C 
BRANCH  17  18
ATOM     18  C   UNL     1      92.297  81.033  84.592  1.00  0.00     0.005 C 
BRANCH  18  19
ATOM     19  C   UNL     1      91.215  82.105  84.890  1.00  0.00     0.027 C 
BRANCH  19  20
ATOM     20  C   UNL     1      89.929  81.765  84.299  1.00  0.00    -0.031 C 
ATOM     21  C   UNL     1      88.759  81.800  84.962  1.00  0.00    -0.028 C 
BRANCH  21  22
ATOM     22  C   UNL     1      87.475  81.473  84.341  1.00  0.00     0.005 C 
ATOM     23  C   UNL     1      86.820  82.706  83.659  1.00  0.00     0.012 C 
ATOM     24  C   UNL     1      87.649  80.310  83.331  1.00  0.00     0.012 C 
ENDBRANCH  21  22
ENDBRANCH  19  20
ENDBRANCH  18  19
ENDBRANCH  17  18
ENDBRANCH   1  17
TORSDOF 10
ENDMDL
MODEL 8
REMARK VINA RESULT:    -5.788     29.254     33.270
REMARK INTER + INTRA:          -9.819
REMARK INTER:                  -9.045
REMARK INTRA:                  -0.775
REMARK UNBOUND:                -0.817
REMARK SMILES COc1cc(CNC(=O)CCCC/C=C/C(C)C)ccc1O
REMARK SMILES IDX 10 1 8 2 7 3 9 5 6 6 5 7 3 8 21 9 4 10 20 11 19 12 2 13 1 14
REMARK SMILES IDX 22 15 11 17 12 18 13 19 14 20 15 21 16 22 17 23 18 24
REMARK H PARENT 7 4 22 16
REMARK Flexibility Score: inf
ROOT
ATOM      1  C   UNL     1      94.467  95.877  78.463  1.00  0.00     0.100 C 
ENDROOT
BRANCH   1   2
ATOM      2  C   UNL     1      95.153  95.141  79.543  1.00  0.00     0.220 C 
ATOM      3  N   UNL     1      95.793  95.815  80.540  1.00  0.00    -0.352 N 
ATOM      4  H   UNL     1      95.773  96.822  80.456  1.00  0.00     0.163 HD
ATOM      5  O   UNL     1      95.109  93.887  79.527  1.00  0.00    -0.275 OA
BRANCH   3   6
ATOM      6  C   UNL     1      96.457  95.199  81.644  1.00  0.00     0.151 C 
BRANCH   6   7
ATOM      7  C   UNL     1      97.772  95.840  81.918  1.00  0.00    -0.025 A 
ATOM      8  C   UNL     1      99.759  97.050  81.111  1.00  0.00     0.160 A 
ATOM      9  C   UNL     1     100.273  97.084  82.424  1.00  0.00     0.157 A 
ATOM     10  C   UNL     1      98.517  96.427  80.870  1.00  0.00     0.056 A 
ATOM     11  C   UNL     1      99.551  96.486  83.476  1.00  0.00     0.050 A 
ATOM     12  C   UNL     1      98.305  95.877  83.227  1.00  0.00     0.009 A 
BRANCH   8  13
ATOM     13  O   UNL     1     100.489  97.573  80.074  1.00  0.00    -0.493 OA
ATOM     14  C   UNL     1     100.574  96.711  78.924  1.00  0.00     0.278 C 
ENDBRANCH   8  13
BRANCH   9  15
ATOM     15  O   UNL     1     101.459  97.687  82.692  1.00  0.00    -0.504 OA
ATOM     16  H   UNL     1     102.176  97.157  82.337  1.00  0.00     0.293 HD
ENDBRANCH   9  15
ENDBRANCH   6   7
ENDBRANCH   3   6
ENDBRANCH   1   2
BRANCH   1  17
ATOM     17  C   UNL     1      94.630  95.165  77.093  1.00  0.00     0.010 C 
BRANCH  17  18
ATOM     18  C   UNL     1      94.304  96.092  75.888  1.00  0.00     0.005 C 
BRANCH  18  19
ATOM     19  C   UNL     1      93.252  95.468  74.931  1.00  0.00     0.027 C 
BRANCH  19  20
ATOM     20  C   UNL     1      92.052  95.046  75.638  1.00  0.00    -0.031 C 
ATOM     21  C   UNL     1      91.400  93.894  75.398  1.00  0.00    -0.028 C 
BRANCH  21  22
ATOM     22  C   UNL     1      90.206  93.479  76.135  1.00  0.00     0.005 C 
ATOM     23  C   UNL     1      89.894  91.968  75.950  1.00  0.00     0.012 C 
ATOM     24  C   UNL     1      90.353  93.834  77.637  1.00  0.00     0.012 C 
ENDBRANCH  21  22
ENDBRANCH  19  20
ENDBRANCH  18  19
ENDBRANCH  17  18
ENDBRANCH   1  17
TORSDOF 10
ENDMDL
MODEL 9
REMARK VINA RESULT:    -5.647     30.292     33.800
REMARK INTER + INTRA:          -9.600
REMARK INTER:                  -8.720
REMARK INTRA:                  -0.881
REMARK UNBOUND:                -0.817
REMARK SMILES COc1cc(CNC(=O)CCCC/C=C/C(C)C)ccc1O
REMARK SMILES IDX 10 1 8 2 7 3 9 5 6 6 5 7 3 8 21 9 4 10 20 11 19 12 2 13 1 14
REMARK SMILES IDX 22 15 11 17 12 18 13 19 14 20 15 21 16 22 17 23 18 24
REMARK H PARENT 7 4 22 16
REMARK Flexibility Score: inf
ROOT
ATOM      1  C   UNL     1      95.468  97.606  75.665  1.00  0.00     0.100 C 
ENDROOT
BRANCH   1   2
ATOM      2  C   UNL     1      94.582  97.471  74.494  1.00  0.00     0.220 C 
ATOM      3  N   UNL     1      94.479  98.481  73.584  1.00  0.00    -0.352 N 
ATOM      4  H   UNL     1      95.028  99.303  73.796  1.00  0.00     0.163 HD
ATOM      5  O   UNL     1      93.948  96.398  74.350  1.00  0.00    -0.275 OA
BRANCH   3   6
ATOM      6  C   UNL     1      93.677  98.437  72.404  1.00  0.00     0.151 C 
BRANCH   6   7
ATOM      7  C   UNL     1      94.491  98.670  71.180  1.00  0.00    -0.025 A 
ATOM      8  C   UNL     1      96.393  98.059  69.740  1.00  0.00     0.160 A 
ATOM      9  C   UNL     1      96.044  99.088  68.841  1.00  0.00     0.157 A 
ATOM     10  C   UNL     1      95.616  97.861  70.901  1.00  0.00     0.056 A 
ATOM     11  C   UNL     1      94.937  99.915  69.116  1.00  0.00     0.050 A 
ATOM     12  C   UNL     1      94.160  99.702  70.272  1.00  0.00     0.009 A 
BRANCH   8  13
ATOM     13  O   UNL     1      97.508  97.294  69.510  1.00  0.00    -0.493 OA
ATOM     14  C   UNL     1      98.548  97.463  70.492  1.00  0.00     0.278 C 
ENDBRANCH   8  13
BRANCH   9  15
ATOM     15  O   UNL     1      96.763  99.297  67.708  1.00  0.00    -0.504 OA
ATOM     16  H   UNL     1      97.584  99.743  67.927  1.00  0.00     0.293 HD
ENDBRANCH   9  15
ENDBRANCH   6   7
ENDBRANCH   3   6
ENDBRANCH   1   2
BRANCH   1  17
ATOM     17  C   UNL     1      94.706  97.349  76.993  1.00  0.00     0.010 C 
BRANCH  17  18
ATOM     18  C   UNL     1      94.948  95.922  77.562  1.00  0.00     0.005 C 
BRANCH  18  19
ATOM     19  C   UNL     1      93.712  95.373  78.325  1.00  0.00     0.027 C 
BRANCH  19  20
ATOM     20  C   UNL     1      92.688  94.874  77.420  1.00  0.00    -0.031 C 
ATOM     21  C   UNL     1      91.586  95.563  77.071  1.00  0.00    -0.028 C 
BRANCH  21  22
ATOM     22  C   UNL     1      90.579  95.049  76.144  1.00  0.00     0.005 C 
ATOM     23  C   UNL     1      91.208  94.217  74.992  1.00  0.00     0.012 C 
ATOM     24  C   UNL     1      89.518  94.217  76.911  1.00  0.00     0.012 C 
ENDBRANCH  21  22
ENDBRANCH  19  20
ENDBRANCH  18  19
ENDBRANCH  17  18
ENDBRANCH   1  17
TORSDOF 10
ENDMDL
MODEL 10
REMARK VINA RESULT:    -5.623     24.736     25.979
REMARK INTER + INTRA:          -9.563
REMARK INTER:                  -8.940
REMARK INTRA:                  -0.622
REMARK UNBOUND:                -0.817
REMARK SMILES COc1cc(CNC(=O)CCCC/C=C/C(C)C)ccc1O
REMARK SMILES IDX 10 1 8 2 7 3 9 5 6 6 5 7 3 8 21 9 4 10 20 11 19 12 2 13 1 14
REMARK SMILES IDX 22 15 11 17 12 18 13 19 14 20 15 21 16 22 17 23 18 24
REMARK H PARENT 7 4 22 16
REMARK Flexibility Score: inf
ROOT
ATOM      1  C   UNL     1      73.506  91.016  70.739  1.00  0.00     0.100 C 
ENDROOT
BRANCH   1   2
ATOM      2  C   UNL     1      73.522  92.410  71.223  1.00  0.00     0.220 C 
ATOM      3  N   UNL     1      74.574  92.878  71.952  1.00  0.00    -0.352 N 
ATOM      4  H   UNL     1      75.297  92.198  72.140  1.00  0.00     0.163 HD
ATOM      5  O   UNL     1      72.554  93.152  70.924  1.00  0.00    -0.275 OA
BRANCH   3   6
ATOM      6  C   UNL     1      74.699  94.215  72.438  1.00  0.00     0.151 C 
BRANCH   6   7
ATOM      7  C   UNL     1      75.742  94.316  73.494  1.00  0.00    -0.025 A 
ATOM      8  C   UNL     1      76.403  94.127  75.859  1.00  0.00     0.160 A 
ATOM      9  C   UNL     1      77.724  94.486  75.520  1.00  0.00     0.157 A 
ATOM     10  C   UNL     1      75.425  94.048  74.845  1.00  0.00     0.056 A 
ATOM     11  C   UNL     1      78.050  94.775  74.180  1.00  0.00     0.050 A 
ATOM     12  C   UNL     1      77.070  94.682  73.173  1.00  0.00     0.009 A 
BRANCH   8  13
ATOM     13  O   UNL     1      76.064  93.909  77.170  1.00  0.00    -0.493 OA
ATOM     14  C   UNL     1      75.416  95.027  77.803  1.00  0.00     0.278 C 
ENDBRANCH   8  13
BRANCH   9  15
ATOM     15  O   UNL     1      78.691  94.559  76.470  1.00  0.00    -0.504 OA
ATOM     16  H   UNL     1      78.290  94.741  77.323  1.00  0.00     0.293 HD
ENDBRANCH   9  15
ENDBRANCH   6   7
ENDBRANCH   3   6
ENDBRANCH   1   2
BRANCH   1  17
ATOM     17  C   UNL     1      74.934  90.515  70.393  1.00  0.00     0.010 C 
BRANCH  17  18
ATOM     18  C   UNL     1      74.949  89.505  69.210  1.00  0.00     0.005 C 
BRANCH  18  19
ATOM     19  C   UNL     1      76.376  89.290  68.637  1.00  0.00     0.027 C 
BRANCH  19  20
ATOM     20  C   UNL     1      76.711  87.879  68.518  1.00  0.00    -0.031 C 
ATOM     21  C   UNL     1      75.884  86.874  68.861  1.00  0.00    -0.028 C 
BRANCH  21  22
ATOM     22  C   UNL     1      76.235  85.462  68.716  1.00  0.00     0.005 C 
ATOM     23  C   UNL     1      77.461  85.252  67.784  1.00  0.00     0.012 C 
ATOM     24  C   UNL     1      76.483  84.824  70.107  1.00  0.00     0.012 C 
ENDBRANCH  21  22
ENDBRANCH  19  20
ENDBRANCH  18  19
ENDBRANCH  17  18
ENDBRANCH   1  17
TORSDOF 10
ENDMDL
