MODEL 1
REMARK VINA RESULT:    -6.306      0.000      0.000
REMARK INTER + INTRA:         -10.364
REMARK INTER:                  -9.808
REMARK INTRA:                  -0.556
REMARK UNBOUND:                -0.556
REMARK SMILES CCCCC/C=C/C(=O)CCc1ccc(O)c(OC)c1
REMARK SMILES IDX 6 1 7 2 8 3 9 4 10 5 11 6 12 7 17 8 20 9 15 10 14 11 13 12
REMARK SMILES IDX 18 13 19 14 16 15 5 17 4 18 3 19 2 20 1 21
REMARK H PARENT 16 16
REMARK Flexibility Score: inf
ROOT
ATOM      1  C   UNL     1      95.567  82.840  83.630  1.00  0.00    -0.023 C 
ATOM      2  C   UNL     1      94.388  82.234  83.817  1.00  0.00     0.043 C 
ENDROOT
BRANCH   2   3
ATOM      3  C   UNL     1      93.629  82.462  85.077  1.00  0.00     0.155 C 
ATOM      4  O   UNL     1      94.188  82.522  86.170  1.00  0.00    -0.295 OA
BRANCH   3   5
ATOM      5  C   UNL     1      92.122  82.564  84.948  1.00  0.00     0.085 C 
BRANCH   5   6
ATOM      6  C   UNL     1      91.498  81.205  84.627  1.00  0.00     0.044 C 
BRANCH   6   7
ATOM      7  C   UNL     1      90.019  81.293  84.331  1.00  0.00    -0.044 A 
ATOM      8  C   UNL     1      87.996  82.579  84.236  1.00  0.00     0.160 A 
ATOM      9  C   UNL     1      89.361  82.499  84.510  1.00  0.00     0.054 A 
ATOM     10  C   UNL     1      87.306  81.452  83.788  1.00  0.00     0.157 A 
ATOM     11  C   UNL     1      87.983  80.244  83.613  1.00  0.00     0.050 A 
ATOM     12  C   UNL     1      89.349  80.165  83.887  1.00  0.00     0.008 A 
BRANCH   8  13
ATOM     13  O   UNL     1      87.346  83.764  84.411  1.00  0.00    -0.493 OA
ATOM     14  C   UNL     1      86.854  84.046  85.719  1.00  0.00     0.278 C 
ENDBRANCH   8  13
BRANCH  10  15
ATOM     15  O   UNL     1      85.973  81.518  83.517  1.00  0.00    -0.504 OA
ATOM     16  H   UNL     1      85.564  80.681  83.794  1.00  0.00     0.293 HD
ENDBRANCH  10  15
ENDBRANCH   6   7
ENDBRANCH   5   6
ENDBRANCH   3   5
ENDBRANCH   2   3
BRANCH   1  17
ATOM     17  C   UNL     1      96.393  82.661  82.390  1.00  0.00     0.027 C 
BRANCH  17  18
ATOM     18  C   UNL     1      96.856  81.216  82.177  1.00  0.00     0.004 C 
BRANCH  18  19
ATOM     19  C   UNL     1      97.327  80.925  80.749  1.00  0.00     0.000 C 
BRANCH  19  20
ATOM     20  C   UNL     1      97.392  79.420  80.485  1.00  0.00    -0.003 C 
ATOM     21  C   UNL     1      97.151  78.621  81.755  1.00  0.00     0.004 C 
ENDBRANCH  19  20
ENDBRANCH  18  19
ENDBRANCH  17  18
ENDBRANCH   1  17
TORSDOF 10
ENDMDL
MODEL 2
REMARK VINA RESULT:    -6.167      2.598      8.429
REMARK INTER + INTRA:         -10.148
REMARK INTER:                  -9.481
REMARK INTRA:                  -0.668
REMARK UNBOUND:                -0.556
REMARK SMILES CCCCC/C=C/C(=O)CCc1ccc(O)c(OC)c1
REMARK SMILES IDX 6 1 7 2 8 3 9 4 10 5 11 6 12 7 17 8 20 9 15 10 14 11 13 12
REMARK SMILES IDX 18 13 19 14 16 15 5 17 4 18 3 19 2 20 1 21
REMARK H PARENT 16 16
REMARK Flexibility Score: inf
ROOT
ATOM      1  C   UNL     1      88.746  80.149  83.949  1.00  0.00    -0.023 C 
ATOM      2  C   UNL     1      89.931  80.712  84.217  1.00  0.00     0.043 C 
ENDROOT
BRANCH   2   3
ATOM      3  C   UNL     1      91.179  79.912  84.091  1.00  0.00     0.155 C 
ATOM      4  O   UNL     1      91.156  78.709  83.836  1.00  0.00    -0.295 OA
BRANCH   3   5
ATOM      5  C   UNL     1      92.481  80.645  84.345  1.00  0.00     0.085 C 
BRANCH   5   6
ATOM      6  C   UNL     1      92.234  82.119  84.672  1.00  0.00     0.044 C 
BRANCH   6   7
ATOM      7  C   UNL     1      93.509  82.924  84.756  1.00  0.00    -0.044 A 
ATOM      8  C   UNL     1      95.812  83.229  84.155  1.00  0.00     0.160 A 
ATOM      9  C   UNL     1      94.635  82.485  84.078  1.00  0.00     0.054 A 
ATOM     10  C   UNL     1      95.848  84.402  84.908  1.00  0.00     0.157 A 
ATOM     11  C   UNL     1      94.706  84.832  85.585  1.00  0.00     0.050 A 
ATOM     12  C   UNL     1      93.529  84.087  85.508  1.00  0.00     0.008 A 
BRANCH   8  13
ATOM     13  O   UNL     1      96.921  82.799  83.490  1.00  0.00    -0.493 OA
ATOM     14  C   UNL     1      96.805  82.627  82.079  1.00  0.00     0.278 C 
ENDBRANCH   8  13
BRANCH  10  15
ATOM     15  O   UNL     1      96.992  85.138  84.991  1.00  0.00    -0.504 OA
ATOM     16  H   UNL     1      97.747  84.526  85.015  1.00  0.00     0.293 HD
ENDBRANCH  10  15
ENDBRANCH   6   7
ENDBRANCH   5   6
ENDBRANCH   3   5
ENDBRANCH   2   3
BRANCH   1  17
ATOM     17  C   UNL     1      87.444  80.887  84.052  1.00  0.00     0.027 C 
BRANCH  17  18
ATOM     18  C   UNL     1      87.603  82.407  83.938  1.00  0.00     0.004 C 
BRANCH  18  19
ATOM     19  C   UNL     1      86.408  83.192  84.487  1.00  0.00     0.000 C 
BRANCH  19  20
ATOM     20  C   UNL     1      86.865  84.298  85.440  1.00  0.00    -0.003 C 
ATOM     21  C   UNL     1      85.860  84.520  86.559  1.00  0.00     0.004 C 
ENDBRANCH  19  20
ENDBRANCH  18  19
ENDBRANCH  17  18
ENDBRANCH   1  17
TORSDOF 10
ENDMDL
MODEL 3
REMARK VINA RESULT:    -6.030     15.683     17.711
REMARK INTER + INTRA:          -9.935
REMARK INTER:                  -8.993
REMARK INTRA:                  -0.942
REMARK UNBOUND:                -0.556
REMARK SMILES CCCCC/C=C/C(=O)CCc1ccc(O)c(OC)c1
REMARK SMILES IDX 6 1 7 2 8 3 9 4 10 5 11 6 12 7 17 8 20 9 15 10 14 11 13 12
REMARK SMILES IDX 18 13 19 14 16 15 5 17 4 18 3 19 2 20 1 21
REMARK H PARENT 16 16
REMARK Flexibility Score: inf
ROOT
ATOM      1  C   UNL     1      93.022  95.205  78.125  1.00  0.00    -0.023 C 
ATOM      2  C   UNL     1      94.181  94.557  78.287  1.00  0.00     0.043 C 
ENDROOT
BRANCH   2   3
ATOM      3  C   UNL     1      95.045  94.863  79.460  1.00  0.00     0.155 C 
ATOM      4  O   UNL     1      94.815  94.398  80.574  1.00  0.00    -0.295 OA
BRANCH   3   5
ATOM      5  C   UNL     1      96.195  95.822  79.221  1.00  0.00     0.085 C 
BRANCH   5   6
ATOM      6  C   UNL     1      95.746  97.276  79.374  1.00  0.00     0.044 C 
BRANCH   6   7
ATOM      7  C   UNL     1      95.936  98.085  78.113  1.00  0.00    -0.044 A 
ATOM      8  C   UNL     1      95.763  98.280  75.727  1.00  0.00     0.160 A 
ATOM      9  C   UNL     1      95.587  97.532  76.891  1.00  0.00     0.054 A 
ATOM     10  C   UNL     1      96.285  99.571  75.799  1.00  0.00     0.157 A 
ATOM     11  C   UNL     1      96.633 100.114  77.037  1.00  0.00     0.050 A 
ATOM     12  C   UNL     1      96.457  99.366  78.201  1.00  0.00     0.008 A 
BRANCH   8  13
ATOM     13  O   UNL     1      95.420  97.738  74.525  1.00  0.00    -0.493 OA
ATOM     14  C   UNL     1      94.422  96.719  74.534  1.00  0.00     0.278 C 
ENDBRANCH   8  13
BRANCH  10  15
ATOM     15  O   UNL     1      96.461 100.311  74.670  1.00  0.00    -0.504 OA
ATOM     16  H   UNL     1      96.112  99.806  73.916  1.00  0.00     0.293 HD
ENDBRANCH  10  15
ENDBRANCH   6   7
ENDBRANCH   5   6
ENDBRANCH   3   5
ENDBRANCH   2   3
BRANCH   1  17
ATOM     17  C   UNL     1      92.096  94.955  76.970  1.00  0.00     0.027 C 
BRANCH  17  18
ATOM     18  C   UNL     1      90.869  94.120  77.353  1.00  0.00     0.004 C 
BRANCH  18  19
ATOM     19  C   UNL     1      89.644  94.391  76.475  1.00  0.00     0.000 C 
BRANCH  19  20
ATOM     20  C   UNL     1      89.938  94.083  75.006  1.00  0.00    -0.003 C 
ATOM     21  C   UNL     1      90.340  92.629  74.812  1.00  0.00     0.004 C 
ENDBRANCH  19  20
ENDBRANCH  18  19
ENDBRANCH  17  18
ENDBRANCH   1  17
TORSDOF 10
ENDMDL
MODEL 4
REMARK VINA RESULT:    -6.012      2.944      7.405
REMARK INTER + INTRA:          -9.907
REMARK INTER:                  -8.922
REMARK INTRA:                  -0.985
REMARK UNBOUND:                -0.556
REMARK SMILES CCCCC/C=C/C(=O)CCc1ccc(O)c(OC)c1
REMARK SMILES IDX 6 1 7 2 8 3 9 4 10 5 11 6 12 7 17 8 20 9 15 10 14 11 13 12
REMARK SMILES IDX 18 13 19 14 16 15 5 17 4 18 3 19 2 20 1 21
REMARK H PARENT 16 16
REMARK Flexibility Score: inf
ROOT
ATOM      1  C   UNL     1      91.107  81.102  84.101  1.00  0.00    -0.023 C 
ATOM      2  C   UNL     1      91.948  80.648  85.038  1.00  0.00     0.043 C 
ENDROOT
BRANCH   2   3
ATOM      3  C   UNL     1      92.933  79.585  84.699  1.00  0.00     0.155 C 
ATOM      4  O   UNL     1      92.593  78.530  84.168  1.00  0.00    -0.295 OA
BRANCH   3   5
ATOM      5  C   UNL     1      94.374  79.850  85.089  1.00  0.00     0.085 C 
BRANCH   5   6
ATOM      6  C   UNL     1      95.214  80.249  83.874  1.00  0.00     0.044 C 
BRANCH   6   7
ATOM      7  C   UNL     1      95.512  81.729  83.827  1.00  0.00    -0.044 A 
ATOM      8  C   UNL     1      95.392  83.902  84.837  1.00  0.00     0.160 A 
ATOM      9  C   UNL     1      95.116  82.536  84.881  1.00  0.00     0.054 A 
ATOM     10  C   UNL     1      96.060  84.444  83.739  1.00  0.00     0.157 A 
ATOM     11  C   UNL     1      96.452  83.619  82.684  1.00  0.00     0.050 A 
ATOM     12  C   UNL     1      96.176  82.252  82.729  1.00  0.00     0.008 A 
BRANCH   8  13
ATOM     13  O   UNL     1      95.004  84.698  85.873  1.00  0.00    -0.493 OA
ATOM     14  C   UNL     1      94.300  84.071  86.943  1.00  0.00     0.278 C 
ENDBRANCH   8  13
BRANCH  10  15
ATOM     15  O   UNL     1      96.335  85.777  83.684  1.00  0.00    -0.504 OA
ATOM     16  H   UNL     1      97.222  85.890  83.302  1.00  0.00     0.293 HD
ENDBRANCH  10  15
ENDBRANCH   6   7
ENDBRANCH   5   6
ENDBRANCH   3   5
ENDBRANCH   2   3
BRANCH   1  17
ATOM     17  C   UNL     1      90.085  82.170  84.364  1.00  0.00     0.027 C 
BRANCH  17  18
ATOM     18  C   UNL     1      88.788  81.625  84.971  1.00  0.00     0.004 C 
BRANCH  18  19
ATOM     19  C   UNL     1      87.619  81.578  83.982  1.00  0.00     0.000 C 
BRANCH  19  20
ATOM     20  C   UNL     1      87.531  80.214  83.297  1.00  0.00    -0.003 C 
ATOM     21  C   UNL     1      88.001  79.097  84.216  1.00  0.00     0.004 C 
ENDBRANCH  19  20
ENDBRANCH  18  19
ENDBRANCH  17  18
ENDBRANCH   1  17
TORSDOF 10
ENDMDL
MODEL 5
REMARK VINA RESULT:    -5.945      2.827      6.589
REMARK INTER + INTRA:          -9.803
REMARK INTER:                  -8.772
REMARK INTRA:                  -1.031
REMARK UNBOUND:                -0.556
REMARK SMILES CCCCC/C=C/C(=O)CCc1ccc(O)c(OC)c1
REMARK SMILES IDX 6 1 7 2 8 3 9 4 10 5 11 6 12 7 17 8 20 9 15 10 14 11 13 12
REMARK SMILES IDX 18 13 19 14 16 15 5 17 4 18 3 19 2 20 1 21
REMARK H PARENT 16 16
REMARK Flexibility Score: inf
ROOT
ATOM      1  C   UNL     1      90.023  78.494  84.380  1.00  0.00    -0.023 C 
ATOM      2  C   UNL     1      90.786  79.520  83.984  1.00  0.00     0.043 C 
ENDROOT
BRANCH   2   3
ATOM      3  C   UNL     1      90.317  80.917  84.195  1.00  0.00     0.155 C 
ATOM      4  O   UNL     1      89.123  81.196  84.273  1.00  0.00    -0.295 OA
BRANCH   3   5
ATOM      5  C   UNL     1      91.389  81.988  84.256  1.00  0.00     0.085 C 
BRANCH   5   6
ATOM      6  C   UNL     1      92.787  81.371  84.329  1.00  0.00     0.044 C 
BRANCH   6   7
ATOM      7  C   UNL     1      93.880  82.405  84.456  1.00  0.00    -0.044 A 
ATOM      8  C   UNL     1      94.723  84.419  85.452  1.00  0.00     0.160 A 
ATOM      9  C   UNL     1      93.713  83.465  85.334  1.00  0.00     0.054 A 
ATOM     10  C   UNL     1      95.886  84.303  84.690  1.00  0.00     0.157 A 
ATOM     11  C   UNL     1      96.039  83.231  83.810  1.00  0.00     0.050 A 
ATOM     12  C   UNL     1      95.028  82.276  83.693  1.00  0.00     0.008 A 
BRANCH   8  13
ATOM     13  O   UNL     1      94.562  85.462  86.314  1.00  0.00    -0.493 OA
ATOM     14  C   UNL     1      94.094  86.692  85.765  1.00  0.00     0.278 C 
ENDBRANCH   8  13
BRANCH  10  15
ATOM     15  O   UNL     1      96.879  85.229  84.797  1.00  0.00    -0.504 OA
ATOM     16  H   UNL     1      97.526  84.910  85.449  1.00  0.00     0.293 HD
ENDBRANCH  10  15
ENDBRANCH   6   7
ENDBRANCH   5   6
ENDBRANCH   3   5
ENDBRANCH   2   3
BRANCH   1  17
ATOM     17  C   UNL     1      90.424  77.058  84.203  1.00  0.00     0.027 C 
BRANCH  17  18
ATOM     18  C   UNL     1      91.677  76.885  83.338  1.00  0.00     0.004 C 
BRANCH  18  19
ATOM     19  C   UNL     1      92.869  76.294  84.096  1.00  0.00     0.000 C 
BRANCH  19  20
ATOM     20  C   UNL     1      94.113  77.171  83.937  1.00  0.00    -0.003 C 
ATOM     21  C   UNL     1      94.232  78.179  85.069  1.00  0.00     0.004 C 
ENDBRANCH  19  20
ENDBRANCH  18  19
ENDBRANCH  17  18
ENDBRANCH   1  17
TORSDOF 10
ENDMDL
MODEL 6
REMARK VINA RESULT:    -5.851      5.752     10.170
REMARK INTER + INTRA:          -9.656
REMARK INTER:                  -9.001
REMARK INTRA:                  -0.654
REMARK UNBOUND:                -0.556
REMARK SMILES CCCCC/C=C/C(=O)CCc1ccc(O)c(OC)c1
REMARK SMILES IDX 6 1 7 2 8 3 9 4 10 5 11 6 12 7 17 8 20 9 15 10 14 11 13 12
REMARK SMILES IDX 18 13 19 14 16 15 5 17 4 18 3 19 2 20 1 21
REMARK H PARENT 16 16
REMARK Flexibility Score: inf
ROOT
ATOM      1  C   UNL     1      96.325  82.829  82.961  1.00  0.00    -0.023 C 
ATOM      2  C   UNL     1      96.669  82.094  81.897  1.00  0.00     0.043 C 
ENDROOT
BRANCH   2   3
ATOM      3  C   UNL     1      98.041  82.204  81.332  1.00  0.00     0.155 C 
ATOM      4  O   UNL     1      98.997  81.613  81.830  1.00  0.00    -0.295 OA
BRANCH   3   5
ATOM      5  C   UNL     1      98.210  83.126  80.140  1.00  0.00     0.085 C 
BRANCH   5   6
ATOM      6  C   UNL     1      96.938  83.177  79.293  1.00  0.00     0.044 C 
BRANCH   6   7
ATOM      7  C   UNL     1      97.198  83.599  77.866  1.00  0.00    -0.044 A 
ATOM      8  C   UNL     1      98.594  83.563  75.915  1.00  0.00     0.160 A 
ATOM      9  C   UNL     1      98.355  83.173  77.232  1.00  0.00     0.054 A 
ATOM     10  C   UNL     1      97.676  84.374  75.248  1.00  0.00     0.157 A 
ATOM     11  C   UNL     1      96.516  84.795  75.901  1.00  0.00     0.050 A 
ATOM     12  C   UNL     1      96.276  84.405  77.218  1.00  0.00     0.008 A 
BRANCH   8  13
ATOM     13  O   UNL     1      99.730  83.146  75.289  1.00  0.00    -0.493 OA
ATOM     14  C   UNL     1      99.747  81.805  74.801  1.00  0.00     0.278 C 
ENDBRANCH   8  13
BRANCH  10  15
ATOM     15  O   UNL     1      97.899  84.761  73.962  1.00  0.00    -0.504 OA
ATOM     16  H   UNL     1      97.956  83.963  73.408  1.00  0.00     0.293 HD
ENDBRANCH  10  15
ENDBRANCH   6   7
ENDBRANCH   5   6
ENDBRANCH   3   5
ENDBRANCH   2   3
BRANCH   1  17
ATOM     17  C   UNL     1      94.962  82.776  83.589  1.00  0.00     0.027 C 
BRANCH  17  18
ATOM     18  C   UNL     1      94.949  83.266  85.041  1.00  0.00     0.004 C 
BRANCH  18  19
ATOM     19  C   UNL     1      93.619  83.895  85.465  1.00  0.00     0.000 C 
BRANCH  19  20
ATOM     20  C   UNL     1      93.830  85.294  86.046  1.00  0.00    -0.003 C 
ATOM     21  C   UNL     1      94.197  86.297  84.964  1.00  0.00     0.004 C 
ENDBRANCH  19  20
ENDBRANCH  18  19
ENDBRANCH  17  18
ENDBRANCH   1  17
TORSDOF 10
ENDMDL
MODEL 7
REMARK VINA RESULT:    -5.807      3.414      6.565
REMARK INTER + INTRA:          -9.588
REMARK INTER:                  -8.396
REMARK INTRA:                  -1.192
REMARK UNBOUND:                -0.556
REMARK SMILES CCCCC/C=C/C(=O)CCc1ccc(O)c(OC)c1
REMARK SMILES IDX 6 1 7 2 8 3 9 4 10 5 11 6 12 7 17 8 20 9 15 10 14 11 13 12
REMARK SMILES IDX 18 13 19 14 16 15 5 17 4 18 3 19 2 20 1 21
REMARK H PARENT 16 16
REMARK Flexibility Score: inf
ROOT
ATOM      1  C   UNL     1      98.802  82.110  80.093  1.00  0.00    -0.023 C 
ATOM      2  C   UNL     1      98.299  80.928  80.472  1.00  0.00     0.043 C 
ENDROOT
BRANCH   2   3
ATOM      3  C   UNL     1      98.841  80.245  81.678  1.00  0.00     0.155 C 
ATOM      4  O   UNL     1      99.879  79.588  81.641  1.00  0.00    -0.295 OA
BRANCH   3   5
ATOM      5  C   UNL     1      98.017  80.358  82.946  1.00  0.00     0.085 C 
BRANCH   5   6
ATOM      6  C   UNL     1      96.532  80.543  82.629  1.00  0.00     0.044 C 
BRANCH   6   7
ATOM      7  C   UNL     1      95.964  81.821  83.200  1.00  0.00    -0.044 A 
ATOM      8  C   UNL     1      94.350  82.939  84.579  1.00  0.00     0.160 A 
ATOM      9  C   UNL     1      94.873  81.759  84.052  1.00  0.00     0.054 A 
ATOM     10  C   UNL     1      94.923  84.166  84.247  1.00  0.00     0.157 A 
ATOM     11  C   UNL     1      96.021  84.213  83.387  1.00  0.00     0.050 A 
ATOM     12  C   UNL     1      96.545  83.032  82.860  1.00  0.00     0.008 A 
BRANCH   8  13
ATOM     13  O   UNL     1      93.277  82.881  85.417  1.00  0.00    -0.493 OA
ATOM     14  C   UNL     1      92.011  82.586  84.830  1.00  0.00     0.278 C 
ENDBRANCH   8  13
BRANCH  10  15
ATOM     15  O   UNL     1      94.421  85.326  84.755  1.00  0.00    -0.504 OA
ATOM     16  H   UNL     1      93.700  85.104  85.368  1.00  0.00     0.293 HD
ENDBRANCH  10  15
ENDBRANCH   6   7
ENDBRANCH   5   6
ENDBRANCH   3   5
ENDBRANCH   2   3
BRANCH   1  17
ATOM     17  C   UNL     1      98.312  82.862  78.889  1.00  0.00     0.027 C 
BRANCH  17  18
ATOM     18  C   UNL     1      96.889  83.405  79.058  1.00  0.00     0.004 C 
BRANCH  18  19
ATOM     19  C   UNL     1      96.281  83.948  77.761  1.00  0.00     0.000 C 
BRANCH  19  20
ATOM     20  C   UNL     1      97.303  83.929  76.623  1.00  0.00    -0.003 C 
ATOM     21  C   UNL     1      96.801  84.697  75.410  1.00  0.00     0.004 C 
ENDBRANCH  19  20
ENDBRANCH  18  19
ENDBRANCH  17  18
ENDBRANCH   1  17
TORSDOF 10
ENDMDL
MODEL 8
REMARK VINA RESULT:    -5.771      3.873      8.734
REMARK INTER + INTRA:          -9.532
REMARK INTER:                  -8.970
REMARK INTRA:                  -0.562
REMARK UNBOUND:                -0.556
REMARK SMILES CCCCC/C=C/C(=O)CCc1ccc(O)c(OC)c1
REMARK SMILES IDX 6 1 7 2 8 3 9 4 10 5 11 6 12 7 17 8 20 9 15 10 14 11 13 12
REMARK SMILES IDX 18 13 19 14 16 15 5 17 4 18 3 19 2 20 1 21
REMARK H PARENT 16 16
REMARK Flexibility Score: inf
ROOT
ATOM      1  C   UNL     1      94.300  82.192  84.038  1.00  0.00    -0.023 C 
ATOM      2  C   UNL     1      95.573  82.542  84.256  1.00  0.00     0.043 C 
ENDROOT
BRANCH   2   3
ATOM      3  C   UNL     1      96.140  83.739  83.577  1.00  0.00     0.155 C 
ATOM      4  O   UNL     1      96.346  84.790  84.181  1.00  0.00    -0.295 OA
BRANCH   3   5
ATOM      5  C   UNL     1      96.401  83.612  82.089  1.00  0.00     0.085 C 
BRANCH   5   6
ATOM      6  C   UNL     1      96.930  82.222  81.734  1.00  0.00     0.044 C 
BRANCH   6   7
ATOM      7  C   UNL     1      97.337  82.101  80.285  1.00  0.00    -0.044 A 
ATOM      8  C   UNL     1      97.658  83.106  78.129  1.00  0.00     0.160 A 
ATOM      9  C   UNL     1      97.282  83.219  79.468  1.00  0.00     0.054 A 
ATOM     10  C   UNL     1      98.084  81.878  77.625  1.00  0.00     0.157 A 
ATOM     11  C   UNL     1      98.134  80.761  78.460  1.00  0.00     0.050 A 
ATOM     12  C   UNL     1      97.757  80.874  79.799  1.00  0.00     0.008 A 
BRANCH   8  13
ATOM     13  O   UNL     1      97.605  84.204  77.324  1.00  0.00    -0.493 OA
ATOM     14  C   UNL     1      96.332  84.549  76.781  1.00  0.00     0.278 C 
ENDBRANCH   8  13
BRANCH  10  15
ATOM     15  O   UNL     1      98.455  81.756  76.320  1.00  0.00    -0.504 OA
ATOM     16  H   UNL     1      98.437  80.812  76.085  1.00  0.00     0.293 HD
ENDBRANCH  10  15
ENDBRANCH   6   7
ENDBRANCH   5   6
ENDBRANCH   3   5
ENDBRANCH   2   3
BRANCH   1  17
ATOM     17  C   UNL     1      93.655  80.999  84.683  1.00  0.00     0.027 C 
BRANCH  17  18
ATOM     18  C   UNL     1      92.131  81.126  84.794  1.00  0.00     0.004 C 
BRANCH  18  19
ATOM     19  C   UNL     1      91.394  79.789  84.665  1.00  0.00     0.000 C 
BRANCH  19  20
ATOM     20  C   UNL     1      90.079  79.956  83.902  1.00  0.00    -0.003 C 
ATOM     21  C   UNL     1      89.366  81.240  84.295  1.00  0.00     0.004 C 
ENDBRANCH  19  20
ENDBRANCH  18  19
ENDBRANCH  17  18
ENDBRANCH   1  17
TORSDOF 10
ENDMDL
MODEL 9
REMARK VINA RESULT:    -5.695      5.163      7.466
REMARK INTER + INTRA:          -9.414
REMARK INTER:                  -8.865
REMARK INTRA:                  -0.549
REMARK UNBOUND:                -0.556
REMARK SMILES CCCCC/C=C/C(=O)CCc1ccc(O)c(OC)c1
REMARK SMILES IDX 6 1 7 2 8 3 9 4 10 5 11 6 12 7 17 8 20 9 15 10 14 11 13 12
REMARK SMILES IDX 18 13 19 14 16 15 5 17 4 18 3 19 2 20 1 21
REMARK H PARENT 16 16
REMARK Flexibility Score: inf
ROOT
ATOM      1  C   UNL     1      96.697  83.505  78.480  1.00  0.00    -0.023 C 
ATOM      2  C   UNL     1      97.870  83.234  79.067  1.00  0.00     0.043 C 
ENDROOT
BRANCH   2   3
ATOM      3  C   UNL     1      97.901  82.753  80.475  1.00  0.00     0.155 C 
ATOM      4  O   UNL     1      98.871  82.153  80.934  1.00  0.00    -0.295 OA
BRANCH   3   5
ATOM      5  C   UNL     1      96.651  82.993  81.299  1.00  0.00     0.085 C 
BRANCH   5   6
ATOM      6  C   UNL     1      96.901  82.710  82.781  1.00  0.00     0.044 C 
BRANCH   6   7
ATOM      7  C   UNL     1      96.168  83.665  83.694  1.00  0.00    -0.044 A 
ATOM      8  C   UNL     1      94.917  84.067  85.701  1.00  0.00     0.160 A 
ATOM      9  C   UNL     1      95.593  83.184  84.859  1.00  0.00     0.054 A 
ATOM     10  C   UNL     1      94.825  85.418  85.368  1.00  0.00     0.157 A 
ATOM     11  C   UNL     1      95.409  85.887  84.190  1.00  0.00     0.050 A 
ATOM     12  C   UNL     1      96.085  85.004  83.348  1.00  0.00     0.008 A 
BRANCH   8  13
ATOM     13  O   UNL     1      94.351  83.597  86.848  1.00  0.00    -0.493 OA
ATOM     14  C   UNL     1      94.331  82.183  87.029  1.00  0.00     0.278 C 
ENDBRANCH   8  13
BRANCH  10  15
ATOM     15  O   UNL     1      94.168  86.290  86.182  1.00  0.00    -0.504 OA
ATOM     16  H   UNL     1      94.811  86.671  86.804  1.00  0.00     0.293 HD
ENDBRANCH  10  15
ENDBRANCH   6   7
ENDBRANCH   5   6
ENDBRANCH   3   5
ENDBRANCH   2   3
BRANCH   1  17
ATOM     17  C   UNL     1      96.581  83.994  77.066  1.00  0.00     0.027 C 
BRANCH  17  18
ATOM     18  C   UNL     1      97.886  83.858  76.273  1.00  0.00     0.004 C 
BRANCH  18  19
ATOM     19  C   UNL     1      97.874  84.611  74.939  1.00  0.00     0.000 C 
BRANCH  19  20
ATOM     20  C   UNL     1      99.229  84.508  74.236  1.00  0.00    -0.003 C 
ATOM     21  C   UNL     1      99.131  84.915  72.775  1.00  0.00     0.004 C 
ENDBRANCH  19  20
ENDBRANCH  18  19
ENDBRANCH  17  18
ENDBRANCH   1  17
TORSDOF 10
ENDMDL
MODEL 10
REMARK VINA RESULT:    -5.589     17.725     19.571
REMARK INTER + INTRA:          -9.249
REMARK INTER:                  -8.574
REMARK INTRA:                  -0.675
REMARK UNBOUND:                -0.556
REMARK SMILES CCCCC/C=C/C(=O)CCc1ccc(O)c(OC)c1
REMARK SMILES IDX 6 1 7 2 8 3 9 4 10 5 11 6 12 7 17 8 20 9 15 10 14 11 13 12
REMARK SMILES IDX 18 13 19 14 16 15 5 17 4 18 3 19 2 20 1 21
REMARK H PARENT 16 16
REMARK Flexibility Score: inf
ROOT
ATOM      1  C   UNL     1      92.718  95.623  76.721  1.00  0.00    -0.023 C 
ATOM      2  C   UNL     1      93.247  96.810  77.043  1.00  0.00     0.043 C 
ENDROOT
BRANCH   2   3
ATOM      3  C   UNL     1      94.267  97.433  76.156  1.00  0.00     0.155 C 
ATOM      4  O   UNL     1      94.844  98.474  76.463  1.00  0.00    -0.295 OA
BRANCH   3   5
ATOM      5  C   UNL     1      94.520  96.745  74.829  1.00  0.00     0.085 C 
BRANCH   5   6
ATOM      6  C   UNL     1      93.763  97.434  73.693  1.00  0.00     0.044 C 
BRANCH   6   7
ATOM      7  C   UNL     1      94.637  97.725  72.496  1.00  0.00    -0.044 A 
ATOM      8  C   UNL     1      95.016  98.908  70.443  1.00  0.00     0.160 A 
ATOM      9  C   UNL     1      94.208  98.639  71.548  1.00  0.00     0.054 A 
ATOM     10  C   UNL     1      96.241  98.258  70.300  1.00  0.00     0.157 A 
ATOM     11  C   UNL     1      96.659  97.339  71.264  1.00  0.00     0.050 A 
ATOM     12  C   UNL     1      95.851  97.070  72.368  1.00  0.00     0.008 A 
BRANCH   8  13
ATOM     13  O   UNL     1      94.596  99.807  69.509  1.00  0.00    -0.493 OA
ATOM     14  C   UNL     1      93.427 100.564  69.817  1.00  0.00     0.278 C 
ENDBRANCH   8  13
BRANCH  10  15
ATOM     15  O   UNL     1      97.039  98.512  69.226  1.00  0.00    -0.504 OA
ATOM     16  H   UNL     1      97.951  98.265  69.458  1.00  0.00     0.293 HD
ENDBRANCH  10  15
ENDBRANCH   6   7
ENDBRANCH   5   6
ENDBRANCH   3   5
ENDBRANCH   2   3
BRANCH   1  17
ATOM     17  C   UNL     1      91.686  94.929  77.562  1.00  0.00     0.027 C 
BRANCH  17  18
ATOM     18  C   UNL     1      90.400  94.608  76.793  1.00  0.00     0.004 C 
BRANCH  18  19
ATOM     19  C   UNL     1      90.322  93.157  76.308  1.00  0.00     0.000 C 
BRANCH  19  20
ATOM     20  C   UNL     1      90.514  93.069  74.793  1.00  0.00    -0.003 C 
ATOM     21  C   UNL     1      90.446  91.631  74.305  1.00  0.00     0.004 C 
ENDBRANCH  19  20
ENDBRANCH  18  19
ENDBRANCH  17  18
ENDBRANCH   1  17
TORSDOF 10
ENDMDL
