MODEL 1
REMARK VINA RESULT:    -6.026      0.000      0.000
REMARK INTER + INTRA:         -10.747
REMARK INTER:                  -9.725
REMARK INTRA:                  -1.023
REMARK UNBOUND:                -1.023
REMARK SMILES CCCCCCCCC(=O)NCc1ccc(O)c(OC)c1
REMARK SMILES IDX 7 1 6 2 5 3 4 4 3 5 2 6 1 7 8 8 9 9 10 10 11 11 12 13 13 14
REMARK SMILES IDX 21 15 14 16 18 17 15 18 16 19 19 20 20 21 17 22
REMARK H PARENT 11 12 17 23
REMARK Flexibility Score: inf
ROOT
ATOM      1  C   UNL     1      94.220  96.910  75.767  1.00  0.00     0.010 C 
ENDROOT
BRANCH   1   2
ATOM      2  C   UNL     1      94.371  95.542  76.492  1.00  0.00     0.001 C 
BRANCH   2   3
ATOM      3  C   UNL     1      93.019  95.029  77.070  1.00  0.00     0.000 C 
BRANCH   3   4
ATOM      4  C   UNL     1      91.805  95.939  76.727  1.00  0.00    -0.000 C 
BRANCH   4   5
ATOM      5  C   UNL     1      90.702  95.906  77.823  1.00  0.00    -0.000 C 
BRANCH   5   6
ATOM      6  C   UNL     1      89.454  95.091  77.389  1.00  0.00    -0.003 C 
ATOM      7  C   UNL     1      89.463  93.645  77.931  1.00  0.00     0.004 C 
ENDBRANCH   5   6
ENDBRANCH   4   5
ENDBRANCH   3   4
ENDBRANCH   2   3
ENDBRANCH   1   2
BRANCH   1   8
ATOM      8  C   UNL     1      95.537  97.730  75.690  1.00  0.00     0.100 C 
BRANCH   8   9
ATOM      9  C   UNL     1      95.696  98.609  76.874  1.00  0.00     0.220 C 
ATOM     10  O   UNL     1      95.118  99.722  76.870  1.00  0.00    -0.275 OA
ATOM     11  N   UNL     1      96.430  98.199  77.950  1.00  0.00    -0.352 N 
ATOM     12  H   UNL     1      96.921  97.327  77.812  1.00  0.00     0.163 HD
BRANCH  11  13
ATOM     13  C   UNL     1      96.540  98.889  79.198  1.00  0.00     0.151 C 
BRANCH  13  14
ATOM     14  C   UNL     1      96.053  98.104  80.364  1.00  0.00    -0.025 A 
ATOM     15  C   UNL     1      95.614  96.770  80.191  1.00  0.00     0.056 A 
ATOM     16  C   UNL     1      96.017  98.673  81.658  1.00  0.00     0.009 A 
ATOM     17  C   UNL     1      95.164  96.006  81.293  1.00  0.00     0.160 A 
ATOM     18  C   UNL     1      95.572  97.918  82.758  1.00  0.00     0.050 A 
ATOM     19  C   UNL     1      95.138  96.590  82.580  1.00  0.00     0.157 A 
BRANCH  17  20
ATOM     20  O   UNL     1      94.699  94.728  81.117  1.00  0.00    -0.493 OA
ATOM     21  C   UNL     1      95.381  93.989  80.088  1.00  0.00     0.278 C 
ENDBRANCH  17  20
BRANCH  19  22
ATOM     22  O   UNL     1      94.685  95.879  83.643  1.00  0.00    -0.504 OA
ATOM     23  H   UNL     1      93.729  95.956  83.696  1.00  0.00     0.293 HD
ENDBRANCH  19  22
ENDBRANCH  13  14
ENDBRANCH  11  13
ENDBRANCH   8   9
ENDBRANCH   1   8
TORSDOF 11
ENDMDL
MODEL 2
REMARK VINA RESULT:    -5.428      1.529      2.137
REMARK INTER + INTRA:          -9.783
REMARK INTER:                  -8.836
REMARK INTRA:                  -0.946
REMARK UNBOUND:                -1.023
REMARK SMILES CCCCCCCCC(=O)NCc1ccc(O)c(OC)c1
REMARK SMILES IDX 7 1 6 2 5 3 4 4 3 5 2 6 1 7 8 8 9 9 10 10 11 11 12 13 13 14
REMARK SMILES IDX 21 15 14 16 18 17 15 18 16 19 19 20 20 21 17 22
REMARK H PARENT 11 12 17 23
REMARK Flexibility Score: inf
ROOT
ATOM      1  C   UNL     1      95.191  96.791  75.597  1.00  0.00     0.010 C 
ENDROOT
BRANCH   1   2
ATOM      2  C   UNL     1      93.859  95.996  75.712  1.00  0.00     0.001 C 
BRANCH   2   3
ATOM      3  C   UNL     1      93.543  95.586  77.180  1.00  0.00     0.000 C 
BRANCH   3   4
ATOM      4  C   UNL     1      92.491  94.447  77.300  1.00  0.00    -0.000 C 
BRANCH   4   5
ATOM      5  C   UNL     1      91.276  94.844  78.187  1.00  0.00    -0.000 C 
BRANCH   5   6
ATOM      6  C   UNL     1      89.916  94.477  77.534  1.00  0.00    -0.003 C 
ATOM      7  C   UNL     1      89.163  93.367  78.300  1.00  0.00     0.004 C 
ENDBRANCH   5   6
ENDBRANCH   4   5
ENDBRANCH   3   4
ENDBRANCH   2   3
ENDBRANCH   1   2
BRANCH   1   8
ATOM      8  C   UNL     1      95.049  98.306  75.914  1.00  0.00     0.100 C 
BRANCH   8   9
ATOM      9  C   UNL     1      95.727  98.658  77.185  1.00  0.00     0.220 C 
ATOM     10  O   UNL     1      95.678  99.848  77.577  1.00  0.00    -0.275 OA
ATOM     11  N   UNL     1      96.362  97.698  77.921  1.00  0.00    -0.352 N 
ATOM     12  H   UNL     1      96.416  96.796  77.473  1.00  0.00     0.163 HD
BRANCH  11  13
ATOM     13  C   UNL     1      96.927  97.881  79.223  1.00  0.00     0.151 C 
BRANCH  13  14
ATOM     14  C   UNL     1      96.539  96.829  80.200  1.00  0.00    -0.025 A 
ATOM     15  C   UNL     1      97.393  96.514  81.284  1.00  0.00     0.056 A 
ATOM     16  C   UNL     1      95.320  96.125  80.064  1.00  0.00     0.009 A 
ATOM     17  C   UNL     1      97.029  95.529  82.231  1.00  0.00     0.160 A 
ATOM     18  C   UNL     1      94.953  95.145  81.003  1.00  0.00     0.050 A 
ATOM     19  C   UNL     1      95.805  94.839  82.081  1.00  0.00     0.157 A 
BRANCH  17  20
ATOM     20  O   UNL     1      97.877  95.195  83.257  1.00  0.00    -0.493 OA
ATOM     21  C   UNL     1      98.057  96.236  84.233  1.00  0.00     0.278 C 
ENDBRANCH  17  20
BRANCH  19  22
ATOM     22  O   UNL     1      95.454  93.871  82.966  1.00  0.00    -0.504 OA
ATOM     23  H   UNL     1      95.634  94.174  83.859  1.00  0.00     0.293 HD
ENDBRANCH  19  22
ENDBRANCH  13  14
ENDBRANCH  11  13
ENDBRANCH   8   9
ENDBRANCH   1   8
TORSDOF 11
ENDMDL
MODEL 3
REMARK VINA RESULT:    -5.323     13.131     14.727
REMARK INTER + INTRA:          -9.613
REMARK INTER:                  -9.069
REMARK INTRA:                  -0.543
REMARK UNBOUND:                -1.023
REMARK SMILES CCCCCCCCC(=O)NCc1ccc(O)c(OC)c1
REMARK SMILES IDX 7 1 6 2 5 3 4 4 3 5 2 6 1 7 8 8 9 9 10 10 11 11 12 13 13 14
REMARK SMILES IDX 21 15 14 16 18 17 15 18 16 19 19 20 20 21 17 22
REMARK H PARENT 11 12 17 23
REMARK Flexibility Score: inf
ROOT
ATOM      1  C   UNL     1      97.510  83.502  79.763  1.00  0.00     0.010 C 
ENDROOT
BRANCH   1   2
ATOM      2  C   UNL     1      97.438  83.913  78.264  1.00  0.00     0.001 C 
BRANCH   2   3
ATOM      3  C   UNL     1      98.367  83.041  77.369  1.00  0.00     0.000 C 
BRANCH   3   4
ATOM      4  C   UNL     1      98.818  83.746  76.059  1.00  0.00    -0.000 C 
BRANCH   4   5
ATOM      5  C   UNL     1     100.191  83.231  75.542  1.00  0.00    -0.000 C 
BRANCH   5   6
ATOM      6  C   UNL     1     101.185  84.385  75.239  1.00  0.00    -0.003 C 
ATOM      7  C   UNL     1     100.475  85.704  74.860  1.00  0.00     0.004 C 
ENDBRANCH   5   6
ENDBRANCH   4   5
ENDBRANCH   3   4
ENDBRANCH   2   3
ENDBRANCH   1   2
BRANCH   1   8
ATOM      8  C   UNL     1      98.948  83.177  80.258  1.00  0.00     0.100 C 
BRANCH   8   9
ATOM      9  C   UNL     1      98.926  82.535  81.595  1.00  0.00     0.220 C 
ATOM     10  O   UNL     1      99.549  81.457  81.747  1.00  0.00    -0.275 OA
ATOM     11  N   UNL     1      98.267  83.124  82.636  1.00  0.00    -0.352 N 
ATOM     12  H   UNL     1      97.730  83.940  82.383  1.00  0.00     0.163 HD
BRANCH  11  13
ATOM     13  C   UNL     1      98.290  82.681  83.997  1.00  0.00     0.151 C 
BRANCH  13  14
ATOM     14  C   UNL     1      97.348  83.414  84.884  1.00  0.00    -0.025 A 
ATOM     15  C   UNL     1      96.440  82.702  85.703  1.00  0.00     0.056 A 
ATOM     16  C   UNL     1      97.338  84.828  84.923  1.00  0.00     0.009 A 
ATOM     17  C   UNL     1      95.551  83.385  86.564  1.00  0.00     0.160 A 
ATOM     18  C   UNL     1      96.457  85.513  85.778  1.00  0.00     0.050 A 
ATOM     19  C   UNL     1      95.558  84.798  86.593  1.00  0.00     0.157 A 
BRANCH  17  20
ATOM     20  O   UNL     1      94.643  82.694  87.326  1.00  0.00    -0.493 OA
ATOM     21  C   UNL     1      93.555  82.126  86.576  1.00  0.00     0.278 C 
ENDBRANCH  17  20
BRANCH  19  22
ATOM     22  O   UNL     1      94.692  85.469  87.394  1.00  0.00    -0.504 OA
ATOM     23  H   UNL     1      95.149  85.756  88.189  1.00  0.00     0.293 HD
ENDBRANCH  19  22
ENDBRANCH  13  14
ENDBRANCH  11  13
ENDBRANCH   8   9
ENDBRANCH   1   8
TORSDOF 11
ENDMDL
MODEL 4
REMARK VINA RESULT:    -5.232     13.008     14.679
REMARK INTER + INTRA:          -9.466
REMARK INTER:                  -9.035
REMARK INTRA:                  -0.432
REMARK UNBOUND:                -1.023
REMARK SMILES CCCCCCCCC(=O)NCc1ccc(O)c(OC)c1
REMARK SMILES IDX 7 1 6 2 5 3 4 4 3 5 2 6 1 7 8 8 9 9 10 10 11 11 12 13 13 14
REMARK SMILES IDX 21 15 14 16 18 17 15 18 16 19 19 20 20 21 17 22
REMARK H PARENT 11 12 17 23
REMARK Flexibility Score: inf
ROOT
ATOM      1  C   UNL     1      98.176  82.740  78.775  1.00  0.00     0.010 C 
ENDROOT
BRANCH   1   2
ATOM      2  C   UNL     1      97.378  83.876  78.071  1.00  0.00     0.001 C 
BRANCH   2   3
ATOM      3  C   UNL     1      98.001  84.269  76.699  1.00  0.00     0.000 C 
BRANCH   3   4
ATOM      4  C   UNL     1      98.937  83.182  76.100  1.00  0.00    -0.000 C 
BRANCH   4   5
ATOM      5  C   UNL     1     100.224  83.781  75.464  1.00  0.00    -0.000 C 
BRANCH   5   6
ATOM      6  C   UNL     1     100.134  85.319  75.275  1.00  0.00    -0.003 C 
ATOM      7  C   UNL     1     100.801  85.803  73.969  1.00  0.00     0.004 C 
ENDBRANCH   5   6
ENDBRANCH   4   5
ENDBRANCH   3   4
ENDBRANCH   2   3
ENDBRANCH   1   2
BRANCH   1   8
ATOM      8  C   UNL     1      99.130  83.242  79.895  1.00  0.00     0.100 C 
BRANCH   8   9
ATOM      9  C   UNL     1      99.069  82.364  81.089  1.00  0.00     0.220 C 
ATOM     10  O   UNL     1      99.030  81.123  80.913  1.00  0.00    -0.275 OA
ATOM     11  N   UNL     1      99.086  82.899  82.345  1.00  0.00    -0.352 N 
ATOM     12  H   UNL     1      99.031  83.907  82.370  1.00  0.00     0.163 HD
BRANCH  11  13
ATOM     13  C   UNL     1      99.174  82.160  83.567  1.00  0.00     0.151 C 
BRANCH  13  14
ATOM     14  C   UNL     1      98.803  82.946  84.773  1.00  0.00    -0.025 A 
ATOM     15  C   UNL     1      97.927  84.052  84.661  1.00  0.00     0.056 A 
ATOM     16  C   UNL     1      99.316  82.609  86.047  1.00  0.00     0.009 A 
ATOM     17  C   UNL     1      97.551  84.798  85.801  1.00  0.00     0.160 A 
ATOM     18  C   UNL     1      98.945  83.347  87.185  1.00  0.00     0.050 A 
ATOM     19  C   UNL     1      98.071  84.444  87.067  1.00  0.00     0.157 A 
BRANCH  17  20
ATOM     20  O   UNL     1      96.735  85.896  85.684  1.00  0.00    -0.493 OA
ATOM     21  C   UNL     1      95.410  85.703  86.211  1.00  0.00     0.278 C 
ENDBRANCH  17  20
BRANCH  19  22
ATOM     22  O   UNL     1      97.741  85.167  88.167  1.00  0.00    -0.504 OA
ATOM     23  H   UNL     1      98.407  85.038  88.847  1.00  0.00     0.293 HD
ENDBRANCH  19  22
ENDBRANCH  13  14
ENDBRANCH  11  13
ENDBRANCH   8   9
ENDBRANCH   1   8
TORSDOF 11
ENDMDL
MODEL 5
REMARK VINA RESULT:    -5.209     21.864     25.482
REMARK INTER + INTRA:          -9.429
REMARK INTER:                  -7.457
REMARK INTRA:                  -1.972
REMARK UNBOUND:                -1.023
REMARK SMILES CCCCCCCCC(=O)NCc1ccc(O)c(OC)c1
REMARK SMILES IDX 7 1 6 2 5 3 4 4 3 5 2 6 1 7 8 8 9 9 10 10 11 11 12 13 13 14
REMARK SMILES IDX 21 15 14 16 18 17 15 18 16 19 19 20 20 21 17 22
REMARK H PARENT 11 12 17 23
REMARK Flexibility Score: inf
ROOT
ATOM      1  C   UNL     1      76.101  87.540  69.155  1.00  0.00     0.010 C 
ENDROOT
BRANCH   1   2
ATOM      2  C   UNL     1      74.979  86.616  69.712  1.00  0.00     0.001 C 
BRANCH   2   3
ATOM      3  C   UNL     1      74.396  85.673  68.619  1.00  0.00     0.000 C 
BRANCH   3   4
ATOM      4  C   UNL     1      73.948  86.412  67.326  1.00  0.00    -0.000 C 
BRANCH   4   5
ATOM      5  C   UNL     1      74.778  85.997  66.079  1.00  0.00    -0.000 C 
BRANCH   5   6
ATOM      6  C   UNL     1      75.387  87.217  65.335  1.00  0.00    -0.003 C 
ATOM      7  C   UNL     1      76.913  87.341  65.535  1.00  0.00     0.004 C 
ENDBRANCH   5   6
ENDBRANCH   4   5
ENDBRANCH   3   4
ENDBRANCH   2   3
ENDBRANCH   1   2
BRANCH   1   8
ATOM      8  C   UNL     1      77.525  87.173  69.657  1.00  0.00     0.100 C 
BRANCH   8   9
ATOM      9  C   UNL     1      77.822  85.737  69.439  1.00  0.00     0.220 C 
ATOM     10  O   UNL     1      77.867  84.980  70.438  1.00  0.00    -0.275 OA
ATOM     11  N   UNL     1      78.011  85.252  68.177  1.00  0.00    -0.352 N 
ATOM     12  H   UNL     1      78.039  85.959  67.457  1.00  0.00     0.163 HD
BRANCH  11  13
ATOM     13  C   UNL     1      78.162  83.873  67.826  1.00  0.00     0.151 C 
BRANCH  13  14
ATOM     14  C   UNL     1      77.410  83.477  66.605  1.00  0.00    -0.025 A 
ATOM     15  C   UNL     1      76.250  82.674  66.712  1.00  0.00     0.056 A 
ATOM     16  C   UNL     1      77.838  83.890  65.322  1.00  0.00     0.009 A 
ATOM     17  C   UNL     1      75.515  82.304  65.562  1.00  0.00     0.160 A 
ATOM     18  C   UNL     1      77.111  83.526  64.175  1.00  0.00     0.050 A 
ATOM     19  C   UNL     1      75.956  82.729  64.289  1.00  0.00     0.157 A 
BRANCH  17  20
ATOM     20  O   UNL     1      74.415  81.491  65.665  1.00  0.00    -0.493 OA
ATOM     21  C   UNL     1      73.226  82.162  66.119  1.00  0.00     0.278 C 
ENDBRANCH  17  20
BRANCH  19  22
ATOM     22  O   UNL     1      75.276  82.361  63.173  1.00  0.00    -0.504 OA
ATOM     23  H   UNL     1      75.855  81.854  62.598  1.00  0.00     0.293 HD
ENDBRANCH  19  22
ENDBRANCH  13  14
ENDBRANCH  11  13
ENDBRANCH   8   9
ENDBRANCH   1   8
TORSDOF 11
ENDMDL
MODEL 6
REMARK VINA RESULT:    -5.107     30.932     33.601
REMARK INTER + INTRA:          -9.265
REMARK INTER:                  -8.471
REMARK INTRA:                  -0.794
REMARK UNBOUND:                -1.023
REMARK SMILES CCCCCCCCC(=O)NCc1ccc(O)c(OC)c1
REMARK SMILES IDX 7 1 6 2 5 3 4 4 3 5 2 6 1 7 8 8 9 9 10 10 11 11 12 13 13 14
REMARK SMILES IDX 21 15 14 16 18 17 15 18 16 19 19 20 20 21 17 22
REMARK H PARENT 11 12 17 23
REMARK Flexibility Score: inf
ROOT
ATOM      1  C   UNL     1      62.188  81.381  73.703  1.00  0.00     0.010 C 
ENDROOT
BRANCH   1   2
ATOM      2  C   UNL     1      63.653  81.038  73.309  1.00  0.00     0.001 C 
BRANCH   2   3
ATOM      3  C   UNL     1      64.256  82.076  72.318  1.00  0.00     0.000 C 
BRANCH   3   4
ATOM      4  C   UNL     1      65.030  81.435  71.132  1.00  0.00    -0.000 C 
BRANCH   4   5
ATOM      5  C   UNL     1      65.139  82.383  69.904  1.00  0.00    -0.000 C 
BRANCH   5   6
ATOM      6  C   UNL     1      64.329  81.871  68.682  1.00  0.00    -0.003 C 
ATOM      7  C   UNL     1      62.811  81.793  68.958  1.00  0.00     0.004 C 
ENDBRANCH   5   6
ENDBRANCH   4   5
ENDBRANCH   3   4
ENDBRANCH   2   3
ENDBRANCH   1   2
BRANCH   1   8
ATOM      8  C   UNL     1      61.779  82.848  73.388  1.00  0.00     0.100 C 
BRANCH   8   9
ATOM      9  C   UNL     1      61.712  83.666  74.623  1.00  0.00     0.220 C 
ATOM     10  O   UNL     1      60.935  84.650  74.644  1.00  0.00    -0.275 OA
ATOM     11  N   UNL     1      62.459  83.333  75.717  1.00  0.00    -0.352 N 
ATOM     12  H   UNL     1      63.112  82.579  75.563  1.00  0.00     0.163 HD
BRANCH  11  13
ATOM     13  C   UNL     1      62.379  83.954  77.004  1.00  0.00     0.151 C 
BRANCH  13  14
ATOM     14  C   UNL     1      63.695  84.113  77.678  1.00  0.00    -0.025 A 
ATOM     15  C   UNL     1      63.756  84.365  79.070  1.00  0.00     0.056 A 
ATOM     16  C   UNL     1      64.902  84.021  76.947  1.00  0.00     0.009 A 
ATOM     17  C   UNL     1      65.001  84.501  79.727  1.00  0.00     0.160 A 
ATOM     18  C   UNL     1      66.142  84.154  77.596  1.00  0.00     0.050 A 
ATOM     19  C   UNL     1      66.197  84.402  78.981  1.00  0.00     0.157 A 
BRANCH  17  20
ATOM     20  O   UNL     1      65.058  84.787  81.068  1.00  0.00    -0.493 OA
ATOM     21  C   UNL     1      64.835  83.651  81.922  1.00  0.00     0.278 C 
ENDBRANCH  17  20
BRANCH  19  22
ATOM     22  O   UNL     1      67.398  84.556  79.593  1.00  0.00    -0.504 OA
ATOM     23  H   UNL     1      67.261  84.830  80.503  1.00  0.00     0.293 HD
ENDBRANCH  19  22
ENDBRANCH  13  14
ENDBRANCH  11  13
ENDBRANCH   8   9
ENDBRANCH   1   8
TORSDOF 11
ENDMDL
MODEL 7
REMARK VINA RESULT:    -5.022     22.094     25.681
REMARK INTER + INTRA:          -9.127
REMARK INTER:                  -8.130
REMARK INTRA:                  -0.997
REMARK UNBOUND:                -1.023
REMARK SMILES CCCCCCCCC(=O)NCc1ccc(O)c(OC)c1
REMARK SMILES IDX 7 1 6 2 5 3 4 4 3 5 2 6 1 7 8 8 9 9 10 10 11 11 12 13 13 14
REMARK SMILES IDX 21 15 14 16 18 17 15 18 16 19 19 20 20 21 17 22
REMARK H PARENT 11 12 17 23
REMARK Flexibility Score: inf
ROOT
ATOM      1  C   UNL     1      76.749  87.535  69.720  1.00  0.00     0.010 C 
ENDROOT
BRANCH   1   2
ATOM      2  C   UNL     1      75.428  87.103  70.419  1.00  0.00     0.001 C 
BRANCH   2   3
ATOM      3  C   UNL     1      74.557  88.325  70.838  1.00  0.00     0.000 C 
BRANCH   3   4
ATOM      4  C   UNL     1      73.027  88.072  70.723  1.00  0.00    -0.000 C 
BRANCH   4   5
ATOM      5  C   UNL     1      72.537  88.018  69.248  1.00  0.00    -0.000 C 
BRANCH   5   6
ATOM      6  C   UNL     1      71.684  86.755  68.950  1.00  0.00    -0.003 C 
ATOM      7  C   UNL     1      72.230  85.485  69.639  1.00  0.00     0.004 C 
ENDBRANCH   5   6
ENDBRANCH   4   5
ENDBRANCH   3   4
ENDBRANCH   2   3
ENDBRANCH   1   2
BRANCH   1   8
ATOM      8  C   UNL     1      77.826  86.416  69.665  1.00  0.00     0.100 C 
BRANCH   8   9
ATOM      9  C   UNL     1      77.894  85.798  68.319  1.00  0.00     0.220 C 
ATOM     10  O   UNL     1      77.934  86.554  67.318  1.00  0.00    -0.275 OA
ATOM     11  N   UNL     1      77.942  84.440  68.180  1.00  0.00    -0.352 N 
ATOM     12  H   UNL     1      77.817  83.928  69.041  1.00  0.00     0.163 HD
BRANCH  11  13
ATOM     13  C   UNL     1      78.149  83.732  66.954  1.00  0.00     0.151 C 
BRANCH  13  14
ATOM     14  C   UNL     1      76.947  83.002  66.471  1.00  0.00    -0.025 A 
ATOM     15  C   UNL     1      75.653  83.435  66.843  1.00  0.00     0.056 A 
ATOM     16  C   UNL     1      77.073  81.865  65.639  1.00  0.00     0.009 A 
ATOM     17  C   UNL     1      74.500  82.761  66.377  1.00  0.00     0.160 A 
ATOM     18  C   UNL     1      75.931  81.191  65.171  1.00  0.00     0.050 A 
ATOM     19  C   UNL     1      74.646  81.630  65.543  1.00  0.00     0.157 A 
BRANCH  17  20
ATOM     20  O   UNL     1      73.248  83.158  66.774  1.00  0.00    -0.493 OA
ATOM     21  C   UNL     1      72.752  84.318  66.084  1.00  0.00     0.278 C 
ENDBRANCH  17  20
BRANCH  19  22
ATOM     22  O   UNL     1      73.550  80.956  65.109  1.00  0.00    -0.504 OA
ATOM     23  H   UNL     1      72.763  81.336  65.507  1.00  0.00     0.293 HD
ENDBRANCH  19  22
ENDBRANCH  13  14
ENDBRANCH  11  13
ENDBRANCH   8   9
ENDBRANCH   1   8
TORSDOF 11
ENDMDL
MODEL 8
REMARK VINA RESULT:    -5.020     13.966     16.319
REMARK INTER + INTRA:          -9.124
REMARK INTER:                  -7.820
REMARK INTRA:                  -1.304
REMARK UNBOUND:                -1.023
REMARK SMILES CCCCCCCCC(=O)NCc1ccc(O)c(OC)c1
REMARK SMILES IDX 7 1 6 2 5 3 4 4 3 5 2 6 1 7 8 8 9 9 10 10 11 11 12 13 13 14
REMARK SMILES IDX 21 15 14 16 18 17 15 18 16 19 19 20 20 21 17 22
REMARK H PARENT 11 12 17 23
REMARK Flexibility Score: inf
ROOT
ATOM      1  C   UNL     1     100.811  80.871  84.102  1.00  0.00     0.010 C 
ENDROOT
BRANCH   1   2
ATOM      2  C   UNL     1      99.378  80.265  84.104  1.00  0.00     0.001 C 
BRANCH   2   3
ATOM      3  C   UNL     1      98.377  81.117  83.269  1.00  0.00     0.000 C 
BRANCH   3   4
ATOM      4  C   UNL     1      98.719  82.634  83.237  1.00  0.00    -0.000 C 
BRANCH   4   5
ATOM      5  C   UNL     1      97.452  83.535  83.228  1.00  0.00    -0.000 C 
BRANCH   5   6
ATOM      6  C   UNL     1      97.182  84.197  84.606  1.00  0.00    -0.003 C 
ATOM      7  C   UNL     1      96.368  83.292  85.558  1.00  0.00     0.004 C 
ENDBRANCH   5   6
ENDBRANCH   4   5
ENDBRANCH   3   4
ENDBRANCH   2   3
ENDBRANCH   1   2
BRANCH   1   8
ATOM      8  C   UNL     1     101.748  80.267  83.019  1.00  0.00     0.100 C 
BRANCH   8   9
ATOM      9  C   UNL     1     101.945  81.208  81.890  1.00  0.00     0.220 C 
ATOM     10  O   UNL     1     102.666  82.217  82.076  1.00  0.00    -0.275 OA
ATOM     11  N   UNL     1     101.376  80.961  80.674  1.00  0.00    -0.352 N 
ATOM     12  H   UNL     1     100.748  80.171  80.659  1.00  0.00     0.163 HD
BRANCH  11  13
ATOM     13  C   UNL     1     101.605  81.711  79.477  1.00  0.00     0.151 C 
BRANCH  13  14
ATOM     14  C   UNL     1     100.373  82.315  78.901  1.00  0.00    -0.025 A 
ATOM     15  C   UNL     1     100.387  82.849  77.590  1.00  0.00     0.056 A 
ATOM     16  C   UNL     1      99.174  82.370  79.648  1.00  0.00     0.009 A 
ATOM     17  C   UNL     1      99.220  83.410  77.024  1.00  0.00     0.160 A 
ATOM     18  C   UNL     1      98.009  82.926  79.090  1.00  0.00     0.050 A 
ATOM     19  C   UNL     1      98.029  83.453  77.784  1.00  0.00     0.157 A 
BRANCH  17  20
ATOM     20  O   UNL     1      99.246  83.965  75.769  1.00  0.00    -0.493 OA
ATOM     21  C   UNL     1     100.495  84.592  75.429  1.00  0.00     0.278 C 
ENDBRANCH  17  20
BRANCH  19  22
ATOM     22  O   UNL     1      96.907  84.012  77.264  1.00  0.00    -0.504 OA
ATOM     23  H   UNL     1      96.945  83.975  76.305  1.00  0.00     0.293 HD
ENDBRANCH  19  22
ENDBRANCH  13  14
ENDBRANCH  11  13
ENDBRANCH   8   9
ENDBRANCH   1   8
TORSDOF 11
ENDMDL
MODEL 9
REMARK VINA RESULT:    -5.012     35.262     38.775
REMARK INTER + INTRA:          -9.112
REMARK INTER:                  -8.510
REMARK INTRA:                  -0.601
REMARK UNBOUND:                -1.023
REMARK SMILES CCCCCCCCC(=O)NCc1ccc(O)c(OC)c1
REMARK SMILES IDX 7 1 6 2 5 3 4 4 3 5 2 6 1 7 8 8 9 9 10 10 11 11 12 13 13 14
REMARK SMILES IDX 21 15 14 16 18 17 15 18 16 19 19 20 20 21 17 22
REMARK H PARENT 11 12 17 23
REMARK Flexibility Score: inf
ROOT
ATOM      1  C   UNL     1      59.957  84.572  69.977  1.00  0.00     0.010 C 
ENDROOT
BRANCH   1   2
ATOM      2  C   UNL     1      61.429  84.368  70.439  1.00  0.00     0.001 C 
BRANCH   2   3
ATOM      3  C   UNL     1      62.288  83.641  69.363  1.00  0.00     0.000 C 
BRANCH   3   4
ATOM      4  C   UNL     1      63.166  82.491  69.933  1.00  0.00    -0.000 C 
BRANCH   4   5
ATOM      5  C   UNL     1      63.557  82.716  71.421  1.00  0.00    -0.000 C 
BRANCH   5   6
ATOM      6  C   UNL     1      64.214  81.464  72.061  1.00  0.00    -0.003 C 
ATOM      7  C   UNL     1      63.685  81.169  73.483  1.00  0.00     0.004 C 
ENDBRANCH   5   6
ENDBRANCH   4   5
ENDBRANCH   3   4
ENDBRANCH   2   3
ENDBRANCH   1   2
BRANCH   1   8
ATOM      8  C   UNL     1      58.953  84.770  71.146  1.00  0.00     0.100 C 
BRANCH   8   9
ATOM      9  C   UNL     1      58.701  86.208  71.404  1.00  0.00     0.220 C 
ATOM     10  O   UNL     1      58.788  86.626  72.584  1.00  0.00    -0.275 OA
ATOM     11  N   UNL     1      58.411  87.057  70.374  1.00  0.00    -0.352 N 
ATOM     12  H   UNL     1      58.281  86.603  69.483  1.00  0.00     0.163 HD
BRANCH  11  13
ATOM     13  C   UNL     1      58.288  88.480  70.473  1.00  0.00     0.151 C 
BRANCH  13  14
ATOM     14  C   UNL     1      57.122  89.035  69.736  1.00  0.00    -0.025 A 
ATOM     15  C   UNL     1      56.645  88.392  68.569  1.00  0.00     0.056 A 
ATOM     16  C   UNL     1      56.473  90.210  70.181  1.00  0.00     0.009 A 
ATOM     17  C   UNL     1      55.527  88.899  67.867  1.00  0.00     0.160 A 
ATOM     18  C   UNL     1      55.360  90.718  69.489  1.00  0.00     0.050 A 
ATOM     19  C   UNL     1      54.889  90.072  68.329  1.00  0.00     0.157 A 
BRANCH  17  20
ATOM     20  O   UNL     1      55.093  88.298  66.712  1.00  0.00    -0.493 OA
ATOM     21  C   UNL     1      55.946  88.522  65.576  1.00  0.00     0.278 C 
ENDBRANCH  17  20
BRANCH  19  22
ATOM     22  O   UNL     1      53.830  90.586  67.652  1.00  0.00    -0.504 OA
ATOM     23  H   UNL     1      53.677  91.489  67.937  1.00  0.00     0.293 HD
ENDBRANCH  19  22
ENDBRANCH  13  14
ENDBRANCH  11  13
ENDBRANCH   8   9
ENDBRANCH   1   8
TORSDOF 11
ENDMDL
MODEL 10
REMARK VINA RESULT:    -4.938     13.933     15.874
REMARK INTER + INTRA:          -8.992
REMARK INTER:                  -8.467
REMARK INTRA:                  -0.525
REMARK UNBOUND:                -1.023
REMARK SMILES CCCCCCCCC(=O)NCc1ccc(O)c(OC)c1
REMARK SMILES IDX 7 1 6 2 5 3 4 4 3 5 2 6 1 7 8 8 9 9 10 10 11 11 12 13 13 14
REMARK SMILES IDX 21 15 14 16 18 17 15 18 16 19 19 20 20 21 17 22
REMARK H PARENT 11 12 17 23
REMARK Flexibility Score: inf
ROOT
ATOM      1  C   UNL     1      98.611  82.795  83.499  1.00  0.00     0.010 C 
ENDROOT
BRANCH   1   2
ATOM      2  C   UNL     1      98.581  82.104  82.105  1.00  0.00     0.001 C 
BRANCH   2   3
ATOM      3  C   UNL     1      99.434  82.868  81.051  1.00  0.00     0.000 C 
BRANCH   3   4
ATOM      4  C   UNL     1      98.652  83.233  79.757  1.00  0.00    -0.000 C 
BRANCH   4   5
ATOM      5  C   UNL     1      99.375  82.758  78.465  1.00  0.00    -0.000 C 
BRANCH   5   6
ATOM      6  C   UNL     1      98.950  83.569  77.211  1.00  0.00    -0.003 C 
ATOM      7  C   UNL     1      97.511  84.122  77.314  1.00  0.00     0.004 C 
ENDBRANCH   5   6
ENDBRANCH   4   5
ENDBRANCH   3   4
ENDBRANCH   2   3
ENDBRANCH   1   2
BRANCH   1   8
ATOM      8  C   UNL     1      97.303  83.556  83.853  1.00  0.00     0.100 C 
BRANCH   8   9
ATOM      9  C   UNL     1      96.779  83.143  85.177  1.00  0.00     0.220 C 
ATOM     10  O   UNL     1      97.262  82.118  85.715  1.00  0.00    -0.275 OA
ATOM     11  N   UNL     1      95.815  83.881  85.803  1.00  0.00    -0.352 N 
ATOM     12  H   UNL     1      95.437  84.633  85.245  1.00  0.00     0.163 HD
BRANCH  11  13
ATOM     13  C   UNL     1      95.332  83.669  87.133  1.00  0.00     0.151 C 
BRANCH  13  14
ATOM     14  C   UNL     1      93.921  83.203  87.193  1.00  0.00    -0.025 A 
ATOM     15  C   UNL     1      92.959  83.939  87.926  1.00  0.00     0.056 A 
ATOM     16  C   UNL     1      93.516  82.023  86.528  1.00  0.00     0.009 A 
ATOM     17  C   UNL     1      91.610  83.518  87.978  1.00  0.00     0.160 A 
ATOM     18  C   UNL     1      92.176  81.599  86.575  1.00  0.00     0.050 A 
ATOM     19  C   UNL     1      91.224  82.338  87.303  1.00  0.00     0.157 A 
BRANCH  17  20
ATOM     20  O   UNL     1      90.688  84.209  88.723  1.00  0.00    -0.493 OA
ATOM     21  C   UNL     1      90.747  83.935  90.134  1.00  0.00     0.278 C 
ENDBRANCH  17  20
BRANCH  19  22
ATOM     22  O   UNL     1      89.938  81.906  87.366  1.00  0.00    -0.504 OA
ATOM     23  H   UNL     1      89.407  82.548  87.842  1.00  0.00     0.293 HD
ENDBRANCH  19  22
ENDBRANCH  13  14
ENDBRANCH  11  13
ENDBRANCH   8   9
ENDBRANCH   1   8
TORSDOF 11
ENDMDL
