MODEL 1
REMARK VINA RESULT:    -6.638      0.000      0.000
REMARK INTER + INTRA:         -11.011
REMARK INTER:                 -10.324
REMARK INTRA:                  -0.686
REMARK UNBOUND:                -0.686
REMARK SMILES COc1cc(CNC(=O)CCCC/C=C/C(C)C)ccc1O
REMARK SMILES IDX 10 1 8 2 7 3 9 5 6 6 5 7 3 8 21 9 4 10 20 11 19 12 2 13 1 14
REMARK SMILES IDX 22 15 11 17 12 18 13 19 14 20 15 21 16 22 17 23 18 24
REMARK H PARENT 7 4 22 16
REMARK Flexibility Score: inf
ROOT
ATOM      1  C   UNL     1      93.064  99.367  75.081  1.00  0.00     0.100 C 
ENDROOT
BRANCH   1   2
ATOM      2  C   UNL     1      93.009  99.882  73.699  1.00  0.00     0.220 C 
ATOM      3  N   UNL     1      91.817  99.984  73.047  1.00  0.00    -0.352 N 
ATOM      4  H   UNL     1      91.015  99.662  73.570  1.00  0.00     0.163 HD
ATOM      5  O   UNL     1      94.082 100.243  73.159  1.00  0.00    -0.275 OA
BRANCH   3   6
ATOM      6  C   UNL     1      91.653 100.498  71.725  1.00  0.00     0.151 C 
BRANCH   6   7
ATOM      7  C   UNL     1      90.664  99.703  70.948  1.00  0.00    -0.025 A 
ATOM      8  C   UNL     1      89.082  99.522  69.070  1.00  0.00     0.160 A 
ATOM      9  C   UNL     1      88.789  98.194  69.443  1.00  0.00     0.157 A 
ATOM     10  C   UNL     1      90.013 100.264  69.825  1.00  0.00     0.056 A 
ATOM     11  C   UNL     1      89.414  97.628  70.572  1.00  0.00     0.050 A 
ATOM     12  C   UNL     1      90.352  98.373  71.313  1.00  0.00     0.009 A 
BRANCH   8  13
ATOM     13  O   UNL     1      88.426 100.099  68.012  1.00  0.00    -0.493 OA
ATOM     14  C   UNL     1      88.791 101.471  67.773  1.00  0.00     0.278 C 
ENDBRANCH   8  13
BRANCH   9  15
ATOM     15  O   UNL     1      87.906  97.448  68.730  1.00  0.00    -0.504 OA
ATOM     16  H   UNL     1      88.251  97.303  67.845  1.00  0.00     0.293 HD
ENDBRANCH   9  15
ENDBRANCH   6   7
ENDBRANCH   3   6
ENDBRANCH   1   2
BRANCH   1  17
ATOM     17  C   UNL     1      93.041  97.815  75.114  1.00  0.00     0.010 C 
BRANCH  17  18
ATOM     18  C   UNL     1      94.169  97.212  75.998  1.00  0.00     0.005 C 
BRANCH  18  19
ATOM     19  C   UNL     1      93.616  96.540  77.284  1.00  0.00     0.027 C 
BRANCH  19  20
ATOM     20  C   UNL     1      92.514  95.634  76.998  1.00  0.00    -0.031 C 
ATOM     21  C   UNL     1      91.596  95.250  77.904  1.00  0.00    -0.028 C 
BRANCH  21  22
ATOM     22  C   UNL     1      90.485  94.353  77.589  1.00  0.00     0.005 C 
ATOM     23  C   UNL     1      90.248  93.295  78.703  1.00  0.00     0.012 C 
ATOM     24  C   UNL     1      89.195  95.171  77.319  1.00  0.00     0.012 C 
ENDBRANCH  21  22
ENDBRANCH  19  20
ENDBRANCH  18  19
ENDBRANCH  17  18
ENDBRANCH   1  17
TORSDOF 10
ENDMDL
MODEL 2
REMARK VINA RESULT:    -6.107     20.421     23.295
REMARK INTER + INTRA:         -10.186
REMARK INTER:                  -9.253
REMARK INTRA:                  -0.933
REMARK UNBOUND:                -0.686
REMARK SMILES COc1cc(CNC(=O)CCCC/C=C/C(C)C)ccc1O
REMARK SMILES IDX 10 1 8 2 7 3 9 5 6 6 5 7 3 8 21 9 4 10 20 11 19 12 2 13 1 14
REMARK SMILES IDX 22 15 11 17 12 18 13 19 14 20 15 21 16 22 17 23 18 24
REMARK H PARENT 7 4 22 16
REMARK Flexibility Score: inf
ROOT
ATOM      1  C   UNL     1      76.085  82.254  64.102  1.00  0.00     0.100 C 
ENDROOT
BRANCH   1   2
ATOM      2  C   UNL     1      77.030  82.440  65.220  1.00  0.00     0.220 C 
ATOM      3  N   UNL     1      77.449  83.687  65.572  1.00  0.00    -0.352 N 
ATOM      4  H   UNL     1      77.083  84.437  65.001  1.00  0.00     0.163 HD
ATOM      5  O   UNL     1      77.414  81.422  65.845  1.00  0.00    -0.275 OA
BRANCH   3   6
ATOM      6  C   UNL     1      78.334  83.975  66.655  1.00  0.00     0.151 C 
BRANCH   6   7
ATOM      7  C   UNL     1      77.729  84.941  67.613  1.00  0.00    -0.025 A 
ATOM      8  C   UNL     1      76.258  85.395  69.534  1.00  0.00     0.160 A 
ATOM      9  C   UNL     1      76.583  86.766  69.460  1.00  0.00     0.157 A 
ATOM     10  C   UNL     1      76.831  84.497  68.609  1.00  0.00     0.056 A 
ATOM     11  C   UNL     1      77.461  87.226  68.459  1.00  0.00     0.050 A 
ATOM     12  C   UNL     1      78.038  86.320  67.548  1.00  0.00     0.009 A 
BRANCH   8  13
ATOM     13  O   UNL     1      75.352  84.953  70.464  1.00  0.00    -0.493 OA
ATOM     14  C   UNL     1      75.926  84.126  71.494  1.00  0.00     0.278 C 
ENDBRANCH   8  13
BRANCH   9  15
ATOM     15  O   UNL     1      76.058  87.654  70.342  1.00  0.00    -0.504 OA
ATOM     16  H   UNL     1      75.253  88.031  69.979  1.00  0.00     0.293 HD
ENDBRANCH   9  15
ENDBRANCH   6   7
ENDBRANCH   3   6
ENDBRANCH   1   2
BRANCH   1  17
ATOM     17  C   UNL     1      75.237  80.966  64.276  1.00  0.00     0.010 C 
BRANCH  17  18
ATOM     18  C   UNL     1      74.360  80.646  63.033  1.00  0.00     0.005 C 
BRANCH  18  19
ATOM     19  C   UNL     1      72.864  80.450  63.400  1.00  0.00     0.027 C 
BRANCH  19  20
ATOM     20  C   UNL     1      72.389  81.470  64.323  1.00  0.00    -0.031 C 
ATOM     21  C   UNL     1      71.972  81.220  65.577  1.00  0.00    -0.028 C 
BRANCH  21  22
ATOM     22  C   UNL     1      71.516  82.264  66.494  1.00  0.00     0.005 C 
ATOM     23  C   UNL     1      72.587  83.371  66.706  1.00  0.00     0.012 C 
ATOM     24  C   UNL     1      70.182  82.875  65.992  1.00  0.00     0.012 C 
ENDBRANCH  21  22
ENDBRANCH  19  20
ENDBRANCH  18  19
ENDBRANCH  17  18
ENDBRANCH   1  17
TORSDOF 10
ENDMDL
MODEL 3
REMARK VINA RESULT:    -5.940     17.451     19.983
REMARK INTER + INTRA:          -9.925
REMARK INTER:                  -9.145
REMARK INTRA:                  -0.780
REMARK UNBOUND:                -0.686
REMARK SMILES COc1cc(CNC(=O)CCCC/C=C/C(C)C)ccc1O
REMARK SMILES IDX 10 1 8 2 7 3 9 5 6 6 5 7 3 8 21 9 4 10 20 11 19 12 2 13 1 14
REMARK SMILES IDX 22 15 11 17 12 18 13 19 14 20 15 21 16 22 17 23 18 24
REMARK H PARENT 7 4 22 16
REMARK Flexibility Score: inf
ROOT
ATOM      1  C   UNL     1      76.026  88.311  69.876  1.00  0.00     0.100 C 
ENDROOT
BRANCH   1   2
ATOM      2  C   UNL     1      76.728  87.018  69.763  1.00  0.00     0.220 C 
ATOM      3  N   UNL     1      76.050  85.846  69.920  1.00  0.00    -0.352 N 
ATOM      4  H   UNL     1      75.068  85.948  70.137  1.00  0.00     0.163 HD
ATOM      5  O   UNL     1      77.954  87.031  69.496  1.00  0.00    -0.275 OA
BRANCH   3   6
ATOM      6  C   UNL     1      76.628  84.546  69.799  1.00  0.00     0.151 C 
BRANCH   6   7
ATOM      7  C   UNL     1      76.737  84.128  68.375  1.00  0.00    -0.025 A 
ATOM      8  C   UNL     1      75.661  83.425  66.274  1.00  0.00     0.160 A 
ATOM      9  C   UNL     1      76.925  83.346  65.653  1.00  0.00     0.157 A 
ATOM     10  C   UNL     1      75.579  83.812  67.628  1.00  0.00     0.056 A 
ATOM     11  C   UNL     1      78.089  83.638  66.390  1.00  0.00     0.050 A 
ATOM     12  C   UNL     1      77.996  84.036  67.738  1.00  0.00     0.009 A 
BRANCH   8  13
ATOM     13  O   UNL     1      74.530  83.077  65.580  1.00  0.00    -0.493 OA
ATOM     14  C   UNL     1      74.120  81.711  65.772  1.00  0.00     0.278 C 
ENDBRANCH   8  13
BRANCH   9  15
ATOM     15  O   UNL     1      77.037  82.989  64.347  1.00  0.00    -0.504 OA
ATOM     16  H   UNL     1      76.181  82.709  64.016  1.00  0.00     0.293 HD
ENDBRANCH   9  15
ENDBRANCH   6   7
ENDBRANCH   3   6
ENDBRANCH   1   2
BRANCH   1  17
ATOM     17  C   UNL     1      74.925  88.270  70.970  1.00  0.00     0.010 C 
BRANCH  17  18
ATOM     18  C   UNL     1      74.252  89.652  71.202  1.00  0.00     0.005 C 
BRANCH  18  19
ATOM     19  C   UNL     1      74.608  90.677  70.091  1.00  0.00     0.027 C 
BRANCH  19  20
ATOM     20  C   UNL     1      75.420  91.773  70.597  1.00  0.00    -0.031 C 
ATOM     21  C   UNL     1      75.888  91.848  71.856  1.00  0.00    -0.028 C 
BRANCH  21  22
ATOM     22  C   UNL     1      76.720  92.951  72.338  1.00  0.00     0.005 C 
ATOM     23  C   UNL     1      78.213  92.543  72.482  1.00  0.00     0.012 C 
ATOM     24  C   UNL     1      76.570  94.182  71.408  1.00  0.00     0.012 C 
ENDBRANCH  21  22
ENDBRANCH  19  20
ENDBRANCH  18  19
ENDBRANCH  17  18
ENDBRANCH   1  17
TORSDOF 10
ENDMDL
MODEL 4
REMARK VINA RESULT:    -5.870     17.225     19.700
REMARK INTER + INTRA:          -9.817
REMARK INTER:                  -9.180
REMARK INTRA:                  -0.637
REMARK UNBOUND:                -0.686
REMARK SMILES COc1cc(CNC(=O)CCCC/C=C/C(C)C)ccc1O
REMARK SMILES IDX 10 1 8 2 7 3 9 5 6 6 5 7 3 8 21 9 4 10 20 11 19 12 2 13 1 14
REMARK SMILES IDX 22 15 11 17 12 18 13 19 14 20 15 21 16 22 17 23 18 24
REMARK H PARENT 7 4 22 16
REMARK Flexibility Score: inf
ROOT
ATOM      1  C   UNL     1      98.226  80.316  84.259  1.00  0.00     0.100 C 
ENDROOT
BRANCH   1   2
ATOM      2  C   UNL     1      99.147  81.218  83.542  1.00  0.00     0.220 C 
ATOM      3  N   UNL     1      98.926  81.537  82.235  1.00  0.00    -0.352 N 
ATOM      4  H   UNL     1      98.119  81.093  81.819  1.00  0.00     0.163 HD
ATOM      5  O   UNL     1     100.119  81.698  84.175  1.00  0.00    -0.275 OA
BRANCH   3   6
ATOM      6  C   UNL     1      99.737  82.423  81.464  1.00  0.00     0.151 C 
BRANCH   6   7
ATOM      7  C   UNL     1      99.051  82.840  80.210  1.00  0.00    -0.025 A 
ATOM      8  C   UNL     1      99.065  83.105  77.762  1.00  0.00     0.160 A 
ATOM      9  C   UNL     1      97.750  83.613  77.809  1.00  0.00     0.157 A 
ATOM     10  C   UNL     1      99.703  82.726  78.962  1.00  0.00     0.056 A 
ATOM     11  C   UNL     1      97.094  83.751  79.048  1.00  0.00     0.050 A 
ATOM     12  C   UNL     1      97.735  83.359  80.240  1.00  0.00     0.009 A 
BRANCH   8  13
ATOM     13  O   UNL     1      99.731  83.030  76.566  1.00  0.00    -0.493 OA
ATOM     14  C   UNL     1     100.851  83.929  76.460  1.00  0.00     0.278 C 
ENDBRANCH   8  13
BRANCH   9  15
ATOM     15  O   UNL     1      97.103  83.974  76.671  1.00  0.00    -0.504 OA
ATOM     16  H   UNL     1      97.504  84.769  76.312  1.00  0.00     0.293 HD
ENDBRANCH   9  15
ENDBRANCH   6   7
ENDBRANCH   3   6
ENDBRANCH   1   2
BRANCH   1  17
ATOM     17  C   UNL     1      97.437  81.065  85.366  1.00  0.00     0.010 C 
BRANCH  17  18
ATOM     18  C   UNL     1      97.073  82.523  84.968  1.00  0.00     0.005 C 
BRANCH  18  19
ATOM     19  C   UNL     1      95.959  83.121  85.870  1.00  0.00     0.027 C 
BRANCH  19  20
ATOM     20  C   UNL     1      95.150  82.087  86.498  1.00  0.00    -0.031 C 
ATOM     21  C   UNL     1      93.805  82.058  86.469  1.00  0.00    -0.028 C 
BRANCH  21  22
ATOM     22  C   UNL     1      93.012  80.997  87.091  1.00  0.00     0.005 C 
ATOM     23  C   UNL     1      91.623  80.828  86.417  1.00  0.00     0.012 C 
ATOM     24  C   UNL     1      93.800  79.661  87.078  1.00  0.00     0.012 C 
ENDBRANCH  21  22
ENDBRANCH  19  20
ENDBRANCH  18  19
ENDBRANCH  17  18
ENDBRANCH   1  17
TORSDOF 10
ENDMDL
MODEL 5
REMARK VINA RESULT:    -5.825     22.134     24.634
REMARK INTER + INTRA:          -9.747
REMARK INTER:                  -8.961
REMARK INTRA:                  -0.786
REMARK UNBOUND:                -0.686
REMARK SMILES COc1cc(CNC(=O)CCCC/C=C/C(C)C)ccc1O
REMARK SMILES IDX 10 1 8 2 7 3 9 5 6 6 5 7 3 8 21 9 4 10 20 11 19 12 2 13 1 14
REMARK SMILES IDX 22 15 11 17 12 18 13 19 14 20 15 21 16 22 17 23 18 24
REMARK H PARENT 7 4 22 16
REMARK Flexibility Score: inf
ROOT
ATOM      1  C   UNL     1      74.970  81.594  66.233  1.00  0.00     0.100 C 
ENDROOT
BRANCH   1   2
ATOM      2  C   UNL     1      73.667  81.514  65.546  1.00  0.00     0.220 C 
ATOM      3  N   UNL     1      72.707  82.454  65.773  1.00  0.00    -0.352 N 
ATOM      4  H   UNL     1      72.956  83.164  66.448  1.00  0.00     0.163 HD
ATOM      5  O   UNL     1      73.482  80.575  64.734  1.00  0.00    -0.275 OA
BRANCH   3   6
ATOM      6  C   UNL     1      71.429  82.484  65.137  1.00  0.00     0.151 C 
BRANCH   6   7
ATOM      7  C   UNL     1      70.349  82.840  66.097  1.00  0.00    -0.025 A 
ATOM      8  C   UNL     1      69.543  83.047  68.415  1.00  0.00     0.160 A 
ATOM      9  C   UNL     1      68.306  83.532  67.942  1.00  0.00     0.157 A 
ATOM     10  C   UNL     1      70.551  82.703  67.489  1.00  0.00     0.056 A 
ATOM     11  C   UNL     1      68.083  83.655  66.557  1.00  0.00     0.050 A 
ATOM     12  C   UNL     1      69.099  83.321  65.640  1.00  0.00     0.009 A 
BRANCH   8  13
ATOM     13  O   UNL     1      69.742  82.863  69.759  1.00  0.00    -0.493 OA
ATOM     14  C   UNL     1      70.456  83.937  70.399  1.00  0.00     0.278 C 
ENDBRANCH   8  13
BRANCH   9  15
ATOM     15  O   UNL     1      67.320  83.883  68.808  1.00  0.00    -0.504 OA
ATOM     16  H   UNL     1      66.564  84.211  68.316  1.00  0.00     0.293 HD
ENDBRANCH   9  15
ENDBRANCH   6   7
ENDBRANCH   3   6
ENDBRANCH   1   2
BRANCH   1  17
ATOM     17  C   UNL     1      75.937  82.575  65.516  1.00  0.00     0.010 C 
BRANCH  17  18
ATOM     18  C   UNL     1      77.308  82.709  66.237  1.00  0.00     0.005 C 
BRANCH  18  19
ATOM     19  C   UNL     1      77.904  84.137  66.112  1.00  0.00     0.027 C 
BRANCH  19  20
ATOM     20  C   UNL     1      77.965  84.818  67.397  1.00  0.00    -0.031 C 
ATOM     21  C   UNL     1      77.535  84.287  68.556  1.00  0.00    -0.028 C 
BRANCH  21  22
ATOM     22  C   UNL     1      77.624  84.983  69.839  1.00  0.00     0.005 C 
ATOM     23  C   UNL     1      77.526  86.525  69.681  1.00  0.00     0.012 C 
ATOM     24  C   UNL     1      76.536  84.456  70.811  1.00  0.00     0.012 C 
ENDBRANCH  21  22
ENDBRANCH  19  20
ENDBRANCH  18  19
ENDBRANCH  17  18
ENDBRANCH   1  17
TORSDOF 10
ENDMDL
MODEL 6
REMARK VINA RESULT:    -5.825     30.770     32.588
REMARK INTER + INTRA:          -9.746
REMARK INTER:                  -8.402
REMARK INTRA:                  -1.344
REMARK UNBOUND:                -0.686
REMARK SMILES COc1cc(CNC(=O)CCCC/C=C/C(C)C)ccc1O
REMARK SMILES IDX 10 1 8 2 7 3 9 5 6 6 5 7 3 8 21 9 4 10 20 11 19 12 2 13 1 14
REMARK SMILES IDX 22 15 11 17 12 18 13 19 14 20 15 21 16 22 17 23 18 24
REMARK H PARENT 7 4 22 16
REMARK Flexibility Score: inf
ROOT
ATOM      1  C   UNL     1      64.489  81.454  71.522  1.00  0.00     0.100 C 
ENDROOT
BRANCH   1   2
ATOM      2  C   UNL     1      63.630  82.248  70.624  1.00  0.00     0.220 C 
ATOM      3  N   UNL     1      63.292  83.529  70.944  1.00  0.00    -0.352 N 
ATOM      4  H   UNL     1      63.653  83.856  71.830  1.00  0.00     0.163 HD
ATOM      5  O   UNL     1      63.242  81.720  69.553  1.00  0.00    -0.275 OA
BRANCH   3   6
ATOM      6  C   UNL     1      62.495  84.390  70.130  1.00  0.00     0.151 C 
BRANCH   6   7
ATOM      7  C   UNL     1      61.399  85.022  70.914  1.00  0.00    -0.025 A 
ATOM      8  C   UNL     1      59.220  86.167  70.987  1.00  0.00     0.160 A 
ATOM      9  C   UNL     1      59.290  86.213  72.395  1.00  0.00     0.157 A 
ATOM     10  C   UNL     1      60.274  85.574  70.261  1.00  0.00     0.056 A 
ATOM     11  C   UNL     1      60.414  85.684  73.059  1.00  0.00     0.050 A 
ATOM     12  C   UNL     1      61.457  85.084  72.326  1.00  0.00     0.009 A 
BRANCH   8  13
ATOM     13  O   UNL     1      58.159  86.739  70.332  1.00  0.00    -0.493 OA
ATOM     14  C   UNL     1      58.369  88.115  69.965  1.00  0.00     0.278 C 
ENDBRANCH   8  13
BRANCH   9  15
ATOM     15  O   UNL     1      58.286  86.765  73.124  1.00  0.00    -0.504 OA
ATOM     16  H   UNL     1      58.488  86.684  74.059  1.00  0.00     0.293 HD
ENDBRANCH   9  15
ENDBRANCH   6   7
ENDBRANCH   3   6
ENDBRANCH   1   2
BRANCH   1  17
ATOM     17  C   UNL     1      64.065  81.610  73.007  1.00  0.00     0.010 C 
BRANCH  17  18
ATOM     18  C   UNL     1      62.584  81.209  73.258  1.00  0.00     0.005 C 
BRANCH  18  19
ATOM     19  C   UNL     1      61.861  82.191  74.220  1.00  0.00     0.027 C 
BRANCH  19  20
ATOM     20  C   UNL     1      62.774  82.779  75.189  1.00  0.00    -0.031 C 
ATOM     21  C   UNL     1      62.431  83.744  76.061  1.00  0.00    -0.028 C 
BRANCH  21  22
ATOM     22  C   UNL     1      63.360  84.308  77.040  1.00  0.00     0.005 C 
ATOM     23  C   UNL     1      62.857  84.130  78.499  1.00  0.00     0.012 C 
ATOM     24  C   UNL     1      64.769  83.686  76.861  1.00  0.00     0.012 C 
ENDBRANCH  21  22
ENDBRANCH  19  20
ENDBRANCH  18  19
ENDBRANCH  17  18
ENDBRANCH   1  17
TORSDOF 10
ENDMDL
MODEL 7
REMARK VINA RESULT:    -5.800     20.642     23.054
REMARK INTER + INTRA:          -9.708
REMARK INTER:                  -8.880
REMARK INTRA:                  -0.828
REMARK UNBOUND:                -0.686
REMARK SMILES COc1cc(CNC(=O)CCCC/C=C/C(C)C)ccc1O
REMARK SMILES IDX 10 1 8 2 7 3 9 5 6 6 5 7 3 8 21 9 4 10 20 11 19 12 2 13 1 14
REMARK SMILES IDX 22 15 11 17 12 18 13 19 14 20 15 21 16 22 17 23 18 24
REMARK H PARENT 7 4 22 16
REMARK Flexibility Score: inf
ROOT
ATOM      1  C   UNL     1      76.640  85.082  70.398  1.00  0.00     0.100 C 
ENDROOT
BRANCH   1   2
ATOM      2  C   UNL     1      75.624  86.099  70.069  1.00  0.00     0.220 C 
ATOM      3  N   UNL     1      74.467  85.744  69.442  1.00  0.00    -0.352 N 
ATOM      4  H   UNL     1      74.390  84.762  69.214  1.00  0.00     0.163 HD
ATOM      5  O   UNL     1      75.846  87.288  70.402  1.00  0.00    -0.275 OA
BRANCH   3   6
ATOM      6  C   UNL     1      73.410  86.645  69.109  1.00  0.00     0.151 C 
BRANCH   6   7
ATOM      7  C   UNL     1      72.141  86.274  69.791  1.00  0.00    -0.025 A 
ATOM      8  C   UNL     1      70.539  84.550  70.517  1.00  0.00     0.160 A 
ATOM      9  C   UNL     1      69.733  85.547  71.107  1.00  0.00     0.157 A 
ATOM     10  C   UNL     1      71.732  84.923  69.864  1.00  0.00     0.056 A 
ATOM     11  C   UNL     1      70.117  86.900  71.025  1.00  0.00     0.050 A 
ATOM     12  C   UNL     1      71.317  87.261  70.381  1.00  0.00     0.009 A 
BRANCH   8  13
ATOM     13  O   UNL     1      70.135  83.239  70.536  1.00  0.00    -0.493 OA
ATOM     14  C   UNL     1      69.382  82.840  69.376  1.00  0.00     0.278 C 
ENDBRANCH   8  13
BRANCH   9  15
ATOM     15  O   UNL     1      68.585  85.220  71.754  1.00  0.00    -0.504 OA
ATOM     16  H   UNL     1      67.978  85.964  71.726  1.00  0.00     0.293 HD
ENDBRANCH   9  15
ENDBRANCH   6   7
ENDBRANCH   3   6
ENDBRANCH   1   2
BRANCH   1  17
ATOM     17  C   UNL     1      76.977  84.191  69.172  1.00  0.00     0.010 C 
BRANCH  17  18
ATOM     18  C   UNL     1      78.029  84.835  68.227  1.00  0.00     0.005 C 
BRANCH  18  19
ATOM     19  C   UNL     1      78.353  83.936  67.003  1.00  0.00     0.027 C 
BRANCH  19  20
ATOM     20  C   UNL     1      77.259  83.031  66.685  1.00  0.00    -0.031 C 
ATOM     21  C   UNL     1      77.217  82.251  65.589  1.00  0.00    -0.028 C 
BRANCH  21  22
ATOM     22  C   UNL     1      76.116  81.333  65.299  1.00  0.00     0.005 C 
ATOM     23  C   UNL     1      74.852  81.643  66.147  1.00  0.00     0.012 C 
ATOM     24  C   UNL     1      75.785  81.354  63.784  1.00  0.00     0.012 C 
ENDBRANCH  21  22
ENDBRANCH  19  20
ENDBRANCH  18  19
ENDBRANCH  17  18
ENDBRANCH   1  17
TORSDOF 10
ENDMDL
MODEL 8
REMARK VINA RESULT:    -5.663      2.506      4.314
REMARK INTER + INTRA:          -9.494
REMARK INTER:                  -8.477
REMARK INTRA:                  -1.017
REMARK UNBOUND:                -0.686
REMARK SMILES COc1cc(CNC(=O)CCCC/C=C/C(C)C)ccc1O
REMARK SMILES IDX 10 1 8 2 7 3 9 5 6 6 5 7 3 8 21 9 4 10 20 11 19 12 2 13 1 14
REMARK SMILES IDX 22 15 11 17 12 18 13 19 14 20 15 21 16 22 17 23 18 24
REMARK H PARENT 7 4 22 16
REMARK Flexibility Score: inf
ROOT
ATOM      1  C   UNL     1      93.191  99.922  75.070  1.00  0.00     0.100 C 
ENDROOT
BRANCH   1   2
ATOM      2  C   UNL     1      92.926 100.570  73.771  1.00  0.00     0.220 C 
ATOM      3  N   UNL     1      91.892 100.152  72.988  1.00  0.00    -0.352 N 
ATOM      4  H   UNL     1      91.365  99.373  73.358  1.00  0.00     0.163 HD
ATOM      5  O   UNL     1      93.662 101.525  73.425  1.00  0.00    -0.275 OA
BRANCH   3   6
ATOM      6  C   UNL     1      91.534 100.732  71.734  1.00  0.00     0.151 C 
BRANCH   6   7
ATOM      7  C   UNL     1      90.594  99.859  70.977  1.00  0.00    -0.025 A 
ATOM      8  C   UNL     1      88.999  99.548  69.127  1.00  0.00     0.160 A 
ATOM      9  C   UNL     1      88.814  98.204  69.512  1.00  0.00     0.157 A 
ATOM     10  C   UNL     1      89.885 100.363  69.864  1.00  0.00     0.056 A 
ATOM     11  C   UNL     1      89.499  97.694  70.632  1.00  0.00     0.050 A 
ATOM     12  C   UNL     1      90.390  98.511  71.354  1.00  0.00     0.009 A 
BRANCH   8  13
ATOM     13  O   UNL     1      88.285 100.068  68.078  1.00  0.00    -0.493 OA
ATOM     14  C   UNL     1      88.579 101.448  67.794  1.00  0.00     0.278 C 
ENDBRANCH   8  13
BRANCH   9  15
ATOM     15  O   UNL     1      87.978  97.390  68.817  1.00  0.00    -0.504 OA
ATOM     16  H   UNL     1      88.422  97.075  68.026  1.00  0.00     0.293 HD
ENDBRANCH   9  15
ENDBRANCH   6   7
ENDBRANCH   3   6
ENDBRANCH   1   2
BRANCH   1  17
ATOM     17  C   UNL     1      93.237  98.376  74.940  1.00  0.00     0.010 C 
BRANCH  17  18
ATOM     18  C   UNL     1      94.279  97.720  75.889  1.00  0.00     0.005 C 
BRANCH  18  19
ATOM     19  C   UNL     1      95.455  97.067  75.114  1.00  0.00     0.027 C 
BRANCH  19  20
ATOM     20  C   UNL     1      95.758  97.776  73.880  1.00  0.00    -0.031 C 
ATOM     21  C   UNL     1      96.121  97.175  72.732  1.00  0.00    -0.028 C 
BRANCH  21  22
ATOM     22  C   UNL     1      96.402  97.908  71.497  1.00  0.00     0.005 C 
ATOM     23  C   UNL     1      95.521  99.180  71.354  1.00  0.00     0.012 C 
ATOM     24  C   UNL     1      97.909  98.266  71.417  1.00  0.00     0.012 C 
ENDBRANCH  21  22
ENDBRANCH  19  20
ENDBRANCH  18  19
ENDBRANCH  17  18
ENDBRANCH   1  17
TORSDOF 10
ENDMDL
MODEL 9
REMARK VINA RESULT:    -5.634      7.672     10.987
REMARK INTER + INTRA:          -9.449
REMARK INTER:                  -8.530
REMARK INTRA:                  -0.919
REMARK UNBOUND:                -0.686
REMARK SMILES COc1cc(CNC(=O)CCCC/C=C/C(C)C)ccc1O
REMARK SMILES IDX 10 1 8 2 7 3 9 5 6 6 5 7 3 8 21 9 4 10 20 11 19 12 2 13 1 14
REMARK SMILES IDX 22 15 11 17 12 18 13 19 14 20 15 21 16 22 17 23 18 24
REMARK H PARENT 7 4 22 16
REMARK Flexibility Score: inf
ROOT
ATOM      1  C   UNL     1      93.640  94.429  78.153  1.00  0.00     0.100 C 
ENDROOT
BRANCH   1   2
ATOM      2  C   UNL     1      94.656  94.369  79.221  1.00  0.00     0.220 C 
ATOM      3  N   UNL     1      94.313  94.620  80.516  1.00  0.00    -0.352 N 
ATOM      4  H   UNL     1      93.343  94.865  80.661  1.00  0.00     0.163 HD
ATOM      5  O   UNL     1      95.830  94.058  78.906  1.00  0.00    -0.275 OA
BRANCH   3   6
ATOM      6  C   UNL     1      95.212  94.557  81.624  1.00  0.00     0.151 C 
BRANCH   6   7
ATOM      7  C   UNL     1      95.734  95.904  81.982  1.00  0.00    -0.025 A 
ATOM      8  C   UNL     1      97.633  97.448  82.251  1.00  0.00     0.160 A 
ATOM      9  C   UNL     1      96.746  98.473  82.641  1.00  0.00     0.157 A 
ATOM     10  C   UNL     1      97.120  96.175  81.928  1.00  0.00     0.056 A 
ATOM     11  C   UNL     1      95.363  98.212  82.718  1.00  0.00     0.050 A 
ATOM     12  C   UNL     1      94.859  96.941  82.382  1.00  0.00     0.009 A 
BRANCH   8  13
ATOM     13  O   UNL     1      98.986  97.678  82.238  1.00  0.00    -0.493 OA
ATOM     14  C   UNL     1      99.532  97.886  80.922  1.00  0.00     0.278 C 
ENDBRANCH   8  13
BRANCH   9  15
ATOM     15  O   UNL     1      97.206  99.713  82.946  1.00  0.00    -0.504 OA
ATOM     16  H   UNL     1      96.489 100.348  82.875  1.00  0.00     0.293 HD
ENDBRANCH   9  15
ENDBRANCH   6   7
ENDBRANCH   3   6
ENDBRANCH   1   2
BRANCH   1  17
ATOM     17  C   UNL     1      92.327  95.092  78.648  1.00  0.00     0.010 C 
BRANCH  17  18
ATOM     18  C   UNL     1      91.122  94.109  78.667  1.00  0.00     0.005 C 
BRANCH  18  19
ATOM     19  C   UNL     1      90.111  94.391  77.524  1.00  0.00     0.027 C 
BRANCH  19  20
ATOM     20  C   UNL     1      90.095  93.327  76.531  1.00  0.00    -0.031 C 
ATOM     21  C   UNL     1      91.200  92.794  75.977  1.00  0.00    -0.028 C 
BRANCH  21  22
ATOM     22  C   UNL     1      91.161  91.711  74.995  1.00  0.00     0.005 C 
ATOM     23  C   UNL     1      91.268  90.310  75.658  1.00  0.00     0.012 C 
ATOM     24  C   UNL     1      89.879  91.817  74.129  1.00  0.00     0.012 C 
ENDBRANCH  21  22
ENDBRANCH  19  20
ENDBRANCH  18  19
ENDBRANCH  17  18
ENDBRANCH   1  17
TORSDOF 10
ENDMDL
MODEL 10
REMARK VINA RESULT:    -5.586     22.289     24.747
REMARK INTER + INTRA:          -9.375
REMARK INTER:                  -8.262
REMARK INTRA:                  -1.113
REMARK UNBOUND:                -0.686
REMARK SMILES COc1cc(CNC(=O)CCCC/C=C/C(C)C)ccc1O
REMARK SMILES IDX 10 1 8 2 7 3 9 5 6 6 5 7 3 8 21 9 4 10 20 11 19 12 2 13 1 14
REMARK SMILES IDX 22 15 11 17 12 18 13 19 14 20 15 21 16 22 17 23 18 24
REMARK H PARENT 7 4 22 16
REMARK Flexibility Score: inf
ROOT
ATOM      1  C   UNL     1      76.183  81.436  64.149  1.00  0.00     0.100 C 
ENDROOT
BRANCH   1   2
ATOM      2  C   UNL     1      74.772  81.488  63.720  1.00  0.00     0.220 C 
ATOM      3  N   UNL     1      73.874  80.576  64.185  1.00  0.00    -0.352 N 
ATOM      4  H   UNL     1      74.258  79.877  64.806  1.00  0.00     0.163 HD
ATOM      5  O   UNL     1      74.425  82.407  62.938  1.00  0.00    -0.275 OA
BRANCH   3   6
ATOM      6  C   UNL     1      72.484  80.560  63.857  1.00  0.00     0.151 C 
BRANCH   6   7
ATOM      7  C   UNL     1      71.727  81.578  64.636  1.00  0.00    -0.025 A 
ATOM      8  C   UNL     1      70.052  83.381  64.720  1.00  0.00     0.160 A 
ATOM      9  C   UNL     1      70.260  83.510  66.109  1.00  0.00     0.157 A 
ATOM     10  C   UNL     1      70.788  82.419  63.997  1.00  0.00     0.056 A 
ATOM     11  C   UNL     1      71.207  82.692  66.756  1.00  0.00     0.050 A 
ATOM     12  C   UNL     1      71.928  81.726  66.028  1.00  0.00     0.009 A 
BRANCH   8  13
ATOM     13  O   UNL     1      69.180  84.220  64.074  1.00  0.00    -0.493 OA
ATOM     14  C   UNL     1      67.925  83.607  63.727  1.00  0.00     0.278 C 
ENDBRANCH   8  13
BRANCH   9  15
ATOM     15  O   UNL     1      69.559  84.418  66.836  1.00  0.00    -0.504 OA
ATOM     16  H   UNL     1      70.167  85.026  67.262  1.00  0.00     0.293 HD
ENDBRANCH   9  15
ENDBRANCH   6   7
ENDBRANCH   3   6
ENDBRANCH   1   2
BRANCH   1  17
ATOM     17  C   UNL     1      76.308  81.306  65.691  1.00  0.00     0.010 C 
BRANCH  17  18
ATOM     18  C   UNL     1      76.576  82.667  66.393  1.00  0.00     0.005 C 
BRANCH  18  19
ATOM     19  C   UNL     1      75.268  83.455  66.672  1.00  0.00     0.027 C 
BRANCH  19  20
ATOM     20  C   UNL     1      75.333  84.198  67.921  1.00  0.00    -0.031 C 
ATOM     21  C   UNL     1      76.408  84.226  68.730  1.00  0.00    -0.028 C 
BRANCH  21  22
ATOM     22  C   UNL     1      76.458  84.996  69.972  1.00  0.00     0.005 C 
ATOM     23  C   UNL     1      76.232  84.106  71.226  1.00  0.00     0.012 C 
ATOM     24  C   UNL     1      77.802  85.763  70.074  1.00  0.00     0.012 C 
ENDBRANCH  21  22
ENDBRANCH  19  20
ENDBRANCH  18  19
ENDBRANCH  17  18
ENDBRANCH   1  17
TORSDOF 10
ENDMDL
