MODEL 1
REMARK VINA RESULT:    -6.362      0.000      0.000
REMARK INTER + INTRA:         -11.311
REMARK INTER:                 -10.639
REMARK INTRA:                  -0.672
REMARK UNBOUND:                -0.672
REMARK SMILES COc1cc(CNC(=O)CCCCCCCC(C)C)ccc1O
REMARK SMILES IDX 11 1 10 2 8 3 9 4 7 5 6 7 5 8 4 9 20 10 3 11 21 12 22 13
REMARK SMILES IDX 2 14 1 15 23 16 12 18 13 19 14 20 15 21 16 22 17 23 18 24
REMARK SMILES IDX 19 25
REMARK H PARENT 7 6 23 17
REMARK Flexibility Score: inf
ROOT
ATOM      1  C   UNL     1      90.758  99.666  70.869  1.00  0.00     0.010 C 
ENDROOT
BRANCH   1   2
ATOM      2  C   UNL     1      90.114  98.330  70.503  1.00  0.00     0.100 C 
BRANCH   2   3
ATOM      3  C   UNL     1      89.676  98.278  69.049  1.00  0.00     0.220 C 
ATOM      4  O   UNL     1      88.897  97.436  68.610  1.00  0.00    -0.275 OA
ATOM      5  N   UNL     1      90.268  99.285  68.302  1.00  0.00    -0.352 N 
ATOM      6  H   UNL     1      90.911  99.931  68.751  1.00  0.00     0.163 HD
BRANCH   5   7
ATOM      7  C   UNL     1      90.028  99.455  66.887  1.00  0.00     0.151 C 
BRANCH   7   8
ATOM      8  C   UNL     1      88.897 100.406  66.621  1.00  0.00    -0.025 A 
ATOM      9  C   UNL     1      89.149 101.770  66.541  1.00  0.00     0.056 A 
ATOM     10  C   UNL     1      87.608  99.911  66.459  1.00  0.00     0.009 A 
ATOM     11  C   UNL     1      88.098 102.653  66.294  1.00  0.00     0.160 A 
ATOM     12  C   UNL     1      86.556 100.795  66.212  1.00  0.00     0.050 A 
ATOM     13  C   UNL     1      86.801 102.165  66.130  1.00  0.00     0.157 A 
BRANCH  11  14
ATOM     14  O   UNL     1      88.349 103.990  66.216  1.00  0.00    -0.493 OA
ATOM     15  C   UNL     1      89.698 104.382  65.965  1.00  0.00     0.278 C 
ENDBRANCH  11  14
BRANCH  13  16
ATOM     16  O   UNL     1      85.766 103.017  65.887  1.00  0.00    -0.504 OA
ATOM     17  H   UNL     1      85.098 102.559  65.349  1.00  0.00     0.293 HD
ENDBRANCH  13  16
ENDBRANCH   7   8
ENDBRANCH   5   7
ENDBRANCH   2   3
ENDBRANCH   1   2
BRANCH   1  18
ATOM     18  C   UNL     1      92.279  99.586  71.029  1.00  0.00     0.001 C 
BRANCH  18  19
ATOM     19  C   UNL     1      92.805  99.730  72.461  1.00  0.00     0.000 C 
BRANCH  19  20
ATOM     20  C   UNL     1      93.836  98.663  72.837  1.00  0.00     0.000 C 
BRANCH  20  21
ATOM     21  C   UNL     1      93.508  97.930  74.142  1.00  0.00     0.000 C 
BRANCH  21  22
ATOM     22  C   UNL     1      94.114  96.525  74.218  1.00  0.00     0.003 C 
BRANCH  22  23
ATOM     23  C   UNL     1      94.020  95.890  75.620  1.00  0.00    -0.017 C 
ATOM     24  C   UNL     1      94.449  94.422  75.552  1.00  0.00     0.007 C 
ATOM     25  C   UNL     1      92.615  95.989  76.215  1.00  0.00     0.007 C 
ENDBRANCH  22  23
ENDBRANCH  21  22
ENDBRANCH  20  21
ENDBRANCH  19  20
ENDBRANCH  18  19
ENDBRANCH   1  18
TORSDOF 12
ENDMDL
MODEL 2
REMARK VINA RESULT:    -6.200      4.774     10.881
REMARK INTER + INTRA:         -11.041
REMARK INTER:                 -10.464
REMARK INTRA:                  -0.576
REMARK UNBOUND:                -0.672
REMARK SMILES COc1cc(CNC(=O)CCCCCCCC(C)C)ccc1O
REMARK SMILES IDX 11 1 10 2 8 3 9 4 7 5 6 7 5 8 4 9 20 10 3 11 21 12 22 13
REMARK SMILES IDX 2 14 1 15 23 16 12 18 13 19 14 20 15 21 16 22 17 23 18 24
REMARK SMILES IDX 19 25
REMARK H PARENT 7 6 23 17
REMARK Flexibility Score: inf
ROOT
ATOM      1  C   UNL     1      93.737  99.045  72.404  1.00  0.00     0.010 C 
ENDROOT
BRANCH   1   2
ATOM      2  C   UNL     1      93.737  98.499  73.831  1.00  0.00     0.100 C 
BRANCH   2   3
ATOM      3  C   UNL     1      94.407  97.139  73.931  1.00  0.00     0.220 C 
ATOM      4  O   UNL     1      95.379  96.815  73.254  1.00  0.00    -0.275 OA
ATOM      5  N   UNL     1      93.778  96.329  74.864  1.00  0.00    -0.352 N 
ATOM      6  H   UNL     1      92.970  96.680  75.371  1.00  0.00     0.163 HD
BRANCH   5   7
ATOM      7  C   UNL     1      94.211  94.980  75.148  1.00  0.00     0.151 C 
BRANCH   7   8
ATOM      8  C   UNL     1      93.209  94.232  75.980  1.00  0.00    -0.025 A 
ATOM      9  C   UNL     1      92.287  93.398  75.359  1.00  0.00     0.056 A 
ATOM     10  C   UNL     1      93.214  94.383  77.361  1.00  0.00     0.009 A 
ATOM     11  C   UNL     1      91.356  92.703  76.132  1.00  0.00     0.160 A 
ATOM     12  C   UNL     1      92.282  93.688  78.133  1.00  0.00     0.050 A 
ATOM     13  C   UNL     1      91.353  92.849  77.520  1.00  0.00     0.157 A 
BRANCH  11  14
ATOM     14  O   UNL     1      90.453  91.887  75.520  1.00  0.00    -0.493 OA
ATOM     15  C   UNL     1      90.976  90.821  74.729  1.00  0.00     0.278 C 
ENDBRANCH  11  14
BRANCH  13  16
ATOM     16  O   UNL     1      90.449  92.176  78.285  1.00  0.00    -0.504 OA
ATOM     17  H   UNL     1      89.748  91.823  77.710  1.00  0.00     0.293 HD
ENDBRANCH  13  16
ENDBRANCH   7   8
ENDBRANCH   5   7
ENDBRANCH   2   3
ENDBRANCH   1   2
BRANCH   1  18
ATOM     18  C   UNL     1      92.520  99.918  72.085  1.00  0.00     0.001 C 
BRANCH  18  19
ATOM     19  C   UNL     1      91.522  99.326  71.085  1.00  0.00     0.000 C 
BRANCH  19  20
ATOM     20  C   UNL     1      91.757  99.794  69.646  1.00  0.00     0.000 C 
BRANCH  20  21
ATOM     21  C   UNL     1      90.653 100.716  69.116  1.00  0.00     0.000 C 
BRANCH  21  22
ATOM     22  C   UNL     1      90.122 100.299  67.741  1.00  0.00     0.003 C 
BRANCH  22  23
ATOM     23  C   UNL     1      88.870  99.404  67.812  1.00  0.00    -0.017 C 
ATOM     24  C   UNL     1      89.280  97.932  67.721  1.00  0.00     0.007 C 
ATOM     25  C   UNL     1      87.857  99.724  66.711  1.00  0.00     0.007 C 
ENDBRANCH  22  23
ENDBRANCH  21  22
ENDBRANCH  20  21
ENDBRANCH  19  20
ENDBRANCH  18  19
ENDBRANCH   1  18
TORSDOF 12
ENDMDL
MODEL 3
REMARK VINA RESULT:    -6.195     19.436     22.078
REMARK INTER + INTRA:         -11.033
REMARK INTER:                  -9.329
REMARK INTRA:                  -1.704
REMARK UNBOUND:                -0.672
REMARK SMILES COc1cc(CNC(=O)CCCCCCCC(C)C)ccc1O
REMARK SMILES IDX 11 1 10 2 8 3 9 4 7 5 6 7 5 8 4 9 20 10 3 11 21 12 22 13
REMARK SMILES IDX 2 14 1 15 23 16 12 18 13 19 14 20 15 21 16 22 17 23 18 24
REMARK SMILES IDX 19 25
REMARK H PARENT 7 6 23 17
REMARK Flexibility Score: inf
ROOT
ATOM      1  C   UNL     1      76.642  86.909  67.559  1.00  0.00     0.010 C 
ENDROOT
BRANCH   1   2
ATOM      2  C   UNL     1      77.575  85.718  67.767  1.00  0.00     0.100 C 
BRANCH   2   3
ATOM      3  C   UNL     1      77.407  84.656  66.694  1.00  0.00     0.220 C 
ATOM      4  O   UNL     1      77.979  83.570  66.725  1.00  0.00    -0.275 OA
ATOM      5  N   UNL     1      76.545  85.076  65.692  1.00  0.00    -0.352 N 
ATOM      6  H   UNL     1      76.125  86.000  65.746  1.00  0.00     0.163 HD
BRANCH   5   7
ATOM      7  C   UNL     1      76.218  84.259  64.546  1.00  0.00     0.151 C 
BRANCH   7   8
ATOM      8  C   UNL     1      75.011  83.401  64.795  1.00  0.00    -0.025 A 
ATOM      9  C   UNL     1      73.749  83.981  64.822  1.00  0.00     0.056 A 
ATOM     10  C   UNL     1      75.169  82.035  64.995  1.00  0.00     0.009 A 
ATOM     11  C   UNL     1      72.628  83.184  65.053  1.00  0.00     0.160 A 
ATOM     12  C   UNL     1      74.048  81.238  65.226  1.00  0.00     0.050 A 
ATOM     13  C   UNL     1      72.777  81.812  65.256  1.00  0.00     0.157 A 
BRANCH  11  14
ATOM     14  O   UNL     1      71.392  83.756  65.080  1.00  0.00    -0.493 OA
ATOM     15  C   UNL     1      71.001  84.396  66.295  1.00  0.00     0.278 C 
ENDBRANCH  11  14
BRANCH  13  16
ATOM     16  O   UNL     1      71.690  81.023  65.482  1.00  0.00    -0.504 OA
ATOM     17  H   UNL     1      71.722  80.694  66.397  1.00  0.00     0.293 HD
ENDBRANCH  13  16
ENDBRANCH   7   8
ENDBRANCH   5   7
ENDBRANCH   2   3
ENDBRANCH   1   2
BRANCH   1  18
ATOM     18  C   UNL     1      77.381  88.229  67.323  1.00  0.00     0.001 C 
BRANCH  18  19
ATOM     19  C   UNL     1      76.702  89.207  66.358  1.00  0.00     0.000 C 
BRANCH  19  20
ATOM     20  C   UNL     1      75.447  88.631  65.696  1.00  0.00     0.000 C 
BRANCH  20  21
ATOM     21  C   UNL     1      74.142  89.161  66.301  1.00  0.00     0.000 C 
BRANCH  21  22
ATOM     22  C   UNL     1      74.337  90.410  67.167  1.00  0.00     0.003 C 
BRANCH  22  23
ATOM     23  C   UNL     1      74.051  90.171  68.662  1.00  0.00    -0.017 C 
ATOM     24  C   UNL     1      75.238  90.655  69.500  1.00  0.00     0.007 C 
ATOM     25  C   UNL     1      73.766  88.702  68.977  1.00  0.00     0.007 C 
ENDBRANCH  22  23
ENDBRANCH  21  22
ENDBRANCH  20  21
ENDBRANCH  19  20
ENDBRANCH  18  19
ENDBRANCH   1  18
TORSDOF 12
ENDMDL
MODEL 4
REMARK VINA RESULT:    -6.093     20.900     24.278
REMARK INTER + INTRA:         -10.862
REMARK INTER:                  -9.806
REMARK INTRA:                  -1.056
REMARK UNBOUND:                -0.672
REMARK SMILES COc1cc(CNC(=O)CCCCCCCC(C)C)ccc1O
REMARK SMILES IDX 11 1 10 2 8 3 9 4 7 5 6 7 5 8 4 9 20 10 3 11 21 12 22 13
REMARK SMILES IDX 2 14 1 15 23 16 12 18 13 19 14 20 15 21 16 22 17 23 18 24
REMARK SMILES IDX 19 25
REMARK H PARENT 7 6 23 17
REMARK Flexibility Score: inf
ROOT
ATOM      1  C   UNL     1      96.621  81.274  82.751  1.00  0.00     0.010 C 
ENDROOT
BRANCH   1   2
ATOM      2  C   UNL     1      95.387  82.072  83.169  1.00  0.00     0.100 C 
BRANCH   2   3
ATOM      3  C   UNL     1      94.737  81.515  84.425  1.00  0.00     0.220 C 
ATOM      4  O   UNL     1      95.363  80.936  85.308  1.00  0.00    -0.275 OA
ATOM      5  N   UNL     1      93.368  81.740  84.433  1.00  0.00    -0.352 N 
ATOM      6  H   UNL     1      92.934  82.221  83.650  1.00  0.00     0.163 HD
BRANCH   5   7
ATOM      7  C   UNL     1      92.509  81.304  85.510  1.00  0.00     0.151 C 
BRANCH   7   8
ATOM      8  C   UNL     1      91.366  80.468  85.012  1.00  0.00    -0.025 A 
ATOM      9  C   UNL     1      90.124  81.057  84.802  1.00  0.00     0.056 A 
ATOM     10  C   UNL     1      91.560  79.115  84.767  1.00  0.00     0.009 A 
ATOM     11  C   UNL     1      89.062  80.280  84.340  1.00  0.00     0.160 A 
ATOM     12  C   UNL     1      90.497  78.338  84.305  1.00  0.00     0.050 A 
ATOM     13  C   UNL     1      89.248  78.920  84.092  1.00  0.00     0.157 A 
BRANCH  11  14
ATOM     14  O   UNL     1      87.846  80.860  84.136  1.00  0.00    -0.493 OA
ATOM     15  C   UNL     1      87.018  81.050  85.283  1.00  0.00     0.278 C 
ENDBRANCH  11  14
BRANCH  13  16
ATOM     16  O   UNL     1      88.219  78.151  83.640  1.00  0.00    -0.504 OA
ATOM     17  H   UNL     1      87.667  77.884  84.395  1.00  0.00     0.293 HD
ENDBRANCH  13  16
ENDBRANCH   7   8
ENDBRANCH   5   7
ENDBRANCH   2   3
ENDBRANCH   1   2
BRANCH   1  18
ATOM     18  C   UNL     1      96.291  80.030  81.922  1.00  0.00     0.001 C 
BRANCH  18  19
ATOM     19  C   UNL     1      97.428  79.496  81.044  1.00  0.00     0.000 C 
BRANCH  19  20
ATOM     20  C   UNL     1      98.570  80.498  80.858  1.00  0.00     0.000 C 
BRANCH  20  21
ATOM     21  C   UNL     1      98.695  81.022  79.424  1.00  0.00     0.000 C 
BRANCH  21  22
ATOM     22  C   UNL     1      97.617  82.048  79.058  1.00  0.00     0.003 C 
BRANCH  22  23
ATOM     23  C   UNL     1      97.055  81.867  77.634  1.00  0.00    -0.017 C 
ATOM     24  C   UNL     1      95.716  82.597  77.509  1.00  0.00     0.007 C 
ATOM     25  C   UNL     1      96.875  80.396  77.258  1.00  0.00     0.007 C 
ENDBRANCH  22  23
ENDBRANCH  21  22
ENDBRANCH  20  21
ENDBRANCH  19  20
ENDBRANCH  18  19
ENDBRANCH   1  18
TORSDOF 12
ENDMDL
MODEL 5
REMARK VINA RESULT:    -5.898     20.464     22.905
REMARK INTER + INTRA:         -10.536
REMARK INTER:                  -8.526
REMARK INTRA:                  -2.010
REMARK UNBOUND:                -0.672
REMARK SMILES COc1cc(CNC(=O)CCCCCCCC(C)C)ccc1O
REMARK SMILES IDX 11 1 10 2 8 3 9 4 7 5 6 7 5 8 4 9 20 10 3 11 21 12 22 13
REMARK SMILES IDX 2 14 1 15 23 16 12 18 13 19 14 20 15 21 16 22 17 23 18 24
REMARK SMILES IDX 19 25
REMARK H PARENT 7 6 23 17
REMARK Flexibility Score: inf
ROOT
ATOM      1  C   UNL     1      77.037  84.945  67.559  1.00  0.00     0.010 C 
ENDROOT
BRANCH   1   2
ATOM      2  C   UNL     1      77.613  83.948  66.556  1.00  0.00     0.100 C 
BRANCH   2   3
ATOM      3  C   UNL     1      76.621  83.588  65.463  1.00  0.00     0.220 C 
ATOM      4  O   UNL     1      76.489  82.451  65.020  1.00  0.00    -0.275 OA
ATOM      5  N   UNL     1      75.907  84.699  65.037  1.00  0.00    -0.352 N 
ATOM      6  H   UNL     1      76.093  85.606  65.456  1.00  0.00     0.163 HD
BRANCH   5   7
ATOM      7  C   UNL     1      74.904  84.635  63.999  1.00  0.00     0.151 C 
BRANCH   7   8
ATOM      8  C   UNL     1      73.585  84.146  64.523  1.00  0.00    -0.025 A 
ATOM      9  C   UNL     1      72.899  83.150  63.836  1.00  0.00     0.056 A 
ATOM     10  C   UNL     1      73.062  84.693  65.688  1.00  0.00     0.009 A 
ATOM     11  C   UNL     1      71.673  82.696  64.323  1.00  0.00     0.160 A 
ATOM     12  C   UNL     1      71.836  84.239  66.174  1.00  0.00     0.050 A 
ATOM     13  C   UNL     1      71.141  83.241  65.492  1.00  0.00     0.157 A 
BRANCH  11  14
ATOM     14  O   UNL     1      71.004  81.721  63.647  1.00  0.00    -0.493 OA
ATOM     15  C   UNL     1      71.555  80.405  63.693  1.00  0.00     0.278 C 
ENDBRANCH  11  14
BRANCH  13  16
ATOM     16  O   UNL     1      69.945  82.805  65.977  1.00  0.00    -0.504 OA
ATOM     17  H   UNL     1      69.602  83.460  66.609  1.00  0.00     0.293 HD
ENDBRANCH  13  16
ENDBRANCH   7   8
ENDBRANCH   5   7
ENDBRANCH   2   3
ENDBRANCH   1   2
BRANCH   1  18
ATOM     18  C   UNL     1      75.992  84.334  68.497  1.00  0.00     0.001 C 
BRANCH  18  19
ATOM     19  C   UNL     1      75.396  85.286  69.539  1.00  0.00     0.000 C 
BRANCH  19  20
ATOM     20  C   UNL     1      74.221  86.110  69.003  1.00  0.00     0.000 C 
BRANCH  20  21
ATOM     21  C   UNL     1      74.610  87.537  68.600  1.00  0.00     0.000 C 
BRANCH  21  22
ATOM     22  C   UNL     1      74.711  87.732  67.084  1.00  0.00     0.003 C 
BRANCH  22  23
ATOM     23  C   UNL     1      75.848  88.684  66.662  1.00  0.00    -0.017 C 
ATOM     24  C   UNL     1      76.219  88.430  65.199  1.00  0.00     0.007 C 
ATOM     25  C   UNL     1      77.091  88.538  67.540  1.00  0.00     0.007 C 
ENDBRANCH  22  23
ENDBRANCH  21  22
ENDBRANCH  20  21
ENDBRANCH  19  20
ENDBRANCH  18  19
ENDBRANCH   1  18
TORSDOF 12
ENDMDL
MODEL 6
REMARK VINA RESULT:    -5.878      4.767     11.375
REMARK INTER + INTRA:         -10.502
REMARK INTER:                  -9.900
REMARK INTRA:                  -0.602
REMARK UNBOUND:                -0.672
REMARK SMILES COc1cc(CNC(=O)CCCCCCCC(C)C)ccc1O
REMARK SMILES IDX 11 1 10 2 8 3 9 4 7 5 6 7 5 8 4 9 20 10 3 11 21 12 22 13
REMARK SMILES IDX 2 14 1 15 23 16 12 18 13 19 14 20 15 21 16 22 17 23 18 24
REMARK SMILES IDX 19 25
REMARK H PARENT 7 6 23 17
REMARK Flexibility Score: inf
ROOT
ATOM      1  C   UNL     1      93.423  99.415  72.335  1.00  0.00     0.010 C 
ENDROOT
BRANCH   1   2
ATOM      2  C   UNL     1      93.386  98.896  73.771  1.00  0.00     0.100 C 
BRANCH   2   3
ATOM      3  C   UNL     1      94.443  97.835  74.030  1.00  0.00     0.220 C 
ATOM      4  O   UNL     1      95.649  98.062  73.994  1.00  0.00    -0.275 OA
ATOM      5  N   UNL     1      93.871  96.601  74.298  1.00  0.00    -0.352 N 
ATOM      6  H   UNL     1      92.858  96.505  74.295  1.00  0.00     0.163 HD
BRANCH   5   7
ATOM      7  C   UNL     1      94.653  95.417  74.571  1.00  0.00     0.151 C 
BRANCH   7   8
ATOM      8  C   UNL     1      94.155  94.682  75.781  1.00  0.00    -0.025 A 
ATOM      9  C   UNL     1      94.872  94.749  76.970  1.00  0.00     0.056 A 
ATOM     10  C   UNL     1      92.982  93.941  75.700  1.00  0.00     0.009 A 
ATOM     11  C   UNL     1      94.409  94.066  78.094  1.00  0.00     0.160 A 
ATOM     12  C   UNL     1      92.520  93.256  76.825  1.00  0.00     0.050 A 
ATOM     13  C   UNL     1      93.233  93.319  78.022  1.00  0.00     0.157 A 
BRANCH  11  14
ATOM     14  O   UNL     1      95.114  94.134  79.258  1.00  0.00    -0.493 OA
ATOM     15  C   UNL     1      95.681  95.398  79.599  1.00  0.00     0.278 C 
ENDBRANCH  11  14
BRANCH  13  16
ATOM     16  O   UNL     1      92.771  92.648  79.113  1.00  0.00    -0.504 OA
ATOM     17  H   UNL     1      93.418  91.967  79.364  1.00  0.00     0.293 HD
ENDBRANCH  13  16
ENDBRANCH   7   8
ENDBRANCH   5   7
ENDBRANCH   2   3
ENDBRANCH   1   2
BRANCH   1  18
ATOM     18  C   UNL     1      92.148 100.156  71.922  1.00  0.00     0.001 C 
BRANCH  18  19
ATOM     19  C   UNL     1      91.111  99.321  71.164  1.00  0.00     0.000 C 
BRANCH  19  20
ATOM     20  C   UNL     1      91.402  99.211  69.664  1.00  0.00     0.000 C 
BRANCH  20  21
ATOM     21  C   UNL     1      90.893 100.408  68.855  1.00  0.00     0.000 C 
BRANCH  21  22
ATOM     22  C   UNL     1      89.384 100.364  68.590  1.00  0.00     0.003 C 
BRANCH  22  23
ATOM     23  C   UNL     1      89.025 100.305  67.093  1.00  0.00    -0.017 C 
ATOM     24  C   UNL     1      87.533 100.002  66.931  1.00  0.00     0.007 C 
ATOM     25  C   UNL     1      89.846  99.262  66.334  1.00  0.00     0.007 C 
ENDBRANCH  22  23
ENDBRANCH  21  22
ENDBRANCH  20  21
ENDBRANCH  19  20
ENDBRANCH  18  19
ENDBRANCH   1  18
TORSDOF 12
ENDMDL
MODEL 7
REMARK VINA RESULT:    -5.791     20.359     22.745
REMARK INTER + INTRA:         -10.356
REMARK INTER:                  -8.607
REMARK INTRA:                  -1.749
REMARK UNBOUND:                -0.672
REMARK SMILES COc1cc(CNC(=O)CCCCCCCC(C)C)ccc1O
REMARK SMILES IDX 11 1 10 2 8 3 9 4 7 5 6 7 5 8 4 9 20 10 3 11 21 12 22 13
REMARK SMILES IDX 2 14 1 15 23 16 12 18 13 19 14 20 15 21 16 22 17 23 18 24
REMARK SMILES IDX 19 25
REMARK H PARENT 7 6 23 17
REMARK Flexibility Score: inf
ROOT
ATOM      1  C   UNL     1      76.734  85.348  67.657  1.00  0.00     0.010 C 
ENDROOT
BRANCH   1   2
ATOM      2  C   UNL     1      77.499  84.227  66.956  1.00  0.00     0.100 C 
BRANCH   2   3
ATOM      3  C   UNL     1      76.688  83.578  65.847  1.00  0.00     0.220 C 
ATOM      4  O   UNL     1      76.787  82.392  65.546  1.00  0.00    -0.275 OA
ATOM      5  N   UNL     1      75.846  84.492  65.230  1.00  0.00    -0.352 N 
ATOM      6  H   UNL     1      75.841  85.460  65.542  1.00  0.00     0.163 HD
BRANCH   5   7
ATOM      7  C   UNL     1      74.971  84.136  64.137  1.00  0.00     0.151 C 
BRANCH   7   8
ATOM      8  C   UNL     1      73.686  83.530  64.621  1.00  0.00    -0.025 A 
ATOM      9  C   UNL     1      72.725  84.338  65.216  1.00  0.00     0.056 A 
ATOM     10  C   UNL     1      73.471  82.166  64.469  1.00  0.00     0.009 A 
ATOM     11  C   UNL     1      71.531  83.775  65.666  1.00  0.00     0.160 A 
ATOM     12  C   UNL     1      72.276  81.602  64.920  1.00  0.00     0.050 A 
ATOM     13  C   UNL     1      71.307  82.406  65.519  1.00  0.00     0.157 A 
BRANCH  11  14
ATOM     14  O   UNL     1      70.592  84.570  66.250  1.00  0.00    -0.493 OA
ATOM     15  C   UNL     1      70.750  85.980  66.094  1.00  0.00     0.278 C 
ENDBRANCH  11  14
BRANCH  13  16
ATOM     16  O   UNL     1      70.145  81.843  65.953  1.00  0.00    -0.504 OA
ATOM     17  H   UNL     1      69.637  81.531  65.185  1.00  0.00     0.293 HD
ENDBRANCH  13  16
ENDBRANCH   7   8
ENDBRANCH   5   7
ENDBRANCH   2   3
ENDBRANCH   1   2
BRANCH   1  18
ATOM     18  C   UNL     1      76.147  84.934  69.009  1.00  0.00     0.001 C 
BRANCH  18  19
ATOM     19  C   UNL     1      74.777  85.530  69.349  1.00  0.00     0.000 C 
BRANCH  19  20
ATOM     20  C   UNL     1      73.930  85.844  68.113  1.00  0.00     0.000 C 
BRANCH  20  21
ATOM     21  C   UNL     1      73.781  87.345  67.840  1.00  0.00     0.000 C 
BRANCH  21  22
ATOM     22  C   UNL     1      74.290  88.222  68.988  1.00  0.00     0.003 C 
BRANCH  22  23
ATOM     23  C   UNL     1      75.538  89.050  68.622  1.00  0.00    -0.017 C 
ATOM     24  C   UNL     1      75.333  90.508  69.042  1.00  0.00     0.007 C 
ATOM     25  C   UNL     1      75.866  88.987  67.130  1.00  0.00     0.007 C 
ENDBRANCH  22  23
ENDBRANCH  21  22
ENDBRANCH  20  21
ENDBRANCH  19  20
ENDBRANCH  18  19
ENDBRANCH   1  18
TORSDOF 12
ENDMDL
MODEL 8
REMARK VINA RESULT:    -5.778     19.414     22.078
REMARK INTER + INTRA:         -10.335
REMARK INTER:                  -8.585
REMARK INTRA:                  -1.750
REMARK UNBOUND:                -0.672
REMARK SMILES COc1cc(CNC(=O)CCCCCCCC(C)C)ccc1O
REMARK SMILES IDX 11 1 10 2 8 3 9 4 7 5 6 7 5 8 4 9 20 10 3 11 21 12 22 13
REMARK SMILES IDX 2 14 1 15 23 16 12 18 13 19 14 20 15 21 16 22 17 23 18 24
REMARK SMILES IDX 19 25
REMARK H PARENT 7 6 23 17
REMARK Flexibility Score: inf
ROOT
ATOM      1  C   UNL     1      75.925  87.908  66.499  1.00  0.00     0.010 C 
ENDROOT
BRANCH   1   2
ATOM      2  C   UNL     1      77.006  87.292  67.385  1.00  0.00     0.100 C 
BRANCH   2   3
ATOM      3  C   UNL     1      77.292  85.843  67.025  1.00  0.00     0.220 C 
ATOM      4  O   UNL     1      77.944  85.088  67.740  1.00  0.00    -0.275 OA
ATOM      5  N   UNL     1      76.735  85.503  65.801  1.00  0.00    -0.352 N 
ATOM      6  H   UNL     1      76.219  86.201  65.272  1.00  0.00     0.163 HD
BRANCH   5   7
ATOM      7  C   UNL     1      76.866  84.186  65.220  1.00  0.00     0.151 C 
BRANCH   7   8
ATOM      8  C   UNL     1      75.584  83.409  65.297  1.00  0.00    -0.025 A 
ATOM      9  C   UNL     1      74.396  84.068  65.590  1.00  0.00     0.056 A 
ATOM     10  C   UNL     1      75.598  82.037  65.076  1.00  0.00     0.009 A 
ATOM     11  C   UNL     1      73.205  83.346  65.661  1.00  0.00     0.160 A 
ATOM     12  C   UNL     1      74.407  81.314  65.149  1.00  0.00     0.050 A 
ATOM     13  C   UNL     1      73.211  81.968  65.441  1.00  0.00     0.157 A 
BRANCH  11  14
ATOM     14  O   UNL     1      72.043  83.996  65.949  1.00  0.00    -0.493 OA
ATOM     15  C   UNL     1      72.098  85.420  66.024  1.00  0.00     0.278 C 
ENDBRANCH  11  14
BRANCH  13  16
ATOM     16  O   UNL     1      72.054  81.252  65.508  1.00  0.00    -0.504 OA
ATOM     17  H   UNL     1      72.196  80.474  66.075  1.00  0.00     0.293 HD
ENDBRANCH  13  16
ENDBRANCH   7   8
ENDBRANCH   5   7
ENDBRANCH   2   3
ENDBRANCH   1   2
BRANCH   1  18
ATOM     18  C   UNL     1      74.533  87.895  67.137  1.00  0.00     0.001 C 
BRANCH  18  19
ATOM     19  C   UNL     1      74.428  87.183  68.490  1.00  0.00     0.000 C 
BRANCH  19  20
ATOM     20  C   UNL     1      73.066  87.363  69.165  1.00  0.00     0.000 C 
BRANCH  20  21
ATOM     21  C   UNL     1      72.480  88.769  68.990  1.00  0.00     0.000 C 
BRANCH  21  22
ATOM     22  C   UNL     1      72.926  89.752  70.077  1.00  0.00     0.003 C 
BRANCH  22  23
ATOM     23  C   UNL     1      73.746  90.938  69.533  1.00  0.00    -0.017 C 
ATOM     24  C   UNL     1      73.245  91.318  68.138  1.00  0.00     0.007 C 
ATOM     25  C   UNL     1      75.245  90.637  69.476  1.00  0.00     0.007 C 
ENDBRANCH  22  23
ENDBRANCH  21  22
ENDBRANCH  20  21
ENDBRANCH  19  20
ENDBRANCH  18  19
ENDBRANCH   1  18
TORSDOF 12
ENDMDL
MODEL 9
REMARK VINA RESULT:    -5.774     30.145     33.911
REMARK INTER + INTRA:         -10.329
REMARK INTER:                  -8.650
REMARK INTRA:                  -1.679
REMARK UNBOUND:                -0.672
REMARK SMILES COc1cc(CNC(=O)CCCCCCCC(C)C)ccc1O
REMARK SMILES IDX 11 1 10 2 8 3 9 4 7 5 6 7 5 8 4 9 20 10 3 11 21 12 22 13
REMARK SMILES IDX 2 14 1 15 23 16 12 18 13 19 14 20 15 21 16 22 17 23 18 24
REMARK SMILES IDX 19 25
REMARK H PARENT 7 6 23 17
REMARK Flexibility Score: inf
ROOT
ATOM      1  C   UNL     1      81.851  66.175  76.469  1.00  0.00     0.010 C 
ENDROOT
BRANCH   1   2
ATOM      2  C   UNL     1      82.613  64.857  76.348  1.00  0.00     0.100 C 
BRANCH   2   3
ATOM      3  C   UNL     1      83.924  65.013  75.596  1.00  0.00     0.220 C 
ATOM      4  O   UNL     1      84.696  64.082  75.388  1.00  0.00    -0.275 OA
ATOM      5  N   UNL     1      84.127  66.324  75.193  1.00  0.00    -0.352 N 
ATOM      6  H   UNL     1      83.435  67.033  75.421  1.00  0.00     0.163 HD
BRANCH   5   7
ATOM      7  C   UNL     1      85.302  66.747  74.465  1.00  0.00     0.151 C 
BRANCH   7   8
ATOM      8  C   UNL     1      84.999  67.865  73.511  1.00  0.00    -0.025 A 
ATOM      9  C   UNL     1      85.371  69.165  73.833  1.00  0.00     0.056 A 
ATOM     10  C   UNL     1      84.349  67.589  72.314  1.00  0.00     0.009 A 
ATOM     11  C   UNL     1      85.089  70.203  72.946  1.00  0.00     0.160 A 
ATOM     12  C   UNL     1      84.066  68.628  71.427  1.00  0.00     0.050 A 
ATOM     13  C   UNL     1      84.436  69.936  71.743  1.00  0.00     0.157 A 
BRANCH  11  14
ATOM     14  O   UNL     1      85.454  71.476  73.266  1.00  0.00    -0.493 OA
ATOM     15  C   UNL     1      86.843  71.791  73.184  1.00  0.00     0.278 C 
ENDBRANCH  11  14
BRANCH  13  16
ATOM     16  O   UNL     1      84.156  70.941  70.868  1.00  0.00    -0.504 OA
ATOM     17  H   UNL     1      83.239  70.843  70.556  1.00  0.00     0.293 HD
ENDBRANCH  13  16
ENDBRANCH   7   8
ENDBRANCH   5   7
ENDBRANCH   2   3
ENDBRANCH   1   2
BRANCH   1  18
ATOM     18  C   UNL     1      80.399  66.087  75.993  1.00  0.00     0.001 C 
BRANCH  18  19
ATOM     19  C   UNL     1      80.191  65.469  74.606  1.00  0.00     0.000 C 
BRANCH  19  20
ATOM     20  C   UNL     1      80.707  66.351  73.467  1.00  0.00     0.000 C 
BRANCH  20  21
ATOM     21  C   UNL     1      81.306  65.554  72.302  1.00  0.00     0.000 C 
BRANCH  21  22
ATOM     22  C   UNL     1      81.051  66.196  70.934  1.00  0.00     0.003 C 
BRANCH  22  23
ATOM     23  C   UNL     1      81.417  65.281  69.749  1.00  0.00    -0.017 C 
ATOM     24  C   UNL     1      82.568  65.900  68.953  1.00  0.00     0.007 C 
ATOM     25  C   UNL     1      80.230  65.022  68.820  1.00  0.00     0.007 C 
ENDBRANCH  22  23
ENDBRANCH  21  22
ENDBRANCH  20  21
ENDBRANCH  19  20
ENDBRANCH  18  19
ENDBRANCH   1  18
TORSDOF 12
ENDMDL
MODEL 10
REMARK VINA RESULT:    -5.661     33.485     36.515
REMARK INTER + INTRA:         -10.139
REMARK INTER:                  -8.872
REMARK INTRA:                  -1.267
REMARK UNBOUND:                -0.672
REMARK SMILES COc1cc(CNC(=O)CCCCCCCC(C)C)ccc1O
REMARK SMILES IDX 11 1 10 2 8 3 9 4 7 5 6 7 5 8 4 9 20 10 3 11 21 12 22 13
REMARK SMILES IDX 2 14 1 15 23 16 12 18 13 19 14 20 15 21 16 22 17 23 18 24
REMARK SMILES IDX 19 25
REMARK H PARENT 7 6 23 17
REMARK Flexibility Score: inf
ROOT
ATOM      1  C   UNL     1      80.739  66.472  74.842  1.00  0.00     0.010 C 
ENDROOT
BRANCH   1   2
ATOM      2  C   UNL     1      79.834  65.256  75.022  1.00  0.00     0.100 C 
BRANCH   2   3
ATOM      3  C   UNL     1      80.587  64.047  75.553  1.00  0.00     0.220 C 
ATOM      4  O   UNL     1      80.074  62.940  75.687  1.00  0.00    -0.275 OA
ATOM      5  N   UNL     1      81.900  64.363  75.868  1.00  0.00    -0.352 N 
ATOM      6  H   UNL     1      82.234  65.314  75.734  1.00  0.00     0.163 HD
BRANCH   5   7
ATOM      7  C   UNL     1      82.832  63.396  76.401  1.00  0.00     0.151 C 
BRANCH   7   8
ATOM      8  C   UNL     1      83.839  64.032  77.314  1.00  0.00    -0.025 A 
ATOM      9  C   UNL     1      84.264  65.333  77.071  1.00  0.00     0.056 A 
ATOM     10  C   UNL     1      84.337  63.313  78.394  1.00  0.00     0.009 A 
ATOM     11  C   UNL     1      85.200  65.923  77.920  1.00  0.00     0.160 A 
ATOM     12  C   UNL     1      85.274  63.904  79.243  1.00  0.00     0.050 A 
ATOM     13  C   UNL     1      85.705  65.209  79.006  1.00  0.00     0.157 A 
BRANCH  11  14
ATOM     14  O   UNL     1      85.614  67.198  77.678  1.00  0.00    -0.493 OA
ATOM     15  C   UNL     1      84.614  68.216  77.679  1.00  0.00     0.278 C 
ENDBRANCH  11  14
BRANCH  13  16
ATOM     16  O   UNL     1      86.619  65.775  79.843  1.00  0.00    -0.504 OA
ATOM     17  H   UNL     1      86.948  65.097  80.458  1.00  0.00     0.293 HD
ENDBRANCH  13  16
ENDBRANCH   7   8
ENDBRANCH   5   7
ENDBRANCH   2   3
ENDBRANCH   1   2
BRANCH   1  18
ATOM     18  C   UNL     1      80.896  66.906  73.382  1.00  0.00     0.001 C 
BRANCH  18  19
ATOM     19  C   UNL     1      81.048  65.771  72.364  1.00  0.00     0.000 C 
BRANCH  19  20
ATOM     20  C   UNL     1      82.506  65.392  72.093  1.00  0.00     0.000 C 
BRANCH  20  21
ATOM     21  C   UNL     1      82.972  65.735  70.673  1.00  0.00     0.000 C 
BRANCH  21  22
ATOM     22  C   UNL     1      82.363  64.826  69.600  1.00  0.00     0.003 C 
BRANCH  22  23
ATOM     23  C   UNL     1      81.492  65.582  68.578  1.00  0.00    -0.017 C 
ATOM     24  C   UNL     1      81.610  67.090  68.812  1.00  0.00     0.007 C 
ATOM     25  C   UNL     1      80.021  65.167  68.639  1.00  0.00     0.007 C 
ENDBRANCH  22  23
ENDBRANCH  21  22
ENDBRANCH  20  21
ENDBRANCH  19  20
ENDBRANCH  18  19
ENDBRANCH   1  18
TORSDOF 12
ENDMDL
