MODEL 1
REMARK VINA RESULT:    -6.358      0.000      0.000
REMARK INTER + INTRA:         -11.093
REMARK INTER:                 -10.260
REMARK INTRA:                  -0.833
REMARK UNBOUND:                -0.833
REMARK SMILES CCCCCCCCC(=O)NCc1ccc(O)c(OC)c1
REMARK SMILES IDX 7 1 6 2 5 3 4 4 3 5 2 6 1 7 8 8 9 9 10 10 11 11 12 13 13 14
REMARK SMILES IDX 21 15 14 16 18 17 15 18 16 19 19 20 20 21 17 22
REMARK H PARENT 11 12 17 23
REMARK Flexibility Score: inf
ROOT
ATOM      1  C   UNL     1      93.205  97.086  75.893  1.00  0.00     0.010 C 
ENDROOT
BRANCH   1   2
ATOM      2  C   UNL     1      92.636  95.738  76.421  1.00  0.00     0.001 C 
BRANCH   2   3
ATOM      3  C   UNL     1      91.973  95.887  77.822  1.00  0.00     0.000 C 
BRANCH   3   4
ATOM      4  C   UNL     1      92.004  94.585  78.672  1.00  0.00    -0.000 C 
BRANCH   4   5
ATOM      5  C   UNL     1      90.679  93.776  78.578  1.00  0.00    -0.000 C 
BRANCH   5   6
ATOM      6  C   UNL     1      89.656  94.417  77.602  1.00  0.00    -0.003 C 
ATOM      7  C   UNL     1      89.570  93.675  76.250  1.00  0.00     0.004 C 
ENDBRANCH   5   6
ENDBRANCH   4   5
ENDBRANCH   3   4
ENDBRANCH   2   3
ENDBRANCH   1   2
BRANCH   1   8
ATOM      8  C   UNL     1      94.642  96.977  75.311  1.00  0.00     0.100 C 
BRANCH   8   9
ATOM      9  C   UNL     1      95.657  97.436  76.290  1.00  0.00     0.220 C 
ATOM     10  O   UNL     1      96.667  98.045  75.859  1.00  0.00    -0.275 OA
ATOM     11  N   UNL     1      95.478  97.225  77.627  1.00  0.00    -0.352 N 
ATOM     12  H   UNL     1      94.678  96.652  77.855  1.00  0.00     0.163 HD
BRANCH  11  13
ATOM     13  C   UNL     1      96.307  97.739  78.673  1.00  0.00     0.151 C 
BRANCH  13  14
ATOM     14  C   UNL     1      95.902  97.297  80.034  1.00  0.00    -0.025 A 
ATOM     15  C   UNL     1      95.732  95.920  80.314  1.00  0.00     0.056 A 
ATOM     16  C   UNL     1      95.677  98.236  81.067  1.00  0.00     0.009 A 
ATOM     17  C   UNL     1      95.364  95.483  81.607  1.00  0.00     0.160 A 
ATOM     18  C   UNL     1      95.312  97.808  82.356  1.00  0.00     0.050 A 
ATOM     19  C   UNL     1      95.147  96.436  82.628  1.00  0.00     0.157 A 
BRANCH  17  20
ATOM     20  O   UNL     1      95.159  94.151  81.866  1.00  0.00    -0.493 OA
ATOM     21  C   UNL     1      94.842  93.367  80.702  1.00  0.00     0.278 C 
ENDBRANCH  17  20
BRANCH  19  22
ATOM     22  O   UNL     1      94.768  96.034  83.868  1.00  0.00    -0.504 OA
ATOM     23  H   UNL     1      95.419  96.325  84.511  1.00  0.00     0.293 HD
ENDBRANCH  19  22
ENDBRANCH  13  14
ENDBRANCH  11  13
ENDBRANCH   8   9
ENDBRANCH   1   8
TORSDOF 11
ENDMDL
MODEL 2
REMARK VINA RESULT:    -5.982      6.238      9.920
REMARK INTER + INTRA:         -10.487
REMARK INTER:                  -9.788
REMARK INTRA:                  -0.700
REMARK UNBOUND:                -0.833
REMARK SMILES CCCCCCCCC(=O)NCc1ccc(O)c(OC)c1
REMARK SMILES IDX 7 1 6 2 5 3 4 4 3 5 2 6 1 7 8 8 9 9 10 10 11 11 12 13 13 14
REMARK SMILES IDX 21 15 14 16 18 17 15 18 16 19 19 20 20 21 17 22
REMARK H PARENT 11 12 17 23
REMARK Flexibility Score: inf
ROOT
ATOM      1  C   UNL     1      93.587  98.493  75.775  1.00  0.00     0.010 C 
ENDROOT
BRANCH   1   2
ATOM      2  C   UNL     1      92.907  97.096  75.854  1.00  0.00     0.001 C 
BRANCH   2   3
ATOM      3  C   UNL     1      93.367  96.288  77.104  1.00  0.00     0.000 C 
BRANCH   3   4
ATOM      4  C   UNL     1      92.196  95.651  77.904  1.00  0.00    -0.000 C 
BRANCH   4   5
ATOM      5  C   UNL     1      90.813  96.253  77.526  1.00  0.00    -0.000 C 
BRANCH   5   6
ATOM      6  C   UNL     1      89.684  95.187  77.505  1.00  0.00    -0.003 C 
ATOM      7  C   UNL     1      89.883  94.124  76.402  1.00  0.00     0.004 C 
ENDBRANCH   5   6
ENDBRANCH   4   5
ENDBRANCH   3   4
ENDBRANCH   2   3
ENDBRANCH   1   2
BRANCH   1   8
ATOM      8  C   UNL     1      93.836  98.990  74.323  1.00  0.00     0.100 C 
BRANCH   8   9
ATOM      9  C   UNL     1      92.734  99.866  73.856  1.00  0.00     0.220 C 
ATOM     10  O   UNL     1      92.513 100.930  74.481  1.00  0.00    -0.275 OA
ATOM     11  N   UNL     1      92.001  99.530  72.754  1.00  0.00    -0.352 N 
ATOM     12  H   UNL     1      92.204  98.614  72.380  1.00  0.00     0.163 HD
BRANCH  11  13
ATOM     13  C   UNL     1      91.013 100.352  72.125  1.00  0.00     0.151 C 
BRANCH  13  14
ATOM     14  C   UNL     1      90.173  99.631  71.132  1.00  0.00    -0.025 A 
ATOM     15  C   UNL     1      89.648 100.316  70.010  1.00  0.00     0.056 A 
ATOM     16  C   UNL     1      89.881  98.256  71.289  1.00  0.00     0.009 A 
ATOM     17  C   UNL     1      88.862  99.639  69.049  1.00  0.00     0.160 A 
ATOM     18  C   UNL     1      89.101  97.577  70.337  1.00  0.00     0.050 A 
ATOM     19  C   UNL     1      88.584  98.265  69.222  1.00  0.00     0.157 A 
BRANCH  17  20
ATOM     20  O   UNL     1      88.320 100.315  67.985  1.00  0.00    -0.493 OA
ATOM     21  C   UNL     1      89.070 101.473  67.579  1.00  0.00     0.278 C 
ENDBRANCH  17  20
BRANCH  19  22
ATOM     22  O   UNL     1      87.809  97.607  68.322  1.00  0.00    -0.504 OA
ATOM     23  H   UNL     1      86.984  97.349  68.739  1.00  0.00     0.293 HD
ENDBRANCH  19  22
ENDBRANCH  13  14
ENDBRANCH  11  13
ENDBRANCH   8   9
ENDBRANCH   1   8
TORSDOF 11
ENDMDL
MODEL 3
REMARK VINA RESULT:    -5.917     22.621     26.642
REMARK INTER + INTRA:         -10.383
REMARK INTER:                  -9.276
REMARK INTRA:                  -1.106
REMARK UNBOUND:                -0.833
REMARK SMILES CCCCCCCCC(=O)NCc1ccc(O)c(OC)c1
REMARK SMILES IDX 7 1 6 2 5 3 4 4 3 5 2 6 1 7 8 8 9 9 10 10 11 11 12 13 13 14
REMARK SMILES IDX 21 15 14 16 18 17 15 18 16 19 19 20 20 21 17 22
REMARK H PARENT 11 12 17 23
REMARK Flexibility Score: inf
ROOT
ATOM      1  C   UNL     1      77.115  85.733  66.829  1.00  0.00     0.010 C 
ENDROOT
BRANCH   1   2
ATOM      2  C   UNL     1      77.788  86.959  67.510  1.00  0.00     0.001 C 
BRANCH   2   3
ATOM      3  C   UNL     1      76.817  87.707  68.470  1.00  0.00     0.000 C 
BRANCH   3   4
ATOM      4  C   UNL     1      76.757  87.099  69.900  1.00  0.00    -0.000 C 
BRANCH   4   5
ATOM      5  C   UNL     1      75.409  86.381  70.192  1.00  0.00    -0.000 C 
BRANCH   5   6
ATOM      6  C   UNL     1      75.606  84.945  70.747  1.00  0.00    -0.003 C 
ATOM      7  C   UNL     1      77.041  84.412  70.536  1.00  0.00     0.004 C 
ENDBRANCH   5   6
ENDBRANCH   4   5
ENDBRANCH   3   4
ENDBRANCH   2   3
ENDBRANCH   1   2
BRANCH   1   8
ATOM      8  C   UNL     1      78.023  84.472  66.763  1.00  0.00     0.100 C 
BRANCH   8   9
ATOM      9  C   UNL     1      77.586  83.548  65.689  1.00  0.00     0.220 C 
ATOM     10  O   UNL     1      77.748  83.903  64.497  1.00  0.00    -0.275 OA
ATOM     11  N   UNL     1      77.049  82.331  65.996  1.00  0.00    -0.352 N 
ATOM     12  H   UNL     1      76.885  82.184  66.981  1.00  0.00     0.163 HD
BRANCH  11  13
ATOM     13  C   UNL     1      76.723  81.301  65.058  1.00  0.00     0.151 C 
BRANCH  13  14
ATOM     14  C   UNL     1      75.280  81.246  64.703  1.00  0.00    -0.025 A 
ATOM     15  C   UNL     1      74.295  81.540  65.676  1.00  0.00     0.056 A 
ATOM     16  C   UNL     1      74.866  80.899  63.396  1.00  0.00     0.009 A 
ATOM     17  C   UNL     1      72.920  81.510  65.348  1.00  0.00     0.160 A 
ATOM     18  C   UNL     1      73.500  80.868  63.063  1.00  0.00     0.050 A 
ATOM     19  C   UNL     1      72.525  81.164  64.036  1.00  0.00     0.157 A 
BRANCH  17  20
ATOM     20  O   UNL     1      71.966  81.754  66.303  1.00  0.00    -0.493 OA
ATOM     21  C   UNL     1      71.855  83.136  66.685  1.00  0.00     0.278 C 
ENDBRANCH  17  20
BRANCH  19  22
ATOM     22  O   UNL     1      71.208  81.105  63.712  1.00  0.00    -0.504 OA
ATOM     23  H   UNL     1      70.857  81.995  63.636  1.00  0.00     0.293 HD
ENDBRANCH  19  22
ENDBRANCH  13  14
ENDBRANCH  11  13
ENDBRANCH   8   9
ENDBRANCH   1   8
TORSDOF 11
ENDMDL
MODEL 4
REMARK VINA RESULT:    -5.611      2.865      4.649
REMARK INTER + INTRA:          -9.889
REMARK INTER:                  -9.131
REMARK INTRA:                  -0.758
REMARK UNBOUND:                -0.833
REMARK SMILES CCCCCCCCC(=O)NCc1ccc(O)c(OC)c1
REMARK SMILES IDX 7 1 6 2 5 3 4 4 3 5 2 6 1 7 8 8 9 9 10 10 11 11 12 13 13 14
REMARK SMILES IDX 21 15 14 16 18 17 15 18 16 19 19 20 20 21 17 22
REMARK H PARENT 11 12 17 23
REMARK Flexibility Score: inf
ROOT
ATOM      1  C   UNL     1      94.613  94.570  79.329  1.00  0.00     0.010 C 
ENDROOT
BRANCH   1   2
ATOM      2  C   UNL     1      93.072  94.573  79.111  1.00  0.00     0.001 C 
BRANCH   2   3
ATOM      3  C   UNL     1      92.659  95.373  77.841  1.00  0.00     0.000 C 
BRANCH   3   4
ATOM      4  C   UNL     1      91.176  95.843  77.851  1.00  0.00    -0.000 C 
BRANCH   4   5
ATOM      5  C   UNL     1      90.262  94.961  76.954  1.00  0.00    -0.000 C 
BRANCH   5   6
ATOM      6  C   UNL     1      89.177  94.206  77.769  1.00  0.00    -0.003 C 
ATOM      7  C   UNL     1      89.757  93.051  78.615  1.00  0.00     0.004 C 
ENDBRANCH   5   6
ENDBRANCH   4   5
ENDBRANCH   3   4
ENDBRANCH   2   3
ENDBRANCH   1   2
BRANCH   1   8
ATOM      8  C   UNL     1      95.108  93.466  80.305  1.00  0.00     0.100 C 
BRANCH   8   9
ATOM      9  C   UNL     1      95.533  94.043  81.602  1.00  0.00     0.220 C 
ATOM     10  O   UNL     1      95.064  93.549  82.656  1.00  0.00    -0.275 OA
ATOM     11  N   UNL     1      96.435  95.068  81.644  1.00  0.00    -0.352 N 
ATOM     12  H   UNL     1      96.680  95.445  80.740  1.00  0.00     0.163 HD
BRANCH  11  13
ATOM     13  C   UNL     1      97.027  95.613  82.827  1.00  0.00     0.151 C 
BRANCH  13  14
ATOM     14  C   UNL     1      96.536  96.973  83.174  1.00  0.00    -0.025 A 
ATOM     15  C   UNL     1      96.879  97.560  84.415  1.00  0.00     0.056 A 
ATOM     16  C   UNL     1      95.718  97.700  82.278  1.00  0.00     0.009 A 
ATOM     17  C   UNL     1      96.434  98.859  84.751  1.00  0.00     0.160 A 
ATOM     18  C   UNL     1      95.273  98.993  82.606  1.00  0.00     0.050 A 
ATOM     19  C   UNL     1      95.621  99.572  83.842  1.00  0.00     0.157 A 
BRANCH  17  20
ATOM     20  O   UNL     1      96.733  99.409  85.972  1.00  0.00    -0.493 OA
ATOM     21  C   UNL     1      98.079  99.905  86.081  1.00  0.00     0.278 C 
ENDBRANCH  17  20
BRANCH  19  22
ATOM     22  O   UNL     1      95.163 100.810  84.160  1.00  0.00    -0.504 OA
ATOM     23  H   UNL     1      94.448 100.732  84.796  1.00  0.00     0.293 HD
ENDBRANCH  19  22
ENDBRANCH  13  14
ENDBRANCH  11  13
ENDBRANCH   8   9
ENDBRANCH   1   8
TORSDOF 11
ENDMDL
MODEL 5
REMARK VINA RESULT:    -5.462      5.604      9.150
REMARK INTER + INTRA:          -9.648
REMARK INTER:                  -8.913
REMARK INTRA:                  -0.736
REMARK UNBOUND:                -0.833
REMARK SMILES CCCCCCCCC(=O)NCc1ccc(O)c(OC)c1
REMARK SMILES IDX 7 1 6 2 5 3 4 4 3 5 2 6 1 7 8 8 9 9 10 10 11 11 12 13 13 14
REMARK SMILES IDX 21 15 14 16 18 17 15 18 16 19 19 20 20 21 17 22
REMARK H PARENT 11 12 17 23
REMARK Flexibility Score: inf
ROOT
ATOM      1  C   UNL     1      93.102  97.697  75.451  1.00  0.00     0.010 C 
ENDROOT
BRANCH   1   2
ATOM      2  C   UNL     1      94.411  96.858  75.507  1.00  0.00     0.001 C 
BRANCH   2   3
ATOM      3  C   UNL     1      94.348  95.739  76.587  1.00  0.00     0.000 C 
BRANCH   3   4
ATOM      4  C   UNL     1      92.968  95.026  76.672  1.00  0.00    -0.000 C 
BRANCH   4   5
ATOM      5  C   UNL     1      92.224  95.315  78.007  1.00  0.00    -0.000 C 
BRANCH   5   6
ATOM      6  C   UNL     1      90.795  95.879  77.782  1.00  0.00    -0.003 C 
ATOM      7  C   UNL     1      89.835  94.847  77.150  1.00  0.00     0.004 C 
ENDBRANCH   5   6
ENDBRANCH   4   5
ENDBRANCH   3   4
ENDBRANCH   2   3
ENDBRANCH   1   2
BRANCH   1   8
ATOM      8  C   UNL     1      93.340  99.232  75.380  1.00  0.00     0.100 C 
BRANCH   8   9
ATOM      9  C   UNL     1      93.676  99.662  74.002  1.00  0.00     0.220 C 
ATOM     10  O   UNL     1      94.881  99.654  73.654  1.00  0.00    -0.275 OA
ATOM     11  N   UNL     1      92.692 100.030  73.130  1.00  0.00    -0.352 N 
ATOM     12  H   UNL     1      91.770 100.083  73.539  1.00  0.00     0.163 HD
BRANCH  11  13
ATOM     13  C   UNL     1      92.873 100.328  71.742  1.00  0.00     0.151 C 
BRANCH  13  14
ATOM     14  C   UNL     1      91.643 100.154  70.924  1.00  0.00    -0.025 A 
ATOM     15  C   UNL     1      90.849  98.991  71.070  1.00  0.00     0.056 A 
ATOM     16  C   UNL     1      91.246 101.138  69.990  1.00  0.00     0.009 A 
ATOM     17  C   UNL     1      89.668  98.820  70.312  1.00  0.00     0.160 A 
ATOM     18  C   UNL     1      90.072 100.974  69.234  1.00  0.00     0.050 A 
ATOM     19  C   UNL     1      89.286  99.816  69.385  1.00  0.00     0.157 A 
BRANCH  17  20
ATOM     20  O   UNL     1      88.923  97.673  70.423  1.00  0.00    -0.493 OA
ATOM     21  C   UNL     1      89.693  96.460  70.340  1.00  0.00     0.278 C 
ENDBRANCH  17  20
BRANCH  19  22
ATOM     22  O   UNL     1      88.169  99.654  68.631  1.00  0.00    -0.504 OA
ATOM     23  H   UNL     1      87.478 100.239  68.952  1.00  0.00     0.293 HD
ENDBRANCH  19  22
ENDBRANCH  13  14
ENDBRANCH  11  13
ENDBRANCH   8   9
ENDBRANCH   1   8
TORSDOF 11
ENDMDL
MODEL 6
REMARK VINA RESULT:    -5.364      5.806      7.877
REMARK INTER + INTRA:          -9.489
REMARK INTER:                  -8.394
REMARK INTRA:                  -1.096
REMARK UNBOUND:                -0.833
REMARK SMILES CCCCCCCCC(=O)NCc1ccc(O)c(OC)c1
REMARK SMILES IDX 7 1 6 2 5 3 4 4 3 5 2 6 1 7 8 8 9 9 10 10 11 11 12 13 13 14
REMARK SMILES IDX 21 15 14 16 18 17 15 18 16 19 19 20 20 21 17 22
REMARK H PARENT 11 12 17 23
REMARK Flexibility Score: inf
ROOT
ATOM      1  C   UNL     1      90.759  99.162  71.154  1.00  0.00     0.010 C 
ENDROOT
BRANCH   1   2
ATOM      2  C   UNL     1      89.273  98.713  71.050  1.00  0.00     0.001 C 
BRANCH   2   3
ATOM      3  C   UNL     1      89.056  97.648  69.934  1.00  0.00     0.000 C 
BRANCH   3   4
ATOM      4  C   UNL     1      88.312  98.194  68.683  1.00  0.00    -0.000 C 
BRANCH   4   5
ATOM      5  C   UNL     1      89.279  98.568  67.524  1.00  0.00    -0.000 C 
BRANCH   5   6
ATOM      6  C   UNL     1      89.662 100.072  67.528  1.00  0.00    -0.003 C 
ATOM      7  C   UNL     1      88.490 100.988  67.944  1.00  0.00     0.004 C 
ENDBRANCH   5   6
ENDBRANCH   4   5
ENDBRANCH   3   4
ENDBRANCH   2   3
ENDBRANCH   1   2
BRANCH   1   8
ATOM      8  C   UNL     1      90.952 100.705  71.139  1.00  0.00     0.100 C 
BRANCH   8   9
ATOM      9  C   UNL     1      91.596 101.180  72.388  1.00  0.00     0.220 C 
ATOM     10  O   UNL     1      91.048 102.112  73.022  1.00  0.00    -0.275 OA
ATOM     11  N   UNL     1      92.741 100.592  72.844  1.00  0.00    -0.352 N 
ATOM     12  H   UNL     1      93.142  99.913  72.214  1.00  0.00     0.163 HD
BRANCH  11  13
ATOM     13  C   UNL     1      93.376 100.863  74.098  1.00  0.00     0.151 C 
BRANCH  13  14
ATOM     14  C   UNL     1      93.672  99.644  74.897  1.00  0.00    -0.025 A 
ATOM     15  C   UNL     1      94.926  99.499  75.538  1.00  0.00     0.056 A 
ATOM     16  C   UNL     1      92.715  98.611  75.029  1.00  0.00     0.009 A 
ATOM     17  C   UNL     1      95.215  98.354  76.315  1.00  0.00     0.160 A 
ATOM     18  C   UNL     1      92.996  97.470  75.802  1.00  0.00     0.050 A 
ATOM     19  C   UNL     1      94.245  97.334  76.439  1.00  0.00     0.157 A 
BRANCH  17  20
ATOM     20  O   UNL     1      96.446  98.196  76.901  1.00  0.00    -0.493 OA
ATOM     21  C   UNL     1      97.471  99.044  76.354  1.00  0.00     0.278 C 
ENDBRANCH  17  20
BRANCH  19  22
ATOM     22  O   UNL     1      94.517  96.216  77.160  1.00  0.00    -0.504 OA
ATOM     23  H   UNL     1      95.416  95.932  76.982  1.00  0.00     0.293 HD
ENDBRANCH  19  22
ENDBRANCH  13  14
ENDBRANCH  11  13
ENDBRANCH   8   9
ENDBRANCH   1   8
TORSDOF 11
ENDMDL
MODEL 7
REMARK VINA RESULT:    -5.349      2.640      4.893
REMARK INTER + INTRA:          -9.466
REMARK INTER:                  -8.450
REMARK INTRA:                  -1.016
REMARK UNBOUND:                -0.833
REMARK SMILES CCCCCCCCC(=O)NCc1ccc(O)c(OC)c1
REMARK SMILES IDX 7 1 6 2 5 3 4 4 3 5 2 6 1 7 8 8 9 9 10 10 11 11 12 13 13 14
REMARK SMILES IDX 21 15 14 16 18 17 15 18 16 19 19 20 20 21 17 22
REMARK H PARENT 11 12 17 23
REMARK Flexibility Score: inf
ROOT
ATOM      1  C   UNL     1      94.360  94.188  79.354  1.00  0.00     0.010 C 
ENDROOT
BRANCH   1   2
ATOM      2  C   UNL     1      92.835  94.283  79.057  1.00  0.00     0.001 C 
BRANCH   2   3
ATOM      3  C   UNL     1      92.458  95.608  78.331  1.00  0.00     0.000 C 
BRANCH   3   4
ATOM      4  C   UNL     1      92.515  95.511  76.780  1.00  0.00    -0.000 C 
BRANCH   4   5
ATOM      5  C   UNL     1      93.912  95.884  76.206  1.00  0.00    -0.000 C 
BRANCH   5   6
ATOM      6  C   UNL     1      94.356  97.318  76.604  1.00  0.00    -0.003 C 
ATOM      7  C   UNL     1      95.542  97.326  77.593  1.00  0.00     0.004 C 
ENDBRANCH   5   6
ENDBRANCH   4   5
ENDBRANCH   3   4
ENDBRANCH   2   3
ENDBRANCH   1   2
BRANCH   1   8
ATOM      8  C   UNL     1      94.708  93.288  80.572  1.00  0.00     0.100 C 
BRANCH   8   9
ATOM      9  C   UNL     1      95.455  94.043  81.606  1.00  0.00     0.220 C 
ATOM     10  O   UNL     1      95.244  93.770  82.812  1.00  0.00    -0.275 OA
ATOM     11  N   UNL     1      96.370  94.992  81.248  1.00  0.00    -0.352 N 
ATOM     12  H   UNL     1      96.397  95.192  80.259  1.00  0.00     0.163 HD
BRANCH  11  13
ATOM     13  C   UNL     1      97.249  95.684  82.139  1.00  0.00     0.151 C 
BRANCH  13  14
ATOM     14  C   UNL     1      96.700  96.969  82.649  1.00  0.00    -0.025 A 
ATOM     15  C   UNL     1      96.953  97.373  83.982  1.00  0.00     0.056 A 
ATOM     16  C   UNL     1      95.916  97.804  81.820  1.00  0.00     0.009 A 
ATOM     17  C   UNL     1      96.451  98.599  84.475  1.00  0.00     0.160 A 
ATOM     18  C   UNL     1      95.415  99.026  82.304  1.00  0.00     0.050 A 
ATOM     19  C   UNL     1      95.673  99.423  83.630  1.00  0.00     0.157 A 
BRANCH  17  20
ATOM     20  O   UNL     1      96.662  98.969  85.779  1.00  0.00    -0.493 OA
ATOM     21  C   UNL     1      96.109  98.059  86.746  1.00  0.00     0.278 C 
ENDBRANCH  17  20
BRANCH  19  22
ATOM     22  O   UNL     1      95.163 100.591  84.097  1.00  0.00    -0.504 OA
ATOM     23  H   UNL     1      94.281 100.720  83.739  1.00  0.00     0.293 HD
ENDBRANCH  19  22
ENDBRANCH  13  14
ENDBRANCH  11  13
ENDBRANCH   8   9
ENDBRANCH   1   8
TORSDOF 11
ENDMDL
MODEL 8
REMARK VINA RESULT:    -5.332     21.923     25.179
REMARK INTER + INTRA:          -9.438
REMARK INTER:                  -7.985
REMARK INTRA:                  -1.454
REMARK UNBOUND:                -0.833
REMARK SMILES CCCCCCCCC(=O)NCc1ccc(O)c(OC)c1
REMARK SMILES IDX 7 1 6 2 5 3 4 4 3 5 2 6 1 7 8 8 9 9 10 10 11 11 12 13 13 14
REMARK SMILES IDX 21 15 14 16 18 17 15 18 16 19 19 20 20 21 17 22
REMARK H PARENT 11 12 17 23
REMARK Flexibility Score: inf
ROOT
ATOM      1  C   UNL     1      75.359  80.913  63.968  1.00  0.00     0.010 C 
ENDROOT
BRANCH   1   2
ATOM      2  C   UNL     1      73.912  81.290  63.539  1.00  0.00     0.001 C 
BRANCH   2   3
ATOM      3  C   UNL     1      73.384  82.548  64.290  1.00  0.00     0.000 C 
BRANCH   3   4
ATOM      4  C   UNL     1      72.174  82.259  65.223  1.00  0.00    -0.000 C 
BRANCH   4   5
ATOM      5  C   UNL     1      72.289  82.980  66.596  1.00  0.00    -0.000 C 
BRANCH   5   6
ATOM      6  C   UNL     1      73.000  84.357  66.488  1.00  0.00    -0.003 C 
ATOM      7  C   UNL     1      74.279  84.441  67.349  1.00  0.00     0.004 C 
ENDBRANCH   5   6
ENDBRANCH   4   5
ENDBRANCH   3   4
ENDBRANCH   2   3
ENDBRANCH   1   2
BRANCH   1   8
ATOM      8  C   UNL     1      75.748  81.420  65.386  1.00  0.00     0.100 C 
BRANCH   8   9
ATOM      9  C   UNL     1      76.784  82.478  65.316  1.00  0.00     0.220 C 
ATOM     10  O   UNL     1      76.915  83.112  64.241  1.00  0.00    -0.275 OA
ATOM     11  N   UNL     1      77.552  82.770  66.406  1.00  0.00    -0.352 N 
ATOM     12  H   UNL     1      77.424  82.143  67.187  1.00  0.00     0.163 HD
BRANCH  11  13
ATOM     13  C   UNL     1      78.480  83.854  66.508  1.00  0.00     0.151 C 
BRANCH  13  14
ATOM     14  C   UNL     1      78.027  84.951  67.404  1.00  0.00    -0.025 A 
ATOM     15  C   UNL     1      77.495  86.144  66.858  1.00  0.00     0.056 A 
ATOM     16  C   UNL     1      78.121  84.827  68.810  1.00  0.00     0.009 A 
ATOM     17  C   UNL     1      77.044  87.188  67.698  1.00  0.00     0.160 A 
ATOM     18  C   UNL     1      77.673  85.862  69.650  1.00  0.00     0.050 A 
ATOM     19  C   UNL     1      77.142  87.044  69.100  1.00  0.00     0.157 A 
BRANCH  17  20
ATOM     20  O   UNL     1      76.568  88.360  67.166  1.00  0.00    -0.493 OA
ATOM     21  C   UNL     1      75.222  88.275  66.664  1.00  0.00     0.278 C 
ENDBRANCH  17  20
BRANCH  19  22
ATOM     22  O   UNL     1      76.738  88.048  69.919  1.00  0.00    -0.504 OA
ATOM     23  H   UNL     1      77.156  88.870  69.649  1.00  0.00     0.293 HD
ENDBRANCH  19  22
ENDBRANCH  13  14
ENDBRANCH  11  13
ENDBRANCH   8   9
ENDBRANCH   1   8
TORSDOF 11
ENDMDL
MODEL 9
REMARK VINA RESULT:    -5.219      3.236      7.109
REMARK INTER + INTRA:          -9.256
REMARK INTER:                  -8.515
REMARK INTRA:                  -0.741
REMARK UNBOUND:                -0.833
REMARK SMILES CCCCCCCCC(=O)NCc1ccc(O)c(OC)c1
REMARK SMILES IDX 7 1 6 2 5 3 4 4 3 5 2 6 1 7 8 8 9 9 10 10 11 11 12 13 13 14
REMARK SMILES IDX 21 15 14 16 18 17 15 18 16 19 19 20 20 21 17 22
REMARK H PARENT 11 12 17 23
REMARK Flexibility Score: inf
ROOT
ATOM      1  C   UNL     1      94.852  97.221  81.547  1.00  0.00     0.010 C 
ENDROOT
BRANCH   1   2
ATOM      2  C   UNL     1      96.068  98.188  81.635  1.00  0.00     0.001 C 
BRANCH   2   3
ATOM      3  C   UNL     1      95.714  99.515  82.370  1.00  0.00     0.000 C 
BRANCH   3   4
ATOM      4  C   UNL     1      95.670 100.757  81.436  1.00  0.00    -0.000 C 
BRANCH   4   5
ATOM      5  C   UNL     1      94.917 101.960  82.071  1.00  0.00    -0.000 C 
BRANCH   5   6
ATOM      6  C   UNL     1      94.074 101.549  83.308  1.00  0.00    -0.003 C 
ATOM      7  C   UNL     1      93.603 102.760  84.143  1.00  0.00     0.004 C 
ENDBRANCH   5   6
ENDBRANCH   4   5
ENDBRANCH   3   4
ENDBRANCH   2   3
ENDBRANCH   1   2
BRANCH   1   8
ATOM      8  C   UNL     1      95.209  95.734  81.826  1.00  0.00     0.100 C 
BRANCH   8   9
ATOM      9  C   UNL     1      94.909  94.879  80.652  1.00  0.00     0.220 C 
ATOM     10  O   UNL     1      94.490  93.714  80.856  1.00  0.00    -0.275 OA
ATOM     11  N   UNL     1      95.060  95.362  79.384  1.00  0.00    -0.352 N 
ATOM     12  H   UNL     1      95.484  96.277  79.334  1.00  0.00     0.163 HD
BRANCH  11  13
ATOM     13  C   UNL     1      94.673  94.690  78.182  1.00  0.00     0.151 C 
BRANCH  13  14
ATOM     14  C   UNL     1      93.225  94.810  77.865  1.00  0.00    -0.025 A 
ATOM     15  C   UNL     1      92.509  93.694  77.371  1.00  0.00     0.056 A 
ATOM     16  C   UNL     1      92.541  96.035  78.046  1.00  0.00     0.009 A 
ATOM     17  C   UNL     1      91.128  93.789  77.081  1.00  0.00     0.160 A 
ATOM     18  C   UNL     1      91.167  96.135  77.761  1.00  0.00     0.050 A 
ATOM     19  C   UNL     1      90.460  95.020  77.272  1.00  0.00     0.157 A 
BRANCH  17  20
ATOM     20  O   UNL     1      90.445  92.718  76.563  1.00  0.00    -0.493 OA
ATOM     21  C   UNL     1      91.157  92.007  75.534  1.00  0.00     0.278 C 
ENDBRANCH  17  20
BRANCH  19  22
ATOM     22  O   UNL     1      89.141  95.134  76.974  1.00  0.00    -0.504 OA
ATOM     23  H   UNL     1      88.764  95.868  77.466  1.00  0.00     0.293 HD
ENDBRANCH  19  22
ENDBRANCH  13  14
ENDBRANCH  11  13
ENDBRANCH   8   9
ENDBRANCH   1   8
TORSDOF 11
ENDMDL
MODEL 10
REMARK VINA RESULT:    -5.108     29.819     33.265
REMARK INTER + INTRA:          -9.076
REMARK INTER:                  -7.617
REMARK INTRA:                  -1.459
REMARK UNBOUND:                -0.833
REMARK SMILES CCCCCCCCC(=O)NCc1ccc(O)c(OC)c1
REMARK SMILES IDX 7 1 6 2 5 3 4 4 3 5 2 6 1 7 8 8 9 9 10 10 11 11 12 13 13 14
REMARK SMILES IDX 21 15 14 16 18 17 15 18 16 19 19 20 20 21 17 22
REMARK H PARENT 11 12 17 23
REMARK Flexibility Score: inf
ROOT
ATOM      1  C   UNL     1      64.433  84.212  77.814  1.00  0.00     0.010 C 
ENDROOT
BRANCH   1   2
ATOM      2  C   UNL     1      65.426  85.183  78.515  1.00  0.00     0.001 C 
BRANCH   2   3
ATOM      3  C   UNL     1      66.897  84.678  78.438  1.00  0.00     0.000 C 
BRANCH   3   4
ATOM      4  C   UNL     1      67.760  85.421  77.380  1.00  0.00    -0.000 C 
BRANCH   4   5
ATOM      5  C   UNL     1      67.802  84.680  76.013  1.00  0.00    -0.000 C 
BRANCH   5   6
ATOM      6  C   UNL     1      67.069  85.461  74.889  1.00  0.00    -0.003 C 
ATOM      7  C   UNL     1      65.722  84.819  74.493  1.00  0.00     0.004 C 
ENDBRANCH   5   6
ENDBRANCH   4   5
ENDBRANCH   3   4
ENDBRANCH   2   3
ENDBRANCH   1   2
BRANCH   1   8
ATOM      8  C   UNL     1      62.955  84.693  77.843  1.00  0.00     0.100 C 
BRANCH   8   9
ATOM      9  C   UNL     1      62.366  84.710  76.482  1.00  0.00     0.220 C 
ATOM     10  O   UNL     1      62.422  85.776  75.823  1.00  0.00    -0.275 OA
ATOM     11  N   UNL     1      61.805  83.583  75.955  1.00  0.00    -0.352 N 
ATOM     12  H   UNL     1      61.735  82.810  76.600  1.00  0.00     0.163 HD
BRANCH  11  13
ATOM     13  C   UNL     1      61.334  83.434  74.612  1.00  0.00     0.151 C 
BRANCH  13  14
ATOM     14  C   UNL     1      62.343  82.862  73.681  1.00  0.00    -0.025 A 
ATOM     15  C   UNL     1      62.612  83.496  72.444  1.00  0.00     0.056 A 
ATOM     16  C   UNL     1      63.046  81.680  74.008  1.00  0.00     0.009 A 
ATOM     17  C   UNL     1      63.580  82.974  71.557  1.00  0.00     0.160 A 
ATOM     18  C   UNL     1      64.011  81.156  73.130  1.00  0.00     0.050 A 
ATOM     19  C   UNL     1      64.276  81.793  71.903  1.00  0.00     0.157 A 
BRANCH  17  20
ATOM     20  O   UNL     1      63.809  83.566  70.340  1.00  0.00    -0.493 OA
ATOM     21  C   UNL     1      64.127  84.967  70.418  1.00  0.00     0.278 C 
ENDBRANCH  17  20
BRANCH  19  22
ATOM     22  O   UNL     1      65.190  81.264  71.050  1.00  0.00    -0.504 OA
ATOM     23  H   UNL     1      66.070  81.548  71.309  1.00  0.00     0.293 HD
ENDBRANCH  19  22
ENDBRANCH  13  14
ENDBRANCH  11  13
ENDBRANCH   8   9
ENDBRANCH   1   8
TORSDOF 11
ENDMDL
