MODEL 1
REMARK VINA RESULT:    -7.267      0.000      0.000
REMARK INTER + INTRA:          -8.914
REMARK INTER:                  -8.542
REMARK INTRA:                  -0.372
REMARK UNBOUND:                -0.372
REMARK SMILES O=C(/C=C/C=C/c1ccc2c(c1)OCO2)N1CCCCC1
REMARK SMILES IDX 3 1 4 2 2 3 1 4 16 5 17 6 21 7 18 8 20 9 19 10 5 11 6 12
REMARK SMILES IDX 7 13 12 14 8 15 11 16 9 17 13 18 10 19 14 20 15 21
REMARK H PARENT
REMARK Flexibility Score: inf
ROOT
ATOM      1  C   UNL     1      97.383  81.656  78.848  1.00  0.00     0.071 C 
ATOM      2  C   UNL     1      97.583  80.919  79.939  1.00  0.00     0.006 C 
ENDROOT
BRANCH   1   3
ATOM      3  C   UNL     1      98.226  81.391  77.666  1.00  0.00     0.246 C 
ATOM      4  O   UNL     1      99.151  80.587  77.795  1.00  0.00    -0.270 OA
ATOM      5  N   UNL     1      97.923  82.069  76.486  1.00  0.00    -0.339 N 
ATOM      6  C   UNL     1      98.745  81.830  75.297  1.00  0.00     0.120 C 
ATOM      7  C   UNL     1      96.857  83.066  76.307  1.00  0.00     0.120 C 
ATOM      8  C   UNL     1      97.888  81.452  74.093  1.00  0.00     0.022 C 
ATOM      9  C   UNL     1      95.976  82.724  75.105  1.00  0.00     0.022 C 
ATOM     10  C   UNL     1      96.806  82.498  73.844  1.00  0.00     0.004 C 
ENDBRANCH   1   3
BRANCH   2  11
ATOM     11  C   UNL     1      96.808  81.105  81.147  1.00  0.00     0.001 C 
ATOM     12  C   UNL     1      96.767  82.271  81.812  1.00  0.00     0.008 C 
BRANCH  12  13
ATOM     13  C   UNL     1      96.003  82.512  83.047  1.00  0.00    -0.022 A 
ATOM     14  C   UNL     1      95.950  83.798  83.569  1.00  0.00     0.058 A 
ATOM     15  C   UNL     1      95.352  81.439  83.662  1.00  0.00     0.012 A 
ATOM     16  C   UNL     1      95.221  83.974  84.727  1.00  0.00     0.166 A 
ATOM     17  C   UNL     1      94.621  81.646  84.834  1.00  0.00     0.051 A 
ATOM     18  O   UNL     1      95.050  85.150  85.391  1.00  0.00    -0.454 OA
ATOM     19  C   UNL     1      94.574  82.927  85.343  1.00  0.00     0.165 A 
ATOM     20  C   UNL     1      94.223  84.726  86.493  1.00  0.00     0.468 C 
ATOM     21  O   UNL     1      93.917  83.316  86.469  1.00  0.00    -0.454 OA
ENDBRANCH  12  13
ENDBRANCH   2  11
TORSDOF 3
ENDMDL
MODEL 2
REMARK VINA RESULT:    -7.082      2.825      9.243
REMARK INTER + INTRA:          -8.697
REMARK INTER:                  -8.367
REMARK INTRA:                  -0.329
REMARK UNBOUND:                -0.372
REMARK SMILES O=C(/C=C/C=C/c1ccc2c(c1)OCO2)N1CCCCC1
REMARK SMILES IDX 3 1 4 2 2 3 1 4 16 5 17 6 21 7 18 8 20 9 19 10 5 11 6 12
REMARK SMILES IDX 7 13 12 14 8 15 11 16 9 17 13 18 10 19 14 20 15 21
REMARK H PARENT
REMARK Flexibility Score: inf
ROOT
ATOM      1  C   UNL     1      95.846  81.997  83.311  1.00  0.00     0.071 C 
ATOM      2  C   UNL     1      96.857  82.072  82.447  1.00  0.00     0.006 C 
ENDROOT
BRANCH   1   3
ATOM      3  C   UNL     1      96.156  81.659  84.714  1.00  0.00     0.246 C 
ATOM      4  O   UNL     1      97.208  81.057  84.936  1.00  0.00    -0.270 OA
ATOM      5  N   UNL     1      95.237  82.037  85.691  1.00  0.00    -0.339 N 
ATOM      6  C   UNL     1      95.515  81.710  87.093  1.00  0.00     0.120 C 
ATOM      7  C   UNL     1      93.953  82.715  85.461  1.00  0.00     0.120 C 
ATOM      8  C   UNL     1      95.420  82.945  87.983  1.00  0.00     0.022 C 
ATOM      9  C   UNL     1      93.818  83.959  86.339  1.00  0.00     0.022 C 
ATOM     10  C   UNL     1      94.074  83.642  87.810  1.00  0.00     0.004 C 
ENDBRANCH   1   3
BRANCH   2  11
ATOM     11  C   UNL     1      96.653  82.396  81.051  1.00  0.00     0.001 C 
ATOM     12  C   UNL     1      97.264  81.735  80.054  1.00  0.00     0.008 C 
BRANCH  12  13
ATOM     13  C   UNL     1      97.100  82.028  78.621  1.00  0.00    -0.022 A 
ATOM     14  C   UNL     1      98.161  81.794  77.757  1.00  0.00     0.058 A 
ATOM     15  C   UNL     1      95.878  82.535  78.169  1.00  0.00     0.012 A 
ATOM     16  C   UNL     1      97.958  82.084  76.423  1.00  0.00     0.166 A 
ATOM     17  C   UNL     1      95.701  82.820  76.813  1.00  0.00     0.051 A 
ATOM     18  O   UNL     1      98.870  81.926  75.425  1.00  0.00    -0.454 OA
ATOM     19  C   UNL     1      96.761  82.583  75.963  1.00  0.00     0.165 A 
ATOM     20  C   UNL     1      98.113  82.382  74.286  1.00  0.00     0.468 C 
ATOM     21  O   UNL     1      96.773  82.800  74.620  1.00  0.00    -0.454 OA
ENDBRANCH  12  13
ENDBRANCH   2  11
TORSDOF 3
ENDMDL
MODEL 3
REMARK VINA RESULT:    -6.977      2.734      4.134
REMARK INTER + INTRA:          -8.573
REMARK INTER:                  -8.183
REMARK INTRA:                  -0.390
REMARK UNBOUND:                -0.372
REMARK SMILES O=C(/C=C/C=C/c1ccc2c(c1)OCO2)N1CCCCC1
REMARK SMILES IDX 3 1 4 2 2 3 1 4 16 5 17 6 21 7 18 8 20 9 19 10 5 11 6 12
REMARK SMILES IDX 7 13 12 14 8 15 11 16 9 17 13 18 10 19 14 20 15 21
REMARK H PARENT
REMARK Flexibility Score: inf
ROOT
ATOM      1  C   UNL     1      97.637  82.431  76.257  1.00  0.00     0.071 C 
ATOM      2  C   UNL     1      96.482  82.388  76.919  1.00  0.00     0.006 C 
ENDROOT
BRANCH   1   3
ATOM      3  C   UNL     1      97.590  82.534  74.785  1.00  0.00     0.246 C 
ATOM      4  O   UNL     1      96.482  82.509  74.248  1.00  0.00    -0.270 OA
ATOM      5  N   UNL     1      98.800  82.646  74.102  1.00  0.00    -0.339 N 
ATOM      6  C   UNL     1      98.786  82.744  72.640  1.00  0.00     0.120 C 
ATOM      7  C   UNL     1     100.142  82.633  74.704  1.00  0.00     0.120 C 
ATOM      8  C   UNL     1      99.577  83.955  72.155  1.00  0.00     0.022 C 
ATOM      9  C   UNL     1     100.969  83.832  74.239  1.00  0.00     0.022 C 
ATOM     10  C   UNL     1     100.995  83.942  72.717  1.00  0.00     0.004 C 
ENDBRANCH   1   3
BRANCH   2  11
ATOM     11  C   UNL     1      96.426  82.287  78.362  1.00  0.00     0.001 C 
ATOM     12  C   UNL     1      97.398  81.712  79.088  1.00  0.00     0.008 C 
BRANCH  12  13
ATOM     13  C   UNL     1      97.388  81.575  80.555  1.00  0.00    -0.022 A 
ATOM     14  C   UNL     1      98.216  80.635  81.151  1.00  0.00     0.058 A 
ATOM     15  C   UNL     1      96.543  82.397  81.306  1.00  0.00     0.012 A 
ATOM     16  C   UNL     1      98.172  80.545  82.528  1.00  0.00     0.166 A 
ATOM     17  C   UNL     1      96.518  82.285  82.697  1.00  0.00     0.051 A 
ATOM     18  O   UNL     1      98.902  79.690  83.296  1.00  0.00    -0.454 OA
ATOM     19  C   UNL     1      97.345  81.348  83.280  1.00  0.00     0.165 A 
ATOM     20  C   UNL     1      98.442  80.045  84.615  1.00  0.00     0.468 C 
ATOM     21  O   UNL     1      97.455  81.097  84.613  1.00  0.00    -0.454 OA
ENDBRANCH  12  13
ENDBRANCH   2  11
TORSDOF 3
ENDMDL
MODEL 4
REMARK VINA RESULT:    -6.945     16.023     17.621
REMARK INTER + INTRA:          -8.535
REMARK INTER:                  -8.134
REMARK INTRA:                  -0.401
REMARK UNBOUND:                -0.372
REMARK SMILES O=C(/C=C/C=C/c1ccc2c(c1)OCO2)N1CCCCC1
REMARK SMILES IDX 3 1 4 2 2 3 1 4 16 5 17 6 21 7 18 8 20 9 19 10 5 11 6 12
REMARK SMILES IDX 7 13 12 14 8 15 11 16 9 17 13 18 10 19 14 20 15 21
REMARK H PARENT
REMARK Flexibility Score: inf
ROOT
ATOM      1  C   UNL     1      92.652  99.043  72.081  1.00  0.00     0.071 C 
ATOM      2  C   UNL     1      93.680  99.303  72.886  1.00  0.00     0.006 C 
ENDROOT
BRANCH   1   3
ATOM      3  C   UNL     1      92.274 100.065  71.084  1.00  0.00     0.246 C 
ATOM      4  O   UNL     1      93.075 100.977  70.873  1.00  0.00    -0.270 OA
ATOM      5  N   UNL     1      91.038  99.933  70.455  1.00  0.00    -0.339 N 
ATOM      6  C   UNL     1      90.632 100.936  69.465  1.00  0.00     0.120 C 
ATOM      7  C   UNL     1      90.038  98.886  70.713  1.00  0.00     0.120 C 
ATOM      8  C   UNL     1      90.221 100.285  68.149  1.00  0.00     0.022 C 
ATOM      9  C   UNL     1      89.596  98.210  69.415  1.00  0.00     0.022 C 
ATOM     10  C   UNL     1      89.142  99.230  68.375  1.00  0.00     0.004 C 
ENDBRANCH   1   3
BRANCH   2  11
ATOM     11  C   UNL     1      94.124  98.364  73.894  1.00  0.00     0.001 C 
ATOM     12  C   UNL     1      93.331  97.401  74.390  1.00  0.00     0.008 C 
BRANCH  12  13
ATOM     13  C   UNL     1      93.729  96.427  75.420  1.00  0.00    -0.022 A 
ATOM     14  C   UNL     1      92.744  95.731  76.108  1.00  0.00     0.058 A 
ATOM     15  C   UNL     1      95.088  96.229  75.677  1.00  0.00     0.012 A 
ATOM     16  C   UNL     1      93.166  94.829  77.063  1.00  0.00     0.166 A 
ATOM     17  C   UNL     1      95.487  95.309  76.649  1.00  0.00     0.051 A 
ATOM     18  O   UNL     1      92.361  94.055  77.842  1.00  0.00    -0.454 OA
ATOM     19  C   UNL     1      94.501  94.624  77.327  1.00  0.00     0.165 A 
ATOM     20  C   UNL     1      93.338  93.340  78.624  1.00  0.00     0.468 C 
ATOM     21  O   UNL     1      94.699  93.696  78.302  1.00  0.00    -0.454 OA
ENDBRANCH  12  13
ENDBRANCH   2  11
TORSDOF 3
ENDMDL
MODEL 5
REMARK VINA RESULT:    -6.928     13.906     15.238
REMARK INTER + INTRA:          -8.515
REMARK INTER:                  -8.111
REMARK INTRA:                  -0.404
REMARK UNBOUND:                -0.372
REMARK SMILES O=C(/C=C/C=C/c1ccc2c(c1)OCO2)N1CCCCC1
REMARK SMILES IDX 3 1 4 2 2 3 1 4 16 5 17 6 21 7 18 8 20 9 19 10 5 11 6 12
REMARK SMILES IDX 7 13 12 14 8 15 11 16 9 17 13 18 10 19 14 20 15 21
REMARK H PARENT
REMARK Flexibility Score: inf
ROOT
ATOM      1  C   UNL     1      94.861  97.834  73.555  1.00  0.00     0.071 C 
ATOM      2  C   UNL     1      93.675  97.449  74.024  1.00  0.00     0.006 C 
ENDROOT
BRANCH   1   3
ATOM      3  C   UNL     1      94.891  98.640  72.319  1.00  0.00     0.246 C 
ATOM      4  O   UNL     1      94.442  99.786  72.375  1.00  0.00    -0.270 OA
ATOM      5  N   UNL     1      95.419  98.051  71.171  1.00  0.00    -0.339 N 
ATOM      6  C   UNL     1      95.457  98.825  69.927  1.00  0.00     0.120 C 
ATOM      7  C   UNL     1      95.921  96.674  71.055  1.00  0.00     0.120 C 
ATOM      8  C   UNL     1      96.856  98.839  69.323  1.00  0.00     0.022 C 
ATOM      9  C   UNL     1      97.324  96.646  70.448  1.00  0.00     0.022 C 
ATOM     10  C   UNL     1      97.386  97.421  69.135  1.00  0.00     0.004 C 
ENDBRANCH   1   3
BRANCH   2  11
ATOM     11  C   UNL     1      93.544  96.656  75.228  1.00  0.00     0.001 C 
ATOM     12  C   UNL     1      94.425  95.702  75.569  1.00  0.00     0.008 C 
BRANCH  12  13
ATOM     13  C   UNL     1      94.336  94.863  76.776  1.00  0.00    -0.022 A 
ATOM     14  C   UNL     1      95.446  94.745  77.601  1.00  0.00     0.058 A 
ATOM     15  C   UNL     1      93.134  94.208  77.058  1.00  0.00     0.012 A 
ATOM     16  C   UNL     1      95.313  93.948  78.719  1.00  0.00     0.166 A 
ATOM     17  C   UNL     1      93.027  93.408  78.197  1.00  0.00     0.051 A 
ATOM     18  O   UNL     1      96.281  93.705  79.645  1.00  0.00    -0.454 OA
ATOM     19  C   UNL     1      94.136  93.297  79.010  1.00  0.00     0.165 A 
ATOM     20  C   UNL     1      95.580  92.828  80.551  1.00  0.00     0.468 C 
ATOM     21  O   UNL     1      94.219  92.565  80.154  1.00  0.00    -0.454 OA
ENDBRANCH  12  13
ENDBRANCH   2  11
TORSDOF 3
ENDMDL
MODEL 6
REMARK VINA RESULT:    -6.899      1.877      2.669
REMARK INTER + INTRA:          -8.481
REMARK INTER:                  -8.139
REMARK INTRA:                  -0.343
REMARK UNBOUND:                -0.372
REMARK SMILES O=C(/C=C/C=C/c1ccc2c(c1)OCO2)N1CCCCC1
REMARK SMILES IDX 3 1 4 2 2 3 1 4 16 5 17 6 21 7 18 8 20 9 19 10 5 11 6 12
REMARK SMILES IDX 7 13 12 14 8 15 11 16 9 17 13 18 10 19 14 20 15 21
REMARK H PARENT
REMARK Flexibility Score: inf
ROOT
ATOM      1  C   UNL     1      96.747  81.737  77.654  1.00  0.00     0.071 C 
ATOM      2  C   UNL     1      97.419  82.073  78.753  1.00  0.00     0.006 C 
ENDROOT
BRANCH   1   3
ATOM      3  C   UNL     1      97.084  82.429  76.394  1.00  0.00     0.246 C 
ATOM      4  O   UNL     1      96.471  83.464  76.131  1.00  0.00    -0.270 OA
ATOM      5  N   UNL     1      98.068  81.862  75.585  1.00  0.00    -0.339 N 
ATOM      6  C   UNL     1      98.421  82.523  74.325  1.00  0.00     0.120 C 
ATOM      7  C   UNL     1      98.788  80.606  75.842  1.00  0.00     0.120 C 
ATOM      8  C   UNL     1      99.923  82.764  74.223  1.00  0.00     0.022 C 
ATOM      9  C   UNL     1     100.300  80.805  75.746  1.00  0.00     0.022 C 
ATOM     10  C   UNL     1     100.699  81.467  74.430  1.00  0.00     0.004 C 
ENDBRANCH   1   3
BRANCH   2  11
ATOM     11  C   UNL     1      97.160  81.452  80.034  1.00  0.00     0.001 C 
ATOM     12  C   UNL     1      96.627  82.119  81.070  1.00  0.00     0.008 C 
BRANCH  12  13
ATOM     13  C   UNL     1      96.351  81.539  82.395  1.00  0.00    -0.022 A 
ATOM     14  C   UNL     1      96.237  82.382  83.492  1.00  0.00     0.058 A 
ATOM     15  C   UNL     1      96.211  80.153  82.513  1.00  0.00     0.012 A 
ATOM     16  C   UNL     1      95.977  81.792  84.712  1.00  0.00     0.166 A 
ATOM     17  C   UNL     1      95.948  79.583  83.760  1.00  0.00     0.051 A 
ATOM     18  O   UNL     1      95.832  82.443  85.899  1.00  0.00    -0.454 OA
ATOM     19  C   UNL     1      95.837  80.430  84.843  1.00  0.00     0.165 A 
ATOM     20  C   UNL     1      95.585  81.338  86.790  1.00  0.00     0.468 C 
ATOM     21  O   UNL     1      95.586  80.057  86.127  1.00  0.00    -0.454 OA
ENDBRANCH  12  13
ENDBRANCH   2  11
TORSDOF 3
ENDMDL
MODEL 7
REMARK VINA RESULT:    -6.767      3.312      8.859
REMARK INTER + INTRA:          -8.326
REMARK INTER:                  -7.907
REMARK INTRA:                  -0.420
REMARK UNBOUND:                -0.372
REMARK SMILES O=C(/C=C/C=C/c1ccc2c(c1)OCO2)N1CCCCC1
REMARK SMILES IDX 3 1 4 2 2 3 1 4 16 5 17 6 21 7 18 8 20 9 19 10 5 11 6 12
REMARK SMILES IDX 7 13 12 14 8 15 11 16 9 17 13 18 10 19 14 20 15 21
REMARK H PARENT
REMARK Flexibility Score: inf
ROOT
ATOM      1  C   UNL     1      97.595  80.987  82.089  1.00  0.00     0.071 C 
ATOM      2  C   UNL     1      96.851  82.027  81.716  1.00  0.00     0.006 C 
ENDROOT
BRANCH   1   3
ATOM      3  C   UNL     1      97.710  80.696  83.532  1.00  0.00     0.246 C 
ATOM      4  O   UNL     1      98.072  81.613  84.270  1.00  0.00    -0.270 OA
ATOM      5  N   UNL     1      97.407  79.405  83.960  1.00  0.00    -0.339 N 
ATOM      6  C   UNL     1      97.517  79.084  85.386  1.00  0.00     0.120 C 
ATOM      7  C   UNL     1      97.016  78.274  83.104  1.00  0.00     0.120 C 
ATOM      8  C   UNL     1      96.231  78.460  85.918  1.00  0.00     0.022 C 
ATOM      9  C   UNL     1      95.730  77.618  83.608  1.00  0.00     0.022 C 
ATOM     10  C   UNL     1      95.827  77.247  85.085  1.00  0.00     0.004 C 
ENDBRANCH   1   3
BRANCH   2  11
ATOM     11  C   UNL     1      96.679  82.392  80.326  1.00  0.00     0.001 C 
ATOM     12  C   UNL     1      97.269  81.724  79.322  1.00  0.00     0.008 C 
BRANCH  12  13
ATOM     13  C   UNL     1      97.134  82.056  77.893  1.00  0.00    -0.022 A 
ATOM     14  C   UNL     1      98.163  81.725  77.023  1.00  0.00     0.058 A 
ATOM     15  C   UNL     1      95.973  82.697  77.453  1.00  0.00     0.012 A 
ATOM     16  C   UNL     1      97.991  82.056  75.694  1.00  0.00     0.166 A 
ATOM     17  C   UNL     1      95.825  83.021  76.103  1.00  0.00     0.051 A 
ATOM     18  O   UNL     1      98.880  81.819  74.691  1.00  0.00    -0.454 OA
ATOM     19  C   UNL     1      96.853  82.687  75.246  1.00  0.00     0.165 A 
ATOM     20  C   UNL     1      98.173  82.370  73.561  1.00  0.00     0.468 C 
ATOM     21  O   UNL     1      96.886  82.923  73.906  1.00  0.00    -0.454 OA
ENDBRANCH  12  13
ENDBRANCH   2  11
TORSDOF 3
ENDMDL
MODEL 8
REMARK VINA RESULT:    -6.669      2.808      8.903
REMARK INTER + INTRA:          -8.211
REMARK INTER:                  -7.831
REMARK INTRA:                  -0.380
REMARK UNBOUND:                -0.372
REMARK SMILES O=C(/C=C/C=C/c1ccc2c(c1)OCO2)N1CCCCC1
REMARK SMILES IDX 3 1 4 2 2 3 1 4 16 5 17 6 21 7 18 8 20 9 19 10 5 11 6 12
REMARK SMILES IDX 7 13 12 14 8 15 11 16 9 17 13 18 10 19 14 20 15 21
REMARK H PARENT
REMARK Flexibility Score: inf
ROOT
ATOM      1  C   UNL     1      95.680  81.614  83.531  1.00  0.00     0.071 C 
ATOM      2  C   UNL     1      96.468  80.723  82.933  1.00  0.00     0.006 C 
ENDROOT
BRANCH   1   3
ATOM      3  C   UNL     1      95.479  81.495  84.989  1.00  0.00     0.246 C 
ATOM      4  O   UNL     1      95.774  80.423  85.519  1.00  0.00    -0.270 OA
ATOM      5  N   UNL     1      94.965  82.599  85.667  1.00  0.00    -0.339 N 
ATOM      6  C   UNL     1      94.749  82.509  87.114  1.00  0.00     0.120 C 
ATOM      7  C   UNL     1      94.559  83.878  85.063  1.00  0.00     0.120 C 
ATOM      8  C   UNL     1      95.424  83.661  87.851  1.00  0.00     0.022 C 
ATOM      9  C   UNL     1      95.214  85.059  85.778  1.00  0.00     0.022 C 
ATOM     10  C   UNL     1      94.981  85.006  87.285  1.00  0.00     0.004 C 
ENDBRANCH   1   3
BRANCH   2  11
ATOM     11  C   UNL     1      96.726  80.758  81.509  1.00  0.00     0.001 C 
ATOM     12  C   UNL     1      96.772  81.901  80.806  1.00  0.00     0.008 C 
BRANCH  12  13
ATOM     13  C   UNL     1      97.022  81.993  79.358  1.00  0.00    -0.022 A 
ATOM     14  C   UNL     1      96.036  82.520  78.535  1.00  0.00     0.058 A 
ATOM     15  C   UNL     1      98.245  81.546  78.852  1.00  0.00     0.012 A 
ATOM     16  C   UNL     1      96.317  82.586  77.185  1.00  0.00     0.166 A 
ATOM     17  C   UNL     1      98.502  81.624  77.481  1.00  0.00     0.051 A 
ATOM     18  O   UNL     1      95.485  83.066  76.220  1.00  0.00    -0.454 OA
ATOM     19  C   UNL     1      97.517  82.150  76.672  1.00  0.00     0.165 A 
ATOM     20  C   UNL     1      96.297  82.883  75.042  1.00  0.00     0.468 C 
ATOM     21  O   UNL     1      97.588  82.302  75.322  1.00  0.00    -0.454 OA
ENDBRANCH  12  13
ENDBRANCH   2  11
TORSDOF 3
ENDMDL
MODEL 9
REMARK VINA RESULT:    -6.558     12.686     14.927
REMARK INTER + INTRA:          -8.081
REMARK INTER:                  -7.713
REMARK INTRA:                  -0.368
REMARK UNBOUND:                -0.372
REMARK SMILES O=C(/C=C/C=C/c1ccc2c(c1)OCO2)N1CCCCC1
REMARK SMILES IDX 3 1 4 2 2 3 1 4 16 5 17 6 21 7 18 8 20 9 19 10 5 11 6 12
REMARK SMILES IDX 7 13 12 14 8 15 11 16 9 17 13 18 10 19 14 20 15 21
REMARK H PARENT
REMARK Flexibility Score: inf
ROOT
ATOM      1  C   UNL     1      96.397  94.901  80.921  1.00  0.00     0.071 C 
ATOM      2  C   UNL     1      96.437  94.039  79.908  1.00  0.00     0.006 C 
ENDROOT
BRANCH   1   3
ATOM      3  C   UNL     1      97.636  95.125  81.693  1.00  0.00     0.246 C 
ATOM      4  O   UNL     1      98.517  94.268  81.616  1.00  0.00    -0.270 OA
ATOM      5  N   UNL     1      97.724  96.286  82.458  1.00  0.00    -0.339 N 
ATOM      6  C   UNL     1      98.940  96.533  83.239  1.00  0.00     0.120 C 
ATOM      7  C   UNL     1      96.678  97.309  82.610  1.00  0.00     0.120 C 
ATOM      8  C   UNL     1      99.523  97.911  82.942  1.00  0.00     0.022 C 
ATOM      9  C   UNL     1      97.225  98.707  82.324  1.00  0.00     0.022 C 
ATOM     10  C   UNL     1      98.476  99.002  83.146  1.00  0.00     0.004 C 
ENDBRANCH   1   3
BRANCH   2  11
ATOM     11  C   UNL     1      95.275  93.753  79.094  1.00  0.00     0.001 C 
ATOM     12  C   UNL     1      94.525  94.717  78.534  1.00  0.00     0.008 C 
BRANCH  12  13
ATOM     13  C   UNL     1      93.330  94.483  77.706  1.00  0.00    -0.022 A 
ATOM     14  C   UNL     1      93.031  93.189  77.302  1.00  0.00     0.058 A 
ATOM     15  C   UNL     1      92.529  95.571  77.350  1.00  0.00     0.012 A 
ATOM     16  C   UNL     1      91.901  93.020  76.528  1.00  0.00     0.166 A 
ATOM     17  C   UNL     1      91.391  95.371  76.565  1.00  0.00     0.051 A 
ATOM     18  O   UNL     1      91.441  91.837  76.034  1.00  0.00    -0.454 OA
ATOM     19  C   UNL     1      91.103  94.082  76.169  1.00  0.00     0.165 A 
ATOM     20  C   UNL     1      90.265  92.275  75.325  1.00  0.00     0.468 C 
ATOM     21  O   UNL     1      90.043  93.698  75.406  1.00  0.00    -0.454 OA
ENDBRANCH  12  13
ENDBRANCH   2  11
TORSDOF 3
ENDMDL
MODEL 10
REMARK VINA RESULT:    -6.522      2.640      3.996
REMARK INTER + INTRA:          -8.038
REMARK INTER:                  -7.621
REMARK INTRA:                  -0.417
REMARK UNBOUND:                -0.372
REMARK SMILES O=C(/C=C/C=C/c1ccc2c(c1)OCO2)N1CCCCC1
REMARK SMILES IDX 3 1 4 2 2 3 1 4 16 5 17 6 21 7 18 8 20 9 19 10 5 11 6 12
REMARK SMILES IDX 7 13 12 14 8 15 11 16 9 17 13 18 10 19 14 20 15 21
REMARK H PARENT
REMARK Flexibility Score: inf
ROOT
ATOM      1  C   UNL     1      97.434  81.974  76.428  1.00  0.00     0.071 C 
ATOM      2  C   UNL     1      96.363  82.288  77.154  1.00  0.00     0.006 C 
ENDROOT
BRANCH   1   3
ATOM      3  C   UNL     1      97.316  82.029  74.957  1.00  0.00     0.246 C 
ATOM      4  O   UNL     1      97.309  83.141  74.427  1.00  0.00    -0.270 OA
ATOM      5  N   UNL     1      97.217  80.821  74.268  1.00  0.00    -0.339 N 
ATOM      6  C   UNL     1      97.093  80.843  72.807  1.00  0.00     0.120 C 
ATOM      7  C   UNL     1      97.177  79.479  74.868  1.00  0.00     0.120 C 
ATOM      8  C   UNL     1      98.142  79.955  72.146  1.00  0.00     0.022 C 
ATOM      9  C   UNL     1      98.213  78.556  74.228  1.00  0.00     0.022 C 
ATOM     10  C   UNL     1      98.089  78.538  72.707  1.00  0.00     0.004 C 
ENDBRANCH   1   3
BRANCH   2  11
ATOM     11  C   UNL     1      96.380  82.264  78.601  1.00  0.00     0.001 C 
ATOM     12  C   UNL     1      97.293  81.575  79.305  1.00  0.00     0.008 C 
BRANCH  12  13
ATOM     13  C   UNL     1      97.352  81.510  80.775  1.00  0.00    -0.022 A 
ATOM     14  C   UNL     1      98.131  80.531  81.377  1.00  0.00     0.058 A 
ATOM     15  C   UNL     1      96.621  82.436  81.524  1.00  0.00     0.012 A 
ATOM     16  C   UNL     1      98.154  80.510  82.757  1.00  0.00     0.166 A 
ATOM     17  C   UNL     1      96.663  82.392  82.920  1.00  0.00     0.051 A 
ATOM     18  O   UNL     1      98.852  79.633  83.530  1.00  0.00    -0.454 OA
ATOM     19  C   UNL     1      97.440  81.415  83.508  1.00  0.00     0.165 A 
ATOM     20  C   UNL     1      98.496  80.088  84.851  1.00  0.00     0.468 C 
ATOM     21  O   UNL     1      97.601  81.219  84.845  1.00  0.00    -0.454 OA
ENDBRANCH  12  13
ENDBRANCH   2  11
TORSDOF 3
ENDMDL
