MODEL 1
REMARK VINA RESULT:    -6.502      0.000      0.000
REMARK INTER + INTRA:         -11.780
REMARK INTER:                 -10.494
REMARK INTRA:                  -1.286
REMARK UNBOUND:                -1.286
REMARK SMILES COc1cc(CNC(=O)CCCCC/C=C/C(C)C)ccc1O
REMARK SMILES IDX 11 1 10 2 8 3 7 4 9 6 6 7 5 8 3 9 22 10 4 11 21 12 20 13
REMARK SMILES IDX 2 14 1 15 23 16 12 18 13 19 14 20 15 21 16 22 17 23 18 24
REMARK SMILES IDX 19 25
REMARK H PARENT 7 5 23 17
REMARK Flexibility Score: inf
ROOT
ATOM      1  C   UNL     1      93.493  98.445  75.328  1.00  0.00     0.010 C 
ENDROOT
BRANCH   1   2
ATOM      2  C   UNL     1      94.989  98.746  75.601  1.00  0.00     0.100 C 
BRANCH   2   3
ATOM      3  C   UNL     1      95.246  99.374  76.911  1.00  0.00     0.220 C 
ATOM      4  N   UNL     1      95.886  98.672  77.886  1.00  0.00    -0.352 N 
ATOM      5  H   UNL     1      96.082  97.708  77.652  1.00  0.00     0.163 HD
ATOM      6  O   UNL     1      94.898 100.567  77.078  1.00  0.00    -0.275 OA
BRANCH   4   7
ATOM      7  C   UNL     1      96.281  99.187  79.156  1.00  0.00     0.151 C 
BRANCH   7   8
ATOM      8  C   UNL     1      95.882  98.303  80.282  1.00  0.00    -0.025 A 
ATOM      9  C   UNL     1      94.887  96.210  81.104  1.00  0.00     0.160 A 
ATOM     10  C   UNL     1      95.074  96.644  82.434  1.00  0.00     0.157 A 
ATOM     11  C   UNL     1      95.283  97.045  80.039  1.00  0.00     0.056 A 
ATOM     12  C   UNL     1      95.684  97.887  82.687  1.00  0.00     0.050 A 
ATOM     13  C   UNL     1      96.095  98.705  81.619  1.00  0.00     0.009 A 
BRANCH   9  14
ATOM     14  O   UNL     1      94.374  94.966  80.848  1.00  0.00    -0.493 OA
ATOM     15  C   UNL     1      95.371  93.950  80.643  1.00  0.00     0.278 C 
ENDBRANCH   9  14
BRANCH  10  16
ATOM     16  O   UNL     1      94.680  95.884  83.486  1.00  0.00    -0.504 OA
ATOM     17  H   UNL     1      93.899  96.272  83.887  1.00  0.00     0.293 HD
ENDBRANCH  10  16
ENDBRANCH   7   8
ENDBRANCH   4   7
ENDBRANCH   2   3
ENDBRANCH   1   2
BRANCH   1  18
ATOM     18  C   UNL     1      93.043  97.149  76.049  1.00  0.00     0.001 C 
BRANCH  18  19
ATOM     19  C   UNL     1      94.175  96.105  76.220  1.00  0.00     0.004 C 
BRANCH  19  20
ATOM     20  C   UNL     1      93.643  94.790  76.856  1.00  0.00     0.027 C 
BRANCH  20  21
ATOM     21  C   UNL     1      92.197  94.752  76.994  1.00  0.00    -0.031 C 
ATOM     22  C   UNL     1      91.594  94.386  78.139  1.00  0.00    -0.028 C 
BRANCH  22  23
ATOM     23  C   UNL     1      90.144  94.341  78.311  1.00  0.00     0.005 C 
ATOM     24  C   UNL     1      89.434  94.884  77.042  1.00  0.00     0.012 C 
ATOM     25  C   UNL     1      89.690  92.900  78.670  1.00  0.00     0.012 C 
ENDBRANCH  22  23
ENDBRANCH  20  21
ENDBRANCH  19  20
ENDBRANCH  18  19
ENDBRANCH   1  18
TORSDOF 11
ENDMDL
MODEL 2
REMARK VINA RESULT:    -6.064     23.007     27.291
REMARK INTER + INTRA:         -11.073
REMARK INTER:                  -9.997
REMARK INTRA:                  -1.075
REMARK UNBOUND:                -1.286
REMARK SMILES COc1cc(CNC(=O)CCCCC/C=C/C(C)C)ccc1O
REMARK SMILES IDX 11 1 10 2 8 3 7 4 9 6 6 7 5 8 3 9 22 10 4 11 21 12 20 13
REMARK SMILES IDX 2 14 1 15 23 16 12 18 13 19 14 20 15 21 16 22 17 23 18 24
REMARK SMILES IDX 19 25
REMARK H PARENT 7 5 23 17
REMARK Flexibility Score: inf
ROOT
ATOM      1  C   UNL     1      75.383  81.586  66.218  1.00  0.00     0.010 C 
ENDROOT
BRANCH   1   2
ATOM      2  C   UNL     1      74.487  81.094  65.052  1.00  0.00     0.100 C 
BRANCH   2   3
ATOM      3  C   UNL     1      73.041  81.175  65.330  1.00  0.00     0.220 C 
ATOM      4  N   UNL     1      72.517  82.310  65.869  1.00  0.00    -0.352 N 
ATOM      5  H   UNL     1      73.199  83.015  66.114  1.00  0.00     0.163 HD
ATOM      6  O   UNL     1      72.320  80.197  65.022  1.00  0.00    -0.275 OA
BRANCH   4   7
ATOM      7  C   UNL     1      71.130  82.556  66.098  1.00  0.00     0.151 C 
BRANCH   7   8
ATOM      8  C   UNL     1      70.862  83.105  67.452  1.00  0.00    -0.025 A 
ATOM      9  C   UNL     1      71.447  84.624  69.296  1.00  0.00     0.160 A 
ATOM     10  C   UNL     1      70.376  84.109  70.059  1.00  0.00     0.157 A 
ATOM     11  C   UNL     1      71.687  84.113  68.004  1.00  0.00     0.056 A 
ATOM     12  C   UNL     1      69.539  83.118  69.514  1.00  0.00     0.050 A 
ATOM     13  C   UNL     1      69.773  82.627  68.216  1.00  0.00     0.009 A 
BRANCH   9  14
ATOM     14  O   UNL     1      72.214  85.649  69.782  1.00  0.00    -0.493 OA
ATOM     15  C   UNL     1      71.717  86.959  69.459  1.00  0.00     0.278 C 
ENDBRANCH   9  14
BRANCH  10  16
ATOM     16  O   UNL     1      70.129  84.553  71.316  1.00  0.00    -0.504 OA
ATOM     17  H   UNL     1      69.183  84.673  71.432  1.00  0.00     0.293 HD
ENDBRANCH  10  16
ENDBRANCH   7   8
ENDBRANCH   4   7
ENDBRANCH   2   3
ENDBRANCH   1   2
BRANCH   1  18
ATOM     18  C   UNL     1      76.835  81.839  65.740  1.00  0.00     0.001 C 
BRANCH  18  19
ATOM     19  C   UNL     1      77.268  83.325  65.819  1.00  0.00     0.004 C 
BRANCH  19  20
ATOM     20  C   UNL     1      78.360  83.541  66.904  1.00  0.00     0.027 C 
BRANCH  20  21
ATOM     21  C   UNL     1      77.931  84.387  68.004  1.00  0.00    -0.031 C 
ATOM     22  C   UNL     1      76.799  84.155  68.691  1.00  0.00    -0.028 C 
BRANCH  22  23
ATOM     23  C   UNL     1      76.343  84.984  69.805  1.00  0.00     0.005 C 
ATOM     24  C   UNL     1      76.339  84.161  71.121  1.00  0.00     0.012 C 
ATOM     25  C   UNL     1      77.216  86.264  69.913  1.00  0.00     0.012 C 
ENDBRANCH  22  23
ENDBRANCH  20  21
ENDBRANCH  19  20
ENDBRANCH  18  19
ENDBRANCH   1  18
TORSDOF 11
ENDMDL
MODEL 3
REMARK VINA RESULT:    -5.522      9.340     11.963
REMARK INTER + INTRA:         -10.198
REMARK INTER:                  -7.846
REMARK INTRA:                  -2.352
REMARK UNBOUND:                -1.286
REMARK SMILES COc1cc(CNC(=O)CCCCC/C=C/C(C)C)ccc1O
REMARK SMILES IDX 11 1 10 2 8 3 7 4 9 6 6 7 5 8 3 9 22 10 4 11 21 12 20 13
REMARK SMILES IDX 2 14 1 15 23 16 12 18 13 19 14 20 15 21 16 22 17 23 18 24
REMARK SMILES IDX 19 25
REMARK H PARENT 7 5 23 17
REMARK Flexibility Score: inf
ROOT
ATOM      1  C   UNL     1      88.987  98.389  67.541  1.00  0.00     0.010 C 
ENDROOT
BRANCH   1   2
ATOM      2  C   UNL     1      88.180  99.624  68.017  1.00  0.00     0.100 C 
BRANCH   2   3
ATOM      3  C   UNL     1      88.860 100.912  67.783  1.00  0.00     0.220 C 
ATOM      4  N   UNL     1      88.180 102.079  67.958  1.00  0.00    -0.352 N 
ATOM      5  H   UNL     1      87.199 101.967  68.175  1.00  0.00     0.163 HD
ATOM      6  O   UNL     1      90.072 100.896  67.464  1.00  0.00    -0.275 OA
BRANCH   4   7
ATOM      7  C   UNL     1      88.740 103.387  67.860  1.00  0.00     0.151 C 
BRANCH   7   8
ATOM      8  C   UNL     1      89.250 103.890  69.161  1.00  0.00    -0.025 A 
ATOM      9  C   UNL     1      88.844 104.864  71.383  1.00  0.00     0.160 A 
ATOM     10  C   UNL     1      90.235 104.898  71.621  1.00  0.00     0.157 A 
ATOM     11  C   UNL     1      88.363 104.369  70.154  1.00  0.00     0.056 A 
ATOM     12  C   UNL     1      91.126 104.409  70.649  1.00  0.00     0.050 A 
ATOM     13  C   UNL     1      90.637 103.898  69.432  1.00  0.00     0.009 A 
BRANCH   9  14
ATOM     14  O   UNL     1      87.965 105.256  72.357  1.00  0.00    -0.493 OA
ATOM     15  C   UNL     1      87.311 104.168  73.031  1.00  0.00     0.278 C 
ENDBRANCH   9  14
BRANCH  10  16
ATOM     16  O   UNL     1      90.740 105.392  72.780  1.00  0.00    -0.504 OA
ATOM     17  H   UNL     1      90.431 106.293  72.905  1.00  0.00     0.293 HD
ENDBRANCH  10  16
ENDBRANCH   7   8
ENDBRANCH   4   7
ENDBRANCH   2   3
ENDBRANCH   1   2
BRANCH   1  18
ATOM     18  C   UNL     1      88.690  97.151  68.427  1.00  0.00     0.001 C 
BRANCH  18  19
ATOM     19  C   UNL     1      89.876  96.735  69.334  1.00  0.00     0.004 C 
BRANCH  19  20
ATOM     20  C   UNL     1      89.557  96.988  70.834  1.00  0.00     0.027 C 
BRANCH  20  21
ATOM     21  C   UNL     1      89.574  98.393  71.206  1.00  0.00    -0.031 C 
ATOM     22  C   UNL     1      90.575  99.219  70.851  1.00  0.00    -0.028 C 
BRANCH  22  23
ATOM     23  C   UNL     1      90.618 100.635  71.204  1.00  0.00     0.005 C 
ATOM     24  C   UNL     1      89.200 101.140  71.582  1.00  0.00     0.012 C 
ATOM     25  C   UNL     1      91.651 100.874  72.339  1.00  0.00     0.012 C 
ENDBRANCH  22  23
ENDBRANCH  20  21
ENDBRANCH  19  20
ENDBRANCH  18  19
ENDBRANCH   1  18
TORSDOF 11
ENDMDL
MODEL 4
REMARK VINA RESULT:    -5.325     13.917     16.925
REMARK INTER + INTRA:          -9.880
REMARK INTER:                  -9.074
REMARK INTRA:                  -0.805
REMARK UNBOUND:                -1.286
REMARK SMILES COc1cc(CNC(=O)CCCCC/C=C/C(C)C)ccc1O
REMARK SMILES IDX 11 1 10 2 8 3 7 4 9 6 6 7 5 8 3 9 22 10 4 11 21 12 20 13
REMARK SMILES IDX 2 14 1 15 23 16 12 18 13 19 14 20 15 21 16 22 17 23 18 24
REMARK SMILES IDX 19 25
REMARK H PARENT 7 5 23 17
REMARK Flexibility Score: inf
ROOT
ATOM      1  C   UNL     1      98.116  82.584  84.811  1.00  0.00     0.010 C 
ENDROOT
BRANCH   1   2
ATOM      2  C   UNL     1      96.960  81.746  85.417  1.00  0.00     0.100 C 
BRANCH   2   3
ATOM      3  C   UNL     1      96.114  82.490  86.368  1.00  0.00     0.220 C 
ATOM      4  N   UNL     1      94.764  82.524  86.192  1.00  0.00    -0.352 N 
ATOM      5  H   UNL     1      94.438  82.077  85.346  1.00  0.00     0.163 HD
ATOM      6  O   UNL     1      96.665  83.044  87.349  1.00  0.00    -0.275 OA
BRANCH   4   7
ATOM      7  C   UNL     1      93.825  83.121  87.086  1.00  0.00     0.151 C 
BRANCH   7   8
ATOM      8  C   UNL     1      92.742  82.186  87.485  1.00  0.00    -0.025 A 
ATOM      9  C   UNL     1      91.394  80.172  87.064  1.00  0.00     0.160 A 
ATOM     10  C   UNL     1      90.637  80.437  88.226  1.00  0.00     0.157 A 
ATOM     11  C   UNL     1      92.433  81.052  86.698  1.00  0.00     0.056 A 
ATOM     12  C   UNL     1      90.945  81.553  89.025  1.00  0.00     0.050 A 
ATOM     13  C   UNL     1      91.997  82.415  88.664  1.00  0.00     0.009 A 
BRANCH   9  14
ATOM     14  O   UNL     1      91.160  79.042  86.327  1.00  0.00    -0.493 OA
ATOM     15  C   UNL     1      91.048  79.275  84.913  1.00  0.00     0.278 C 
ENDBRANCH   9  14
BRANCH  10  16
ATOM     16  O   UNL     1      89.611  79.631  88.597  1.00  0.00    -0.504 OA
ATOM     17  H   UNL     1      88.956  79.603  87.895  1.00  0.00     0.293 HD
ENDBRANCH  10  16
ENDBRANCH   7   8
ENDBRANCH   4   7
ENDBRANCH   2   3
ENDBRANCH   1   2
BRANCH   1  18
ATOM     18  C   UNL     1      97.569  83.730  83.922  1.00  0.00     0.001 C 
BRANCH  18  19
ATOM     19  C   UNL     1      97.575  83.401  82.408  1.00  0.00     0.004 C 
BRANCH  19  20
ATOM     20  C   UNL     1      98.945  82.818  81.959  1.00  0.00     0.027 C 
BRANCH  20  21
ATOM     21  C   UNL     1      99.174  82.900  80.527  1.00  0.00    -0.031 C 
ATOM     22  C   UNL     1      98.173  83.086  79.648  1.00  0.00    -0.028 C 
BRANCH  22  23
ATOM     23  C   UNL     1      98.371  83.178  78.204  1.00  0.00     0.005 C 
ATOM     24  C   UNL     1      97.595  84.394  77.631  1.00  0.00     0.012 C 
ATOM     25  C   UNL     1      99.887  83.237  77.872  1.00  0.00     0.012 C 
ENDBRANCH  22  23
ENDBRANCH  20  21
ENDBRANCH  19  20
ENDBRANCH  18  19
ENDBRANCH   1  18
TORSDOF 11
ENDMDL
MODEL 5
REMARK VINA RESULT:    -5.313     31.903     33.939
REMARK INTER + INTRA:          -9.860
REMARK INTER:                  -8.359
REMARK INTRA:                  -1.502
REMARK UNBOUND:                -1.286
REMARK SMILES COc1cc(CNC(=O)CCCCC/C=C/C(C)C)ccc1O
REMARK SMILES IDX 11 1 10 2 8 3 7 4 9 6 6 7 5 8 3 9 22 10 4 11 21 12 20 13
REMARK SMILES IDX 2 14 1 15 23 16 12 18 13 19 14 20 15 21 16 22 17 23 18 24
REMARK SMILES IDX 19 25
REMARK H PARENT 7 5 23 17
REMARK Flexibility Score: inf
ROOT
ATOM      1  C   UNL     1      62.411  86.572  72.393  1.00  0.00     0.010 C 
ENDROOT
BRANCH   1   2
ATOM      2  C   UNL     1      60.948  86.162  72.705  1.00  0.00     0.100 C 
BRANCH   2   3
ATOM      3  C   UNL     1      60.818  85.208  73.822  1.00  0.00     0.220 C 
ATOM      4  N   UNL     1      61.685  84.163  73.925  1.00  0.00    -0.352 N 
ATOM      5  H   UNL     1      62.334  84.076  73.155  1.00  0.00     0.163 HD
ATOM      6  O   UNL     1      59.926  85.412  74.679  1.00  0.00    -0.275 OA
BRANCH   4   7
ATOM      7  C   UNL     1      61.732  83.227  75.001  1.00  0.00     0.151 C 
BRANCH   7   8
ATOM      8  C   UNL     1      62.838  83.505  75.953  1.00  0.00    -0.025 A 
ATOM      9  C   UNL     1      63.665  84.544  78.023  1.00  0.00     0.160 A 
ATOM     10  C   UNL     1      64.966  84.077  77.737  1.00  0.00     0.157 A 
ATOM     11  C   UNL     1      62.614  84.263  77.126  1.00  0.00     0.056 A 
ATOM     12  C   UNL     1      65.197  83.308  76.582  1.00  0.00     0.050 A 
ATOM     13  C   UNL     1      64.139  83.015  75.701  1.00  0.00     0.009 A 
BRANCH   9  14
ATOM     14  O   UNL     1      63.412  85.218  79.188  1.00  0.00    -0.493 OA
ATOM     15  C   UNL     1      62.841  84.404  80.226  1.00  0.00     0.278 C 
ENDBRANCH   9  14
BRANCH  10  16
ATOM     16  O   UNL     1      66.010  84.350  78.559  1.00  0.00    -0.504 OA
ATOM     17  H   UNL     1      66.610  83.600  78.574  1.00  0.00     0.293 HD
ENDBRANCH  10  16
ENDBRANCH   7   8
ENDBRANCH   4   7
ENDBRANCH   2   3
ENDBRANCH   1   2
BRANCH   1  18
ATOM     18  C   UNL     1      62.867  86.014  71.020  1.00  0.00     0.001 C 
BRANCH  18  19
ATOM     19  C   UNL     1      61.702  85.499  70.139  1.00  0.00     0.004 C 
BRANCH  19  20
ATOM     20  C   UNL     1      61.914  84.015  69.729  1.00  0.00     0.027 C 
BRANCH  20  21
ATOM     21  C   UNL     1      62.856  83.304  70.577  1.00  0.00    -0.031 C 
ATOM     22  C   UNL     1      63.682  82.357  70.097  1.00  0.00    -0.028 C 
BRANCH  22  23
ATOM     23  C   UNL     1      64.643  81.628  70.921  1.00  0.00     0.005 C 
ATOM     24  C   UNL     1      66.032  82.318  70.864  1.00  0.00     0.012 C 
ATOM     25  C   UNL     1      64.111  81.493  72.374  1.00  0.00     0.012 C 
ENDBRANCH  22  23
ENDBRANCH  20  21
ENDBRANCH  19  20
ENDBRANCH  18  19
ENDBRANCH   1  18
TORSDOF 11
ENDMDL
MODEL 6
REMARK VINA RESULT:    -5.302     13.933     16.023
REMARK INTER + INTRA:          -9.843
REMARK INTER:                  -9.252
REMARK INTRA:                  -0.592
REMARK UNBOUND:                -1.286
REMARK SMILES COc1cc(CNC(=O)CCCCC/C=C/C(C)C)ccc1O
REMARK SMILES IDX 11 1 10 2 8 3 7 4 9 6 6 7 5 8 3 9 22 10 4 11 21 12 20 13
REMARK SMILES IDX 2 14 1 15 23 16 12 18 13 19 14 20 15 21 16 22 17 23 18 24
REMARK SMILES IDX 19 25
REMARK H PARENT 7 5 23 17
REMARK Flexibility Score: inf
ROOT
ATOM      1  C   UNL     1      96.504  83.102  86.069  1.00  0.00     0.010 C 
ENDROOT
BRANCH   1   2
ATOM      2  C   UNL     1      97.110  83.870  84.866  1.00  0.00     0.100 C 
BRANCH   2   3
ATOM      3  C   UNL     1      97.959  83.041  83.991  1.00  0.00     0.220 C 
ATOM      4  N   UNL     1      98.211  83.440  82.714  1.00  0.00    -0.352 N 
ATOM      5  H   UNL     1      97.717  84.274  82.428  1.00  0.00     0.163 HD
ATOM      6  O   UNL     1      98.466  81.997  84.468  1.00  0.00    -0.275 OA
BRANCH   4   7
ATOM      7  C   UNL     1      99.089  82.786  81.798  1.00  0.00     0.151 C 
BRANCH   7   8
ATOM      8  C   UNL     1      98.726  83.038  80.380  1.00  0.00    -0.025 A 
ATOM      9  C   UNL     1      99.352  83.164  78.005  1.00  0.00     0.160 A 
ATOM     10  C   UNL     1      98.039  83.571  77.681  1.00  0.00     0.157 A 
ATOM     11  C   UNL     1      99.687  82.910  79.350  1.00  0.00     0.056 A 
ATOM     12  C   UNL     1      97.070  83.684  78.695  1.00  0.00     0.050 A 
ATOM     13  C   UNL     1      97.408  83.410  80.033  1.00  0.00     0.009 A 
BRANCH   9  14
ATOM     14  O   UNL     1     100.279  82.966  77.016  1.00  0.00    -0.493 OA
ATOM     15  C   UNL     1     101.599  82.669  77.499  1.00  0.00     0.278 C 
ENDBRANCH   9  14
BRANCH  10  16
ATOM     16  O   UNL     1      97.683  83.853  76.403  1.00  0.00    -0.504 OA
ATOM     17  H   UNL     1      97.036  84.563  76.400  1.00  0.00     0.293 HD
ENDBRANCH  10  16
ENDBRANCH   7   8
ENDBRANCH   4   7
ENDBRANCH   2   3
ENDBRANCH   1   2
BRANCH   1  18
ATOM     18  C   UNL     1      95.261  83.838  86.634  1.00  0.00     0.001 C 
BRANCH  18  19
ATOM     19  C   UNL     1      94.504  83.036  87.722  1.00  0.00     0.004 C 
BRANCH  19  20
ATOM     20  C   UNL     1      93.052  83.562  87.906  1.00  0.00     0.027 C 
BRANCH  20  21
ATOM     21  C   UNL     1      92.065  82.838  87.124  1.00  0.00    -0.031 C 
ATOM     22  C   UNL     1      91.489  81.705  87.564  1.00  0.00    -0.028 C 
BRANCH  22  23
ATOM     23  C   UNL     1      90.490  80.957  86.804  1.00  0.00     0.005 C 
ATOM     24  C   UNL     1      89.392  81.916  86.270  1.00  0.00     0.012 C 
ATOM     25  C   UNL     1      91.174  80.151  85.667  1.00  0.00     0.012 C 
ENDBRANCH  22  23
ENDBRANCH  20  21
ENDBRANCH  19  20
ENDBRANCH  18  19
ENDBRANCH   1  18
TORSDOF 11
ENDMDL
MODEL 7
REMARK VINA RESULT:    -5.213     10.331     13.282
REMARK INTER + INTRA:          -9.699
REMARK INTER:                  -7.881
REMARK INTRA:                  -1.818
REMARK UNBOUND:                -1.286
REMARK SMILES COc1cc(CNC(=O)CCCCC/C=C/C(C)C)ccc1O
REMARK SMILES IDX 11 1 10 2 8 3 7 4 9 6 6 7 5 8 3 9 22 10 4 11 21 12 20 13
REMARK SMILES IDX 2 14 1 15 23 16 12 18 13 19 14 20 15 21 16 22 17 23 18 24
REMARK SMILES IDX 19 25
REMARK H PARENT 7 5 23 17
REMARK Flexibility Score: inf
ROOT
ATOM      1  C   UNL     1      88.834  98.175  67.493  1.00  0.00     0.010 C 
ENDROOT
BRANCH   1   2
ATOM      2  C   UNL     1      88.163  99.460  68.042  1.00  0.00     0.100 C 
BRANCH   2   3
ATOM      3  C   UNL     1      88.872 100.705  67.690  1.00  0.00     0.220 C 
ATOM      4  N   UNL     1      88.331 101.910  68.022  1.00  0.00    -0.352 N 
ATOM      5  H   UNL     1      87.411 101.859  68.438  1.00  0.00     0.163 HD
ATOM      6  O   UNL     1      89.987 100.616  67.124  1.00  0.00    -0.275 OA
BRANCH   4   7
ATOM      7  C   UNL     1      88.953 103.180  67.830  1.00  0.00     0.151 C 
BRANCH   7   8
ATOM      8  C   UNL     1      88.376 104.237  68.700  1.00  0.00    -0.025 A 
ATOM      9  C   UNL     1      86.472 105.633  69.390  1.00  0.00     0.160 A 
ATOM     10  C   UNL     1      87.297 106.292  70.327  1.00  0.00     0.157 A 
ATOM     11  C   UNL     1      87.019 104.618  68.579  1.00  0.00     0.056 A 
ATOM     12  C   UNL     1      88.643 105.910  70.468  1.00  0.00     0.050 A 
ATOM     13  C   UNL     1      89.177 104.883  69.668  1.00  0.00     0.009 A 
BRANCH   9  14
ATOM     14  O   UNL     1      85.139 105.936  69.305  1.00  0.00    -0.493 OA
ATOM     15  C   UNL     1      84.267 104.871  69.717  1.00  0.00     0.278 C 
ENDBRANCH   9  14
BRANCH  10  16
ATOM     16  O   UNL     1      86.816 107.293  71.107  1.00  0.00    -0.504 OA
ATOM     17  H   UNL     1      87.550 107.788  71.480  1.00  0.00     0.293 HD
ENDBRANCH  10  16
ENDBRANCH   7   8
ENDBRANCH   4   7
ENDBRANCH   2   3
ENDBRANCH   1   2
BRANCH   1  18
ATOM     18  C   UNL     1      88.693  96.999  68.493  1.00  0.00     0.001 C 
BRANCH  18  19
ATOM     19  C   UNL     1      89.906  96.841  69.445  1.00  0.00     0.004 C 
BRANCH  19  20
ATOM     20  C   UNL     1      89.519  97.164  70.915  1.00  0.00     0.027 C 
BRANCH  20  21
ATOM     21  C   UNL     1      89.528  98.584  71.223  1.00  0.00    -0.031 C 
ATOM     22  C   UNL     1      90.607  99.358  71.014  1.00  0.00    -0.028 C 
BRANCH  22  23
ATOM     23  C   UNL     1      90.646 100.789  71.308  1.00  0.00     0.005 C 
ATOM     24  C   UNL     1      91.422 101.545  70.197  1.00  0.00     0.012 C 
ATOM     25  C   UNL     1      89.206 101.337  71.499  1.00  0.00     0.012 C 
ENDBRANCH  22  23
ENDBRANCH  20  21
ENDBRANCH  19  20
ENDBRANCH  18  19
ENDBRANCH   1  18
TORSDOF 11
ENDMDL
MODEL 8
REMARK VINA RESULT:    -5.192     18.931     23.327
REMARK INTER + INTRA:          -9.666
REMARK INTER:                  -8.836
REMARK INTRA:                  -0.830
REMARK UNBOUND:                -1.286
REMARK SMILES COc1cc(CNC(=O)CCCCC/C=C/C(C)C)ccc1O
REMARK SMILES IDX 11 1 10 2 8 3 7 4 9 6 6 7 5 8 3 9 22 10 4 11 21 12 20 13
REMARK SMILES IDX 2 14 1 15 23 16 12 18 13 19 14 20 15 21 16 22 17 23 18 24
REMARK SMILES IDX 19 25
REMARK H PARENT 7 5 23 17
REMARK Flexibility Score: inf
ROOT
ATOM      1  C   UNL     1      73.530  89.488  69.678  1.00  0.00     0.010 C 
ENDROOT
BRANCH   1   2
ATOM      2  C   UNL     1      74.304  88.697  68.592  1.00  0.00     0.100 C 
BRANCH   2   3
ATOM      3  C   UNL     1      74.748  87.359  69.025  1.00  0.00     0.220 C 
ATOM      4  N   UNL     1      76.078  87.075  69.094  1.00  0.00    -0.352 N 
ATOM      5  H   UNL     1      76.684  87.811  68.760  1.00  0.00     0.163 HD
ATOM      6  O   UNL     1      73.876  86.523  69.362  1.00  0.00    -0.275 OA
BRANCH   4   7
ATOM      7  C   UNL     1      76.642  85.860  69.586  1.00  0.00     0.151 C 
BRANCH   7   8
ATOM      8  C   UNL     1      76.874  84.861  68.512  1.00  0.00    -0.025 A 
ATOM      9  C   UNL     1      76.088  82.976  67.142  1.00  0.00     0.160 A 
ATOM     10  C   UNL     1      77.343  82.921  66.498  1.00  0.00     0.157 A 
ATOM     11  C   UNL     1      75.866  83.938  68.149  1.00  0.00     0.056 A 
ATOM     12  C   UNL     1      78.347  83.845  66.840  1.00  0.00     0.050 A 
ATOM     13  C   UNL     1      78.112  84.815  67.832  1.00  0.00     0.009 A 
BRANCH   9  14
ATOM     14  O   UNL     1      75.074  82.139  66.756  1.00  0.00    -0.493 OA
ATOM     15  C   UNL     1      73.968  82.806  66.128  1.00  0.00     0.278 C 
ENDBRANCH   9  14
BRANCH  10  16
ATOM     16  O   UNL     1      77.606  81.992  65.545  1.00  0.00    -0.504 OA
ATOM     17  H   UNL     1      77.559  81.115  65.932  1.00  0.00     0.293 HD
ENDBRANCH  10  16
ENDBRANCH   7   8
ENDBRANCH   4   7
ENDBRANCH   2   3
ENDBRANCH   1   2
BRANCH   1  18
ATOM     18  C   UNL     1      74.337  89.560  71.000  1.00  0.00     0.001 C 
BRANCH  18  19
ATOM     19  C   UNL     1      75.676  90.329  70.871  1.00  0.00     0.004 C 
BRANCH  19  20
ATOM     20  C   UNL     1      75.449  91.867  70.882  1.00  0.00     0.027 C 
BRANCH  20  21
ATOM     21  C   UNL     1      76.249  92.569  71.871  1.00  0.00    -0.031 C 
ATOM     22  C   UNL     1      77.551  92.296  72.067  1.00  0.00    -0.028 C 
BRANCH  22  23
ATOM     23  C   UNL     1      78.384  92.986  73.049  1.00  0.00     0.005 C 
ATOM     24  C   UNL     1      78.788  94.388  72.520  1.00  0.00     0.012 C 
ATOM     25  C   UNL     1      77.653  93.060  74.417  1.00  0.00     0.012 C 
ENDBRANCH  22  23
ENDBRANCH  20  21
ENDBRANCH  19  20
ENDBRANCH  18  19
ENDBRANCH   1  18
TORSDOF 11
ENDMDL
MODEL 9
REMARK VINA RESULT:    -5.151      8.368     10.868
REMARK INTER + INTRA:          -9.599
REMARK INTER:                  -7.436
REMARK INTRA:                  -2.163
REMARK UNBOUND:                -1.286
REMARK SMILES COc1cc(CNC(=O)CCCCC/C=C/C(C)C)ccc1O
REMARK SMILES IDX 11 1 10 2 8 3 7 4 9 6 6 7 5 8 3 9 22 10 4 11 21 12 20 13
REMARK SMILES IDX 2 14 1 15 23 16 12 18 13 19 14 20 15 21 16 22 17 23 18 24
REMARK SMILES IDX 19 25
REMARK H PARENT 7 5 23 17
REMARK Flexibility Score: inf
ROOT
ATOM      1  C   UNL     1      88.758 100.038  67.821  1.00  0.00     0.010 C 
ENDROOT
BRANCH   1   2
ATOM      2  C   UNL     1      89.879 100.948  67.255  1.00  0.00     0.100 C 
BRANCH   2   3
ATOM      3  C   UNL     1      89.852 102.327  67.775  1.00  0.00     0.220 C 
ATOM      4  N   UNL     1      89.367 102.572  69.024  1.00  0.00    -0.352 N 
ATOM      5  H   UNL     1      88.980 101.764  69.491  1.00  0.00     0.163 HD
ATOM      6  O   UNL     1      90.320 103.243  67.058  1.00  0.00    -0.275 OA
BRANCH   4   7
ATOM      7  C   UNL     1      89.373 103.837  69.683  1.00  0.00     0.151 C 
BRANCH   7   8
ATOM      8  C   UNL     1      89.503 103.713  71.158  1.00  0.00    -0.025 A 
ATOM      9  C   UNL     1      90.829 103.966  73.214  1.00  0.00     0.160 A 
ATOM     10  C   UNL     1      89.763 103.424  73.966  1.00  0.00     0.157 A 
ATOM     11  C   UNL     1      90.694 104.098  71.817  1.00  0.00     0.056 A 
ATOM     12  C   UNL     1      88.568 103.054  73.323  1.00  0.00     0.050 A 
ATOM     13  C   UNL     1      88.434 103.207  71.931  1.00  0.00     0.009 A 
BRANCH   9  14
ATOM     14  O   UNL     1      91.963 104.410  73.840  1.00  0.00    -0.493 OA
ATOM     15  C   UNL     1      93.111 103.568  73.644  1.00  0.00     0.278 C 
ENDBRANCH   9  14
BRANCH  10  16
ATOM     16  O   UNL     1      89.863 103.254  75.308  1.00  0.00    -0.504 OA
ATOM     17  H   UNL     1      89.149 102.689  75.612  1.00  0.00     0.293 HD
ENDBRANCH  10  16
ENDBRANCH   7   8
ENDBRANCH   4   7
ENDBRANCH   2   3
ENDBRANCH   1   2
BRANCH   1  18
ATOM     18  C   UNL     1      89.213  98.558  67.875  1.00  0.00     0.001 C 
BRANCH  18  19
ATOM     19  C   UNL     1      88.451  97.710  68.925  1.00  0.00     0.004 C 
BRANCH  19  20
ATOM     20  C   UNL     1      89.333  97.429  70.174  1.00  0.00     0.027 C 
BRANCH  20  21
ATOM     21  C   UNL     1      90.311  98.469  70.445  1.00  0.00    -0.031 C 
ATOM     22  C   UNL     1      90.135  99.387  71.412  1.00  0.00    -0.028 C 
BRANCH  22  23
ATOM     23  C   UNL     1      91.101 100.441  71.713  1.00  0.00     0.005 C 
ATOM     24  C   UNL     1      91.953 100.053  72.951  1.00  0.00     0.012 C 
ATOM     25  C   UNL     1      91.976 100.738  70.465  1.00  0.00     0.012 C 
ENDBRANCH  22  23
ENDBRANCH  20  21
ENDBRANCH  19  20
ENDBRANCH  18  19
ENDBRANCH   1  18
TORSDOF 11
ENDMDL
MODEL 10
REMARK VINA RESULT:    -5.149     18.436     21.559
REMARK INTER + INTRA:          -9.595
REMARK INTER:                  -8.761
REMARK INTRA:                  -0.834
REMARK UNBOUND:                -1.286
REMARK SMILES COc1cc(CNC(=O)CCCCC/C=C/C(C)C)ccc1O
REMARK SMILES IDX 11 1 10 2 8 3 7 4 9 6 6 7 5 8 3 9 22 10 4 11 21 12 20 13
REMARK SMILES IDX 2 14 1 15 23 16 12 18 13 19 14 20 15 21 16 22 17 23 18 24
REMARK SMILES IDX 19 25
REMARK H PARENT 7 5 23 17
REMARK Flexibility Score: inf
ROOT
ATOM      1  C   UNL     1      73.036  88.817  72.290  1.00  0.00     0.010 C 
ENDROOT
BRANCH   1   2
ATOM      2  C   UNL     1      73.412  90.285  72.617  1.00  0.00     0.100 C 
BRANCH   2   3
ATOM      3  C   UNL     1      72.633  90.873  73.723  1.00  0.00     0.220 C 
ATOM      4  N   UNL     1      72.705  90.326  74.968  1.00  0.00    -0.352 N 
ATOM      5  H   UNL     1      73.255  89.480  75.026  1.00  0.00     0.163 HD
ATOM      6  O   UNL     1      71.948  91.897  73.491  1.00  0.00    -0.275 OA
BRANCH   4   7
ATOM      7  C   UNL     1      72.083  90.849  76.141  1.00  0.00     0.151 C 
BRANCH   7   8
ATOM      8  C   UNL     1      73.060  91.437  77.093  1.00  0.00    -0.025 A 
ATOM      9  C   UNL     1      75.042  92.825  77.535  1.00  0.00     0.160 A 
ATOM     10  C   UNL     1      74.954  92.512  78.909  1.00  0.00     0.157 A 
ATOM     11  C   UNL     1      74.102  92.279  76.637  1.00  0.00     0.056 A 
ATOM     12  C   UNL     1      73.912  91.689  79.375  1.00  0.00     0.050 A 
ATOM     13  C   UNL     1      72.966  91.164  78.476  1.00  0.00     0.009 A 
BRANCH   9  14
ATOM     14  O   UNL     1      75.999  93.695  77.083  1.00  0.00    -0.493 OA
ATOM     15  C   UNL     1      76.830  93.162  76.037  1.00  0.00     0.278 C 
ENDBRANCH   9  14
BRANCH  10  16
ATOM     16  O   UNL     1      75.855  92.994  79.801  1.00  0.00    -0.504 OA
ATOM     17  H   UNL     1      75.563  92.789  80.693  1.00  0.00     0.293 HD
ENDBRANCH  10  16
ENDBRANCH   7   8
ENDBRANCH   4   7
ENDBRANCH   2   3
ENDBRANCH   1   2
BRANCH   1  18
ATOM     18  C   UNL     1      73.980  88.224  71.213  1.00  0.00     0.001 C 
BRANCH  18  19
ATOM     19  C   UNL     1      75.110  89.191  70.775  1.00  0.00     0.004 C 
BRANCH  19  20
ATOM     20  C   UNL     1      76.261  88.429  70.061  1.00  0.00     0.027 C 
BRANCH  20  21
ATOM     21  C   UNL     1      76.129  86.983  70.117  1.00  0.00    -0.031 C 
ATOM     22  C   UNL     1      77.192  86.161  70.049  1.00  0.00    -0.028 C 
BRANCH  22  23
ATOM     23  C   UNL     1      77.093  84.705  70.108  1.00  0.00     0.005 C 
ATOM     24  C   UNL     1      76.089  84.278  71.212  1.00  0.00     0.012 C 
ATOM     25  C   UNL     1      76.714  84.135  68.714  1.00  0.00     0.012 C 
ENDBRANCH  22  23
ENDBRANCH  20  21
ENDBRANCH  19  20
ENDBRANCH  18  19
ENDBRANCH   1  18
TORSDOF 11
ENDMDL
