MODEL 1
REMARK VINA RESULT:    -7.448      0.000      0.000
REMARK INTER + INTRA:         -13.538
REMARK INTER:                 -12.673
REMARK INTRA:                  -0.864
REMARK UNBOUND:                -0.864
REMARK SMILES C=C(C)[C@]12C[C@@H](C)[C@@]34O[C@](Cc5ccccc5)(O[C@@H]1[C@@H]3C=C(COC(=O)Cc1ccc(O)cc1)C[C@]1(O)C(=O)C(C)=C[C@@H]41)O2
REMARK SMILES IDX 23 1 22 2 21 3 20 4 9 5 8 6 10 7 6 8 18 10 44 11 19 12 5 13
REMARK SMILES IDX 7 14 4 15 11 16 12 17 13 18 17 19 14 20 16 21 15 22 2 23
REMARK SMILES IDX 3 24 1 25 35 26 36 27 43 28 38 29 42 30 39 32 40 33 41 34
REMARK SMILES IDX 37 35 24 37 25 38 26 39 27 40 28 41 29 42 34 43 30 44 33 45
REMARK SMILES IDX 31 46 32 47
REMARK H PARENT 37 36 32 48
REMARK Flexibility Score: 90.00
ROOT
ATOM      1  C   UNL     1      94.803  98.662  74.521  1.00  0.00     0.264 C 
ENDROOT
BRANCH   1   2
ATOM      2  C   UNL     1      94.186  99.993  74.160  1.00  0.00    -0.033 C 
ATOM      3  C   UNL     1      93.620 100.150  72.946  1.00  0.00    -0.015 C 
BRANCH   3   4
ATOM      4  C   UNL     1      93.008 101.393  72.319  1.00  0.00     0.078 C 
ATOM      5  O   UNL     1      90.588 101.338  72.826  1.00  0.00    -0.319 OA
ATOM      6  C   UNL     1      91.815 102.096  73.064  1.00  0.00     0.095 CG0
ATOM      7  C   UNL     1      90.402 100.878  71.473  1.00  0.00     0.289 C 
ATOM      8  C   UNL     1      91.659 103.550  72.453  1.00  0.00     0.023 C 
ATOM      9  G   UNL     1      92.014 102.037  74.607  1.00  0.00     0.000 G0
ATOM     10  O   UNL     1      91.493 100.065  71.049  1.00  0.00    -0.320 OA
ATOM     11  O   UNL     1      90.336 101.953  70.539  1.00  0.00    -0.313 OA
ATOM     12  C   UNL     1      92.507 101.069  70.890  1.00  0.00     0.170 C 
ATOM     13  C   UNL     1      92.029 103.577  70.939  1.00  0.00     0.049 C 
ATOM     14  C   UNL     1      90.282 104.207  72.654  1.00  0.00     0.011 C 
ATOM     15  C   UNL     1      91.721 102.243  70.257  1.00  0.00     0.122 C 
BRANCH   7  16
ATOM     16  C   UNL     1      89.115 100.080  71.416  1.00  0.00     0.135 C 
BRANCH  16  17
ATOM     17  C   UNL     1      89.066  99.168  70.216  1.00  0.00    -0.040 A 
ATOM     18  C   UNL     1      89.312  97.803  70.366  1.00  0.00     0.004 A 
ATOM     19  C   UNL     1      88.775  99.690  68.956  1.00  0.00     0.004 A 
ATOM     20  C   UNL     1      89.267  96.960  69.256  1.00  0.00     0.000 A 
ATOM     21  C   UNL     1      88.730  98.846  67.846  1.00  0.00     0.000 A 
ATOM     22  C   UNL     1      88.976  97.482  67.996  1.00  0.00     0.000 A 
ENDBRANCH  16  17
ENDBRANCH   7  16
BRANCH  15  23
ATOM     23  C   UNL     1      91.896 102.302  68.774  1.00  0.00    -0.046 C 
ATOM     24  C   UNL     1      90.737 102.844  67.992  1.00  0.00     0.042 C 
ATOM     25  C   UNL     1      93.025 101.893  68.177  1.00  0.00     0.010 C 
ENDBRANCH  15  23
ENDBRANCH   3   4
BRANCH   2  26
ATOM     26  C   UNL     1      94.287 101.018  75.274  1.00  0.00     0.078 C 
BRANCH  26  27
ATOM     27  C   UNL     1      93.469 102.299  75.121  1.00  0.00     0.140 C 
ATOM     28  C   UNL     1      92.040 102.021  74.608  1.00  0.00     0.086 CG0
ATOM     29  C   UNL     1      93.210 102.984  76.446  1.00  0.00     0.190 C 
ATOM     30  C   UNL     1      91.175 102.856  75.510  1.00  0.00    -0.010 C 
ATOM     31  G   UNL     1      91.838 102.100  73.067  1.00  0.00     0.000 G0
ATOM     32  O   UNL     1      94.055 103.225  77.296  1.00  0.00    -0.291 OA
ATOM     33  C   UNL     1      91.796 103.388  76.567  1.00  0.00    -0.008 C 
ATOM     34  C   UNL     1      91.254 104.183  77.688  1.00  0.00     0.048 C 
BRANCH  27  35
ATOM     35  O   UNL     1      94.168 103.274  74.367  1.00  0.00    -0.381 OA
ATOM     36  H   UNL     1      94.611 102.829  73.625  1.00  0.00     0.212 HD
ENDBRANCH  27  35
ENDBRANCH  26  27
ENDBRANCH   2  26
ENDBRANCH   1   2
BRANCH   1  37
ATOM     37  O   UNL     1      95.418  98.761  75.788  1.00  0.00    -0.461 OA
BRANCH  37  38
ATOM     38  C   UNL     1      95.382  97.630  76.571  1.00  0.00     0.310 C 
ATOM     39  O   UNL     1      95.785  97.560  77.723  1.00  0.00    -0.252 OA
BRANCH  38  40
ATOM     40  C   UNL     1      94.769  96.494  75.787  1.00  0.00     0.158 C 
BRANCH  40  41
ATOM     41  C   UNL     1      93.527  95.938  76.434  1.00  0.00    -0.037 A 
ATOM     42  C   UNL     1      92.496  96.796  76.819  1.00  0.00     0.008 A 
ATOM     43  C   UNL     1      93.406  94.565  76.647  1.00  0.00     0.008 A 
ATOM     44  C   UNL     1      91.347  96.281  77.418  1.00  0.00     0.046 A 
ATOM     45  C   UNL     1      92.256  94.049  77.246  1.00  0.00     0.046 A 
ATOM     46  C   UNL     1      91.227  94.907  77.632  1.00  0.00     0.115 A 
BRANCH  46  47
ATOM     47  O   UNL     1      90.106  94.405  78.216  1.00  0.00    -0.508 OA
ATOM     48  H   UNL     1      89.416  94.300  77.538  1.00  0.00     0.293 HD
ENDBRANCH  46  47
ENDBRANCH  40  41
ENDBRANCH  38  40
ENDBRANCH  37  38
ENDBRANCH   1  37
TORSDOF 10
ENDMDL
MODEL 2
REMARK VINA RESULT:    -7.127      1.540      2.498
REMARK INTER + INTRA:         -12.991
REMARK INTER:                 -12.139
REMARK INTRA:                  -0.852
REMARK UNBOUND:                -0.864
REMARK SMILES C=C(C)[C@]12C[C@@H](C)[C@@]34O[C@](Cc5ccccc5)(O[C@@H]1[C@@H]3C=C(COC(=O)Cc1ccc(O)cc1)C[C@]1(O)C(=O)C(C)=C[C@@H]41)O2
REMARK SMILES IDX 23 1 22 2 21 3 20 4 9 5 8 6 10 7 6 8 18 10 44 11 19 12 5 13
REMARK SMILES IDX 7 14 4 15 11 16 12 17 13 18 17 19 14 20 16 21 15 22 2 23
REMARK SMILES IDX 3 24 1 25 35 26 36 27 43 28 38 29 42 30 39 32 40 33 41 34
REMARK SMILES IDX 37 35 24 37 25 38 26 39 27 40 28 41 29 42 34 43 30 44 33 45
REMARK SMILES IDX 31 46 32 47
REMARK H PARENT 37 36 32 48
REMARK Flexibility Score: 90.00
ROOT
ATOM      1  C   UNL     1      94.217  98.081  74.973  1.00  0.00     0.264 C 
ENDROOT
BRANCH   1   2
ATOM      2  C   UNL     1      93.909  99.494  74.535  1.00  0.00    -0.033 C 
ATOM      3  C   UNL     1      93.489  99.716  73.272  1.00  0.00    -0.015 C 
BRANCH   3   4
ATOM      4  C   UNL     1      93.191 101.032  72.571  1.00  0.00     0.078 C 
ATOM      5  O   UNL     1      90.773 101.466  72.851  1.00  0.00    -0.319 OA
ATOM      6  C   UNL     1      92.099 101.979  73.190  1.00  0.00     0.095 CG0
ATOM      7  C   UNL     1      90.620 101.005  71.495  1.00  0.00     0.289 C 
ATOM      8  C   UNL     1      92.287 103.414  72.545  1.00  0.00     0.023 C 
ATOM      9  G   UNL     1      92.146 101.935  74.746  1.00  0.00     0.000 G0
ATOM     10  O   UNL     1      91.562  99.982  71.187  1.00  0.00    -0.320 OA
ATOM     11  O   UNL     1      90.850 102.040  70.541  1.00  0.00    -0.313 OA
ATOM     12  C   UNL     1      92.765 100.763  71.107  1.00  0.00     0.170 C 
ATOM     13  C   UNL     1      92.786 103.317  71.071  1.00  0.00     0.049 C 
ATOM     14  C   UNL     1      91.054 104.333  72.605  1.00  0.00     0.011 C 
ATOM     15  C   UNL     1      92.284 102.046  70.385  1.00  0.00     0.122 C 
BRANCH   7  16
ATOM     16  C   UNL     1      89.211 100.472  71.331  1.00  0.00     0.135 C 
BRANCH  16  17
ATOM     17  C   UNL     1      89.118  99.446  70.229  1.00  0.00    -0.040 A 
ATOM     18  C   UNL     1      88.889  99.853  68.915  1.00  0.00     0.004 A 
ATOM     19  C   UNL     1      89.262  98.091  70.525  1.00  0.00     0.004 A 
ATOM     20  C   UNL     1      88.804  98.904  67.895  1.00  0.00     0.000 A 
ATOM     21  C   UNL     1      89.177  97.142  69.505  1.00  0.00     0.000 A 
ATOM     22  C   UNL     1      88.948  97.549  68.192  1.00  0.00     0.000 A 
ENDBRANCH  16  17
ENDBRANCH   7  16
BRANCH  15  23
ATOM     23  C   UNL     1      92.597 102.019  68.924  1.00  0.00    -0.046 C 
ATOM     24  C   UNL     1      94.050 101.935  68.561  1.00  0.00     0.042 C 
ATOM     25  C   UNL     1      91.635 102.068  67.991  1.00  0.00     0.010 C 
ENDBRANCH  15  23
ENDBRANCH   3   4
BRANCH   2  26
ATOM     26  C   UNL     1      94.120 100.518  75.634  1.00  0.00     0.078 C 
BRANCH  26  27
ATOM     27  C   UNL     1      93.578 101.925  75.391  1.00  0.00     0.140 C 
ATOM     28  C   UNL     1      92.171 101.907  74.759  1.00  0.00     0.086 CG0
ATOM     29  C   UNL     1      93.346 102.687  76.679  1.00  0.00     0.190 C 
ATOM     30  C   UNL     1      91.410 102.920  75.569  1.00  0.00    -0.010 C 
ATOM     31  G   UNL     1      92.117 101.976  73.205  1.00  0.00     0.000 G0
ATOM     32  O   UNL     1      94.148 102.790  77.595  1.00  0.00    -0.291 OA
ATOM     33  C   UNL     1      92.031 103.356  76.669  1.00  0.00    -0.008 C 
ATOM     34  C   UNL     1      91.560 104.274  77.726  1.00  0.00     0.048 C 
BRANCH  27  35
ATOM     35  O   UNL     1      94.512 102.726  74.687  1.00  0.00    -0.381 OA
ATOM     36  H   UNL     1      95.236 102.957  75.293  1.00  0.00     0.212 HD
ENDBRANCH  27  35
ENDBRANCH  26  27
ENDBRANCH   2  26
ENDBRANCH   1   2
BRANCH   1  37
ATOM     37  O   UNL     1      93.158  97.600  75.774  1.00  0.00    -0.461 OA
BRANCH  37  38
ATOM     38  C   UNL     1      93.422  96.472  76.517  1.00  0.00     0.310 C 
ATOM     39  O   UNL     1      92.586  95.651  76.867  1.00  0.00    -0.252 OA
BRANCH  38  40
ATOM     40  C   UNL     1      94.897  96.409  76.830  1.00  0.00     0.158 C 
BRANCH  40  41
ATOM     41  C   UNL     1      95.229  96.927  78.205  1.00  0.00    -0.037 A 
ATOM     42  C   UNL     1      94.849  96.202  79.334  1.00  0.00     0.008 A 
ATOM     43  C   UNL     1      95.916  98.132  78.350  1.00  0.00     0.008 A 
ATOM     44  C   UNL     1      95.155  96.682  80.608  1.00  0.00     0.046 A 
ATOM     45  C   UNL     1      96.223  98.613  79.623  1.00  0.00     0.046 A 
ATOM     46  C   UNL     1      95.843  97.888  80.752  1.00  0.00     0.115 A 
BRANCH  46  47
ATOM     47  O   UNL     1      96.141  98.356  81.994  1.00  0.00    -0.508 OA
ATOM     48  H   UNL     1      96.917  97.877  82.335  1.00  0.00     0.293 HD
ENDBRANCH  46  47
ENDBRANCH  40  41
ENDBRANCH  38  40
ENDBRANCH  37  38
ENDBRANCH   1  37
TORSDOF 10
ENDMDL
MODEL 3
REMARK VINA RESULT:    -6.929     22.961     27.242
REMARK INTER + INTRA:         -12.655
REMARK INTER:                 -12.437
REMARK INTRA:                  -0.218
REMARK UNBOUND:                -0.864
REMARK SMILES C=C(C)[C@]12C[C@@H](C)[C@@]34O[C@](Cc5ccccc5)(O[C@@H]1[C@@H]3C=C(COC(=O)Cc1ccc(O)cc1)C[C@]1(O)C(=O)C(C)=C[C@@H]41)O2
REMARK SMILES IDX 23 1 22 2 21 3 20 4 9 5 8 6 10 7 6 8 18 10 44 11 19 12 5 13
REMARK SMILES IDX 7 14 4 15 11 16 12 17 13 18 17 19 14 20 16 21 15 22 2 23
REMARK SMILES IDX 3 24 1 25 35 26 36 27 43 28 38 29 42 30 39 32 40 33 41 34
REMARK SMILES IDX 37 35 24 37 25 38 26 39 27 40 28 41 29 42 34 43 30 44 33 45
REMARK SMILES IDX 31 46 32 47
REMARK H PARENT 37 36 32 48
REMARK Flexibility Score: 90.00
ROOT
ATOM      1  C   UNL     1      69.134  83.134  69.807  1.00  0.00     0.264 C 
ENDROOT
BRANCH   1   2
ATOM      2  C   UNL     1      70.003  83.830  68.785  1.00  0.00    -0.033 C 
ATOM      3  C   UNL     1      70.325  85.127  68.967  1.00  0.00    -0.015 C 
BRANCH   3   4
ATOM      4  C   UNL     1      71.110  86.063  68.062  1.00  0.00     0.078 C 
ATOM      5  O   UNL     1      73.476  85.935  68.770  1.00  0.00    -0.319 OA
ATOM      6  C   UNL     1      72.574  85.657  67.654  1.00  0.00     0.095 CG0
ATOM      7  C   UNL     1      73.253  87.189  69.443  1.00  0.00     0.289 C 
ATOM      8  C   UNL     1      72.989  86.547  66.411  1.00  0.00     0.023 C 
ATOM      9  G   UNL     1      72.683  84.119  67.441  1.00  0.00     0.000 G0
ATOM     10  O   UNL     1      71.922  87.280  69.942  1.00  0.00    -0.320 OA
ATOM     11  O   UNL     1      73.416  88.308  68.574  1.00  0.00    -0.313 OA
ATOM     12  C   UNL     1      71.205  87.466  68.711  1.00  0.00     0.170 C 
ATOM     13  C   UNL     1      72.342  87.964  66.479  1.00  0.00     0.049 C 
ATOM     14  C   UNL     1      74.503  86.689  66.175  1.00  0.00     0.011 C 
ATOM     15  C   UNL     1      72.134  88.422  67.923  1.00  0.00     0.122 C 
BRANCH   7  16
ATOM     16  C   UNL     1      74.239  87.293  70.590  1.00  0.00     0.135 C 
BRANCH  16  17
ATOM     17  C   UNL     1      75.560  86.644  70.262  1.00  0.00    -0.040 A 
ATOM     18  C   UNL     1      76.505  87.332  69.501  1.00  0.00     0.004 A 
ATOM     19  C   UNL     1      75.836  85.357  70.721  1.00  0.00     0.004 A 
ATOM     20  C   UNL     1      77.728  86.731  69.199  1.00  0.00     0.000 A 
ATOM     21  C   UNL     1      77.059  84.756  70.418  1.00  0.00     0.000 A 
ATOM     22  C   UNL     1      78.004  85.443  69.657  1.00  0.00     0.000 A 
ENDBRANCH  16  17
ENDBRANCH   7  16
BRANCH  15  23
ATOM     23  C   UNL     1      71.685  89.844  68.015  1.00  0.00    -0.046 C 
ATOM     24  C   UNL     1      70.551  90.120  68.959  1.00  0.00     0.042 C 
ATOM     25  C   UNL     1      72.261  90.817  67.296  1.00  0.00     0.010 C 
ENDBRANCH  15  23
ENDBRANCH   3   4
BRANCH   2  26
ATOM     26  C   UNL     1      70.418  82.924  67.641  1.00  0.00     0.078 C 
BRANCH  26  27
ATOM     27  C   UNL     1      71.501  83.443  66.697  1.00  0.00     0.140 C 
ATOM     28  C   UNL     1      72.661  84.121  67.456  1.00  0.00     0.086 CG0
ATOM     29  C   UNL     1      72.207  82.328  65.954  1.00  0.00     0.190 C 
ATOM     30  C   UNL     1      73.888  83.543  66.808  1.00  0.00    -0.010 C 
ATOM     31  G   UNL     1      72.550  85.662  67.643  1.00  0.00     0.000 G0
ATOM     32  O   UNL     1      71.655  81.413  65.362  1.00  0.00    -0.291 OA
ATOM     33  C   UNL     1      73.669  82.516  65.981  1.00  0.00    -0.008 C 
ATOM     34  C   UNL     1      74.628  81.666  65.247  1.00  0.00     0.048 C 
BRANCH  27  35
ATOM     35  O   UNL     1      70.949  84.242  65.664  1.00  0.00    -0.381 OA
ATOM     36  H   UNL     1      71.171  85.171  65.843  1.00  0.00     0.212 HD
ENDBRANCH  27  35
ENDBRANCH  26  27
ENDBRANCH   2  26
ENDBRANCH   1   2
BRANCH   1  37
ATOM     37  O   UNL     1      67.776  83.314  69.465  1.00  0.00    -0.461 OA
BRANCH  37  38
ATOM     38  C   UNL     1      66.878  83.285  70.507  1.00  0.00     0.310 C 
ATOM     39  O   UNL     1      66.919  84.011  71.490  1.00  0.00    -0.252 OA
BRANCH  38  40
ATOM     40  C   UNL     1      65.839  82.220  70.247  1.00  0.00     0.158 C 
BRANCH  40  41
ATOM     41  C   UNL     1      64.669  82.298  71.193  1.00  0.00    -0.037 A 
ATOM     42  C   UNL     1      64.491  81.313  72.165  1.00  0.00     0.008 A 
ATOM     43  C   UNL     1      63.763  83.353  71.098  1.00  0.00     0.008 A 
ATOM     44  C   UNL     1      63.407  81.383  73.040  1.00  0.00     0.046 A 
ATOM     45  C   UNL     1      62.679  83.425  71.973  1.00  0.00     0.046 A 
ATOM     46  C   UNL     1      62.501  82.440  72.944  1.00  0.00     0.115 A 
BRANCH  46  47
ATOM     47  O   UNL     1      61.444  82.509  73.798  1.00  0.00    -0.508 OA
ATOM     48  H   UNL     1      61.565  83.272  74.390  1.00  0.00     0.293 HD
ENDBRANCH  46  47
ENDBRANCH  40  41
ENDBRANCH  38  40
ENDBRANCH  37  38
ENDBRANCH   1  37
TORSDOF 10
ENDMDL
MODEL 4
REMARK VINA RESULT:    -6.926      2.229      2.703
REMARK INTER + INTRA:         -12.648
REMARK INTER:                 -12.029
REMARK INTRA:                  -0.619
REMARK UNBOUND:                -0.864
REMARK SMILES C=C(C)[C@]12C[C@@H](C)[C@@]34O[C@](Cc5ccccc5)(O[C@@H]1[C@@H]3C=C(COC(=O)Cc1ccc(O)cc1)C[C@]1(O)C(=O)C(C)=C[C@@H]41)O2
REMARK SMILES IDX 23 1 22 2 21 3 20 4 9 5 8 6 10 7 6 8 18 10 44 11 19 12 5 13
REMARK SMILES IDX 7 14 4 15 11 16 12 17 13 18 17 19 14 20 16 21 15 22 2 23
REMARK SMILES IDX 3 24 1 25 35 26 36 27 43 28 38 29 42 30 39 32 40 33 41 34
REMARK SMILES IDX 37 35 24 37 25 38 26 39 27 40 28 41 29 42 34 43 30 44 33 45
REMARK SMILES IDX 31 46 32 47
REMARK H PARENT 37 36 32 48
REMARK Flexibility Score: 90.00
ROOT
ATOM      1  C   UNL     1      94.333  97.022  75.313  1.00  0.00     0.264 C 
ENDROOT
BRANCH   1   2
ATOM      2  C   UNL     1      94.417  98.503  75.020  1.00  0.00    -0.033 C 
ATOM      3  C   UNL     1      94.112  98.948  73.783  1.00  0.00    -0.015 C 
BRANCH   3   4
ATOM      4  C   UNL     1      94.188 100.358  73.219  1.00  0.00     0.078 C 
ATOM      5  O   UNL     1      91.954 101.375  73.518  1.00  0.00    -0.319 OA
ATOM      6  C   UNL     1      93.354 101.491  73.922  1.00  0.00     0.095 CG0
ATOM      7  C   UNL     1      91.738 101.104  72.120  1.00  0.00     0.289 C 
ATOM      8  C   UNL     1      93.928 102.884  73.430  1.00  0.00     0.023 C 
ATOM      9  G   UNL     1      93.331 101.285  75.465  1.00  0.00     0.000 G0
ATOM     10  O   UNL     1      92.396  99.906  71.717  1.00  0.00    -0.320 OA
ATOM     11  O   UNL     1      92.260 102.131  71.281  1.00  0.00    -0.313 OA
ATOM     12  C   UNL     1      93.761 100.353  71.731  1.00  0.00     0.170 C 
ATOM     13  C   UNL     1      94.440 102.804  71.959  1.00  0.00     0.049 C 
ATOM     14  C   UNL     1      92.971 104.080  73.573  1.00  0.00     0.011 C 
ATOM     15  C   UNL     1      93.652 101.780  71.141  1.00  0.00     0.122 C 
BRANCH   7  16
ATOM     16  C   UNL     1      90.246 100.973  71.887  1.00  0.00     0.135 C 
BRANCH  16  17
ATOM     17  C   UNL     1      89.921  99.893  70.885  1.00  0.00    -0.040 A 
ATOM     18  C   UNL     1      89.885  98.558  71.285  1.00  0.00     0.004 A 
ATOM     19  C   UNL     1      89.658 100.232  69.558  1.00  0.00     0.004 A 
ATOM     20  C   UNL     1      89.585  97.559  70.358  1.00  0.00     0.000 A 
ATOM     21  C   UNL     1      89.357  99.233  68.631  1.00  0.00     0.000 A 
ATOM     22  C   UNL     1      89.321  97.898  69.031  1.00  0.00     0.000 A 
ENDBRANCH  16  17
ENDBRANCH   7  16
BRANCH  15  23
ATOM     23  C   UNL     1      94.002 101.815  69.688  1.00  0.00    -0.046 C 
ATOM     24  C   UNL     1      93.418 102.946  68.894  1.00  0.00     0.042 C 
ATOM     25  C   UNL     1      94.793 100.889  69.127  1.00  0.00     0.010 C 
ENDBRANCH  15  23
ENDBRANCH   3   4
BRANCH   2  26
ATOM     26  C   UNL     1      94.846  99.324  76.221  1.00  0.00     0.078 C 
BRANCH  26  27
ATOM     27  C   UNL     1      94.719 100.842  76.109  1.00  0.00     0.140 C 
ATOM     28  C   UNL     1      93.374 101.272  75.489  1.00  0.00     0.086 CG0
ATOM     29  C   UNL     1      94.686 101.522  77.462  1.00  0.00     0.190 C 
ATOM     30  C   UNL     1      92.910 102.380  76.392  1.00  0.00    -0.010 C 
ATOM     31  G   UNL     1      93.368 101.490  73.948  1.00  0.00     0.000 G0
ATOM     32  O   UNL     1      95.469 101.317  78.377  1.00  0.00    -0.291 OA
ATOM     33  C   UNL     1      93.608 102.528  77.522  1.00  0.00    -0.008 C 
ATOM     34  C   UNL     1      93.392 103.443  78.661  1.00  0.00     0.048 C 
BRANCH  27  35
ATOM     35  O   UNL     1      95.851 101.411  75.472  1.00  0.00    -0.381 OA
ATOM     36  H   UNL     1      96.035 100.904  74.663  1.00  0.00     0.212 HD
ENDBRANCH  27  35
ENDBRANCH  26  27
ENDBRANCH   2  26
ENDBRANCH   1   2
BRANCH   1  37
ATOM     37  O   UNL     1      93.110  96.743  75.959  1.00  0.00    -0.461 OA
BRANCH  37  38
ATOM     38  C   UNL     1      93.135  95.737  76.897  1.00  0.00     0.310 C 
ATOM     39  O   UNL     1      92.146  95.209  77.387  1.00  0.00    -0.252 OA
BRANCH  38  40
ATOM     40  C   UNL     1      94.567  95.389  77.225  1.00  0.00     0.158 C 
BRANCH  40  41
ATOM     41  C   UNL     1      94.816  95.260  78.705  1.00  0.00    -0.037 A 
ATOM     42  C   UNL     1      94.610  96.354  79.546  1.00  0.00     0.008 A 
ATOM     43  C   UNL     1      95.254  94.047  79.236  1.00  0.00     0.008 A 
ATOM     44  C   UNL     1      94.842  96.235  80.916  1.00  0.00     0.046 A 
ATOM     45  C   UNL     1      95.486  93.927  80.607  1.00  0.00     0.046 A 
ATOM     46  C   UNL     1      95.280  95.021  81.447  1.00  0.00     0.115 A 
BRANCH  46  47
ATOM     47  O   UNL     1      95.506  94.906  82.784  1.00  0.00    -0.508 OA
ATOM     48  H   UNL     1      96.302  95.415  83.014  1.00  0.00     0.293 HD
ENDBRANCH  46  47
ENDBRANCH  40  41
ENDBRANCH  38  40
ENDBRANCH  37  38
ENDBRANCH   1  37
TORSDOF 10
ENDMDL
MODEL 5
REMARK VINA RESULT:    -6.851     18.212     23.165
REMARK INTER + INTRA:         -12.521
REMARK INTER:                 -12.138
REMARK INTRA:                  -0.383
REMARK UNBOUND:                -0.864
REMARK SMILES C=C(C)[C@]12C[C@@H](C)[C@@]34O[C@](Cc5ccccc5)(O[C@@H]1[C@@H]3C=C(COC(=O)Cc1ccc(O)cc1)C[C@]1(O)C(=O)C(C)=C[C@@H]41)O2
REMARK SMILES IDX 23 1 22 2 21 3 20 4 9 5 8 6 10 7 6 8 18 10 44 11 19 12 5 13
REMARK SMILES IDX 7 14 4 15 11 16 12 17 13 18 17 19 14 20 16 21 15 22 2 23
REMARK SMILES IDX 3 24 1 25 35 26 36 27 43 28 38 29 42 30 39 32 40 33 41 34
REMARK SMILES IDX 37 35 24 37 25 38 26 39 27 40 28 41 29 42 34 43 30 44 33 45
REMARK SMILES IDX 31 46 32 47
REMARK H PARENT 37 36 32 48
REMARK Flexibility Score: 90.00
ROOT
ATOM      1  C   UNL     1      98.243  82.361  82.694  1.00  0.00     0.264 C 
ENDROOT
BRANCH   1   2
ATOM      2  C   UNL     1      98.275  82.517  84.197  1.00  0.00    -0.033 C 
ATOM      3  C   UNL     1      97.151  82.888  84.845  1.00  0.00    -0.015 C 
BRANCH   3   4
ATOM      4  C   UNL     1      96.942  83.184  86.322  1.00  0.00     0.078 C 
ATOM      5  O   UNL     1      96.231  81.068  87.387  1.00  0.00    -0.319 OA
ATOM      6  C   UNL     1      97.300  82.065  87.368  1.00  0.00     0.095 CG0
ATOM      7  C   UNL     1      94.893  81.601  87.354  1.00  0.00     0.289 C 
ATOM      8  C   UNL     1      97.400  82.753  88.791  1.00  0.00     0.023 C 
ATOM      9  G   UNL     1      98.561  81.271  86.919  1.00  0.00     0.000 G0
ATOM     10  O   UNL     1      94.689  82.419  86.206  1.00  0.00    -0.320 OA
ATOM     11  O   UNL     1      94.614  82.435  88.476  1.00  0.00    -0.313 OA
ATOM     12  C   UNL     1      95.464  83.570  86.576  1.00  0.00     0.170 C 
ATOM     13  C   UNL     1      96.400  83.942  88.923  1.00  0.00     0.049 C 
ATOM     14  C   UNL     1      97.233  81.810  89.995  1.00  0.00     0.011 C 
ATOM     15  C   UNL     1      95.142  83.719  88.083  1.00  0.00     0.122 C 
BRANCH   7  16
ATOM     16  C   UNL     1      93.920  80.438  87.336  1.00  0.00     0.135 C 
BRANCH  16  17
ATOM     17  C   UNL     1      92.484  80.902  87.346  1.00  0.00    -0.040 A 
ATOM     18  C   UNL     1      91.945  81.529  86.223  1.00  0.00     0.004 A 
ATOM     19  C   UNL     1      91.696  80.701  88.479  1.00  0.00     0.004 A 
ATOM     20  C   UNL     1      90.617  81.957  86.233  1.00  0.00     0.000 A 
ATOM     21  C   UNL     1      90.368  81.129  88.488  1.00  0.00     0.000 A 
ATOM     22  C   UNL     1      89.829  81.757  87.366  1.00  0.00     0.000 A 
ENDBRANCH  16  17
ENDBRANCH   7  16
BRANCH  15  23
ATOM     23  C   UNL     1      94.094  84.755  88.334  1.00  0.00    -0.046 C 
ATOM     24  C   UNL     1      92.677  84.265  88.381  1.00  0.00     0.042 C 
ATOM     25  C   UNL     1      94.402  86.048  88.506  1.00  0.00     0.010 C 
ENDBRANCH  15  23
ENDBRANCH   3   4
BRANCH   2  26
ATOM     26  C   UNL     1      99.634  82.213  84.798  1.00  0.00     0.078 C 
BRANCH  26  27
ATOM     27  C   UNL     1      99.721  82.133  86.321  1.00  0.00     0.140 C 
ATOM     28  C   UNL     1      98.580  81.290  86.928  1.00  0.00     0.086 CG0
ATOM     29  C   UNL     1     100.956  81.396  86.794  1.00  0.00     0.190 C 
ATOM     30  C   UNL     1      99.286  80.406  87.918  1.00  0.00    -0.010 C 
ATOM     31  G   UNL     1      97.311  82.073  87.373  1.00  0.00     0.000 G0
ATOM     32  O   UNL     1     102.096  81.600  86.402  1.00  0.00    -0.291 OA
ATOM     33  C   UNL     1     100.621  80.422  87.849  1.00  0.00    -0.008 C 
ATOM     34  C   UNL     1     101.621  79.633  88.597  1.00  0.00     0.048 C 
BRANCH  27  35
ATOM     35  O   UNL     1      99.853  83.420  86.902  1.00  0.00    -0.381 OA
ATOM     36  H   UNL     1     100.795  83.582  87.078  1.00  0.00     0.212 HD
ENDBRANCH  27  35
ENDBRANCH  26  27
ENDBRANCH   2  26
ENDBRANCH   1   2
BRANCH   1  37
ATOM     37  O   UNL     1      98.993  81.223  82.327  1.00  0.00    -0.461 OA
BRANCH  37  38
ATOM     38  C   UNL     1      99.767  81.345  81.196  1.00  0.00     0.310 C 
ATOM     39  O   UNL     1     100.933  81.714  81.180  1.00  0.00    -0.252 OA
BRANCH  38  40
ATOM     40  C   UNL     1      98.955  80.953  79.985  1.00  0.00     0.158 C 
BRANCH  40  41
ATOM     41  C   UNL     1      98.722  82.101  79.038  1.00  0.00    -0.037 A 
ATOM     42  C   UNL     1      97.617  82.935  79.212  1.00  0.00     0.008 A 
ATOM     43  C   UNL     1      99.608  82.329  77.986  1.00  0.00     0.008 A 
ATOM     44  C   UNL     1      97.399  83.997  78.334  1.00  0.00     0.046 A 
ATOM     45  C   UNL     1      99.392  83.392  77.108  1.00  0.00     0.046 A 
ATOM     46  C   UNL     1      98.288  84.225  77.282  1.00  0.00     0.115 A 
BRANCH  46  47
ATOM     47  O   UNL     1      98.075  85.261  76.425  1.00  0.00    -0.508 OA
ATOM     48  H   UNL     1      97.845  84.905  75.550  1.00  0.00     0.293 HD
ENDBRANCH  46  47
ENDBRANCH  40  41
ENDBRANCH  38  40
ENDBRANCH  37  38
ENDBRANCH   1  37
TORSDOF 10
ENDMDL
MODEL 6
REMARK VINA RESULT:    -6.780     19.386     23.205
REMARK INTER + INTRA:         -12.400
REMARK INTER:                 -12.285
REMARK INTRA:                  -0.115
REMARK UNBOUND:                -0.864
REMARK SMILES C=C(C)[C@]12C[C@@H](C)[C@@]34O[C@](Cc5ccccc5)(O[C@@H]1[C@@H]3C=C(COC(=O)Cc1ccc(O)cc1)C[C@]1(O)C(=O)C(C)=C[C@@H]41)O2
REMARK SMILES IDX 23 1 22 2 21 3 20 4 9 5 8 6 10 7 6 8 18 10 44 11 19 12 5 13
REMARK SMILES IDX 7 14 4 15 11 16 12 17 13 18 17 19 14 20 16 21 15 22 2 23
REMARK SMILES IDX 3 24 1 25 35 26 36 27 43 28 38 29 42 30 39 32 40 33 41 34
REMARK SMILES IDX 37 35 24 37 25 38 26 39 27 40 28 41 29 42 34 43 30 44 33 45
REMARK SMILES IDX 31 46 32 47
REMARK H PARENT 37 36 32 48
REMARK Flexibility Score: 90.00
ROOT
ATOM      1  C   UNL     1      97.726  82.825  85.508  1.00  0.00     0.264 C 
ENDROOT
BRANCH   1   2
ATOM      2  C   UNL     1      96.429  83.334  86.092  1.00  0.00    -0.033 C 
ATOM      3  C   UNL     1      95.381  82.491  86.205  1.00  0.00    -0.015 C 
BRANCH   3   4
ATOM      4  C   UNL     1      93.965  82.770  86.681  1.00  0.00     0.078 C 
ATOM      5  O   UNL     1      93.911  82.289  89.106  1.00  0.00    -0.319 OA
ATOM      6  C   UNL     1      93.763  83.362  88.124  1.00  0.00     0.095 CG0
ATOM      7  C   UNL     1      93.274  81.045  88.758  1.00  0.00     0.289 C 
ATOM      8  C   UNL     1      92.292  83.944  88.203  1.00  0.00     0.023 C 
ATOM      9  G   UNL     1      94.899  84.367  88.474  1.00  0.00     0.000 G0
ATOM     10  O   UNL     1      93.754  80.548  87.512  1.00  0.00    -0.320 OA
ATOM     11  O   UNL     1      91.864  81.183  88.601  1.00  0.00    -0.313 OA
ATOM     12  C   UNL     1      93.122  81.473  86.613  1.00  0.00     0.170 C 
ATOM     13  C   UNL     1      91.301  83.114  87.330  1.00  0.00     0.049 C 
ATOM     14  C   UNL     1      91.716  84.097  89.621  1.00  0.00     0.011 C 
ATOM     15  C   UNL     1      91.717  81.645  87.242  1.00  0.00     0.122 C 
BRANCH   7  16
ATOM     16  C   UNL     1      93.563  80.040  89.856  1.00  0.00     0.135 C 
BRANCH  16  17
ATOM     17  C   UNL     1      92.299  79.507  90.483  1.00  0.00    -0.040 A 
ATOM     18  C   UNL     1      91.866  80.005  91.711  1.00  0.00     0.004 A 
ATOM     19  C   UNL     1      91.565  78.515  89.833  1.00  0.00     0.004 A 
ATOM     20  C   UNL     1      90.696  79.511  92.290  1.00  0.00     0.000 A 
ATOM     21  C   UNL     1      90.395  78.022  90.412  1.00  0.00     0.000 A 
ATOM     22  C   UNL     1      89.962  78.520  91.640  1.00  0.00     0.000 A 
ENDBRANCH  16  17
ENDBRANCH   7  16
BRANCH  15  23
ATOM     23  C   UNL     1      90.691  80.797  86.565  1.00  0.00    -0.046 C 
ATOM     24  C   UNL     1      91.178  79.952  85.425  1.00  0.00     0.042 C 
ATOM     25  C   UNL     1      89.407  80.791  86.954  1.00  0.00     0.010 C 
ENDBRANCH  15  23
ENDBRANCH   3   4
BRANCH   2  26
ATOM     26  C   UNL     1      96.491  84.794  86.499  1.00  0.00     0.078 C 
BRANCH  26  27
ATOM     27  C   UNL     1      95.328  85.338  87.326  1.00  0.00     0.140 C 
ATOM     28  C   UNL     1      94.908  84.369  88.451  1.00  0.00     0.086 CG0
ATOM     29  C   UNL     1      95.699  86.588  88.096  1.00  0.00     0.190 C 
ATOM     30  C   UNL     1      94.770  85.264  89.651  1.00  0.00    -0.010 C 
ATOM     31  G   UNL     1      93.763  83.373  88.106  1.00  0.00     0.000 G0
ATOM     32  O   UNL     1      96.265  87.565  87.629  1.00  0.00    -0.291 OA
ATOM     33  C   UNL     1      95.231  86.508  89.493  1.00  0.00    -0.008 C 
ATOM     34  C   UNL     1      95.333  87.616  90.465  1.00  0.00     0.048 C 
BRANCH  27  35
ATOM     35  O   UNL     1      94.254  85.756  86.500  1.00  0.00    -0.381 OA
ATOM     36  H   UNL     1      93.628  86.263  87.044  1.00  0.00     0.212 HD
ENDBRANCH  27  35
ENDBRANCH  26  27
ENDBRANCH   2  26
ENDBRANCH   1   2
BRANCH   1  37
ATOM     37  O   UNL     1      97.453  81.763  84.619  1.00  0.00    -0.461 OA
BRANCH  37  38
ATOM     38  C   UNL     1      98.211  81.721  83.472  1.00  0.00     0.310 C 
ATOM     39  O   UNL     1      98.811  80.737  83.062  1.00  0.00    -0.252 OA
BRANCH  38  40
ATOM     40  C   UNL     1      98.187  83.074  82.802  1.00  0.00     0.158 C 
BRANCH  40  41
ATOM     41  C   UNL     1      98.648  83.028  81.368  1.00  0.00    -0.037 A 
ATOM     42  C   UNL     1      99.962  82.664  81.069  1.00  0.00     0.008 A 
ATOM     43  C   UNL     1      97.764  83.350  80.339  1.00  0.00     0.008 A 
ATOM     44  C   UNL     1     100.390  82.623  79.742  1.00  0.00     0.046 A 
ATOM     45  C   UNL     1      98.191  83.308  79.012  1.00  0.00     0.046 A 
ATOM     46  C   UNL     1      99.504  82.945  78.713  1.00  0.00     0.115 A 
BRANCH  46  47
ATOM     47  O   UNL     1      99.921  82.905  77.419  1.00  0.00    -0.508 OA
ATOM     48  H   UNL     1      99.182  83.162  76.841  1.00  0.00     0.293 HD
ENDBRANCH  46  47
ENDBRANCH  40  41
ENDBRANCH  38  40
ENDBRANCH  37  38
ENDBRANCH   1  37
TORSDOF 10
ENDMDL
MODEL 7
REMARK VINA RESULT:    -6.761     21.452     25.866
REMARK INTER + INTRA:         -12.368
REMARK INTER:                 -11.800
REMARK INTRA:                  -0.568
REMARK UNBOUND:                -0.864
REMARK SMILES C=C(C)[C@]12C[C@@H](C)[C@@]34O[C@](Cc5ccccc5)(O[C@@H]1[C@@H]3C=C(COC(=O)Cc1ccc(O)cc1)C[C@]1(O)C(=O)C(C)=C[C@@H]41)O2
REMARK SMILES IDX 23 1 22 2 21 3 20 4 9 5 8 6 10 7 6 8 18 10 44 11 19 12 5 13
REMARK SMILES IDX 7 14 4 15 11 16 12 17 13 18 17 19 14 20 16 21 15 22 2 23
REMARK SMILES IDX 3 24 1 25 35 26 36 27 43 28 38 29 42 30 39 32 40 33 41 34
REMARK SMILES IDX 37 35 24 37 25 38 26 39 27 40 28 41 29 42 34 43 30 44 33 45
REMARK SMILES IDX 31 46 32 47
REMARK H PARENT 37 36 32 48
REMARK Flexibility Score: 90.00
ROOT
ATOM      1  C   UNL     1      70.576  83.825  68.449  1.00  0.00     0.264 C 
ENDROOT
BRANCH   1   2
ATOM      2  C   UNL     1      71.611  84.219  67.420  1.00  0.00    -0.033 C 
ATOM      3  C   UNL     1      72.008  85.506  67.345  1.00  0.00    -0.015 C 
BRANCH   3   4
ATOM      4  C   UNL     1      72.964  86.165  66.363  1.00  0.00     0.078 C 
ATOM      5  O   UNL     1      75.213  86.095  67.390  1.00  0.00    -0.319 OA
ATOM      6  C   UNL     1      74.431  85.606  66.256  1.00  0.00     0.095 CG0
ATOM      7  C   UNL     1      75.010  87.481  67.725  1.00  0.00     0.289 C 
ATOM      8  C   UNL     1      75.058  86.158  64.910  1.00  0.00     0.023 C 
ATOM      9  G   UNL     1      74.445  84.057  66.414  1.00  0.00     0.000 G0
ATOM     10  O   UNL     1      73.639  87.749  68.009  1.00  0.00    -0.320 OA
ATOM     11  O   UNL     1      75.360  88.355  66.655  1.00  0.00    -0.313 OA
ATOM     12  C   UNL     1      73.090  87.675  66.684  1.00  0.00     0.170 C 
ATOM     13  C   UNL     1      74.518  87.580  64.569  1.00  0.00     0.049 C 
ATOM     14  C   UNL     1      76.595  86.168  64.852  1.00  0.00     0.011 C 
ATOM     15  C   UNL     1      74.176  88.374  65.831  1.00  0.00     0.122 C 
BRANCH   7  16
ATOM     16  C   UNL     1      75.858  87.805  68.939  1.00  0.00     0.135 C 
BRANCH  16  17
ATOM     17  C   UNL     1      76.270  86.563  69.690  1.00  0.00    -0.040 A 
ATOM     18  C   UNL     1      75.325  85.840  70.416  1.00  0.00     0.004 A 
ATOM     19  C   UNL     1      77.598  86.138  69.656  1.00  0.00     0.004 A 
ATOM     20  C   UNL     1      75.707  84.691  71.109  1.00  0.00     0.000 A 
ATOM     21  C   UNL     1      77.980  84.989  70.350  1.00  0.00     0.000 A 
ATOM     22  C   UNL     1      77.034  84.266  71.076  1.00  0.00     0.000 A 
ENDBRANCH  16  17
ENDBRANCH   7  16
BRANCH  15  23
ATOM     23  C   UNL     1      73.831  89.797  65.537  1.00  0.00    -0.046 C 
ATOM     24  C   UNL     1      72.966  90.034  64.335  1.00  0.00     0.042 C 
ATOM     25  C   UNL     1      74.268  90.806  66.305  1.00  0.00     0.010 C 
ENDBRANCH  15  23
ENDBRANCH   3   4
BRANCH   2  26
ATOM     26  C   UNL     1      72.088  83.051  66.578  1.00  0.00     0.078 C 
BRANCH  26  27
ATOM     27  C   UNL     1      73.310  83.283  65.691  1.00  0.00     0.140 C 
ATOM     28  C   UNL     1      74.421  84.066  66.422  1.00  0.00     0.086 CG0
ATOM     29  C   UNL     1      74.011  81.994  65.320  1.00  0.00     0.190 C 
ATOM     30  C   UNL     1      75.668  83.295  66.089  1.00  0.00    -0.010 C 
ATOM     31  G   UNL     1      74.406  85.611  66.238  1.00  0.00     0.000 G0
ATOM     32  O   UNL     1      73.464  80.991  64.884  1.00  0.00    -0.291 OA
ATOM     33  C   UNL     1      75.470  82.114  65.495  1.00  0.00    -0.008 C 
ATOM     34  C   UNL     1      76.441  81.071  65.105  1.00  0.00     0.048 C 
BRANCH  27  35
ATOM     35  O   UNL     1      72.945  83.842  64.440  1.00  0.00    -0.381 OA
ATOM     36  H   UNL     1      71.986  83.730  64.323  1.00  0.00     0.212 HD
ENDBRANCH  27  35
ENDBRANCH  26  27
ENDBRANCH   2  26
ENDBRANCH   1   2
BRANCH   1  37
ATOM     37  O   UNL     1      69.512  84.752  68.418  1.00  0.00    -0.461 OA
BRANCH  37  38
ATOM     38  C   UNL     1      69.218  85.379  69.608  1.00  0.00     0.310 C 
ATOM     39  O   UNL     1      69.031  86.580  69.742  1.00  0.00    -0.252 OA
BRANCH  38  40
ATOM     40  C   UNL     1      69.162  84.355  70.716  1.00  0.00     0.158 C 
BRANCH  40  41
ATOM     41  C   UNL     1      67.754  83.958  71.079  1.00  0.00    -0.037 A 
ATOM     42  C   UNL     1      67.142  82.886  70.430  1.00  0.00     0.008 A 
ATOM     43  C   UNL     1      67.062  84.663  72.063  1.00  0.00     0.008 A 
ATOM     44  C   UNL     1      65.838  82.519  70.766  1.00  0.00     0.046 A 
ATOM     45  C   UNL     1      65.759  84.297  72.400  1.00  0.00     0.046 A 
ATOM     46  C   UNL     1      65.147  83.225  71.751  1.00  0.00     0.115 A 
BRANCH  46  47
ATOM     47  O   UNL     1      63.875  82.868  72.077  1.00  0.00    -0.508 OA
ATOM     48  H   UNL     1      63.442  83.616  72.525  1.00  0.00     0.293 HD
ENDBRANCH  46  47
ENDBRANCH  40  41
ENDBRANCH  38  40
ENDBRANCH  37  38
ENDBRANCH   1  37
TORSDOF 10
ENDMDL
MODEL 8
REMARK VINA RESULT:    -6.748     20.075     23.492
REMARK INTER + INTRA:         -12.345
REMARK INTER:                 -11.841
REMARK INTRA:                  -0.505
REMARK UNBOUND:                -0.864
REMARK SMILES C=C(C)[C@]12C[C@@H](C)[C@@]34O[C@](Cc5ccccc5)(O[C@@H]1[C@@H]3C=C(COC(=O)Cc1ccc(O)cc1)C[C@]1(O)C(=O)C(C)=C[C@@H]41)O2
REMARK SMILES IDX 23 1 22 2 21 3 20 4 9 5 8 6 10 7 6 8 18 10 44 11 19 12 5 13
REMARK SMILES IDX 7 14 4 15 11 16 12 17 13 18 17 19 14 20 16 21 15 22 2 23
REMARK SMILES IDX 3 24 1 25 35 26 36 27 43 28 38 29 42 30 39 32 40 33 41 34
REMARK SMILES IDX 37 35 24 37 25 38 26 39 27 40 28 41 29 42 34 43 30 44 33 45
REMARK SMILES IDX 31 46 32 47
REMARK H PARENT 37 36 32 48
REMARK Flexibility Score: 90.00
ROOT
ATOM      1  C   UNL     1      96.802  83.568  85.627  1.00  0.00     0.264 C 
ENDROOT
BRANCH   1   2
ATOM      2  C   UNL     1      95.647  83.711  86.591  1.00  0.00    -0.033 C 
ATOM      3  C   UNL     1      94.564  82.921  86.444  1.00  0.00    -0.015 C 
BRANCH   3   4
ATOM      4  C   UNL     1      93.258  82.919  87.222  1.00  0.00     0.078 C 
ATOM      5  O   UNL     1      93.534  81.321  89.089  1.00  0.00    -0.319 OA
ATOM      6  C   UNL     1      93.317  82.733  88.783  1.00  0.00     0.095 CG0
ATOM      7  C   UNL     1      92.765  80.395  88.297  1.00  0.00     0.289 C 
ATOM      8  C   UNL     1      91.919  83.188  89.373  1.00  0.00     0.023 C 
ATOM      9  G   UNL     1      94.561  83.455  89.379  1.00  0.00     0.000 G0
ATOM     10  O   UNL     1      93.016  80.571  86.906  1.00  0.00    -0.320 OA
ATOM     11  O   UNL     1      91.361  80.577  88.461  1.00  0.00    -0.313 OA
ATOM     12  C   UNL     1      92.324  81.809  86.680  1.00  0.00     0.170 C 
ATOM     13  C   UNL     1      90.752  82.876  88.387  1.00  0.00     0.049 C 
ATOM     14  C   UNL     1      91.574  82.628  90.764  1.00  0.00     0.011 C 
ATOM     15  C   UNL     1      91.046  81.639  87.537  1.00  0.00     0.122 C 
BRANCH   7  16
ATOM     16  C   UNL     1      93.143  78.987  88.713  1.00  0.00     0.135 C 
BRANCH  16  17
ATOM     17  C   UNL     1      92.929  77.991  87.600  1.00  0.00    -0.040 A 
ATOM     18  C   UNL     1      91.646  77.527  87.316  1.00  0.00     0.004 A 
ATOM     19  C   UNL     1      94.017  77.535  86.856  1.00  0.00     0.004 A 
ATOM     20  C   UNL     1      91.448  76.607  86.286  1.00  0.00     0.000 A 
ATOM     21  C   UNL     1      93.819  76.614  85.826  1.00  0.00     0.000 A 
ATOM     22  C   UNL     1      92.536  76.150  85.542  1.00  0.00     0.000 A 
ENDBRANCH  16  17
ENDBRANCH   7  16
BRANCH  15  23
ATOM     23  C   UNL     1      89.872  81.215  86.716  1.00  0.00    -0.046 C 
ATOM     24  C   UNL     1      88.545  81.795  87.109  1.00  0.00     0.042 C 
ATOM     25  C   UNL     1      89.996  80.365  85.687  1.00  0.00     0.010 C 
ENDBRANCH  15  23
ENDBRANCH   3   4
BRANCH   2  26
ATOM     26  C   UNL     1      95.883  84.773  87.649  1.00  0.00     0.078 C 
BRANCH  26  27
ATOM     27  C   UNL     1      94.868  84.861  88.787  1.00  0.00     0.140 C 
ATOM     28  C   UNL     1      94.546  83.478  89.390  1.00  0.00     0.086 CG0
ATOM     29  C   UNL     1      95.403  85.621  89.983  1.00  0.00     0.190 C 
ATOM     30  C   UNL     1      94.613  83.719  90.873  1.00  0.00    -0.010 C 
ATOM     31  G   UNL     1      93.313  82.740  88.792  1.00  0.00     0.000 G0
ATOM     32  O   UNL     1      95.956  86.710  89.940  1.00  0.00    -0.291 OA
ATOM     33  C   UNL     1      95.117  84.901  91.238  1.00  0.00    -0.008 C 
ATOM     34  C   UNL     1      95.403  85.438  92.585  1.00  0.00     0.048 C 
BRANCH  27  35
ATOM     35  O   UNL     1      93.721  85.600  88.403  1.00  0.00    -0.381 OA
ATOM     36  H   UNL     1      93.293  85.942  89.206  1.00  0.00     0.212 HD
ENDBRANCH  27  35
ENDBRANCH  26  27
ENDBRANCH   2  26
ENDBRANCH   1   2
BRANCH   1  37
ATOM     37  O   UNL     1      96.661  82.362  84.906  1.00  0.00    -0.461 OA
BRANCH  37  38
ATOM     38  C   UNL     1      97.828  81.741  84.526  1.00  0.00     0.310 C 
ATOM     39  O   UNL     1      98.038  80.538  84.593  1.00  0.00    -0.252 OA
BRANCH  38  40
ATOM     40  C   UNL     1      98.805  82.774  84.015  1.00  0.00     0.158 C 
BRANCH  40  41
ATOM     41  C   UNL     1      99.023  82.690  82.527  1.00  0.00    -0.037 A 
ATOM     42  C   UNL     1     100.117  81.988  82.020  1.00  0.00     0.008 A 
ATOM     43  C   UNL     1      98.133  83.315  81.655  1.00  0.00     0.008 A 
ATOM     44  C   UNL     1     100.320  81.911  80.642  1.00  0.00     0.046 A 
ATOM     45  C   UNL     1      98.335  83.239  80.276  1.00  0.00     0.046 A 
ATOM     46  C   UNL     1      99.428  82.537  79.770  1.00  0.00     0.115 A 
BRANCH  46  47
ATOM     47  O   UNL     1      99.627  82.462  78.426  1.00  0.00    -0.508 OA
ATOM     48  H   UNL     1     100.302  83.115  78.170  1.00  0.00     0.293 HD
ENDBRANCH  46  47
ENDBRANCH  40  41
ENDBRANCH  38  40
ENDBRANCH  37  38
ENDBRANCH   1  37
TORSDOF 10
ENDMDL
MODEL 9
REMARK VINA RESULT:    -6.665     21.126     25.651
REMARK INTER + INTRA:         -12.204
REMARK INTER:                 -10.793
REMARK INTRA:                  -1.411
REMARK UNBOUND:                -0.864
REMARK SMILES C=C(C)[C@]12C[C@@H](C)[C@@]34O[C@](Cc5ccccc5)(O[C@@H]1[C@@H]3C=C(COC(=O)Cc1ccc(O)cc1)C[C@]1(O)C(=O)C(C)=C[C@@H]41)O2
REMARK SMILES IDX 23 1 22 2 21 3 20 4 9 5 8 6 10 7 6 8 18 10 44 11 19 12 5 13
REMARK SMILES IDX 7 14 4 15 11 16 12 17 13 18 17 19 14 20 16 21 15 22 2 23
REMARK SMILES IDX 3 24 1 25 35 26 36 27 43 28 38 29 42 30 39 32 40 33 41 34
REMARK SMILES IDX 37 35 24 37 25 38 26 39 27 40 28 41 29 42 34 43 30 44 33 45
REMARK SMILES IDX 31 46 32 47
REMARK H PARENT 37 36 32 48
REMARK Flexibility Score: 90.00
ROOT
ATOM      1  C   UNL     1      69.904  82.903  68.310  1.00  0.00     0.264 C 
ENDROOT
BRANCH   1   2
ATOM      2  C   UNL     1      71.029  83.523  67.513  1.00  0.00    -0.033 C 
ATOM      3  C   UNL     1      71.351  84.816  67.724  1.00  0.00    -0.015 C 
BRANCH   3   4
ATOM      4  C   UNL     1      72.375  85.684  67.012  1.00  0.00     0.078 C 
ATOM      5  O   UNL     1      74.480  85.519  68.300  1.00  0.00    -0.319 OA
ATOM      6  C   UNL     1      73.877  85.215  67.003  1.00  0.00     0.095 CG0
ATOM      7  C   UNL     1      74.147  86.809  68.846  1.00  0.00     0.289 C 
ATOM      8  C   UNL     1      74.628  86.032  65.872  1.00  0.00     0.023 C 
ATOM      9  G   UNL     1      73.972  83.666  66.884  1.00  0.00     0.000 G0
ATOM     10  O   UNL     1      72.738  86.963  68.988  1.00  0.00    -0.320 OA
ATOM     11  O   UNL     1      74.569  87.880  68.005  1.00  0.00    -0.313 OA
ATOM     12  C   UNL     1      72.361  87.112  67.609  1.00  0.00     0.170 C 
ATOM     13  C   UNL     1      74.043  87.469  65.720  1.00  0.00     0.049 C 
ATOM     14  C   UNL     1      76.156  86.117  66.022  1.00  0.00     0.011 C 
ATOM     15  C   UNL     1      73.497  88.001  67.047  1.00  0.00     0.122 C 
BRANCH   7  16
ATOM     16  C   UNL     1      74.816  86.938  70.200  1.00  0.00     0.135 C 
BRANCH  16  17
ATOM     17  C   UNL     1      74.720  88.340  70.748  1.00  0.00    -0.040 A 
ATOM     18  C   UNL     1      75.704  89.279  70.441  1.00  0.00     0.004 A 
ATOM     19  C   UNL     1      73.645  88.697  71.562  1.00  0.00     0.004 A 
ATOM     20  C   UNL     1      75.615  90.576  70.947  1.00  0.00     0.000 A 
ATOM     21  C   UNL     1      73.556  89.994  72.069  1.00  0.00     0.000 A 
ATOM     22  C   UNL     1      74.540  90.933  71.761  1.00  0.00     0.000 A 
ENDBRANCH  16  17
ENDBRANCH   7  16
BRANCH  15  23
ATOM     23  C   UNL     1      73.098  89.439  66.967  1.00  0.00    -0.046 C 
ATOM     24  C   UNL     1      72.773  90.108  68.270  1.00  0.00     0.042 C 
ATOM     25  C   UNL     1      73.033  90.094  65.799  1.00  0.00     0.010 C 
ENDBRANCH  15  23
ENDBRANCH   3   4
BRANCH   2  26
ATOM     26  C   UNL     1      71.677  82.553  66.544  1.00  0.00     0.078 C 
BRANCH  26  27
ATOM     27  C   UNL     1      72.986  82.991  65.889  1.00  0.00     0.140 C 
ATOM     28  C   UNL     1      73.941  83.672  66.891  1.00  0.00     0.086 CG0
ATOM     29  C   UNL     1      73.810  81.819  65.400  1.00  0.00     0.190 C 
ATOM     30  C   UNL     1      75.267  83.026  66.605  1.00  0.00    -0.010 C 
ATOM     31  G   UNL     1      73.850  85.223  66.978  1.00  0.00     0.000 G0
ATOM     32  O   UNL     1      73.391  80.891  64.725  1.00  0.00    -0.291 OA
ATOM     33  C   UNL     1      75.224  81.965  65.794  1.00  0.00    -0.008 C 
ATOM     34  C   UNL     1      76.302  81.049  65.366  1.00  0.00     0.048 C 
BRANCH  27  35
ATOM     35  O   UNL     1      72.749  83.751  64.716  1.00  0.00    -0.381 OA
ATOM     36  H   UNL     1      72.603  84.677  64.975  1.00  0.00     0.212 HD
ENDBRANCH  27  35
ENDBRANCH  26  27
ENDBRANCH   2  26
ENDBRANCH   1   2
BRANCH   1  37
ATOM     37  O   UNL     1      68.682  83.503  67.936  1.00  0.00    -0.461 OA
BRANCH  37  38
ATOM     38  C   UNL     1      67.910  83.998  68.962  1.00  0.00     0.310 C 
ATOM     39  O   UNL     1      66.754  84.380  68.849  1.00  0.00    -0.252 OA
BRANCH  38  40
ATOM     40  C   UNL     1      68.711  83.996  70.242  1.00  0.00     0.158 C 
BRANCH  40  41
ATOM     41  C   UNL     1      68.869  85.370  70.838  1.00  0.00    -0.037 A 
ATOM     42  C   UNL     1      67.771  86.014  71.409  1.00  0.00     0.008 A 
ATOM     43  C   UNL     1      70.113  86.000  70.820  1.00  0.00     0.008 A 
ATOM     44  C   UNL     1      67.918  87.287  71.961  1.00  0.00     0.046 A 
ATOM     45  C   UNL     1      70.261  87.273  71.372  1.00  0.00     0.046 A 
ATOM     46  C   UNL     1      69.163  87.916  71.942  1.00  0.00     0.115 A 
BRANCH  46  47
ATOM     47  O   UNL     1      69.305  89.158  72.480  1.00  0.00    -0.508 OA
ATOM     48  H   UNL     1      70.036  89.616  72.029  1.00  0.00     0.293 HD
ENDBRANCH  46  47
ENDBRANCH  40  41
ENDBRANCH  38  40
ENDBRANCH  37  38
ENDBRANCH   1  37
TORSDOF 10
ENDMDL
MODEL 10
REMARK VINA RESULT:    -6.553     19.109     23.706
REMARK INTER + INTRA:         -12.015
REMARK INTER:                 -11.682
REMARK INTRA:                  -0.333
REMARK UNBOUND:                -0.864
REMARK SMILES C=C(C)[C@]12C[C@@H](C)[C@@]34O[C@](Cc5ccccc5)(O[C@@H]1[C@@H]3C=C(COC(=O)Cc1ccc(O)cc1)C[C@]1(O)C(=O)C(C)=C[C@@H]41)O2
REMARK SMILES IDX 23 1 22 2 21 3 20 4 9 5 8 6 10 7 6 8 18 10 44 11 19 12 5 13
REMARK SMILES IDX 7 14 4 15 11 16 12 17 13 18 17 19 14 20 16 21 15 22 2 23
REMARK SMILES IDX 3 24 1 25 35 26 36 27 43 28 38 29 42 30 39 32 40 33 41 34
REMARK SMILES IDX 37 35 24 37 25 38 26 39 27 40 28 41 29 42 34 43 30 44 33 45
REMARK SMILES IDX 31 46 32 47
REMARK H PARENT 37 36 32 48
REMARK Flexibility Score: 90.00
ROOT
ATOM      1  C   UNL     1      98.385  81.497  83.545  1.00  0.00     0.264 C 
ENDROOT
BRANCH   1   2
ATOM      2  C   UNL     1      98.113  82.087  84.909  1.00  0.00    -0.033 C 
ATOM      3  C   UNL     1      96.868  82.015  85.423  1.00  0.00    -0.015 C 
BRANCH   3   4
ATOM      4  C   UNL     1      96.324  82.589  86.721  1.00  0.00     0.078 C 
ATOM      5  O   UNL     1      96.563  80.830  88.443  1.00  0.00    -0.319 OA
ATOM      6  C   UNL     1      97.014  82.170  88.071  1.00  0.00     0.095 CG0
ATOM      7  C   UNL     1      95.156  80.582  88.263  1.00  0.00     0.289 C 
ATOM      8  C   UNL     1      96.558  83.202  89.183  1.00  0.00     0.023 C 
ATOM      9  G   UNL     1      98.552  82.024  87.885  1.00  0.00     0.000 G0
ATOM     10  O   UNL     1      94.760  80.803  86.912  1.00  0.00    -0.320 OA
ATOM     11  O   UNL     1      94.347  81.454  89.049  1.00  0.00    -0.313 OA
ATOM     12  C   UNL     1      94.823  82.237  86.864  1.00  0.00     0.170 C 
ATOM     13  C   UNL     1      95.104  83.707  88.934  1.00  0.00     0.049 C 
ATOM     14  C   UNL     1      96.685  82.709  90.635  1.00  0.00     0.011 C 
ATOM     15  C   UNL     1      94.247  82.645  88.242  1.00  0.00     0.122 C 
BRANCH   7  16
ATOM     16  C   UNL     1      94.873  79.144  88.651  1.00  0.00     0.135 C 
BRANCH  16  17
ATOM     17  C   UNL     1      93.726  78.560  87.865  1.00  0.00    -0.040 A 
ATOM     18  C   UNL     1      93.957  77.990  86.614  1.00  0.00     0.004 A 
ATOM     19  C   UNL     1      92.435  78.590  88.391  1.00  0.00     0.004 A 
ATOM     20  C   UNL     1      92.896  77.449  85.887  1.00  0.00     0.000 A 
ATOM     21  C   UNL     1      91.374  78.049  87.664  1.00  0.00     0.000 A 
ATOM     22  C   UNL     1      91.605  77.479  86.413  1.00  0.00     0.000 A 
ENDBRANCH  16  17
ENDBRANCH   7  16
BRANCH  15  23
ATOM     23  C   UNL     1      92.808  83.036  88.156  1.00  0.00    -0.046 C 
ATOM     24  C   UNL     1      91.810  81.962  88.477  1.00  0.00     0.042 C 
ATOM     25  C   UNL     1      92.429  84.275  87.812  1.00  0.00     0.010 C 
ENDBRANCH  15  23
ENDBRANCH   3   4
BRANCH   2  26
ATOM     26  C   UNL     1      99.344  82.704  85.547  1.00  0.00     0.078 C 
BRANCH  26  27
ATOM     27  C   UNL     1      99.235  83.124  87.011  1.00  0.00     0.140 C 
ATOM     28  C   UNL     1      98.563  82.041  87.881  1.00  0.00     0.086 CG0
ATOM     29  C   UNL     1     100.588  83.279  87.673  1.00  0.00     0.190 C 
ATOM     30  C   UNL     1      99.453  81.962  89.090  1.00  0.00    -0.010 C 
ATOM     31  G   UNL     1      97.024  82.172  88.073  1.00  0.00     0.000 G0
ATOM     32  O   UNL     1     101.533  83.903  87.214  1.00  0.00    -0.291 OA
ATOM     33  C   UNL     1     100.610  82.623  88.994  1.00  0.00    -0.008 C 
ATOM     34  C   UNL     1     101.744  82.699  89.938  1.00  0.00     0.048 C 
BRANCH  27  35
ATOM     35  O   UNL     1      98.646  84.408  87.140  1.00  0.00    -0.381 OA
ATOM     36  H   UNL     1      97.836  84.429  86.603  1.00  0.00     0.212 HD
ENDBRANCH  27  35
ENDBRANCH  26  27
ENDBRANCH   2  26
ENDBRANCH   1   2
BRANCH   1  37
ATOM     37  O   UNL     1      99.770  81.264  83.404  1.00  0.00    -0.461 OA
BRANCH  37  38
ATOM     38  C   UNL     1     100.250  81.209  82.116  1.00  0.00     0.310 C 
ATOM     39  O   UNL     1     100.526  80.181  81.513  1.00  0.00    -0.252 OA
BRANCH  38  40
ATOM     40  C   UNL     1     100.379  82.609  81.566  1.00  0.00     0.158 C 
BRANCH  40  41
ATOM     41  C   UNL     1      99.489  82.858  80.376  1.00  0.00    -0.037 A 
ATOM     42  C   UNL     1      98.147  83.187  80.567  1.00  0.00     0.008 A 
ATOM     43  C   UNL     1     100.006  82.760  79.085  1.00  0.00     0.008 A 
ATOM     44  C   UNL     1      97.321  83.417  79.465  1.00  0.00     0.046 A 
ATOM     45  C   UNL     1      99.181  82.990  77.983  1.00  0.00     0.046 A 
ATOM     46  C   UNL     1      97.839  83.318  78.173  1.00  0.00     0.115 A 
BRANCH  46  47
ATOM     47  O   UNL     1      97.034  83.542  77.099  1.00  0.00    -0.508 OA
ATOM     48  H   UNL     1      97.460  84.195  76.517  1.00  0.00     0.293 HD
ENDBRANCH  46  47
ENDBRANCH  40  41
ENDBRANCH  38  40
ENDBRANCH  37  38
ENDBRANCH   1  37
TORSDOF 10
ENDMDL
