MODEL 1
REMARK VINA RESULT:    -6.221      0.000      0.000
REMARK INTER + INTRA:         -11.014
REMARK INTER:                 -10.040
REMARK INTRA:                  -0.975
REMARK UNBOUND:                -0.975
REMARK SMILES COc1cc(CNC(=O)CCCCCCC(C)C)ccc1O
REMARK SMILES IDX 11 1 10 2 8 3 7 4 9 6 6 7 5 8 3 9 21 10 4 11 20 12 19 13
REMARK SMILES IDX 2 14 1 15 22 16 12 18 13 19 14 20 15 21 16 22 17 23 18 24
REMARK H PARENT 7 5 22 17
REMARK Flexibility Score: inf
ROOT
ATOM      1  C   UNL     1      93.224  94.828  75.767  1.00  0.00     0.010 C 
ENDROOT
BRANCH   1   2
ATOM      2  C   UNL     1      93.500  95.011  77.285  1.00  0.00     0.100 C 
BRANCH   2   3
ATOM      3  C   UNL     1      94.232  96.258  77.600  1.00  0.00     0.220 C 
ATOM      4  N   UNL     1      95.559  96.218  77.914  1.00  0.00    -0.352 N 
ATOM      5  H   UNL     1      95.955  95.290  77.952  1.00  0.00     0.163 HD
ATOM      6  O   UNL     1      93.613  97.349  77.548  1.00  0.00    -0.275 OA
BRANCH   4   7
ATOM      7  C   UNL     1      96.381  97.360  78.179  1.00  0.00     0.151 C 
BRANCH   7   8
ATOM      8  C   UNL     1      96.408  97.742  79.618  1.00  0.00    -0.025 A 
ATOM      9  C   UNL     1      97.286  97.415  81.891  1.00  0.00     0.160 A 
ATOM     10  C   UNL     1      96.500  98.493  82.353  1.00  0.00     0.157 A 
ATOM     11  C   UNL     1      97.220  97.036  80.534  1.00  0.00     0.056 A 
ATOM     12  C   UNL     1      95.658  99.178  81.458  1.00  0.00     0.050 A 
ATOM     13  C   UNL     1      95.619  98.814  80.098  1.00  0.00     0.009 A 
BRANCH   9  14
ATOM     14  O   UNL     1      98.079  96.716  82.761  1.00  0.00    -0.493 OA
ATOM     15  C   UNL     1      97.759  95.315  82.839  1.00  0.00     0.278 C 
ENDBRANCH   9  14
BRANCH  10  16
ATOM     16  O   UNL     1      96.542  98.878  83.655  1.00  0.00    -0.504 OA
ATOM     17  H   UNL     1      96.221  99.780  83.732  1.00  0.00     0.293 HD
ENDBRANCH  10  16
ENDBRANCH   7   8
ENDBRANCH   4   7
ENDBRANCH   2   3
ENDBRANCH   1   2
BRANCH   1  18
ATOM     18  C   UNL     1      91.794  95.293  75.370  1.00  0.00     0.001 C 
BRANCH  18  19
ATOM     19  C   UNL     1      90.787  95.303  76.555  1.00  0.00     0.000 C 
BRANCH  19  20
ATOM     20  C   UNL     1      89.629  94.291  76.329  1.00  0.00     0.000 C 
BRANCH  20  21
ATOM     21  C   UNL     1      89.995  92.819  76.663  1.00  0.00     0.003 C 
BRANCH  21  22
ATOM     22  C   UNL     1      90.242  91.911  75.414  1.00  0.00    -0.017 C 
ATOM     23  C   UNL     1      89.876  92.671  74.108  1.00  0.00     0.007 C 
ATOM     24  C   UNL     1      89.497  90.545  75.477  1.00  0.00     0.007 C 
ENDBRANCH  21  22
ENDBRANCH  20  21
ENDBRANCH  19  20
ENDBRANCH  18  19
ENDBRANCH   1  18
TORSDOF 11
ENDMDL
MODEL 2
REMARK VINA RESULT:    -6.096     14.370     17.372
REMARK INTER + INTRA:         -10.813
REMARK INTER:                 -10.101
REMARK INTRA:                  -0.711
REMARK UNBOUND:                -0.975
REMARK SMILES COc1cc(CNC(=O)CCCCCCC(C)C)ccc1O
REMARK SMILES IDX 11 1 10 2 8 3 7 4 9 6 6 7 5 8 3 9 21 10 4 11 20 12 19 13
REMARK SMILES IDX 2 14 1 15 22 16 12 18 13 19 14 20 15 21 16 22 17 23 18 24
REMARK H PARENT 7 5 22 17
REMARK Flexibility Score: inf
ROOT
ATOM      1  C   UNL     1      94.795  81.750  84.182  1.00  0.00     0.010 C 
ENDROOT
BRANCH   1   2
ATOM      2  C   UNL     1      93.963  83.060  84.254  1.00  0.00     0.100 C 
BRANCH   2   3
ATOM      3  C   UNL     1      92.646  82.881  84.904  1.00  0.00     0.220 C 
ATOM      4  N   UNL     1      91.565  82.479  84.174  1.00  0.00    -0.352 N 
ATOM      5  H   UNL     1      91.742  82.368  83.186  1.00  0.00     0.163 HD
ATOM      6  O   UNL     1      92.552  83.082  86.140  1.00  0.00    -0.275 OA
BRANCH   4   7
ATOM      7  C   UNL     1      90.261  82.218  84.703  1.00  0.00     0.151 C 
BRANCH   7   8
ATOM      8  C   UNL     1      89.820  80.809  84.509  1.00  0.00    -0.025 A 
ATOM      9  C   UNL     1      90.337  78.406  84.447  1.00  0.00     0.160 A 
ATOM     10  C   UNL     1      88.980  78.119  84.183  1.00  0.00     0.157 A 
ATOM     11  C   UNL     1      90.749  79.747  84.588  1.00  0.00     0.056 A 
ATOM     12  C   UNL     1      88.052  79.169  84.062  1.00  0.00     0.050 A 
ATOM     13  C   UNL     1      88.466  80.505  84.234  1.00  0.00     0.009 A 
BRANCH   9  14
ATOM     14  O   UNL     1      91.254  77.393  84.526  1.00  0.00    -0.493 OA
ATOM     15  C   UNL     1      92.383  77.564  83.651  1.00  0.00     0.278 C 
ENDBRANCH   9  14
BRANCH  10  16
ATOM     16  O   UNL     1      88.554  76.836  84.040  1.00  0.00    -0.504 OA
ATOM     17  H   UNL     1      87.663  76.755  84.387  1.00  0.00     0.293 HD
ENDBRANCH  10  16
ENDBRANCH   7   8
ENDBRANCH   4   7
ENDBRANCH   2   3
ENDBRANCH   1   2
BRANCH   1  18
ATOM     18  C   UNL     1      96.228  81.994  83.629  1.00  0.00     0.001 C 
BRANCH  18  19
ATOM     19  C   UNL     1      96.471  81.379  82.222  1.00  0.00     0.000 C 
BRANCH  19  20
ATOM     20  C   UNL     1      97.544  82.174  81.427  1.00  0.00     0.000 C 
BRANCH  20  21
ATOM     21  C   UNL     1      96.962  83.262  80.483  1.00  0.00     0.003 C 
BRANCH  21  22
ATOM     22  C   UNL     1      97.410  83.135  78.990  1.00  0.00    -0.017 C 
ATOM     23  C   UNL     1      96.308  83.688  78.043  1.00  0.00     0.007 C 
ATOM     24  C   UNL     1      97.806  81.686  78.577  1.00  0.00     0.007 C 
ENDBRANCH  21  22
ENDBRANCH  20  21
ENDBRANCH  19  20
ENDBRANCH  18  19
ENDBRANCH   1  18
TORSDOF 11
ENDMDL
MODEL 3
REMARK VINA RESULT:    -5.978     16.733     19.207
REMARK INTER + INTRA:         -10.622
REMARK INTER:                  -9.835
REMARK INTRA:                  -0.786
REMARK UNBOUND:                -0.975
REMARK SMILES COc1cc(CNC(=O)CCCCCCC(C)C)ccc1O
REMARK SMILES IDX 11 1 10 2 8 3 7 4 9 6 6 7 5 8 3 9 21 10 4 11 20 12 19 13
REMARK SMILES IDX 2 14 1 15 22 16 12 18 13 19 14 20 15 21 16 22 17 23 18 24
REMARK H PARENT 7 5 22 17
REMARK Flexibility Score: inf
ROOT
ATOM      1  C   UNL     1      91.121  75.107  79.835  1.00  0.00     0.010 C 
ENDROOT
BRANCH   1   2
ATOM      2  C   UNL     1      91.936  75.189  81.155  1.00  0.00     0.100 C 
BRANCH   2   3
ATOM      3  C   UNL     1      91.112  75.550  82.330  1.00  0.00     0.220 C 
ATOM      4  N   UNL     1      91.466  76.602  83.124  1.00  0.00    -0.352 N 
ATOM      5  H   UNL     1      92.330  77.054  82.863  1.00  0.00     0.163 HD
ATOM      6  O   UNL     1      90.073  74.885  82.563  1.00  0.00    -0.275 OA
BRANCH   4   7
ATOM      7  C   UNL     1      90.717  77.077  84.248  1.00  0.00     0.151 C 
BRANCH   7   8
ATOM      8  C   UNL     1      90.483  78.547  84.217  1.00  0.00    -0.025 A 
ATOM      9  C   UNL     1      88.932  80.455  84.152  1.00  0.00     0.160 A 
ATOM     10  C   UNL     1      90.025  81.348  84.203  1.00  0.00     0.157 A 
ATOM     11  C   UNL     1      89.170  79.065  84.140  1.00  0.00     0.056 A 
ATOM     12  C   UNL     1      91.339  80.845  84.241  1.00  0.00     0.050 A 
ATOM     13  C   UNL     1      91.567  79.455  84.259  1.00  0.00     0.009 A 
BRANCH   9  14
ATOM     14  O   UNL     1      87.653  80.934  84.075  1.00  0.00    -0.493 OA
ATOM     15  C   UNL     1      87.062  80.803  82.769  1.00  0.00     0.278 C 
ENDBRANCH   9  14
BRANCH  10  16
ATOM     16  O   UNL     1      89.827  82.692  84.214  1.00  0.00    -0.504 OA
ATOM     17  H   UNL     1      90.095  83.061  83.369  1.00  0.00     0.293 HD
ENDBRANCH  10  16
ENDBRANCH   7   8
ENDBRANCH   4   7
ENDBRANCH   2   3
ENDBRANCH   1   2
BRANCH   1  18
ATOM     18  C   UNL     1      92.003  74.684  78.626  1.00  0.00     0.001 C 
BRANCH  18  19
ATOM     19  C   UNL     1      91.221  74.579  77.287  1.00  0.00     0.000 C 
BRANCH  19  20
ATOM     20  C   UNL     1      90.054  75.603  77.224  1.00  0.00     0.000 C 
BRANCH  20  21
ATOM     21  C   UNL     1      90.045  76.483  75.943  1.00  0.00     0.003 C 
BRANCH  21  22
ATOM     22  C   UNL     1      91.425  77.125  75.587  1.00  0.00    -0.017 C 
ATOM     23  C   UNL     1      91.662  78.409  76.432  1.00  0.00     0.007 C 
ATOM     24  C   UNL     1      91.599  77.432  74.070  1.00  0.00     0.007 C 
ENDBRANCH  21  22
ENDBRANCH  20  21
ENDBRANCH  19  20
ENDBRANCH  18  19
ENDBRANCH   1  18
TORSDOF 11
ENDMDL
MODEL 4
REMARK VINA RESULT:    -5.929     28.369     32.458
REMARK INTER + INTRA:         -10.544
REMARK INTER:                  -9.900
REMARK INTRA:                  -0.643
REMARK UNBOUND:                -0.975
REMARK SMILES COc1cc(CNC(=O)CCCCCCC(C)C)ccc1O
REMARK SMILES IDX 11 1 10 2 8 3 7 4 9 6 6 7 5 8 3 9 21 10 4 11 20 12 19 13
REMARK SMILES IDX 2 14 1 15 22 16 12 18 13 19 14 20 15 21 16 22 17 23 18 24
REMARK H PARENT 7 5 22 17
REMARK Flexibility Score: inf
ROOT
ATOM      1  C   UNL     1      79.755  65.542  71.719  1.00  0.00     0.010 C 
ENDROOT
BRANCH   1   2
ATOM      2  C   UNL     1      81.298  65.531  71.902  1.00  0.00     0.100 C 
BRANCH   2   3
ATOM      3  C   UNL     1      81.743  66.173  73.159  1.00  0.00     0.220 C 
ATOM      4  N   UNL     1      82.919  65.802  73.744  1.00  0.00    -0.352 N 
ATOM      5  H   UNL     1      83.403  65.050  73.276  1.00  0.00     0.163 HD
ATOM      6  O   UNL     1      81.030  67.078  73.657  1.00  0.00    -0.275 OA
BRANCH   4   7
ATOM      7  C   UNL     1      83.476  66.391  74.924  1.00  0.00     0.151 C 
BRANCH   7   8
ATOM      8  C   UNL     1      84.508  67.424  74.632  1.00  0.00    -0.025 A 
ATOM      9  C   UNL     1      85.951  68.598  73.023  1.00  0.00     0.160 A 
ATOM     10  C   UNL     1      86.443  69.419  74.061  1.00  0.00     0.157 A 
ATOM     11  C   UNL     1      85.003  67.596  73.319  1.00  0.00     0.056 A 
ATOM     12  C   UNL     1      85.988  69.232  75.378  1.00  0.00     0.050 A 
ATOM     13  C   UNL     1      85.019  68.249  75.662  1.00  0.00     0.009 A 
BRANCH   9  14
ATOM     14  O   UNL     1      86.416  68.746  71.745  1.00  0.00    -0.493 OA
ATOM     15  C   UNL     1      86.521  67.507  71.019  1.00  0.00     0.278 C 
ENDBRANCH   9  14
BRANCH  10  16
ATOM     16  O   UNL     1      87.358  70.391  73.805  1.00  0.00    -0.504 OA
ATOM     17  H   UNL     1      87.747  70.688  74.630  1.00  0.00     0.293 HD
ENDBRANCH  10  16
ENDBRANCH   7   8
ENDBRANCH   4   7
ENDBRANCH   2   3
ENDBRANCH   1   2
BRANCH   1  18
ATOM     18  C   UNL     1      79.342  65.550  70.220  1.00  0.00     0.001 C 
BRANCH  18  19
ATOM     19  C   UNL     1      79.271  64.135  69.581  1.00  0.00     0.000 C 
BRANCH  19  20
ATOM     20  C   UNL     1      77.883  63.867  68.935  1.00  0.00     0.000 C 
BRANCH  20  21
ATOM     21  C   UNL     1      76.965  65.119  68.858  1.00  0.00     0.003 C 
BRANCH  21  22
ATOM     22  C   UNL     1      75.894  65.070  67.719  1.00  0.00    -0.017 C 
ATOM     23  C   UNL     1      75.337  63.628  67.557  1.00  0.00     0.007 C 
ATOM     24  C   UNL     1      76.409  65.613  66.353  1.00  0.00     0.007 C 
ENDBRANCH  21  22
ENDBRANCH  20  21
ENDBRANCH  19  20
ENDBRANCH  18  19
ENDBRANCH   1  18
TORSDOF 11
ENDMDL
MODEL 5
REMARK VINA RESULT:    -5.818     12.929     16.735
REMARK INTER + INTRA:         -10.364
REMARK INTER:                  -9.807
REMARK INTRA:                  -0.556
REMARK UNBOUND:                -0.975
REMARK SMILES COc1cc(CNC(=O)CCCCCCC(C)C)ccc1O
REMARK SMILES IDX 11 1 10 2 8 3 7 4 9 6 6 7 5 8 3 9 21 10 4 11 20 12 19 13
REMARK SMILES IDX 2 14 1 15 22 16 12 18 13 19 14 20 15 21 16 22 17 23 18 24
REMARK H PARENT 7 5 22 17
REMARK Flexibility Score: inf
ROOT
ATOM      1  C   UNL     1      92.948  85.547  87.930  1.00  0.00     0.010 C 
ENDROOT
BRANCH   1   2
ATOM      2  C   UNL     1      93.251  85.311  86.424  1.00  0.00     0.100 C 
BRANCH   2   3
ATOM      3  C   UNL     1      93.235  83.882  86.041  1.00  0.00     0.220 C 
ATOM      4  N   UNL     1      92.643  83.487  84.877  1.00  0.00    -0.352 N 
ATOM      5  H   UNL     1      92.201  84.230  84.356  1.00  0.00     0.163 HD
ATOM      6  O   UNL     1      93.796  83.050  86.796  1.00  0.00    -0.275 OA
BRANCH   4   7
ATOM      7  C   UNL     1      92.616  82.146  84.377  1.00  0.00     0.151 C 
BRANCH   7   8
ATOM      8  C   UNL     1      91.251  81.554  84.358  1.00  0.00    -0.025 A 
ATOM      9  C   UNL     1      88.823  81.790  84.670  1.00  0.00     0.160 A 
ATOM     10  C   UNL     1      88.640  80.445  84.282  1.00  0.00     0.157 A 
ATOM     11  C   UNL     1      90.126  82.328  84.724  1.00  0.00     0.056 A 
ATOM     12  C   UNL     1      89.755  79.653  83.954  1.00  0.00     0.050 A 
ATOM     13  C   UNL     1      91.050  80.205  83.980  1.00  0.00     0.009 A 
BRANCH   9  14
ATOM     14  O   UNL     1      87.749  82.557  85.030  1.00  0.00    -0.493 OA
ATOM     15  C   UNL     1      87.203  83.335  83.949  1.00  0.00     0.278 C 
ENDBRANCH   9  14
BRANCH  10  16
ATOM     16  O   UNL     1      87.396  79.900  84.224  1.00  0.00    -0.504 OA
ATOM     17  H   UNL     1      87.417  79.016  84.597  1.00  0.00     0.293 HD
ENDBRANCH  10  16
ENDBRANCH   7   8
ENDBRANCH   4   7
ENDBRANCH   2   3
ENDBRANCH   1   2
BRANCH   1  18
ATOM     18  C   UNL     1      93.875  86.629  88.552  1.00  0.00     0.001 C 
BRANCH  18  19
ATOM     19  C   UNL     1      93.258  87.350  89.784  1.00  0.00     0.000 C 
BRANCH  19  20
ATOM     20  C   UNL     1      93.452  88.890  89.702  1.00  0.00     0.000 C 
BRANCH  20  21
ATOM     21  C   UNL     1      92.129  89.703  89.749  1.00  0.00     0.003 C 
BRANCH  21  22
ATOM     22  C   UNL     1      92.310  91.250  89.615  1.00  0.00    -0.017 C 
ATOM     23  C   UNL     1      93.796  91.600  89.321  1.00  0.00     0.007 C 
ATOM     24  C   UNL     1      91.797  92.048  90.850  1.00  0.00     0.007 C 
ENDBRANCH  21  22
ENDBRANCH  20  21
ENDBRANCH  19  20
ENDBRANCH  18  19
ENDBRANCH   1  18
TORSDOF 11
ENDMDL
MODEL 6
REMARK VINA RESULT:    -5.762     13.746     16.307
REMARK INTER + INTRA:         -10.273
REMARK INTER:                  -9.444
REMARK INTRA:                  -0.829
REMARK UNBOUND:                -0.975
REMARK SMILES COc1cc(CNC(=O)CCCCCCC(C)C)ccc1O
REMARK SMILES IDX 11 1 10 2 8 3 7 4 9 6 6 7 5 8 3 9 21 10 4 11 20 12 19 13
REMARK SMILES IDX 2 14 1 15 22 16 12 18 13 19 14 20 15 21 16 22 17 23 18 24
REMARK H PARENT 7 5 22 17
REMARK Flexibility Score: inf
ROOT
ATOM      1  C   UNL     1      97.050  82.466  80.741  1.00  0.00     0.010 C 
ENDROOT
BRANCH   1   2
ATOM      2  C   UNL     1      96.932  81.433  81.896  1.00  0.00     0.100 C 
BRANCH   2   3
ATOM      3  C   UNL     1      96.069  81.893  83.007  1.00  0.00     0.220 C 
ATOM      4  N   UNL     1      95.335  80.996  83.727  1.00  0.00    -0.352 N 
ATOM      5  H   UNL     1      95.406  80.041  83.407  1.00  0.00     0.163 HD
ATOM      6  O   UNL     1      96.046  83.118  83.284  1.00  0.00    -0.275 OA
BRANCH   4   7
ATOM      7  C   UNL     1      94.513  81.316  84.854  1.00  0.00     0.151 C 
BRANCH   7   8
ATOM      8  C   UNL     1      93.061  81.101  84.601  1.00  0.00    -0.025 A 
ATOM      9  C   UNL     1      91.137  79.583  84.398  1.00  0.00     0.160 A 
ATOM     10  C   UNL     1      90.288  80.687  84.165  1.00  0.00     0.157 A 
ATOM     11  C   UNL     1      92.518  79.797  84.595  1.00  0.00     0.056 A 
ATOM     12  C   UNL     1      90.824  81.987  84.130  1.00  0.00     0.050 A 
ATOM     13  C   UNL     1      92.198  82.195  84.357  1.00  0.00     0.009 A 
BRANCH   9  14
ATOM     14  O   UNL     1      90.633  78.311  84.394  1.00  0.00    -0.493 OA
ATOM     15  C   UNL     1      91.488  77.350  83.748  1.00  0.00     0.278 C 
ENDBRANCH   9  14
BRANCH  10  16
ATOM     16  O   UNL     1      88.955  80.511  83.970  1.00  0.00    -0.504 OA
ATOM     17  H   UNL     1      88.623  79.864  84.597  1.00  0.00     0.293 HD
ENDBRANCH  10  16
ENDBRANCH   7   8
ENDBRANCH   4   7
ENDBRANCH   2   3
ENDBRANCH   1   2
BRANCH   1  18
ATOM     18  C   UNL     1      98.421  82.377  80.013  1.00  0.00     0.001 C 
BRANCH  18  19
ATOM     19  C   UNL     1      98.492  81.249  78.945  1.00  0.00     0.000 C 
BRANCH  19  20
ATOM     20  C   UNL     1      97.744  81.647  77.642  1.00  0.00     0.000 C 
BRANCH  20  21
ATOM     21  C   UNL     1      98.401  82.821  76.863  1.00  0.00     0.003 C 
BRANCH  21  22
ATOM     22  C   UNL     1      97.466  84.053  76.633  1.00  0.00    -0.017 C 
ATOM     23  C   UNL     1      96.195  83.944  77.522  1.00  0.00     0.007 C 
ATOM     24  C   UNL     1      97.072  84.269  75.143  1.00  0.00     0.007 C 
ENDBRANCH  21  22
ENDBRANCH  20  21
ENDBRANCH  19  20
ENDBRANCH  18  19
ENDBRANCH   1  18
TORSDOF 11
ENDMDL
MODEL 7
REMARK VINA RESULT:    -5.684     12.828     15.322
REMARK INTER + INTRA:         -10.148
REMARK INTER:                  -9.080
REMARK INTRA:                  -1.068
REMARK UNBOUND:                -0.975
REMARK SMILES COc1cc(CNC(=O)CCCCCCC(C)C)ccc1O
REMARK SMILES IDX 11 1 10 2 8 3 7 4 9 6 6 7 5 8 3 9 21 10 4 11 20 12 19 13
REMARK SMILES IDX 2 14 1 15 22 16 12 18 13 19 14 20 15 21 16 22 17 23 18 24
REMARK H PARENT 7 5 22 17
REMARK Flexibility Score: inf
ROOT
ATOM      1  C   UNL     1      97.034  82.822  84.098  1.00  0.00     0.010 C 
ENDROOT
BRANCH   1   2
ATOM      2  C   UNL     1      96.119  82.209  83.002  1.00  0.00     0.100 C 
BRANCH   2   3
ATOM      3  C   UNL     1      96.848  81.850  81.765  1.00  0.00     0.220 C 
ATOM      4  N   UNL     1      97.664  82.759  81.157  1.00  0.00    -0.352 N 
ATOM      5  H   UNL     1      97.679  83.669  81.594  1.00  0.00     0.163 HD
ATOM      6  O   UNL     1      96.718  80.689  81.305  1.00  0.00    -0.275 OA
BRANCH   4   7
ATOM      7  C   UNL     1      98.460  82.507  79.994  1.00  0.00     0.151 C 
BRANCH   7   8
ATOM      8  C   UNL     1      97.890  83.099  78.753  1.00  0.00    -0.025 A 
ATOM      9  C   UNL     1      98.111  83.676  76.373  1.00  0.00     0.160 A 
ATOM     10  C   UNL     1      96.794  84.185  76.371  1.00  0.00     0.157 A 
ATOM     11  C   UNL     1      98.655  83.156  77.566  1.00  0.00     0.056 A 
ATOM     12  C   UNL     1      96.036  84.170  77.557  1.00  0.00     0.050 A 
ATOM     13  C   UNL     1      96.575  83.621  78.737  1.00  0.00     0.009 A 
BRANCH   9  14
ATOM     14  O   UNL     1      98.870  83.722  75.235  1.00  0.00    -0.493 OA
ATOM     15  C   UNL     1      99.667  82.543  75.022  1.00  0.00     0.278 C 
ENDBRANCH   9  14
BRANCH  10  16
ATOM     16  O   UNL     1      96.245  84.694  75.237  1.00  0.00    -0.504 OA
ATOM     17  H   UNL     1      96.247  85.653  75.284  1.00  0.00     0.293 HD
ENDBRANCH  10  16
ENDBRANCH   7   8
ENDBRANCH   4   7
ENDBRANCH   2   3
ENDBRANCH   1   2
BRANCH   1  18
ATOM     18  C   UNL     1      97.348  81.808  85.235  1.00  0.00     0.001 C 
BRANCH  18  19
ATOM     19  C   UNL     1      96.100  81.385  86.059  1.00  0.00     0.000 C 
BRANCH  19  20
ATOM     20  C   UNL     1      95.696  82.478  87.088  1.00  0.00     0.000 C 
BRANCH  20  21
ATOM     21  C   UNL     1      94.201  82.898  87.018  1.00  0.00     0.003 C 
BRANCH  21  22
ATOM     22  C   UNL     1      93.771  83.546  85.662  1.00  0.00    -0.017 C 
ATOM     23  C   UNL     1      93.281  85.004  85.887  1.00  0.00     0.007 C 
ATOM     24  C   UNL     1      92.698  82.724  84.889  1.00  0.00     0.007 C 
ENDBRANCH  21  22
ENDBRANCH  20  21
ENDBRANCH  19  20
ENDBRANCH  18  19
ENDBRANCH   1  18
TORSDOF 11
ENDMDL
MODEL 8
REMARK VINA RESULT:    -5.621     13.203     15.810
REMARK INTER + INTRA:         -10.046
REMARK INTER:                  -8.660
REMARK INTRA:                  -1.387
REMARK UNBOUND:                -0.975
REMARK SMILES COc1cc(CNC(=O)CCCCCCC(C)C)ccc1O
REMARK SMILES IDX 11 1 10 2 8 3 7 4 9 6 6 7 5 8 3 9 21 10 4 11 20 12 19 13
REMARK SMILES IDX 2 14 1 15 22 16 12 18 13 19 14 20 15 21 16 22 17 23 18 24
REMARK H PARENT 7 5 22 17
REMARK Flexibility Score: inf
ROOT
ATOM      1  C   UNL     1      97.267  81.797  77.616  1.00  0.00     0.010 C 
ENDROOT
BRANCH   1   2
ATOM      2  C   UNL     1      97.396  83.318  77.903  1.00  0.00     0.100 C 
BRANCH   2   3
ATOM      3  C   UNL     1      97.118  84.163  76.719  1.00  0.00     0.220 C 
ATOM      4  N   UNL     1      98.037  84.267  75.716  1.00  0.00    -0.352 N 
ATOM      5  H   UNL     1      98.900  83.769  75.881  1.00  0.00     0.163 HD
ATOM      6  O   UNL     1      96.014  84.756  76.649  1.00  0.00    -0.275 OA
BRANCH   4   7
ATOM      7  C   UNL     1      97.855  85.004  74.502  1.00  0.00     0.151 C 
BRANCH   7   8
ATOM      8  C   UNL     1      98.728  84.531  73.392  1.00  0.00    -0.025 A 
ATOM      9  C   UNL     1      99.526  82.717  71.936  1.00  0.00     0.160 A 
ATOM     10  C   UNL     1     100.355  83.631  71.249  1.00  0.00     0.157 A 
ATOM     11  C   UNL     1      98.735  83.170  73.013  1.00  0.00     0.056 A 
ATOM     12  C   UNL     1     100.386  84.981  71.643  1.00  0.00     0.050 A 
ATOM     13  C   UNL     1      99.571  85.431  72.699  1.00  0.00     0.009 A 
BRANCH   9  14
ATOM     14  O   UNL     1      99.518  81.394  71.587  1.00  0.00    -0.493 OA
ATOM     15  C   UNL     1      98.326  80.985  70.893  1.00  0.00     0.278 C 
ENDBRANCH   9  14
BRANCH  10  16
ATOM     16  O   UNL     1     101.129  83.222  70.209  1.00  0.00    -0.504 OA
ATOM     17  H   UNL     1     101.326  83.973  69.644  1.00  0.00     0.293 HD
ENDBRANCH  10  16
ENDBRANCH   7   8
ENDBRANCH   4   7
ENDBRANCH   2   3
ENDBRANCH   1   2
BRANCH   1  18
ATOM     18  C   UNL     1      98.653  81.115  77.431  1.00  0.00     0.001 C 
BRANCH  18  19
ATOM     19  C   UNL     1      99.768  81.705  78.339  1.00  0.00     0.000 C 
BRANCH  19  20
ATOM     20  C   UNL     1      99.753  81.062  79.755  1.00  0.00     0.000 C 
BRANCH  20  21
ATOM     21  C   UNL     1      99.320  82.030  80.890  1.00  0.00     0.003 C 
BRANCH  21  22
ATOM     22  C   UNL     1      97.955  81.674  81.564  1.00  0.00    -0.017 C 
ATOM     23  C   UNL     1      97.372  80.368  80.954  1.00  0.00     0.007 C 
ATOM     24  C   UNL     1      96.906  82.823  81.498  1.00  0.00     0.007 C 
ENDBRANCH  21  22
ENDBRANCH  20  21
ENDBRANCH  19  20
ENDBRANCH  18  19
ENDBRANCH   1  18
TORSDOF 11
ENDMDL
MODEL 9
REMARK VINA RESULT:    -5.616     12.168     13.850
REMARK INTER + INTRA:         -10.037
REMARK INTER:                  -9.257
REMARK INTRA:                  -0.780
REMARK UNBOUND:                -0.975
REMARK SMILES COc1cc(CNC(=O)CCCCCCC(C)C)ccc1O
REMARK SMILES IDX 11 1 10 2 8 3 7 4 9 6 6 7 5 8 3 9 21 10 4 11 20 12 19 13
REMARK SMILES IDX 2 14 1 15 22 16 12 18 13 19 14 20 15 21 16 22 17 23 18 24
REMARK H PARENT 7 5 22 17
REMARK Flexibility Score: inf
ROOT
ATOM      1  C   UNL     1      98.762  82.024  78.464  1.00  0.00     0.010 C 
ENDROOT
BRANCH   1   2
ATOM      2  C   UNL     1      98.715  82.978  79.689  1.00  0.00     0.100 C 
BRANCH   2   3
ATOM      3  C   UNL     1      98.138  82.349  80.898  1.00  0.00     0.220 C 
ATOM      4  N   UNL     1      96.996  82.846  81.456  1.00  0.00    -0.352 N 
ATOM      5  H   UNL     1      96.634  83.674  81.006  1.00  0.00     0.163 HD
ATOM      6  O   UNL     1      98.706  81.338  81.380  1.00  0.00    -0.275 OA
BRANCH   4   7
ATOM      7  C   UNL     1      96.318  82.288  82.586  1.00  0.00     0.151 C 
BRANCH   7   8
ATOM      8  C   UNL     1      95.679  83.316  83.453  1.00  0.00    -0.025 A 
ATOM      9  C   UNL     1      94.122  83.904  85.264  1.00  0.00     0.160 A 
ATOM     10  C   UNL     1      94.488  85.263  85.140  1.00  0.00     0.157 A 
ATOM     11  C   UNL     1      94.705  82.946  84.409  1.00  0.00     0.056 A 
ATOM     12  C   UNL     1      95.427  85.648  84.166  1.00  0.00     0.050 A 
ATOM     13  C   UNL     1      96.027  84.682  83.336  1.00  0.00     0.009 A 
BRANCH   9  14
ATOM     14  O   UNL     1      93.180  83.524  86.181  1.00  0.00    -0.493 OA
ATOM     15  C   UNL     1      93.713  82.755  87.275  1.00  0.00     0.278 C 
ENDBRANCH   9  14
BRANCH  10  16
ATOM     16  O   UNL     1      93.942  86.208  85.949  1.00  0.00    -0.504 OA
ATOM     17  H   UNL     1      93.133  85.867  86.338  1.00  0.00     0.293 HD
ENDBRANCH  10  16
ENDBRANCH   7   8
ENDBRANCH   4   7
ENDBRANCH   2   3
ENDBRANCH   1   2
BRANCH   1  18
ATOM     18  C   UNL     1      97.386  81.922  77.746  1.00  0.00     0.001 C 
BRANCH  18  19
ATOM     19  C   UNL     1      96.648  83.284  77.610  1.00  0.00     0.000 C 
BRANCH  19  20
ATOM     20  C   UNL     1      97.409  84.255  76.665  1.00  0.00     0.000 C 
BRANCH  20  21
ATOM     21  C   UNL     1      96.763  84.414  75.260  1.00  0.00     0.003 C 
BRANCH  21  22
ATOM     22  C   UNL     1      97.782  84.438  74.075  1.00  0.00    -0.017 C 
ATOM     23  C   UNL     1      97.710  83.111  73.269  1.00  0.00     0.007 C 
ATOM     24  C   UNL     1      99.247  84.730  74.515  1.00  0.00     0.007 C 
ENDBRANCH  21  22
ENDBRANCH  20  21
ENDBRANCH  19  20
ENDBRANCH  18  19
ENDBRANCH   1  18
TORSDOF 11
ENDMDL
MODEL 10
REMARK VINA RESULT:    -5.332      1.833      2.350
REMARK INTER + INTRA:          -9.579
REMARK INTER:                  -8.794
REMARK INTRA:                  -0.785
REMARK UNBOUND:                -0.975
REMARK SMILES COc1cc(CNC(=O)CCCCCCC(C)C)ccc1O
REMARK SMILES IDX 11 1 10 2 8 3 7 4 9 6 6 7 5 8 3 9 21 10 4 11 20 12 19 13
REMARK SMILES IDX 2 14 1 15 22 16 12 18 13 19 14 20 15 21 16 22 17 23 18 24
REMARK H PARENT 7 5 22 17
REMARK Flexibility Score: inf
ROOT
ATOM      1  C   UNL     1      93.507  95.260  75.255  1.00  0.00     0.010 C 
ENDROOT
BRANCH   1   2
ATOM      2  C   UNL     1      93.820  96.667  75.837  1.00  0.00     0.100 C 
BRANCH   2   3
ATOM      3  C   UNL     1      94.570  96.619  77.112  1.00  0.00     0.220 C 
ATOM      4  N   UNL     1      95.838  97.117  77.185  1.00  0.00    -0.352 N 
ATOM      5  H   UNL     1      96.206  97.461  76.310  1.00  0.00     0.163 HD
ATOM      6  O   UNL     1      94.006  96.135  78.124  1.00  0.00    -0.275 OA
BRANCH   4   7
ATOM      7  C   UNL     1      96.635  97.178  78.372  1.00  0.00     0.151 C 
BRANCH   7   8
ATOM      8  C   UNL     1      96.487  98.460  79.114  1.00  0.00    -0.025 A 
ATOM      9  C   UNL     1      95.629  99.715  81.047  1.00  0.00     0.160 A 
ATOM     10  C   UNL     1      96.237 100.891  80.556  1.00  0.00     0.157 A 
ATOM     11  C   UNL     1      95.742  98.515  80.314  1.00  0.00     0.056 A 
ATOM     12  C   UNL     1      96.948 100.858  79.342  1.00  0.00     0.050 A 
ATOM     13  C   UNL     1      97.082  99.649  78.631  1.00  0.00     0.009 A 
BRANCH   9  14
ATOM     14  O   UNL     1      94.902  99.745  82.205  1.00  0.00    -0.493 OA
ATOM     15  C   UNL     1      95.662  99.394  83.376  1.00  0.00     0.278 C 
ENDBRANCH   9  14
BRANCH  10  16
ATOM     16  O   UNL     1      96.143 102.062  81.240  1.00  0.00    -0.504 OA
ATOM     17  H   UNL     1      95.293 102.470  81.059  1.00  0.00     0.293 HD
ENDBRANCH  10  16
ENDBRANCH   7   8
ENDBRANCH   4   7
ENDBRANCH   2   3
ENDBRANCH   1   2
BRANCH   1  18
ATOM     18  C   UNL     1      92.007  95.101  74.879  1.00  0.00     0.001 C 
BRANCH  18  19
ATOM     19  C   UNL     1      91.076  94.866  76.103  1.00  0.00     0.000 C 
BRANCH  19  20
ATOM     20  C   UNL     1      89.941  93.857  75.772  1.00  0.00     0.000 C 
BRANCH  20  21
ATOM     21  C   UNL     1      90.155  93.066  74.453  1.00  0.00     0.003 C 
BRANCH  21  22
ATOM     22  C   UNL     1      89.721  91.565  74.516  1.00  0.00    -0.017 C 
ATOM     23  C   UNL     1      89.569  91.105  75.994  1.00  0.00     0.007 C 
ATOM     24  C   UNL     1      90.671  90.605  73.742  1.00  0.00     0.007 C 
ENDBRANCH  21  22
ENDBRANCH  20  21
ENDBRANCH  19  20
ENDBRANCH  18  19
ENDBRANCH   1  18
TORSDOF 11
ENDMDL
