MODEL 1
REMARK VINA RESULT:    -7.308      0.000      0.000
REMARK INTER + INTRA:         -12.914
REMARK INTER:                 -12.435
REMARK INTRA:                  -0.479
REMARK UNBOUND:                -0.479
REMARK SMILES C=C(C)[C@]12C[C@@H](C)[C@@]34O[C@](Cc5ccccc5)(O[C@@H]1[C@@H]3C=C(COC(=O)Cc1ccc(O)cc1)C[C@]1(O)C(=O)C(C)=C[C@@H]41)O2
REMARK SMILES IDX 23 1 22 2 21 3 20 4 9 5 8 6 10 7 6 8 18 10 44 11 19 12 5 13
REMARK SMILES IDX 7 14 4 15 11 16 12 17 13 18 17 19 14 20 16 21 15 22 2 23
REMARK SMILES IDX 3 24 1 25 35 26 36 27 43 28 38 29 42 30 39 32 40 33 41 34
REMARK SMILES IDX 37 35 24 37 25 38 26 39 27 40 28 41 29 42 34 43 30 44 33 45
REMARK SMILES IDX 31 46 32 47
REMARK H PARENT 37 36 32 48
REMARK Flexibility Score: 90.00
ROOT
ATOM      1  C   UNL     1      92.181  79.532  85.336  1.00  0.00     0.264 C 
ENDROOT
BRANCH   1   2
ATOM      2  C   UNL     1      93.649  79.359  85.023  1.00  0.00    -0.033 C 
ATOM      3  C   UNL     1      94.241  80.203  84.153  1.00  0.00    -0.015 C 
BRANCH   3   4
ATOM      4  C   UNL     1      95.665  80.196  83.619  1.00  0.00     0.078 C 
ATOM      5  O   UNL     1      96.995  81.668  85.094  1.00  0.00    -0.319 OA
ATOM      6  C   UNL     1      96.851  80.284  84.648  1.00  0.00     0.095 CG0
ATOM      7  C   UNL     1      96.885  82.663  84.058  1.00  0.00     0.289 C 
ATOM      8  C   UNL     1      98.172  79.835  83.897  1.00  0.00     0.023 C 
ATOM      9  G   UNL     1      96.517  79.491  85.946  1.00  0.00     0.000 G0
ATOM     10  O   UNL     1      95.638  82.565  83.377  1.00  0.00    -0.320 OA
ATOM     11  O   UNL     1      97.885  82.513  83.054  1.00  0.00    -0.313 OA
ATOM     12  C   UNL     1      95.858  81.364  82.621  1.00  0.00     0.170 C 
ATOM     13  C   UNL     1      98.141  80.241  82.392  1.00  0.00     0.049 C 
ATOM     14  C   UNL     1      99.488  80.319  84.529  1.00  0.00     0.011 C 
ATOM     15  C   UNL     1      97.330  81.519  82.168  1.00  0.00     0.122 C 
BRANCH   7  16
ATOM     16  C   UNL     1      97.014  84.031  84.698  1.00  0.00     0.135 C 
BRANCH  16  17
ATOM     17  C   UNL     1      95.691  84.544  85.211  1.00  0.00    -0.040 A 
ATOM     18  C   UNL     1      95.145  85.714  84.684  1.00  0.00     0.004 A 
ATOM     19  C   UNL     1      95.015  83.846  86.211  1.00  0.00     0.004 A 
ATOM     20  C   UNL     1      93.921  86.187  85.158  1.00  0.00     0.000 A 
ATOM     21  C   UNL     1      93.791  84.320  86.685  1.00  0.00     0.000 A 
ATOM     22  C   UNL     1      93.245  85.490  86.159  1.00  0.00     0.000 A 
ENDBRANCH  16  17
ENDBRANCH   7  16
BRANCH  15  23
ATOM     23  C   UNL     1      97.436  82.027  80.766  1.00  0.00    -0.046 C 
ATOM     24  C   UNL     1      96.915  83.412  80.523  1.00  0.00     0.042 C 
ATOM     25  C   UNL     1      97.966  81.286  79.782  1.00  0.00     0.010 C 
ENDBRANCH  15  23
ENDBRANCH   3   4
BRANCH   2  26
ATOM     26  C   UNL     1      94.287  78.207  85.777  1.00  0.00     0.078 C 
BRANCH  26  27
ATOM     27  C   UNL     1      95.811  78.113  85.748  1.00  0.00     0.140 C 
ATOM     28  C   UNL     1      96.484  79.487  85.945  1.00  0.00     0.086 CG0
ATOM     29  C   UNL     1      96.364  77.311  86.907  1.00  0.00     0.190 C 
ATOM     30  C   UNL     1      97.562  79.208  86.955  1.00  0.00    -0.010 C 
ATOM     31  G   UNL     1      96.839  80.269  84.647  1.00  0.00     0.000 G0
ATOM     32  O   UNL     1      95.967  76.211  87.261  1.00  0.00    -0.291 OA
ATOM     33  C   UNL     1      97.505  78.005  87.534  1.00  0.00    -0.008 C 
ATOM     34  C   UNL     1      98.336  77.427  88.611  1.00  0.00     0.048 C 
BRANCH  27  35
ATOM     35  O   UNL     1      96.266  77.411  84.603  1.00  0.00    -0.381 OA
ATOM     36  H   UNL     1      96.892  77.980  84.124  1.00  0.00     0.212 HD
ENDBRANCH  27  35
ENDBRANCH  26  27
ENDBRANCH   2  26
ENDBRANCH   1   2
BRANCH   1  37
ATOM     37  O   UNL     1      91.484  78.360  84.969  1.00  0.00    -0.461 OA
BRANCH  37  38
ATOM     38  C   UNL     1      90.251  78.544  84.387  1.00  0.00     0.310 C 
ATOM     39  O   UNL     1      89.311  77.766  84.474  1.00  0.00    -0.252 OA
BRANCH  38  40
ATOM     40  C   UNL     1      90.241  79.849  83.628  1.00  0.00     0.158 C 
BRANCH  40  41
ATOM     41  C   UNL     1      89.055  80.715  83.965  1.00  0.00    -0.037 A 
ATOM     42  C   UNL     1      89.164  81.693  84.954  1.00  0.00     0.008 A 
ATOM     43  C   UNL     1      87.848  80.540  83.289  1.00  0.00     0.008 A 
ATOM     44  C   UNL     1      88.065  82.495  85.267  1.00  0.00     0.046 A 
ATOM     45  C   UNL     1      86.750  81.341  83.601  1.00  0.00     0.046 A 
ATOM     46  C   UNL     1      86.858  82.318  84.590  1.00  0.00     0.115 A 
BRANCH  46  47
ATOM     47  O   UNL     1      85.787  83.100  84.895  1.00  0.00    -0.508 OA
ATOM     48  H   UNL     1      85.508  83.580  84.096  1.00  0.00     0.293 HD
ENDBRANCH  46  47
ENDBRANCH  40  41
ENDBRANCH  38  40
ENDBRANCH  37  38
ENDBRANCH   1  37
TORSDOF 10
ENDMDL
MODEL 2
REMARK VINA RESULT:    -7.074      2.697      6.128
REMARK INTER + INTRA:         -12.516
REMARK INTER:                 -11.497
REMARK INTRA:                  -1.019
REMARK UNBOUND:                -0.479
REMARK SMILES C=C(C)[C@]12C[C@@H](C)[C@@]34O[C@](Cc5ccccc5)(O[C@@H]1[C@@H]3C=C(COC(=O)Cc1ccc(O)cc1)C[C@]1(O)C(=O)C(C)=C[C@@H]41)O2
REMARK SMILES IDX 23 1 22 2 21 3 20 4 9 5 8 6 10 7 6 8 18 10 44 11 19 12 5 13
REMARK SMILES IDX 7 14 4 15 11 16 12 17 13 18 17 19 14 20 16 21 15 22 2 23
REMARK SMILES IDX 3 24 1 25 35 26 36 27 43 28 38 29 42 30 39 32 40 33 41 34
REMARK SMILES IDX 37 35 24 37 25 38 26 39 27 40 28 41 29 42 34 43 30 44 33 45
REMARK SMILES IDX 31 46 32 47
REMARK H PARENT 37 36 32 48
REMARK Flexibility Score: 90.00
ROOT
ATOM      1  C   UNL     1      95.922  84.526  83.823  1.00  0.00     0.264 C 
ENDROOT
BRANCH   1   2
ATOM      2  C   UNL     1      96.236  83.077  83.528  1.00  0.00    -0.033 C 
ATOM      3  C   UNL     1      96.710  82.740  82.311  1.00  0.00    -0.015 C 
BRANCH   3   4
ATOM      4  C   UNL     1      97.026  81.364  81.746  1.00  0.00     0.078 C 
ATOM      5  O   UNL     1      99.417  80.930  82.204  1.00  0.00    -0.319 OA
ATOM      6  C   UNL     1      98.066  80.463  82.508  1.00  0.00     0.095 CG0
ATOM      7  C   UNL     1      99.655  81.269  80.824  1.00  0.00     0.289 C 
ATOM      8  C   UNL     1      97.893  78.980  81.980  1.00  0.00     0.023 C 
ATOM      9  G   UNL     1      97.931  80.644  84.048  1.00  0.00     0.000 G0
ATOM     10  O   UNL     1      98.748  82.271  80.373  1.00  0.00    -0.320 OA
ATOM     11  O   UNL     1      99.464  80.157  79.952  1.00  0.00    -0.313 OA
ATOM     12  C   UNL     1      97.540  81.499  80.291  1.00  0.00     0.170 C 
ATOM     13  C   UNL     1      97.480  78.952  80.476  1.00  0.00     0.049 C 
ATOM     14  C   UNL     1      99.106  78.057  82.192  1.00  0.00     0.011 C 
ATOM     15  C   UNL     1      98.042  80.153  79.713  1.00  0.00     0.122 C 
BRANCH   7  16
ATOM     16  C   UNL     1     101.080  81.771  80.697  1.00  0.00     0.135 C 
BRANCH  16  17
ATOM     17  C   UNL     1     101.730  81.313  79.415  1.00  0.00    -0.040 A 
ATOM     18  C   UNL     1     102.892  80.544  79.458  1.00  0.00     0.004 A 
ATOM     19  C   UNL     1     101.166  81.658  78.187  1.00  0.00     0.004 A 
ATOM     20  C   UNL     1     103.493  80.120  78.272  1.00  0.00     0.000 A 
ATOM     21  C   UNL     1     101.767  81.234  77.001  1.00  0.00     0.000 A 
ATOM     22  C   UNL     1     102.930  80.465  77.044  1.00  0.00     0.000 A 
ENDBRANCH  16  17
ENDBRANCH   7  16
BRANCH  15  23
ATOM     23  C   UNL     1      97.813  80.055  78.240  1.00  0.00    -0.046 C 
ATOM     24  C   UNL     1      97.450  81.331  77.540  1.00  0.00     0.042 C 
ATOM     25  C   UNL     1      97.924  78.892  77.581  1.00  0.00     0.010 C 
ENDBRANCH  15  23
ENDBRANCH   3   4
BRANCH   2  26
ATOM     26  C   UNL     1      95.967  82.159  84.705  1.00  0.00     0.078 C 
BRANCH  26  27
ATOM     27  C   UNL     1      96.486  80.726  84.605  1.00  0.00     0.140 C 
ATOM     28  C   UNL     1      97.919  80.663  84.037  1.00  0.00     0.086 CG0
ATOM     29  C   UNL     1      96.645  80.070  85.960  1.00  0.00     0.190 C 
ATOM     30  C   UNL     1      98.621  79.707  84.962  1.00  0.00    -0.010 C 
ATOM     31  G   UNL     1      98.039  80.462  82.498  1.00  0.00     0.000 G0
ATOM     32  O   UNL     1      95.802  80.061  86.845  1.00  0.00    -0.291 OA
ATOM     33  C   UNL     1      97.943  79.377  86.065  1.00  0.00    -0.008 C 
ATOM     34  C   UNL     1      98.346  78.543  87.216  1.00  0.00     0.048 C 
BRANCH  27  35
ATOM     35  O   UNL     1      95.565  79.887  83.929  1.00  0.00    -0.381 OA
ATOM     36  H   UNL     1      94.688  80.008  84.331  1.00  0.00     0.212 HD
ENDBRANCH  27  35
ENDBRANCH  26  27
ENDBRANCH   2  26
ENDBRANCH   1   2
BRANCH   1  37
ATOM     37  O   UNL     1      95.354  84.628  85.111  1.00  0.00    -0.461 OA
BRANCH  37  38
ATOM     38  C   UNL     1      94.435  85.637  85.292  1.00  0.00     0.310 C 
ATOM     39  O   UNL     1      94.428  86.697  84.683  1.00  0.00    -0.252 OA
BRANCH  38  40
ATOM     40  C   UNL     1      93.443  85.230  86.355  1.00  0.00     0.158 C 
BRANCH  40  41
ATOM     41  C   UNL     1      93.096  83.765  86.305  1.00  0.00    -0.037 A 
ATOM     42  C   UNL     1      93.315  82.957  87.421  1.00  0.00     0.008 A 
ATOM     43  C   UNL     1      92.555  83.215  85.143  1.00  0.00     0.008 A 
ATOM     44  C   UNL     1      92.994  81.600  87.374  1.00  0.00     0.046 A 
ATOM     45  C   UNL     1      92.233  81.859  85.096  1.00  0.00     0.046 A 
ATOM     46  C   UNL     1      92.452  81.051  86.211  1.00  0.00     0.115 A 
BRANCH  46  47
ATOM     47  O   UNL     1      92.140  79.728  86.166  1.00  0.00    -0.508 OA
ATOM     48  H   UNL     1      91.391  79.560  86.765  1.00  0.00     0.293 HD
ENDBRANCH  46  47
ENDBRANCH  40  41
ENDBRANCH  38  40
ENDBRANCH  37  38
ENDBRANCH   1  37
TORSDOF 10
ENDMDL
MODEL 3
REMARK VINA RESULT:    -7.019      5.497      9.134
REMARK INTER + INTRA:         -12.421
REMARK INTER:                 -12.111
REMARK INTRA:                  -0.309
REMARK UNBOUND:                -0.479
REMARK SMILES C=C(C)[C@]12C[C@@H](C)[C@@]34O[C@](Cc5ccccc5)(O[C@@H]1[C@@H]3C=C(COC(=O)Cc1ccc(O)cc1)C[C@]1(O)C(=O)C(C)=C[C@@H]41)O2
REMARK SMILES IDX 23 1 22 2 21 3 20 4 9 5 8 6 10 7 6 8 18 10 44 11 19 12 5 13
REMARK SMILES IDX 7 14 4 15 11 16 12 17 13 18 17 19 14 20 16 21 15 22 2 23
REMARK SMILES IDX 3 24 1 25 35 26 36 27 43 28 38 29 42 30 39 32 40 33 41 34
REMARK SMILES IDX 37 35 24 37 25 38 26 39 27 40 28 41 29 42 34 43 30 44 33 45
REMARK SMILES IDX 31 46 32 47
REMARK H PARENT 37 36 32 48
REMARK Flexibility Score: 90.00
ROOT
ATOM      1  C   UNL     1      90.677  78.303  84.225  1.00  0.00     0.264 C 
ENDROOT
BRANCH   1   2
ATOM      2  C   UNL     1      91.397  76.997  83.984  1.00  0.00    -0.033 C 
ATOM      3  C   UNL     1      90.678  75.886  83.721  1.00  0.00    -0.015 C 
BRANCH   3   4
ATOM      4  C   UNL     1      91.151  74.455  83.521  1.00  0.00     0.078 C 
ATOM      5  O   UNL     1      91.527  74.154  81.095  1.00  0.00    -0.319 OA
ATOM      6  C   UNL     1      92.206  74.167  82.389  1.00  0.00     0.095 CG0
ATOM      7  C   UNL     1      90.261  73.467  81.071  1.00  0.00     0.289 C 
ATOM      8  C   UNL     1      92.829  72.738  82.668  1.00  0.00     0.023 C 
ATOM      9  G   UNL     1      93.230  75.334  82.278  1.00  0.00     0.000 G0
ATOM     10  O   UNL     1      89.353  74.020  82.020  1.00  0.00    -0.320 OA
ATOM     11  O   UNL     1      90.385  72.089  81.415  1.00  0.00    -0.313 OA
ATOM     12  C   UNL     1      89.938  73.535  83.239  1.00  0.00     0.170 C 
ATOM     13  C   UNL     1      91.787  71.774  83.312  1.00  0.00     0.049 C 
ATOM     14  C   UNL     1      93.476  72.050  81.453  1.00  0.00     0.011 C 
ATOM     15  C   UNL     1      90.362  72.095  82.857  1.00  0.00     0.122 C 
BRANCH   7  16
ATOM     16  C   UNL     1      89.681  73.588  79.676  1.00  0.00     0.135 C 
BRANCH  16  17
ATOM     17  C   UNL     1      90.690  73.237  78.611  1.00  0.00    -0.040 A 
ATOM     18  C   UNL     1      90.729  71.946  78.085  1.00  0.00     0.004 A 
ATOM     19  C   UNL     1      91.584  74.204  78.152  1.00  0.00     0.004 A 
ATOM     20  C   UNL     1      91.662  71.622  77.099  1.00  0.00     0.000 A 
ATOM     21  C   UNL     1      92.517  73.880  77.167  1.00  0.00     0.000 A 
ATOM     22  C   UNL     1      92.556  72.589  76.641  1.00  0.00     0.000 A 
ENDBRANCH  16  17
ENDBRANCH   7  16
BRANCH  15  23
ATOM     23  C   UNL     1      89.370  71.077  83.316  1.00  0.00    -0.046 C 
ATOM     24  C   UNL     1      88.212  70.821  82.398  1.00  0.00     0.042 C 
ATOM     25  C   UNL     1      89.506  70.430  84.483  1.00  0.00     0.010 C 
ENDBRANCH  15  23
ENDBRANCH   3   4
BRANCH   2  26
ATOM     26  C   UNL     1      92.907  77.125  84.067  1.00  0.00     0.078 C 
BRANCH  26  27
ATOM     27  C   UNL     1      93.735  75.922  83.620  1.00  0.00     0.140 C 
ATOM     28  C   UNL     1      93.229  75.327  82.290  1.00  0.00     0.086 CG0
ATOM     29  C   UNL     1      95.164  76.295  83.286  1.00  0.00     0.190 C 
ATOM     30  C   UNL     1      94.488  75.126  81.494  1.00  0.00    -0.010 C 
ATOM     31  G   UNL     1      92.206  74.159  82.408  1.00  0.00     0.000 G0
ATOM     32  O   UNL     1      95.903  76.969  83.988  1.00  0.00    -0.291 OA
ATOM     33  C   UNL     1      95.587  75.682  82.012  1.00  0.00    -0.008 C 
ATOM     34  C   UNL     1      96.961  75.757  81.473  1.00  0.00     0.048 C 
BRANCH  27  35
ATOM     35  O   UNL     1      93.869  74.969  84.661  1.00  0.00    -0.381 OA
ATOM     36  H   UNL     1      93.758  74.081  84.280  1.00  0.00     0.212 HD
ENDBRANCH  27  35
ENDBRANCH  26  27
ENDBRANCH   2  26
ENDBRANCH   1   2
BRANCH   1  37
ATOM     37  O   UNL     1      91.434  79.362  83.678  1.00  0.00    -0.461 OA
BRANCH  37  38
ATOM     38  C   UNL     1      91.169  80.618  84.174  1.00  0.00     0.310 C 
ATOM     39  O   UNL     1      91.839  81.616  83.952  1.00  0.00    -0.252 OA
BRANCH  38  40
ATOM     40  C   UNL     1      89.925  80.569  85.029  1.00  0.00     0.158 C 
BRANCH  40  41
ATOM     41  C   UNL     1      88.741  81.242  84.383  1.00  0.00    -0.037 A 
ATOM     42  C   UNL     1      87.936  80.532  83.492  1.00  0.00     0.008 A 
ATOM     43  C   UNL     1      88.450  82.574  84.676  1.00  0.00     0.008 A 
ATOM     44  C   UNL     1      86.841  81.155  82.893  1.00  0.00     0.046 A 
ATOM     45  C   UNL     1      87.354  83.197  84.079  1.00  0.00     0.046 A 
ATOM     46  C   UNL     1      86.550  82.488  83.187  1.00  0.00     0.115 A 
BRANCH  46  47
ATOM     47  O   UNL     1      85.482  83.095  82.603  1.00  0.00    -0.508 OA
ATOM     48  H   UNL     1      85.074  82.478  81.970  1.00  0.00     0.293 HD
ENDBRANCH  46  47
ENDBRANCH  40  41
ENDBRANCH  38  40
ENDBRANCH  37  38
ENDBRANCH   1  37
TORSDOF 10
ENDMDL
MODEL 4
REMARK VINA RESULT:    -6.895      2.822      5.951
REMARK INTER + INTRA:         -12.211
REMARK INTER:                 -11.380
REMARK INTRA:                  -0.831
REMARK UNBOUND:                -0.479
REMARK SMILES C=C(C)[C@]12C[C@@H](C)[C@@]34O[C@](Cc5ccccc5)(O[C@@H]1[C@@H]3C=C(COC(=O)Cc1ccc(O)cc1)C[C@]1(O)C(=O)C(C)=C[C@@H]41)O2
REMARK SMILES IDX 23 1 22 2 21 3 20 4 9 5 8 6 10 7 6 8 18 10 44 11 19 12 5 13
REMARK SMILES IDX 7 14 4 15 11 16 12 17 13 18 17 19 14 20 16 21 15 22 2 23
REMARK SMILES IDX 3 24 1 25 35 26 36 27 43 28 38 29 42 30 39 32 40 33 41 34
REMARK SMILES IDX 37 35 24 37 25 38 26 39 27 40 28 41 29 42 34 43 30 44 33 45
REMARK SMILES IDX 31 46 32 47
REMARK H PARENT 37 36 32 48
REMARK Flexibility Score: 90.00
ROOT
ATOM      1  C   UNL     1      94.687  77.487  83.742  1.00  0.00     0.264 C 
ENDROOT
BRANCH   1   2
ATOM      2  C   UNL     1      95.771  78.512  83.499  1.00  0.00    -0.033 C 
ATOM      3  C   UNL     1      96.775  78.220  82.647  1.00  0.00    -0.015 C 
BRANCH   3   4
ATOM      4  C   UNL     1      98.009  79.036  82.293  1.00  0.00     0.078 C 
ATOM      5  O   UNL     1      97.434  80.383  80.300  1.00  0.00    -0.319 OA
ATOM      6  C   UNL     1      97.807  80.483  81.710  1.00  0.00     0.095 CG0
ATOM      7  C   UNL     1      98.174  79.411  79.535  1.00  0.00     0.289 C 
ATOM      8  C   UNL     1      99.190  81.246  81.833  1.00  0.00     0.023 C 
ATOM      9  G   UNL     1      96.593  81.186  82.383  1.00  0.00     0.000 G0
ATOM     10  O   UNL     1      98.053  78.108  80.099  1.00  0.00    -0.320 OA
ATOM     11  O   UNL     1      99.571  79.691  79.509  1.00  0.00    -0.313 OA
ATOM     12  C   UNL     1      98.874  78.263  81.267  1.00  0.00     0.170 C 
ATOM     13  C   UNL     1     100.397  80.274  81.663  1.00  0.00     0.049 C 
ATOM     14  C   UNL     1      99.367  82.449  80.890  1.00  0.00     0.011 C 
ATOM     15  C   UNL     1     100.058  79.107  80.735  1.00  0.00     0.122 C 
BRANCH   7  16
ATOM     16  C   UNL     1      97.632  79.409  78.119  1.00  0.00     0.135 C 
BRANCH  16  17
ATOM     17  C   UNL     1      98.206  80.533  77.293  1.00  0.00    -0.040 A 
ATOM     18  C   UNL     1      99.346  80.319  76.519  1.00  0.00     0.004 A 
ATOM     19  C   UNL     1      97.594  81.787  77.303  1.00  0.00     0.004 A 
ATOM     20  C   UNL     1      99.875  81.359  75.754  1.00  0.00     0.000 A 
ATOM     21  C   UNL     1      98.124  82.826  76.538  1.00  0.00     0.000 A 
ATOM     22  C   UNL     1      99.264  82.612  75.764  1.00  0.00     0.000 A 
ENDBRANCH  16  17
ENDBRANCH   7  16
BRANCH  15  23
ATOM     23  C   UNL     1     101.249  78.264  80.414  1.00  0.00    -0.046 C 
ATOM     24  C   UNL     1     102.200  78.822  79.397  1.00  0.00     0.042 C 
ATOM     25  C   UNL     1     101.456  77.076  81.001  1.00  0.00     0.010 C 
ENDBRANCH  15  23
ENDBRANCH   3   4
BRANCH   2  26
ATOM     26  C   UNL     1      95.564  79.795  84.282  1.00  0.00     0.078 C 
BRANCH  26  27
ATOM     27  C   UNL     1      96.470  80.976  83.940  1.00  0.00     0.140 C 
ATOM     28  C   UNL     1      96.598  81.192  82.417  1.00  0.00     0.086 CG0
ATOM     29  C   UNL     1      95.902  82.298  84.409  1.00  0.00     0.190 C 
ATOM     30  C   UNL     1      96.415  82.675  82.258  1.00  0.00    -0.010 C 
ATOM     31  G   UNL     1      97.804  80.492  81.724  1.00  0.00     0.000 G0
ATOM     32  O   UNL     1      95.465  82.524  85.528  1.00  0.00    -0.291 OA
ATOM     33  C   UNL     1      95.998  83.321  83.351  1.00  0.00    -0.008 C 
ATOM     34  C   UNL     1      95.640  84.742  83.537  1.00  0.00     0.048 C 
BRANCH  27  35
ATOM     35  O   UNL     1      97.716  80.885  84.612  1.00  0.00    -0.381 OA
ATOM     36  H   UNL     1      98.277  81.622  84.317  1.00  0.00     0.212 HD
ENDBRANCH  27  35
ENDBRANCH  26  27
ENDBRANCH   2  26
ENDBRANCH   1   2
BRANCH   1  37
ATOM     37  O   UNL     1      93.447  78.145  83.890  1.00  0.00    -0.461 OA
BRANCH  37  38
ATOM     38  C   UNL     1      92.335  77.338  83.954  1.00  0.00     0.310 C 
ATOM     39  O   UNL     1      92.317  76.144  83.690  1.00  0.00    -0.252 OA
BRANCH  38  40
ATOM     40  C   UNL     1      91.145  78.155  84.399  1.00  0.00     0.158 C 
BRANCH  40  41
ATOM     41  C   UNL     1      91.469  79.615  84.580  1.00  0.00    -0.037 A 
ATOM     42  C   UNL     1      91.050  80.545  83.629  1.00  0.00     0.008 A 
ATOM     43  C   UNL     1      92.188  80.037  85.697  1.00  0.00     0.008 A 
ATOM     44  C   UNL     1      91.350  81.898  83.795  1.00  0.00     0.046 A 
ATOM     45  C   UNL     1      92.489  81.390  85.864  1.00  0.00     0.046 A 
ATOM     46  C   UNL     1      92.070  82.319  84.914  1.00  0.00     0.115 A 
BRANCH  46  47
ATOM     47  O   UNL     1      92.363  83.638  85.075  1.00  0.00    -0.508 OA
ATOM     48  H   UNL     1      93.098  83.723  85.708  1.00  0.00     0.293 HD
ENDBRANCH  46  47
ENDBRANCH  40  41
ENDBRANCH  38  40
ENDBRANCH  37  38
ENDBRANCH   1  37
TORSDOF 10
ENDMDL
MODEL 5
REMARK VINA RESULT:    -6.879      2.536      4.830
REMARK INTER + INTRA:         -12.184
REMARK INTER:                 -10.807
REMARK INTRA:                  -1.376
REMARK UNBOUND:                -0.479
REMARK SMILES C=C(C)[C@]12C[C@@H](C)[C@@]34O[C@](Cc5ccccc5)(O[C@@H]1[C@@H]3C=C(COC(=O)Cc1ccc(O)cc1)C[C@]1(O)C(=O)C(C)=C[C@@H]41)O2
REMARK SMILES IDX 23 1 22 2 21 3 20 4 9 5 8 6 10 7 6 8 18 10 44 11 19 12 5 13
REMARK SMILES IDX 7 14 4 15 11 16 12 17 13 18 17 19 14 20 16 21 15 22 2 23
REMARK SMILES IDX 3 24 1 25 35 26 36 27 43 28 38 29 42 30 39 32 40 33 41 34
REMARK SMILES IDX 37 35 24 37 25 38 26 39 27 40 28 41 29 42 34 43 30 44 33 45
REMARK SMILES IDX 31 46 32 47
REMARK H PARENT 37 36 32 48
REMARK Flexibility Score: 90.00
ROOT
ATOM      1  C   UNL     1      95.693  76.758  83.387  1.00  0.00     0.264 C 
ENDROOT
BRANCH   1   2
ATOM      2  C   UNL     1      96.025  78.231  83.461  1.00  0.00    -0.033 C 
ATOM      3  C   UNL     1      95.204  79.058  84.141  1.00  0.00    -0.015 C 
BRANCH   3   4
ATOM      4  C   UNL     1      95.272  80.569  84.299  1.00  0.00     0.078 C 
ATOM      5  O   UNL     1      96.557  81.020  86.363  1.00  0.00    -0.319 OA
ATOM      6  C   UNL     1      96.576  81.199  84.912  1.00  0.00     0.095 CG0
ATOM      7  C   UNL     1      95.288  81.268  86.997  1.00  0.00     0.289 C 
ATOM      8  C   UNL     1      96.564  82.748  84.576  1.00  0.00     0.023 C 
ATOM      9  G   UNL     1      97.840  80.423  84.442  1.00  0.00     0.000 G0
ATOM     10  O   UNL     1      94.267  80.437  86.455  1.00  0.00    -0.320 OA
ATOM     11  O   UNL     1      94.838  82.607  86.804  1.00  0.00    -0.313 OA
ATOM     12  C   UNL     1      94.091  81.059  85.172  1.00  0.00     0.170 C 
ATOM     13  C   UNL     1      95.112  83.316  84.550  1.00  0.00     0.049 C 
ATOM     14  C   UNL     1      97.439  83.629  85.483  1.00  0.00     0.011 C 
ATOM     15  C   UNL     1      94.193  82.566  85.515  1.00  0.00     0.122 C 
BRANCH   7  16
ATOM     16  C   UNL     1      95.438  80.995  88.481  1.00  0.00     0.135 C 
BRANCH  16  17
ATOM     17  C   UNL     1      94.852  82.102  89.322  1.00  0.00    -0.040 A 
ATOM     18  C   UNL     1      93.502  82.076  89.668  1.00  0.00     0.004 A 
ATOM     19  C   UNL     1      95.663  83.151  89.754  1.00  0.00     0.004 A 
ATOM     20  C   UNL     1      92.961  83.099  90.447  1.00  0.00     0.000 A 
ATOM     21  C   UNL     1      95.122  84.175  90.533  1.00  0.00     0.000 A 
ATOM     22  C   UNL     1      93.772  84.149  90.879  1.00  0.00     0.000 A 
ENDBRANCH  16  17
ENDBRANCH   7  16
BRANCH  15  23
ATOM     23  C   UNL     1      92.848  83.205  85.641  1.00  0.00    -0.046 C 
ATOM     24  C   UNL     1      91.694  82.437  85.069  1.00  0.00     0.042 C 
ATOM     25  C   UNL     1      92.683  84.398  86.231  1.00  0.00     0.010 C 
ENDBRANCH  15  23
ENDBRANCH   3   4
BRANCH   2  26
ATOM     26  C   UNL     1      97.304  78.590  82.729  1.00  0.00     0.078 C 
BRANCH  26  27
ATOM     27  C   UNL     1      97.868  79.991  82.957  1.00  0.00     0.140 C 
ATOM     28  C   UNL     1      97.827  80.402  84.443  1.00  0.00     0.086 CG0
ATOM     29  C   UNL     1      99.345  80.080  82.636  1.00  0.00     0.190 C 
ATOM     30  C   UNL     1      99.193  80.984  84.684  1.00  0.00    -0.010 C 
ATOM     31  G   UNL     1      96.568  81.195  84.901  1.00  0.00     0.000 G0
ATOM     32  O   UNL     1      99.874  79.667  81.615  1.00  0.00    -0.291 OA
ATOM     33  C   UNL     1     100.076  80.795  83.699  1.00  0.00    -0.008 C 
ATOM     34  C   UNL     1     101.509  81.151  83.625  1.00  0.00     0.048 C 
BRANCH  27  35
ATOM     35  O   UNL     1      97.275  80.938  82.084  1.00  0.00    -0.381 OA
ATOM     36  H   UNL     1      96.888  81.650  82.622  1.00  0.00     0.212 HD
ENDBRANCH  27  35
ENDBRANCH  26  27
ENDBRANCH   2  26
ENDBRANCH   1   2
BRANCH   1  37
ATOM     37  O   UNL     1      95.084  76.356  84.596  1.00  0.00    -0.461 OA
BRANCH  37  38
ATOM     38  C   UNL     1      93.977  75.547  84.479  1.00  0.00     0.310 C 
ATOM     39  O   UNL     1      93.696  74.628  85.235  1.00  0.00    -0.252 OA
BRANCH  38  40
ATOM     40  C   UNL     1      93.167  75.972  83.277  1.00  0.00     0.158 C 
BRANCH  40  41
ATOM     41  C   UNL     1      91.877  76.655  83.649  1.00  0.00    -0.037 A 
ATOM     42  C   UNL     1      90.682  75.936  83.652  1.00  0.00     0.008 A 
ATOM     43  C   UNL     1      91.877  78.007  83.991  1.00  0.00     0.008 A 
ATOM     44  C   UNL     1      89.487  76.569  83.996  1.00  0.00     0.046 A 
ATOM     45  C   UNL     1      90.682  78.641  84.335  1.00  0.00     0.046 A 
ATOM     46  C   UNL     1      89.488  77.922  84.337  1.00  0.00     0.115 A 
BRANCH  46  47
ATOM     47  O   UNL     1      88.322  78.539  84.672  1.00  0.00    -0.508 OA
ATOM     48  H   UNL     1      87.947  78.958  83.878  1.00  0.00     0.293 HD
ENDBRANCH  46  47
ENDBRANCH  40  41
ENDBRANCH  38  40
ENDBRANCH  37  38
ENDBRANCH   1  37
TORSDOF 10
ENDMDL
MODEL 6
REMARK VINA RESULT:    -6.773      3.171      6.906
REMARK INTER + INTRA:         -12.003
REMARK INTER:                 -10.350
REMARK INTRA:                  -1.652
REMARK UNBOUND:                -0.479
REMARK SMILES C=C(C)[C@]12C[C@@H](C)[C@@]34O[C@](Cc5ccccc5)(O[C@@H]1[C@@H]3C=C(COC(=O)Cc1ccc(O)cc1)C[C@]1(O)C(=O)C(C)=C[C@@H]41)O2
REMARK SMILES IDX 23 1 22 2 21 3 20 4 9 5 8 6 10 7 6 8 18 10 44 11 19 12 5 13
REMARK SMILES IDX 7 14 4 15 11 16 12 17 13 18 17 19 14 20 16 21 15 22 2 23
REMARK SMILES IDX 3 24 1 25 35 26 36 27 43 28 38 29 42 30 39 32 40 33 41 34
REMARK SMILES IDX 37 35 24 37 25 38 26 39 27 40 28 41 29 42 34 43 30 44 33 45
REMARK SMILES IDX 31 46 32 47
REMARK H PARENT 37 36 32 48
REMARK Flexibility Score: 90.00
ROOT
ATOM      1  C   UNL     1     100.254  78.478  82.393  1.00  0.00     0.264 C 
ENDROOT
BRANCH   1   2
ATOM      2  C   UNL     1     100.169  79.453  83.545  1.00  0.00    -0.033 C 
ATOM      3  C   UNL     1      99.015  80.119  83.761  1.00  0.00    -0.015 C 
BRANCH   3   4
ATOM      4  C   UNL     1      98.699  81.193  84.789  1.00  0.00     0.078 C 
ATOM      5  O   UNL     1      97.750  80.045  86.763  1.00  0.00    -0.319 OA
ATOM      6  C   UNL     1      98.885  80.849  86.313  1.00  0.00     0.095 CG0
ATOM      7  C   UNL     1      96.461  80.480  86.290  1.00  0.00     0.289 C 
ATOM      8  C   UNL     1      98.909  82.216  87.114  1.00  0.00     0.023 C 
ATOM      9  G   UNL     1     100.122  79.928  86.525  1.00  0.00     0.000 G0
ATOM     10  O   UNL     1      96.417  80.516  84.867  1.00  0.00    -0.320 OA
ATOM     11  O   UNL     1      96.145  81.803  86.719  1.00  0.00    -0.313 OA
ATOM     12  C   UNL     1      97.236  81.670  84.619  1.00  0.00     0.170 C 
ATOM     13  C   UNL     1      97.987  83.284  86.449  1.00  0.00     0.049 C 
ATOM     14  C   UNL     1      98.570  82.111  88.611  1.00  0.00     0.011 C 
ATOM     15  C   UNL     1      96.794  82.641  85.741  1.00  0.00     0.122 C 
BRANCH   7  16
ATOM     16  C   UNL     1      95.414  79.517  86.812  1.00  0.00     0.135 C 
BRANCH  16  17
ATOM     17  C   UNL     1      94.146  79.561  85.996  1.00  0.00    -0.040 A 
ATOM     18  C   UNL     1      93.243  80.609  86.166  1.00  0.00     0.004 A 
ATOM     19  C   UNL     1      93.879  78.552  85.070  1.00  0.00     0.004 A 
ATOM     20  C   UNL     1      92.071  80.650  85.409  1.00  0.00     0.000 A 
ATOM     21  C   UNL     1      92.707  78.593  84.314  1.00  0.00     0.000 A 
ATOM     22  C   UNL     1      91.804  79.642  84.484  1.00  0.00     0.000 A 
ENDBRANCH  16  17
ENDBRANCH   7  16
BRANCH  15  23
ATOM     23  C   UNL     1      95.805  83.649  85.254  1.00  0.00    -0.046 C 
ATOM     24  C   UNL     1      94.619  83.894  86.140  1.00  0.00     0.042 C 
ATOM     25  C   UNL     1      95.966  84.297  84.091  1.00  0.00     0.010 C 
ENDBRANCH  15  23
ENDBRANCH   3   4
BRANCH   2  26
ATOM     26  C   UNL     1     101.456  79.546  84.343  1.00  0.00     0.078 C 
BRANCH  26  27
ATOM     27  C   UNL     1     101.399  80.291  85.675  1.00  0.00     0.140 C 
ATOM     28  C   UNL     1     100.143  79.928  86.494  1.00  0.00     0.086 CG0
ATOM     29  C   UNL     1     102.522  79.895  86.610  1.00  0.00     0.190 C 
ATOM     30  C   UNL     1     100.682  79.696  87.878  1.00  0.00    -0.010 C 
ATOM     31  G   UNL     1      98.907  80.854  86.301  1.00  0.00     0.000 G0
ATOM     32  O   UNL     1     103.705  79.834  86.309  1.00  0.00    -0.291 OA
ATOM     33  C   UNL     1     102.014  79.644  87.972  1.00  0.00    -0.008 C 
ATOM     34  C   UNL     1     102.875  79.356  89.138  1.00  0.00     0.048 C 
BRANCH  27  35
ATOM     35  O   UNL     1     101.582  81.686  85.498  1.00  0.00    -0.381 OA
ATOM     36  H   UNL     1     101.224  81.934  84.629  1.00  0.00     0.212 HD
ENDBRANCH  27  35
ENDBRANCH  26  27
ENDBRANCH   2  26
ENDBRANCH   1   2
BRANCH   1  37
ATOM     37  O   UNL     1      98.958  78.020  82.073  1.00  0.00    -0.461 OA
BRANCH  37  38
ATOM     38  C   UNL     1      98.761  77.613  80.774  1.00  0.00     0.310 C 
ATOM     39  O   UNL     1      99.466  76.814  80.173  1.00  0.00    -0.252 OA
BRANCH  38  40
ATOM     40  C   UNL     1      97.543  78.304  80.209  1.00  0.00     0.158 C 
BRANCH  40  41
ATOM     41  C   UNL     1      97.711  79.798  80.103  1.00  0.00    -0.037 A 
ATOM     42  C   UNL     1      97.063  80.638  81.010  1.00  0.00     0.008 A 
ATOM     43  C   UNL     1      98.512  80.341  79.100  1.00  0.00     0.008 A 
ATOM     44  C   UNL     1      97.218  82.021  80.912  1.00  0.00     0.046 A 
ATOM     45  C   UNL     1      98.667  81.724  79.002  1.00  0.00     0.046 A 
ATOM     46  C   UNL     1      98.020  82.564  79.908  1.00  0.00     0.115 A 
BRANCH  46  47
ATOM     47  O   UNL     1      98.170  83.913  79.812  1.00  0.00    -0.508 OA
ATOM     48  H   UNL     1      98.528  84.251  80.652  1.00  0.00     0.293 HD
ENDBRANCH  46  47
ENDBRANCH  40  41
ENDBRANCH  38  40
ENDBRANCH  37  38
ENDBRANCH   1  37
TORSDOF 10
ENDMDL
MODEL 7
REMARK VINA RESULT:    -6.712      2.470      5.057
REMARK INTER + INTRA:         -11.900
REMARK INTER:                 -10.608
REMARK INTRA:                  -1.291
REMARK UNBOUND:                -0.479
REMARK SMILES C=C(C)[C@]12C[C@@H](C)[C@@]34O[C@](Cc5ccccc5)(O[C@@H]1[C@@H]3C=C(COC(=O)Cc1ccc(O)cc1)C[C@]1(O)C(=O)C(C)=C[C@@H]41)O2
REMARK SMILES IDX 23 1 22 2 21 3 20 4 9 5 8 6 10 7 6 8 18 10 44 11 19 12 5 13
REMARK SMILES IDX 7 14 4 15 11 16 12 17 13 18 17 19 14 20 16 21 15 22 2 23
REMARK SMILES IDX 3 24 1 25 35 26 36 27 43 28 38 29 42 30 39 32 40 33 41 34
REMARK SMILES IDX 37 35 24 37 25 38 26 39 27 40 28 41 29 42 34 43 30 44 33 45
REMARK SMILES IDX 31 46 32 47
REMARK H PARENT 37 36 32 48
REMARK Flexibility Score: 90.00
ROOT
ATOM      1  C   UNL     1      95.885  76.200  84.233  1.00  0.00     0.264 C 
ENDROOT
BRANCH   1   2
ATOM      2  C   UNL     1      96.041  77.664  83.891  1.00  0.00    -0.033 C 
ATOM      3  C   UNL     1      95.252  78.571  84.503  1.00  0.00    -0.015 C 
BRANCH   3   4
ATOM      4  C   UNL     1      95.159  80.073  84.284  1.00  0.00     0.078 C 
ATOM      5  O   UNL     1      96.693  81.134  85.909  1.00  0.00    -0.319 OA
ATOM      6  C   UNL     1      96.457  80.940  84.479  1.00  0.00     0.095 CG0
ATOM      7  C   UNL     1      95.520  81.434  86.690  1.00  0.00     0.289 C 
ATOM      8  C   UNL     1      96.202  82.345  83.794  1.00  0.00     0.023 C 
ATOM      9  G   UNL     1      97.715  80.171  83.980  1.00  0.00     0.000 G0
ATOM     10  O   UNL     1      94.535  80.414  86.558  1.00  0.00    -0.320 OA
ATOM     11  O   UNL     1      94.885  82.640  86.273  1.00  0.00    -0.313 OA
ATOM     12  C   UNL     1      94.081  80.675  85.220  1.00  0.00     0.170 C 
ATOM     13  C   UNL     1      94.706  82.772  83.904  1.00  0.00     0.049 C 
ATOM     14  C   UNL     1      97.097  83.494  84.290  1.00  0.00     0.011 C 
ATOM     15  C   UNL     1      94.052  82.222  85.172  1.00  0.00     0.122 C 
BRANCH   7  16
ATOM     16  C   UNL     1      95.937  81.560  88.142  1.00  0.00     0.135 C 
BRANCH  16  17
ATOM     17  C   UNL     1      97.436  81.617  88.298  1.00  0.00    -0.040 A 
ATOM     18  C   UNL     1      98.122  80.535  88.848  1.00  0.00     0.004 A 
ATOM     19  C   UNL     1      98.136  82.753  87.891  1.00  0.00     0.004 A 
ATOM     20  C   UNL     1      99.509  80.588  88.992  1.00  0.00     0.000 A 
ATOM     21  C   UNL     1      99.523  82.805  88.035  1.00  0.00     0.000 A 
ATOM     22  C   UNL     1     100.209  81.723  88.585  1.00  0.00     0.000 A 
ENDBRANCH  16  17
ENDBRANCH   7  16
BRANCH  15  23
ATOM     23  C   UNL     1      92.677  82.764  85.390  1.00  0.00    -0.046 C 
ATOM     24  C   UNL     1      92.595  84.155  85.945  1.00  0.00     0.042 C 
ATOM     25  C   UNL     1      91.579  82.049  85.105  1.00  0.00     0.010 C 
ENDBRANCH  15  23
ENDBRANCH   3   4
BRANCH   2  26
ATOM     26  C   UNL     1      97.124  77.923  82.861  1.00  0.00     0.078 C 
BRANCH  26  27
ATOM     27  C   UNL     1      97.543  79.375  82.638  1.00  0.00     0.140 C 
ATOM     28  C   UNL     1      97.720  80.142  83.966  1.00  0.00     0.086 CG0
ATOM     29  C   UNL     1      98.915  79.493  82.010  1.00  0.00     0.190 C 
ATOM     30  C   UNL     1      99.023  80.867  83.780  1.00  0.00    -0.010 C 
ATOM     31  G   UNL     1      96.475  80.926  84.476  1.00  0.00     0.000 G0
ATOM     32  O   UNL     1      99.298  78.879  81.025  1.00  0.00    -0.291 OA
ATOM     33  C   UNL     1      99.731  80.505  82.706  1.00  0.00    -0.008 C 
ATOM     34  C   UNL     1     101.072  80.939  82.260  1.00  0.00     0.048 C 
BRANCH  27  35
ATOM     35  O   UNL     1      96.689  80.025  81.712  1.00  0.00    -0.381 OA
ATOM     36  H   UNL     1      96.987  79.805  80.813  1.00  0.00     0.212 HD
ENDBRANCH  27  35
ENDBRANCH  26  27
ENDBRANCH   2  26
ENDBRANCH   1   2
BRANCH   1  37
ATOM     37  O   UNL     1      94.677  76.012  84.938  1.00  0.00    -0.461 OA
BRANCH  37  38
ATOM     38  C   UNL     1      93.835  75.039  84.451  1.00  0.00     0.310 C 
ATOM     39  O   UNL     1      93.725  73.911  84.910  1.00  0.00    -0.252 OA
BRANCH  38  40
ATOM     40  C   UNL     1      93.071  75.581  83.266  1.00  0.00     0.158 C 
BRANCH  40  41
ATOM     41  C   UNL     1      91.841  76.355  83.664  1.00  0.00    -0.037 A 
ATOM     42  C   UNL     1      91.908  77.740  83.817  1.00  0.00     0.008 A 
ATOM     43  C   UNL     1      90.636  75.687  83.880  1.00  0.00     0.008 A 
ATOM     44  C   UNL     1      90.769  78.457  84.186  1.00  0.00     0.046 A 
ATOM     45  C   UNL     1      89.497  76.404  84.248  1.00  0.00     0.046 A 
ATOM     46  C   UNL     1      89.563  77.788  84.402  1.00  0.00     0.115 A 
BRANCH  46  47
ATOM     47  O   UNL     1      88.453  78.487  84.762  1.00  0.00    -0.508 OA
ATOM     48  H   UNL     1      88.727  79.339  85.144  1.00  0.00     0.293 HD
ENDBRANCH  46  47
ENDBRANCH  40  41
ENDBRANCH  38  40
ENDBRANCH  37  38
ENDBRANCH   1  37
TORSDOF 10
ENDMDL
MODEL 8
REMARK VINA RESULT:    -6.660      2.059      4.395
REMARK INTER + INTRA:         -11.811
REMARK INTER:                 -13.006
REMARK INTRA:                   1.195
REMARK UNBOUND:                -0.479
REMARK SMILES C=C(C)[C@]12C[C@@H](C)[C@@]34O[C@](Cc5ccccc5)(O[C@@H]1[C@@H]3C=C(COC(=O)Cc1ccc(O)cc1)C[C@]1(O)C(=O)C(C)=C[C@@H]41)O2
REMARK SMILES IDX 23 1 22 2 21 3 20 4 9 5 8 6 10 7 6 8 18 10 44 11 19 12 5 13
REMARK SMILES IDX 7 14 4 15 11 16 12 17 13 18 17 19 14 20 16 21 15 22 2 23
REMARK SMILES IDX 3 24 1 25 35 26 36 27 43 28 38 29 42 30 39 32 40 33 41 34
REMARK SMILES IDX 37 35 24 37 25 38 26 39 27 40 28 41 29 42 34 43 30 44 33 45
REMARK SMILES IDX 31 46 32 47
REMARK H PARENT 37 36 32 48
REMARK Flexibility Score: 90.00
ROOT
ATOM      1  C   UNL     1      92.320  78.821  84.903  1.00  0.00     0.264 C 
ENDROOT
BRANCH   1   2
ATOM      2  C   UNL     1      93.424  79.379  85.771  1.00  0.00    -0.033 C 
ATOM      3  C   UNL     1      94.686  79.407  85.295  1.00  0.00    -0.015 C 
BRANCH   3   4
ATOM      4  C   UNL     1      95.969  79.841  85.987  1.00  0.00     0.078 C 
ATOM      5  O   UNL     1      96.298  82.234  85.457  1.00  0.00    -0.319 OA
ATOM      6  C   UNL     1      96.053  81.304  86.558  1.00  0.00     0.095 CG0
ATOM      7  C   UNL     1      97.272  81.798  84.489  1.00  0.00     0.289 C 
ATOM      8  C   UNL     1      97.272  81.355  87.568  1.00  0.00     0.023 C 
ATOM      9  G   UNL     1      94.681  81.750  87.143  1.00  0.00     0.000 G0
ATOM     10  O   UNL     1      96.905  80.548  83.913  1.00  0.00    -0.320 OA
ATOM     11  O   UNL     1      98.558  81.593  85.068  1.00  0.00    -0.313 OA
ATOM     12  C   UNL     1      97.169  79.674  85.022  1.00  0.00     0.170 C 
ATOM     13  C   UNL     1      98.424  80.403  87.124  1.00  0.00     0.049 C 
ATOM     14  C   UNL     1      97.846  82.756  87.842  1.00  0.00     0.011 C 
ATOM     15  C   UNL     1      98.481  80.255  85.602  1.00  0.00     0.122 C 
BRANCH   7  16
ATOM     16  C   UNL     1      97.368  82.853  83.405  1.00  0.00     0.135 C 
BRANCH  16  17
ATOM     17  C   UNL     1      97.489  82.244  82.030  1.00  0.00    -0.040 A 
ATOM     18  C   UNL     1      98.099  81.001  81.869  1.00  0.00     0.004 A 
ATOM     19  C   UNL     1      96.989  82.925  80.921  1.00  0.00     0.004 A 
ATOM     20  C   UNL     1      98.210  80.437  80.598  1.00  0.00     0.000 A 
ATOM     21  C   UNL     1      97.100  82.361  79.649  1.00  0.00     0.000 A 
ATOM     22  C   UNL     1      97.710  81.118  79.488  1.00  0.00     0.000 A 
ENDBRANCH  16  17
ENDBRANCH   7  16
BRANCH  15  23
ATOM     23  C   UNL     1      99.683  79.496  85.144  1.00  0.00    -0.046 C 
ATOM     24  C   UNL     1     100.260  79.905  83.821  1.00  0.00     0.042 C 
ATOM     25  C   UNL     1     100.216  78.504  85.873  1.00  0.00     0.010 C 
ENDBRANCH  15  23
ENDBRANCH   3   4
BRANCH   2  26
ATOM     26  C   UNL     1      92.932  79.861  87.123  1.00  0.00     0.078 C 
BRANCH  26  27
ATOM     27  C   UNL     1      93.910  80.671  87.972  1.00  0.00     0.140 C 
ATOM     28  C   UNL     1      94.666  81.729  87.143  1.00  0.00     0.086 CG0
ATOM     29  C   UNL     1      93.209  81.516  89.016  1.00  0.00     0.190 C 
ATOM     30  C   UNL     1      94.580  82.967  87.993  1.00  0.00    -0.010 C 
ATOM     31  G   UNL     1      96.045  81.292  86.567  1.00  0.00     0.000 G0
ATOM     32  O   UNL     1      92.345  81.120  89.783  1.00  0.00    -0.291 OA
ATOM     33  C   UNL     1      93.749  82.888  89.036  1.00  0.00    -0.008 C 
ATOM     34  C   UNL     1      93.359  83.918  90.021  1.00  0.00     0.048 C 
BRANCH  27  35
ATOM     35  O   UNL     1      94.757  79.827  88.734  1.00  0.00    -0.381 OA
ATOM     36  H   UNL     1      95.304  79.308  88.120  1.00  0.00     0.212 HD
ENDBRANCH  27  35
ENDBRANCH  26  27
ENDBRANCH   2  26
ENDBRANCH   1   2
BRANCH   1  37
ATOM     37  O   UNL     1      91.133  79.550  85.131  1.00  0.00    -0.461 OA
BRANCH  37  38
ATOM     38  C   UNL     1      91.157  80.878  84.772  1.00  0.00     0.310 C 
ATOM     39  O   UNL     1      91.917  81.370  83.950  1.00  0.00    -0.252 OA
BRANCH  38  40
ATOM     40  C   UNL     1      90.103  81.630  85.550  1.00  0.00     0.158 C 
BRANCH  40  41
ATOM     41  C   UNL     1      88.860  81.901  84.743  1.00  0.00    -0.037 A 
ATOM     42  C   UNL     1      88.295  80.887  83.969  1.00  0.00     0.008 A 
ATOM     43  C   UNL     1      88.274  83.166  84.769  1.00  0.00     0.008 A 
ATOM     44  C   UNL     1      87.144  81.139  83.221  1.00  0.00     0.046 A 
ATOM     45  C   UNL     1      87.123  83.419  84.022  1.00  0.00     0.046 A 
ATOM     46  C   UNL     1      86.558  82.405  83.248  1.00  0.00     0.115 A 
BRANCH  46  47
ATOM     47  O   UNL     1      85.436  82.651  82.519  1.00  0.00    -0.508 OA
ATOM     48  H   UNL     1      84.772  81.969  82.722  1.00  0.00     0.293 HD
ENDBRANCH  46  47
ENDBRANCH  40  41
ENDBRANCH  38  40
ENDBRANCH  37  38
ENDBRANCH   1  37
TORSDOF 10
ENDMDL
MODEL 9
REMARK VINA RESULT:    -6.626      3.025      5.883
REMARK INTER + INTRA:         -11.753
REMARK INTER:                 -10.157
REMARK INTRA:                  -1.596
REMARK UNBOUND:                -0.479
REMARK SMILES C=C(C)[C@]12C[C@@H](C)[C@@]34O[C@](Cc5ccccc5)(O[C@@H]1[C@@H]3C=C(COC(=O)Cc1ccc(O)cc1)C[C@]1(O)C(=O)C(C)=C[C@@H]41)O2
REMARK SMILES IDX 23 1 22 2 21 3 20 4 9 5 8 6 10 7 6 8 18 10 44 11 19 12 5 13
REMARK SMILES IDX 7 14 4 15 11 16 12 17 13 18 17 19 14 20 16 21 15 22 2 23
REMARK SMILES IDX 3 24 1 25 35 26 36 27 43 28 38 29 42 30 39 32 40 33 41 34
REMARK SMILES IDX 37 35 24 37 25 38 26 39 27 40 28 41 29 42 34 43 30 44 33 45
REMARK SMILES IDX 31 46 32 47
REMARK H PARENT 37 36 32 48
REMARK Flexibility Score: 90.00
ROOT
ATOM      1  C   UNL     1      95.945  84.879  83.830  1.00  0.00     0.264 C 
ENDROOT
BRANCH   1   2
ATOM      2  C   UNL     1      96.661  83.639  84.313  1.00  0.00    -0.033 C 
ATOM      3  C   UNL     1      97.177  83.620  85.559  1.00  0.00    -0.015 C 
BRANCH   3   4
ATOM      4  C   UNL     1      97.997  82.540  86.247  1.00  0.00     0.078 C 
ATOM      5  O   UNL     1      96.405  81.099  87.475  1.00  0.00    -0.319 OA
ATOM      6  C   UNL     1      97.377  81.101  86.382  1.00  0.00     0.095 CG0
ATOM      7  C   UNL     1      96.814  81.806  88.662  1.00  0.00     0.289 C 
ATOM      8  C   UNL     1      98.556  80.101  86.728  1.00  0.00     0.023 C 
ATOM      9  G   UNL     1      96.541  80.738  85.120  1.00  0.00     0.000 G0
ATOM     10  O   UNL     1      97.125  83.166  88.374  1.00  0.00    -0.320 OA
ATOM     11  O   UNL     1      97.994  81.255  89.242  1.00  0.00    -0.313 OA
ATOM     12  C   UNL     1      98.371  82.997  87.679  1.00  0.00     0.170 C 
ATOM     13  C   UNL     1      99.651  80.788  87.600  1.00  0.00     0.049 C 
ATOM     14  C   UNL     1      98.130  78.781  87.393  1.00  0.00     0.011 C 
ATOM     15  C   UNL     1      99.061  81.877  88.497  1.00  0.00     0.122 C 
BRANCH   7  16
ATOM     16  C   UNL     1      95.680  81.741  89.667  1.00  0.00     0.135 C 
BRANCH  16  17
ATOM     17  C   UNL     1      95.482  83.053  90.383  1.00  0.00    -0.040 A 
ATOM     18  C   UNL     1      94.371  83.844  90.096  1.00  0.00     0.004 A 
ATOM     19  C   UNL     1      96.412  83.474  91.333  1.00  0.00     0.004 A 
ATOM     20  C   UNL     1      94.188  85.058  90.760  1.00  0.00     0.000 A 
ATOM     21  C   UNL     1      96.229  84.688  91.997  1.00  0.00     0.000 A 
ATOM     22  C   UNL     1      95.118  85.479  91.710  1.00  0.00     0.000 A 
ENDBRANCH  16  17
ENDBRANCH   7  16
BRANCH  15  23
ATOM     23  C   UNL     1     100.056  82.423  89.468  1.00  0.00    -0.046 C 
ATOM     24  C   UNL     1     101.293  83.031  88.876  1.00  0.00     0.042 C 
ATOM     25  C   UNL     1      99.856  82.372  90.793  1.00  0.00     0.010 C 
ENDBRANCH  15  23
ENDBRANCH   3   4
BRANCH   2  26
ATOM     26  C   UNL     1      96.694  82.530  83.279  1.00  0.00     0.078 C 
BRANCH  26  27
ATOM     27  C   UNL     1      97.146  81.149  83.751  1.00  0.00     0.140 C 
ATOM     28  C   UNL     1      96.541  80.774  85.119  1.00  0.00     0.086 CG0
ATOM     29  C   UNL     1      96.642  80.037  82.856  1.00  0.00     0.190 C 
ATOM     30  C   UNL     1      96.068  79.361  84.917  1.00  0.00    -0.010 C 
ATOM     31  G   UNL     1      97.404  81.118  86.368  1.00  0.00     0.000 G0
ATOM     32  O   UNL     1      96.721  80.018  81.637  1.00  0.00    -0.291 OA
ATOM     33  C   UNL     1      96.085  78.927  83.653  1.00  0.00    -0.008 C 
ATOM     34  C   UNL     1      95.623  77.646  83.081  1.00  0.00     0.048 C 
BRANCH  27  35
ATOM     35  O   UNL     1      98.557  81.017  83.693  1.00  0.00    -0.381 OA
ATOM     36  H   UNL     1      98.952  81.899  83.804  1.00  0.00     0.212 HD
ENDBRANCH  27  35
ENDBRANCH  26  27
ENDBRANCH   2  26
ENDBRANCH   1   2
BRANCH   1  37
ATOM     37  O   UNL     1      94.592  84.823  84.230  1.00  0.00    -0.461 OA
BRANCH  37  38
ATOM     38  C   UNL     1      94.191  85.763  85.151  1.00  0.00     0.310 C 
ATOM     39  O   UNL     1      94.474  86.952  85.110  1.00  0.00    -0.252 OA
BRANCH  38  40
ATOM     40  C   UNL     1      93.350  85.099  86.215  1.00  0.00     0.158 C 
BRANCH  40  41
ATOM     41  C   UNL     1      93.155  83.624  85.975  1.00  0.00    -0.037 A 
ATOM     42  C   UNL     1      93.291  82.721  87.029  1.00  0.00     0.008 A 
ATOM     43  C   UNL     1      92.839  83.161  84.698  1.00  0.00     0.008 A 
ATOM     44  C   UNL     1      93.111  81.356  86.806  1.00  0.00     0.046 A 
ATOM     45  C   UNL     1      92.658  81.796  84.475  1.00  0.00     0.046 A 
ATOM     46  C   UNL     1      92.794  80.893  85.529  1.00  0.00     0.115 A 
BRANCH  46  47
ATOM     47  O   UNL     1      92.619  79.562  85.311  1.00  0.00    -0.508 OA
ATOM     48  H   UNL     1      91.669  79.358  85.351  1.00  0.00     0.293 HD
ENDBRANCH  46  47
ENDBRANCH  40  41
ENDBRANCH  38  40
ENDBRANCH  37  38
ENDBRANCH   1  37
TORSDOF 10
ENDMDL
MODEL 10
REMARK VINA RESULT:    -6.442     24.934     29.399
REMARK INTER + INTRA:         -11.441
REMARK INTER:                 -11.119
REMARK INTRA:                  -0.321
REMARK UNBOUND:                -0.479
REMARK SMILES C=C(C)[C@]12C[C@@H](C)[C@@]34O[C@](Cc5ccccc5)(O[C@@H]1[C@@H]3C=C(COC(=O)Cc1ccc(O)cc1)C[C@]1(O)C(=O)C(C)=C[C@@H]41)O2
REMARK SMILES IDX 23 1 22 2 21 3 20 4 9 5 8 6 10 7 6 8 18 10 44 11 19 12 5 13
REMARK SMILES IDX 7 14 4 15 11 16 12 17 13 18 17 19 14 20 16 21 15 22 2 23
REMARK SMILES IDX 3 24 1 25 35 26 36 27 43 28 38 29 42 30 39 32 40 33 41 34
REMARK SMILES IDX 37 35 24 37 25 38 26 39 27 40 28 41 29 42 34 43 30 44 33 45
REMARK SMILES IDX 31 46 32 47
REMARK H PARENT 37 36 32 48
REMARK Flexibility Score: 90.00
ROOT
ATOM      1  C   UNL     1      70.172  85.960  69.223  1.00  0.00     0.264 C 
ENDROOT
BRANCH   1   2
ATOM      2  C   UNL     1      70.876  86.239  67.915  1.00  0.00    -0.033 C 
ATOM      3  C   UNL     1      71.658  87.333  67.808  1.00  0.00    -0.015 C 
BRANCH   3   4
ATOM      4  C   UNL     1      72.404  87.872  66.598  1.00  0.00     0.078 C 
ATOM      5  O   UNL     1      74.682  86.912  66.670  1.00  0.00    -0.319 OA
ATOM      6  C   UNL     1      73.449  86.936  65.885  1.00  0.00     0.095 CG0
ATOM      7  C   UNL     1      75.111  88.189  67.181  1.00  0.00     0.289 C 
ATOM      8  C   UNL     1      73.749  87.553  64.457  1.00  0.00     0.023 C 
ATOM      9  G   UNL     1      72.960  85.459  65.887  1.00  0.00     0.000 G0
ATOM     10  O   UNL     1      74.104  88.787  67.992  1.00  0.00    -0.320 OA
ATOM     11  O   UNL     1      75.376  89.128  66.141  1.00  0.00    -0.313 OA
ATOM     12  C   UNL     1      73.160  89.168  66.980  1.00  0.00     0.170 C 
ATOM     13  C   UNL     1      73.674  89.110  64.479  1.00  0.00     0.049 C 
ATOM     14  C   UNL     1      75.076  87.115  63.814  1.00  0.00     0.011 C 
ATOM     15  C   UNL     1      74.077  89.677  65.841  1.00  0.00     0.122 C 
BRANCH   7  16
ATOM     16  C   UNL     1      76.369  87.974  67.999  1.00  0.00     0.135 C 
BRANCH  16  17
ATOM     17  C   UNL     1      76.494  86.551  68.483  1.00  0.00    -0.040 A 
ATOM     18  C   UNL     1      77.308  85.650  67.798  1.00  0.00     0.004 A 
ATOM     19  C   UNL     1      75.795  86.137  69.616  1.00  0.00     0.004 A 
ATOM     20  C   UNL     1      77.423  84.333  68.246  1.00  0.00     0.000 A 
ATOM     21  C   UNL     1      75.910  84.821  70.065  1.00  0.00     0.000 A 
ATOM     22  C   UNL     1      76.724  83.920  69.379  1.00  0.00     0.000 A 
ENDBRANCH  16  17
ENDBRANCH   7  16
BRANCH  15  23
ATOM     23  C   UNL     1      74.187  91.167  65.832  1.00  0.00    -0.046 C 
ATOM     24  C   UNL     1      73.457  91.878  64.731  1.00  0.00     0.042 C 
ATOM     25  C   UNL     1      74.898  91.831  66.755  1.00  0.00     0.010 C 
ENDBRANCH  15  23
ENDBRANCH   3   4
BRANCH   2  26
ATOM     26  C   UNL     1      70.598  85.191  66.853  1.00  0.00     0.078 C 
BRANCH  26  27
ATOM     27  C   UNL     1      71.430  85.257  65.574  1.00  0.00     0.140 C 
ATOM     28  C   UNL     1      72.932  85.456  65.864  1.00  0.00     0.086 CG0
ATOM     29  C   UNL     1      71.418  83.951  64.807  1.00  0.00     0.190 C 
ATOM     30  C   UNL     1      73.599  84.453  64.964  1.00  0.00    -0.010 C 
ATOM     31  G   UNL     1      73.439  86.928  65.874  1.00  0.00     0.000 G0
ATOM     32  O   UNL     1      70.420  83.304  64.526  1.00  0.00    -0.291 OA
ATOM     33  C   UNL     1      72.778  83.576  64.378  1.00  0.00    -0.008 C 
ATOM     34  C   UNL     1      73.084  82.420  63.510  1.00  0.00     0.048 C 
BRANCH  27  35
ATOM     35  O   UNL     1      70.895  86.194  64.655  1.00  0.00    -0.381 OA
ATOM     36  H   UNL     1      69.972  86.375  64.904  1.00  0.00     0.212 HD
ENDBRANCH  27  35
ENDBRANCH  26  27
ENDBRANCH   2  26
ENDBRANCH   1   2
BRANCH   1  37
ATOM     37  O   UNL     1      68.781  85.879  68.995  1.00  0.00    -0.461 OA
BRANCH  37  38
ATOM     38  C   UNL     1      68.199  84.652  69.219  1.00  0.00     0.310 C 
ATOM     39  O   UNL     1      68.802  83.589  69.279  1.00  0.00    -0.252 OA
BRANCH  38  40
ATOM     40  C   UNL     1      66.708  84.823  69.379  1.00  0.00     0.158 C 
BRANCH  40  41
ATOM     41  C   UNL     1      65.917  83.699  68.762  1.00  0.00    -0.037 A 
ATOM     42  C   UNL     1      65.311  82.743  69.577  1.00  0.00     0.008 A 
ATOM     43  C   UNL     1      65.791  83.613  67.375  1.00  0.00     0.008 A 
ATOM     44  C   UNL     1      64.580  81.701  69.005  1.00  0.00     0.046 A 
ATOM     45  C   UNL     1      65.060  82.572  66.803  1.00  0.00     0.046 A 
ATOM     46  C   UNL     1      64.454  81.616  67.618  1.00  0.00     0.115 A 
BRANCH  46  47
ATOM     47  O   UNL     1      63.742  80.600  67.061  1.00  0.00    -0.508 OA
ATOM     48  H   UNL     1      63.550  79.936  67.746  1.00  0.00     0.293 HD
ENDBRANCH  46  47
ENDBRANCH  40  41
ENDBRANCH  38  40
ENDBRANCH  37  38
ENDBRANCH   1  37
TORSDOF 10
ENDMDL
