MODEL 1
REMARK VINA RESULT:    -6.438      0.000      0.000
REMARK INTER + INTRA:         -10.687
REMARK INTER:                 -10.013
REMARK INTRA:                  -0.674
REMARK UNBOUND:                -0.674
REMARK SMILES COc1cc(CNC(=O)CCCC/C=C/C(C)C)ccc1O
REMARK SMILES IDX 10 1 8 2 7 3 9 5 6 6 5 7 3 8 21 9 4 10 20 11 19 12 2 13 1 14
REMARK SMILES IDX 22 15 11 17 12 18 13 19 14 20 15 21 16 22 17 23 18 24
REMARK H PARENT 7 4 22 16
REMARK Flexibility Score: inf
ROOT
ATOM      1  C   UNL     1      94.480  94.378  76.021  1.00  0.00     0.100 C 
ENDROOT
BRANCH   1   2
ATOM      2  C   UNL     1      93.098  94.003  75.666  1.00  0.00     0.220 C 
ATOM      3  N   UNL     1      92.063  94.306  76.498  1.00  0.00    -0.352 N 
ATOM      4  H   UNL     1      92.328  94.771  77.356  1.00  0.00     0.163 HD
ATOM      5  O   UNL     1      92.906  93.421  74.570  1.00  0.00    -0.275 OA
BRANCH   3   6
ATOM      6  C   UNL     1      90.690  94.017  76.232  1.00  0.00     0.151 C 
BRANCH   6   7
ATOM      7  C   UNL     1      90.356  92.604  76.561  1.00  0.00    -0.025 A 
ATOM      8  C   UNL     1      89.575  90.380  75.849  1.00  0.00     0.160 A 
ATOM      9  C   UNL     1      89.733  89.902  77.167  1.00  0.00     0.157 A 
ATOM     10  C   UNL     1      89.886  91.725  75.559  1.00  0.00     0.056 A 
ATOM     11  C   UNL     1      90.182  90.772  78.180  1.00  0.00     0.050 A 
ATOM     12  C   UNL     1      90.501  92.110  77.879  1.00  0.00     0.009 A 
BRANCH   8  13
ATOM     13  O   UNL     1      89.076  89.555  74.874  1.00  0.00    -0.493 OA
ATOM     14  C   UNL     1      90.076  89.023  73.986  1.00  0.00     0.278 C 
ENDBRANCH   8  13
BRANCH   9  15
ATOM     15  O   UNL     1      89.455  88.609  77.477  1.00  0.00    -0.504 OA
ATOM     16  H   UNL     1      89.623  88.460  78.410  1.00  0.00     0.293 HD
ENDBRANCH   9  15
ENDBRANCH   6   7
ENDBRANCH   3   6
ENDBRANCH   1   2
BRANCH   1  17
ATOM     17  C   UNL     1      94.927  95.674  75.294  1.00  0.00     0.010 C 
BRANCH  17  18
ATOM     18  C   UNL     1      96.159  96.348  75.961  1.00  0.00     0.005 C 
BRANCH  18  19
ATOM     19  C   UNL     1      96.780  95.468  77.079  1.00  0.00     0.027 C 
BRANCH  19  20
ATOM     20  C   UNL     1      96.354  95.888  78.406  1.00  0.00    -0.031 C 
ATOM     21  C   UNL     1      95.842  95.059  79.333  1.00  0.00    -0.028 C 
BRANCH  21  22
ATOM     22  C   UNL     1      95.438  95.499  80.668  1.00  0.00     0.005 C 
ATOM     23  C   UNL     1      95.572  94.370  81.727  1.00  0.00     0.012 C 
ATOM     24  C   UNL     1      96.251  96.751  81.088  1.00  0.00     0.012 C 
ENDBRANCH  21  22
ENDBRANCH  19  20
ENDBRANCH  18  19
ENDBRANCH  17  18
ENDBRANCH   1  17
TORSDOF 10
ENDMDL
MODEL 2
REMARK VINA RESULT:    -5.994     27.257     30.101
REMARK INTER + INTRA:          -9.998
REMARK INTER:                  -8.607
REMARK INTRA:                  -1.391
REMARK UNBOUND:                -0.674
REMARK SMILES COc1cc(CNC(=O)CCCC/C=C/C(C)C)ccc1O
REMARK SMILES IDX 10 1 8 2 7 3 9 5 6 6 5 7 3 8 21 9 4 10 20 11 19 12 2 13 1 14
REMARK SMILES IDX 22 15 11 17 12 18 13 19 14 20 15 21 16 22 17 23 18 24
REMARK H PARENT 7 4 22 16
REMARK Flexibility Score: inf
ROOT
ATOM      1  C   UNL     1      84.622  66.257  71.156  1.00  0.00     0.100 C 
ENDROOT
BRANCH   1   2
ATOM      2  C   UNL     1      84.473  65.028  71.958  1.00  0.00     0.220 C 
ATOM      3  N   UNL     1      83.683  65.019  73.069  1.00  0.00    -0.352 N 
ATOM      4  H   UNL     1      83.250  65.904  73.291  1.00  0.00     0.163 HD
ATOM      5  O   UNL     1      85.072  63.994  71.575  1.00  0.00    -0.275 OA
BRANCH   3   6
ATOM      6  C   UNL     1      83.447  63.876  73.892  1.00  0.00     0.151 C 
BRANCH   6   7
ATOM      7  C   UNL     1      84.018  64.058  75.255  1.00  0.00    -0.025 A 
ATOM      8  C   UNL     1      84.849  65.543  77.034  1.00  0.00     0.160 A 
ATOM      9  C   UNL     1      85.088  64.424  77.858  1.00  0.00     0.157 A 
ATOM     10  C   UNL     1      84.319  65.350  75.741  1.00  0.00     0.056 A 
ATOM     11  C   UNL     1      84.811  63.128  77.379  1.00  0.00     0.050 A 
ATOM     12  C   UNL     1      84.271  62.946  76.091  1.00  0.00     0.009 A 
BRANCH   8  13
ATOM     13  O   UNL     1      85.178  66.802  77.471  1.00  0.00    -0.493 OA
ATOM     14  C   UNL     1      84.353  67.847  76.925  1.00  0.00     0.278 C 
ENDBRANCH   8  13
BRANCH   9  15
ATOM     15  O   UNL     1      85.586  64.576  79.113  1.00  0.00    -0.504 OA
ATOM     16  H   UNL     1      86.170  65.337  79.136  1.00  0.00     0.293 HD
ENDBRANCH   9  15
ENDBRANCH   6   7
ENDBRANCH   3   6
ENDBRANCH   1   2
BRANCH   1  17
ATOM     17  C   UNL     1      83.347  66.556  70.322  1.00  0.00     0.010 C 
BRANCH  17  18
ATOM     18  C   UNL     1      82.552  67.782  70.851  1.00  0.00     0.005 C 
BRANCH  18  19
ATOM     19  C   UNL     1      81.025  67.512  70.919  1.00  0.00     0.027 C 
BRANCH  19  20
ATOM     20  C   UNL     1      80.613  67.021  72.225  1.00  0.00    -0.031 C 
ATOM     21  C   UNL     1      80.246  65.751  72.475  1.00  0.00    -0.028 C 
BRANCH  21  22
ATOM     22  C   UNL     1      79.855  65.275  73.801  1.00  0.00     0.005 C 
ATOM     23  C   UNL     1      79.947  63.729  73.923  1.00  0.00     0.012 C 
ATOM     24  C   UNL     1      80.710  65.968  74.893  1.00  0.00     0.012 C 
ENDBRANCH  21  22
ENDBRANCH  19  20
ENDBRANCH  18  19
ENDBRANCH  17  18
ENDBRANCH   1  17
TORSDOF 10
ENDMDL
MODEL 3
REMARK VINA RESULT:    -5.966      5.261      9.017
REMARK INTER + INTRA:          -9.953
REMARK INTER:                  -9.334
REMARK INTRA:                  -0.620
REMARK UNBOUND:                -0.674
REMARK SMILES COc1cc(CNC(=O)CCCC/C=C/C(C)C)ccc1O
REMARK SMILES IDX 10 1 8 2 7 3 9 5 6 6 5 7 3 8 21 9 4 10 20 11 19 12 2 13 1 14
REMARK SMILES IDX 22 15 11 17 12 18 13 19 14 20 15 21 16 22 17 23 18 24
REMARK H PARENT 7 4 22 16
REMARK Flexibility Score: inf
ROOT
ATOM      1  C   UNL     1      94.865  98.195  73.716  1.00  0.00     0.100 C 
ENDROOT
BRANCH   1   2
ATOM      2  C   UNL     1      94.805  96.815  74.236  1.00  0.00     0.220 C 
ATOM      3  N   UNL     1      95.946  96.159  74.588  1.00  0.00    -0.352 N 
ATOM      4  H   UNL     1      96.800  96.679  74.441  1.00  0.00     0.163 HD
ATOM      5  O   UNL     1      93.678  96.279  74.364  1.00  0.00    -0.275 OA
BRANCH   3   6
ATOM      6  C   UNL     1      95.993  94.838  75.129  1.00  0.00     0.151 C 
BRANCH   6   7
ATOM      7  C   UNL     1      95.737  94.838  76.595  1.00  0.00    -0.025 A 
ATOM      8  C   UNL     1      96.328  95.603  78.859  1.00  0.00     0.160 A 
ATOM      9  C   UNL     1      95.250  94.866  79.391  1.00  0.00     0.157 A 
ATOM     10  C   UNL     1      96.562  95.581  77.468  1.00  0.00     0.056 A 
ATOM     11  C   UNL     1      94.430  94.104  78.534  1.00  0.00     0.050 A 
ATOM     12  C   UNL     1      94.665  94.098  77.146  1.00  0.00     0.009 A 
BRANCH   8  13
ATOM     13  O   UNL     1      97.168  96.293  79.696  1.00  0.00    -0.493 OA
ATOM     14  C   UNL     1      98.532  96.352  79.239  1.00  0.00     0.278 C 
ENDBRANCH   8  13
BRANCH   9  15
ATOM     15  O   UNL     1      94.989  94.876  80.723  1.00  0.00    -0.504 OA
ATOM     16  H   UNL     1      94.040  94.851  80.865  1.00  0.00     0.293 HD
ENDBRANCH   9  15
ENDBRANCH   6   7
ENDBRANCH   3   6
ENDBRANCH   1   2
BRANCH   1  17
ATOM     17  C   UNL     1      93.529  98.613  73.046  1.00  0.00     0.010 C 
BRANCH  17  18
ATOM     18  C   UNL     1      93.541  98.424  71.503  1.00  0.00     0.005 C 
BRANCH  18  19
ATOM     19  C   UNL     1      92.468  99.293  70.793  1.00  0.00     0.027 C 
BRANCH  19  20
ATOM     20  C   UNL     1      91.866  98.603  69.662  1.00  0.00    -0.031 C 
ATOM     21  C   UNL     1      90.583  98.746  69.285  1.00  0.00    -0.028 C 
BRANCH  21  22
ATOM     22  C   UNL     1      90.004  98.057  68.132  1.00  0.00     0.005 C 
ATOM     23  C   UNL     1      89.955  98.961  66.869  1.00  0.00     0.012 C 
ATOM     24  C   UNL     1      90.782  96.747  67.844  1.00  0.00     0.012 C 
ENDBRANCH  21  22
ENDBRANCH  19  20
ENDBRANCH  18  19
ENDBRANCH  17  18
ENDBRANCH   1  17
TORSDOF 10
ENDMDL
MODEL 4
REMARK VINA RESULT:    -5.910     27.500     30.130
REMARK INTER + INTRA:          -9.867
REMARK INTER:                  -9.111
REMARK INTRA:                  -0.756
REMARK UNBOUND:                -0.674
REMARK SMILES COc1cc(CNC(=O)CCCC/C=C/C(C)C)ccc1O
REMARK SMILES IDX 10 1 8 2 7 3 9 5 6 6 5 7 3 8 21 9 4 10 20 11 19 12 2 13 1 14
REMARK SMILES IDX 22 15 11 17 12 18 13 19 14 20 15 21 16 22 17 23 18 24
REMARK H PARENT 7 4 22 16
REMARK Flexibility Score: inf
ROOT
ATOM      1  C   UNL     1      62.877  86.059  77.012  1.00  0.00     0.100 C 
ENDROOT
BRANCH   1   2
ATOM      2  C   UNL     1      63.596  86.779  78.081  1.00  0.00     0.220 C 
ATOM      3  N   UNL     1      64.932  86.587  78.265  1.00  0.00    -0.352 N 
ATOM      4  H   UNL     1      65.357  85.915  77.641  1.00  0.00     0.163 HD
ATOM      5  O   UNL     1      62.948  87.583  78.793  1.00  0.00    -0.275 OA
BRANCH   3   6
ATOM      6  C   UNL     1      65.724  87.257  79.247  1.00  0.00     0.151 C 
BRANCH   6   7
ATOM      7  C   UNL     1      66.018  86.373  80.408  1.00  0.00    -0.025 A 
ATOM      8  C   UNL     1      65.452  85.563  82.663  1.00  0.00     0.160 A 
ATOM      9  C   UNL     1      66.551  84.680  82.623  1.00  0.00     0.157 A 
ATOM     10  C   UNL     1      65.197  86.401  81.557  1.00  0.00     0.056 A 
ATOM     11  C   UNL     1      67.390  84.655  81.491  1.00  0.00     0.050 A 
ATOM     12  C   UNL     1      67.120  85.487  80.387  1.00  0.00     0.009 A 
BRANCH   8  13
ATOM     13  O   UNL     1      64.671  85.639  83.788  1.00  0.00    -0.493 OA
ATOM     14  C   UNL     1      63.326  86.088  83.541  1.00  0.00     0.278 C 
ENDBRANCH   8  13
BRANCH   9  15
ATOM     15  O   UNL     1      66.816  83.851  83.664  1.00  0.00    -0.504 OA
ATOM     16  H   UNL     1      66.048  83.800  84.238  1.00  0.00     0.293 HD
ENDBRANCH   9  15
ENDBRANCH   6   7
ENDBRANCH   3   6
ENDBRANCH   1   2
BRANCH   1  17
ATOM     17  C   UNL     1      63.643  86.123  75.663  1.00  0.00     0.010 C 
BRANCH  17  18
ATOM     18  C   UNL     1      64.304  84.770  75.278  1.00  0.00     0.005 C 
BRANCH  18  19
ATOM     19  C   UNL     1      63.526  83.550  75.842  1.00  0.00     0.027 C 
BRANCH  19  20
ATOM     20  C   UNL     1      63.447  82.460  74.881  1.00  0.00    -0.031 C 
ATOM     21  C   UNL     1      64.441  81.584  74.648  1.00  0.00    -0.028 C 
BRANCH  21  22
ATOM     22  C   UNL     1      64.332  80.483  73.691  1.00  0.00     0.005 C 
ATOM     23  C   UNL     1      63.639  80.917  72.370  1.00  0.00     0.012 C 
ATOM     24  C   UNL     1      65.732  79.879  73.408  1.00  0.00     0.012 C 
ENDBRANCH  21  22
ENDBRANCH  19  20
ENDBRANCH  18  19
ENDBRANCH  17  18
ENDBRANCH   1  17
TORSDOF 10
ENDMDL
MODEL 5
REMARK VINA RESULT:    -5.743     27.330     31.209
REMARK INTER + INTRA:          -9.606
REMARK INTER:                  -8.998
REMARK INTRA:                  -0.608
REMARK UNBOUND:                -0.674
REMARK SMILES COc1cc(CNC(=O)CCCC/C=C/C(C)C)ccc1O
REMARK SMILES IDX 10 1 8 2 7 3 9 5 6 6 5 7 3 8 21 9 4 10 20 11 19 12 2 13 1 14
REMARK SMILES IDX 22 15 11 17 12 18 13 19 14 20 15 21 16 22 17 23 18 24
REMARK H PARENT 7 4 22 16
REMARK Flexibility Score: inf
ROOT
ATOM      1  C   UNL     1      64.806  82.163  74.618  1.00  0.00     0.100 C 
ENDROOT
BRANCH   1   2
ATOM      2  C   UNL     1      63.810  83.041  75.261  1.00  0.00     0.220 C 
ATOM      3  N   UNL     1      64.123  84.329  75.575  1.00  0.00    -0.352 N 
ATOM      4  H   UNL     1      65.072  84.603  75.356  1.00  0.00     0.163 HD
ATOM      5  O   UNL     1      62.667  82.575  75.486  1.00  0.00    -0.275 OA
BRANCH   3   6
ATOM      6  C   UNL     1      63.224  85.267  76.168  1.00  0.00     0.151 C 
BRANCH   6   7
ATOM      7  C   UNL     1      63.908  86.116  77.181  1.00  0.00    -0.025 A 
ATOM      8  C   UNL     1      65.885  86.601  78.567  1.00  0.00     0.160 A 
ATOM      9  C   UNL     1      65.235  87.735  79.097  1.00  0.00     0.157 A 
ATOM     10  C   UNL     1      65.215  85.802  77.616  1.00  0.00     0.056 A 
ATOM     11  C   UNL     1      63.925  88.049  78.687  1.00  0.00     0.050 A 
ATOM     12  C   UNL     1      63.269  87.252  77.729  1.00  0.00     0.009 A 
BRANCH   8  13
ATOM     13  O   UNL     1      67.135  86.253  79.011  1.00  0.00    -0.493 OA
ATOM     14  C   UNL     1      67.129  85.403  80.173  1.00  0.00     0.278 C 
ENDBRANCH   8  13
BRANCH   9  15
ATOM     15  O   UNL     1      65.857  88.533  80.004  1.00  0.00    -0.504 OA
ATOM     16  H   UNL     1      66.152  88.003  80.748  1.00  0.00     0.293 HD
ENDBRANCH   9  15
ENDBRANCH   6   7
ENDBRANCH   3   6
ENDBRANCH   1   2
BRANCH   1  17
ATOM     17  C   UNL     1      64.194  80.791  74.228  1.00  0.00     0.010 C 
BRANCH  17  18
ATOM     18  C   UNL     1      63.986  80.635  72.695  1.00  0.00     0.005 C 
BRANCH  18  19
ATOM     19  C   UNL     1      62.714  81.369  72.193  1.00  0.00     0.027 C 
BRANCH  19  20
ATOM     20  C   UNL     1      62.937  82.047  70.925  1.00  0.00    -0.031 C 
ATOM     21  C   UNL     1      62.480  81.604  69.740  1.00  0.00    -0.028 C 
BRANCH  21  22
ATOM     22  C   UNL     1      62.700  82.312  68.479  1.00  0.00     0.005 C 
ATOM     23  C   UNL     1      63.363  81.408  67.404  1.00  0.00     0.012 C 
ATOM     24  C   UNL     1      61.365  82.904  67.957  1.00  0.00     0.012 C 
ENDBRANCH  21  22
ENDBRANCH  19  20
ENDBRANCH  18  19
ENDBRANCH  17  18
ENDBRANCH   1  17
TORSDOF 10
ENDMDL
MODEL 6
REMARK VINA RESULT:    -5.711     28.265     32.238
REMARK INTER + INTRA:          -9.557
REMARK INTER:                  -8.989
REMARK INTRA:                  -0.567
REMARK UNBOUND:                -0.674
REMARK SMILES COc1cc(CNC(=O)CCCC/C=C/C(C)C)ccc1O
REMARK SMILES IDX 10 1 8 2 7 3 9 5 6 6 5 7 3 8 21 9 4 10 20 11 19 12 2 13 1 14
REMARK SMILES IDX 22 15 11 17 12 18 13 19 14 20 15 21 16 22 17 23 18 24
REMARK H PARENT 7 4 22 16
REMARK Flexibility Score: inf
ROOT
ATOM      1  C   UNL     1      64.156  82.144  75.047  1.00  0.00     0.100 C 
ENDROOT
BRANCH   1   2
ATOM      2  C   UNL     1      62.851  82.724  75.421  1.00  0.00     0.220 C 
ATOM      3  N   UNL     1      62.758  84.030  75.798  1.00  0.00    -0.352 N 
ATOM      4  H   UNL     1      63.635  84.532  75.820  1.00  0.00     0.163 HD
ATOM      5  O   UNL     1      61.837  81.988  75.358  1.00  0.00    -0.275 OA
BRANCH   3   6
ATOM      6  C   UNL     1      61.542  84.693  76.147  1.00  0.00     0.151 C 
BRANCH   6   7
ATOM      7  C   UNL     1      61.802  85.970  76.866  1.00  0.00    -0.025 A 
ATOM      8  C   UNL     1      63.386  87.545  77.901  1.00  0.00     0.160 A 
ATOM      9  C   UNL     1      62.319  88.410  78.219  1.00  0.00     0.157 A 
ATOM     10  C   UNL     1      63.118  86.334  77.230  1.00  0.00     0.056 A 
ATOM     11  C   UNL     1      60.999  88.051  77.880  1.00  0.00     0.050 A 
ATOM     12  C   UNL     1      60.743  86.845  77.200  1.00  0.00     0.009 A 
BRANCH   8  13
ATOM     13  O   UNL     1      64.664  87.859  78.287  1.00  0.00    -0.493 OA
ATOM     14  C   UNL     1      65.455  88.475  77.254  1.00  0.00     0.278 C 
ENDBRANCH   8  13
BRANCH   9  15
ATOM     15  O   UNL     1      62.544  89.590  78.853  1.00  0.00    -0.504 OA
ATOM     16  H   UNL     1      63.150  90.122  78.333  1.00  0.00     0.293 HD
ENDBRANCH   9  15
ENDBRANCH   6   7
ENDBRANCH   3   6
ENDBRANCH   1   2
BRANCH   1  17
ATOM     17  C   UNL     1      63.991  80.782  74.322  1.00  0.00     0.010 C 
BRANCH  17  18
ATOM     18  C   UNL     1      64.098  80.903  72.776  1.00  0.00     0.005 C 
BRANCH  18  19
ATOM     19  C   UNL     1      62.751  81.311  72.120  1.00  0.00     0.027 C 
BRANCH  19  20
ATOM     20  C   UNL     1      62.947  82.042  70.877  1.00  0.00    -0.031 C 
ATOM     21  C   UNL     1      62.543  81.604  69.671  1.00  0.00    -0.028 C 
BRANCH  21  22
ATOM     22  C   UNL     1      62.733  82.364  68.436  1.00  0.00     0.005 C 
ATOM     23  C   UNL     1      63.392  81.513  67.315  1.00  0.00     0.012 C 
ATOM     24  C   UNL     1      61.382  82.957  67.959  1.00  0.00     0.012 C 
ENDBRANCH  21  22
ENDBRANCH  19  20
ENDBRANCH  18  19
ENDBRANCH  17  18
ENDBRANCH   1  17
TORSDOF 10
ENDMDL
MODEL 7
REMARK VINA RESULT:    -5.664     25.856     28.939
REMARK INTER + INTRA:          -9.484
REMARK INTER:                  -7.291
REMARK INTRA:                  -2.193
REMARK UNBOUND:                -0.674
REMARK SMILES COc1cc(CNC(=O)CCCC/C=C/C(C)C)ccc1O
REMARK SMILES IDX 10 1 8 2 7 3 9 5 6 6 5 7 3 8 21 9 4 10 20 11 19 12 2 13 1 14
REMARK SMILES IDX 22 15 11 17 12 18 13 19 14 20 15 21 16 22 17 23 18 24
REMARK H PARENT 7 4 22 16
REMARK Flexibility Score: inf
ROOT
ATOM      1  C   UNL     1      80.304  67.425  72.663  1.00  0.00     0.100 C 
ENDROOT
BRANCH   1   2
ATOM      2  C   UNL     1      80.570  66.351  73.639  1.00  0.00     0.220 C 
ATOM      3  N   UNL     1      81.093  66.644  74.863  1.00  0.00    -0.352 N 
ATOM      4  H   UNL     1      81.294  67.622  75.018  1.00  0.00     0.163 HD
ATOM      5  O   UNL     1      80.280  65.173  73.319  1.00  0.00    -0.275 OA
BRANCH   3   6
ATOM      6  C   UNL     1      81.357  65.685  75.888  1.00  0.00     0.151 C 
BRANCH   6   7
ATOM      7  C   UNL     1      82.725  65.847  76.449  1.00  0.00    -0.025 A 
ATOM      8  C   UNL     1      84.629  67.296  77.033  1.00  0.00     0.160 A 
ATOM      9  C   UNL     1      85.327  66.178  77.535  1.00  0.00     0.157 A 
ATOM     10  C   UNL     1      83.337  67.120  76.494  1.00  0.00     0.056 A 
ATOM     11  C   UNL     1      84.738  64.900  77.479  1.00  0.00     0.050 A 
ATOM     12  C   UNL     1      83.443  64.736  76.950  1.00  0.00     0.009 A 
BRANCH   8  13
ATOM     13  O   UNL     1      85.224  68.532  77.024  1.00  0.00    -0.493 OA
ATOM     14  C   UNL     1      85.697  68.947  75.729  1.00  0.00     0.278 C 
ENDBRANCH   8  13
BRANCH   9  15
ATOM     15  O   UNL     1      86.566  66.316  78.072  1.00  0.00    -0.504 OA
ATOM     16  H   UNL     1      86.852  67.228  77.991  1.00  0.00     0.293 HD
ENDBRANCH   9  15
ENDBRANCH   6   7
ENDBRANCH   3   6
ENDBRANCH   1   2
BRANCH   1  17
ATOM     17  C   UNL     1      80.926  67.105  71.277  1.00  0.00     0.010 C 
BRANCH  17  18
ATOM     18  C   UNL     1      81.899  68.211  70.780  1.00  0.00     0.005 C 
BRANCH  18  19
ATOM     19  C   UNL     1      83.157  68.339  71.681  1.00  0.00     0.027 C 
BRANCH  19  20
ATOM     20  C   UNL     1      83.873  67.079  71.803  1.00  0.00    -0.031 C 
ATOM     21  C   UNL     1      84.250  66.534  72.974  1.00  0.00    -0.028 C 
BRANCH  21  22
ATOM     22  C   UNL     1      84.953  65.255  73.075  1.00  0.00     0.005 C 
ATOM     23  C   UNL     1      86.140  65.312  74.075  1.00  0.00     0.012 C 
ATOM     24  C   UNL     1      83.960  64.127  73.458  1.00  0.00     0.012 C 
ENDBRANCH  21  22
ENDBRANCH  19  20
ENDBRANCH  18  19
ENDBRANCH  17  18
ENDBRANCH   1  17
TORSDOF 10
ENDMDL
MODEL 8
REMARK VINA RESULT:    -5.661     27.432     29.294
REMARK INTER + INTRA:          -9.479
REMARK INTER:                  -7.399
REMARK INTRA:                  -2.080
REMARK UNBOUND:                -0.674
REMARK SMILES COc1cc(CNC(=O)CCCC/C=C/C(C)C)ccc1O
REMARK SMILES IDX 10 1 8 2 7 3 9 5 6 6 5 7 3 8 21 9 4 10 20 11 19 12 2 13 1 14
REMARK SMILES IDX 22 15 11 17 12 18 13 19 14 20 15 21 16 22 17 23 18 24
REMARK H PARENT 7 4 22 16
REMARK Flexibility Score: inf
ROOT
ATOM      1  C   UNL     1      80.276  67.441  72.689  1.00  0.00     0.100 C 
ENDROOT
BRANCH   1   2
ATOM      2  C   UNL     1      80.585  66.358  73.643  1.00  0.00     0.220 C 
ATOM      3  N   UNL     1      81.102  66.645  74.871  1.00  0.00    -0.352 N 
ATOM      4  H   UNL     1      81.268  67.627  75.044  1.00  0.00     0.163 HD
ATOM      5  O   UNL     1      80.336  65.177  73.300  1.00  0.00    -0.275 OA
BRANCH   3   6
ATOM      6  C   UNL     1      81.405  65.676  75.875  1.00  0.00     0.151 C 
BRANCH   6   7
ATOM      7  C   UNL     1      82.764  65.885  76.444  1.00  0.00    -0.025 A 
ATOM      8  C   UNL     1      84.825  64.964  77.426  1.00  0.00     0.160 A 
ATOM      9  C   UNL     1      85.365  66.264  77.514  1.00  0.00     0.157 A 
ATOM     10  C   UNL     1      83.531  64.787  76.895  1.00  0.00     0.056 A 
ATOM     11  C   UNL     1      84.605  67.370  77.087  1.00  0.00     0.050 A 
ATOM     12  C   UNL     1      83.318  67.183  76.547  1.00  0.00     0.009 A 
BRANCH   8  13
ATOM     13  O   UNL     1      85.536  63.891  77.901  1.00  0.00    -0.493 OA
ATOM     14  C   UNL     1      85.025  63.348  79.132  1.00  0.00     0.278 C 
ENDBRANCH   8  13
BRANCH   9  15
ATOM     15  O   UNL     1      86.614  66.467  78.008  1.00  0.00    -0.504 OA
ATOM     16  H   UNL     1      86.783  67.410  78.073  1.00  0.00     0.293 HD
ENDBRANCH   9  15
ENDBRANCH   6   7
ENDBRANCH   3   6
ENDBRANCH   1   2
BRANCH   1  17
ATOM     17  C   UNL     1      80.884  67.160  71.288  1.00  0.00     0.010 C 
BRANCH  17  18
ATOM     18  C   UNL     1      81.868  68.270  70.822  1.00  0.00     0.005 C 
BRANCH  18  19
ATOM     19  C   UNL     1      83.109  68.385  71.748  1.00  0.00     0.027 C 
BRANCH  19  20
ATOM     20  C   UNL     1      83.842  67.131  71.840  1.00  0.00    -0.031 C 
ATOM     21  C   UNL     1      84.238  66.570  72.997  1.00  0.00    -0.028 C 
BRANCH  21  22
ATOM     22  C   UNL     1      84.957  65.298  73.067  1.00  0.00     0.005 C 
ATOM     23  C   UNL     1      86.163  65.356  74.045  1.00  0.00     0.012 C 
ATOM     24  C   UNL     1      83.985  64.154  73.455  1.00  0.00     0.012 C 
ENDBRANCH  21  22
ENDBRANCH  19  20
ENDBRANCH  18  19
ENDBRANCH  17  18
ENDBRANCH   1  17
TORSDOF 10
ENDMDL
MODEL 9
REMARK VINA RESULT:    -5.628     26.238     28.858
REMARK INTER + INTRA:          -9.429
REMARK INTER:                  -7.732
REMARK INTRA:                  -1.697
REMARK UNBOUND:                -0.674
REMARK SMILES COc1cc(CNC(=O)CCCC/C=C/C(C)C)ccc1O
REMARK SMILES IDX 10 1 8 2 7 3 9 5 6 6 5 7 3 8 21 9 4 10 20 11 19 12 2 13 1 14
REMARK SMILES IDX 22 15 11 17 12 18 13 19 14 20 15 21 16 22 17 23 18 24
REMARK H PARENT 7 4 22 16
REMARK Flexibility Score: inf
ROOT
ATOM      1  C   UNL     1      82.374  68.577  70.892  1.00  0.00     0.100 C 
ENDROOT
BRANCH   1   2
ATOM      2  C   UNL     1      83.486  69.049  71.738  1.00  0.00     0.220 C 
ATOM      3  N   UNL     1      83.990  68.254  72.724  1.00  0.00    -0.352 N 
ATOM      4  H   UNL     1      83.529  67.361  72.829  1.00  0.00     0.163 HD
ATOM      5  O   UNL     1      83.965  70.185  71.508  1.00  0.00    -0.275 OA
BRANCH   3   6
ATOM      6  C   UNL     1      85.082  68.603  73.575  1.00  0.00     0.151 C 
BRANCH   6   7
ATOM      7  C   UNL     1      85.146  67.723  74.773  1.00  0.00    -0.025 A 
ATOM      8  C   UNL     1      85.843  65.609  75.827  1.00  0.00     0.160 A 
ATOM      9  C   UNL     1      85.293  66.038  77.052  1.00  0.00     0.157 A 
ATOM     10  C   UNL     1      85.763  66.453  74.699  1.00  0.00     0.056 A 
ATOM     11  C   UNL     1      84.657  67.293  77.136  1.00  0.00     0.050 A 
ATOM     12  C   UNL     1      84.592  68.134  76.008  1.00  0.00     0.009 A 
BRANCH   8  13
ATOM     13  O   UNL     1      86.404  64.362  75.724  1.00  0.00    -0.493 OA
ATOM     14  C   UNL     1      87.844  64.365  75.711  1.00  0.00     0.278 C 
ENDBRANCH   8  13
BRANCH   9  15
ATOM     15  O   UNL     1      85.365  65.255  78.160  1.00  0.00    -0.504 OA
ATOM     16  H   UNL     1      85.070  65.755  78.925  1.00  0.00     0.293 HD
ENDBRANCH   9  15
ENDBRANCH   6   7
ENDBRANCH   3   6
ENDBRANCH   1   2
BRANCH   1  17
ATOM     17  C   UNL     1      81.949  67.130  71.259  1.00  0.00     0.010 C 
BRANCH  17  18
ATOM     18  C   UNL     1      80.415  66.985  71.469  1.00  0.00     0.005 C 
BRANCH  18  19
ATOM     19  C   UNL     1      80.032  65.621  72.105  1.00  0.00     0.027 C 
BRANCH  19  20
ATOM     20  C   UNL     1      81.035  65.158  73.052  1.00  0.00    -0.031 C 
ATOM     21  C   UNL     1      81.221  65.686  74.275  1.00  0.00    -0.028 C 
BRANCH  21  22
ATOM     22  C   UNL     1      82.223  65.192  75.219  1.00  0.00     0.005 C 
ATOM     23  C   UNL     1      81.674  65.107  76.670  1.00  0.00     0.012 C 
ATOM     24  C   UNL     1      82.766  63.816  74.752  1.00  0.00     0.012 C 
ENDBRANCH  21  22
ENDBRANCH  19  20
ENDBRANCH  18  19
ENDBRANCH  17  18
ENDBRANCH   1  17
TORSDOF 10
ENDMDL
MODEL 10
REMARK VINA RESULT:    -5.598     25.930     29.063
REMARK INTER + INTRA:          -9.381
REMARK INTER:                  -8.163
REMARK INTRA:                  -1.218
REMARK UNBOUND:                -0.674
REMARK SMILES COc1cc(CNC(=O)CCCC/C=C/C(C)C)ccc1O
REMARK SMILES IDX 10 1 8 2 7 3 9 5 6 6 5 7 3 8 21 9 4 10 20 11 19 12 2 13 1 14
REMARK SMILES IDX 22 15 11 17 12 18 13 19 14 20 15 21 16 22 17 23 18 24
REMARK H PARENT 7 4 22 16
REMARK Flexibility Score: inf
ROOT
ATOM      1  C   UNL     1      80.454  65.391  72.498  1.00  0.00     0.100 C 
ENDROOT
BRANCH   1   2
ATOM      2  C   UNL     1      80.727  65.217  73.938  1.00  0.00     0.220 C 
ATOM      3  N   UNL     1      81.063  66.287  74.712  1.00  0.00    -0.352 N 
ATOM      4  H   UNL     1      81.127  67.167  74.218  1.00  0.00     0.163 HD
ATOM      5  O   UNL     1      80.618  64.067  74.427  1.00  0.00    -0.275 OA
BRANCH   3   6
ATOM      6  C   UNL     1      81.314  66.231  76.116  1.00  0.00     0.151 C 
BRANCH   6   7
ATOM      7  C   UNL     1      82.770  66.118  76.407  1.00  0.00    -0.025 A 
ATOM      8  C   UNL     1      84.753  64.723  76.834  1.00  0.00     0.160 A 
ATOM      9  C   UNL     1      85.547  65.884  76.942  1.00  0.00     0.157 A 
ATOM     10  C   UNL     1      83.373  64.851  76.570  1.00  0.00     0.056 A 
ATOM     11  C   UNL     1      84.955  67.155  76.801  1.00  0.00     0.050 A 
ATOM     12  C   UNL     1      83.579  67.272  76.526  1.00  0.00     0.009 A 
BRANCH   8  13
ATOM     13  O   UNL     1      85.312  63.487  77.035  1.00  0.00    -0.493 OA
ATOM     14  C   UNL     1      85.091  62.951  78.353  1.00  0.00     0.278 C 
ENDBRANCH   8  13
BRANCH   9  15
ATOM     15  O   UNL     1      86.881  65.795  77.182  1.00  0.00    -0.504 OA
ATOM     16  H   UNL     1      87.309  65.347  76.450  1.00  0.00     0.293 HD
ENDBRANCH   9  15
ENDBRANCH   6   7
ENDBRANCH   3   6
ENDBRANCH   1   2
BRANCH   1  17
ATOM     17  C   UNL     1      80.182  66.877  72.142  1.00  0.00     0.010 C 
BRANCH  17  18
ATOM     18  C   UNL     1      80.991  67.361  70.906  1.00  0.00     0.005 C 
BRANCH  18  19
ATOM     19  C   UNL     1      82.403  66.719  70.836  1.00  0.00     0.027 C 
BRANCH  19  20
ATOM     20  C   UNL     1      83.414  67.550  71.473  1.00  0.00    -0.031 C 
ATOM     21  C   UNL     1      83.618  68.848  71.183  1.00  0.00    -0.028 C 
BRANCH  21  22
ATOM     22  C   UNL     1      84.628  69.669  71.851  1.00  0.00     0.005 C 
ATOM     23  C   UNL     1      85.246  68.956  73.084  1.00  0.00     0.012 C 
ATOM     24  C   UNL     1      85.730  70.088  70.843  1.00  0.00     0.012 C 
ENDBRANCH  21  22
ENDBRANCH  19  20
ENDBRANCH  18  19
ENDBRANCH  17  18
ENDBRANCH   1  17
TORSDOF 10
ENDMDL
