MODEL 1
REMARK VINA RESULT:    -6.199      0.000      0.000
REMARK INTER + INTRA:         -10.190
REMARK INTER:                  -9.642
REMARK INTRA:                  -0.548
REMARK UNBOUND:                -0.548
REMARK SMILES COc1cc(CNC(=O)CCCCCC(C)C)ccc1O
REMARK SMILES IDX 10 1 8 2 7 3 9 5 6 6 5 7 3 8 20 9 4 10 19 11 18 12 2 13 1 14
REMARK SMILES IDX 21 15 11 17 12 18 13 19 14 20 15 21 16 22 17 23
REMARK H PARENT 7 4 21 16
REMARK Flexibility Score: inf
ROOT
ATOM      1  C   UNL     1      94.395  98.473  73.387  1.00  0.00     0.100 C 
ENDROOT
BRANCH   1   2
ATOM      2  C   UNL     1      93.605  99.590  72.829  1.00  0.00     0.220 C 
ATOM      3  N   UNL     1      92.649  99.332  71.892  1.00  0.00    -0.352 N 
ATOM      4  H   UNL     1      92.641  98.384  71.543  1.00  0.00     0.163 HD
ATOM      5  O   UNL     1      93.803 100.751  73.262  1.00  0.00    -0.275 OA
BRANCH   3   6
ATOM      6  C   UNL     1      91.703 100.281  71.400  1.00  0.00     0.151 C 
BRANCH   6   7
ATOM      7  C   UNL     1      90.868  99.752  70.288  1.00  0.00    -0.025 A 
ATOM      8  C   UNL     1      89.974  99.961  68.007  1.00  0.00     0.160 A 
ATOM      9  C   UNL     1      89.333  98.712  68.147  1.00  0.00     0.157 A 
ATOM     10  C   UNL     1      90.722 100.481  69.085  1.00  0.00     0.056 A 
ATOM     11  C   UNL     1      89.449  97.991  69.349  1.00  0.00     0.050 A 
ATOM     12  C   UNL     1      90.215  98.503  70.410  1.00  0.00     0.009 A 
BRANCH   8  13
ATOM     13  O   UNL     1      89.858 100.688  66.852  1.00  0.00    -0.493 OA
ATOM     14  C   UNL     1      90.992 100.570  65.972  1.00  0.00     0.278 C 
ENDBRANCH   8  13
BRANCH   9  15
ATOM     15  O   UNL     1      88.609  98.203  67.118  1.00  0.00    -0.504 OA
ATOM     16  H   UNL     1      88.902  98.600  66.294  1.00  0.00     0.293 HD
ENDBRANCH   9  15
ENDBRANCH   6   7
ENDBRANCH   3   6
ENDBRANCH   1   2
BRANCH   1  17
ATOM     17  C   UNL     1      93.620  97.583  74.395  1.00  0.00     0.010 C 
BRANCH  17  18
ATOM     18  C   UNL     1      94.291  96.192  74.565  1.00  0.00     0.001 C 
BRANCH  18  19
ATOM     19  C   UNL     1      93.426  95.185  75.369  1.00  0.00     0.000 C 
BRANCH  19  20
ATOM     20  C   UNL     1      92.683  95.864  76.556  1.00  0.00     0.003 C 
BRANCH  20  21
ATOM     21  C   UNL     1      91.704  94.932  77.341  1.00  0.00    -0.017 C 
ATOM     22  C   UNL     1      92.463  93.716  77.951  1.00  0.00     0.007 C 
ATOM     23  C   UNL     1      90.513  94.435  76.470  1.00  0.00     0.007 C 
ENDBRANCH  20  21
ENDBRANCH  19  20
ENDBRANCH  18  19
ENDBRANCH  17  18
ENDBRANCH   1  17
TORSDOF 10
ENDMDL
MODEL 2
REMARK VINA RESULT:    -5.834      6.801      9.508
REMARK INTER + INTRA:          -9.623
REMARK INTER:                  -8.240
REMARK INTRA:                  -1.383
REMARK UNBOUND:                -0.548
REMARK SMILES COc1cc(CNC(=O)CCCCCC(C)C)ccc1O
REMARK SMILES IDX 10 1 8 2 7 3 9 5 6 6 5 7 3 8 20 9 4 10 19 11 18 12 2 13 1 14
REMARK SMILES IDX 21 15 11 17 12 18 13 19 14 20 15 21 16 22 17 23
REMARK H PARENT 7 4 21 16
REMARK Flexibility Score: inf
ROOT
ATOM      1  C   UNL     1      96.103  96.078  82.236  1.00  0.00     0.100 C 
ENDROOT
BRANCH   1   2
ATOM      2  C   UNL     1      96.394  94.944  81.334  1.00  0.00     0.220 C 
ATOM      3  N   UNL     1      95.444  94.531  80.449  1.00  0.00    -0.352 N 
ATOM      4  H   UNL     1      94.537  94.960  80.568  1.00  0.00     0.163 HD
ATOM      5  O   UNL     1      97.530  94.411  81.373  1.00  0.00    -0.275 OA
BRANCH   3   6
ATOM      6  C   UNL     1      95.648  93.572  79.411  1.00  0.00     0.151 C 
BRANCH   6   7
ATOM      7  C   UNL     1      94.556  93.563  78.400  1.00  0.00    -0.025 A 
ATOM      8  C   UNL     1      93.800  93.824  76.075  1.00  0.00     0.160 A 
ATOM      9  C   UNL     1      92.488  93.479  76.465  1.00  0.00     0.157 A 
ATOM     10  C   UNL     1      94.821  93.882  77.048  1.00  0.00     0.056 A 
ATOM     11  C   UNL     1      92.208  93.185  77.813  1.00  0.00     0.050 A 
ATOM     12  C   UNL     1      93.235  93.221  78.772  1.00  0.00     0.009 A 
BRANCH   8  13
ATOM     13  O   UNL     1      94.089  94.132  74.772  1.00  0.00    -0.493 OA
ATOM     14  C   UNL     1      94.547  95.485  74.582  1.00  0.00     0.278 C 
ENDBRANCH   8  13
BRANCH   9  15
ATOM     15  O   UNL     1      91.499  93.422  75.539  1.00  0.00    -0.504 OA
ATOM     16  H   UNL     1      91.867  93.586  74.667  1.00  0.00     0.293 HD
ENDBRANCH   9  15
ENDBRANCH   6   7
ENDBRANCH   3   6
ENDBRANCH   1   2
BRANCH   1  17
ATOM     17  C   UNL     1      96.490  97.467  81.660  1.00  0.00     0.010 C 
BRANCH  17  18
ATOM     18  C   UNL     1      98.031  97.641  81.572  1.00  0.00     0.001 C 
BRANCH  18  19
ATOM     19  C   UNL     1      98.531  97.994  80.146  1.00  0.00     0.000 C 
BRANCH  19  20
ATOM     20  C   UNL     1      97.397  97.897  79.085  1.00  0.00     0.003 C 
BRANCH  20  21
ATOM     21  C   UNL     1      97.436  96.614  78.193  1.00  0.00    -0.017 C 
ATOM     22  C   UNL     1      98.766  95.832  78.403  1.00  0.00     0.007 C 
ATOM     23  C   UNL     1      97.231  96.922  76.681  1.00  0.00     0.007 C 
ENDBRANCH  20  21
ENDBRANCH  19  20
ENDBRANCH  18  19
ENDBRANCH  17  18
ENDBRANCH   1  17
TORSDOF 10
ENDMDL
MODEL 3
REMARK VINA RESULT:    -5.804     17.272     20.541
REMARK INTER + INTRA:          -9.575
REMARK INTER:                  -8.722
REMARK INTRA:                  -0.853
REMARK UNBOUND:                -0.548
REMARK SMILES COc1cc(CNC(=O)CCCCCC(C)C)ccc1O
REMARK SMILES IDX 10 1 8 2 7 3 9 5 6 6 5 7 3 8 20 9 4 10 19 11 18 12 2 13 1 14
REMARK SMILES IDX 21 15 11 17 12 18 13 19 14 20 15 21 16 22 17 23
REMARK H PARENT 7 4 21 16
REMARK Flexibility Score: inf
ROOT
ATOM      1  C   UNL     1      96.722  81.450  77.110  1.00  0.00     0.100 C 
ENDROOT
BRANCH   1   2
ATOM      2  C   UNL     1      97.526  81.160  78.315  1.00  0.00     0.220 C 
ATOM      3  N   UNL     1      97.026  81.475  79.544  1.00  0.00    -0.352 N 
ATOM      4  H   UNL     1      96.175  82.018  79.530  1.00  0.00     0.163 HD
ATOM      5  O   UNL     1      98.636  80.590  78.185  1.00  0.00    -0.275 OA
BRANCH   3   6
ATOM      6  C   UNL     1      97.612  81.098  80.790  1.00  0.00     0.151 C 
BRANCH   6   7
ATOM      7  C   UNL     1      96.836  81.571  81.968  1.00  0.00    -0.025 A 
ATOM      8  C   UNL     1      95.760  81.122  84.133  1.00  0.00     0.160 A 
ATOM      9  C   UNL     1      95.416  82.486  84.242  1.00  0.00     0.157 A 
ATOM     10  C   UNL     1      96.451  80.670  82.989  1.00  0.00     0.056 A 
ATOM     11  C   UNL     1      95.770  83.386  83.220  1.00  0.00     0.050 A 
ATOM     12  C   UNL     1      96.479  82.934  82.095  1.00  0.00     0.009 A 
BRANCH   8  13
ATOM     13  O   UNL     1      95.408  80.226  85.108  1.00  0.00    -0.493 OA
ATOM     14  C   UNL     1      94.537  79.176  84.645  1.00  0.00     0.278 C 
ENDBRANCH   8  13
BRANCH   9  15
ATOM     15  O   UNL     1      94.750  82.931  85.337  1.00  0.00    -0.504 OA
ATOM     16  H   UNL     1      93.955  82.407  85.463  1.00  0.00     0.293 HD
ENDBRANCH   9  15
ENDBRANCH   6   7
ENDBRANCH   3   6
ENDBRANCH   1   2
BRANCH   1  17
ATOM     17  C   UNL     1      95.871  82.745  77.205  1.00  0.00     0.010 C 
BRANCH  17  18
ATOM     18  C   UNL     1      95.905  83.551  75.878  1.00  0.00     0.001 C 
BRANCH  18  19
ATOM     19  C   UNL     1      96.472  82.744  74.680  1.00  0.00     0.000 C 
BRANCH  19  20
ATOM     20  C   UNL     1      97.730  83.418  74.060  1.00  0.00     0.003 C 
BRANCH  20  21
ATOM     21  C   UNL     1      98.896  82.439  73.704  1.00  0.00    -0.017 C 
ATOM     22  C   UNL     1      98.354  81.168  72.984  1.00  0.00     0.007 C 
ATOM     23  C   UNL     1      99.741  82.029  74.945  1.00  0.00     0.007 C 
ENDBRANCH  20  21
ENDBRANCH  19  20
ENDBRANCH  18  19
ENDBRANCH  17  18
ENDBRANCH   1  17
TORSDOF 10
ENDMDL
MODEL 4
REMARK VINA RESULT:    -5.745      7.041     12.162
REMARK INTER + INTRA:          -9.483
REMARK INTER:                  -8.807
REMARK INTRA:                  -0.677
REMARK UNBOUND:                -0.548
REMARK SMILES COc1cc(CNC(=O)CCCCCC(C)C)ccc1O
REMARK SMILES IDX 10 1 8 2 7 3 9 5 6 6 5 7 3 8 20 9 4 10 19 11 18 12 2 13 1 14
REMARK SMILES IDX 21 15 11 17 12 18 13 19 14 20 15 21 16 22 17 23
REMARK H PARENT 7 4 21 16
REMARK Flexibility Score: inf
ROOT
ATOM      1  C   UNL     1      93.951  94.092  78.376  1.00  0.00     0.100 C 
ENDROOT
BRANCH   1   2
ATOM      2  C   UNL     1      94.691  93.429  79.470  1.00  0.00     0.220 C 
ATOM      3  N   UNL     1      95.992  93.764  79.697  1.00  0.00    -0.352 N 
ATOM      4  H   UNL     1      96.405  94.364  78.997  1.00  0.00     0.163 HD
ATOM      5  O   UNL     1      94.090  92.600  80.196  1.00  0.00    -0.275 OA
BRANCH   3   6
ATOM      6  C   UNL     1      96.768  93.336  80.817  1.00  0.00     0.151 C 
BRANCH   6   7
ATOM      7  C   UNL     1      97.650  94.404  81.360  1.00  0.00    -0.025 A 
ATOM      8  C   UNL     1      98.108  96.784  81.777  1.00  0.00     0.160 A 
ATOM      9  C   UNL     1      99.297  96.434  82.452  1.00  0.00     0.157 A 
ATOM     10  C   UNL     1      97.302  95.769  81.220  1.00  0.00     0.056 A 
ATOM     11  C   UNL     1      99.666  95.082  82.574  1.00  0.00     0.050 A 
ATOM     12  C   UNL     1      98.847  94.074  82.037  1.00  0.00     0.009 A 
BRANCH   8  13
ATOM     13  O   UNL     1      97.741  98.096  81.631  1.00  0.00    -0.493 OA
ATOM     14  C   UNL     1      96.422  98.390  82.130  1.00  0.00     0.278 C 
ENDBRANCH   8  13
BRANCH   9  15
ATOM     15  O   UNL     1     100.080  97.402  82.990  1.00  0.00    -0.504 OA
ATOM     16  H   UNL     1     101.003  97.153  82.903  1.00  0.00     0.293 HD
ENDBRANCH   9  15
ENDBRANCH   6   7
ENDBRANCH   3   6
ENDBRANCH   1   2
BRANCH   1  17
ATOM     17  C   UNL     1      92.508  93.559  78.166  1.00  0.00     0.010 C 
BRANCH  17  18
ATOM     18  C   UNL     1      91.668  94.515  77.276  1.00  0.00     0.001 C 
BRANCH  18  19
ATOM     19  C   UNL     1      92.432  95.799  76.858  1.00  0.00     0.000 C 
BRANCH  19  20
ATOM     20  C   UNL     1      92.789  95.805  75.343  1.00  0.00     0.003 C 
BRANCH  20  21
ATOM     21  C   UNL     1      94.058  96.637  74.967  1.00  0.00    -0.017 C 
ATOM     22  C   UNL     1      93.672  97.884  74.118  1.00  0.00     0.007 C 
ATOM     23  C   UNL     1      95.133  95.795  74.221  1.00  0.00     0.007 C 
ENDBRANCH  20  21
ENDBRANCH  19  20
ENDBRANCH  18  19
ENDBRANCH  17  18
ENDBRANCH   1  17
TORSDOF 10
ENDMDL
MODEL 5
REMARK VINA RESULT:    -5.709      7.308      9.097
REMARK INTER + INTRA:          -9.427
REMARK INTER:                  -8.445
REMARK INTRA:                  -0.982
REMARK UNBOUND:                -0.548
REMARK SMILES COc1cc(CNC(=O)CCCCCC(C)C)ccc1O
REMARK SMILES IDX 10 1 8 2 7 3 9 5 6 6 5 7 3 8 20 9 4 10 19 11 18 12 2 13 1 14
REMARK SMILES IDX 21 15 11 17 12 18 13 19 14 20 15 21 16 22 17 23
REMARK H PARENT 7 4 21 16
REMARK Flexibility Score: inf
ROOT
ATOM      1  C   UNL     1      97.075  96.184  78.394  1.00  0.00     0.100 C 
ENDROOT
BRANCH   1   2
ATOM      2  C   UNL     1      96.273  95.999  77.167  1.00  0.00     0.220 C 
ATOM      3  N   UNL     1      95.510  94.878  77.028  1.00  0.00    -0.352 N 
ATOM      4  H   UNL     1      95.655  94.175  77.738  1.00  0.00     0.163 HD
ATOM      5  O   UNL     1      96.279  96.901  76.294  1.00  0.00    -0.275 OA
BRANCH   3   6
ATOM      6  C   UNL     1      94.562  94.653  75.984  1.00  0.00     0.151 C 
BRANCH   6   7
ATOM      7  C   UNL     1      93.331  93.960  76.452  1.00  0.00    -0.025 A 
ATOM      8  C   UNL     1      91.328  92.617  75.974  1.00  0.00     0.160 A 
ATOM      9  C   UNL     1      91.024  92.584  77.351  1.00  0.00     0.157 A 
ATOM     10  C   UNL     1      92.469  93.320  75.531  1.00  0.00     0.056 A 
ATOM     11  C   UNL     1      91.860  93.241  78.273  1.00  0.00     0.050 A 
ATOM     12  C   UNL     1      93.007  93.919  77.828  1.00  0.00     0.009 A 
BRANCH   8  13
ATOM     13  O   UNL     1      90.516  92.001  75.057  1.00  0.00    -0.493 OA
ATOM     14  C   UNL     1      90.956  90.681  74.685  1.00  0.00     0.278 C 
ENDBRANCH   8  13
BRANCH   9  15
ATOM     15  O   UNL     1      89.928  91.913  77.787  1.00  0.00    -0.504 OA
ATOM     16  H   UNL     1      89.383  92.500  78.316  1.00  0.00     0.293 HD
ENDBRANCH   9  15
ENDBRANCH   6   7
ENDBRANCH   3   6
ENDBRANCH   1   2
BRANCH   1  17
ATOM     17  C   UNL     1      97.006  94.992  79.387  1.00  0.00     0.010 C 
BRANCH  17  18
ATOM     18  C   UNL     1      95.887  95.193  80.445  1.00  0.00     0.001 C 
BRANCH  18  19
ATOM     19  C   UNL     1      95.928  96.585  81.129  1.00  0.00     0.000 C 
BRANCH  19  20
ATOM     20  C   UNL     1      96.452  96.507  82.592  1.00  0.00     0.003 C 
BRANCH  20  21
ATOM     21  C   UNL     1      98.008  96.562  82.739  1.00  0.00    -0.017 C 
ATOM     22  C   UNL     1      98.415  96.895  84.205  1.00  0.00     0.007 C 
ATOM     23  C   UNL     1      98.672  97.571  81.758  1.00  0.00     0.007 C 
ENDBRANCH  20  21
ENDBRANCH  19  20
ENDBRANCH  18  19
ENDBRANCH  17  18
ENDBRANCH   1  17
TORSDOF 10
ENDMDL
MODEL 6
REMARK VINA RESULT:    -5.495      6.721     10.999
REMARK INTER + INTRA:          -9.094
REMARK INTER:                  -8.061
REMARK INTRA:                  -1.033
REMARK UNBOUND:                -0.548
REMARK SMILES COc1cc(CNC(=O)CCCCCC(C)C)ccc1O
REMARK SMILES IDX 10 1 8 2 7 3 9 5 6 6 5 7 3 8 20 9 4 10 19 11 18 12 2 13 1 14
REMARK SMILES IDX 21 15 11 17 12 18 13 19 14 20 15 21 16 22 17 23
REMARK H PARENT 7 4 21 16
REMARK Flexibility Score: inf
ROOT
ATOM      1  C   UNL     1      96.331  97.600  75.529  1.00  0.00     0.100 C 
ENDROOT
BRANCH   1   2
ATOM      2  C   UNL     1      97.123  96.851  76.526  1.00  0.00     0.220 C 
ATOM      3  N   UNL     1      96.482  96.058  77.431  1.00  0.00    -0.352 N 
ATOM      4  H   UNL     1      95.475  96.145  77.435  1.00  0.00     0.163 HD
ATOM      5  O   UNL     1      98.375  96.928  76.492  1.00  0.00    -0.275 OA
BRANCH   3   6
ATOM      6  C   UNL     1      97.123  95.153  78.330  1.00  0.00     0.151 C 
BRANCH   6   7
ATOM      7  C   UNL     1      97.038  95.583  79.752  1.00  0.00    -0.025 A 
ATOM      8  C   UNL     1      98.112  96.471  81.778  1.00  0.00     0.160 A 
ATOM      9  C   UNL     1      96.865  96.466  82.438  1.00  0.00     0.157 A 
ATOM     10  C   UNL     1      98.194  96.012  80.446  1.00  0.00     0.056 A 
ATOM     11  C   UNL     1      95.713  96.017  81.766  1.00  0.00     0.050 A 
ATOM     12  C   UNL     1      95.798  95.584  80.432  1.00  0.00     0.009 A 
BRANCH   8  13
ATOM     13  O   UNL     1      99.248  96.887  82.421  1.00  0.00    -0.493 OA
ATOM     14  C   UNL     1     100.441  96.199  81.998  1.00  0.00     0.278 C 
ENDBRANCH   8  13
BRANCH   9  15
ATOM     15  O   UNL     1      96.775  96.903  83.719  1.00  0.00    -0.504 OA
ATOM     16  H   UNL     1      96.841  96.156  84.318  1.00  0.00     0.293 HD
ENDBRANCH   9  15
ENDBRANCH   6   7
ENDBRANCH   3   6
ENDBRANCH   1   2
BRANCH   1  17
ATOM     17  C   UNL     1      96.312  96.957  74.116  1.00  0.00     0.010 C 
BRANCH  17  18
ATOM     18  C   UNL     1      94.962  96.242  73.830  1.00  0.00     0.001 C 
BRANCH  18  19
ATOM     19  C   UNL     1      93.865  96.555  74.881  1.00  0.00     0.000 C 
BRANCH  19  20
ATOM     20  C   UNL     1      93.282  95.263  75.525  1.00  0.00     0.003 C 
BRANCH  20  21
ATOM     21  C   UNL     1      92.650  95.458  76.942  1.00  0.00    -0.017 C 
ATOM     22  C   UNL     1      93.262  94.456  77.965  1.00  0.00     0.007 C 
ATOM     23  C   UNL     1      91.099  95.334  76.934  1.00  0.00     0.007 C 
ENDBRANCH  20  21
ENDBRANCH  19  20
ENDBRANCH  18  19
ENDBRANCH  17  18
ENDBRANCH   1  17
TORSDOF 10
ENDMDL
MODEL 7
REMARK VINA RESULT:    -5.439     19.164     21.208
REMARK INTER + INTRA:          -9.007
REMARK INTER:                  -8.403
REMARK INTRA:                  -0.604
REMARK UNBOUND:                -0.548
REMARK SMILES COc1cc(CNC(=O)CCCCCC(C)C)ccc1O
REMARK SMILES IDX 10 1 8 2 7 3 9 5 6 6 5 7 3 8 20 9 4 10 19 11 18 12 2 13 1 14
REMARK SMILES IDX 21 15 11 17 12 18 13 19 14 20 15 21 16 22 17 23
REMARK H PARENT 7 4 21 16
REMARK Flexibility Score: inf
ROOT
ATOM      1  C   UNL     1      96.037  83.769  83.320  1.00  0.00     0.100 C 
ENDROOT
BRANCH   1   2
ATOM      2  C   UNL     1      95.175  84.293  84.400  1.00  0.00     0.220 C 
ATOM      3  N   UNL     1      94.387  83.433  85.104  1.00  0.00    -0.352 N 
ATOM      4  H   UNL     1      94.353  82.491  84.739  1.00  0.00     0.163 HD
ATOM      5  O   UNL     1      95.218  85.517  84.673  1.00  0.00    -0.275 OA
BRANCH   3   6
ATOM      6  C   UNL     1      93.643  83.771  86.275  1.00  0.00     0.151 C 
BRANCH   6   7
ATOM      7  C   UNL     1      92.330  83.074  86.355  1.00  0.00    -0.025 A 
ATOM      8  C   UNL     1      90.718  81.454  85.448  1.00  0.00     0.160 A 
ATOM      9  C   UNL     1      89.861  81.698  86.543  1.00  0.00     0.157 A 
ATOM     10  C   UNL     1      91.938  82.157  85.351  1.00  0.00     0.056 A 
ATOM     11  C   UNL     1      90.229  82.628  87.532  1.00  0.00     0.050 A 
ATOM     12  C   UNL     1      91.457  83.307  87.442  1.00  0.00     0.009 A 
BRANCH   8  13
ATOM     13  O   UNL     1      90.369  80.567  84.464  1.00  0.00    -0.493 OA
ATOM     14  C   UNL     1      90.941  79.256  84.633  1.00  0.00     0.278 C 
ENDBRANCH   8  13
BRANCH   9  15
ATOM     15  O   UNL     1      88.685  81.029  86.644  1.00  0.00    -0.504 OA
ATOM     16  H   UNL     1      88.528  80.795  87.562  1.00  0.00     0.293 HD
ENDBRANCH   9  15
ENDBRANCH   6   7
ENDBRANCH   3   6
ENDBRANCH   1   2
BRANCH   1  17
ATOM     17  C   UNL     1      96.686  82.393  83.632  1.00  0.00     0.010 C 
BRANCH  17  18
ATOM     18  C   UNL     1      96.061  81.258  82.774  1.00  0.00     0.001 C 
BRANCH  18  19
ATOM     19  C   UNL     1      96.921  80.872  81.542  1.00  0.00     0.000 C 
BRANCH  19  20
ATOM     20  C   UNL     1      96.949  81.998  80.468  1.00  0.00     0.003 C 
BRANCH  20  21
ATOM     21  C   UNL     1      97.915  81.740  79.266  1.00  0.00    -0.017 C 
ATOM     22  C   UNL     1      97.140  81.159  78.046  1.00  0.00     0.007 C 
ATOM     23  C   UNL     1      99.105  80.807  79.636  1.00  0.00     0.007 C 
ENDBRANCH  20  21
ENDBRANCH  19  20
ENDBRANCH  18  19
ENDBRANCH  17  18
ENDBRANCH   1  17
TORSDOF 10
ENDMDL
MODEL 8
REMARK VINA RESULT:    -5.423      3.251      8.719
REMARK INTER + INTRA:          -8.983
REMARK INTER:                  -8.398
REMARK INTRA:                  -0.585
REMARK UNBOUND:                -0.548
REMARK SMILES COc1cc(CNC(=O)CCCCCC(C)C)ccc1O
REMARK SMILES IDX 10 1 8 2 7 3 9 5 6 6 5 7 3 8 20 9 4 10 19 11 18 12 2 13 1 14
REMARK SMILES IDX 21 15 11 17 12 18 13 19 14 20 15 21 16 22 17 23
REMARK H PARENT 7 4 21 16
REMARK Flexibility Score: inf
ROOT
ATOM      1  C   UNL     1      94.759  99.304  72.164  1.00  0.00     0.100 C 
ENDROOT
BRANCH   1   2
ATOM      2  C   UNL     1      95.300  97.962  72.465  1.00  0.00     0.220 C 
ATOM      3  N   UNL     1      94.856  97.293  73.567  1.00  0.00    -0.352 N 
ATOM      4  H   UNL     1      94.269  97.835  74.185  1.00  0.00     0.163 HD
ATOM      5  O   UNL     1      96.128  97.447  71.674  1.00  0.00    -0.275 OA
BRANCH   3   6
ATOM      6  C   UNL     1      95.160  95.934  73.881  1.00  0.00     0.151 C 
BRANCH   6   7
ATOM      7  C   UNL     1      94.357  95.403  75.016  1.00  0.00    -0.025 A 
ATOM      8  C   UNL     1      94.139  93.912  76.959  1.00  0.00     0.160 A 
ATOM      9  C   UNL     1      92.856  94.440  77.217  1.00  0.00     0.157 A 
ATOM     10  C   UNL     1      94.873  94.383  75.850  1.00  0.00     0.056 A 
ATOM     11  C   UNL     1      92.323  95.436  76.379  1.00  0.00     0.050 A 
ATOM     12  C   UNL     1      93.069  95.918  75.290  1.00  0.00     0.009 A 
BRANCH   8  13
ATOM     13  O   UNL     1      94.669  92.928  77.752  1.00  0.00    -0.493 OA
ATOM     14  C   UNL     1      95.913  93.293  78.380  1.00  0.00     0.278 C 
ENDBRANCH   8  13
BRANCH   9  15
ATOM     15  O   UNL     1      92.141  93.993  78.280  1.00  0.00    -0.504 OA
ATOM     16  H   UNL     1      92.239  94.606  79.012  1.00  0.00     0.293 HD
ENDBRANCH   9  15
ENDBRANCH   6   7
ENDBRANCH   3   6
ENDBRANCH   1   2
BRANCH   1  17
ATOM     17  C   UNL     1      93.540  99.300  71.202  1.00  0.00     0.010 C 
BRANCH  17  18
ATOM     18  C   UNL     1      92.225  99.666  71.944  1.00  0.00     0.001 C 
BRANCH  18  19
ATOM     19  C   UNL     1      91.046  99.986  70.987  1.00  0.00     0.000 C 
BRANCH  19  20
ATOM     20  C   UNL     1      91.090  99.124  69.692  1.00  0.00     0.003 C 
BRANCH  20  21
ATOM     21  C   UNL     1      89.720  98.503  69.266  1.00  0.00    -0.017 C 
ATOM     22  C   UNL     1      89.933  97.271  68.338  1.00  0.00     0.007 C 
ATOM     23  C   UNL     1      88.776  99.532  68.579  1.00  0.00     0.007 C 
ENDBRANCH  20  21
ENDBRANCH  19  20
ENDBRANCH  18  19
ENDBRANCH  17  18
ENDBRANCH   1  17
TORSDOF 10
ENDMDL
MODEL 9
REMARK VINA RESULT:    -5.402     17.284     18.966
REMARK INTER + INTRA:          -8.950
REMARK INTER:                  -8.446
REMARK INTRA:                  -0.504
REMARK UNBOUND:                -0.548
REMARK SMILES COc1cc(CNC(=O)CCCCCC(C)C)ccc1O
REMARK SMILES IDX 10 1 8 2 7 3 9 5 6 6 5 7 3 8 20 9 4 10 19 11 18 12 2 13 1 14
REMARK SMILES IDX 21 15 11 17 12 18 13 19 14 20 15 21 16 22 17 23
REMARK H PARENT 7 4 21 16
REMARK Flexibility Score: inf
ROOT
ATOM      1  C   UNL     1      97.834  81.819  77.923  1.00  0.00     0.100 C 
ENDROOT
BRANCH   1   2
ATOM      2  C   UNL     1      97.349  82.387  76.648  1.00  0.00     0.220 C 
ATOM      3  N   UNL     1      98.233  82.606  75.633  1.00  0.00    -0.352 N 
ATOM      4  H   UNL     1      99.204  82.482  75.882  1.00  0.00     0.163 HD
ATOM      5  O   UNL     1      96.123  82.616  76.510  1.00  0.00    -0.275 OA
BRANCH   3   6
ATOM      6  C   UNL     1      97.879  82.982  74.302  1.00  0.00     0.151 C 
BRANCH   6   7
ATOM      7  C   UNL     1      97.853  81.833  73.357  1.00  0.00    -0.025 A 
ATOM      8  C   UNL     1      99.006  80.354  71.767  1.00  0.00     0.160 A 
ATOM      9  C   UNL     1      97.821  79.604  71.609  1.00  0.00     0.157 A 
ATOM     10  C   UNL     1      99.010  81.474  72.625  1.00  0.00     0.056 A 
ATOM     11  C   UNL     1      96.658  79.968  72.312  1.00  0.00     0.050 A 
ATOM     12  C   UNL     1      96.675  81.070  73.183  1.00  0.00     0.009 A 
BRANCH   8  13
ATOM     13  O   UNL     1     100.144  80.028  71.076  1.00  0.00    -0.493 OA
ATOM     14  C   UNL     1     101.356  80.214  71.832  1.00  0.00     0.278 C 
ENDBRANCH   8  13
BRANCH   9  15
ATOM     15  O   UNL     1      97.807  78.527  70.785  1.00  0.00    -0.504 OA
ATOM     16  H   UNL     1      98.566  77.970  70.972  1.00  0.00     0.293 HD
ENDBRANCH   9  15
ENDBRANCH   6   7
ENDBRANCH   3   6
ENDBRANCH   1   2
BRANCH   1  17
ATOM     17  C   UNL     1      96.923  82.121  79.143  1.00  0.00     0.010 C 
BRANCH  17  18
ATOM     18  C   UNL     1      97.377  81.336  80.405  1.00  0.00     0.001 C 
BRANCH  18  19
ATOM     19  C   UNL     1      96.717  81.841  81.715  1.00  0.00     0.000 C 
BRANCH  19  20
ATOM     20  C   UNL     1      96.835  80.805  82.870  1.00  0.00     0.003 C 
BRANCH  20  21
ATOM     21  C   UNL     1      95.481  80.410  83.544  1.00  0.00    -0.017 C 
ATOM     22  C   UNL     1      94.741  81.670  84.083  1.00  0.00     0.007 C 
ATOM     23  C   UNL     1      95.655  79.365  84.684  1.00  0.00     0.007 C 
ENDBRANCH  20  21
ENDBRANCH  19  20
ENDBRANCH  18  19
ENDBRANCH  17  18
ENDBRANCH   1  17
TORSDOF 10
ENDMDL
MODEL 10
REMARK VINA RESULT:    -5.333     19.602     21.988
REMARK INTER + INTRA:          -8.842
REMARK INTER:                  -8.028
REMARK INTRA:                  -0.814
REMARK UNBOUND:                -0.548
REMARK SMILES COc1cc(CNC(=O)CCCCCC(C)C)ccc1O
REMARK SMILES IDX 10 1 8 2 7 3 9 5 6 6 5 7 3 8 20 9 4 10 19 11 18 12 2 13 1 14
REMARK SMILES IDX 21 15 11 17 12 18 13 19 14 20 15 21 16 22 17 23
REMARK H PARENT 7 4 21 16
REMARK Flexibility Score: inf
ROOT
ATOM      1  C   UNL     1      95.830  82.153  83.002  1.00  0.00     0.100 C 
ENDROOT
BRANCH   1   2
ATOM      2  C   UNL     1      95.035  82.236  84.245  1.00  0.00     0.220 C 
ATOM      3  N   UNL     1      93.788  81.685  84.280  1.00  0.00    -0.352 N 
ATOM      4  H   UNL     1      93.439  81.366  83.387  1.00  0.00     0.163 HD
ATOM      5  O   UNL     1      95.542  82.776  85.258  1.00  0.00    -0.275 OA
BRANCH   3   6
ATOM      6  C   UNL     1      92.986  81.541  85.452  1.00  0.00     0.151 C 
BRANCH   6   7
ATOM      7  C   UNL     1      91.607  81.064  85.162  1.00  0.00    -0.025 A 
ATOM      8  C   UNL     1      90.086  79.342  84.286  1.00  0.00     0.160 A 
ATOM      9  C   UNL     1      88.979  80.128  84.670  1.00  0.00     0.157 A 
ATOM     10  C   UNL     1      91.392  79.823  84.518  1.00  0.00     0.056 A 
ATOM     11  C   UNL     1      89.181  81.376  85.287  1.00  0.00     0.050 A 
ATOM     12  C   UNL     1      90.484  81.839  85.536  1.00  0.00     0.009 A 
BRANCH   8  13
ATOM     13  O   UNL     1      89.911  78.133  83.666  1.00  0.00    -0.493 OA
ATOM     14  C   UNL     1      90.746  77.083  84.192  1.00  0.00     0.278 C 
ENDBRANCH   8  13
BRANCH   9  15
ATOM     15  O   UNL     1      87.719  79.676  84.450  1.00  0.00    -0.504 OA
ATOM     16  H   UNL     1      87.167  79.884  85.207  1.00  0.00     0.293 HD
ENDBRANCH   9  15
ENDBRANCH   6   7
ENDBRANCH   3   6
ENDBRANCH   1   2
BRANCH   1  17
ATOM     17  C   UNL     1      96.870  81.000  82.985  1.00  0.00     0.010 C 
BRANCH  17  18
ATOM     18  C   UNL     1      96.244  79.672  82.475  1.00  0.00     0.001 C 
BRANCH  18  19
ATOM     19  C   UNL     1      97.021  79.042  81.289  1.00  0.00     0.000 C 
BRANCH  19  20
ATOM     20  C   UNL     1      98.012  80.046  80.634  1.00  0.00     0.003 C 
BRANCH  20  21
ATOM     21  C   UNL     1      97.595  80.556  79.215  1.00  0.00    -0.017 C 
ATOM     22  C   UNL     1      98.746  80.342  78.188  1.00  0.00     0.007 C 
ATOM     23  C   UNL     1      97.150  82.047  79.215  1.00  0.00     0.007 C 
ENDBRANCH  20  21
ENDBRANCH  19  20
ENDBRANCH  18  19
ENDBRANCH  17  18
ENDBRANCH   1  17
TORSDOF 10
ENDMDL
