MODEL 1
REMARK VINA RESULT:    -6.594      0.000      0.000
REMARK INTER + INTRA:         -12.094
REMARK INTER:                 -10.835
REMARK INTRA:                  -1.259
REMARK UNBOUND:                -1.259
REMARK SMILES CCCCC[C@H](O)CC(=O)CCc1ccc(O)c(OC)c1
REMARK SMILES IDX 8 1 6 2 7 3 5 5 4 6 3 7 2 8 1 9 9 10 10 11 11 12 12 13 13 14
REMARK SMILES IDX 21 15 14 16 18 17 15 18 16 19 19 20 20 21 17 22
REMARK H PARENT 7 4 17 23
REMARK Flexibility Score: inf
ROOT
ATOM      1  C   UNL     1      91.469  94.326  76.129  1.00  0.00     0.107 C 
ENDROOT
BRANCH   1   2
ATOM      2  C   UNL     1      91.498  93.095  77.039  1.00  0.00     0.121 C 
BRANCH   2   3
ATOM      3  O   UNL     1      92.065  93.440  78.301  1.00  0.00    -0.393 OA
ATOM      4  H   UNL     1      91.571  92.961  78.990  1.00  0.00     0.210 HD
ENDBRANCH   2   3
BRANCH   2   5
ATOM      5  C   UNL     1      90.111  92.479  77.260  1.00  0.00     0.032 C 
BRANCH   5   6
ATOM      6  C   UNL     1      89.939  91.159  76.499  1.00  0.00     0.003 C 
BRANCH   6   7
ATOM      7  C   UNL     1      89.727  91.349  74.994  1.00  0.00    -0.000 C 
BRANCH   7   8
ATOM      8  C   UNL     1      90.766  90.632  74.134  1.00  0.00    -0.003 C 
ATOM      9  C   UNL     1      90.936  89.183  74.563  1.00  0.00     0.004 C 
ENDBRANCH   7   8
ENDBRANCH   6   7
ENDBRANCH   5   6
ENDBRANCH   2   5
ENDBRANCH   1   2
BRANCH   1  10
ATOM     10  C   UNL     1      92.622  95.283  76.386  1.00  0.00     0.135 C 
ATOM     11  O   UNL     1      92.473  96.277  77.097  1.00  0.00    -0.300 OA
BRANCH  10  12
ATOM     12  C   UNL     1      93.960  94.922  75.760  1.00  0.00     0.080 C 
BRANCH  12  13
ATOM     13  C   UNL     1      95.167  95.403  76.568  1.00  0.00     0.043 C 
BRANCH  13  14
ATOM     14  C   UNL     1      95.341  94.660  77.871  1.00  0.00    -0.044 A 
ATOM     15  C   UNL     1      95.343  95.358  79.078  1.00  0.00     0.054 A 
ATOM     16  C   UNL     1      95.501  93.274  77.866  1.00  0.00     0.008 A 
ATOM     17  C   UNL     1      95.503  94.670  80.281  1.00  0.00     0.160 A 
ATOM     18  C   UNL     1      95.661  92.585  79.069  1.00  0.00     0.050 A 
ATOM     19  C   UNL     1      95.663  93.284  80.276  1.00  0.00     0.157 A 
BRANCH  17  20
ATOM     20  O   UNL     1      95.504  95.362  81.454  1.00  0.00    -0.493 OA
ATOM     21  C   UNL     1      96.691  96.082  81.781  1.00  0.00     0.278 C 
ENDBRANCH  17  20
BRANCH  19  22
ATOM     22  O   UNL     1      95.820  92.601  81.444  1.00  0.00    -0.504 OA
ATOM     23  H   UNL     1      96.708  92.779  81.798  1.00  0.00     0.293 HD
ENDBRANCH  19  22
ENDBRANCH  13  14
ENDBRANCH  12  13
ENDBRANCH  10  12
ENDBRANCH   1  10
TORSDOF 12
ENDMDL
MODEL 2
REMARK VINA RESULT:    -5.968      1.938      6.680
REMARK INTER + INTRA:         -11.065
REMARK INTER:                  -9.831
REMARK INTRA:                  -1.234
REMARK UNBOUND:                -1.259
REMARK SMILES CCCCC[C@H](O)CC(=O)CCc1ccc(O)c(OC)c1
REMARK SMILES IDX 8 1 6 2 7 3 5 5 4 6 3 7 2 8 1 9 9 10 10 11 11 12 12 13 13 14
REMARK SMILES IDX 21 15 14 16 18 17 15 18 16 19 19 20 20 21 17 22
REMARK H PARENT 7 4 17 23
REMARK Flexibility Score: inf
ROOT
ATOM      1  C   UNL     1      94.906  93.693  77.478  1.00  0.00     0.107 C 
ENDROOT
BRANCH   1   2
ATOM      2  C   UNL     1      94.404  93.657  78.924  1.00  0.00     0.121 C 
BRANCH   2   3
ATOM      3  O   UNL     1      93.436  92.622  79.074  1.00  0.00    -0.393 OA
ATOM      4  H   UNL     1      93.186  92.582  80.014  1.00  0.00     0.210 HD
ENDBRANCH   2   3
BRANCH   2   5
ATOM      5  C   UNL     1      95.530  93.448  79.944  1.00  0.00     0.032 C 
BRANCH   5   6
ATOM      6  C   UNL     1      96.042  94.775  80.518  1.00  0.00     0.003 C 
BRANCH   6   7
ATOM      7  C   UNL     1      97.265  95.324  79.777  1.00  0.00    -0.000 C 
BRANCH   7   8
ATOM      8  C   UNL     1      96.980  96.599  78.986  1.00  0.00    -0.003 C 
ATOM      9  C   UNL     1      97.528  96.508  77.571  1.00  0.00     0.004 C 
ENDBRANCH   7   8
ENDBRANCH   6   7
ENDBRANCH   5   6
ENDBRANCH   2   5
ENDBRANCH   1   2
BRANCH   1  10
ATOM     10  C   UNL     1      94.382  94.886  76.695  1.00  0.00     0.135 C 
ATOM     11  O   UNL     1      94.843  95.170  75.590  1.00  0.00    -0.300 OA
BRANCH  10  12
ATOM     12  C   UNL     1      93.241  95.669  77.328  1.00  0.00     0.080 C 
BRANCH  12  13
ATOM     13  C   UNL     1      91.912  95.528  76.583  1.00  0.00     0.043 C 
BRANCH  13  14
ATOM     14  C   UNL     1      91.352  94.127  76.633  1.00  0.00    -0.044 A 
ATOM     15  C   UNL     1      91.624  93.230  75.600  1.00  0.00     0.054 A 
ATOM     16  C   UNL     1      90.562  93.730  77.712  1.00  0.00     0.008 A 
ATOM     17  C   UNL     1      91.106  91.935  75.647  1.00  0.00     0.160 A 
ATOM     18  C   UNL     1      90.044  92.435  77.759  1.00  0.00     0.050 A 
ATOM     19  C   UNL     1      90.316  91.538  76.726  1.00  0.00     0.157 A 
BRANCH  17  20
ATOM     20  O   UNL     1      91.378  91.068  74.632  1.00  0.00    -0.493 OA
ATOM     21  C   UNL     1      90.322  90.796  73.712  1.00  0.00     0.278 C 
ENDBRANCH  17  20
BRANCH  19  22
ATOM     22  O   UNL     1      89.805  90.277  76.783  1.00  0.00    -0.504 OA
ATOM     23  H   UNL     1      88.838  90.322  76.688  1.00  0.00     0.293 HD
ENDBRANCH  19  22
ENDBRANCH  13  14
ENDBRANCH  12  13
ENDBRANCH  10  12
ENDBRANCH   1  10
TORSDOF 12
ENDMDL
MODEL 3
REMARK VINA RESULT:    -5.874      2.502      3.768
REMARK INTER + INTRA:         -10.910
REMARK INTER:                  -9.307
REMARK INTRA:                  -1.603
REMARK UNBOUND:                -1.259
REMARK SMILES CCCCC[C@H](O)CC(=O)CCc1ccc(O)c(OC)c1
REMARK SMILES IDX 8 1 6 2 7 3 5 5 4 6 3 7 2 8 1 9 9 10 10 11 11 12 12 13 13 14
REMARK SMILES IDX 21 15 14 16 18 17 15 18 16 19 19 20 20 21 17 22
REMARK H PARENT 7 4 17 23
REMARK Flexibility Score: inf
ROOT
ATOM      1  C   UNL     1      95.108  97.533  75.042  1.00  0.00     0.107 C 
ENDROOT
BRANCH   1   2
ATOM      2  C   UNL     1      94.392  96.545  74.118  1.00  0.00     0.121 C 
BRANCH   2   3
ATOM      3  O   UNL     1      95.351  95.752  73.421  1.00  0.00    -0.393 OA
ATOM      4  H   UNL     1      95.024  94.836  73.404  1.00  0.00     0.210 HD
ENDBRANCH   2   3
BRANCH   2   5
ATOM      5  C   UNL     1      93.421  95.621  74.865  1.00  0.00     0.032 C 
BRANCH   5   6
ATOM      6  C   UNL     1      92.792  96.310  76.082  1.00  0.00     0.003 C 
BRANCH   6   7
ATOM      7  C   UNL     1      91.785  95.426  76.825  1.00  0.00    -0.000 C 
BRANCH   7   8
ATOM      8  C   UNL     1      92.434  94.289  77.612  1.00  0.00    -0.003 C 
ATOM      9  C   UNL     1      91.461  93.141  77.833  1.00  0.00     0.004 C 
ENDBRANCH   7   8
ENDBRANCH   6   7
ENDBRANCH   5   6
ENDBRANCH   2   5
ENDBRANCH   1   2
BRANCH   1  10
ATOM     10  C   UNL     1      96.468  97.036  75.506  1.00  0.00     0.135 C 
ATOM     11  O   UNL     1      97.471  97.194  74.810  1.00  0.00    -0.300 OA
BRANCH  10  12
ATOM     12  C   UNL     1      96.523  96.385  76.879  1.00  0.00     0.080 C 
BRANCH  12  13
ATOM     13  C   UNL     1      95.990  94.951  76.902  1.00  0.00     0.043 C 
BRANCH  13  14
ATOM     14  C   UNL     1      95.907  94.372  78.294  1.00  0.00    -0.044 A 
ATOM     15  C   UNL     1      95.820  95.219  79.398  1.00  0.00     0.054 A 
ATOM     16  C   UNL     1      95.918  92.989  78.475  1.00  0.00     0.008 A 
ATOM     17  C   UNL     1      95.743  94.683  80.684  1.00  0.00     0.160 A 
ATOM     18  C   UNL     1      95.841  92.452  79.760  1.00  0.00     0.050 A 
ATOM     19  C   UNL     1      95.754  93.300  80.865  1.00  0.00     0.157 A 
BRANCH  17  20
ATOM     20  O   UNL     1      95.658  95.521  81.755  1.00  0.00    -0.493 OA
ATOM     21  C   UNL     1      96.819  96.286  82.072  1.00  0.00     0.278 C 
ENDBRANCH  17  20
BRANCH  19  22
ATOM     22  O   UNL     1      95.679  92.764  82.115  1.00  0.00    -0.504 OA
ATOM     23  H   UNL     1      96.353  93.182  82.679  1.00  0.00     0.293 HD
ENDBRANCH  19  22
ENDBRANCH  13  14
ENDBRANCH  12  13
ENDBRANCH  10  12
ENDBRANCH   1  10
TORSDOF 12
ENDMDL
MODEL 4
REMARK VINA RESULT:    -5.751      2.597      6.476
REMARK INTER + INTRA:         -10.709
REMARK INTER:                  -9.073
REMARK INTRA:                  -1.637
REMARK UNBOUND:                -1.259
REMARK SMILES CCCCC[C@H](O)CC(=O)CCc1ccc(O)c(OC)c1
REMARK SMILES IDX 8 1 6 2 7 3 5 5 4 6 3 7 2 8 1 9 9 10 10 11 11 12 12 13 13 14
REMARK SMILES IDX 21 15 14 16 18 17 15 18 16 19 19 20 20 21 17 22
REMARK H PARENT 7 4 17 23
REMARK Flexibility Score: inf
ROOT
ATOM      1  C   UNL     1      95.476  96.327  76.703  1.00  0.00     0.107 C 
ENDROOT
BRANCH   1   2
ATOM      2  C   UNL     1      96.998  96.485  76.716  1.00  0.00     0.121 C 
BRANCH   2   3
ATOM      3  O   UNL     1      97.350  97.812  76.333  1.00  0.00    -0.393 OA
ATOM      4  H   UNL     1      98.309  97.916  76.465  1.00  0.00     0.210 HD
ENDBRANCH   2   3
BRANCH   2   5
ATOM      5  C   UNL     1      97.622  96.172  78.082  1.00  0.00     0.032 C 
BRANCH   5   6
ATOM      6  C   UNL     1      96.578  95.684  79.094  1.00  0.00     0.003 C 
BRANCH   6   7
ATOM      7  C   UNL     1      96.940  94.342  79.739  1.00  0.00    -0.000 C 
BRANCH   7   8
ATOM      8  C   UNL     1      95.931  93.232  79.451  1.00  0.00    -0.003 C 
ATOM      9  C   UNL     1      96.036  92.746  78.014  1.00  0.00     0.004 C 
ENDBRANCH   7   8
ENDBRANCH   6   7
ENDBRANCH   5   6
ENDBRANCH   2   5
ENDBRANCH   1   2
BRANCH   1  10
ATOM     10  C   UNL     1      94.859  96.623  75.346  1.00  0.00     0.135 C 
ATOM     11  O   UNL     1      95.213  97.603  74.690  1.00  0.00    -0.300 OA
BRANCH  10  12
ATOM     12  C   UNL     1      93.828  95.629  74.834  1.00  0.00     0.080 C 
BRANCH  12  13
ATOM     13  C   UNL     1      94.075  94.192  75.298  1.00  0.00     0.043 C 
BRANCH  13  14
ATOM     14  C   UNL     1      92.904  93.603  76.048  1.00  0.00    -0.044 A 
ATOM     15  C   UNL     1      92.169  92.559  75.485  1.00  0.00     0.054 A 
ATOM     16  C   UNL     1      92.558  94.103  77.303  1.00  0.00     0.008 A 
ATOM     17  C   UNL     1      91.089  92.015  76.179  1.00  0.00     0.160 A 
ATOM     18  C   UNL     1      91.477  93.558  77.998  1.00  0.00     0.050 A 
ATOM     19  C   UNL     1      90.742  92.514  77.435  1.00  0.00     0.157 A 
BRANCH  17  20
ATOM     20  O   UNL     1      90.378  90.996  75.620  1.00  0.00    -0.493 OA
ATOM     21  C   UNL     1      89.961  91.164  74.266  1.00  0.00     0.278 C 
ENDBRANCH  17  20
BRANCH  19  22
ATOM     22  O   UNL     1      89.689  91.991  78.122  1.00  0.00    -0.504 OA
ATOM     23  H   UNL     1      88.892  92.512  77.925  1.00  0.00     0.293 HD
ENDBRANCH  19  22
ENDBRANCH  13  14
ENDBRANCH  12  13
ENDBRANCH  10  12
ENDBRANCH   1  10
TORSDOF 12
ENDMDL
MODEL 5
REMARK VINA RESULT:    -5.698      3.232      7.177
REMARK INTER + INTRA:         -10.622
REMARK INTER:                  -8.784
REMARK INTRA:                  -1.838
REMARK UNBOUND:                -1.259
REMARK SMILES CCCCC[C@H](O)CC(=O)CCc1ccc(O)c(OC)c1
REMARK SMILES IDX 8 1 6 2 7 3 5 5 4 6 3 7 2 8 1 9 9 10 10 11 11 12 12 13 13 14
REMARK SMILES IDX 21 15 14 16 18 17 15 18 16 19 19 20 20 21 17 22
REMARK H PARENT 7 4 17 23
REMARK Flexibility Score: inf
ROOT
ATOM      1  C   UNL     1      93.954  94.916  78.143  1.00  0.00     0.107 C 
ENDROOT
BRANCH   1   2
ATOM      2  C   UNL     1      94.819  94.140  79.140  1.00  0.00     0.121 C 
BRANCH   2   3
ATOM      3  O   UNL     1      95.216  92.895  78.569  1.00  0.00    -0.393 OA
ATOM      4  H   UNL     1      94.711  92.190  79.010  1.00  0.00     0.210 HD
ENDBRANCH   2   3
BRANCH   2   5
ATOM      5  C   UNL     1      96.067  94.914  79.582  1.00  0.00     0.032 C 
BRANCH   5   6
ATOM      6  C   UNL     1      97.207  94.798  78.564  1.00  0.00     0.003 C 
BRANCH   6   7
ATOM      7  C   UNL     1      97.707  96.154  78.056  1.00  0.00    -0.000 C 
BRANCH   7   8
ATOM      8  C   UNL     1      96.916  96.692  76.865  1.00  0.00    -0.003 C 
ATOM      9  C   UNL     1      97.382  98.086  76.473  1.00  0.00     0.004 C 
ENDBRANCH   7   8
ENDBRANCH   6   7
ENDBRANCH   5   6
ENDBRANCH   2   5
ENDBRANCH   1   2
BRANCH   1  10
ATOM     10  C   UNL     1      92.981  94.030  77.383  1.00  0.00     0.135 C 
ATOM     11  O   UNL     1      92.187  93.303  77.980  1.00  0.00    -0.300 OA
BRANCH  10  12
ATOM     12  C   UNL     1      93.014  94.126  75.865  1.00  0.00     0.080 C 
BRANCH  12  13
ATOM     13  C   UNL     1      94.407  94.401  75.296  1.00  0.00     0.043 C 
BRANCH  13  14
ATOM     14  C   UNL     1      94.494  95.713  74.552  1.00  0.00    -0.044 A 
ATOM     15  C   UNL     1      95.443  95.881  73.544  1.00  0.00     0.054 A 
ATOM     16  C   UNL     1      93.625  96.755  74.873  1.00  0.00     0.008 A 
ATOM     17  C   UNL     1      95.522  97.092  72.856  1.00  0.00     0.160 A 
ATOM     18  C   UNL     1      93.704  97.967  74.186  1.00  0.00     0.050 A 
ATOM     19  C   UNL     1      94.653  98.135  73.177  1.00  0.00     0.157 A 
BRANCH  17  20
ATOM     20  O   UNL     1      96.454  97.245  71.874  1.00  0.00    -0.493 OA
ATOM     21  C   UNL     1      96.237  96.531  70.658  1.00  0.00     0.278 C 
ENDBRANCH  17  20
BRANCH  19  22
ATOM     22  O   UNL     1      94.720  99.322  72.513  1.00  0.00    -0.504 OA
ATOM     23  H   UNL     1      95.492  99.310  71.921  1.00  0.00     0.293 HD
ENDBRANCH  19  22
ENDBRANCH  13  14
ENDBRANCH  12  13
ENDBRANCH  10  12
ENDBRANCH   1  10
TORSDOF 12
ENDMDL
MODEL 6
REMARK VINA RESULT:    -5.671     20.614     23.273
REMARK INTER + INTRA:         -10.577
REMARK INTER:                  -9.594
REMARK INTRA:                  -0.982
REMARK UNBOUND:                -1.259
REMARK SMILES CCCCC[C@H](O)CC(=O)CCc1ccc(O)c(OC)c1
REMARK SMILES IDX 8 1 6 2 7 3 5 5 4 6 3 7 2 8 1 9 9 10 10 11 11 12 12 13 13 14
REMARK SMILES IDX 21 15 14 16 18 17 15 18 16 19 19 20 20 21 17 22
REMARK H PARENT 7 4 17 23
REMARK Flexibility Score: inf
ROOT
ATOM      1  C   UNL     1      76.347  84.756  65.431  1.00  0.00     0.107 C 
ENDROOT
BRANCH   1   2
ATOM      2  C   UNL     1      75.568  83.508  65.010  1.00  0.00     0.121 C 
BRANCH   2   3
ATOM      3  O   UNL     1      76.476  82.459  64.681  1.00  0.00    -0.393 OA
ATOM      4  H   UNL     1      75.960  81.642  64.570  1.00  0.00     0.210 HD
ENDBRANCH   2   3
BRANCH   2   5
ATOM      5  C   UNL     1      74.596  83.014  66.088  1.00  0.00     0.032 C 
BRANCH   5   6
ATOM      6  C   UNL     1      74.052  81.614  65.777  1.00  0.00     0.003 C 
BRANCH   6   7
ATOM      7  C   UNL     1      72.654  81.633  65.150  1.00  0.00    -0.000 C 
BRANCH   7   8
ATOM      8  C   UNL     1      72.657  81.402  63.640  1.00  0.00    -0.003 C 
ATOM      9  C   UNL     1      71.676  80.309  63.245  1.00  0.00     0.004 C 
ENDBRANCH   7   8
ENDBRANCH   6   7
ENDBRANCH   5   6
ENDBRANCH   2   5
ENDBRANCH   1   2
BRANCH   1  10
ATOM     10  C   UNL     1      77.296  84.502  66.591  1.00  0.00     0.135 C 
ATOM     11  O   UNL     1      78.015  83.504  66.614  1.00  0.00    -0.300 OA
BRANCH  10  12
ATOM     12  C   UNL     1      77.337  85.561  67.683  1.00  0.00     0.080 C 
BRANCH  12  13
ATOM     13  C   UNL     1      77.303  86.995  67.151  1.00  0.00     0.043 C 
BRANCH  13  14
ATOM     14  C   UNL     1      76.252  87.849  67.819  1.00  0.00    -0.044 A 
ATOM     15  C   UNL     1      75.001  87.309  68.119  1.00  0.00     0.054 A 
ATOM     16  C   UNL     1      76.533  89.178  68.136  1.00  0.00     0.008 A 
ATOM     17  C   UNL     1      74.031  88.099  68.737  1.00  0.00     0.160 A 
ATOM     18  C   UNL     1      75.563  89.968  68.754  1.00  0.00     0.050 A 
ATOM     19  C   UNL     1      74.312  89.429  69.054  1.00  0.00     0.157 A 
BRANCH  17  20
ATOM     20  O   UNL     1      72.813  87.562  69.024  1.00  0.00    -0.493 OA
ATOM     21  C   UNL     1      72.567  86.233  68.567  1.00  0.00     0.278 C 
ENDBRANCH  17  20
BRANCH  19  22
ATOM     22  O   UNL     1      73.373  90.210  69.657  1.00  0.00    -0.504 OA
ATOM     23  H   UNL     1      73.817  90.823  70.269  1.00  0.00     0.293 HD
ENDBRANCH  19  22
ENDBRANCH  13  14
ENDBRANCH  12  13
ENDBRANCH  10  12
ENDBRANCH   1  10
TORSDOF 12
ENDMDL
MODEL 7
REMARK VINA RESULT:    -5.603      2.375      3.130
REMARK INTER + INTRA:         -10.466
REMARK INTER:                  -9.540
REMARK INTRA:                  -0.927
REMARK UNBOUND:                -1.259
REMARK SMILES CCCCC[C@H](O)CC(=O)CCc1ccc(O)c(OC)c1
REMARK SMILES IDX 8 1 6 2 7 3 5 5 4 6 3 7 2 8 1 9 9 10 10 11 11 12 12 13 13 14
REMARK SMILES IDX 21 15 14 16 18 17 15 18 16 19 19 20 20 21 17 22
REMARK H PARENT 7 4 17 23
REMARK Flexibility Score: inf
ROOT
ATOM      1  C   UNL     1      93.427  94.852  77.866  1.00  0.00     0.107 C 
ENDROOT
BRANCH   1   2
ATOM      2  C   UNL     1      92.042  94.714  77.230  1.00  0.00     0.121 C 
BRANCH   2   3
ATOM      3  O   UNL     1      92.142  94.869  75.816  1.00  0.00    -0.393 OA
ATOM      4  H   UNL     1      92.980  95.325  75.626  1.00  0.00     0.210 HD
ENDBRANCH   2   3
BRANCH   2   5
ATOM      5  C   UNL     1      91.368  93.372  77.544  1.00  0.00     0.032 C 
BRANCH   5   6
ATOM      6  C   UNL     1      91.214  92.498  76.293  1.00  0.00     0.003 C 
BRANCH   6   7
ATOM      7  C   UNL     1      90.117  91.436  76.427  1.00  0.00    -0.000 C 
BRANCH   7   8
ATOM      8  C   UNL     1      90.248  90.292  75.424  1.00  0.00    -0.003 C 
ATOM      9  C   UNL     1      90.971  90.739  74.163  1.00  0.00     0.004 C 
ENDBRANCH   7   8
ENDBRANCH   6   7
ENDBRANCH   5   6
ENDBRANCH   2   5
ENDBRANCH   1   2
BRANCH   1  10
ATOM     10  C   UNL     1      94.415  93.808  77.375  1.00  0.00     0.135 C 
ATOM     11  O   UNL     1      94.680  93.700  76.178  1.00  0.00    -0.300 OA
BRANCH  10  12
ATOM     12  C   UNL     1      95.083  92.948  78.437  1.00  0.00     0.080 C 
BRANCH  12  13
ATOM     13  C   UNL     1      95.315  93.676  79.762  1.00  0.00     0.043 C 
BRANCH  13  14
ATOM     14  C   UNL     1      96.727  94.191  79.915  1.00  0.00    -0.044 A 
ATOM     15  C   UNL     1      97.440  93.935  81.086  1.00  0.00     0.054 A 
ATOM     16  C   UNL     1      97.317  94.923  78.884  1.00  0.00     0.008 A 
ATOM     17  C   UNL     1      98.744  94.410  81.226  1.00  0.00     0.160 A 
ATOM     18  C   UNL     1      98.621  95.398  79.024  1.00  0.00     0.050 A 
ATOM     19  C   UNL     1      99.334  95.142  80.195  1.00  0.00     0.157 A 
BRANCH  17  20
ATOM     20  O   UNL     1      99.430  94.154  82.374  1.00  0.00    -0.493 OA
ATOM     21  C   UNL     1      99.333  95.123  83.417  1.00  0.00     0.278 C 
ENDBRANCH  17  20
BRANCH  19  22
ATOM     22  O   UNL     1     100.607  95.612  80.320  1.00  0.00    -0.504 OA
ATOM     23  H   UNL     1     101.229  94.922  80.030  1.00  0.00     0.293 HD
ENDBRANCH  19  22
ENDBRANCH  13  14
ENDBRANCH  12  13
ENDBRANCH  10  12
ENDBRANCH   1  10
TORSDOF 12
ENDMDL
MODEL 8
REMARK VINA RESULT:    -5.584      1.777      2.814
REMARK INTER + INTRA:         -10.434
REMARK INTER:                  -9.475
REMARK INTRA:                  -0.959
REMARK UNBOUND:                -1.259
REMARK SMILES CCCCC[C@H](O)CC(=O)CCc1ccc(O)c(OC)c1
REMARK SMILES IDX 8 1 6 2 7 3 5 5 4 6 3 7 2 8 1 9 9 10 10 11 11 12 12 13 13 14
REMARK SMILES IDX 21 15 14 16 18 17 15 18 16 19 19 20 20 21 17 22
REMARK H PARENT 7 4 17 23
REMARK Flexibility Score: inf
ROOT
ATOM      1  C   UNL     1      93.045  93.297  77.888  1.00  0.00     0.107 C 
ENDROOT
BRANCH   1   2
ATOM      2  C   UNL     1      91.942  94.295  77.524  1.00  0.00     0.121 C 
BRANCH   2   3
ATOM      3  O   UNL     1      92.523  95.503  77.041  1.00  0.00    -0.393 OA
ATOM      4  H   UNL     1      91.810  96.046  76.662  1.00  0.00     0.210 HD
ENDBRANCH   2   3
BRANCH   2   5
ATOM      5  C   UNL     1      90.963  93.751  76.476  1.00  0.00     0.032 C 
BRANCH   5   6
ATOM      6  C   UNL     1      91.003  92.220  76.389  1.00  0.00     0.003 C 
BRANCH   6   7
ATOM      7  C   UNL     1      90.126  91.654  75.268  1.00  0.00    -0.000 C 
BRANCH   7   8
ATOM      8  C   UNL     1      90.902  90.831  74.240  1.00  0.00    -0.003 C 
ATOM      9  C   UNL     1      90.887  89.351  74.590  1.00  0.00     0.004 C 
ENDBRANCH   7   8
ENDBRANCH   6   7
ENDBRANCH   5   6
ENDBRANCH   2   5
ENDBRANCH   1   2
BRANCH   1  10
ATOM     10  C   UNL     1      94.382  93.628  77.245  1.00  0.00     0.135 C 
ATOM     11  O   UNL     1      94.500  93.683  76.021  1.00  0.00    -0.300 OA
BRANCH  10  12
ATOM     12  C   UNL     1      95.537  93.927  78.189  1.00  0.00     0.080 C 
BRANCH  12  13
ATOM     13  C   UNL     1      95.129  93.979  79.662  1.00  0.00     0.043 C 
BRANCH  13  14
ATOM     14  C   UNL     1      96.190  94.587  80.549  1.00  0.00    -0.044 A 
ATOM     15  C   UNL     1      95.902  95.724  81.304  1.00  0.00     0.054 A 
ATOM     16  C   UNL     1      97.459  94.010  80.613  1.00  0.00     0.008 A 
ATOM     17  C   UNL     1      96.882  96.283  82.123  1.00  0.00     0.160 A 
ATOM     18  C   UNL     1      98.440  94.570  81.432  1.00  0.00     0.050 A 
ATOM     19  C   UNL     1      98.151  95.707  82.187  1.00  0.00     0.157 A 
BRANCH  17  20
ATOM     20  O   UNL     1      96.589  97.394  82.855  1.00  0.00    -0.493 OA
ATOM     21  C   UNL     1      96.523  98.634  82.153  1.00  0.00     0.278 C 
ENDBRANCH  17  20
BRANCH  19  22
ATOM     22  O   UNL     1      99.117  96.244  82.983  1.00  0.00    -0.504 OA
ATOM     23  H   UNL     1      99.156  97.204  82.829  1.00  0.00     0.293 HD
ENDBRANCH  19  22
ENDBRANCH  13  14
ENDBRANCH  12  13
ENDBRANCH  10  12
ENDBRANCH   1  10
TORSDOF 12
ENDMDL
MODEL 9
REMARK VINA RESULT:    -5.568      2.207      7.765
REMARK INTER + INTRA:         -10.407
REMARK INTER:                  -9.637
REMARK INTRA:                  -0.770
REMARK UNBOUND:                -1.259
REMARK SMILES CCCCC[C@H](O)CC(=O)CCc1ccc(O)c(OC)c1
REMARK SMILES IDX 8 1 6 2 7 3 5 5 4 6 3 7 2 8 1 9 9 10 10 11 11 12 12 13 13 14
REMARK SMILES IDX 21 15 14 16 18 17 15 18 16 19 19 20 20 21 17 22
REMARK H PARENT 7 4 17 23
REMARK Flexibility Score: inf
ROOT
ATOM      1  C   UNL     1      97.193  94.649  80.531  1.00  0.00     0.107 C 
ENDROOT
BRANCH   1   2
ATOM      2  C   UNL     1      96.480  95.766  81.297  1.00  0.00     0.121 C 
BRANCH   2   3
ATOM      3  O   UNL     1      95.592  95.201  82.259  1.00  0.00    -0.393 OA
ATOM      4  H   UNL     1      96.087  94.532  82.764  1.00  0.00     0.210 HD
ENDBRANCH   2   3
BRANCH   2   5
ATOM      5  C   UNL     1      97.449  96.722  82.003  1.00  0.00     0.032 C 
BRANCH   5   6
ATOM      6  C   UNL     1      97.296  98.166  81.510  1.00  0.00     0.003 C 
BRANCH   6   7
ATOM      7  C   UNL     1      96.177  98.934  82.219  1.00  0.00    -0.000 C 
BRANCH   7   8
ATOM      8  C   UNL     1      95.981 100.355  81.693  1.00  0.00    -0.003 C 
ATOM      9  C   UNL     1      96.820 100.606  80.450  1.00  0.00     0.004 C 
ENDBRANCH   7   8
ENDBRANCH   6   7
ENDBRANCH   5   6
ENDBRANCH   2   5
ENDBRANCH   1   2
BRANCH   1  10
ATOM     10  C   UNL     1      97.033  94.765  79.024  1.00  0.00     0.135 C 
ATOM     11  O   UNL     1      97.594  95.662  78.395  1.00  0.00    -0.300 OA
BRANCH  10  12
ATOM     12  C   UNL     1      96.190  93.697  78.343  1.00  0.00     0.080 C 
BRANCH  12  13
ATOM     13  C   UNL     1      94.917  93.336  79.111  1.00  0.00     0.043 C 
BRANCH  13  14
ATOM     14  C   UNL     1      93.658  93.816  78.429  1.00  0.00    -0.044 A 
ATOM     15  C   UNL     1      92.528  92.999  78.395  1.00  0.00     0.054 A 
ATOM     16  C   UNL     1      93.626  95.077  77.832  1.00  0.00     0.008 A 
ATOM     17  C   UNL     1      91.366  93.444  77.766  1.00  0.00     0.160 A 
ATOM     18  C   UNL     1      92.464  95.521  77.202  1.00  0.00     0.050 A 
ATOM     19  C   UNL     1      91.333  94.704  77.169  1.00  0.00     0.157 A 
BRANCH  17  20
ATOM     20  O   UNL     1      90.268  92.637  77.739  1.00  0.00    -0.493 OA
ATOM     21  C   UNL     1      90.153  91.736  76.639  1.00  0.00     0.278 C 
ENDBRANCH  17  20
BRANCH  19  22
ATOM     22  O   UNL     1      90.204  95.149  76.551  1.00  0.00    -0.504 OA
ATOM     23  H   UNL     1      90.377  95.234  75.598  1.00  0.00     0.293 HD
ENDBRANCH  19  22
ENDBRANCH  13  14
ENDBRANCH  12  13
ENDBRANCH  10  12
ENDBRANCH   1  10
TORSDOF 12
ENDMDL
MODEL 10
REMARK VINA RESULT:    -5.539      2.370      4.207
REMARK INTER + INTRA:         -10.360
REMARK INTER:                  -9.097
REMARK INTRA:                  -1.263
REMARK UNBOUND:                -1.259
REMARK SMILES CCCCC[C@H](O)CC(=O)CCc1ccc(O)c(OC)c1
REMARK SMILES IDX 8 1 6 2 7 3 5 5 4 6 3 7 2 8 1 9 9 10 10 11 11 12 12 13 13 14
REMARK SMILES IDX 21 15 14 16 18 17 15 18 16 19 19 20 20 21 17 22
REMARK H PARENT 7 4 17 23
REMARK Flexibility Score: inf
ROOT
ATOM      1  C   UNL     1      93.431  94.066  78.354  1.00  0.00     0.107 C 
ENDROOT
BRANCH   1   2
ATOM      2  C   UNL     1      92.609  93.232  77.368  1.00  0.00     0.121 C 
BRANCH   2   3
ATOM      3  O   UNL     1      91.219  93.388  77.645  1.00  0.00    -0.393 OA
ATOM      4  H   UNL     1      91.107  94.210  78.153  1.00  0.00     0.210 HD
ENDBRANCH   2   3
BRANCH   2   5
ATOM      5  C   UNL     1      92.876  93.598  75.903  1.00  0.00     0.032 C 
BRANCH   5   6
ATOM      6  C   UNL     1      93.352  95.048  75.749  1.00  0.00     0.003 C 
BRANCH   6   7
ATOM      7  C   UNL     1      94.724  95.168  75.078  1.00  0.00    -0.000 C 
BRANCH   7   8
ATOM      8  C   UNL     1      94.768  96.204  73.956  1.00  0.00    -0.003 C 
ATOM      9  C   UNL     1      93.877  97.397  74.267  1.00  0.00     0.004 C 
ENDBRANCH   7   8
ENDBRANCH   6   7
ENDBRANCH   5   6
ENDBRANCH   2   5
ENDBRANCH   1   2
BRANCH   1  10
ATOM     10  C   UNL     1      94.536  93.270  79.030  1.00  0.00     0.135 C 
ATOM     11  O   UNL     1      94.332  92.681  80.091  1.00  0.00    -0.300 OA
BRANCH  10  12
ATOM     12  C   UNL     1      95.872  93.208  78.307  1.00  0.00     0.080 C 
BRANCH  12  13
ATOM     13  C   UNL     1      96.637  94.533  78.313  1.00  0.00     0.043 C 
BRANCH  13  14
ATOM     14  C   UNL     1      96.988  95.007  79.704  1.00  0.00    -0.044 A 
ATOM     15  C   UNL     1      96.425  96.182  80.203  1.00  0.00     0.054 A 
ATOM     16  C   UNL     1      97.876  94.270  80.488  1.00  0.00     0.008 A 
ATOM     17  C   UNL     1      96.750  96.618  81.488  1.00  0.00     0.160 A 
ATOM     18  C   UNL     1      98.200  94.706  81.773  1.00  0.00     0.050 A 
ATOM     19  C   UNL     1      97.637  95.881  82.272  1.00  0.00     0.157 A 
BRANCH  17  20
ATOM     20  O   UNL     1      96.194  97.767  81.965  1.00  0.00    -0.493 OA
ATOM     21  C   UNL     1      96.747  98.996  81.500  1.00  0.00     0.278 C 
ENDBRANCH  17  20
BRANCH  19  22
ATOM     22  O   UNL     1      97.961  96.297  83.528  1.00  0.00    -0.504 OA
ATOM     23  H   UNL     1      98.468  97.125  83.466  1.00  0.00     0.293 HD
ENDBRANCH  19  22
ENDBRANCH  13  14
ENDBRANCH  12  13
ENDBRANCH  10  12
ENDBRANCH   1  10
TORSDOF 12
ENDMDL
