MODEL 1
REMARK VINA RESULT:    -6.101      0.000      0.000
REMARK INTER + INTRA:         -10.732
REMARK INTER:                  -9.489
REMARK INTRA:                  -1.243
REMARK UNBOUND:                -1.243
REMARK SMILES COc1cc(CNC(=O)CCCC/C=C/C(C)C)ccc1O
REMARK SMILES IDX 10 1 8 2 7 3 9 5 6 6 5 7 3 8 21 9 4 10 20 11 19 12 2 13 1 14
REMARK SMILES IDX 22 15 11 17 12 18 13 19 14 20 15 21 16 22 17 23 18 24
REMARK H PARENT 7 4 22 16
REMARK Flexibility Score: inf
ROOT
ATOM      1  C   UNL     1      80.449  89.326  90.467  1.00  0.00     0.100 C 
ENDROOT
BRANCH   1   2
ATOM      2  C   UNL     1      80.750  90.473  89.589  1.00  0.00     0.220 C 
ATOM      3  N   UNL     1      81.987  90.615  89.036  1.00  0.00    -0.352 N 
ATOM      4  H   UNL     1      82.654  89.902  89.295  1.00  0.00     0.163 HD
ATOM      5  O   UNL     1      79.831  91.294  89.351  1.00  0.00    -0.275 OA
BRANCH   3   6
ATOM      6  C   UNL     1      82.368  91.668  88.150  1.00  0.00     0.151 C 
BRANCH   6   7
ATOM      7  C   UNL     1      83.390  91.213  87.168  1.00  0.00    -0.025 A 
ATOM      8  C   UNL     1      84.423  89.404  85.854  1.00  0.00     0.160 A 
ATOM      9  C   UNL     1      85.319  90.331  85.281  1.00  0.00     0.157 A 
ATOM     10  C   UNL     1      83.469  89.853  86.792  1.00  0.00     0.056 A 
ATOM     11  C   UNL     1      85.264  91.687  85.661  1.00  0.00     0.050 A 
ATOM     12  C   UNL     1      84.301  92.127  86.589  1.00  0.00     0.009 A 
BRANCH   8  13
ATOM     13  O   UNL     1      84.515  88.073  85.537  1.00  0.00    -0.493 OA
ATOM     14  C   UNL     1      83.333  87.312  85.848  1.00  0.00     0.278 C 
ENDBRANCH   8  13
BRANCH   9  15
ATOM     15  O   UNL     1      86.240  89.934  84.366  1.00  0.00    -0.504 OA
ATOM     16  H   UNL     1      85.894  90.077  83.481  1.00  0.00     0.293 HD
ENDBRANCH   9  15
ENDBRANCH   6   7
ENDBRANCH   3   6
ENDBRANCH   1   2
BRANCH   1  17
ATOM     17  C   UNL     1      80.758  87.974  89.770  1.00  0.00     0.010 C 
BRANCH  17  18
ATOM     18  C   UNL     1      79.676  87.570  88.728  1.00  0.00     0.005 C 
BRANCH  18  19
ATOM     19  C   UNL     1      80.214  86.560  87.680  1.00  0.00     0.027 C 
BRANCH  19  20
ATOM     20  C   UNL     1      80.116  87.075  86.323  1.00  0.00    -0.031 C 
ATOM     21  C   UNL     1      79.955  88.375  86.017  1.00  0.00    -0.028 C 
BRANCH  21  22
ATOM     22  C   UNL     1      79.879  88.873  84.644  1.00  0.00     0.005 C 
ATOM     23  C   UNL     1      81.027  89.866  84.312  1.00  0.00     0.012 C 
ATOM     24  C   UNL     1      79.866  87.688  83.644  1.00  0.00     0.012 C 
ENDBRANCH  21  22
ENDBRANCH  19  20
ENDBRANCH  18  19
ENDBRANCH  17  18
ENDBRANCH   1  17
TORSDOF 10
ENDMDL
MODEL 2
REMARK VINA RESULT:    -5.965     13.043     16.733
REMARK INTER + INTRA:         -10.521
REMARK INTER:                  -9.650
REMARK INTRA:                  -0.871
REMARK UNBOUND:                -1.243
REMARK SMILES COc1cc(CNC(=O)CCCC/C=C/C(C)C)ccc1O
REMARK SMILES IDX 10 1 8 2 7 3 9 5 6 6 5 7 3 8 21 9 4 10 20 11 19 12 2 13 1 14
REMARK SMILES IDX 22 15 11 17 12 18 13 19 14 20 15 21 16 22 17 23 18 24
REMARK H PARENT 7 4 22 16
REMARK Flexibility Score: inf
ROOT
ATOM      1  C   UNL     1      92.078  94.703  76.454  1.00  0.00     0.100 C 
ENDROOT
BRANCH   1   2
ATOM      2  C   UNL     1      90.883  93.924  76.079  1.00  0.00     0.220 C 
ATOM      3  N   UNL     1      90.869  93.189  74.932  1.00  0.00    -0.352 N 
ATOM      4  H   UNL     1      91.711  93.248  74.377  1.00  0.00     0.163 HD
ATOM      5  O   UNL     1      89.897  93.940  76.856  1.00  0.00    -0.275 OA
BRANCH   3   6
ATOM      6  C   UNL     1      89.777  92.377  74.497  1.00  0.00     0.151 C 
BRANCH   6   7
ATOM      7  C   UNL     1      90.095  90.927  74.610  1.00  0.00    -0.025 A 
ATOM      8  C   UNL     1      90.401  88.917  75.999  1.00  0.00     0.160 A 
ATOM      9  C   UNL     1      90.679  88.160  74.842  1.00  0.00     0.157 A 
ATOM     10  C   UNL     1      90.114  90.293  75.873  1.00  0.00     0.056 A 
ATOM     11  C   UNL     1      90.683  88.783  73.579  1.00  0.00     0.050 A 
ATOM     12  C   UNL     1      90.383  90.154  73.461  1.00  0.00     0.009 A 
BRANCH   8  13
ATOM     13  O   UNL     1      90.460  88.330  77.237  1.00  0.00    -0.493 OA
ATOM     14  C   UNL     1      89.741  89.042  78.260  1.00  0.00     0.278 C 
ENDBRANCH   8  13
BRANCH   9  15
ATOM     15  O   UNL     1      90.946  86.831  74.928  1.00  0.00    -0.504 OA
ATOM     16  H   UNL     1      91.886  86.684  74.799  1.00  0.00     0.293 HD
ENDBRANCH   9  15
ENDBRANCH   6   7
ENDBRANCH   3   6
ENDBRANCH   1   2
BRANCH   1  17
ATOM     17  C   UNL     1      93.260  93.781  76.857  1.00  0.00     0.010 C 
BRANCH  17  18
ATOM     18  C   UNL     1      94.205  93.453  75.667  1.00  0.00     0.005 C 
BRANCH  18  19
ATOM     19  C   UNL     1      95.489  94.326  75.675  1.00  0.00     0.027 C 
BRANCH  19  20
ATOM     20  C   UNL     1      95.336  95.532  74.877  1.00  0.00    -0.031 C 
ATOM     21  C   UNL     1      95.595  96.774  75.326  1.00  0.00    -0.028 C 
BRANCH  21  22
ATOM     22  C   UNL     1      95.453  97.972  74.499  1.00  0.00     0.005 C 
ATOM     23  C   UNL     1      96.763  98.325  73.743  1.00  0.00     0.012 C 
ATOM     24  C   UNL     1      94.271  97.803  73.509  1.00  0.00     0.012 C 
ENDBRANCH  21  22
ENDBRANCH  19  20
ENDBRANCH  18  19
ENDBRANCH  17  18
ENDBRANCH   1  17
TORSDOF 10
ENDMDL
MODEL 3
REMARK VINA RESULT:    -5.937     13.875     16.114
REMARK INTER + INTRA:         -10.477
REMARK INTER:                  -9.704
REMARK INTRA:                  -0.772
REMARK UNBOUND:                -1.243
REMARK SMILES COc1cc(CNC(=O)CCCC/C=C/C(C)C)ccc1O
REMARK SMILES IDX 10 1 8 2 7 3 9 5 6 6 5 7 3 8 21 9 4 10 20 11 19 12 2 13 1 14
REMARK SMILES IDX 22 15 11 17 12 18 13 19 14 20 15 21 16 22 17 23 18 24
REMARK H PARENT 7 4 22 16
REMARK Flexibility Score: inf
ROOT
ATOM      1  C   UNL     1      93.964  93.926  75.693  1.00  0.00     0.100 C 
ENDROOT
BRANCH   1   2
ATOM      2  C   UNL     1      95.306  94.299  76.181  1.00  0.00     0.220 C 
ATOM      3  N   UNL     1      95.472  95.390  76.980  1.00  0.00    -0.352 N 
ATOM      4  H   UNL     1      94.627  95.908  77.175  1.00  0.00     0.163 HD
ATOM      5  O   UNL     1      96.276  93.571  75.859  1.00  0.00    -0.275 OA
BRANCH   3   6
ATOM      6  C   UNL     1      96.720  95.816  77.529  1.00  0.00     0.151 C 
BRANCH   6   7
ATOM      7  C   UNL     1      96.599  96.132  78.979  1.00  0.00    -0.025 A 
ATOM      8  C   UNL     1      95.786  95.541  81.226  1.00  0.00     0.160 A 
ATOM      9  C   UNL     1      96.376  96.711  81.748  1.00  0.00     0.157 A 
ATOM     10  C   UNL     1      95.901  95.264  79.848  1.00  0.00     0.056 A 
ATOM     11  C   UNL     1      97.058  97.596  80.890  1.00  0.00     0.050 A 
ATOM     12  C   UNL     1      97.178  97.305  79.517  1.00  0.00     0.009 A 
BRANCH   8  13
ATOM     13  O   UNL     1      95.065  94.710  82.046  1.00  0.00    -0.493 OA
ATOM     14  C   UNL     1      95.611  93.384  82.164  1.00  0.00     0.278 C 
ENDBRANCH   8  13
BRANCH   9  15
ATOM     15  O   UNL     1      96.295  97.000  83.073  1.00  0.00    -0.504 OA
ATOM     16  H   UNL     1      96.009  96.221  83.554  1.00  0.00     0.293 HD
ENDBRANCH   9  15
ENDBRANCH   6   7
ENDBRANCH   3   6
ENDBRANCH   1   2
BRANCH   1  17
ATOM     17  C   UNL     1      92.862  94.263  76.733  1.00  0.00     0.010 C 
BRANCH  17  18
ATOM     18  C   UNL     1      91.478  93.659  76.366  1.00  0.00     0.005 C 
BRANCH  18  19
ATOM     19  C   UNL     1      90.988  92.623  77.414  1.00  0.00     0.027 C 
BRANCH  19  20
ATOM     20  C   UNL     1      90.227  91.544  76.803  1.00  0.00    -0.031 C 
ATOM     21  C   UNL     1      90.778  90.520  76.126  1.00  0.00    -0.028 C 
BRANCH  21  22
ATOM     22  C   UNL     1      89.995  89.434  75.536  1.00  0.00     0.005 C 
ATOM     23  C   UNL     1      88.866  89.960  74.607  1.00  0.00     0.012 C 
ATOM     24  C   UNL     1      90.925  88.454  74.776  1.00  0.00     0.012 C 
ENDBRANCH  21  22
ENDBRANCH  19  20
ENDBRANCH  18  19
ENDBRANCH  17  18
ENDBRANCH   1  17
TORSDOF 10
ENDMDL
MODEL 4
REMARK VINA RESULT:    -5.874     14.822     17.586
REMARK INTER + INTRA:         -10.379
REMARK INTER:                  -9.458
REMARK INTRA:                  -0.921
REMARK UNBOUND:                -1.243
REMARK SMILES COc1cc(CNC(=O)CCCC/C=C/C(C)C)ccc1O
REMARK SMILES IDX 10 1 8 2 7 3 9 5 6 6 5 7 3 8 21 9 4 10 20 11 19 12 2 13 1 14
REMARK SMILES IDX 22 15 11 17 12 18 13 19 14 20 15 21 16 22 17 23 18 24
REMARK H PARENT 7 4 22 16
REMARK Flexibility Score: inf
ROOT
ATOM      1  C   UNL     1      96.553  95.958  74.671  1.00  0.00     0.100 C 
ENDROOT
BRANCH   1   2
ATOM      2  C   UNL     1      97.253  96.352  75.909  1.00  0.00     0.220 C 
ATOM      3  N   UNL     1      96.548  96.756  77.003  1.00  0.00    -0.352 N 
ATOM      4  H   UNL     1      95.545  96.782  76.878  1.00  0.00     0.163 HD
ATOM      5  O   UNL     1      98.505  96.280  75.930  1.00  0.00    -0.275 OA
BRANCH   3   6
ATOM      6  C   UNL     1      97.126  97.126  78.255  1.00  0.00     0.151 C 
BRANCH   6   7
ATOM      7  C   UNL     1      96.572  96.315  79.373  1.00  0.00    -0.025 A 
ATOM      8  C   UNL     1      96.053  96.064  81.767  1.00  0.00     0.160 A 
ATOM      9  C   UNL     1      95.503  94.790  81.515  1.00  0.00     0.157 A 
ATOM     10  C   UNL     1      96.584  96.813  80.696  1.00  0.00     0.056 A 
ATOM     11  C   UNL     1      95.502  94.273  80.205  1.00  0.00     0.050 A 
ATOM     12  C   UNL     1      96.024  95.032  79.139  1.00  0.00     0.009 A 
BRANCH   8  13
ATOM     13  O   UNL     1      96.116  96.544  83.050  1.00  0.00    -0.493 OA
ATOM     14  C   UNL     1      96.757  97.828  83.166  1.00  0.00     0.278 C 
ENDBRANCH   8  13
BRANCH   9  15
ATOM     15  O   UNL     1      94.972  94.049  82.522  1.00  0.00    -0.504 OA
ATOM     16  H   UNL     1      95.678  93.624  83.013  1.00  0.00     0.293 HD
ENDBRANCH   9  15
ENDBRANCH   6   7
ENDBRANCH   3   6
ENDBRANCH   1   2
BRANCH   1  17
ATOM     17  C   UNL     1      96.084  94.479  74.723  1.00  0.00     0.010 C 
BRANCH  17  18
ATOM     18  C   UNL     1      94.909  94.252  75.715  1.00  0.00     0.005 C 
BRANCH  18  19
ATOM     19  C   UNL     1      93.669  95.120  75.371  1.00  0.00     0.027 C 
BRANCH  19  20
ATOM     20  C   UNL     1      92.487  94.311  75.120  1.00  0.00    -0.031 C 
ATOM     21  C   UNL     1      92.511  93.095  74.545  1.00  0.00    -0.028 C 
BRANCH  21  22
ATOM     22  C   UNL     1      91.311  92.289  74.320  1.00  0.00     0.005 C 
ATOM     23  C   UNL     1      90.605  91.899  75.648  1.00  0.00     0.012 C 
ATOM     24  C   UNL     1      90.335  93.035  73.374  1.00  0.00     0.012 C 
ENDBRANCH  21  22
ENDBRANCH  19  20
ENDBRANCH  18  19
ENDBRANCH  17  18
ENDBRANCH   1  17
TORSDOF 10
ENDMDL
MODEL 5
REMARK VINA RESULT:    -5.673     14.375     18.108
REMARK INTER + INTRA:         -10.067
REMARK INTER:                  -9.495
REMARK INTRA:                  -0.571
REMARK UNBOUND:                -1.243
REMARK SMILES COc1cc(CNC(=O)CCCC/C=C/C(C)C)ccc1O
REMARK SMILES IDX 10 1 8 2 7 3 9 5 6 6 5 7 3 8 21 9 4 10 20 11 19 12 2 13 1 14
REMARK SMILES IDX 22 15 11 17 12 18 13 19 14 20 15 21 16 22 17 23 18 24
REMARK H PARENT 7 4 22 16
REMARK Flexibility Score: inf
ROOT
ATOM      1  C   UNL     1      93.184  95.091  75.199  1.00  0.00     0.100 C 
ENDROOT
BRANCH   1   2
ATOM      2  C   UNL     1      92.539  94.264  76.237  1.00  0.00     0.220 C 
ATOM      3  N   UNL     1      91.187  94.101  76.249  1.00  0.00    -0.352 N 
ATOM      4  H   UNL     1      90.690  94.600  75.524  1.00  0.00     0.163 HD
ATOM      5  O   UNL     1      93.272  93.703  77.086  1.00  0.00    -0.275 OA
BRANCH   3   6
ATOM      6  C   UNL     1      90.471  93.298  77.189  1.00  0.00     0.151 C 
BRANCH   6   7
ATOM      7  C   UNL     1      90.126  91.967  76.619  1.00  0.00    -0.025 A 
ATOM      8  C   UNL     1      89.302  90.605  74.741  1.00  0.00     0.160 A 
ATOM      9  C   UNL     1      89.480  89.436  75.509  1.00  0.00     0.157 A 
ATOM     10  C   UNL     1      89.623  91.858  75.302  1.00  0.00     0.056 A 
ATOM     11  C   UNL     1      89.962  89.531  76.830  1.00  0.00     0.050 A 
ATOM     12  C   UNL     1      90.291  90.785  77.378  1.00  0.00     0.009 A 
BRANCH   8  13
ATOM     13  O   UNL     1      88.771  90.523  73.478  1.00  0.00    -0.493 OA
ATOM     14  C   UNL     1      88.839  91.753  72.733  1.00  0.00     0.278 C 
ENDBRANCH   8  13
BRANCH   9  15
ATOM     15  O   UNL     1      89.193  88.213  74.994  1.00  0.00    -0.504 OA
ATOM     16  H   UNL     1      89.245  87.552  75.688  1.00  0.00     0.293 HD
ENDBRANCH   9  15
ENDBRANCH   6   7
ENDBRANCH   3   6
ENDBRANCH   1   2
BRANCH   1  17
ATOM     17  C   UNL     1      94.732  95.055  75.317  1.00  0.00     0.010 C 
BRANCH  17  18
ATOM     18  C   UNL     1      95.415  96.309  74.701  1.00  0.00     0.005 C 
BRANCH  18  19
ATOM     19  C   UNL     1      96.897  96.046  74.319  1.00  0.00     0.027 C 
BRANCH  19  20
ATOM     20  C   UNL     1      97.242  96.630  73.032  1.00  0.00    -0.031 C 
ATOM     21  C   UNL     1      97.588  95.916  71.946  1.00  0.00    -0.028 C 
BRANCH  21  22
ATOM     22  C   UNL     1      97.912  96.524  70.656  1.00  0.00     0.005 C 
ATOM     23  C   UNL     1      99.265  96.013  70.087  1.00  0.00     0.012 C 
ATOM     24  C   UNL     1      96.761  96.283  69.645  1.00  0.00     0.012 C 
ENDBRANCH  21  22
ENDBRANCH  19  20
ENDBRANCH  18  19
ENDBRANCH  17  18
ENDBRANCH   1  17
TORSDOF 10
ENDMDL
MODEL 6
REMARK VINA RESULT:    -5.670     24.179     26.628
REMARK INTER + INTRA:         -10.062
REMARK INTER:                  -9.224
REMARK INTRA:                  -0.839
REMARK UNBOUND:                -1.243
REMARK SMILES COc1cc(CNC(=O)CCCC/C=C/C(C)C)ccc1O
REMARK SMILES IDX 10 1 8 2 7 3 9 5 6 6 5 7 3 8 21 9 4 10 20 11 19 12 2 13 1 14
REMARK SMILES IDX 22 15 11 17 12 18 13 19 14 20 15 21 16 22 17 23 18 24
REMARK H PARENT 7 4 22 16
REMARK Flexibility Score: inf
ROOT
ATOM      1  C   UNL     1      83.196  64.195  75.448  1.00  0.00     0.100 C 
ENDROOT
BRANCH   1   2
ATOM      2  C   UNL     1      84.210  63.610  76.345  1.00  0.00     0.220 C 
ATOM      3  N   UNL     1      83.976  63.515  77.684  1.00  0.00    -0.352 N 
ATOM      4  H   UNL     1      83.089  63.890  77.990  1.00  0.00     0.163 HD
ATOM      5  O   UNL     1      85.276  63.186  75.837  1.00  0.00    -0.275 OA
BRANCH   3   6
ATOM      6  C   UNL     1      84.877  62.938  78.630  1.00  0.00     0.151 C 
BRANCH   6   7
ATOM      7  C   UNL     1      85.426  63.964  79.558  1.00  0.00    -0.025 A 
ATOM      8  C   UNL     1      86.651  66.069  79.919  1.00  0.00     0.160 A 
ATOM      9  C   UNL     1      86.464  65.940  81.311  1.00  0.00     0.157 A 
ATOM     10  C   UNL     1      86.133  65.080  79.057  1.00  0.00     0.056 A 
ATOM     11  C   UNL     1      85.779  64.822  81.826  1.00  0.00     0.050 A 
ATOM     12  C   UNL     1      85.255  63.846  80.957  1.00  0.00     0.009 A 
BRANCH   8  13
ATOM     13  O   UNL     1      87.374  67.121  79.417  1.00  0.00    -0.493 OA
ATOM     14  C   UNL     1      86.633  67.968  78.519  1.00  0.00     0.278 C 
ENDBRANCH   8  13
BRANCH   9  15
ATOM     15  O   UNL     1      86.939  66.881  82.167  1.00  0.00    -0.504 OA
ATOM     16  H   UNL     1      87.591  67.424  81.718  1.00  0.00     0.293 HD
ENDBRANCH   9  15
ENDBRANCH   6   7
ENDBRANCH   3   6
ENDBRANCH   1   2
BRANCH   1  17
ATOM     17  C   UNL     1      82.074  64.916  76.244  1.00  0.00     0.010 C 
BRANCH  17  18
ATOM     18  C   UNL     1      80.937  65.456  75.332  1.00  0.00     0.005 C 
BRANCH  18  19
ATOM     19  C   UNL     1      80.589  64.477  74.178  1.00  0.00     0.027 C 
BRANCH  19  20
ATOM     20  C   UNL     1      80.475  65.159  72.898  1.00  0.00    -0.031 C 
ATOM     21  C   UNL     1      80.520  66.495  72.746  1.00  0.00    -0.028 C 
BRANCH  21  22
ATOM     22  C   UNL     1      80.424  67.158  71.445  1.00  0.00     0.005 C 
ATOM     23  C   UNL     1      81.766  67.813  71.017  1.00  0.00     0.012 C 
ATOM     24  C   UNL     1      79.928  66.158  70.369  1.00  0.00     0.012 C 
ENDBRANCH  21  22
ENDBRANCH  19  20
ENDBRANCH  18  19
ENDBRANCH  17  18
ENDBRANCH   1  17
TORSDOF 10
ENDMDL
MODEL 7
REMARK VINA RESULT:    -5.475     20.555     23.854
REMARK INTER + INTRA:          -9.759
REMARK INTER:                  -8.560
REMARK INTRA:                  -1.199
REMARK UNBOUND:                -1.243
REMARK SMILES COc1cc(CNC(=O)CCCC/C=C/C(C)C)ccc1O
REMARK SMILES IDX 10 1 8 2 7 3 9 5 6 6 5 7 3 8 21 9 4 10 20 11 19 12 2 13 1 14
REMARK SMILES IDX 22 15 11 17 12 18 13 19 14 20 15 21 16 22 17 23 18 24
REMARK H PARENT 7 4 22 16
REMARK Flexibility Score: inf
ROOT
ATOM      1  C   UNL     1      78.303  85.545  64.284  1.00  0.00     0.100 C 
ENDROOT
BRANCH   1   2
ATOM      2  C   UNL     1      77.835  84.292  64.907  1.00  0.00     0.220 C 
ATOM      3  N   UNL     1      76.930  83.499  64.269  1.00  0.00    -0.352 N 
ATOM      4  H   UNL     1      76.607  83.851  63.379  1.00  0.00     0.163 HD
ATOM      5  O   UNL     1      78.312  83.972  66.023  1.00  0.00    -0.275 OA
BRANCH   3   6
ATOM      6  C   UNL     1      76.440  82.255  64.771  1.00  0.00     0.151 C 
BRANCH   6   7
ATOM      7  C   UNL     1      74.964  82.144  64.610  1.00  0.00    -0.025 A 
ATOM      8  C   UNL     1      72.736  83.191  64.634  1.00  0.00     0.160 A 
ATOM      9  C   UNL     1      72.151  81.955  64.288  1.00  0.00     0.157 A 
ATOM     10  C   UNL     1      74.135  83.274  64.793  1.00  0.00     0.056 A 
ATOM     11  C   UNL     1      72.963  80.816  64.122  1.00  0.00     0.050 A 
ATOM     12  C   UNL     1      74.360  80.911  64.271  1.00  0.00     0.009 A 
BRANCH   8  13
ATOM     13  O   UNL     1      71.943  84.288  64.862  1.00  0.00    -0.493 OA
ATOM     14  C   UNL     1      71.922  85.232  63.776  1.00  0.00     0.278 C 
ENDBRANCH   8  13
BRANCH   9  15
ATOM     15  O   UNL     1      70.808  81.845  64.114  1.00  0.00    -0.504 OA
ATOM     16  H   UNL     1      70.456  81.204  64.736  1.00  0.00     0.293 HD
ENDBRANCH   9  15
ENDBRANCH   6   7
ENDBRANCH   3   6
ENDBRANCH   1   2
BRANCH   1  17
ATOM     17  C   UNL     1      77.410  86.751  64.683  1.00  0.00     0.010 C 
BRANCH  17  18
ATOM     18  C   UNL     1      78.132  87.750  65.631  1.00  0.00     0.005 C 
BRANCH  18  19
ATOM     19  C   UNL     1      77.440  87.853  67.017  1.00  0.00     0.027 C 
BRANCH  19  20
ATOM     20  C   UNL     1      76.839  86.592  67.424  1.00  0.00    -0.031 C 
ATOM     21  C   UNL     1      75.521  86.414  67.630  1.00  0.00    -0.028 C 
BRANCH  21  22
ATOM     22  C   UNL     1      74.936  85.132  68.019  1.00  0.00     0.005 C 
ATOM     23  C   UNL     1      75.947  84.229  68.779  1.00  0.00     0.012 C 
ATOM     24  C   UNL     1      73.655  85.361  68.864  1.00  0.00     0.012 C 
ENDBRANCH  21  22
ENDBRANCH  19  20
ENDBRANCH  18  19
ENDBRANCH  17  18
ENDBRANCH   1  17
TORSDOF 10
ENDMDL
MODEL 8
REMARK VINA RESULT:    -5.470      2.398      5.231
REMARK INTER + INTRA:          -9.751
REMARK INTER:                  -8.020
REMARK INTRA:                  -1.730
REMARK UNBOUND:                -1.243
REMARK SMILES COc1cc(CNC(=O)CCCC/C=C/C(C)C)ccc1O
REMARK SMILES IDX 10 1 8 2 7 3 9 5 6 6 5 7 3 8 21 9 4 10 20 11 19 12 2 13 1 14
REMARK SMILES IDX 22 15 11 17 12 18 13 19 14 20 15 21 16 22 17 23 18 24
REMARK H PARENT 7 4 22 16
REMARK Flexibility Score: inf
ROOT
ATOM      1  C   UNL     1      80.363  86.498  86.188  1.00  0.00     0.100 C 
ENDROOT
BRANCH   1   2
ATOM      2  C   UNL     1      80.286  87.125  87.522  1.00  0.00     0.220 C 
ATOM      3  N   UNL     1      79.935  88.435  87.651  1.00  0.00    -0.352 N 
ATOM      4  H   UNL     1      79.764  88.919  86.780  1.00  0.00     0.163 HD
ATOM      5  O   UNL     1      80.530  86.413  88.526  1.00  0.00    -0.275 OA
BRANCH   3   6
ATOM      6  C   UNL     1      79.801  89.125  88.894  1.00  0.00     0.151 C 
BRANCH   6   7
ATOM      7  C   UNL     1      80.601  90.380  88.912  1.00  0.00    -0.025 A 
ATOM      8  C   UNL     1      81.081  92.585  89.897  1.00  0.00     0.160 A 
ATOM      9  C   UNL     1      82.130  92.771  88.972  1.00  0.00     0.157 A 
ATOM     10  C   UNL     1      80.326  91.394  89.857  1.00  0.00     0.056 A 
ATOM     11  C   UNL     1      82.403  91.777  88.011  1.00  0.00     0.050 A 
ATOM     12  C   UNL     1      81.651  90.586  87.987  1.00  0.00     0.009 A 
BRANCH   8  13
ATOM     13  O   UNL     1      80.769  93.577  90.791  1.00  0.00    -0.493 OA
ATOM     14  C   UNL     1      80.101  93.109  91.978  1.00  0.00     0.278 C 
ENDBRANCH   8  13
BRANCH   9  15
ATOM     15  O   UNL     1      82.884  93.900  88.992  1.00  0.00    -0.504 OA
ATOM     16  H   UNL     1      83.495  93.890  88.252  1.00  0.00     0.293 HD
ENDBRANCH   9  15
ENDBRANCH   6   7
ENDBRANCH   3   6
ENDBRANCH   1   2
BRANCH   1  17
ATOM     17  C   UNL     1      79.871  87.461  85.074  1.00  0.00     0.010 C 
BRANCH  17  18
ATOM     18  C   UNL     1      81.038  88.107  84.275  1.00  0.00     0.005 C 
BRANCH  18  19
ATOM     19  C   UNL     1      81.002  89.659  84.328  1.00  0.00     0.027 C 
BRANCH  19  20
ATOM     20  C   UNL     1      82.321  90.229  84.560  1.00  0.00    -0.031 C 
ATOM     21  C   UNL     1      83.391  89.519  84.961  1.00  0.00    -0.028 C 
BRANCH  21  22
ATOM     22  C   UNL     1      84.713  90.110  85.169  1.00  0.00     0.005 C 
ATOM     23  C   UNL     1      84.733  91.632  84.860  1.00  0.00     0.012 C 
ATOM     24  C   UNL     1      85.203  89.833  86.614  1.00  0.00     0.012 C 
ENDBRANCH  21  22
ENDBRANCH  19  20
ENDBRANCH  18  19
ENDBRANCH  17  18
ENDBRANCH   1  17
TORSDOF 10
ENDMDL
MODEL 9
REMARK VINA RESULT:    -5.296     25.095     26.981
REMARK INTER + INTRA:          -9.480
REMARK INTER:                  -7.419
REMARK INTRA:                  -2.060
REMARK UNBOUND:                -1.243
REMARK SMILES COc1cc(CNC(=O)CCCC/C=C/C(C)C)ccc1O
REMARK SMILES IDX 10 1 8 2 7 3 9 5 6 6 5 7 3 8 21 9 4 10 20 11 19 12 2 13 1 14
REMARK SMILES IDX 22 15 11 17 12 18 13 19 14 20 15 21 16 22 17 23 18 24
REMARK H PARENT 7 4 22 16
REMARK Flexibility Score: inf
ROOT
ATOM      1  C   UNL     1      80.026  65.986  74.141  1.00  0.00     0.100 C 
ENDROOT
BRANCH   1   2
ATOM      2  C   UNL     1      81.315  66.241  74.813  1.00  0.00     0.220 C 
ATOM      3  N   UNL     1      82.469  65.710  74.319  1.00  0.00    -0.352 N 
ATOM      4  H   UNL     1      82.355  65.130  73.499  1.00  0.00     0.163 HD
ATOM      5  O   UNL     1      81.318  66.976  75.830  1.00  0.00    -0.275 OA
BRANCH   3   6
ATOM      6  C   UNL     1      83.767  65.923  74.875  1.00  0.00     0.151 C 
BRANCH   6   7
ATOM      7  C   UNL     1      84.644  66.679  73.941  1.00  0.00    -0.025 A 
ATOM      8  C   UNL     1      85.160  68.749  72.711  1.00  0.00     0.160 A 
ATOM      9  C   UNL     1      86.316  68.144  72.176  1.00  0.00     0.157 A 
ATOM     10  C   UNL     1      84.335  68.012  73.585  1.00  0.00     0.056 A 
ATOM     11  C   UNL     1      86.627  66.810  72.505  1.00  0.00     0.050 A 
ATOM     12  C   UNL     1      85.803  66.085  73.389  1.00  0.00     0.009 A 
BRANCH   8  13
ATOM     13  O   UNL     1      84.818  70.025  72.341  1.00  0.00    -0.493 OA
ATOM     14  C   UNL     1      83.806  70.089  71.320  1.00  0.00     0.278 C 
ENDBRANCH   8  13
BRANCH   9  15
ATOM     15  O   UNL     1      87.139  68.830  71.341  1.00  0.00    -0.504 OA
ATOM     16  H   UNL     1      87.744  69.368  71.858  1.00  0.00     0.293 HD
ENDBRANCH   9  15
ENDBRANCH   6   7
ENDBRANCH   3   6
ENDBRANCH   1   2
BRANCH   1  17
ATOM     17  C   UNL     1      80.220  65.236  72.796  1.00  0.00     0.010 C 
BRANCH  17  18
ATOM     18  C   UNL     1      80.116  66.174  71.560  1.00  0.00     0.005 C 
BRANCH  18  19
ATOM     19  C   UNL     1      81.268  67.214  71.509  1.00  0.00     0.027 C 
BRANCH  19  20
ATOM     20  C   UNL     1      82.366  66.773  70.662  1.00  0.00    -0.031 C 
ATOM     21  C   UNL     1      82.882  65.530  70.679  1.00  0.00    -0.028 C 
BRANCH  21  22
ATOM     22  C   UNL     1      83.973  65.103  69.805  1.00  0.00     0.005 C 
ATOM     23  C   UNL     1      84.834  66.298  69.309  1.00  0.00     0.012 C 
ATOM     24  C   UNL     1      84.854  64.047  70.523  1.00  0.00     0.012 C 
ENDBRANCH  21  22
ENDBRANCH  19  20
ENDBRANCH  18  19
ENDBRANCH  17  18
ENDBRANCH   1  17
TORSDOF 10
ENDMDL
MODEL 10
REMARK VINA RESULT:    -5.267     24.345     26.941
REMARK INTER + INTRA:          -9.436
REMARK INTER:                  -8.540
REMARK INTRA:                  -0.896
REMARK UNBOUND:                -1.243
REMARK SMILES COc1cc(CNC(=O)CCCC/C=C/C(C)C)ccc1O
REMARK SMILES IDX 10 1 8 2 7 3 9 5 6 6 5 7 3 8 21 9 4 10 20 11 19 12 2 13 1 14
REMARK SMILES IDX 22 15 11 17 12 18 13 19 14 20 15 21 16 22 17 23 18 24
REMARK H PARENT 7 4 22 16
REMARK Flexibility Score: inf
ROOT
ATOM      1  C   UNL     1      80.175  65.523  73.846  1.00  0.00     0.100 C 
ENDROOT
BRANCH   1   2
ATOM      2  C   UNL     1      81.038  64.377  74.191  1.00  0.00     0.220 C 
ATOM      3  N   UNL     1      82.351  64.569  74.500  1.00  0.00    -0.352 N 
ATOM      4  H   UNL     1      82.666  65.528  74.447  1.00  0.00     0.163 HD
ATOM      5  O   UNL     1      80.523  63.233  74.215  1.00  0.00    -0.275 OA
BRANCH   3   6
ATOM      6  C   UNL     1      83.260  63.535  74.878  1.00  0.00     0.151 C 
BRANCH   6   7
ATOM      7  C   UNL     1      84.021  63.896  76.105  1.00  0.00    -0.025 A 
ATOM      8  C   UNL     1      85.223  65.574  77.447  1.00  0.00     0.160 A 
ATOM      9  C   UNL     1      85.456  64.608  78.447  1.00  0.00     0.157 A 
ATOM     10  C   UNL     1      84.511  65.209  76.285  1.00  0.00     0.056 A 
ATOM     11  C   UNL     1      84.991  63.290  78.273  1.00  0.00     0.050 A 
ATOM     12  C   UNL     1      84.270  62.938  77.115  1.00  0.00     0.009 A 
BRANCH   8  13
ATOM     13  O   UNL     1      85.731  66.841  77.582  1.00  0.00    -0.493 OA
ATOM     14  C   UNL     1      84.845  67.881  77.127  1.00  0.00     0.278 C 
ENDBRANCH   8  13
BRANCH   9  15
ATOM     15  O   UNL     1      86.127  64.930  79.583  1.00  0.00    -0.504 OA
ATOM     16  H   UNL     1      85.649  64.593  80.345  1.00  0.00     0.293 HD
ENDBRANCH   9  15
ENDBRANCH   6   7
ENDBRANCH   3   6
ENDBRANCH   1   2
BRANCH   1  17
ATOM     17  C   UNL     1      80.191  65.812  72.320  1.00  0.00     0.010 C 
BRANCH  17  18
ATOM     18  C   UNL     1      80.457  67.308  71.991  1.00  0.00     0.005 C 
BRANCH  18  19
ATOM     19  C   UNL     1      81.348  67.487  70.733  1.00  0.00     0.027 C 
BRANCH  19  20
ATOM     20  C   UNL     1      82.493  68.347  70.991  1.00  0.00    -0.031 C 
ATOM     21  C   UNL     1      83.099  68.462  72.187  1.00  0.00    -0.028 C 
BRANCH  21  22
ATOM     22  C   UNL     1      84.262  69.318  72.418  1.00  0.00     0.005 C 
ATOM     23  C   UNL     1      85.475  68.526  72.978  1.00  0.00     0.012 C 
ATOM     24  C   UNL     1      84.644  70.067  71.115  1.00  0.00     0.012 C 
ENDBRANCH  21  22
ENDBRANCH  19  20
ENDBRANCH  18  19
ENDBRANCH  17  18
ENDBRANCH   1  17
TORSDOF 10
ENDMDL
