MODEL 1
REMARK VINA RESULT:    -7.229      0.000      0.000
REMARK INTER + INTRA:          -8.826
REMARK INTER:                  -8.497
REMARK INTRA:                  -0.329
REMARK UNBOUND:                -0.329
REMARK SMILES O=C(/C=C/C=C/c1ccc2c(c1)OCO2)N1CCCCC1
REMARK SMILES IDX 3 1 4 2 2 3 1 4 16 5 17 6 21 7 18 8 20 9 19 10 5 11 6 12
REMARK SMILES IDX 7 13 12 14 8 15 11 16 9 17 13 18 10 19 14 20 15 21
REMARK H PARENT
REMARK Flexibility Score: inf
ROOT
ATOM      1  C   UNL     1      96.146  81.666  82.668  1.00  0.00     0.071 C 
ATOM      2  C   UNL     1      97.088  81.912  81.760  1.00  0.00     0.006 C 
ENDROOT
BRANCH   1   3
ATOM      3  C   UNL     1      96.571  81.409  84.058  1.00  0.00     0.246 C 
ATOM      4  O   UNL     1      97.778  81.445  84.300  1.00  0.00    -0.270 OA
ATOM      5  N   UNL     1      95.581  81.140  85.001  1.00  0.00    -0.339 N 
ATOM      6  C   UNL     1      95.973  80.875  86.389  1.00  0.00     0.120 C 
ATOM      7  C   UNL     1      94.137  81.045  84.742  1.00  0.00     0.120 C 
ATOM      8  C   UNL     1      95.218  81.774  87.362  1.00  0.00     0.022 C 
ATOM      9  C   UNL     1      93.343  81.930  85.702  1.00  0.00     0.022 C 
ATOM     10  C   UNL     1      93.711  81.656  87.158  1.00  0.00     0.004 C 
ENDBRANCH   1   3
BRANCH   2  11
ATOM     11  C   UNL     1      96.770  82.174  80.372  1.00  0.00     0.001 C 
ATOM     12  C   UNL     1      97.588  81.837  79.362  1.00  0.00     0.008 C 
BRANCH  12  13
ATOM     13  C   UNL     1      97.317  82.087  77.937  1.00  0.00    -0.022 A 
ATOM     14  C   UNL     1      98.283  81.753  76.997  1.00  0.00     0.058 A 
ATOM     15  C   UNL     1      96.094  82.655  77.569  1.00  0.00     0.012 A 
ATOM     16  C   UNL     1      97.983  82.007  75.674  1.00  0.00     0.166 A 
ATOM     17  C   UNL     1      95.817  82.901  76.222  1.00  0.00     0.051 A 
ATOM     18  O   UNL     1      98.793  81.754  74.610  1.00  0.00    -0.454 OA
ATOM     19  C   UNL     1      96.783  82.565  75.297  1.00  0.00     0.165 A 
ATOM     20  C   UNL     1      97.969  82.215  73.521  1.00  0.00     0.468 C 
ATOM     21  O   UNL     1      96.692  82.731  73.949  1.00  0.00    -0.454 OA
ENDBRANCH  12  13
ENDBRANCH   2  11
TORSDOF 3
ENDMDL
MODEL 2
REMARK VINA RESULT:    -7.205      2.765      9.493
REMARK INTER + INTRA:          -8.798
REMARK INTER:                  -8.648
REMARK INTRA:                  -0.150
REMARK UNBOUND:                -0.329
REMARK SMILES O=C(/C=C/C=C/c1ccc2c(c1)OCO2)N1CCCCC1
REMARK SMILES IDX 3 1 4 2 2 3 1 4 16 5 17 6 21 7 18 8 20 9 19 10 5 11 6 12
REMARK SMILES IDX 7 13 12 14 8 15 11 16 9 17 13 18 10 19 14 20 15 21
REMARK H PARENT
REMARK Flexibility Score: inf
ROOT
ATOM      1  C   UNL     1      96.236  82.134  77.177  1.00  0.00     0.071 C 
ATOM      2  C   UNL     1      97.180  82.174  78.116  1.00  0.00     0.006 C 
ENDROOT
BRANCH   1   3
ATOM      3  C   UNL     1      96.465  82.890  75.930  1.00  0.00     0.246 C 
ATOM      4  O   UNL     1      95.760  83.879  75.726  1.00  0.00    -0.270 OA
ATOM      5  N   UNL     1      97.458  82.432  75.065  1.00  0.00    -0.339 N 
ATOM      6  C   UNL     1      97.704  83.159  73.816  1.00  0.00     0.120 C 
ATOM      7  C   UNL     1      98.287  81.233  75.252  1.00  0.00     0.120 C 
ATOM      8  C   UNL     1      99.176  83.526  73.666  1.00  0.00     0.022 C 
ATOM      9  C   UNL     1      99.773  81.559  75.106  1.00  0.00     0.022 C 
ATOM     10  C   UNL     1     100.063  82.292  73.799  1.00  0.00     0.004 C 
ENDBRANCH   1   3
BRANCH   2  11
ATOM     11  C   UNL     1      97.047  81.466  79.371  1.00  0.00     0.001 C 
ATOM     12  C   UNL     1      96.763  82.086  80.528  1.00  0.00     0.008 C 
BRANCH  12  13
ATOM     13  C   UNL     1      96.625  81.417  81.833  1.00  0.00    -0.022 A 
ATOM     14  C   UNL     1      96.479  82.190  82.976  1.00  0.00     0.058 A 
ATOM     15  C   UNL     1      96.645  80.021  81.884  1.00  0.00     0.012 A 
ATOM     16  C   UNL     1      96.352  81.518  84.175  1.00  0.00     0.166 A 
ATOM     17  C   UNL     1      96.515  79.366  83.111  1.00  0.00     0.051 A 
ATOM     18  O   UNL     1      96.201  82.092  85.400  1.00  0.00    -0.454 OA
ATOM     19  C   UNL     1      96.370  80.144  84.240  1.00  0.00     0.165 A 
ATOM     20  C   UNL     1      96.126  80.925  86.243  1.00  0.00     0.468 C 
ATOM     21  O   UNL     1      96.232  79.685  85.514  1.00  0.00    -0.454 OA
ENDBRANCH  12  13
ENDBRANCH   2  11
TORSDOF 3
ENDMDL
MODEL 3
REMARK VINA RESULT:    -7.167      2.945      9.081
REMARK INTER + INTRA:          -8.752
REMARK INTER:                  -8.359
REMARK INTRA:                  -0.393
REMARK UNBOUND:                -0.329
REMARK SMILES O=C(/C=C/C=C/c1ccc2c(c1)OCO2)N1CCCCC1
REMARK SMILES IDX 3 1 4 2 2 3 1 4 16 5 17 6 21 7 18 8 20 9 19 10 5 11 6 12
REMARK SMILES IDX 7 13 12 14 8 15 11 16 9 17 13 18 10 19 14 20 15 21
REMARK H PARENT
REMARK Flexibility Score: inf
ROOT
ATOM      1  C   UNL     1      97.504  80.425  78.465  1.00  0.00     0.071 C 
ATOM      2  C   UNL     1      98.264  80.775  79.501  1.00  0.00     0.006 C 
ENDROOT
BRANCH   1   3
ATOM      3  C   UNL     1      98.165  80.200  77.164  1.00  0.00     0.246 C 
ATOM      4  O   UNL     1      98.784  79.146  77.015  1.00  0.00    -0.270 OA
ATOM      5  N   UNL     1      98.048  81.196  76.196  1.00  0.00    -0.339 N 
ATOM      6  C   UNL     1      98.698  81.004  74.896  1.00  0.00     0.120 C 
ATOM      7  C   UNL     1      97.357  82.485  76.353  1.00  0.00     0.120 C 
ATOM      8  C   UNL     1      97.715  81.202  73.747  1.00  0.00     0.022 C 
ATOM      9  C   UNL     1      96.363  82.722  75.216  1.00  0.00     0.022 C 
ATOM     10  C   UNL     1      97.021  82.556  73.849  1.00  0.00     0.004 C 
ENDBRANCH   1   3
BRANCH   2  11
ATOM     11  C   UNL     1      97.708  81.017  80.816  1.00  0.00     0.001 C 
ATOM     12  C   UNL     1      96.817  81.992  81.060  1.00  0.00     0.008 C 
BRANCH  12  13
ATOM     13  C   UNL     1      96.227  82.287  82.376  1.00  0.00    -0.022 A 
ATOM     14  C   UNL     1      96.117  83.608  82.787  1.00  0.00     0.058 A 
ATOM     15  C   UNL     1      95.794  81.227  83.177  1.00  0.00     0.012 A 
ATOM     16  C   UNL     1      95.558  83.833  84.028  1.00  0.00     0.166 A 
ATOM     17  C   UNL     1      95.231  81.484  84.429  1.00  0.00     0.051 A 
ATOM     18  O   UNL     1      95.365  85.050  84.608  1.00  0.00    -0.454 OA
ATOM     19  C   UNL     1      95.126  82.800  84.828  1.00  0.00     0.165 A 
ATOM     20  C   UNL     1      94.764  84.666  85.861  1.00  0.00     0.468 C 
ATOM     21  O   UNL     1      94.609  83.239  86.007  1.00  0.00    -0.454 OA
ENDBRANCH  12  13
ENDBRANCH   2  11
TORSDOF 3
ENDMDL
MODEL 4
REMARK VINA RESULT:    -6.788      2.487      3.430
REMARK INTER + INTRA:          -8.307
REMARK INTER:                  -7.906
REMARK INTRA:                  -0.402
REMARK UNBOUND:                -0.329
REMARK SMILES O=C(/C=C/C=C/c1ccc2c(c1)OCO2)N1CCCCC1
REMARK SMILES IDX 3 1 4 2 2 3 1 4 16 5 17 6 21 7 18 8 20 9 19 10 5 11 6 12
REMARK SMILES IDX 7 13 12 14 8 15 11 16 9 17 13 18 10 19 14 20 15 21
REMARK H PARENT
REMARK Flexibility Score: inf
ROOT
ATOM      1  C   UNL     1      97.860  81.005  82.375  1.00  0.00     0.071 C 
ATOM      2  C   UNL     1      96.918  81.883  82.036  1.00  0.00     0.006 C 
ENDROOT
BRANCH   1   3
ATOM      3  C   UNL     1      98.053  80.712  83.809  1.00  0.00     0.246 C 
ATOM      4  O   UNL     1      97.285  81.249  84.608  1.00  0.00    -0.270 OA
ATOM      5  N   UNL     1      99.093  79.853  84.163  1.00  0.00    -0.339 N 
ATOM      6  C   UNL     1      99.313  79.548  85.580  1.00  0.00     0.120 C 
ATOM      7  C   UNL     1     100.056  79.230  83.243  1.00  0.00     0.120 C 
ATOM      8  C   UNL     1      99.356  78.044  85.825  1.00  0.00     0.022 C 
ATOM      9  C   UNL     1     100.131  77.719  83.461  1.00  0.00     0.022 C 
ATOM     10  C   UNL     1     100.388  77.373  84.925  1.00  0.00     0.004 C 
ENDBRANCH   1   3
BRANCH   2  11
ATOM     11  C   UNL     1      96.655  82.235  80.657  1.00  0.00     0.001 C 
ATOM     12  C   UNL     1      97.376  81.751  79.633  1.00  0.00     0.008 C 
BRANCH  12  13
ATOM     13  C   UNL     1      97.157  82.082  78.215  1.00  0.00    -0.022 A 
ATOM     14  C   UNL     1      98.164  81.819  77.296  1.00  0.00     0.058 A 
ATOM     15  C   UNL     1      95.940  82.651  77.832  1.00  0.00     0.012 A 
ATOM     16  C   UNL     1      97.912  82.146  75.980  1.00  0.00     0.166 A 
ATOM     17  C   UNL     1      95.711  82.973  76.493  1.00  0.00     0.051 A 
ATOM     18  O   UNL     1      98.767  81.969  74.935  1.00  0.00    -0.454 OA
ATOM     19  C   UNL     1      96.718  82.707  75.588  1.00  0.00     0.165 A 
ATOM     20  C   UNL     1      97.977  82.482  73.843  1.00  0.00     0.468 C 
ATOM     21  O   UNL     1      96.676  82.952  74.250  1.00  0.00    -0.454 OA
ENDBRANCH  12  13
ENDBRANCH   2  11
TORSDOF 3
ENDMDL
MODEL 5
REMARK VINA RESULT:    -6.741     12.728     14.862
REMARK INTER + INTRA:          -8.252
REMARK INTER:                  -7.880
REMARK INTRA:                  -0.371
REMARK UNBOUND:                -0.329
REMARK SMILES O=C(/C=C/C=C/c1ccc2c(c1)OCO2)N1CCCCC1
REMARK SMILES IDX 3 1 4 2 2 3 1 4 16 5 17 6 21 7 18 8 20 9 19 10 5 11 6 12
REMARK SMILES IDX 7 13 12 14 8 15 11 16 9 17 13 18 10 19 14 20 15 21
REMARK H PARENT
REMARK Flexibility Score: inf
ROOT
ATOM      1  C   UNL     1      93.614  94.509  77.501  1.00  0.00     0.071 C 
ATOM      2  C   UNL     1      94.496  93.881  78.276  1.00  0.00     0.006 C 
ENDROOT
BRANCH   1   3
ATOM      3  C   UNL     1      93.066  93.779  76.340  1.00  0.00     0.246 C 
ATOM      4  O   UNL     1      93.813  93.600  75.377  1.00  0.00    -0.270 OA
ATOM      5  N   UNL     1      91.743  93.348  76.409  1.00  0.00    -0.339 N 
ATOM      6  C   UNL     1      91.170  92.625  75.269  1.00  0.00     0.120 C 
ATOM      7  C   UNL     1      90.809  93.581  77.521  1.00  0.00     0.120 C 
ATOM      8  C   UNL     1      90.548  91.302  75.703  1.00  0.00     0.022 C 
ATOM      9  C   UNL     1      90.161  92.276  77.983  1.00  0.00     0.022 C 
ATOM     10  C   UNL     1      89.531  91.516  76.819  1.00  0.00     0.004 C 
ENDBRANCH   1   3
BRANCH   2  11
ATOM     11  C   UNL     1      95.088  94.513  79.436  1.00  0.00     0.001 C 
ATOM     12  C   UNL     1      96.403  94.456  79.703  1.00  0.00     0.008 C 
BRANCH  12  13
ATOM     13  C   UNL     1      97.055  95.072  80.870  1.00  0.00    -0.022 A 
ATOM     14  C   UNL     1      98.163  94.452  81.431  1.00  0.00     0.058 A 
ATOM     15  C   UNL     1      96.540  96.266  81.382  1.00  0.00     0.012 A 
ATOM     16  C   UNL     1      98.740  95.068  82.522  1.00  0.00     0.166 A 
ATOM     17  C   UNL     1      97.144  96.868  82.488  1.00  0.00     0.051 A 
ATOM     18  O   UNL     1      99.826  94.620  83.210  1.00  0.00    -0.454 OA
ATOM     19  C   UNL     1      98.244  96.244  83.037  1.00  0.00     0.165 A 
ATOM     20  C   UNL     1      99.958  95.646  84.215  1.00  0.00     0.468 C 
ATOM     21  O   UNL     1      98.957  96.679  84.112  1.00  0.00    -0.454 OA
ENDBRANCH  12  13
ENDBRANCH   2  11
TORSDOF 3
ENDMDL
MODEL 6
REMARK VINA RESULT:    -6.724      1.004      1.684
REMARK INTER + INTRA:          -8.233
REMARK INTER:                  -7.965
REMARK INTRA:                  -0.267
REMARK UNBOUND:                -0.329
REMARK SMILES O=C(/C=C/C=C/c1ccc2c(c1)OCO2)N1CCCCC1
REMARK SMILES IDX 3 1 4 2 2 3 1 4 16 5 17 6 21 7 18 8 20 9 19 10 5 11 6 12
REMARK SMILES IDX 7 13 12 14 8 15 11 16 9 17 13 18 10 19 14 20 15 21
REMARK H PARENT
REMARK Flexibility Score: inf
ROOT
ATOM      1  C   UNL     1      97.310  80.930  82.840  1.00  0.00     0.071 C 
ATOM      2  C   UNL     1      96.761  82.022  82.311  1.00  0.00     0.006 C 
ENDROOT
BRANCH   1   3
ATOM      3  C   UNL     1      97.334  80.807  84.311  1.00  0.00     0.246 C 
ATOM      4  O   UNL     1      98.401  81.035  84.884  1.00  0.00    -0.270 OA
ATOM      5  N   UNL     1      96.153  80.438  84.952  1.00  0.00    -0.339 N 
ATOM      6  C   UNL     1      96.147  80.304  86.412  1.00  0.00     0.120 C 
ATOM      7  C   UNL     1      94.875  80.116  84.300  1.00  0.00     0.120 C 
ATOM      8  C   UNL     1      95.028  81.125  87.043  1.00  0.00     0.022 C 
ATOM      9  C   UNL     1      93.725  80.918  84.909  1.00  0.00     0.022 C 
ATOM     10  C   UNL     1      93.678  80.773  86.428  1.00  0.00     0.004 C 
ENDBRANCH   1   3
BRANCH   2  11
ATOM     11  C   UNL     1      96.691  82.232  80.881  1.00  0.00     0.001 C 
ATOM     12  C   UNL     1      97.457  81.556  80.009  1.00  0.00     0.008 C 
BRANCH  12  13
ATOM     13  C   UNL     1      97.431  81.736  78.547  1.00  0.00    -0.022 A 
ATOM     14  C   UNL     1      96.441  82.527  77.981  1.00  0.00     0.058 A 
ATOM     15  C   UNL     1      98.406  81.104  77.770  1.00  0.00     0.012 A 
ATOM     16  C   UNL     1      96.460  82.665  76.608  1.00  0.00     0.166 A 
ATOM     17  C   UNL     1      98.401  81.262  76.383  1.00  0.00     0.051 A 
ATOM     18  O   UNL     1      95.579  83.393  75.867  1.00  0.00    -0.454 OA
ATOM     19  C   UNL     1      97.413  82.050  75.830  1.00  0.00     0.165 A 
ATOM     20  C   UNL     1      96.086  83.166  74.537  1.00  0.00     0.468 C 
ATOM     21  O   UNL     1      97.250  82.315  74.505  1.00  0.00    -0.454 OA
ENDBRANCH  12  13
ENDBRANCH   2  11
TORSDOF 3
ENDMDL
MODEL 7
REMARK VINA RESULT:    -6.607     24.382     26.580
REMARK INTER + INTRA:          -8.094
REMARK INTER:                  -7.716
REMARK INTRA:                  -0.378
REMARK UNBOUND:                -0.329
REMARK SMILES O=C(/C=C/C=C/c1ccc2c(c1)OCO2)N1CCCCC1
REMARK SMILES IDX 3 1 4 2 2 3 1 4 16 5 17 6 21 7 18 8 20 9 19 10 5 11 6 12
REMARK SMILES IDX 7 13 12 14 8 15 11 16 9 17 13 18 10 19 14 20 15 21
REMARK H PARENT
REMARK Flexibility Score: inf
ROOT
ATOM      1  C   UNL     1      76.287  85.766  66.666  1.00  0.00     0.071 C 
ATOM      2  C   UNL     1      77.232  86.549  67.182  1.00  0.00     0.006 C 
ENDROOT
BRANCH   1   3
ATOM      3  C   UNL     1      76.697  84.471  66.087  1.00  0.00     0.246 C 
ATOM      4  O   UNL     1      77.871  84.128  66.235  1.00  0.00    -0.270 OA
ATOM      5  N   UNL     1      75.732  83.728  65.410  1.00  0.00    -0.339 N 
ATOM      6  C   UNL     1      76.111  82.440  64.820  1.00  0.00     0.120 C 
ATOM      7  C   UNL     1      74.336  84.124  65.176  1.00  0.00     0.120 C 
ATOM      8  C   UNL     1      75.178  81.323  65.274  1.00  0.00     0.022 C 
ATOM      9  C   UNL     1      73.367  83.026  65.616  1.00  0.00     0.022 C 
ATOM     10  C   UNL     1      73.721  81.679  64.993  1.00  0.00     0.004 C 
ENDBRANCH   1   3
BRANCH   2  11
ATOM     11  C   UNL     1      76.929  87.836  67.772  1.00  0.00     0.001 C 
ATOM     12  C   UNL     1      76.020  88.677  67.252  1.00  0.00     0.008 C 
BRANCH  12  13
ATOM     13  C   UNL     1      75.678  89.998  67.805  1.00  0.00    -0.022 A 
ATOM     14  C   UNL     1      75.620  91.092  66.953  1.00  0.00     0.058 A 
ATOM     15  C   UNL     1      75.423  90.114  69.174  1.00  0.00     0.012 A 
ATOM     16  C   UNL     1      75.295  92.309  67.518  1.00  0.00     0.166 A 
ATOM     17  C   UNL     1      75.097  91.358  69.719  1.00  0.00     0.051 A 
ATOM     18  O   UNL     1      75.189  93.493  66.855  1.00  0.00    -0.454 OA
ATOM     19  C   UNL     1      75.041  92.439  68.864  1.00  0.00     0.165 A 
ATOM     20  C   UNL     1      74.839  94.382  67.935  1.00  0.00     0.468 C 
ATOM     21  O   UNL     1      74.743  93.720  69.213  1.00  0.00    -0.454 OA
ENDBRANCH  12  13
ENDBRANCH   2  11
TORSDOF 3
ENDMDL
MODEL 8
REMARK VINA RESULT:    -6.553      1.577      2.637
REMARK INTER + INTRA:          -8.031
REMARK INTER:                  -7.712
REMARK INTRA:                  -0.319
REMARK UNBOUND:                -0.329
REMARK SMILES O=C(/C=C/C=C/c1ccc2c(c1)OCO2)N1CCCCC1
REMARK SMILES IDX 3 1 4 2 2 3 1 4 16 5 17 6 21 7 18 8 20 9 19 10 5 11 6 12
REMARK SMILES IDX 7 13 12 14 8 15 11 16 9 17 13 18 10 19 14 20 15 21
REMARK H PARENT
REMARK Flexibility Score: inf
ROOT
ATOM      1  C   UNL     1      95.050  81.601  83.874  1.00  0.00     0.071 C 
ATOM      2  C   UNL     1      96.133  82.149  83.327  1.00  0.00     0.006 C 
ENDROOT
BRANCH   1   3
ATOM      3  C   UNL     1      94.873  81.721  85.335  1.00  0.00     0.246 C 
ATOM      4  O   UNL     1      95.867  82.001  86.007  1.00  0.00    -0.270 OA
ATOM      5  N   UNL     1      93.598  81.506  85.855  1.00  0.00    -0.339 N 
ATOM      6  C   UNL     1      93.392  81.614  87.302  1.00  0.00     0.120 C 
ATOM      7  C   UNL     1      92.400  81.127  85.090  1.00  0.00     0.120 C 
ATOM      8  C   UNL     1      92.250  82.568  87.633  1.00  0.00     0.022 C 
ATOM      9  C   UNL     1      91.229  82.060  85.398  1.00  0.00     0.022 C 
ATOM     10  C   UNL     1      90.974  82.169  86.899  1.00  0.00     0.004 C 
ENDBRANCH   1   3
BRANCH   2  11
ATOM     11  C   UNL     1      96.394  82.083  81.904  1.00  0.00     0.001 C 
ATOM     12  C   UNL     1      97.463  81.453  81.390  1.00  0.00     0.008 C 
BRANCH  12  13
ATOM     13  C   UNL     1      97.780  81.362  79.955  1.00  0.00    -0.022 A 
ATOM     14  C   UNL     1      97.074  82.150  79.056  1.00  0.00     0.058 A 
ATOM     15  C   UNL     1      98.785  80.486  79.537  1.00  0.00     0.012 A 
ATOM     16  C   UNL     1      97.407  82.030  77.723  1.00  0.00     0.166 A 
ATOM     17  C   UNL     1      99.102  80.384  78.181  1.00  0.00     0.051 A 
ATOM     18  O   UNL     1      96.834  82.710  76.692  1.00  0.00    -0.454 OA
ATOM     19  C   UNL     1      98.394  81.171  77.296  1.00  0.00     0.165 A 
ATOM     20  C   UNL     1      97.570  82.183  75.570  1.00  0.00     0.468 C 
ATOM     21  O   UNL     1      98.562  81.205  75.946  1.00  0.00    -0.454 OA
ENDBRANCH  12  13
ENDBRANCH   2  11
TORSDOF 3
ENDMDL
MODEL 9
REMARK VINA RESULT:    -6.368     19.254     22.598
REMARK INTER + INTRA:          -7.814
REMARK INTER:                  -7.407
REMARK INTRA:                  -0.407
REMARK UNBOUND:                -0.329
REMARK SMILES O=C(/C=C/C=C/c1ccc2c(c1)OCO2)N1CCCCC1
REMARK SMILES IDX 3 1 4 2 2 3 1 4 16 5 17 6 21 7 18 8 20 9 19 10 5 11 6 12
REMARK SMILES IDX 7 13 12 14 8 15 11 16 9 17 13 18 10 19 14 20 15 21
REMARK H PARENT
REMARK Flexibility Score: inf
ROOT
ATOM      1  C   UNL     1      90.618  99.212  69.036  1.00  0.00     0.071 C 
ATOM      2  C   UNL     1      90.248  99.472  70.289  1.00  0.00     0.006 C 
ENDROOT
BRANCH   1   3
ATOM      3  C   UNL     1      89.580  98.769  68.084  1.00  0.00     0.246 C 
ATOM      4  O   UNL     1      89.261  97.580  68.102  1.00  0.00    -0.270 OA
ATOM      5  N   UNL     1      89.035  99.724  67.226  1.00  0.00    -0.339 N 
ATOM      6  C   UNL     1      88.007  99.313  66.266  1.00  0.00     0.120 C 
ATOM      7  C   UNL     1      89.422 101.140  67.144  1.00  0.00     0.120 C 
ATOM      8  C   UNL     1      86.764 100.190  66.371  1.00  0.00     0.022 C 
ATOM      9  C   UNL     1      88.200 102.053  67.242  1.00  0.00     0.022 C 
ATOM     10  C   UNL     1      87.124 101.666  66.233  1.00  0.00     0.004 C 
ENDBRANCH   1   3
BRANCH   2  11
ATOM     11  C   UNL     1      91.193  99.911  71.294  1.00  0.00     0.001 C 
ATOM     12  C   UNL     1      92.382  99.318  71.482  1.00  0.00     0.008 C 
BRANCH  12  13
ATOM     13  C   UNL     1      93.376  99.718  72.493  1.00  0.00    -0.022 A 
ATOM     14  C   UNL     1      94.240  98.761  73.007  1.00  0.00     0.058 A 
ATOM     15  C   UNL     1      93.420 101.051  72.908  1.00  0.00     0.012 A 
ATOM     16  C   UNL     1      95.153  99.184  73.951  1.00  0.00     0.166 A 
ATOM     17  C   UNL     1      94.355 101.452  73.866  1.00  0.00     0.051 A 
ATOM     18  O   UNL     1      96.079  98.402  74.572  1.00  0.00    -0.454 OA
ATOM     19  C   UNL     1      95.209 100.493  74.370  1.00  0.00     0.165 A 
ATOM     20  C   UNL     1      96.724  99.368  75.427  1.00  0.00     0.468 C 
ATOM     21  O   UNL     1      96.177 100.697  75.304  1.00  0.00    -0.454 OA
ENDBRANCH  12  13
ENDBRANCH   2  11
TORSDOF 3
ENDMDL
MODEL 10
REMARK VINA RESULT:    -6.319      8.784     10.374
REMARK INTER + INTRA:          -7.756
REMARK INTER:                  -7.385
REMARK INTRA:                  -0.371
REMARK UNBOUND:                -0.329
REMARK SMILES O=C(/C=C/C=C/c1ccc2c(c1)OCO2)N1CCCCC1
REMARK SMILES IDX 3 1 4 2 2 3 1 4 16 5 17 6 21 7 18 8 20 9 19 10 5 11 6 12
REMARK SMILES IDX 7 13 12 14 8 15 11 16 9 17 13 18 10 19 14 20 15 21
REMARK H PARENT
REMARK Flexibility Score: inf
ROOT
ATOM      1  C   UNL     1      94.292  85.365  88.158  1.00  0.00     0.071 C 
ATOM      2  C   UNL     1      94.220  84.769  86.970  1.00  0.00     0.006 C 
ENDROOT
BRANCH   1   3
ATOM      3  C   UNL     1      95.524  86.110  88.488  1.00  0.00     0.246 C 
ATOM      4  O   UNL     1      96.585  85.688  88.027  1.00  0.00    -0.270 OA
ATOM      5  N   UNL     1      95.404  87.236  89.302  1.00  0.00    -0.339 N 
ATOM      6  C   UNL     1      96.609  87.993  89.651  1.00  0.00     0.120 C 
ATOM      7  C   UNL     1      94.163  87.742  89.907  1.00  0.00     0.120 C 
ATOM      8  C   UNL     1      96.450  89.474  89.328  1.00  0.00     0.022 C 
ATOM      9  C   UNL     1      93.968  89.229  89.608  1.00  0.00     0.022 C 
ATOM     10  C   UNL     1      95.199  90.046  89.988  1.00  0.00     0.004 C 
ENDBRANCH   1   3
BRANCH   2  11
ATOM     11  C   UNL     1      93.055  84.016  86.556  1.00  0.00     0.001 C 
ATOM     12  C   UNL     1      92.362  83.230  87.396  1.00  0.00     0.008 C 
BRANCH  12  13
ATOM     13  C   UNL     1      91.177  82.437  87.027  1.00  0.00    -0.022 A 
ATOM     14  C   UNL     1      90.976  82.105  85.694  1.00  0.00     0.058 A 
ATOM     15  C   UNL     1      90.288  82.042  88.029  1.00  0.00     0.012 A 
ATOM     16  C   UNL     1      89.852  81.361  85.398  1.00  0.00     0.166 A 
ATOM     17  C   UNL     1      89.158  81.289  87.701  1.00  0.00     0.051 A 
ATOM     18  O   UNL     1      89.479  80.937  84.159  1.00  0.00    -0.454 OA
ATOM     19  C   UNL     1      88.967  80.964  86.374  1.00  0.00     0.165 A 
ATOM     20  C   UNL     1      88.261  80.230  84.465  1.00  0.00     0.468 C 
ATOM     21  O   UNL     1      87.930  80.242  85.869  1.00  0.00    -0.454 OA
ENDBRANCH  12  13
ENDBRANCH   2  11
TORSDOF 3
ENDMDL
