MODEL 1
REMARK VINA RESULT:    -5.561      0.000      0.000
REMARK INTER + INTRA:         -10.673
REMARK INTER:                  -9.136
REMARK INTRA:                  -1.536
REMARK UNBOUND:                -1.536
REMARK SMILES CCCCC[C@H](O)CC(=O)CCc1ccc(O)c(OC)c1
REMARK SMILES IDX 8 1 6 2 7 3 5 5 4 6 3 7 2 8 1 9 9 10 10 11 11 12 12 13 13 14
REMARK SMILES IDX 21 15 14 16 18 17 15 18 16 19 19 20 20 21 17 22
REMARK H PARENT 7 4 17 23
REMARK Flexibility Score: inf
ROOT
ATOM      1  C   UNL     1      94.027  98.113  76.115  1.00  0.00     0.107 C 
ENDROOT
BRANCH   1   2
ATOM      2  C   UNL     1      94.021  96.645  75.683  1.00  0.00     0.121 C 
BRANCH   2   3
ATOM      3  O   UNL     1      95.127  96.390  74.821  1.00  0.00    -0.393 OA
ATOM      4  H   UNL     1      94.884  96.691  73.928  1.00  0.00     0.210 HD
ENDBRANCH   2   3
BRANCH   2   5
ATOM      5  C   UNL     1      94.067  95.670  76.866  1.00  0.00     0.032 C 
BRANCH   5   6
ATOM      6  C   UNL     1      92.901  95.887  77.838  1.00  0.00     0.003 C 
BRANCH   6   7
ATOM      7  C   UNL     1      91.526  95.716  77.183  1.00  0.00    -0.000 C 
BRANCH   7   8
ATOM      8  C   UNL     1      90.768  94.481  77.666  1.00  0.00    -0.003 C 
ATOM      9  C   UNL     1      89.264  94.705  77.632  1.00  0.00     0.004 C 
ENDBRANCH   7   8
ENDBRANCH   6   7
ENDBRANCH   5   6
ENDBRANCH   2   5
ENDBRANCH   1   2
BRANCH   1  10
ATOM     10  C   UNL     1      95.411  98.617  76.490  1.00  0.00     0.135 C 
ATOM     11  O   UNL     1      96.250  98.867  75.624  1.00  0.00    -0.300 OA
BRANCH  10  12
ATOM     12  C   UNL     1      95.680  98.835  77.971  1.00  0.00     0.080 C 
BRANCH  12  13
ATOM     13  C   UNL     1      96.605  97.785  78.590  1.00  0.00     0.043 C 
BRANCH  13  14
ATOM     14  C   UNL     1      96.106  97.264  79.917  1.00  0.00    -0.044 A 
ATOM     15  C   UNL     1      96.114  95.894  80.176  1.00  0.00     0.054 A 
ATOM     16  C   UNL     1      95.637  98.155  80.883  1.00  0.00     0.008 A 
ATOM     17  C   UNL     1      95.654  95.414  81.402  1.00  0.00     0.160 A 
ATOM     18  C   UNL     1      95.177  97.675  82.109  1.00  0.00     0.050 A 
ATOM     19  C   UNL     1      95.185  96.305  82.369  1.00  0.00     0.157 A 
BRANCH  17  20
ATOM     20  O   UNL     1      95.666  94.073  81.644  1.00  0.00    -0.493 OA
ATOM     21  C   UNL     1      95.011  93.237  80.692  1.00  0.00     0.278 C 
ENDBRANCH  17  20
BRANCH  19  22
ATOM     22  O   UNL     1      94.733  95.848  83.569  1.00  0.00    -0.504 OA
ATOM     23  H   UNL     1      95.141  94.984  83.754  1.00  0.00     0.293 HD
ENDBRANCH  19  22
ENDBRANCH  13  14
ENDBRANCH  12  13
ENDBRANCH  10  12
ENDBRANCH   1  10
TORSDOF 12
ENDMDL
MODEL 2
REMARK VINA RESULT:    -5.465     22.237     26.287
REMARK INTER + INTRA:         -10.516
REMARK INTER:                  -9.188
REMARK INTRA:                  -1.328
REMARK UNBOUND:                -1.536
REMARK SMILES CCCCC[C@H](O)CC(=O)CCc1ccc(O)c(OC)c1
REMARK SMILES IDX 8 1 6 2 7 3 5 5 4 6 3 7 2 8 1 9 9 10 10 11 11 12 12 13 13 14
REMARK SMILES IDX 21 15 14 16 18 17 15 18 16 19 19 20 20 21 17 22
REMARK H PARENT 7 4 17 23
REMARK Flexibility Score: inf
ROOT
ATOM      1  C   UNL     1      77.962  85.380  67.702  1.00  0.00     0.107 C 
ENDROOT
BRANCH   1   2
ATOM      2  C   UNL     1      77.873  84.773  69.105  1.00  0.00     0.121 C 
BRANCH   2   3
ATOM      3  O   UNL     1      78.236  85.750  70.078  1.00  0.00    -0.393 OA
ATOM      4  H   UNL     1      78.995  86.250  69.729  1.00  0.00     0.210 HD
ENDBRANCH   2   3
BRANCH   2   5
ATOM      5  C   UNL     1      76.479  84.227  69.434  1.00  0.00     0.032 C 
BRANCH   5   6
ATOM      6  C   UNL     1      75.783  85.043  70.530  1.00  0.00     0.003 C 
BRANCH   6   7
ATOM      7  C   UNL     1      74.728  86.012  69.987  1.00  0.00    -0.000 C 
BRANCH   7   8
ATOM      8  C   UNL     1      74.737  87.376  70.674  1.00  0.00    -0.003 C 
ATOM      9  C   UNL     1      75.882  88.242  70.172  1.00  0.00     0.004 C 
ENDBRANCH   7   8
ENDBRANCH   6   7
ENDBRANCH   5   6
ENDBRANCH   2   5
ENDBRANCH   1   2
BRANCH   1  10
ATOM     10  C   UNL     1      78.032  84.333  66.603  1.00  0.00     0.135 C 
ATOM     11  O   UNL     1      78.714  83.317  66.739  1.00  0.00    -0.300 OA
BRANCH  10  12
ATOM     12  C   UNL     1      77.185  84.586  65.365  1.00  0.00     0.080 C 
BRANCH  12  13
ATOM     13  C   UNL     1      75.710  84.851  65.672  1.00  0.00     0.043 C 
BRANCH  13  14
ATOM     14  C   UNL     1      74.862  83.602  65.625  1.00  0.00    -0.044 A 
ATOM     15  C   UNL     1      73.596  83.595  66.209  1.00  0.00     0.054 A 
ATOM     16  C   UNL     1      75.347  82.454  64.995  1.00  0.00     0.008 A 
ATOM     17  C   UNL     1      72.814  82.441  66.164  1.00  0.00     0.160 A 
ATOM     18  C   UNL     1      74.564  81.300  64.950  1.00  0.00     0.050 A 
ATOM     19  C   UNL     1      73.298  81.294  65.535  1.00  0.00     0.157 A 
BRANCH  17  20
ATOM     20  O   UNL     1      71.579  82.446  66.739  1.00  0.00    -0.493 OA
ATOM     21  C   UNL     1      70.518  83.037  65.991  1.00  0.00     0.278 C 
ENDBRANCH  17  20
BRANCH  19  22
ATOM     22  O   UNL     1      72.543  80.161  65.484  1.00  0.00    -0.504 OA
ATOM     23  H   UNL     1      72.992  79.506  64.923  1.00  0.00     0.293 HD
ENDBRANCH  19  22
ENDBRANCH  13  14
ENDBRANCH  12  13
ENDBRANCH  10  12
ENDBRANCH   1  10
TORSDOF 12
ENDMDL
MODEL 3
REMARK VINA RESULT:    -5.463     22.113     26.581
REMARK INTER + INTRA:         -10.513
REMARK INTER:                  -9.424
REMARK INTRA:                  -1.088
REMARK UNBOUND:                -1.536
REMARK SMILES CCCCC[C@H](O)CC(=O)CCc1ccc(O)c(OC)c1
REMARK SMILES IDX 8 1 6 2 7 3 5 5 4 6 3 7 2 8 1 9 9 10 10 11 11 12 12 13 13 14
REMARK SMILES IDX 21 15 14 16 18 17 15 18 16 19 19 20 20 21 17 22
REMARK H PARENT 7 4 17 23
REMARK Flexibility Score: inf
ROOT
ATOM      1  C   UNL     1      77.796  85.900  66.891  1.00  0.00     0.107 C 
ENDROOT
BRANCH   1   2
ATOM      2  C   UNL     1      77.657  85.800  68.412  1.00  0.00     0.121 C 
BRANCH   2   3
ATOM      3  O   UNL     1      78.885  85.352  68.981  1.00  0.00    -0.393 OA
ATOM      4  H   UNL     1      79.599  85.568  68.356  1.00  0.00     0.210 HD
ENDBRANCH   2   3
BRANCH   2   5
ATOM      5  C   UNL     1      77.252  87.126  69.066  1.00  0.00     0.032 C 
BRANCH   5   6
ATOM      6  C   UNL     1      76.013  86.974  69.957  1.00  0.00     0.003 C 
BRANCH   6   7
ATOM      7  C   UNL     1      75.366  85.589  69.866  1.00  0.00    -0.000 C 
BRANCH   7   8
ATOM      8  C   UNL     1      75.393  84.812  71.181  1.00  0.00    -0.003 C 
ATOM      9  C   UNL     1      76.546  83.820  71.214  1.00  0.00     0.004 C 
ENDBRANCH   7   8
ENDBRANCH   6   7
ENDBRANCH   5   6
ENDBRANCH   2   5
ENDBRANCH   1   2
BRANCH   1  10
ATOM     10  C   UNL     1      76.969  84.863  66.148  1.00  0.00     0.135 C 
ATOM     11  O   UNL     1      76.613  85.052  64.985  1.00  0.00    -0.300 OA
BRANCH  10  12
ATOM     12  C   UNL     1      76.652  83.578  66.898  1.00  0.00     0.080 C 
BRANCH  12  13
ATOM     13  C   UNL     1      77.070  82.310  66.151  1.00  0.00     0.043 C 
BRANCH  13  14
ATOM     14  C   UNL     1      75.962  81.729  65.305  1.00  0.00    -0.044 A 
ATOM     15  C   UNL     1      74.685  81.571  65.842  1.00  0.00     0.054 A 
ATOM     16  C   UNL     1      76.218  81.350  63.987  1.00  0.00     0.008 A 
ATOM     17  C   UNL     1      73.662  81.035  65.059  1.00  0.00     0.160 A 
ATOM     18  C   UNL     1      75.195  80.814  63.204  1.00  0.00     0.050 A 
ATOM     19  C   UNL     1      73.917  80.656  63.741  1.00  0.00     0.157 A 
BRANCH  17  20
ATOM     20  O   UNL     1      72.418  80.884  65.594  1.00  0.00    -0.493 OA
ATOM     21  C   UNL     1      71.849  82.021  66.241  1.00  0.00     0.278 C 
ENDBRANCH  17  20
BRANCH  19  22
ATOM     22  O   UNL     1      72.927  80.131  62.967  1.00  0.00    -0.504 OA
ATOM     23  H   UNL     1      73.318  79.770  62.153  1.00  0.00     0.293 HD
ENDBRANCH  19  22
ENDBRANCH  13  14
ENDBRANCH  12  13
ENDBRANCH  10  12
ENDBRANCH   1  10
TORSDOF 12
ENDMDL
MODEL 4
REMARK VINA RESULT:    -5.392      1.083      2.118
REMARK INTER + INTRA:         -10.396
REMARK INTER:                  -8.753
REMARK INTRA:                  -1.643
REMARK UNBOUND:                -1.536
REMARK SMILES CCCCC[C@H](O)CC(=O)CCc1ccc(O)c(OC)c1
REMARK SMILES IDX 8 1 6 2 7 3 5 5 4 6 3 7 2 8 1 9 9 10 10 11 11 12 12 13 13 14
REMARK SMILES IDX 21 15 14 16 18 17 15 18 16 19 19 20 20 21 17 22
REMARK H PARENT 7 4 17 23
REMARK Flexibility Score: inf
ROOT
ATOM      1  C   UNL     1      94.311  98.311  76.116  1.00  0.00     0.107 C 
ENDROOT
BRANCH   1   2
ATOM      2  C   UNL     1      94.287  97.003  75.322  1.00  0.00     0.121 C 
BRANCH   2   3
ATOM      3  O   UNL     1      95.539  96.811  74.668  1.00  0.00    -0.393 OA
ATOM      4  H   UNL     1      95.580  97.429  73.917  1.00  0.00     0.210 HD
ENDBRANCH   2   3
BRANCH   2   5
ATOM      5  C   UNL     1      93.980  95.778  76.193  1.00  0.00     0.032 C 
BRANCH   5   6
ATOM      6  C   UNL     1      92.721  95.978  77.045  1.00  0.00     0.003 C 
BRANCH   6   7
ATOM      7  C   UNL     1      92.837  95.377  78.450  1.00  0.00    -0.000 C 
BRANCH   7   8
ATOM      8  C   UNL     1      91.810  94.282  78.734  1.00  0.00    -0.003 C 
ATOM      9  C   UNL     1      91.588  93.401  77.514  1.00  0.00     0.004 C 
ENDBRANCH   7   8
ENDBRANCH   6   7
ENDBRANCH   5   6
ENDBRANCH   2   5
ENDBRANCH   1   2
BRANCH   1  10
ATOM     10  C   UNL     1      95.603  98.513  76.892  1.00  0.00     0.135 C 
ATOM     11  O   UNL     1      96.624  98.909  76.328  1.00  0.00    -0.300 OA
BRANCH  10  12
ATOM     12  C   UNL     1      95.550  98.246  78.388  1.00  0.00     0.080 C 
BRANCH  12  13
ATOM     13  C   UNL     1      96.682  97.350  78.893  1.00  0.00     0.043 C 
BRANCH  13  14
ATOM     14  C   UNL     1      96.255  96.433  80.015  1.00  0.00    -0.044 A 
ATOM     15  C   UNL     1      95.930  96.963  81.264  1.00  0.00     0.054 A 
ATOM     16  C   UNL     1      96.186  95.056  79.802  1.00  0.00     0.008 A 
ATOM     17  C   UNL     1      95.536  96.115  82.299  1.00  0.00     0.160 A 
ATOM     18  C   UNL     1      95.792  94.208  80.837  1.00  0.00     0.050 A 
ATOM     19  C   UNL     1      95.467  94.738  82.086  1.00  0.00     0.157 A 
BRANCH  17  20
ATOM     20  O   UNL     1      95.221  96.644  83.515  1.00  0.00    -0.493 OA
ATOM     21  C   UNL     1      96.202  97.474  84.134  1.00  0.00     0.278 C 
ENDBRANCH  17  20
BRANCH  19  22
ATOM     22  O   UNL     1      95.083  93.900  83.089  1.00  0.00    -0.504 OA
ATOM     23  H   UNL     1      94.541  94.397  83.726  1.00  0.00     0.293 HD
ENDBRANCH  19  22
ENDBRANCH  13  14
ENDBRANCH  12  13
ENDBRANCH  10  12
ENDBRANCH   1  10
TORSDOF 12
ENDMDL
MODEL 5
REMARK VINA RESULT:    -5.364     32.296     35.065
REMARK INTER + INTRA:         -10.349
REMARK INTER:                  -8.355
REMARK INTRA:                  -1.994
REMARK UNBOUND:                -1.536
REMARK SMILES CCCCC[C@H](O)CC(=O)CCc1ccc(O)c(OC)c1
REMARK SMILES IDX 8 1 6 2 7 3 5 5 4 6 3 7 2 8 1 9 9 10 10 11 11 12 12 13 13 14
REMARK SMILES IDX 21 15 14 16 18 17 15 18 16 19 19 20 20 21 17 22
REMARK H PARENT 7 4 17 23
REMARK Flexibility Score: inf
ROOT
ATOM      1  C   UNL     1      63.757  84.277  69.507  1.00  0.00     0.107 C 
ENDROOT
BRANCH   1   2
ATOM      2  C   UNL     1      62.439  83.741  68.943  1.00  0.00     0.121 C 
BRANCH   2   3
ATOM      3  O   UNL     1      62.438  82.316  68.988  1.00  0.00    -0.393 OA
ATOM      4  H   UNL     1      61.646  82.004  68.516  1.00  0.00     0.210 HD
ENDBRANCH   2   3
BRANCH   2   5
ATOM      5  C   UNL     1      61.208  84.271  69.688  1.00  0.00     0.032 C 
BRANCH   5   6
ATOM      6  C   UNL     1      61.505  84.549  71.167  1.00  0.00     0.003 C 
BRANCH   6   7
ATOM      7  C   UNL     1      60.285  84.361  72.075  1.00  0.00    -0.000 C 
BRANCH   7   8
ATOM      8  C   UNL     1      58.971  84.802  71.435  1.00  0.00    -0.003 C 
ATOM      9  C   UNL     1      58.726  86.289  71.638  1.00  0.00     0.004 C 
ENDBRANCH   7   8
ENDBRANCH   6   7
ENDBRANCH   5   6
ENDBRANCH   2   5
ENDBRANCH   1   2
BRANCH   1  10
ATOM     10  C   UNL     1      64.896  83.274  69.415  1.00  0.00     0.135 C 
ATOM     11  O   UNL     1      65.275  82.845  68.326  1.00  0.00    -0.300 OA
BRANCH  10  12
ATOM     12  C   UNL     1      65.560  82.874  70.724  1.00  0.00     0.080 C 
BRANCH  12  13
ATOM     13  C   UNL     1      64.898  81.676  71.408  1.00  0.00     0.043 C 
BRANCH  13  14
ATOM     14  C   UNL     1      63.997  82.073  72.554  1.00  0.00    -0.044 A 
ATOM     15  C   UNL     1      64.268  83.227  73.288  1.00  0.00     0.054 A 
ATOM     16  C   UNL     1      62.893  81.283  72.877  1.00  0.00     0.008 A 
ATOM     17  C   UNL     1      63.435  83.592  74.346  1.00  0.00     0.160 A 
ATOM     18  C   UNL     1      62.059  81.648  73.934  1.00  0.00     0.050 A 
ATOM     19  C   UNL     1      62.331  82.803  74.669  1.00  0.00     0.157 A 
BRANCH  17  20
ATOM     20  O   UNL     1      63.710  84.721  75.056  1.00  0.00    -0.493 OA
ATOM     21  C   UNL     1      64.938  85.387  74.766  1.00  0.00     0.278 C 
ENDBRANCH  17  20
BRANCH  19  22
ATOM     22  O   UNL     1      61.510  83.149  75.699  1.00  0.00    -0.504 OA
ATOM     23  H   UNL     1      62.052  83.363  76.478  1.00  0.00     0.293 HD
ENDBRANCH  19  22
ENDBRANCH  13  14
ENDBRANCH  12  13
ENDBRANCH  10  12
ENDBRANCH   1  10
TORSDOF 12
ENDMDL
MODEL 6
REMARK VINA RESULT:    -5.168     13.211     15.394
REMARK INTER + INTRA:         -10.028
REMARK INTER:                  -9.137
REMARK INTRA:                  -0.891
REMARK UNBOUND:                -1.536
REMARK SMILES CCCCC[C@H](O)CC(=O)CCc1ccc(O)c(OC)c1
REMARK SMILES IDX 8 1 6 2 7 3 5 5 4 6 3 7 2 8 1 9 9 10 10 11 11 12 12 13 13 14
REMARK SMILES IDX 21 15 14 16 18 17 15 18 16 19 19 20 20 21 17 22
REMARK H PARENT 7 4 17 23
REMARK Flexibility Score: inf
ROOT
ATOM      1  C   UNL     1      97.250  83.073  84.684  1.00  0.00     0.107 C 
ENDROOT
BRANCH   1   2
ATOM      2  C   UNL     1      97.401  84.128  85.783  1.00  0.00     0.121 C 
BRANCH   2   3
ATOM      3  O   UNL     1      98.205  85.207  85.310  1.00  0.00    -0.393 OA
ATOM      4  H   UNL     1      99.138  84.949  85.409  1.00  0.00     0.210 HD
ENDBRANCH   2   3
BRANCH   2   5
ATOM      5  C   UNL     1      96.057  84.678  86.276  1.00  0.00     0.032 C 
BRANCH   5   6
ATOM      6  C   UNL     1      95.376  83.729  87.269  1.00  0.00     0.003 C 
BRANCH   6   7
ATOM      7  C   UNL     1      93.951  84.155  87.636  1.00  0.00    -0.000 C 
BRANCH   7   8
ATOM      8  C   UNL     1      92.920  83.038  87.489  1.00  0.00    -0.003 C 
ATOM      9  C   UNL     1      93.420  81.942  86.560  1.00  0.00     0.004 C 
ENDBRANCH   7   8
ENDBRANCH   6   7
ENDBRANCH   5   6
ENDBRANCH   2   5
ENDBRANCH   1   2
BRANCH   1  10
ATOM     10  C   UNL     1      98.580  82.506  84.215  1.00  0.00     0.135 C 
ATOM     11  O   UNL     1      99.574  82.541  84.941  1.00  0.00    -0.300 OA
BRANCH  10  12
ATOM     12  C   UNL     1      98.600  81.862  82.837  1.00  0.00     0.080 C 
BRANCH  12  13
ATOM     13  C   UNL     1      99.570  82.529  81.861  1.00  0.00     0.043 C 
BRANCH  13  14
ATOM     14  C   UNL     1      98.930  82.885  80.540  1.00  0.00    -0.044 A 
ATOM     15  C   UNL     1      99.640  82.712  79.352  1.00  0.00     0.054 A 
ATOM     16  C   UNL     1      97.629  83.386  80.509  1.00  0.00     0.008 A 
ATOM     17  C   UNL     1      99.047  83.040  78.132  1.00  0.00     0.160 A 
ATOM     18  C   UNL     1      97.036  83.713  79.289  1.00  0.00     0.050 A 
ATOM     19  C   UNL     1      97.746  83.541  78.101  1.00  0.00     0.157 A 
BRANCH  17  20
ATOM     20  O   UNL     1      99.751  82.868  76.978  1.00  0.00    -0.493 OA
ATOM     21  C   UNL     1     100.728  83.857  76.661  1.00  0.00     0.278 C 
ENDBRANCH  17  20
BRANCH  19  22
ATOM     22  O   UNL     1      97.156  83.864  76.917  1.00  0.00    -0.504 OA
ATOM     23  H   UNL     1      96.192  83.771  77.006  1.00  0.00     0.293 HD
ENDBRANCH  19  22
ENDBRANCH  13  14
ENDBRANCH  12  13
ENDBRANCH  10  12
ENDBRANCH   1  10
TORSDOF 12
ENDMDL
MODEL 7
REMARK VINA RESULT:    -5.168     21.909     24.606
REMARK INTER + INTRA:         -10.027
REMARK INTER:                  -9.103
REMARK INTRA:                  -0.924
REMARK UNBOUND:                -1.536
REMARK SMILES CCCCC[C@H](O)CC(=O)CCc1ccc(O)c(OC)c1
REMARK SMILES IDX 8 1 6 2 7 3 5 5 4 6 3 7 2 8 1 9 9 10 10 11 11 12 12 13 13 14
REMARK SMILES IDX 21 15 14 16 18 17 15 18 16 19 19 20 20 21 17 22
REMARK H PARENT 7 4 17 23
REMARK Flexibility Score: inf
ROOT
ATOM      1  C   UNL     1      76.419  83.641  68.030  1.00  0.00     0.107 C 
ENDROOT
BRANCH   1   2
ATOM      2  C   UNL     1      75.954  83.620  66.572  1.00  0.00     0.121 C 
BRANCH   2   3
ATOM      3  O   UNL     1      76.493  84.741  65.876  1.00  0.00    -0.393 OA
ATOM      4  H   UNL     1      77.038  84.403  65.144  1.00  0.00     0.210 HD
ENDBRANCH   2   3
BRANCH   2   5
ATOM      5  C   UNL     1      76.345  82.333  65.835  1.00  0.00     0.032 C 
BRANCH   5   6
ATOM      6  C   UNL     1      75.338  81.202  66.077  1.00  0.00     0.003 C 
BRANCH   6   7
ATOM      7  C   UNL     1      74.079  81.316  65.213  1.00  0.00    -0.000 C 
BRANCH   7   8
ATOM      8  C   UNL     1      74.272  80.820  63.781  1.00  0.00    -0.003 C 
ATOM      9  C   UNL     1      73.056  80.047  63.293  1.00  0.00     0.004 C 
ENDBRANCH   7   8
ENDBRANCH   6   7
ENDBRANCH   5   6
ENDBRANCH   2   5
ENDBRANCH   1   2
BRANCH   1  10
ATOM     10  C   UNL     1      77.779  84.297  68.212  1.00  0.00     0.135 C 
ATOM     11  O   UNL     1      78.717  84.027  67.462  1.00  0.00    -0.300 OA
BRANCH  10  12
ATOM     12  C   UNL     1      77.896  85.324  69.328  1.00  0.00     0.080 C 
BRANCH  12  13
ATOM     13  C   UNL     1      77.510  86.742  68.902  1.00  0.00     0.043 C 
BRANCH  13  14
ATOM     14  C   UNL     1      76.357  87.305  69.697  1.00  0.00    -0.044 A 
ATOM     15  C   UNL     1      76.349  88.653  70.056  1.00  0.00     0.054 A 
ATOM     16  C   UNL     1      75.299  86.477  70.073  1.00  0.00     0.008 A 
ATOM     17  C   UNL     1      75.282  89.173  70.790  1.00  0.00     0.160 A 
ATOM     18  C   UNL     1      74.232  86.996  70.807  1.00  0.00     0.050 A 
ATOM     19  C   UNL     1      74.224  88.344  71.166  1.00  0.00     0.157 A 
BRANCH  17  20
ATOM     20  O   UNL     1      75.285  90.491  71.134  1.00  0.00    -0.493 OA
ATOM     21  C   UNL     1      74.906  91.425  70.126  1.00  0.00     0.278 C 
ENDBRANCH  17  20
BRANCH  19  22
ATOM     22  O   UNL     1      73.178  88.840  71.882  1.00  0.00    -0.504 OA
ATOM     23  H   UNL     1      72.418  88.967  71.288  1.00  0.00     0.293 HD
ENDBRANCH  19  22
ENDBRANCH  13  14
ENDBRANCH  12  13
ENDBRANCH  10  12
ENDBRANCH   1  10
TORSDOF 12
ENDMDL
MODEL 8
REMARK VINA RESULT:    -5.092      6.464     10.392
REMARK INTER + INTRA:          -9.902
REMARK INTER:                  -8.925
REMARK INTRA:                  -0.977
REMARK UNBOUND:                -1.536
REMARK SMILES CCCCC[C@H](O)CC(=O)CCc1ccc(O)c(OC)c1
REMARK SMILES IDX 8 1 6 2 7 3 5 5 4 6 3 7 2 8 1 9 9 10 10 11 11 12 12 13 13 14
REMARK SMILES IDX 21 15 14 16 18 17 15 18 16 19 19 20 20 21 17 22
REMARK H PARENT 7 4 17 23
REMARK Flexibility Score: inf
ROOT
ATOM      1  C   UNL     1      93.191 100.309  73.007  1.00  0.00     0.107 C 
ENDROOT
BRANCH   1   2
ATOM      2  C   UNL     1      93.586 100.509  74.472  1.00  0.00     0.121 C 
BRANCH   2   3
ATOM      3  O   UNL     1      92.474 101.017  75.207  1.00  0.00    -0.393 OA
ATOM      4  H   UNL     1      92.740 101.084  76.140  1.00  0.00     0.210 HD
ENDBRANCH   2   3
BRANCH   2   5
ATOM      5  C   UNL     1      94.087  99.223  75.140  1.00  0.00     0.032 C 
BRANCH   5   6
ATOM      6  C   UNL     1      92.961  98.203  75.344  1.00  0.00     0.003 C 
BRANCH   6   7
ATOM      7  C   UNL     1      93.310  97.109  76.358  1.00  0.00    -0.000 C 
BRANCH   7   8
ATOM      8  C   UNL     1      92.262  96.001  76.449  1.00  0.00    -0.003 C 
ATOM      9  C   UNL     1      91.253  96.281  77.552  1.00  0.00     0.004 C 
ENDBRANCH   7   8
ENDBRANCH   6   7
ENDBRANCH   5   6
ENDBRANCH   2   5
ENDBRANCH   1   2
BRANCH   1  10
ATOM     10  C   UNL     1      92.180 101.333  72.517  1.00  0.00     0.135 C 
ATOM     11  O   UNL     1      92.435 102.537  72.543  1.00  0.00    -0.300 OA
BRANCH  10  12
ATOM     12  C   UNL     1      90.874 100.788  71.959  1.00  0.00     0.080 C 
BRANCH  12  13
ATOM     13  C   UNL     1      90.813  99.260  71.917  1.00  0.00     0.043 C 
BRANCH  13  14
ATOM     14  C   UNL     1      90.096  98.730  70.698  1.00  0.00    -0.044 A 
ATOM     15  C   UNL     1      89.422  99.606  69.848  1.00  0.00     0.054 A 
ATOM     16  C   UNL     1      90.110  97.362  70.423  1.00  0.00     0.008 A 
ATOM     17  C   UNL     1      88.761  99.115  68.722  1.00  0.00     0.160 A 
ATOM     18  C   UNL     1      89.449  96.870  69.297  1.00  0.00     0.050 A 
ATOM     19  C   UNL     1      88.775  97.747  68.447  1.00  0.00     0.157 A 
BRANCH  17  20
ATOM     20  O   UNL     1      88.106  99.980  67.900  1.00  0.00    -0.493 OA
ATOM     21  C   UNL     1      88.651 101.292  67.773  1.00  0.00     0.278 C 
ENDBRANCH  17  20
BRANCH  19  22
ATOM     22  O   UNL     1      88.133  97.255  67.350  1.00  0.00    -0.504 OA
ATOM     23  H   UNL     1      87.422  97.869  67.098  1.00  0.00     0.293 HD
ENDBRANCH  19  22
ENDBRANCH  13  14
ENDBRANCH  12  13
ENDBRANCH  10  12
ENDBRANCH   1  10
TORSDOF 12
ENDMDL
MODEL 9
REMARK VINA RESULT:    -5.001     23.095     24.831
REMARK INTER + INTRA:          -9.753
REMARK INTER:                  -8.056
REMARK INTRA:                  -1.698
REMARK UNBOUND:                -1.536
REMARK SMILES CCCCC[C@H](O)CC(=O)CCc1ccc(O)c(OC)c1
REMARK SMILES IDX 8 1 6 2 7 3 5 5 4 6 3 7 2 8 1 9 9 10 10 11 11 12 12 13 13 14
REMARK SMILES IDX 21 15 14 16 18 17 15 18 16 19 19 20 20 21 17 22
REMARK H PARENT 7 4 17 23
REMARK Flexibility Score: inf
ROOT
ATOM      1  C   UNL     1      75.552  85.265  64.883  1.00  0.00     0.107 C 
ENDROOT
BRANCH   1   2
ATOM      2  C   UNL     1      76.387  84.183  64.193  1.00  0.00     0.121 C 
BRANCH   2   3
ATOM      3  O   UNL     1      77.487  84.782  63.512  1.00  0.00    -0.393 OA
ATOM      4  H   UNL     1      77.819  85.511  64.066  1.00  0.00     0.210 HD
ENDBRANCH   2   3
BRANCH   2   5
ATOM      5  C   UNL     1      76.913  83.120  65.165  1.00  0.00     0.032 C 
BRANCH   5   6
ATOM      6  C   UNL     1      75.902  82.800  66.272  1.00  0.00     0.003 C 
BRANCH   6   7
ATOM      7  C   UNL     1      75.359  81.369  66.202  1.00  0.00    -0.000 C 
BRANCH   7   8
ATOM      8  C   UNL     1      74.775  81.002  64.839  1.00  0.00    -0.003 C 
ATOM      9  C   UNL     1      73.255  80.972  64.876  1.00  0.00     0.004 C 
ENDBRANCH   7   8
ENDBRANCH   6   7
ENDBRANCH   5   6
ENDBRANCH   2   5
ENDBRANCH   1   2
BRANCH   1  10
ATOM     10  C   UNL     1      76.134  86.660  64.721  1.00  0.00     0.135 C 
ATOM     11  O   UNL     1      76.197  87.195  63.615  1.00  0.00    -0.300 OA
BRANCH  10  12
ATOM     12  C   UNL     1      76.584  87.362  65.993  1.00  0.00     0.080 C 
BRANCH  12  13
ATOM     13  C   UNL     1      77.677  86.612  66.756  1.00  0.00     0.043 C 
BRANCH  13  14
ATOM     14  C   UNL     1      77.185  86.001  68.047  1.00  0.00    -0.044 A 
ATOM     15  C   UNL     1      76.199  86.647  68.794  1.00  0.00     0.054 A 
ATOM     16  C   UNL     1      77.716  84.790  68.492  1.00  0.00     0.008 A 
ATOM     17  C   UNL     1      75.745  86.081  69.985  1.00  0.00     0.160 A 
ATOM     18  C   UNL     1      77.262  84.224  69.683  1.00  0.00     0.050 A 
ATOM     19  C   UNL     1      76.276  84.870  70.430  1.00  0.00     0.157 A 
BRANCH  17  20
ATOM     20  O   UNL     1      74.783  86.721  70.706  1.00  0.00    -0.493 OA
ATOM     21  C   UNL     1      74.870  88.143  70.785  1.00  0.00     0.278 C 
ENDBRANCH  17  20
BRANCH  19  22
ATOM     22  O   UNL     1      75.841  84.308  71.591  1.00  0.00    -0.504 OA
ATOM     23  H   UNL     1      76.590  83.873  72.033  1.00  0.00     0.293 HD
ENDBRANCH  19  22
ENDBRANCH  13  14
ENDBRANCH  12  13
ENDBRANCH  10  12
ENDBRANCH   1  10
TORSDOF 12
ENDMDL
MODEL 10
REMARK VINA RESULT:    -4.973      4.225      5.546
REMARK INTER + INTRA:          -9.708
REMARK INTER:                  -8.943
REMARK INTRA:                  -0.765
REMARK UNBOUND:                -1.536
REMARK SMILES CCCCC[C@H](O)CC(=O)CCc1ccc(O)c(OC)c1
REMARK SMILES IDX 8 1 6 2 7 3 5 5 4 6 3 7 2 8 1 9 9 10 10 11 11 12 12 13 13 14
REMARK SMILES IDX 21 15 14 16 18 17 15 18 16 19 19 20 20 21 17 22
REMARK H PARENT 7 4 17 23
REMARK Flexibility Score: inf
ROOT
ATOM      1  C   UNL     1      92.521 100.731  74.027  1.00  0.00     0.107 C 
ENDROOT
BRANCH   1   2
ATOM      2  C   UNL     1      92.351 100.765  72.506  1.00  0.00     0.121 C 
BRANCH   2   3
ATOM      3  O   UNL     1      93.384 100.003  71.886  1.00  0.00    -0.393 OA
ATOM      4  H   UNL     1      93.284  99.079  72.172  1.00  0.00     0.210 HD
ENDBRANCH   2   3
BRANCH   2   5
ATOM      5  C   UNL     1      90.987 100.238  72.043  1.00  0.00     0.032 C 
BRANCH   5   6
ATOM      6  C   UNL     1      91.086  99.468  70.720  1.00  0.00     0.003 C 
BRANCH   6   7
ATOM      7  C   UNL     1      89.979  98.425  70.541  1.00  0.00    -0.000 C 
BRANCH   7   8
ATOM      8  C   UNL     1      88.662  99.011  70.035  1.00  0.00    -0.003 C 
ATOM      9  C   UNL     1      88.440  98.689  68.566  1.00  0.00     0.004 C 
ENDBRANCH   7   8
ENDBRANCH   6   7
ENDBRANCH   5   6
ENDBRANCH   2   5
ENDBRANCH   1   2
BRANCH   1  10
ATOM     10  C   UNL     1      93.526  99.689  74.490  1.00  0.00     0.135 C 
ATOM     11  O   UNL     1      94.731  99.839  74.287  1.00  0.00    -0.300 OA
BRANCH  10  12
ATOM     12  C   UNL     1      92.970  98.494  75.248  1.00  0.00     0.080 C 
BRANCH  12  13
ATOM     13  C   UNL     1      94.023  97.440  75.594  1.00  0.00     0.043 C 
BRANCH  13  14
ATOM     14  C   UNL     1      93.538  96.426  76.602  1.00  0.00    -0.044 A 
ATOM     15  C   UNL     1      94.456  95.708  77.367  1.00  0.00     0.054 A 
ATOM     16  C   UNL     1      92.170  96.208  76.768  1.00  0.00     0.008 A 
ATOM     17  C   UNL     1      94.006  94.772  78.299  1.00  0.00     0.160 A 
ATOM     18  C   UNL     1      91.720  95.273  77.699  1.00  0.00     0.050 A 
ATOM     19  C   UNL     1      92.638  94.554  78.465  1.00  0.00     0.157 A 
BRANCH  17  20
ATOM     20  O   UNL     1      94.913  94.076  79.040  1.00  0.00    -0.493 OA
ATOM     21  C   UNL     1      95.970  94.823  79.640  1.00  0.00     0.278 C 
ENDBRANCH  17  20
BRANCH  19  22
ATOM     22  O   UNL     1      92.187  93.643  79.371  1.00  0.00    -0.504 OA
ATOM     23  H   UNL     1      92.679  92.812  79.257  1.00  0.00     0.293 HD
ENDBRANCH  19  22
ENDBRANCH  13  14
ENDBRANCH  12  13
ENDBRANCH  10  12
ENDBRANCH   1  10
TORSDOF 12
ENDMDL
