MODEL 1
REMARK VINA RESULT:    -6.312      0.000      0.000
REMARK INTER + INTRA:         -12.501
REMARK INTER:                 -10.741
REMARK INTRA:                  -1.761
REMARK UNBOUND:                -1.761
REMARK SMILES C=C(C)[C@]12C[C@@H](C)[C@@]34O[C@](Cc5ccccc5)(O[C@@H]1[C@@H]3C=C(COC(=O)Cc1ccc(O)cc1)C[C@]1(O)C(=O)C(C)=C[C@@H]41)O2
REMARK SMILES IDX 23 1 22 2 21 3 20 4 9 5 8 6 10 7 6 8 18 10 44 11 19 12 5 13
REMARK SMILES IDX 7 14 4 15 11 16 12 17 13 18 17 19 14 20 16 21 15 22 2 23
REMARK SMILES IDX 3 24 1 25 35 26 36 27 43 28 38 29 42 30 39 32 40 33 41 34
REMARK SMILES IDX 37 35 24 37 25 38 26 39 27 40 28 41 29 42 34 43 30 44 33 45
REMARK SMILES IDX 31 46 32 47
REMARK H PARENT 37 36 32 48
REMARK Flexibility Score: 90.00
ROOT
ATOM      1  C   UNL     1      70.873  89.248  70.026  1.00  0.00     0.264 C 
ENDROOT
BRANCH   1   2
ATOM      2  C   UNL     1      72.232  89.410  69.384  1.00  0.00    -0.033 C 
ATOM      3  C   UNL     1      72.948  88.311  69.070  1.00  0.00    -0.015 C 
BRANCH   3   4
ATOM      4  C   UNL     1      74.352  88.205  68.495  1.00  0.00     0.078 C 
ATOM      5  O   UNL     1      74.115  88.068  66.037  1.00  0.00    -0.319 OA
ATOM      6  C   UNL     1      74.649  88.899  67.115  1.00  0.00     0.095 CG0
ATOM      7  C   UNL     1      74.344  86.653  66.180  1.00  0.00     0.289 C 
ATOM      8  C   UNL     1      76.223  89.007  66.962  1.00  0.00     0.023 C 
ATOM      9  G   UNL     1      73.872  90.242  66.991  1.00  0.00     0.000 G0
ATOM     10  O   UNL     1      73.802  86.161  67.402  1.00  0.00    -0.320 OA
ATOM     11  O   UNL     1      75.732  86.329  66.216  1.00  0.00    -0.313 OA
ATOM     12  C   UNL     1      74.743  86.716  68.335  1.00  0.00     0.170 C 
ATOM     13  C   UNL     1      76.947  87.802  67.637  1.00  0.00     0.049 C 
ATOM     14  C   UNL     1      76.738  89.169  65.522  1.00  0.00     0.011 C 
ATOM     15  C   UNL     1      76.093  86.534  67.598  1.00  0.00     0.122 C 
BRANCH   7  16
ATOM     16  C   UNL     1      73.692  85.946  65.008  1.00  0.00     0.135 C 
BRANCH  16  17
ATOM     17  C   UNL     1      74.207  84.539  64.837  1.00  0.00    -0.040 A 
ATOM     18  C   UNL     1      73.594  83.485  65.513  1.00  0.00     0.004 A 
ATOM     19  C   UNL     1      75.297  84.294  64.002  1.00  0.00     0.004 A 
ATOM     20  C   UNL     1      74.071  82.183  65.354  1.00  0.00     0.000 A 
ATOM     21  C   UNL     1      75.774  82.992  63.844  1.00  0.00     0.000 A 
ATOM     22  C   UNL     1      75.161  81.937  64.519  1.00  0.00     0.000 A 
ENDBRANCH  16  17
ENDBRANCH   7  16
BRANCH  15  23
ATOM     23  C   UNL     1      76.834  85.327  68.073  1.00  0.00    -0.046 C 
ATOM     24  C   UNL     1      77.188  84.312  67.027  1.00  0.00     0.042 C 
ATOM     25  C   UNL     1      77.165  85.160  69.362  1.00  0.00     0.010 C 
ENDBRANCH  15  23
ENDBRANCH   3   4
BRANCH   2  26
ATOM     26  C   UNL     1      72.617  90.861  69.164  1.00  0.00     0.078 C 
BRANCH  26  27
ATOM     27  C   UNL     1      73.834  91.134  68.283  1.00  0.00     0.140 C 
ATOM     28  C   UNL     1      73.852  90.245  67.022  1.00  0.00     0.086 CG0
ATOM     29  C   UNL     1      73.824  92.530  67.696  1.00  0.00     0.190 C 
ATOM     30  C   UNL     1      74.184  91.211  65.918  1.00  0.00    -0.010 C 
ATOM     31  G   UNL     1      74.647  88.912  67.134  1.00  0.00     0.000 G0
ATOM     32  O   UNL     1      73.625  93.560  68.323  1.00  0.00    -0.291 OA
ATOM     33  C   UNL     1      74.148  92.503  66.258  1.00  0.00    -0.008 C 
ATOM     34  C   UNL     1      74.336  93.710  65.427  1.00  0.00     0.048 C 
BRANCH  27  35
ATOM     35  O   UNL     1      75.037  91.090  69.031  1.00  0.00    -0.381 OA
ATOM     36  H   UNL     1      75.646  90.469  68.597  1.00  0.00     0.212 HD
ENDBRANCH  27  35
ENDBRANCH  26  27
ENDBRANCH   2  26
ENDBRANCH   1   2
BRANCH   1  37
ATOM     37  O   UNL     1      69.921  88.937  69.031  1.00  0.00    -0.461 OA
BRANCH  37  38
ATOM     38  C   UNL     1      68.806  88.249  69.451  1.00  0.00     0.310 C 
ATOM     39  O   UNL     1      67.656  88.656  69.366  1.00  0.00    -0.252 OA
BRANCH  38  40
ATOM     40  C   UNL     1      69.224  86.919  70.031  1.00  0.00     0.158 C 
BRANCH  40  41
ATOM     41  C   UNL     1      69.375  85.844  68.986  1.00  0.00    -0.037 A 
ATOM     42  C   UNL     1      68.421  84.832  68.883  1.00  0.00     0.008 A 
ATOM     43  C   UNL     1      70.470  85.859  68.122  1.00  0.00     0.008 A 
ATOM     44  C   UNL     1      68.561  83.836  67.916  1.00  0.00     0.046 A 
ATOM     45  C   UNL     1      70.610  84.864  67.155  1.00  0.00     0.046 A 
ATOM     46  C   UNL     1      69.656  83.852  67.052  1.00  0.00     0.115 A 
BRANCH  46  47
ATOM     47  O   UNL     1      69.793  82.880  66.109  1.00  0.00    -0.508 OA
ATOM     48  H   UNL     1      70.720  82.855  65.814  1.00  0.00     0.293 HD
ENDBRANCH  46  47
ENDBRANCH  40  41
ENDBRANCH  38  40
ENDBRANCH  37  38
ENDBRANCH   1  37
TORSDOF 10
ENDMDL
MODEL 2
REMARK VINA RESULT:    -6.161     24.950     28.735
REMARK INTER + INTRA:         -12.245
REMARK INTER:                 -11.890
REMARK INTRA:                  -0.354
REMARK UNBOUND:                -1.761
REMARK SMILES C=C(C)[C@]12C[C@@H](C)[C@@]34O[C@](Cc5ccccc5)(O[C@@H]1[C@@H]3C=C(COC(=O)Cc1ccc(O)cc1)C[C@]1(O)C(=O)C(C)=C[C@@H]41)O2
REMARK SMILES IDX 23 1 22 2 21 3 20 4 9 5 8 6 10 7 6 8 18 10 44 11 19 12 5 13
REMARK SMILES IDX 7 14 4 15 11 16 12 17 13 18 17 19 14 20 16 21 15 22 2 23
REMARK SMILES IDX 3 24 1 25 35 26 36 27 43 28 38 29 42 30 39 32 40 33 41 34
REMARK SMILES IDX 37 35 24 37 25 38 26 39 27 40 28 41 29 42 34 43 30 44 33 45
REMARK SMILES IDX 31 46 32 47
REMARK H PARENT 37 36 32 48
REMARK Flexibility Score: 90.00
ROOT
ATOM      1  C   UNL     1      96.364  81.210  83.933  1.00  0.00     0.264 C 
ENDROOT
BRANCH   1   2
ATOM      2  C   UNL     1      95.148  81.786  84.621  1.00  0.00    -0.033 C 
ATOM      3  C   UNL     1      93.999  81.078  84.632  1.00  0.00    -0.015 C 
BRANCH   3   4
ATOM      4  C   UNL     1      92.634  81.461  85.181  1.00  0.00     0.078 C 
ATOM      5  O   UNL     1      92.524  80.606  87.499  1.00  0.00    -0.319 OA
ATOM      6  C   UNL     1      92.518  81.833  86.705  1.00  0.00     0.095 CG0
ATOM      7  C   UNL     1      91.725  79.529  86.973  1.00  0.00     0.289 C 
ATOM      8  C   UNL     1      91.139  82.584  86.912  1.00  0.00     0.023 C 
ATOM      9  G   UNL     1      93.780  82.610  87.183  1.00  0.00     0.000 G0
ATOM     10  O   UNL     1      92.130  79.181  85.652  1.00  0.00    -0.320 OA
ATOM     11  O   UNL     1      90.346  79.875  86.875  1.00  0.00    -0.313 OA
ATOM     12  C   UNL     1      91.625  80.314  84.928  1.00  0.00     0.170 C 
ATOM     13  C   UNL     1      90.043  82.044  85.943  1.00  0.00     0.049 C 
ATOM     14  C   UNL     1      90.593  82.581  88.350  1.00  0.00     0.011 C 
ATOM     15  C   UNL     1      90.258  80.566  85.611  1.00  0.00     0.122 C 
BRANCH   7  16
ATOM     16  C   UNL     1      91.880  78.331  87.889  1.00  0.00     0.135 C 
BRANCH  16  17
ATOM     17  C   UNL     1      93.328  77.967  88.105  1.00  0.00    -0.040 A 
ATOM     18  C   UNL     1      94.002  78.426  89.236  1.00  0.00     0.004 A 
ATOM     19  C   UNL     1      93.992  77.171  87.172  1.00  0.00     0.004 A 
ATOM     20  C   UNL     1      95.341  78.088  89.436  1.00  0.00     0.000 A 
ATOM     21  C   UNL     1      95.331  76.833  87.372  1.00  0.00     0.000 A 
ATOM     22  C   UNL     1      96.005  77.292  88.503  1.00  0.00     0.000 A 
ENDBRANCH  16  17
ENDBRANCH   7  16
BRANCH  15  23
ATOM     23  C   UNL     1      89.125  79.981  84.833  1.00  0.00    -0.046 C 
ATOM     24  C   UNL     1      89.500  79.083  83.691  1.00  0.00     0.042 C 
ATOM     25  C   UNL     1      87.846  80.244  85.137  1.00  0.00     0.010 C 
ENDBRANCH  15  23
ENDBRANCH   3   4
BRANCH   2  26
ATOM     26  C   UNL     1      95.403  83.147  85.240  1.00  0.00     0.078 C 
BRANCH  26  27
ATOM     27  C   UNL     1      94.338  83.693  86.190  1.00  0.00     0.140 C 
ATOM     28  C   UNL     1      93.810  82.613  87.157  1.00  0.00     0.086 CG0
ATOM     29  C   UNL     1      94.886  84.738  87.137  1.00  0.00     0.190 C 
ATOM     30  C   UNL     1      93.814  83.306  88.491  1.00  0.00    -0.010 C 
ATOM     31  G   UNL     1      92.536  81.846  86.699  1.00  0.00     0.000 G0
ATOM     32  O   UNL     1      95.571  85.697  86.814  1.00  0.00    -0.291 OA
ATOM     33  C   UNL     1      94.436  84.489  88.520  1.00  0.00    -0.008 C 
ATOM     34  C   UNL     1      94.701  85.397  89.655  1.00  0.00     0.048 C 
BRANCH  27  35
ATOM     35  O   UNL     1      93.316  84.378  85.484  1.00  0.00    -0.381 OA
ATOM     36  H   UNL     1      93.704  84.761  84.679  1.00  0.00     0.212 HD
ENDBRANCH  27  35
ENDBRANCH  26  27
ENDBRANCH   2  26
ENDBRANCH   1   2
BRANCH   1  37
ATOM     37  O   UNL     1      96.073  81.001  82.568  1.00  0.00    -0.461 OA
BRANCH  37  38
ATOM     38  C   UNL     1      96.701  79.934  81.969  1.00  0.00     0.310 C 
ATOM     39  O   UNL     1      96.331  78.770  82.041  1.00  0.00    -0.252 OA
BRANCH  38  40
ATOM     40  C   UNL     1      97.913  80.423  81.212  1.00  0.00     0.158 C 
BRANCH  40  41
ATOM     41  C   UNL     1      97.645  80.629  79.743  1.00  0.00    -0.037 A 
ATOM     42  C   UNL     1      97.228  81.877  79.279  1.00  0.00     0.008 A 
ATOM     43  C   UNL     1      97.812  79.573  78.848  1.00  0.00     0.008 A 
ATOM     44  C   UNL     1      96.979  82.068  77.920  1.00  0.00     0.046 A 
ATOM     45  C   UNL     1      97.563  79.764  77.489  1.00  0.00     0.046 A 
ATOM     46  C   UNL     1      97.147  81.011  77.025  1.00  0.00     0.115 A 
BRANCH  46  47
ATOM     47  O   UNL     1      96.903  81.197  75.699  1.00  0.00    -0.508 OA
ATOM     48  H   UNL     1      95.962  81.414  75.578  1.00  0.00     0.293 HD
ENDBRANCH  46  47
ENDBRANCH  40  41
ENDBRANCH  38  40
ENDBRANCH  37  38
ENDBRANCH   1  37
TORSDOF 10
ENDMDL
MODEL 3
REMARK VINA RESULT:    -6.054     25.211     28.839
REMARK INTER + INTRA:         -12.062
REMARK INTER:                  -9.912
REMARK INTRA:                  -2.150
REMARK UNBOUND:                -1.761
REMARK SMILES C=C(C)[C@]12C[C@@H](C)[C@@]34O[C@](Cc5ccccc5)(O[C@@H]1[C@@H]3C=C(COC(=O)Cc1ccc(O)cc1)C[C@]1(O)C(=O)C(C)=C[C@@H]41)O2
REMARK SMILES IDX 23 1 22 2 21 3 20 4 9 5 8 6 10 7 6 8 18 10 44 11 19 12 5 13
REMARK SMILES IDX 7 14 4 15 11 16 12 17 13 18 17 19 14 20 16 21 15 22 2 23
REMARK SMILES IDX 3 24 1 25 35 26 36 27 43 28 38 29 42 30 39 32 40 33 41 34
REMARK SMILES IDX 37 35 24 37 25 38 26 39 27 40 28 41 29 42 34 43 30 44 33 45
REMARK SMILES IDX 31 46 32 47
REMARK H PARENT 37 36 32 48
REMARK Flexibility Score: 90.00
ROOT
ATOM      1  C   UNL     1      90.431  78.811  89.084  1.00  0.00     0.264 C 
ENDROOT
BRANCH   1   2
ATOM      2  C   UNL     1      91.550  79.824  89.158  1.00  0.00    -0.033 C 
ATOM      3  C   UNL     1      92.677  79.614  88.447  1.00  0.00    -0.015 C 
BRANCH   3   4
ATOM      4  C   UNL     1      93.960  80.429  88.408  1.00  0.00     0.078 C 
ATOM      5  O   UNL     1      93.737  82.034  86.539  1.00  0.00    -0.319 OA
ATOM      6  C   UNL     1      93.871  81.944  87.992  1.00  0.00     0.095 CG0
ATOM      7  C   UNL     1      94.584  81.143  85.787  1.00  0.00     0.289 C 
ATOM      8  C   UNL     1      95.222  82.643  88.437  1.00  0.00     0.023 C 
ATOM      9  G   UNL     1      92.569  82.594  88.543  1.00  0.00     0.000 G0
ATOM     10  O   UNL     1      94.359  79.784  86.150  1.00  0.00    -0.320 OA
ATOM     11  O   UNL     1      95.969  81.381  86.026  1.00  0.00    -0.313 OA
ATOM     12  C   UNL     1      94.976  79.765  87.447  1.00  0.00     0.170 C 
ATOM     13  C   UNL     1      96.431  81.663  88.343  1.00  0.00     0.049 C 
ATOM     14  C   UNL     1      95.565  83.949  87.700  1.00  0.00     0.011 C 
ATOM     15  C   UNL     1      96.240  80.633  87.229  1.00  0.00     0.122 C 
BRANCH   7  16
ATOM     16  C   UNL     1      94.286  81.337  84.313  1.00  0.00     0.135 C 
BRANCH  16  17
ATOM     17  C   UNL     1      95.469  80.989  83.445  1.00  0.00    -0.040 A 
ATOM     18  C   UNL     1      95.816  79.654  83.240  1.00  0.00     0.004 A 
ATOM     19  C   UNL     1      96.217  82.003  82.848  1.00  0.00     0.004 A 
ATOM     20  C   UNL     1      96.910  79.332  82.437  1.00  0.00     0.000 A 
ATOM     21  C   UNL     1      97.312  81.681  82.045  1.00  0.00     0.000 A 
ATOM     22  C   UNL     1      97.658  80.346  81.840  1.00  0.00     0.000 A 
ENDBRANCH  16  17
ENDBRANCH   7  16
BRANCH  15  23
ATOM     23  C   UNL     1      97.460  79.801  87.001  1.00  0.00    -0.046 C 
ATOM     24  C   UNL     1      98.315  80.188  85.831  1.00  0.00     0.042 C 
ATOM     25  C   UNL     1      97.772  78.767  87.796  1.00  0.00     0.010 C 
ENDBRANCH  15  23
ENDBRANCH   3   4
BRANCH   2  26
ATOM     26  C   UNL     1      91.230  81.000  90.062  1.00  0.00     0.078 C 
BRANCH  26  27
ATOM     27  C   UNL     1      92.183  82.192  90.019  1.00  0.00     0.140 C 
ATOM     28  C   UNL     1      92.562  82.586  88.576  1.00  0.00     0.086 CG0
ATOM     29  C   UNL     1      91.548  83.462  90.546  1.00  0.00     0.190 C 
ATOM     30  C   UNL     1      92.411  84.082  88.570  1.00  0.00    -0.010 C 
ATOM     31  G   UNL     1      93.863  81.947  88.010  1.00  0.00     0.000 G0
ATOM     32  O   UNL     1      90.932  83.562  91.597  1.00  0.00    -0.291 OA
ATOM     33  C   UNL     1      91.819  84.602  89.650  1.00  0.00    -0.008 C 
ATOM     34  C   UNL     1      91.439  85.998  89.946  1.00  0.00     0.048 C 
BRANCH  27  35
ATOM     35  O   UNL     1      93.300  81.994  90.870  1.00  0.00    -0.381 OA
ATOM     36  H   UNL     1      93.743  82.851  90.999  1.00  0.00     0.212 HD
ENDBRANCH  27  35
ENDBRANCH  26  27
ENDBRANCH   2  26
ENDBRANCH   1   2
BRANCH   1  37
ATOM     37  O   UNL     1      90.807  77.763  88.216  1.00  0.00    -0.461 OA
BRANCH  37  38
ATOM     38  C   UNL     1      89.901  77.433  87.234  1.00  0.00     0.310 C 
ATOM     39  O   UNL     1      88.789  76.964  87.434  1.00  0.00    -0.252 OA
BRANCH  38  40
ATOM     40  C   UNL     1      90.492  77.740  85.879  1.00  0.00     0.158 C 
BRANCH  40  41
ATOM     41  C   UNL     1      90.045  79.070  85.331  1.00  0.00    -0.037 A 
ATOM     42  C   UNL     1      90.956  80.121  85.218  1.00  0.00     0.008 A 
ATOM     43  C   UNL     1      88.720  79.253  84.936  1.00  0.00     0.008 A 
ATOM     44  C   UNL     1      90.542  81.353  84.711  1.00  0.00     0.046 A 
ATOM     45  C   UNL     1      88.305  80.484  84.428  1.00  0.00     0.046 A 
ATOM     46  C   UNL     1      89.216  81.534  84.316  1.00  0.00     0.115 A 
BRANCH  46  47
ATOM     47  O   UNL     1      88.812  82.736  83.822  1.00  0.00    -0.508 OA
ATOM     48  H   UNL     1      87.877  82.673  83.563  1.00  0.00     0.293 HD
ENDBRANCH  46  47
ENDBRANCH  40  41
ENDBRANCH  38  40
ENDBRANCH  37  38
ENDBRANCH   1  37
TORSDOF 10
ENDMDL
MODEL 4
REMARK VINA RESULT:    -6.049      7.788     11.288
REMARK INTER + INTRA:         -12.054
REMARK INTER:                 -10.071
REMARK INTRA:                  -1.983
REMARK UNBOUND:                -1.761
REMARK SMILES C=C(C)[C@]12C[C@@H](C)[C@@]34O[C@](Cc5ccccc5)(O[C@@H]1[C@@H]3C=C(COC(=O)Cc1ccc(O)cc1)C[C@]1(O)C(=O)C(C)=C[C@@H]41)O2
REMARK SMILES IDX 23 1 22 2 21 3 20 4 9 5 8 6 10 7 6 8 18 10 44 11 19 12 5 13
REMARK SMILES IDX 7 14 4 15 11 16 12 17 13 18 17 19 14 20 16 21 15 22 2 23
REMARK SMILES IDX 3 24 1 25 35 26 36 27 43 28 38 29 42 30 39 32 40 33 41 34
REMARK SMILES IDX 37 35 24 37 25 38 26 39 27 40 28 41 29 42 34 43 30 44 33 45
REMARK SMILES IDX 31 46 32 47
REMARK H PARENT 37 36 32 48
REMARK Flexibility Score: 90.00
ROOT
ATOM      1  C   UNL     1      63.225  84.224  75.560  1.00  0.00     0.264 C 
ENDROOT
BRANCH   1   2
ATOM      2  C   UNL     1      64.225  85.197  74.981  1.00  0.00    -0.033 C 
ATOM      3  C   UNL     1      64.550  85.109  73.674  1.00  0.00    -0.015 C 
BRANCH   3   4
ATOM      4  C   UNL     1      65.570  85.907  72.877  1.00  0.00     0.078 C 
ATOM      5  O   UNL     1      64.361  87.813  71.865  1.00  0.00    -0.319 OA
ATOM      6  C   UNL     1      65.415  87.471  72.818  1.00  0.00     0.095 CG0
ATOM      7  C   UNL     1      64.374  87.058  70.638  1.00  0.00     0.289 C 
ATOM      8  C   UNL     1      66.792  88.070  72.313  1.00  0.00     0.023 C 
ATOM      9  G   UNL     1      64.903  88.028  74.179  1.00  0.00     0.000 G0
ATOM     10  O   UNL     1      64.281  85.659  70.889  1.00  0.00    -0.320 OA
ATOM     11  O   UNL     1      65.582  87.239  69.903  1.00  0.00    -0.313 OA
ATOM     12  C   UNL     1      65.596  85.410  71.411  1.00  0.00     0.170 C 
ATOM     13  C   UNL     1      67.499  87.111  71.307  1.00  0.00     0.049 C 
ATOM     14  C   UNL     1      66.716  89.481  71.704  1.00  0.00     0.011 C 
ATOM     15  C   UNL     1      66.489  86.291  70.503  1.00  0.00     0.122 C 
BRANCH   7  16
ATOM     16  C   UNL     1      63.198  87.507  69.793  1.00  0.00     0.135 C 
BRANCH  16  17
ATOM     17  C   UNL     1      61.952  86.709  70.087  1.00  0.00    -0.040 A 
ATOM     18  C   UNL     1      61.390  85.903  69.097  1.00  0.00     0.004 A 
ATOM     19  C   UNL     1      61.363  86.777  71.349  1.00  0.00     0.004 A 
ATOM     20  C   UNL     1      60.238  85.164  69.370  1.00  0.00     0.000 A 
ATOM     21  C   UNL     1      60.211  86.038  71.622  1.00  0.00     0.000 A 
ATOM     22  C   UNL     1      59.649  85.233  70.632  1.00  0.00     0.000 A 
ENDBRANCH  16  17
ENDBRANCH   7  16
BRANCH  15  23
ATOM     23  C   UNL     1      67.132  85.500  69.410  1.00  0.00    -0.046 C 
ATOM     24  C   UNL     1      67.297  84.031  69.666  1.00  0.00     0.042 C 
ATOM     25  C   UNL     1      67.539  86.070  68.267  1.00  0.00     0.010 C 
ENDBRANCH  15  23
ENDBRANCH   3   4
BRANCH   2  26
ATOM     26  C   UNL     1      64.746  86.194  76.000  1.00  0.00     0.078 C 
BRANCH  26  27
ATOM     27  C   UNL     1      65.538  87.386  75.467  1.00  0.00     0.140 C 
ATOM     28  C   UNL     1      64.894  87.999  74.207  1.00  0.00     0.086 CG0
ATOM     29  C   UNL     1      65.544  88.555  76.430  1.00  0.00     0.190 C 
ATOM     30  C   UNL     1      64.924  89.477  74.481  1.00  0.00    -0.010 C 
ATOM     31  G   UNL     1      65.417  87.466  72.841  1.00  0.00     0.000 G0
ATOM     32  O   UNL     1      65.799  88.488  77.624  1.00  0.00    -0.291 OA
ATOM     33  C   UNL     1      65.258  89.821  75.729  1.00  0.00    -0.008 C 
ATOM     34  C   UNL     1      65.310  91.152  76.368  1.00  0.00     0.048 C 
BRANCH  27  35
ATOM     35  O   UNL     1      66.911  87.069  75.312  1.00  0.00    -0.381 OA
ATOM     36  H   UNL     1      67.195  87.360  74.429  1.00  0.00     0.212 HD
ENDBRANCH  27  35
ENDBRANCH  26  27
ENDBRANCH   2  26
ENDBRANCH   1   2
BRANCH   1  37
ATOM     37  O   UNL     1      63.216  83.046  74.782  1.00  0.00    -0.461 OA
BRANCH  37  38
ATOM     38  C   UNL     1      62.072  82.806  74.057  1.00  0.00     0.310 C 
ATOM     39  O   UNL     1      61.098  83.544  74.017  1.00  0.00    -0.252 OA
BRANCH  38  40
ATOM     40  C   UNL     1      62.207  81.493  73.323  1.00  0.00     0.158 C 
BRANCH  40  41
ATOM     41  C   UNL     1      62.702  81.659  71.910  1.00  0.00    -0.037 A 
ATOM     42  C   UNL     1      61.791  81.822  70.866  1.00  0.00     0.008 A 
ATOM     43  C   UNL     1      64.071  81.649  71.644  1.00  0.00     0.008 A 
ATOM     44  C   UNL     1      62.249  81.974  69.557  1.00  0.00     0.046 A 
ATOM     45  C   UNL     1      64.530  81.801  70.335  1.00  0.00     0.046 A 
ATOM     46  C   UNL     1      63.619  81.964  69.292  1.00  0.00     0.115 A 
BRANCH  46  47
ATOM     47  O   UNL     1      64.066  82.112  68.015  1.00  0.00    -0.508 OA
ATOM     48  H   UNL     1      63.365  82.526  67.482  1.00  0.00     0.293 HD
ENDBRANCH  46  47
ENDBRANCH  40  41
ENDBRANCH  38  40
ENDBRANCH  37  38
ENDBRANCH   1  37
TORSDOF 10
ENDMDL
MODEL 5
REMARK VINA RESULT:    -6.000      2.895      5.583
REMARK INTER + INTRA:         -11.970
REMARK INTER:                 -11.416
REMARK INTRA:                  -0.554
REMARK UNBOUND:                -1.761
REMARK SMILES C=C(C)[C@]12C[C@@H](C)[C@@]34O[C@](Cc5ccccc5)(O[C@@H]1[C@@H]3C=C(COC(=O)Cc1ccc(O)cc1)C[C@]1(O)C(=O)C(C)=C[C@@H]41)O2
REMARK SMILES IDX 23 1 22 2 21 3 20 4 9 5 8 6 10 7 6 8 18 10 44 11 19 12 5 13
REMARK SMILES IDX 7 14 4 15 11 16 12 17 13 18 17 19 14 20 16 21 15 22 2 23
REMARK SMILES IDX 3 24 1 25 35 26 36 27 43 28 38 29 42 30 39 32 40 33 41 34
REMARK SMILES IDX 37 35 24 37 25 38 26 39 27 40 28 41 29 42 34 43 30 44 33 45
REMARK SMILES IDX 31 46 32 47
REMARK H PARENT 37 36 32 48
REMARK Flexibility Score: 90.00
ROOT
ATOM      1  C   UNL     1      69.248  84.623  70.313  1.00  0.00     0.264 C 
ENDROOT
BRANCH   1   2
ATOM      2  C   UNL     1      69.718  85.169  68.984  1.00  0.00    -0.033 C 
ATOM      3  C   UNL     1      70.920  85.776  68.909  1.00  0.00    -0.015 C 
BRANCH   3   4
ATOM      4  C   UNL     1      71.581  86.467  67.726  1.00  0.00     0.078 C 
ATOM      5  O   UNL     1      72.982  84.773  66.594  1.00  0.00    -0.319 OA
ATOM      6  C   UNL     1      71.817  85.636  66.411  1.00  0.00     0.095 CG0
ATOM      7  C   UNL     1      74.107  85.388  67.252  1.00  0.00     0.289 C 
ATOM      8  C   UNL     1      72.105  86.664  65.241  1.00  0.00     0.023 C 
ATOM      9  G   UNL     1      70.639  84.650  66.160  1.00  0.00     0.000 G0
ATOM     10  O   UNL     1      73.745  85.889  68.535  1.00  0.00    -0.320 OA
ATOM     11  O   UNL     1      74.611  86.508  66.529  1.00  0.00    -0.313 OA
ATOM     12  C   UNL     1      72.961  87.028  68.149  1.00  0.00     0.170 C 
ATOM     13  C   UNL     1      72.861  87.925  65.760  1.00  0.00     0.049 C 
ATOM     14  C   UNL     1      72.850  86.089  64.023  1.00  0.00     0.011 C 
ATOM     15  C   UNL     1      73.762  87.595  66.951  1.00  0.00     0.122 C 
BRANCH   7  16
ATOM     16  C   UNL     1      75.200  84.347  67.396  1.00  0.00     0.135 C 
BRANCH  16  17
ATOM     17  C   UNL     1      75.247  83.408  66.216  1.00  0.00    -0.040 A 
ATOM     18  C   UNL     1      74.545  82.203  66.255  1.00  0.00     0.004 A 
ATOM     19  C   UNL     1      75.992  83.745  65.087  1.00  0.00     0.004 A 
ATOM     20  C   UNL     1      74.588  81.335  65.164  1.00  0.00     0.000 A 
ATOM     21  C   UNL     1      76.035  82.877  63.996  1.00  0.00     0.000 A 
ATOM     22  C   UNL     1      75.334  81.673  64.034  1.00  0.00     0.000 A 
ENDBRANCH  16  17
ENDBRANCH   7  16
BRANCH  15  23
ATOM     23  C   UNL     1      74.630  88.744  67.350  1.00  0.00    -0.046 C 
ATOM     24  C   UNL     1      74.669  89.904  66.400  1.00  0.00     0.042 C 
ATOM     25  C   UNL     1      75.335  88.737  68.491  1.00  0.00     0.010 C 
ENDBRANCH  15  23
ENDBRANCH   3   4
BRANCH   2  26
ATOM     26  C   UNL     1      68.724  84.939  67.861  1.00  0.00     0.078 C 
BRANCH  26  27
ATOM     27  C   UNL     1      69.209  85.201  66.436  1.00  0.00     0.140 C 
ATOM     28  C   UNL     1      70.628  84.648  66.191  1.00  0.00     0.086 CG0
ATOM     29  C   UNL     1      68.389  84.462  65.400  1.00  0.00     0.190 C 
ATOM     30  C   UNL     1      70.506  83.943  64.869  1.00  0.00    -0.010 C 
ATOM     31  G   UNL     1      71.801  85.645  66.420  1.00  0.00     0.000 G0
ATOM     32  O   UNL     1      67.168  84.447  65.342  1.00  0.00    -0.291 OA
ATOM     33  C   UNL     1      69.259  83.798  64.411  1.00  0.00    -0.008 C 
ATOM     34  C   UNL     1      68.762  83.097  63.208  1.00  0.00     0.048 C 
BRANCH  27  35
ATOM     35  O   UNL     1      69.056  86.564  66.079  1.00  0.00    -0.381 OA
ATOM     36  H   UNL     1      69.939  86.940  65.918  1.00  0.00     0.212 HD
ENDBRANCH  27  35
ENDBRANCH  26  27
ENDBRANCH   2  26
ENDBRANCH   1   2
BRANCH   1  37
ATOM     37  O   UNL     1      67.854  84.410  70.263  1.00  0.00    -0.461 OA
BRANCH  37  38
ATOM     38  C   UNL     1      67.075  85.325  70.934  1.00  0.00     0.310 C 
ATOM     39  O   UNL     1      67.311  86.522  71.017  1.00  0.00    -0.252 OA
BRANCH  38  40
ATOM     40  C   UNL     1      65.889  84.621  71.549  1.00  0.00     0.158 C 
BRANCH  40  41
ATOM     41  C   UNL     1      65.131  83.773  70.561  1.00  0.00    -0.037 A 
ATOM     42  C   UNL     1      64.775  82.466  70.893  1.00  0.00     0.008 A 
ATOM     43  C   UNL     1      64.786  84.295  69.315  1.00  0.00     0.008 A 
ATOM     44  C   UNL     1      64.074  81.680  69.977  1.00  0.00     0.046 A 
ATOM     45  C   UNL     1      64.084  83.510  68.399  1.00  0.00     0.046 A 
ATOM     46  C   UNL     1      63.728  82.203  68.730  1.00  0.00     0.115 A 
BRANCH  46  47
ATOM     47  O   UNL     1      63.045  81.436  67.838  1.00  0.00    -0.508 OA
ATOM     48  H   UNL     1      62.226  81.898  67.586  1.00  0.00     0.293 HD
ENDBRANCH  46  47
ENDBRANCH  40  41
ENDBRANCH  38  40
ENDBRANCH  37  38
ENDBRANCH   1  37
TORSDOF 10
ENDMDL
MODEL 6
REMARK VINA RESULT:    -5.755     20.102     24.153
REMARK INTER + INTRA:         -11.553
REMARK INTER:                  -9.928
REMARK INTRA:                  -1.625
REMARK UNBOUND:                -1.761
REMARK SMILES C=C(C)[C@]12C[C@@H](C)[C@@]34O[C@](Cc5ccccc5)(O[C@@H]1[C@@H]3C=C(COC(=O)Cc1ccc(O)cc1)C[C@]1(O)C(=O)C(C)=C[C@@H]41)O2
REMARK SMILES IDX 23 1 22 2 21 3 20 4 9 5 8 6 10 7 6 8 18 10 44 11 19 12 5 13
REMARK SMILES IDX 7 14 4 15 11 16 12 17 13 18 17 19 14 20 16 21 15 22 2 23
REMARK SMILES IDX 3 24 1 25 35 26 36 27 43 28 38 29 42 30 39 32 40 33 41 34
REMARK SMILES IDX 37 35 24 37 25 38 26 39 27 40 28 41 29 42 34 43 30 44 33 45
REMARK SMILES IDX 31 46 32 47
REMARK H PARENT 37 36 32 48
REMARK Flexibility Score: 90.00
ROOT
ATOM      1  C   UNL     1      88.690 105.842  66.828  1.00  0.00     0.264 C 
ENDROOT
BRANCH   1   2
ATOM      2  C   UNL     1      90.100 105.300  66.850  1.00  0.00    -0.033 C 
ATOM      3  C   UNL     1      90.703 105.078  68.037  1.00  0.00    -0.015 C 
BRANCH   3   4
ATOM      4  C   UNL     1      92.122 104.616  68.328  1.00  0.00     0.078 C 
ATOM      5  O   UNL     1      92.048 102.153  68.542  1.00  0.00    -0.319 OA
ATOM      6  C   UNL     1      92.597 103.239  67.733  1.00  0.00     0.095 CG0
ATOM      7  C   UNL     1      92.098 102.361  69.967  1.00  0.00     0.289 C 
ATOM      8  C   UNL     1      94.179 103.203  67.813  1.00  0.00     0.023 C 
ATOM      9  G   UNL     1      91.994 103.011  66.316  1.00  0.00     0.000 G0
ATOM     10  O   UNL     1      91.415 103.555  70.340  1.00  0.00    -0.320 OA
ATOM     11  O   UNL     1      93.432 102.514  70.446  1.00  0.00    -0.313 OA
ATOM     12  C   UNL     1      92.346 104.537  69.858  1.00  0.00     0.170 C 
ATOM     13  C   UNL     1      94.706 103.972  69.063  1.00  0.00     0.049 C 
ATOM     14  C   UNL     1      94.811 101.802  67.773  1.00  0.00     0.011 C 
ATOM     15  C   UNL     1      93.714 103.912  70.225  1.00  0.00     0.122 C 
BRANCH   7  16
ATOM     16  C   UNL     1      91.452 101.168  70.644  1.00  0.00     0.135 C 
BRANCH  16  17
ATOM     17  C   UNL     1      92.307 100.618  71.758  1.00  0.00    -0.040 A 
ATOM     18  C   UNL     1      92.838  99.333  71.661  1.00  0.00     0.004 A 
ATOM     19  C   UNL     1      92.566 101.397  72.886  1.00  0.00     0.004 A 
ATOM     20  C   UNL     1      93.629  98.824  72.692  1.00  0.00     0.000 A 
ATOM     21  C   UNL     1      93.357 100.889  73.917  1.00  0.00     0.000 A 
ATOM     22  C   UNL     1      93.888  99.603  73.819  1.00  0.00     0.000 A 
ENDBRANCH  16  17
ENDBRANCH   7  16
BRANCH  15  23
ATOM     23  C   UNL     1      94.272 104.483  71.487  1.00  0.00    -0.046 C 
ATOM     24  C   UNL     1      93.558 105.679  72.045  1.00  0.00     0.042 C 
ATOM     25  C   UNL     1      95.350 103.958  72.088  1.00  0.00     0.010 C 
ENDBRANCH  15  23
ENDBRANCH   3   4
BRANCH   2  26
ATOM     26  C   UNL     1      90.669 105.061  65.464  1.00  0.00     0.078 C 
BRANCH  26  27
ATOM     27  C   UNL     1      91.973 104.272  65.371  1.00  0.00     0.140 C 
ATOM     28  C   UNL     1      91.983 103.049  66.312  1.00  0.00     0.086 CG0
ATOM     29  C   UNL     1      92.170 103.636  64.011  1.00  0.00     0.190 C 
ATOM     30  C   UNL     1      92.508 101.942  65.441  1.00  0.00    -0.010 C 
ATOM     31  G   UNL     1      92.607 103.273  67.720  1.00  0.00     0.000 G0
ATOM     32  O   UNL     1      92.046 104.208  62.938  1.00  0.00    -0.291 OA
ATOM     33  C   UNL     1      92.598 102.231  64.140  1.00  0.00    -0.008 C 
ATOM     34  C   UNL     1      92.987 101.375  63.000  1.00  0.00     0.048 C 
BRANCH  27  35
ATOM     35  O   UNL     1      93.102 105.116  65.517  1.00  0.00    -0.381 OA
ATOM     36  H   UNL     1      92.892 105.980  65.123  1.00  0.00     0.212 HD
ENDBRANCH  27  35
ENDBRANCH  26  27
ENDBRANCH   2  26
ENDBRANCH   1   2
BRANCH   1  37
ATOM     37  O   UNL     1      87.902 105.130  67.758  1.00  0.00    -0.461 OA
BRANCH  37  38
ATOM     38  C   UNL     1      86.720 104.612  67.282  1.00  0.00     0.310 C 
ATOM     39  O   UNL     1      85.619 104.798  67.782  1.00  0.00    -0.252 OA
BRANCH  38  40
ATOM     40  C   UNL     1      86.993 103.781  66.051  1.00  0.00     0.158 C 
BRANCH  40  41
ATOM     41  C   UNL     1      87.388 102.364  66.373  1.00  0.00    -0.037 A 
ATOM     42  C   UNL     1      86.448 101.338  66.273  1.00  0.00     0.008 A 
ATOM     43  C   UNL     1      88.693 102.076  66.772  1.00  0.00     0.008 A 
ATOM     44  C   UNL     1      86.813 100.025  66.573  1.00  0.00     0.046 A 
ATOM     45  C   UNL     1      89.058 100.763  67.072  1.00  0.00     0.046 A 
ATOM     46  C   UNL     1      88.119  99.738  66.972  1.00  0.00     0.115 A 
BRANCH  46  47
ATOM     47  O   UNL     1      88.474  98.458  67.265  1.00  0.00    -0.508 OA
ATOM     48  H   UNL     1      89.300  98.245  66.796  1.00  0.00     0.293 HD
ENDBRANCH  46  47
ENDBRANCH  40  41
ENDBRANCH  38  40
ENDBRANCH  37  38
ENDBRANCH   1  37
TORSDOF 10
ENDMDL
MODEL 7
REMARK VINA RESULT:    -5.723      3.155      7.568
REMARK INTER + INTRA:         -11.499
REMARK INTER:                 -10.769
REMARK INTRA:                  -0.730
REMARK UNBOUND:                -1.761
REMARK SMILES C=C(C)[C@]12C[C@@H](C)[C@@]34O[C@](Cc5ccccc5)(O[C@@H]1[C@@H]3C=C(COC(=O)Cc1ccc(O)cc1)C[C@]1(O)C(=O)C(C)=C[C@@H]41)O2
REMARK SMILES IDX 23 1 22 2 21 3 20 4 9 5 8 6 10 7 6 8 18 10 44 11 19 12 5 13
REMARK SMILES IDX 7 14 4 15 11 16 12 17 13 18 17 19 14 20 16 21 15 22 2 23
REMARK SMILES IDX 3 24 1 25 35 26 36 27 43 28 38 29 42 30 39 32 40 33 41 34
REMARK SMILES IDX 37 35 24 37 25 38 26 39 27 40 28 41 29 42 34 43 30 44 33 45
REMARK SMILES IDX 31 46 32 47
REMARK H PARENT 37 36 32 48
REMARK Flexibility Score: 90.00
ROOT
ATOM      1  C   UNL     1      74.923  92.613  70.911  1.00  0.00     0.264 C 
ENDROOT
BRANCH   1   2
ATOM      2  C   UNL     1      74.079  91.826  69.935  1.00  0.00    -0.033 C 
ATOM      3  C   UNL     1      74.688  91.048  69.016  1.00  0.00    -0.015 C 
BRANCH   3   4
ATOM      4  C   UNL     1      74.079  90.228  67.890  1.00  0.00     0.078 C 
ATOM      5  O   UNL     1      73.701  87.951  68.779  1.00  0.00    -0.319 OA
ATOM      6  C   UNL     1      73.014  89.130  68.255  1.00  0.00     0.095 CG0
ATOM      7  C   UNL     1      74.894  87.568  68.067  1.00  0.00     0.289 C 
ATOM      8  C   UNL     1      72.250  88.741  66.922  1.00  0.00     0.023 C 
ATOM      9  G   UNL     1      72.109  89.605  69.429  1.00  0.00     0.000 G0
ATOM     10  O   UNL     1      75.841  88.632  68.034  1.00  0.00    -0.320 OA
ATOM     11  O   UNL     1      74.631  87.243  66.704  1.00  0.00    -0.313 OA
ATOM     12  C   UNL     1      75.199  89.511  67.097  1.00  0.00     0.170 C 
ATOM     13  C   UNL     1      73.186  88.831  65.679  1.00  0.00     0.049 C 
ATOM     14  C   UNL     1      71.551  87.371  66.936  1.00  0.00     0.011 C 
ATOM     15  C   UNL     1      74.640  88.525  66.042  1.00  0.00     0.122 C 
BRANCH   7  16
ATOM     16  C   UNL     1      75.497  86.365  68.765  1.00  0.00     0.135 C 
BRANCH  16  17
ATOM     17  C   UNL     1      75.877  85.277  67.792  1.00  0.00    -0.040 A 
ATOM     18  C   UNL     1      77.212  85.097  67.433  1.00  0.00     0.004 A 
ATOM     19  C   UNL     1      74.891  84.451  67.253  1.00  0.00     0.004 A 
ATOM     20  C   UNL     1      77.562  84.089  66.533  1.00  0.00     0.000 A 
ATOM     21  C   UNL     1      75.242  83.444  66.353  1.00  0.00     0.000 A 
ATOM     22  C   UNL     1      76.577  83.264  65.993  1.00  0.00     0.000 A 
ENDBRANCH  16  17
ENDBRANCH   7  16
BRANCH  15  23
ATOM     23  C   UNL     1      75.523  88.427  64.841  1.00  0.00    -0.046 C 
ATOM     24  C   UNL     1      75.872  87.041  64.387  1.00  0.00     0.042 C 
ATOM     25  C   UNL     1      75.978  89.517  64.204  1.00  0.00     0.010 C 
ENDBRANCH  15  23
ENDBRANCH   3   4
BRANCH   2  26
ATOM     26  C   UNL     1      72.589  92.026  70.139  1.00  0.00     0.078 C 
BRANCH  26  27
ATOM     27  C   UNL     1      71.649  91.108  69.360  1.00  0.00     0.140 C 
ATOM     28  C   UNL     1      72.099  89.633  69.411  1.00  0.00     0.086 CG0
ATOM     29  C   UNL     1      70.264  91.046  69.968  1.00  0.00     0.190 C 
ATOM     30  C   UNL     1      70.828  88.890  69.715  1.00  0.00    -0.010 C 
ATOM     31  G   UNL     1      73.003  89.152  68.239  1.00  0.00     0.000 G0
ATOM     32  O   UNL     1      69.592  92.012  70.300  1.00  0.00    -0.291 OA
ATOM     33  C   UNL     1      69.787  89.653  70.059  1.00  0.00    -0.008 C 
ATOM     34  C   UNL     1      68.429  89.269  70.496  1.00  0.00     0.048 C 
BRANCH  27  35
ATOM     35  O   UNL     1      71.421  91.593  68.047  1.00  0.00    -0.381 OA
ATOM     36  H   UNL     1      70.646  91.134  67.682  1.00  0.00     0.212 HD
ENDBRANCH  27  35
ENDBRANCH  26  27
ENDBRANCH   2  26
ENDBRANCH   1   2
BRANCH   1  37
ATOM     37  O   UNL     1      75.661  93.590  70.208  1.00  0.00    -0.461 OA
BRANCH  37  38
ATOM     38  C   UNL     1      75.006  94.769  69.938  1.00  0.00     0.310 C 
ATOM     39  O   UNL     1      74.112  95.248  70.621  1.00  0.00    -0.252 OA
BRANCH  38  40
ATOM     40  C   UNL     1      75.562  95.375  68.672  1.00  0.00     0.158 C 
BRANCH  40  41
ATOM     41  C   UNL     1      76.790  96.214  68.912  1.00  0.00    -0.037 A 
ATOM     42  C   UNL     1      77.976  95.923  68.239  1.00  0.00     0.008 A 
ATOM     43  C   UNL     1      76.741  97.283  69.807  1.00  0.00     0.008 A 
ATOM     44  C   UNL     1      79.114  96.699  68.462  1.00  0.00     0.046 A 
ATOM     45  C   UNL     1      77.879  98.060  70.030  1.00  0.00     0.046 A 
ATOM     46  C   UNL     1      79.065  97.768  69.358  1.00  0.00     0.115 A 
BRANCH  46  47
ATOM     47  O   UNL     1      80.175  98.524  69.575  1.00  0.00    -0.508 OA
ATOM     48  H   UNL     1      79.900  99.411  69.868  1.00  0.00     0.293 HD
ENDBRANCH  46  47
ENDBRANCH  40  41
ENDBRANCH  38  40
ENDBRANCH  37  38
ENDBRANCH   1  37
TORSDOF 10
ENDMDL
MODEL 8
REMARK VINA RESULT:    -5.567     25.721     29.481
REMARK INTER + INTRA:         -11.233
REMARK INTER:                  -8.852
REMARK INTRA:                  -2.381
REMARK UNBOUND:                -1.761
REMARK SMILES C=C(C)[C@]12C[C@@H](C)[C@@]34O[C@](Cc5ccccc5)(O[C@@H]1[C@@H]3C=C(COC(=O)Cc1ccc(O)cc1)C[C@]1(O)C(=O)C(C)=C[C@@H]41)O2
REMARK SMILES IDX 23 1 22 2 21 3 20 4 9 5 8 6 10 7 6 8 18 10 44 11 19 12 5 13
REMARK SMILES IDX 7 14 4 15 11 16 12 17 13 18 17 19 14 20 16 21 15 22 2 23
REMARK SMILES IDX 3 24 1 25 35 26 36 27 43 28 38 29 42 30 39 32 40 33 41 34
REMARK SMILES IDX 37 35 24 37 25 38 26 39 27 40 28 41 29 42 34 43 30 44 33 45
REMARK SMILES IDX 31 46 32 47
REMARK H PARENT 37 36 32 48
REMARK Flexibility Score: 90.00
ROOT
ATOM      1  C   UNL     1      97.949  76.689  73.522  1.00  0.00     0.264 C 
ENDROOT
BRANCH   1   2
ATOM      2  C   UNL     1      98.767  77.508  74.494  1.00  0.00    -0.033 C 
ATOM      3  C   UNL     1      98.136  78.218  75.452  1.00  0.00    -0.015 C 
BRANCH   3   4
ATOM      4  C   UNL     1      98.714  79.168  76.489  1.00  0.00     0.078 C 
ATOM      5  O   UNL     1      99.158  77.832  78.522  1.00  0.00    -0.319 OA
ATOM      6  C   UNL     1      99.808  78.620  77.477  1.00  0.00     0.095 CG0
ATOM      7  C   UNL     1      97.945  78.399  79.055  1.00  0.00     0.289 C 
ATOM      8  C   UNL     1     100.528  79.869  78.135  1.00  0.00     0.023 C 
ATOM      9  G   UNL     1     100.749  77.610  76.758  1.00  0.00     0.000 G0
ATOM     10  O   UNL     1      96.982  78.619  78.029  1.00  0.00    -0.320 OA
ATOM     11  O   UNL     1      98.162  79.671  79.661  1.00  0.00    -0.313 OA
ATOM     12  C   UNL     1      97.576  79.746  77.365  1.00  0.00     0.170 C 
ATOM     13  C   UNL     1      99.545  81.066  78.317  1.00  0.00     0.049 C 
ATOM     14  C   UNL     1     101.246  79.592  79.467  1.00  0.00     0.011 C 
ATOM     15  C   UNL     1      98.110  80.589  78.549  1.00  0.00     0.122 C 
BRANCH   7  16
ATOM     16  C   UNL     1      97.386  77.438  80.086  1.00  0.00     0.135 C 
BRANCH  16  17
ATOM     17  C   UNL     1      97.720  77.862  81.495  1.00  0.00    -0.040 A 
ATOM     18  C   UNL     1      96.749  78.470  82.289  1.00  0.00     0.004 A 
ATOM     19  C   UNL     1      99.000  77.643  82.002  1.00  0.00     0.004 A 
ATOM     20  C   UNL     1      97.058  78.861  83.592  1.00  0.00     0.000 A 
ATOM     21  C   UNL     1      99.309  78.035  83.305  1.00  0.00     0.000 A 
ATOM     22  C   UNL     1      98.339  78.643  84.100  1.00  0.00     0.000 A 
ENDBRANCH  16  17
ENDBRANCH   7  16
BRANCH  15  23
ATOM     23  C   UNL     1      97.185  81.707  78.905  1.00  0.00    -0.046 C 
ATOM     24  C   UNL     1      96.508  82.397  77.758  1.00  0.00     0.042 C 
ATOM     25  C   UNL     1      96.971  82.073  80.177  1.00  0.00     0.010 C 
ENDBRANCH  15  23
ENDBRANCH   3   4
BRANCH   2  26
ATOM     26  C   UNL     1     100.261  77.407  74.248  1.00  0.00     0.078 C 
BRANCH  26  27
ATOM     27  C   UNL     1     101.184  77.992  75.314  1.00  0.00     0.140 C 
ATOM     28  C   UNL     1     100.748  77.603  76.742  1.00  0.00     0.086 CG0
ATOM     29  C   UNL     1     102.588  77.429  75.238  1.00  0.00     0.190 C 
ATOM     30  C   UNL     1     102.034  77.182  77.398  1.00  0.00    -0.010 C 
ATOM     31  G   UNL     1      99.813  78.611  77.472  1.00  0.00     0.000 G0
ATOM     32  O   UNL     1     103.261  77.341  74.222  1.00  0.00    -0.291 OA
ATOM     33  C   UNL     1     103.079  77.047  76.576  1.00  0.00    -0.008 C 
ATOM     34  C   UNL     1     104.453  76.579  76.852  1.00  0.00     0.048 C 
BRANCH  27  35
ATOM     35  O   UNL     1     101.369  79.386  75.132  1.00  0.00    -0.381 OA
ATOM     36  H   UNL     1     101.794  79.746  75.929  1.00  0.00     0.212 HD
ENDBRANCH  27  35
ENDBRANCH  26  27
ENDBRANCH   2  26
ENDBRANCH   1   2
BRANCH   1  37
ATOM     37  O   UNL     1      96.973  77.514  72.923  1.00  0.00    -0.461 OA
BRANCH  37  38
ATOM     38  C   UNL     1      97.268  77.990  71.667  1.00  0.00     0.310 C 
ATOM     39  O   UNL     1      97.887  77.376  70.810  1.00  0.00    -0.252 OA
BRANCH  38  40
ATOM     40  C   UNL     1      96.708  79.384  71.512  1.00  0.00     0.158 C 
BRANCH  40  41
ATOM     41  C   UNL     1      97.366  80.386  72.425  1.00  0.00    -0.037 A 
ATOM     42  C   UNL     1      98.712  80.709  72.253  1.00  0.00     0.008 A 
ATOM     43  C   UNL     1      96.630  80.990  73.444  1.00  0.00     0.008 A 
ATOM     44  C   UNL     1      99.321  81.636  73.099  1.00  0.00     0.046 A 
ATOM     45  C   UNL     1      97.238  81.918  74.290  1.00  0.00     0.046 A 
ATOM     46  C   UNL     1      98.584  82.240  74.118  1.00  0.00     0.115 A 
BRANCH  46  47
ATOM     47  O   UNL     1      99.179  83.144  74.943  1.00  0.00    -0.508 OA
ATOM     48  H   UNL     1     100.140  82.995  74.934  1.00  0.00     0.293 HD
ENDBRANCH  46  47
ENDBRANCH  40  41
ENDBRANCH  38  40
ENDBRANCH  37  38
ENDBRANCH   1  37
TORSDOF 10
ENDMDL
MODEL 9
REMARK VINA RESULT:    -5.420      3.479      9.054
REMARK INTER + INTRA:         -10.983
REMARK INTER:                 -10.431
REMARK INTRA:                  -0.552
REMARK UNBOUND:                -1.761
REMARK SMILES C=C(C)[C@]12C[C@@H](C)[C@@]34O[C@](Cc5ccccc5)(O[C@@H]1[C@@H]3C=C(COC(=O)Cc1ccc(O)cc1)C[C@]1(O)C(=O)C(C)=C[C@@H]41)O2
REMARK SMILES IDX 23 1 22 2 21 3 20 4 9 5 8 6 10 7 6 8 18 10 44 11 19 12 5 13
REMARK SMILES IDX 7 14 4 15 11 16 12 17 13 18 17 19 14 20 16 21 15 22 2 23
REMARK SMILES IDX 3 24 1 25 35 26 36 27 43 28 38 29 42 30 39 32 40 33 41 34
REMARK SMILES IDX 37 35 24 37 25 38 26 39 27 40 28 41 29 42 34 43 30 44 33 45
REMARK SMILES IDX 31 46 32 47
REMARK H PARENT 37 36 32 48
REMARK Flexibility Score: 90.00
ROOT
ATOM      1  C   UNL     1      70.704  89.595  68.419  1.00  0.00     0.264 C 
ENDROOT
BRANCH   1   2
ATOM      2  C   UNL     1      70.164  88.266  68.894  1.00  0.00    -0.033 C 
ATOM      3  C   UNL     1      69.171  88.245  69.806  1.00  0.00    -0.015 C 
BRANCH   3   4
ATOM      4  C   UNL     1      68.515  87.057  70.492  1.00  0.00     0.078 C 
ATOM      5  O   UNL     1      66.546  86.436  69.130  1.00  0.00    -0.319 OA
ATOM      6  C   UNL     1      67.845  85.952  69.596  1.00  0.00     0.095 CG0
ATOM      7  C   UNL     1      65.753  87.118  70.121  1.00  0.00     0.289 C 
ATOM      8  C   UNL     1      67.632  84.667  70.499  1.00  0.00     0.023 C 
ATOM      9  G   UNL     1      68.664  85.725  68.293  1.00  0.00     0.000 G0
ATOM     10  O   UNL     1      66.451  88.234  70.664  1.00  0.00    -0.320 OA
ATOM     11  O   UNL     1      65.437  86.283  71.232  1.00  0.00    -0.313 OA
ATOM     12  C   UNL     1      67.423  87.553  71.473  1.00  0.00     0.170 C 
ATOM     13  C   UNL     1      67.331  85.052  71.980  1.00  0.00     0.049 C 
ATOM     14  C   UNL     1      66.562  83.679  70.001  1.00  0.00     0.011 C 
ATOM     15  C   UNL     1      66.600  86.391  72.079  1.00  0.00     0.122 C 
BRANCH   7  16
ATOM     16  C   UNL     1      64.471  87.586  69.461  1.00  0.00     0.135 C 
BRANCH  16  17
ATOM     17  C   UNL     1      63.548  86.437  69.138  1.00  0.00    -0.040 A 
ATOM     18  C   UNL     1      62.424  86.202  69.929  1.00  0.00     0.004 A 
ATOM     19  C   UNL     1      63.820  85.612  68.047  1.00  0.00     0.004 A 
ATOM     20  C   UNL     1      61.570  85.139  69.629  1.00  0.00     0.000 A 
ATOM     21  C   UNL     1      62.966  84.549  67.748  1.00  0.00     0.000 A 
ATOM     22  C   UNL     1      61.842  84.314  68.539  1.00  0.00     0.000 A 
ENDBRANCH  16  17
ENDBRANCH   7  16
BRANCH  15  23
ATOM     23  C   UNL     1      66.142  86.693  73.469  1.00  0.00    -0.046 C 
ATOM     24  C   UNL     1      66.675  87.954  74.082  1.00  0.00     0.042 C 
ATOM     25  C   UNL     1      65.302  85.883  74.131  1.00  0.00     0.010 C 
ENDBRANCH  15  23
ENDBRANCH   3   4
BRANCH   2  26
ATOM     26  C   UNL     1      70.845  87.079  68.238  1.00  0.00     0.078 C 
BRANCH  26  27
ATOM     27  C   UNL     1      70.214  85.705  68.456  1.00  0.00     0.140 C 
ATOM     28  C   UNL     1      68.680  85.734  68.293  1.00  0.00     0.086 CG0
ATOM     29  C   UNL     1      70.634  84.700  67.404  1.00  0.00     0.190 C 
ATOM     30  C   UNL     1      68.397  84.533  67.434  1.00  0.00    -0.010 C 
ATOM     31  G   UNL     1      67.857  85.952  69.596  1.00  0.00     0.000 G0
ATOM     32  O   UNL     1      71.783  84.490  67.044  1.00  0.00    -0.291 OA
ATOM     33  C   UNL     1      69.471  83.948  66.896  1.00  0.00    -0.008 C 
ATOM     34  C   UNL     1      69.565  82.816  65.951  1.00  0.00     0.048 C 
BRANCH  27  35
ATOM     35  O   UNL     1      70.650  85.122  69.673  1.00  0.00    -0.381 OA
ATOM     36  H   UNL     1      70.261  84.233  69.744  1.00  0.00     0.212 HD
ENDBRANCH  27  35
ENDBRANCH  26  27
ENDBRANCH   2  26
ENDBRANCH   1   2
BRANCH   1  37
ATOM     37  O   UNL     1      72.066  89.451  68.078  1.00  0.00    -0.461 OA
BRANCH  37  38
ATOM     38  C   UNL     1      72.968  89.583  69.109  1.00  0.00     0.310 C 
ATOM     39  O   UNL     1      72.672  89.698  70.290  1.00  0.00    -0.252 OA
BRANCH  38  40
ATOM     40  C   UNL     1      74.372  89.563  68.555  1.00  0.00     0.158 C 
BRANCH  40  41
ATOM     41  C   UNL     1      74.983  88.186  68.553  1.00  0.00    -0.037 A 
ATOM     42  C   UNL     1      74.237  87.090  68.989  1.00  0.00     0.008 A 
ATOM     43  C   UNL     1      76.295  88.005  68.117  1.00  0.00     0.008 A 
ATOM     44  C   UNL     1      74.803  85.815  68.988  1.00  0.00     0.046 A 
ATOM     45  C   UNL     1      76.862  86.730  68.115  1.00  0.00     0.046 A 
ATOM     46  C   UNL     1      76.116  85.635  68.551  1.00  0.00     0.115 A 
BRANCH  46  47
ATOM     47  O   UNL     1      76.668  84.392  68.551  1.00  0.00    -0.508 OA
ATOM     48  H   UNL     1      77.056  84.218  69.427  1.00  0.00     0.293 HD
ENDBRANCH  46  47
ENDBRANCH  40  41
ENDBRANCH  38  40
ENDBRANCH  37  38
ENDBRANCH   1  37
TORSDOF 10
ENDMDL
MODEL 10
REMARK VINA RESULT:    -5.277      8.897     13.223
REMARK INTER + INTRA:         -10.739
REMARK INTER:                  -9.147
REMARK INTRA:                  -1.592
REMARK UNBOUND:                -1.761
REMARK SMILES C=C(C)[C@]12C[C@@H](C)[C@@]34O[C@](Cc5ccccc5)(O[C@@H]1[C@@H]3C=C(COC(=O)Cc1ccc(O)cc1)C[C@]1(O)C(=O)C(C)=C[C@@H]41)O2
REMARK SMILES IDX 23 1 22 2 21 3 20 4 9 5 8 6 10 7 6 8 18 10 44 11 19 12 5 13
REMARK SMILES IDX 7 14 4 15 11 16 12 17 13 18 17 19 14 20 16 21 15 22 2 23
REMARK SMILES IDX 3 24 1 25 35 26 36 27 43 28 38 29 42 30 39 32 40 33 41 34
REMARK SMILES IDX 37 35 24 37 25 38 26 39 27 40 28 41 29 42 34 43 30 44 33 45
REMARK SMILES IDX 31 46 32 47
REMARK H PARENT 37 36 32 48
REMARK Flexibility Score: 90.00
ROOT
ATOM      1  C   UNL     1      66.973  85.353  71.932  1.00  0.00     0.264 C 
ENDROOT
BRANCH   1   2
ATOM      2  C   UNL     1      66.168  86.351  72.732  1.00  0.00    -0.033 C 
ATOM      3  C   UNL     1      64.958  86.738  72.278  1.00  0.00    -0.015 C 
BRANCH   3   4
ATOM      4  C   UNL     1      63.999  87.771  72.847  1.00  0.00     0.078 C 
ATOM      5  O   UNL     1      62.457  86.564  74.359  1.00  0.00    -0.319 OA
ATOM      6  C   UNL     1      63.498  87.590  74.327  1.00  0.00     0.095 CG0
ATOM      7  C   UNL     1      61.492  86.634  73.291  1.00  0.00     0.289 C 
ATOM      8  C   UNL     1      62.884  88.973  74.798  1.00  0.00     0.023 C 
ATOM      9  G   UNL     1      64.631  87.021  75.230  1.00  0.00     0.000 G0
ATOM     10  O   UNL     1      62.124  86.558  72.017  1.00  0.00    -0.320 OA
ATOM     11  O   UNL     1      60.771  87.864  73.291  1.00  0.00    -0.313 OA
ATOM     12  C   UNL     1      62.733  87.858  71.960  1.00  0.00     0.170 C 
ATOM     13  C   UNL     1      62.209  89.732  73.614  1.00  0.00     0.049 C 
ATOM     14  C   UNL     1      61.901  88.893  75.978  1.00  0.00     0.011 C 
ATOM     15  C   UNL     1      61.639  88.766  72.574  1.00  0.00     0.122 C 
BRANCH   7  16
ATOM     16  C   UNL     1      60.522  85.480  73.452  1.00  0.00     0.135 C 
BRANCH  16  17
ATOM     17  C   UNL     1      59.346  85.594  72.514  1.00  0.00    -0.040 A 
ATOM     18  C   UNL     1      58.182  86.239  72.930  1.00  0.00     0.004 A 
ATOM     19  C   UNL     1      59.425  85.053  71.231  1.00  0.00     0.004 A 
ATOM     20  C   UNL     1      57.095  86.344  72.062  1.00  0.00     0.000 A 
ATOM     21  C   UNL     1      58.338  85.158  70.363  1.00  0.00     0.000 A 
ATOM     22  C   UNL     1      57.173  85.803  70.779  1.00  0.00     0.000 A 
ENDBRANCH  16  17
ENDBRANCH   7  16
BRANCH  15  23
ATOM     23  C   UNL     1      60.833  89.461  71.526  1.00  0.00    -0.046 C 
ATOM     24  C   UNL     1      60.870  88.858  70.154  1.00  0.00     0.042 C 
ATOM     25  C   UNL     1      60.117  90.563  71.797  1.00  0.00     0.010 C 
ENDBRANCH  15  23
ENDBRANCH   3   4
BRANCH   2  26
ATOM     26  C   UNL     1      66.865  86.794  74.005  1.00  0.00     0.078 C 
BRANCH  26  27
ATOM     27  C   UNL     1      66.049  87.623  74.995  1.00  0.00     0.140 C 
ATOM     28  C   UNL     1      64.642  87.035  75.228  1.00  0.00     0.086 CG0
ATOM     29  C   UNL     1      66.641  87.610  76.389  1.00  0.00     0.190 C 
ATOM     30  C   UNL     1      64.488  87.077  76.723  1.00  0.00    -0.010 C 
ATOM     31  G   UNL     1      63.505  87.601  74.327  1.00  0.00     0.000 G0
ATOM     32  O   UNL     1      67.814  87.819  76.661  1.00  0.00    -0.291 OA
ATOM     33  C   UNL     1      65.599  87.368  77.405  1.00  0.00    -0.008 C 
ATOM     34  C   UNL     1      65.836  87.416  78.862  1.00  0.00     0.048 C 
BRANCH  27  35
ATOM     35  O   UNL     1      66.045  88.996  74.642  1.00  0.00    -0.381 OA
ATOM     36  H   UNL     1      66.935  89.236  74.333  1.00  0.00     0.212 HD
ENDBRANCH  27  35
ENDBRANCH  26  27
ENDBRANCH   2  26
ENDBRANCH   1   2
BRANCH   1  37
ATOM     37  O   UNL     1      66.571  85.407  70.580  1.00  0.00    -0.461 OA
BRANCH  37  38
ATOM     38  C   UNL     1      66.699  84.241  69.861  1.00  0.00     0.310 C 
ATOM     39  O   UNL     1      67.749  83.641  69.677  1.00  0.00    -0.252 OA
BRANCH  38  40
ATOM     40  C   UNL     1      65.346  83.821  69.337  1.00  0.00     0.158 C 
BRANCH  40  41
ATOM     41  C   UNL     1      64.527  83.075  70.357  1.00  0.00    -0.037 A 
ATOM     42  C   UNL     1      63.479  83.719  71.016  1.00  0.00     0.008 A 
ATOM     43  C   UNL     1      64.815  81.742  70.644  1.00  0.00     0.008 A 
ATOM     44  C   UNL     1      62.720  83.028  71.962  1.00  0.00     0.046 A 
ATOM     45  C   UNL     1      64.057  81.050  71.590  1.00  0.00     0.046 A 
ATOM     46  C   UNL     1      63.010  81.694  72.248  1.00  0.00     0.115 A 
BRANCH  46  47
ATOM     47  O   UNL     1      62.270  81.021  73.171  1.00  0.00    -0.508 OA
ATOM     48  H   UNL     1      61.348  80.971  72.862  1.00  0.00     0.293 HD
ENDBRANCH  46  47
ENDBRANCH  40  41
ENDBRANCH  38  40
ENDBRANCH  37  38
ENDBRANCH   1  37
TORSDOF 10
ENDMDL
