MODEL 1
REMARK VINA RESULT:    -6.014      0.000      0.000
REMARK INTER + INTRA:         -11.502
REMARK INTER:                 -10.057
REMARK INTRA:                  -1.445
REMARK UNBOUND:                -1.445
REMARK SMILES COc1cc(CNC(=O)CCCCCCCC(C)C)ccc1O
REMARK SMILES IDX 11 1 10 2 8 3 9 4 7 5 6 7 5 8 4 9 20 10 3 11 21 12 22 13
REMARK SMILES IDX 2 14 1 15 23 16 12 18 13 19 14 20 15 21 16 22 17 23 18 24
REMARK SMILES IDX 19 25
REMARK H PARENT 7 6 23 17
REMARK Flexibility Score: inf
ROOT
ATOM      1  C   UNL     1      95.593  95.572  79.334  1.00  0.00     0.010 C 
ENDROOT
BRANCH   1   2
ATOM      2  C   UNL     1      95.076  95.258  77.932  1.00  0.00     0.100 C 
BRANCH   2   3
ATOM      3  C   UNL     1      93.593  95.557  77.781  1.00  0.00     0.220 C 
ATOM      4  O   UNL     1      93.152  96.681  77.560  1.00  0.00    -0.275 OA
ATOM      5  N   UNL     1      92.824  94.413  77.933  1.00  0.00    -0.352 N 
ATOM      6  H   UNL     1      93.279  93.524  78.126  1.00  0.00     0.163 HD
BRANCH   5   7
ATOM      7  C   UNL     1      91.382  94.421  77.844  1.00  0.00     0.151 C 
BRANCH   7   8
ATOM      8  C   UNL     1      90.890  93.680  76.636  1.00  0.00    -0.025 A 
ATOM      9  C   UNL     1      90.231  92.466  76.794  1.00  0.00     0.056 A 
ATOM     10  C   UNL     1      91.097  94.215  75.370  1.00  0.00     0.009 A 
ATOM     11  C   UNL     1      89.773  91.778  75.671  1.00  0.00     0.160 A 
ATOM     12  C   UNL     1      90.640  93.525  74.247  1.00  0.00     0.050 A 
ATOM     13  C   UNL     1      89.978  92.307  74.397  1.00  0.00     0.157 A 
BRANCH  11  14
ATOM     14  O   UNL     1      89.129  90.588  75.831  1.00  0.00    -0.493 OA
ATOM     15  C   UNL     1      89.933  89.410  75.826  1.00  0.00     0.278 C 
ENDBRANCH  11  14
BRANCH  13  16
ATOM     16  O   UNL     1      89.536  91.644  73.292  1.00  0.00    -0.504 OA
ATOM     17  H   UNL     1      90.303  91.333  72.781  1.00  0.00     0.293 HD
ENDBRANCH  13  16
ENDBRANCH   7   8
ENDBRANCH   5   7
ENDBRANCH   2   3
ENDBRANCH   1   2
BRANCH   1  18
ATOM     18  C   UNL     1      95.930  97.051  79.543  1.00  0.00     0.001 C 
BRANCH  18  19
ATOM     19  C   UNL     1      96.762  97.705  78.435  1.00  0.00     0.000 C 
BRANCH  19  20
ATOM     20  C   UNL     1      96.090  98.936  77.821  1.00  0.00     0.000 C 
BRANCH  20  21
ATOM     21  C   UNL     1      96.273  99.038  76.303  1.00  0.00     0.000 C 
BRANCH  21  22
ATOM     22  C   UNL     1      95.040  98.590  75.512  1.00  0.00     0.003 C 
BRANCH  22  23
ATOM     23  C   UNL     1      95.283  97.332  74.656  1.00  0.00    -0.017 C 
ATOM     24  C   UNL     1      96.150  97.689  73.446  1.00  0.00     0.007 C 
ATOM     25  C   UNL     1      93.981  96.685  74.181  1.00  0.00     0.007 C 
ENDBRANCH  22  23
ENDBRANCH  21  22
ENDBRANCH  20  21
ENDBRANCH  19  20
ENDBRANCH  18  19
ENDBRANCH   1  18
TORSDOF 12
ENDMDL
MODEL 2
REMARK VINA RESULT:    -5.888      3.004      7.511
REMARK INTER + INTRA:         -11.292
REMARK INTER:                 -10.453
REMARK INTRA:                  -0.840
REMARK UNBOUND:                -1.445
REMARK SMILES COc1cc(CNC(=O)CCCCCCCC(C)C)ccc1O
REMARK SMILES IDX 11 1 10 2 8 3 9 4 7 5 6 7 5 8 4 9 20 10 3 11 21 12 22 13
REMARK SMILES IDX 2 14 1 15 23 16 12 18 13 19 14 20 15 21 16 22 17 23 18 24
REMARK SMILES IDX 19 25
REMARK H PARENT 7 6 23 17
REMARK Flexibility Score: inf
ROOT
ATOM      1  C   UNL     1      92.843  94.867  76.977  1.00  0.00     0.010 C 
ENDROOT
BRANCH   1   2
ATOM      2  C   UNL     1      93.608  95.252  78.241  1.00  0.00     0.100 C 
BRANCH   2   3
ATOM      3  C   UNL     1      94.512  96.455  78.026  1.00  0.00     0.220 C 
ATOM      4  O   UNL     1      94.925  97.159  78.943  1.00  0.00    -0.275 OA
ATOM      5  N   UNL     1      94.792  96.648  76.682  1.00  0.00    -0.352 N 
ATOM      6  H   UNL     1      94.394  96.018  75.990  1.00  0.00     0.163 HD
BRANCH   5   7
ATOM      7  C   UNL     1      95.623  97.728  76.202  1.00  0.00     0.151 C 
BRANCH   7   8
ATOM      8  C   UNL     1      95.188  98.214  74.850  1.00  0.00    -0.025 A 
ATOM      9  C   UNL     1      95.487  97.462  73.721  1.00  0.00     0.056 A 
ATOM     10  C   UNL     1      94.491  99.411  74.742  1.00  0.00     0.009 A 
ATOM     11  C   UNL     1      95.083  97.913  72.464  1.00  0.00     0.160 A 
ATOM     12  C   UNL     1      94.087  99.863  73.485  1.00  0.00     0.050 A 
ATOM     13  C   UNL     1      94.383  99.114  72.346  1.00  0.00     0.157 A 
BRANCH  11  14
ATOM     14  O   UNL     1      95.378  97.173  71.359  1.00  0.00    -0.493 OA
ATOM     15  C   UNL     1      96.697  97.298  70.829  1.00  0.00     0.278 C 
ENDBRANCH  11  14
BRANCH  13  16
ATOM     16  O   UNL     1      93.982  99.565  71.125  1.00  0.00    -0.504 OA
ATOM     17  H   UNL     1      94.549  99.171  70.440  1.00  0.00     0.293 HD
ENDBRANCH  13  16
ENDBRANCH   7   8
ENDBRANCH   5   7
ENDBRANCH   2   3
ENDBRANCH   1   2
BRANCH   1  18
ATOM     18  C   UNL     1      91.322  94.912  77.146  1.00  0.00     0.001 C 
BRANCH  18  19
ATOM     19  C   UNL     1      90.650  93.575  77.475  1.00  0.00     0.000 C 
BRANCH  19  20
ATOM     20  C   UNL     1      89.887  92.974  76.292  1.00  0.00     0.000 C 
BRANCH  20  21
ATOM     21  C   UNL     1      90.732  92.854  75.019  1.00  0.00     0.000 C 
BRANCH  21  22
ATOM     22  C   UNL     1      90.600  91.491  74.329  1.00  0.00     0.003 C 
BRANCH  22  23
ATOM     23  C   UNL     1      89.398  90.666  74.827  1.00  0.00    -0.017 C 
ATOM     24  C   UNL     1      89.843  89.233  75.128  1.00  0.00     0.007 C 
ATOM     25  C   UNL     1      88.245  90.645  73.822  1.00  0.00     0.007 C 
ENDBRANCH  22  23
ENDBRANCH  21  22
ENDBRANCH  20  21
ENDBRANCH  19  20
ENDBRANCH  18  19
ENDBRANCH   1  18
TORSDOF 12
ENDMDL
MODEL 3
REMARK VINA RESULT:    -5.863     13.122     15.847
REMARK INTER + INTRA:         -11.250
REMARK INTER:                 -10.244
REMARK INTRA:                  -1.006
REMARK UNBOUND:                -1.445
REMARK SMILES COc1cc(CNC(=O)CCCCCCCC(C)C)ccc1O
REMARK SMILES IDX 11 1 10 2 8 3 9 4 7 5 6 7 5 8 4 9 20 10 3 11 21 12 22 13
REMARK SMILES IDX 2 14 1 15 23 16 12 18 13 19 14 20 15 21 16 22 17 23 18 24
REMARK SMILES IDX 19 25
REMARK H PARENT 7 6 23 17
REMARK Flexibility Score: inf
ROOT
ATOM      1  C   UNL     1      93.369  81.927  86.359  1.00  0.00     0.010 C 
ENDROOT
BRANCH   1   2
ATOM      2  C   UNL     1      93.476  83.412  86.015  1.00  0.00     0.100 C 
BRANCH   2   3
ATOM      3  C   UNL     1      94.840  83.780  85.457  1.00  0.00     0.220 C 
ATOM      4  O   UNL     1      95.837  83.928  86.158  1.00  0.00    -0.275 OA
ATOM      5  N   UNL     1      94.803  83.930  84.079  1.00  0.00    -0.352 N 
ATOM      6  H   UNL     1      93.926  83.798  83.583  1.00  0.00     0.163 HD
BRANCH   5   7
ATOM      7  C   UNL     1      95.966  84.287  83.298  1.00  0.00     0.151 C 
BRANCH   7   8
ATOM      8  C   UNL     1      96.405  83.167  82.401  1.00  0.00    -0.025 A 
ATOM      9  C   UNL     1      96.844  83.450  81.113  1.00  0.00     0.056 A 
ATOM     10  C   UNL     1      96.367  81.859  82.866  1.00  0.00     0.009 A 
ATOM     11  C   UNL     1      97.251  82.409  80.278  1.00  0.00     0.160 A 
ATOM     12  C   UNL     1      96.775  80.818  82.031  1.00  0.00     0.050 A 
ATOM     13  C   UNL     1      97.217  81.092  80.738  1.00  0.00     0.157 A 
BRANCH  11  14
ATOM     14  O   UNL     1      97.680  82.690  79.016  1.00  0.00    -0.493 OA
ATOM     15  C   UNL     1      96.800  83.447  78.186  1.00  0.00     0.278 C 
ENDBRANCH  11  14
BRANCH  13  16
ATOM     16  O   UNL     1      97.613  80.068  79.933  1.00  0.00    -0.504 OA
ATOM     17  H   UNL     1      98.412  80.337  79.448  1.00  0.00     0.293 HD
ENDBRANCH  13  16
ENDBRANCH   7   8
ENDBRANCH   5   7
ENDBRANCH   2   3
ENDBRANCH   1   2
BRANCH   1  18
ATOM     18  C   UNL     1      93.325  81.018  85.128  1.00  0.00     0.001 C 
BRANCH  18  19
ATOM     19  C   UNL     1      92.174  81.279  84.150  1.00  0.00     0.000 C 
BRANCH  19  20
ATOM     20  C   UNL     1      90.793  81.207  84.808  1.00  0.00     0.000 C 
BRANCH  20  21
ATOM     21  C   UNL     1      89.776  82.178  84.199  1.00  0.00     0.000 C 
BRANCH  21  22
ATOM     22  C   UNL     1      88.495  82.314  85.029  1.00  0.00     0.003 C 
BRANCH  22  23
ATOM     23  C   UNL     1      87.541  83.408  84.512  1.00  0.00    -0.017 C 
ATOM     24  C   UNL     1      86.776  84.025  85.685  1.00  0.00     0.007 C 
ATOM     25  C   UNL     1      86.550  82.879  83.474  1.00  0.00     0.007 C 
ENDBRANCH  22  23
ENDBRANCH  21  22
ENDBRANCH  20  21
ENDBRANCH  19  20
ENDBRANCH  18  19
ENDBRANCH   1  18
TORSDOF 12
ENDMDL
MODEL 4
REMARK VINA RESULT:    -5.846     26.560     31.695
REMARK INTER + INTRA:         -11.221
REMARK INTER:                 -10.404
REMARK INTRA:                  -0.817
REMARK UNBOUND:                -1.445
REMARK SMILES COc1cc(CNC(=O)CCCCCCCC(C)C)ccc1O
REMARK SMILES IDX 11 1 10 2 8 3 9 4 7 5 6 7 5 8 4 9 20 10 3 11 21 12 22 13
REMARK SMILES IDX 2 14 1 15 23 16 12 18 13 19 14 20 15 21 16 22 17 23 18 24
REMARK SMILES IDX 19 25
REMARK H PARENT 7 6 23 17
REMARK Flexibility Score: inf
ROOT
ATOM      1  C   UNL     1      80.630  65.854  72.186  1.00  0.00     0.010 C 
ENDROOT
BRANCH   1   2
ATOM      2  C   UNL     1      81.914  65.076  71.911  1.00  0.00     0.100 C 
BRANCH   2   3
ATOM      3  C   UNL     1      82.896  65.150  73.069  1.00  0.00     0.220 C 
ATOM      4  O   UNL     1      83.740  64.287  73.293  1.00  0.00    -0.275 OA
ATOM      5  N   UNL     1      82.704  66.296  73.826  1.00  0.00    -0.352 N 
ATOM      6  H   UNL     1      81.970  66.950  73.570  1.00  0.00     0.163 HD
BRANCH   5   7
ATOM      7  C   UNL     1      83.500  66.606  74.991  1.00  0.00     0.151 C 
BRANCH   7   8
ATOM      8  C   UNL     1      84.482  67.710  74.723  1.00  0.00    -0.025 A 
ATOM      9  C   UNL     1      85.280  68.187  75.756  1.00  0.00     0.056 A 
ATOM     10  C   UNL     1      84.583  68.243  73.444  1.00  0.00     0.009 A 
ATOM     11  C   UNL     1      86.192  69.212  75.506  1.00  0.00     0.160 A 
ATOM     12  C   UNL     1      85.495  69.269  73.194  1.00  0.00     0.050 A 
ATOM     13  C   UNL     1      86.300  69.754  74.225  1.00  0.00     0.157 A 
BRANCH  11  14
ATOM     14  O   UNL     1      86.972  69.678  76.522  1.00  0.00    -0.493 OA
ATOM     15  C   UNL     1      88.175  68.961  76.796  1.00  0.00     0.278 C 
ENDBRANCH  11  14
BRANCH  13  16
ATOM     16  O   UNL     1      87.187  70.754  73.969  1.00  0.00    -0.504 OA
ATOM     17  H   UNL     1      87.625  71.010  74.799  1.00  0.00     0.293 HD
ENDBRANCH  13  16
ENDBRANCH   7   8
ENDBRANCH   5   7
ENDBRANCH   2   3
ENDBRANCH   1   2
BRANCH   1  18
ATOM     18  C   UNL     1      79.452  65.419  71.309  1.00  0.00     0.001 C 
BRANCH  18  19
ATOM     19  C   UNL     1      79.769  65.220  69.823  1.00  0.00     0.000 C 
BRANCH  19  20
ATOM     20  C   UNL     1      79.377  63.835  69.302  1.00  0.00     0.000 C 
BRANCH  20  21
ATOM     21  C   UNL     1      77.877  63.690  69.023  1.00  0.00     0.000 C 
BRANCH  21  22
ATOM     22  C   UNL     1      77.235  64.969  68.477  1.00  0.00     0.003 C 
BRANCH  22  23
ATOM     23  C   UNL     1      77.012  64.941  66.952  1.00  0.00    -0.017 C 
ATOM     24  C   UNL     1      76.068  66.075  66.547  1.00  0.00     0.007 C 
ATOM     25  C   UNL     1      76.449  63.605  66.466  1.00  0.00     0.007 C 
ENDBRANCH  22  23
ENDBRANCH  21  22
ENDBRANCH  20  21
ENDBRANCH  19  20
ENDBRANCH  18  19
ENDBRANCH   1  18
TORSDOF 12
ENDMDL
MODEL 5
REMARK VINA RESULT:    -5.734     26.488     32.277
REMARK INTER + INTRA:         -11.034
REMARK INTER:                 -10.214
REMARK INTRA:                  -0.820
REMARK UNBOUND:                -1.445
REMARK SMILES COc1cc(CNC(=O)CCCCCCCC(C)C)ccc1O
REMARK SMILES IDX 11 1 10 2 8 3 9 4 7 5 6 7 5 8 4 9 20 10 3 11 21 12 22 13
REMARK SMILES IDX 2 14 1 15 23 16 12 18 13 19 14 20 15 21 16 22 17 23 18 24
REMARK SMILES IDX 19 25
REMARK H PARENT 7 6 23 17
REMARK Flexibility Score: inf
ROOT
ATOM      1  C   UNL     1      80.034  65.917  70.404  1.00  0.00     0.010 C 
ENDROOT
BRANCH   1   2
ATOM      2  C   UNL     1      81.549  65.866  70.221  1.00  0.00     0.100 C 
BRANCH   2   3
ATOM      3  C   UNL     1      82.272  65.444  71.489  1.00  0.00     0.220 C 
ATOM      4  O   UNL     1      82.924  64.407  71.579  1.00  0.00    -0.275 OA
ATOM      5  N   UNL     1      82.091  66.365  72.510  1.00  0.00    -0.352 N 
ATOM      6  H   UNL     1      81.523  67.191  72.345  1.00  0.00     0.163 HD
BRANCH   5   7
ATOM      7  C   UNL     1      82.666  66.199  73.825  1.00  0.00     0.151 C 
BRANCH   7   8
ATOM      8  C   UNL     1      83.765  67.187  74.086  1.00  0.00    -0.025 A 
ATOM      9  C   UNL     1      84.158  68.060  73.078  1.00  0.00     0.056 A 
ATOM     10  C   UNL     1      84.379  67.219  75.332  1.00  0.00     0.009 A 
ATOM     11  C   UNL     1      85.179  68.979  73.321  1.00  0.00     0.160 A 
ATOM     12  C   UNL     1      85.401  68.137  75.574  1.00  0.00     0.050 A 
ATOM     13  C   UNL     1      85.802  69.017  74.569  1.00  0.00     0.157 A 
BRANCH  11  14
ATOM     14  O   UNL     1      85.562  69.833  72.331  1.00  0.00    -0.493 OA
ATOM     15  C   UNL     1      84.630  70.845  71.952  1.00  0.00     0.278 C 
ENDBRANCH  11  14
BRANCH  13  16
ATOM     16  O   UNL     1      86.800  69.909  74.818  1.00  0.00    -0.504 OA
ATOM     17  H   UNL     1      86.839  70.082  75.775  1.00  0.00     0.293 HD
ENDBRANCH  13  16
ENDBRANCH   7   8
ENDBRANCH   5   7
ENDBRANCH   2   3
ENDBRANCH   1   2
BRANCH   1  18
ATOM     18  C   UNL     1      79.366  64.540  70.346  1.00  0.00     0.001 C 
BRANCH  18  19
ATOM     19  C   UNL     1      79.355  63.865  68.970  1.00  0.00     0.000 C 
BRANCH  19  20
ATOM     20  C   UNL     1      77.957  63.430  68.521  1.00  0.00     0.000 C 
BRANCH  20  21
ATOM     21  C   UNL     1      76.913  64.548  68.609  1.00  0.00     0.000 C 
BRANCH  21  22
ATOM     22  C   UNL     1      75.581  64.187  67.942  1.00  0.00     0.003 C 
BRANCH  22  23
ATOM     23  C   UNL     1      75.415  64.790  66.534  1.00  0.00    -0.017 C 
ATOM     24  C   UNL     1      76.360  65.983  66.368  1.00  0.00     0.007 C 
ATOM     25  C   UNL     1      73.978  65.230  66.250  1.00  0.00     0.007 C 
ENDBRANCH  22  23
ENDBRANCH  21  22
ENDBRANCH  20  21
ENDBRANCH  19  20
ENDBRANCH  18  19
ENDBRANCH   1  18
TORSDOF 12
ENDMDL
MODEL 6
REMARK VINA RESULT:    -5.720      3.626      9.214
REMARK INTER + INTRA:         -11.011
REMARK INTER:                 -10.333
REMARK INTRA:                  -0.678
REMARK UNBOUND:                -1.445
REMARK SMILES COc1cc(CNC(=O)CCCCCCCC(C)C)ccc1O
REMARK SMILES IDX 11 1 10 2 8 3 9 4 7 5 6 7 5 8 4 9 20 10 3 11 21 12 22 13
REMARK SMILES IDX 2 14 1 15 23 16 12 18 13 19 14 20 15 21 16 22 17 23 18 24
REMARK SMILES IDX 19 25
REMARK H PARENT 7 6 23 17
REMARK Flexibility Score: inf
ROOT
ATOM      1  C   UNL     1      93.187  95.179  77.120  1.00  0.00     0.010 C 
ENDROOT
BRANCH   1   2
ATOM      2  C   UNL     1      93.994  95.035  78.408  1.00  0.00     0.100 C 
BRANCH   2   3
ATOM      3  C   UNL     1      94.973  96.180  78.609  1.00  0.00     0.220 C 
ATOM      4  O   UNL     1      94.641  97.362  78.587  1.00  0.00    -0.275 OA
ATOM      5  N   UNL     1      96.265  95.717  78.807  1.00  0.00    -0.352 N 
ATOM      6  H   UNL     1      96.447  94.717  78.798  1.00  0.00     0.163 HD
BRANCH   5   7
ATOM      7  C   UNL     1      97.390  96.599  79.015  1.00  0.00     0.151 C 
BRANCH   7   8
ATOM      8  C   UNL     1      97.674  96.813  80.473  1.00  0.00    -0.025 A 
ATOM      9  C   UNL     1      97.509  98.076  81.028  1.00  0.00     0.056 A 
ATOM     10  C   UNL     1      98.100  95.745  81.254  1.00  0.00     0.009 A 
ATOM     11  C   UNL     1      97.773  98.274  82.383  1.00  0.00     0.160 A 
ATOM     12  C   UNL     1      98.364  95.944  82.610  1.00  0.00     0.050 A 
ATOM     13  C   UNL     1      98.201  97.208  83.175  1.00  0.00     0.157 A 
BRANCH  11  14
ATOM     14  O   UNL     1      97.610  99.515  82.924  1.00  0.00    -0.493 OA
ATOM     15  C   UNL     1      96.374  99.775  83.587  1.00  0.00     0.278 C 
ENDBRANCH  11  14
BRANCH  13  16
ATOM     16  O   UNL     1      98.462  97.389  84.499  1.00  0.00    -0.504 OA
ATOM     17  H   UNL     1      97.621  97.394  84.989  1.00  0.00     0.293 HD
ENDBRANCH  13  16
ENDBRANCH   7   8
ENDBRANCH   5   7
ENDBRANCH   2   3
ENDBRANCH   1   2
BRANCH   1  18
ATOM     18  C   UNL     1      91.672  95.184  77.346  1.00  0.00     0.001 C 
BRANCH  18  19
ATOM     19  C   UNL     1      90.909  93.990  76.762  1.00  0.00     0.000 C 
BRANCH  19  20
ATOM     20  C   UNL     1      89.974  94.374  75.612  1.00  0.00     0.000 C 
BRANCH  20  21
ATOM     21  C   UNL     1      90.058  93.423  74.414  1.00  0.00     0.000 C 
BRANCH  21  22
ATOM     22  C   UNL     1      90.580  92.029  74.781  1.00  0.00     0.003 C 
BRANCH  22  23
ATOM     23  C   UNL     1      90.069  90.916  73.845  1.00  0.00    -0.017 C 
ATOM     24  C   UNL     1      88.603  90.610  74.157  1.00  0.00     0.007 C 
ATOM     25  C   UNL     1      90.896  89.634  73.954  1.00  0.00     0.007 C 
ENDBRANCH  22  23
ENDBRANCH  21  22
ENDBRANCH  20  21
ENDBRANCH  19  20
ENDBRANCH  18  19
ENDBRANCH   1  18
TORSDOF 12
ENDMDL
MODEL 7
REMARK VINA RESULT:    -5.666      4.368      9.239
REMARK INTER + INTRA:         -10.920
REMARK INTER:                 -10.153
REMARK INTRA:                  -0.768
REMARK UNBOUND:                -1.445
REMARK SMILES COc1cc(CNC(=O)CCCCCCCC(C)C)ccc1O
REMARK SMILES IDX 11 1 10 2 8 3 9 4 7 5 6 7 5 8 4 9 20 10 3 11 21 12 22 13
REMARK SMILES IDX 2 14 1 15 23 16 12 18 13 19 14 20 15 21 16 22 17 23 18 24
REMARK SMILES IDX 19 25
REMARK H PARENT 7 6 23 17
REMARK Flexibility Score: inf
ROOT
ATOM      1  C   UNL     1      95.443  95.812  77.956  1.00  0.00     0.010 C 
ENDROOT
BRANCH   1   2
ATOM      2  C   UNL     1      95.035  94.503  78.630  1.00  0.00     0.100 C 
BRANCH   2   3
ATOM      3  C   UNL     1      95.172  94.564  80.142  1.00  0.00     0.220 C 
ATOM      4  O   UNL     1      94.407  93.989  80.912  1.00  0.00    -0.275 OA
ATOM      5  N   UNL     1      96.250  95.348  80.525  1.00  0.00    -0.352 N 
ATOM      6  H   UNL     1      96.823  95.795  79.815  1.00  0.00     0.163 HD
BRANCH   5   7
ATOM      7  C   UNL     1      96.599  95.578  81.908  1.00  0.00     0.151 C 
BRANCH   7   8
ATOM      8  C   UNL     1      97.969  96.176  82.050  1.00  0.00    -0.025 A 
ATOM      9  C   UNL     1      98.632  96.095  83.268  1.00  0.00     0.056 A 
ATOM     10  C   UNL     1      98.559  96.805  80.960  1.00  0.00     0.009 A 
ATOM     11  C   UNL     1      99.905  96.651  83.399  1.00  0.00     0.160 A 
ATOM     12  C   UNL     1      99.832  97.362  81.092  1.00  0.00     0.050 A 
ATOM     13  C   UNL     1     100.505  97.285  82.311  1.00  0.00     0.157 A 
BRANCH  11  14
ATOM     14  O   UNL     1     100.552  96.570  84.595  1.00  0.00    -0.493 OA
ATOM     15  C   UNL     1      99.951  97.239  85.703  1.00  0.00     0.278 C 
ENDBRANCH  11  14
BRANCH  13  16
ATOM     16  O   UNL     1     101.747  97.831  82.426  1.00  0.00    -0.504 OA
ATOM     17  H   UNL     1     102.411  97.123  82.364  1.00  0.00     0.293 HD
ENDBRANCH  13  16
ENDBRANCH   7   8
ENDBRANCH   5   7
ENDBRANCH   2   3
ENDBRANCH   1   2
BRANCH   1  18
ATOM     18  C   UNL     1      94.391  96.917  78.083  1.00  0.00     0.001 C 
BRANCH  18  19
ATOM     19  C   UNL     1      93.372  96.998  76.941  1.00  0.00     0.000 C 
BRANCH  19  20
ATOM     20  C   UNL     1      92.186  96.046  77.120  1.00  0.00     0.000 C 
BRANCH  20  21
ATOM     21  C   UNL     1      92.267  94.798  76.234  1.00  0.00     0.000 C 
BRANCH  21  22
ATOM     22  C   UNL     1      90.944  94.462  75.538  1.00  0.00     0.003 C 
BRANCH  22  23
ATOM     23  C   UNL     1      90.654  92.950  75.467  1.00  0.00    -0.017 C 
ATOM     24  C   UNL     1      89.908  92.626  74.171  1.00  0.00     0.007 C 
ATOM     25  C   UNL     1      89.843  92.452  76.665  1.00  0.00     0.007 C 
ENDBRANCH  22  23
ENDBRANCH  21  22
ENDBRANCH  20  21
ENDBRANCH  19  20
ENDBRANCH  18  19
ENDBRANCH   1  18
TORSDOF 12
ENDMDL
MODEL 8
REMARK VINA RESULT:    -5.586      3.755      8.853
REMARK INTER + INTRA:         -10.786
REMARK INTER:                  -9.302
REMARK INTRA:                  -1.484
REMARK UNBOUND:                -1.445
REMARK SMILES COc1cc(CNC(=O)CCCCCCCC(C)C)ccc1O
REMARK SMILES IDX 11 1 10 2 8 3 9 4 7 5 6 7 5 8 4 9 20 10 3 11 21 12 22 13
REMARK SMILES IDX 2 14 1 15 23 16 12 18 13 19 14 20 15 21 16 22 17 23 18 24
REMARK SMILES IDX 19 25
REMARK H PARENT 7 6 23 17
REMARK Flexibility Score: inf
ROOT
ATOM      1  C   UNL     1      95.509  96.232  77.557  1.00  0.00     0.010 C 
ENDROOT
BRANCH   1   2
ATOM      2  C   UNL     1      95.488  94.893  78.292  1.00  0.00     0.100 C 
BRANCH   2   3
ATOM      3  C   UNL     1      95.591  95.058  79.799  1.00  0.00     0.220 C 
ATOM      4  O   UNL     1      94.870  94.462  80.593  1.00  0.00    -0.275 OA
ATOM      5  N   UNL     1      96.585  95.962  80.146  1.00  0.00    -0.352 N 
ATOM      6  H   UNL     1      97.126  96.418  79.416  1.00  0.00     0.163 HD
BRANCH   5   7
ATOM      7  C   UNL     1      96.885  96.308  81.516  1.00  0.00     0.151 C 
BRANCH   7   8
ATOM      8  C   UNL     1      96.796  97.787  81.754  1.00  0.00    -0.025 A 
ATOM      9  C   UNL     1      97.524  98.363  82.789  1.00  0.00     0.056 A 
ATOM     10  C   UNL     1      95.985  98.566  80.938  1.00  0.00     0.009 A 
ATOM     11  C   UNL     1      97.441  99.737  83.010  1.00  0.00     0.160 A 
ATOM     12  C   UNL     1      95.901  99.941  81.160  1.00  0.00     0.050 A 
ATOM     13  C   UNL     1      96.629 100.527  82.195  1.00  0.00     0.157 A 
BRANCH  11  14
ATOM     14  O   UNL     1      98.156 100.298  84.025  1.00  0.00    -0.493 OA
ATOM     15  C   UNL     1      99.574 100.152  83.976  1.00  0.00     0.278 C 
ENDBRANCH  11  14
BRANCH  13  16
ATOM     16  O   UNL     1      96.539 101.871  82.401  1.00  0.00    -0.504 OA
ATOM     17  H   UNL     1      96.037 102.270  81.670  1.00  0.00     0.293 HD
ENDBRANCH  13  16
ENDBRANCH   7   8
ENDBRANCH   5   7
ENDBRANCH   2   3
ENDBRANCH   1   2
BRANCH   1  18
ATOM     18  C   UNL     1      94.186  96.997  77.645  1.00  0.00     0.001 C 
BRANCH  18  19
ATOM     19  C   UNL     1      93.554  97.387  76.305  1.00  0.00     0.000 C 
BRANCH  19  20
ATOM     20  C   UNL     1      93.880  96.408  75.174  1.00  0.00     0.000 C 
BRANCH  20  21
ATOM     21  C   UNL     1      93.114  95.084  75.274  1.00  0.00     0.000 C 
BRANCH  21  22
ATOM     22  C   UNL     1      91.619  95.269  75.553  1.00  0.00     0.003 C 
BRANCH  22  23
ATOM     23  C   UNL     1      91.064  94.284  76.601  1.00  0.00    -0.017 C 
ATOM     24  C   UNL     1      89.552  94.473  76.739  1.00  0.00     0.007 C 
ATOM     25  C   UNL     1      91.729  94.448  77.969  1.00  0.00     0.007 C 
ENDBRANCH  22  23
ENDBRANCH  21  22
ENDBRANCH  20  21
ENDBRANCH  19  20
ENDBRANCH  18  19
ENDBRANCH   1  18
TORSDOF 12
ENDMDL
MODEL 9
REMARK VINA RESULT:    -5.414     16.299     20.390
REMARK INTER + INTRA:         -10.499
REMARK INTER:                  -9.382
REMARK INTRA:                  -1.117
REMARK UNBOUND:                -1.445
REMARK SMILES COc1cc(CNC(=O)CCCCCCCC(C)C)ccc1O
REMARK SMILES IDX 11 1 10 2 8 3 9 4 7 5 6 7 5 8 4 9 20 10 3 11 21 12 22 13
REMARK SMILES IDX 2 14 1 15 23 16 12 18 13 19 14 20 15 21 16 22 17 23 18 24
REMARK SMILES IDX 19 25
REMARK H PARENT 7 6 23 17
REMARK Flexibility Score: inf
ROOT
ATOM      1  C   UNL     1      74.756  89.407  68.448  1.00  0.00     0.010 C 
ENDROOT
BRANCH   1   2
ATOM      2  C   UNL     1      75.208  89.988  69.786  1.00  0.00     0.100 C 
BRANCH   2   3
ATOM      3  C   UNL     1      74.038  90.333  70.692  1.00  0.00     0.220 C 
ATOM      4  O   UNL     1      73.097  89.571  70.898  1.00  0.00    -0.275 OA
ATOM      5  N   UNL     1      74.171  91.602  71.235  1.00  0.00    -0.352 N 
ATOM      6  H   UNL     1      74.982  92.168  70.998  1.00  0.00     0.163 HD
BRANCH   5   7
ATOM      7  C   UNL     1      73.191  92.180  72.126  1.00  0.00     0.151 C 
BRANCH   7   8
ATOM      8  C   UNL     1      73.790  92.562  73.448  1.00  0.00    -0.025 A 
ATOM      9  C   UNL     1      74.917  93.374  73.484  1.00  0.00     0.056 A 
ATOM     10  C   UNL     1      73.211  92.099  74.624  1.00  0.00     0.009 A 
ATOM     11  C   UNL     1      75.474  93.728  74.713  1.00  0.00     0.160 A 
ATOM     12  C   UNL     1      73.769  92.454  75.853  1.00  0.00     0.050 A 
ATOM     13  C   UNL     1      74.900  93.268  75.898  1.00  0.00     0.157 A 
BRANCH  11  14
ATOM     14  O   UNL     1      76.580  94.524  74.743  1.00  0.00    -0.493 OA
ATOM     15  C   UNL     1      77.755  94.024  74.107  1.00  0.00     0.278 C 
ENDBRANCH  11  14
BRANCH  13  16
ATOM     16  O   UNL     1      75.434  93.608  77.104  1.00  0.00    -0.504 OA
ATOM     17  H   UNL     1      74.817  93.346  77.808  1.00  0.00     0.293 HD
ENDBRANCH  13  16
ENDBRANCH   7   8
ENDBRANCH   5   7
ENDBRANCH   2   3
ENDBRANCH   1   2
BRANCH   1  18
ATOM     18  C   UNL     1      75.562  89.926  67.254  1.00  0.00     0.001 C 
BRANCH  18  19
ATOM     19  C   UNL     1      76.465  88.897  66.565  1.00  0.00     0.000 C 
BRANCH  19  20
ATOM     20  C   UNL     1      77.533  88.312  67.493  1.00  0.00     0.000 C 
BRANCH  20  21
ATOM     21  C   UNL     1      77.426  86.792  67.664  1.00  0.00     0.000 C 
BRANCH  21  22
ATOM     22  C   UNL     1      76.928  86.372  69.051  1.00  0.00     0.003 C 
BRANCH  22  23
ATOM     23  C   UNL     1      75.971  85.164  69.019  1.00  0.00    -0.017 C 
ATOM     24  C   UNL     1      74.582  85.615  68.562  1.00  0.00     0.007 C 
ATOM     25  C   UNL     1      75.864  84.465  70.375  1.00  0.00     0.007 C 
ENDBRANCH  22  23
ENDBRANCH  21  22
ENDBRANCH  20  21
ENDBRANCH  19  20
ENDBRANCH  18  19
ENDBRANCH   1  18
TORSDOF 12
ENDMDL
MODEL 10
REMARK VINA RESULT:    -5.360     12.503     14.133
REMARK INTER + INTRA:         -10.408
REMARK INTER:                  -9.593
REMARK INTRA:                  -0.816
REMARK UNBOUND:                -1.445
REMARK SMILES COc1cc(CNC(=O)CCCCCCCC(C)C)ccc1O
REMARK SMILES IDX 11 1 10 2 8 3 9 4 7 5 6 7 5 8 4 9 20 10 3 11 21 12 22 13
REMARK SMILES IDX 2 14 1 15 23 16 12 18 13 19 14 20 15 21 16 22 17 23 18 24
REMARK SMILES IDX 19 25
REMARK H PARENT 7 6 23 17
REMARK Flexibility Score: inf
ROOT
ATOM      1  C   UNL     1      98.423  82.926  78.910  1.00  0.00     0.010 C 
ENDROOT
BRANCH   1   2
ATOM      2  C   UNL     1      97.061  83.022  79.595  1.00  0.00     0.100 C 
BRANCH   2   3
ATOM      3  C   UNL     1      97.046  82.339  80.953  1.00  0.00     0.220 C 
ATOM      4  O   UNL     1      97.040  81.120  81.093  1.00  0.00    -0.275 OA
ATOM      5  N   UNL     1      97.033  83.263  81.987  1.00  0.00    -0.352 N 
ATOM      6  H   UNL     1      97.027  84.257  81.773  1.00  0.00     0.163 HD
BRANCH   5   7
ATOM      7  C   UNL     1      97.009  82.879  83.380  1.00  0.00     0.151 C 
BRANCH   7   8
ATOM      8  C   UNL     1      95.843  83.482  84.109  1.00  0.00    -0.025 A 
ATOM      9  C   UNL     1      94.765  82.680  84.464  1.00  0.00     0.056 A 
ATOM     10  C   UNL     1      95.854  84.836  84.420  1.00  0.00     0.009 A 
ATOM     11  C   UNL     1      93.682  83.241  85.141  1.00  0.00     0.160 A 
ATOM     12  C   UNL     1      94.770  85.396  85.097  1.00  0.00     0.050 A 
ATOM     13  C   UNL     1      93.684  84.599  85.457  1.00  0.00     0.157 A 
BRANCH  11  14
ATOM     14  O   UNL     1      92.626  82.452  85.487  1.00  0.00    -0.493 OA
ATOM     15  C   UNL     1      91.689  82.135  84.458  1.00  0.00     0.278 C 
ENDBRANCH  11  14
BRANCH  13  16
ATOM     16  O   UNL     1      92.633  85.158  86.119  1.00  0.00    -0.504 OA
ATOM     17  H   UNL     1      91.924  85.350  85.481  1.00  0.00     0.293 HD
ENDBRANCH  13  16
ENDBRANCH   7   8
ENDBRANCH   5   7
ENDBRANCH   2   3
ENDBRANCH   1   2
BRANCH   1  18
ATOM     18  C   UNL     1      98.372  82.234  77.545  1.00  0.00     0.001 C 
BRANCH  18  19
ATOM     19  C   UNL     1      97.311  82.759  76.573  1.00  0.00     0.000 C 
BRANCH  19  20
ATOM     20  C   UNL     1      97.428  84.262  76.304  1.00  0.00     0.000 C 
BRANCH  20  21
ATOM     21  C   UNL     1      97.596  84.604  74.819  1.00  0.00     0.000 C 
BRANCH  21  22
ATOM     22  C   UNL     1      97.461  83.388  73.897  1.00  0.00     0.003 C 
BRANCH  22  23
ATOM     23  C   UNL     1      98.553  83.316  72.812  1.00  0.00    -0.017 C 
ATOM     24  C   UNL     1      98.384  82.035  71.992  1.00  0.00     0.007 C 
ATOM     25  C   UNL     1      99.965  83.370  73.396  1.00  0.00     0.007 C 
ENDBRANCH  22  23
ENDBRANCH  21  22
ENDBRANCH  20  21
ENDBRANCH  19  20
ENDBRANCH  18  19
ENDBRANCH   1  18
TORSDOF 12
ENDMDL
