MODEL 1
REMARK VINA RESULT:    -5.155      0.000      0.000
REMARK INTER + INTRA:          -9.937
REMARK INTER:                  -8.319
REMARK INTRA:                  -1.618
REMARK UNBOUND:                -1.618
REMARK SMILES CCCCCCCCC(=O)NCc1ccc(O)c(OC)c1
REMARK SMILES IDX 7 1 6 2 5 3 4 4 3 5 2 6 1 7 8 8 9 9 10 10 11 11 12 13 13 14
REMARK SMILES IDX 21 15 14 16 18 17 15 18 16 19 19 20 20 21 17 22
REMARK H PARENT 11 12 17 23
REMARK Flexibility Score: inf
ROOT
ATOM      1  C   UNL     1      80.786  87.733  83.549  1.00  0.00     0.010 C 
ENDROOT
BRANCH   1   2
ATOM      2  C   UNL     1      80.017  86.751  84.480  1.00  0.00     0.001 C 
BRANCH   2   3
ATOM      3  C   UNL     1      80.973  85.763  85.211  1.00  0.00     0.000 C 
BRANCH   3   4
ATOM      4  C   UNL     1      81.003  85.947  86.755  1.00  0.00    -0.000 C 
BRANCH   4   5
ATOM      5  C   UNL     1      80.137  87.147  87.233  1.00  0.00    -0.000 C 
BRANCH   5   6
ATOM      6  C   UNL     1      80.941  88.157  88.095  1.00  0.00    -0.003 C 
ATOM      7  C   UNL     1      80.200  89.496  88.298  1.00  0.00     0.004 C 
ENDBRANCH   5   6
ENDBRANCH   4   5
ENDBRANCH   3   4
ENDBRANCH   2   3
ENDBRANCH   1   2
BRANCH   1   8
ATOM      8  C   UNL     1      80.961  89.157  84.145  1.00  0.00     0.100 C 
BRANCH   8   9
ATOM      9  C   UNL     1      82.258  89.291  84.852  1.00  0.00     0.220 C 
ATOM     10  O   UNL     1      83.155  88.446  84.615  1.00  0.00    -0.275 OA
ATOM     11  N   UNL     1      82.474  90.326  85.716  1.00  0.00    -0.352 N 
ATOM     12  H   UNL     1      81.660  90.895  85.898  1.00  0.00     0.163 HD
BRANCH  11  13
ATOM     13  C   UNL     1      83.719  90.643  86.346  1.00  0.00     0.151 C 
BRANCH  13  14
ATOM     14  C   UNL     1      83.574  91.224  87.707  1.00  0.00    -0.025 A 
ATOM     15  C   UNL     1      83.170  92.571  87.867  1.00  0.00     0.056 A 
ATOM     16  C   UNL     1      83.838  90.449  88.860  1.00  0.00     0.009 A 
ATOM     17  C   UNL     1      83.010  93.132  89.155  1.00  0.00     0.160 A 
ATOM     18  C   UNL     1      83.680  91.000  90.144  1.00  0.00     0.050 A 
ATOM     19  C   UNL     1      83.275  92.340  90.296  1.00  0.00     0.157 A 
BRANCH  17  20
ATOM     20  O   UNL     1      82.660  94.450  89.308  1.00  0.00    -0.493 OA
ATOM     21  C   UNL     1      82.530  95.171  88.071  1.00  0.00     0.278 C 
ENDBRANCH  17  20
BRANCH  19  22
ATOM     22  O   UNL     1      83.152  92.872  91.539  1.00  0.00    -0.504 OA
ATOM     23  H   UNL     1      83.964  92.726  92.031  1.00  0.00     0.293 HD
ENDBRANCH  19  22
ENDBRANCH  13  14
ENDBRANCH  11  13
ENDBRANCH   8   9
ENDBRANCH   1   8
TORSDOF 11
ENDMDL
MODEL 2
REMARK VINA RESULT:    -5.110     17.619     20.527
REMARK INTER + INTRA:          -9.865
REMARK INTER:                  -9.160
REMARK INTRA:                  -0.706
REMARK UNBOUND:                -1.618
REMARK SMILES CCCCCCCCC(=O)NCc1ccc(O)c(OC)c1
REMARK SMILES IDX 7 1 6 2 5 3 4 4 3 5 2 6 1 7 8 8 9 9 10 10 11 11 12 13 13 14
REMARK SMILES IDX 21 15 14 16 18 17 15 18 16 19 19 20 20 21 17 22
REMARK H PARENT 11 12 17 23
REMARK Flexibility Score: inf
ROOT
ATOM      1  C   UNL     1      63.488  84.460  75.619  1.00  0.00     0.010 C 
ENDROOT
BRANCH   1   2
ATOM      2  C   UNL     1      62.387  83.367  75.730  1.00  0.00     0.001 C 
BRANCH   2   3
ATOM      3  C   UNL     1      62.966  81.930  75.576  1.00  0.00     0.000 C 
BRANCH   3   4
ATOM      4  C   UNL     1      62.650  81.271  74.204  1.00  0.00    -0.000 C 
BRANCH   4   5
ATOM      5  C   UNL     1      63.791  81.468  73.166  1.00  0.00    -0.000 C 
BRANCH   5   6
ATOM      6  C   UNL     1      65.197  81.202  73.769  1.00  0.00    -0.003 C 
ATOM      7  C   UNL     1      65.745  79.801  73.420  1.00  0.00     0.004 C 
ENDBRANCH   5   6
ENDBRANCH   4   5
ENDBRANCH   3   4
ENDBRANCH   2   3
ENDBRANCH   1   2
BRANCH   1   8
ATOM      8  C   UNL     1      63.200  85.733  76.464  1.00  0.00     0.100 C 
BRANCH   8   9
ATOM      9  C   UNL     1      64.403  86.164  77.217  1.00  0.00     0.220 C 
ATOM     10  O   UNL     1      65.516  86.107  76.642  1.00  0.00    -0.275 OA
ATOM     11  N   UNL     1      64.290  86.638  78.492  1.00  0.00    -0.352 N 
ATOM     12  H   UNL     1      63.364  86.559  78.887  1.00  0.00     0.163 HD
BRANCH  11  13
ATOM     13  C   UNL     1      65.347  87.212  79.267  1.00  0.00     0.151 C 
BRANCH  13  14
ATOM     14  C   UNL     1      65.813  86.347  80.383  1.00  0.00    -0.025 A 
ATOM     15  C   UNL     1      65.111  86.330  81.612  1.00  0.00     0.056 A 
ATOM     16  C   UNL     1      66.960  85.533  80.242  1.00  0.00     0.009 A 
ATOM     17  C   UNL     1      65.531  85.500  82.676  1.00  0.00     0.160 A 
ATOM     18  C   UNL     1      67.383  84.704  81.296  1.00  0.00     0.050 A 
ATOM     19  C   UNL     1      66.678  84.690  82.515  1.00  0.00     0.157 A 
BRANCH  17  20
ATOM     20  O   UNL     1      64.874  85.516  83.881  1.00  0.00    -0.493 OA
ATOM     21  C   UNL     1      63.502  85.939  83.797  1.00  0.00     0.278 C 
ENDBRANCH  17  20
BRANCH  19  22
ATOM     22  O   UNL     1      67.111  83.907  83.536  1.00  0.00    -0.504 OA
ATOM     23  H   UNL     1      66.770  83.017  83.423  1.00  0.00     0.293 HD
ENDBRANCH  19  22
ENDBRANCH  13  14
ENDBRANCH  11  13
ENDBRANCH   8   9
ENDBRANCH   1   8
TORSDOF 11
ENDMDL
MODEL 3
REMARK VINA RESULT:    -5.078      2.516      4.467
REMARK INTER + INTRA:          -9.813
REMARK INTER:                  -8.486
REMARK INTRA:                  -1.328
REMARK UNBOUND:                -1.618
REMARK SMILES CCCCCCCCC(=O)NCc1ccc(O)c(OC)c1
REMARK SMILES IDX 7 1 6 2 5 3 4 4 3 5 2 6 1 7 8 8 9 9 10 10 11 11 12 13 13 14
REMARK SMILES IDX 21 15 14 16 18 17 15 18 16 19 19 20 20 21 17 22
REMARK H PARENT 11 12 17 23
REMARK Flexibility Score: inf
ROOT
ATOM      1  C   UNL     1      83.142  89.462  84.725  1.00  0.00     0.010 C 
ENDROOT
BRANCH   1   2
ATOM      2  C   UNL     1      81.717  90.008  84.422  1.00  0.00     0.001 C 
BRANCH   2   3
ATOM      3  C   UNL     1      80.690  89.619  85.525  1.00  0.00     0.000 C 
BRANCH   3   4
ATOM      4  C   UNL     1      79.820  88.381  85.164  1.00  0.00    -0.000 C 
BRANCH   4   5
ATOM      5  C   UNL     1      79.893  88.016  83.654  1.00  0.00    -0.000 C 
BRANCH   5   6
ATOM      6  C   UNL     1      80.524  86.619  83.408  1.00  0.00    -0.003 C 
ATOM      7  C   UNL     1      80.954  85.917  84.715  1.00  0.00     0.004 C 
ENDBRANCH   5   6
ENDBRANCH   4   5
ENDBRANCH   3   4
ENDBRANCH   2   3
ENDBRANCH   1   2
BRANCH   1   8
ATOM      8  C   UNL     1      84.232  90.566  84.822  1.00  0.00     0.100 C 
BRANCH   8   9
ATOM      9  C   UNL     1      84.294  91.145  86.185  1.00  0.00     0.220 C 
ATOM     10  O   UNL     1      84.488  92.379  86.299  1.00  0.00    -0.275 OA
ATOM     11  N   UNL     1      84.114  90.355  87.284  1.00  0.00    -0.352 N 
ATOM     12  H   UNL     1      84.052  89.367  87.083  1.00  0.00     0.163 HD
BRANCH  11  13
ATOM     13  C   UNL     1      84.011  90.813  88.636  1.00  0.00     0.151 C 
BRANCH  13  14
ATOM     14  C   UNL     1      83.267  89.886  89.530  1.00  0.00    -0.025 A 
ATOM     15  C   UNL     1      82.288  89.014  88.996  1.00  0.00     0.056 A 
ATOM     16  C   UNL     1      83.518  89.861  90.921  1.00  0.00     0.009 A 
ATOM     17  C   UNL     1      81.586  88.115  89.832  1.00  0.00     0.160 A 
ATOM     18  C   UNL     1      82.823  88.969  91.757  1.00  0.00     0.050 A 
ATOM     19  C   UNL     1      81.853  88.101  91.219  1.00  0.00     0.157 A 
BRANCH  17  20
ATOM     20  O   UNL     1      80.608  87.300  89.319  1.00  0.00    -0.493 OA
ATOM     21  C   UNL     1      81.102  86.254  88.464  1.00  0.00     0.278 C 
ENDBRANCH  17  20
BRANCH  19  22
ATOM     22  O   UNL     1      81.168  87.263  92.039  1.00  0.00    -0.504 OA
ATOM     23  H   UNL     1      81.263  87.556  92.948  1.00  0.00     0.293 HD
ENDBRANCH  19  22
ENDBRANCH  13  14
ENDBRANCH  11  13
ENDBRANCH   8   9
ENDBRANCH   1   8
TORSDOF 11
ENDMDL
MODEL 4
REMARK VINA RESULT:    -4.921     25.091     27.385
REMARK INTER + INTRA:          -9.559
REMARK INTER:                  -7.689
REMARK INTRA:                  -1.871
REMARK UNBOUND:                -1.618
REMARK SMILES CCCCCCCCC(=O)NCc1ccc(O)c(OC)c1
REMARK SMILES IDX 7 1 6 2 5 3 4 4 3 5 2 6 1 7 8 8 9 9 10 10 11 11 12 13 13 14
REMARK SMILES IDX 21 15 14 16 18 17 15 18 16 19 19 20 20 21 17 22
REMARK H PARENT 11 12 17 23
REMARK Flexibility Score: inf
ROOT
ATOM      1  C   UNL     1      80.230  65.164  73.159  1.00  0.00     0.010 C 
ENDROOT
BRANCH   1   2
ATOM      2  C   UNL     1      80.558  65.643  71.716  1.00  0.00     0.001 C 
BRANCH   2   3
ATOM      3  C   UNL     1      80.488  67.193  71.580  1.00  0.00     0.000 C 
BRANCH   3   4
ATOM      4  C   UNL     1      81.823  67.843  71.117  1.00  0.00    -0.000 C 
BRANCH   4   5
ATOM      5  C   UNL     1      82.649  68.423  72.299  1.00  0.00    -0.000 C 
BRANCH   5   6
ATOM      6  C   UNL     1      83.650  67.394  72.889  1.00  0.00    -0.003 C 
ATOM      7  C   UNL     1      84.333  67.893  74.181  1.00  0.00     0.004 C 
ENDBRANCH   5   6
ENDBRANCH   4   5
ENDBRANCH   3   4
ENDBRANCH   2   3
ENDBRANCH   1   2
BRANCH   1   8
ATOM      8  C   UNL     1      80.178  66.310  74.207  1.00  0.00     0.100 C 
BRANCH   8   9
ATOM      9  C   UNL     1      81.173  66.101  75.286  1.00  0.00     0.220 C 
ATOM     10  O   UNL     1      81.419  67.055  76.062  1.00  0.00    -0.275 OA
ATOM     11  N   UNL     1      81.780  64.888  75.444  1.00  0.00    -0.352 N 
ATOM     12  H   UNL     1      81.576  64.221  74.715  1.00  0.00     0.163 HD
BRANCH  11  13
ATOM     13  C   UNL     1      82.645  64.520  76.524  1.00  0.00     0.151 C 
BRANCH  13  14
ATOM     14  C   UNL     1      84.084  64.782  76.257  1.00  0.00    -0.025 A 
ATOM     15  C   UNL     1      84.823  65.634  77.112  1.00  0.00     0.056 A 
ATOM     16  C   UNL     1      84.738  64.191  75.151  1.00  0.00     0.009 A 
ATOM     17  C   UNL     1      86.197  65.879  76.881  1.00  0.00     0.160 A 
ATOM     18  C   UNL     1      86.104  64.429  74.917  1.00  0.00     0.050 A 
ATOM     19  C   UNL     1      86.834  65.276  75.773  1.00  0.00     0.157 A 
BRANCH  17  20
ATOM     20  O   UNL     1      86.901  66.738  77.686  1.00  0.00    -0.493 OA
ATOM     21  C   UNL     1      86.622  68.129  77.447  1.00  0.00     0.278 C 
ENDBRANCH  17  20
BRANCH  19  22
ATOM     22  O   UNL     1      88.145  65.521  75.523  1.00  0.00    -0.504 OA
ATOM     23  H   UNL     1      88.574  64.711  75.237  1.00  0.00     0.293 HD
ENDBRANCH  19  22
ENDBRANCH  13  14
ENDBRANCH  11  13
ENDBRANCH   8   9
ENDBRANCH   1   8
TORSDOF 11
ENDMDL
MODEL 5
REMARK VINA RESULT:    -4.853     24.056     26.452
REMARK INTER + INTRA:          -9.449
REMARK INTER:                  -7.963
REMARK INTRA:                  -1.486
REMARK UNBOUND:                -1.618
REMARK SMILES CCCCCCCCC(=O)NCc1ccc(O)c(OC)c1
REMARK SMILES IDX 7 1 6 2 5 3 4 4 3 5 2 6 1 7 8 8 9 9 10 10 11 11 12 13 13 14
REMARK SMILES IDX 21 15 14 16 18 17 15 18 16 19 19 20 20 21 17 22
REMARK H PARENT 11 12 17 23
REMARK Flexibility Score: inf
ROOT
ATOM      1  C   UNL     1      80.384  65.075  73.323  1.00  0.00     0.010 C 
ENDROOT
BRANCH   1   2
ATOM      2  C   UNL     1      80.889  65.434  71.896  1.00  0.00     0.001 C 
BRANCH   2   3
ATOM      3  C   UNL     1      80.152  66.672  71.305  1.00  0.00     0.000 C 
BRANCH   3   4
ATOM      4  C   UNL     1      81.109  67.782  70.786  1.00  0.00    -0.000 C 
BRANCH   4   5
ATOM      5  C   UNL     1      82.565  67.611  71.305  1.00  0.00    -0.000 C 
BRANCH   5   6
ATOM      6  C   UNL     1      82.980  68.732  72.297  1.00  0.00    -0.003 C 
ATOM      7  C   UNL     1      84.024  69.702  71.703  1.00  0.00     0.004 C 
ENDBRANCH   5   6
ENDBRANCH   4   5
ENDBRANCH   3   4
ENDBRANCH   2   3
ENDBRANCH   1   2
BRANCH   1   8
ATOM      8  C   UNL     1      80.268  66.297  74.276  1.00  0.00     0.100 C 
BRANCH   8   9
ATOM      9  C   UNL     1      81.443  66.395  75.175  1.00  0.00     0.220 C 
ATOM     10  O   UNL     1      81.283  66.903  76.310  1.00  0.00    -0.275 OA
ATOM     11  N   UNL     1      82.659  65.915  74.781  1.00  0.00    -0.352 N 
ATOM     12  H   UNL     1      82.696  65.608  73.820  1.00  0.00     0.163 HD
BRANCH  11  13
ATOM     13  C   UNL     1      83.827  65.823  75.603  1.00  0.00     0.151 C 
BRANCH  13  14
ATOM     14  C   UNL     1      84.646  67.064  75.625  1.00  0.00    -0.025 A 
ATOM     15  C   UNL     1      85.485  67.383  74.530  1.00  0.00     0.056 A 
ATOM     16  C   UNL     1      84.607  67.941  76.733  1.00  0.00     0.009 A 
ATOM     17  C   UNL     1      86.257  68.567  74.530  1.00  0.00     0.160 A 
ATOM     18  C   UNL     1      85.371  69.122  76.738  1.00  0.00     0.050 A 
ATOM     19  C   UNL     1      86.201  69.434  75.644  1.00  0.00     0.157 A 
BRANCH  17  20
ATOM     20  O   UNL     1      87.101  68.854  73.486  1.00  0.00    -0.493 OA
ATOM     21  C   UNL     1      87.190  67.812  72.498  1.00  0.00     0.278 C 
ENDBRANCH  17  20
BRANCH  19  22
ATOM     22  O   UNL     1      86.956  70.562  75.670  1.00  0.00    -0.504 OA
ATOM     23  H   UNL     1      87.171  70.824  74.772  1.00  0.00     0.293 HD
ENDBRANCH  19  22
ENDBRANCH  13  14
ENDBRANCH  11  13
ENDBRANCH   8   9
ENDBRANCH   1   8
TORSDOF 11
ENDMDL
MODEL 6
REMARK VINA RESULT:    -4.844      2.830      4.987
REMARK INTER + INTRA:          -9.435
REMARK INTER:                  -8.047
REMARK INTRA:                  -1.388
REMARK UNBOUND:                -1.618
REMARK SMILES CCCCCCCCC(=O)NCc1ccc(O)c(OC)c1
REMARK SMILES IDX 7 1 6 2 5 3 4 4 3 5 2 6 1 7 8 8 9 9 10 10 11 11 12 13 13 14
REMARK SMILES IDX 21 15 14 16 18 17 15 18 16 19 19 20 20 21 17 22
REMARK H PARENT 11 12 17 23
REMARK Flexibility Score: inf
ROOT
ATOM      1  C   UNL     1      82.993  89.188  85.093  1.00  0.00     0.010 C 
ENDROOT
BRANCH   1   2
ATOM      2  C   UNL     1      81.531  89.654  85.347  1.00  0.00     0.001 C 
BRANCH   2   3
ATOM      3  C   UNL     1      80.585  89.300  84.161  1.00  0.00     0.000 C 
BRANCH   3   4
ATOM      4  C   UNL     1      80.875  87.912  83.522  1.00  0.00    -0.000 C 
BRANCH   4   5
ATOM      5  C   UNL     1      79.951  86.791  84.077  1.00  0.00    -0.000 C 
BRANCH   5   6
ATOM      6  C   UNL     1      80.662  85.900  85.131  1.00  0.00    -0.003 C 
ATOM      7  C   UNL     1      80.344  86.318  86.583  1.00  0.00     0.004 C 
ENDBRANCH   5   6
ENDBRANCH   4   5
ENDBRANCH   3   4
ENDBRANCH   2   3
ENDBRANCH   1   2
BRANCH   1   8
ATOM      8  C   UNL     1      84.065  90.059  85.806  1.00  0.00     0.100 C 
BRANCH   8   9
ATOM      9  C   UNL     1      83.653  90.397  87.189  1.00  0.00     0.220 C 
ATOM     10  O   UNL     1      83.362  91.589  87.450  1.00  0.00    -0.275 OA
ATOM     11  N   UNL     1      83.567  89.424  88.144  1.00  0.00    -0.352 N 
ATOM     12  H   UNL     1      83.906  88.520  87.851  1.00  0.00     0.163 HD
BRANCH  11  13
ATOM     13  C   UNL     1      83.050  89.596  89.468  1.00  0.00     0.151 C 
BRANCH  13  14
ATOM     14  C   UNL     1      81.589  89.342  89.581  1.00  0.00    -0.025 A 
ATOM     15  C   UNL     1      81.110  88.027  89.792  1.00  0.00     0.056 A 
ATOM     16  C   UNL     1      80.657  90.400  89.476  1.00  0.00     0.009 A 
ATOM     17  C   UNL     1      79.725  87.772  89.919  1.00  0.00     0.160 A 
ATOM     18  C   UNL     1      79.278  90.153  89.603  1.00  0.00     0.050 A 
ATOM     19  C   UNL     1      78.808  88.843  89.816  1.00  0.00     0.157 A 
BRANCH  17  20
ATOM     20  O   UNL     1      79.259  86.491  90.081  1.00  0.00    -0.493 OA
ATOM     21  C   UNL     1      79.153  86.073  91.454  1.00  0.00     0.278 C 
ENDBRANCH  17  20
BRANCH  19  22
ATOM     22  O   UNL     1      77.474  88.611  89.909  1.00  0.00    -0.504 OA
ATOM     23  H   UNL     1      77.211  87.978  89.236  1.00  0.00     0.293 HD
ENDBRANCH  19  22
ENDBRANCH  13  14
ENDBRANCH  11  13
ENDBRANCH   8   9
ENDBRANCH   1   8
TORSDOF 11
ENDMDL
MODEL 7
REMARK VINA RESULT:    -4.772     21.652     24.840
REMARK INTER + INTRA:          -9.319
REMARK INTER:                  -8.282
REMARK INTRA:                  -1.036
REMARK UNBOUND:                -1.618
REMARK SMILES CCCCCCCCC(=O)NCc1ccc(O)c(OC)c1
REMARK SMILES IDX 7 1 6 2 5 3 4 4 3 5 2 6 1 7 8 8 9 9 10 10 11 11 12 13 13 14
REMARK SMILES IDX 21 15 14 16 18 17 15 18 16 19 19 20 20 21 17 22
REMARK H PARENT 11 12 17 23
REMARK Flexibility Score: inf
ROOT
ATOM      1  C   UNL     1      76.656  84.185  67.307  1.00  0.00     0.010 C 
ENDROOT
BRANCH   1   2
ATOM      2  C   UNL     1      76.918  85.544  68.016  1.00  0.00     0.001 C 
BRANCH   2   3
ATOM      3  C   UNL     1      76.083  86.703  67.396  1.00  0.00     0.000 C 
BRANCH   3   4
ATOM      4  C   UNL     1      76.822  88.071  67.382  1.00  0.00    -0.000 C 
BRANCH   4   5
ATOM      5  C   UNL     1      78.149  88.028  66.572  1.00  0.00    -0.000 C 
BRANCH   5   6
ATOM      6  C   UNL     1      77.930  87.619  65.091  1.00  0.00    -0.003 C 
ATOM      7  C   UNL     1      77.475  88.799  64.204  1.00  0.00     0.004 C 
ENDBRANCH   5   6
ENDBRANCH   4   5
ENDBRANCH   3   4
ENDBRANCH   2   3
ENDBRANCH   1   2
BRANCH   1   8
ATOM      8  C   UNL     1      77.606  83.907  66.108  1.00  0.00     0.100 C 
BRANCH   8   9
ATOM      9  C   UNL     1      76.863  83.366  64.944  1.00  0.00     0.220 C 
ATOM     10  O   UNL     1      77.178  83.769  63.799  1.00  0.00    -0.275 OA
ATOM     11  N   UNL     1      75.883  82.433  65.120  1.00  0.00    -0.352 N 
ATOM     12  H   UNL     1      75.652  82.245  66.085  1.00  0.00     0.163 HD
BRANCH  11  13
ATOM     13  C   UNL     1      75.196  81.735  64.076  1.00  0.00     0.151 C 
BRANCH  13  14
ATOM     14  C   UNL     1      73.714  81.840  64.157  1.00  0.00    -0.025 A 
ATOM     15  C   UNL     1      73.105  83.071  64.500  1.00  0.00     0.056 A 
ATOM     16  C   UNL     1      72.891  80.720  63.898  1.00  0.00     0.009 A 
ATOM     17  C   UNL     1      71.697  83.190  64.564  1.00  0.00     0.160 A 
ATOM     18  C   UNL     1      71.491  80.832  63.959  1.00  0.00     0.050 A 
ATOM     19  C   UNL     1      70.891  82.060  64.298  1.00  0.00     0.157 A 
BRANCH  17  20
ATOM     20  O   UNL     1      71.110  84.372  64.938  1.00  0.00    -0.493 OA
ATOM     21  C   UNL     1      71.515  84.847  66.234  1.00  0.00     0.278 C 
ENDBRANCH  17  20
BRANCH  19  22
ATOM     22  O   UNL     1      69.539  82.151  64.381  1.00  0.00    -0.504 OA
ATOM     23  H   UNL     1      69.147  81.305  64.153  1.00  0.00     0.293 HD
ENDBRANCH  19  22
ENDBRANCH  13  14
ENDBRANCH  11  13
ENDBRANCH   8   9
ENDBRANCH   1   8
TORSDOF 11
ENDMDL
MODEL 8
REMARK VINA RESULT:    -4.739     25.770     27.791
REMARK INTER + INTRA:          -9.266
REMARK INTER:                  -8.529
REMARK INTRA:                  -0.738
REMARK UNBOUND:                -1.618
REMARK SMILES CCCCCCCCC(=O)NCc1ccc(O)c(OC)c1
REMARK SMILES IDX 7 1 6 2 5 3 4 4 3 5 2 6 1 7 8 8 9 9 10 10 11 11 12 13 13 14
REMARK SMILES IDX 21 15 14 16 18 17 15 18 16 19 19 20 20 21 17 22
REMARK H PARENT 11 12 17 23
REMARK Flexibility Score: inf
ROOT
ATOM      1  C   UNL     1      85.298  63.041  78.303  1.00  0.00     0.010 C 
ENDROOT
BRANCH   1   2
ATOM      2  C   UNL     1      84.749  63.309  79.734  1.00  0.00     0.001 C 
BRANCH   2   3
ATOM      3  C   UNL     1      85.788  62.957  80.839  1.00  0.00     0.000 C 
BRANCH   3   4
ATOM      4  C   UNL     1      86.948  63.985  80.958  1.00  0.00    -0.000 C 
BRANCH   4   5
ATOM      5  C   UNL     1      86.443  65.437  81.191  1.00  0.00    -0.000 C 
BRANCH   5   6
ATOM      6  C   UNL     1      86.052  65.703  82.670  1.00  0.00    -0.003 C 
ATOM      7  C   UNL     1      87.104  65.178  83.671  1.00  0.00     0.004 C 
ENDBRANCH   5   6
ENDBRANCH   4   5
ENDBRANCH   3   4
ENDBRANCH   2   3
ENDBRANCH   1   2
BRANCH   1   8
ATOM      8  C   UNL     1      84.203  63.032  77.200  1.00  0.00     0.100 C 
BRANCH   8   9
ATOM      9  C   UNL     1      83.667  64.394  76.961  1.00  0.00     0.220 C 
ATOM     10  O   UNL     1      84.480  65.343  76.851  1.00  0.00    -0.275 OA
ATOM     11  N   UNL     1      82.323  64.598  76.835  1.00  0.00    -0.352 N 
ATOM     12  H   UNL     1      81.757  63.785  77.026  1.00  0.00     0.163 HD
BRANCH  11  13
ATOM     13  C   UNL     1      81.696  65.830  76.465  1.00  0.00     0.151 C 
BRANCH  13  14
ATOM     14  C   UNL     1      81.231  65.869  75.053  1.00  0.00    -0.025 A 
ATOM     15  C   UNL     1      81.505  66.997  74.243  1.00  0.00     0.056 A 
ATOM     16  C   UNL     1      80.508  64.788  74.497  1.00  0.00     0.009 A 
ATOM     17  C   UNL     1      81.084  67.040  72.894  1.00  0.00     0.160 A 
ATOM     18  C   UNL     1      80.087  64.825  73.155  1.00  0.00     0.050 A 
ATOM     19  C   UNL     1      80.366  65.949  72.354  1.00  0.00     0.157 A 
BRANCH  17  20
ATOM     20  O   UNL     1      81.314  68.151  72.123  1.00  0.00    -0.493 OA
ATOM     21  C   UNL     1      82.706  68.434  71.898  1.00  0.00     0.278 C 
ENDBRANCH  17  20
BRANCH  19  22
ATOM     22  O   UNL     1      79.931  65.986  71.068  1.00  0.00    -0.504 OA
ATOM     23  H   UNL     1      80.287  66.764  70.633  1.00  0.00     0.293 HD
ENDBRANCH  19  22
ENDBRANCH  13  14
ENDBRANCH  11  13
ENDBRANCH   8   9
ENDBRANCH   1   8
TORSDOF 11
ENDMDL
MODEL 9
REMARK VINA RESULT:    -4.706      2.694      6.557
REMARK INTER + INTRA:          -9.213
REMARK INTER:                  -7.739
REMARK INTRA:                  -1.474
REMARK UNBOUND:                -1.618
REMARK SMILES CCCCCCCCC(=O)NCc1ccc(O)c(OC)c1
REMARK SMILES IDX 7 1 6 2 5 3 4 4 3 5 2 6 1 7 8 8 9 9 10 10 11 11 12 13 13 14
REMARK SMILES IDX 21 15 14 16 18 17 15 18 16 19 19 20 20 21 17 22
REMARK H PARENT 11 12 17 23
REMARK Flexibility Score: inf
ROOT
ATOM      1  C   UNL     1      82.352  90.892  90.554  1.00  0.00     0.010 C 
ENDROOT
BRANCH   1   2
ATOM      2  C   UNL     1      82.250  91.131  89.019  1.00  0.00     0.001 C 
BRANCH   2   3
ATOM      3  C   UNL     1      83.595  90.845  88.288  1.00  0.00     0.000 C 
BRANCH   3   4
ATOM      4  C   UNL     1      83.502  89.712  87.227  1.00  0.00    -0.000 C 
BRANCH   4   5
ATOM      5  C   UNL     1      83.227  90.253  85.795  1.00  0.00    -0.000 C 
BRANCH   5   6
ATOM      6  C   UNL     1      84.352  91.196  85.288  1.00  0.00    -0.003 C 
ATOM      7  C   UNL     1      85.692  90.463  85.058  1.00  0.00     0.004 C 
ENDBRANCH   5   6
ENDBRANCH   4   5
ENDBRANCH   3   4
ENDBRANCH   2   3
ENDBRANCH   1   2
BRANCH   1   8
ATOM      8  C   UNL     1      81.393  89.790  91.084  1.00  0.00     0.100 C 
BRANCH   8   9
ATOM      9  C   UNL     1      81.588  88.511  90.359  1.00  0.00     0.220 C 
ATOM     10  O   UNL     1      82.682  87.911  90.493  1.00  0.00    -0.275 OA
ATOM     11  N   UNL     1      80.587  87.990  89.589  1.00  0.00    -0.352 N 
ATOM     12  H   UNL     1      79.786  88.595  89.482  1.00  0.00     0.163 HD
BRANCH  11  13
ATOM     13  C   UNL     1      80.600  86.706  88.959  1.00  0.00     0.151 C 
BRANCH  13  14
ATOM     14  C   UNL     1      80.780  86.762  87.483  1.00  0.00    -0.025 A 
ATOM     15  C   UNL     1      80.153  87.782  86.728  1.00  0.00     0.056 A 
ATOM     16  C   UNL     1      81.571  85.803  86.810  1.00  0.00     0.009 A 
ATOM     17  C   UNL     1      80.328  87.858  85.327  1.00  0.00     0.160 A 
ATOM     18  C   UNL     1      81.751  85.874  85.417  1.00  0.00     0.050 A 
ATOM     19  C   UNL     1      81.126  86.893  84.672  1.00  0.00     0.157 A 
BRANCH  17  20
ATOM     20  O   UNL     1      79.686  88.822  84.591  1.00  0.00    -0.493 OA
ATOM     21  C   UNL     1      79.663  90.119  85.212  1.00  0.00     0.278 C 
ENDBRANCH  17  20
BRANCH  19  22
ATOM     22  O   UNL     1      81.283  86.937  83.325  1.00  0.00    -0.504 OA
ATOM     23  H   UNL     1      80.451  87.182  82.913  1.00  0.00     0.293 HD
ENDBRANCH  19  22
ENDBRANCH  13  14
ENDBRANCH  11  13
ENDBRANCH   8   9
ENDBRANCH   1   8
TORSDOF 11
ENDMDL
MODEL 10
REMARK VINA RESULT:    -4.540     16.333     18.348
REMARK INTER + INTRA:          -8.944
REMARK INTER:                  -8.547
REMARK INTRA:                  -0.397
REMARK UNBOUND:                -1.618
REMARK SMILES CCCCCCCCC(=O)NCc1ccc(O)c(OC)c1
REMARK SMILES IDX 7 1 6 2 5 3 4 4 3 5 2 6 1 7 8 8 9 9 10 10 11 11 12 13 13 14
REMARK SMILES IDX 21 15 14 16 18 17 15 18 16 19 19 20 20 21 17 22
REMARK H PARENT 11 12 17 23
REMARK Flexibility Score: inf
ROOT
ATOM      1  C   UNL     1      95.652  82.349  84.663  1.00  0.00     0.010 C 
ENDROOT
BRANCH   1   2
ATOM      2  C   UNL     1      94.863  81.495  85.697  1.00  0.00     0.001 C 
BRANCH   2   3
ATOM      3  C   UNL     1      93.812  80.570  85.016  1.00  0.00     0.000 C 
BRANCH   3   4
ATOM      4  C   UNL     1      92.365  81.139  85.043  1.00  0.00    -0.000 C 
BRANCH   4   5
ATOM      5  C   UNL     1      91.319  80.097  85.534  1.00  0.00    -0.000 C 
BRANCH   5   6
ATOM      6  C   UNL     1      89.937  80.273  84.849  1.00  0.00    -0.003 C 
ATOM      7  C   UNL     1      89.413  78.968  84.211  1.00  0.00     0.004 C 
ENDBRANCH   5   6
ENDBRANCH   4   5
ENDBRANCH   3   4
ENDBRANCH   2   3
ENDBRANCH   1   2
BRANCH   1   8
ATOM      8  C   UNL     1      96.436  81.507  83.618  1.00  0.00     0.100 C 
BRANCH   8   9
ATOM      9  C   UNL     1      97.057  82.371  82.585  1.00  0.00     0.220 C 
ATOM     10  O   UNL     1      96.712  83.575  82.530  1.00  0.00    -0.275 OA
ATOM     11  N   UNL     1      98.002  81.868  81.737  1.00  0.00    -0.352 N 
ATOM     12  H   UNL     1      98.140  80.871  81.810  1.00  0.00     0.163 HD
BRANCH  11  13
ATOM     13  C   UNL     1      98.771  82.627  80.799  1.00  0.00     0.151 C 
BRANCH  13  14
ATOM     14  C   UNL     1      98.210  82.627  79.421  1.00  0.00    -0.025 A 
ATOM     15  C   UNL     1      99.059  82.825  78.306  1.00  0.00     0.056 A 
ATOM     16  C   UNL     1      96.827  82.434  79.200  1.00  0.00     0.009 A 
ATOM     17  C   UNL     1      98.543  82.811  76.990  1.00  0.00     0.160 A 
ATOM     18  C   UNL     1      96.308  82.417  77.893  1.00  0.00     0.050 A 
ATOM     19  C   UNL     1      97.158  82.612  76.788  1.00  0.00     0.157 A 
BRANCH  17  20
ATOM     20  O   UNL     1      99.361  83.045  75.913  1.00  0.00    -0.493 OA
ATOM     21  C   UNL     1     100.073  81.884  75.451  1.00  0.00     0.278 C 
ENDBRANCH  17  20
BRANCH  19  22
ATOM     22  O   UNL     1      96.643  82.622  75.532  1.00  0.00    -0.504 OA
ATOM     23  H   UNL     1      97.177  82.062  74.963  1.00  0.00     0.293 HD
ENDBRANCH  19  22
ENDBRANCH  13  14
ENDBRANCH  11  13
ENDBRANCH   8   9
ENDBRANCH   1   8
TORSDOF 11
ENDMDL
