MODEL 1
REMARK VINA RESULT:    -6.495      0.000      0.000
REMARK INTER + INTRA:         -11.400
REMARK INTER:                 -10.482
REMARK INTRA:                  -0.918
REMARK UNBOUND:                -0.918
REMARK SMILES COc1cc(CNC(=O)CCCCCCC(C)C)ccc1O
REMARK SMILES IDX 11 1 10 2 8 3 7 4 9 6 6 7 5 8 3 9 21 10 4 11 20 12 19 13
REMARK SMILES IDX 2 14 1 15 22 16 12 18 13 19 14 20 15 21 16 22 17 23 18 24
REMARK H PARENT 7 5 22 17
REMARK Flexibility Score: inf
ROOT
ATOM      1  C   UNL     1      91.443  92.566  77.544  1.00  0.00     0.010 C 
ENDROOT
BRANCH   1   2
ATOM      2  C   UNL     1      91.727  93.908  76.815  1.00  0.00     0.100 C 
BRANCH   2   3
ATOM      3  C   UNL     1      93.162  94.268  76.792  1.00  0.00     0.220 C 
ATOM      4  N   UNL     1      93.998  93.834  77.779  1.00  0.00    -0.352 N 
ATOM      5  H   UNL     1      93.546  93.308  78.512  1.00  0.00     0.163 HD
ATOM      6  O   UNL     1      93.594  94.957  75.835  1.00  0.00    -0.275 OA
BRANCH   4   7
ATOM      7  C   UNL     1      95.409  94.070  77.830  1.00  0.00     0.151 C 
BRANCH   7   8
ATOM      8  C   UNL     1      95.893  94.446  79.187  1.00  0.00    -0.025 A 
ATOM      9  C   UNL     1      97.152  95.966  80.654  1.00  0.00     0.160 A 
ATOM     10  C   UNL     1      96.782  95.193  81.776  1.00  0.00     0.157 A 
ATOM     11  C   UNL     1      96.722  95.576  79.368  1.00  0.00     0.056 A 
ATOM     12  C   UNL     1      95.990  94.044  81.604  1.00  0.00     0.050 A 
ATOM     13  C   UNL     1      95.539  93.677  80.321  1.00  0.00     0.009 A 
BRANCH   9  14
ATOM     14  O   UNL     1      97.956  97.063  80.805  1.00  0.00    -0.493 OA
ATOM     15  C   UNL     1      99.334  96.824  80.466  1.00  0.00     0.278 C 
ENDBRANCH   9  14
BRANCH  10  16
ATOM     16  O   UNL     1      97.184  95.544  83.026  1.00  0.00    -0.504 OA
ATOM     17  H   UNL     1      97.741  94.850  83.389  1.00  0.00     0.293 HD
ENDBRANCH  10  16
ENDBRANCH   7   8
ENDBRANCH   4   7
ENDBRANCH   2   3
ENDBRANCH   1   2
BRANCH   1  18
ATOM     18  C   UNL     1      89.929  92.209  77.548  1.00  0.00     0.001 C 
BRANCH  18  19
ATOM     19  C   UNL     1      89.571  90.983  76.661  1.00  0.00     0.000 C 
BRANCH  19  20
ATOM     20  C   UNL     1      90.653  90.729  75.574  1.00  0.00     0.000 C 
BRANCH  20  21
ATOM     21  C   UNL     1      90.097  90.662  74.125  1.00  0.00     0.003 C 
BRANCH  21  22
ATOM     22  C   UNL     1      90.670  91.748  73.157  1.00  0.00    -0.017 C 
ATOM     23  C   UNL     1      90.141  93.157  73.547  1.00  0.00     0.007 C 
ATOM     24  C   UNL     1      90.389  91.458  71.653  1.00  0.00     0.007 C 
ENDBRANCH  21  22
ENDBRANCH  20  21
ENDBRANCH  19  20
ENDBRANCH  18  19
ENDBRANCH   1  18
TORSDOF 11
ENDMDL
MODEL 2
REMARK VINA RESULT:    -5.947     14.464     17.104
REMARK INTER + INTRA:         -10.515
REMARK INTER:                  -8.542
REMARK INTRA:                  -1.974
REMARK UNBOUND:                -0.918
REMARK SMILES COc1cc(CNC(=O)CCCCCCC(C)C)ccc1O
REMARK SMILES IDX 11 1 10 2 8 3 7 4 9 6 6 7 5 8 3 9 21 10 4 11 20 12 19 13
REMARK SMILES IDX 2 14 1 15 22 16 12 18 13 19 14 20 15 21 16 22 17 23 18 24
REMARK H PARENT 7 5 22 17
REMARK Flexibility Score: inf
ROOT
ATOM      1  C   UNL     1      79.813  87.390  83.965  1.00  0.00     0.010 C 
ENDROOT
BRANCH   1   2
ATOM      2  C   UNL     1      80.789  86.187  84.080  1.00  0.00     0.100 C 
BRANCH   2   3
ATOM      3  C   UNL     1      81.421  86.071  85.413  1.00  0.00     0.220 C 
ATOM      4  N   UNL     1      80.700  86.330  86.542  1.00  0.00    -0.352 N 
ATOM      5  H   UNL     1      79.753  86.637  86.376  1.00  0.00     0.163 HD
ATOM      6  O   UNL     1      82.621  85.708  85.481  1.00  0.00    -0.275 OA
BRANCH   4   7
ATOM      7  C   UNL     1      81.186  86.195  87.882  1.00  0.00     0.151 C 
BRANCH   7   8
ATOM      8  C   UNL     1      80.947  87.404  88.717  1.00  0.00    -0.025 A 
ATOM      9  C   UNL     1      81.817  89.262  90.074  1.00  0.00     0.160 A 
ATOM     10  C   UNL     1      80.502  89.735  90.274  1.00  0.00     0.157 A 
ATOM     11  C   UNL     1      82.028  88.092  89.315  1.00  0.00     0.056 A 
ATOM     12  C   UNL     1      79.414  89.037  89.717  1.00  0.00     0.050 A 
ATOM     13  C   UNL     1      79.634  87.886  88.935  1.00  0.00     0.009 A 
BRANCH   9  14
ATOM     14  O   UNL     1      82.878  89.910  90.644  1.00  0.00    -0.493 OA
ATOM     15  C   UNL     1      83.509  89.169  91.704  1.00  0.00     0.278 C 
ENDBRANCH   9  14
BRANCH  10  16
ATOM     16  O   UNL     1      80.269  90.858  91.002  1.00  0.00    -0.504 OA
ATOM     17  H   UNL     1      79.573  90.686  91.641  1.00  0.00     0.293 HD
ENDBRANCH  10  16
ENDBRANCH   7   8
ENDBRANCH   4   7
ENDBRANCH   2   3
ENDBRANCH   1   2
BRANCH   1  18
ATOM     18  C   UNL     1      80.560  88.754  83.958  1.00  0.00     0.001 C 
BRANCH  18  19
ATOM     19  C   UNL     1      80.049  89.755  85.032  1.00  0.00     0.000 C 
BRANCH  19  20
ATOM     20  C   UNL     1      81.084  89.943  86.177  1.00  0.00     0.000 C 
BRANCH  20  21
ATOM     21  C   UNL     1      82.532  89.519  85.802  1.00  0.00     0.003 C 
BRANCH  21  22
ATOM     22  C   UNL     1      83.622  90.603  86.090  1.00  0.00    -0.017 C 
ATOM     23  C   UNL     1      84.529  90.806  84.844  1.00  0.00     0.007 C 
ATOM     24  C   UNL     1      84.485  90.302  87.350  1.00  0.00     0.007 C 
ENDBRANCH  21  22
ENDBRANCH  20  21
ENDBRANCH  19  20
ENDBRANCH  18  19
ENDBRANCH   1  18
TORSDOF 11
ENDMDL
MODEL 3
REMARK VINA RESULT:    -5.669     15.092     17.673
REMARK INTER + INTRA:         -10.066
REMARK INTER:                  -8.263
REMARK INTRA:                  -1.803
REMARK UNBOUND:                -0.918
REMARK SMILES COc1cc(CNC(=O)CCCCCCC(C)C)ccc1O
REMARK SMILES IDX 11 1 10 2 8 3 7 4 9 6 6 7 5 8 3 9 21 10 4 11 20 12 19 13
REMARK SMILES IDX 2 14 1 15 22 16 12 18 13 19 14 20 15 21 16 22 17 23 18 24
REMARK H PARENT 7 5 22 17
REMARK Flexibility Score: inf
ROOT
ATOM      1  C   UNL     1      83.937  91.175  90.425  1.00  0.00     0.010 C 
ENDROOT
BRANCH   1   2
ATOM      2  C   UNL     1      82.643  91.657  89.712  1.00  0.00     0.100 C 
BRANCH   2   3
ATOM      3  C   UNL     1      82.767  91.694  88.238  1.00  0.00     0.220 C 
ATOM      4  N   UNL     1      82.404  90.614  87.488  1.00  0.00    -0.352 N 
ATOM      5  H   UNL     1      82.101  89.813  88.022  1.00  0.00     0.163 HD
ATOM      6  O   UNL     1      83.189  92.745  87.696  1.00  0.00    -0.275 OA
BRANCH   4   7
ATOM      7  C   UNL     1      82.425  90.556  86.058  1.00  0.00     0.151 C 
BRANCH   7   8
ATOM      8  C   UNL     1      81.642  89.417  85.505  1.00  0.00    -0.025 A 
ATOM      9  C   UNL     1      81.421  87.013  85.037  1.00  0.00     0.160 A 
ATOM     10  C   UNL     1      80.137  87.234  84.493  1.00  0.00     0.157 A 
ATOM     11  C   UNL     1      82.170  88.106  85.520  1.00  0.00     0.056 A 
ATOM     12  C   UNL     1      79.616  88.540  84.436  1.00  0.00     0.050 A 
ATOM     13  C   UNL     1      80.358  89.623  84.948  1.00  0.00     0.009 A 
BRANCH   9  14
ATOM     14  O   UNL     1      81.953  85.752  85.061  1.00  0.00    -0.493 OA
ATOM     15  C   UNL     1      82.609  85.423  86.299  1.00  0.00     0.278 C 
ENDBRANCH   9  14
BRANCH  10  16
ATOM     16  O   UNL     1      79.393  86.200  84.019  1.00  0.00    -0.504 OA
ATOM     17  H   UNL     1      78.844  85.852  84.725  1.00  0.00     0.293 HD
ENDBRANCH  10  16
ENDBRANCH   7   8
ENDBRANCH   4   7
ENDBRANCH   2   3
ENDBRANCH   1   2
BRANCH   1  18
ATOM     18  C   UNL     1      83.643  90.106  91.515  1.00  0.00     0.001 C 
BRANCH  18  19
ATOM     19  C   UNL     1      82.198  89.534  91.459  1.00  0.00     0.000 C 
BRANCH  19  20
ATOM     20  C   UNL     1      82.182  88.068  90.942  1.00  0.00     0.000 C 
BRANCH  20  21
ATOM     21  C   UNL     1      81.699  87.916  89.473  1.00  0.00     0.003 C 
BRANCH  21  22
ATOM     22  C   UNL     1      80.146  87.945  89.293  1.00  0.00    -0.017 C 
ATOM     23  C   UNL     1      79.708  86.943  88.187  1.00  0.00     0.007 C 
ATOM     24  C   UNL     1      79.577  89.364  88.999  1.00  0.00     0.007 C 
ENDBRANCH  21  22
ENDBRANCH  20  21
ENDBRANCH  19  20
ENDBRANCH  18  19
ENDBRANCH   1  18
TORSDOF 11
ENDMDL
MODEL 4
REMARK VINA RESULT:    -5.595     18.144     21.501
REMARK INTER + INTRA:          -9.947
REMARK INTER:                  -9.246
REMARK INTRA:                  -0.700
REMARK UNBOUND:                -0.918
REMARK SMILES COc1cc(CNC(=O)CCCCCCC(C)C)ccc1O
REMARK SMILES IDX 11 1 10 2 8 3 7 4 9 6 6 7 5 8 3 9 21 10 4 11 20 12 19 13
REMARK SMILES IDX 2 14 1 15 22 16 12 18 13 19 14 20 15 21 16 22 17 23 18 24
REMARK H PARENT 7 5 22 17
REMARK Flexibility Score: inf
ROOT
ATOM      1  C   UNL     1      77.667  94.034  65.258  1.00  0.00     0.010 C 
ENDROOT
BRANCH   1   2
ATOM      2  C   UNL     1      77.947  93.089  64.057  1.00  0.00     0.100 C 
BRANCH   2   3
ATOM      3  C   UNL     1      77.089  91.883  64.050  1.00  0.00     0.220 C 
ATOM      4  N   UNL     1      77.542  90.718  63.504  1.00  0.00    -0.352 N 
ATOM      5  H   UNL     1      78.459  90.778  63.086  1.00  0.00     0.163 HD
ATOM      6  O   UNL     1      75.951  91.951  64.578  1.00  0.00    -0.275 OA
BRANCH   4   7
ATOM      7  C   UNL     1      76.827  89.478  63.492  1.00  0.00     0.151 C 
BRANCH   7   8
ATOM      8  C   UNL     1      77.317  88.508  64.509  1.00  0.00    -0.025 A 
ATOM      9  C   UNL     1      78.069  86.243  65.103  1.00  0.00     0.160 A 
ATOM     10  C   UNL     1      78.294  86.664  66.432  1.00  0.00     0.157 A 
ATOM     11  C   UNL     1      77.566  87.161  64.158  1.00  0.00     0.056 A 
ATOM     12  C   UNL     1      78.013  87.991  66.803  1.00  0.00     0.050 A 
ATOM     13  C   UNL     1      77.538  88.911  65.847  1.00  0.00     0.009 A 
BRANCH   9  14
ATOM     14  O   UNL     1      78.302  84.944  64.742  1.00  0.00    -0.493 OA
ATOM     15  C   UNL     1      77.120  84.239  64.322  1.00  0.00     0.278 C 
ENDBRANCH   9  14
BRANCH  10  16
ATOM     16  O   UNL     1      78.776  85.800  67.364  1.00  0.00    -0.504 OA
ATOM     17  H   UNL     1      79.543  86.189  67.793  1.00  0.00     0.293 HD
ENDBRANCH  10  16
ENDBRANCH   7   8
ENDBRANCH   4   7
ENDBRANCH   2   3
ENDBRANCH   1   2
BRANCH   1  18
ATOM     18  C   UNL     1      78.613  95.269  65.266  1.00  0.00     0.001 C 
BRANCH  18  19
ATOM     19  C   UNL     1      79.689  95.226  66.387  1.00  0.00     0.000 C 
BRANCH  19  20
ATOM     20  C   UNL     1      79.518  96.403  67.389  1.00  0.00     0.000 C 
BRANCH  20  21
ATOM     21  C   UNL     1      79.749  96.013  68.875  1.00  0.00     0.003 C 
BRANCH  21  22
ATOM     22  C   UNL     1      78.451  95.973  69.746  1.00  0.00    -0.017 C 
ATOM     23  C   UNL     1      78.714  95.219  71.080  1.00  0.00     0.007 C 
ATOM     24  C   UNL     1      77.222  95.363  69.009  1.00  0.00     0.007 C 
ENDBRANCH  21  22
ENDBRANCH  20  21
ENDBRANCH  19  20
ENDBRANCH  18  19
ENDBRANCH   1  18
TORSDOF 11
ENDMDL
MODEL 5
REMARK VINA RESULT:    -5.590     14.161     17.318
REMARK INTER + INTRA:          -9.939
REMARK INTER:                  -7.952
REMARK INTRA:                  -1.987
REMARK UNBOUND:                -0.918
REMARK SMILES COc1cc(CNC(=O)CCCCCCC(C)C)ccc1O
REMARK SMILES IDX 11 1 10 2 8 3 7 4 9 6 6 7 5 8 3 9 21 10 4 11 20 12 19 13
REMARK SMILES IDX 2 14 1 15 22 16 12 18 13 19 14 20 15 21 16 22 17 23 18 24
REMARK H PARENT 7 5 22 17
REMARK Flexibility Score: inf
ROOT
ATOM      1  C   UNL     1      83.637  91.751  90.019  1.00  0.00     0.010 C 
ENDROOT
BRANCH   1   2
ATOM      2  C   UNL     1      83.126  92.030  88.579  1.00  0.00     0.100 C 
BRANCH   2   3
ATOM      3  C   UNL     1      83.601  91.039  87.587  1.00  0.00     0.220 C 
ATOM      4  N   UNL     1      82.998  90.942  86.366  1.00  0.00    -0.352 N 
ATOM      5  H   UNL     1      82.206  91.555  86.238  1.00  0.00     0.163 HD
ATOM      6  O   UNL     1      84.580  90.312  87.884  1.00  0.00    -0.275 OA
BRANCH   4   7
ATOM      7  C   UNL     1      83.407  90.066  85.311  1.00  0.00     0.151 C 
BRANCH   7   8
ATOM      8  C   UNL     1      82.670  88.772  85.304  1.00  0.00    -0.025 A 
ATOM      9  C   UNL     1      80.781  87.401  84.529  1.00  0.00     0.160 A 
ATOM     10  C   UNL     1      81.284  86.296  85.252  1.00  0.00     0.157 A 
ATOM     11  C   UNL     1      81.466  88.633  84.576  1.00  0.00     0.056 A 
ATOM     12  C   UNL     1      82.460  86.433  86.011  1.00  0.00     0.050 A 
ATOM     13  C   UNL     1      83.155  87.658  86.030  1.00  0.00     0.009 A 
BRANCH   9  14
ATOM     14  O   UNL     1      79.617  87.290  83.819  1.00  0.00    -0.493 OA
ATOM     15  C   UNL     1      79.815  87.024  82.419  1.00  0.00     0.278 C 
ENDBRANCH   9  14
BRANCH  10  16
ATOM     16  O   UNL     1      80.644  85.098  85.226  1.00  0.00    -0.504 OA
ATOM     17  H   UNL     1      79.697  85.243  85.151  1.00  0.00     0.293 HD
ENDBRANCH  10  16
ENDBRANCH   7   8
ENDBRANCH   4   7
ENDBRANCH   2   3
ENDBRANCH   1   2
BRANCH   1  18
ATOM     18  C   UNL     1      82.625  90.911  90.849  1.00  0.00     0.001 C 
BRANCH  18  19
ATOM     19  C   UNL     1      83.020  89.414  90.992  1.00  0.00     0.000 C 
BRANCH  19  20
ATOM     20  C   UNL     1      82.176  88.507  90.053  1.00  0.00     0.000 C 
BRANCH  20  21
ATOM     21  C   UNL     1      80.646  88.560  90.323  1.00  0.00     0.003 C 
BRANCH  21  22
ATOM     22  C   UNL     1      79.757  88.529  89.037  1.00  0.00    -0.017 C 
ATOM     23  C   UNL     1      79.728  87.098  88.430  1.00  0.00     0.007 C 
ATOM     24  C   UNL     1      80.181  89.570  87.959  1.00  0.00     0.007 C 
ENDBRANCH  21  22
ENDBRANCH  20  21
ENDBRANCH  19  20
ENDBRANCH  18  19
ENDBRANCH   1  18
TORSDOF 11
ENDMDL
MODEL 6
REMARK VINA RESULT:    -5.570     18.355     20.592
REMARK INTER + INTRA:          -9.906
REMARK INTER:                  -9.073
REMARK INTRA:                  -0.834
REMARK UNBOUND:                -0.918
REMARK SMILES COc1cc(CNC(=O)CCCCCCC(C)C)ccc1O
REMARK SMILES IDX 11 1 10 2 8 3 7 4 9 6 6 7 5 8 3 9 21 10 4 11 20 12 19 13
REMARK SMILES IDX 2 14 1 15 22 16 12 18 13 19 14 20 15 21 16 22 17 23 18 24
REMARK H PARENT 7 5 22 17
REMARK Flexibility Score: inf
ROOT
ATOM      1  C   UNL     1      76.692  89.152  64.643  1.00  0.00     0.010 C 
ENDROOT
BRANCH   1   2
ATOM      2  C   UNL     1      77.364  90.299  63.839  1.00  0.00     0.100 C 
BRANCH   2   3
ATOM      3  C   UNL     1      76.933  91.647  64.272  1.00  0.00     0.220 C 
ATOM      4  N   UNL     1      77.653  92.749  63.912  1.00  0.00    -0.352 N 
ATOM      5  H   UNL     1      78.491  92.551  63.386  1.00  0.00     0.163 HD
ATOM      6  O   UNL     1      75.884  91.753  64.952  1.00  0.00    -0.275 OA
BRANCH   4   7
ATOM      7  C   UNL     1      77.302  94.102  64.222  1.00  0.00     0.151 C 
BRANCH   7   8
ATOM      8  C   UNL     1      77.953  94.607  65.462  1.00  0.00    -0.025 A 
ATOM      9  C   UNL     1      77.852  95.104  67.869  1.00  0.00     0.160 A 
ATOM     10  C   UNL     1      79.199  95.527  67.840  1.00  0.00     0.157 A 
ATOM     11  C   UNL     1      77.235  94.666  66.678  1.00  0.00     0.056 A 
ATOM     12  C   UNL     1      79.912  95.510  66.628  1.00  0.00     0.050 A 
ATOM     13  C   UNL     1      79.298  95.043  65.449  1.00  0.00     0.009 A 
BRANCH   9  14
ATOM     14  O   UNL     1      77.137  95.154  69.034  1.00  0.00    -0.493 OA
ATOM     15  C   UNL     1      76.154  94.110  69.157  1.00  0.00     0.278 C 
ENDBRANCH   9  14
BRANCH  10  16
ATOM     16  O   UNL     1      79.819  95.955  68.971  1.00  0.00    -0.504 OA
ATOM     17  H   UNL     1      79.451  95.497  69.730  1.00  0.00     0.293 HD
ENDBRANCH  10  16
ENDBRANCH   7   8
ENDBRANCH   4   7
ENDBRANCH   2   3
ENDBRANCH   1   2
BRANCH   1  18
ATOM     18  C   UNL     1      77.669  87.970  64.908  1.00  0.00     0.001 C 
BRANCH  18  19
ATOM     19  C   UNL     1      78.308  87.992  66.325  1.00  0.00     0.000 C 
BRANCH  19  20
ATOM     20  C   UNL     1      77.285  87.576  67.420  1.00  0.00     0.000 C 
BRANCH  20  21
ATOM     21  C   UNL     1      76.500  86.274  67.097  1.00  0.00     0.003 C 
BRANCH  21  22
ATOM     22  C   UNL     1      77.153  84.967  67.654  1.00  0.00    -0.017 C 
ATOM     23  C   UNL     1      77.477  83.984  66.494  1.00  0.00     0.007 C 
ATOM     24  C   UNL     1      76.299  84.258  68.746  1.00  0.00     0.007 C 
ENDBRANCH  21  22
ENDBRANCH  20  21
ENDBRANCH  19  20
ENDBRANCH  18  19
ENDBRANCH   1  18
TORSDOF 11
ENDMDL
MODEL 7
REMARK VINA RESULT:    -5.499     14.430     16.584
REMARK INTER + INTRA:          -9.792
REMARK INTER:                  -8.010
REMARK INTRA:                  -1.782
REMARK UNBOUND:                -0.918
REMARK SMILES COc1cc(CNC(=O)CCCCCCC(C)C)ccc1O
REMARK SMILES IDX 11 1 10 2 8 3 7 4 9 6 6 7 5 8 3 9 21 10 4 11 20 12 19 13
REMARK SMILES IDX 2 14 1 15 22 16 12 18 13 19 14 20 15 21 16 22 17 23 18 24
REMARK H PARENT 7 5 22 17
REMARK Flexibility Score: inf
ROOT
ATOM      1  C   UNL     1      81.388  86.357  87.139  1.00  0.00     0.010 C 
ENDROOT
BRANCH   1   2
ATOM      2  C   UNL     1      80.018  86.786  87.735  1.00  0.00     0.100 C 
BRANCH   2   3
ATOM      3  C   UNL     1      80.131  87.862  88.746  1.00  0.00     0.220 C 
ATOM      4  N   UNL     1      81.350  88.387  89.060  1.00  0.00    -0.352 N 
ATOM      5  H   UNL     1      82.130  87.953  88.588  1.00  0.00     0.163 HD
ATOM      6  O   UNL     1      79.083  88.293  89.285  1.00  0.00    -0.275 OA
BRANCH   4   7
ATOM      7  C   UNL     1      81.575  89.465  89.975  1.00  0.00     0.151 C 
BRANCH   7   8
ATOM      8  C   UNL     1      82.074  90.701  89.313  1.00  0.00    -0.025 A 
ATOM      9  C   UNL     1      82.075  93.152  89.103  1.00  0.00     0.160 A 
ATOM     10  C   UNL     1      83.053  93.066  88.088  1.00  0.00     0.157 A 
ATOM     11  C   UNL     1      81.580  91.970  89.693  1.00  0.00     0.056 A 
ATOM     12  C   UNL     1      83.524  91.807  87.674  1.00  0.00     0.050 A 
ATOM     13  C   UNL     1      83.047  90.633  88.288  1.00  0.00     0.009 A 
BRANCH   9  14
ATOM     14  O   UNL     1      81.581  94.369  89.485  1.00  0.00    -0.493 OA
ATOM     15  C   UNL     1      82.157  94.871  90.705  1.00  0.00     0.278 C 
ENDBRANCH   9  14
BRANCH  10  16
ATOM     16  O   UNL     1      83.547  94.188  87.500  1.00  0.00    -0.504 OA
ATOM     17  H   UNL     1      82.820  94.763  87.249  1.00  0.00     0.293 HD
ENDBRANCH  10  16
ENDBRANCH   7   8
ENDBRANCH   4   7
ENDBRANCH   2   3
ENDBRANCH   1   2
BRANCH   1  18
ATOM     18  C   UNL     1      81.284  85.996  85.630  1.00  0.00     0.001 C 
BRANCH  18  19
ATOM     19  C   UNL     1      79.854  86.164  85.043  1.00  0.00     0.000 C 
BRANCH  19  20
ATOM     20  C   UNL     1      79.765  87.393  84.095  1.00  0.00     0.000 C 
BRANCH  20  21
ATOM     21  C   UNL     1      81.122  88.111  83.854  1.00  0.00     0.003 C 
BRANCH  21  22
ATOM     22  C   UNL     1      81.175  89.588  84.366  1.00  0.00    -0.017 C 
ATOM     23  C   UNL     1      82.638  89.995  84.701  1.00  0.00     0.007 C 
ATOM     24  C   UNL     1      80.241  89.863  85.581  1.00  0.00     0.007 C 
ENDBRANCH  21  22
ENDBRANCH  20  21
ENDBRANCH  19  20
ENDBRANCH  18  19
ENDBRANCH   1  18
TORSDOF 11
ENDMDL
MODEL 8
REMARK VINA RESULT:    -5.467     14.495     17.228
REMARK INTER + INTRA:          -9.740
REMARK INTER:                  -8.646
REMARK INTRA:                  -1.094
REMARK UNBOUND:                -0.918
REMARK SMILES COc1cc(CNC(=O)CCCCCCC(C)C)ccc1O
REMARK SMILES IDX 11 1 10 2 8 3 7 4 9 6 6 7 5 8 3 9 21 10 4 11 20 12 19 13
REMARK SMILES IDX 2 14 1 15 22 16 12 18 13 19 14 20 15 21 16 22 17 23 18 24
REMARK H PARENT 7 5 22 17
REMARK Flexibility Score: inf
ROOT
ATOM      1  C   UNL     1      82.079  93.481  89.057  1.00  0.00     0.010 C 
ENDROOT
BRANCH   1   2
ATOM      2  C   UNL     1      82.262  91.994  89.468  1.00  0.00     0.100 C 
BRANCH   2   3
ATOM      3  C   UNL     1      82.892  91.169  88.413  1.00  0.00     0.220 C 
ATOM      4  N   UNL     1      82.321  91.077  87.177  1.00  0.00    -0.352 N 
ATOM      5  H   UNL     1      81.445  91.569  87.081  1.00  0.00     0.163 HD
ATOM      6  O   UNL     1      83.970  90.579  88.673  1.00  0.00    -0.275 OA
BRANCH   4   7
ATOM      7  C   UNL     1      82.868  90.359  86.066  1.00  0.00     0.151 C 
BRANCH   7   8
ATOM      8  C   UNL     1      81.989  89.255  85.591  1.00  0.00    -0.025 A 
ATOM      9  C   UNL     1      80.840  87.120  86.003  1.00  0.00     0.160 A 
ATOM     10  C   UNL     1      80.279  87.170  84.709  1.00  0.00     0.157 A 
ATOM     11  C   UNL     1      81.704  88.152  86.427  1.00  0.00     0.056 A 
ATOM     12  C   UNL     1      80.586  88.243  83.853  1.00  0.00     0.050 A 
ATOM     13  C   UNL     1      81.426  89.285  84.293  1.00  0.00     0.009 A 
BRANCH   9  14
ATOM     14  O   UNL     1      80.580  86.061  86.829  1.00  0.00    -0.493 OA
ATOM     15  C   UNL     1      81.161  86.190  88.139  1.00  0.00     0.278 C 
ENDBRANCH   9  14
BRANCH  10  16
ATOM     16  O   UNL     1      79.444  86.189  84.273  1.00  0.00    -0.504 OA
ATOM     17  H   UNL     1      79.520  85.426  84.851  1.00  0.00     0.293 HD
ENDBRANCH  10  16
ENDBRANCH   7   8
ENDBRANCH   4   7
ENDBRANCH   2   3
ENDBRANCH   1   2
BRANCH   1  18
ATOM     18  C   UNL     1      83.437  94.181  88.765  1.00  0.00     0.001 C 
BRANCH  18  19
ATOM     19  C   UNL     1      83.580  94.683  87.300  1.00  0.00     0.000 C 
BRANCH  19  20
ATOM     20  C   UNL     1      83.578  96.236  87.226  1.00  0.00     0.000 C 
BRANCH  20  21
ATOM     21  C   UNL     1      82.813  96.928  88.388  1.00  0.00     0.003 C 
BRANCH  21  22
ATOM     22  C   UNL     1      81.394  97.462  88.006  1.00  0.00    -0.017 C 
ATOM     23  C   UNL     1      80.301  96.765  88.865  1.00  0.00     0.007 C 
ATOM     24  C   UNL     1      81.063  97.329  86.490  1.00  0.00     0.007 C 
ENDBRANCH  21  22
ENDBRANCH  20  21
ENDBRANCH  19  20
ENDBRANCH  18  19
ENDBRANCH   1  18
TORSDOF 11
ENDMDL
MODEL 9
REMARK VINA RESULT:    -5.284     12.323     13.719
REMARK INTER + INTRA:          -9.446
REMARK INTER:                  -8.345
REMARK INTRA:                  -1.100
REMARK UNBOUND:                -0.918
REMARK SMILES COc1cc(CNC(=O)CCCCCCC(C)C)ccc1O
REMARK SMILES IDX 11 1 10 2 8 3 7 4 9 6 6 7 5 8 3 9 21 10 4 11 20 12 19 13
REMARK SMILES IDX 2 14 1 15 22 16 12 18 13 19 14 20 15 21 16 22 17 23 18 24
REMARK H PARENT 7 5 22 17
REMARK Flexibility Score: inf
ROOT
ATOM      1  C   UNL     1      98.537  82.793  80.276  1.00  0.00     0.010 C 
ENDROOT
BRANCH   1   2
ATOM      2  C   UNL     1      97.080  82.629  80.789  1.00  0.00     0.100 C 
BRANCH   2   3
ATOM      3  C   UNL     1      96.948  82.822  82.250  1.00  0.00     0.220 C 
ATOM      4  N   UNL     1      96.597  81.778  83.055  1.00  0.00    -0.352 N 
ATOM      5  H   UNL     1      96.402  80.917  82.566  1.00  0.00     0.163 HD
ATOM      6  O   UNL     1      97.190  83.956  82.731  1.00  0.00    -0.275 OA
BRANCH   4   7
ATOM      7  C   UNL     1      96.496  81.832  84.482  1.00  0.00     0.151 C 
BRANCH   7   8
ATOM      8  C   UNL     1      95.130  82.178  84.961  1.00  0.00    -0.025 A 
ATOM      9  C   UNL     1      93.572  83.790  85.973  1.00  0.00     0.160 A 
ATOM     10  C   UNL     1      92.518  82.861  85.835  1.00  0.00     0.157 A 
ATOM     11  C   UNL     1      94.872  83.435  85.552  1.00  0.00     0.056 A 
ATOM     12  C   UNL     1      92.770  81.592  85.284  1.00  0.00     0.050 A 
ATOM     13  C   UNL     1      94.064  81.255  84.839  1.00  0.00     0.009 A 
BRANCH   9  14
ATOM     14  O   UNL     1      93.346  85.013  86.544  1.00  0.00    -0.493 OA
ATOM     15  C   UNL     1      93.814  85.114  87.901  1.00  0.00     0.278 C 
ENDBRANCH   9  14
BRANCH  10  16
ATOM     16  O   UNL     1      91.257  83.175  86.233  1.00  0.00    -0.504 OA
ATOM     17  H   UNL     1      91.285  83.949  86.801  1.00  0.00     0.293 HD
ENDBRANCH  10  16
ENDBRANCH   7   8
ENDBRANCH   4   7
ENDBRANCH   2   3
ENDBRANCH   1   2
BRANCH   1  18
ATOM     18  C   UNL     1      98.620  82.765  78.723  1.00  0.00     0.001 C 
BRANCH  18  19
ATOM     19  C   UNL     1      97.255  83.006  78.018  1.00  0.00     0.000 C 
BRANCH  19  20
ATOM     20  C   UNL     1      96.813  81.767  77.189  1.00  0.00     0.000 C 
BRANCH  20  21
ATOM     21  C   UNL     1      97.878  80.639  77.112  1.00  0.00     0.003 C 
BRANCH  21  22
ATOM     22  C   UNL     1      97.465  79.305  77.815  1.00  0.00    -0.017 C 
ATOM     23  C   UNL     1      98.191  79.163  79.183  1.00  0.00     0.007 C 
ATOM     24  C   UNL     1      97.699  78.038  76.940  1.00  0.00     0.007 C 
ENDBRANCH  21  22
ENDBRANCH  20  21
ENDBRANCH  19  20
ENDBRANCH  18  19
ENDBRANCH   1  18
TORSDOF 11
ENDMDL
MODEL 10
REMARK VINA RESULT:    -5.244     18.953     22.074
REMARK INTER + INTRA:          -9.381
REMARK INTER:                  -8.453
REMARK INTRA:                  -0.928
REMARK UNBOUND:                -0.918
REMARK SMILES COc1cc(CNC(=O)CCCCCCC(C)C)ccc1O
REMARK SMILES IDX 11 1 10 2 8 3 7 4 9 6 6 7 5 8 3 9 21 10 4 11 20 12 19 13
REMARK SMILES IDX 2 14 1 15 22 16 12 18 13 19 14 20 15 21 16 22 17 23 18 24
REMARK H PARENT 7 5 22 17
REMARK Flexibility Score: inf
ROOT
ATOM      1  C   UNL     1      75.661  92.457  65.948  1.00  0.00     0.010 C 
ENDROOT
BRANCH   1   2
ATOM      2  C   UNL     1      75.274  92.263  64.456  1.00  0.00     0.100 C 
BRANCH   2   3
ATOM      3  C   UNL     1      75.487  90.881  63.971  1.00  0.00     0.220 C 
ATOM      4  N   UNL     1      76.737  90.457  63.624  1.00  0.00    -0.352 N 
ATOM      5  H   UNL     1      77.454  91.165  63.687  1.00  0.00     0.163 HD
ATOM      6  O   UNL     1      74.502  90.106  63.910  1.00  0.00    -0.275 OA
BRANCH   4   7
ATOM      7  C   UNL     1      77.072  89.132  63.199  1.00  0.00     0.151 C 
BRANCH   7   8
ATOM      8  C   UNL     1      77.501  88.248  64.318  1.00  0.00    -0.025 A 
ATOM      9  C   UNL     1      78.072  86.011  65.165  1.00  0.00     0.160 A 
ATOM     10  C   UNL     1      78.359  86.562  66.432  1.00  0.00     0.157 A 
ATOM     11  C   UNL     1      77.627  86.853  64.124  1.00  0.00     0.056 A 
ATOM     12  C   UNL     1      78.199  87.943  66.648  1.00  0.00     0.050 A 
ATOM     13  C   UNL     1      77.783  88.782  65.597  1.00  0.00     0.009 A 
BRANCH   9  14
ATOM     14  O   UNL     1      78.186  84.663  64.955  1.00  0.00    -0.493 OA
ATOM     15  C   UNL     1      76.931  84.008  64.697  1.00  0.00     0.278 C 
ENDBRANCH   9  14
BRANCH  10  16
ATOM     16  O   UNL     1      78.787  85.774  67.454  1.00  0.00    -0.504 OA
ATOM     17  H   UNL     1      79.003  84.902  67.115  1.00  0.00     0.293 HD
ENDBRANCH  10  16
ENDBRANCH   7   8
ENDBRANCH   4   7
ENDBRANCH   2   3
ENDBRANCH   1   2
BRANCH   1  18
ATOM     18  C   UNL     1      76.626  93.659  66.153  1.00  0.00     0.001 C 
BRANCH  18  19
ATOM     19  C   UNL     1      77.135  94.287  64.825  1.00  0.00     0.000 C 
BRANCH  19  20
ATOM     20  C   UNL     1      78.688  94.281  64.747  1.00  0.00     0.000 C 
BRANCH  20  21
ATOM     21  C   UNL     1      79.342  95.673  64.970  1.00  0.00     0.003 C 
BRANCH  21  22
ATOM     22  C   UNL     1      78.942  96.373  66.310  1.00  0.00    -0.017 C 
ATOM     23  C   UNL     1      79.284  97.888  66.254  1.00  0.00     0.007 C 
ATOM     24  C   UNL     1      79.576  95.717  67.571  1.00  0.00     0.007 C 
ENDBRANCH  21  22
ENDBRANCH  20  21
ENDBRANCH  19  20
ENDBRANCH  18  19
ENDBRANCH   1  18
TORSDOF 11
ENDMDL
