MODEL 1
REMARK VINA RESULT:    -7.146      0.000      0.000
REMARK INTER + INTRA:         -13.265
REMARK INTER:                 -12.577
REMARK INTRA:                  -0.688
REMARK UNBOUND:                -0.688
REMARK SMILES C=C(C)[C@]12C[C@@H](C)[C@@]34O[C@](Cc5ccccc5)(O[C@@H]1[C@@H]3C=C(COC(=O)Cc1ccc(O)c(OC)c1)C[C@]1(O)C(=O)C(C)=C[C@@H]41)O2
REMARK SMILES IDX 23 1 22 2 21 3 20 4 9 5 8 6 10 7 6 8 18 9 46 10 19 11 5 12
REMARK SMILES IDX 7 13 4 14 45 15 38 16 44 17 40 18 42 20 41 21 43 22 39 23
REMARK SMILES IDX 11 25 12 26 13 27 17 28 14 29 16 30 15 31 2 32 3 33 1 34
REMARK SMILES IDX 37 35 24 37 25 38 26 39 27 40 28 41 36 42 29 43 33 44 30 45
REMARK SMILES IDX 31 46 34 47 35 48 32 49
REMARK H PARENT 39 24 32 50
REMARK Flexibility Score: 90.00
ROOT
ATOM      1  C   UNL     1      95.213  97.762  72.586  1.00  0.00     0.264 C 
ENDROOT
BRANCH   1   2
ATOM      2  C   UNL     1      94.832  99.207  72.368  1.00  0.00    -0.033 C 
ATOM      3  C   UNL     1      94.213  99.561  71.224  1.00  0.00    -0.015 C 
BRANCH   3   4
ATOM      4  C   UNL     1      93.801 100.940  70.736  1.00  0.00     0.078 C 
ATOM      5  O   UNL     1      91.476 101.308  71.496  1.00  0.00    -0.319 OA
ATOM      6  C   UNL     1      92.844 101.800  71.643  1.00  0.00     0.095 C 
ATOM      7  C   UNL     1      91.075 100.994  70.149  1.00  0.00     0.289 C 
ATOM      8  C   UNL     1      92.919 103.299  71.133  1.00  0.00     0.023 C 
ATOM      9  O   UNL     1      91.940 100.023  69.565  1.00  0.00    -0.320 OA
ATOM     10  O   UNL     1      91.134 102.129  69.289  1.00  0.00    -0.313 OA
ATOM     11  C   UNL     1      93.112 100.825  69.353  1.00  0.00     0.170 C 
ATOM     12  C   UNL     1      93.142 103.368  69.591  1.00  0.00     0.049 C 
ATOM     13  C   UNL     1      91.724 104.186  71.517  1.00  0.00     0.011 C 
ATOM     14  C   UNL     1      92.515 102.172  68.875  1.00  0.00     0.122 C 
BRANCH   6  15
ATOM     15  C   UNL     1      93.174 101.588  73.149  1.00  0.00     0.086 C 
ATOM     16  C   UNL     1      94.671 101.551  73.519  1.00  0.00     0.140 CG0
ATOM     17  C   UNL     1      92.584 102.521  74.170  1.00  0.00    -0.010 C 
ATOM     18  C   UNL     1      94.684 102.191  74.891  1.00  0.00     0.190 C 
ATOM     19  G   UNL     1      95.227 100.128  73.532  1.00  0.00     0.000 G0
ATOM     20  C   UNL     1      93.398 102.857  75.176  1.00  0.00    -0.008 C 
ATOM     21  O   UNL     1      95.637 102.211  75.654  1.00  0.00    -0.291 OA
ATOM     22  C   UNL     1      93.137 103.671  76.380  1.00  0.00     0.048 C 
BRANCH  16  23
ATOM     23  O   UNL     1      95.477 102.415  72.735  1.00  0.00    -0.381 OA
ATOM     24  H   UNL     1      94.978 103.230  72.564  1.00  0.00     0.212 HD
ENDBRANCH  16  23
ENDBRANCH   6  15
BRANCH   7  25
ATOM     25  C   UNL     1      89.657 100.460  70.187  1.00  0.00     0.135 C 
BRANCH  25  26
ATOM     26  C   UNL     1      89.319  99.666  68.950  1.00  0.00    -0.040 A 
ATOM     27  C   UNL     1      89.615  98.304  68.894  1.00  0.00     0.004 A 
ATOM     28  C   UNL     1      88.710 100.293  67.863  1.00  0.00     0.004 A 
ATOM     29  C   UNL     1      89.302  97.569  67.750  1.00  0.00     0.000 A 
ATOM     30  C   UNL     1      88.397  99.558  66.719  1.00  0.00     0.000 A 
ATOM     31  C   UNL     1      88.694  98.196  66.663  1.00  0.00     0.000 A 
ENDBRANCH  25  26
ENDBRANCH   7  25
BRANCH  14  32
ATOM     32  C   UNL     1      92.556 102.307  67.387  1.00  0.00    -0.046 C 
ATOM     33  C   UNL     1      93.595 103.237  66.836  1.00  0.00     0.042 C 
ATOM     34  C   UNL     1      91.713 101.634  66.590  1.00  0.00     0.010 C 
ENDBRANCH  14  32
ENDBRANCH   3   4
BRANCH   2  35
ATOM     35  C   UNL     1      95.213 100.105  73.531  1.00  0.00     0.078 CG0
ATOM     36  G   UNL     1      94.666 101.532  73.520  1.00  0.00     0.000 G0
ENDBRANCH   2  35
ENDBRANCH   1   2
BRANCH   1  37
ATOM     37  O   UNL     1      95.654  97.591  73.916  1.00  0.00    -0.461 OA
BRANCH  37  38
ATOM     38  C   UNL     1      95.308  96.406  74.524  1.00  0.00     0.310 C 
ATOM     39  O   UNL     1      95.068  95.360  73.938  1.00  0.00    -0.252 OA
BRANCH  38  40
ATOM     40  C   UNL     1      95.272  96.599  76.022  1.00  0.00     0.158 C 
BRANCH  40  41
ATOM     41  C   UNL     1      94.403  95.588  76.724  1.00  0.00    -0.033 A 
ATOM     42  C   UNL     1      93.024  95.585  76.511  1.00  0.00     0.054 A 
ATOM     43  C   UNL     1      94.977  94.654  77.586  1.00  0.00     0.008 A 
ATOM     44  C   UNL     1      92.219  94.649  77.161  1.00  0.00     0.160 A 
ATOM     45  C   UNL     1      94.173  93.718  78.236  1.00  0.00     0.050 A 
ATOM     46  C   UNL     1      92.794  93.715  78.024  1.00  0.00     0.157 A 
BRANCH  44  47
ATOM     47  O   UNL     1      90.875  94.657  76.945  1.00  0.00    -0.493 OA
ATOM     48  C   UNL     1      90.367  93.736  75.980  1.00  0.00     0.278 C 
ENDBRANCH  44  47
BRANCH  46  49
ATOM     49  O   UNL     1      92.019  92.796  78.663  1.00  0.00    -0.504 OA
ATOM     50  H   UNL     1      91.156  92.745  78.219  1.00  0.00     0.293 HD
ENDBRANCH  46  49
ENDBRANCH  40  41
ENDBRANCH  38  40
ENDBRANCH  37  38
ENDBRANCH   1  37
TORSDOF 11
ENDMDL
MODEL 2
REMARK VINA RESULT:    -6.875     20.479     24.025
REMARK INTER + INTRA:         -12.788
REMARK INTER:                 -11.395
REMARK INTRA:                  -1.394
REMARK UNBOUND:                -0.688
REMARK SMILES C=C(C)[C@]12C[C@@H](C)[C@@]34O[C@](Cc5ccccc5)(O[C@@H]1[C@@H]3C=C(COC(=O)Cc1ccc(O)c(OC)c1)C[C@]1(O)C(=O)C(C)=C[C@@H]41)O2
REMARK SMILES IDX 23 1 22 2 21 3 20 4 9 5 8 6 10 7 6 8 18 9 46 10 19 11 5 12
REMARK SMILES IDX 7 13 4 14 45 15 38 16 44 17 40 18 42 20 41 21 43 22 39 23
REMARK SMILES IDX 11 25 12 26 13 27 17 28 14 29 16 30 15 31 2 32 3 33 1 34
REMARK SMILES IDX 37 35 24 37 25 38 26 39 27 40 28 41 36 42 29 43 33 44 30 45
REMARK SMILES IDX 31 46 34 47 35 48 32 49
REMARK H PARENT 39 24 32 50
REMARK Flexibility Score: 90.00
ROOT
ATOM      1  C   UNL     1      95.001  78.283  85.538  1.00  0.00     0.264 C 
ENDROOT
BRANCH   1   2
ATOM      2  C   UNL     1      94.027  79.128  86.324  1.00  0.00    -0.033 C 
ATOM      3  C   UNL     1      94.499  80.000  87.238  1.00  0.00    -0.015 C 
BRANCH   3   4
ATOM      4  C   UNL     1      93.736  80.896  88.200  1.00  0.00     0.078 C 
ATOM      5  O   UNL     1      93.442  83.078  87.073  1.00  0.00    -0.319 OA
ATOM      6  C   UNL     1      92.710  81.931  87.605  1.00  0.00     0.095 C 
ATOM      7  C   UNL     1      94.526  83.553  87.894  1.00  0.00     0.289 C 
ATOM      8  C   UNL     1      91.773  82.412  88.789  1.00  0.00     0.023 C 
ATOM      9  O   UNL     1      95.477  82.521  88.143  1.00  0.00    -0.320 OA
ATOM     10  O   UNL     1      94.082  83.986  89.177  1.00  0.00    -0.313 OA
ATOM     11  C   UNL     1      94.732  81.709  89.063  1.00  0.00     0.170 C 
ATOM     12  C   UNL     1      92.541  82.453  90.146  1.00  0.00     0.049 C 
ATOM     13  C   UNL     1      91.062  83.757  88.563  1.00  0.00     0.011 C 
ATOM     14  C   UNL     1      94.025  82.767  89.947  1.00  0.00     0.122 C 
BRANCH   6  15
ATOM     15  C   UNL     1      91.975  81.333  86.371  1.00  0.00     0.086 C 
ATOM     16  C   UNL     1      91.507  79.868  86.503  1.00  0.00     0.140 CG0
ATOM     17  C   UNL     1      90.766  82.037  85.821  1.00  0.00    -0.010 C 
ATOM     18  C   UNL     1      90.221  79.863  85.703  1.00  0.00     0.190 C 
ATOM     19  G   UNL     1      92.539  78.882  85.958  1.00  0.00     0.000 G0
ATOM     20  C   UNL     1      89.775  81.239  85.411  1.00  0.00    -0.008 C 
ATOM     21  O   UNL     1      89.594  78.867  85.377  1.00  0.00    -0.291 OA
ATOM     22  C   UNL     1      88.496  81.572  84.752  1.00  0.00     0.048 C 
BRANCH  16  23
ATOM     23  O   UNL     1      91.093  79.514  87.812  1.00  0.00    -0.381 OA
ATOM     24  H   UNL     1      91.081  78.544  87.878  1.00  0.00     0.212 HD
ENDBRANCH  16  23
ENDBRANCH   6  15
BRANCH   7  25
ATOM     25  C   UNL     1      95.197  84.706  87.175  1.00  0.00     0.135 C 
BRANCH  25  26
ATOM     26  C   UNL     1      95.660  85.776  88.132  1.00  0.00    -0.040 A 
ATOM     27  C   UNL     1      96.997  85.826  88.528  1.00  0.00     0.004 A 
ATOM     28  C   UNL     1      94.753  86.716  88.620  1.00  0.00     0.004 A 
ATOM     29  C   UNL     1      97.427  86.815  89.413  1.00  0.00     0.000 A 
ATOM     30  C   UNL     1      95.183  87.705  89.506  1.00  0.00     0.000 A 
ATOM     31  C   UNL     1      96.519  87.754  89.902  1.00  0.00     0.000 A 
ENDBRANCH  25  26
ENDBRANCH   7  25
BRANCH  14  32
ATOM     32  C   UNL     1      94.743  82.991  91.237  1.00  0.00    -0.046 C 
ATOM     33  C   UNL     1      95.038  84.418  91.592  1.00  0.00     0.042 C 
ATOM     34  C   UNL     1      95.103  81.974  92.034  1.00  0.00     0.010 C 
ENDBRANCH  14  32
ENDBRANCH   3   4
BRANCH   2  35
ATOM     35  C   UNL     1      92.579  78.869  85.952  1.00  0.00     0.078 CG0
ATOM     36  G   UNL     1      91.534  79.846  86.487  1.00  0.00     0.000 G0
ENDBRANCH   2  35
ENDBRANCH   1   2
BRANCH   1  37
ATOM     37  O   UNL     1      96.290  78.851  85.626  1.00  0.00    -0.461 OA
BRANCH  37  38
ATOM     38  C   UNL     1      96.991  78.957  84.447  1.00  0.00     0.310 C 
ATOM     39  O   UNL     1      98.211  78.967  84.354  1.00  0.00    -0.252 OA
BRANCH  38  40
ATOM     40  C   UNL     1      96.023  79.060  83.292  1.00  0.00     0.158 C 
BRANCH  40  41
ATOM     41  C   UNL     1      96.519  79.956  82.187  1.00  0.00    -0.033 A 
ATOM     42  C   UNL     1      97.122  79.401  81.057  1.00  0.00     0.054 A 
ATOM     43  C   UNL     1      96.376  81.339  82.293  1.00  0.00     0.008 A 
ATOM     44  C   UNL     1      97.581  80.231  80.034  1.00  0.00     0.160 A 
ATOM     45  C   UNL     1      96.835  82.168  81.270  1.00  0.00     0.050 A 
ATOM     46  C   UNL     1      97.438  81.615  80.141  1.00  0.00     0.157 A 
BRANCH  44  47
ATOM     47  O   UNL     1      98.168  79.678  78.936  1.00  0.00    -0.493 OA
ATOM     48  C   UNL     1      97.532  78.534  78.368  1.00  0.00     0.278 C 
ENDBRANCH  44  47
BRANCH  46  49
ATOM     49  O   UNL     1      97.882  82.434  79.147  1.00  0.00    -0.504 OA
ATOM     50  H   UNL     1      98.006  81.911  78.337  1.00  0.00     0.293 HD
ENDBRANCH  46  49
ENDBRANCH  40  41
ENDBRANCH  38  40
ENDBRANCH  37  38
ENDBRANCH   1  37
TORSDOF 11
ENDMDL
MODEL 3
REMARK VINA RESULT:    -6.695     20.439     24.450
REMARK INTER + INTRA:         -12.472
REMARK INTER:                 -11.044
REMARK INTRA:                  -1.428
REMARK UNBOUND:                -0.688
REMARK SMILES C=C(C)[C@]12C[C@@H](C)[C@@]34O[C@](Cc5ccccc5)(O[C@@H]1[C@@H]3C=C(COC(=O)Cc1ccc(O)c(OC)c1)C[C@]1(O)C(=O)C(C)=C[C@@H]41)O2
REMARK SMILES IDX 23 1 22 2 21 3 20 4 9 5 8 6 10 7 6 8 18 9 46 10 19 11 5 12
REMARK SMILES IDX 7 13 4 14 45 15 38 16 44 17 40 18 42 20 41 21 43 22 39 23
REMARK SMILES IDX 11 25 12 26 13 27 17 28 14 29 16 30 15 31 2 32 3 33 1 34
REMARK SMILES IDX 37 35 24 37 25 38 26 39 27 40 28 41 36 42 29 43 33 44 30 45
REMARK SMILES IDX 31 46 34 47 35 48 32 49
REMARK H PARENT 39 24 32 50
REMARK Flexibility Score: 90.00
ROOT
ATOM      1  C   UNL     1      71.155  89.818  70.079  1.00  0.00     0.264 C 
ENDROOT
BRANCH   1   2
ATOM      2  C   UNL     1      72.489  89.839  69.369  1.00  0.00    -0.033 C 
ATOM      3  C   UNL     1      73.126  88.675  69.129  1.00  0.00    -0.015 C 
BRANCH   3   4
ATOM      4  C   UNL     1      74.493  88.434  68.510  1.00  0.00     0.078 C 
ATOM      5  O   UNL     1      74.138  88.104  66.084  1.00  0.00    -0.319 OA
ATOM      6  C   UNL     1      74.768  88.988  67.062  1.00  0.00     0.095 C 
ATOM      7  C   UNL     1      74.290  86.694  66.340  1.00  0.00     0.289 C 
ATOM      8  C   UNL     1      76.337  88.984  66.837  1.00  0.00     0.023 C 
ATOM      9  O   UNL     1      73.777  86.343  67.622  1.00  0.00    -0.320 OA
ATOM     10  O   UNL     1      75.657  86.290  66.348  1.00  0.00    -0.313 OA
ATOM     11  C   UNL     1      74.789  86.915  68.464  1.00  0.00     0.170 C 
ATOM     12  C   UNL     1      77.019  87.798  67.586  1.00  0.00     0.049 C 
ATOM     13  C   UNL     1      76.793  88.992  65.369  1.00  0.00     0.011 C 
ATOM     14  C   UNL     1      76.091  86.587  67.691  1.00  0.00     0.122 C 
BRANCH   6  15
ATOM     15  C   UNL     1      74.066  90.361  66.854  1.00  0.00     0.086 C 
ATOM     16  C   UNL     1      74.155  91.355  68.030  1.00  0.00     0.140 CG0
ATOM     17  C   UNL     1      74.427  91.199  65.660  1.00  0.00    -0.010 C 
ATOM     18  C   UNL     1      74.222  92.692  67.322  1.00  0.00     0.190 C 
ATOM     19  G   UNL     1      72.952  91.249  68.967  1.00  0.00     0.000 G0
ATOM     20  C   UNL     1      74.495  92.515  65.884  1.00  0.00    -0.008 C 
ATOM     21  O   UNL     1      74.119  93.784  67.860  1.00  0.00    -0.291 OA
ATOM     22  C   UNL     1      74.738  93.629  64.944  1.00  0.00     0.048 C 
BRANCH  16  23
ATOM     23  O   UNL     1      75.377  91.289  68.747  1.00  0.00    -0.381 OA
ATOM     24  H   UNL     1      76.053  90.905  68.165  1.00  0.00     0.212 HD
ENDBRANCH  16  23
ENDBRANCH   6  15
BRANCH   7  25
ATOM     25  C   UNL     1      73.544  85.933  65.263  1.00  0.00     0.135 C 
BRANCH  25  26
ATOM     26  C   UNL     1      74.127  84.561  65.033  1.00  0.00    -0.040 A 
ATOM     27  C   UNL     1      73.918  83.549  65.971  1.00  0.00     0.004 A 
ATOM     28  C   UNL     1      74.874  84.303  63.884  1.00  0.00     0.004 A 
ATOM     29  C   UNL     1      74.457  82.280  65.759  1.00  0.00     0.000 A 
ATOM     30  C   UNL     1      75.413  83.034  63.672  1.00  0.00     0.000 A 
ATOM     31  C   UNL     1      75.205  82.023  64.610  1.00  0.00     0.000 A 
ENDBRANCH  25  26
ENDBRANCH   7  25
BRANCH  14  32
ATOM     32  C   UNL     1      76.781  85.381  68.240  1.00  0.00    -0.046 C 
ATOM     33  C   UNL     1      77.434  84.477  67.236  1.00  0.00     0.042 C 
ATOM     34  C   UNL     1      76.816  85.121  69.556  1.00  0.00     0.010 C 
ENDBRANCH  14  32
ENDBRANCH   3   4
BRANCH   2  35
ATOM     35  C   UNL     1      72.944  91.238  69.000  1.00  0.00     0.078 CG0
ATOM     36  G   UNL     1      74.143  91.358  68.060  1.00  0.00     0.000 G0
ENDBRANCH   2  35
ENDBRANCH   1   2
BRANCH   1  37
ATOM     37  O   UNL     1      70.138  89.502  69.153  1.00  0.00    -0.461 OA
BRANCH  37  38
ATOM     38  C   UNL     1      68.926  90.122  69.345  1.00  0.00     0.310 C 
ATOM     39  O   UNL     1      68.522  91.088  68.713  1.00  0.00    -0.252 OA
BRANCH  38  40
ATOM     40  C   UNL     1      68.174  89.426  70.456  1.00  0.00     0.158 C 
BRANCH  40  41
ATOM     41  C   UNL     1      67.923  87.968  70.172  1.00  0.00    -0.033 A 
ATOM     42  C   UNL     1      66.991  87.596  69.202  1.00  0.00     0.054 A 
ATOM     43  C   UNL     1      68.622  86.989  70.877  1.00  0.00     0.008 A 
ATOM     44  C   UNL     1      66.759  86.246  68.939  1.00  0.00     0.160 A 
ATOM     45  C   UNL     1      68.390  85.639  70.614  1.00  0.00     0.050 A 
ATOM     46  C   UNL     1      67.459  85.267  69.646  1.00  0.00     0.157 A 
BRANCH  44  47
ATOM     47  O   UNL     1      65.846  85.896  67.990  1.00  0.00    -0.493 OA
ATOM     48  C   UNL     1      64.477  86.185  68.269  1.00  0.00     0.278 C 
ENDBRANCH  44  47
BRANCH  46  49
ATOM     49  O   UNL     1      67.241  83.946  69.397  1.00  0.00    -0.504 OA
ATOM     50  H   UNL     1      68.071  83.458  69.529  1.00  0.00     0.293 HD
ENDBRANCH  46  49
ENDBRANCH  40  41
ENDBRANCH  38  40
ENDBRANCH  37  38
ENDBRANCH   1  37
TORSDOF 11
ENDMDL
MODEL 4
REMARK VINA RESULT:    -6.667     20.761     24.976
REMARK INTER + INTRA:         -12.422
REMARK INTER:                 -11.081
REMARK INTRA:                  -1.341
REMARK UNBOUND:                -0.688
REMARK SMILES C=C(C)[C@]12C[C@@H](C)[C@@]34O[C@](Cc5ccccc5)(O[C@@H]1[C@@H]3C=C(COC(=O)Cc1ccc(O)c(OC)c1)C[C@]1(O)C(=O)C(C)=C[C@@H]41)O2
REMARK SMILES IDX 23 1 22 2 21 3 20 4 9 5 8 6 10 7 6 8 18 9 46 10 19 11 5 12
REMARK SMILES IDX 7 13 4 14 45 15 38 16 44 17 40 18 42 20 41 21 43 22 39 23
REMARK SMILES IDX 11 25 12 26 13 27 17 28 14 29 16 30 15 31 2 32 3 33 1 34
REMARK SMILES IDX 37 35 24 37 25 38 26 39 27 40 28 41 36 42 29 43 33 44 30 45
REMARK SMILES IDX 31 46 34 47 35 48 32 49
REMARK H PARENT 39 24 32 50
REMARK Flexibility Score: 90.00
ROOT
ATOM      1  C   UNL     1      70.415  88.947  69.594  1.00  0.00     0.264 C 
ENDROOT
BRANCH   1   2
ATOM      2  C   UNL     1      71.850  89.138  69.160  1.00  0.00    -0.033 C 
ATOM      3  C   UNL     1      72.628  88.056  68.960  1.00  0.00    -0.015 C 
BRANCH   3   4
ATOM      4  C   UNL     1      74.103  87.981  68.602  1.00  0.00     0.078 C 
ATOM      5  O   UNL     1      74.242  87.903  66.133  1.00  0.00    -0.319 OA
ATOM      6  C   UNL     1      74.595  88.712  67.297  1.00  0.00     0.095 C 
ATOM      7  C   UNL     1      74.468  86.488  66.274  1.00  0.00     0.289 C 
ATOM      8  C   UNL     1      76.172  88.842  67.386  1.00  0.00     0.023 C 
ATOM      9  O   UNL     1      73.756  85.959  67.390  1.00  0.00    -0.320 OA
ATOM     10  O   UNL     1      75.839  86.180  66.512  1.00  0.00    -0.313 OA
ATOM     11  C   UNL     1      74.537  86.500  68.467  1.00  0.00     0.170 C 
ATOM     12  C   UNL     1      76.804  87.628  68.135  1.00  0.00     0.049 C 
ATOM     13  C   UNL     1      76.894  89.047  66.044  1.00  0.00     0.011 C 
ATOM     14  C   UNL     1      75.985  86.352  67.937  1.00  0.00     0.122 C 
BRANCH   6  15
ATOM     15  C   UNL     1      73.825  90.048  67.090  1.00  0.00     0.086 C 
ATOM     16  C   UNL     1      73.590  90.901  68.354  1.00  0.00     0.140 CG0
ATOM     17  C   UNL     1      74.334  91.044  66.086  1.00  0.00    -0.010 C 
ATOM     18  C   UNL     1      73.673  92.313  67.814  1.00  0.00     0.190 C 
ATOM     19  G   UNL     1      72.243  90.603  69.010  1.00  0.00     0.000 G0
ATOM     20  C   UNL     1      74.237  92.326  66.452  1.00  0.00    -0.008 C 
ATOM     21  O   UNL     1      73.367  93.325  68.428  1.00  0.00    -0.291 OA
ATOM     22  C   UNL     1      74.556  93.557  65.699  1.00  0.00     0.048 C 
BRANCH  16  23
ATOM     23  O   UNL     1      74.649  90.836  69.295  1.00  0.00    -0.381 OA
ATOM     24  H   UNL     1      75.293  90.177  68.987  1.00  0.00     0.212 HD
ENDBRANCH  16  23
ENDBRANCH   6  15
BRANCH   7  25
ATOM     25  C   UNL     1      74.009  85.803  65.003  1.00  0.00     0.135 C 
BRANCH  25  26
ATOM     26  C   UNL     1      74.270  84.318  65.034  1.00  0.00    -0.040 A 
ATOM     27  C   UNL     1      75.536  83.825  64.718  1.00  0.00     0.004 A 
ATOM     28  C   UNL     1      73.246  83.437  65.382  1.00  0.00     0.004 A 
ATOM     29  C   UNL     1      75.777  82.451  64.747  1.00  0.00     0.000 A 
ATOM     30  C   UNL     1      73.487  82.063  65.411  1.00  0.00     0.000 A 
ATOM     31  C   UNL     1      74.753  81.571  65.094  1.00  0.00     0.000 A 
ENDBRANCH  25  26
ENDBRANCH   7  25
BRANCH  14  32
ATOM     32  C   UNL     1      76.665  85.142  68.490  1.00  0.00    -0.046 C 
ATOM     33  C   UNL     1      76.292  84.756  69.891  1.00  0.00     0.042 C 
ATOM     34  C   UNL     1      77.557  84.441  67.775  1.00  0.00     0.010 C 
ENDBRANCH  14  32
ENDBRANCH   3   4
BRANCH   2  35
ATOM     35  C   UNL     1      72.232  90.597  68.995  1.00  0.00     0.078 CG0
ATOM     36  G   UNL     1      73.594  90.896  68.371  1.00  0.00     0.000 G0
ENDBRANCH   2  35
ENDBRANCH   1   2
BRANCH   1  37
ATOM     37  O   UNL     1      69.871  87.829  68.927  1.00  0.00    -0.461 OA
BRANCH  37  38
ATOM     38  C   UNL     1      69.381  86.823  69.726  1.00  0.00     0.310 C 
ATOM     39  O   UNL     1      68.838  86.988  70.810  1.00  0.00    -0.252 OA
BRANCH  38  40
ATOM     40  C   UNL     1      69.618  85.488  69.059  1.00  0.00     0.158 C 
BRANCH  40  41
ATOM     41  C   UNL     1      68.600  85.175  67.993  1.00  0.00    -0.033 A 
ATOM     42  C   UNL     1      68.992  84.516  66.827  1.00  0.00     0.054 A 
ATOM     43  C   UNL     1      67.267  85.543  68.172  1.00  0.00     0.008 A 
ATOM     44  C   UNL     1      68.050  84.227  65.840  1.00  0.00     0.160 A 
ATOM     45  C   UNL     1      66.324  85.253  67.185  1.00  0.00     0.050 A 
ATOM     46  C   UNL     1      66.716  84.595  66.019  1.00  0.00     0.157 A 
BRANCH  44  47
ATOM     47  O   UNL     1      68.444  83.584  64.706  1.00  0.00    -0.493 OA
ATOM     48  C   UNL     1      69.800  83.760  64.299  1.00  0.00     0.278 C 
ENDBRANCH  44  47
BRANCH  46  49
ATOM     49  O   UNL     1      65.787  84.316  65.063  1.00  0.00    -0.504 OA
ATOM     50  H   UNL     1      66.148  84.553  64.192  1.00  0.00     0.293 HD
ENDBRANCH  46  49
ENDBRANCH  40  41
ENDBRANCH  38  40
ENDBRANCH  37  38
ENDBRANCH   1  37
TORSDOF 11
ENDMDL
MODEL 5
REMARK VINA RESULT:    -6.108     17.735     21.693
REMARK INTER + INTRA:         -11.439
REMARK INTER:                 -10.383
REMARK INTRA:                  -1.056
REMARK UNBOUND:                -0.688
REMARK SMILES C=C(C)[C@]12C[C@@H](C)[C@@]34O[C@](Cc5ccccc5)(O[C@@H]1[C@@H]3C=C(COC(=O)Cc1ccc(O)c(OC)c1)C[C@]1(O)C(=O)C(C)=C[C@@H]41)O2
REMARK SMILES IDX 23 1 22 2 21 3 20 4 9 5 8 6 10 7 6 8 18 9 46 10 19 11 5 12
REMARK SMILES IDX 7 13 4 14 45 15 38 16 44 17 40 18 42 20 41 21 43 22 39 23
REMARK SMILES IDX 11 25 12 26 13 27 17 28 14 29 16 30 15 31 2 32 3 33 1 34
REMARK SMILES IDX 37 35 24 37 25 38 26 39 27 40 28 41 36 42 29 43 33 44 30 45
REMARK SMILES IDX 31 46 34 47 35 48 32 49
REMARK H PARENT 39 24 32 50
REMARK Flexibility Score: 90.00
ROOT
ATOM      1  C   UNL     1      97.529  77.298  78.859  1.00  0.00     0.264 C 
ENDROOT
BRANCH   1   2
ATOM      2  C   UNL     1      98.217  78.411  78.105  1.00  0.00    -0.033 C 
ATOM      3  C   UNL     1      99.355  78.147  77.432  1.00  0.00    -0.015 C 
BRANCH   3   4
ATOM      4  C   UNL     1     100.268  79.093  76.670  1.00  0.00     0.078 C 
ATOM      5  O   UNL     1      99.501  79.096  74.318  1.00  0.00    -0.319 OA
ATOM      6  C   UNL     1      99.652  79.945  75.497  1.00  0.00     0.095 C 
ATOM      7  C   UNL     1     100.610  78.218  74.044  1.00  0.00     0.289 C 
ATOM      8  C   UNL     1     100.667  81.117  75.172  1.00  0.00     0.023 C 
ATOM      9  O   UNL     1     100.877  77.362  75.151  1.00  0.00    -0.320 OA
ATOM     10  O   UNL     1     101.820  78.933  73.808  1.00  0.00    -0.313 OA
ATOM     11  C   UNL     1     101.456  78.306  76.066  1.00  0.00     0.170 C 
ATOM     12  C   UNL     1     102.145  80.673  75.398  1.00  0.00     0.049 C 
ATOM     13  C   UNL     1     100.529  81.740  73.773  1.00  0.00     0.011 C 
ATOM     14  C   UNL     1     102.334  79.179  75.134  1.00  0.00     0.122 C 
BRANCH   6  15
ATOM     15  C   UNL     1      98.202  80.392  75.842  1.00  0.00     0.086 C 
ATOM     16  C   UNL     1      97.967  80.881  77.287  1.00  0.00     0.140 CG0
ATOM     17  C   UNL     1      97.538  81.448  75.004  1.00  0.00    -0.010 C 
ATOM     18  C   UNL     1      96.921  81.959  77.100  1.00  0.00     0.190 C 
ATOM     19  G   UNL     1      97.492  79.757  78.206  1.00  0.00     0.000 G0
ATOM     20  C   UNL     1      96.788  82.326  75.677  1.00  0.00    -0.008 C 
ATOM     21  O   UNL     1      96.295  82.502  77.997  1.00  0.00    -0.291 OA
ATOM     22  C   UNL     1      95.938  83.428  75.182  1.00  0.00     0.048 C 
BRANCH  16  23
ATOM     23  O   UNL     1      99.071  81.574  77.845  1.00  0.00    -0.381 OA
ATOM     24  H   UNL     1      99.859  81.378  77.311  1.00  0.00     0.212 HD
ENDBRANCH  16  23
ENDBRANCH   6  15
BRANCH   7  25
ATOM     25  C   UNL     1     100.268  77.386  72.824  1.00  0.00     0.135 C 
BRANCH  25  26
ATOM     26  C   UNL     1      99.293  78.092  71.914  1.00  0.00    -0.040 A 
ATOM     27  C   UNL     1      97.963  77.674  71.858  1.00  0.00     0.004 A 
ATOM     28  C   UNL     1      99.721  79.162  71.130  1.00  0.00     0.004 A 
ATOM     29  C   UNL     1      97.062  78.326  71.016  1.00  0.00     0.000 A 
ATOM     30  C   UNL     1      98.820  79.815  70.288  1.00  0.00     0.000 A 
ATOM     31  C   UNL     1      97.490  79.396  70.232  1.00  0.00     0.000 A 
ENDBRANCH  25  26
ENDBRANCH   7  25
BRANCH  14  32
ATOM     32  C   UNL     1     103.769  78.766  75.166  1.00  0.00    -0.046 C 
ATOM     33  C   UNL     1     104.335  78.237  73.882  1.00  0.00     0.042 C 
ATOM     34  C   UNL     1     104.510  78.864  76.280  1.00  0.00     0.010 C 
ENDBRANCH  14  32
ENDBRANCH   3   4
BRANCH   2  35
ATOM     35  C   UNL     1      97.490  79.738  78.208  1.00  0.00     0.078 CG0
ATOM     36  G   UNL     1      97.972  80.872  77.305  1.00  0.00     0.000 G0
ENDBRANCH   2  35
ENDBRANCH   1   2
BRANCH   1  37
ATOM     37  O   UNL     1      98.129  77.154  80.129  1.00  0.00    -0.461 OA
BRANCH  37  38
ATOM     38  C   UNL     1      97.428  77.671  81.194  1.00  0.00     0.310 C 
ATOM     39  O   UNL     1      96.317  77.302  81.550  1.00  0.00    -0.252 OA
BRANCH  38  40
ATOM     40  C   UNL     1      98.243  78.759  81.853  1.00  0.00     0.158 C 
BRANCH  40  41
ATOM     41  C   UNL     1      97.432  79.989  82.171  1.00  0.00    -0.033 A 
ATOM     42  C   UNL     1      96.665  80.036  83.336  1.00  0.00     0.054 A 
ATOM     43  C   UNL     1      97.448  81.079  81.302  1.00  0.00     0.008 A 
ATOM     44  C   UNL     1      95.915  81.175  83.631  1.00  0.00     0.160 A 
ATOM     45  C   UNL     1      96.698  82.218  81.597  1.00  0.00     0.050 A 
ATOM     46  C   UNL     1      95.931  82.266  82.761  1.00  0.00     0.157 A 
BRANCH  44  47
ATOM     47  O   UNL     1      95.170  81.209  84.771  1.00  0.00    -0.493 OA
ATOM     48  C   UNL     1      95.561  82.146  85.773  1.00  0.00     0.278 C 
ENDBRANCH  44  47
BRANCH  46  49
ATOM     49  O   UNL     1      95.203  83.383  83.039  1.00  0.00    -0.504 OA
ATOM     50  H   UNL     1      95.763  84.013  83.522  1.00  0.00     0.293 HD
ENDBRANCH  46  49
ENDBRANCH  40  41
ENDBRANCH  38  40
ENDBRANCH  37  38
ENDBRANCH   1  37
TORSDOF 11
ENDMDL
MODEL 6
REMARK VINA RESULT:    -6.067     30.072     34.150
REMARK INTER + INTRA:         -11.365
REMARK INTER:                  -9.559
REMARK INTRA:                  -1.806
REMARK UNBOUND:                -0.688
REMARK SMILES C=C(C)[C@]12C[C@@H](C)[C@@]34O[C@](Cc5ccccc5)(O[C@@H]1[C@@H]3C=C(COC(=O)Cc1ccc(O)c(OC)c1)C[C@]1(O)C(=O)C(C)=C[C@@H]41)O2
REMARK SMILES IDX 23 1 22 2 21 3 20 4 9 5 8 6 10 7 6 8 18 9 46 10 19 11 5 12
REMARK SMILES IDX 7 13 4 14 45 15 38 16 44 17 40 18 42 20 41 21 43 22 39 23
REMARK SMILES IDX 11 25 12 26 13 27 17 28 14 29 16 30 15 31 2 32 3 33 1 34
REMARK SMILES IDX 37 35 24 37 25 38 26 39 27 40 28 41 36 42 29 43 33 44 30 45
REMARK SMILES IDX 31 46 34 47 35 48 32 49
REMARK H PARENT 39 24 32 50
REMARK Flexibility Score: 90.00
ROOT
ATOM      1  C   UNL     1      60.546  90.058  71.893  1.00  0.00     0.264 C 
ENDROOT
BRANCH   1   2
ATOM      2  C   UNL     1      60.999  88.884  72.729  1.00  0.00    -0.033 C 
ATOM      3  C   UNL     1      61.721  87.903  72.151  1.00  0.00    -0.015 C 
BRANCH   3   4
ATOM      4  C   UNL     1      62.224  86.597  72.745  1.00  0.00     0.078 C 
ATOM      5  O   UNL     1      64.507  87.025  73.596  1.00  0.00    -0.319 OA
ATOM      6  C   UNL     1      63.155  86.661  74.013  1.00  0.00     0.095 C 
ATOM      7  C   UNL     1      64.983  86.368  72.406  1.00  0.00     0.289 C 
ATOM      8  C   UNL     1      63.179  85.216  74.663  1.00  0.00     0.023 C 
ATOM      9  O   UNL     1      64.118  86.612  71.300  1.00  0.00    -0.320 OA
ATOM     10  O   UNL     1      65.031  84.951  72.552  1.00  0.00    -0.313 OA
ATOM     11  C   UNL     1      62.998  85.794  71.670  1.00  0.00     0.170 C 
ATOM     12  C   UNL     1      63.062  84.100  73.580  1.00  0.00     0.049 C 
ATOM     13  C   UNL     1      64.383  84.921  75.573  1.00  0.00     0.011 C 
ATOM     14  C   UNL     1      63.683  84.532  72.252  1.00  0.00     0.122 C 
BRANCH   6  15
ATOM     15  C   UNL     1      62.717  87.814  74.962  1.00  0.00     0.086 C 
ATOM     16  C   UNL     1      61.199  87.966  75.192  1.00  0.00     0.140 CG0
ATOM     17  C   UNL     1      63.290  87.883  76.350  1.00  0.00    -0.010 C 
ATOM     18  C   UNL     1      61.133  88.436  76.629  1.00  0.00     0.190 C 
ATOM     19  G   UNL     1      60.565  88.961  74.221  1.00  0.00     0.000 G0
ATOM     20  C   UNL     1      62.432  88.257  77.305  1.00  0.00    -0.008 C 
ATOM     21  O   UNL     1      60.134  88.862  77.190  1.00  0.00    -0.291 OA
ATOM     22  C   UNL     1      62.659  88.509  78.743  1.00  0.00     0.048 C 
BRANCH  16  23
ATOM     23  O   UNL     1      60.495  86.735  75.205  1.00  0.00    -0.381 OA
ATOM     24  H   UNL     1      59.972  86.689  76.023  1.00  0.00     0.212 HD
ENDBRANCH  16  23
ENDBRANCH   6  15
BRANCH   7  25
ATOM     25  C   UNL     1      66.371  86.892  72.096  1.00  0.00     0.135 C 
BRANCH  25  26
ATOM     26  C   UNL     1      67.111  85.997  71.134  1.00  0.00    -0.040 A 
ATOM     27  C   UNL     1      68.122  85.156  71.602  1.00  0.00     0.004 A 
ATOM     28  C   UNL     1      66.785  86.008  69.778  1.00  0.00     0.004 A 
ATOM     29  C   UNL     1      68.807  84.328  70.712  1.00  0.00     0.000 A 
ATOM     30  C   UNL     1      67.471  85.180  68.889  1.00  0.00     0.000 A 
ATOM     31  C   UNL     1      68.481  84.340  69.357  1.00  0.00     0.000 A 
ENDBRANCH  25  26
ENDBRANCH   7  25
BRANCH  14  32
ATOM     32  C   UNL     1      63.747  83.419  71.258  1.00  0.00    -0.046 C 
ATOM     33  C   UNL     1      62.557  83.266  70.358  1.00  0.00     0.042 C 
ATOM     34  C   UNL     1      64.808  82.602  71.174  1.00  0.00     0.010 C 
ENDBRANCH  14  32
ENDBRANCH   3   4
BRANCH   2  35
ATOM     35  C   UNL     1      60.561  88.981  74.178  1.00  0.00     0.078 CG0
ATOM     36  G   UNL     1      61.190  87.999  75.165  1.00  0.00     0.000 G0
ENDBRANCH   2  35
ENDBRANCH   1   2
BRANCH   1  37
ATOM     37  O   UNL     1      59.215  89.848  71.475  1.00  0.00    -0.461 OA
BRANCH  37  38
ATOM     38  C   UNL     1      58.260  90.644  72.063  1.00  0.00     0.310 C 
ATOM     39  O   UNL     1      58.323  91.862  72.162  1.00  0.00    -0.252 OA
BRANCH  38  40
ATOM     40  C   UNL     1      57.125  89.783  72.567  1.00  0.00     0.158 C 
BRANCH  40  41
ATOM     41  C   UNL     1      57.085  88.424  71.916  1.00  0.00    -0.033 A 
ATOM     42  C   UNL     1      57.567  87.308  72.601  1.00  0.00     0.054 A 
ATOM     43  C   UNL     1      56.565  88.282  70.630  1.00  0.00     0.008 A 
ATOM     44  C   UNL     1      57.530  86.051  71.999  1.00  0.00     0.160 A 
ATOM     45  C   UNL     1      56.528  87.024  70.027  1.00  0.00     0.050 A 
ATOM     46  C   UNL     1      57.010  85.909  70.711  1.00  0.00     0.157 A 
BRANCH  44  47
ATOM     47  O   UNL     1      58.004  84.969  72.677  1.00  0.00    -0.493 OA
ATOM     48  C   UNL     1      59.396  84.684  72.550  1.00  0.00     0.278 C 
ENDBRANCH  44  47
BRANCH  46  49
ATOM     49  O   UNL     1      56.968  84.686  70.113  1.00  0.00    -0.504 OA
ATOM     50  H   UNL     1      56.822  84.006  70.793  1.00  0.00     0.293 HD
ENDBRANCH  46  49
ENDBRANCH  40  41
ENDBRANCH  38  40
ENDBRANCH  37  38
ENDBRANCH   1  37
TORSDOF 11
ENDMDL
MODEL 7
REMARK VINA RESULT:    -6.014      1.366      2.112
REMARK INTER + INTRA:         -11.272
REMARK INTER:                 -10.326
REMARK INTRA:                  -0.946
REMARK UNBOUND:                -0.688
REMARK SMILES C=C(C)[C@]12C[C@@H](C)[C@@]34O[C@](Cc5ccccc5)(O[C@@H]1[C@@H]3C=C(COC(=O)Cc1ccc(O)c(OC)c1)C[C@]1(O)C(=O)C(C)=C[C@@H]41)O2
REMARK SMILES IDX 23 1 22 2 21 3 20 4 9 5 8 6 10 7 6 8 18 9 46 10 19 11 5 12
REMARK SMILES IDX 7 13 4 14 45 15 38 16 44 17 40 18 42 20 41 21 43 22 39 23
REMARK SMILES IDX 11 25 12 26 13 27 17 28 14 29 16 30 15 31 2 32 3 33 1 34
REMARK SMILES IDX 37 35 24 37 25 38 26 39 27 40 28 41 36 42 29 43 33 44 30 45
REMARK SMILES IDX 31 46 34 47 35 48 32 49
REMARK H PARENT 39 24 32 50
REMARK Flexibility Score: 90.00
ROOT
ATOM      1  C   UNL     1      95.441  98.823  72.789  1.00  0.00     0.264 C 
ENDROOT
BRANCH   1   2
ATOM      2  C   UNL     1      95.134 100.301  72.862  1.00  0.00    -0.033 C 
ATOM      3  C   UNL     1      94.558 100.907  71.805  1.00  0.00    -0.015 C 
BRANCH   3   4
ATOM      4  C   UNL     1      94.222 102.375  71.600  1.00  0.00     0.078 C 
ATOM      5  O   UNL     1      91.886 102.692  72.350  1.00  0.00    -0.319 OA
ATOM      6  C   UNL     1      93.266 103.077  72.636  1.00  0.00     0.095 C 
ATOM      7  C   UNL     1      91.525 102.680  70.956  1.00  0.00     0.289 C 
ATOM      8  C   UNL     1      93.422 104.642  72.449  1.00  0.00     0.023 C 
ATOM      9  O   UNL     1      92.371 101.808  70.210  1.00  0.00    -0.320 OA
ATOM     10  O   UNL     1      91.664 103.962  70.350  1.00  0.00    -0.313 OA
ATOM     11  C   UNL     1      93.583 102.579  70.204  1.00  0.00     0.170 C 
ATOM     12  C   UNL     1      93.708 105.014  70.961  1.00  0.00     0.049 C 
ATOM     13  C   UNL     1      92.251 105.490  72.972  1.00  0.00     0.011 C 
ATOM     14  C   UNL     1      93.060 104.022  69.995  1.00  0.00     0.122 C 
BRANCH   6  15
ATOM     15  C   UNL     1      93.528 102.546  74.075  1.00  0.00     0.086 C 
ATOM     16  C   UNL     1      95.008 102.383  74.481  1.00  0.00     0.140 CG0
ATOM     17  C   UNL     1      92.921 103.265  75.247  1.00  0.00    -0.010 C 
ATOM     18  C   UNL     1      94.980 102.723  75.956  1.00  0.00     0.190 C 
ATOM     19  G   UNL     1      95.527 100.970  74.216  1.00  0.00     0.000 G0
ATOM     20  C   UNL     1      93.701 103.357  76.329  1.00  0.00    -0.008 C 
ATOM     21  O   UNL     1      95.902 102.552  76.740  1.00  0.00    -0.291 OA
ATOM     22  C   UNL     1      93.411 103.912  77.667  1.00  0.00     0.048 C 
BRANCH  16  23
ATOM     23  O   UNL     1      95.867 103.363  73.923  1.00  0.00    -0.381 OA
ATOM     24  H   UNL     1      96.773 103.013  73.922  1.00  0.00     0.212 HD
ENDBRANCH  16  23
ENDBRANCH   6  15
BRANCH   7  25
ATOM     25  C   UNL     1      90.086 102.218  70.841  1.00  0.00     0.135 C 
BRANCH  25  26
ATOM     26  C   UNL     1      89.985 100.806  70.322  1.00  0.00    -0.040 A 
ATOM     27  C   UNL     1      90.182  99.729  71.187  1.00  0.00     0.004 A 
ATOM     28  C   UNL     1      89.694 100.575  68.978  1.00  0.00     0.004 A 
ATOM     29  C   UNL     1      90.089  98.422  70.708  1.00  0.00     0.000 A 
ATOM     30  C   UNL     1      89.601  99.268  68.498  1.00  0.00     0.000 A 
ATOM     31  C   UNL     1      89.798  98.192  69.364  1.00  0.00     0.000 A 
ENDBRANCH  25  26
ENDBRANCH   7  25
BRANCH  14  32
ATOM     32  C   UNL     1      93.165 104.456  68.570  1.00  0.00    -0.046 C 
ATOM     33  C   UNL     1      93.804 103.482  67.625  1.00  0.00     0.042 C 
ATOM     34  C   UNL     1      92.714 105.651  68.157  1.00  0.00     0.010 C 
ENDBRANCH  14  32
ENDBRANCH   3   4
BRANCH   2  35
ATOM     35  C   UNL     1      95.530 100.926  74.186  1.00  0.00     0.078 CG0
ATOM     36  G   UNL     1      95.021 102.338  74.472  1.00  0.00     0.000 G0
ENDBRANCH   2  35
ENDBRANCH   1   2
BRANCH   1  37
ATOM     37  O   UNL     1      95.773  98.351  74.077  1.00  0.00    -0.461 OA
BRANCH  37  38
ATOM     38  C   UNL     1      95.815  96.985  74.233  1.00  0.00     0.310 C 
ATOM     39  O   UNL     1      95.802  96.173  73.317  1.00  0.00    -0.252 OA
BRANCH  38  40
ATOM     40  C   UNL     1      95.881  96.646  75.703  1.00  0.00     0.158 C 
BRANCH  40  41
ATOM     41  C   UNL     1      94.648  95.933  76.198  1.00  0.00    -0.033 A 
ATOM     42  C   UNL     1      94.749  95.004  77.234  1.00  0.00     0.054 A 
ATOM     43  C   UNL     1      93.408  96.202  75.620  1.00  0.00     0.008 A 
ATOM     44  C   UNL     1      93.608  94.344  77.692  1.00  0.00     0.160 A 
ATOM     45  C   UNL     1      92.267  95.542  76.078  1.00  0.00     0.050 A 
ATOM     46  C   UNL     1      92.367  94.614  77.113  1.00  0.00     0.157 A 
BRANCH  44  47
ATOM     47  O   UNL     1      93.719  93.439  78.704  1.00  0.00    -0.493 OA
ATOM     48  C   UNL     1      95.007  93.284  79.296  1.00  0.00     0.278 C 
ENDBRANCH  44  47
BRANCH  46  49
ATOM     49  O   UNL     1      91.246  93.976  77.553  1.00  0.00    -0.504 OA
ATOM     50  H   UNL     1      90.554  94.636  77.726  1.00  0.00     0.293 HD
ENDBRANCH  46  49
ENDBRANCH  40  41
ENDBRANCH  38  40
ENDBRANCH  37  38
ENDBRANCH   1  37
TORSDOF 11
ENDMDL
MODEL 8
REMARK VINA RESULT:    -5.879     30.831     34.837
REMARK INTER + INTRA:         -11.035
REMARK INTER:                  -9.403
REMARK INTRA:                  -1.632
REMARK UNBOUND:                -0.688
REMARK SMILES C=C(C)[C@]12C[C@@H](C)[C@@]34O[C@](Cc5ccccc5)(O[C@@H]1[C@@H]3C=C(COC(=O)Cc1ccc(O)c(OC)c1)C[C@]1(O)C(=O)C(C)=C[C@@H]41)O2
REMARK SMILES IDX 23 1 22 2 21 3 20 4 9 5 8 6 10 7 6 8 18 9 46 10 19 11 5 12
REMARK SMILES IDX 7 13 4 14 45 15 38 16 44 17 40 18 42 20 41 21 43 22 39 23
REMARK SMILES IDX 11 25 12 26 13 27 17 28 14 29 16 30 15 31 2 32 3 33 1 34
REMARK SMILES IDX 37 35 24 37 25 38 26 39 27 40 28 41 36 42 29 43 33 44 30 45
REMARK SMILES IDX 31 46 34 47 35 48 32 49
REMARK H PARENT 39 24 32 50
REMARK Flexibility Score: 90.00
ROOT
ATOM      1  C   UNL     1      59.103  88.756  75.441  1.00  0.00     0.264 C 
ENDROOT
BRANCH   1   2
ATOM      2  C   UNL     1      60.452  88.088  75.312  1.00  0.00    -0.033 C 
ATOM      3  C   UNL     1      60.559  86.952  74.594  1.00  0.00    -0.015 C 
BRANCH   3   4
ATOM      4  C   UNL     1      61.768  86.057  74.378  1.00  0.00     0.078 C 
ATOM      5  O   UNL     1      62.881  86.837  72.311  1.00  0.00    -0.319 OA
ATOM      6  C   UNL     1      63.066  86.691  73.753  1.00  0.00     0.095 C 
ATOM      7  C   UNL     1      62.258  85.717  71.653  1.00  0.00     0.289 C 
ATOM      8  C   UNL     1      64.267  85.694  74.028  1.00  0.00     0.023 C 
ATOM      9  O   UNL     1      60.981  85.431  72.218  1.00  0.00    -0.320 OA
ATOM     10  O   UNL     1      63.016  84.518  71.790  1.00  0.00    -0.313 OA
ATOM     11  C   UNL     1      61.382  84.861  73.473  1.00  0.00     0.170 C 
ATOM     12  C   UNL     1      63.791  84.209  74.018  1.00  0.00     0.049 C 
ATOM     13  C   UNL     1      65.480  85.849  73.097  1.00  0.00     0.011 C 
ATOM     14  C   UNL     1      62.607  84.001  73.072  1.00  0.00     0.122 C 
BRANCH   6  15
ATOM     15  C   UNL     1      63.273  88.145  74.267  1.00  0.00     0.086 C 
ATOM     16  C   UNL     1      63.009  88.379  75.769  1.00  0.00     0.140 CG0
ATOM     17  C   UNL     1      64.591  88.829  74.033  1.00  0.00    -0.010 C 
ATOM     18  C   UNL     1      64.030  89.441  76.118  1.00  0.00     0.190 C 
ATOM     19  G   UNL     1      61.576  88.833  76.039  1.00  0.00     0.000 G0
ATOM     20  C   UNL     1      65.030  89.587  75.043  1.00  0.00    -0.008 C 
ATOM     21  O   UNL     1      64.069  90.069  77.165  1.00  0.00    -0.291 OA
ATOM     22  C   UNL     1      66.222  90.455  75.133  1.00  0.00     0.048 C 
BRANCH  16  23
ATOM     23  O   UNL     1      63.368  87.282  76.592  1.00  0.00    -0.381 OA
ATOM     24  H   UNL     1      62.562  86.788  76.815  1.00  0.00     0.212 HD
ENDBRANCH  16  23
ENDBRANCH   6  15
BRANCH   7  25
ATOM     25  C   UNL     1      62.104  86.055  70.184  1.00  0.00     0.135 C 
BRANCH  25  26
ATOM     26  C   UNL     1      62.187  84.827  69.310  1.00  0.00    -0.040 A 
ATOM     27  C   UNL     1      61.325  83.754  69.533  1.00  0.00     0.004 A 
ATOM     28  C   UNL     1      63.125  84.766  68.280  1.00  0.00     0.004 A 
ATOM     29  C   UNL     1      61.401  82.618  68.725  1.00  0.00     0.000 A 
ATOM     30  C   UNL     1      63.202  83.631  67.473  1.00  0.00     0.000 A 
ATOM     31  C   UNL     1      62.340  82.557  67.696  1.00  0.00     0.000 A 
ENDBRANCH  25  26
ENDBRANCH   7  25
BRANCH  14  32
ATOM     32  C   UNL     1      62.251  82.560  72.906  1.00  0.00    -0.046 C 
ATOM     33  C   UNL     1      63.261  81.705  72.200  1.00  0.00     0.042 C 
ATOM     34  C   UNL     1      61.094  82.058  73.363  1.00  0.00     0.010 C 
ENDBRANCH  14  32
ENDBRANCH   3   4
BRANCH   2  35
ATOM     35  C   UNL     1      61.556  88.831  76.040  1.00  0.00     0.078 CG0
ATOM     36  G   UNL     1      62.994  88.394  75.761  1.00  0.00     0.000 G0
ENDBRANCH   2  35
ENDBRANCH   1   2
BRANCH   1  37
ATOM     37  O   UNL     1      58.276  87.981  76.282  1.00  0.00    -0.461 OA
BRANCH  37  38
ATOM     38  C   UNL     1      56.930  88.258  76.234  1.00  0.00     0.310 C 
ATOM     39  O   UNL     1      56.369  89.133  76.880  1.00  0.00    -0.252 OA
BRANCH  38  40
ATOM     40  C   UNL     1      56.255  87.316  75.265  1.00  0.00     0.158 C 
BRANCH  40  41
ATOM     41  C   UNL     1      56.571  87.629  73.825  1.00  0.00    -0.033 A 
ATOM     42  C   UNL     1      57.148  86.655  73.010  1.00  0.00     0.054 A 
ATOM     43  C   UNL     1      56.286  88.892  73.307  1.00  0.00     0.008 A 
ATOM     44  C   UNL     1      57.440  86.944  71.677  1.00  0.00     0.160 A 
ATOM     45  C   UNL     1      56.578  89.182  71.974  1.00  0.00     0.050 A 
ATOM     46  C   UNL     1      57.155  88.209  71.159  1.00  0.00     0.157 A 
BRANCH  44  47
ATOM     47  O   UNL     1      58.004  85.985  70.891  1.00  0.00    -0.493 OA
ATOM     48  C   UNL     1      57.404  84.691  70.916  1.00  0.00     0.278 C 
ENDBRANCH  44  47
BRANCH  46  49
ATOM     49  O   UNL     1      57.435  88.502  69.859  1.00  0.00    -0.504 OA
ATOM     50  H   UNL     1      56.872  89.241  69.573  1.00  0.00     0.293 HD
ENDBRANCH  46  49
ENDBRANCH  40  41
ENDBRANCH  38  40
ENDBRANCH  37  38
ENDBRANCH   1  37
TORSDOF 11
ENDMDL
MODEL 9
REMARK VINA RESULT:    -5.764      7.368     12.133
REMARK INTER + INTRA:         -10.833
REMARK INTER:                  -9.139
REMARK INTRA:                  -1.694
REMARK UNBOUND:                -0.688
REMARK SMILES C=C(C)[C@]12C[C@@H](C)[C@@]34O[C@](Cc5ccccc5)(O[C@@H]1[C@@H]3C=C(COC(=O)Cc1ccc(O)c(OC)c1)C[C@]1(O)C(=O)C(C)=C[C@@H]41)O2
REMARK SMILES IDX 23 1 22 2 21 3 20 4 9 5 8 6 10 7 6 8 18 9 46 10 19 11 5 12
REMARK SMILES IDX 7 13 4 14 45 15 38 16 44 17 40 18 42 20 41 21 43 22 39 23
REMARK SMILES IDX 11 25 12 26 13 27 17 28 14 29 16 30 15 31 2 32 3 33 1 34
REMARK SMILES IDX 37 35 24 37 25 38 26 39 27 40 28 41 36 42 29 43 33 44 30 45
REMARK SMILES IDX 31 46 34 47 35 48 32 49
REMARK H PARENT 39 24 32 50
REMARK Flexibility Score: 90.00
ROOT
ATOM      1  C   UNL     1      95.426 101.682  81.832  1.00  0.00     0.264 C 
ENDROOT
BRANCH   1   2
ATOM      2  C   UNL     1      96.503 100.814  81.225  1.00  0.00    -0.033 C 
ATOM      3  C   UNL     1      96.957  99.748  81.914  1.00  0.00    -0.015 C 
BRANCH   3   4
ATOM      4  C   UNL     1      98.072  98.777  81.565  1.00  0.00     0.078 C 
ATOM      5  O   UNL     1      97.032  96.899  80.334  1.00  0.00    -0.319 OA
ATOM      6  C   UNL     1      97.986  97.998  80.199  1.00  0.00     0.095 C 
ATOM      7  C   UNL     1      97.119  96.155  81.564  1.00  0.00     0.289 C 
ATOM      8  C   UNL     1      99.424  97.408  79.891  1.00  0.00     0.023 C 
ATOM      9  O   UNL     1      96.950  97.005  82.696  1.00  0.00    -0.320 OA
ATOM     10  O   UNL     1      98.392  95.537  81.734  1.00  0.00    -0.313 OA
ATOM     11  C   UNL     1      98.204  97.705  82.675  1.00  0.00     0.170 C 
ATOM     12  C   UNL     1     100.175  97.021  81.202  1.00  0.00     0.049 C 
ATOM     13  C   UNL     1      99.456  96.222  78.914  1.00  0.00     0.011 C 
ATOM     14  C   UNL     1      99.206  96.584  82.302  1.00  0.00     0.122 C 
BRANCH   6  15
ATOM     15  C   UNL     1      97.382  98.902  79.086  1.00  0.00     0.086 C 
ATOM     16  C   UNL     1      97.872 100.365  79.057  1.00  0.00     0.140 CG0
ATOM     17  C   UNL     1      97.486  98.471  77.650  1.00  0.00    -0.010 C 
ATOM     18  C   UNL     1      97.870 100.681  77.576  1.00  0.00     0.190 C 
ATOM     19  G   UNL     1      96.959 101.295  79.855  1.00  0.00     0.000 G0
ATOM     20  C   UNL     1      97.732  99.451  76.774  1.00  0.00    -0.008 C 
ATOM     21  O   UNL     1      98.014 101.792  77.089  1.00  0.00    -0.291 OA
ATOM     22  C   UNL     1      97.815  99.411  75.299  1.00  0.00     0.048 C 
BRANCH  16  23
ATOM     23  O   UNL     1      99.229 100.523  79.435  1.00  0.00    -0.381 OA
ATOM     24  H   UNL     1      99.788 100.138  78.740  1.00  0.00     0.212 HD
ENDBRANCH  16  23
ENDBRANCH   6  15
BRANCH   7  25
ATOM     25  C   UNL     1      96.038  95.093  81.555  1.00  0.00     0.135 C 
BRANCH  25  26
ATOM     26  C   UNL     1      95.771  94.570  80.166  1.00  0.00    -0.040 A 
ATOM     27  C   UNL     1      94.825  95.198  79.355  1.00  0.00     0.004 A 
ATOM     28  C   UNL     1      96.471  93.462  79.691  1.00  0.00     0.004 A 
ATOM     29  C   UNL     1      94.578  94.714  78.069  1.00  0.00     0.000 A 
ATOM     30  C   UNL     1      96.224  92.978  78.406  1.00  0.00     0.000 A 
ATOM     31  C   UNL     1      95.277  93.605  77.595  1.00  0.00     0.000 A 
ENDBRANCH  25  26
ENDBRANCH   7  25
BRANCH  14  32
ATOM     32  C   UNL     1      99.908  96.036  83.501  1.00  0.00    -0.046 C 
ATOM     33  C   UNL     1     100.735  97.010  84.287  1.00  0.00     0.042 C 
ATOM     34  C   UNL     1      99.804  94.747  83.856  1.00  0.00     0.010 C 
ENDBRANCH  14  32
ENDBRANCH   3   4
BRANCH   2  35
ATOM     35  C   UNL     1      96.940 101.282  79.850  1.00  0.00     0.078 CG0
ATOM     36  G   UNL     1      97.860 100.356  79.056  1.00  0.00     0.000 G0
ENDBRANCH   2  35
ENDBRANCH   1   2
BRANCH   1  37
ATOM     37  O   UNL     1      95.029 101.136  83.071  1.00  0.00    -0.461 OA
BRANCH  37  38
ATOM     38  C   UNL     1      95.201 101.941  84.174  1.00  0.00     0.310 C 
ATOM     39  O   UNL     1      95.854 102.975  84.193  1.00  0.00    -0.252 OA
BRANCH  38  40
ATOM     40  C   UNL     1      94.463 101.348  85.351  1.00  0.00     0.158 C 
BRANCH  40  41
ATOM     41  C   UNL     1      95.266 100.304  86.084  1.00  0.00    -0.033 A 
ATOM     42  C   UNL     1      96.619 100.131  85.788  1.00  0.00     0.054 A 
ATOM     43  C   UNL     1      94.658  99.512  87.057  1.00  0.00     0.008 A 
ATOM     44  C   UNL     1      97.362  99.165  86.467  1.00  0.00     0.160 A 
ATOM     45  C   UNL     1      95.401  98.546  87.735  1.00  0.00     0.050 A 
ATOM     46  C   UNL     1      96.753  98.372  87.440  1.00  0.00     0.157 A 
BRANCH  44  47
ATOM     47  O   UNL     1      98.682  99.005  86.170  1.00  0.00    -0.493 OA
ATOM     48  C   UNL     1      99.447 100.190  85.958  1.00  0.00     0.278 C 
ENDBRANCH  44  47
BRANCH  46  49
ATOM     49  O   UNL     1      97.469  97.427  88.110  1.00  0.00    -0.504 OA
ATOM     50  H   UNL     1      97.943  96.874  87.466  1.00  0.00     0.293 HD
ENDBRANCH  46  49
ENDBRANCH  40  41
ENDBRANCH  38  40
ENDBRANCH  37  38
ENDBRANCH   1  37
TORSDOF 11
ENDMDL
MODEL 10
REMARK VINA RESULT:    -5.750     31.146     35.352
REMARK INTER + INTRA:         -10.808
REMARK INTER:                  -9.850
REMARK INTRA:                  -0.958
REMARK UNBOUND:                -0.688
REMARK SMILES C=C(C)[C@]12C[C@@H](C)[C@@]34O[C@](Cc5ccccc5)(O[C@@H]1[C@@H]3C=C(COC(=O)Cc1ccc(O)c(OC)c1)C[C@]1(O)C(=O)C(C)=C[C@@H]41)O2
REMARK SMILES IDX 23 1 22 2 21 3 20 4 9 5 8 6 10 7 6 8 18 9 46 10 19 11 5 12
REMARK SMILES IDX 7 13 4 14 45 15 38 16 44 17 40 18 42 20 41 21 43 22 39 23
REMARK SMILES IDX 11 25 12 26 13 27 17 28 14 29 16 30 15 31 2 32 3 33 1 34
REMARK SMILES IDX 37 35 24 37 25 38 26 39 27 40 28 41 36 42 29 43 33 44 30 45
REMARK SMILES IDX 31 46 34 47 35 48 32 49
REMARK H PARENT 39 24 32 50
REMARK Flexibility Score: 90.00
ROOT
ATOM      1  C   UNL     1      59.757  88.858  70.607  1.00  0.00     0.264 C 
ENDROOT
BRANCH   1   2
ATOM      2  C   UNL     1      60.042  87.658  71.480  1.00  0.00    -0.033 C 
ATOM      3  C   UNL     1      61.137  86.911  71.237  1.00  0.00    -0.015 C 
BRANCH   3   4
ATOM      4  C   UNL     1      61.600  85.629  71.911  1.00  0.00     0.078 C 
ATOM      5  O   UNL     1      63.122  86.288  73.746  1.00  0.00    -0.319 OA
ATOM      6  C   UNL     1      61.840  85.646  73.466  1.00  0.00     0.095 C 
ATOM      7  C   UNL     1      64.203  85.914  72.870  1.00  0.00     0.289 C 
ATOM      8  C   UNL     1      61.890  84.141  73.960  1.00  0.00     0.023 C 
ATOM      9  O   UNL     1      63.881  86.183  71.508  1.00  0.00    -0.320 OA
ATOM     10  O   UNL     1      64.490  84.519  72.930  1.00  0.00    -0.313 OA
ATOM     11  C   UNL     1      62.921  85.143  71.266  1.00  0.00     0.170 C 
ATOM     12  C   UNL     1      62.508  83.204  72.876  1.00  0.00     0.049 C 
ATOM     13  C   UNL     1      62.604  83.910  75.302  1.00  0.00     0.011 C 
ATOM     14  C   UNL     1      63.538  83.936  72.016  1.00  0.00     0.122 C 
BRANCH   6  15
ATOM     15  C   UNL     1      60.790  86.548  74.177  1.00  0.00     0.086 C 
ATOM     16  C   UNL     1      59.334  86.414  73.685  1.00  0.00     0.140 CG0
ATOM     17  C   UNL     1      60.660  86.488  75.674  1.00  0.00    -0.010 C 
ATOM     18  C   UNL     1      58.539  86.633  74.955  1.00  0.00     0.190 C 
ATOM     19  G   UNL     1      58.996  87.435  72.600  1.00  0.00     0.000 G0
ATOM     20  C   UNL     1      59.410  86.561  76.143  1.00  0.00    -0.008 C 
ATOM     21  O   UNL     1      57.330  86.798  75.014  1.00  0.00    -0.291 OA
ATOM     22  C   UNL     1      58.919  86.616  77.535  1.00  0.00     0.048 C 
BRANCH  16  23
ATOM     23  O   UNL     1      58.981  85.099  73.288  1.00  0.00    -0.381 OA
ATOM     24  H   UNL     1      58.175  84.841  73.763  1.00  0.00     0.212 HD
ENDBRANCH  16  23
ENDBRANCH   6  15
BRANCH   7  25
ATOM     25  C   UNL     1      65.434  86.702  73.271  1.00  0.00     0.135 C 
BRANCH  25  26
ATOM     26  C   UNL     1      66.567  86.517  72.292  1.00  0.00    -0.040 A 
ATOM     27  C   UNL     1      67.395  85.399  72.388  1.00  0.00     0.004 A 
ATOM     28  C   UNL     1      66.785  87.462  71.290  1.00  0.00     0.004 A 
ATOM     29  C   UNL     1      68.443  85.227  71.483  1.00  0.00     0.000 A 
ATOM     30  C   UNL     1      67.832  87.290  70.385  1.00  0.00     0.000 A 
ATOM     31  C   UNL     1      68.661  86.173  70.482  1.00  0.00     0.000 A 
ENDBRANCH  25  26
ENDBRANCH   7  25
BRANCH  14  32
ATOM     32  C   UNL     1      64.273  83.019  71.094  1.00  0.00    -0.046 C 
ATOM     33  C   UNL     1      65.186  83.671  70.099  1.00  0.00     0.042 C 
ATOM     34  C   UNL     1      64.126  81.687  71.153  1.00  0.00     0.010 C 
ENDBRANCH  14  32
ENDBRANCH   3   4
BRANCH   2  35
ATOM     35  C   UNL     1      59.005  87.456  72.569  1.00  0.00     0.078 CG0
ATOM     36  G   UNL     1      59.331  86.442  73.664  1.00  0.00     0.000 G0
ENDBRANCH   2  35
ENDBRANCH   1   2
BRANCH   1  37
ATOM     37  O   UNL     1      58.822  88.500  69.612  1.00  0.00    -0.461 OA
BRANCH  37  38
ATOM     38  C   UNL     1      57.843  89.426  69.337  1.00  0.00     0.310 C 
ATOM     39  O   UNL     1      58.006  90.451  68.689  1.00  0.00    -0.252 OA
BRANCH  38  40
ATOM     40  C   UNL     1      56.539  88.983  69.959  1.00  0.00     0.158 C 
BRANCH  40  41
ATOM     41  C   UNL     1      56.170  89.781  71.183  1.00  0.00    -0.033 A 
ATOM     42  C   UNL     1      55.482  90.987  71.048  1.00  0.00     0.054 A 
ATOM     43  C   UNL     1      56.516  89.313  72.451  1.00  0.00     0.008 A 
ATOM     44  C   UNL     1      55.140  91.725  72.181  1.00  0.00     0.160 A 
ATOM     45  C   UNL     1      56.174  90.052  73.584  1.00  0.00     0.050 A 
ATOM     46  C   UNL     1      55.487  91.258  73.449  1.00  0.00     0.157 A 
BRANCH  44  47
ATOM     47  O   UNL     1      54.468  92.901  72.036  1.00  0.00    -0.493 OA
ATOM     48  C   UNL     1      53.813  93.124  70.788  1.00  0.00     0.278 C 
ENDBRANCH  44  47
BRANCH  46  49
ATOM     49  O   UNL     1      55.157  91.970  74.562  1.00  0.00    -0.504 OA
ATOM     50  H   UNL     1      55.000  92.896  74.311  1.00  0.00     0.293 HD
ENDBRANCH  46  49
ENDBRANCH  40  41
ENDBRANCH  38  40
ENDBRANCH  37  38
ENDBRANCH   1  37
TORSDOF 11
ENDMDL
