MODEL 1
REMARK VINA RESULT:    -6.687      0.000      0.000
REMARK INTER + INTRA:         -13.506
REMARK INTER:                 -11.769
REMARK INTRA:                  -1.737
REMARK UNBOUND:                -1.737
REMARK SMILES C=C(C)[C@]12C[C@@H](C)[C@@]34O[C@](Cc5ccccc5)(O[C@@H]1[C@@H]3C=C(COC(=O)Cc1ccc(O)c(OC)c1)C[C@]1(O)C(=O)C(C)=C[C@@H]41)O2
REMARK SMILES IDX 23 1 22 2 21 3 20 4 9 5 8 6 10 7 6 8 18 9 46 10 19 11 5 12
REMARK SMILES IDX 7 13 4 14 45 15 38 16 44 17 40 18 42 20 41 21 43 22 39 23
REMARK SMILES IDX 11 25 12 26 13 27 17 28 14 29 16 30 15 31 2 32 3 33 1 34
REMARK SMILES IDX 37 35 24 37 25 38 26 39 27 40 28 41 36 42 29 43 33 44 30 45
REMARK SMILES IDX 31 46 34 47 35 48 32 49
REMARK H PARENT 39 24 32 50
REMARK Flexibility Score: 90.00
ROOT
ATOM      1  C   UNL     1      92.232  85.984  90.712  1.00  0.00     0.264 C 
ENDROOT
BRANCH   1   2
ATOM      2  C   UNL     1      92.626  84.993  89.641  1.00  0.00    -0.033 C 
ATOM      3  C   UNL     1      93.888  85.003  89.166  1.00  0.00    -0.015 C 
BRANCH   3   4
ATOM      4  C   UNL     1      94.505  84.174  88.052  1.00  0.00     0.078 C 
ATOM      5  O   UNL     1      95.494  82.168  89.109  1.00  0.00    -0.319 OA
ATOM      6  C   UNL     1      94.461  82.605  88.172  1.00  0.00     0.095 C 
ATOM      7  C   UNL     1      96.767  82.828  88.974  1.00  0.00     0.289 C 
ATOM      8  C   UNL     1      94.766  82.005  86.738  1.00  0.00     0.023 C 
ATOM      9  O   UNL     1      96.635  84.240  89.117  1.00  0.00    -0.320 OA
ATOM     10  O   UNL     1      97.349  82.623  87.689  1.00  0.00    -0.313 OA
ATOM     11  C   UNL     1      95.994  84.560  87.872  1.00  0.00     0.170 C 
ATOM     12  C   UNL     1      95.760  82.905  85.941  1.00  0.00     0.049 C 
ATOM     13  C   UNL     1      95.269  80.552  86.724  1.00  0.00     0.011 C 
ATOM     14  C   UNL     1      96.730  83.636  86.870  1.00  0.00     0.122 C 
BRANCH   6  15
ATOM     15  C   UNL     1      93.125  82.139  88.822  1.00  0.00     0.086 C 
ATOM     16  C   UNL     1      91.846  82.846  88.328  1.00  0.00     0.140 CG0
ATOM     17  C   UNL     1      92.757  80.683  88.784  1.00  0.00    -0.010 C 
ATOM     18  C   UNL     1      90.815  81.739  88.395  1.00  0.00     0.190 C 
ATOM     19  G   UNL     1      91.476  84.044  89.201  1.00  0.00     0.000 G0
ATOM     20  C   UNL     1      91.462  80.425  88.573  1.00  0.00    -0.008 C 
ATOM     21  O   UNL     1      89.609  81.886  88.268  1.00  0.00    -0.291 OA
ATOM     22  C   UNL     1      90.738  79.138  88.556  1.00  0.00     0.048 C 
BRANCH  16  23
ATOM     23  O   UNL     1      91.878  83.197  86.955  1.00  0.00    -0.381 OA
ATOM     24  H   UNL     1      91.998  82.386  86.433  1.00  0.00     0.212 HD
ENDBRANCH  16  23
ENDBRANCH   6  15
BRANCH   7  25
ATOM     25  C   UNL     1      97.697  82.289  90.043  1.00  0.00     0.135 C 
BRANCH  25  26
ATOM     26  C   UNL     1      99.076  82.008  89.502  1.00  0.00    -0.040 A 
ATOM     27  C   UNL     1      99.336  80.802  88.849  1.00  0.00     0.004 A 
ATOM     28  C   UNL     1     100.091  82.952  89.652  1.00  0.00     0.004 A 
ATOM     29  C   UNL     1     100.612  80.541  88.348  1.00  0.00     0.000 A 
ATOM     30  C   UNL     1     101.367  82.691  89.152  1.00  0.00     0.000 A 
ATOM     31  C   UNL     1     101.627  81.485  88.500  1.00  0.00     0.000 A 
ENDBRANCH  25  26
ENDBRANCH   7  25
BRANCH  14  32
ATOM     32  C   UNL     1      97.804  84.359  86.124  1.00  0.00    -0.046 C 
ATOM     33  C   UNL     1      97.365  85.540  85.310  1.00  0.00     0.042 C 
ATOM     34  C   UNL     1      99.088  83.975  86.179  1.00  0.00     0.010 C 
ENDBRANCH  14  32
ENDBRANCH   3   4
BRANCH   2  35
ATOM     35  C   UNL     1      91.490  84.073  89.235  1.00  0.00     0.078 CG0
ATOM     36  G   UNL     1      91.841  82.879  88.349  1.00  0.00     0.000 G0
ENDBRANCH   2  35
ENDBRANCH   1   2
BRANCH   1  37
ATOM     37  O   UNL     1      93.345  86.245  91.539  1.00  0.00    -0.461 OA
BRANCH  37  38
ATOM     38  C   UNL     1      93.301  87.409  92.269  1.00  0.00     0.310 C 
ATOM     39  O   UNL     1      93.210  87.472  93.488  1.00  0.00    -0.252 OA
BRANCH  38  40
ATOM     40  C   UNL     1      93.381  88.594  91.335  1.00  0.00     0.158 C 
BRANCH  40  41
ATOM     41  C   UNL     1      94.797  88.967  90.979  1.00  0.00    -0.033 A 
ATOM     42  C   UNL     1      95.758  89.095  91.983  1.00  0.00     0.054 A 
ATOM     43  C   UNL     1      95.147  89.185  89.647  1.00  0.00     0.008 A 
ATOM     44  C   UNL     1      97.068  89.441  91.654  1.00  0.00     0.160 A 
ATOM     45  C   UNL     1      96.458  89.531  89.318  1.00  0.00     0.050 A 
ATOM     46  C   UNL     1      97.418  89.659  90.321  1.00  0.00     0.157 A 
BRANCH  44  47
ATOM     47  O   UNL     1      97.997  89.563  92.643  1.00  0.00    -0.493 OA
ATOM     48  C   UNL     1      97.955  88.600  93.694  1.00  0.00     0.278 C 
ENDBRANCH  44  47
BRANCH  46  49
ATOM     49  O   UNL     1      98.695  89.996  89.987  1.00  0.00    -0.504 OA
ATOM     50  H   UNL     1      99.172  89.195  89.713  1.00  0.00     0.293 HD
ENDBRANCH  46  49
ENDBRANCH  40  41
ENDBRANCH  38  40
ENDBRANCH  37  38
ENDBRANCH   1  37
TORSDOF 11
ENDMDL
MODEL 2
REMARK VINA RESULT:    -6.532     33.034     36.511
REMARK INTER + INTRA:         -13.233
REMARK INTER:                 -10.981
REMARK INTRA:                  -2.252
REMARK UNBOUND:                -1.737
REMARK SMILES C=C(C)[C@]12C[C@@H](C)[C@@]34O[C@](Cc5ccccc5)(O[C@@H]1[C@@H]3C=C(COC(=O)Cc1ccc(O)c(OC)c1)C[C@]1(O)C(=O)C(C)=C[C@@H]41)O2
REMARK SMILES IDX 23 1 22 2 21 3 20 4 9 5 8 6 10 7 6 8 18 9 46 10 19 11 5 12
REMARK SMILES IDX 7 13 4 14 45 15 38 16 44 17 40 18 42 20 41 21 43 22 39 23
REMARK SMILES IDX 11 25 12 26 13 27 17 28 14 29 16 30 15 31 2 32 3 33 1 34
REMARK SMILES IDX 37 35 24 37 25 38 26 39 27 40 28 41 36 42 29 43 33 44 30 45
REMARK SMILES IDX 31 46 34 47 35 48 32 49
REMARK H PARENT 39 24 32 50
REMARK Flexibility Score: 90.00
ROOT
ATOM      1  C   UNL     1      65.168  88.031  70.927  1.00  0.00     0.264 C 
ENDROOT
BRANCH   1   2
ATOM      2  C   UNL     1      65.012  86.586  71.339  1.00  0.00    -0.033 C 
ATOM      3  C   UNL     1      64.586  86.298  72.585  1.00  0.00    -0.015 C 
BRANCH   3   4
ATOM      4  C   UNL     1      64.422  84.947  73.261  1.00  0.00     0.078 C 
ATOM      5  O   UNL     1      62.092  84.218  72.861  1.00  0.00    -0.319 OA
ATOM      6  C   UNL     1      63.485  83.879  72.582  1.00  0.00     0.095 C 
ATOM      7  C   UNL     1      61.818  84.639  74.211  1.00  0.00     0.289 C 
ATOM      8  C   UNL     1      63.819  82.470  73.226  1.00  0.00     0.023 C 
ATOM      9  O   UNL     1      62.610  85.767  74.572  1.00  0.00    -0.320 OA
ATOM     10  O   UNL     1      62.130  83.628  75.166  1.00  0.00    -0.313 OA
ATOM     11  C   UNL     1      63.895  85.141  74.704  1.00  0.00     0.170 C 
ATOM     12  C   UNL     1      64.234  82.609  74.723  1.00  0.00     0.049 C 
ATOM     13  C   UNL     1      62.715  81.407  73.098  1.00  0.00     0.011 C 
ATOM     14  C   UNL     1      63.544  83.798  75.393  1.00  0.00     0.122 C 
BRANCH   6  15
ATOM     15  C   UNL     1      63.600  83.950  71.032  1.00  0.00     0.086 C 
ATOM     16  C   UNL     1      65.024  84.118  70.463  1.00  0.00     0.140 CG0
ATOM     17  C   UNL     1      63.019  82.842  70.199  1.00  0.00    -0.010 C 
ATOM     18  C   UNL     1      64.955  83.327  69.173  1.00  0.00     0.190 C 
ATOM     19  G   UNL     1      65.384  85.585  70.232  1.00  0.00     0.000 G0
ATOM     20  C   UNL     1      63.743  82.488  69.132  1.00  0.00    -0.008 C 
ATOM     21  O   UNL     1      65.804  83.330  68.294  1.00  0.00    -0.291 OA
ATOM     22  C   UNL     1      63.447  81.513  68.062  1.00  0.00     0.048 C 
BRANCH  16  23
ATOM     23  O   UNL     1      66.025  83.452  71.215  1.00  0.00    -0.381 OA
ATOM     24  H   UNL     1      65.930  83.707  72.147  1.00  0.00     0.212 HD
ENDBRANCH  16  23
ENDBRANCH   6  15
BRANCH   7  25
ATOM     25  C   UNL     1      60.348  84.992  74.310  1.00  0.00     0.135 C 
BRANCH  25  26
ATOM     26  C   UNL     1      59.826  85.602  73.033  1.00  0.00    -0.040 A 
ATOM     27  C   UNL     1      59.994  86.966  72.792  1.00  0.00     0.004 A 
ATOM     28  C   UNL     1      59.177  84.802  72.092  1.00  0.00     0.004 A 
ATOM     29  C   UNL     1      59.511  87.530  71.610  1.00  0.00     0.000 A 
ATOM     30  C   UNL     1      58.694  85.366  70.911  1.00  0.00     0.000 A 
ATOM     31  C   UNL     1      58.862  86.730  70.671  1.00  0.00     0.000 A 
ENDBRANCH  25  26
ENDBRANCH   7  25
BRANCH  14  32
ATOM     32  C   UNL     1      63.782  83.844  76.867  1.00  0.00    -0.046 C 
ATOM     33  C   UNL     1      62.597  84.192  77.719  1.00  0.00     0.042 C 
ATOM     34  C   UNL     1      64.986  83.589  77.400  1.00  0.00     0.010 C 
ENDBRANCH  14  32
ENDBRANCH   3   4
BRANCH   2  35
ATOM     35  C   UNL     1      65.369  85.610  70.234  1.00  0.00     0.078 CG0
ATOM     36  G   UNL     1      65.024  84.139  70.462  1.00  0.00     0.000 G0
ENDBRANCH   2  35
ENDBRANCH   1   2
BRANCH   1  37
ATOM     37  O   UNL     1      63.895  88.584  70.674  1.00  0.00    -0.461 OA
BRANCH  37  38
ATOM     38  C   UNL     1      63.526  89.648  71.464  1.00  0.00     0.310 C 
ATOM     39  O   UNL     1      64.041  90.757  71.434  1.00  0.00    -0.252 OA
BRANCH  38  40
ATOM     40  C   UNL     1      62.391  89.234  72.371  1.00  0.00     0.158 C 
BRANCH  40  41
ATOM     41  C   UNL     1      62.624  89.608  73.812  1.00  0.00    -0.033 A 
ATOM     42  C   UNL     1      63.812  89.240  74.445  1.00  0.00     0.054 A 
ATOM     43  C   UNL     1      61.652  90.322  74.513  1.00  0.00     0.008 A 
ATOM     44  C   UNL     1      64.027  89.586  75.780  1.00  0.00     0.160 A 
ATOM     45  C   UNL     1      61.867  90.668  75.847  1.00  0.00     0.050 A 
ATOM     46  C   UNL     1      63.054  90.300  76.481  1.00  0.00     0.157 A 
BRANCH  44  47
ATOM     47  O   UNL     1      65.190  89.222  76.387  1.00  0.00    -0.493 OA
ATOM     48  C   UNL     1      65.349  87.840  76.708  1.00  0.00     0.278 C 
ENDBRANCH  44  47
BRANCH  46  49
ATOM     49  O   UNL     1      63.254  90.645  77.783  1.00  0.00    -0.504 OA
ATOM     50  H   UNL     1      63.995  91.272  77.835  1.00  0.00     0.293 HD
ENDBRANCH  46  49
ENDBRANCH  40  41
ENDBRANCH  38  40
ENDBRANCH  37  38
ENDBRANCH   1  37
TORSDOF 11
ENDMDL
MODEL 3
REMARK VINA RESULT:    -6.442     28.527     32.370
REMARK INTER + INTRA:         -13.075
REMARK INTER:                 -12.017
REMARK INTRA:                  -1.058
REMARK UNBOUND:                -1.737
REMARK SMILES C=C(C)[C@]12C[C@@H](C)[C@@]34O[C@](Cc5ccccc5)(O[C@@H]1[C@@H]3C=C(COC(=O)Cc1ccc(O)c(OC)c1)C[C@]1(O)C(=O)C(C)=C[C@@H]41)O2
REMARK SMILES IDX 23 1 22 2 21 3 20 4 9 5 8 6 10 7 6 8 18 9 46 10 19 11 5 12
REMARK SMILES IDX 7 13 4 14 45 15 38 16 44 17 40 18 42 20 41 21 43 22 39 23
REMARK SMILES IDX 11 25 12 26 13 27 17 28 14 29 16 30 15 31 2 32 3 33 1 34
REMARK SMILES IDX 37 35 24 37 25 38 26 39 27 40 28 41 36 42 29 43 33 44 30 45
REMARK SMILES IDX 31 46 34 47 35 48 32 49
REMARK H PARENT 39 24 32 50
REMARK Flexibility Score: 90.00
ROOT
ATOM      1  C   UNL     1      69.819  82.800  68.186  1.00  0.00     0.264 C 
ENDROOT
BRANCH   1   2
ATOM      2  C   UNL     1      70.914  83.451  67.375  1.00  0.00    -0.033 C 
ATOM      3  C   UNL     1      71.238  84.737  67.616  1.00  0.00    -0.015 C 
BRANCH   3   4
ATOM      4  C   UNL     1      72.235  85.632  66.898  1.00  0.00     0.078 C 
ATOM      5  O   UNL     1      74.386  85.425  68.102  1.00  0.00    -0.319 OA
ATOM      6  C   UNL     1      73.737  85.167  66.819  1.00  0.00     0.095 C 
ATOM      7  C   UNL     1      74.074  86.693  68.707  1.00  0.00     0.289 C 
ATOM      8  C   UNL     1      74.446  86.026  65.691  1.00  0.00     0.023 C 
ATOM      9  O   UNL     1      72.670  86.840  68.905  1.00  0.00    -0.320 OA
ATOM     10  O   UNL     1      74.464  87.794  67.889  1.00  0.00    -0.313 OA
ATOM     11  C   UNL     1      72.243  87.038  67.548  1.00  0.00     0.170 C 
ATOM     12  C   UNL     1      73.853  87.466  65.613  1.00  0.00     0.049 C 
ATOM     13  C   UNL     1      75.978  86.107  65.789  1.00  0.00     0.011 C 
ATOM     14  C   UNL     1      73.358  87.949  66.977  1.00  0.00     0.122 C 
BRANCH   6  15
ATOM     15  C   UNL     1      73.828  83.624  66.640  1.00  0.00     0.086 C 
ATOM     16  C   UNL     1      72.824  82.993  65.653  1.00  0.00     0.140 CG0
ATOM     17  C   UNL     1      75.140  83.004  66.248  1.00  0.00    -0.010 C 
ATOM     18  C   UNL     1      73.624  81.855  65.056  1.00  0.00     0.190 C 
ATOM     19  G   UNL     1      71.553  82.511  66.352  1.00  0.00     0.000 G0
ATOM     20  C   UNL     1      75.057  81.989  65.381  1.00  0.00    -0.008 C 
ATOM     21  O   UNL     1      73.173  80.964  64.353  1.00  0.00    -0.291 OA
ATOM     22  C   UNL     1      76.114  81.106  64.846  1.00  0.00     0.048 C 
BRANCH  16  23
ATOM     23  O   UNL     1      72.521  83.815  64.538  1.00  0.00    -0.381 OA
ATOM     24  H   UNL     1      73.157  83.620  63.831  1.00  0.00     0.212 HD
ENDBRANCH  16  23
ENDBRANCH   6  15
BRANCH   7  25
ATOM     25  C   UNL     1      74.790  86.774  70.040  1.00  0.00     0.135 C 
BRANCH  25  26
ATOM     26  C   UNL     1      74.714  88.156  70.640  1.00  0.00    -0.040 A 
ATOM     27  C   UNL     1      73.643  88.499  71.466  1.00  0.00     0.004 A 
ATOM     28  C   UNL     1      75.714  89.090  70.371  1.00  0.00     0.004 A 
ATOM     29  C   UNL     1      73.573  89.777  72.021  1.00  0.00     0.000 A 
ATOM     30  C   UNL     1      75.644  90.368  70.926  1.00  0.00     0.000 A 
ATOM     31  C   UNL     1      74.572  90.711  71.751  1.00  0.00     0.000 A 
ENDBRANCH  25  26
ENDBRANCH   7  25
BRANCH  14  32
ATOM     32  C   UNL     1      72.955  89.388  66.965  1.00  0.00    -0.046 C 
ATOM     33  C   UNL     1      72.340  89.893  65.695  1.00  0.00     0.042 C 
ATOM     34  C   UNL     1      73.134  90.183  68.031  1.00  0.00     0.010 C 
ENDBRANCH  14  32
ENDBRANCH   3   4
BRANCH   2  35
ATOM     35  C   UNL     1      71.535  82.515  66.354  1.00  0.00     0.078 CG0
ATOM     36  G   UNL     1      72.819  82.980  65.670  1.00  0.00     0.000 G0
ENDBRANCH   2  35
ENDBRANCH   1   2
BRANCH   1  37
ATOM     37  O   UNL     1      70.054  83.030  69.559  1.00  0.00    -0.461 OA
BRANCH  37  38
ATOM     38  C   UNL     1      69.001  83.544  70.278  1.00  0.00     0.310 C 
ATOM     39  O   UNL     1      69.089  84.050  71.389  1.00  0.00    -0.252 OA
BRANCH  38  40
ATOM     40  C   UNL     1      67.724  83.388  69.487  1.00  0.00     0.158 C 
BRANCH  40  41
ATOM     41  C   UNL     1      66.507  83.224  70.360  1.00  0.00    -0.033 A 
ATOM     42  C   UNL     1      65.852  84.350  70.861  1.00  0.00     0.054 A 
ATOM     43  C   UNL     1      66.034  81.949  70.667  1.00  0.00     0.008 A 
ATOM     44  C   UNL     1      64.725  84.199  71.669  1.00  0.00     0.160 A 
ATOM     45  C   UNL     1      64.907  81.798  71.475  1.00  0.00     0.050 A 
ATOM     46  C   UNL     1      64.253  82.922  71.977  1.00  0.00     0.157 A 
BRANCH  44  47
ATOM     47  O   UNL     1      64.094  85.305  72.153  1.00  0.00    -0.493 OA
ATOM     48  C   UNL     1      63.991  86.427  71.278  1.00  0.00     0.278 C 
ENDBRANCH  44  47
BRANCH  46  49
ATOM     49  O   UNL     1      63.153  82.762  72.764  1.00  0.00    -0.504 OA
ATOM     50  H   UNL     1      62.540  83.499  72.604  1.00  0.00     0.293 HD
ENDBRANCH  46  49
ENDBRANCH  40  41
ENDBRANCH  38  40
ENDBRANCH  37  38
ENDBRANCH   1  37
TORSDOF 11
ENDMDL
MODEL 4
REMARK VINA RESULT:    -6.209      4.571      9.899
REMARK INTER + INTRA:         -12.663
REMARK INTER:                 -11.448
REMARK INTRA:                  -1.216
REMARK UNBOUND:                -1.737
REMARK SMILES C=C(C)[C@]12C[C@@H](C)[C@@]34O[C@](Cc5ccccc5)(O[C@@H]1[C@@H]3C=C(COC(=O)Cc1ccc(O)c(OC)c1)C[C@]1(O)C(=O)C(C)=C[C@@H]41)O2
REMARK SMILES IDX 23 1 22 2 21 3 20 4 9 5 8 6 10 7 6 8 18 9 46 10 19 11 5 12
REMARK SMILES IDX 7 13 4 14 45 15 38 16 44 17 40 18 42 20 41 21 43 22 39 23
REMARK SMILES IDX 11 25 12 26 13 27 17 28 14 29 16 30 15 31 2 32 3 33 1 34
REMARK SMILES IDX 37 35 24 37 25 38 26 39 27 40 28 41 36 42 29 43 33 44 30 45
REMARK SMILES IDX 31 46 34 47 35 48 32 49
REMARK H PARENT 39 24 32 50
REMARK Flexibility Score: 90.00
ROOT
ATOM      1  C   UNL     1      90.911  85.150  91.318  1.00  0.00     0.264 C 
ENDROOT
BRANCH   1   2
ATOM      2  C   UNL     1      92.162  85.857  91.784  1.00  0.00    -0.033 C 
ATOM      3  C   UNL     1      92.412  87.109  91.351  1.00  0.00    -0.015 C 
BRANCH   3   4
ATOM      4  C   UNL     1      93.620  87.995  91.607  1.00  0.00     0.078 C 
ATOM      5  O   UNL     1      93.092  89.378  93.588  1.00  0.00    -0.319 OA
ATOM      6  C   UNL     1      93.994  88.339  93.097  1.00  0.00     0.095 C 
ATOM      7  C   UNL     1      92.823  90.450  92.664  1.00  0.00     0.289 C 
ATOM      8  C   UNL     1      95.479  88.890  93.104  1.00  0.00     0.023 C 
ATOM      9  O   UNL     1      92.277  89.956  91.444  1.00  0.00    -0.320 OA
ATOM     10  O   UNL     1      94.005  91.157  92.298  1.00  0.00    -0.313 OA
ATOM     11  C   UNL     1      93.445  89.347  90.873  1.00  0.00     0.170 C 
ATOM     12  C   UNL     1      95.802  89.680  91.798  1.00  0.00     0.049 C 
ATOM     13  C   UNL     1      95.861  89.743  94.324  1.00  0.00     0.011 C 
ATOM     14  C   UNL     1      94.559  90.364  91.228  1.00  0.00     0.122 C 
BRANCH   6  15
ATOM     15  C   UNL     1      93.728  87.121  94.028  1.00  0.00     0.086 C 
ATOM     16  C   UNL     1      94.164  85.744  93.487  1.00  0.00     0.140 CG0
ATOM     17  C   UNL     1      94.270  87.133  95.430  1.00  0.00    -0.010 C 
ATOM     18  C   UNL     1      94.598  85.022  94.745  1.00  0.00     0.190 C 
ATOM     19  G   UNL     1      93.028  85.023  92.761  1.00  0.00     0.000 G0
ATOM     20  C   UNL     1      94.741  85.963  95.872  1.00  0.00    -0.008 C 
ATOM     21  O   UNL     1      94.852  83.830  94.825  1.00  0.00    -0.291 OA
ATOM     22  C   UNL     1      95.264  85.589  97.202  1.00  0.00     0.048 C 
BRANCH  16  23
ATOM     23  O   UNL     1      95.340  85.784  92.696  1.00  0.00    -0.381 OA
ATOM     24  H   UNL     1      95.559  86.714  92.519  1.00  0.00     0.212 HD
ENDBRANCH  16  23
ENDBRANCH   6  15
BRANCH   7  25
ATOM     25  C   UNL     1      91.843  91.405  93.315  1.00  0.00     0.135 C 
BRANCH  25  26
ATOM     26  C   UNL     1      92.043  92.825  92.848  1.00  0.00    -0.040 A 
ATOM     27  C   UNL     1      92.828  93.702  93.598  1.00  0.00     0.004 A 
ATOM     28  C   UNL     1      91.446  93.262  91.666  1.00  0.00     0.004 A 
ATOM     29  C   UNL     1      93.014  95.016  93.166  1.00  0.00     0.000 A 
ATOM     30  C   UNL     1      91.631  94.576  91.234  1.00  0.00     0.000 A 
ATOM     31  C   UNL     1      92.415  95.452  91.985  1.00  0.00     0.000 A 
ENDBRANCH  25  26
ENDBRANCH   7  25
BRANCH  14  32
ATOM     32  C   UNL     1      94.876  91.272  90.085  1.00  0.00    -0.046 C 
ATOM     33  C   UNL     1      94.569  92.725  90.289  1.00  0.00     0.042 C 
ATOM     34  C   UNL     1      95.405  90.813  88.940  1.00  0.00     0.010 C 
ENDBRANCH  14  32
ENDBRANCH   3   4
BRANCH   2  35
ATOM     35  C   UNL     1      93.001  85.019  92.730  1.00  0.00     0.078 CG0
ATOM     36  G   UNL     1      94.136  85.726  93.470  1.00  0.00     0.000 G0
ENDBRANCH   2  35
ENDBRANCH   1   2
BRANCH   1  37
ATOM     37  O   UNL     1      90.942  85.025  89.912  1.00  0.00    -0.461 OA
BRANCH  37  38
ATOM     38  C   UNL     1      91.677  83.976  89.411  1.00  0.00     0.310 C 
ATOM     39  O   UNL     1      92.760  84.080  88.852  1.00  0.00    -0.252 OA
BRANCH  38  40
ATOM     40  C   UNL     1      90.939  82.680  89.656  1.00  0.00     0.158 C 
BRANCH  40  41
ATOM     41  C   UNL     1      90.747  81.867  88.402  1.00  0.00    -0.033 A 
ATOM     42  C   UNL     1      89.882  82.318  87.404  1.00  0.00     0.054 A 
ATOM     43  C   UNL     1      91.433  80.664  88.238  1.00  0.00     0.008 A 
ATOM     44  C   UNL     1      89.703  81.565  86.243  1.00  0.00     0.160 A 
ATOM     45  C   UNL     1      91.255  79.912  87.077  1.00  0.00     0.050 A 
ATOM     46  C   UNL     1      90.391  80.361  86.080  1.00  0.00     0.157 A 
BRANCH  44  47
ATOM     47  O   UNL     1      88.856  82.015  85.276  1.00  0.00    -0.493 OA
ATOM     48  C   UNL     1      87.531  82.354  85.682  1.00  0.00     0.278 C 
ENDBRANCH  44  47
BRANCH  46  49
ATOM     49  O   UNL     1      90.226  79.619  84.950  1.00  0.00    -0.504 OA
ATOM     50  H   UNL     1      90.956  78.982  84.880  1.00  0.00     0.293 HD
ENDBRANCH  46  49
ENDBRANCH  40  41
ENDBRANCH  38  40
ENDBRANCH  37  38
ENDBRANCH   1  37
TORSDOF 11
ENDMDL
MODEL 5
REMARK VINA RESULT:    -6.014     33.076     36.858
REMARK INTER + INTRA:         -12.321
REMARK INTER:                  -9.672
REMARK INTRA:                  -2.649
REMARK UNBOUND:                -1.737
REMARK SMILES C=C(C)[C@]12C[C@@H](C)[C@@]34O[C@](Cc5ccccc5)(O[C@@H]1[C@@H]3C=C(COC(=O)Cc1ccc(O)c(OC)c1)C[C@]1(O)C(=O)C(C)=C[C@@H]41)O2
REMARK SMILES IDX 23 1 22 2 21 3 20 4 9 5 8 6 10 7 6 8 18 9 46 10 19 11 5 12
REMARK SMILES IDX 7 13 4 14 45 15 38 16 44 17 40 18 42 20 41 21 43 22 39 23
REMARK SMILES IDX 11 25 12 26 13 27 17 28 14 29 16 30 15 31 2 32 3 33 1 34
REMARK SMILES IDX 37 35 24 37 25 38 26 39 27 40 28 41 36 42 29 43 33 44 30 45
REMARK SMILES IDX 31 46 34 47 35 48 32 49
REMARK H PARENT 39 24 32 50
REMARK Flexibility Score: 90.00
ROOT
ATOM      1  C   UNL     1      68.323  87.347  71.078  1.00  0.00     0.264 C 
ENDROOT
BRANCH   1   2
ATOM      2  C   UNL     1      67.810  85.988  70.662  1.00  0.00    -0.033 C 
ATOM      3  C   UNL     1      66.645  85.538  71.169  1.00  0.00    -0.015 C 
BRANCH   3   4
ATOM      4  C   UNL     1      65.961  84.195  70.973  1.00  0.00     0.078 C 
ATOM      5  O   UNL     1      64.410  84.448  69.063  1.00  0.00    -0.319 OA
ATOM      6  C   UNL     1      65.609  83.741  69.508  1.00  0.00     0.095 C 
ATOM      7  C   UNL     1      63.357  84.552  70.041  1.00  0.00     0.289 C 
ATOM      8  C   UNL     1      65.315  82.185  69.545  1.00  0.00     0.023 C 
ATOM      9  O   UNL     1      63.814  85.196  71.227  1.00  0.00    -0.320 OA
ATOM     10  O   UNL     1      62.877  83.276  70.456  1.00  0.00    -0.313 OA
ATOM     11  C   UNL     1      64.638  84.156  71.777  1.00  0.00     0.170 C 
ATOM     12  C   UNL     1      64.658  81.760  70.894  1.00  0.00     0.049 C 
ATOM     13  C   UNL     1      64.477  81.643  68.376  1.00  0.00     0.011 C 
ATOM     14  C   UNL     1      63.806  82.882  71.487  1.00  0.00     0.122 C 
BRANCH   6  15
ATOM     15  C   UNL     1      66.716  84.189  68.510  1.00  0.00     0.086 C 
ATOM     16  C   UNL     1      68.173  84.000  68.982  1.00  0.00     0.140 CG0
ATOM     17  C   UNL     1      66.724  83.625  67.117  1.00  0.00    -0.010 C 
ATOM     18  C   UNL     1      68.893  83.668  67.691  1.00  0.00     0.190 C 
ATOM     19  G   UNL     1      68.728  85.253  69.656  1.00  0.00     0.000 G0
ATOM     20  C   UNL     1      67.933  83.348  66.618  1.00  0.00    -0.008 C 
ATOM     21  O   UNL     1      70.105  83.615  67.550  1.00  0.00    -0.291 OA
ATOM     22  C   UNL     1      68.321  82.869  65.275  1.00  0.00     0.048 C 
BRANCH  16  23
ATOM     23  O   UNL     1      68.371  82.849  69.786  1.00  0.00    -0.381 OA
ATOM     24  H   UNL     1      68.516  82.087  69.201  1.00  0.00     0.212 HD
ENDBRANCH  16  23
ENDBRANCH   6  15
BRANCH   7  25
ATOM     25  C   UNL     1      62.219  85.346  69.432  1.00  0.00     0.135 C 
BRANCH  25  26
ATOM     26  C   UNL     1      61.031  85.430  70.357  1.00  0.00    -0.040 A 
ATOM     27  C   UNL     1      61.055  86.302  71.446  1.00  0.00     0.004 A 
ATOM     28  C   UNL     1      59.907  84.639  70.123  1.00  0.00     0.004 A 
ATOM     29  C   UNL     1      59.956  86.380  72.302  1.00  0.00     0.000 A 
ATOM     30  C   UNL     1      58.807  84.717  70.978  1.00  0.00     0.000 A 
ATOM     31  C   UNL     1      58.833  85.588  72.068  1.00  0.00     0.000 A 
ENDBRANCH  25  26
ENDBRANCH   7  25
BRANCH  14  32
ATOM     32  C   UNL     1      63.023  82.440  72.681  1.00  0.00    -0.046 C 
ATOM     33  C   UNL     1      63.567  81.259  73.429  1.00  0.00     0.042 C 
ATOM     34  C   UNL     1      61.898  83.062  73.062  1.00  0.00     0.010 C 
ENDBRANCH  14  32
ENDBRANCH   3   4
BRANCH   2  35
ATOM     35  C   UNL     1      68.723  85.285  69.674  1.00  0.00     0.078 CG0
ATOM     36  G   UNL     1      68.181  84.029  68.994  1.00  0.00     0.000 G0
ENDBRANCH   2  35
ENDBRANCH   1   2
BRANCH   1  37
ATOM     37  O   UNL     1      67.291  88.054  71.732  1.00  0.00    -0.461 OA
BRANCH  37  38
ATOM     38  C   UNL     1      66.531  88.888  70.945  1.00  0.00     0.310 C 
ATOM     39  O   UNL     1      66.977  89.688  70.134  1.00  0.00    -0.252 OA
BRANCH  38  40
ATOM     40  C   UNL     1      65.066  88.661  71.237  1.00  0.00     0.158 C 
BRANCH  40  41
ATOM     41  C   UNL     1      64.206  88.703  70.000  1.00  0.00    -0.033 A 
ATOM     42  C   UNL     1      64.681  88.166  68.803  1.00  0.00     0.054 A 
ATOM     43  C   UNL     1      62.937  89.277  70.053  1.00  0.00     0.008 A 
ATOM     44  C   UNL     1      63.885  88.206  67.658  1.00  0.00     0.160 A 
ATOM     45  C   UNL     1      62.141  89.316  68.908  1.00  0.00     0.050 A 
ATOM     46  C   UNL     1      62.615  88.781  67.710  1.00  0.00     0.157 A 
BRANCH  44  47
ATOM     47  O   UNL     1      64.359  87.679  66.494  1.00  0.00    -0.493 OA
ATOM     48  C   UNL     1      64.565  86.268  66.458  1.00  0.00     0.278 C 
ENDBRANCH  44  47
BRANCH  46  49
ATOM     49  O   UNL     1      61.828  88.824  66.599  1.00  0.00    -0.504 OA
ATOM     50  H   UNL     1      62.384  89.014  65.825  1.00  0.00     0.293 HD
ENDBRANCH  46  49
ENDBRANCH  40  41
ENDBRANCH  38  40
ENDBRANCH  37  38
ENDBRANCH   1  37
TORSDOF 11
ENDMDL
MODEL 6
REMARK VINA RESULT:    -6.009     33.330     37.554
REMARK INTER + INTRA:         -12.313
REMARK INTER:                 -10.478
REMARK INTRA:                  -1.835
REMARK UNBOUND:                -1.737
REMARK SMILES C=C(C)[C@]12C[C@@H](C)[C@@]34O[C@](Cc5ccccc5)(O[C@@H]1[C@@H]3C=C(COC(=O)Cc1ccc(O)c(OC)c1)C[C@]1(O)C(=O)C(C)=C[C@@H]41)O2
REMARK SMILES IDX 23 1 22 2 21 3 20 4 9 5 8 6 10 7 6 8 18 9 46 10 19 11 5 12
REMARK SMILES IDX 7 13 4 14 45 15 38 16 44 17 40 18 42 20 41 21 43 22 39 23
REMARK SMILES IDX 11 25 12 26 13 27 17 28 14 29 16 30 15 31 2 32 3 33 1 34
REMARK SMILES IDX 37 35 24 37 25 38 26 39 27 40 28 41 36 42 29 43 33 44 30 45
REMARK SMILES IDX 31 46 34 47 35 48 32 49
REMARK H PARENT 39 24 32 50
REMARK Flexibility Score: 90.00
ROOT
ATOM      1  C   UNL     1      65.335  88.013  71.000  1.00  0.00     0.264 C 
ENDROOT
BRANCH   1   2
ATOM      2  C   UNL     1      65.160  86.579  71.444  1.00  0.00    -0.033 C 
ATOM      3  C   UNL     1      64.695  86.325  72.684  1.00  0.00    -0.015 C 
BRANCH   3   4
ATOM      4  C   UNL     1      64.505  84.992  73.389  1.00  0.00     0.078 C 
ATOM      5  O   UNL     1      62.181  84.269  72.948  1.00  0.00    -0.319 OA
ATOM      6  C   UNL     1      63.579  83.913  72.714  1.00  0.00     0.095 C 
ATOM      7  C   UNL     1      61.876  84.724  74.280  1.00  0.00     0.289 C 
ATOM      8  C   UNL     1      63.887  82.519  73.401  1.00  0.00     0.023 C 
ATOM      9  O   UNL     1      62.667  85.856  74.633  1.00  0.00    -0.320 OA
ATOM     10  O   UNL     1      62.157  83.736  75.268  1.00  0.00    -0.313 OA
ATOM     11  C   UNL     1      63.944  85.225  74.813  1.00  0.00     0.170 C 
ATOM     12  C   UNL     1      64.265  82.693  74.904  1.00  0.00     0.049 C 
ATOM     13  C   UNL     1      62.779  81.461  73.271  1.00  0.00     0.011 C 
ATOM     14  C   UNL     1      63.566  83.903  75.526  1.00  0.00     0.122 C 
BRANCH   6  15
ATOM     15  C   UNL     1      63.733  83.945  71.166  1.00  0.00     0.086 C 
ATOM     16  C   UNL     1      65.172  84.092  70.628  1.00  0.00     0.140 CG0
ATOM     17  C   UNL     1      63.167  82.819  70.346  1.00  0.00    -0.010 C 
ATOM     18  C   UNL     1      65.131  83.269  69.358  1.00  0.00     0.190 C 
ATOM     19  G   UNL     1      65.545  85.550  70.370  1.00  0.00     0.000 G0
ATOM     20  C   UNL     1      63.916  82.435  69.307  1.00  0.00    -0.008 C 
ATOM     21  O   UNL     1      66.002  83.246  68.501  1.00  0.00    -0.291 OA
ATOM     22  C   UNL     1      63.641  81.435  68.255  1.00  0.00     0.048 C 
BRANCH  16  23
ATOM     23  O   UNL     1      66.150  83.440  71.422  1.00  0.00    -0.381 OA
ATOM     24  H   UNL     1      66.134  82.492  71.212  1.00  0.00     0.212 HD
ENDBRANCH  16  23
ENDBRANCH   6  15
BRANCH   7  25
ATOM     25  C   UNL     1      60.406  85.089  74.333  1.00  0.00     0.135 C 
BRANCH  25  26
ATOM     26  C   UNL     1      59.871  85.477  72.977  1.00  0.00    -0.040 A 
ATOM     27  C   UNL     1      59.266  84.516  72.166  1.00  0.00     0.004 A 
ATOM     28  C   UNL     1      59.979  86.795  72.535  1.00  0.00     0.004 A 
ATOM     29  C   UNL     1      58.771  84.875  70.911  1.00  0.00     0.000 A 
ATOM     30  C   UNL     1      59.484  87.153  71.280  1.00  0.00     0.000 A 
ATOM     31  C   UNL     1      58.880  86.192  70.469  1.00  0.00     0.000 A 
ENDBRANCH  25  26
ENDBRANCH   7  25
BRANCH  14  32
ATOM     32  C   UNL     1      63.767  83.985  77.004  1.00  0.00    -0.046 C 
ATOM     33  C   UNL     1      62.542  84.259  77.825  1.00  0.00     0.042 C 
ATOM     34  C   UNL     1      64.974  83.822  77.566  1.00  0.00     0.010 C 
ENDBRANCH  14  32
ENDBRANCH   3   4
BRANCH   2  35
ATOM     35  C   UNL     1      65.546  85.574  70.376  1.00  0.00     0.078 CG0
ATOM     36  G   UNL     1      65.163  84.115  70.618  1.00  0.00     0.000 G0
ENDBRANCH   2  35
ENDBRANCH   1   2
BRANCH   1  37
ATOM     37  O   UNL     1      64.087  88.531  70.593  1.00  0.00    -0.461 OA
BRANCH  37  38
ATOM     38  C   UNL     1      63.596  89.584  71.330  1.00  0.00     0.310 C 
ATOM     39  O   UNL     1      63.521  89.613  72.551  1.00  0.00    -0.252 OA
BRANCH  38  40
ATOM     40  C   UNL     1      63.165  90.693  70.400  1.00  0.00     0.158 C 
BRANCH  40  41
ATOM     41  C   UNL     1      62.360  90.197  69.227  1.00  0.00    -0.033 A 
ATOM     42  C   UNL     1      62.957  90.079  67.971  1.00  0.00     0.054 A 
ATOM     43  C   UNL     1      61.018  89.857  69.396  1.00  0.00     0.008 A 
ATOM     44  C   UNL     1      62.211  89.620  66.885  1.00  0.00     0.160 A 
ATOM     45  C   UNL     1      60.273  89.398  68.310  1.00  0.00     0.050 A 
ATOM     46  C   UNL     1      60.869  89.280  67.054  1.00  0.00     0.157 A 
BRANCH  44  47
ATOM     47  O   UNL     1      62.805  89.509  65.664  1.00  0.00    -0.493 OA
ATOM     48  C   UNL     1      63.651  88.379  65.455  1.00  0.00     0.278 C 
ENDBRANCH  44  47
BRANCH  46  49
ATOM     49  O   UNL     1      60.131  88.829  66.002  1.00  0.00    -0.504 OA
ATOM     50  H   UNL     1      60.501  87.984  65.695  1.00  0.00     0.293 HD
ENDBRANCH  46  49
ENDBRANCH  40  41
ENDBRANCH  38  40
ENDBRANCH  37  38
ENDBRANCH   1  37
TORSDOF 11
ENDMDL
MODEL 7
REMARK VINA RESULT:    -5.942     27.761     31.833
REMARK INTER + INTRA:         -12.194
REMARK INTER:                 -11.257
REMARK INTRA:                  -0.937
REMARK UNBOUND:                -1.737
REMARK SMILES C=C(C)[C@]12C[C@@H](C)[C@@]34O[C@](Cc5ccccc5)(O[C@@H]1[C@@H]3C=C(COC(=O)Cc1ccc(O)c(OC)c1)C[C@]1(O)C(=O)C(C)=C[C@@H]41)O2
REMARK SMILES IDX 23 1 22 2 21 3 20 4 9 5 8 6 10 7 6 8 18 9 46 10 19 11 5 12
REMARK SMILES IDX 7 13 4 14 45 15 38 16 44 17 40 18 42 20 41 21 43 22 39 23
REMARK SMILES IDX 11 25 12 26 13 27 17 28 14 29 16 30 15 31 2 32 3 33 1 34
REMARK SMILES IDX 37 35 24 37 25 38 26 39 27 40 28 41 36 42 29 43 33 44 30 45
REMARK SMILES IDX 31 46 34 47 35 48 32 49
REMARK H PARENT 39 24 32 50
REMARK Flexibility Score: 90.00
ROOT
ATOM      1  C   UNL     1      69.179  86.600  69.836  1.00  0.00     0.264 C 
ENDROOT
BRANCH   1   2
ATOM      2  C   UNL     1      70.570  87.189  69.855  1.00  0.00    -0.033 C 
ATOM      3  C   UNL     1      71.633  86.377  69.686  1.00  0.00    -0.015 C 
BRANCH   3   4
ATOM      4  C   UNL     1      73.116  86.705  69.740  1.00  0.00     0.078 C 
ATOM      5  O   UNL     1      73.822  87.230  67.428  1.00  0.00    -0.319 OA
ATOM      6  C   UNL     1      73.676  87.805  68.763  1.00  0.00     0.095 C 
ATOM      7  C   UNL     1      74.380  85.903  67.386  1.00  0.00     0.289 C 
ATOM      8  C   UNL     1      75.099  88.246  69.302  1.00  0.00     0.023 C 
ATOM      9  O   UNL     1      73.602  84.991  68.158  1.00  0.00    -0.320 OA
ATOM     10  O   UNL     1      75.693  85.850  67.936  1.00  0.00    -0.313 OA
ATOM     11  C   UNL     1      73.948  85.424  69.483  1.00  0.00     0.170 C 
ATOM     12  C   UNL     1      75.846  87.058  69.981  1.00  0.00     0.049 C 
ATOM     13  C   UNL     1      76.022  88.905  68.264  1.00  0.00     0.011 C 
ATOM     14  C   UNL     1      75.463  85.717  69.354  1.00  0.00     0.122 C 
BRANCH   6  15
ATOM     15  C   UNL     1      72.644  88.956  68.579  1.00  0.00     0.086 C 
ATOM     16  C   UNL     1      71.920  89.431  69.856  1.00  0.00     0.140 CG0
ATOM     17  C   UNL     1      73.080  90.238  67.927  1.00  0.00    -0.010 C 
ATOM     18  C   UNL     1      71.743  90.912  69.599  1.00  0.00     0.190 C 
ATOM     19  G   UNL     1      70.590  88.710  70.067  1.00  0.00     0.000 G0
ATOM     20  C   UNL     1      72.569  91.353  68.459  1.00  0.00    -0.008 C 
ATOM     21  O   UNL     1      71.053  91.669  70.265  1.00  0.00    -0.291 OA
ATOM     22  C   UNL     1      72.707  92.761  68.033  1.00  0.00     0.048 C 
BRANCH  16  23
ATOM     23  O   UNL     1      72.725  89.384  71.023  1.00  0.00    -0.381 OA
ATOM     24  H   UNL     1      73.269  90.188  71.054  1.00  0.00     0.212 HD
ENDBRANCH  16  23
ENDBRANCH   6  15
BRANCH   7  25
ATOM     25  C   UNL     1      74.418  85.448  65.941  1.00  0.00     0.135 C 
BRANCH  25  26
ATOM     26  C   UNL     1      75.189  84.163  65.773  1.00  0.00    -0.040 A 
ATOM     27  C   UNL     1      74.611  82.949  66.145  1.00  0.00     0.004 A 
ATOM     28  C   UNL     1      76.480  84.188  65.245  1.00  0.00     0.004 A 
ATOM     29  C   UNL     1      75.324  81.760  65.989  1.00  0.00     0.000 A 
ATOM     30  C   UNL     1      77.193  82.999  65.090  1.00  0.00     0.000 A 
ATOM     31  C   UNL     1      76.615  81.785  65.462  1.00  0.00     0.000 A 
ENDBRANCH  25  26
ENDBRANCH   7  25
BRANCH  14  32
ATOM     32  C   UNL     1      76.298  84.586  69.862  1.00  0.00    -0.046 C 
ATOM     33  C   UNL     1      76.207  84.303  71.331  1.00  0.00     0.042 C 
ATOM     34  C   UNL     1      77.086  83.865  69.049  1.00  0.00     0.010 C 
ENDBRANCH  14  32
ENDBRANCH   3   4
BRANCH   2  35
ATOM     35  C   UNL     1      70.577  88.692  70.065  1.00  0.00     0.078 CG0
ATOM     36  G   UNL     1      71.905  89.420  69.864  1.00  0.00     0.000 G0
ENDBRANCH   2  35
ENDBRANCH   1   2
BRANCH   1  37
ATOM     37  O   UNL     1      69.258  85.210  70.066  1.00  0.00    -0.461 OA
BRANCH  37  38
ATOM     38  C   UNL     1      68.326  84.682  70.929  1.00  0.00     0.310 C 
ATOM     39  O   UNL     1      68.580  84.170  72.010  1.00  0.00    -0.252 OA
BRANCH  38  40
ATOM     40  C   UNL     1      66.946  84.832  70.333  1.00  0.00     0.158 C 
BRANCH  40  41
ATOM     41  C   UNL     1      65.934  83.902  70.953  1.00  0.00    -0.033 A 
ATOM     42  C   UNL     1      64.875  84.421  71.699  1.00  0.00     0.054 A 
ATOM     43  C   UNL     1      66.056  82.523  70.780  1.00  0.00     0.008 A 
ATOM     44  C   UNL     1      63.938  83.560  72.272  1.00  0.00     0.160 A 
ATOM     45  C   UNL     1      65.119  81.663  71.353  1.00  0.00     0.050 A 
ATOM     46  C   UNL     1      64.061  82.181  72.099  1.00  0.00     0.157 A 
BRANCH  44  47
ATOM     47  O   UNL     1      62.909  84.078  72.998  1.00  0.00    -0.493 OA
ATOM     48  C   UNL     1      63.133  84.269  74.394  1.00  0.00     0.278 C 
ENDBRANCH  44  47
BRANCH  46  49
ATOM     49  O   UNL     1      63.152  81.331  72.653  1.00  0.00    -0.504 OA
ATOM     50  H   UNL     1      62.725  80.819  71.945  1.00  0.00     0.293 HD
ENDBRANCH  46  49
ENDBRANCH  40  41
ENDBRANCH  38  40
ENDBRANCH  37  38
ENDBRANCH   1  37
TORSDOF 11
ENDMDL
MODEL 8
REMARK VINA RESULT:    -5.859      3.141      8.735
REMARK INTER + INTRA:         -12.049
REMARK INTER:                 -10.168
REMARK INTRA:                  -1.881
REMARK UNBOUND:                -1.737
REMARK SMILES C=C(C)[C@]12C[C@@H](C)[C@@]34O[C@](Cc5ccccc5)(O[C@@H]1[C@@H]3C=C(COC(=O)Cc1ccc(O)c(OC)c1)C[C@]1(O)C(=O)C(C)=C[C@@H]41)O2
REMARK SMILES IDX 23 1 22 2 21 3 20 4 9 5 8 6 10 7 6 8 18 9 46 10 19 11 5 12
REMARK SMILES IDX 7 13 4 14 45 15 38 16 44 17 40 18 42 20 41 21 43 22 39 23
REMARK SMILES IDX 11 25 12 26 13 27 17 28 14 29 16 30 15 31 2 32 3 33 1 34
REMARK SMILES IDX 37 35 24 37 25 38 26 39 27 40 28 41 36 42 29 43 33 44 30 45
REMARK SMILES IDX 31 46 34 47 35 48 32 49
REMARK H PARENT 39 24 32 50
REMARK Flexibility Score: 90.00
ROOT
ATOM      1  C   UNL     1      91.119  84.627  92.089  1.00  0.00     0.264 C 
ENDROOT
BRANCH   1   2
ATOM      2  C   UNL     1      92.399  85.364  92.406  1.00  0.00    -0.033 C 
ATOM      3  C   UNL     1      92.619  86.573  91.851  1.00  0.00    -0.015 C 
BRANCH   3   4
ATOM      4  C   UNL     1      93.841  87.470  91.947  1.00  0.00     0.078 C 
ATOM      5  O   UNL     1      93.462  89.004  93.851  1.00  0.00    -0.319 OA
ATOM      6  C   UNL     1      94.326  87.926  93.374  1.00  0.00     0.095 C 
ATOM      7  C   UNL     1      93.124  90.003  92.870  1.00  0.00     0.289 C 
ATOM      8  C   UNL     1      95.808  88.469  93.227  1.00  0.00     0.023 C 
ATOM      9  O   UNL     1      92.488  89.419  91.736  1.00  0.00    -0.320 OA
ATOM     10  O   UNL     1      94.275  90.674  92.363  1.00  0.00    -0.313 OA
ATOM     11  C   UNL     1      93.610  88.763  91.127  1.00  0.00     0.170 C 
ATOM     12  C   UNL     1      96.030  89.154  91.844  1.00  0.00     0.049 C 
ATOM     13  C   UNL     1      96.280  89.411  94.346  1.00  0.00     0.011 C 
ATOM     14  C   UNL     1      94.747  89.798  91.318  1.00  0.00     0.122 C 
BRANCH   6  15
ATOM     15  C   UNL     1      94.132  86.784  94.413  1.00  0.00     0.086 C 
ATOM     16  C   UNL     1      94.526  85.367  93.947  1.00  0.00     0.140 CG0
ATOM     17  C   UNL     1      94.780  86.900  95.765  1.00  0.00    -0.010 C 
ATOM     18  C   UNL     1      95.056  84.741  95.220  1.00  0.00     0.190 C 
ATOM     19  G   UNL     1      93.339  84.599  93.368  1.00  0.00     0.000 G0
ATOM     20  C   UNL     1      95.284  85.764  96.258  1.00  0.00    -0.008 C 
ATOM     21  O   UNL     1      95.315  83.557  95.372  1.00  0.00    -0.291 OA
ATOM     22  C   UNL     1      95.907  85.490  97.569  1.00  0.00     0.048 C 
BRANCH  16  23
ATOM     23  O   UNL     1      95.639  85.340  93.069  1.00  0.00    -0.381 OA
ATOM     24  H   UNL     1      95.325  85.535  92.170  1.00  0.00     0.212 HD
ENDBRANCH  16  23
ENDBRANCH   6  15
BRANCH   7  25
ATOM     25  C   UNL     1      92.195  91.009  93.517  1.00  0.00     0.135 C 
BRANCH  25  26
ATOM     26  C   UNL     1      92.341  92.383  92.912  1.00  0.00    -0.040 A 
ATOM     27  C   UNL     1      91.694  92.690  91.714  1.00  0.00     0.004 A 
ATOM     28  C   UNL     1      93.120  93.348  93.550  1.00  0.00     0.004 A 
ATOM     29  C   UNL     1      91.828  93.960  91.154  1.00  0.00     0.000 A 
ATOM     30  C   UNL     1      93.254  94.619  92.990  1.00  0.00     0.000 A 
ATOM     31  C   UNL     1      92.608  94.924  91.792  1.00  0.00     0.000 A 
ENDBRANCH  25  26
ENDBRANCH   7  25
BRANCH  14  32
ATOM     32  C   UNL     1      94.976  90.614  90.088  1.00  0.00    -0.046 C 
ATOM     33  C   UNL     1      94.685  92.081  90.203  1.00  0.00     0.042 C 
ATOM     34  C   UNL     1      95.416  90.067  88.945  1.00  0.00     0.010 C 
ENDBRANCH  14  32
ENDBRANCH   3   4
BRANCH   2  35
ATOM     35  C   UNL     1      93.302  84.604  93.360  1.00  0.00     0.078 CG0
ATOM     36  G   UNL     1      94.503  85.355  93.933  1.00  0.00     0.000 G0
ENDBRANCH   2  35
ENDBRANCH   1   2
BRANCH   1  37
ATOM     37  O   UNL     1      90.927  84.604  90.691  1.00  0.00    -0.461 OA
BRANCH  37  38
ATOM     38  C   UNL     1      91.189  83.411  90.060  1.00  0.00     0.310 C 
ATOM     39  O   UNL     1      91.227  82.319  90.610  1.00  0.00    -0.252 OA
BRANCH  38  40
ATOM     40  C   UNL     1      91.423  83.659  88.588  1.00  0.00     0.158 C 
BRANCH  40  41
ATOM     41  C   UNL     1      92.880  83.603  88.206  1.00  0.00    -0.033 A 
ATOM     42  C   UNL     1      93.789  84.482  88.795  1.00  0.00     0.054 A 
ATOM     43  C   UNL     1      93.319  82.672  87.265  1.00  0.00     0.008 A 
ATOM     44  C   UNL     1      95.138  84.430  88.442  1.00  0.00     0.160 A 
ATOM     45  C   UNL     1      94.668  82.620  86.912  1.00  0.00     0.050 A 
ATOM     46  C   UNL     1      95.577  83.499  87.500  1.00  0.00     0.157 A 
BRANCH  44  47
ATOM     47  O   UNL     1      96.016  85.294  89.023  1.00  0.00    -0.493 OA
ATOM     48  C   UNL     1      95.802  86.686  88.796  1.00  0.00     0.278 C 
ENDBRANCH  44  47
BRANCH  46  49
ATOM     49  O   UNL     1      96.891  83.439  87.148  1.00  0.00    -0.504 OA
ATOM     50  H   UNL     1      97.036  83.999  86.367  1.00  0.00     0.293 HD
ENDBRANCH  46  49
ENDBRANCH  40  41
ENDBRANCH  38  40
ENDBRANCH  37  38
ENDBRANCH   1  37
TORSDOF 11
ENDMDL
MODEL 9
REMARK VINA RESULT:    -5.744      2.171      3.161
REMARK INTER + INTRA:         -11.846
REMARK INTER:                 -10.939
REMARK INTRA:                  -0.906
REMARK UNBOUND:                -1.737
REMARK SMILES C=C(C)[C@]12C[C@@H](C)[C@@]34O[C@](Cc5ccccc5)(O[C@@H]1[C@@H]3C=C(COC(=O)Cc1ccc(O)c(OC)c1)C[C@]1(O)C(=O)C(C)=C[C@@H]41)O2
REMARK SMILES IDX 23 1 22 2 21 3 20 4 9 5 8 6 10 7 6 8 18 9 46 10 19 11 5 12
REMARK SMILES IDX 7 13 4 14 45 15 38 16 44 17 40 18 42 20 41 21 43 22 39 23
REMARK SMILES IDX 11 25 12 26 13 27 17 28 14 29 16 30 15 31 2 32 3 33 1 34
REMARK SMILES IDX 37 35 24 37 25 38 26 39 27 40 28 41 36 42 29 43 33 44 30 45
REMARK SMILES IDX 31 46 34 47 35 48 32 49
REMARK H PARENT 39 24 32 50
REMARK Flexibility Score: 90.00
ROOT
ATOM      1  C   UNL     1      93.275  87.174  90.934  1.00  0.00     0.264 C 
ENDROOT
BRANCH   1   2
ATOM      2  C   UNL     1      93.344  86.007  89.977  1.00  0.00    -0.033 C 
ATOM      3  C   UNL     1      94.471  85.805  89.265  1.00  0.00    -0.015 C 
BRANCH   3   4
ATOM      4  C   UNL     1      94.762  84.765  88.195  1.00  0.00     0.078 C 
ATOM      5  O   UNL     1      95.779  82.821  89.338  1.00  0.00    -0.319 OA
ATOM      6  C   UNL     1      94.611  83.243  88.569  1.00  0.00     0.095 C 
ATOM      7  C   UNL     1      97.045  83.304  88.850  1.00  0.00     0.289 C 
ATOM      8  C   UNL     1      94.549  82.420  87.217  1.00  0.00     0.023 C 
ATOM      9  O   UNL     1      97.068  84.727  88.791  1.00  0.00    -0.320 OA
ATOM     10  O   UNL     1      97.319  82.859  87.524  1.00  0.00    -0.313 OA
ATOM     11  C   UNL     1      96.205  84.947  87.664  1.00  0.00     0.170 C 
ATOM     12  C   UNL     1      95.422  83.081  86.106  1.00  0.00     0.049 C 
ATOM     13  C   UNL     1      94.911  80.931  87.333  1.00  0.00     0.011 C 
ATOM     14  C   UNL     1      96.628  83.815  86.695  1.00  0.00     0.122 C 
BRANCH   6  15
ATOM     15  C   UNL     1      93.411  83.030  89.537  1.00  0.00     0.086 C 
ATOM     16  C   UNL     1      92.122  83.809  89.204  1.00  0.00     0.140 CG0
ATOM     17  C   UNL     1      92.917  81.635  89.802  1.00  0.00    -0.010 C 
ATOM     18  C   UNL     1      91.037  82.850  89.648  1.00  0.00     0.190 C 
ATOM     19  G   UNL     1      92.053  85.149  89.935  1.00  0.00     0.000 G0
ATOM     20  C   UNL     1      91.590  81.506  89.897  1.00  0.00    -0.008 C 
ATOM     21  O   UNL     1      89.849  83.120  89.743  1.00  0.00    -0.291 OA
ATOM     22  C   UNL     1      90.771  80.321  90.227  1.00  0.00     0.048 C 
BRANCH  16  23
ATOM     23  O   UNL     1      91.888  83.965  87.815  1.00  0.00    -0.381 OA
ATOM     24  H   UNL     1      91.585  84.874  87.654  1.00  0.00     0.212 HD
ENDBRANCH  16  23
ENDBRANCH   6  15
BRANCH   7  25
ATOM     25  C   UNL     1      98.133  82.812  89.784  1.00  0.00     0.135 C 
BRANCH  25  26
ATOM     26  C   UNL     1      99.393  82.445  89.040  1.00  0.00    -0.040 A 
ATOM     27  C   UNL     1      99.512  81.187  88.449  1.00  0.00     0.004 A 
ATOM     28  C   UNL     1     100.438  83.363  88.941  1.00  0.00     0.004 A 
ATOM     29  C   UNL     1     100.677  80.847  87.760  1.00  0.00     0.000 A 
ATOM     30  C   UNL     1     101.603  83.023  88.253  1.00  0.00     0.000 A 
ATOM     31  C   UNL     1     101.722  81.765  87.663  1.00  0.00     0.000 A 
ENDBRANCH  25  26
ENDBRANCH   7  25
BRANCH  14  32
ATOM     32  C   UNL     1      97.574  84.299  85.645  1.00  0.00    -0.046 C 
ATOM     33  C   UNL     1      98.687  83.364  85.275  1.00  0.00     0.042 C 
ATOM     34  C   UNL     1      97.437  85.501  85.066  1.00  0.00     0.010 C 
ENDBRANCH  14  32
ENDBRANCH   3   4
BRANCH   2  35
ATOM     35  C   UNL     1      92.074  85.179  89.957  1.00  0.00     0.078 CG0
ATOM     36  G   UNL     1      92.129  83.833  89.236  1.00  0.00     0.000 G0
ENDBRANCH   2  35
ENDBRANCH   1   2
BRANCH   1  37
ATOM     37  O   UNL     1      94.567  87.716  91.105  1.00  0.00    -0.461 OA
BRANCH  37  38
ATOM     38  C   UNL     1      94.697  88.686  92.071  1.00  0.00     0.310 C 
ATOM     39  O   UNL     1      95.490  89.617  92.029  1.00  0.00    -0.252 OA
BRANCH  38  40
ATOM     40  C   UNL     1      93.712  88.424  93.186  1.00  0.00     0.158 C 
BRANCH  40  41
ATOM     41  C   UNL     1      92.978  89.665  93.625  1.00  0.00    -0.033 A 
ATOM     42  C   UNL     1      92.741  90.695  92.714  1.00  0.00     0.054 A 
ATOM     43  C   UNL     1      92.534  89.783  94.942  1.00  0.00     0.008 A 
ATOM     44  C   UNL     1      92.062  91.843  93.120  1.00  0.00     0.160 A 
ATOM     45  C   UNL     1      91.854  90.932  95.348  1.00  0.00     0.050 A 
ATOM     46  C   UNL     1      91.618  91.962  94.438  1.00  0.00     0.157 A 
BRANCH  44  47
ATOM     47  O   UNL     1      91.837  92.842  92.222  1.00  0.00    -0.493 OA
ATOM     48  C   UNL     1      92.392  92.678  90.918  1.00  0.00     0.278 C 
ENDBRANCH  44  47
BRANCH  46  49
ATOM     49  O   UNL     1      90.953  93.077  94.846  1.00  0.00    -0.504 OA
ATOM     50  H   UNL     1      89.996  92.906  94.812  1.00  0.00     0.293 HD
ENDBRANCH  46  49
ENDBRANCH  40  41
ENDBRANCH  38  40
ENDBRANCH  37  38
ENDBRANCH   1  37
TORSDOF 11
ENDMDL
MODEL 10
REMARK VINA RESULT:    -5.444      2.312      3.381
REMARK INTER + INTRA:         -11.317
REMARK INTER:                 -10.572
REMARK INTRA:                  -0.746
REMARK UNBOUND:                -1.737
REMARK SMILES C=C(C)[C@]12C[C@@H](C)[C@@]34O[C@](Cc5ccccc5)(O[C@@H]1[C@@H]3C=C(COC(=O)Cc1ccc(O)c(OC)c1)C[C@]1(O)C(=O)C(C)=C[C@@H]41)O2
REMARK SMILES IDX 23 1 22 2 21 3 20 4 9 5 8 6 10 7 6 8 18 9 46 10 19 11 5 12
REMARK SMILES IDX 7 13 4 14 45 15 38 16 44 17 40 18 42 20 41 21 43 22 39 23
REMARK SMILES IDX 11 25 12 26 13 27 17 28 14 29 16 30 15 31 2 32 3 33 1 34
REMARK SMILES IDX 37 35 24 37 25 38 26 39 27 40 28 41 36 42 29 43 33 44 30 45
REMARK SMILES IDX 31 46 34 47 35 48 32 49
REMARK H PARENT 39 24 32 50
REMARK Flexibility Score: 90.00
ROOT
ATOM      1  C   UNL     1      92.676  84.283  90.566  1.00  0.00     0.264 C 
ENDROOT
BRANCH   1   2
ATOM      2  C   UNL     1      93.393  83.552  89.455  1.00  0.00    -0.033 C 
ATOM      3  C   UNL     1      94.728  83.380  89.533  1.00  0.00    -0.015 C 
BRANCH   3   4
ATOM      4  C   UNL     1      95.681  82.756  88.526  1.00  0.00     0.078 C 
ATOM      5  O   UNL     1      95.881  80.361  89.111  1.00  0.00    -0.319 OA
ATOM      6  C   UNL     1      95.420  81.273  88.067  1.00  0.00     0.095 C 
ATOM      7  C   UNL     1      97.146  80.700  89.711  1.00  0.00     0.289 C 
ATOM      8  C   UNL     1      96.260  81.025  86.746  1.00  0.00     0.023 C 
ATOM      9  O   UNL     1      97.116  82.009  90.274  1.00  0.00    -0.320 OA
ATOM     10  O   UNL     1      98.209  80.713  88.762  1.00  0.00    -0.313 OA
ATOM     11  C   UNL     1      97.128  82.799  89.075  1.00  0.00     0.170 C 
ATOM     12  C   UNL     1      97.593  81.835  86.757  1.00  0.00     0.049 C 
ATOM     13  C   UNL     1      96.559  79.553  86.421  1.00  0.00     0.011 C 
ATOM     14  C   UNL     1      98.127  82.028  88.176  1.00  0.00     0.122 C 
BRANCH   6  15
ATOM     15  C   UNL     1      93.894  80.992  87.951  1.00  0.00     0.086 C 
ATOM     16  C   UNL     1      93.043  82.106  87.307  1.00  0.00     0.140 CG0
ATOM     17  C   UNL     1      93.425  79.746  87.252  1.00  0.00    -0.010 C 
ATOM     18  C   UNL     1      91.976  81.320  86.576  1.00  0.00     0.190 C 
ATOM     19  G   UNL     1      92.458  83.060  88.347  1.00  0.00     0.000 G0
ATOM     20  C   UNL     1      92.334  79.892  86.494  1.00  0.00    -0.008 C 
ATOM     21  O   UNL     1      90.970  81.794  86.069  1.00  0.00    -0.291 OA
ATOM     22  C   UNL     1      91.558  78.885  85.740  1.00  0.00     0.048 C 
BRANCH  16  23
ATOM     23  O   UNL     1      93.711  82.813  86.274  1.00  0.00    -0.381 OA
ATOM     24  H   UNL     1      93.686  83.761  86.485  1.00  0.00     0.212 HD
ENDBRANCH  16  23
ENDBRANCH   6  15
BRANCH   7  25
ATOM     25  C   UNL     1      97.446  79.684  90.794  1.00  0.00     0.135 C 
BRANCH  25  26
ATOM     26  C   UNL     1      96.715  79.991  92.077  1.00  0.00    -0.040 A 
ATOM     27  C   UNL     1      95.341  80.236  92.055  1.00  0.00     0.004 A 
ATOM     28  C   UNL     1      97.411  80.031  93.285  1.00  0.00     0.004 A 
ATOM     29  C   UNL     1      94.664  80.520  93.242  1.00  0.00     0.000 A 
ATOM     30  C   UNL     1      96.734  80.315  94.471  1.00  0.00     0.000 A 
ATOM     31  C   UNL     1      95.361  80.560  94.449  1.00  0.00     0.000 A 
ENDBRANCH  25  26
ENDBRANCH   7  25
BRANCH  14  32
ATOM     32  C   UNL     1      99.490  82.640  88.199  1.00  0.00    -0.046 C 
ATOM     33  C   UNL     1      99.746  83.723  87.194  1.00  0.00     0.042 C 
ATOM     34  C   UNL     1     100.431  82.242  89.068  1.00  0.00     0.010 C 
ENDBRANCH  14  32
ENDBRANCH   3   4
BRANCH   2  35
ATOM     35  C   UNL     1      92.461  83.083  88.353  1.00  0.00     0.078 CG0
ATOM     36  G   UNL     1      93.036  82.121  87.314  1.00  0.00     0.000 G0
ENDBRANCH   2  35
ENDBRANCH   1   2
BRANCH   1  37
ATOM     37  O   UNL     1      92.817  85.674  90.376  1.00  0.00    -0.461 OA
BRANCH  37  38
ATOM     38  C   UNL     1      91.899  86.472  91.018  1.00  0.00     0.310 C 
ATOM     39  O   UNL     1      90.695  86.473  90.801  1.00  0.00    -0.252 OA
BRANCH  38  40
ATOM     40  C   UNL     1      92.607  87.343  92.029  1.00  0.00     0.158 C 
BRANCH  40  41
ATOM     41  C   UNL     1      93.125  88.628  91.438  1.00  0.00    -0.033 A 
ATOM     42  C   UNL     1      94.417  88.684  90.915  1.00  0.00     0.054 A 
ATOM     43  C   UNL     1      92.313  89.762  91.413  1.00  0.00     0.008 A 
ATOM     44  C   UNL     1      94.897  89.874  90.367  1.00  0.00     0.160 A 
ATOM     45  C   UNL     1      92.792  90.952  90.865  1.00  0.00     0.050 A 
ATOM     46  C   UNL     1      94.084  91.009  90.343  1.00  0.00     0.157 A 
BRANCH  44  47
ATOM     47  O   UNL     1      96.160  89.917  89.860  1.00  0.00    -0.493 OA
ATOM     48  C   UNL     1      96.528  88.882  88.949  1.00  0.00     0.278 C 
ENDBRANCH  44  47
BRANCH  46  49
ATOM     49  O   UNL     1      94.541  92.175  89.810  1.00  0.00    -0.504 OA
ATOM     50  H   UNL     1      94.913  92.724  90.520  1.00  0.00     0.293 HD
ENDBRANCH  46  49
ENDBRANCH  40  41
ENDBRANCH  38  40
ENDBRANCH  37  38
ENDBRANCH   1  37
TORSDOF 11
ENDMDL
