MODEL 1
REMARK VINA RESULT:    -8.043      0.000      0.000
REMARK INTER + INTRA:          -9.637
REMARK INTER:                  -9.453
REMARK INTRA:                  -0.184
REMARK UNBOUND:                -0.184
REMARK SMILES O=C(/C=C/C=C/c1ccc2c(c1)OCO2)N1CCCCC1
REMARK SMILES IDX 3 1 4 2 2 3 1 4 16 5 17 6 21 7 18 8 20 9 19 10 5 11 6 12
REMARK SMILES IDX 7 13 12 14 8 15 11 16 9 17 13 18 10 19 14 20 15 21
REMARK H PARENT
REMARK Flexibility Score: inf
ROOT
ATOM      1  C   UNL     1      96.004  84.029  83.301  1.00  0.00     0.071 C 
ATOM      2  C   UNL     1      96.626  83.183  82.483  1.00  0.00     0.006 C 
ENDROOT
BRANCH   1   3
ATOM      3  C   UNL     1      95.902  83.667  84.729  1.00  0.00     0.246 C 
ATOM      4  O   UNL     1      96.705  84.185  85.506  1.00  0.00    -0.270 OA
ATOM      5  N   UNL     1      94.909  82.761  85.100  1.00  0.00    -0.339 N 
ATOM      6  C   UNL     1      94.787  82.378  86.510  1.00  0.00     0.120 C 
ATOM      7  C   UNL     1      93.964  82.090  84.196  1.00  0.00     0.120 C 
ATOM      8  C   UNL     1      93.364  82.575  87.019  1.00  0.00     0.022 C 
ATOM      9  C   UNL     1      92.523  82.262  84.676  1.00  0.00     0.022 C 
ATOM     10  C   UNL     1      92.360  81.843  86.135  1.00  0.00     0.004 C 
ENDBRANCH   1   3
BRANCH   2  11
ATOM     11  C   UNL     1      96.775  83.450  81.068  1.00  0.00     0.001 C 
ATOM     12  C   UNL     1      97.204  82.524  80.195  1.00  0.00     0.008 C 
BRANCH  12  13
ATOM     13  C   UNL     1      97.382  82.745  78.750  1.00  0.00    -0.022 A 
ATOM     14  C   UNL     1      96.659  83.753  78.126  1.00  0.00     0.058 A 
ATOM     15  C   UNL     1      98.274  81.932  78.046  1.00  0.00     0.012 A 
ATOM     16  C   UNL     1      96.860  83.921  76.772  1.00  0.00     0.166 A 
ATOM     17  C   UNL     1      98.458  82.124  76.674  1.00  0.00     0.051 A 
ATOM     18  O   UNL     1      96.249  84.847  75.983  1.00  0.00    -0.454 OA
ATOM     19  C   UNL     1      97.736  83.128  76.065  1.00  0.00     0.165 A 
ATOM     20  C   UNL     1      96.839  84.549  74.701  1.00  0.00     0.468 C 
ATOM     21  O   UNL     1      97.783  83.459  74.745  1.00  0.00    -0.454 OA
ENDBRANCH  12  13
ENDBRANCH   2  11
TORSDOF 3
ENDMDL
MODEL 2
REMARK VINA RESULT:    -7.679      3.519      9.482
REMARK INTER + INTRA:          -9.209
REMARK INTER:                  -8.811
REMARK INTRA:                  -0.399
REMARK UNBOUND:                -0.184
REMARK SMILES O=C(/C=C/C=C/c1ccc2c(c1)OCO2)N1CCCCC1
REMARK SMILES IDX 3 1 4 2 2 3 1 4 16 5 17 6 21 7 18 8 20 9 19 10 5 11 6 12
REMARK SMILES IDX 7 13 12 14 8 15 11 16 9 17 13 18 10 19 14 20 15 21
REMARK H PARENT
REMARK Flexibility Score: inf
ROOT
ATOM      1  C   UNL     1      97.586  83.916  76.968  1.00  0.00     0.071 C 
ATOM      2  C   UNL     1      96.483  83.869  77.712  1.00  0.00     0.006 C 
ENDROOT
BRANCH   1   3
ATOM      3  C   UNL     1      97.451  84.294  75.547  1.00  0.00     0.246 C 
ATOM      4  O   UNL     1      96.327  84.592  75.143  1.00  0.00    -0.270 OA
ATOM      5  N   UNL     1      98.601  84.284  74.760  1.00  0.00    -0.339 N 
ATOM      6  C   UNL     1      98.497  84.649  73.344  1.00  0.00     0.120 C 
ATOM      7  C   UNL     1      99.949  83.891  75.196  1.00  0.00     0.120 C 
ATOM      8  C   UNL     1      99.493  85.743  72.976  1.00  0.00     0.022 C 
ATOM      9  C   UNL     1     100.980  84.963  74.841  1.00  0.00     0.022 C 
ATOM     10  C   UNL     1     100.913  85.343  73.365  1.00  0.00     0.004 C 
ENDBRANCH   1   3
BRANCH   2  11
ATOM     11  C   UNL     1      96.514  83.509  79.113  1.00  0.00     0.001 C 
ATOM     12  C   UNL     1      97.527  82.820  79.664  1.00  0.00     0.008 C 
BRANCH  12  13
ATOM     13  C   UNL     1      97.606  82.421  81.079  1.00  0.00    -0.022 A 
ATOM     14  C   UNL     1      98.637  81.586  81.490  1.00  0.00     0.058 A 
ATOM     15  C   UNL     1      96.640  82.894  81.971  1.00  0.00     0.012 A 
ATOM     16  C   UNL     1      98.668  81.241  82.825  1.00  0.00     0.166 A 
ATOM     17  C   UNL     1      96.696  82.528  83.318  1.00  0.00     0.051 A 
ATOM     18  O   UNL     1      99.592  80.436  83.419  1.00  0.00    -0.454 OA
ATOM     19  C   UNL     1      97.724  81.699  83.715  1.00  0.00     0.165 A 
ATOM     20  C   UNL     1      99.123  80.440  84.783  1.00  0.00     0.468 C 
ATOM     21  O   UNL     1      97.938  81.239  84.978  1.00  0.00    -0.454 OA
ENDBRANCH  12  13
ENDBRANCH   2  11
TORSDOF 3
ENDMDL
MODEL 3
REMARK VINA RESULT:    -7.421      1.737      2.597
REMARK INTER + INTRA:          -8.906
REMARK INTER:                  -8.479
REMARK INTRA:                  -0.427
REMARK UNBOUND:                -0.184
REMARK SMILES O=C(/C=C/C=C/c1ccc2c(c1)OCO2)N1CCCCC1
REMARK SMILES IDX 3 1 4 2 2 3 1 4 16 5 17 6 21 7 18 8 20 9 19 10 5 11 6 12
REMARK SMILES IDX 7 13 12 14 8 15 11 16 9 17 13 18 10 19 14 20 15 21
REMARK H PARENT
REMARK Flexibility Score: inf
ROOT
ATOM      1  C   UNL     1      95.907  82.260  83.189  1.00  0.00     0.071 C 
ATOM      2  C   UNL     1      96.622  81.350  82.530  1.00  0.00     0.006 C 
ENDROOT
BRANCH   1   3
ATOM      3  C   UNL     1      95.522  81.965  84.584  1.00  0.00     0.246 C 
ATOM      4  O   UNL     1      94.588  81.183  84.763  1.00  0.00    -0.270 OA
ATOM      5  N   UNL     1      96.238  82.592  85.602  1.00  0.00    -0.339 N 
ATOM      6  C   UNL     1      95.875  82.323  86.997  1.00  0.00     0.120 C 
ATOM      7  C   UNL     1      97.328  83.564  85.427  1.00  0.00     0.120 C 
ATOM      8  C   UNL     1      97.087  81.886  87.813  1.00  0.00     0.022 C 
ATOM      9  C   UNL     1      98.562  83.162  86.234  1.00  0.00     0.022 C 
ATOM     10  C   UNL     1      98.218  82.902  87.698  1.00  0.00     0.004 C 
ENDBRANCH   1   3
BRANCH   2  11
ATOM     11  C   UNL     1      97.046  81.549  81.160  1.00  0.00     0.001 C 
ATOM     12  C   UNL     1      96.884  82.713  80.512  1.00  0.00     0.008 C 
BRANCH  12  13
ATOM     13  C   UNL     1      97.288  82.967  79.119  1.00  0.00    -0.022 A 
ATOM     14  C   UNL     1      96.464  83.732  78.305  1.00  0.00     0.058 A 
ATOM     15  C   UNL     1      98.492  82.430  78.654  1.00  0.00     0.012 A 
ATOM     16  C   UNL     1      96.886  83.943  77.008  1.00  0.00     0.166 A 
ATOM     17  C   UNL     1      98.894  82.659  77.337  1.00  0.00     0.051 A 
ATOM     18  O   UNL     1      96.223  84.660  76.059  1.00  0.00    -0.454 OA
ATOM     19  C   UNL     1      98.069  83.421  76.536  1.00  0.00     0.165 A 
ATOM     20  C   UNL     1      97.122  84.531  74.939  1.00  0.00     0.468 C 
ATOM     21  O   UNL     1      98.295  83.745  75.234  1.00  0.00    -0.454 OA
ENDBRANCH  12  13
ENDBRANCH   2  11
TORSDOF 3
ENDMDL
MODEL 4
REMARK VINA RESULT:    -7.351      3.104      9.477
REMARK INTER + INTRA:          -8.825
REMARK INTER:                  -8.504
REMARK INTRA:                  -0.320
REMARK UNBOUND:                -0.184
REMARK SMILES O=C(/C=C/C=C/c1ccc2c(c1)OCO2)N1CCCCC1
REMARK SMILES IDX 3 1 4 2 2 3 1 4 16 5 17 6 21 7 18 8 20 9 19 10 5 11 6 12
REMARK SMILES IDX 7 13 12 14 8 15 11 16 9 17 13 18 10 19 14 20 15 21
REMARK H PARENT
REMARK Flexibility Score: inf
ROOT
ATOM      1  C   UNL     1      97.807  83.394  77.562  1.00  0.00     0.071 C 
ATOM      2  C   UNL     1      97.016  83.539  78.624  1.00  0.00     0.006 C 
ENDROOT
BRANCH   1   3
ATOM      3  C   UNL     1      97.324  83.900  76.262  1.00  0.00     0.246 C 
ATOM      4  O   UNL     1      96.302  84.586  76.263  1.00  0.00    -0.270 OA
ATOM      5  N   UNL     1      98.053  83.562  75.122  1.00  0.00    -0.339 N 
ATOM      6  C   UNL     1      97.595  84.046  73.816  1.00  0.00     0.120 C 
ATOM      7  C   UNL     1      99.250  82.709  75.077  1.00  0.00     0.120 C 
ATOM      8  C   UNL     1      98.710  84.767  73.067  1.00  0.00     0.022 C 
ATOM      9  C   UNL     1     100.391  83.397  74.329  1.00  0.00     0.022 C 
ATOM     10  C   UNL     1      99.950  83.886  72.952  1.00  0.00     0.004 C 
ENDBRANCH   1   3
BRANCH   2  11
ATOM     11  C   UNL     1      97.402  83.075  79.940  1.00  0.00     0.001 C 
ATOM     12  C   UNL     1      96.654  83.290  81.034  1.00  0.00     0.008 C 
BRANCH  12  13
ATOM     13  C   UNL     1      97.002  82.848  82.395  1.00  0.00    -0.022 A 
ATOM     14  C   UNL     1      96.550  83.585  83.481  1.00  0.00     0.058 A 
ATOM     15  C   UNL     1      97.778  81.698  82.556  1.00  0.00     0.012 A 
ATOM     16  C   UNL     1      96.901  83.132  84.735  1.00  0.00     0.166 A 
ATOM     17  C   UNL     1      98.120  81.261  83.838  1.00  0.00     0.051 A 
ATOM     18  O   UNL     1      96.559  83.712  85.919  1.00  0.00    -0.454 OA
ATOM     19  C   UNL     1      97.665  82.001  84.910  1.00  0.00     0.165 A 
ATOM     20  C   UNL     1      97.194  82.819  86.856  1.00  0.00     0.468 C 
ATOM     21  O   UNL     1      97.898  81.731  86.223  1.00  0.00    -0.454 OA
ENDBRANCH  12  13
ENDBRANCH   2  11
TORSDOF 3
ENDMDL
MODEL 5
REMARK VINA RESULT:    -7.213     13.521     15.163
REMARK INTER + INTRA:          -8.662
REMARK INTER:                  -8.274
REMARK INTRA:                  -0.387
REMARK UNBOUND:                -0.184
REMARK SMILES O=C(/C=C/C=C/c1ccc2c(c1)OCO2)N1CCCCC1
REMARK SMILES IDX 3 1 4 2 2 3 1 4 16 5 17 6 21 7 18 8 20 9 19 10 5 11 6 12
REMARK SMILES IDX 7 13 12 14 8 15 11 16 9 17 13 18 10 19 14 20 15 21
REMARK H PARENT
REMARK Flexibility Score: inf
ROOT
ATOM      1  C   UNL     1      95.264  98.051  78.352  1.00  0.00     0.071 C 
ATOM      2  C   UNL     1      95.612  96.782  78.152  1.00  0.00     0.006 C 
ENDROOT
BRANCH   1   3
ATOM      3  C   UNL     1      96.321  99.012  78.725  1.00  0.00     0.246 C 
ATOM      4  O   UNL     1      97.075  99.403  77.833  1.00  0.00    -0.270 OA
ATOM      5  N   UNL     1      96.399  99.406  80.060  1.00  0.00    -0.339 N 
ATOM      6  C   UNL     1      97.442 100.354  80.462  1.00  0.00     0.120 C 
ATOM      7  C   UNL     1      95.548  98.927  81.159  1.00  0.00     0.120 C 
ATOM      8  C   UNL     1      96.854 101.545  81.211  1.00  0.00     0.022 C 
ATOM      9  C   UNL     1      94.941 100.093  81.938  1.00  0.00     0.022 C 
ATOM     10  C   UNL     1      96.009 101.083  82.394  1.00  0.00     0.004 C 
ENDBRANCH   1   3
BRANCH   2  11
ATOM     11  C   UNL     1      94.647  95.768  77.784  1.00  0.00     0.001 C 
ATOM     12  C   UNL     1      93.426  96.064  77.312  1.00  0.00     0.008 C 
BRANCH  12  13
ATOM     13  C   UNL     1      92.404  95.074  76.931  1.00  0.00    -0.022 A 
ATOM     14  C   UNL     1      92.281  94.711  75.597  1.00  0.00     0.058 A 
ATOM     15  C   UNL     1      91.587  94.528  77.923  1.00  0.00     0.012 A 
ATOM     16  C   UNL     1      91.310  93.780  75.289  1.00  0.00     0.166 A 
ATOM     17  C   UNL     1      90.612  93.587  77.584  1.00  0.00     0.051 A 
ATOM     18  O   UNL     1      91.032  93.297  74.047  1.00  0.00    -0.454 OA
ATOM     19  C   UNL     1      90.498  93.233  76.256  1.00  0.00     0.165 A 
ATOM     20  C   UNL     1      89.955  92.385  74.341  1.00  0.00     0.468 C 
ATOM     21  O   UNL     1      89.610  92.339  75.740  1.00  0.00    -0.454 OA
ENDBRANCH  12  13
ENDBRANCH   2  11
TORSDOF 3
ENDMDL
MODEL 6
REMARK VINA RESULT:    -7.170      2.762      9.198
REMARK INTER + INTRA:          -8.611
REMARK INTER:                  -8.284
REMARK INTRA:                  -0.327
REMARK UNBOUND:                -0.184
REMARK SMILES O=C(/C=C/C=C/c1ccc2c(c1)OCO2)N1CCCCC1
REMARK SMILES IDX 3 1 4 2 2 3 1 4 16 5 17 6 21 7 18 8 20 9 19 10 5 11 6 12
REMARK SMILES IDX 7 13 12 14 8 15 11 16 9 17 13 18 10 19 14 20 15 21
REMARK H PARENT
REMARK Flexibility Score: inf
ROOT
ATOM      1  C   UNL     1      97.398  82.436  78.175  1.00  0.00     0.071 C 
ATOM      2  C   UNL     1      97.819  82.947  79.331  1.00  0.00     0.006 C 
ENDROOT
BRANCH   1   3
ATOM      3  C   UNL     1      98.402  82.179  77.123  1.00  0.00     0.246 C 
ATOM      4  O   UNL     1      99.126  81.191  77.257  1.00  0.00    -0.270 OA
ATOM      5  N   UNL     1      98.467  83.071  76.055  1.00  0.00    -0.339 N 
ATOM      6  C   UNL     1      99.457  82.845  74.998  1.00  0.00     0.120 C 
ATOM      7  C   UNL     1      97.652  84.284  75.884  1.00  0.00     0.120 C 
ATOM      8  C   UNL     1      98.807  82.836  73.618  1.00  0.00     0.022 C 
ATOM      9  C   UNL     1      96.985  84.313  74.509  1.00  0.00     0.022 C 
ATOM     10  C   UNL     1      97.999  84.108  73.387  1.00  0.00     0.004 C 
ENDBRANCH   1   3
BRANCH   2  11
ATOM     11  C   UNL     1      96.911  83.234  80.421  1.00  0.00     0.001 C 
ATOM     12  C   UNL     1      97.122  82.803  81.675  1.00  0.00     0.008 C 
BRANCH  12  13
ATOM     13  C   UNL     1      96.229  83.058  82.818  1.00  0.00    -0.022 A 
ATOM     14  C   UNL     1      95.503  82.005  83.356  1.00  0.00     0.058 A 
ATOM     15  C   UNL     1      96.136  84.355  83.328  1.00  0.00     0.012 A 
ATOM     16  C   UNL     1      94.680  82.294  84.426  1.00  0.00     0.166 A 
ATOM     17  C   UNL     1      95.295  84.620  84.412  1.00  0.00     0.051 A 
ATOM     18  O   UNL     1      93.891  81.404  85.089  1.00  0.00    -0.454 OA
ATOM     19  C   UNL     1      94.579  83.566  84.940  1.00  0.00     0.165 A 
ATOM     20  C   UNL     1      93.282  82.260  86.077  1.00  0.00     0.468 C 
ATOM     21  O   UNL     1      93.714  83.633  85.988  1.00  0.00    -0.454 OA
ENDBRANCH  12  13
ENDBRANCH   2  11
TORSDOF 3
ENDMDL
MODEL 7
REMARK VINA RESULT:    -7.157     23.261     24.173
REMARK INTER + INTRA:          -8.596
REMARK INTER:                  -8.222
REMARK INTRA:                  -0.374
REMARK UNBOUND:                -0.184
REMARK SMILES O=C(/C=C/C=C/c1ccc2c(c1)OCO2)N1CCCCC1
REMARK SMILES IDX 3 1 4 2 2 3 1 4 16 5 17 6 21 7 18 8 20 9 19 10 5 11 6 12
REMARK SMILES IDX 7 13 12 14 8 15 11 16 9 17 13 18 10 19 14 20 15 21
REMARK H PARENT
REMARK Flexibility Score: inf
ROOT
ATOM      1  C   UNL     1      83.551  67.115  73.407  1.00  0.00     0.071 C 
ATOM      2  C   UNL     1      82.585  66.341  73.897  1.00  0.00     0.006 C 
ENDROOT
BRANCH   1   3
ATOM      3  C   UNL     1      84.474  67.763  74.360  1.00  0.00     0.246 C 
ATOM      4  O   UNL     1      84.482  67.344  75.518  1.00  0.00    -0.270 OA
ATOM      5  N   UNL     1      85.269  68.806  73.888  1.00  0.00    -0.339 N 
ATOM      6  C   UNL     1      86.191  69.472  74.812  1.00  0.00     0.120 C 
ATOM      7  C   UNL     1      85.255  69.362  72.526  1.00  0.00     0.120 C 
ATOM      8  C   UNL     1      87.611  69.504  74.257  1.00  0.00     0.022 C 
ATOM      9  C   UNL     1      86.663  69.414  71.935  1.00  0.00     0.022 C 
ATOM     10  C   UNL     1      87.640  70.128  72.865  1.00  0.00     0.004 C 
ENDBRANCH   1   3
BRANCH   2  11
ATOM     11  C   UNL     1      81.632  65.665  73.043  1.00  0.00     0.001 C 
ATOM     12  C   UNL     1      81.661  65.762  71.704  1.00  0.00     0.008 C 
BRANCH  12  13
ATOM     13  C   UNL     1      80.713  65.102  70.790  1.00  0.00    -0.022 A 
ATOM     14  C   UNL     1      79.486  65.703  70.540  1.00  0.00     0.058 A 
ATOM     15  C   UNL     1      81.075  63.890  70.197  1.00  0.00     0.012 A 
ATOM     16  C   UNL     1      78.633  65.047  69.677  1.00  0.00     0.166 A 
ATOM     17  C   UNL     1      80.191  63.248  69.327  1.00  0.00     0.051 A 
ATOM     18  O   UNL     1      77.392  65.470  69.308  1.00  0.00    -0.454 OA
ATOM     19  C   UNL     1      78.975  63.853  69.086  1.00  0.00     0.165 A 
ATOM     20  C   UNL     1      76.993  64.407  68.418  1.00  0.00     0.468 C 
ATOM     21  O   UNL     1      77.993  63.377  68.273  1.00  0.00    -0.454 OA
ENDBRANCH  12  13
ENDBRANCH   2  11
TORSDOF 3
ENDMDL
MODEL 8
REMARK VINA RESULT:    -7.116     13.339     15.661
REMARK INTER + INTRA:          -8.548
REMARK INTER:                  -8.165
REMARK INTRA:                  -0.383
REMARK UNBOUND:                -0.184
REMARK SMILES O=C(/C=C/C=C/c1ccc2c(c1)OCO2)N1CCCCC1
REMARK SMILES IDX 3 1 4 2 2 3 1 4 16 5 17 6 21 7 18 8 20 9 19 10 5 11 6 12
REMARK SMILES IDX 7 13 12 14 8 15 11 16 9 17 13 18 10 19 14 20 15 21
REMARK H PARENT
REMARK Flexibility Score: inf
ROOT
ATOM      1  C   UNL     1      93.226  96.498  76.415  1.00  0.00     0.071 C 
ATOM      2  C   UNL     1      94.460  96.310  76.878  1.00  0.00     0.006 C 
ENDROOT
BRANCH   1   3
ATOM      3  C   UNL     1      92.714  95.556  75.401  1.00  0.00     0.246 C 
ATOM      4  O   UNL     1      93.373  95.417  74.369  1.00  0.00    -0.270 OA
ATOM      5  N   UNL     1      91.519  94.892  75.675  1.00  0.00    -0.339 N 
ATOM      6  C   UNL     1      90.983  93.954  74.684  1.00  0.00     0.120 C 
ATOM      7  C   UNL     1      90.684  95.065  76.872  1.00  0.00     0.120 C 
ATOM      8  C   UNL     1      90.691  92.593  75.306  1.00  0.00     0.022 C 
ATOM      9  C   UNL     1      90.365  93.719  77.524  1.00  0.00     0.022 C 
ATOM     10  C   UNL     1      89.778  92.731  76.520  1.00  0.00     0.004 C 
ENDBRANCH   1   3
BRANCH   2  11
ATOM     11  C   UNL     1      95.050  97.181  77.873  1.00  0.00     0.001 C 
ATOM     12  C   UNL     1      95.359  96.765  79.112  1.00  0.00     0.008 C 
BRANCH  12  13
ATOM     13  C   UNL     1      95.951  97.608  80.163  1.00  0.00    -0.022 A 
ATOM     14  C   UNL     1      96.856  97.045  81.052  1.00  0.00     0.058 A 
ATOM     15  C   UNL     1      95.585  98.955  80.238  1.00  0.00     0.012 A 
ATOM     16  C   UNL     1      97.384  97.875  82.019  1.00  0.00     0.166 A 
ATOM     17  C   UNL     1      96.135  99.773  81.227  1.00  0.00     0.051 A 
ATOM     18  O   UNL     1      98.281  97.515  82.978  1.00  0.00    -0.454 OA
ATOM     19  C   UNL     1      97.033  99.203  82.105  1.00  0.00     0.165 A 
ATOM     20  C   UNL     1      98.455  98.765  83.676  1.00  0.00     0.468 C 
ATOM     21  O   UNL     1      97.666  99.841  83.127  1.00  0.00    -0.454 OA
ENDBRANCH  12  13
ENDBRANCH   2  11
TORSDOF 3
ENDMDL
MODEL 9
REMARK VINA RESULT:    -6.913      2.527      3.602
REMARK INTER + INTRA:          -8.310
REMARK INTER:                  -7.992
REMARK INTRA:                  -0.318
REMARK UNBOUND:                -0.184
REMARK SMILES O=C(/C=C/C=C/c1ccc2c(c1)OCO2)N1CCCCC1
REMARK SMILES IDX 3 1 4 2 2 3 1 4 16 5 17 6 21 7 18 8 20 9 19 10 5 11 6 12
REMARK SMILES IDX 7 13 12 14 8 15 11 16 9 17 13 18 10 19 14 20 15 21
REMARK H PARENT
REMARK Flexibility Score: inf
ROOT
ATOM      1  C   UNL     1      97.383  82.287  81.369  1.00  0.00     0.071 C 
ATOM      2  C   UNL     1      96.985  83.185  80.470  1.00  0.00     0.006 C 
ENDROOT
BRANCH   1   3
ATOM      3  C   UNL     1      96.885  82.422  82.752  1.00  0.00     0.246 C 
ATOM      4  O   UNL     1      95.891  83.126  82.934  1.00  0.00    -0.270 OA
ATOM      5  N   UNL     1      97.574  81.748  83.759  1.00  0.00    -0.339 N 
ATOM      6  C   UNL     1      97.107  81.867  85.144  1.00  0.00     0.120 C 
ATOM      7  C   UNL     1      98.788  80.936  83.588  1.00  0.00     0.120 C 
ATOM      8  C   UNL     1      96.901  80.498  85.782  1.00  0.00     0.022 C 
ATOM      9  C   UNL     1      98.623  79.554  84.220  1.00  0.00     0.022 C 
ATOM     10  C   UNL     1      98.164  79.648  85.672  1.00  0.00     0.004 C 
ENDBRANCH   1   3
BRANCH   2  11
ATOM     11  C   UNL     1      97.419  83.136  79.090  1.00  0.00     0.001 C 
ATOM     12  C   UNL     1      96.739  83.726  78.093  1.00  0.00     0.008 C 
BRANCH  12  13
ATOM     13  C   UNL     1      97.131  83.701  76.674  1.00  0.00    -0.022 A 
ATOM     14  C   UNL     1      98.033  82.741  76.239  1.00  0.00     0.058 A 
ATOM     15  C   UNL     1      96.583  84.647  75.803  1.00  0.00     0.012 A 
ATOM     16  C   UNL     1      98.369  82.757  74.900  1.00  0.00     0.166 A 
ATOM     17  C   UNL     1      96.940  84.641  74.453  1.00  0.00     0.051 A 
ATOM     18  O   UNL     1      99.232  81.904  74.283  1.00  0.00    -0.454 OA
ATOM     19  C   UNL     1      97.837  83.682  74.031  1.00  0.00     0.165 A 
ATOM     20  C   UNL     1      99.183  82.396  72.929  1.00  0.00     0.468 C 
ATOM     21  O   UNL     1      98.300  83.524  72.761  1.00  0.00    -0.454 OA
ENDBRANCH  12  13
ENDBRANCH   2  11
TORSDOF 3
ENDMDL
MODEL 10
REMARK VINA RESULT:    -6.836      6.181      9.066
REMARK INTER + INTRA:          -8.219
REMARK INTER:                  -7.839
REMARK INTRA:                  -0.381
REMARK UNBOUND:                -0.184
REMARK SMILES O=C(/C=C/C=C/c1ccc2c(c1)OCO2)N1CCCCC1
REMARK SMILES IDX 3 1 4 2 2 3 1 4 16 5 17 6 21 7 18 8 20 9 19 10 5 11 6 12
REMARK SMILES IDX 7 13 12 14 8 15 11 16 9 17 13 18 10 19 14 20 15 21
REMARK H PARENT
REMARK Flexibility Score: inf
ROOT
ATOM      1  C   UNL     1      93.012  88.206  88.753  1.00  0.00     0.071 C 
ATOM      2  C   UNL     1      92.801  86.929  89.067  1.00  0.00     0.006 C 
ENDROOT
BRANCH   1   3
ATOM      3  C   UNL     1      92.496  89.242  89.670  1.00  0.00     0.246 C 
ATOM      4  O   UNL     1      91.848  88.864  90.647  1.00  0.00    -0.270 OA
ATOM      5  N   UNL     1      92.772  90.574  89.367  1.00  0.00    -0.339 N 
ATOM      6  C   UNL     1      92.268  91.625  90.256  1.00  0.00     0.120 C 
ATOM      7  C   UNL     1      93.503  91.064  88.189  1.00  0.00     0.120 C 
ATOM      8  C   UNL     1      93.386  92.563  90.700  1.00  0.00     0.022 C 
ATOM      9  C   UNL     1      94.631  92.012  88.592  1.00  0.00     0.022 C 
ATOM     10  C   UNL     1      94.129  93.134  89.497  1.00  0.00     0.004 C 
ENDBRANCH   1   3
BRANCH   2  11
ATOM     11  C   UNL     1      93.268  85.844  88.231  1.00  0.00     0.001 C 
ATOM     12  C   UNL     1      93.354  85.941  86.894  1.00  0.00     0.008 C 
BRANCH  12  13
ATOM     13  C   UNL     1      93.813  84.868  85.997  1.00  0.00    -0.022 A 
ATOM     14  C   UNL     1      94.874  85.114  85.136  1.00  0.00     0.058 A 
ATOM     15  C   UNL     1      93.168  83.629  86.037  1.00  0.00     0.012 A 
ATOM     16  C   UNL     1      95.268  84.078  84.315  1.00  0.00     0.166 A 
ATOM     17  C   UNL     1      93.588  82.597  85.195  1.00  0.00     0.051 A 
ATOM     18  O   UNL     1      96.281  84.121  83.406  1.00  0.00    -0.454 OA
ATOM     19  C   UNL     1      94.643  82.852  84.344  1.00  0.00     0.165 A 
ATOM     20  C   UNL     1      96.222  82.785  82.866  1.00  0.00     0.468 C 
ATOM     21  O   UNL     1      95.185  81.974  83.456  1.00  0.00    -0.454 OA
ENDBRANCH  12  13
ENDBRANCH   2  11
TORSDOF 3
ENDMDL
