MODEL 1
REMARK VINA RESULT:    -5.691      0.000      0.000
REMARK INTER + INTRA:         -10.484
REMARK INTER:                  -9.351
REMARK INTRA:                  -1.133
REMARK UNBOUND:                -1.133
REMARK SMILES CCCCC[C@H](O)CC(=O)CCc1ccc(O)c(OC)c1
REMARK SMILES IDX 8 1 6 2 7 3 5 5 4 6 3 7 2 8 1 9 9 10 10 11 11 12 12 13 13 14
REMARK SMILES IDX 21 15 14 16 18 17 15 18 16 19 19 20 20 21 17 22
REMARK H PARENT 7 4 17 23
REMARK Flexibility Score: inf
ROOT
ATOM      1  C   UNL     1      76.836  84.573  67.378  1.00  0.00     0.107 C 
ENDROOT
BRANCH   1   2
ATOM      2  C   UNL     1      78.013  85.405  67.894  1.00  0.00     0.121 C 
BRANCH   2   3
ATOM      3  O   UNL     1      78.119  86.611  67.141  1.00  0.00    -0.393 OA
ATOM      4  H   UNL     1      78.886  86.525  66.548  1.00  0.00     0.210 HD
ENDBRANCH   2   3
BRANCH   2   5
ATOM      5  C   UNL     1      77.897  85.748  69.384  1.00  0.00     0.032 C 
BRANCH   5   6
ATOM      6  C   UNL     1      76.509  85.419  69.946  1.00  0.00     0.003 C 
BRANCH   6   7
ATOM      7  C   UNL     1      75.670  86.663  70.257  1.00  0.00    -0.000 C 
BRANCH   7   8
ATOM      8  C   UNL     1      76.392  87.977  69.966  1.00  0.00    -0.003 C 
ATOM      9  C   UNL     1      75.569  89.173  70.417  1.00  0.00     0.004 C 
ENDBRANCH   7   8
ENDBRANCH   6   7
ENDBRANCH   5   6
ENDBRANCH   2   5
ENDBRANCH   1   2
BRANCH   1  10
ATOM     10  C   UNL     1      76.779  84.498  65.861  1.00  0.00     0.135 C 
ATOM     11  O   UNL     1      76.178  85.350  65.207  1.00  0.00    -0.300 OA
BRANCH  10  12
ATOM     12  C   UNL     1      77.536  83.352  65.206  1.00  0.00     0.080 C 
BRANCH  12  13
ATOM     13  C   UNL     1      77.065  81.968  65.655  1.00  0.00     0.043 C 
BRANCH  13  14
ATOM     14  C   UNL     1      75.822  81.503  64.934  1.00  0.00    -0.044 A 
ATOM     15  C   UNL     1      74.592  81.503  65.592  1.00  0.00     0.054 A 
ATOM     16  C   UNL     1      75.905  81.074  63.609  1.00  0.00     0.008 A 
ATOM     17  C   UNL     1      73.445  81.074  64.925  1.00  0.00     0.160 A 
ATOM     18  C   UNL     1      74.757  80.645  62.942  1.00  0.00     0.050 A 
ATOM     19  C   UNL     1      73.528  80.645  63.600  1.00  0.00     0.157 A 
BRANCH  17  20
ATOM     20  O   UNL     1      72.249  81.078  65.578  1.00  0.00    -0.493 OA
ATOM     21  C   UNL     1      71.920  82.251  66.320  1.00  0.00     0.278 C 
ENDBRANCH  17  20
BRANCH  19  22
ATOM     22  O   UNL     1      72.414  80.224  62.938  1.00  0.00    -0.504 OA
ATOM     23  H   UNL     1      72.284  80.780  62.150  1.00  0.00     0.293 HD
ENDBRANCH  19  22
ENDBRANCH  13  14
ENDBRANCH  12  13
ENDBRANCH  10  12
ENDBRANCH   1  10
TORSDOF 12
ENDMDL
MODEL 2
REMARK VINA RESULT:    -5.683      2.005      5.992
REMARK INTER + INTRA:         -10.470
REMARK INTER:                  -8.592
REMARK INTRA:                  -1.878
REMARK UNBOUND:                -1.133
REMARK SMILES CCCCC[C@H](O)CC(=O)CCc1ccc(O)c(OC)c1
REMARK SMILES IDX 8 1 6 2 7 3 5 5 4 6 3 7 2 8 1 9 9 10 10 11 11 12 12 13 13 14
REMARK SMILES IDX 21 15 14 16 18 17 15 18 16 19 19 20 20 21 17 22
REMARK H PARENT 7 4 17 23
REMARK Flexibility Score: inf
ROOT
ATOM      1  C   UNL     1      76.100  81.377  63.812  1.00  0.00     0.107 C 
ENDROOT
BRANCH   1   2
ATOM      2  C   UNL     1      75.863  82.616  62.945  1.00  0.00     0.121 C 
BRANCH   2   3
ATOM      3  O   UNL     1      74.602  83.197  63.267  1.00  0.00    -0.393 OA
ATOM      4  H   UNL     1      74.158  83.427  62.432  1.00  0.00     0.210 HD
ENDBRANCH   2   3
BRANCH   2   5
ATOM      5  C   UNL     1      76.961  83.675  63.099  1.00  0.00     0.032 C 
BRANCH   5   6
ATOM      6  C   UNL     1      76.541  84.808  64.043  1.00  0.00     0.003 C 
BRANCH   6   7
ATOM      7  C   UNL     1      76.185  86.106  63.312  1.00  0.00    -0.000 C 
BRANCH   7   8
ATOM      8  C   UNL     1      76.263  87.348  64.198  1.00  0.00    -0.003 C 
ATOM      9  C   UNL     1      76.873  87.026  65.553  1.00  0.00     0.004 C 
ENDBRANCH   7   8
ENDBRANCH   6   7
ENDBRANCH   5   6
ENDBRANCH   2   5
ENDBRANCH   1   2
BRANCH   1  10
ATOM     10  C   UNL     1      74.928  81.056  64.725  1.00  0.00     0.135 C 
ATOM     11  O   UNL     1      73.878  80.602  64.271  1.00  0.00    -0.300 OA
BRANCH  10  12
ATOM     12  C   UNL     1      75.142  81.281  66.214  1.00  0.00     0.080 C 
BRANCH  12  13
ATOM     13  C   UNL     1      74.709  82.667  66.695  1.00  0.00     0.043 C 
BRANCH  13  14
ATOM     14  C   UNL     1      75.838  83.459  67.311  1.00  0.00    -0.044 A 
ATOM     15  C   UNL     1      75.559  84.494  68.203  1.00  0.00     0.054 A 
ATOM     16  C   UNL     1      77.161  83.155  66.986  1.00  0.00     0.008 A 
ATOM     17  C   UNL     1      76.603  85.225  68.771  1.00  0.00     0.160 A 
ATOM     18  C   UNL     1      78.204  83.885  67.555  1.00  0.00     0.050 A 
ATOM     19  C   UNL     1      77.925  84.920  68.447  1.00  0.00     0.157 A 
BRANCH  17  20
ATOM     20  O   UNL     1      76.318  86.234  69.640  1.00  0.00    -0.493 OA
ATOM     21  C   UNL     1      74.959  86.663  69.713  1.00  0.00     0.278 C 
ENDBRANCH  17  20
BRANCH  19  22
ATOM     22  O   UNL     1      78.953  85.627  68.995  1.00  0.00    -0.504 OA
ATOM     23  H   UNL     1      79.075  86.450  68.492  1.00  0.00     0.293 HD
ENDBRANCH  19  22
ENDBRANCH  13  14
ENDBRANCH  12  13
ENDBRANCH  10  12
ENDBRANCH   1  10
TORSDOF 12
ENDMDL
MODEL 3
REMARK VINA RESULT:    -5.580     21.302     25.261
REMARK INTER + INTRA:         -10.301
REMARK INTER:                  -8.719
REMARK INTRA:                  -1.581
REMARK UNBOUND:                -1.133
REMARK SMILES CCCCC[C@H](O)CC(=O)CCc1ccc(O)c(OC)c1
REMARK SMILES IDX 8 1 6 2 7 3 5 5 4 6 3 7 2 8 1 9 9 10 10 11 11 12 12 13 13 14
REMARK SMILES IDX 21 15 14 16 18 17 15 18 16 19 19 20 20 21 17 22
REMARK H PARENT 7 4 17 23
REMARK Flexibility Score: inf
ROOT
ATOM      1  C   UNL     1      94.811  95.534  81.195  1.00  0.00     0.107 C 
ENDROOT
BRANCH   1   2
ATOM      2  C   UNL     1      96.045  96.029  81.953  1.00  0.00     0.121 C 
BRANCH   2   3
ATOM      3  O   UNL     1      97.169  95.212  81.634  1.00  0.00    -0.393 OA
ATOM      4  H   UNL     1      96.854  94.295  81.542  1.00  0.00     0.210 HD
ENDBRANCH   2   3
BRANCH   2   5
ATOM      5  C   UNL     1      96.385  97.494  81.655  1.00  0.00     0.032 C 
BRANCH   5   6
ATOM      6  C   UNL     1      95.755  97.976  80.343  1.00  0.00     0.003 C 
BRANCH   6   7
ATOM      7  C   UNL     1      96.661  97.771  79.124  1.00  0.00    -0.000 C 
BRANCH   7   8
ATOM      8  C   UNL     1      96.075  98.325  77.826  1.00  0.00    -0.003 C 
ATOM      9  C   UNL     1      95.872  99.830  77.907  1.00  0.00     0.004 C 
ENDBRANCH   7   8
ENDBRANCH   6   7
ENDBRANCH   5   6
ENDBRANCH   2   5
ENDBRANCH   1   2
BRANCH   1  10
ATOM     10  C   UNL     1      94.884  94.058  80.838  1.00  0.00     0.135 C 
ATOM     11  O   UNL     1      94.850  93.193  81.713  1.00  0.00    -0.300 OA
BRANCH  10  12
ATOM     12  C   UNL     1      94.953  93.717  79.357  1.00  0.00     0.080 C 
BRANCH  12  13
ATOM     13  C   UNL     1      94.619  94.894  78.439  1.00  0.00     0.043 C 
BRANCH  13  14
ATOM     14  C   UNL     1      93.167  94.928  78.025  1.00  0.00    -0.044 A 
ATOM     15  C   UNL     1      92.551  93.774  77.541  1.00  0.00     0.054 A 
ATOM     16  C   UNL     1      92.441  96.115  78.128  1.00  0.00     0.008 A 
ATOM     17  C   UNL     1      91.210  93.807  77.160  1.00  0.00     0.160 A 
ATOM     18  C   UNL     1      91.099  96.148  77.747  1.00  0.00     0.050 A 
ATOM     19  C   UNL     1      90.484  94.994  77.263  1.00  0.00     0.157 A 
BRANCH  17  20
ATOM     20  O   UNL     1      90.620  92.673  76.688  1.00  0.00    -0.493 OA
ATOM     21  C   UNL     1      91.309  91.963  75.661  1.00  0.00     0.278 C 
ENDBRANCH  17  20
BRANCH  19  22
ATOM     22  O   UNL     1      89.173  95.038  76.894  1.00  0.00    -0.504 OA
ATOM     23  H   UNL     1      88.911  95.966  76.768  1.00  0.00     0.293 HD
ENDBRANCH  19  22
ENDBRANCH  13  14
ENDBRANCH  12  13
ENDBRANCH  10  12
ENDBRANCH   1  10
TORSDOF 12
ENDMDL
MODEL 4
REMARK VINA RESULT:    -5.547     25.336     27.961
REMARK INTER + INTRA:         -10.248
REMARK INTER:                  -9.283
REMARK INTRA:                  -0.965
REMARK UNBOUND:                -1.133
REMARK SMILES CCCCC[C@H](O)CC(=O)CCc1ccc(O)c(OC)c1
REMARK SMILES IDX 8 1 6 2 7 3 5 5 4 6 3 7 2 8 1 9 9 10 10 11 11 12 12 13 13 14
REMARK SMILES IDX 21 15 14 16 18 17 15 18 16 19 19 20 20 21 17 22
REMARK H PARENT 7 4 17 23
REMARK Flexibility Score: inf
ROOT
ATOM      1  C   UNL     1      98.887  82.864  78.551  1.00  0.00     0.107 C 
ENDROOT
BRANCH   1   2
ATOM      2  C   UNL     1      98.095  83.455  77.383  1.00  0.00     0.121 C 
BRANCH   2   3
ATOM      3  O   UNL     1      97.906  84.853  77.586  1.00  0.00    -0.393 OA
ATOM      4  H   UNL     1      98.439  85.117  78.355  1.00  0.00     0.210 HD
ENDBRANCH   2   3
BRANCH   2   5
ATOM      5  C   UNL     1      98.771  83.229  76.025  1.00  0.00     0.032 C 
BRANCH   5   6
ATOM      6  C   UNL     1      99.935  84.200  75.792  1.00  0.00     0.003 C 
BRANCH   6   7
ATOM      7  C   UNL     1     101.196  83.517  75.251  1.00  0.00    -0.000 C 
BRANCH   7   8
ATOM      8  C   UNL     1     102.395  83.613  76.192  1.00  0.00    -0.003 C 
ATOM      9  C   UNL     1     102.333  82.551  77.279  1.00  0.00     0.004 C 
ENDBRANCH   7   8
ENDBRANCH   6   7
ENDBRANCH   5   6
ENDBRANCH   2   5
ENDBRANCH   1   2
BRANCH   1  10
ATOM     10  C   UNL     1      98.313  83.236  79.909  1.00  0.00     0.135 C 
ATOM     11  O   UNL     1      97.144  83.605  80.022  1.00  0.00    -0.300 OA
BRANCH  10  12
ATOM     12  C   UNL     1      99.239  83.084  81.106  1.00  0.00     0.080 C 
BRANCH  12  13
ATOM     13  C   UNL     1      99.059  81.764  81.859  1.00  0.00     0.043 C 
BRANCH  13  14
ATOM     14  C   UNL     1      98.280  81.917  83.144  1.00  0.00    -0.044 A 
ATOM     15  C   UNL     1      97.727  83.152  83.482  1.00  0.00     0.054 A 
ATOM     16  C   UNL     1      98.114  80.822  83.992  1.00  0.00     0.008 A 
ATOM     17  C   UNL     1      97.007  83.291  84.668  1.00  0.00     0.160 A 
ATOM     18  C   UNL     1      97.394  80.962  85.179  1.00  0.00     0.050 A 
ATOM     19  C   UNL     1      96.841  82.197  85.517  1.00  0.00     0.157 A 
BRANCH  17  20
ATOM     20  O   UNL     1      96.472  84.503  84.988  1.00  0.00    -0.493 OA
ATOM     21  C   UNL     1      97.386  85.568  85.245  1.00  0.00     0.278 C 
ENDBRANCH  17  20
BRANCH  19  22
ATOM     22  O   UNL     1      96.140  82.321  86.678  1.00  0.00    -0.504 OA
ATOM     23  H   UNL     1      95.858  83.246  86.781  1.00  0.00     0.293 HD
ENDBRANCH  19  22
ENDBRANCH  13  14
ENDBRANCH  12  13
ENDBRANCH  10  12
ENDBRANCH   1  10
TORSDOF 12
ENDMDL
MODEL 5
REMARK VINA RESULT:    -5.541     11.381     14.760
REMARK INTER + INTRA:         -10.237
REMARK INTER:                  -8.896
REMARK INTRA:                  -1.340
REMARK UNBOUND:                -1.133
REMARK SMILES CCCCC[C@H](O)CC(=O)CCc1ccc(O)c(OC)c1
REMARK SMILES IDX 8 1 6 2 7 3 5 5 4 6 3 7 2 8 1 9 9 10 10 11 11 12 12 13 13 14
REMARK SMILES IDX 21 15 14 16 18 17 15 18 16 19 19 20 20 21 17 22
REMARK H PARENT 7 4 17 23
REMARK Flexibility Score: inf
ROOT
ATOM      1  C   UNL     1      61.952  84.260  73.314  1.00  0.00     0.107 C 
ENDROOT
BRANCH   1   2
ATOM      2  C   UNL     1      60.627  84.788  73.870  1.00  0.00     0.121 C 
BRANCH   2   3
ATOM      3  O   UNL     1      60.671  84.799  75.295  1.00  0.00    -0.393 OA
ATOM      4  H   UNL     1      60.243  85.618  75.599  1.00  0.00     0.210 HD
ENDBRANCH   2   3
BRANCH   2   5
ATOM      5  C   UNL     1      60.282  86.194  73.365  1.00  0.00     0.032 C 
BRANCH   5   6
ATOM      6  C   UNL     1      58.853  86.274  72.813  1.00  0.00     0.003 C 
BRANCH   6   7
ATOM      7  C   UNL     1      58.795  86.286  71.282  1.00  0.00    -0.000 C 
BRANCH   7   8
ATOM      8  C   UNL     1      58.672  84.894  70.663  1.00  0.00    -0.003 C 
ATOM      9  C   UNL     1      59.943  84.502  69.926  1.00  0.00     0.004 C 
ENDBRANCH   7   8
ENDBRANCH   6   7
ENDBRANCH   5   6
ENDBRANCH   2   5
ENDBRANCH   1   2
BRANCH   1  10
ATOM     10  C   UNL     1      62.301  82.872  73.824  1.00  0.00     0.135 C 
ATOM     11  O   UNL     1      61.429  82.119  74.259  1.00  0.00    -0.300 OA
BRANCH  10  12
ATOM     12  C   UNL     1      63.761  82.456  73.725  1.00  0.00     0.080 C 
BRANCH  12  13
ATOM     13  C   UNL     1      64.020  81.364  72.686  1.00  0.00     0.043 C 
BRANCH  13  14
ATOM     14  C   UNL     1      64.315  81.914  71.311  1.00  0.00    -0.044 A 
ATOM     15  C   UNL     1      65.592  82.388  71.008  1.00  0.00     0.054 A 
ATOM     16  C   UNL     1      63.311  81.947  70.343  1.00  0.00     0.008 A 
ATOM     17  C   UNL     1      65.863  82.896  69.737  1.00  0.00     0.160 A 
ATOM     18  C   UNL     1      63.583  82.454  69.072  1.00  0.00     0.050 A 
ATOM     19  C   UNL     1      64.859  82.929  68.770  1.00  0.00     0.157 A 
BRANCH  17  20
ATOM     20  O   UNL     1      67.113  83.357  69.453  1.00  0.00    -0.493 OA
ATOM     21  C   UNL     1      67.903  83.808  70.552  1.00  0.00     0.278 C 
ENDBRANCH  17  20
BRANCH  19  22
ATOM     22  O   UNL     1      65.112  83.422  67.525  1.00  0.00    -0.504 OA
ATOM     23  H   UNL     1      65.143  84.393  67.570  1.00  0.00     0.293 HD
ENDBRANCH  19  22
ENDBRANCH  13  14
ENDBRANCH  12  13
ENDBRANCH  10  12
ENDBRANCH   1  10
TORSDOF 12
ENDMDL
MODEL 6
REMARK VINA RESULT:    -5.503     19.678     24.360
REMARK INTER + INTRA:         -10.175
REMARK INTER:                  -9.612
REMARK INTRA:                  -0.563
REMARK UNBOUND:                -1.133
REMARK SMILES CCCCC[C@H](O)CC(=O)CCc1ccc(O)c(OC)c1
REMARK SMILES IDX 8 1 6 2 7 3 5 5 4 6 3 7 2 8 1 9 9 10 10 11 11 12 12 13 13 14
REMARK SMILES IDX 21 15 14 16 18 17 15 18 16 19 19 20 20 21 17 22
REMARK H PARENT 7 4 17 23
REMARK Flexibility Score: inf
ROOT
ATOM      1  C   UNL     1      90.593  94.261  76.803  1.00  0.00     0.107 C 
ENDROOT
BRANCH   1   2
ATOM      2  C   UNL     1      91.119  92.932  77.352  1.00  0.00     0.121 C 
BRANCH   2   3
ATOM      3  O   UNL     1      90.357  92.545  78.493  1.00  0.00    -0.393 OA
ATOM      4  H   UNL     1      90.597  91.628  78.713  1.00  0.00     0.210 HD
ENDBRANCH   2   3
BRANCH   2   5
ATOM      5  C   UNL     1      91.088  91.801  76.316  1.00  0.00     0.032 C 
BRANCH   5   6
ATOM      6  C   UNL     1      90.772  92.319  74.907  1.00  0.00     0.003 C 
BRANCH   6   7
ATOM      7  C   UNL     1      89.273  92.333  74.588  1.00  0.00    -0.000 C 
BRANCH   7   8
ATOM      8  C   UNL     1      88.887  91.426  73.421  1.00  0.00    -0.003 C 
ATOM      9  C   UNL     1      87.427  91.009  73.503  1.00  0.00     0.004 C 
ENDBRANCH   7   8
ENDBRANCH   6   7
ENDBRANCH   5   6
ENDBRANCH   2   5
ENDBRANCH   1   2
BRANCH   1  10
ATOM     10  C   UNL     1      91.576  95.408  76.977  1.00  0.00     0.135 C 
ATOM     11  O   UNL     1      91.251  96.435  77.572  1.00  0.00    -0.300 OA
BRANCH  10  12
ATOM     12  C   UNL     1      92.975  95.196  76.421  1.00  0.00     0.080 C 
BRANCH  12  13
ATOM     13  C   UNL     1      93.919  96.374  76.665  1.00  0.00     0.043 C 
BRANCH  13  14
ATOM     14  C   UNL     1      94.843  96.159  77.841  1.00  0.00    -0.044 A 
ATOM     15  C   UNL     1      94.927  94.903  78.441  1.00  0.00     0.054 A 
ATOM     16  C   UNL     1      95.612  97.217  78.326  1.00  0.00     0.008 A 
ATOM     17  C   UNL     1      95.781  94.705  79.526  1.00  0.00     0.160 A 
ATOM     18  C   UNL     1      96.466  97.020  79.411  1.00  0.00     0.050 A 
ATOM     19  C   UNL     1      96.550  95.763  80.011  1.00  0.00     0.157 A 
BRANCH  17  20
ATOM     20  O   UNL     1      95.855  93.474  80.105  1.00  0.00    -0.493 OA
ATOM     21  C   UNL     1      94.821  93.127  81.024  1.00  0.00     0.278 C 
ENDBRANCH  17  20
BRANCH  19  22
ATOM     22  O   UNL     1      97.388  95.582  81.070  1.00  0.00    -0.504 OA
ATOM     23  H   UNL     1      98.050  94.908  80.838  1.00  0.00     0.293 HD
ENDBRANCH  19  22
ENDBRANCH  13  14
ENDBRANCH  12  13
ENDBRANCH  10  12
ENDBRANCH   1  10
TORSDOF 12
ENDMDL
MODEL 7
REMARK VINA RESULT:    -5.482     10.820     14.175
REMARK INTER + INTRA:         -10.140
REMARK INTER:                  -8.102
REMARK INTRA:                  -2.038
REMARK UNBOUND:                -1.133
REMARK SMILES CCCCC[C@H](O)CC(=O)CCc1ccc(O)c(OC)c1
REMARK SMILES IDX 8 1 6 2 7 3 5 5 4 6 3 7 2 8 1 9 9 10 10 11 11 12 12 13 13 14
REMARK SMILES IDX 21 15 14 16 18 17 15 18 16 19 19 20 20 21 17 22
REMARK H PARENT 7 4 17 23
REMARK Flexibility Score: inf
ROOT
ATOM      1  C   UNL     1      61.041  83.628  73.028  1.00  0.00     0.107 C 
ENDROOT
BRANCH   1   2
ATOM      2  C   UNL     1      61.931  82.974  74.088  1.00  0.00     0.121 C 
BRANCH   2   3
ATOM      3  O   UNL     1      61.345  83.136  75.378  1.00  0.00    -0.393 OA
ATOM      4  H   UNL     1      61.382  82.275  75.831  1.00  0.00     0.210 HD
ENDBRANCH   2   3
BRANCH   2   5
ATOM      5  C   UNL     1      62.177  81.483  73.829  1.00  0.00     0.032 C 
BRANCH   5   6
ATOM      6  C   UNL     1      63.608  81.209  73.352  1.00  0.00     0.003 C 
BRANCH   6   7
ATOM      7  C   UNL     1      63.855  81.627  71.899  1.00  0.00    -0.000 C 
BRANCH   7   8
ATOM      8  C   UNL     1      64.971  82.658  71.739  1.00  0.00    -0.003 C 
ATOM      9  C   UNL     1      66.106  82.118  70.883  1.00  0.00     0.004 C 
ENDBRANCH   7   8
ENDBRANCH   6   7
ENDBRANCH   5   6
ENDBRANCH   2   5
ENDBRANCH   1   2
BRANCH   1  10
ATOM     10  C   UNL     1      61.445  85.058  72.710  1.00  0.00     0.135 C 
ATOM     11  O   UNL     1      61.986  85.767  73.560  1.00  0.00    -0.300 OA
BRANCH  10  12
ATOM     12  C   UNL     1      61.189  85.540  71.290  1.00  0.00     0.080 C 
BRANCH  12  13
ATOM     13  C   UNL     1      60.948  84.407  70.291  1.00  0.00     0.043 C 
BRANCH  13  14
ATOM     14  C   UNL     1      62.175  84.062  69.480  1.00  0.00    -0.044 A 
ATOM     15  C   UNL     1      63.238  84.962  69.405  1.00  0.00     0.054 A 
ATOM     16  C   UNL     1      62.244  82.843  68.805  1.00  0.00     0.008 A 
ATOM     17  C   UNL     1      64.370  84.642  68.656  1.00  0.00     0.160 A 
ATOM     18  C   UNL     1      63.377  82.523  68.056  1.00  0.00     0.050 A 
ATOM     19  C   UNL     1      64.440  83.423  67.981  1.00  0.00     0.157 A 
BRANCH  17  20
ATOM     20  O   UNL     1      65.402  85.530  68.590  1.00  0.00    -0.493 OA
ATOM     21  C   UNL     1      66.034  85.882  69.819  1.00  0.00     0.278 C 
ENDBRANCH  17  20
BRANCH  19  22
ATOM     22  O   UNL     1      65.540  83.100  67.247  1.00  0.00    -0.504 OA
ATOM     23  H   UNL     1      66.335  83.229  67.793  1.00  0.00     0.293 HD
ENDBRANCH  19  22
ENDBRANCH  13  14
ENDBRANCH  12  13
ENDBRANCH  10  12
ENDBRANCH   1  10
TORSDOF 12
ENDMDL
MODEL 8
REMARK VINA RESULT:    -5.416     24.340     26.592
REMARK INTER + INTRA:         -10.032
REMARK INTER:                  -8.455
REMARK INTRA:                  -1.577
REMARK UNBOUND:                -1.133
REMARK SMILES CCCCC[C@H](O)CC(=O)CCc1ccc(O)c(OC)c1
REMARK SMILES IDX 8 1 6 2 7 3 5 5 4 6 3 7 2 8 1 9 9 10 10 11 11 12 12 13 13 14
REMARK SMILES IDX 21 15 14 16 18 17 15 18 16 19 19 20 20 21 17 22
REMARK H PARENT 7 4 17 23
REMARK Flexibility Score: inf
ROOT
ATOM      1  C   UNL     1      95.776  94.075  80.324  1.00  0.00     0.107 C 
ENDROOT
BRANCH   1   2
ATOM      2  C   UNL     1      95.597  94.615  81.745  1.00  0.00     0.121 C 
BRANCH   2   3
ATOM      3  O   UNL     1      95.161  93.568  82.609  1.00  0.00    -0.393 OA
ATOM      4  H   UNL     1      94.749  92.880  82.057  1.00  0.00     0.210 HD
ENDBRANCH   2   3
BRANCH   2   5
ATOM      5  C   UNL     1      96.876  95.241  82.315  1.00  0.00     0.032 C 
BRANCH   5   6
ATOM      6  C   UNL     1      97.204  96.585  81.655  1.00  0.00     0.003 C 
BRANCH   6   7
ATOM      7  C   UNL     1      95.988  97.508  81.523  1.00  0.00    -0.000 C 
BRANCH   7   8
ATOM      8  C   UNL     1      95.614  97.824  80.076  1.00  0.00    -0.003 C 
ATOM      9  C   UNL     1      96.754  97.496  79.124  1.00  0.00     0.004 C 
ENDBRANCH   7   8
ENDBRANCH   6   7
ENDBRANCH   5   6
ENDBRANCH   2   5
ENDBRANCH   1   2
BRANCH   1  10
ATOM     10  C   UNL     1      94.520  94.197  79.477  1.00  0.00     0.135 C 
ATOM     11  O   UNL     1      93.403  94.085  79.982  1.00  0.00    -0.300 OA
BRANCH  10  12
ATOM     12  C   UNL     1      94.720  94.508  78.002  1.00  0.00     0.080 C 
BRANCH  12  13
ATOM     13  C   UNL     1      93.465  95.046  77.311  1.00  0.00     0.043 C 
BRANCH  13  14
ATOM     14  C   UNL     1      93.733  96.269  76.467  1.00  0.00    -0.044 A 
ATOM     15  C   UNL     1      95.019  96.518  75.987  1.00  0.00     0.054 A 
ATOM     16  C   UNL     1      92.694  97.150  76.166  1.00  0.00     0.008 A 
ATOM     17  C   UNL     1      95.266  97.648  75.206  1.00  0.00     0.160 A 
ATOM     18  C   UNL     1      92.940  98.280  75.385  1.00  0.00     0.050 A 
ATOM     19  C   UNL     1      94.226  98.528  74.906  1.00  0.00     0.157 A 
BRANCH  17  20
ATOM     20  O   UNL     1      96.526  97.881  74.744  1.00  0.00    -0.493 OA
ATOM     21  C   UNL     1      97.401  98.622  75.593  1.00  0.00     0.278 C 
ENDBRANCH  17  20
BRANCH  19  22
ATOM     22  O   UNL     1      94.454  99.634  74.144  1.00  0.00    -0.504 OA
ATOM     23  H   UNL     1      95.027 100.247  74.638  1.00  0.00     0.293 HD
ENDBRANCH  19  22
ENDBRANCH  13  14
ENDBRANCH  12  13
ENDBRANCH  10  12
ENDBRANCH   1  10
TORSDOF 12
ENDMDL
MODEL 9
REMARK VINA RESULT:    -5.369     10.618     13.332
REMARK INTER + INTRA:          -9.954
REMARK INTER:                  -7.894
REMARK INTRA:                  -2.061
REMARK UNBOUND:                -1.133
REMARK SMILES CCCCC[C@H](O)CC(=O)CCc1ccc(O)c(OC)c1
REMARK SMILES IDX 8 1 6 2 7 3 5 5 4 6 3 7 2 8 1 9 9 10 10 11 11 12 12 13 13 14
REMARK SMILES IDX 21 15 14 16 18 17 15 18 16 19 19 20 20 21 17 22
REMARK H PARENT 7 4 17 23
REMARK Flexibility Score: inf
ROOT
ATOM      1  C   UNL     1      66.980  83.132  70.812  1.00  0.00     0.107 C 
ENDROOT
BRANCH   1   2
ATOM      2  C   UNL     1      67.264  84.500  71.438  1.00  0.00     0.121 C 
BRANCH   2   3
ATOM      3  O   UNL     1      67.708  85.409  70.433  1.00  0.00    -0.393 OA
ATOM      4  H   UNL     1      67.046  85.409  69.719  1.00  0.00     0.210 HD
ENDBRANCH   2   3
BRANCH   2   5
ATOM      5  C   UNL     1      66.047  85.096  72.156  1.00  0.00     0.032 C 
BRANCH   5   6
ATOM      6  C   UNL     1      66.307  85.308  73.652  1.00  0.00     0.003 C 
BRANCH   6   7
ATOM      7  C   UNL     1      65.321  84.555  74.551  1.00  0.00    -0.000 C 
BRANCH   7   8
ATOM      8  C   UNL     1      65.735  84.523  76.021  1.00  0.00    -0.003 C 
ATOM      9  C   UNL     1      64.894  83.534  76.813  1.00  0.00     0.004 C 
ENDBRANCH   7   8
ENDBRANCH   6   7
ENDBRANCH   5   6
ENDBRANCH   2   5
ENDBRANCH   1   2
BRANCH   1  10
ATOM     10  C   UNL     1      65.949  83.190  69.697  1.00  0.00     0.135 C 
ATOM     11  O   UNL     1      66.188  83.781  68.644  1.00  0.00    -0.300 OA
BRANCH  10  12
ATOM     12  C   UNL     1      64.643  82.448  69.937  1.00  0.00     0.080 C 
BRANCH  12  13
ATOM     13  C   UNL     1      64.682  81.507  71.142  1.00  0.00     0.043 C 
BRANCH  13  14
ATOM     14  C   UNL     1      63.754  81.932  72.255  1.00  0.00    -0.044 A 
ATOM     15  C   UNL     1      62.939  83.053  72.095  1.00  0.00     0.054 A 
ATOM     16  C   UNL     1      63.712  81.203  73.444  1.00  0.00     0.008 A 
ATOM     17  C   UNL     1      62.082  83.444  73.123  1.00  0.00     0.160 A 
ATOM     18  C   UNL     1      62.854  81.594  74.473  1.00  0.00     0.050 A 
ATOM     19  C   UNL     1      62.039  82.715  74.312  1.00  0.00     0.157 A 
BRANCH  17  20
ATOM     20  O   UNL     1      61.291  84.540  72.955  1.00  0.00    -0.493 OA
ATOM     21  C   UNL     1      60.101  84.370  72.188  1.00  0.00     0.278 C 
ENDBRANCH  17  20
BRANCH  19  22
ATOM     22  O   UNL     1      61.206  83.087  75.323  1.00  0.00    -0.504 OA
ATOM     23  H   UNL     1      60.438  82.490  75.337  1.00  0.00     0.293 HD
ENDBRANCH  19  22
ENDBRANCH  13  14
ENDBRANCH  12  13
ENDBRANCH  10  12
ENDBRANCH   1  10
TORSDOF 12
ENDMDL
MODEL 10
REMARK VINA RESULT:    -5.327     22.124     26.410
REMARK INTER + INTRA:          -9.885
REMARK INTER:                  -8.462
REMARK INTRA:                  -1.423
REMARK UNBOUND:                -1.133
REMARK SMILES CCCCC[C@H](O)CC(=O)CCc1ccc(O)c(OC)c1
REMARK SMILES IDX 8 1 6 2 7 3 5 5 4 6 3 7 2 8 1 9 9 10 10 11 11 12 12 13 13 14
REMARK SMILES IDX 21 15 14 16 18 17 15 18 16 19 19 20 20 21 17 22
REMARK H PARENT 7 4 17 23
REMARK Flexibility Score: inf
ROOT
ATOM      1  C   UNL     1      95.598  94.200  79.569  1.00  0.00     0.107 C 
ENDROOT
BRANCH   1   2
ATOM      2  C   UNL     1      94.092  93.931  79.624  1.00  0.00     0.121 C 
BRANCH   2   3
ATOM      3  O   UNL     1      93.761  93.289  80.854  1.00  0.00    -0.393 OA
ATOM      4  H   UNL     1      94.142  92.394  80.835  1.00  0.00     0.210 HD
ENDBRANCH   2   3
BRANCH   2   5
ATOM      5  C   UNL     1      93.248  95.202  79.475  1.00  0.00     0.032 C 
BRANCH   5   6
ATOM      6  C   UNL     1      92.173  95.057  78.391  1.00  0.00     0.003 C 
BRANCH   6   7
ATOM      7  C   UNL     1      92.063  93.635  77.833  1.00  0.00    -0.000 C 
BRANCH   7   8
ATOM      8  C   UNL     1      90.661  93.275  77.346  1.00  0.00    -0.003 C 
ATOM      9  C   UNL     1      89.598  94.092  78.064  1.00  0.00     0.004 C 
ENDBRANCH   7   8
ENDBRANCH   6   7
ENDBRANCH   5   6
ENDBRANCH   2   5
ENDBRANCH   1   2
BRANCH   1  10
ATOM     10  C   UNL     1      96.087  95.079  80.709  1.00  0.00     0.135 C 
ATOM     11  O   UNL     1      95.881  94.768  81.882  1.00  0.00    -0.300 OA
BRANCH  10  12
ATOM     12  C   UNL     1      96.874  96.322  80.322  1.00  0.00     0.080 C 
BRANCH  12  13
ATOM     13  C   UNL     1      95.994  97.503  79.909  1.00  0.00     0.043 C 
BRANCH  13  14
ATOM     14  C   UNL     1      96.177  97.901  78.463  1.00  0.00    -0.044 A 
ATOM     15  C   UNL     1      95.268  97.465  77.499  1.00  0.00     0.054 A 
ATOM     16  C   UNL     1      97.257  98.703  78.093  1.00  0.00     0.008 A 
ATOM     17  C   UNL     1      95.438  97.834  76.165  1.00  0.00     0.160 A 
ATOM     18  C   UNL     1      97.426  99.072  76.758  1.00  0.00     0.050 A 
ATOM     19  C   UNL     1      96.517  98.637  75.794  1.00  0.00     0.157 A 
BRANCH  17  20
ATOM     20  O   UNL     1      94.543  97.402  75.232  1.00  0.00    -0.493 OA
ATOM     21  C   UNL     1      93.229  97.092  75.689  1.00  0.00     0.278 C 
ENDBRANCH  17  20
BRANCH  19  22
ATOM     22  O   UNL     1      96.693  99.003  74.494  1.00  0.00    -0.504 OA
ATOM     23  H   UNL     1      97.610  98.812  74.233  1.00  0.00     0.293 HD
ENDBRANCH  19  22
ENDBRANCH  13  14
ENDBRANCH  12  13
ENDBRANCH  10  12
ENDBRANCH   1  10
TORSDOF 12
ENDMDL
