MODEL 1
REMARK VINA RESULT:    -6.518      0.000      0.000
REMARK INTER + INTRA:         -12.517
REMARK INTER:                 -11.472
REMARK INTRA:                  -1.046
REMARK UNBOUND:                -1.046
REMARK SMILES C=C(C)[C@]12C[C@@H](C)[C@@]34O[C@](Cc5ccccc5)(O[C@@H]1[C@@H]3C=C(COC(=O)Cc1ccc(O)c(OC)c1)C[C@]1(O)C(=O)C(C)=C[C@@H]41)O2
REMARK SMILES IDX 23 1 22 2 21 3 20 4 9 5 8 6 10 7 6 8 18 9 46 10 19 11 5 12
REMARK SMILES IDX 7 13 4 14 45 15 38 16 44 17 40 18 42 20 41 21 43 22 39 23
REMARK SMILES IDX 11 25 12 26 13 27 17 28 14 29 16 30 15 31 2 32 3 33 1 34
REMARK SMILES IDX 37 35 24 37 25 38 26 39 27 40 28 41 36 42 29 43 33 44 30 45
REMARK SMILES IDX 31 46 34 47 35 48 32 49
REMARK H PARENT 39 24 32 50
REMARK Flexibility Score: 90.00
ROOT
ATOM      1  C   UNL     1      86.909  64.944  75.112  1.00  0.00     0.264 C 
ENDROOT
BRANCH   1   2
ATOM      2  C   UNL     1      86.145  66.105  74.521  1.00  0.00    -0.033 C 
ATOM      3  C   UNL     1      86.690  67.338  74.552  1.00  0.00    -0.015 C 
BRANCH   3   4
ATOM      4  C   UNL     1      86.102  68.665  74.102  1.00  0.00     0.078 C 
ATOM      5  O   UNL     1      86.799  69.002  71.752  1.00  0.00    -0.319 OA
ATOM      6  C   UNL     1      85.630  68.806  72.607  1.00  0.00     0.095 C 
ATOM      7  C   UNL     1      87.792  69.910  72.266  1.00  0.00     0.289 C 
ATOM      8  C   UNL     1      84.696  70.083  72.516  1.00  0.00     0.023 C 
ATOM      9  O   UNL     1      88.266  69.490  73.543  1.00  0.00    -0.320 OA
ATOM     10  O   UNL     1      87.276  71.224  72.459  1.00  0.00    -0.313 OA
ATOM     11  C   UNL     1      87.121  69.804  74.351  1.00  0.00     0.170 C 
ATOM     12  C   UNL     1      85.145  71.191  73.518  1.00  0.00     0.049 C 
ATOM     13  C   UNL     1      84.545  70.692  71.113  1.00  0.00     0.011 C 
ATOM     14  C   UNL     1      86.655  71.157  73.760  1.00  0.00     0.122 C 
BRANCH   6  15
ATOM     15  C   UNL     1      84.997  67.477  72.100  1.00  0.00     0.086 C 
ATOM     16  C   UNL     1      84.047  66.760  73.081  1.00  0.00     0.140 CG0
ATOM     17  C   UNL     1      84.233  67.472  70.806  1.00  0.00    -0.010 C 
ATOM     18  C   UNL     1      83.022  66.146  72.151  1.00  0.00     0.190 C 
ATOM     19  G   UNL     1      84.772  65.713  73.925  1.00  0.00     0.000 G0
ATOM     20  C   UNL     1      83.133  66.712  70.793  1.00  0.00    -0.008 C 
ATOM     21  O   UNL     1      82.173  65.328  72.473  1.00  0.00    -0.291 OA
ATOM     22  C   UNL     1      82.200  66.407  69.690  1.00  0.00     0.048 C 
BRANCH  16  23
ATOM     23  O   UNL     1      83.285  67.640  73.890  1.00  0.00    -0.381 OA
ATOM     24  H   UNL     1      83.897  68.163  74.435  1.00  0.00     0.212 HD
ENDBRANCH  16  23
ENDBRANCH   6  15
BRANCH   7  25
ATOM     25  C   UNL     1      88.945  69.959  71.283  1.00  0.00     0.135 C 
BRANCH  25  26
ATOM     26  C   UNL     1      88.515  70.475  69.933  1.00  0.00    -0.040 A 
ATOM     27  C   UNL     1      88.509  69.621  68.829  1.00  0.00     0.004 A 
ATOM     28  C   UNL     1      88.122  71.805  69.787  1.00  0.00     0.004 A 
ATOM     29  C   UNL     1      88.112  70.098  67.580  1.00  0.00     0.000 A 
ATOM     30  C   UNL     1      87.724  72.282  68.537  1.00  0.00     0.000 A 
ATOM     31  C   UNL     1      87.719  71.428  67.435  1.00  0.00     0.000 A 
ENDBRANCH  25  26
ENDBRANCH   7  25
BRANCH  14  32
ATOM     32  C   UNL     1      87.133  72.318  74.569  1.00  0.00    -0.046 C 
ATOM     33  C   UNL     1      86.118  73.382  74.865  1.00  0.00     0.042 C 
ATOM     34  C   UNL     1      88.398  72.405  75.007  1.00  0.00     0.010 C 
ENDBRANCH  14  32
ENDBRANCH   3   4
BRANCH   2  35
ATOM     35  C   UNL     1      84.804  65.700  73.938  1.00  0.00     0.078 CG0
ATOM     36  G   UNL     1      84.072  66.734  73.085  1.00  0.00     0.000 G0
ENDBRANCH   2  35
ENDBRANCH   1   2
BRANCH   1  37
ATOM     37  O   UNL     1      87.151  65.191  76.480  1.00  0.00    -0.461 OA
BRANCH  37  38
ATOM     38  C   UNL     1      86.396  64.466  77.372  1.00  0.00     0.310 C 
ATOM     39  O   UNL     1      86.639  63.322  77.731  1.00  0.00    -0.252 OA
BRANCH  38  40
ATOM     40  C   UNL     1      85.225  65.299  77.837  1.00  0.00     0.158 C 
BRANCH  40  41
ATOM     41  C   UNL     1      83.921  64.886  77.204  1.00  0.00    -0.033 A 
ATOM     42  C   UNL     1      82.907  65.827  77.018  1.00  0.00     0.054 A 
ATOM     43  C   UNL     1      83.728  63.564  76.805  1.00  0.00     0.008 A 
ATOM     44  C   UNL     1      81.700  65.444  76.432  1.00  0.00     0.160 A 
ATOM     45  C   UNL     1      82.521  63.181  76.219  1.00  0.00     0.050 A 
ATOM     46  C   UNL     1      81.507  64.121  76.033  1.00  0.00     0.157 A 
BRANCH  44  47
ATOM     47  O   UNL     1      80.718  66.371  76.256  1.00  0.00    -0.493 OA
ATOM     48  C   UNL     1      80.336  66.663  74.912  1.00  0.00     0.278 C 
ENDBRANCH  44  47
BRANCH  46  49
ATOM     49  O   UNL     1      80.334  63.736  75.459  1.00  0.00    -0.504 OA
ATOM     50  H   UNL     1      79.614  63.852  76.102  1.00  0.00     0.293 HD
ENDBRANCH  46  49
ENDBRANCH  40  41
ENDBRANCH  38  40
ENDBRANCH  37  38
ENDBRANCH   1  37
TORSDOF 11
ENDMDL
MODEL 2
REMARK VINA RESULT:    -6.511     28.541     33.480
REMARK INTER + INTRA:         -12.505
REMARK INTER:                 -11.813
REMARK INTRA:                  -0.692
REMARK UNBOUND:                -1.046
REMARK SMILES C=C(C)[C@]12C[C@@H](C)[C@@]34O[C@](Cc5ccccc5)(O[C@@H]1[C@@H]3C=C(COC(=O)Cc1ccc(O)c(OC)c1)C[C@]1(O)C(=O)C(C)=C[C@@H]41)O2
REMARK SMILES IDX 23 1 22 2 21 3 20 4 9 5 8 6 10 7 6 8 18 9 46 10 19 11 5 12
REMARK SMILES IDX 7 13 4 14 45 15 38 16 44 17 40 18 42 20 41 21 43 22 39 23
REMARK SMILES IDX 11 25 12 26 13 27 17 28 14 29 16 30 15 31 2 32 3 33 1 34
REMARK SMILES IDX 37 35 24 37 25 38 26 39 27 40 28 41 36 42 29 43 33 44 30 45
REMARK SMILES IDX 31 46 34 47 35 48 32 49
REMARK H PARENT 39 24 32 50
REMARK Flexibility Score: 90.00
ROOT
ATOM      1  C   UNL     1      94.860  98.471  73.577  1.00  0.00     0.264 C 
ENDROOT
BRANCH   1   2
ATOM      2  C   UNL     1      94.533  99.390  72.423  1.00  0.00    -0.033 C 
ATOM      3  C   UNL     1      93.383  99.209  71.742  1.00  0.00    -0.015 C 
BRANCH   3   4
ATOM      4  C   UNL     1      92.866  99.937  70.512  1.00  0.00     0.078 C 
ATOM      5  O   UNL     1      91.469 101.812  71.319  1.00  0.00    -0.319 OA
ATOM      6  C   UNL     1      92.692 101.500  70.585  1.00  0.00     0.095 C 
ATOM      7  C   UNL     1      90.330 100.992  70.997  1.00  0.00     0.289 C 
ATOM      8  C   UNL     1      92.563 102.038  69.100  1.00  0.00     0.023 C 
ATOM      9  O   UNL     1      90.611  99.611  71.208  1.00  0.00    -0.320 OA
ATOM     10  O   UNL     1      89.954 101.103  69.627  1.00  0.00    -0.313 OA
ATOM     11  C   UNL     1      91.489  99.360  70.100  1.00  0.00     0.170 C 
ATOM     12  C   UNL     1      91.840 101.007  68.180  1.00  0.00     0.049 C 
ATOM     13  C   UNL     1      91.893 103.413  68.952  1.00  0.00     0.011 C 
ATOM     14  C   UNL     1      90.825 100.169  68.958  1.00  0.00     0.122 C 
BRANCH   6  15
ATOM     15  C   UNL     1      93.829 102.142  71.432  1.00  0.00     0.086 C 
ATOM     16  C   UNL     1      95.252 101.601  71.182  1.00  0.00     0.140 CG0
ATOM     17  C   UNL     1      94.013 103.634  71.407  1.00  0.00    -0.010 C 
ATOM     18  C   UNL     1      96.109 102.833  71.383  1.00  0.00     0.190 C 
ATOM     19  G   UNL     1      95.617 100.472  72.144  1.00  0.00     0.000 G0
ATOM     20  C   UNL     1      95.282 104.054  71.407  1.00  0.00    -0.008 C 
ATOM     21  O   UNL     1      97.328 102.842  71.464  1.00  0.00    -0.291 OA
ATOM     22  C   UNL     1      95.831 105.425  71.468  1.00  0.00     0.048 C 
BRANCH  16  23
ATOM     23  O   UNL     1      95.498 101.233  69.835  1.00  0.00    -0.381 OA
ATOM     24  H   UNL     1      96.451 101.078  69.728  1.00  0.00     0.212 HD
ENDBRANCH  16  23
ENDBRANCH   6  15
BRANCH   7  25
ATOM     25  C   UNL     1      89.172 101.420  71.876  1.00  0.00     0.135 C 
BRANCH  25  26
ATOM     26  C   UNL     1      89.404 102.774  72.497  1.00  0.00    -0.040 A 
ATOM     27  C   UNL     1      89.660 102.879  73.865  1.00  0.00     0.004 A 
ATOM     28  C   UNL     1      89.364 103.922  71.705  1.00  0.00     0.004 A 
ATOM     29  C   UNL     1      89.874 104.132  74.440  1.00  0.00     0.000 A 
ATOM     30  C   UNL     1      89.579 105.175  72.281  1.00  0.00     0.000 A 
ATOM     31  C   UNL     1      89.834 105.279  73.648  1.00  0.00     0.000 A 
ENDBRANCH  25  26
ENDBRANCH   7  25
BRANCH  14  32
ATOM     32  C   UNL     1      89.993  99.304  68.068  1.00  0.00    -0.046 C 
ATOM     33  C   UNL     1      90.019  99.638  66.606  1.00  0.00     0.042 C 
ATOM     34  C   UNL     1      89.263  98.286  68.549  1.00  0.00     0.010 C 
ENDBRANCH  14  32
ENDBRANCH   3   4
BRANCH   2  35
ATOM     35  C   UNL     1      95.595 100.445  72.183  1.00  0.00     0.078 CG0
ATOM     36  G   UNL     1      95.250 101.577  71.216  1.00  0.00     0.000 G0
ENDBRANCH   2  35
ENDBRANCH   1   2
BRANCH   1  37
ATOM     37  O   UNL     1      93.914  97.426  73.625  1.00  0.00    -0.461 OA
BRANCH  37  38
ATOM     38  C   UNL     1      94.146  96.436  74.551  1.00  0.00     0.310 C 
ATOM     39  O   UNL     1      95.022  95.586  74.466  1.00  0.00    -0.252 OA
BRANCH  38  40
ATOM     40  C   UNL     1      93.156  96.562  75.684  1.00  0.00     0.158 C 
BRANCH  40  41
ATOM     41  C   UNL     1      93.326  95.497  76.737  1.00  0.00    -0.033 A 
ATOM     42  C   UNL     1      94.500  95.443  77.490  1.00  0.00     0.054 A 
ATOM     43  C   UNL     1      92.312  94.566  76.958  1.00  0.00     0.008 A 
ATOM     44  C   UNL     1      94.658  94.457  78.464  1.00  0.00     0.160 A 
ATOM     45  C   UNL     1      92.470  93.580  77.931  1.00  0.00     0.050 A 
ATOM     46  C   UNL     1      93.643  93.525  78.684  1.00  0.00     0.157 A 
BRANCH  44  47
ATOM     47  O   UNL     1      95.808  94.413  79.193  1.00  0.00    -0.493 OA
ATOM     48  C   UNL     1      95.915  95.320  80.289  1.00  0.00     0.278 C 
ENDBRANCH  44  47
BRANCH  46  49
ATOM     49  O   UNL     1      93.786  92.558  79.633  1.00  0.00    -0.504 OA
ATOM     50  H   UNL     1      94.721  92.297  79.681  1.00  0.00     0.293 HD
ENDBRANCH  46  49
ENDBRANCH  40  41
ENDBRANCH  38  40
ENDBRANCH  37  38
ENDBRANCH   1  37
TORSDOF 11
ENDMDL
MODEL 3
REMARK VINA RESULT:    -6.421      1.757      3.249
REMARK INTER + INTRA:         -12.346
REMARK INTER:                 -11.304
REMARK INTRA:                  -1.042
REMARK UNBOUND:                -1.046
REMARK SMILES C=C(C)[C@]12C[C@@H](C)[C@@]34O[C@](Cc5ccccc5)(O[C@@H]1[C@@H]3C=C(COC(=O)Cc1ccc(O)c(OC)c1)C[C@]1(O)C(=O)C(C)=C[C@@H]41)O2
REMARK SMILES IDX 23 1 22 2 21 3 20 4 9 5 8 6 10 7 6 8 18 9 46 10 19 11 5 12
REMARK SMILES IDX 7 13 4 14 45 15 38 16 44 17 40 18 42 20 41 21 43 22 39 23
REMARK SMILES IDX 11 25 12 26 13 27 17 28 14 29 16 30 15 31 2 32 3 33 1 34
REMARK SMILES IDX 37 35 24 37 25 38 26 39 27 40 28 41 36 42 29 43 33 44 30 45
REMARK SMILES IDX 31 46 34 47 35 48 32 49
REMARK H PARENT 39 24 32 50
REMARK Flexibility Score: 90.00
ROOT
ATOM      1  C   UNL     1      86.964  64.986  75.308  1.00  0.00     0.264 C 
ENDROOT
BRANCH   1   2
ATOM      2  C   UNL     1      86.201  66.130  74.681  1.00  0.00    -0.033 C 
ATOM      3  C   UNL     1      86.768  67.352  74.632  1.00  0.00    -0.015 C 
BRANCH   3   4
ATOM      4  C   UNL     1      86.188  68.665  74.132  1.00  0.00     0.078 C 
ATOM      5  O   UNL     1      86.839  68.880  71.755  1.00  0.00    -0.319 OA
ATOM      6  C   UNL     1      85.686  68.742  72.642  1.00  0.00     0.095 C 
ATOM      7  C   UNL     1      87.855  69.797  72.203  1.00  0.00     0.289 C 
ATOM      8  C   UNL     1      84.768  70.027  72.510  1.00  0.00     0.023 C 
ATOM      9  O   UNL     1      88.350  69.431  73.489  1.00  0.00    -0.320 OA
ATOM     10  O   UNL     1      87.361  71.126  72.345  1.00  0.00    -0.313 OA
ATOM     11  C   UNL     1      87.228  69.800  74.305  1.00  0.00     0.170 C 
ATOM     12  C   UNL     1      85.254  71.175  73.449  1.00  0.00     0.049 C 
ATOM     13  C   UNL     1      84.595  70.572  71.083  1.00  0.00     0.011 C 
ATOM     14  C   UNL     1      86.768  71.130  73.660  1.00  0.00     0.122 C 
BRANCH   6  15
ATOM     15  C   UNL     1      85.024  67.401  72.213  1.00  0.00     0.086 C 
ATOM     16  C   UNL     1      84.077  66.750  73.242  1.00  0.00     0.140 CG0
ATOM     17  C   UNL     1      84.240  67.343  70.931  1.00  0.00    -0.010 C 
ATOM     18  C   UNL     1      83.028  66.107  72.360  1.00  0.00     0.190 C 
ATOM     19  G   UNL     1      84.798  65.735  74.128  1.00  0.00     0.000 G0
ATOM     20  C   UNL     1      83.128  66.602  70.974  1.00  0.00    -0.008 C 
ATOM     21  O   UNL     1      82.171  65.321  72.735  1.00  0.00    -0.291 OA
ATOM     22  C   UNL     1      82.173  66.257  69.900  1.00  0.00     0.048 C 
BRANCH  16  23
ATOM     23  O   UNL     1      83.343  67.683  74.017  1.00  0.00    -0.381 OA
ATOM     24  H   UNL     1      82.477  67.295  74.225  1.00  0.00     0.212 HD
ENDBRANCH  16  23
ENDBRANCH   6  15
BRANCH   7  25
ATOM     25  C   UNL     1      88.987  69.782  71.196  1.00  0.00     0.135 C 
BRANCH  25  26
ATOM     26  C   UNL     1      88.545  70.281  69.843  1.00  0.00    -0.040 A 
ATOM     27  C   UNL     1      87.877  71.501  69.734  1.00  0.00     0.004 A 
ATOM     28  C   UNL     1      88.806  69.525  68.700  1.00  0.00     0.004 A 
ATOM     29  C   UNL     1      87.469  71.963  68.482  1.00  0.00     0.000 A 
ATOM     30  C   UNL     1      88.397  69.987  67.449  1.00  0.00     0.000 A 
ATOM     31  C   UNL     1      87.729  71.206  67.341  1.00  0.00     0.000 A 
ENDBRANCH  25  26
ENDBRANCH   7  25
BRANCH  14  32
ATOM     32  C   UNL     1      87.279  72.321  74.403  1.00  0.00    -0.046 C 
ATOM     33  C   UNL     1      88.769  72.438  74.522  1.00  0.00     0.042 C 
ATOM     34  C   UNL     1      86.452  73.235  74.934  1.00  0.00     0.010 C 
ENDBRANCH  14  32
ENDBRANCH   3   4
BRANCH   2  35
ATOM     35  C   UNL     1      84.837  65.720  74.159  1.00  0.00     0.078 CG0
ATOM     36  G   UNL     1      84.100  66.719  73.268  1.00  0.00     0.000 G0
ENDBRANCH   2  35
ENDBRANCH   1   2
BRANCH   1  37
ATOM     37  O   UNL     1      86.757  64.997  76.704  1.00  0.00    -0.461 OA
BRANCH  37  38
ATOM     38  C   UNL     1      85.784  64.150  77.182  1.00  0.00     0.310 C 
ATOM     39  O   UNL     1      85.721  62.951  76.949  1.00  0.00    -0.252 OA
BRANCH  38  40
ATOM     40  C   UNL     1      84.811  64.929  78.035  1.00  0.00     0.158 C 
BRANCH  40  41
ATOM     41  C   UNL     1      85.402  66.199  78.590  1.00  0.00    -0.033 A 
ATOM     42  C   UNL     1      86.214  66.153  79.724  1.00  0.00     0.054 A 
ATOM     43  C   UNL     1      85.138  67.420  77.971  1.00  0.00     0.008 A 
ATOM     44  C   UNL     1      86.761  67.328  80.239  1.00  0.00     0.160 A 
ATOM     45  C   UNL     1      85.685  68.596  78.485  1.00  0.00     0.050 A 
ATOM     46  C   UNL     1      86.496  68.550  79.619  1.00  0.00     0.157 A 
BRANCH  44  47
ATOM     47  O   UNL     1      87.552  67.270  81.346  1.00  0.00    -0.493 OA
ATOM     48  C   UNL     1      86.995  67.758  82.566  1.00  0.00     0.278 C 
ENDBRANCH  44  47
BRANCH  46  49
ATOM     49  O   UNL     1      87.026  69.704  80.111  1.00  0.00    -0.504 OA
ATOM     50  H   UNL     1      87.654  69.487  80.820  1.00  0.00     0.293 HD
ENDBRANCH  46  49
ENDBRANCH  40  41
ENDBRANCH  38  40
ENDBRANCH  37  38
ENDBRANCH   1  37
TORSDOF 11
ENDMDL
MODEL 4
REMARK VINA RESULT:    -6.359      2.181      5.749
REMARK INTER + INTRA:         -12.237
REMARK INTER:                 -10.234
REMARK INTRA:                  -2.004
REMARK UNBOUND:                -1.046
REMARK SMILES C=C(C)[C@]12C[C@@H](C)[C@@]34O[C@](Cc5ccccc5)(O[C@@H]1[C@@H]3C=C(COC(=O)Cc1ccc(O)c(OC)c1)C[C@]1(O)C(=O)C(C)=C[C@@H]41)O2
REMARK SMILES IDX 23 1 22 2 21 3 20 4 9 5 8 6 10 7 6 8 18 9 46 10 19 11 5 12
REMARK SMILES IDX 7 13 4 14 45 15 38 16 44 17 40 18 42 20 41 21 43 22 39 23
REMARK SMILES IDX 11 25 12 26 13 27 17 28 14 29 16 30 15 31 2 32 3 33 1 34
REMARK SMILES IDX 37 35 24 37 25 38 26 39 27 40 28 41 36 42 29 43 33 44 30 45
REMARK SMILES IDX 31 46 34 47 35 48 32 49
REMARK H PARENT 39 24 32 50
REMARK Flexibility Score: 90.00
ROOT
ATOM      1  C   UNL     1      82.151  65.929  76.133  1.00  0.00     0.264 C 
ENDROOT
BRANCH   1   2
ATOM      2  C   UNL     1      83.655  66.051  76.065  1.00  0.00    -0.033 C 
ATOM      3  C   UNL     1      84.238  66.385  74.895  1.00  0.00    -0.015 C 
BRANCH   3   4
ATOM      4  C   UNL     1      85.714  66.496  74.550  1.00  0.00     0.078 C 
ATOM      5  O   UNL     1      86.366  68.852  74.928  1.00  0.00    -0.319 OA
ATOM      6  C   UNL     1      86.606  67.486  75.387  1.00  0.00     0.095 C 
ATOM      7  C   UNL     1      86.283  69.017  73.500  1.00  0.00     0.289 C 
ATOM      8  C   UNL     1      88.122  67.104  75.125  1.00  0.00     0.023 C 
ATOM      9  O   UNL     1      85.259  68.196  72.943  1.00  0.00    -0.320 OA
ATOM     10  O   UNL     1      87.486  68.631  72.840  1.00  0.00    -0.313 OA
ATOM     11  C   UNL     1      85.877  66.905  73.065  1.00  0.00     0.170 C 
ATOM     12  C   UNL     1      88.334  66.571  73.675  1.00  0.00     0.049 C 
ATOM     13  C   UNL     1      89.142  68.217  75.416  1.00  0.00     0.011 C 
ATOM     14  C   UNL     1      87.350  67.203  72.690  1.00  0.00     0.122 C 
BRANCH   6  15
ATOM     15  C   UNL     1      86.168  67.496  76.880  1.00  0.00     0.086 C 
ATOM     16  C   UNL     1      85.837  66.122  77.501  1.00  0.00     0.140 CG0
ATOM     17  C   UNL     1      87.060  68.137  77.906  1.00  0.00    -0.010 C 
ATOM     18  C   UNL     1      86.301  66.291  78.932  1.00  0.00     0.190 C 
ATOM     19  G   UNL     1      84.350  65.788  77.403  1.00  0.00     0.000 G0
ATOM     20  C   UNL     1      87.134  67.500  79.079  1.00  0.00    -0.008 C 
ATOM     21  O   UNL     1      86.071  65.515  79.847  1.00  0.00    -0.291 OA
ATOM     22  C   UNL     1      87.835  67.876  80.324  1.00  0.00     0.048 C 
BRANCH  16  23
ATOM     23  O   UNL     1      86.640  65.062  77.008  1.00  0.00    -0.381 OA
ATOM     24  H   UNL     1      87.365  65.443  76.486  1.00  0.00     0.212 HD
ENDBRANCH  16  23
ENDBRANCH   6  15
BRANCH   7  25
ATOM     25  C   UNL     1      85.989  70.474  73.205  1.00  0.00     0.135 C 
BRANCH  25  26
ATOM     26  C   UNL     1      86.952  71.053  72.199  1.00  0.00    -0.040 A 
ATOM     27  C   UNL     1      88.191  71.537  72.619  1.00  0.00     0.004 A 
ATOM     28  C   UNL     1      86.605  71.103  70.849  1.00  0.00     0.004 A 
ATOM     29  C   UNL     1      89.083  72.073  71.689  1.00  0.00     0.000 A 
ATOM     30  C   UNL     1      87.497  71.638  69.919  1.00  0.00     0.000 A 
ATOM     31  C   UNL     1      88.735  72.123  70.339  1.00  0.00     0.000 A 
ENDBRANCH  25  26
ENDBRANCH   7  25
BRANCH  14  32
ATOM     32  C   UNL     1      87.651  66.848  71.270  1.00  0.00    -0.046 C 
ATOM     33  C   UNL     1      88.474  67.837  70.500  1.00  0.00     0.042 C 
ATOM     34  C   UNL     1      87.209  65.709  70.715  1.00  0.00     0.010 C 
ENDBRANCH  14  32
ENDBRANCH   3   4
BRANCH   2  35
ATOM     35  C   UNL     1      84.335  65.775  77.392  1.00  0.00     0.078 CG0
ATOM     36  G   UNL     1      85.819  66.125  77.504  1.00  0.00     0.000 G0
ENDBRANCH   2  35
ENDBRANCH   1   2
BRANCH   1  37
ATOM     37  O   UNL     1      81.574  66.665  75.076  1.00  0.00    -0.461 OA
BRANCH  37  38
ATOM     38  C   UNL     1      80.738  65.968  74.234  1.00  0.00     0.310 C 
ATOM     39  O   UNL     1      80.176  64.918  74.514  1.00  0.00    -0.252 OA
BRANCH  38  40
ATOM     40  C   UNL     1      80.624  66.699  72.917  1.00  0.00     0.158 C 
BRANCH  40  41
ATOM     41  C   UNL     1      81.454  66.075  71.825  1.00  0.00    -0.033 A 
ATOM     42  C   UNL     1      81.104  66.267  70.488  1.00  0.00     0.054 A 
ATOM     43  C   UNL     1      82.571  65.306  72.150  1.00  0.00     0.008 A 
ATOM     44  C   UNL     1      81.872  65.689  69.476  1.00  0.00     0.160 A 
ATOM     45  C   UNL     1      83.339  64.729  71.138  1.00  0.00     0.050 A 
ATOM     46  C   UNL     1      82.989  64.920  69.802  1.00  0.00     0.157 A 
BRANCH  44  47
ATOM     47  O   UNL     1      81.520  65.883  68.175  1.00  0.00    -0.493 OA
ATOM     48  C   UNL     1      81.738  67.184  67.631  1.00  0.00     0.278 C 
ENDBRANCH  44  47
BRANCH  46  49
ATOM     49  O   UNL     1      83.747  64.352  68.823  1.00  0.00    -0.504 OA
ATOM     50  H   UNL     1      83.741  63.387  68.938  1.00  0.00     0.293 HD
ENDBRANCH  46  49
ENDBRANCH  40  41
ENDBRANCH  38  40
ENDBRANCH  37  38
ENDBRANCH   1  37
TORSDOF 11
ENDMDL
MODEL 5
REMARK VINA RESULT:    -6.326     25.774     29.104
REMARK INTER + INTRA:         -12.179
REMARK INTER:                 -10.791
REMARK INTRA:                  -1.388
REMARK UNBOUND:                -1.046
REMARK SMILES C=C(C)[C@]12C[C@@H](C)[C@@]34O[C@](Cc5ccccc5)(O[C@@H]1[C@@H]3C=C(COC(=O)Cc1ccc(O)c(OC)c1)C[C@]1(O)C(=O)C(C)=C[C@@H]41)O2
REMARK SMILES IDX 23 1 22 2 21 3 20 4 9 5 8 6 10 7 6 8 18 9 46 10 19 11 5 12
REMARK SMILES IDX 7 13 4 14 45 15 38 16 44 17 40 18 42 20 41 21 43 22 39 23
REMARK SMILES IDX 11 25 12 26 13 27 17 28 14 29 16 30 15 31 2 32 3 33 1 34
REMARK SMILES IDX 37 35 24 37 25 38 26 39 27 40 28 41 36 42 29 43 33 44 30 45
REMARK SMILES IDX 31 46 34 47 35 48 32 49
REMARK H PARENT 39 24 32 50
REMARK Flexibility Score: 90.00
ROOT
ATOM      1  C   UNL     1      64.761  87.477  69.979  1.00  0.00     0.264 C 
ENDROOT
BRANCH   1   2
ATOM      2  C   UNL     1      63.860  87.334  71.183  1.00  0.00    -0.033 C 
ATOM      3  C   UNL     1      62.704  86.649  71.063  1.00  0.00    -0.015 C 
BRANCH   3   4
ATOM      4  C   UNL     1      61.603  86.430  72.087  1.00  0.00     0.078 C 
ATOM      5  O   UNL     1      62.119  84.313  73.259  1.00  0.00    -0.319 OA
ATOM      6  C   UNL     1      61.978  85.754  73.458  1.00  0.00     0.095 C 
ATOM      7  C   UNL     1      61.113  83.705  72.426  1.00  0.00     0.289 C 
ATOM      8  C   UNL     1      60.791  86.029  74.470  1.00  0.00     0.023 C 
ATOM      9  O   UNL     1      61.074  84.311  71.136  1.00  0.00    -0.320 OA
ATOM     10  O   UNL     1      59.801  83.859  72.963  1.00  0.00    -0.313 OA
ATOM     11  C   UNL     1      60.472  85.572  71.468  1.00  0.00     0.170 C 
ATOM     12  C   UNL     1      59.415  86.075  73.737  1.00  0.00     0.049 C 
ATOM     13  C   UNL     1      60.702  85.063  75.663  1.00  0.00     0.011 C 
ATOM     14  C   UNL     1      59.398  85.167  72.508  1.00  0.00     0.122 C 
BRANCH   6  15
ATOM     15  C   UNL     1      63.385  86.218  73.935  1.00  0.00     0.086 C 
ATOM     16  C   UNL     1      63.696  87.721  73.772  1.00  0.00     0.140 CG0
ATOM     17  C   UNL     1      63.820  85.922  75.343  1.00  0.00    -0.010 C 
ATOM     18  C   UNL     1      64.570  88.005  74.976  1.00  0.00     0.190 C 
ATOM     19  G   UNL     1      64.403  88.023  72.451  1.00  0.00     0.000 G0
ATOM     20  C   UNL     1      64.511  86.895  75.946  1.00  0.00    -0.008 C 
ATOM     21  O   UNL     1      65.205  89.032  75.162  1.00  0.00    -0.291 OA
ATOM     22  C   UNL     1      65.158  86.922  77.274  1.00  0.00     0.048 C 
BRANCH  16  23
ATOM     23  O   UNL     1      62.572  88.564  73.962  1.00  0.00    -0.381 OA
ATOM     24  H   UNL     1      62.766  89.428  73.564  1.00  0.00     0.212 HD
ENDBRANCH  16  23
ENDBRANCH   6  15
BRANCH   7  25
ATOM     25  C   UNL     1      61.435  82.231  72.291  1.00  0.00     0.135 C 
BRANCH  25  26
ATOM     26  C   UNL     1      62.487  81.976  71.240  1.00  0.00    -0.040 A 
ATOM     27  C   UNL     1      62.108  81.695  69.927  1.00  0.00     0.004 A 
ATOM     28  C   UNL     1      63.838  82.024  71.580  1.00  0.00     0.004 A 
ATOM     29  C   UNL     1      63.081  81.460  68.955  1.00  0.00     0.000 A 
ATOM     30  C   UNL     1      64.811  81.788  70.609  1.00  0.00     0.000 A 
ATOM     31  C   UNL     1      64.432  81.506  69.296  1.00  0.00     0.000 A 
ENDBRANCH  25  26
ENDBRANCH   7  25
BRANCH  14  32
ATOM     32  C   UNL     1      58.039  85.053  71.896  1.00  0.00    -0.046 C 
ATOM     33  C   UNL     1      57.980  85.117  70.399  1.00  0.00     0.042 C 
ATOM     34  C   UNL     1      56.935  84.904  72.643  1.00  0.00     0.010 C 
ENDBRANCH  14  32
ENDBRANCH   3   4
BRANCH   2  35
ATOM     35  C   UNL     1      64.413  88.009  72.424  1.00  0.00     0.078 CG0
ATOM     36  G   UNL     1      63.721  87.704  73.752  1.00  0.00     0.000 G0
ENDBRANCH   2  35
ENDBRANCH   1   2
BRANCH   1  37
ATOM     37  O   UNL     1      65.026  86.200  69.439  1.00  0.00    -0.461 OA
BRANCH  37  38
ATOM     38  C   UNL     1      64.765  86.040  68.098  1.00  0.00     0.310 C 
ATOM     39  O   UNL     1      64.456  86.941  67.330  1.00  0.00    -0.252 OA
BRANCH  38  40
ATOM     40  C   UNL     1      64.918  84.585  67.724  1.00  0.00     0.158 C 
BRANCH  40  41
ATOM     41  C   UNL     1      66.079  84.335  66.796  1.00  0.00    -0.033 A 
ATOM     42  C   UNL     1      67.370  84.701  67.180  1.00  0.00     0.054 A 
ATOM     43  C   UNL     1      65.863  83.738  65.555  1.00  0.00     0.008 A 
ATOM     44  C   UNL     1      68.444  84.470  66.321  1.00  0.00     0.160 A 
ATOM     45  C   UNL     1      66.938  83.506  64.696  1.00  0.00     0.050 A 
ATOM     46  C   UNL     1      68.228  83.873  65.078  1.00  0.00     0.157 A 
BRANCH  44  47
ATOM     47  O   UNL     1      69.699  84.832  66.706  1.00  0.00    -0.493 OA
ATOM     48  C   UNL     1      69.907  86.206  67.029  1.00  0.00     0.278 C 
ENDBRANCH  44  47
BRANCH  46  49
ATOM     49  O   UNL     1      69.269  83.641  64.232  1.00  0.00    -0.504 OA
ATOM     50  H   UNL     1      69.146  84.170  63.426  1.00  0.00     0.293 HD
ENDBRANCH  46  49
ENDBRANCH  40  41
ENDBRANCH  38  40
ENDBRANCH  37  38
ENDBRANCH   1  37
TORSDOF 11
ENDMDL
MODEL 6
REMARK VINA RESULT:    -6.082     16.711     20.309
REMARK INTER + INTRA:         -11.751
REMARK INTER:                 -10.017
REMARK INTRA:                  -1.734
REMARK UNBOUND:                -1.046
REMARK SMILES C=C(C)[C@]12C[C@@H](C)[C@@]34O[C@](Cc5ccccc5)(O[C@@H]1[C@@H]3C=C(COC(=O)Cc1ccc(O)c(OC)c1)C[C@]1(O)C(=O)C(C)=C[C@@H]41)O2
REMARK SMILES IDX 23 1 22 2 21 3 20 4 9 5 8 6 10 7 6 8 18 9 46 10 19 11 5 12
REMARK SMILES IDX 7 13 4 14 45 15 38 16 44 17 40 18 42 20 41 21 43 22 39 23
REMARK SMILES IDX 11 25 12 26 13 27 17 28 14 29 16 30 15 31 2 32 3 33 1 34
REMARK SMILES IDX 37 35 24 37 25 38 26 39 27 40 28 41 36 42 29 43 33 44 30 45
REMARK SMILES IDX 31 46 34 47 35 48 32 49
REMARK H PARENT 39 24 32 50
REMARK Flexibility Score: 90.00
ROOT
ATOM      1  C   UNL     1      97.870  76.332  79.294  1.00  0.00     0.264 C 
ENDROOT
BRANCH   1   2
ATOM      2  C   UNL     1      98.364  77.294  80.349  1.00  0.00    -0.033 C 
ATOM      3  C   UNL     1      97.473  78.058  81.013  1.00  0.00    -0.015 C 
BRANCH   3   4
ATOM      4  C   UNL     1      97.716  79.143  82.049  1.00  0.00     0.078 C 
ATOM      5  O   UNL     1      97.610  78.056  84.269  1.00  0.00    -0.319 OA
ATOM      6  C   UNL     1      98.505  78.766  83.358  1.00  0.00     0.095 C 
ATOM      7  C   UNL     1      96.283  78.605  84.381  1.00  0.00     0.289 C 
ATOM      8  C   UNL     1      98.981  80.116  84.037  1.00  0.00     0.023 C 
ATOM      9  O   UNL     1      95.638  78.662  83.111  1.00  0.00    -0.320 OA
ATOM     10  O   UNL     1      96.291  79.944  84.869  1.00  0.00    -0.313 OA
ATOM     11  C   UNL     1      96.364  79.744  82.508  1.00  0.00     0.170 C 
ATOM     12  C   UNL     1      97.955  81.267  83.801  1.00  0.00     0.049 C 
ATOM     13  C   UNL     1      99.307  80.021  85.537  1.00  0.00     0.011 C 
ATOM     14  C   UNL     1      96.526  80.736  83.687  1.00  0.00     0.122 C 
BRANCH   6  15
ATOM     15  C   UNL     1      99.633  77.741  83.045  1.00  0.00     0.086 C 
ATOM     16  C   UNL     1     100.460  78.007  81.770  1.00  0.00     0.140 CG0
ATOM     17  C   UNL     1     100.679  77.456  84.086  1.00  0.00    -0.010 C 
ATOM     18  C   UNL     1     101.836  77.514  82.164  1.00  0.00     0.190 C 
ATOM     19  G   UNL     1      99.900  77.270  80.554  1.00  0.00     0.000 G0
ATOM     20  C   UNL     1     101.922  77.296  83.621  1.00  0.00    -0.008 C 
ATOM     21  O   UNL     1     102.778  77.359  81.402  1.00  0.00    -0.291 OA
ATOM     22  C   UNL     1     103.165  76.930  84.331  1.00  0.00     0.048 C 
BRANCH  16  23
ATOM     23  O   UNL     1     100.661  79.384  81.493  1.00  0.00    -0.381 OA
ATOM     24  H   UNL     1     100.737  79.858  82.338  1.00  0.00     0.212 HD
ENDBRANCH  16  23
ENDBRANCH   6  15
BRANCH   7  25
ATOM     25  C   UNL     1      95.483  77.727  85.322  1.00  0.00     0.135 C 
BRANCH  25  26
ATOM     26  C   UNL     1      94.262  78.435  85.854  1.00  0.00    -0.040 A 
ATOM     27  C   UNL     1      94.324  79.113  87.072  1.00  0.00     0.004 A 
ATOM     28  C   UNL     1      93.071  78.413  85.128  1.00  0.00     0.004 A 
ATOM     29  C   UNL     1      93.194  79.767  87.564  1.00  0.00     0.000 A 
ATOM     30  C   UNL     1      91.942  79.068  85.620  1.00  0.00     0.000 A 
ATOM     31  C   UNL     1      92.004  79.744  86.838  1.00  0.00     0.000 A 
ENDBRANCH  25  26
ENDBRANCH   7  25
BRANCH  14  32
ATOM     32  C   UNL     1      95.509  81.830  83.643  1.00  0.00    -0.046 C 
ATOM     33  C   UNL     1      95.858  83.027  82.810  1.00  0.00     0.042 C 
ATOM     34  C   UNL     1      94.349  81.747  84.312  1.00  0.00     0.010 C 
ENDBRANCH  14  32
ENDBRANCH   3   4
BRANCH   2  35
ATOM     35  C   UNL     1      99.870  77.259  80.528  1.00  0.00     0.078 CG0
ATOM     36  G   UNL     1     100.445  77.980  81.747  1.00  0.00     0.000 G0
ENDBRANCH   2  35
ENDBRANCH   1   2
BRANCH   1  37
ATOM     37  O   UNL     1      98.413  76.692  78.042  1.00  0.00    -0.461 OA
BRANCH  37  38
ATOM     38  C   UNL     1      97.749  77.680  77.353  1.00  0.00     0.310 C 
ATOM     39  O   UNL     1      96.631  77.569  76.869  1.00  0.00    -0.252 OA
BRANCH  38  40
ATOM     40  C   UNL     1      98.613  78.918  77.287  1.00  0.00     0.158 C 
BRANCH  40  41
ATOM     41  C   UNL     1      97.819  80.177  77.056  1.00  0.00    -0.033 A 
ATOM     42  C   UNL     1      97.587  80.627  75.756  1.00  0.00     0.054 A 
ATOM     43  C   UNL     1      97.316  80.894  78.142  1.00  0.00     0.008 A 
ATOM     44  C   UNL     1      96.852  81.793  75.542  1.00  0.00     0.160 A 
ATOM     45  C   UNL     1      96.581  82.060  77.928  1.00  0.00     0.050 A 
ATOM     46  C   UNL     1      96.349  82.510  76.629  1.00  0.00     0.157 A 
BRANCH  44  47
ATOM     47  O   UNL     1      96.633  82.222  74.268  1.00  0.00    -0.493 OA
ATOM     48  C   UNL     1      97.781  82.545  73.486  1.00  0.00     0.278 C 
ENDBRANCH  44  47
BRANCH  46  49
ATOM     49  O   UNL     1      95.629  83.649  76.432  1.00  0.00    -0.504 OA
ATOM     50  H   UNL     1      95.501  83.782  75.478  1.00  0.00     0.293 HD
ENDBRANCH  46  49
ENDBRANCH  40  41
ENDBRANCH  38  40
ENDBRANCH  37  38
ENDBRANCH   1  37
TORSDOF 11
ENDMDL
MODEL 7
REMARK VINA RESULT:    -5.967     28.665     31.731
REMARK INTER + INTRA:         -11.547
REMARK INTER:                  -8.649
REMARK INTRA:                  -2.898
REMARK UNBOUND:                -1.046
REMARK SMILES C=C(C)[C@]12C[C@@H](C)[C@@]34O[C@](Cc5ccccc5)(O[C@@H]1[C@@H]3C=C(COC(=O)Cc1ccc(O)c(OC)c1)C[C@]1(O)C(=O)C(C)=C[C@@H]41)O2
REMARK SMILES IDX 23 1 22 2 21 3 20 4 9 5 8 6 10 7 6 8 18 9 46 10 19 11 5 12
REMARK SMILES IDX 7 13 4 14 45 15 38 16 44 17 40 18 42 20 41 21 43 22 39 23
REMARK SMILES IDX 11 25 12 26 13 27 17 28 14 29 16 30 15 31 2 32 3 33 1 34
REMARK SMILES IDX 37 35 24 37 25 38 26 39 27 40 28 41 36 42 29 43 33 44 30 45
REMARK SMILES IDX 31 46 34 47 35 48 32 49
REMARK H PARENT 39 24 32 50
REMARK Flexibility Score: 90.00
ROOT
ATOM      1  C   UNL     1      62.551  88.271  68.653  1.00  0.00     0.264 C 
ENDROOT
BRANCH   1   2
ATOM      2  C   UNL     1      62.713  87.043  69.518  1.00  0.00    -0.033 C 
ATOM      3  C   UNL     1      62.109  87.001  70.723  1.00  0.00    -0.015 C 
BRANCH   3   4
ATOM      4  C   UNL     1      62.178  85.930  71.799  1.00  0.00     0.078 C 
ATOM      5  O   UNL     1      60.274  84.398  71.414  1.00  0.00    -0.319 OA
ATOM      6  C   UNL     1      61.734  84.466  71.429  1.00  0.00     0.095 C 
ATOM      7  C   UNL     1      59.614  85.081  72.497  1.00  0.00     0.289 C 
ATOM      8  C   UNL     1      62.292  83.497  72.551  1.00  0.00     0.023 C 
ATOM      9  O   UNL     1      59.974  86.459  72.535  1.00  0.00    -0.320 OA
ATOM     10  O   UNL     1      59.977  84.553  73.770  1.00  0.00    -0.313 OA
ATOM     11  C   UNL     1      61.323  86.354  73.019  1.00  0.00     0.170 C 
ATOM     12  C   UNL     1      62.323  84.195  73.946  1.00  0.00     0.049 C 
ATOM     13  C   UNL     1      61.571  82.144  72.673  1.00  0.00     0.011 C 
ATOM     14  C   UNL     1      61.210  85.234  74.083  1.00  0.00     0.122 C 
BRANCH   6  15
ATOM     15  C   UNL     1      62.153  84.114  69.972  1.00  0.00     0.086 C 
ATOM     16  C   UNL     1      63.564  84.566  69.543  1.00  0.00     0.140 CG0
ATOM     17  C   UNL     1      62.090  82.684  69.513  1.00  0.00    -0.010 C 
ATOM     18  C   UNL     1      63.992  83.457  68.606  1.00  0.00     0.190 C 
ATOM     19  G   UNL     1      63.549  85.934  68.862  1.00  0.00     0.000 G0
ATOM     20  C   UNL     1      63.094  82.292  68.721  1.00  0.00    -0.008 C 
ATOM     21  O   UNL     1      64.975  83.482  67.881  1.00  0.00    -0.291 OA
ATOM     22  C   UNL     1      63.312  81.006  68.027  1.00  0.00     0.048 C 
BRANCH  16  23
ATOM     23  O   UNL     1      64.525  84.518  70.585  1.00  0.00    -0.381 OA
ATOM     24  H   UNL     1      64.066  84.646  71.432  1.00  0.00     0.212 HD
ENDBRANCH  16  23
ENDBRANCH   6  15
BRANCH   7  25
ATOM     25  C   UNL     1      58.118  84.947  72.302  1.00  0.00     0.135 C 
BRANCH  25  26
ATOM     26  C   UNL     1      57.486  86.247  71.870  1.00  0.00    -0.040 A 
ATOM     27  C   UNL     1      57.236  86.485  70.518  1.00  0.00     0.004 A 
ATOM     28  C   UNL     1      57.150  87.210  72.821  1.00  0.00     0.004 A 
ATOM     29  C   UNL     1      56.652  87.688  70.118  1.00  0.00     0.000 A 
ATOM     30  C   UNL     1      56.566  88.412  72.421  1.00  0.00     0.000 A 
ATOM     31  C   UNL     1      56.317  88.650  71.069  1.00  0.00     0.000 A 
ENDBRANCH  25  26
ENDBRANCH   7  25
BRANCH  14  32
ATOM     32  C   UNL     1      61.105  85.784  75.468  1.00  0.00    -0.046 C 
ATOM     33  C   UNL     1      62.055  86.892  75.814  1.00  0.00     0.042 C 
ATOM     34  C   UNL     1      60.213  85.314  76.353  1.00  0.00     0.010 C 
ENDBRANCH  14  32
ENDBRANCH   3   4
BRANCH   2  35
ATOM     35  C   UNL     1      63.571  85.971  68.874  1.00  0.00     0.078 CG0
ATOM     36  G   UNL     1      63.557  84.584  69.517  1.00  0.00     0.000 G0
ENDBRANCH   2  35
ENDBRANCH   1   2
BRANCH   1  37
ATOM     37  O   UNL     1      61.338  88.179  67.936  1.00  0.00    -0.461 OA
BRANCH  37  38
ATOM     38  C   UNL     1      60.666  89.361  67.724  1.00  0.00     0.310 C 
ATOM     39  O   UNL     1      61.085  90.298  67.058  1.00  0.00    -0.252 OA
BRANCH  38  40
ATOM     40  C   UNL     1      59.336  89.320  68.439  1.00  0.00     0.158 C 
BRANCH  40  41
ATOM     41  C   UNL     1      59.315  90.161  69.689  1.00  0.00    -0.033 A 
ATOM     42  C   UNL     1      59.914  89.689  70.858  1.00  0.00     0.054 A 
ATOM     43  C   UNL     1      58.697  91.412  69.678  1.00  0.00     0.008 A 
ATOM     44  C   UNL     1      59.894  90.468  72.015  1.00  0.00     0.160 A 
ATOM     45  C   UNL     1      58.677  92.190  70.835  1.00  0.00     0.050 A 
ATOM     46  C   UNL     1      59.275  91.719  72.003  1.00  0.00     0.157 A 
BRANCH  44  47
ATOM     47  O   UNL     1      60.481  89.997  73.150  1.00  0.00    -0.493 OA
ATOM     48  C   UNL     1      61.846  90.350  73.368  1.00  0.00     0.278 C 
ENDBRANCH  44  47
BRANCH  46  49
ATOM     49  O   UNL     1      59.250  92.489  73.127  1.00  0.00    -0.504 OA
ATOM     50  H   UNL     1      59.874  92.122  73.776  1.00  0.00     0.293 HD
ENDBRANCH  46  49
ENDBRANCH  40  41
ENDBRANCH  38  40
ENDBRANCH  37  38
ENDBRANCH   1  37
TORSDOF 11
ENDMDL
MODEL 8
REMARK VINA RESULT:    -5.907     33.315     36.018
REMARK INTER + INTRA:         -11.441
REMARK INTER:                 -10.445
REMARK INTRA:                  -0.996
REMARK UNBOUND:                -1.046
REMARK SMILES C=C(C)[C@]12C[C@@H](C)[C@@]34O[C@](Cc5ccccc5)(O[C@@H]1[C@@H]3C=C(COC(=O)Cc1ccc(O)c(OC)c1)C[C@]1(O)C(=O)C(C)=C[C@@H]41)O2
REMARK SMILES IDX 23 1 22 2 21 3 20 4 9 5 8 6 10 7 6 8 18 9 46 10 19 11 5 12
REMARK SMILES IDX 7 13 4 14 45 15 38 16 44 17 40 18 42 20 41 21 43 22 39 23
REMARK SMILES IDX 11 25 12 26 13 27 17 28 14 29 16 30 15 31 2 32 3 33 1 34
REMARK SMILES IDX 37 35 24 37 25 38 26 39 27 40 28 41 36 42 29 43 33 44 30 45
REMARK SMILES IDX 31 46 34 47 35 48 32 49
REMARK H PARENT 39 24 32 50
REMARK Flexibility Score: 90.00
ROOT
ATOM      1  C   UNL     1      91.541 102.637  72.761  1.00  0.00     0.264 C 
ENDROOT
BRANCH   1   2
ATOM      2  C   UNL     1      91.647 102.000  71.395  1.00  0.00    -0.033 C 
ATOM      3  C   UNL     1      90.634 102.148  70.518  1.00  0.00    -0.015 C 
BRANCH   3   4
ATOM      4  C   UNL     1      90.465 101.551  69.130  1.00  0.00     0.078 C 
ATOM      5  O   UNL     1      91.390 103.190  67.524  1.00  0.00    -0.319 OA
ATOM      6  C   UNL     1      91.574 101.839  68.051  1.00  0.00     0.095 C 
ATOM      7  C   UNL     1      90.027 103.564  67.249  1.00  0.00     0.289 C 
ATOM      8  C   UNL     1      91.387 100.790  66.878  1.00  0.00     0.023 C 
ATOM      9  O   UNL     1      89.214 103.449  68.414  1.00  0.00    -0.320 OA
ATOM     10  O   UNL     1      89.421 102.721  66.272  1.00  0.00    -0.313 OA
ATOM     11  C   UNL     1      89.122 102.019  68.516  1.00  0.00     0.170 C 
ATOM     12  C   UNL     1      89.885 100.422  66.675  1.00  0.00     0.049 C 
ATOM     13  C   UNL     1      92.002 101.192  65.528  1.00  0.00     0.011 C 
ATOM     14  C   UNL     1      88.963 101.587  67.037  1.00  0.00     0.122 C 
BRANCH   6  15
ATOM     15  C   UNL     1      92.986 101.866  68.705  1.00  0.00     0.086 C 
ATOM     16  C   UNL     1      93.274 100.764  69.745  1.00  0.00     0.140 CG0
ATOM     17  C   UNL     1      94.205 101.845  67.826  1.00  0.00    -0.010 C 
ATOM     18  C   UNL     1      94.749 100.493  69.533  1.00  0.00     0.190 C 
ATOM     19  G   UNL     1      92.963 101.220  71.170  1.00  0.00     0.000 G0
ATOM     20  C   UNL     1      95.223 101.105  68.277  1.00  0.00    -0.008 C 
ATOM     21  O   UNL     1      95.457  99.818  70.264  1.00  0.00    -0.291 OA
ATOM     22  C   UNL     1      96.582 100.921  67.728  1.00  0.00     0.048 C 
BRANCH  16  23
ATOM     23  O   UNL     1      92.656  99.522  69.452  1.00  0.00    -0.381 OA
ATOM     24  H   UNL     1      91.857  99.694  68.927  1.00  0.00     0.212 HD
ENDBRANCH  16  23
ENDBRANCH   6  15
BRANCH   7  25
ATOM     25  C   UNL     1      90.017 104.997  66.757  1.00  0.00     0.135 C 
BRANCH  25  26
ATOM     26  C   UNL     1      88.617 105.497  66.500  1.00  0.00    -0.040 A 
ATOM     27  C   UNL     1      88.166 105.662  65.190  1.00  0.00     0.004 A 
ATOM     28  C   UNL     1      87.773 105.791  67.570  1.00  0.00     0.004 A 
ATOM     29  C   UNL     1      86.871 106.124  64.952  1.00  0.00     0.000 A 
ATOM     30  C   UNL     1      86.479 106.253  67.332  1.00  0.00     0.000 A 
ATOM     31  C   UNL     1      86.028 106.420  66.022  1.00  0.00     0.000 A 
ENDBRANCH  25  26
ENDBRANCH   7  25
BRANCH  14  32
ATOM     32  C   UNL     1      87.537 101.324  66.679  1.00  0.00    -0.046 C 
ATOM     33  C   UNL     1      86.713 102.523  66.313  1.00  0.00     0.042 C 
ATOM     34  C   UNL     1      87.021 100.086  66.686  1.00  0.00     0.010 C 
ENDBRANCH  14  32
ENDBRANCH   3   4
BRANCH   2  35
ATOM     35  C   UNL     1      92.950 101.251  71.188  1.00  0.00     0.078 CG0
ATOM     36  G   UNL     1      93.262 100.771  69.771  1.00  0.00     0.000 G0
ENDBRANCH   2  35
ENDBRANCH   1   2
BRANCH   1  37
ATOM     37  O   UNL     1      90.814 103.843  72.658  1.00  0.00    -0.461 OA
BRANCH  37  38
ATOM     38  C   UNL     1      89.829 104.042  73.597  1.00  0.00     0.310 C 
ATOM     39  O   UNL     1      89.036 104.973  73.597  1.00  0.00    -0.252 OA
BRANCH  38  40
ATOM     40  C   UNL     1      89.880 102.935  74.624  1.00  0.00     0.158 C 
BRANCH  40  41
ATOM     41  C   UNL     1      89.966 103.448  76.038  1.00  0.00    -0.033 A 
ATOM     42  C   UNL     1      88.807 103.584  76.803  1.00  0.00     0.054 A 
ATOM     43  C   UNL     1      91.204 103.788  76.583  1.00  0.00     0.008 A 
ATOM     44  C   UNL     1      88.886 104.059  78.112  1.00  0.00     0.160 A 
ATOM     45  C   UNL     1      91.284 104.263  77.892  1.00  0.00     0.050 A 
ATOM     46  C   UNL     1      90.125 104.399  78.657  1.00  0.00     0.157 A 
BRANCH  44  47
ATOM     47  O   UNL     1      87.748 104.188  78.848  1.00  0.00    -0.493 OA
ATOM     48  C   UNL     1      86.571 104.600  78.155  1.00  0.00     0.278 C 
ENDBRANCH  44  47
BRANCH  46  49
ATOM     49  O   UNL     1      90.215 104.863  79.934  1.00  0.00    -0.504 OA
ATOM     50  H   UNL     1      90.714 105.697  79.933  1.00  0.00     0.293 HD
ENDBRANCH  46  49
ENDBRANCH  40  41
ENDBRANCH  38  40
ENDBRANCH  37  38
ENDBRANCH   1  37
TORSDOF 11
ENDMDL
MODEL 9
REMARK VINA RESULT:    -5.905     15.823     20.175
REMARK INTER + INTRA:         -11.438
REMARK INTER:                  -9.700
REMARK INTRA:                  -1.738
REMARK UNBOUND:                -1.046
REMARK SMILES C=C(C)[C@]12C[C@@H](C)[C@@]34O[C@](Cc5ccccc5)(O[C@@H]1[C@@H]3C=C(COC(=O)Cc1ccc(O)c(OC)c1)C[C@]1(O)C(=O)C(C)=C[C@@H]41)O2
REMARK SMILES IDX 23 1 22 2 21 3 20 4 9 5 8 6 10 7 6 8 18 9 46 10 19 11 5 12
REMARK SMILES IDX 7 13 4 14 45 15 38 16 44 17 40 18 42 20 41 21 43 22 39 23
REMARK SMILES IDX 11 25 12 26 13 27 17 28 14 29 16 30 15 31 2 32 3 33 1 34
REMARK SMILES IDX 37 35 24 37 25 38 26 39 27 40 28 41 36 42 29 43 33 44 30 45
REMARK SMILES IDX 31 46 34 47 35 48 32 49
REMARK H PARENT 39 24 32 50
REMARK Flexibility Score: 90.00
ROOT
ATOM      1  C   UNL     1      92.494  75.745  85.592  1.00  0.00     0.264 C 
ENDROOT
BRANCH   1   2
ATOM      2  C   UNL     1      93.502  76.754  86.088  1.00  0.00    -0.033 C 
ATOM      3  C   UNL     1      93.689  77.895  85.395  1.00  0.00    -0.015 C 
BRANCH   3   4
ATOM      4  C   UNL     1      94.684  79.019  85.637  1.00  0.00     0.078 C 
ATOM      5  O   UNL     1      93.536  80.708  87.033  1.00  0.00    -0.319 OA
ATOM      6  C   UNL     1      94.650  79.763  87.024  1.00  0.00     0.095 C 
ATOM      7  C   UNL     1      93.363  81.469  85.823  1.00  0.00     0.289 C 
ATOM      8  C   UNL     1      96.012  80.558  87.176  1.00  0.00     0.023 C 
ATOM      9  O   UNL     1      93.185  80.614  84.696  1.00  0.00    -0.320 OA
ATOM     10  O   UNL     1      94.501  82.271  85.521  1.00  0.00    -0.313 OA
ATOM     11  C   UNL     1      94.521  80.109  84.549  1.00  0.00     0.170 C 
ATOM     12  C   UNL     1      96.534  81.066  85.796  1.00  0.00     0.049 C 
ATOM     13  C   UNL     1      95.987  81.726  88.175  1.00  0.00     0.011 C 
ATOM     14  C   UNL     1      95.385  81.363  84.832  1.00  0.00     0.122 C 
BRANCH   6  15
ATOM     15  C   UNL     1      94.325  78.768  88.176  1.00  0.00     0.086 C 
ATOM     16  C   UNL     1      95.033  77.399  88.112  1.00  0.00     0.140 CG0
ATOM     17  C   UNL     1      94.527  79.200  89.601  1.00  0.00    -0.010 C 
ATOM     18  C   UNL     1      95.251  77.076  89.575  1.00  0.00     0.190 C 
ATOM     19  G   UNL     1      94.187  76.344  87.400  1.00  0.00     0.000 G0
ATOM     20  C   UNL     1      95.020  78.264  90.419  1.00  0.00    -0.008 C 
ATOM     21  O   UNL     1      95.620  75.997  90.015  1.00  0.00    -0.291 OA
ATOM     22  C   UNL     1      95.266  78.306  91.875  1.00  0.00     0.048 C 
BRANCH  16  23
ATOM     23  O   UNL     1      96.346  77.456  87.579  1.00  0.00    -0.381 OA
ATOM     24  H   UNL     1      96.282  77.556  86.615  1.00  0.00     0.212 HD
ENDBRANCH  16  23
ENDBRANCH   6  15
BRANCH   7  25
ATOM     25  C   UNL     1      92.147  82.357  85.989  1.00  0.00     0.135 C 
BRANCH  25  26
ATOM     26  C   UNL     1      92.257  83.244  87.204  1.00  0.00    -0.040 A 
ATOM     27  C   UNL     1      93.299  84.167  87.301  1.00  0.00     0.004 A 
ATOM     28  C   UNL     1      91.317  83.144  88.229  1.00  0.00     0.004 A 
ATOM     29  C   UNL     1      93.401  84.988  88.424  1.00  0.00     0.000 A 
ATOM     30  C   UNL     1      91.419  83.965  89.352  1.00  0.00     0.000 A 
ATOM     31  C   UNL     1      92.461  84.887  89.449  1.00  0.00     0.000 A 
ENDBRANCH  25  26
ENDBRANCH   7  25
BRANCH  14  32
ATOM     32  C   UNL     1      95.848  82.021  83.573  1.00  0.00    -0.046 C 
ATOM     33  C   UNL     1      95.949  83.517  83.606  1.00  0.00     0.042 C 
ATOM     34  C   UNL     1      96.156  81.315  82.475  1.00  0.00     0.010 C 
ENDBRANCH  14  32
ENDBRANCH   3   4
BRANCH   2  35
ATOM     35  C   UNL     1      94.194  76.324  87.368  1.00  0.00     0.078 CG0
ATOM     36  G   UNL     1      95.034  77.372  88.095  1.00  0.00     0.000 G0
ENDBRANCH   2  35
ENDBRANCH   1   2
BRANCH   1  37
ATOM     37  O   UNL     1      91.190  76.239  85.814  1.00  0.00    -0.461 OA
BRANCH  37  38
ATOM     38  C   UNL     1      90.446  76.520  84.692  1.00  0.00     0.310 C 
ATOM     39  O   UNL     1      89.649  75.754  84.168  1.00  0.00    -0.252 OA
BRANCH  38  40
ATOM     40  C   UNL     1      90.767  77.915  84.210  1.00  0.00     0.158 C 
BRANCH  40  41
ATOM     41  C   UNL     1      89.668  78.905  84.501  1.00  0.00    -0.033 A 
ATOM     42  C   UNL     1      89.656  79.596  85.713  1.00  0.00     0.054 A 
ATOM     43  C   UNL     1      88.665  79.130  83.559  1.00  0.00     0.008 A 
ATOM     44  C   UNL     1      88.639  80.512  85.983  1.00  0.00     0.160 A 
ATOM     45  C   UNL     1      87.648  80.046  83.829  1.00  0.00     0.050 A 
ATOM     46  C   UNL     1      87.634  80.737  85.040  1.00  0.00     0.157 A 
BRANCH  44  47
ATOM     47  O   UNL     1      88.637  81.181  87.170  1.00  0.00    -0.493 OA
ATOM     48  C   UNL     1      89.144  80.484  88.307  1.00  0.00     0.278 C 
ENDBRANCH  44  47
BRANCH  46  49
ATOM     49  O   UNL     1      86.637  81.630  85.292  1.00  0.00    -0.504 OA
ATOM     50  H   UNL     1      85.785  81.162  85.289  1.00  0.00     0.293 HD
ENDBRANCH  46  49
ENDBRANCH  40  41
ENDBRANCH  38  40
ENDBRANCH  37  38
ENDBRANCH   1  37
TORSDOF 11
ENDMDL
MODEL 10
REMARK VINA RESULT:    -5.851     18.172     21.963
REMARK INTER + INTRA:         -11.343
REMARK INTER:                 -10.057
REMARK INTRA:                  -1.286
REMARK UNBOUND:                -1.046
REMARK SMILES C=C(C)[C@]12C[C@@H](C)[C@@]34O[C@](Cc5ccccc5)(O[C@@H]1[C@@H]3C=C(COC(=O)Cc1ccc(O)c(OC)c1)C[C@]1(O)C(=O)C(C)=C[C@@H]41)O2
REMARK SMILES IDX 23 1 22 2 21 3 20 4 9 5 8 6 10 7 6 8 18 9 46 10 19 11 5 12
REMARK SMILES IDX 7 13 4 14 45 15 38 16 44 17 40 18 42 20 41 21 43 22 39 23
REMARK SMILES IDX 11 25 12 26 13 27 17 28 14 29 16 30 15 31 2 32 3 33 1 34
REMARK SMILES IDX 37 35 24 37 25 38 26 39 27 40 28 41 36 42 29 43 33 44 30 45
REMARK SMILES IDX 31 46 34 47 35 48 32 49
REMARK H PARENT 39 24 32 50
REMARK Flexibility Score: 90.00
ROOT
ATOM      1  C   UNL     1      96.301  77.983  87.233  1.00  0.00     0.264 C 
ENDROOT
BRANCH   1   2
ATOM      2  C   UNL     1      95.236  79.019  87.511  1.00  0.00    -0.033 C 
ATOM      3  C   UNL     1      95.573  80.324  87.521  1.00  0.00    -0.015 C 
BRANCH   3   4
ATOM      4  C   UNL     1      94.719  81.539  87.845  1.00  0.00     0.078 C 
ATOM      5  O   UNL     1      93.791  82.359  85.703  1.00  0.00    -0.319 OA
ATOM      6  C   UNL     1      93.417  81.787  86.995  1.00  0.00     0.095 C 
ATOM      7  C   UNL     1      94.805  83.380  85.751  1.00  0.00     0.289 C 
ATOM      8  C   UNL     1      92.518  82.824  87.786  1.00  0.00     0.023 C 
ATOM      9  O   UNL     1      95.998  82.895  86.362  1.00  0.00    -0.320 OA
ATOM     10  O   UNL     1      94.404  84.505  86.530  1.00  0.00    -0.313 OA
ATOM     11  C   UNL     1      95.571  82.827  87.731  1.00  0.00     0.170 C 
ATOM     12  C   UNL     1      93.389  83.847  88.579  1.00  0.00     0.049 C 
ATOM     13  C   UNL     1      91.483  83.582  86.938  1.00  0.00     0.011 C 
ATOM     14  C   UNL     1      94.723  84.115  87.881  1.00  0.00     0.122 C 
BRANCH   6  15
ATOM     15  C   UNL     1      92.726  80.439  86.638  1.00  0.00     0.086 C 
ATOM     16  C   UNL     1      92.647  79.395  87.770  1.00  0.00     0.140 CG0
ATOM     17  C   UNL     1      91.332  80.452  86.076  1.00  0.00    -0.010 C 
ATOM     18  C   UNL     1      91.326  78.710  87.491  1.00  0.00     0.190 C 
ATOM     19  G   UNL     1      93.826  78.423  87.743  1.00  0.00     0.000 G0
ATOM     20  C   UNL     1      90.529  79.477  86.514  1.00  0.00    -0.008 C 
ATOM     21  O   UNL     1      90.930  77.687  88.029  1.00  0.00    -0.291 OA
ATOM     22  C   UNL     1      89.146  79.136  86.124  1.00  0.00     0.048 C 
BRANCH  16  23
ATOM     23  O   UNL     1      92.470  79.958  89.059  1.00  0.00    -0.381 OA
ATOM     24  H   UNL     1      93.252  79.747  89.597  1.00  0.00     0.212 HD
ENDBRANCH  16  23
ENDBRANCH   6  15
BRANCH   7  25
ATOM     25  C   UNL     1      95.100  83.825  84.333  1.00  0.00     0.135 C 
BRANCH  25  26
ATOM     26  C   UNL     1      95.693  82.714  83.504  1.00  0.00    -0.040 A 
ATOM     27  C   UNL     1      96.577  83.013  82.467  1.00  0.00     0.004 A 
ATOM     28  C   UNL     1      95.358  81.387  83.773  1.00  0.00     0.004 A 
ATOM     29  C   UNL     1      97.126  81.985  81.699  1.00  0.00     0.000 A 
ATOM     30  C   UNL     1      95.907  80.359  83.006  1.00  0.00     0.000 A 
ATOM     31  C   UNL     1      96.791  80.659  81.969  1.00  0.00     0.000 A 
ENDBRANCH  25  26
ENDBRANCH   7  25
BRANCH  14  32
ATOM     32  C   UNL     1      95.494  85.223  88.521  1.00  0.00    -0.046 C 
ATOM     33  C   UNL     1      95.817  86.397  87.646  1.00  0.00     0.042 C 
ATOM     34  C   UNL     1      95.876  85.171  89.806  1.00  0.00     0.010 C 
ENDBRANCH  14  32
ENDBRANCH   3   4
BRANCH   2  35
ATOM     35  C   UNL     1      93.865  78.415  87.745  1.00  0.00     0.078 CG0
ATOM     36  G   UNL     1      92.675  79.373  87.777  1.00  0.00     0.000 G0
ENDBRANCH   2  35
ENDBRANCH   1   2
BRANCH   1  37
ATOM     37  O   UNL     1      96.668  78.044  85.872  1.00  0.00    -0.461 OA
BRANCH  37  38
ATOM     38  C   UNL     1      98.015  78.137  85.609  1.00  0.00     0.310 C 
ATOM     39  O   UNL     1      98.763  77.186  85.431  1.00  0.00    -0.252 OA
BRANCH  38  40
ATOM     40  C   UNL     1      98.423  79.591  85.574  1.00  0.00     0.158 C 
BRANCH  40  41
ATOM     41  C   UNL     1      99.867  79.806  85.948  1.00  0.00    -0.033 A 
ATOM     42  C   UNL     1     100.837  79.906  84.950  1.00  0.00     0.054 A 
ATOM     43  C   UNL     1     100.234  79.904  87.289  1.00  0.00     0.008 A 
ATOM     44  C   UNL     1     102.174  80.104  85.295  1.00  0.00     0.160 A 
ATOM     45  C   UNL     1     101.571  80.103  87.635  1.00  0.00     0.050 A 
ATOM     46  C   UNL     1     102.541  80.202  86.638  1.00  0.00     0.157 A 
BRANCH  44  47
ATOM     47  O   UNL     1     103.113  80.200  84.312  1.00  0.00    -0.493 OA
ATOM     48  C   UNL     1     103.699  78.982  83.855  1.00  0.00     0.278 C 
ENDBRANCH  44  47
BRANCH  46  49
ATOM     49  O   UNL     1     103.843  80.397  86.987  1.00  0.00    -0.504 OA
ATOM     50  H   UNL     1     104.247  81.025  86.364  1.00  0.00     0.293 HD
ENDBRANCH  46  49
ENDBRANCH  40  41
ENDBRANCH  38  40
ENDBRANCH  37  38
ENDBRANCH   1  37
TORSDOF 11
ENDMDL
