MODEL 1
REMARK VINA RESULT:    -6.418      0.000      0.000
REMARK INTER + INTRA:         -10.731
REMARK INTER:                  -9.983
REMARK INTRA:                  -0.748
REMARK UNBOUND:                -0.748
REMARK SMILES COc1cc(CNC(=O)CCCC/C=C/C(C)C)ccc1O
REMARK SMILES IDX 10 1 8 2 7 3 9 5 6 6 5 7 3 8 21 9 4 10 20 11 19 12 2 13 1 14
REMARK SMILES IDX 22 15 11 17 12 18 13 19 14 20 15 21 16 22 17 23 18 24
REMARK H PARENT 7 4 22 16
REMARK Flexibility Score: inf
ROOT
ATOM      1  C   UNL     1      93.598  82.762  84.753  1.00  0.00     0.100 C 
ENDROOT
BRANCH   1   2
ATOM      2  C   UNL     1      92.648  81.634  84.703  1.00  0.00     0.220 C 
ATOM      3  N   UNL     1      91.307  81.853  84.804  1.00  0.00    -0.352 N 
ATOM      4  H   UNL     1      91.042  82.819  84.937  1.00  0.00     0.163 HD
ATOM      5  O   UNL     1      93.110  80.478  84.541  1.00  0.00    -0.275 OA
BRANCH   3   6
ATOM      6  C   UNL     1      90.307  80.836  84.735  1.00  0.00     0.151 C 
BRANCH   6   7
ATOM      7  C   UNL     1      89.010  81.378  84.246  1.00  0.00    -0.025 A 
ATOM      8  C   UNL     1      87.331  83.178  84.215  1.00  0.00     0.160 A 
ATOM      9  C   UNL     1      86.549  82.434  83.307  1.00  0.00     0.157 A 
ATOM     10  C   UNL     1      88.551  82.643  84.677  1.00  0.00     0.056 A 
ATOM     11  C   UNL     1      86.984  81.163  82.884  1.00  0.00     0.050 A 
ATOM     12  C   UNL     1      88.210  80.642  83.341  1.00  0.00     0.009 A 
BRANCH   8  13
ATOM     13  O   UNL     1      86.880  84.387  84.681  1.00  0.00    -0.493 OA
ATOM     14  C   UNL     1      86.230  84.316  85.964  1.00  0.00     0.278 C 
ENDBRANCH   8  13
BRANCH   9  15
ATOM     15  O   UNL     1      85.375  82.927  82.833  1.00  0.00    -0.504 OA
ATOM     16  H   UNL     1      84.770  82.202  82.660  1.00  0.00     0.293 HD
ENDBRANCH   9  15
ENDBRANCH   6   7
ENDBRANCH   3   6
ENDBRANCH   1   2
BRANCH   1  17
ATOM     17  C   UNL     1      94.345  82.821  86.113  1.00  0.00     0.010 C 
BRANCH  17  18
ATOM     18  C   UNL     1      93.433  82.464  87.320  1.00  0.00     0.005 C 
BRANCH  18  19
ATOM     19  C   UNL     1      93.886  83.162  88.631  1.00  0.00     0.027 C 
BRANCH  19  20
ATOM     20  C   UNL     1      94.043  84.599  88.459  1.00  0.00    -0.031 C 
ATOM     21  C   UNL     1      93.031  85.483  88.525  1.00  0.00    -0.028 C 
BRANCH  21  22
ATOM     22  C   UNL     1      93.214  86.925  88.369  1.00  0.00     0.005 C 
ATOM     23  C   UNL     1      93.949  87.561  89.582  1.00  0.00     0.012 C 
ATOM     24  C   UNL     1      93.964  87.230  87.046  1.00  0.00     0.012 C 
ENDBRANCH  21  22
ENDBRANCH  19  20
ENDBRANCH  18  19
ENDBRANCH  17  18
ENDBRANCH   1  17
TORSDOF 10
ENDMDL
MODEL 2
REMARK VINA RESULT:    -6.302      4.074      6.095
REMARK INTER + INTRA:         -10.550
REMARK INTER:                  -9.977
REMARK INTRA:                  -0.573
REMARK UNBOUND:                -0.748
REMARK SMILES COc1cc(CNC(=O)CCCC/C=C/C(C)C)ccc1O
REMARK SMILES IDX 10 1 8 2 7 3 9 5 6 6 5 7 3 8 21 9 4 10 20 11 19 12 2 13 1 14
REMARK SMILES IDX 22 15 11 17 12 18 13 19 14 20 15 21 16 22 17 23 18 24
REMARK H PARENT 7 4 22 16
REMARK Flexibility Score: inf
ROOT
ATOM      1  C   UNL     1      95.199  82.801  83.285  1.00  0.00     0.100 C 
ENDROOT
BRANCH   1   2
ATOM      2  C   UNL     1      94.308  82.619  84.447  1.00  0.00     0.220 C 
ATOM      3  N   UNL     1      92.959  82.542  84.278  1.00  0.00    -0.352 N 
ATOM      4  H   UNL     1      92.641  82.643  83.324  1.00  0.00     0.163 HD
ATOM      5  O   UNL     1      94.831  82.514  85.583  1.00  0.00    -0.275 OA
BRANCH   3   6
ATOM      6  C   UNL     1      92.016  82.335  85.331  1.00  0.00     0.151 C 
BRANCH   6   7
ATOM      7  C   UNL     1      90.770  81.692  84.830  1.00  0.00    -0.025 A 
ATOM      8  C   UNL     1      88.347  81.789  84.405  1.00  0.00     0.160 A 
ATOM      9  C   UNL     1      88.389  80.488  83.862  1.00  0.00     0.157 A 
ATOM     10  C   UNL     1      89.536  82.377  84.886  1.00  0.00     0.056 A 
ATOM     11  C   UNL     1      89.609  79.785  83.818  1.00  0.00     0.050 A 
ATOM     12  C   UNL     1      90.793  80.385  84.289  1.00  0.00     0.009 A 
BRANCH   8  13
ATOM     13  O   UNL     1      87.151  82.452  84.511  1.00  0.00    -0.493 OA
ATOM     14  C   UNL     1      87.261  83.780  85.055  1.00  0.00     0.278 C 
ENDBRANCH   8  13
BRANCH   9  15
ATOM     15  O   UNL     1      87.265  79.898  83.379  1.00  0.00    -0.504 OA
ATOM     16  H   UNL     1      86.613  79.829  84.080  1.00  0.00     0.293 HD
ENDBRANCH   9  15
ENDBRANCH   6   7
ENDBRANCH   3   6
ENDBRANCH   1   2
BRANCH   1  17
ATOM     17  C   UNL     1      96.041  81.528  83.003  1.00  0.00     0.010 C 
BRANCH  17  18
ATOM     18  C   UNL     1      97.559  81.735  83.268  1.00  0.00     0.005 C 
BRANCH  18  19
ATOM     19  C   UNL     1      98.383  81.811  81.954  1.00  0.00     0.027 C 
BRANCH  19  20
ATOM     20  C   UNL     1      97.531  81.882  80.777  1.00  0.00    -0.031 C 
ATOM     21  C   UNL     1      97.956  82.259  79.558  1.00  0.00    -0.028 C 
BRANCH  21  22
ATOM     22  C   UNL     1      97.086  82.304  78.383  1.00  0.00     0.005 C 
ATOM     23  C   UNL     1      96.515  83.726  78.127  1.00  0.00     0.012 C 
ATOM     24  C   UNL     1      97.842  81.779  77.135  1.00  0.00     0.012 C 
ENDBRANCH  21  22
ENDBRANCH  19  20
ENDBRANCH  18  19
ENDBRANCH  17  18
ENDBRANCH   1  17
TORSDOF 10
ENDMDL
MODEL 3
REMARK VINA RESULT:    -6.153      7.541     10.234
REMARK INTER + INTRA:         -10.318
REMARK INTER:                  -9.540
REMARK INTRA:                  -0.778
REMARK UNBOUND:                -0.748
REMARK SMILES COc1cc(CNC(=O)CCCC/C=C/C(C)C)ccc1O
REMARK SMILES IDX 10 1 8 2 7 3 9 5 6 6 5 7 3 8 21 9 4 10 20 11 19 12 2 13 1 14
REMARK SMILES IDX 22 15 11 17 12 18 13 19 14 20 15 21 16 22 17 23 18 24
REMARK H PARENT 7 4 22 16
REMARK Flexibility Score: inf
ROOT
ATOM      1  C   UNL     1      97.890  80.243  81.824  1.00  0.00     0.100 C 
ENDROOT
BRANCH   1   2
ATOM      2  C   UNL     1      98.789  80.637  80.722  1.00  0.00     0.220 C 
ATOM      3  N   UNL     1      98.317  81.368  79.673  1.00  0.00    -0.352 N 
ATOM      4  H   UNL     1      97.331  81.583  79.713  1.00  0.00     0.163 HD
ATOM      5  O   UNL     1      99.995  80.300  80.792  1.00  0.00    -0.275 OA
BRANCH   3   6
ATOM      6  C   UNL     1      99.109  81.826  78.577  1.00  0.00     0.151 C 
BRANCH   6   7
ATOM      7  C   UNL     1      98.323  82.696  77.660  1.00  0.00    -0.025 A 
ATOM      8  C   UNL     1      98.044  83.769  75.462  1.00  0.00     0.160 A 
ATOM      9  C   UNL     1      96.826  84.336  75.892  1.00  0.00     0.157 A 
ATOM     10  C   UNL     1      98.781  82.957  76.349  1.00  0.00     0.056 A 
ATOM     11  C   UNL     1      96.366  84.099  77.203  1.00  0.00     0.050 A 
ATOM     12  C   UNL     1      97.104  83.278  78.078  1.00  0.00     0.009 A 
BRANCH   8  13
ATOM     13  O   UNL     1      98.528  84.049  74.209  1.00  0.00    -0.493 OA
ATOM     14  C   UNL     1      98.210  83.053  73.220  1.00  0.00     0.278 C 
ENDBRANCH   8  13
BRANCH   9  15
ATOM     15  O   UNL     1      96.086  85.111  75.058  1.00  0.00    -0.504 OA
ATOM     16  H   UNL     1      96.506  85.968  74.960  1.00  0.00     0.293 HD
ENDBRANCH   9  15
ENDBRANCH   6   7
ENDBRANCH   3   6
ENDBRANCH   1   2
BRANCH   1  17
ATOM     17  C   UNL     1      96.686  81.214  81.956  1.00  0.00     0.010 C 
BRANCH  17  18
ATOM     18  C   UNL     1      96.931  82.342  82.997  1.00  0.00     0.005 C 
BRANCH  18  19
ATOM     19  C   UNL     1      95.609  83.000  83.477  1.00  0.00     0.027 C 
BRANCH  19  20
ATOM     20  C   UNL     1      94.644  82.014  83.940  1.00  0.00    -0.031 C 
ATOM     21  C   UNL     1      93.385  82.307  84.316  1.00  0.00    -0.028 C 
BRANCH  21  22
ATOM     22  C   UNL     1      92.425  81.296  84.760  1.00  0.00     0.005 C 
ATOM     23  C   UNL     1      91.090  81.364  83.968  1.00  0.00     0.012 C 
ATOM     24  C   UNL     1      93.054  79.882  84.665  1.00  0.00     0.012 C 
ENDBRANCH  21  22
ENDBRANCH  19  20
ENDBRANCH  18  19
ENDBRANCH  17  18
ENDBRANCH   1  17
TORSDOF 10
ENDMDL
MODEL 4
REMARK VINA RESULT:    -5.984     20.046     23.283
REMARK INTER + INTRA:         -10.056
REMARK INTER:                  -9.472
REMARK INTRA:                  -0.584
REMARK UNBOUND:                -0.748
REMARK SMILES COc1cc(CNC(=O)CCCC/C=C/C(C)C)ccc1O
REMARK SMILES IDX 10 1 8 2 7 3 9 5 6 6 5 7 3 8 21 9 4 10 20 11 19 12 2 13 1 14
REMARK SMILES IDX 22 15 11 17 12 18 13 19 14 20 15 21 16 22 17 23 18 24
REMARK H PARENT 7 4 22 16
REMARK Flexibility Score: inf
ROOT
ATOM      1  C   UNL     1      73.488  90.241  70.718  1.00  0.00     0.100 C 
ENDROOT
BRANCH   1   2
ATOM      2  C   UNL     1      73.260  91.305  71.714  1.00  0.00     0.220 C 
ATOM      3  N   UNL     1      74.217  92.244  71.954  1.00  0.00    -0.352 N 
ATOM      4  H   UNL     1      75.070  92.129  71.424  1.00  0.00     0.163 HD
ATOM      5  O   UNL     1      72.156  91.331  72.311  1.00  0.00    -0.275 OA
BRANCH   3   6
ATOM      6  C   UNL     1      74.083  93.330  72.872  1.00  0.00     0.151 C 
BRANCH   6   7
ATOM      7  C   UNL     1      75.368  94.061  73.046  1.00  0.00    -0.025 A 
ATOM      8  C   UNL     1      77.484  94.386  74.261  1.00  0.00     0.160 A 
ATOM      9  C   UNL     1      77.830  95.431  73.380  1.00  0.00     0.157 A 
ATOM     10  C   UNL     1      76.257  93.713  74.087  1.00  0.00     0.056 A 
ATOM     11  C   UNL     1      76.945  95.803  72.349  1.00  0.00     0.050 A 
ATOM     12  C   UNL     1      75.727  95.117  72.176  1.00  0.00     0.009 A 
BRANCH   8  13
ATOM     13  O   UNL     1      78.313  94.065  75.306  1.00  0.00    -0.493 OA
ATOM     14  C   UNL     1      78.109  94.867  76.484  1.00  0.00     0.278 C 
ENDBRANCH   8  13
BRANCH   9  15
ATOM     15  O   UNL     1      79.010  96.091  73.511  1.00  0.00    -0.504 OA
ATOM     16  H   UNL     1      79.564  95.634  74.148  1.00  0.00     0.293 HD
ENDBRANCH   9  15
ENDBRANCH   6   7
ENDBRANCH   3   6
ENDBRANCH   1   2
BRANCH   1  17
ATOM     17  C   UNL     1      74.918  90.313  70.120  1.00  0.00     0.010 C 
BRANCH  17  18
ATOM     18  C   UNL     1      75.163  89.257  69.006  1.00  0.00     0.005 C 
BRANCH  18  19
ATOM     19  C   UNL     1      76.629  89.266  68.494  1.00  0.00     0.027 C 
BRANCH  19  20
ATOM     20  C   UNL     1      77.166  87.922  68.347  1.00  0.00    -0.031 C 
ATOM     21  C   UNL     1      76.645  86.831  68.938  1.00  0.00    -0.028 C 
BRANCH  21  22
ATOM     22  C   UNL     1      77.190  85.485  68.760  1.00  0.00     0.005 C 
ATOM     23  C   UNL     1      76.410  84.421  69.581  1.00  0.00     0.012 C 
ATOM     24  C   UNL     1      77.217  85.112  67.255  1.00  0.00     0.012 C 
ENDBRANCH  21  22
ENDBRANCH  19  20
ENDBRANCH  18  19
ENDBRANCH  17  18
ENDBRANCH   1  17
TORSDOF 10
ENDMDL
MODEL 5
REMARK VINA RESULT:    -5.860      4.982      7.670
REMARK INTER + INTRA:          -9.862
REMARK INTER:                  -9.135
REMARK INTRA:                  -0.727
REMARK UNBOUND:                -0.748
REMARK SMILES COc1cc(CNC(=O)CCCC/C=C/C(C)C)ccc1O
REMARK SMILES IDX 10 1 8 2 7 3 9 5 6 6 5 7 3 8 21 9 4 10 20 11 19 12 2 13 1 14
REMARK SMILES IDX 22 15 11 17 12 18 13 19 14 20 15 21 16 22 17 23 18 24
REMARK H PARENT 7 4 22 16
REMARK Flexibility Score: inf
ROOT
ATOM      1  C   UNL     1      95.889  83.494  82.866  1.00  0.00     0.100 C 
ENDROOT
BRANCH   1   2
ATOM      2  C   UNL     1      95.165  83.006  84.056  1.00  0.00     0.220 C 
ATOM      3  N   UNL     1      93.886  83.407  84.301  1.00  0.00    -0.352 N 
ATOM      4  H   UNL     1      93.509  84.063  83.630  1.00  0.00     0.163 HD
ATOM      5  O   UNL     1      95.752  82.197  84.815  1.00  0.00    -0.275 OA
BRANCH   3   6
ATOM      6  C   UNL     1      93.091  82.970  85.403  1.00  0.00     0.151 C 
BRANCH   6   7
ATOM      7  C   UNL     1      92.052  81.994  84.974  1.00  0.00    -0.025 A 
ATOM      8  C   UNL     1      91.397  79.685  84.426  1.00  0.00     0.160 A 
ATOM      9  C   UNL     1      90.078  80.118  84.175  1.00  0.00     0.157 A 
ATOM     10  C   UNL     1      92.370  80.626  84.820  1.00  0.00     0.056 A 
ATOM     11  C   UNL     1      89.750  81.482  84.304  1.00  0.00     0.050 A 
ATOM     12  C   UNL     1      90.726  82.412  84.710  1.00  0.00     0.009 A 
BRANCH   8  13
ATOM     13  O   UNL     1      91.736  78.369  84.237  1.00  0.00    -0.493 OA
ATOM     14  C   UNL     1      93.137  78.093  84.422  1.00  0.00     0.278 C 
ENDBRANCH   8  13
BRANCH   9  15
ATOM     15  O   UNL     1      89.114  79.235  83.806  1.00  0.00    -0.504 OA
ATOM     16  H   UNL     1      88.785  78.776  84.583  1.00  0.00     0.293 HD
ENDBRANCH   9  15
ENDBRANCH   6   7
ENDBRANCH   3   6
ENDBRANCH   1   2
BRANCH   1  17
ATOM     17  C   UNL     1      97.038  82.532  82.460  1.00  0.00     0.010 C 
BRANCH  17  18
ATOM     18  C   UNL     1      97.139  82.326  80.923  1.00  0.00     0.005 C 
BRANCH  18  19
ATOM     19  C   UNL     1      96.772  83.608  80.129  1.00  0.00     0.027 C 
BRANCH  19  20
ATOM     20  C   UNL     1      97.058  83.474  78.709  1.00  0.00    -0.031 C 
ATOM     21  C   UNL     1      97.658  82.403  78.156  1.00  0.00    -0.028 C 
BRANCH  21  22
ATOM     22  C   UNL     1      97.918  82.280  76.722  1.00  0.00     0.005 C 
ATOM     23  C   UNL     1      98.284  83.643  76.071  1.00  0.00     0.012 C 
ATOM     24  C   UNL     1      99.030  81.229  76.468  1.00  0.00     0.012 C 
ENDBRANCH  21  22
ENDBRANCH  19  20
ENDBRANCH  18  19
ENDBRANCH  17  18
ENDBRANCH   1  17
TORSDOF 10
ENDMDL
MODEL 6
REMARK VINA RESULT:    -5.794     23.157     25.672
REMARK INTER + INTRA:          -9.760
REMARK INTER:                  -7.488
REMARK INTRA:                  -2.272
REMARK UNBOUND:                -0.748
REMARK SMILES COc1cc(CNC(=O)CCCC/C=C/C(C)C)ccc1O
REMARK SMILES IDX 10 1 8 2 7 3 9 5 6 6 5 7 3 8 21 9 4 10 20 11 19 12 2 13 1 14
REMARK SMILES IDX 22 15 11 17 12 18 13 19 14 20 15 21 16 22 17 23 18 24
REMARK H PARENT 7 4 22 16
REMARK Flexibility Score: inf
ROOT
ATOM      1  C   UNL     1      72.150  88.842  65.821  1.00  0.00     0.100 C 
ENDROOT
BRANCH   1   2
ATOM      2  C   UNL     1      72.480  87.773  66.783  1.00  0.00     0.220 C 
ATOM      3  N   UNL     1      72.657  86.490  66.358  1.00  0.00    -0.352 N 
ATOM      4  H   UNL     1      72.521  86.347  65.367  1.00  0.00     0.163 HD
ATOM      5  O   UNL     1      72.615  88.084  67.991  1.00  0.00    -0.275 OA
BRANCH   3   6
ATOM      6  C   UNL     1      73.008  85.393  67.202  1.00  0.00     0.151 C 
BRANCH   6   7
ATOM      7  C   UNL     1      74.409  84.950  66.966  1.00  0.00    -0.025 A 
ATOM      8  C   UNL     1      76.099  83.919  65.501  1.00  0.00     0.160 A 
ATOM      9  C   UNL     1      77.081  84.116  66.494  1.00  0.00     0.157 A 
ATOM     10  C   UNL     1      74.773  84.335  65.747  1.00  0.00     0.056 A 
ATOM     11  C   UNL     1      76.729  84.710  67.722  1.00  0.00     0.050 A 
ATOM     12  C   UNL     1      75.406  85.133  67.954  1.00  0.00     0.009 A 
BRANCH   8  13
ATOM     13  O   UNL     1      76.422  83.282  64.330  1.00  0.00    -0.493 OA
ATOM     14  C   UNL     1      75.610  83.670  63.207  1.00  0.00     0.278 C 
ENDBRANCH   8  13
BRANCH   9  15
ATOM     15  O   UNL     1      78.369  83.740  66.283  1.00  0.00    -0.504 OA
ATOM     16  H   UNL     1      78.385  82.902  65.816  1.00  0.00     0.293 HD
ENDBRANCH   9  15
ENDBRANCH   6   7
ENDBRANCH   3   6
ENDBRANCH   1   2
BRANCH   1  17
ATOM     17  C   UNL     1      72.791  88.579  64.432  1.00  0.00     0.010 C 
BRANCH  17  18
ATOM     18  C   UNL     1      74.232  89.152  64.312  1.00  0.00     0.005 C 
BRANCH  18  19
ATOM     19  C   UNL     1      75.311  88.036  64.289  1.00  0.00     0.027 C 
BRANCH  19  20
ATOM     20  C   UNL     1      76.020  87.935  65.556  1.00  0.00    -0.031 C 
ATOM     21  C   UNL     1      75.839  88.773  66.593  1.00  0.00    -0.028 C 
BRANCH  21  22
ATOM     22  C   UNL     1      76.549  88.640  67.865  1.00  0.00     0.005 C 
ATOM     23  C   UNL     1      78.037  89.073  67.757  1.00  0.00     0.012 C 
ATOM     24  C   UNL     1      75.818  89.442  68.973  1.00  0.00     0.012 C 
ENDBRANCH  21  22
ENDBRANCH  19  20
ENDBRANCH  18  19
ENDBRANCH  17  18
ENDBRANCH   1  17
TORSDOF 10
ENDMDL
MODEL 7
REMARK VINA RESULT:    -5.666      4.294      7.656
REMARK INTER + INTRA:          -9.561
REMARK INTER:                  -8.485
REMARK INTRA:                  -1.076
REMARK UNBOUND:                -0.748
REMARK SMILES COc1cc(CNC(=O)CCCC/C=C/C(C)C)ccc1O
REMARK SMILES IDX 10 1 8 2 7 3 9 5 6 6 5 7 3 8 21 9 4 10 20 11 19 12 2 13 1 14
REMARK SMILES IDX 22 15 11 17 12 18 13 19 14 20 15 21 16 22 17 23 18 24
REMARK H PARENT 7 4 22 16
REMARK Flexibility Score: inf
ROOT
ATOM      1  C   UNL     1      94.009  80.861  85.761  1.00  0.00     0.100 C 
ENDROOT
BRANCH   1   2
ATOM      2  C   UNL     1      93.148  81.945  86.271  1.00  0.00     0.220 C 
ATOM      3  N   UNL     1      93.619  82.823  87.200  1.00  0.00    -0.352 N 
ATOM      4  H   UNL     1      94.566  82.651  87.509  1.00  0.00     0.163 HD
ATOM      5  O   UNL     1      91.986  82.045  85.809  1.00  0.00    -0.275 OA
BRANCH   3   6
ATOM      6  C   UNL     1      92.879  83.922  87.733  1.00  0.00     0.151 C 
BRANCH   6   7
ATOM      7  C   UNL     1      93.402  85.225  87.238  1.00  0.00    -0.025 A 
ATOM      8  C   UNL     1      94.384  86.576  85.429  1.00  0.00     0.160 A 
ATOM      9  C   UNL     1      94.387  87.706  86.273  1.00  0.00     0.157 A 
ATOM     10  C   UNL     1      93.895  85.347  85.920  1.00  0.00     0.056 A 
ATOM     11  C   UNL     1      93.917  87.594  87.597  1.00  0.00     0.050 A 
ATOM     12  C   UNL     1      93.419  86.366  88.074  1.00  0.00     0.009 A 
BRANCH   8  13
ATOM     13  O   UNL     1      94.901  86.663  84.162  1.00  0.00    -0.493 OA
ATOM     14  C   UNL     1      95.979  85.745  83.903  1.00  0.00     0.278 C 
ENDBRANCH   8  13
BRANCH   9  15
ATOM     15  O   UNL     1      94.839  88.906  85.828  1.00  0.00    -0.504 OA
ATOM     16  H   UNL     1      95.795  88.881  85.752  1.00  0.00     0.293 HD
ENDBRANCH   9  15
ENDBRANCH   6   7
ENDBRANCH   3   6
ENDBRANCH   1   2
BRANCH   1  17
ATOM     17  C   UNL     1      94.281  81.014  84.240  1.00  0.00     0.010 C 
BRANCH  17  18
ATOM     18  C   UNL     1      95.136  82.267  83.901  1.00  0.00     0.005 C 
BRANCH  18  19
ATOM     19  C   UNL     1      96.657  82.010  84.074  1.00  0.00     0.027 C 
BRANCH  19  20
ATOM     20  C   UNL     1      97.379  82.136  82.817  1.00  0.00    -0.031 C 
ATOM     21  C   UNL     1      96.805  82.050  81.603  1.00  0.00    -0.028 C 
BRANCH  21  22
ATOM     22  C   UNL     1      97.548  82.200  80.352  1.00  0.00     0.005 C 
ATOM     23  C   UNL     1      97.002  83.363  79.478  1.00  0.00     0.012 C 
ATOM     24  C   UNL     1      99.059  82.391  80.645  1.00  0.00     0.012 C 
ENDBRANCH  21  22
ENDBRANCH  19  20
ENDBRANCH  18  19
ENDBRANCH  17  18
ENDBRANCH   1  17
TORSDOF 10
ENDMDL
MODEL 8
REMARK VINA RESULT:    -5.613     22.943     25.703
REMARK INTER + INTRA:          -9.479
REMARK INTER:                  -8.219
REMARK INTRA:                  -1.260
REMARK UNBOUND:                -0.748
REMARK SMILES COc1cc(CNC(=O)CCCC/C=C/C(C)C)ccc1O
REMARK SMILES IDX 10 1 8 2 7 3 9 5 6 6 5 7 3 8 21 9 4 10 20 11 19 12 2 13 1 14
REMARK SMILES IDX 22 15 11 17 12 18 13 19 14 20 15 21 16 22 17 23 18 24
REMARK H PARENT 7 4 22 16
REMARK Flexibility Score: inf
ROOT
ATOM      1  C   UNL     1      71.169  85.074  66.671  1.00  0.00     0.100 C 
ENDROOT
BRANCH   1   2
ATOM      2  C   UNL     1      71.979  85.255  67.891  1.00  0.00     0.220 C 
ATOM      3  N   UNL     1      73.325  85.047  67.864  1.00  0.00    -0.352 N 
ATOM      4  H   UNL     1      73.693  84.747  66.971  1.00  0.00     0.163 HD
ATOM      5  O   UNL     1      71.396  85.626  68.938  1.00  0.00    -0.275 OA
BRANCH   3   6
ATOM      6  C   UNL     1      74.200  85.226  68.978  1.00  0.00     0.151 C 
BRANCH   6   7
ATOM      7  C   UNL     1      75.256  86.234  68.688  1.00  0.00    -0.025 A 
ATOM      8  C   UNL     1      76.019  88.575  68.680  1.00  0.00     0.160 A 
ATOM      9  C   UNL     1      77.265  88.168  68.159  1.00  0.00     0.157 A 
ATOM     10  C   UNL     1      75.027  87.606  68.938  1.00  0.00     0.056 A 
ATOM     11  C   UNL     1      77.500  86.806  67.887  1.00  0.00     0.050 A 
ATOM     12  C   UNL     1      76.508  85.844  68.158  1.00  0.00     0.009 A 
BRANCH   8  13
ATOM     13  O   UNL     1      75.761  89.907  68.885  1.00  0.00    -0.493 OA
ATOM     14  C   UNL     1      74.461  90.329  68.433  1.00  0.00     0.278 C 
ENDBRANCH   8  13
BRANCH   9  15
ATOM     15  O   UNL     1      78.246  89.074  67.913  1.00  0.00    -0.504 OA
ATOM     16  H   UNL     1      78.986  88.913  68.503  1.00  0.00     0.293 HD
ENDBRANCH   9  15
ENDBRANCH   6   7
ENDBRANCH   3   6
ENDBRANCH   1   2
BRANCH   1  17
ATOM     17  C   UNL     1      70.781  83.586  66.456  1.00  0.00     0.010 C 
BRANCH  17  18
ATOM     18  C   UNL     1      71.138  83.066  65.035  1.00  0.00     0.005 C 
BRANCH  18  19
ATOM     19  C   UNL     1      72.422  82.193  65.031  1.00  0.00     0.027 C 
BRANCH  19  20
ATOM     20  C   UNL     1      73.574  82.916  64.513  1.00  0.00    -0.031 C 
ATOM     21  C   UNL     1      74.675  83.198  65.232  1.00  0.00    -0.028 C 
BRANCH  21  22
ATOM     22  C   UNL     1      75.830  83.909  64.685  1.00  0.00     0.005 C 
ATOM     23  C   UNL     1      77.133  83.617  65.480  1.00  0.00     0.012 C 
ATOM     24  C   UNL     1      76.010  83.564  63.184  1.00  0.00     0.012 C 
ENDBRANCH  21  22
ENDBRANCH  19  20
ENDBRANCH  18  19
ENDBRANCH  17  18
ENDBRANCH   1  17
TORSDOF 10
ENDMDL
MODEL 9
REMARK VINA RESULT:    -5.500     22.639     24.989
REMARK INTER + INTRA:          -9.303
REMARK INTER:                  -8.017
REMARK INTRA:                  -1.286
REMARK UNBOUND:                -0.748
REMARK SMILES COc1cc(CNC(=O)CCCC/C=C/C(C)C)ccc1O
REMARK SMILES IDX 10 1 8 2 7 3 9 5 6 6 5 7 3 8 21 9 4 10 20 11 19 12 2 13 1 14
REMARK SMILES IDX 22 15 11 17 12 18 13 19 14 20 15 21 16 22 17 23 18 24
REMARK H PARENT 7 4 22 16
REMARK Flexibility Score: inf
ROOT
ATOM      1  C   UNL     1      74.287  89.026  69.356  1.00  0.00     0.100 C 
ENDROOT
BRANCH   1   2
ATOM      2  C   UNL     1      73.570  88.152  68.409  1.00  0.00     0.220 C 
ATOM      3  N   UNL     1      73.285  86.861  68.738  1.00  0.00    -0.352 N 
ATOM      4  H   UNL     1      73.621  86.569  69.646  1.00  0.00     0.163 HD
ATOM      5  O   UNL     1      73.213  88.638  67.308  1.00  0.00    -0.275 OA
BRANCH   3   6
ATOM      6  C   UNL     1      72.570  85.946  67.908  1.00  0.00     0.151 C 
BRANCH   6   7
ATOM      7  C   UNL     1      71.265  85.564  68.512  1.00  0.00    -0.025 A 
ATOM      8  C   UNL     1      69.061  86.209  69.402  1.00  0.00     0.160 A 
ATOM      9  C   UNL     1      68.763  84.853  69.647  1.00  0.00     0.157 A 
ATOM     10  C   UNL     1      70.309  86.552  68.839  1.00  0.00     0.056 A 
ATOM     11  C   UNL     1      69.714  83.858  69.345  1.00  0.00     0.050 A 
ATOM     12  C   UNL     1      70.952  84.209  68.772  1.00  0.00     0.009 A 
BRANCH   8  13
ATOM     13  O   UNL     1      68.165  87.185  69.756  1.00  0.00    -0.493 OA
ATOM     14  C   UNL     1      68.479  87.849  70.994  1.00  0.00     0.278 C 
ENDBRANCH   8  13
BRANCH   9  15
ATOM     15  O   UNL     1      67.566  84.488  70.176  1.00  0.00    -0.504 OA
ATOM     16  H   UNL     1      67.706  84.073  71.030  1.00  0.00     0.293 HD
ENDBRANCH   9  15
ENDBRANCH   6   7
ENDBRANCH   3   6
ENDBRANCH   1   2
BRANCH   1  17
ATOM     17  C   UNL     1      75.369  89.880  68.642  1.00  0.00     0.010 C 
BRANCH  17  18
ATOM     18  C   UNL     1      76.792  89.260  68.742  1.00  0.00     0.005 C 
BRANCH  18  19
ATOM     19  C   UNL     1      77.177  88.459  67.469  1.00  0.00     0.027 C 
BRANCH  19  20
ATOM     20  C   UNL     1      77.109  87.021  67.686  1.00  0.00    -0.031 C 
ATOM     21  C   UNL     1      76.928  86.446  68.889  1.00  0.00    -0.028 C 
BRANCH  21  22
ATOM     22  C   UNL     1      76.843  84.998  69.081  1.00  0.00     0.005 C 
ATOM     23  C   UNL     1      75.837  84.611  70.200  1.00  0.00     0.012 C 
ATOM     24  C   UNL     1      76.479  84.301  67.745  1.00  0.00     0.012 C 
ENDBRANCH  21  22
ENDBRANCH  19  20
ENDBRANCH  18  19
ENDBRANCH  17  18
ENDBRANCH   1  17
TORSDOF 10
ENDMDL
MODEL 10
REMARK VINA RESULT:    -5.499     38.838     40.470
REMARK INTER + INTRA:          -9.301
REMARK INTER:                  -8.635
REMARK INTRA:                  -0.666
REMARK UNBOUND:                -0.748
REMARK SMILES COc1cc(CNC(=O)CCCC/C=C/C(C)C)ccc1O
REMARK SMILES IDX 10 1 8 2 7 3 9 5 6 6 5 7 3 8 21 9 4 10 20 11 19 12 2 13 1 14
REMARK SMILES IDX 22 15 11 17 12 18 13 19 14 20 15 21 16 22 17 23 18 24
REMARK H PARENT 7 4 22 16
REMARK Flexibility Score: inf
ROOT
ATOM      1  C   UNL     1      55.953  93.441  72.933  1.00  0.00     0.100 C 
ENDROOT
BRANCH   1   2
ATOM      2  C   UNL     1      55.459  93.622  71.554  1.00  0.00     0.220 C 
ATOM      3  N   UNL     1      55.209  92.542  70.762  1.00  0.00    -0.352 N 
ATOM      4  H   UNL     1      55.410  91.646  71.186  1.00  0.00     0.163 HD
ATOM      5  O   UNL     1      55.257  94.791  71.145  1.00  0.00    -0.275 OA
BRANCH   3   6
ATOM      6  C   UNL     1      54.701  92.608  69.429  1.00  0.00     0.151 C 
BRANCH   6   7
ATOM      7  C   UNL     1      55.071  91.399  68.643  1.00  0.00    -0.025 A 
ATOM      8  C   UNL     1      54.727  89.946  66.685  1.00  0.00     0.160 A 
ATOM      9  C   UNL     1      55.775  89.109  67.121  1.00  0.00     0.157 A 
ATOM     10  C   UNL     1      54.383  91.080  67.450  1.00  0.00     0.056 A 
ATOM     11  C   UNL     1      56.457  89.404  68.318  1.00  0.00     0.050 A 
ATOM     12  C   UNL     1      56.114  90.545  69.069  1.00  0.00     0.009 A 
BRANCH   8  13
ATOM     13  O   UNL     1      54.017  89.627  65.555  1.00  0.00    -0.493 OA
ATOM     14  C   UNL     1      53.738  90.751  64.701  1.00  0.00     0.278 C 
ENDBRANCH   8  13
BRANCH   9  15
ATOM     15  O   UNL     1      56.140  88.017  66.401  1.00  0.00    -0.504 OA
ATOM     16  H   UNL     1      56.728  87.469  66.925  1.00  0.00     0.293 HD
ENDBRANCH   9  15
ENDBRANCH   6   7
ENDBRANCH   3   6
ENDBRANCH   1   2
BRANCH   1  17
ATOM     17  C   UNL     1      55.020  92.514  73.757  1.00  0.00     0.010 C 
BRANCH  17  18
ATOM     18  C   UNL     1      53.737  93.235  74.257  1.00  0.00     0.005 C 
BRANCH  18  19
ATOM     19  C   UNL     1      52.474  92.339  74.145  1.00  0.00     0.027 C 
BRANCH  19  20
ATOM     20  C   UNL     1      52.008  91.886  75.447  1.00  0.00    -0.031 C 
ATOM     21  C   UNL     1      52.076  90.611  75.872  1.00  0.00    -0.028 C 
BRANCH  21  22
ATOM     22  C   UNL     1      51.619  90.180  77.193  1.00  0.00     0.005 C 
ATOM     23  C   UNL     1      50.938  88.785  77.155  1.00  0.00     0.012 C 
ATOM     24  C   UNL     1      52.800  90.192  78.199  1.00  0.00     0.012 C 
ENDBRANCH  21  22
ENDBRANCH  19  20
ENDBRANCH  18  19
ENDBRANCH  17  18
ENDBRANCH   1  17
TORSDOF 10
ENDMDL
