MODEL 1
REMARK VINA RESULT:    -6.214      0.000      0.000
REMARK INTER + INTRA:         -10.834
REMARK INTER:                 -10.029
REMARK INTRA:                  -0.805
REMARK UNBOUND:                -0.805
REMARK SMILES COc1cc(CNC(=O)CCCCCCC(C)C)ccc1O
REMARK SMILES IDX 11 1 10 2 8 3 7 4 9 6 6 7 5 8 3 9 21 10 4 11 20 12 19 13
REMARK SMILES IDX 2 14 1 15 22 16 12 18 13 19 14 20 15 21 16 22 17 23 18 24
REMARK H PARENT 7 5 22 17
REMARK Flexibility Score: inf
ROOT
ATOM      1  C   UNL     1      98.014  82.243  78.288  1.00  0.00     0.010 C 
ENDROOT
BRANCH   1   2
ATOM      2  C   UNL     1      97.395  83.103  79.424  1.00  0.00     0.100 C 
BRANCH   2   3
ATOM      3  C   UNL     1      97.307  82.388  80.717  1.00  0.00     0.220 C 
ATOM      4  N   UNL     1      97.438  83.069  81.891  1.00  0.00    -0.352 N 
ATOM      5  H   UNL     1      97.638  84.053  81.787  1.00  0.00     0.163 HD
ATOM      6  O   UNL     1      97.085  81.152  80.707  1.00  0.00    -0.275 OA
BRANCH   4   7
ATOM      7  C   UNL     1      97.315  82.496  83.197  1.00  0.00     0.151 C 
BRANCH   7   8
ATOM      8  C   UNL     1      96.031  82.839  83.869  1.00  0.00    -0.025 A 
ATOM      9  C   UNL     1      94.698  84.363  85.266  1.00  0.00     0.160 A 
ATOM     10  C   UNL     1      93.574  83.521  85.115  1.00  0.00     0.157 A 
ATOM     11  C   UNL     1      95.921  84.006  84.658  1.00  0.00     0.056 A 
ATOM     12  C   UNL     1      93.682  82.337  84.365  1.00  0.00     0.050 A 
ATOM     13  C   UNL     1      94.898  82.002  83.736  1.00  0.00     0.009 A 
BRANCH   9  14
ATOM     14  O   UNL     1      94.615  85.497  86.027  1.00  0.00    -0.493 OA
ATOM     15  C   UNL     1      94.278  86.676  85.275  1.00  0.00     0.278 C 
ENDBRANCH   9  14
BRANCH  10  16
ATOM     16  O   UNL     1      92.385  83.839  85.691  1.00  0.00    -0.504 OA
ATOM     17  H   UNL     1      92.426  84.733  86.037  1.00  0.00     0.293 HD
ENDBRANCH  10  16
ENDBRANCH   7   8
ENDBRANCH   4   7
ENDBRANCH   2   3
ENDBRANCH   1   2
BRANCH   1  18
ATOM     18  C   UNL     1      97.495  82.664  76.883  1.00  0.00     0.001 C 
BRANCH  18  19
ATOM     19  C   UNL     1      96.642  83.964  76.894  1.00  0.00     0.000 C 
BRANCH  19  20
ATOM     20  C   UNL     1      96.969  84.872  75.676  1.00  0.00     0.000 C 
BRANCH  20  21
ATOM     21  C   UNL     1      96.875  84.153  74.301  1.00  0.00     0.003 C 
BRANCH  21  22
ATOM     22  C   UNL     1      98.125  84.342  73.382  1.00  0.00    -0.017 C 
ATOM     23  C   UNL     1      98.566  82.980  72.776  1.00  0.00     0.007 C 
ATOM     24  C   UNL     1      99.324  85.037  74.092  1.00  0.00     0.007 C 
ENDBRANCH  21  22
ENDBRANCH  20  21
ENDBRANCH  19  20
ENDBRANCH  18  19
ENDBRANCH   1  18
TORSDOF 11
ENDMDL
MODEL 2
REMARK VINA RESULT:    -5.912     11.821     13.496
REMARK INTER + INTRA:         -10.346
REMARK INTER:                  -9.632
REMARK INTRA:                  -0.714
REMARK UNBOUND:                -0.805
REMARK SMILES COc1cc(CNC(=O)CCCCCCC(C)C)ccc1O
REMARK SMILES IDX 11 1 10 2 8 3 7 4 9 6 6 7 5 8 3 9 21 10 4 11 20 12 19 13
REMARK SMILES IDX 2 14 1 15 22 16 12 18 13 19 14 20 15 21 16 22 17 23 18 24
REMARK H PARENT 7 5 22 17
REMARK Flexibility Score: inf
ROOT
ATOM      1  C   UNL     1      94.767  95.459  77.519  1.00  0.00     0.010 C 
ENDROOT
BRANCH   1   2
ATOM      2  C   UNL     1      95.139  94.244  78.413  1.00  0.00     0.100 C 
BRANCH   2   3
ATOM      3  C   UNL     1      95.291  94.594  79.842  1.00  0.00     0.220 C 
ATOM      4  N   UNL     1      96.184  95.553  80.226  1.00  0.00    -0.352 N 
ATOM      5  H   UNL     1      96.732  95.943  79.473  1.00  0.00     0.163 HD
ATOM      6  O   UNL     1      94.568  94.010  80.686  1.00  0.00    -0.275 OA
BRANCH   4   7
ATOM      7  C   UNL     1      96.375  96.014  81.567  1.00  0.00     0.151 C 
BRANCH   7   8
ATOM      8  C   UNL     1      97.778  96.424  81.852  1.00  0.00    -0.025 A 
ATOM      9  C   UNL     1      99.698  96.523  83.385  1.00  0.00     0.160 A 
ATOM     10  C   UNL     1     100.465  97.162  82.387  1.00  0.00     0.157 A 
ATOM     11  C   UNL     1      98.357  96.176  83.117  1.00  0.00     0.056 A 
ATOM     12  C   UNL     1      99.888  97.449  81.137  1.00  0.00     0.050 A 
ATOM     13  C   UNL     1      98.558  97.074  80.866  1.00  0.00     0.009 A 
BRANCH   9  14
ATOM     14  O   UNL     1     100.238  96.274  84.618  1.00  0.00    -0.493 OA
ATOM     15  C   UNL     1      99.916  97.272  85.603  1.00  0.00     0.278 C 
ENDBRANCH   9  14
BRANCH  10  16
ATOM     16  O   UNL     1     101.759  97.509  82.618  1.00  0.00    -0.504 OA
ATOM     17  H   UNL     1     102.027  97.184  83.481  1.00  0.00     0.293 HD
ENDBRANCH  10  16
ENDBRANCH   7   8
ENDBRANCH   4   7
ENDBRANCH   2   3
ENDBRANCH   1   2
BRANCH   1  18
ATOM     18  C   UNL     1      93.452  96.148  77.983  1.00  0.00     0.001 C 
BRANCH  18  19
ATOM     19  C   UNL     1      92.480  96.492  76.819  1.00  0.00     0.000 C 
BRANCH  19  20
ATOM     20  C   UNL     1      91.216  95.587  76.845  1.00  0.00     0.000 C 
BRANCH  20  21
ATOM     21  C   UNL     1      91.518  94.074  77.028  1.00  0.00     0.003 C 
BRANCH  21  22
ATOM     22  C   UNL     1      90.691  93.128  76.097  1.00  0.00    -0.017 C 
ATOM     23  C   UNL     1      90.023  93.940  74.952  1.00  0.00     0.007 C 
ATOM     24  C   UNL     1      89.628  92.279  76.854  1.00  0.00     0.007 C 
ENDBRANCH  21  22
ENDBRANCH  20  21
ENDBRANCH  19  20
ENDBRANCH  18  19
ENDBRANCH   1  18
TORSDOF 11
ENDMDL
MODEL 3
REMARK VINA RESULT:    -5.753     13.409     16.386
REMARK INTER + INTRA:         -10.090
REMARK INTER:                  -9.293
REMARK INTRA:                  -0.797
REMARK UNBOUND:                -0.805
REMARK SMILES COc1cc(CNC(=O)CCCCCCC(C)C)ccc1O
REMARK SMILES IDX 11 1 10 2 8 3 7 4 9 6 6 7 5 8 3 9 21 10 4 11 20 12 19 13
REMARK SMILES IDX 2 14 1 15 22 16 12 18 13 19 14 20 15 21 16 22 17 23 18 24
REMARK H PARENT 7 5 22 17
REMARK Flexibility Score: inf
ROOT
ATOM      1  C   UNL     1      95.810  95.492  78.986  1.00  0.00     0.010 C 
ENDROOT
BRANCH   1   2
ATOM      2  C   UNL     1      95.493  96.996  78.758  1.00  0.00     0.100 C 
BRANCH   2   3
ATOM      3  C   UNL     1      96.425  97.653  77.814  1.00  0.00     0.220 C 
ATOM      4  N   UNL     1      96.010  97.992  76.559  1.00  0.00    -0.352 N 
ATOM      5  H   UNL     1      95.063  97.718  76.340  1.00  0.00     0.163 HD
ATOM      6  O   UNL     1      97.590  97.913  78.202  1.00  0.00    -0.275 OA
BRANCH   4   7
ATOM      7  C   UNL     1      96.801  98.680  75.585  1.00  0.00     0.151 C 
BRANCH   7   8
ATOM      8  C   UNL     1      96.589  98.181  74.198  1.00  0.00    -0.025 A 
ATOM      9  C   UNL     1      97.433  97.803  71.920  1.00  0.00     0.160 A 
ATOM     10  C   UNL     1      96.209  97.193  71.566  1.00  0.00     0.157 A 
ATOM     11  C   UNL     1      97.606  98.308  73.225  1.00  0.00     0.056 A 
ATOM     12  C   UNL     1      95.175  97.097  72.514  1.00  0.00     0.050 A 
ATOM     13  C   UNL     1      95.366  97.577  73.824  1.00  0.00     0.009 A 
BRANCH   9  14
ATOM     14  O   UNL     1      98.431  97.938  70.993  1.00  0.00    -0.493 OA
ATOM     15  C   UNL     1      99.553  98.709  71.458  1.00  0.00     0.278 C 
ENDBRANCH   9  14
BRANCH  10  16
ATOM     16  O   UNL     1      96.013  96.699  70.315  1.00  0.00    -0.504 OA
ATOM     17  H   UNL     1      96.068  95.741  70.338  1.00  0.00     0.293 HD
ENDBRANCH  10  16
ENDBRANCH   7   8
ENDBRANCH   4   7
ENDBRANCH   2   3
ENDBRANCH   1   2
BRANCH   1  18
ATOM     18  C   UNL     1      94.575  94.585  78.723  1.00  0.00     0.001 C 
BRANCH  18  19
ATOM     19  C   UNL     1      93.301  95.368  78.300  1.00  0.00     0.000 C 
BRANCH  19  20
ATOM     20  C   UNL     1      92.715  94.830  76.964  1.00  0.00     0.000 C 
BRANCH  20  21
ATOM     21  C   UNL     1      91.470  95.607  76.455  1.00  0.00     0.003 C 
BRANCH  21  22
ATOM     22  C   UNL     1      90.164  94.752  76.360  1.00  0.00    -0.017 C 
ATOM     23  C   UNL     1      90.147  93.661  77.467  1.00  0.00     0.007 C 
ATOM     24  C   UNL     1      89.938  94.110  74.959  1.00  0.00     0.007 C 
ENDBRANCH  21  22
ENDBRANCH  20  21
ENDBRANCH  19  20
ENDBRANCH  18  19
ENDBRANCH   1  18
TORSDOF 11
ENDMDL
MODEL 4
REMARK VINA RESULT:    -5.659     13.078     15.792
REMARK INTER + INTRA:          -9.938
REMARK INTER:                  -8.950
REMARK INTRA:                  -0.988
REMARK UNBOUND:                -0.805
REMARK SMILES COc1cc(CNC(=O)CCCCCCC(C)C)ccc1O
REMARK SMILES IDX 11 1 10 2 8 3 7 4 9 6 6 7 5 8 3 9 21 10 4 11 20 12 19 13
REMARK SMILES IDX 2 14 1 15 22 16 12 18 13 19 14 20 15 21 16 22 17 23 18 24
REMARK H PARENT 7 5 22 17
REMARK Flexibility Score: inf
ROOT
ATOM      1  C   UNL     1      94.056  94.820  79.069  1.00  0.00     0.010 C 
ENDROOT
BRANCH   1   2
ATOM      2  C   UNL     1      95.475  95.389  79.344  1.00  0.00     0.100 C 
BRANCH   2   3
ATOM      3  C   UNL     1      95.661  96.768  78.840  1.00  0.00     0.220 C 
ATOM      4  N   UNL     1      96.444  97.004  77.748  1.00  0.00    -0.352 N 
ATOM      5  H   UNL     1      96.897  96.184  77.370  1.00  0.00     0.163 HD
ATOM      6  O   UNL     1      95.064  97.707  79.423  1.00  0.00    -0.275 OA
BRANCH   4   7
ATOM      7  C   UNL     1      96.649  98.283  77.139  1.00  0.00     0.151 C 
BRANCH   7   8
ATOM      8  C   UNL     1      96.844  98.206  75.665  1.00  0.00    -0.025 A 
ATOM      9  C   UNL     1      95.958  97.721  73.423  1.00  0.00     0.160 A 
ATOM     10  C   UNL     1      97.192  98.099  72.851  1.00  0.00     0.157 A 
ATOM     11  C   UNL     1      95.799  97.759  74.824  1.00  0.00     0.056 A 
ATOM     12  C   UNL     1      98.252  98.508  73.680  1.00  0.00     0.050 A 
ATOM     13  C   UNL     1      98.077  98.572  75.076  1.00  0.00     0.009 A 
BRANCH   9  14
ATOM     14  O   UNL     1      94.933  97.283  72.628  1.00  0.00    -0.493 OA
ATOM     15  C   UNL     1      93.842  98.216  72.523  1.00  0.00     0.278 C 
ENDBRANCH   9  14
BRANCH  10  16
ATOM     16  O   UNL     1      97.374  98.071  71.504  1.00  0.00    -0.504 OA
ATOM     17  H   UNL     1      97.127  97.206  71.167  1.00  0.00     0.293 HD
ENDBRANCH  10  16
ENDBRANCH   7   8
ENDBRANCH   4   7
ENDBRANCH   2   3
ENDBRANCH   1   2
BRANCH   1  18
ATOM     18  C   UNL     1      93.693  94.855  77.557  1.00  0.00     0.001 C 
BRANCH  18  19
ATOM     19  C   UNL     1      92.563  95.863  77.206  1.00  0.00     0.000 C 
BRANCH  19  20
ATOM     20  C   UNL     1      91.894  95.523  75.845  1.00  0.00     0.000 C 
BRANCH  20  21
ATOM     21  C   UNL     1      90.536  94.778  75.971  1.00  0.00     0.003 C 
BRANCH  21  22
ATOM     22  C   UNL     1      90.654  93.221  76.055  1.00  0.00    -0.017 C 
ATOM     23  C   UNL     1      90.298  92.574  74.687  1.00  0.00     0.007 C 
ATOM     24  C   UNL     1      89.801  92.591  77.195  1.00  0.00     0.007 C 
ENDBRANCH  21  22
ENDBRANCH  20  21
ENDBRANCH  19  20
ENDBRANCH  18  19
ENDBRANCH   1  18
TORSDOF 11
ENDMDL
MODEL 5
REMARK VINA RESULT:    -5.625     12.395     13.968
REMARK INTER + INTRA:          -9.883
REMARK INTER:                  -9.066
REMARK INTRA:                  -0.817
REMARK UNBOUND:                -0.805
REMARK SMILES COc1cc(CNC(=O)CCCCCCC(C)C)ccc1O
REMARK SMILES IDX 11 1 10 2 8 3 7 4 9 6 6 7 5 8 3 9 21 10 4 11 20 12 19 13
REMARK SMILES IDX 2 14 1 15 22 16 12 18 13 19 14 20 15 21 16 22 17 23 18 24
REMARK H PARENT 7 5 22 17
REMARK Flexibility Score: inf
ROOT
ATOM      1  C   UNL     1      94.649  94.932  78.183  1.00  0.00     0.010 C 
ENDROOT
BRANCH   1   2
ATOM      2  C   UNL     1      95.501  95.993  78.933  1.00  0.00     0.100 C 
BRANCH   2   3
ATOM      3  C   UNL     1      96.072  95.492  80.204  1.00  0.00     0.220 C 
ATOM      4  N   UNL     1      97.278  95.952  80.645  1.00  0.00    -0.352 N 
ATOM      5  H   UNL     1      97.736  96.601  80.022  1.00  0.00     0.163 HD
ATOM      6  O   UNL     1      95.413  94.659  80.872  1.00  0.00    -0.275 OA
BRANCH   4   7
ATOM      7  C   UNL     1      97.900  95.586  81.882  1.00  0.00     0.151 C 
BRANCH   7   8
ATOM      8  C   UNL     1      98.089  96.736  82.807  1.00  0.00    -0.025 A 
ATOM      9  C   UNL     1      97.600  99.062  83.441  1.00  0.00     0.160 A 
ATOM     10  C   UNL     1      98.410  98.921  84.590  1.00  0.00     0.157 A 
ATOM     11  C   UNL     1      97.461  97.977  82.551  1.00  0.00     0.056 A 
ATOM     12  C   UNL     1      99.071  97.704  84.835  1.00  0.00     0.050 A 
ATOM     13  C   UNL     1      98.905  96.616  83.957  1.00  0.00     0.009 A 
BRANCH   9  14
ATOM     14  O   UNL     1      96.984 100.253  83.172  1.00  0.00    -0.493 OA
ATOM     15  C   UNL     1      95.547 100.171  83.149  1.00  0.00     0.278 C 
ENDBRANCH   9  14
BRANCH  10  16
ATOM     16  O   UNL     1      98.563  99.950  85.464  1.00  0.00    -0.504 OA
ATOM     17  H   UNL     1      98.801 100.746  84.982  1.00  0.00     0.293 HD
ENDBRANCH  10  16
ENDBRANCH   7   8
ENDBRANCH   4   7
ENDBRANCH   2   3
ENDBRANCH   1   2
BRANCH   1  18
ATOM     18  C   UNL     1      93.219  95.451  77.858  1.00  0.00     0.001 C 
BRANCH  18  19
ATOM     19  C   UNL     1      93.178  96.496  76.708  1.00  0.00     0.000 C 
BRANCH  19  20
ATOM     20  C   UNL     1      92.792  95.840  75.352  1.00  0.00     0.000 C 
BRANCH  20  21
ATOM     21  C   UNL     1      92.192  94.412  75.483  1.00  0.00     0.003 C 
BRANCH  21  22
ATOM     22  C   UNL     1      90.658  94.323  75.196  1.00  0.00    -0.017 C 
ATOM     23  C   UNL     1      89.845  94.636  76.483  1.00  0.00     0.007 C 
ATOM     24  C   UNL     1      90.213  92.960  74.589  1.00  0.00     0.007 C 
ENDBRANCH  21  22
ENDBRANCH  20  21
ENDBRANCH  19  20
ENDBRANCH  18  19
ENDBRANCH   1  18
TORSDOF 11
ENDMDL
MODEL 6
REMARK VINA RESULT:    -5.472      1.637      2.903
REMARK INTER + INTRA:          -9.636
REMARK INTER:                  -8.784
REMARK INTRA:                  -0.852
REMARK UNBOUND:                -0.805
REMARK SMILES COc1cc(CNC(=O)CCCCCCC(C)C)ccc1O
REMARK SMILES IDX 11 1 10 2 8 3 7 4 9 6 6 7 5 8 3 9 21 10 4 11 20 12 19 13
REMARK SMILES IDX 2 14 1 15 22 16 12 18 13 19 14 20 15 21 16 22 17 23 18 24
REMARK H PARENT 7 5 22 17
REMARK Flexibility Score: inf
ROOT
ATOM      1  C   UNL     1      99.986  81.032  79.492  1.00  0.00     0.010 C 
ENDROOT
BRANCH   1   2
ATOM      2  C   UNL     1      99.546  82.085  80.546  1.00  0.00     0.100 C 
BRANCH   2   3
ATOM      3  C   UNL     1      98.118  81.979  80.918  1.00  0.00     0.220 C 
ATOM      4  N   UNL     1      97.753  81.880  82.229  1.00  0.00    -0.352 N 
ATOM      5  H   UNL     1      98.524  81.843  82.879  1.00  0.00     0.163 HD
ATOM      6  O   UNL     1      97.255  82.006  80.007  1.00  0.00    -0.275 OA
BRANCH   4   7
ATOM      7  C   UNL     1      96.405  81.831  82.710  1.00  0.00     0.151 C 
BRANCH   7   8
ATOM      8  C   UNL     1      96.016  83.037  83.490  1.00  0.00    -0.025 A 
ATOM      9  C   UNL     1      95.307  84.067  85.608  1.00  0.00     0.160 A 
ATOM     10  C   UNL     1      95.315  85.339  84.995  1.00  0.00     0.157 A 
ATOM     11  C   UNL     1      95.638  82.926  84.847  1.00  0.00     0.056 A 
ATOM     12  C   UNL     1      95.650  85.458  83.634  1.00  0.00     0.050 A 
ATOM     13  C   UNL     1      96.009  84.318  82.889  1.00  0.00     0.009 A 
BRANCH   9  14
ATOM     14  O   UNL     1      94.944  83.934  86.921  1.00  0.00    -0.493 OA
ATOM     15  C   UNL     1      93.621  83.398  87.105  1.00  0.00     0.278 C 
ENDBRANCH   9  14
BRANCH  10  16
ATOM     16  O   UNL     1      94.998  86.455  85.703  1.00  0.00    -0.504 OA
ATOM     17  H   UNL     1      95.788  86.983  85.836  1.00  0.00     0.293 HD
ENDBRANCH  10  16
ENDBRANCH   7   8
ENDBRANCH   4   7
ENDBRANCH   2   3
ENDBRANCH   1   2
BRANCH   1  18
ATOM     18  C   UNL     1     100.751  81.677  78.301  1.00  0.00     0.001 C 
BRANCH  18  19
ATOM     19  C   UNL     1     100.326  81.125  76.911  1.00  0.00     0.000 C 
BRANCH  19  20
ATOM     20  C   UNL     1      99.499  82.170  76.109  1.00  0.00     0.000 C 
BRANCH  20  21
ATOM     21  C   UNL     1      98.047  82.366  76.627  1.00  0.00     0.003 C 
BRANCH  21  22
ATOM     22  C   UNL     1      97.539  83.844  76.592  1.00  0.00    -0.017 C 
ATOM     23  C   UNL     1      96.322  84.023  77.543  1.00  0.00     0.007 C 
ATOM     24  C   UNL     1      97.192  84.352  75.162  1.00  0.00     0.007 C 
ENDBRANCH  21  22
ENDBRANCH  20  21
ENDBRANCH  19  20
ENDBRANCH  18  19
ENDBRANCH   1  18
TORSDOF 11
ENDMDL
MODEL 7
REMARK VINA RESULT:    -5.341      1.286      2.253
REMARK INTER + INTRA:          -9.425
REMARK INTER:                  -8.515
REMARK INTRA:                  -0.910
REMARK UNBOUND:                -0.805
REMARK SMILES COc1cc(CNC(=O)CCCCCCC(C)C)ccc1O
REMARK SMILES IDX 11 1 10 2 8 3 7 4 9 6 6 7 5 8 3 9 21 10 4 11 20 12 19 13
REMARK SMILES IDX 2 14 1 15 22 16 12 18 13 19 14 20 15 21 16 22 17 23 18 24
REMARK H PARENT 7 5 22 17
REMARK Flexibility Score: inf
ROOT
ATOM      1  C   UNL     1      97.998  83.447  79.172  1.00  0.00     0.010 C 
ENDROOT
BRANCH   1   2
ATOM      2  C   UNL     1      98.775  82.256  79.799  1.00  0.00     0.100 C 
BRANCH   2   3
ATOM      3  C   UNL     1      98.240  81.836  81.114  1.00  0.00     0.220 C 
ATOM      4  N   UNL     1      96.915  81.990  81.400  1.00  0.00    -0.352 N 
ATOM      5  H   UNL     1      96.377  82.440  80.674  1.00  0.00     0.163 HD
ATOM      6  O   UNL     1      99.025  81.317  81.944  1.00  0.00    -0.275 OA
BRANCH   4   7
ATOM      7  C   UNL     1      96.276  81.570  82.610  1.00  0.00     0.151 C 
BRANCH   7   8
ATOM      8  C   UNL     1      95.780  82.704  83.436  1.00  0.00    -0.025 A 
ATOM      9  C   UNL     1      94.287  83.569  85.189  1.00  0.00     0.160 A 
ATOM     10  C   UNL     1      94.858  84.852  85.045  1.00  0.00     0.157 A 
ATOM     11  C   UNL     1      94.739  82.511  84.372  1.00  0.00     0.056 A 
ATOM     12  C   UNL     1      95.868  85.066  84.090  1.00  0.00     0.050 A 
ATOM     13  C   UNL     1      96.334  83.999  83.298  1.00  0.00     0.009 A 
BRANCH   9  14
ATOM     14  O   UNL     1      93.277  83.359  86.088  1.00  0.00    -0.493 OA
ATOM     15  C   UNL     1      92.090  82.794  85.504  1.00  0.00     0.278 C 
ENDBRANCH   9  14
BRANCH  10  16
ATOM     16  O   UNL     1      94.442  85.890  85.818  1.00  0.00    -0.504 OA
ATOM     17  H   UNL     1      95.161  86.173  86.387  1.00  0.00     0.293 HD
ENDBRANCH  10  16
ENDBRANCH   7   8
ENDBRANCH   4   7
ENDBRANCH   2   3
ENDBRANCH   1   2
BRANCH   1  18
ATOM     18  C   UNL     1      97.514  83.136  77.727  1.00  0.00     0.001 C 
BRANCH  18  19
ATOM     19  C   UNL     1      97.813  81.682  77.265  1.00  0.00     0.000 C 
BRANCH  19  20
ATOM     20  C   UNL     1      98.861  81.651  76.117  1.00  0.00     0.000 C 
BRANCH  20  21
ATOM     21  C   UNL     1      98.988  82.986  75.333  1.00  0.00     0.003 C 
BRANCH  21  22
ATOM     22  C   UNL     1      97.955  83.159  74.172  1.00  0.00    -0.017 C 
ATOM     23  C   UNL     1      98.548  82.631  72.835  1.00  0.00     0.007 C 
ATOM     24  C   UNL     1      97.444  84.620  74.002  1.00  0.00     0.007 C 
ENDBRANCH  21  22
ENDBRANCH  20  21
ENDBRANCH  19  20
ENDBRANCH  18  19
ENDBRANCH   1  18
TORSDOF 11
ENDMDL
MODEL 8
REMARK VINA RESULT:    -5.318     25.372     26.889
REMARK INTER + INTRA:          -9.388
REMARK INTER:                  -8.136
REMARK INTRA:                  -1.252
REMARK UNBOUND:                -0.805
REMARK SMILES COc1cc(CNC(=O)CCCCCCC(C)C)ccc1O
REMARK SMILES IDX 11 1 10 2 8 3 7 4 9 6 6 7 5 8 3 9 21 10 4 11 20 12 19 13
REMARK SMILES IDX 2 14 1 15 22 16 12 18 13 19 14 20 15 21 16 22 17 23 18 24
REMARK H PARENT 7 5 22 17
REMARK Flexibility Score: inf
ROOT
ATOM      1  C   UNL     1      75.800  85.230  68.420  1.00  0.00     0.010 C 
ENDROOT
BRANCH   1   2
ATOM      2  C   UNL     1      75.279  85.535  66.988  1.00  0.00     0.100 C 
BRANCH   2   3
ATOM      3  C   UNL     1      73.937  84.971  66.722  1.00  0.00     0.220 C 
ATOM      4  N   UNL     1      72.927  85.142  67.623  1.00  0.00    -0.352 N 
ATOM      5  H   UNL     1      73.193  85.628  68.467  1.00  0.00     0.163 HD
ATOM      6  O   UNL     1      73.745  84.359  65.643  1.00  0.00    -0.275 OA
BRANCH   4   7
ATOM      7  C   UNL     1      71.578  84.694  67.447  1.00  0.00     0.151 C 
BRANCH   7   8
ATOM      8  C   UNL     1      70.709  84.977  68.622  1.00  0.00    -0.025 A 
ATOM      9  C   UNL     1      69.605  86.589  70.116  1.00  0.00     0.160 A 
ATOM     10  C   UNL     1      69.016  85.524  70.833  1.00  0.00     0.157 A 
ATOM     11  C   UNL     1      70.460  86.307  69.030  1.00  0.00     0.056 A 
ATOM     12  C   UNL     1      69.287  84.195  70.461  1.00  0.00     0.050 A 
ATOM     13  C   UNL     1      70.119  83.922  69.357  1.00  0.00     0.009 A 
BRANCH   9  14
ATOM     14  O   UNL     1      69.379  87.884  70.494  1.00  0.00    -0.493 OA
ATOM     15  C   UNL     1      70.002  88.856  69.634  1.00  0.00     0.278 C 
ENDBRANCH   9  14
BRANCH  10  16
ATOM     16  O   UNL     1      68.190  85.766  71.885  1.00  0.00    -0.504 OA
ATOM     17  H   UNL     1      68.279  86.683  72.156  1.00  0.00     0.293 HD
ENDBRANCH  10  16
ENDBRANCH   7   8
ENDBRANCH   4   7
ENDBRANCH   2   3
ENDBRANCH   1   2
BRANCH   1  18
ATOM     18  C   UNL     1      76.745  86.345  68.951  1.00  0.00     0.001 C 
BRANCH  18  19
ATOM     19  C   UNL     1      77.221  87.338  67.853  1.00  0.00     0.000 C 
BRANCH  19  20
ATOM     20  C   UNL     1      77.242  88.802  68.376  1.00  0.00     0.000 C 
BRANCH  20  21
ATOM     21  C   UNL     1      75.861  89.513  68.335  1.00  0.00     0.003 C 
BRANCH  21  22
ATOM     22  C   UNL     1      74.975  89.288  69.604  1.00  0.00    -0.017 C 
ATOM     23  C   UNL     1      73.677  88.518  69.232  1.00  0.00     0.007 C 
ATOM     24  C   UNL     1      74.630  90.600  70.367  1.00  0.00     0.007 C 
ENDBRANCH  21  22
ENDBRANCH  20  21
ENDBRANCH  19  20
ENDBRANCH  18  19
ENDBRANCH   1  18
TORSDOF 11
ENDMDL
MODEL 9
REMARK VINA RESULT:    -5.313      4.230     10.662
REMARK INTER + INTRA:          -9.379
REMARK INTER:                  -8.751
REMARK INTRA:                  -0.628
REMARK UNBOUND:                -0.805
REMARK SMILES COc1cc(CNC(=O)CCCCCCC(C)C)ccc1O
REMARK SMILES IDX 11 1 10 2 8 3 7 4 9 6 6 7 5 8 3 9 21 10 4 11 20 12 19 13
REMARK SMILES IDX 2 14 1 15 22 16 12 18 13 19 14 20 15 21 16 22 17 23 18 24
REMARK H PARENT 7 5 22 17
REMARK Flexibility Score: inf
ROOT
ATOM      1  C   UNL     1      97.303  82.332  78.036  1.00  0.00     0.010 C 
ENDROOT
BRANCH   1   2
ATOM      2  C   UNL     1      96.731  83.753  77.776  1.00  0.00     0.100 C 
BRANCH   2   3
ATOM      3  C   UNL     1      96.846  84.180  76.364  1.00  0.00     0.220 C 
ATOM      4  N   UNL     1      97.582  83.447  75.479  1.00  0.00    -0.352 N 
ATOM      5  H   UNL     1      98.052  82.650  75.882  1.00  0.00     0.163 HD
ATOM      6  O   UNL     1      96.234  85.213  75.996  1.00  0.00    -0.275 OA
BRANCH   4   7
ATOM      7  C   UNL     1      97.717  83.730  74.083  1.00  0.00     0.151 C 
BRANCH   7   8
ATOM      8  C   UNL     1      99.040  84.312  73.727  1.00  0.00    -0.025 A 
ATOM      9  C   UNL     1     100.633  85.098  72.026  1.00  0.00     0.160 A 
ATOM     10  C   UNL     1     101.543  85.461  73.043  1.00  0.00     0.157 A 
ATOM     11  C   UNL     1      99.399  84.510  72.374  1.00  0.00     0.056 A 
ATOM     12  C   UNL     1     101.214  85.232  74.391  1.00  0.00     0.050 A 
ATOM     13  C   UNL     1      99.968  84.672  74.733  1.00  0.00     0.009 A 
BRANCH   9  14
ATOM     14  O   UNL     1     100.959  85.280  70.710  1.00  0.00    -0.493 OA
ATOM     15  C   UNL     1     101.197  84.053  69.997  1.00  0.00     0.278 C 
ENDBRANCH   9  14
BRANCH  10  16
ATOM     16  O   UNL     1     102.740  86.028  72.737  1.00  0.00    -0.504 OA
ATOM     17  H   UNL     1     103.437  85.587  73.229  1.00  0.00     0.293 HD
ENDBRANCH  10  16
ENDBRANCH   7   8
ENDBRANCH   4   7
ENDBRANCH   2   3
ENDBRANCH   1   2
BRANCH   1  18
ATOM     18  C   UNL     1      98.665  82.376  78.785  1.00  0.00     0.001 C 
BRANCH  18  19
ATOM     19  C   UNL     1      98.530  82.586  80.319  1.00  0.00     0.000 C 
BRANCH  19  20
ATOM     20  C   UNL     1      97.097  82.251  80.819  1.00  0.00     0.000 C 
BRANCH  20  21
ATOM     21  C   UNL     1      96.990  80.909  81.594  1.00  0.00     0.003 C 
BRANCH  21  22
ATOM     22  C   UNL     1      96.261  81.011  82.974  1.00  0.00    -0.017 C 
ATOM     23  C   UNL     1      97.117  81.828  83.982  1.00  0.00     0.007 C 
ATOM     24  C   UNL     1      95.875  79.630  83.581  1.00  0.00     0.007 C 
ENDBRANCH  21  22
ENDBRANCH  20  21
ENDBRANCH  19  20
ENDBRANCH  18  19
ENDBRANCH   1  18
TORSDOF 11
ENDMDL
MODEL 10
REMARK VINA RESULT:    -5.285     12.720     14.058
REMARK INTER + INTRA:          -9.335
REMARK INTER:                  -8.583
REMARK INTRA:                  -0.752
REMARK UNBOUND:                -0.805
REMARK SMILES COc1cc(CNC(=O)CCCCCCC(C)C)ccc1O
REMARK SMILES IDX 11 1 10 2 8 3 7 4 9 6 6 7 5 8 3 9 21 10 4 11 20 12 19 13
REMARK SMILES IDX 2 14 1 15 22 16 12 18 13 19 14 20 15 21 16 22 17 23 18 24
REMARK H PARENT 7 5 22 17
REMARK Flexibility Score: inf
ROOT
ATOM      1  C   UNL     1      94.106  94.810  78.686  1.00  0.00     0.010 C 
ENDROOT
BRANCH   1   2
ATOM      2  C   UNL     1      95.389  95.674  78.539  1.00  0.00     0.100 C 
BRANCH   2   3
ATOM      3  C   UNL     1      95.831  96.287  79.812  1.00  0.00     0.220 C 
ATOM      4  N   UNL     1      96.540  95.555  80.719  1.00  0.00    -0.352 N 
ATOM      5  H   UNL     1      96.683  94.589  80.461  1.00  0.00     0.163 HD
ATOM      6  O   UNL     1      95.560  97.494  80.025  1.00  0.00    -0.275 OA
BRANCH   4   7
ATOM      7  C   UNL     1      97.068  96.055  81.952  1.00  0.00     0.151 C 
BRANCH   7   8
ATOM      8  C   UNL     1      98.417  96.667  81.808  1.00  0.00    -0.025 A 
ATOM      9  C   UNL     1     100.616  96.740  80.710  1.00  0.00     0.160 A 
ATOM     10  C   UNL     1     100.974  97.857  81.496  1.00  0.00     0.157 A 
ATOM     11  C   UNL     1      99.350  96.143  80.885  1.00  0.00     0.056 A 
ATOM     12  C   UNL     1     100.069  98.364  82.445  1.00  0.00     0.050 A 
ATOM     13  C   UNL     1      98.795  97.781  82.594  1.00  0.00     0.009 A 
BRANCH   9  14
ATOM     14  O   UNL     1     101.504  96.215  79.811  1.00  0.00    -0.493 OA
ATOM     15  C   UNL     1     101.163  96.477  78.438  1.00  0.00     0.278 C 
ENDBRANCH   9  14
BRANCH  10  16
ATOM     16  O   UNL     1     102.188  98.452  81.350  1.00  0.00    -0.504 OA
ATOM     17  H   UNL     1     102.209  99.264  81.860  1.00  0.00     0.293 HD
ENDBRANCH  10  16
ENDBRANCH   7   8
ENDBRANCH   4   7
ENDBRANCH   2   3
ENDBRANCH   1   2
BRANCH   1  18
ATOM     18  C   UNL     1      93.009  95.208  77.658  1.00  0.00     0.001 C 
BRANCH  18  19
ATOM     19  C   UNL     1      93.546  95.400  76.211  1.00  0.00     0.000 C 
BRANCH  19  20
ATOM     20  C   UNL     1      92.432  95.165  75.153  1.00  0.00     0.000 C 
BRANCH  20  21
ATOM     21  C   UNL     1      91.070  94.715  75.750  1.00  0.00     0.003 C 
BRANCH  21  22
ATOM     22  C   UNL     1      90.734  93.203  75.537  1.00  0.00    -0.017 C 
ATOM     23  C   UNL     1      89.966  92.999  74.201  1.00  0.00     0.007 C 
ATOM     24  C   UNL     1      89.949  92.564  76.720  1.00  0.00     0.007 C 
ENDBRANCH  21  22
ENDBRANCH  20  21
ENDBRANCH  19  20
ENDBRANCH  18  19
ENDBRANCH   1  18
TORSDOF 11
ENDMDL
