MODEL 1
REMARK VINA RESULT:    -6.047      0.000      0.000
REMARK INTER + INTRA:         -11.266
REMARK INTER:                 -10.113
REMARK INTRA:                  -1.153
REMARK UNBOUND:                -1.153
REMARK SMILES COc1cc(CNC(=O)CCCCCCCC(C)C)ccc1O
REMARK SMILES IDX 11 1 10 2 8 3 9 4 7 5 6 7 5 8 4 9 20 10 3 11 21 12 22 13
REMARK SMILES IDX 2 14 1 15 23 16 12 18 13 19 14 20 15 21 16 22 17 23 18 24
REMARK SMILES IDX 19 25
REMARK H PARENT 7 6 23 17
REMARK Flexibility Score: inf
ROOT
ATOM      1  C   UNL     1      94.116  95.210  76.378  1.00  0.00     0.010 C 
ENDROOT
BRANCH   1   2
ATOM      2  C   UNL     1      94.220  94.366  77.647  1.00  0.00     0.100 C 
BRANCH   2   3
ATOM      3  C   UNL     1      94.738  95.164  78.831  1.00  0.00     0.220 C 
ATOM      4  O   UNL     1      94.726  94.743  79.985  1.00  0.00    -0.275 OA
ATOM      5  N   UNL     1      95.209  96.409  78.440  1.00  0.00    -0.352 N 
ATOM      6  H   UNL     1      95.169  96.676  77.460  1.00  0.00     0.163 HD
BRANCH   5   7
ATOM      7  C   UNL     1      95.749  97.371  79.374  1.00  0.00     0.151 C 
BRANCH   7   8
ATOM      8  C   UNL     1      97.214  97.151  79.621  1.00  0.00    -0.025 A 
ATOM      9  C   UNL     1      97.633  96.608  80.829  1.00  0.00     0.056 A 
ATOM     10  C   UNL     1      98.135  97.494  78.638  1.00  0.00     0.009 A 
ATOM     11  C   UNL     1      98.994  96.404  81.058  1.00  0.00     0.160 A 
ATOM     12  C   UNL     1      99.496  97.291  78.868  1.00  0.00     0.050 A 
ATOM     13  C   UNL     1      99.926  96.746  80.078  1.00  0.00     0.157 A 
BRANCH  11  14
ATOM     14  O   UNL     1      99.402  95.872  82.245  1.00  0.00    -0.493 OA
ATOM     15  C   UNL     1      98.631  96.200  83.400  1.00  0.00     0.278 C 
ENDBRANCH  11  14
BRANCH  13  16
ATOM     16  O   UNL     1     101.257  96.552  80.290  1.00  0.00    -0.504 OA
ATOM     17  H   UNL     1     101.761  97.132  79.694  1.00  0.00     0.293 HD
ENDBRANCH  13  16
ENDBRANCH   7   8
ENDBRANCH   5   7
ENDBRANCH   2   3
ENDBRANCH   1   2
BRANCH   1  18
ATOM     18  C   UNL     1      92.690  95.314  75.830  1.00  0.00     0.001 C 
BRANCH  18  19
ATOM     19  C   UNL     1      91.631  95.805  76.823  1.00  0.00     0.000 C 
BRANCH  19  20
ATOM     20  C   UNL     1      90.821  94.670  77.455  1.00  0.00     0.000 C 
BRANCH  20  21
ATOM     21  C   UNL     1      89.793  94.051  76.502  1.00  0.00     0.000 C 
BRANCH  21  22
ATOM     22  C   UNL     1      90.062  92.574  76.196  1.00  0.00     0.003 C 
BRANCH  22  23
ATOM     23  C   UNL     1      90.633  92.334  74.784  1.00  0.00    -0.017 C 
ATOM     24  C   UNL     1      90.130  93.421  73.831  1.00  0.00     0.007 C 
ATOM     25  C   UNL     1      90.267  90.956  74.231  1.00  0.00     0.007 C 
ENDBRANCH  22  23
ENDBRANCH  21  22
ENDBRANCH  20  21
ENDBRANCH  19  20
ENDBRANCH  18  19
ENDBRANCH   1  18
TORSDOF 12
ENDMDL
MODEL 2
REMARK VINA RESULT:    -5.784     16.746     19.464
REMARK INTER + INTRA:         -10.825
REMARK INTER:                 -10.003
REMARK INTRA:                  -0.822
REMARK UNBOUND:                -1.153
REMARK SMILES COc1cc(CNC(=O)CCCCCCCC(C)C)ccc1O
REMARK SMILES IDX 11 1 10 2 8 3 9 4 7 5 6 7 5 8 4 9 20 10 3 11 21 12 22 13
REMARK SMILES IDX 2 14 1 15 23 16 12 18 13 19 14 20 15 21 16 22 17 23 18 24
REMARK SMILES IDX 19 25
REMARK H PARENT 7 6 23 17
REMARK Flexibility Score: inf
ROOT
ATOM      1  C   UNL     1      93.406  78.113  84.266  1.00  0.00     0.010 C 
ENDROOT
BRANCH   1   2
ATOM      2  C   UNL     1      93.420  78.951  85.543  1.00  0.00     0.100 C 
BRANCH   2   3
ATOM      3  C   UNL     1      93.007  80.392  85.293  1.00  0.00     0.220 C 
ATOM      4  O   UNL     1      93.800  81.277  84.983  1.00  0.00    -0.275 OA
ATOM      5  N   UNL     1      91.642  80.569  85.469  1.00  0.00    -0.352 N 
ATOM      6  H   UNL     1      91.064  79.777  85.738  1.00  0.00     0.163 HD
BRANCH   5   7
ATOM      7  C   UNL     1      90.990  81.847  85.301  1.00  0.00     0.151 C 
BRANCH   7   8
ATOM      8  C   UNL     1      89.617  81.703  84.710  1.00  0.00    -0.025 A 
ATOM      9  C   UNL     1      88.679  82.712  84.896  1.00  0.00     0.056 A 
ATOM     10  C   UNL     1      89.299  80.563  83.983  1.00  0.00     0.009 A 
ATOM     11  C   UNL     1      87.404  82.578  84.347  1.00  0.00     0.160 A 
ATOM     12  C   UNL     1      88.023  80.429  83.434  1.00  0.00     0.050 A 
ATOM     13  C   UNL     1      87.075  81.436  83.616  1.00  0.00     0.157 A 
BRANCH  11  14
ATOM     14  O   UNL     1      86.487  83.568  84.532  1.00  0.00    -0.493 OA
ATOM     15  C   UNL     1      86.547  84.284  85.765  1.00  0.00     0.278 C 
ENDBRANCH  11  14
BRANCH  13  16
ATOM     16  O   UNL     1      85.834  81.294  83.074  1.00  0.00    -0.504 OA
ATOM     17  H   UNL     1      85.922  81.122  82.121  1.00  0.00     0.293 HD
ENDBRANCH  13  16
ENDBRANCH   7   8
ENDBRANCH   5   7
ENDBRANCH   2   3
ENDBRANCH   1   2
BRANCH   1  18
ATOM     18  C   UNL     1      92.032  77.521  83.940  1.00  0.00     0.001 C 
BRANCH  18  19
ATOM     19  C   UNL     1      92.039  76.093  83.385  1.00  0.00     0.000 C 
BRANCH  19  20
ATOM     20  C   UNL     1      90.640  75.481  83.269  1.00  0.00     0.000 C 
BRANCH  20  21
ATOM     21  C   UNL     1      90.245  74.630  84.481  1.00  0.00     0.000 C 
BRANCH  21  22
ATOM     22  C   UNL     1      91.387  73.754  85.006  1.00  0.00     0.003 C 
BRANCH  22  23
ATOM     23  C   UNL     1      90.921  72.653  85.978  1.00  0.00    -0.017 C 
ATOM     24  C   UNL     1      89.403  72.730  86.157  1.00  0.00     0.007 C 
ATOM     25  C   UNL     1      91.604  72.747  87.342  1.00  0.00     0.007 C 
ENDBRANCH  22  23
ENDBRANCH  21  22
ENDBRANCH  20  21
ENDBRANCH  19  20
ENDBRANCH  18  19
ENDBRANCH   1  18
TORSDOF 12
ENDMDL
MODEL 3
REMARK VINA RESULT:    -5.553     14.675     16.192
REMARK INTER + INTRA:         -10.439
REMARK INTER:                  -9.635
REMARK INTRA:                  -0.804
REMARK UNBOUND:                -1.153
REMARK SMILES COc1cc(CNC(=O)CCCCCCCC(C)C)ccc1O
REMARK SMILES IDX 11 1 10 2 8 3 9 4 7 5 6 7 5 8 4 9 20 10 3 11 21 12 22 13
REMARK SMILES IDX 2 14 1 15 23 16 12 18 13 19 14 20 15 21 16 22 17 23 18 24
REMARK SMILES IDX 19 25
REMARK H PARENT 7 6 23 17
REMARK Flexibility Score: inf
ROOT
ATOM      1  C   UNL     1      92.350  77.823  84.225  1.00  0.00     0.010 C 
ENDROOT
BRANCH   1   2
ATOM      2  C   UNL     1      93.631  78.487  84.726  1.00  0.00     0.100 C 
BRANCH   2   3
ATOM      3  C   UNL     1      94.840  78.123  83.880  1.00  0.00     0.220 C 
ATOM      4  O   UNL     1      95.117  76.970  83.561  1.00  0.00    -0.275 OA
ATOM      5  N   UNL     1      95.577  79.246  83.535  1.00  0.00    -0.352 N 
ATOM      6  H   UNL     1      95.276  80.163  83.856  1.00  0.00     0.163 HD
BRANCH   5   7
ATOM      7  C   UNL     1      96.782  79.179  82.740  1.00  0.00     0.151 C 
BRANCH   7   8
ATOM      8  C   UNL     1      96.996  80.430  81.938  1.00  0.00    -0.025 A 
ATOM      9  C   UNL     1      97.561  80.346  80.671  1.00  0.00     0.056 A 
ATOM     10  C   UNL     1      96.627  81.659  82.471  1.00  0.00     0.009 A 
ATOM     11  C   UNL     1      97.760  81.509  79.927  1.00  0.00     0.160 A 
ATOM     12  C   UNL     1      96.827  82.822  81.726  1.00  0.00     0.050 A 
ATOM     13  C   UNL     1      97.393  82.747  80.454  1.00  0.00     0.157 A 
BRANCH  11  14
ATOM     14  O   UNL     1      98.315  81.423  78.685  1.00  0.00    -0.493 OA
ATOM     15  C   UNL     1      99.725  81.214  78.619  1.00  0.00     0.278 C 
ENDBRANCH  11  14
BRANCH  13  16
ATOM     16  O   UNL     1      97.582  83.889  79.736  1.00  0.00    -0.504 OA
ATOM     17  H   UNL     1      98.233  83.718  79.034  1.00  0.00     0.293 HD
ENDBRANCH  13  16
ENDBRANCH   7   8
ENDBRANCH   5   7
ENDBRANCH   2   3
ENDBRANCH   1   2
BRANCH   1  18
ATOM     18  C   UNL     1      91.074  78.510  84.717  1.00  0.00     0.001 C 
BRANCH  18  19
ATOM     19  C   UNL     1      90.562  79.663  83.846  1.00  0.00     0.000 C 
BRANCH  19  20
ATOM     20  C   UNL     1      90.794  81.042  84.470  1.00  0.00     0.000 C 
BRANCH  20  21
ATOM     21  C   UNL     1      89.659  82.034  84.194  1.00  0.00     0.000 C 
BRANCH  21  22
ATOM     22  C   UNL     1      88.381  81.729  84.981  1.00  0.00     0.003 C 
BRANCH  22  23
ATOM     23  C   UNL     1      87.110  81.715  84.108  1.00  0.00    -0.017 C 
ATOM     24  C   UNL     1      87.260  80.675  82.995  1.00  0.00     0.007 C 
ATOM     25  C   UNL     1      86.804  83.082  83.497  1.00  0.00     0.007 C 
ENDBRANCH  22  23
ENDBRANCH  21  22
ENDBRANCH  20  21
ENDBRANCH  19  20
ENDBRANCH  18  19
ENDBRANCH   1  18
TORSDOF 12
ENDMDL
MODEL 4
REMARK VINA RESULT:    -5.513      1.439      2.482
REMARK INTER + INTRA:         -10.373
REMARK INTER:                  -9.435
REMARK INTRA:                  -0.937
REMARK UNBOUND:                -1.153
REMARK SMILES COc1cc(CNC(=O)CCCCCCCC(C)C)ccc1O
REMARK SMILES IDX 11 1 10 2 8 3 9 4 7 5 6 7 5 8 4 9 20 10 3 11 21 12 22 13
REMARK SMILES IDX 2 14 1 15 23 16 12 18 13 19 14 20 15 21 16 22 17 23 18 24
REMARK SMILES IDX 19 25
REMARK H PARENT 7 6 23 17
REMARK Flexibility Score: inf
ROOT
ATOM      1  C   UNL     1      93.722  94.744  77.044  1.00  0.00     0.010 C 
ENDROOT
BRANCH   1   2
ATOM      2  C   UNL     1      94.888  94.579  78.016  1.00  0.00     0.100 C 
BRANCH   2   3
ATOM      3  C   UNL     1      95.351  95.906  78.596  1.00  0.00     0.220 C 
ATOM      4  O   UNL     1      95.264  96.971  77.992  1.00  0.00    -0.275 OA
ATOM      5  N   UNL     1      95.880  95.749  79.868  1.00  0.00    -0.352 N 
ATOM      6  H   UNL     1      95.921  94.823  80.285  1.00  0.00     0.163 HD
BRANCH   5   7
ATOM      7  C   UNL     1      96.401  96.853  80.641  1.00  0.00     0.151 C 
BRANCH   7   8
ATOM      8  C   UNL     1      97.901  96.896  80.618  1.00  0.00    -0.025 A 
ATOM      9  C   UNL     1      98.566  97.063  79.410  1.00  0.00     0.056 A 
ATOM     10  C   UNL     1      98.610  96.768  81.807  1.00  0.00     0.009 A 
ATOM     11  C   UNL     1      99.960  97.102  79.389  1.00  0.00     0.160 A 
ATOM     12  C   UNL     1     100.004  96.807  81.786  1.00  0.00     0.050 A 
ATOM     13  C   UNL     1     100.680  96.974  80.577  1.00  0.00     0.157 A 
BRANCH  11  14
ATOM     14  O   UNL     1     100.609  97.265  78.202  1.00  0.00    -0.493 OA
ATOM     15  C   UNL     1     100.062  98.218  77.291  1.00  0.00     0.278 C 
ENDBRANCH  11  14
BRANCH  13  16
ATOM     16  O   UNL     1     102.041  97.012  80.570  1.00  0.00    -0.504 OA
ATOM     17  H   UNL     1     102.334  97.752  80.011  1.00  0.00     0.293 HD
ENDBRANCH  13  16
ENDBRANCH   7   8
ENDBRANCH   5   7
ENDBRANCH   2   3
ENDBRANCH   1   2
BRANCH   1  18
ATOM     18  C   UNL     1      92.400  95.099  77.731  1.00  0.00     0.001 C 
BRANCH  18  19
ATOM     19  C   UNL     1      91.227  95.409  76.795  1.00  0.00     0.000 C 
BRANCH  19  20
ATOM     20  C   UNL     1      91.473  94.964  75.350  1.00  0.00     0.000 C 
BRANCH  20  21
ATOM     21  C   UNL     1      90.343  94.100  74.778  1.00  0.00     0.000 C 
BRANCH  21  22
ATOM     22  C   UNL     1      90.647  92.599  74.820  1.00  0.00     0.003 C 
BRANCH  22  23
ATOM     23  C   UNL     1      89.595  91.781  75.593  1.00  0.00    -0.017 C 
ATOM     24  C   UNL     1      89.719  92.063  77.092  1.00  0.00     0.007 C 
ATOM     25  C   UNL     1      89.720  90.277  75.341  1.00  0.00     0.007 C 
ENDBRANCH  22  23
ENDBRANCH  21  22
ENDBRANCH  20  21
ENDBRANCH  19  20
ENDBRANCH  18  19
ENDBRANCH   1  18
TORSDOF 12
ENDMDL
MODEL 5
REMARK VINA RESULT:    -5.494     19.386     21.840
REMARK INTER + INTRA:         -10.340
REMARK INTER:                  -9.164
REMARK INTRA:                  -1.176
REMARK UNBOUND:                -1.153
REMARK SMILES COc1cc(CNC(=O)CCCCCCCC(C)C)ccc1O
REMARK SMILES IDX 11 1 10 2 8 3 9 4 7 5 6 7 5 8 4 9 20 10 3 11 21 12 22 13
REMARK SMILES IDX 2 14 1 15 23 16 12 18 13 19 14 20 15 21 16 22 17 23 18 24
REMARK SMILES IDX 19 25
REMARK H PARENT 7 6 23 17
REMARK Flexibility Score: inf
ROOT
ATOM      1  C   UNL     1      74.734  90.294  69.238  1.00  0.00     0.010 C 
ENDROOT
BRANCH   1   2
ATOM      2  C   UNL     1      74.065  89.856  70.539  1.00  0.00     0.100 C 
BRANCH   2   3
ATOM      3  C   UNL     1      73.471  91.025  71.307  1.00  0.00     0.220 C 
ATOM      4  O   UNL     1      72.395  90.968  71.895  1.00  0.00    -0.275 OA
ATOM      5  N   UNL     1      74.291  92.142  71.247  1.00  0.00    -0.352 N 
ATOM      6  H   UNL     1      75.162  92.099  70.725  1.00  0.00     0.163 HD
BRANCH   5   7
ATOM      7  C   UNL     1      73.957  93.394  71.887  1.00  0.00     0.151 C 
BRANCH   7   8
ATOM      8  C   UNL     1      74.763  93.620  73.133  1.00  0.00    -0.025 A 
ATOM      9  C   UNL     1      74.278  93.173  74.357  1.00  0.00     0.056 A 
ATOM     10  C   UNL     1      75.986  94.274  73.051  1.00  0.00     0.009 A 
ATOM     11  C   UNL     1      75.027  93.383  75.514  1.00  0.00     0.160 A 
ATOM     12  C   UNL     1      76.735  94.485  74.209  1.00  0.00     0.050 A 
ATOM     13  C   UNL     1      76.256  94.039  75.441  1.00  0.00     0.157 A 
BRANCH  11  14
ATOM     14  O   UNL     1      74.548  92.944  76.712  1.00  0.00    -0.493 OA
ATOM     15  C   UNL     1      73.136  92.769  76.820  1.00  0.00     0.278 C 
ENDBRANCH  11  14
BRANCH  13  16
ATOM     16  O   UNL     1      76.997  94.250  76.564  1.00  0.00    -0.504 OA
ATOM     17  H   UNL     1      77.308  95.171  76.569  1.00  0.00     0.293 HD
ENDBRANCH  13  16
ENDBRANCH   7   8
ENDBRANCH   5   7
ENDBRANCH   2   3
ENDBRANCH   1   2
BRANCH   1  18
ATOM     18  C   UNL     1      76.109  89.658  69.014  1.00  0.00     0.001 C 
BRANCH  18  19
ATOM     19  C   UNL     1      76.375  89.131  67.600  1.00  0.00     0.000 C 
BRANCH  19  20
ATOM     20  C   UNL     1      77.549  88.150  67.531  1.00  0.00     0.000 C 
BRANCH  20  21
ATOM     21  C   UNL     1      77.115  86.680  67.516  1.00  0.00     0.000 C 
BRANCH  21  22
ATOM     22  C   UNL     1      77.251  85.994  68.879  1.00  0.00     0.003 C 
BRANCH  22  23
ATOM     23  C   UNL     1      75.903  85.776  69.594  1.00  0.00    -0.017 C 
ATOM     24  C   UNL     1      75.870  84.381  70.222  1.00  0.00     0.007 C 
ATOM     25  C   UNL     1      74.708  85.944  68.654  1.00  0.00     0.007 C 
ENDBRANCH  22  23
ENDBRANCH  21  22
ENDBRANCH  20  21
ENDBRANCH  19  20
ENDBRANCH  18  19
ENDBRANCH   1  18
TORSDOF 12
ENDMDL
MODEL 6
REMARK VINA RESULT:    -5.366     16.040     18.744
REMARK INTER + INTRA:         -10.126
REMARK INTER:                  -9.311
REMARK INTRA:                  -0.815
REMARK UNBOUND:                -1.153
REMARK SMILES COc1cc(CNC(=O)CCCCCCCC(C)C)ccc1O
REMARK SMILES IDX 11 1 10 2 8 3 9 4 7 5 6 7 5 8 4 9 20 10 3 11 21 12 22 13
REMARK SMILES IDX 2 14 1 15 23 16 12 18 13 19 14 20 15 21 16 22 17 23 18 24
REMARK SMILES IDX 19 25
REMARK H PARENT 7 6 23 17
REMARK Flexibility Score: inf
ROOT
ATOM      1  C   UNL     1      94.383  76.883  83.914  1.00  0.00     0.010 C 
ENDROOT
BRANCH   1   2
ATOM      2  C   UNL     1      94.731  77.728  85.138  1.00  0.00     0.100 C 
BRANCH   2   3
ATOM      3  C   UNL     1      94.423  79.202  84.930  1.00  0.00     0.220 C 
ATOM      4  O   UNL     1      95.285  80.076  84.929  1.00  0.00    -0.275 OA
ATOM      5  N   UNL     1      93.065  79.418  84.753  1.00  0.00    -0.352 N 
ATOM      6  H   UNL     1      92.423  78.631  84.780  1.00  0.00     0.163 HD
BRANCH   5   7
ATOM      7  C   UNL     1      92.502  80.733  84.543  1.00  0.00     0.151 C 
BRANCH   7   8
ATOM      8  C   UNL     1      91.001  80.707  84.545  1.00  0.00    -0.025 A 
ATOM      9  C   UNL     1      90.295  81.846  84.914  1.00  0.00     0.056 A 
ATOM     10  C   UNL     1      90.334  79.545  84.178  1.00  0.00     0.009 A 
ATOM     11  C   UNL     1      88.900  81.822  84.915  1.00  0.00     0.160 A 
ATOM     12  C   UNL     1      88.938  79.522  84.181  1.00  0.00     0.050 A 
ATOM     13  C   UNL     1      88.222  80.660  84.549  1.00  0.00     0.157 A 
BRANCH  11  14
ATOM     14  O   UNL     1      88.211  82.941  85.278  1.00  0.00    -0.493 OA
ATOM     15  C   UNL     1      87.568  83.671  84.235  1.00  0.00     0.278 C 
ENDBRANCH  11  14
BRANCH  13  16
ATOM     16  O   UNL     1      86.860  80.625  84.547  1.00  0.00    -0.504 OA
ATOM     17  H   UNL     1      86.542  80.736  83.634  1.00  0.00     0.293 HD
ENDBRANCH  13  16
ENDBRANCH   7   8
ENDBRANCH   5   7
ENDBRANCH   2   3
ENDBRANCH   1   2
BRANCH   1  18
ATOM     18  C   UNL     1      93.060  76.125  84.052  1.00  0.00     0.001 C 
BRANCH  18  19
ATOM     19  C   UNL     1      91.976  76.489  83.032  1.00  0.00     0.000 C 
BRANCH  19  20
ATOM     20  C   UNL     1      90.950  75.373  82.816  1.00  0.00     0.000 C 
BRANCH  20  21
ATOM     21  C   UNL     1      91.075  74.684  81.453  1.00  0.00     0.000 C 
BRANCH  21  22
ATOM     22  C   UNL     1      91.517  75.632  80.333  1.00  0.00     0.003 C 
BRANCH  22  23
ATOM     23  C   UNL     1      91.170  75.118  78.921  1.00  0.00    -0.017 C 
ATOM     24  C   UNL     1      91.106  76.295  77.944  1.00  0.00     0.007 C 
ATOM     25  C   UNL     1      89.849  74.349  78.886  1.00  0.00     0.007 C 
ENDBRANCH  22  23
ENDBRANCH  21  22
ENDBRANCH  20  21
ENDBRANCH  19  20
ENDBRANCH  18  19
ENDBRANCH   1  18
TORSDOF 12
ENDMDL
MODEL 7
REMARK VINA RESULT:    -5.093     20.554     23.695
REMARK INTER + INTRA:          -9.670
REMARK INTER:                  -7.994
REMARK INTRA:                  -1.675
REMARK UNBOUND:                -1.153
REMARK SMILES COc1cc(CNC(=O)CCCCCCCC(C)C)ccc1O
REMARK SMILES IDX 11 1 10 2 8 3 9 4 7 5 6 7 5 8 4 9 20 10 3 11 21 12 22 13
REMARK SMILES IDX 2 14 1 15 23 16 12 18 13 19 14 20 15 21 16 22 17 23 18 24
REMARK SMILES IDX 19 25
REMARK H PARENT 7 6 23 17
REMARK Flexibility Score: inf
ROOT
ATOM      1  C   UNL     1      88.657  72.048  67.614  1.00  0.00     0.010 C 
ENDROOT
BRANCH   1   2
ATOM      2  C   UNL     1      88.759  71.670  69.090  1.00  0.00     0.100 C 
BRANCH   2   3
ATOM      3  C   UNL     1      90.116  72.012  69.683  1.00  0.00     0.220 C 
ATOM      4  O   UNL     1      90.450  71.701  70.822  1.00  0.00    -0.275 OA
ATOM      5  N   UNL     1      90.903  72.714  68.782  1.00  0.00    -0.352 N 
ATOM      6  H   UNL     1      90.535  72.936  67.861  1.00  0.00     0.163 HD
BRANCH   5   7
ATOM      7  C   UNL     1      92.238  73.168  69.097  1.00  0.00     0.151 C 
BRANCH   7   8
ATOM      8  C   UNL     1      92.232  74.523  69.743  1.00  0.00    -0.025 A 
ATOM      9  C   UNL     1      92.666  74.661  71.056  1.00  0.00     0.056 A 
ATOM     10  C   UNL     1      91.793  75.626  69.021  1.00  0.00     0.009 A 
ATOM     11  C   UNL     1      92.661  75.920  71.656  1.00  0.00     0.160 A 
ATOM     12  C   UNL     1      91.787  76.885  69.621  1.00  0.00     0.050 A 
ATOM     13  C   UNL     1      92.221  77.033  70.939  1.00  0.00     0.157 A 
BRANCH  11  14
ATOM     14  O   UNL     1      93.087  76.051  72.943  1.00  0.00    -0.493 OA
ATOM     15  C   UNL     1      92.518  75.165  73.907  1.00  0.00     0.278 C 
ENDBRANCH  11  14
BRANCH  13  16
ATOM     16  O   UNL     1      92.211  78.268  71.513  1.00  0.00    -0.504 OA
ATOM     17  H   UNL     1      93.129  78.565  71.639  1.00  0.00     0.293 HD
ENDBRANCH  13  16
ENDBRANCH   7   8
ENDBRANCH   5   7
ENDBRANCH   2   3
ENDBRANCH   1   2
BRANCH   1  18
ATOM     18  C   UNL     1      87.710  73.221  67.347  1.00  0.00     0.001 C 
BRANCH  18  19
ATOM     19  C   UNL     1      87.324  73.444  65.881  1.00  0.00     0.000 C 
BRANCH  19  20
ATOM     20  C   UNL     1      88.502  73.292  64.915  1.00  0.00     0.000 C 
BRANCH  20  21
ATOM     21  C   UNL     1      89.483  74.469  64.960  1.00  0.00     0.000 C 
BRANCH  21  22
ATOM     22  C   UNL     1      90.868  74.084  65.490  1.00  0.00     0.003 C 
BRANCH  22  23
ATOM     23  C   UNL     1      91.988  75.039  65.032  1.00  0.00    -0.017 C 
ATOM     24  C   UNL     1      93.302  74.663  65.720  1.00  0.00     0.007 C 
ATOM     25  C   UNL     1      91.660  76.505  65.317  1.00  0.00     0.007 C 
ENDBRANCH  22  23
ENDBRANCH  21  22
ENDBRANCH  20  21
ENDBRANCH  19  20
ENDBRANCH  18  19
ENDBRANCH   1  18
TORSDOF 12
ENDMDL
MODEL 8
REMARK VINA RESULT:    -4.987     23.372     26.384
REMARK INTER + INTRA:          -9.492
REMARK INTER:                  -7.981
REMARK INTRA:                  -1.512
REMARK UNBOUND:                -1.153
REMARK SMILES COc1cc(CNC(=O)CCCCCCCC(C)C)ccc1O
REMARK SMILES IDX 11 1 10 2 8 3 9 4 7 5 6 7 5 8 4 9 20 10 3 11 21 12 22 13
REMARK SMILES IDX 2 14 1 15 23 16 12 18 13 19 14 20 15 21 16 22 17 23 18 24
REMARK SMILES IDX 19 25
REMARK H PARENT 7 6 23 17
REMARK Flexibility Score: inf
ROOT
ATOM      1  C   UNL     1      74.433  91.185  67.610  1.00  0.00     0.010 C 
ENDROOT
BRANCH   1   2
ATOM      2  C   UNL     1      73.001  90.975  67.123  1.00  0.00     0.100 C 
BRANCH   2   3
ATOM      3  C   UNL     1      72.029  90.737  68.267  1.00  0.00     0.220 C 
ATOM      4  O   UNL     1      71.808  91.566  69.146  1.00  0.00    -0.275 OA
ATOM      5  N   UNL     1      71.446  89.481  68.188  1.00  0.00    -0.352 N 
ATOM      6  H   UNL     1      71.700  88.857  67.428  1.00  0.00     0.163 HD
BRANCH   5   7
ATOM      7  C   UNL     1      70.490  88.999  69.158  1.00  0.00     0.151 C 
BRANCH   7   8
ATOM      8  C   UNL     1      70.478  87.500  69.237  1.00  0.00    -0.025 A 
ATOM      9  C   UNL     1      71.320  86.761  68.415  1.00  0.00     0.056 A 
ATOM     10  C   UNL     1      69.624  86.867  70.132  1.00  0.00     0.009 A 
ATOM     11  C   UNL     1      71.308  85.369  68.489  1.00  0.00     0.160 A 
ATOM     12  C   UNL     1      69.612  85.473  70.205  1.00  0.00     0.050 A 
ATOM     13  C   UNL     1      70.454  84.724  69.383  1.00  0.00     0.157 A 
BRANCH  11  14
ATOM     14  O   UNL     1      72.135  84.648  67.681  1.00  0.00    -0.493 OA
ATOM     15  C   UNL     1      71.556  84.070  66.511  1.00  0.00     0.278 C 
ENDBRANCH  11  14
BRANCH  13  16
ATOM     16  O   UNL     1      70.434  83.365  69.465  1.00  0.00    -0.504 OA
ATOM     17  H   UNL     1      70.287  83.105  70.391  1.00  0.00     0.293 HD
ENDBRANCH  13  16
ENDBRANCH   7   8
ENDBRANCH   5   7
ENDBRANCH   2   3
ENDBRANCH   1   2
BRANCH   1  18
ATOM     18  C   UNL     1      75.457  90.299  66.895  1.00  0.00     0.001 C 
BRANCH  18  19
ATOM     19  C   UNL     1      76.197  89.291  67.780  1.00  0.00     0.000 C 
BRANCH  19  20
ATOM     20  C   UNL     1      75.659  89.234  69.212  1.00  0.00     0.000 C 
BRANCH  20  21
ATOM     21  C   UNL     1      74.672  88.085  69.448  1.00  0.00     0.000 C 
BRANCH  21  22
ATOM     22  C   UNL     1      75.110  86.767  68.800  1.00  0.00     0.003 C 
BRANCH  22  23
ATOM     23  C   UNL     1      76.275  86.078  69.536  1.00  0.00    -0.017 C 
ATOM     24  C   UNL     1      77.408  85.783  68.550  1.00  0.00     0.007 C 
ATOM     25  C   UNL     1      75.846  84.783  70.228  1.00  0.00     0.007 C 
ENDBRANCH  22  23
ENDBRANCH  21  22
ENDBRANCH  20  21
ENDBRANCH  19  20
ENDBRANCH  18  19
ENDBRANCH   1  18
TORSDOF 12
ENDMDL
MODEL 9
REMARK VINA RESULT:    -4.930     23.228     26.575
REMARK INTER + INTRA:          -9.398
REMARK INTER:                  -7.692
REMARK INTRA:                  -1.706
REMARK UNBOUND:                -1.153
REMARK SMILES COc1cc(CNC(=O)CCCCCCCC(C)C)ccc1O
REMARK SMILES IDX 11 1 10 2 8 3 9 4 7 5 6 7 5 8 4 9 20 10 3 11 21 12 22 13
REMARK SMILES IDX 2 14 1 15 23 16 12 18 13 19 14 20 15 21 16 22 17 23 18 24
REMARK SMILES IDX 19 25
REMARK H PARENT 7 6 23 17
REMARK Flexibility Score: inf
ROOT
ATOM      1  C   UNL     1      75.276  89.946  67.096  1.00  0.00     0.010 C 
ENDROOT
BRANCH   1   2
ATOM      2  C   UNL     1      74.366  89.363  66.017  1.00  0.00     0.100 C 
BRANCH   2   3
ATOM      3  C   UNL     1      72.912  89.305  66.457  1.00  0.00     0.220 C 
ATOM      4  O   UNL     1      71.976  89.628  65.732  1.00  0.00    -0.275 OA
ATOM      5  N   UNL     1      72.792  88.854  67.763  1.00  0.00    -0.352 N 
ATOM      6  H   UNL     1      73.628  88.619  68.292  1.00  0.00     0.163 HD
BRANCH   5   7
ATOM      7  C   UNL     1      71.518  88.712  68.429  1.00  0.00     0.151 C 
BRANCH   7   8
ATOM      8  C   UNL     1      71.199  87.277  68.731  1.00  0.00    -0.025 A 
ATOM      9  C   UNL     1      70.112  86.970  69.541  1.00  0.00     0.056 A 
ATOM     10  C   UNL     1      71.994  86.270  68.197  1.00  0.00     0.009 A 
ATOM     11  C   UNL     1      69.816  85.636  69.822  1.00  0.00     0.160 A 
ATOM     12  C   UNL     1      71.698  84.935  68.479  1.00  0.00     0.050 A 
ATOM     13  C   UNL     1      70.609  84.618  69.291  1.00  0.00     0.157 A 
BRANCH  11  14
ATOM     14  O   UNL     1      68.751  85.338  70.617  1.00  0.00    -0.493 OA
ATOM     15  C   UNL     1      67.467  85.307  69.995  1.00  0.00     0.278 C 
ENDBRANCH  11  14
BRANCH  13  16
ATOM     16  O   UNL     1      70.330  83.312  69.557  1.00  0.00    -0.504 OA
ATOM     17  H   UNL     1      69.632  83.269  70.233  1.00  0.00     0.293 HD
ENDBRANCH  13  16
ENDBRANCH   7   8
ENDBRANCH   5   7
ENDBRANCH   2   3
ENDBRANCH   1   2
BRANCH   1  18
ATOM     18  C   UNL     1      76.767  89.773  66.795  1.00  0.00     0.001 C 
BRANCH  18  19
ATOM     19  C   UNL     1      77.457  88.603  67.504  1.00  0.00     0.000 C 
BRANCH  19  20
ATOM     20  C   UNL     1      76.646  88.042  68.674  1.00  0.00     0.000 C 
BRANCH  20  21
ATOM     21  C   UNL     1      76.374  86.537  68.562  1.00  0.00     0.000 C 
BRANCH  21  22
ATOM     22  C   UNL     1      75.590  86.156  67.301  1.00  0.00     0.003 C 
BRANCH  22  23
ATOM     23  C   UNL     1      76.241  85.013  66.497  1.00  0.00    -0.017 C 
ATOM     24  C   UNL     1      75.211  83.912  66.237  1.00  0.00     0.007 C 
ATOM     25  C   UNL     1      77.461  84.420  67.202  1.00  0.00     0.007 C 
ENDBRANCH  22  23
ENDBRANCH  21  22
ENDBRANCH  20  21
ENDBRANCH  19  20
ENDBRANCH  18  19
ENDBRANCH   1  18
TORSDOF 12
ENDMDL
MODEL 10
REMARK VINA RESULT:    -4.908     11.174     15.276
REMARK INTER + INTRA:          -9.360
REMARK INTER:                  -8.232
REMARK INTRA:                  -1.128
REMARK UNBOUND:                -1.153
REMARK SMILES COc1cc(CNC(=O)CCCCCCCC(C)C)ccc1O
REMARK SMILES IDX 11 1 10 2 8 3 9 4 7 5 6 7 5 8 4 9 20 10 3 11 21 12 22 13
REMARK SMILES IDX 2 14 1 15 23 16 12 18 13 19 14 20 15 21 16 22 17 23 18 24
REMARK SMILES IDX 19 25
REMARK H PARENT 7 6 23 17
REMARK Flexibility Score: inf
ROOT
ATOM      1  C   UNL     1      95.941  95.536  91.470  1.00  0.00     0.010 C 
ENDROOT
BRANCH   1   2
ATOM      2  C   UNL     1      96.100  94.106  90.959  1.00  0.00     0.100 C 
BRANCH   2   3
ATOM      3  C   UNL     1      94.931  93.667  90.094  1.00  0.00     0.220 C 
ATOM      4  O   UNL     1      94.502  94.330  89.154  1.00  0.00    -0.275 OA
ATOM      5  N   UNL     1      94.421  92.445  90.507  1.00  0.00    -0.352 N 
ATOM      6  H   UNL     1      94.836  91.973  91.306  1.00  0.00     0.163 HD
BRANCH   5   7
ATOM      7  C   UNL     1      93.300  91.804  89.860  1.00  0.00     0.151 C 
BRANCH   7   8
ATOM      8  C   UNL     1      93.740  90.716  88.924  1.00  0.00    -0.025 A 
ATOM      9  C   UNL     1      93.712  89.392  89.348  1.00  0.00     0.056 A 
ATOM     10  C   UNL     1      94.170  91.042  87.644  1.00  0.00     0.009 A 
ATOM     11  C   UNL     1      94.120  88.381  88.478  1.00  0.00     0.160 A 
ATOM     12  C   UNL     1      94.580  90.030  86.775  1.00  0.00     0.050 A 
ATOM     13  C   UNL     1      94.555  88.700  87.192  1.00  0.00     0.157 A 
BRANCH  11  14
ATOM     14  O   UNL     1      94.092  87.085  88.897  1.00  0.00    -0.493 OA
ATOM     15  C   UNL     1      93.016  86.275  88.426  1.00  0.00     0.278 C 
ENDBRANCH  11  14
BRANCH  13  16
ATOM     16  O   UNL     1      94.956  87.721  86.334  1.00  0.00    -0.504 OA
ATOM     17  H   UNL     1      95.923  87.762  86.236  1.00  0.00     0.293 HD
ENDBRANCH  13  16
ENDBRANCH   7   8
ENDBRANCH   5   7
ENDBRANCH   2   3
ENDBRANCH   1   2
BRANCH   1  18
ATOM     18  C   UNL     1      96.913  95.894  92.598  1.00  0.00     0.001 C 
BRANCH  18  19
ATOM     19  C   UNL     1      98.382  96.043  92.187  1.00  0.00     0.000 C 
BRANCH  19  20
ATOM     20  C   UNL     1      99.165  94.729  92.252  1.00  0.00     0.000 C 
BRANCH  20  21
ATOM     21  C   UNL     1      99.622  94.361  93.667  1.00  0.00     0.000 C 
BRANCH  21  22
ATOM     22  C   UNL     1      99.218  92.943  94.085  1.00  0.00     0.003 C 
BRANCH  22  23
ATOM     23  C   UNL     1      98.021  92.906  95.055  1.00  0.00    -0.017 C 
ATOM     24  C   UNL     1      96.733  92.623  94.277  1.00  0.00     0.007 C 
ATOM     25  C   UNL     1      97.868  94.206  95.847  1.00  0.00     0.007 C 
ENDBRANCH  22  23
ENDBRANCH  21  22
ENDBRANCH  20  21
ENDBRANCH  19  20
ENDBRANCH  18  19
ENDBRANCH   1  18
TORSDOF 12
ENDMDL
