MODEL 1
REMARK VINA RESULT:    -6.850      0.000      0.000
REMARK INTER + INTRA:         -11.895
REMARK INTER:                 -11.055
REMARK INTRA:                  -0.839
REMARK UNBOUND:                -0.839
REMARK SMILES COc1cc(CNC(=O)CCCCC/C=C/C(C)C)ccc1O
REMARK SMILES IDX 11 1 10 2 8 3 7 4 9 6 6 7 5 8 3 9 22 10 4 11 21 12 20 13
REMARK SMILES IDX 2 14 1 15 23 16 12 18 13 19 14 20 15 21 16 22 17 23 18 24
REMARK SMILES IDX 19 25
REMARK H PARENT 7 5 23 17
REMARK Flexibility Score: inf
ROOT
ATOM      1  C   UNL     1      92.048  95.448  77.160  1.00  0.00     0.010 C 
ENDROOT
BRANCH   1   2
ATOM      2  C   UNL     1      93.152  94.510  77.713  1.00  0.00     0.100 C 
BRANCH   2   3
ATOM      3  C   UNL     1      94.483  95.138  77.804  1.00  0.00     0.220 C 
ATOM      4  N   UNL     1      94.595  96.495  77.788  1.00  0.00    -0.352 N 
ATOM      5  H   UNL     1      93.726  96.988  77.636  1.00  0.00     0.163 HD
ATOM      6  O   UNL     1      95.484  94.395  77.936  1.00  0.00    -0.275 OA
BRANCH   4   7
ATOM      7  C   UNL     1      95.805  97.229  77.965  1.00  0.00     0.151 C 
BRANCH   7   8
ATOM      8  C   UNL     1      96.063  97.574  79.387  1.00  0.00    -0.025 A 
ATOM      9  C   UNL     1      96.955  96.981  81.601  1.00  0.00     0.160 A 
ATOM     10  C   UNL     1      96.503  98.216  82.113  1.00  0.00     0.157 A 
ATOM     11  C   UNL     1      96.724  96.665  80.246  1.00  0.00     0.056 A 
ATOM     12  C   UNL     1      95.859  99.134  81.264  1.00  0.00     0.050 A 
ATOM     13  C   UNL     1      95.649  98.820  79.908  1.00  0.00     0.009 A 
BRANCH   9  14
ATOM     14  O   UNL     1      97.661  96.117  82.397  1.00  0.00    -0.493 OA
ATOM     15  C   UNL     1      99.068  96.068  82.108  1.00  0.00     0.278 C 
ENDBRANCH   9  14
BRANCH  10  16
ATOM     16  O   UNL     1      96.680  98.545  83.417  1.00  0.00    -0.504 OA
ATOM     17  H   UNL     1      96.308  97.857  83.974  1.00  0.00     0.293 HD
ENDBRANCH  10  16
ENDBRANCH   7   8
ENDBRANCH   4   7
ENDBRANCH   2   3
ENDBRANCH   1   2
BRANCH   1  18
ATOM     18  C   UNL     1      90.659  94.761  77.198  1.00  0.00     0.001 C 
BRANCH  18  19
ATOM     19  C   UNL     1      89.997  94.614  75.805  1.00  0.00     0.004 C 
BRANCH  19  20
ATOM     20  C   UNL     1      90.972  93.970  74.780  1.00  0.00     0.027 C 
BRANCH  20  21
ATOM     21  C   UNL     1      90.436  92.786  74.128  1.00  0.00    -0.031 C 
ATOM     22  C   UNL     1      90.424  91.581  74.724  1.00  0.00    -0.028 C 
BRANCH  22  23
ATOM     23  C   UNL     1      89.889  90.374  74.099  1.00  0.00     0.005 C 
ATOM     24  C   UNL     1      90.076  89.153  75.038  1.00  0.00     0.012 C 
ATOM     25  C   UNL     1      88.403  90.590  73.701  1.00  0.00     0.012 C 
ENDBRANCH  22  23
ENDBRANCH  20  21
ENDBRANCH  19  20
ENDBRANCH  18  19
ENDBRANCH   1  18
TORSDOF 11
ENDMDL
MODEL 2
REMARK VINA RESULT:    -6.288      1.550      2.271
REMARK INTER + INTRA:         -10.987
REMARK INTER:                 -10.224
REMARK INTRA:                  -0.763
REMARK UNBOUND:                -0.839
REMARK SMILES COc1cc(CNC(=O)CCCCC/C=C/C(C)C)ccc1O
REMARK SMILES IDX 11 1 10 2 8 3 7 4 9 6 6 7 5 8 3 9 22 10 4 11 21 12 20 13
REMARK SMILES IDX 2 14 1 15 23 16 12 18 13 19 14 20 15 21 16 22 17 23 18 24
REMARK SMILES IDX 19 25
REMARK H PARENT 7 5 23 17
REMARK Flexibility Score: inf
ROOT
ATOM      1  C   UNL     1      92.734  94.825  77.608  1.00  0.00     0.010 C 
ENDROOT
BRANCH   1   2
ATOM      2  C   UNL     1      94.007  95.114  76.771  1.00  0.00     0.100 C 
BRANCH   2   3
ATOM      3  C   UNL     1      94.746  96.317  77.199  1.00  0.00     0.220 C 
ATOM      4  N   UNL     1      95.005  96.519  78.521  1.00  0.00    -0.352 N 
ATOM      5  H   UNL     1      94.591  95.836  79.140  1.00  0.00     0.163 HD
ATOM      6  O   UNL     1      95.156  97.109  76.318  1.00  0.00    -0.275 OA
BRANCH   4   7
ATOM      7  C   UNL     1      95.789  97.583  79.059  1.00  0.00     0.151 C 
BRANCH   7   8
ATOM      8  C   UNL     1      96.606  97.158  80.225  1.00  0.00    -0.025 A 
ATOM      9  C   UNL     1      98.471  97.544  81.781  1.00  0.00     0.160 A 
ATOM     10  C   UNL     1      98.194  96.314  82.417  1.00  0.00     0.157 A 
ATOM     11  C   UNL     1      97.682  97.951  80.686  1.00  0.00     0.056 A 
ATOM     12  C   UNL     1      97.115  95.525  81.978  1.00  0.00     0.050 A 
ATOM     13  C   UNL     1      96.320  95.948  80.897  1.00  0.00     0.009 A 
BRANCH   9  14
ATOM     14  O   UNL     1      99.463  98.361  82.255  1.00  0.00    -0.493 OA
ATOM     15  C   UNL     1     100.684  98.302  81.500  1.00  0.00     0.278 C 
ENDBRANCH   9  14
BRANCH  10  16
ATOM     16  O   UNL     1      98.947  95.872  83.455  1.00  0.00    -0.504 OA
ATOM     17  H   UNL     1      98.388  95.755  84.228  1.00  0.00     0.293 HD
ENDBRANCH  10  16
ENDBRANCH   7   8
ENDBRANCH   4   7
ENDBRANCH   2   3
ENDBRANCH   1   2
BRANCH   1  18
ATOM     18  C   UNL     1      91.500  95.556  77.019  1.00  0.00     0.001 C 
BRANCH  18  19
ATOM     19  C   UNL     1      90.378  94.600  76.544  1.00  0.00     0.004 C 
BRANCH  19  20
ATOM     20  C   UNL     1      90.293  93.334  77.442  1.00  0.00     0.027 C 
BRANCH  20  21
ATOM     21  C   UNL     1      89.519  92.252  76.856  1.00  0.00    -0.031 C 
ATOM     22  C   UNL     1      89.979  91.511  75.834  1.00  0.00    -0.028 C 
BRANCH  22  23
ATOM     23  C   UNL     1      89.228  90.414  75.227  1.00  0.00     0.005 C 
ATOM     24  C   UNL     1      88.627  90.862  73.868  1.00  0.00     0.012 C 
ATOM     25  C   UNL     1      90.131  89.158  75.087  1.00  0.00     0.012 C 
ENDBRANCH  22  23
ENDBRANCH  20  21
ENDBRANCH  19  20
ENDBRANCH  18  19
ENDBRANCH   1  18
TORSDOF 11
ENDMDL
MODEL 3
REMARK VINA RESULT:    -6.129      4.788      6.657
REMARK INTER + INTRA:         -10.730
REMARK INTER:                 -10.020
REMARK INTRA:                  -0.711
REMARK UNBOUND:                -0.839
REMARK SMILES COc1cc(CNC(=O)CCCCC/C=C/C(C)C)ccc1O
REMARK SMILES IDX 11 1 10 2 8 3 7 4 9 6 6 7 5 8 3 9 22 10 4 11 21 12 20 13
REMARK SMILES IDX 2 14 1 15 23 16 12 18 13 19 14 20 15 21 16 22 17 23 18 24
REMARK SMILES IDX 19 25
REMARK H PARENT 7 5 23 17
REMARK Flexibility Score: inf
ROOT
ATOM      1  C   UNL     1      92.910  95.175  77.386  1.00  0.00     0.010 C 
ENDROOT
BRANCH   1   2
ATOM      2  C   UNL     1      94.078  95.978  76.757  1.00  0.00     0.100 C 
BRANCH   2   3
ATOM      3  C   UNL     1      94.023  96.063  75.286  1.00  0.00     0.220 C 
ATOM      4  N   UNL     1      94.426  97.201  74.657  1.00  0.00    -0.352 N 
ATOM      5  H   UNL     1      94.675  97.960  75.277  1.00  0.00     0.163 HD
ATOM      6  O   UNL     1      93.641  95.055  74.645  1.00  0.00    -0.275 OA
BRANCH   4   7
ATOM      7  C   UNL     1      94.516  97.381  73.245  1.00  0.00     0.151 C 
BRANCH   7   8
ATOM      8  C   UNL     1      95.909  97.626  72.787  1.00  0.00    -0.025 A 
ATOM      9  C   UNL     1      97.609  97.601  71.010  1.00  0.00     0.160 A 
ATOM     10  C   UNL     1      98.580  98.045  71.934  1.00  0.00     0.157 A 
ATOM     11  C   UNL     1      96.285  97.387  71.445  1.00  0.00     0.056 A 
ATOM     12  C   UNL     1      98.213  98.302  73.267  1.00  0.00     0.050 A 
ATOM     13  C   UNL     1      96.885  98.105  73.689  1.00  0.00     0.009 A 
BRANCH   9  14
ATOM     14  O   UNL     1      97.935  97.431  69.691  1.00  0.00    -0.493 OA
ATOM     15  C   UNL     1      98.701  96.244  69.423  1.00  0.00     0.278 C 
ENDBRANCH   9  14
BRANCH  10  16
ATOM     16  O   UNL     1      99.871  98.235  71.563  1.00  0.00    -0.504 OA
ATOM     17  H   UNL     1     100.393  98.473  72.333  1.00  0.00     0.293 HD
ENDBRANCH  10  16
ENDBRANCH   7   8
ENDBRANCH   4   7
ENDBRANCH   2   3
ENDBRANCH   1   2
BRANCH   1  18
ATOM     18  C   UNL     1      91.554  95.894  77.168  1.00  0.00     0.001 C 
BRANCH  18  19
ATOM     19  C   UNL     1      90.501  95.029  76.431  1.00  0.00     0.004 C 
BRANCH  19  20
ATOM     20  C   UNL     1      89.900  93.946  77.370  1.00  0.00     0.027 C 
BRANCH  20  21
ATOM     21  C   UNL     1      89.913  92.608  76.803  1.00  0.00    -0.031 C 
ATOM     22  C   UNL     1      90.260  92.373  75.525  1.00  0.00    -0.028 C 
BRANCH  22  23
ATOM     23  C   UNL     1      90.288  91.041  74.927  1.00  0.00     0.005 C 
ATOM     24  C   UNL     1      88.905  90.354  75.078  1.00  0.00     0.012 C 
ATOM     25  C   UNL     1      90.744  91.127  73.445  1.00  0.00     0.012 C 
ENDBRANCH  22  23
ENDBRANCH  20  21
ENDBRANCH  19  20
ENDBRANCH  18  19
ENDBRANCH   1  18
TORSDOF 11
ENDMDL
MODEL 4
REMARK VINA RESULT:    -6.072     17.878     19.176
REMARK INTER + INTRA:         -10.638
REMARK INTER:                  -9.966
REMARK INTRA:                  -0.672
REMARK UNBOUND:                -0.839
REMARK SMILES COc1cc(CNC(=O)CCCCC/C=C/C(C)C)ccc1O
REMARK SMILES IDX 11 1 10 2 8 3 7 4 9 6 6 7 5 8 3 9 22 10 4 11 21 12 20 13
REMARK SMILES IDX 2 14 1 15 23 16 12 18 13 19 14 20 15 21 16 22 17 23 18 24
REMARK SMILES IDX 19 25
REMARK H PARENT 7 5 23 17
REMARK Flexibility Score: inf
ROOT
ATOM      1  C   UNL     1      91.441  75.033  78.111  1.00  0.00     0.010 C 
ENDROOT
BRANCH   1   2
ATOM      2  C   UNL     1      90.575  74.581  79.315  1.00  0.00     0.100 C 
BRANCH   2   3
ATOM      3  C   UNL     1      91.212  74.799  80.627  1.00  0.00     0.220 C 
ATOM      4  N   UNL     1      90.510  74.557  81.770  1.00  0.00    -0.352 N 
ATOM      5  H   UNL     1      89.542  74.305  81.625  1.00  0.00     0.163 HD
ATOM      6  O   UNL     1      92.410  75.166  80.654  1.00  0.00    -0.275 OA
BRANCH   4   7
ATOM      7  C   UNL     1      91.032  74.633  83.095  1.00  0.00     0.151 C 
BRANCH   7   8
ATOM      8  C   UNL     1      91.026  76.018  83.635  1.00  0.00    -0.025 A 
ATOM      9  C   UNL     1      92.228  78.059  84.294  1.00  0.00     0.160 A 
ATOM     10  C   UNL     1      91.011  78.639  84.714  1.00  0.00     0.157 A 
ATOM     11  C   UNL     1      92.227  76.752  83.766  1.00  0.00     0.056 A 
ATOM     12  C   UNL     1      89.808  77.925  84.573  1.00  0.00     0.050 A 
ATOM     13  C   UNL     1      89.813  76.627  84.027  1.00  0.00     0.009 A 
BRANCH   9  14
ATOM     14  O   UNL     1      93.392  78.779  84.346  1.00  0.00    -0.493 OA
ATOM     15  C   UNL     1      94.575  78.001  84.100  1.00  0.00     0.278 C 
ENDBRANCH   9  14
BRANCH  10  16
ATOM     16  O   UNL     1      90.972  79.883  85.254  1.00  0.00    -0.504 OA
ATOM     17  H   UNL     1      90.651  79.830  86.157  1.00  0.00     0.293 HD
ENDBRANCH  10  16
ENDBRANCH   7   8
ENDBRANCH   4   7
ENDBRANCH   2   3
ENDBRANCH   1   2
BRANCH   1  18
ATOM     18  C   UNL     1      91.060  76.465  77.654  1.00  0.00     0.001 C 
BRANCH  18  19
ATOM     19  C   UNL     1      90.263  76.504  76.326  1.00  0.00     0.004 C 
BRANCH  19  20
ATOM     20  C   UNL     1      90.463  77.856  75.585  1.00  0.00     0.027 C 
BRANCH  20  21
ATOM     21  C   UNL     1      91.514  77.824  74.583  1.00  0.00    -0.031 C 
ATOM     22  C   UNL     1      91.279  77.474  73.306  1.00  0.00    -0.028 C 
BRANCH  22  23
ATOM     23  C   UNL     1      92.312  77.437  72.274  1.00  0.00     0.005 C 
ATOM     24  C   UNL     1      92.985  76.040  72.237  1.00  0.00     0.012 C 
ATOM     25  C   UNL     1      91.712  77.840  70.899  1.00  0.00     0.012 C 
ENDBRANCH  22  23
ENDBRANCH  20  21
ENDBRANCH  19  20
ENDBRANCH  18  19
ENDBRANCH   1  18
TORSDOF 11
ENDMDL
MODEL 5
REMARK VINA RESULT:    -5.795     14.520     16.775
REMARK INTER + INTRA:         -10.192
REMARK INTER:                  -9.393
REMARK INTRA:                  -0.799
REMARK UNBOUND:                -0.839
REMARK SMILES COc1cc(CNC(=O)CCCCC/C=C/C(C)C)ccc1O
REMARK SMILES IDX 11 1 10 2 8 3 7 4 9 6 6 7 5 8 3 9 22 10 4 11 21 12 20 13
REMARK SMILES IDX 2 14 1 15 23 16 12 18 13 19 14 20 15 21 16 22 17 23 18 24
REMARK SMILES IDX 19 25
REMARK H PARENT 7 5 23 17
REMARK Flexibility Score: inf
ROOT
ATOM      1  C   UNL     1      96.989  81.499  84.709  1.00  0.00     0.010 C 
ENDROOT
BRANCH   1   2
ATOM      2  C   UNL     1      95.626  80.866  85.089  1.00  0.00     0.100 C 
BRANCH   2   3
ATOM      3  C   UNL     1      94.545  81.848  85.294  1.00  0.00     0.220 C 
ATOM      4  N   UNL     1      93.397  81.754  84.566  1.00  0.00    -0.352 N 
ATOM      5  H   UNL     1      93.404  81.031  83.860  1.00  0.00     0.163 HD
ATOM      6  O   UNL     1      94.699  82.728  86.173  1.00  0.00    -0.275 OA
BRANCH   4   7
ATOM      7  C   UNL     1      92.241  82.574  84.732  1.00  0.00     0.151 C 
BRANCH   7   8
ATOM      8  C   UNL     1      90.976  81.837  84.477  1.00  0.00    -0.025 A 
ATOM      9  C   UNL     1      88.519  81.771  84.412  1.00  0.00     0.160 A 
ATOM     10  C   UNL     1      88.566  80.410  84.040  1.00  0.00     0.157 A 
ATOM     11  C   UNL     1      89.722  82.471  84.636  1.00  0.00     0.056 A 
ATOM     12  C   UNL     1      89.808  79.774  83.863  1.00  0.00     0.050 A 
ATOM     13  C   UNL     1      91.005  80.485  84.069  1.00  0.00     0.009 A 
BRANCH   9  14
ATOM     14  O   UNL     1      87.317  82.423  84.503  1.00  0.00    -0.493 OA
ATOM     15  C   UNL     1      87.396  83.717  85.124  1.00  0.00     0.278 C 
ENDBRANCH   9  14
BRANCH  10  16
ATOM     16  O   UNL     1      87.431  79.693  83.843  1.00  0.00    -0.504 OA
ATOM     17  H   UNL     1      87.484  79.236  83.000  1.00  0.00     0.293 HD
ENDBRANCH  10  16
ENDBRANCH   7   8
ENDBRANCH   4   7
ENDBRANCH   2   3
ENDBRANCH   1   2
BRANCH   1  18
ATOM     18  C   UNL     1      96.871  82.351  83.419  1.00  0.00     0.001 C 
BRANCH  18  19
ATOM     19  C   UNL     1      96.597  81.515  82.143  1.00  0.00     0.004 C 
BRANCH  19  20
ATOM     20  C   UNL     1      97.052  82.269  80.863  1.00  0.00     0.027 C 
BRANCH  20  21
ATOM     21  C   UNL     1      98.488  82.471  80.783  1.00  0.00    -0.031 C 
ATOM     22  C   UNL     1      99.328  81.506  80.369  1.00  0.00    -0.028 C 
BRANCH  22  23
ATOM     23  C   UNL     1     100.775  81.679  80.272  1.00  0.00     0.005 C 
ATOM     24  C   UNL     1     101.473  81.079  81.522  1.00  0.00     0.012 C 
ATOM     25  C   UNL     1     101.303  81.062  78.949  1.00  0.00     0.012 C 
ENDBRANCH  22  23
ENDBRANCH  20  21
ENDBRANCH  19  20
ENDBRANCH  18  19
ENDBRANCH   1  18
TORSDOF 11
ENDMDL
MODEL 6
REMARK VINA RESULT:    -5.641     12.261     15.338
REMARK INTER + INTRA:          -9.943
REMARK INTER:                  -9.195
REMARK INTRA:                  -0.748
REMARK UNBOUND:                -0.839
REMARK SMILES COc1cc(CNC(=O)CCCCC/C=C/C(C)C)ccc1O
REMARK SMILES IDX 11 1 10 2 8 3 7 4 9 6 6 7 5 8 3 9 22 10 4 11 21 12 20 13
REMARK SMILES IDX 2 14 1 15 23 16 12 18 13 19 14 20 15 21 16 22 17 23 18 24
REMARK SMILES IDX 19 25
REMARK H PARENT 7 5 23 17
REMARK Flexibility Score: inf
ROOT
ATOM      1  C   UNL     1      93.375  82.053  84.635  1.00  0.00     0.010 C 
ENDROOT
BRANCH   1   2
ATOM      2  C   UNL     1      94.796  81.711  85.152  1.00  0.00     0.100 C 
BRANCH   2   3
ATOM      3  C   UNL     1      95.882  82.387  84.418  1.00  0.00     0.220 C 
ATOM      4  N   UNL     1      95.671  82.820  83.144  1.00  0.00    -0.352 N 
ATOM      5  H   UNL     1      94.771  82.571  82.758  1.00  0.00     0.163 HD
ATOM      6  O   UNL     1      96.970  82.582  85.010  1.00  0.00    -0.275 OA
BRANCH   4   7
ATOM      7  C   UNL     1      96.597  83.570  82.359  1.00  0.00     0.151 C 
BRANCH   7   8
ATOM      8  C   UNL     1      96.999  82.861  81.117  1.00  0.00    -0.025 A 
ATOM      9  C   UNL     1      97.528  82.894  78.715  1.00  0.00     0.160 A 
ATOM     10  C   UNL     1      97.713  81.494  78.738  1.00  0.00     0.157 A 
ATOM     11  C   UNL     1      97.165  83.565  79.901  1.00  0.00     0.056 A 
ATOM     12  C   UNL     1      97.567  80.787  79.945  1.00  0.00     0.050 A 
ATOM     13  C   UNL     1      97.223  81.467  81.128  1.00  0.00     0.009 A 
BRANCH   9  14
ATOM     14  O   UNL     1      97.753  83.604  77.565  1.00  0.00    -0.493 OA
ATOM     15  C   UNL     1      96.567  84.169  76.983  1.00  0.00     0.278 C 
ENDBRANCH   9  14
BRANCH  10  16
ATOM     16  O   UNL     1      98.035  80.808  77.613  1.00  0.00    -0.504 OA
ATOM     17  H   UNL     1      98.133  81.421  76.881  1.00  0.00     0.293 HD
ENDBRANCH  10  16
ENDBRANCH   7   8
ENDBRANCH   4   7
ENDBRANCH   2   3
ENDBRANCH   1   2
BRANCH   1  18
ATOM     18  C   UNL     1      92.586  82.887  85.677  1.00  0.00     0.001 C 
BRANCH  18  19
ATOM     19  C   UNL     1      93.079  84.351  85.806  1.00  0.00     0.004 C 
BRANCH  19  20
ATOM     20  C   UNL     1      93.409  84.710  87.281  1.00  0.00     0.027 C 
BRANCH  20  21
ATOM     21  C   UNL     1      93.346  86.133  87.564  1.00  0.00    -0.031 C 
ATOM     22  C   UNL     1      92.867  86.615  88.725  1.00  0.00    -0.028 C 
BRANCH  22  23
ATOM     23  C   UNL     1      92.795  88.039  89.042  1.00  0.00     0.005 C 
ATOM     24  C   UNL     1      92.264  88.242  90.486  1.00  0.00     0.012 C 
ATOM     25  C   UNL     1      94.179  88.708  88.823  1.00  0.00     0.012 C 
ENDBRANCH  22  23
ENDBRANCH  20  21
ENDBRANCH  19  20
ENDBRANCH  18  19
ENDBRANCH   1  18
TORSDOF 11
ENDMDL
MODEL 7
REMARK VINA RESULT:    -5.604     21.979     25.819
REMARK INTER + INTRA:          -9.883
REMARK INTER:                  -8.616
REMARK INTRA:                  -1.266
REMARK UNBOUND:                -0.839
REMARK SMILES COc1cc(CNC(=O)CCCCC/C=C/C(C)C)ccc1O
REMARK SMILES IDX 11 1 10 2 8 3 7 4 9 6 6 7 5 8 3 9 22 10 4 11 21 12 20 13
REMARK SMILES IDX 2 14 1 15 23 16 12 18 13 19 14 20 15 21 16 22 17 23 18 24
REMARK SMILES IDX 19 25
REMARK H PARENT 7 5 23 17
REMARK Flexibility Score: inf
ROOT
ATOM      1  C   UNL     1      74.189  89.178  70.013  1.00  0.00     0.010 C 
ENDROOT
BRANCH   1   2
ATOM      2  C   UNL     1      73.679  88.035  69.097  1.00  0.00     0.100 C 
BRANCH   2   3
ATOM      3  C   UNL     1      72.228  88.078  68.836  1.00  0.00     0.220 C 
ATOM      4  N   UNL     1      71.562  86.932  68.522  1.00  0.00    -0.352 N 
ATOM      5  H   UNL     1      72.151  86.118  68.417  1.00  0.00     0.163 HD
ATOM      6  O   UNL     1      71.633  89.175  68.953  1.00  0.00    -0.275 OA
BRANCH   4   7
ATOM      7  C   UNL     1      70.151  86.816  68.342  1.00  0.00     0.151 C 
BRANCH   7   8
ATOM      8  C   UNL     1      69.452  86.369  69.575  1.00  0.00    -0.025 A 
ATOM      9  C   UNL     1      68.026  86.859  71.518  1.00  0.00     0.160 A 
ATOM     10  C   UNL     1      68.165  85.523  71.955  1.00  0.00     0.157 A 
ATOM     11  C   UNL     1      68.677  87.273  70.338  1.00  0.00     0.056 A 
ATOM     12  C   UNL     1      68.920  84.611  71.195  1.00  0.00     0.050 A 
ATOM     13  C   UNL     1      69.550  85.028  70.008  1.00  0.00     0.009 A 
BRANCH   9  14
ATOM     14  O   UNL     1      67.222  87.731  72.202  1.00  0.00    -0.493 OA
ATOM     15  C   UNL     1      65.978  88.024  71.545  1.00  0.00     0.278 C 
ENDBRANCH   9  14
BRANCH  10  16
ATOM     16  O   UNL     1      67.579  85.092  73.100  1.00  0.00    -0.504 OA
ATOM     17  H   UNL     1      68.121  84.406  73.497  1.00  0.00     0.293 HD
ENDBRANCH  10  16
ENDBRANCH   7   8
ENDBRANCH   4   7
ENDBRANCH   2   3
ENDBRANCH   1   2
BRANCH   1  18
ATOM     18  C   UNL     1      75.381  89.925  69.363  1.00  0.00     0.001 C 
BRANCH  18  19
ATOM     19  C   UNL     1      75.834  89.320  68.010  1.00  0.00     0.004 C 
BRANCH  19  20
ATOM     20  C   UNL     1      77.245  88.678  68.121  1.00  0.00     0.027 C 
BRANCH  20  21
ATOM     21  C   UNL     1      77.231  87.226  68.090  1.00  0.00    -0.031 C 
ATOM     22  C   UNL     1      76.896  86.487  69.163  1.00  0.00    -0.028 C 
BRANCH  22  23
ATOM     23  C   UNL     1      76.867  85.027  69.163  1.00  0.00     0.005 C 
ATOM     24  C   UNL     1      75.799  84.510  70.163  1.00  0.00     0.012 C 
ATOM     25  C   UNL     1      76.633  84.494  67.723  1.00  0.00     0.012 C 
ENDBRANCH  22  23
ENDBRANCH  20  21
ENDBRANCH  19  20
ENDBRANCH  18  19
ENDBRANCH   1  18
TORSDOF 11
ENDMDL
MODEL 8
REMARK VINA RESULT:    -5.486     28.210     31.281
REMARK INTER + INTRA:          -9.693
REMARK INTER:                  -7.579
REMARK INTRA:                  -2.114
REMARK UNBOUND:                -0.839
REMARK SMILES COc1cc(CNC(=O)CCCCC/C=C/C(C)C)ccc1O
REMARK SMILES IDX 11 1 10 2 8 3 7 4 9 6 6 7 5 8 3 9 22 10 4 11 21 12 20 13
REMARK SMILES IDX 2 14 1 15 23 16 12 18 13 19 14 20 15 21 16 22 17 23 18 24
REMARK SMILES IDX 19 25
REMARK H PARENT 7 5 23 17
REMARK Flexibility Score: inf
ROOT
ATOM      1  C   UNL     1      80.706  65.652  69.903  1.00  0.00     0.010 C 
ENDROOT
BRANCH   1   2
ATOM      2  C   UNL     1      81.623  64.450  70.246  1.00  0.00     0.100 C 
BRANCH   2   3
ATOM      3  C   UNL     1      83.062  64.726  70.080  1.00  0.00     0.220 C 
ATOM      4  N   UNL     1      83.579  65.910  70.511  1.00  0.00    -0.352 N 
ATOM      5  H   UNL     1      82.895  66.566  70.861  1.00  0.00     0.163 HD
ATOM      6  O   UNL     1      83.786  63.835  69.577  1.00  0.00    -0.275 OA
BRANCH   4   7
ATOM      7  C   UNL     1      84.961  66.265  70.500  1.00  0.00     0.151 C 
BRANCH   7   8
ATOM      8  C   UNL     1      85.316  67.213  71.588  1.00  0.00    -0.025 A 
ATOM      9  C   UNL     1      86.892  68.002  73.303  1.00  0.00     0.160 A 
ATOM     10  C   UNL     1      85.966  68.991  73.699  1.00  0.00     0.157 A 
ATOM     11  C   UNL     1      86.558  67.116  72.259  1.00  0.00     0.056 A 
ATOM     12  C   UNL     1      84.735  69.108  73.027  1.00  0.00     0.050 A 
ATOM     13  C   UNL     1      84.417  68.232  71.972  1.00  0.00     0.009 A 
BRANCH   9  14
ATOM     14  O   UNL     1      88.128  67.936  73.891  1.00  0.00    -0.493 OA
ATOM     15  C   UNL     1      88.330  66.768  74.704  1.00  0.00     0.278 C 
ENDBRANCH   9  14
BRANCH  10  16
ATOM     16  O   UNL     1      86.237  69.845  74.718  1.00  0.00    -0.504 OA
ATOM     17  H   UNL     1      87.164  69.772  74.956  1.00  0.00     0.293 HD
ENDBRANCH  10  16
ENDBRANCH   7   8
ENDBRANCH   4   7
ENDBRANCH   2   3
ENDBRANCH   1   2
BRANCH   1  18
ATOM     18  C   UNL     1      79.724  65.955  71.063  1.00  0.00     0.001 C 
BRANCH  18  19
ATOM     19  C   UNL     1      80.247  65.513  72.453  1.00  0.00     0.004 C 
BRANCH  19  20
ATOM     20  C   UNL     1      81.000  66.669  73.170  1.00  0.00     0.027 C 
BRANCH  20  21
ATOM     21  C   UNL     1      82.263  66.264  73.763  1.00  0.00    -0.031 C 
ATOM     22  C   UNL     1      82.523  64.989  74.101  1.00  0.00    -0.028 C 
BRANCH  22  23
ATOM     23  C   UNL     1      83.784  64.549  74.693  1.00  0.00     0.005 C 
ATOM     24  C   UNL     1      83.535  63.379  75.681  1.00  0.00     0.012 C 
ATOM     25  C   UNL     1      84.798  64.174  73.578  1.00  0.00     0.012 C 
ENDBRANCH  22  23
ENDBRANCH  20  21
ENDBRANCH  19  20
ENDBRANCH  18  19
ENDBRANCH   1  18
TORSDOF 11
ENDMDL
MODEL 9
REMARK VINA RESULT:    -5.455     19.472     24.571
REMARK INTER + INTRA:          -9.643
REMARK INTER:                  -8.838
REMARK INTRA:                  -0.804
REMARK UNBOUND:                -0.839
REMARK SMILES COc1cc(CNC(=O)CCCCC/C=C/C(C)C)ccc1O
REMARK SMILES IDX 11 1 10 2 8 3 7 4 9 6 6 7 5 8 3 9 22 10 4 11 21 12 20 13
REMARK SMILES IDX 2 14 1 15 23 16 12 18 13 19 14 20 15 21 16 22 17 23 18 24
REMARK SMILES IDX 19 25
REMARK H PARENT 7 5 23 17
REMARK Flexibility Score: inf
ROOT
ATOM      1  C   UNL     1      92.126  74.736  69.660  1.00  0.00     0.010 C 
ENDROOT
BRANCH   1   2
ATOM      2  C   UNL     1      91.670  74.641  68.181  1.00  0.00     0.100 C 
BRANCH   2   3
ATOM      3  C   UNL     1      90.452  73.833  67.980  1.00  0.00     0.220 C 
ATOM      4  N   UNL     1      90.169  72.810  68.832  1.00  0.00    -0.352 N 
ATOM      5  H   UNL     1      90.882  72.628  69.525  1.00  0.00     0.163 HD
ATOM      6  O   UNL     1      89.681  74.142  67.041  1.00  0.00    -0.275 OA
BRANCH   4   7
ATOM      7  C   UNL     1      88.983  72.016  68.810  1.00  0.00     0.151 C 
BRANCH   7   8
ATOM      8  C   UNL     1      88.797  71.232  70.059  1.00  0.00    -0.025 A 
ATOM      9  C   UNL     1      87.372  69.880  71.539  1.00  0.00     0.160 A 
ATOM     10  C   UNL     1      88.431  69.784  72.468  1.00  0.00     0.157 A 
ATOM     11  C   UNL     1      87.559  70.610  70.348  1.00  0.00     0.056 A 
ATOM     12  C   UNL     1      89.671  70.384  72.184  1.00  0.00     0.050 A 
ATOM     13  C   UNL     1      89.856  71.094  70.983  1.00  0.00     0.009 A 
BRANCH   9  14
ATOM     14  O   UNL     1      86.190  69.227  71.766  1.00  0.00    -0.493 OA
ATOM     15  C   UNL     1      85.164  70.051  72.345  1.00  0.00     0.278 C 
ENDBRANCH   9  14
BRANCH  10  16
ATOM     16  O   UNL     1      88.282  69.115  73.639  1.00  0.00    -0.504 OA
ATOM     17  H   UNL     1      88.354  69.733  74.371  1.00  0.00     0.293 HD
ENDBRANCH  10  16
ENDBRANCH   7   8
ENDBRANCH   4   7
ENDBRANCH   2   3
ENDBRANCH   1   2
BRANCH   1  18
ATOM     18  C   UNL     1      92.537  76.186  70.026  1.00  0.00     0.001 C 
BRANCH  18  19
ATOM     19  C   UNL     1      92.744  76.410  71.545  1.00  0.00     0.004 C 
BRANCH  19  20
ATOM     20  C   UNL     1      92.339  77.850  71.966  1.00  0.00     0.027 C 
BRANCH  20  21
ATOM     21  C   UNL     1      91.933  77.961  73.357  1.00  0.00    -0.031 C 
ATOM     22  C   UNL     1      91.725  76.882  74.133  1.00  0.00    -0.028 C 
BRANCH  22  23
ATOM     23  C   UNL     1      91.323  76.960  75.535  1.00  0.00     0.005 C 
ATOM     24  C   UNL     1      91.630  78.369  76.106  1.00  0.00     0.012 C 
ATOM     25  C   UNL     1      89.826  76.576  75.685  1.00  0.00     0.012 C 
ENDBRANCH  22  23
ENDBRANCH  20  21
ENDBRANCH  19  20
ENDBRANCH  18  19
ENDBRANCH   1  18
TORSDOF 11
ENDMDL
MODEL 10
REMARK VINA RESULT:    -5.427     11.852     15.106
REMARK INTER + INTRA:          -9.597
REMARK INTER:                  -8.928
REMARK INTRA:                  -0.669
REMARK UNBOUND:                -0.839
REMARK SMILES COc1cc(CNC(=O)CCCCC/C=C/C(C)C)ccc1O
REMARK SMILES IDX 11 1 10 2 8 3 7 4 9 6 6 7 5 8 3 9 22 10 4 11 21 12 20 13
REMARK SMILES IDX 2 14 1 15 23 16 12 18 13 19 14 20 15 21 16 22 17 23 18 24
REMARK SMILES IDX 19 25
REMARK H PARENT 7 5 23 17
REMARK Flexibility Score: inf
ROOT
ATOM      1  C   UNL     1      93.845  87.232  89.433  1.00  0.00     0.010 C 
ENDROOT
BRANCH   1   2
ATOM      2  C   UNL     1      93.179  86.564  88.202  1.00  0.00     0.100 C 
BRANCH   2   3
ATOM      3  C   UNL     1      93.654  85.195  87.932  1.00  0.00     0.220 C 
ATOM      4  N   UNL     1      93.327  84.582  86.760  1.00  0.00    -0.352 N 
ATOM      5  H   UNL     1      92.697  85.109  86.171  1.00  0.00     0.163 HD
ATOM      6  O   UNL     1      94.389  84.641  88.783  1.00  0.00    -0.275 OA
BRANCH   4   7
ATOM      7  C   UNL     1      93.797  83.305  86.333  1.00  0.00     0.151 C 
BRANCH   7   8
ATOM      8  C   UNL     1      94.640  83.385  85.112  1.00  0.00    -0.025 A 
ATOM      9  C   UNL     1      95.814  82.286  83.251  1.00  0.00     0.160 A 
ATOM     10  C   UNL     1      96.294  83.540  82.815  1.00  0.00     0.157 A 
ATOM     11  C   UNL     1      94.999  82.217  84.399  1.00  0.00     0.056 A 
ATOM     12  C   UNL     1      95.929  84.710  83.506  1.00  0.00     0.050 A 
ATOM     13  C   UNL     1      95.100  84.634  84.640  1.00  0.00     0.009 A 
BRANCH   9  14
ATOM     14  O   UNL     1      96.090  81.151  82.535  1.00  0.00    -0.493 OA
ATOM     15  C   UNL     1      96.225  79.968  83.339  1.00  0.00     0.278 C 
ENDBRANCH   9  14
BRANCH  10  16
ATOM     16  O   UNL     1      97.103  83.647  81.731  1.00  0.00    -0.504 OA
ATOM     17  H   UNL     1      98.007  83.790  82.020  1.00  0.00     0.293 HD
ENDBRANCH  10  16
ENDBRANCH   7   8
ENDBRANCH   4   7
ENDBRANCH   2   3
ENDBRANCH   1   2
BRANCH   1  18
ATOM     18  C   UNL     1      94.146  88.729  89.162  1.00  0.00     0.001 C 
BRANCH  18  19
ATOM     19  C   UNL     1      94.524  89.032  87.690  1.00  0.00     0.004 C 
BRANCH  19  20
ATOM     20  C   UNL     1      94.393  90.548  87.373  1.00  0.00     0.027 C 
BRANCH  20  21
ATOM     21  C   UNL     1      94.691  91.410  88.504  1.00  0.00    -0.031 C 
ATOM     22  C   UNL     1      93.736  92.104  89.150  1.00  0.00    -0.028 C 
BRANCH  22  23
ATOM     23  C   UNL     1      94.001  92.974  90.293  1.00  0.00     0.005 C 
ATOM     24  C   UNL     1      95.359  93.703  90.110  1.00  0.00     0.012 C 
ATOM     25  C   UNL     1      92.823  93.964  90.499  1.00  0.00     0.012 C 
ENDBRANCH  22  23
ENDBRANCH  20  21
ENDBRANCH  19  20
ENDBRANCH  18  19
ENDBRANCH   1  18
TORSDOF 11
ENDMDL
