MODEL 1
REMARK VINA RESULT:    -6.634      0.000      0.000
REMARK INTER + INTRA:         -11.480
REMARK INTER:                 -10.705
REMARK INTRA:                  -0.774
REMARK UNBOUND:                -0.774
REMARK SMILES CCCCCCCCC(=O)NCc1ccc(O)c(OC)c1
REMARK SMILES IDX 7 1 6 2 5 3 4 4 3 5 2 6 1 7 8 8 9 9 10 10 11 11 12 13 13 14
REMARK SMILES IDX 21 15 14 16 18 17 15 18 16 19 19 20 20 21 17 22
REMARK H PARENT 11 12 17 23
REMARK Flexibility Score: inf
ROOT
ATOM      1  C   UNL     1      92.888  94.019  75.031  1.00  0.00     0.010 C 
ENDROOT
BRANCH   1   2
ATOM      2  C   UNL     1      94.404  93.848  75.339  1.00  0.00     0.001 C 
BRANCH   2   3
ATOM      3  C   UNL     1      94.853  94.685  76.573  1.00  0.00     0.000 C 
BRANCH   3   4
ATOM      4  C   UNL     1      95.785  93.912  77.549  1.00  0.00    -0.000 C 
BRANCH   4   5
ATOM      5  C   UNL     1      96.199  94.763  78.783  1.00  0.00    -0.000 C 
BRANCH   5   6
ATOM      6  C   UNL     1      95.522  94.282  80.094  1.00  0.00    -0.003 C 
ATOM      7  C   UNL     1      95.281  95.428  81.101  1.00  0.00     0.004 C 
ENDBRANCH   5   6
ENDBRANCH   4   5
ENDBRANCH   3   4
ENDBRANCH   2   3
ENDBRANCH   1   2
BRANCH   1   8
ATOM      8  C   UNL     1      92.128  94.882  76.077  1.00  0.00     0.100 C 
BRANCH   8   9
ATOM      9  C   UNL     1      90.878  94.218  76.518  1.00  0.00     0.220 C 
ATOM     10  O   UNL     1      89.782  94.707  76.150  1.00  0.00    -0.275 OA
ATOM     11  N   UNL     1      90.925  93.087  77.281  1.00  0.00    -0.352 N 
ATOM     12  H   UNL     1      91.851  92.831  77.591  1.00  0.00     0.163 HD
BRANCH  11  13
ATOM     13  C   UNL     1      89.802  92.280  77.649  1.00  0.00     0.151 C 
BRANCH  13  14
ATOM     14  C   UNL     1      89.728  90.985  76.921  1.00  0.00    -0.025 A 
ATOM     15  C   UNL     1      89.282  90.947  75.578  1.00  0.00     0.056 A 
ATOM     16  C   UNL     1      90.094  89.774  77.553  1.00  0.00     0.009 A 
ATOM     17  C   UNL     1      89.223  89.726  74.868  1.00  0.00     0.160 A 
ATOM     18  C   UNL     1      90.038  88.556  76.851  1.00  0.00     0.050 A 
ATOM     19  C   UNL     1      89.597  88.527  75.514  1.00  0.00     0.157 A 
BRANCH  17  20
ATOM     20  O   UNL     1      88.751  89.686  73.580  1.00  0.00    -0.493 OA
ATOM     21  C   UNL     1      87.653  90.581  73.327  1.00  0.00     0.278 C 
ENDBRANCH  17  20
BRANCH  19  22
ATOM     22  O   UNL     1      89.520  87.343  74.854  1.00  0.00    -0.504 OA
ATOM     23  H   UNL     1      90.340  87.187  74.380  1.00  0.00     0.293 HD
ENDBRANCH  19  22
ENDBRANCH  13  14
ENDBRANCH  11  13
ENDBRANCH   8   9
ENDBRANCH   1   8
TORSDOF 11
ENDMDL
MODEL 2
REMARK VINA RESULT:    -6.380      1.889      2.801
REMARK INTER + INTRA:         -11.070
REMARK INTER:                 -10.190
REMARK INTRA:                  -0.880
REMARK UNBOUND:                -0.774
REMARK SMILES CCCCCCCCC(=O)NCc1ccc(O)c(OC)c1
REMARK SMILES IDX 7 1 6 2 5 3 4 4 3 5 2 6 1 7 8 8 9 9 10 10 11 11 12 13 13 14
REMARK SMILES IDX 21 15 14 16 18 17 15 18 16 19 19 20 20 21 17 22
REMARK H PARENT 11 12 17 23
REMARK Flexibility Score: inf
ROOT
ATOM      1  C   UNL     1      93.165  93.866  75.710  1.00  0.00     0.010 C 
ENDROOT
BRANCH   1   2
ATOM      2  C   UNL     1      94.482  93.668  76.514  1.00  0.00     0.001 C 
BRANCH   2   3
ATOM      3  C   UNL     1      95.720  94.245  75.767  1.00  0.00     0.000 C 
BRANCH   3   4
ATOM      4  C   UNL     1      95.824  95.795  75.830  1.00  0.00    -0.000 C 
BRANCH   4   5
ATOM      5  C   UNL     1      95.939  96.446  74.422  1.00  0.00    -0.000 C 
BRANCH   5   6
ATOM      6  C   UNL     1      95.246  97.833  74.349  1.00  0.00    -0.003 C 
ATOM      7  C   UNL     1      94.013  97.840  73.419  1.00  0.00     0.004 C 
ENDBRANCH   5   6
ENDBRANCH   4   5
ENDBRANCH   3   4
ENDBRANCH   2   3
ENDBRANCH   1   2
BRANCH   1   8
ATOM      8  C   UNL     1      92.085  94.690  76.466  1.00  0.00     0.100 C 
BRANCH   8   9
ATOM      9  C   UNL     1      90.925  93.845  76.840  1.00  0.00     0.220 C 
ATOM     10  O   UNL     1      89.783  94.203  76.467  1.00  0.00    -0.275 OA
ATOM     11  N   UNL     1      91.107  92.692  77.549  1.00  0.00    -0.352 N 
ATOM     12  H   UNL     1      92.052  92.545  77.872  1.00  0.00     0.163 HD
BRANCH  11  13
ATOM     13  C   UNL     1      90.095  91.726  77.848  1.00  0.00     0.151 C 
BRANCH  13  14
ATOM     14  C   UNL     1      90.235  90.455  77.089  1.00  0.00    -0.025 A 
ATOM     15  C   UNL     1      90.553  90.480  75.710  1.00  0.00     0.056 A 
ATOM     16  C   UNL     1      90.050  89.205  77.724  1.00  0.00     0.009 A 
ATOM     17  C   UNL     1      90.706  89.279  74.979  1.00  0.00     0.160 A 
ATOM     18  C   UNL     1      90.202  88.007  77.003  1.00  0.00     0.050 A 
ATOM     19  C   UNL     1      90.521  88.039  75.632  1.00  0.00     0.157 A 
BRANCH  17  20
ATOM     20  O   UNL     1      90.973  89.306  73.634  1.00  0.00    -0.493 OA
ATOM     21  C   UNL     1      89.942  89.921  72.841  1.00  0.00     0.278 C 
ENDBRANCH  17  20
BRANCH  19  22
ATOM     22  O   UNL     1      90.639  86.878  74.939  1.00  0.00    -0.504 OA
ATOM     23  H   UNL     1      91.556  86.593  74.944  1.00  0.00     0.293 HD
ENDBRANCH  19  22
ENDBRANCH  13  14
ENDBRANCH  11  13
ENDBRANCH   8   9
ENDBRANCH   1   8
TORSDOF 11
ENDMDL
MODEL 3
REMARK VINA RESULT:    -6.289      2.986      7.440
REMARK INTER + INTRA:         -10.924
REMARK INTER:                  -9.614
REMARK INTRA:                  -1.310
REMARK UNBOUND:                -0.774
REMARK SMILES CCCCCCCCC(=O)NCc1ccc(O)c(OC)c1
REMARK SMILES IDX 7 1 6 2 5 3 4 4 3 5 2 6 1 7 8 8 9 9 10 10 11 11 12 13 13 14
REMARK SMILES IDX 21 15 14 16 18 17 15 18 16 19 19 20 20 21 17 22
REMARK H PARENT 11 12 17 23
REMARK Flexibility Score: inf
ROOT
ATOM      1  C   UNL     1      90.404  90.606  73.494  1.00  0.00     0.010 C 
ENDROOT
BRANCH   1   2
ATOM      2  C   UNL     1      90.107  89.204  74.099  1.00  0.00     0.001 C 
BRANCH   2   3
ATOM      3  C   UNL     1      89.108  89.276  75.291  1.00  0.00     0.000 C 
BRANCH   3   4
ATOM      4  C   UNL     1      89.137  90.632  76.052  1.00  0.00    -0.000 C 
BRANCH   4   5
ATOM      5  C   UNL     1      90.137  90.630  77.243  1.00  0.00    -0.000 C 
BRANCH   5   6
ATOM      6  C   UNL     1      90.645  92.054  77.597  1.00  0.00    -0.003 C 
ATOM      7  C   UNL     1      89.716  93.170  77.071  1.00  0.00     0.004 C 
ENDBRANCH   5   6
ENDBRANCH   4   5
ENDBRANCH   3   4
ENDBRANCH   2   3
ENDBRANCH   1   2
BRANCH   1   8
ATOM      8  C   UNL     1      91.851  91.111  73.758  1.00  0.00     0.100 C 
BRANCH   8   9
ATOM      9  C   UNL     1      91.869  92.562  74.060  1.00  0.00     0.220 C 
ATOM     10  O   UNL     1      90.959  93.281  73.582  1.00  0.00    -0.275 OA
ATOM     11  N   UNL     1      92.838  93.091  74.863  1.00  0.00    -0.352 N 
ATOM     12  H   UNL     1      93.567  92.442  75.121  1.00  0.00     0.163 HD
BRANCH  11  13
ATOM     13  C   UNL     1      92.884  94.440  75.341  1.00  0.00     0.151 C 
BRANCH  13  14
ATOM     14  C   UNL     1      93.995  94.702  76.295  1.00  0.00    -0.025 A 
ATOM     15  C   UNL     1      95.152  95.396  75.867  1.00  0.00     0.056 A 
ATOM     16  C   UNL     1      93.918  94.264  77.637  1.00  0.00     0.009 A 
ATOM     17  C   UNL     1      96.208  95.668  76.767  1.00  0.00     0.160 A 
ATOM     18  C   UNL     1      94.965  94.532  78.537  1.00  0.00     0.050 A 
ATOM     19  C   UNL     1      96.112  95.226  78.106  1.00  0.00     0.157 A 
BRANCH  17  20
ATOM     20  O   UNL     1      97.347  96.303  76.341  1.00  0.00    -0.493 OA
ATOM     21  C   UNL     1      97.201  96.995  75.088  1.00  0.00     0.278 C 
ENDBRANCH  17  20
BRANCH  19  22
ATOM     22  O   UNL     1      97.129  95.456  78.976  1.00  0.00    -0.504 OA
ATOM     23  H   UNL     1      97.763  94.737  78.925  1.00  0.00     0.293 HD
ENDBRANCH  19  22
ENDBRANCH  13  14
ENDBRANCH  11  13
ENDBRANCH   8   9
ENDBRANCH   1   8
TORSDOF 11
ENDMDL
MODEL 4
REMARK VINA RESULT:    -5.837     14.255     16.611
REMARK INTER + INTRA:         -10.194
REMARK INTER:                  -8.288
REMARK INTRA:                  -1.905
REMARK UNBOUND:                -0.774
REMARK SMILES CCCCCCCCC(=O)NCc1ccc(O)c(OC)c1
REMARK SMILES IDX 7 1 6 2 5 3 4 4 3 5 2 6 1 7 8 8 9 9 10 10 11 11 12 13 13 14
REMARK SMILES IDX 21 15 14 16 18 17 15 18 16 19 19 20 20 21 17 22
REMARK H PARENT 11 12 17 23
REMARK Flexibility Score: inf
ROOT
ATOM      1  C   UNL     1      80.535  87.864  83.594  1.00  0.00     0.010 C 
ENDROOT
BRANCH   1   2
ATOM      2  C   UNL     1      79.471  88.614  84.445  1.00  0.00     0.001 C 
BRANCH   2   3
ATOM      3  C   UNL     1      80.040  89.913  85.088  1.00  0.00     0.000 C 
BRANCH   3   4
ATOM      4  C   UNL     1      80.467  89.743  86.573  1.00  0.00    -0.000 C 
BRANCH   4   5
ATOM      5  C   UNL     1      81.689  90.627  86.952  1.00  0.00    -0.000 C 
BRANCH   5   6
ATOM      6  C   UNL     1      83.044  89.920  86.678  1.00  0.00    -0.003 C 
ATOM      7  C   UNL     1      83.639  90.277  85.298  1.00  0.00     0.004 C 
ENDBRANCH   5   6
ENDBRANCH   4   5
ENDBRANCH   3   4
ENDBRANCH   2   3
ENDBRANCH   1   2
BRANCH   1   8
ATOM      8  C   UNL     1      80.803  86.406  84.062  1.00  0.00     0.100 C 
BRANCH   8   9
ATOM      9  C   UNL     1      81.581  86.379  85.324  1.00  0.00     0.220 C 
ATOM     10  O   UNL     1      82.748  86.840  85.314  1.00  0.00    -0.275 OA
ATOM     11  N   UNL     1      81.025  85.891  86.472  1.00  0.00    -0.352 N 
ATOM     12  H   UNL     1      80.117  85.468  86.349  1.00  0.00     0.163 HD
BRANCH  11  13
ATOM     13  C   UNL     1      81.617  85.940  87.774  1.00  0.00     0.151 C 
BRANCH  13  14
ATOM     14  C   UNL     1      80.952  86.894  88.701  1.00  0.00    -0.025 A 
ATOM     15  C   UNL     1      81.728  87.734  89.536  1.00  0.00     0.056 A 
ATOM     16  C   UNL     1      79.542  86.976  88.770  1.00  0.00     0.009 A 
ATOM     17  C   UNL     1      81.109  88.657  90.410  1.00  0.00     0.160 A 
ATOM     18  C   UNL     1      78.922  87.893  89.637  1.00  0.00     0.050 A 
ATOM     19  C   UNL     1      79.699  88.728  90.463  1.00  0.00     0.157 A 
BRANCH  17  20
ATOM     20  O   UNL     1      81.862  89.441  91.248  1.00  0.00    -0.493 OA
ATOM     21  C   UNL     1      82.418  90.610  90.621  1.00  0.00     0.278 C 
ENDBRANCH  17  20
BRANCH  19  22
ATOM     22  O   UNL     1      79.090  89.591  91.316  1.00  0.00    -0.504 OA
ATOM     23  H   UNL     1      78.720  89.102  92.055  1.00  0.00     0.293 HD
ENDBRANCH  19  22
ENDBRANCH  13  14
ENDBRANCH  11  13
ENDBRANCH   8   9
ENDBRANCH   1   8
TORSDOF 11
ENDMDL
MODEL 5
REMARK VINA RESULT:    -5.625      3.092      8.430
REMARK INTER + INTRA:          -9.851
REMARK INTER:                  -9.126
REMARK INTRA:                  -0.725
REMARK UNBOUND:                -0.774
REMARK SMILES CCCCCCCCC(=O)NCc1ccc(O)c(OC)c1
REMARK SMILES IDX 7 1 6 2 5 3 4 4 3 5 2 6 1 7 8 8 9 9 10 10 11 11 12 13 13 14
REMARK SMILES IDX 21 15 14 16 18 17 15 18 16 19 19 20 20 21 17 22
REMARK H PARENT 11 12 17 23
REMARK Flexibility Score: inf
ROOT
ATOM      1  C   UNL     1      89.584  92.722  76.334  1.00  0.00     0.010 C 
ENDROOT
BRANCH   1   2
ATOM      2  C   UNL     1      89.209  91.255  76.692  1.00  0.00     0.001 C 
BRANCH   2   3
ATOM      3  C   UNL     1      89.204  90.327  75.441  1.00  0.00     0.000 C 
BRANCH   3   4
ATOM      4  C   UNL     1      89.237  91.095  74.090  1.00  0.00    -0.000 C 
BRANCH   4   5
ATOM      5  C   UNL     1      88.345  90.433  73.001  1.00  0.00    -0.000 C 
BRANCH   5   6
ATOM      6  C   UNL     1      88.931  90.594  71.572  1.00  0.00    -0.003 C 
ATOM      7  C   UNL     1      90.320  91.269  71.566  1.00  0.00     0.004 C 
ENDBRANCH   5   6
ENDBRANCH   4   5
ENDBRANCH   3   4
ENDBRANCH   2   3
ENDBRANCH   1   2
BRANCH   1   8
ATOM      8  C   UNL     1      90.760  93.293  77.174  1.00  0.00     0.100 C 
BRANCH   8   9
ATOM      9  C   UNL     1      92.016  93.336  76.385  1.00  0.00     0.220 C 
ATOM     10  O   UNL     1      92.457  92.262  75.910  1.00  0.00    -0.275 OA
ATOM     11  N   UNL     1      92.655  94.522  76.162  1.00  0.00    -0.352 N 
ATOM     12  H   UNL     1      92.263  95.308  76.661  1.00  0.00     0.163 HD
BRANCH  11  13
ATOM     13  C   UNL     1      93.786  94.714  75.307  1.00  0.00     0.151 C 
BRANCH  13  14
ATOM     14  C   UNL     1      95.037  95.057  76.033  1.00  0.00    -0.025 A 
ATOM     15  C   UNL     1      95.128  94.855  77.431  1.00  0.00     0.056 A 
ATOM     16  C   UNL     1      96.152  95.593  75.348  1.00  0.00     0.009 A 
ATOM     17  C   UNL     1      96.317  95.161  78.132  1.00  0.00     0.160 A 
ATOM     18  C   UNL     1      97.338  95.898  76.039  1.00  0.00     0.050 A 
ATOM     19  C   UNL     1      97.422  95.691  77.429  1.00  0.00     0.157 A 
BRANCH  17  20
ATOM     20  O   UNL     1      96.389  95.003  79.494  1.00  0.00    -0.493 OA
ATOM     21  C   UNL     1      95.635  93.887  79.998  1.00  0.00     0.278 C 
ENDBRANCH  17  20
BRANCH  19  22
ATOM     22  O   UNL     1      98.562  96.015  78.092  1.00  0.00    -0.504 OA
ATOM     23  H   UNL     1      98.501  96.919  78.411  1.00  0.00     0.293 HD
ENDBRANCH  19  22
ENDBRANCH  13  14
ENDBRANCH  11  13
ENDBRANCH   8   9
ENDBRANCH   1   8
TORSDOF 11
ENDMDL
MODEL 6
REMARK VINA RESULT:    -5.343     11.908     14.011
REMARK INTER + INTRA:          -9.397
REMARK INTER:                  -8.786
REMARK INTRA:                  -0.611
REMARK UNBOUND:                -0.774
REMARK SMILES CCCCCCCCC(=O)NCc1ccc(O)c(OC)c1
REMARK SMILES IDX 7 1 6 2 5 3 4 4 3 5 2 6 1 7 8 8 9 9 10 10 11 11 12 13 13 14
REMARK SMILES IDX 21 15 14 16 18 17 15 18 16 19 19 20 20 21 17 22
REMARK H PARENT 11 12 17 23
REMARK Flexibility Score: inf
ROOT
ATOM      1  C   UNL     1      96.486  80.889  83.517  1.00  0.00     0.010 C 
ENDROOT
BRANCH   1   2
ATOM      2  C   UNL     1      97.033  80.941  82.061  1.00  0.00     0.001 C 
BRANCH   2   3
ATOM      3  C   UNL     1      97.786  82.270  81.762  1.00  0.00     0.000 C 
BRANCH   3   4
ATOM      4  C   UNL     1      97.999  82.542  80.246  1.00  0.00    -0.000 C 
BRANCH   4   5
ATOM      5  C   UNL     1      96.666  82.552  79.444  1.00  0.00    -0.000 C 
BRANCH   5   6
ATOM      6  C   UNL     1      96.862  82.149  77.958  1.00  0.00    -0.003 C 
ATOM      7  C   UNL     1      97.076  83.365  77.030  1.00  0.00     0.004 C 
ENDBRANCH   5   6
ENDBRANCH   4   5
ENDBRANCH   3   4
ENDBRANCH   2   3
ENDBRANCH   1   2
BRANCH   1   8
ATOM      8  C   UNL     1      95.704  82.163  83.941  1.00  0.00     0.100 C 
BRANCH   8   9
ATOM      9  C   UNL     1      94.701  81.857  84.989  1.00  0.00     0.220 C 
ATOM     10  O   UNL     1      95.105  81.403  86.086  1.00  0.00    -0.275 OA
ATOM     11  N   UNL     1      93.374  82.093  84.769  1.00  0.00    -0.352 N 
ATOM     12  H   UNL     1      93.150  82.375  83.826  1.00  0.00     0.163 HD
BRANCH  11  13
ATOM     13  C   UNL     1      92.331  81.973  85.743  1.00  0.00     0.151 C 
BRANCH  13  14
ATOM     14  C   UNL     1      91.378  80.865  85.469  1.00  0.00    -0.025 A 
ATOM     15  C   UNL     1      89.987  81.121  85.408  1.00  0.00     0.056 A 
ATOM     16  C   UNL     1      91.838  79.543  85.270  1.00  0.00     0.009 A 
ATOM     17  C   UNL     1      89.070  80.081  85.132  1.00  0.00     0.160 A 
ATOM     18  C   UNL     1      90.931  78.504  84.994  1.00  0.00     0.050 A 
ATOM     19  C   UNL     1      89.549  78.766  84.932  1.00  0.00     0.157 A 
BRANCH  17  20
ATOM     20  O   UNL     1      87.719  80.323  85.114  1.00  0.00    -0.493 OA
ATOM     21  C   UNL     1      87.241  80.902  83.888  1.00  0.00     0.278 C 
ENDBRANCH  17  20
BRANCH  19  22
ATOM     22  O   UNL     1      88.679  77.752  84.692  1.00  0.00    -0.504 OA
ATOM     23  H   UNL     1      88.019  77.724  85.389  1.00  0.00     0.293 HD
ENDBRANCH  19  22
ENDBRANCH  13  14
ENDBRANCH  11  13
ENDBRANCH   8   9
ENDBRANCH   1   8
TORSDOF 11
ENDMDL
MODEL 7
REMARK VINA RESULT:    -5.296     12.920     15.966
REMARK INTER + INTRA:          -9.322
REMARK INTER:                  -8.395
REMARK INTRA:                  -0.927
REMARK UNBOUND:                -0.774
REMARK SMILES CCCCCCCCC(=O)NCc1ccc(O)c(OC)c1
REMARK SMILES IDX 7 1 6 2 5 3 4 4 3 5 2 6 1 7 8 8 9 9 10 10 11 11 12 13 13 14
REMARK SMILES IDX 21 15 14 16 18 17 15 18 16 19 19 20 20 21 17 22
REMARK H PARENT 11 12 17 23
REMARK Flexibility Score: inf
ROOT
ATOM      1  C   UNL     1      83.505  89.574  85.121  1.00  0.00     0.010 C 
ENDROOT
BRANCH   1   2
ATOM      2  C   UNL     1      82.990  88.201  85.642  1.00  0.00     0.001 C 
BRANCH   2   3
ATOM      3  C   UNL     1      81.598  88.317  86.330  1.00  0.00     0.000 C 
BRANCH   3   4
ATOM      4  C   UNL     1      80.622  89.289  85.610  1.00  0.00    -0.000 C 
BRANCH   4   5
ATOM      5  C   UNL     1      79.630  88.553  84.664  1.00  0.00    -0.000 C 
BRANCH   5   6
ATOM      6  C   UNL     1      80.296  88.105  83.336  1.00  0.00    -0.003 C 
ATOM      7  C   UNL     1      80.526  86.579  83.264  1.00  0.00     0.004 C 
ENDBRANCH   5   6
ENDBRANCH   4   5
ENDBRANCH   3   4
ENDBRANCH   2   3
ENDBRANCH   1   2
BRANCH   1   8
ATOM      8  C   UNL     1      84.607  90.211  86.012  1.00  0.00     0.100 C 
BRANCH   8   9
ATOM      9  C   UNL     1      84.042  90.734  87.279  1.00  0.00     0.220 C 
ATOM     10  O   UNL     1      84.344  90.153  88.350  1.00  0.00    -0.275 OA
ATOM     11  N   UNL     1      83.237  91.837  87.277  1.00  0.00    -0.352 N 
ATOM     12  H   UNL     1      82.989  92.171  86.358  1.00  0.00     0.163 HD
BRANCH  11  13
ATOM     13  C   UNL     1      82.748  92.516  88.438  1.00  0.00     0.151 C 
BRANCH  13  14
ATOM     14  C   UNL     1      82.795  93.999  88.331  1.00  0.00    -0.025 A 
ATOM     15  C   UNL     1      81.918  94.798  89.103  1.00  0.00     0.056 A 
ATOM     16  C   UNL     1      83.709  94.636  87.459  1.00  0.00     0.009 A 
ATOM     17  C   UNL     1      81.964  96.209  89.025  1.00  0.00     0.160 A 
ATOM     18  C   UNL     1      83.760  96.039  87.377  1.00  0.00     0.050 A 
ATOM     19  C   UNL     1      82.886  96.827  88.151  1.00  0.00     0.157 A 
BRANCH  17  20
ATOM     20  O   UNL     1      81.085  96.980  89.743  1.00  0.00    -0.493 OA
ATOM     21  C   UNL     1      79.750  97.004  89.208  1.00  0.00     0.278 C 
ENDBRANCH  17  20
BRANCH  19  22
ATOM     22  O   UNL     1      82.925  98.180  88.045  1.00  0.00    -0.504 OA
ATOM     23  H   UNL     1      82.477  98.451  87.239  1.00  0.00     0.293 HD
ENDBRANCH  19  22
ENDBRANCH  13  14
ENDBRANCH  11  13
ENDBRANCH   8   9
ENDBRANCH   1   8
TORSDOF 11
ENDMDL
MODEL 8
REMARK VINA RESULT:    -5.090     25.720     28.138
REMARK INTER + INTRA:          -8.989
REMARK INTER:                  -7.085
REMARK INTRA:                  -1.904
REMARK UNBOUND:                -0.774
REMARK SMILES CCCCCCCCC(=O)NCc1ccc(O)c(OC)c1
REMARK SMILES IDX 7 1 6 2 5 3 4 4 3 5 2 6 1 7 8 8 9 9 10 10 11 11 12 13 13 14
REMARK SMILES IDX 21 15 14 16 18 17 15 18 16 19 19 20 20 21 17 22
REMARK H PARENT 11 12 17 23
REMARK Flexibility Score: inf
ROOT
ATOM      1  C   UNL     1      81.457  65.587  71.993  1.00  0.00     0.010 C 
ENDROOT
BRANCH   1   2
ATOM      2  C   UNL     1      80.160  65.219  72.768  1.00  0.00     0.001 C 
BRANCH   2   3
ATOM      3  C   UNL     1      80.446  64.305  73.996  1.00  0.00     0.000 C 
BRANCH   3   4
ATOM      4  C   UNL     1      81.935  63.873  74.122  1.00  0.00    -0.000 C 
BRANCH   4   5
ATOM      5  C   UNL     1      82.670  64.587  75.291  1.00  0.00    -0.000 C 
BRANCH   5   6
ATOM      6  C   UNL     1      81.691  65.142  76.361  1.00  0.00    -0.003 C 
ATOM      7  C   UNL     1      81.698  66.685  76.438  1.00  0.00     0.004 C 
ENDBRANCH   5   6
ENDBRANCH   4   5
ENDBRANCH   3   4
ENDBRANCH   2   3
ENDBRANCH   1   2
BRANCH   1   8
ATOM      8  C   UNL     1      81.971  67.027  72.272  1.00  0.00     0.100 C 
BRANCH   8   9
ATOM      9  C   UNL     1      83.367  67.015  72.773  1.00  0.00     0.220 C 
ATOM     10  O   UNL     1      84.186  66.234  72.233  1.00  0.00    -0.275 OA
ATOM     11  N   UNL     1      83.750  67.855  73.779  1.00  0.00    -0.352 N 
ATOM     12  H   UNL     1      82.994  68.376  74.199  1.00  0.00     0.163 HD
BRANCH  11  13
ATOM     13  C   UNL     1      85.089  68.037  74.251  1.00  0.00     0.151 C 
BRANCH  13  14
ATOM     14  C   UNL     1      85.404  67.262  75.481  1.00  0.00    -0.025 A 
ATOM     15  C   UNL     1      85.978  65.972  75.382  1.00  0.00     0.056 A 
ATOM     16  C   UNL     1      85.134  67.793  76.763  1.00  0.00     0.009 A 
ATOM     17  C   UNL     1      86.298  65.231  76.543  1.00  0.00     0.160 A 
ATOM     18  C   UNL     1      85.452  67.061  77.921  1.00  0.00     0.050 A 
ATOM     19  C   UNL     1      86.025  65.780  77.816  1.00  0.00     0.157 A 
BRANCH  17  20
ATOM     20  O   UNL     1      86.815  63.964  76.445  1.00  0.00    -0.493 OA
ATOM     21  C   UNL     1      85.829  62.940  76.225  1.00  0.00     0.278 C 
ENDBRANCH  17  20
BRANCH  19  22
ATOM     22  O   UNL     1      86.303  65.070  78.939  1.00  0.00    -0.504 OA
ATOM     23  H   UNL     1      86.410  65.671  79.680  1.00  0.00     0.293 HD
ENDBRANCH  19  22
ENDBRANCH  13  14
ENDBRANCH  11  13
ENDBRANCH   8   9
ENDBRANCH   1   8
TORSDOF 11
ENDMDL
MODEL 9
REMARK VINA RESULT:    -5.001     13.562     16.028
REMARK INTER + INTRA:          -8.846
REMARK INTER:                  -7.529
REMARK INTRA:                  -1.317
REMARK UNBOUND:                -0.774
REMARK SMILES CCCCCCCCC(=O)NCc1ccc(O)c(OC)c1
REMARK SMILES IDX 7 1 6 2 5 3 4 4 3 5 2 6 1 7 8 8 9 9 10 10 11 11 12 13 13 14
REMARK SMILES IDX 21 15 14 16 18 17 15 18 16 19 19 20 20 21 17 22
REMARK H PARENT 11 12 17 23
REMARK Flexibility Score: inf
ROOT
ATOM      1  C   UNL     1      82.786  89.404  84.789  1.00  0.00     0.010 C 
ENDROOT
BRANCH   1   2
ATOM      2  C   UNL     1      83.204  88.070  85.472  1.00  0.00     0.001 C 
BRANCH   2   3
ATOM      3  C   UNL     1      82.182  87.620  86.557  1.00  0.00     0.000 C 
BRANCH   3   4
ATOM      4  C   UNL     1      80.863  87.038  85.974  1.00  0.00    -0.000 C 
BRANCH   4   5
ATOM      5  C   UNL     1      81.110  86.068  84.783  1.00  0.00    -0.000 C 
BRANCH   5   6
ATOM      6  C   UNL     1      80.464  86.569  83.463  1.00  0.00    -0.003 C 
ATOM      7  C   UNL     1      79.747  87.928  83.624  1.00  0.00     0.004 C 
ENDBRANCH   5   6
ENDBRANCH   4   5
ENDBRANCH   3   4
ENDBRANCH   2   3
ENDBRANCH   1   2
BRANCH   1   8
ATOM      8  C   UNL     1      83.849  90.532  84.909  1.00  0.00     0.100 C 
BRANCH   8   9
ATOM      9  C   UNL     1      84.144  90.848  86.327  1.00  0.00     0.220 C 
ATOM     10  O   UNL     1      85.342  90.862  86.697  1.00  0.00    -0.275 OA
ATOM     11  N   UNL     1      83.133  91.143  87.197  1.00  0.00    -0.352 N 
ATOM     12  H   UNL     1      82.206  91.018  86.817  1.00  0.00     0.163 HD
BRANCH  11  13
ATOM     13  C   UNL     1      83.296  91.598  88.544  1.00  0.00     0.151 C 
BRANCH  13  14
ATOM     14  C   UNL     1      83.134  90.528  89.563  1.00  0.00    -0.025 A 
ATOM     15  C   UNL     1      82.224  89.466  89.343  1.00  0.00     0.056 A 
ATOM     16  C   UNL     1      83.877  90.551  90.766  1.00  0.00     0.009 A 
ATOM     17  C   UNL     1      82.072  88.432  90.296  1.00  0.00     0.160 A 
ATOM     18  C   UNL     1      83.731  89.526  91.717  1.00  0.00     0.050 A 
ATOM     19  C   UNL     1      82.827  88.471  91.490  1.00  0.00     0.157 A 
BRANCH  17  20
ATOM     20  O   UNL     1      81.159  87.427  90.100  1.00  0.00    -0.493 OA
ATOM     21  C   UNL     1      79.904  87.869  89.555  1.00  0.00     0.278 C 
ENDBRANCH  17  20
BRANCH  19  22
ATOM     22  O   UNL     1      82.673  87.500  92.427  1.00  0.00    -0.504 OA
ATOM     23  H   UNL     1      82.582  86.648  91.993  1.00  0.00     0.293 HD
ENDBRANCH  19  22
ENDBRANCH  13  14
ENDBRANCH  11  13
ENDBRANCH   8   9
ENDBRANCH   1   8
TORSDOF 11
ENDMDL
MODEL 10
REMARK VINA RESULT:    -4.828     11.826     14.071
REMARK INTER + INTRA:          -8.565
REMARK INTER:                  -7.518
REMARK INTRA:                  -1.047
REMARK UNBOUND:                -0.774
REMARK SMILES CCCCCCCCC(=O)NCc1ccc(O)c(OC)c1
REMARK SMILES IDX 7 1 6 2 5 3 4 4 3 5 2 6 1 7 8 8 9 9 10 10 11 11 12 13 13 14
REMARK SMILES IDX 21 15 14 16 18 17 15 18 16 19 19 20 20 21 17 22
REMARK H PARENT 11 12 17 23
REMARK Flexibility Score: inf
ROOT
ATOM      1  C   UNL     1      97.746  83.617  84.212  1.00  0.00     0.010 C 
ENDROOT
BRANCH   1   2
ATOM      2  C   UNL     1      96.564  83.838  85.199  1.00  0.00     0.001 C 
BRANCH   2   3
ATOM      3  C   UNL     1      96.344  82.616  86.138  1.00  0.00     0.000 C 
BRANCH   3   4
ATOM      4  C   UNL     1      94.950  81.946  85.980  1.00  0.00    -0.000 C 
BRANCH   4   5
ATOM      5  C   UNL     1      94.747  81.306  84.577  1.00  0.00    -0.000 C 
BRANCH   5   6
ATOM      6  C   UNL     1      95.088  79.791  84.558  1.00  0.00    -0.003 C 
ATOM      7  C   UNL     1      96.228  79.445  83.576  1.00  0.00     0.004 C 
ENDBRANCH   5   6
ENDBRANCH   4   5
ENDBRANCH   3   4
ENDBRANCH   2   3
ENDBRANCH   1   2
BRANCH   1   8
ATOM      8  C   UNL     1      98.667  82.423  84.590  1.00  0.00     0.100 C 
BRANCH   8   9
ATOM      9  C   UNL     1      99.133  81.697  83.384  1.00  0.00     0.220 C 
ATOM     10  O   UNL     1     100.108  80.917  83.498  1.00  0.00    -0.275 OA
ATOM     11  N   UNL     1      98.495  81.858  82.187  1.00  0.00    -0.352 N 
ATOM     12  H   UNL     1      97.781  82.572  82.187  1.00  0.00     0.163 HD
BRANCH  11  13
ATOM     13  C   UNL     1      98.757  81.114  80.993  1.00  0.00     0.151 C 
BRANCH  13  14
ATOM     14  C   UNL     1      98.318  81.800  79.749  1.00  0.00    -0.025 A 
ATOM     15  C   UNL     1      99.247  82.064  78.715  1.00  0.00     0.056 A 
ATOM     16  C   UNL     1      96.973  82.203  79.577  1.00  0.00     0.009 A 
ATOM     17  C   UNL     1      98.840  82.699  77.519  1.00  0.00     0.160 A 
ATOM     18  C   UNL     1      96.562  82.834  78.390  1.00  0.00     0.050 A 
ATOM     19  C   UNL     1      97.491  83.091  77.364  1.00  0.00     0.157 A 
BRANCH  17  20
ATOM     20  O   UNL     1      99.751  82.992  76.535  1.00  0.00    -0.493 OA
ATOM     21  C   UNL     1      99.852  81.989  75.509  1.00  0.00     0.278 C 
ENDBRANCH  17  20
BRANCH  19  22
ATOM     22  O   UNL     1      97.090  83.726  76.233  1.00  0.00    -0.504 OA
ATOM     23  H   UNL     1      96.161  83.956  76.307  1.00  0.00     0.293 HD
ENDBRANCH  19  22
ENDBRANCH  13  14
ENDBRANCH  11  13
ENDBRANCH   8   9
ENDBRANCH   1   8
TORSDOF 11
ENDMDL
