MODEL 1
REMARK VINA RESULT:    -6.166      0.000      0.000
REMARK INTER + INTRA:         -11.227
REMARK INTER:                 -10.131
REMARK INTRA:                  -1.096
REMARK UNBOUND:                -1.096
REMARK SMILES CCCCC[C@H](O)CC(=O)CCc1ccc(O)c(OC)c1
REMARK SMILES IDX 8 1 6 2 7 3 5 5 4 6 3 7 2 8 1 9 9 10 10 11 11 12 12 13 13 14
REMARK SMILES IDX 21 15 14 16 18 17 15 18 16 19 19 20 20 21 17 22
REMARK H PARENT 7 4 17 23
REMARK Flexibility Score: inf
ROOT
ATOM      1  C   UNL     1      91.140  94.219  77.818  1.00  0.00     0.107 C 
ENDROOT
BRANCH   1   2
ATOM      2  C   UNL     1      89.809  93.744  77.229  1.00  0.00     0.121 C 
BRANCH   2   3
ATOM      3  O   UNL     1      89.305  94.722  76.323  1.00  0.00    -0.393 OA
ATOM      4  H   UNL     1      88.490  94.368  75.926  1.00  0.00     0.210 HD
ENDBRANCH   2   3
BRANCH   2   5
ATOM      5  C   UNL     1      89.920  92.396  76.506  1.00  0.00     0.032 C 
BRANCH   5   6
ATOM      6  C   UNL     1      89.973  92.561  74.983  1.00  0.00     0.003 C 
BRANCH   6   7
ATOM      7  C   UNL     1      90.591  91.358  74.263  1.00  0.00    -0.000 C 
BRANCH   7   8
ATOM      8  C   UNL     1      89.638  90.172  74.125  1.00  0.00    -0.003 C 
ATOM      9  C   UNL     1      89.998  89.056  75.093  1.00  0.00     0.004 C 
ENDBRANCH   7   8
ENDBRANCH   6   7
ENDBRANCH   5   6
ENDBRANCH   2   5
ENDBRANCH   1   2
BRANCH   1  10
ATOM     10  C   UNL     1      91.825  95.274  76.965  1.00  0.00     0.135 C 
ATOM     11  O   UNL     1      91.400  96.428  76.924  1.00  0.00    -0.300 OA
BRANCH  10  12
ATOM     12  C   UNL     1      93.075  94.839  76.215  1.00  0.00     0.080 C 
BRANCH  12  13
ATOM     13  C   UNL     1      93.168  95.403  74.796  1.00  0.00     0.043 C 
BRANCH  13  14
ATOM     14  C   UNL     1      94.211  96.486  74.658  1.00  0.00    -0.044 A 
ATOM     15  C   UNL     1      94.640  96.884  73.391  1.00  0.00     0.054 A 
ATOM     16  C   UNL     1      94.746  97.088  75.797  1.00  0.00     0.008 A 
ATOM     17  C   UNL     1      95.603  97.885  73.264  1.00  0.00     0.160 A 
ATOM     18  C   UNL     1      95.710  98.090  75.670  1.00  0.00     0.050 A 
ATOM     19  C   UNL     1      96.138  98.488  74.403  1.00  0.00     0.157 A 
BRANCH  17  20
ATOM     20  O   UNL     1      96.014  98.265  72.022  1.00  0.00    -0.493 OA
ATOM     21  C   UNL     1      96.671  97.280  71.227  1.00  0.00     0.278 C 
ENDBRANCH  17  20
BRANCH  19  22
ATOM     22  O   UNL     1      97.079  99.466  74.292  1.00  0.00    -0.504 OA
ATOM     23  H   UNL     1      96.714 100.298  74.640  1.00  0.00     0.293 HD
ENDBRANCH  19  22
ENDBRANCH  13  14
ENDBRANCH  12  13
ENDBRANCH  10  12
ENDBRANCH   1  10
TORSDOF 12
ENDMDL
MODEL 2
REMARK VINA RESULT:    -6.107      2.315      7.100
REMARK INTER + INTRA:         -11.130
REMARK INTER:                  -9.487
REMARK INTRA:                  -1.642
REMARK UNBOUND:                -1.096
REMARK SMILES CCCCC[C@H](O)CC(=O)CCc1ccc(O)c(OC)c1
REMARK SMILES IDX 8 1 6 2 7 3 5 5 4 6 3 7 2 8 1 9 9 10 10 11 11 12 12 13 13 14
REMARK SMILES IDX 21 15 14 16 18 17 15 18 16 19 19 20 20 21 17 22
REMARK H PARENT 7 4 17 23
REMARK Flexibility Score: inf
ROOT
ATOM      1  C   UNL     1      95.611  98.395  76.683  1.00  0.00     0.107 C 
ENDROOT
BRANCH   1   2
ATOM      2  C   UNL     1      97.063  98.232  77.139  1.00  0.00     0.121 C 
BRANCH   2   3
ATOM      3  O   UNL     1      97.625  99.510  77.428  1.00  0.00    -0.393 OA
ATOM      4  H   UNL     1      97.185  99.856  78.224  1.00  0.00     0.210 HD
ENDBRANCH   2   3
BRANCH   2   5
ATOM      5  C   UNL     1      97.208  97.328  78.370  1.00  0.00     0.032 C 
BRANCH   5   6
ATOM      6  C   UNL     1      95.848  96.896  78.931  1.00  0.00     0.003 C 
BRANCH   6   7
ATOM      7  C   UNL     1      95.929  95.660  79.832  1.00  0.00    -0.000 C 
BRANCH   7   8
ATOM      8  C   UNL     1      95.033  94.510  79.376  1.00  0.00    -0.003 C 
ATOM      9  C   UNL     1      95.363  94.080  77.955  1.00  0.00     0.004 C 
ENDBRANCH   7   8
ENDBRANCH   6   7
ENDBRANCH   5   6
ENDBRANCH   2   5
ENDBRANCH   1   2
BRANCH   1  10
ATOM     10  C   UNL     1      95.328  97.727  75.348  1.00  0.00     0.135 C 
ATOM     11  O   UNL     1      95.901  98.094  74.322  1.00  0.00    -0.300 OA
BRANCH  10  12
ATOM     12  C   UNL     1      94.345  96.566  75.361  1.00  0.00     0.080 C 
BRANCH  12  13
ATOM     13  C   UNL     1      93.194  96.745  76.353  1.00  0.00     0.043 C 
BRANCH  13  14
ATOM     14  C   UNL     1      92.314  95.523  76.466  1.00  0.00    -0.044 A 
ATOM     15  C   UNL     1      91.963  94.808  75.322  1.00  0.00     0.054 A 
ATOM     16  C   UNL     1      91.853  95.110  77.717  1.00  0.00     0.008 A 
ATOM     17  C   UNL     1      91.151  93.678  75.428  1.00  0.00     0.160 A 
ATOM     18  C   UNL     1      91.041  93.981  77.823  1.00  0.00     0.050 A 
ATOM     19  C   UNL     1      90.690  93.265  76.678  1.00  0.00     0.157 A 
BRANCH  17  20
ATOM     20  O   UNL     1      90.813  92.988  74.303  1.00  0.00    -0.493 OA
ATOM     21  C   UNL     1      89.642  93.413  73.608  1.00  0.00     0.278 C 
ENDBRANCH  17  20
BRANCH  19  22
ATOM     22  O   UNL     1      89.896  92.164  76.794  1.00  0.00    -0.504 OA
ATOM     23  H   UNL     1      88.966  92.446  76.829  1.00  0.00     0.293 HD
ENDBRANCH  19  22
ENDBRANCH  13  14
ENDBRANCH  12  13
ENDBRANCH  10  12
ENDBRANCH   1  10
TORSDOF 12
ENDMDL
MODEL 3
REMARK VINA RESULT:    -6.039      4.159      5.322
REMARK INTER + INTRA:         -11.019
REMARK INTER:                 -10.377
REMARK INTRA:                  -0.642
REMARK UNBOUND:                -1.096
REMARK SMILES CCCCC[C@H](O)CC(=O)CCc1ccc(O)c(OC)c1
REMARK SMILES IDX 8 1 6 2 7 3 5 5 4 6 3 7 2 8 1 9 9 10 10 11 11 12 12 13 13 14
REMARK SMILES IDX 21 15 14 16 18 17 15 18 16 19 19 20 20 21 17 22
REMARK H PARENT 7 4 17 23
REMARK Flexibility Score: inf
ROOT
ATOM      1  C   UNL     1      92.166  95.397  77.029  1.00  0.00     0.107 C 
ENDROOT
BRANCH   1   2
ATOM      2  C   UNL     1      91.268  94.158  76.988  1.00  0.00     0.121 C 
BRANCH   2   3
ATOM      3  O   UNL     1      91.058  93.670  78.311  1.00  0.00    -0.393 OA
ATOM      4  H   UNL     1      90.097  93.634  78.466  1.00  0.00     0.210 HD
ENDBRANCH   2   3
BRANCH   2   5
ATOM      5  C   UNL     1      89.911  94.423  76.326  1.00  0.00     0.032 C 
BRANCH   5   6
ATOM      6  C   UNL     1      89.915  94.058  74.836  1.00  0.00     0.003 C 
BRANCH   6   7
ATOM      7  C   UNL     1      90.658  92.753  74.534  1.00  0.00    -0.000 C 
BRANCH   7   8
ATOM      8  C   UNL     1      89.731  91.575  74.238  1.00  0.00    -0.003 C 
ATOM      9  C   UNL     1      89.503  90.724  75.478  1.00  0.00     0.004 C 
ENDBRANCH   7   8
ENDBRANCH   6   7
ENDBRANCH   5   6
ENDBRANCH   2   5
ENDBRANCH   1   2
BRANCH   1  10
ATOM     10  C   UNL     1      93.584  95.121  76.556  1.00  0.00     0.135 C 
ATOM     11  O   UNL     1      93.812  94.815  75.386  1.00  0.00    -0.300 OA
BRANCH  10  12
ATOM     12  C   UNL     1      94.691  95.287  77.585  1.00  0.00     0.080 C 
BRANCH  12  13
ATOM     13  C   UNL     1      95.256  96.707  77.658  1.00  0.00     0.043 C 
BRANCH  13  14
ATOM     14  C   UNL     1      95.683  97.104  79.051  1.00  0.00    -0.044 A 
ATOM     15  C   UNL     1      96.315  96.175  79.878  1.00  0.00     0.054 A 
ATOM     16  C   UNL     1      95.447  98.400  79.510  1.00  0.00     0.008 A 
ATOM     17  C   UNL     1      96.710  96.543  81.164  1.00  0.00     0.160 A 
ATOM     18  C   UNL     1      95.842  98.768  80.796  1.00  0.00     0.050 A 
ATOM     19  C   UNL     1      96.474  97.839  81.623  1.00  0.00     0.157 A 
BRANCH  17  20
ATOM     20  O   UNL     1      97.325  95.627  81.963  1.00  0.00    -0.493 OA
ATOM     21  C   UNL     1      98.749  95.685  82.039  1.00  0.00     0.278 C 
ENDBRANCH  17  20
BRANCH  19  22
ATOM     22  O   UNL     1      96.855  98.210  82.877  1.00  0.00    -0.504 OA
ATOM     23  H   UNL     1      97.791  98.475  82.858  1.00  0.00     0.293 HD
ENDBRANCH  19  22
ENDBRANCH  13  14
ENDBRANCH  12  13
ENDBRANCH  10  12
ENDBRANCH   1  10
TORSDOF 12
ENDMDL
MODEL 4
REMARK VINA RESULT:    -5.666     12.093     15.204
REMARK INTER + INTRA:         -10.406
REMARK INTER:                  -9.756
REMARK INTRA:                  -0.650
REMARK UNBOUND:                -1.096
REMARK SMILES CCCCC[C@H](O)CC(=O)CCc1ccc(O)c(OC)c1
REMARK SMILES IDX 8 1 6 2 7 3 5 5 4 6 3 7 2 8 1 9 9 10 10 11 11 12 12 13 13 14
REMARK SMILES IDX 21 15 14 16 18 17 15 18 16 19 19 20 20 21 17 22
REMARK H PARENT 7 4 17 23
REMARK Flexibility Score: inf
ROOT
ATOM      1  C   UNL     1      97.990  83.808  75.849  1.00  0.00     0.107 C 
ENDROOT
BRANCH   1   2
ATOM      2  C   UNL     1      98.344  84.688  74.648  1.00  0.00     0.121 C 
BRANCH   2   3
ATOM      3  O   UNL     1      99.708  85.091  74.729  1.00  0.00    -0.393 OA
ATOM      4  H   UNL     1      99.996  84.983  75.652  1.00  0.00     0.210 HD
ENDBRANCH   2   3
BRANCH   2   5
ATOM      5  C   UNL     1      98.102  83.992  73.303  1.00  0.00     0.032 C 
BRANCH   5   6
ATOM      6  C   UNL     1      99.323  84.084  72.379  1.00  0.00     0.003 C 
BRANCH   6   7
ATOM      7  C   UNL     1      99.922  82.718  72.029  1.00  0.00    -0.000 C 
BRANCH   7   8
ATOM      8  C   UNL     1      98.938  81.560  72.182  1.00  0.00    -0.003 C 
ATOM      9  C   UNL     1      98.263  81.228  70.860  1.00  0.00     0.004 C 
ENDBRANCH   7   8
ENDBRANCH   6   7
ENDBRANCH   5   6
ENDBRANCH   2   5
ENDBRANCH   1   2
BRANCH   1  10
ATOM     10  C   UNL     1      96.773  84.303  76.613  1.00  0.00     0.135 C 
ATOM     11  O   UNL     1      96.084  85.225  76.177  1.00  0.00    -0.300 OA
BRANCH  10  12
ATOM     12  C   UNL     1      96.435  83.573  77.904  1.00  0.00     0.080 C 
BRANCH  12  13
ATOM     13  C   UNL     1      97.657  83.239  78.760  1.00  0.00     0.043 C 
BRANCH  13  14
ATOM     14  C   UNL     1      97.310  82.476  80.016  1.00  0.00    -0.044 A 
ATOM     15  C   UNL     1      96.816  83.153  81.131  1.00  0.00     0.054 A 
ATOM     16  C   UNL     1      97.483  81.092  80.060  1.00  0.00     0.008 A 
ATOM     17  C   UNL     1      96.495  82.446  82.290  1.00  0.00     0.160 A 
ATOM     18  C   UNL     1      97.162  80.385  81.219  1.00  0.00     0.050 A 
ATOM     19  C   UNL     1      96.668  81.062  82.334  1.00  0.00     0.157 A 
BRANCH  17  20
ATOM     20  O   UNL     1      96.013  83.118  83.372  1.00  0.00    -0.493 OA
ATOM     21  C   UNL     1      96.009  84.543  83.301  1.00  0.00     0.278 C 
ENDBRANCH  17  20
BRANCH  19  22
ATOM     22  O   UNL     1      96.358  80.361  83.460  1.00  0.00    -0.504 OA
ATOM     23  H   UNL     1      96.721  80.827  84.233  1.00  0.00     0.293 HD
ENDBRANCH  19  22
ENDBRANCH  13  14
ENDBRANCH  12  13
ENDBRANCH  10  12
ENDBRANCH   1  10
TORSDOF 12
ENDMDL
MODEL 5
REMARK VINA RESULT:    -5.654      4.524      6.107
REMARK INTER + INTRA:         -10.386
REMARK INTER:                  -9.376
REMARK INTRA:                  -1.010
REMARK UNBOUND:                -1.096
REMARK SMILES CCCCC[C@H](O)CC(=O)CCc1ccc(O)c(OC)c1
REMARK SMILES IDX 8 1 6 2 7 3 5 5 4 6 3 7 2 8 1 9 9 10 10 11 11 12 12 13 13 14
REMARK SMILES IDX 21 15 14 16 18 17 15 18 16 19 19 20 20 21 17 22
REMARK H PARENT 7 4 17 23
REMARK Flexibility Score: inf
ROOT
ATOM      1  C   UNL     1      93.088  96.927  76.838  1.00  0.00     0.107 C 
ENDROOT
BRANCH   1   2
ATOM      2  C   UNL     1      92.412  95.721  76.179  1.00  0.00     0.121 C 
BRANCH   2   3
ATOM      3  O   UNL     1      93.401  94.845  75.644  1.00  0.00    -0.393 OA
ATOM      4  H   UNL     1      93.669  94.232  76.351  1.00  0.00     0.210 HD
ENDBRANCH   2   3
BRANCH   2   5
ATOM      5  C   UNL     1      91.512  94.938  77.142  1.00  0.00     0.032 C 
BRANCH   5   6
ATOM      6  C   UNL     1      90.073  94.824  76.623  1.00  0.00     0.003 C 
BRANCH   6   7
ATOM      7  C   UNL     1      89.975  94.143  75.254  1.00  0.00    -0.000 C 
BRANCH   7   8
ATOM      8  C   UNL     1      90.448  92.690  75.258  1.00  0.00    -0.003 C 
ATOM      9  C   UNL     1      89.703  91.867  76.298  1.00  0.00     0.004 C 
ENDBRANCH   7   8
ENDBRANCH   6   7
ENDBRANCH   5   6
ENDBRANCH   2   5
ENDBRANCH   1   2
BRANCH   1  10
ATOM     10  C   UNL     1      94.445  97.252  76.234  1.00  0.00     0.135 C 
ATOM     11  O   UNL     1      94.583  97.374  75.017  1.00  0.00    -0.300 OA
BRANCH  10  12
ATOM     12  C   UNL     1      95.593  97.459  77.210  1.00  0.00     0.080 C 
BRANCH  12  13
ATOM     13  C   UNL     1      95.171  98.118  78.525  1.00  0.00     0.043 C 
BRANCH  13  14
ATOM     14  C   UNL     1      95.830  97.501  79.735  1.00  0.00    -0.044 A 
ATOM     15  C   UNL     1      96.234  98.308  80.798  1.00  0.00     0.054 A 
ATOM     16  C   UNL     1      96.034  96.122  79.789  1.00  0.00     0.008 A 
ATOM     17  C   UNL     1      96.842  97.736  81.916  1.00  0.00     0.160 A 
ATOM     18  C   UNL     1      96.642  95.550  80.907  1.00  0.00     0.050 A 
ATOM     19  C   UNL     1      97.046  96.357  81.970  1.00  0.00     0.157 A 
BRANCH  17  20
ATOM     20  O   UNL     1      97.233  98.535  82.948  1.00  0.00    -0.493 OA
ATOM     21  C   UNL     1      98.386  99.349  82.737  1.00  0.00     0.278 C 
ENDBRANCH  17  20
BRANCH  19  22
ATOM     22  O   UNL     1      97.639  95.787  83.056  1.00  0.00    -0.504 OA
ATOM     23  H   UNL     1      98.537  96.148  83.153  1.00  0.00     0.293 HD
ENDBRANCH  19  22
ENDBRANCH  13  14
ENDBRANCH  12  13
ENDBRANCH  10  12
ENDBRANCH   1  10
TORSDOF 12
ENDMDL
MODEL 6
REMARK VINA RESULT:    -5.468     19.203     21.951
REMARK INTER + INTRA:         -10.080
REMARK INTER:                  -8.988
REMARK INTRA:                  -1.092
REMARK UNBOUND:                -1.096
REMARK SMILES CCCCC[C@H](O)CC(=O)CCc1ccc(O)c(OC)c1
REMARK SMILES IDX 8 1 6 2 7 3 5 5 4 6 3 7 2 8 1 9 9 10 10 11 11 12 12 13 13 14
REMARK SMILES IDX 21 15 14 16 18 17 15 18 16 19 19 20 20 21 17 22
REMARK H PARENT 7 4 17 23
REMARK Flexibility Score: inf
ROOT
ATOM      1  C   UNL     1      75.641  83.884  66.611  1.00  0.00     0.107 C 
ENDROOT
BRANCH   1   2
ATOM      2  C   UNL     1      75.933  83.965  65.110  1.00  0.00     0.121 C 
BRANCH   2   3
ATOM      3  O   UNL     1      77.045  83.132  64.789  1.00  0.00    -0.393 OA
ATOM      4  H   UNL     1      77.129  82.463  65.492  1.00  0.00     0.210 HD
ENDBRANCH   2   3
BRANCH   2   5
ATOM      5  C   UNL     1      74.734  83.562  64.243  1.00  0.00     0.032 C 
BRANCH   5   6
ATOM      6  C   UNL     1      73.770  82.631  64.988  1.00  0.00     0.003 C 
BRANCH   6   7
ATOM      7  C   UNL     1      72.533  82.256  64.166  1.00  0.00    -0.000 C 
BRANCH   7   8
ATOM      8  C   UNL     1      71.235  82.272  64.971  1.00  0.00    -0.003 C 
ATOM      9  C   UNL     1      71.222  83.411  65.979  1.00  0.00     0.004 C 
ENDBRANCH   7   8
ENDBRANCH   6   7
ENDBRANCH   5   6
ENDBRANCH   2   5
ENDBRANCH   1   2
BRANCH   1  10
ATOM     10  C   UNL     1      76.813  84.328  67.471  1.00  0.00     0.135 C 
ATOM     11  O   UNL     1      77.957  84.354  67.017  1.00  0.00    -0.300 OA
BRANCH  10  12
ATOM     12  C   UNL     1      76.488  84.776  68.888  1.00  0.00     0.080 C 
BRANCH  12  13
ATOM     13  C   UNL     1      77.220  86.050  69.313  1.00  0.00     0.043 C 
BRANCH  13  14
ATOM     14  C   UNL     1      76.679  87.293  68.649  1.00  0.00    -0.044 A 
ATOM     15  C   UNL     1      75.370  87.704  68.898  1.00  0.00     0.054 A 
ATOM     16  C   UNL     1      77.490  88.031  67.786  1.00  0.00     0.008 A 
ATOM     17  C   UNL     1      74.871  88.854  68.284  1.00  0.00     0.160 A 
ATOM     18  C   UNL     1      76.992  89.181  67.173  1.00  0.00     0.050 A 
ATOM     19  C   UNL     1      75.682  89.592  67.422  1.00  0.00     0.157 A 
BRANCH  17  20
ATOM     20  O   UNL     1      73.591  89.245  68.534  1.00  0.00    -0.493 OA
ATOM     21  C   UNL     1      73.265  89.575  69.884  1.00  0.00     0.278 C 
ENDBRANCH  17  20
BRANCH  19  22
ATOM     22  O   UNL     1      75.207  90.716  66.817  1.00  0.00    -0.504 OA
ATOM     23  H   UNL     1      75.608  91.496  67.237  1.00  0.00     0.293 HD
ENDBRANCH  19  22
ENDBRANCH  13  14
ENDBRANCH  12  13
ENDBRANCH  10  12
ENDBRANCH   1  10
TORSDOF 12
ENDMDL
MODEL 7
REMARK VINA RESULT:    -5.411     16.657     19.318
REMARK INTER + INTRA:          -9.986
REMARK INTER:                  -9.385
REMARK INTRA:                  -0.601
REMARK UNBOUND:                -1.096
REMARK SMILES CCCCC[C@H](O)CC(=O)CCc1ccc(O)c(OC)c1
REMARK SMILES IDX 8 1 6 2 7 3 5 5 4 6 3 7 2 8 1 9 9 10 10 11 11 12 12 13 13 14
REMARK SMILES IDX 21 15 14 16 18 17 15 18 16 19 19 20 20 21 17 22
REMARK H PARENT 7 4 17 23
REMARK Flexibility Score: inf
ROOT
ATOM      1  C   UNL     1      91.818  74.745  82.447  1.00  0.00     0.107 C 
ENDROOT
BRANCH   1   2
ATOM      2  C   UNL     1      92.154  75.283  81.054  1.00  0.00     0.121 C 
BRANCH   2   3
ATOM      3  O   UNL     1      93.411  74.766  80.626  1.00  0.00    -0.393 OA
ATOM      4  H   UNL     1      93.835  75.439  80.066  1.00  0.00     0.210 HD
ENDBRANCH   2   3
BRANCH   2   5
ATOM      5  C   UNL     1      91.086  74.946  80.007  1.00  0.00     0.032 C 
BRANCH   5   6
ATOM      6  C   UNL     1      91.118  75.916  78.819  1.00  0.00     0.003 C 
BRANCH   6   7
ATOM      7  C   UNL     1      90.520  75.325  77.538  1.00  0.00    -0.000 C 
BRANCH   7   8
ATOM      8  C   UNL     1      90.221  76.369  76.463  1.00  0.00    -0.003 C 
ATOM      9  C   UNL     1      91.224  77.511  76.506  1.00  0.00     0.004 C 
ENDBRANCH   7   8
ENDBRANCH   6   7
ENDBRANCH   5   6
ENDBRANCH   2   5
ENDBRANCH   1   2
BRANCH   1  10
ATOM     10  C   UNL     1      90.813  75.607  83.193  1.00  0.00     0.135 C 
ATOM     11  O   UNL     1      89.648  75.237  83.342  1.00  0.00    -0.300 OA
BRANCH  10  12
ATOM     12  C   UNL     1      91.334  76.912  83.775  1.00  0.00     0.080 C 
BRANCH  12  13
ATOM     13  C   UNL     1      90.231  77.848  84.272  1.00  0.00     0.043 C 
BRANCH  13  14
ATOM     14  C   UNL     1      90.673  79.289  84.362  1.00  0.00    -0.044 A 
ATOM     15  C   UNL     1      89.738  80.316  84.228  1.00  0.00     0.054 A 
ATOM     16  C   UNL     1      92.017  79.593  84.580  1.00  0.00     0.008 A 
ATOM     17  C   UNL     1      90.148  81.647  84.313  1.00  0.00     0.160 A 
ATOM     18  C   UNL     1      92.427  80.924  84.664  1.00  0.00     0.050 A 
ATOM     19  C   UNL     1      91.492  81.951  84.530  1.00  0.00     0.157 A 
BRANCH  17  20
ATOM     20  O   UNL     1      89.226  82.641  84.179  1.00  0.00    -0.493 OA
ATOM     21  C   UNL     1      88.221  82.732  85.188  1.00  0.00     0.278 C 
ENDBRANCH  17  20
BRANCH  19  22
ATOM     22  O   UNL     1      91.904  83.246  84.614  1.00  0.00    -0.504 OA
ATOM     23  H   UNL     1      92.520  83.431  83.885  1.00  0.00     0.293 HD
ENDBRANCH  19  22
ENDBRANCH  13  14
ENDBRANCH  12  13
ENDBRANCH  10  12
ENDBRANCH   1  10
TORSDOF 12
ENDMDL
MODEL 8
REMARK VINA RESULT:    -5.370      2.448      4.275
REMARK INTER + INTRA:          -9.919
REMARK INTER:                  -8.959
REMARK INTRA:                  -0.960
REMARK UNBOUND:                -1.096
REMARK SMILES CCCCC[C@H](O)CC(=O)CCc1ccc(O)c(OC)c1
REMARK SMILES IDX 8 1 6 2 7 3 5 5 4 6 3 7 2 8 1 9 9 10 10 11 11 12 12 13 13 14
REMARK SMILES IDX 21 15 14 16 18 17 15 18 16 19 19 20 20 21 17 22
REMARK H PARENT 7 4 17 23
REMARK Flexibility Score: inf
ROOT
ATOM      1  C   UNL     1      93.053  96.490  76.226  1.00  0.00     0.107 C 
ENDROOT
BRANCH   1   2
ATOM      2  C   UNL     1      93.391  95.478  77.323  1.00  0.00     0.121 C 
BRANCH   2   3
ATOM      3  O   UNL     1      94.145  96.114  78.352  1.00  0.00    -0.393 OA
ATOM      4  H   UNL     1      95.007  95.667  78.409  1.00  0.00     0.210 HD
ENDBRANCH   2   3
BRANCH   2   5
ATOM      5  C   UNL     1      92.148  94.823  77.939  1.00  0.00     0.032 C 
BRANCH   5   6
ATOM      6  C   UNL     1      90.893  95.053  77.088  1.00  0.00     0.003 C 
BRANCH   6   7
ATOM      7  C   UNL     1      89.895  93.893  77.153  1.00  0.00    -0.000 C 
BRANCH   7   8
ATOM      8  C   UNL     1      90.258  92.722  76.242  1.00  0.00    -0.003 C 
ATOM      9  C   UNL     1      90.726  93.204  74.878  1.00  0.00     0.004 C 
ENDBRANCH   7   8
ENDBRANCH   6   7
ENDBRANCH   5   6
ENDBRANCH   2   5
ENDBRANCH   1   2
BRANCH   1  10
ATOM     10  C   UNL     1      94.258  96.886  75.389  1.00  0.00     0.135 C 
ATOM     11  O   UNL     1      95.247  97.404  75.909  1.00  0.00    -0.300 OA
BRANCH  10  12
ATOM     12  C   UNL     1      94.192  96.569  73.903  1.00  0.00     0.080 C 
BRANCH  12  13
ATOM     13  C   UNL     1      95.437  96.999  73.126  1.00  0.00     0.043 C 
BRANCH  13  14
ATOM     14  C   UNL     1      95.116  97.828  71.905  1.00  0.00    -0.044 A 
ATOM     15  C   UNL     1      94.126  98.809  71.968  1.00  0.00     0.054 A 
ATOM     16  C   UNL     1      95.809  97.611  70.714  1.00  0.00     0.008 A 
ATOM     17  C   UNL     1      93.831  99.574  70.839  1.00  0.00     0.160 A 
ATOM     18  C   UNL     1      95.514  98.377  69.585  1.00  0.00     0.050 A 
ATOM     19  C   UNL     1      94.525  99.358  69.648  1.00  0.00     0.157 A 
BRANCH  17  20
ATOM     20  O   UNL     1      92.862 100.529  70.912  1.00  0.00    -0.493 OA
ATOM     21  C   UNL     1      91.529 100.082  71.154  1.00  0.00     0.278 C 
ENDBRANCH  17  20
BRANCH  19  22
ATOM     22  O   UNL     1      94.245 100.098  68.540  1.00  0.00    -0.504 OA
ATOM     23  H   UNL     1      95.080 100.400  68.142  1.00  0.00     0.293 HD
ENDBRANCH  19  22
ENDBRANCH  13  14
ENDBRANCH  12  13
ENDBRANCH  10  12
ENDBRANCH   1  10
TORSDOF 12
ENDMDL
MODEL 9
REMARK VINA RESULT:    -5.351      5.447      7.074
REMARK INTER + INTRA:          -9.887
REMARK INTER:                  -9.122
REMARK INTRA:                  -0.765
REMARK UNBOUND:                -1.096
REMARK SMILES CCCCC[C@H](O)CC(=O)CCc1ccc(O)c(OC)c1
REMARK SMILES IDX 8 1 6 2 7 3 5 5 4 6 3 7 2 8 1 9 9 10 10 11 11 12 12 13 13 14
REMARK SMILES IDX 21 15 14 16 18 17 15 18 16 19 19 20 20 21 17 22
REMARK H PARENT 7 4 17 23
REMARK Flexibility Score: inf
ROOT
ATOM      1  C   UNL     1      94.812  94.369  77.909  1.00  0.00     0.107 C 
ENDROOT
BRANCH   1   2
ATOM      2  C   UNL     1      94.235  95.394  76.929  1.00  0.00     0.121 C 
BRANCH   2   3
ATOM      3  O   UNL     1      94.105  94.807  75.637  1.00  0.00    -0.393 OA
ATOM      4  H   UNL     1      94.054  95.529  74.986  1.00  0.00     0.210 HD
ENDBRANCH   2   3
BRANCH   2   5
ATOM      5  C   UNL     1      92.876  95.948  77.372  1.00  0.00     0.032 C 
BRANCH   5   6
ATOM      6  C   UNL     1      91.913  94.835  77.805  1.00  0.00     0.003 C 
BRANCH   6   7
ATOM      7  C   UNL     1      90.659  94.743  76.929  1.00  0.00    -0.000 C 
BRANCH   7   8
ATOM      8  C   UNL     1      89.757  93.559  77.274  1.00  0.00    -0.003 C 
ATOM      9  C   UNL     1      89.995  92.389  76.332  1.00  0.00     0.004 C 
ENDBRANCH   7   8
ENDBRANCH   6   7
ENDBRANCH   5   6
ENDBRANCH   2   5
ENDBRANCH   1   2
BRANCH   1  10
ATOM     10  C   UNL     1      95.224  94.981  79.238  1.00  0.00     0.135 C 
ATOM     11  O   UNL     1      94.833  94.503  80.303  1.00  0.00    -0.300 OA
BRANCH  10  12
ATOM     12  C   UNL     1      96.169  96.171  79.177  1.00  0.00     0.080 C 
BRANCH  12  13
ATOM     13  C   UNL     1      97.014  96.351  80.440  1.00  0.00     0.043 C 
BRANCH  13  14
ATOM     14  C   UNL     1      96.705  97.630  81.181  1.00  0.00    -0.044 A 
ATOM     15  C   UNL     1      97.320  97.893  82.405  1.00  0.00     0.054 A 
ATOM     16  C   UNL     1      95.804  98.549  80.641  1.00  0.00     0.008 A 
ATOM     17  C   UNL     1      97.035  99.075  83.089  1.00  0.00     0.160 A 
ATOM     18  C   UNL     1      95.519  99.731  81.325  1.00  0.00     0.050 A 
ATOM     19  C   UNL     1      96.134  99.994  82.549  1.00  0.00     0.157 A 
BRANCH  17  20
ATOM     20  O   UNL     1      97.641  99.320  84.284  1.00  0.00    -0.493 OA
ATOM     21  C   UNL     1      99.037  99.615  84.254  1.00  0.00     0.278 C 
ENDBRANCH  17  20
BRANCH  19  22
ATOM     22  O   UNL     1      95.848 101.151  83.207  1.00  0.00    -0.504 OA
ATOM     23  H   UNL     1      95.638 101.842  82.556  1.00  0.00     0.293 HD
ENDBRANCH  19  22
ENDBRANCH  13  14
ENDBRANCH  12  13
ENDBRANCH  10  12
ENDBRANCH   1  10
TORSDOF 12
ENDMDL
MODEL 10
REMARK VINA RESULT:    -5.203     12.220     14.609
REMARK INTER + INTRA:          -9.645
REMARK INTER:                  -9.020
REMARK INTRA:                  -0.625
REMARK UNBOUND:                -1.096
REMARK SMILES CCCCC[C@H](O)CC(=O)CCc1ccc(O)c(OC)c1
REMARK SMILES IDX 8 1 6 2 7 3 5 5 4 6 3 7 2 8 1 9 9 10 10 11 11 12 12 13 13 14
REMARK SMILES IDX 21 15 14 16 18 17 15 18 16 19 19 20 20 21 17 22
REMARK H PARENT 7 4 17 23
REMARK Flexibility Score: inf
ROOT
ATOM      1  C   UNL     1      97.168  82.699  83.725  1.00  0.00     0.107 C 
ENDROOT
BRANCH   1   2
ATOM      2  C   UNL     1      96.358  83.955  84.055  1.00  0.00     0.121 C 
BRANCH   2   3
ATOM      3  O   UNL     1      95.258  84.071  83.155  1.00  0.00    -0.393 OA
ATOM      4  H   UNL     1      94.867  84.954  83.276  1.00  0.00     0.210 HD
ENDBRANCH   2   3
BRANCH   2   5
ATOM      5  C   UNL     1      95.836  83.971  85.496  1.00  0.00     0.032 C 
BRANCH   5   6
ATOM      6  C   UNL     1      95.197  82.635  85.893  1.00  0.00     0.003 C 
BRANCH   6   7
ATOM      7  C   UNL     1      93.762  82.779  86.410  1.00  0.00    -0.000 C 
BRANCH   7   8
ATOM      8  C   UNL     1      92.748  83.117  85.318  1.00  0.00    -0.003 C 
ATOM      9  C   UNL     1      92.559  81.952  84.359  1.00  0.00     0.004 C 
ENDBRANCH   7   8
ENDBRANCH   6   7
ENDBRANCH   5   6
ENDBRANCH   2   5
ENDBRANCH   1   2
BRANCH   1  10
ATOM     10  C   UNL     1      96.810  82.096  82.376  1.00  0.00     0.135 C 
ATOM     11  O   UNL     1      96.178  81.043  82.302  1.00  0.00    -0.300 OA
BRANCH  10  12
ATOM     12  C   UNL     1      97.233  82.882  81.144  1.00  0.00     0.080 C 
BRANCH  12  13
ATOM     13  C   UNL     1      97.437  82.014  79.902  1.00  0.00     0.043 C 
BRANCH  13  14
ATOM     14  C   UNL     1      97.432  82.808  78.617  1.00  0.00    -0.044 A 
ATOM     15  C   UNL     1      98.522  82.739  77.749  1.00  0.00     0.054 A 
ATOM     16  C   UNL     1      96.336  83.611  78.299  1.00  0.00     0.008 A 
ATOM     17  C   UNL     1      98.515  83.473  76.563  1.00  0.00     0.160 A 
ATOM     18  C   UNL     1      96.330  84.345  77.113  1.00  0.00     0.050 A 
ATOM     19  C   UNL     1      97.420  84.276  76.245  1.00  0.00     0.157 A 
BRANCH  17  20
ATOM     20  O   UNL     1      99.586  83.398  75.724  1.00  0.00    -0.493 OA
ATOM     21  C   UNL     1     100.425  82.251  75.844  1.00  0.00     0.278 C 
ENDBRANCH  17  20
BRANCH  19  22
ATOM     22  O   UNL     1      97.402  84.997  75.089  1.00  0.00    -0.504 OA
ATOM     23  H   UNL     1      98.244  84.865  74.621  1.00  0.00     0.293 HD
ENDBRANCH  19  22
ENDBRANCH  13  14
ENDBRANCH  12  13
ENDBRANCH  10  12
ENDBRANCH   1  10
TORSDOF 12
ENDMDL
