MODEL 1
REMARK VINA RESULT:    -5.830      0.000      0.000
REMARK INTER + INTRA:         -10.365
REMARK INTER:                  -9.409
REMARK INTRA:                  -0.955
REMARK UNBOUND:                -0.955
REMARK SMILES COc1cc(CNC(=O)CCCCC/C=C/C(C)C)ccc1O
REMARK SMILES IDX 11 1 10 2 8 3 7 4 9 6 6 7 5 8 3 9 22 10 4 11 21 12 20 13
REMARK SMILES IDX 2 14 1 15 23 16 12 18 13 19 14 20 15 21 16 22 17 23 18 24
REMARK SMILES IDX 19 25
REMARK H PARENT 7 5 23 17
REMARK Flexibility Score: inf
ROOT
ATOM      1  C   UNL     1      99.880  82.656  79.632  1.00  0.00     0.010 C 
ENDROOT
BRANCH   1   2
ATOM      2  C   UNL     1     100.516  81.407  80.296  1.00  0.00     0.100 C 
BRANCH   2   3
ATOM      3  C   UNL     1     100.242  81.291  81.741  1.00  0.00     0.220 C 
ATOM      4  N   UNL     1      98.992  80.960  82.170  1.00  0.00    -0.352 N 
ATOM      5  H   UNL     1      98.301  80.886  81.436  1.00  0.00     0.163 HD
ATOM      6  O   UNL     1     101.190  81.463  82.543  1.00  0.00    -0.275 OA
BRANCH   4   7
ATOM      7  C   UNL     1      98.617  80.721  83.525  1.00  0.00     0.151 C 
BRANCH   7   8
ATOM      8  C   UNL     1      97.856  81.852  84.116  1.00  0.00    -0.025 A 
ATOM      9  C   UNL     1      96.351  82.743  85.846  1.00  0.00     0.160 A 
ATOM     10  C   UNL     1      96.364  84.002  85.207  1.00  0.00     0.157 A 
ATOM     11  C   UNL     1      97.089  81.677  85.291  1.00  0.00     0.056 A 
ATOM     12  C   UNL     1      97.137  84.193  84.047  1.00  0.00     0.050 A 
ATOM     13  C   UNL     1      97.886  83.129  83.511  1.00  0.00     0.009 A 
BRANCH   9  14
ATOM     14  O   UNL     1      95.673  82.570  87.023  1.00  0.00    -0.493 OA
ATOM     15  C   UNL     1      94.303  82.165  86.858  1.00  0.00     0.278 C 
ENDBRANCH   9  14
BRANCH  10  16
ATOM     16  O   UNL     1      95.645  85.045  85.692  1.00  0.00    -0.504 OA
ATOM     17  H   UNL     1      94.997  84.721  86.323  1.00  0.00     0.293 HD
ENDBRANCH  10  16
ENDBRANCH   7   8
ENDBRANCH   4   7
ENDBRANCH   2   3
ENDBRANCH   1   2
BRANCH   1  18
ATOM     18  C   UNL     1      98.500  82.318  79.011  1.00  0.00     0.001 C 
BRANCH  18  19
ATOM     19  C   UNL     1      97.648  83.567  78.669  1.00  0.00     0.004 C 
BRANCH  19  20
ATOM     20  C   UNL     1      97.423  83.697  77.137  1.00  0.00     0.027 C 
BRANCH  20  21
ATOM     21  C   UNL     1      98.605  83.401  76.345  1.00  0.00    -0.031 C 
ATOM     22  C   UNL     1      99.494  84.349  75.999  1.00  0.00    -0.028 C 
BRANCH  22  23
ATOM     23  C   UNL     1     100.694  84.083  75.209  1.00  0.00     0.005 C 
ATOM     24  C   UNL     1     101.199  85.391  74.543  1.00  0.00     0.012 C 
ATOM     25  C   UNL     1     101.780  83.413  76.092  1.00  0.00     0.012 C 
ENDBRANCH  22  23
ENDBRANCH  20  21
ENDBRANCH  19  20
ENDBRANCH  18  19
ENDBRANCH   1  18
TORSDOF 11
ENDMDL
MODEL 2
REMARK VINA RESULT:    -5.776     13.263     14.861
REMARK INTER + INTRA:         -10.276
REMARK INTER:                  -9.451
REMARK INTRA:                  -0.825
REMARK UNBOUND:                -0.955
REMARK SMILES COc1cc(CNC(=O)CCCCC/C=C/C(C)C)ccc1O
REMARK SMILES IDX 11 1 10 2 8 3 7 4 9 6 6 7 5 8 3 9 22 10 4 11 21 12 20 13
REMARK SMILES IDX 2 14 1 15 23 16 12 18 13 19 14 20 15 21 16 22 17 23 18 24
REMARK SMILES IDX 19 25
REMARK H PARENT 7 5 23 17
REMARK Flexibility Score: inf
ROOT
ATOM      1  C   UNL     1      96.381  94.885  80.727  1.00  0.00     0.010 C 
ENDROOT
BRANCH   1   2
ATOM      2  C   UNL     1      95.996  94.766  82.224  1.00  0.00     0.100 C 
BRANCH   2   3
ATOM      3  C   UNL     1      95.542  96.033  82.829  1.00  0.00     0.220 C 
ATOM      4  N   UNL     1      96.289  96.626  83.801  1.00  0.00    -0.352 N 
ATOM      5  H   UNL     1      97.096  96.093  84.096  1.00  0.00     0.163 HD
ATOM      6  O   UNL     1      94.487  96.555  82.397  1.00  0.00    -0.275 OA
BRANCH   4   7
ATOM      7  C   UNL     1      96.018  97.893  84.398  1.00  0.00     0.151 C 
BRANCH   7   8
ATOM      8  C   UNL     1      96.725  98.078  85.692  1.00  0.00    -0.025 A 
ATOM      9  C   UNL     1      96.669  98.373  88.133  1.00  0.00     0.160 A 
ATOM     10  C   UNL     1      98.076  98.484  88.151  1.00  0.00     0.157 A 
ATOM     11  C   UNL     1      96.004  98.180  86.905  1.00  0.00     0.056 A 
ATOM     12  C   UNL     1      98.804  98.367  86.953  1.00  0.00     0.050 A 
ATOM     13  C   UNL     1      98.135  98.154  85.734  1.00  0.00     0.009 A 
BRANCH   9  14
ATOM     14  O   UNL     1      95.957  98.398  89.303  1.00  0.00    -0.493 OA
ATOM     15  C   UNL     1      94.535  98.512  89.124  1.00  0.00     0.278 C 
ENDBRANCH   9  14
BRANCH  10  16
ATOM     16  O   UNL     1      98.752  98.699  89.308  1.00  0.00    -0.504 OA
ATOM     17  H   UNL     1      99.220  99.535  89.254  1.00  0.00     0.293 HD
ENDBRANCH  10  16
ENDBRANCH   7   8
ENDBRANCH   4   7
ENDBRANCH   2   3
ENDBRANCH   1   2
BRANCH   1  18
ATOM     18  C   UNL     1      95.651  93.815  79.876  1.00  0.00     0.001 C 
BRANCH  18  19
ATOM     19  C   UNL     1      94.939  94.392  78.626  1.00  0.00     0.004 C 
BRANCH  19  20
ATOM     20  C   UNL     1      94.138  95.678  78.972  1.00  0.00     0.027 C 
BRANCH  20  21
ATOM     21  C   UNL     1      92.724  95.590  78.650  1.00  0.00    -0.031 C 
ATOM     22  C   UNL     1      92.079  94.414  78.561  1.00  0.00    -0.028 C 
BRANCH  22  23
ATOM     23  C   UNL     1      90.658  94.292  78.245  1.00  0.00     0.005 C 
ATOM     24  C   UNL     1      90.135  95.606  77.605  1.00  0.00     0.012 C 
ATOM     25  C   UNL     1      90.414  93.056  77.337  1.00  0.00     0.012 C 
ENDBRANCH  22  23
ENDBRANCH  20  21
ENDBRANCH  19  20
ENDBRANCH  18  19
ENDBRANCH   1  18
TORSDOF 11
ENDMDL
MODEL 3
REMARK VINA RESULT:    -5.774      2.882      5.236
REMARK INTER + INTRA:         -10.273
REMARK INTER:                  -9.089
REMARK INTRA:                  -1.184
REMARK UNBOUND:                -0.955
REMARK SMILES COc1cc(CNC(=O)CCCCC/C=C/C(C)C)ccc1O
REMARK SMILES IDX 11 1 10 2 8 3 7 4 9 6 6 7 5 8 3 9 22 10 4 11 21 12 20 13
REMARK SMILES IDX 2 14 1 15 23 16 12 18 13 19 14 20 15 21 16 22 17 23 18 24
REMARK SMILES IDX 19 25
REMARK H PARENT 7 5 23 17
REMARK Flexibility Score: inf
ROOT
ATOM      1  C   UNL     1      99.503  82.600  76.121  1.00  0.00     0.010 C 
ENDROOT
BRANCH   1   2
ATOM      2  C   UNL     1      98.070  83.189  76.064  1.00  0.00     0.100 C 
BRANCH   2   3
ATOM      3  C   UNL     1      97.643  83.851  77.311  1.00  0.00     0.220 C 
ATOM      4  N   UNL     1      97.538  83.129  78.461  1.00  0.00    -0.352 N 
ATOM      5  H   UNL     1      97.698  82.137  78.351  1.00  0.00     0.163 HD
ATOM      6  O   UNL     1      97.426  85.085  77.285  1.00  0.00    -0.275 OA
BRANCH   4   7
ATOM      7  C   UNL     1      97.232  83.660  79.749  1.00  0.00     0.151 C 
BRANCH   7   8
ATOM      8  C   UNL     1      98.160  83.175  80.803  1.00  0.00    -0.025 A 
ATOM      9  C   UNL     1     100.327  82.220  81.466  1.00  0.00     0.160 A 
ATOM     10  C   UNL     1      99.906  82.201  82.814  1.00  0.00     0.157 A 
ATOM     11  C   UNL     1      99.450  82.697  80.472  1.00  0.00     0.056 A 
ATOM     12  C   UNL     1      98.632  82.690  83.157  1.00  0.00     0.050 A 
ATOM     13  C   UNL     1      97.769  83.183  82.160  1.00  0.00     0.009 A 
BRANCH   9  14
ATOM     14  O   UNL     1     101.597  81.829  81.133  1.00  0.00    -0.493 OA
ATOM     15  C   UNL     1     101.674  81.047  79.929  1.00  0.00     0.278 C 
ENDBRANCH   9  14
BRANCH  10  16
ATOM     16  O   UNL     1     100.709  81.724  83.797  1.00  0.00    -0.504 OA
ATOM     17  H   UNL     1     100.178  81.247  84.440  1.00  0.00     0.293 HD
ENDBRANCH  10  16
ENDBRANCH   7   8
ENDBRANCH   4   7
ENDBRANCH   2   3
ENDBRANCH   1   2
BRANCH   1  18
ATOM     18  C   UNL     1     100.532  83.674  76.557  1.00  0.00     0.001 C 
BRANCH  18  19
ATOM     19  C   UNL     1     101.928  83.096  76.902  1.00  0.00     0.004 C 
BRANCH  19  20
ATOM     20  C   UNL     1     103.023  83.648  75.946  1.00  0.00     0.027 C 
BRANCH  20  21
ATOM     21  C   UNL     1     102.615  84.835  75.214  1.00  0.00    -0.031 C 
ATOM     22  C   UNL     1     102.496  84.848  73.875  1.00  0.00    -0.028 C 
BRANCH  22  23
ATOM     23  C   UNL     1     102.083  86.022  73.110  1.00  0.00     0.005 C 
ATOM     24  C   UNL     1     102.307  85.782  71.593  1.00  0.00     0.012 C 
ATOM     25  C   UNL     1     100.609  86.385  73.438  1.00  0.00     0.012 C 
ENDBRANCH  22  23
ENDBRANCH  20  21
ENDBRANCH  19  20
ENDBRANCH  18  19
ENDBRANCH   1  18
TORSDOF 11
ENDMDL
MODEL 4
REMARK VINA RESULT:    -5.647      4.074      5.911
REMARK INTER + INTRA:         -10.068
REMARK INTER:                  -8.086
REMARK INTRA:                  -1.982
REMARK UNBOUND:                -0.955
REMARK SMILES COc1cc(CNC(=O)CCCCC/C=C/C(C)C)ccc1O
REMARK SMILES IDX 11 1 10 2 8 3 7 4 9 6 6 7 5 8 3 9 22 10 4 11 21 12 20 13
REMARK SMILES IDX 2 14 1 15 23 16 12 18 13 19 14 20 15 21 16 22 17 23 18 24
REMARK SMILES IDX 19 25
REMARK H PARENT 7 5 23 17
REMARK Flexibility Score: inf
ROOT
ATOM      1  C   UNL     1     103.631  81.326  80.567  1.00  0.00     0.010 C 
ENDROOT
BRANCH   1   2
ATOM      2  C   UNL     1     103.000  80.022  81.121  1.00  0.00     0.100 C 
BRANCH   2   3
ATOM      3  C   UNL     1     101.529  80.060  81.212  1.00  0.00     0.220 C 
ATOM      4  N   UNL     1     100.876  81.253  81.154  1.00  0.00    -0.352 N 
ATOM      5  H   UNL     1     101.480  82.063  81.122  1.00  0.00     0.163 HD
ATOM      6  O   UNL     1     100.910  78.973  81.302  1.00  0.00    -0.275 OA
BRANCH   4   7
ATOM      7  C   UNL     1      99.460  81.424  81.133  1.00  0.00     0.151 C 
BRANCH   7   8
ATOM      8  C   UNL     1      98.963  81.930  79.827  1.00  0.00    -0.025 A 
ATOM      9  C   UNL     1      98.564  81.606  77.422  1.00  0.00     0.160 A 
ATOM     10  C   UNL     1      98.064  82.923  77.329  1.00  0.00     0.157 A 
ATOM     11  C   UNL     1      99.018  81.123  78.667  1.00  0.00     0.056 A 
ATOM     12  C   UNL     1      97.990  83.729  78.479  1.00  0.00     0.050 A 
ATOM     13  C   UNL     1      98.426  83.233  79.722  1.00  0.00     0.009 A 
BRANCH   9  14
ATOM     14  O   UNL     1      98.560  80.784  76.327  1.00  0.00    -0.493 OA
ATOM     15  C   UNL     1      99.205  79.517  76.540  1.00  0.00     0.278 C 
ENDBRANCH   9  14
BRANCH  10  16
ATOM     16  O   UNL     1      97.644  83.435  76.144  1.00  0.00    -0.504 OA
ATOM     17  H   UNL     1      97.704  82.759  75.465  1.00  0.00     0.293 HD
ENDBRANCH  10  16
ENDBRANCH   7   8
ENDBRANCH   4   7
ENDBRANCH   2   3
ENDBRANCH   1   2
BRANCH   1  18
ATOM     18  C   UNL     1     104.543  81.032  79.348  1.00  0.00     0.001 C 
BRANCH  18  19
ATOM     19  C   UNL     1     104.080  81.725  78.042  1.00  0.00     0.004 C 
BRANCH  19  20
ATOM     20  C   UNL     1     102.569  82.085  78.096  1.00  0.00     0.027 C 
BRANCH  20  21
ATOM     21  C   UNL     1     101.994  82.394  76.798  1.00  0.00    -0.031 C 
ATOM     22  C   UNL     1     101.580  83.631  76.471  1.00  0.00    -0.028 C 
BRANCH  22  23
ATOM     23  C   UNL     1     101.004  83.975  75.174  1.00  0.00     0.005 C 
ATOM     24  C   UNL     1     100.453  85.426  75.198  1.00  0.00     0.012 C 
ATOM     25  C   UNL     1     102.051  83.760  74.048  1.00  0.00     0.012 C 
ENDBRANCH  22  23
ENDBRANCH  20  21
ENDBRANCH  19  20
ENDBRANCH  18  19
ENDBRANCH   1  18
TORSDOF 11
ENDMDL
MODEL 5
REMARK VINA RESULT:    -5.489      2.898      5.714
REMARK INTER + INTRA:          -9.814
REMARK INTER:                  -8.511
REMARK INTRA:                  -1.303
REMARK UNBOUND:                -0.955
REMARK SMILES COc1cc(CNC(=O)CCCCC/C=C/C(C)C)ccc1O
REMARK SMILES IDX 11 1 10 2 8 3 7 4 9 6 6 7 5 8 3 9 22 10 4 11 21 12 20 13
REMARK SMILES IDX 2 14 1 15 23 16 12 18 13 19 14 20 15 21 16 22 17 23 18 24
REMARK SMILES IDX 19 25
REMARK H PARENT 7 5 23 17
REMARK Flexibility Score: inf
ROOT
ATOM      1  C   UNL     1      99.379  82.369  76.079  1.00  0.00     0.010 C 
ENDROOT
BRANCH   1   2
ATOM      2  C   UNL     1      97.956  82.986  76.060  1.00  0.00     0.100 C 
BRANCH   2   3
ATOM      3  C   UNL     1      97.606  83.724  77.287  1.00  0.00     0.220 C 
ATOM      4  N   UNL     1      97.491  83.058  78.469  1.00  0.00    -0.352 N 
ATOM      5  H   UNL     1      97.588  82.055  78.399  1.00  0.00     0.163 HD
ATOM      6  O   UNL     1      97.461  84.967  77.214  1.00  0.00    -0.275 OA
BRANCH   4   7
ATOM      7  C   UNL     1      97.254  83.660  79.741  1.00  0.00     0.151 C 
BRANCH   7   8
ATOM      8  C   UNL     1      98.163  83.144  80.797  1.00  0.00    -0.025 A 
ATOM      9  C   UNL     1     100.247  82.017  81.457  1.00  0.00     0.160 A 
ATOM     10  C   UNL     1      99.868  82.114  82.814  1.00  0.00     0.157 A 
ATOM     11  C   UNL     1      99.389  82.524  80.460  1.00  0.00     0.056 A 
ATOM     12  C   UNL     1      98.659  82.744  83.162  1.00  0.00     0.050 A 
ATOM     13  C   UNL     1      97.817  83.265  82.161  1.00  0.00     0.009 A 
BRANCH   9  14
ATOM     14  O   UNL     1     101.461  81.484  81.114  1.00  0.00    -0.493 OA
ATOM     15  C   UNL     1     101.464  80.791  79.855  1.00  0.00     0.278 C 
ENDBRANCH   9  14
BRANCH  10  16
ATOM     16  O   UNL     1     100.651  81.613  83.802  1.00  0.00    -0.504 OA
ATOM     17  H   UNL     1     101.289  81.002  83.426  1.00  0.00     0.293 HD
ENDBRANCH  10  16
ENDBRANCH   7   8
ENDBRANCH   4   7
ENDBRANCH   2   3
ENDBRANCH   1   2
BRANCH   1  18
ATOM     18  C   UNL     1     100.465  83.460  75.901  1.00  0.00     0.001 C 
BRANCH  18  19
ATOM     19  C   UNL     1     101.556  83.440  77.001  1.00  0.00     0.004 C 
BRANCH  19  20
ATOM     20  C   UNL     1     102.943  83.053  76.416  1.00  0.00     0.027 C 
BRANCH  20  21
ATOM     21  C   UNL     1     103.527  81.872  77.029  1.00  0.00    -0.031 C 
ATOM     22  C   UNL     1     104.565  81.943  77.882  1.00  0.00    -0.028 C 
BRANCH  22  23
ATOM     23  C   UNL     1     105.170  80.777  78.519  1.00  0.00     0.005 C 
ATOM     24  C   UNL     1     105.167  80.943  80.061  1.00  0.00     0.012 C 
ATOM     25  C   UNL     1     104.446  79.480  78.064  1.00  0.00     0.012 C 
ENDBRANCH  22  23
ENDBRANCH  20  21
ENDBRANCH  19  20
ENDBRANCH  18  19
ENDBRANCH   1  18
TORSDOF 11
ENDMDL
MODEL 6
REMARK VINA RESULT:    -5.458      3.926      7.541
REMARK INTER + INTRA:          -9.764
REMARK INTER:                  -9.014
REMARK INTRA:                  -0.750
REMARK UNBOUND:                -0.955
REMARK SMILES COc1cc(CNC(=O)CCCCC/C=C/C(C)C)ccc1O
REMARK SMILES IDX 11 1 10 2 8 3 7 4 9 6 6 7 5 8 3 9 22 10 4 11 21 12 20 13
REMARK SMILES IDX 2 14 1 15 23 16 12 18 13 19 14 20 15 21 16 22 17 23 18 24
REMARK SMILES IDX 19 25
REMARK H PARENT 7 5 23 17
REMARK Flexibility Score: inf
ROOT
ATOM      1  C   UNL     1      97.120  83.710  88.035  1.00  0.00     0.010 C 
ENDROOT
BRANCH   1   2
ATOM      2  C   UNL     1      96.242  82.453  87.803  1.00  0.00     0.100 C 
BRANCH   2   3
ATOM      3  C   UNL     1      94.876  82.565  88.348  1.00  0.00     0.220 C 
ATOM      4  N   UNL     1      93.850  82.936  87.533  1.00  0.00    -0.352 N 
ATOM      5  H   UNL     1      94.127  83.186  86.594  1.00  0.00     0.163 HD
ATOM      6  O   UNL     1      94.690  82.273  89.552  1.00  0.00    -0.275 OA
BRANCH   4   7
ATOM      7  C   UNL     1      92.474  82.990  87.905  1.00  0.00     0.151 C 
BRANCH   7   8
ATOM      8  C   UNL     1      91.618  82.120  87.057  1.00  0.00    -0.025 A 
ATOM      9  C   UNL     1      89.395  81.441  86.255  1.00  0.00     0.160 A 
ATOM     10  C   UNL     1      89.987  80.421  85.479  1.00  0.00     0.157 A 
ATOM     11  C   UNL     1      90.212  82.276  87.044  1.00  0.00     0.056 A 
ATOM     12  C   UNL     1      91.386  80.268  85.472  1.00  0.00     0.050 A 
ATOM     13  C   UNL     1      92.196  81.118  86.247  1.00  0.00     0.009 A 
BRANCH   9  14
ATOM     14  O   UNL     1      88.043  81.655  86.201  1.00  0.00    -0.493 OA
ATOM     15  C   UNL     1      87.637  82.600  85.197  1.00  0.00     0.278 C 
ENDBRANCH   9  14
BRANCH  10  16
ATOM     16  O   UNL     1      89.234  79.578  84.728  1.00  0.00    -0.504 OA
ATOM     17  H   UNL     1      88.445  79.333  85.218  1.00  0.00     0.293 HD
ENDBRANCH  10  16
ENDBRANCH   7   8
ENDBRANCH   4   7
ENDBRANCH   2   3
ENDBRANCH   1   2
BRANCH   1  18
ATOM     18  C   UNL     1      96.977  84.716  86.864  1.00  0.00     0.001 C 
BRANCH  18  19
ATOM     19  C   UNL     1      97.942  84.439  85.684  1.00  0.00     0.004 C 
BRANCH  19  20
ATOM     20  C   UNL     1      97.163  84.163  84.367  1.00  0.00     0.027 C 
BRANCH  20  21
ATOM     21  C   UNL     1      97.814  83.200  83.494  1.00  0.00    -0.031 C 
ATOM     22  C   UNL     1      97.914  83.388  82.166  1.00  0.00    -0.028 C 
BRANCH  22  23
ATOM     23  C   UNL     1      98.566  82.443  81.263  1.00  0.00     0.005 C 
ATOM     24  C   UNL     1      98.983  83.156  79.949  1.00  0.00     0.012 C 
ATOM     25  C   UNL     1      99.769  81.764  81.973  1.00  0.00     0.012 C 
ENDBRANCH  22  23
ENDBRANCH  20  21
ENDBRANCH  19  20
ENDBRANCH  18  19
ENDBRANCH   1  18
TORSDOF 11
ENDMDL
MODEL 7
REMARK VINA RESULT:    -5.440      3.405      5.544
REMARK INTER + INTRA:          -9.735
REMARK INTER:                  -9.107
REMARK INTRA:                  -0.628
REMARK UNBOUND:                -0.955
REMARK SMILES COc1cc(CNC(=O)CCCCC/C=C/C(C)C)ccc1O
REMARK SMILES IDX 11 1 10 2 8 3 7 4 9 6 6 7 5 8 3 9 22 10 4 11 21 12 20 13
REMARK SMILES IDX 2 14 1 15 23 16 12 18 13 19 14 20 15 21 16 22 17 23 18 24
REMARK SMILES IDX 19 25
REMARK H PARENT 7 5 23 17
REMARK Flexibility Score: inf
ROOT
ATOM      1  C   UNL     1      97.844  81.624  84.196  1.00  0.00     0.010 C 
ENDROOT
BRANCH   1   2
ATOM      2  C   UNL     1      97.038  82.260  85.358  1.00  0.00     0.100 C 
BRANCH   2   3
ATOM      3  C   UNL     1      96.286  81.286  86.171  1.00  0.00     0.220 C 
ATOM      4  N   UNL     1      95.185  81.688  86.863  1.00  0.00    -0.352 N 
ATOM      5  H   UNL     1      95.000  82.680  86.822  1.00  0.00     0.163 HD
ATOM      6  O   UNL     1      96.665  80.091  86.169  1.00  0.00    -0.275 OA
BRANCH   4   7
ATOM      7  C   UNL     1      94.315  80.835  87.606  1.00  0.00     0.151 C 
BRANCH   7   8
ATOM      8  C   UNL     1      93.044  80.550  86.890  1.00  0.00    -0.025 A 
ATOM      9  C   UNL     1      91.526  78.964  85.781  1.00  0.00     0.160 A 
ATOM     10  C   UNL     1      90.643  80.023  85.477  1.00  0.00     0.157 A 
ATOM     11  C   UNL     1      92.722  79.236  86.476  1.00  0.00     0.056 A 
ATOM     12  C   UNL     1      90.945  81.331  85.898  1.00  0.00     0.050 A 
ATOM     13  C   UNL     1      92.132  81.591  86.609  1.00  0.00     0.009 A 
BRANCH   9  14
ATOM     14  O   UNL     1      91.200  77.675  85.453  1.00  0.00    -0.493 OA
ATOM     15  C   UNL     1      91.898  76.679  86.219  1.00  0.00     0.278 C 
ENDBRANCH   9  14
BRANCH  10  16
ATOM     16  O   UNL     1      89.496  79.809  84.786  1.00  0.00    -0.504 OA
ATOM     17  H   UNL     1      89.604  80.119  83.883  1.00  0.00     0.293 HD
ENDBRANCH  10  16
ENDBRANCH   7   8
ENDBRANCH   4   7
ENDBRANCH   2   3
ENDBRANCH   1   2
BRANCH   1  18
ATOM     18  C   UNL     1      98.412  82.711  83.248  1.00  0.00     0.001 C 
BRANCH  18  19
ATOM     19  C   UNL     1      98.542  82.248  81.775  1.00  0.00     0.004 C 
BRANCH  19  20
ATOM     20  C   UNL     1      99.773  82.898  81.083  1.00  0.00     0.027 C 
BRANCH  20  21
ATOM     21  C   UNL     1      99.689  82.910  79.633  1.00  0.00    -0.031 C 
ATOM     22  C   UNL     1      98.587  83.322  78.980  1.00  0.00    -0.028 C 
BRANCH  22  23
ATOM     23  C   UNL     1      98.473  83.352  77.524  1.00  0.00     0.005 C 
ATOM     24  C   UNL     1      97.558  84.524  77.080  1.00  0.00     0.012 C 
ATOM     25  C   UNL     1      99.882  83.426  76.876  1.00  0.00     0.012 C 
ENDBRANCH  22  23
ENDBRANCH  20  21
ENDBRANCH  19  20
ENDBRANCH  18  19
ENDBRANCH   1  18
TORSDOF 11
ENDMDL
MODEL 8
REMARK VINA RESULT:    -5.363     33.765     35.913
REMARK INTER + INTRA:          -9.611
REMARK INTER:                  -8.149
REMARK INTRA:                  -1.461
REMARK UNBOUND:                -0.955
REMARK SMILES COc1cc(CNC(=O)CCCCC/C=C/C(C)C)ccc1O
REMARK SMILES IDX 11 1 10 2 8 3 7 4 9 6 6 7 5 8 3 9 22 10 4 11 21 12 20 13
REMARK SMILES IDX 2 14 1 15 23 16 12 18 13 19 14 20 15 21 16 22 17 23 18 24
REMARK SMILES IDX 19 25
REMARK H PARENT 7 5 23 17
REMARK Flexibility Score: inf
ROOT
ATOM      1  C   UNL     1      61.181  85.640  73.053  1.00  0.00     0.010 C 
ENDROOT
BRANCH   1   2
ATOM      2  C   UNL     1      60.707  84.183  73.290  1.00  0.00     0.100 C 
BRANCH   2   3
ATOM      3  C   UNL     1      61.719  83.318  73.923  1.00  0.00     0.220 C 
ATOM      4  N   UNL     1      62.878  83.859  74.388  1.00  0.00    -0.352 N 
ATOM      5  H   UNL     1      62.992  84.844  74.192  1.00  0.00     0.163 HD
ATOM      6  O   UNL     1      61.462  82.097  74.052  1.00  0.00    -0.275 OA
BRANCH   4   7
ATOM      7  C   UNL     1      63.893  83.156  75.104  1.00  0.00     0.151 C 
BRANCH   7   8
ATOM      8  C   UNL     1      64.014  83.606  76.515  1.00  0.00    -0.025 A 
ATOM      9  C   UNL     1      65.397  84.125  78.481  1.00  0.00     0.160 A 
ATOM     10  C   UNL     1      64.232  84.413  79.224  1.00  0.00     0.157 A 
ATOM     11  C   UNL     1      65.279  83.716  77.137  1.00  0.00     0.056 A 
ATOM     12  C   UNL     1      62.969  84.323  78.611  1.00  0.00     0.050 A 
ATOM     13  C   UNL     1      62.861  83.933  77.263  1.00  0.00     0.009 A 
BRANCH   9  14
ATOM     14  O   UNL     1      66.636  84.294  79.042  1.00  0.00    -0.493 OA
ATOM     15  C   UNL     1      67.523  85.120  78.269  1.00  0.00     0.278 C 
ENDBRANCH   9  14
BRANCH  10  16
ATOM     16  O   UNL     1      64.300  84.782  80.528  1.00  0.00    -0.504 OA
ATOM     17  H   UNL     1      65.074  84.382  80.933  1.00  0.00     0.293 HD
ENDBRANCH  10  16
ENDBRANCH   7   8
ENDBRANCH   4   7
ENDBRANCH   2   3
ENDBRANCH   1   2
BRANCH   1  18
ATOM     18  C   UNL     1      61.283  85.957  71.540  1.00  0.00     0.001 C 
BRANCH  18  19
ATOM     19  C   UNL     1      60.388  85.056  70.653  1.00  0.00     0.004 C 
BRANCH  19  20
ATOM     20  C   UNL     1      61.232  84.260  69.618  1.00  0.00     0.027 C 
BRANCH  20  21
ATOM     21  C   UNL     1      62.603  84.028  70.038  1.00  0.00    -0.031 C 
ATOM     22  C   UNL     1      63.001  82.865  70.582  1.00  0.00    -0.028 C 
BRANCH  22  23
ATOM     23  C   UNL     1      64.372  82.598  71.009  1.00  0.00     0.005 C 
ATOM     24  C   UNL     1      64.406  81.395  71.989  1.00  0.00     0.012 C 
ATOM     25  C   UNL     1      65.286  82.378  69.773  1.00  0.00     0.012 C 
ENDBRANCH  22  23
ENDBRANCH  20  21
ENDBRANCH  19  20
ENDBRANCH  18  19
ENDBRANCH   1  18
TORSDOF 11
ENDMDL
MODEL 9
REMARK VINA RESULT:    -5.156      4.008      8.471
REMARK INTER + INTRA:          -9.276
REMARK INTER:                  -7.489
REMARK INTRA:                  -1.787
REMARK UNBOUND:                -0.955
REMARK SMILES COc1cc(CNC(=O)CCCCC/C=C/C(C)C)ccc1O
REMARK SMILES IDX 11 1 10 2 8 3 7 4 9 6 6 7 5 8 3 9 22 10 4 11 21 12 20 13
REMARK SMILES IDX 2 14 1 15 23 16 12 18 13 19 14 20 15 21 16 22 17 23 18 24
REMARK SMILES IDX 19 25
REMARK H PARENT 7 5 23 17
REMARK Flexibility Score: inf
ROOT
ATOM      1  C   UNL     1      99.963  83.147  80.676  1.00  0.00     0.010 C 
ENDROOT
BRANCH   1   2
ATOM      2  C   UNL     1      98.415  83.107  80.589  1.00  0.00     0.100 C 
BRANCH   2   3
ATOM      3  C   UNL     1      97.880  83.448  79.259  1.00  0.00     0.220 C 
ATOM      4  N   UNL     1      98.734  83.725  78.235  1.00  0.00    -0.352 N 
ATOM      5  H   UNL     1      99.710  83.746  78.494  1.00  0.00     0.163 HD
ATOM      6  O   UNL     1      96.637  83.435  79.095  1.00  0.00    -0.275 OA
BRANCH   4   7
ATOM      7  C   UNL     1      98.354  83.974  76.882  1.00  0.00     0.151 C 
BRANCH   7   8
ATOM      8  C   UNL     1      99.519  84.028  75.962  1.00  0.00    -0.025 A 
ATOM      9  C   UNL     1     101.377  82.911  74.799  1.00  0.00     0.160 A 
ATOM     10  C   UNL     1     101.774  84.149  74.247  1.00  0.00     0.157 A 
ATOM     11  C   UNL     1     100.260  82.862  75.657  1.00  0.00     0.056 A 
ATOM     12  C   UNL     1     101.035  85.312  74.529  1.00  0.00     0.050 A 
ATOM     13  C   UNL     1      99.910  85.251  75.372  1.00  0.00     0.009 A 
BRANCH   9  14
ATOM     14  O   UNL     1     102.035  81.759  74.461  1.00  0.00    -0.493 OA
ATOM     15  C   UNL     1     101.275  80.870  73.627  1.00  0.00     0.278 C 
ENDBRANCH   9  14
BRANCH  10  16
ATOM     16  O   UNL     1     102.860  84.244  73.439  1.00  0.00    -0.504 OA
ATOM     17  H   UNL     1     103.634  83.920  73.905  1.00  0.00     0.293 HD
ENDBRANCH  10  16
ENDBRANCH   7   8
ENDBRANCH   4   7
ENDBRANCH   2   3
ENDBRANCH   1   2
BRANCH   1  18
ATOM     18  C   UNL     1     100.501  82.019  81.594  1.00  0.00     0.001 C 
BRANCH  18  19
ATOM     19  C   UNL     1     101.506  81.071  80.893  1.00  0.00     0.004 C 
BRANCH  19  20
ATOM     20  C   UNL     1     101.543  81.319  79.359  1.00  0.00     0.027 C 
BRANCH  20  21
ATOM     21  C   UNL     1     100.891  80.278  78.583  1.00  0.00    -0.031 C 
ATOM     22  C   UNL     1      99.552  80.171  78.506  1.00  0.00    -0.028 C 
BRANCH  22  23
ATOM     23  C   UNL     1      98.866  79.140  77.730  1.00  0.00     0.005 C 
ATOM     24  C   UNL     1      98.942  79.466  76.215  1.00  0.00     0.012 C 
ATOM     25  C   UNL     1      99.452  77.740  78.062  1.00  0.00     0.012 C 
ENDBRANCH  22  23
ENDBRANCH  20  21
ENDBRANCH  19  20
ENDBRANCH  18  19
ENDBRANCH   1  18
TORSDOF 11
ENDMDL
MODEL 10
REMARK VINA RESULT:    -5.091     25.108     27.652
REMARK INTER + INTRA:          -9.172
REMARK INTER:                  -7.931
REMARK INTRA:                  -1.241
REMARK UNBOUND:                -0.955
REMARK SMILES COc1cc(CNC(=O)CCCCC/C=C/C(C)C)ccc1O
REMARK SMILES IDX 11 1 10 2 8 3 7 4 9 6 6 7 5 8 3 9 22 10 4 11 21 12 20 13
REMARK SMILES IDX 2 14 1 15 23 16 12 18 13 19 14 20 15 21 16 22 17 23 18 24
REMARK SMILES IDX 19 25
REMARK H PARENT 7 5 23 17
REMARK Flexibility Score: inf
ROOT
ATOM      1  C   UNL     1      71.753  88.349  70.397  1.00  0.00     0.010 C 
ENDROOT
BRANCH   1   2
ATOM      2  C   UNL     1      70.938  87.039  70.552  1.00  0.00     0.100 C 
BRANCH   2   3
ATOM      3  C   UNL     1      71.562  85.865  69.916  1.00  0.00     0.220 C 
ATOM      4  N   UNL     1      72.333  86.025  68.804  1.00  0.00    -0.352 N 
ATOM      5  H   UNL     1      72.361  86.969  68.443  1.00  0.00     0.163 HD
ATOM      6  O   UNL     1      71.397  84.741  70.447  1.00  0.00    -0.275 OA
BRANCH   4   7
ATOM      7  C   UNL     1      73.070  84.993  68.150  1.00  0.00     0.151 C 
BRANCH   7   8
ATOM      8  C   UNL     1      74.538  85.145  68.317  1.00  0.00    -0.025 A 
ATOM      9  C   UNL     1      76.771  85.518  67.355  1.00  0.00     0.160 A 
ATOM     10  C   UNL     1      77.346  85.379  68.638  1.00  0.00     0.157 A 
ATOM     11  C   UNL     1      75.375  85.391  67.204  1.00  0.00     0.056 A 
ATOM     12  C   UNL     1      76.522  85.151  69.755  1.00  0.00     0.050 A 
ATOM     13  C   UNL     1      75.127  85.045  69.598  1.00  0.00     0.009 A 
BRANCH   9  14
ATOM     14  O   UNL     1      77.554  85.828  66.275  1.00  0.00    -0.493 OA
ATOM     15  C   UNL     1      76.859  85.800  65.018  1.00  0.00     0.278 C 
ENDBRANCH   9  14
BRANCH  10  16
ATOM     16  O   UNL     1      78.687  85.466  68.822  1.00  0.00    -0.504 OA
ATOM     17  H   UNL     1      79.133  84.881  68.205  1.00  0.00     0.293 HD
ENDBRANCH  10  16
ENDBRANCH   7   8
ENDBRANCH   4   7
ENDBRANCH   2   3
ENDBRANCH   1   2
BRANCH   1  18
ATOM     18  C   UNL     1      72.811  88.486  71.521  1.00  0.00     0.001 C 
BRANCH  18  19
ATOM     19  C   UNL     1      74.198  87.906  71.146  1.00  0.00     0.004 C 
BRANCH  19  20
ATOM     20  C   UNL     1      75.146  89.011  70.602  1.00  0.00     0.027 C 
BRANCH  20  21
ATOM     21  C   UNL     1      75.088  90.253  71.354  1.00  0.00    -0.031 C 
ATOM     22  C   UNL     1      75.896  91.294  71.087  1.00  0.00    -0.028 C 
BRANCH  22  23
ATOM     23  C   UNL     1      75.859  92.557  71.820  1.00  0.00     0.005 C 
ATOM     24  C   UNL     1      74.773  92.504  72.927  1.00  0.00     0.012 C 
ATOM     25  C   UNL     1      77.265  92.889  72.389  1.00  0.00     0.012 C 
ENDBRANCH  22  23
ENDBRANCH  20  21
ENDBRANCH  19  20
ENDBRANCH  18  19
ENDBRANCH   1  18
TORSDOF 11
ENDMDL
