MODEL 1
REMARK VINA RESULT:    -5.748      0.000      0.000
REMARK INTER + INTRA:          -9.975
REMARK INTER:                  -8.940
REMARK INTRA:                  -1.035
REMARK UNBOUND:                -1.035
REMARK SMILES CCCCC/C=C/C(=O)CCc1ccc(O)c(OC)c1
REMARK SMILES IDX 6 1 7 2 8 3 9 4 10 5 11 6 12 7 17 8 20 9 15 10 14 11 13 12
REMARK SMILES IDX 18 13 19 14 16 15 5 17 4 18 3 19 2 20 1 21
REMARK H PARENT 16 16
REMARK Flexibility Score: inf
ROOT
ATOM      1  C   UNL     1      92.682  95.251  77.896  1.00  0.00    -0.023 C 
ATOM      2  C   UNL     1      93.611  95.221  76.932  1.00  0.00     0.043 C 
ENDROOT
BRANCH   2   3
ATOM      3  C   UNL     1      94.118  96.494  76.351  1.00  0.00     0.155 C 
ATOM      4  O   UNL     1      93.481  97.122  75.508  1.00  0.00    -0.295 OA
BRANCH   3   5
ATOM      5  C   UNL     1      95.488  96.950  76.815  1.00  0.00     0.085 C 
BRANCH   5   6
ATOM      6  C   UNL     1      95.392  97.777  78.099  1.00  0.00     0.044 C 
BRANCH   6   7
ATOM      7  C   UNL     1      96.022  97.090  79.288  1.00  0.00    -0.044 A 
ATOM      8  C   UNL     1      95.893  95.473  81.057  1.00  0.00     0.160 A 
ATOM      9  C   UNL     1      95.311  96.107  79.959  1.00  0.00     0.054 A 
ATOM     10  C   UNL     1      97.177  95.830  81.469  1.00  0.00     0.157 A 
ATOM     11  C   UNL     1      97.879  96.822  80.784  1.00  0.00     0.050 A 
ATOM     12  C   UNL     1      97.297  97.456  79.686  1.00  0.00     0.008 A 
BRANCH   8  13
ATOM     13  O   UNL     1      95.197  94.506  81.718  1.00  0.00    -0.493 OA
ATOM     14  C   UNL     1      94.974  93.280  81.025  1.00  0.00     0.278 C 
ENDBRANCH   8  13
BRANCH  10  15
ATOM     15  O   UNL     1      97.755  95.218  82.540  1.00  0.00    -0.504 OA
ATOM     16  H   UNL     1      97.426  94.304  82.584  1.00  0.00     0.293 HD
ENDBRANCH  10  15
ENDBRANCH   6   7
ENDBRANCH   5   6
ENDBRANCH   3   5
ENDBRANCH   2   3
BRANCH   1  17
ATOM     17  C   UNL     1      92.119  94.013  78.531  1.00  0.00     0.027 C 
BRANCH  17  18
ATOM     18  C   UNL     1      90.592  93.929  78.437  1.00  0.00     0.004 C 
BRANCH  18  19
ATOM     19  C   UNL     1      89.961  95.087  77.657  1.00  0.00     0.000 C 
BRANCH  19  20
ATOM     20  C   UNL     1      89.418  94.612  76.308  1.00  0.00    -0.003 C 
ATOM     21  C   UNL     1      89.875  93.197  75.990  1.00  0.00     0.004 C 
ENDBRANCH  19  20
ENDBRANCH  18  19
ENDBRANCH  17  18
ENDBRANCH   1  17
TORSDOF 10
ENDMDL
MODEL 2
REMARK VINA RESULT:    -5.700      8.957     11.776
REMARK INTER + INTRA:          -9.901
REMARK INTER:                  -8.308
REMARK INTRA:                  -1.593
REMARK UNBOUND:                -1.035
REMARK SMILES CCCCC/C=C/C(=O)CCc1ccc(O)c(OC)c1
REMARK SMILES IDX 6 1 7 2 8 3 9 4 10 5 11 6 12 7 17 8 20 9 15 10 14 11 13 12
REMARK SMILES IDX 18 13 19 14 16 15 5 17 4 18 3 19 2 20 1 21
REMARK H PARENT 16 16
REMARK Flexibility Score: inf
ROOT
ATOM      1  C   UNL     1      88.971  99.811  67.934  1.00  0.00    -0.023 C 
ATOM      2  C   UNL     1      88.213  98.819  68.417  1.00  0.00     0.043 C 
ENDROOT
BRANCH   2   3
ATOM      3  C   UNL     1      88.786  97.455  68.572  1.00  0.00     0.155 C 
ATOM      4  O   UNL     1      88.406  96.509  67.885  1.00  0.00    -0.295 OA
BRANCH   3   5
ATOM      5  C   UNL     1      89.828  97.279  69.659  1.00  0.00     0.085 C 
BRANCH   5   6
ATOM      6  C   UNL     1      89.372  97.915  70.974  1.00  0.00     0.044 C 
BRANCH   6   7
ATOM      7  C   UNL     1      89.928  99.304  71.179  1.00  0.00    -0.044 A 
ATOM      8  C   UNL     1      91.801 100.805  71.212  1.00  0.00     0.160 A 
ATOM      9  C   UNL     1      91.288  99.521  71.023  1.00  0.00     0.054 A 
ATOM     10  C   UNL     1      90.948 101.854  71.554  1.00  0.00     0.157 A 
ATOM     11  C   UNL     1      89.581 101.619  71.707  1.00  0.00     0.050 A 
ATOM     12  C   UNL     1      89.068 100.336  71.518  1.00  0.00     0.008 A 
BRANCH   8  13
ATOM     13  O   UNL     1      93.137 101.020  71.060  1.00  0.00    -0.493 OA
ATOM     14  C   UNL     1      93.995 100.532  72.090  1.00  0.00     0.278 C 
ENDBRANCH   8  13
BRANCH  10  15
ATOM     15  O   UNL     1      91.437 103.111  71.741  1.00  0.00    -0.504 OA
ATOM     16  H   UNL     1      91.617 103.231  72.689  1.00  0.00     0.293 HD
ENDBRANCH  10  15
ENDBRANCH   6   7
ENDBRANCH   5   6
ENDBRANCH   3   5
ENDBRANCH   2   3
BRANCH   1  17
ATOM     17  C   UNL     1      88.467 101.213  67.747  1.00  0.00     0.027 C 
BRANCH  17  18
ATOM     18  C   UNL     1      89.585 102.219  67.453  1.00  0.00     0.004 C 
BRANCH  18  19
ATOM     19  C   UNL     1      90.993 101.647  67.645  1.00  0.00     0.000 C 
BRANCH  19  20
ATOM     20  C   UNL     1      91.974 102.733  68.087  1.00  0.00    -0.003 C 
ATOM     21  C   UNL     1      93.410 102.351  67.765  1.00  0.00     0.004 C 
ENDBRANCH  19  20
ENDBRANCH  18  19
ENDBRANCH  17  18
ENDBRANCH   1  17
TORSDOF 10
ENDMDL
MODEL 3
REMARK VINA RESULT:    -5.671     10.022     12.255
REMARK INTER + INTRA:          -9.856
REMARK INTER:                  -8.305
REMARK INTRA:                  -1.550
REMARK UNBOUND:                -1.035
REMARK SMILES CCCCC/C=C/C(=O)CCc1ccc(O)c(OC)c1
REMARK SMILES IDX 6 1 7 2 8 3 9 4 10 5 11 6 12 7 17 8 20 9 15 10 14 11 13 12
REMARK SMILES IDX 18 13 19 14 16 15 5 17 4 18 3 19 2 20 1 21
REMARK H PARENT 16 16
REMARK Flexibility Score: inf
ROOT
ATOM      1  C   UNL     1      89.146  99.813  67.894  1.00  0.00    -0.023 C 
ATOM      2  C   UNL     1      88.334  98.921  68.475  1.00  0.00     0.043 C 
ENDROOT
BRANCH   2   3
ATOM      3  C   UNL     1      88.824  97.543  68.753  1.00  0.00     0.155 C 
ATOM      4  O   UNL     1      88.488  96.583  68.062  1.00  0.00    -0.295 OA
BRANCH   3   5
ATOM      5  C   UNL     1      89.717  97.375  69.966  1.00  0.00     0.085 C 
BRANCH   5   6
ATOM      6  C   UNL     1      89.268  98.278  71.116  1.00  0.00     0.044 C 
BRANCH   6   7
ATOM      7  C   UNL     1      90.026  99.584  71.168  1.00  0.00    -0.044 A 
ATOM      8  C   UNL     1      90.061 101.946  71.589  1.00  0.00     0.160 A 
ATOM      9  C   UNL     1      89.360 100.740  71.541  1.00  0.00     0.054 A 
ATOM     10  C   UNL     1      91.416 101.980  71.262  1.00  0.00     0.157 A 
ATOM     11  C   UNL     1      92.072 100.806  70.887  1.00  0.00     0.050 A 
ATOM     12  C   UNL     1      91.371  99.601  70.839  1.00  0.00     0.008 A 
BRANCH   8  13
ATOM     13  O   UNL     1      89.409 103.085  71.957  1.00  0.00    -0.493 OA
ATOM     14  C   UNL     1      88.644 103.747  70.952  1.00  0.00     0.278 C 
ENDBRANCH   8  13
BRANCH  10  15
ATOM     15  O   UNL     1      92.110 103.151  71.306  1.00  0.00    -0.504 OA
ATOM     16  H   UNL     1      91.491 103.880  71.130  1.00  0.00     0.293 HD
ENDBRANCH  10  15
ENDBRANCH   6   7
ENDBRANCH   5   6
ENDBRANCH   3   5
ENDBRANCH   2   3
BRANCH   1  17
ATOM     17  C   UNL     1      88.728 101.220  67.581  1.00  0.00     0.027 C 
BRANCH  17  18
ATOM     18  C   UNL     1      89.860 102.238  67.758  1.00  0.00     0.004 C 
BRANCH  18  19
ATOM     19  C   UNL     1      91.231 101.713  67.321  1.00  0.00     0.000 C 
BRANCH  19  20
ATOM     20  C   UNL     1      91.653 102.320  65.982  1.00  0.00    -0.003 C 
ATOM     21  C   UNL     1      91.059 103.706  65.787  1.00  0.00     0.004 C 
ENDBRANCH  19  20
ENDBRANCH  18  19
ENDBRANCH  17  18
ENDBRANCH   1  17
TORSDOF 10
ENDMDL
MODEL 4
REMARK VINA RESULT:    -5.629     33.266     34.764
REMARK INTER + INTRA:          -9.791
REMARK INTER:                  -8.271
REMARK INTRA:                  -1.520
REMARK UNBOUND:                -1.035
REMARK SMILES CCCCC/C=C/C(=O)CCc1ccc(O)c(OC)c1
REMARK SMILES IDX 6 1 7 2 8 3 9 4 10 5 11 6 12 7 17 8 20 9 15 10 14 11 13 12
REMARK SMILES IDX 18 13 19 14 16 15 5 17 4 18 3 19 2 20 1 21
REMARK H PARENT 16 16
REMARK Flexibility Score: inf
ROOT
ATOM      1  C   UNL     1      63.160  83.311  70.324  1.00  0.00    -0.023 C 
ATOM      2  C   UNL     1      63.192  82.077  70.841  1.00  0.00     0.043 C 
ENDROOT
BRANCH   2   3
ATOM      3  C   UNL     1      64.309  81.678  71.741  1.00  0.00     0.155 C 
ATOM      4  O   UNL     1      65.486  81.804  71.409  1.00  0.00    -0.295 OA
BRANCH   3   5
ATOM      5  C   UNL     1      63.919  81.060  73.069  1.00  0.00     0.085 C 
BRANCH   5   6
ATOM      6  C   UNL     1      62.459  81.360  73.414  1.00  0.00     0.044 C 
BRANCH   6   7
ATOM      7  C   UNL     1      62.281  82.692  74.103  1.00  0.00    -0.044 A 
ATOM      8  C   UNL     1      62.874  84.216  75.859  1.00  0.00     0.160 A 
ATOM      9  C   UNL     1      63.040  82.985  75.224  1.00  0.00     0.054 A 
ATOM     10  C   UNL     1      61.952  85.138  75.365  1.00  0.00     0.157 A 
ATOM     11  C   UNL     1      61.195  84.828  74.234  1.00  0.00     0.050 A 
ATOM     12  C   UNL     1      61.360  83.597  73.599  1.00  0.00     0.008 A 
BRANCH   8  13
ATOM     13  O   UNL     1      63.620  84.506  76.962  1.00  0.00    -0.493 OA
ATOM     14  C   UNL     1      63.105  84.081  78.223  1.00  0.00     0.278 C 
ENDBRANCH   8  13
BRANCH  10  15
ATOM     15  O   UNL     1      61.782  86.343  75.975  1.00  0.00    -0.504 OA
ATOM     16  H   UNL     1      62.621  86.833  75.923  1.00  0.00     0.293 HD
ENDBRANCH  10  15
ENDBRANCH   6   7
ENDBRANCH   5   6
ENDBRANCH   3   5
ENDBRANCH   2   3
BRANCH   1  17
ATOM     17  C   UNL     1      62.070  83.789  69.409  1.00  0.00     0.027 C 
BRANCH  17  18
ATOM     18  C   UNL     1      61.724  85.268  69.608  1.00  0.00     0.004 C 
BRANCH  18  19
ATOM     19  C   UNL     1      60.538  85.499  70.550  1.00  0.00     0.000 C 
BRANCH  19  20
ATOM     20  C   UNL     1      59.361  84.592  70.189  1.00  0.00    -0.003 C 
ATOM     21  C   UNL     1      58.326  84.553  71.302  1.00  0.00     0.004 C 
ENDBRANCH  19  20
ENDBRANCH  18  19
ENDBRANCH  17  18
ENDBRANCH   1  17
TORSDOF 10
ENDMDL
MODEL 5
REMARK VINA RESULT:    -5.551     32.098     34.717
REMARK INTER + INTRA:          -9.668
REMARK INTER:                  -8.288
REMARK INTRA:                  -1.380
REMARK UNBOUND:                -1.035
REMARK SMILES CCCCC/C=C/C(=O)CCc1ccc(O)c(OC)c1
REMARK SMILES IDX 6 1 7 2 8 3 9 4 10 5 11 6 12 7 17 8 20 9 15 10 14 11 13 12
REMARK SMILES IDX 18 13 19 14 16 15 5 17 4 18 3 19 2 20 1 21
REMARK H PARENT 16 16
REMARK Flexibility Score: inf
ROOT
ATOM      1  C   UNL     1      61.832  83.723  69.685  1.00  0.00    -0.023 C 
ATOM      2  C   UNL     1      63.118  84.001  69.437  1.00  0.00     0.043 C 
ENDROOT
BRANCH   2   3
ATOM      3  C   UNL     1      64.061  82.904  69.090  1.00  0.00     0.155 C 
ATOM      4  O   UNL     1      64.734  82.927  68.062  1.00  0.00    -0.295 OA
BRANCH   3   5
ATOM      5  C   UNL     1      64.111  81.728  70.046  1.00  0.00     0.085 C 
BRANCH   5   6
ATOM      6  C   UNL     1      64.860  82.087  71.330  1.00  0.00     0.044 C 
BRANCH   6   7
ATOM      7  C   UNL     1      63.936  82.358  72.494  1.00  0.00    -0.044 A 
ATOM      8  C   UNL     1      63.253  83.761  74.317  1.00  0.00     0.160 A 
ATOM      9  C   UNL     1      64.107  83.511  73.243  1.00  0.00     0.054 A 
ATOM     10  C   UNL     1      62.240  82.854  74.628  1.00  0.00     0.157 A 
ATOM     11  C   UNL     1      62.080  81.697  73.865  1.00  0.00     0.050 A 
ATOM     12  C   UNL     1      62.935  81.447  72.791  1.00  0.00     0.008 A 
BRANCH   8  13
ATOM     13  O   UNL     1      63.419  84.894  75.055  1.00  0.00    -0.493 OA
ATOM     14  C   UNL     1      64.476  84.896  76.012  1.00  0.00     0.278 C 
ENDBRANCH   8  13
BRANCH  10  15
ATOM     15  O   UNL     1      61.399  83.087  75.675  1.00  0.00    -0.504 OA
ATOM     16  H   UNL     1      61.357  84.047  75.825  1.00  0.00     0.293 HD
ENDBRANCH  10  15
ENDBRANCH   6   7
ENDBRANCH   5   6
ENDBRANCH   3   5
ENDBRANCH   2   3
BRANCH   1  17
ATOM     17  C   UNL     1      60.819  84.772  70.041  1.00  0.00     0.027 C 
BRANCH  17  18
ATOM     18  C   UNL     1      60.367  84.700  71.504  1.00  0.00     0.004 C 
BRANCH  18  19
ATOM     19  C   UNL     1      58.902  85.094  71.713  1.00  0.00     0.000 C 
BRANCH  19  20
ATOM     20  C   UNL     1      58.778  86.250  72.708  1.00  0.00    -0.003 C 
ATOM     21  C   UNL     1      59.985  87.171  72.643  1.00  0.00     0.004 C 
ENDBRANCH  19  20
ENDBRANCH  18  19
ENDBRANCH  17  18
ENDBRANCH   1  17
TORSDOF 10
ENDMDL
MODEL 6
REMARK VINA RESULT:    -5.430     12.298     14.698
REMARK INTER + INTRA:          -9.481
REMARK INTER:                  -8.341
REMARK INTRA:                  -1.139
REMARK UNBOUND:                -1.035
REMARK SMILES CCCCC/C=C/C(=O)CCc1ccc(O)c(OC)c1
REMARK SMILES IDX 6 1 7 2 8 3 9 4 10 5 11 6 12 7 17 8 20 9 15 10 14 11 13 12
REMARK SMILES IDX 18 13 19 14 16 15 5 17 4 18 3 19 2 20 1 21
REMARK H PARENT 16 16
REMARK Flexibility Score: inf
ROOT
ATOM      1  C   UNL     1      99.949  82.435  81.667  1.00  0.00    -0.023 C 
ATOM      2  C   UNL     1      99.729  81.263  82.276  1.00  0.00     0.043 C 
ENDROOT
BRANCH   2   3
ATOM      3  C   UNL     1     100.212  81.048  83.667  1.00  0.00     0.155 C 
ATOM      4  O   UNL     1     101.392  81.202  83.976  1.00  0.00    -0.295 OA
BRANCH   3   5
ATOM      5  C   UNL     1      99.181  80.579  84.675  1.00  0.00     0.085 C 
BRANCH   5   6
ATOM      6  C   UNL     1      97.790  81.118  84.339  1.00  0.00     0.044 C 
BRANCH   6   7
ATOM      7  C   UNL     1      97.541  82.495  84.908  1.00  0.00    -0.044 A 
ATOM      8  C   UNL     1      97.337  83.950  86.806  1.00  0.00     0.160 A 
ATOM      9  C   UNL     1      97.566  82.677  86.281  1.00  0.00     0.054 A 
ATOM     10  C   UNL     1      97.084  85.022  85.951  1.00  0.00     0.157 A 
ATOM     11  C   UNL     1      97.061  84.822  84.570  1.00  0.00     0.050 A 
ATOM     12  C   UNL     1      97.291  83.550  84.045  1.00  0.00     0.008 A 
BRANCH   8  13
ATOM     13  O   UNL     1      97.361  84.132  88.156  1.00  0.00    -0.493 OA
ATOM     14  C   UNL     1      96.215  83.704  88.889  1.00  0.00     0.278 C 
ENDBRANCH   8  13
BRANCH  10  15
ATOM     15  O   UNL     1      96.859  86.269  86.451  1.00  0.00    -0.504 OA
ATOM     16  H   UNL     1      96.074  86.231  87.024  1.00  0.00     0.293 HD
ENDBRANCH  10  15
ENDBRANCH   6   7
ENDBRANCH   5   6
ENDBRANCH   3   5
ENDBRANCH   2   3
BRANCH   1  17
ATOM     17  C   UNL     1      99.495  82.730  80.267  1.00  0.00     0.027 C 
BRANCH  17  18
ATOM     18  C   UNL     1      98.106  83.374  80.207  1.00  0.00     0.004 C 
BRANCH  18  19
ATOM     19  C   UNL     1      97.338  83.060  78.919  1.00  0.00     0.000 C 
BRANCH  19  20
ATOM     20  C   UNL     1      97.532  84.165  77.879  1.00  0.00    -0.003 C 
ATOM     21  C   UNL     1      98.004  83.600  76.548  1.00  0.00     0.004 C 
ENDBRANCH  19  20
ENDBRANCH  18  19
ENDBRANCH  17  18
ENDBRANCH   1  17
TORSDOF 10
ENDMDL
MODEL 7
REMARK VINA RESULT:    -5.358     12.517     14.050
REMARK INTER + INTRA:          -9.369
REMARK INTER:                  -8.420
REMARK INTRA:                  -0.949
REMARK UNBOUND:                -1.035
REMARK SMILES CCCCC/C=C/C(=O)CCc1ccc(O)c(OC)c1
REMARK SMILES IDX 6 1 7 2 8 3 9 4 10 5 11 6 12 7 17 8 20 9 15 10 14 11 13 12
REMARK SMILES IDX 18 13 19 14 16 15 5 17 4 18 3 19 2 20 1 21
REMARK H PARENT 16 16
REMARK Flexibility Score: inf
ROOT
ATOM      1  C   UNL     1     100.013  83.344  76.489  1.00  0.00    -0.023 C 
ATOM      2  C   UNL     1      98.749  83.611  76.137  1.00  0.00     0.043 C 
ENDROOT
BRANCH   2   3
ATOM      3  C   UNL     1      97.760  84.014  77.173  1.00  0.00     0.155 C 
ATOM      4  O   UNL     1      97.247  85.131  77.182  1.00  0.00    -0.295 OA
BRANCH   3   5
ATOM      5  C   UNL     1      97.455  82.991  78.251  1.00  0.00     0.085 C 
BRANCH   5   6
ATOM      6  C   UNL     1      97.383  83.645  79.632  1.00  0.00     0.044 C 
BRANCH   6   7
ATOM      7  C   UNL     1      98.407  83.095  80.596  1.00  0.00    -0.044 A 
ATOM      8  C   UNL     1      99.082  82.600  82.845  1.00  0.00     0.160 A 
ATOM      9  C   UNL     1      98.136  83.108  81.955  1.00  0.00     0.054 A 
ATOM     10  C   UNL     1     100.287  82.086  82.365  1.00  0.00     0.157 A 
ATOM     11  C   UNL     1     100.545  82.081  80.994  1.00  0.00     0.050 A 
ATOM     12  C   UNL     1      99.599  82.589  80.104  1.00  0.00     0.008 A 
BRANCH   8  13
ATOM     13  O   UNL     1      98.818  82.612  84.182  1.00  0.00    -0.493 OA
ATOM     14  C   UNL     1      97.479  82.903  84.575  1.00  0.00     0.278 C 
ENDBRANCH   8  13
BRANCH  10  15
ATOM     15  O   UNL     1     101.218  81.587  83.224  1.00  0.00    -0.504 OA
ATOM     16  H   UNL     1     101.190  82.111  84.043  1.00  0.00     0.293 HD
ENDBRANCH  10  15
ENDBRANCH   6   7
ENDBRANCH   5   6
ENDBRANCH   3   5
ENDBRANCH   2   3
BRANCH   1  17
ATOM     17  C   UNL     1     101.069  82.931  75.506  1.00  0.00     0.027 C 
BRANCH  17  18
ATOM     18  C   UNL     1     102.317  83.820  75.554  1.00  0.00     0.004 C 
BRANCH  18  19
ATOM     19  C   UNL     1     102.024  85.303  75.305  1.00  0.00     0.000 C 
BRANCH  19  20
ATOM     20  C   UNL     1     101.213  85.497  74.023  1.00  0.00    -0.003 C 
ATOM     21  C   UNL     1     102.113  85.568  72.800  1.00  0.00     0.004 C 
ENDBRANCH  19  20
ENDBRANCH  18  19
ENDBRANCH  17  18
ENDBRANCH   1  17
TORSDOF 10
ENDMDL
MODEL 8
REMARK VINA RESULT:    -5.323     12.600     14.902
REMARK INTER + INTRA:          -9.314
REMARK INTER:                  -8.572
REMARK INTRA:                  -0.742
REMARK UNBOUND:                -1.035
REMARK SMILES CCCCC/C=C/C(=O)CCc1ccc(O)c(OC)c1
REMARK SMILES IDX 6 1 7 2 8 3 9 4 10 5 11 6 12 7 17 8 20 9 15 10 14 11 13 12
REMARK SMILES IDX 18 13 19 14 16 15 5 17 4 18 3 19 2 20 1 21
REMARK H PARENT 16 16
REMARK Flexibility Score: inf
ROOT
ATOM      1  C   UNL     1      97.341  83.845  84.349  1.00  0.00    -0.023 C 
ATOM      2  C   UNL     1      97.448  82.520  84.511  1.00  0.00     0.043 C 
ENDROOT
BRANCH   2   3
ATOM      3  C   UNL     1      98.179  81.707  83.501  1.00  0.00     0.155 C 
ATOM      4  O   UNL     1      98.190  80.478  83.543  1.00  0.00    -0.295 OA
BRANCH   3   5
ATOM      5  C   UNL     1      98.954  82.474  82.448  1.00  0.00     0.085 C 
BRANCH   5   6
ATOM      6  C   UNL     1      99.203  81.615  81.207  1.00  0.00     0.044 C 
BRANCH   6   7
ATOM      7  C   UNL     1      98.642  82.228  79.945  1.00  0.00    -0.044 A 
ATOM      8  C   UNL     1      98.413  82.215  77.557  1.00  0.00     0.160 A 
ATOM      9  C   UNL     1      98.932  81.648  78.721  1.00  0.00     0.054 A 
ATOM     10  C   UNL     1      97.613  83.354  77.632  1.00  0.00     0.157 A 
ATOM     11  C   UNL     1      97.331  83.928  78.872  1.00  0.00     0.050 A 
ATOM     12  C   UNL     1      97.849  83.361  80.037  1.00  0.00     0.008 A 
BRANCH   8  13
ATOM     13  O   UNL     1      98.697  81.646  76.351  1.00  0.00    -0.493 OA
ATOM     14  C   UNL     1      99.890  80.870  76.265  1.00  0.00     0.278 C 
ENDBRANCH   8  13
BRANCH  10  15
ATOM     15  O   UNL     1      97.101  83.917  76.502  1.00  0.00    -0.504 OA
ATOM     16  H   UNL     1      96.934  83.209  75.857  1.00  0.00     0.293 HD
ENDBRANCH  10  15
ENDBRANCH   6   7
ENDBRANCH   5   6
ENDBRANCH   3   5
ENDBRANCH   2   3
BRANCH   1  17
ATOM     17  C   UNL     1      96.621  84.734  85.321  1.00  0.00     0.027 C 
BRANCH  17  18
ATOM     18  C   UNL     1      96.545  84.145  86.734  1.00  0.00     0.004 C 
BRANCH  18  19
ATOM     19  C   UNL     1      95.125  83.762  87.163  1.00  0.00     0.000 C 
BRANCH  19  20
ATOM     20  C   UNL     1      94.305  85.002  87.526  1.00  0.00    -0.003 C 
ATOM     21  C   UNL     1      92.927  84.625  88.044  1.00  0.00     0.004 C 
ENDBRANCH  19  20
ENDBRANCH  18  19
ENDBRANCH  17  18
ENDBRANCH   1  17
TORSDOF 10
ENDMDL
MODEL 9
REMARK VINA RESULT:    -5.122     12.887     15.155
REMARK INTER + INTRA:          -9.002
REMARK INTER:                  -8.265
REMARK INTRA:                  -0.737
REMARK UNBOUND:                -1.035
REMARK SMILES CCCCC/C=C/C(=O)CCc1ccc(O)c(OC)c1
REMARK SMILES IDX 6 1 7 2 8 3 9 4 10 5 11 6 12 7 17 8 20 9 15 10 14 11 13 12
REMARK SMILES IDX 18 13 19 14 16 15 5 17 4 18 3 19 2 20 1 21
REMARK H PARENT 16 16
REMARK Flexibility Score: inf
ROOT
ATOM      1  C   UNL     1      98.107  82.080  83.573  1.00  0.00    -0.023 C 
ATOM      2  C   UNL     1      97.904  83.378  83.833  1.00  0.00     0.043 C 
ENDROOT
BRANCH   2   3
ATOM      3  C   UNL     1      96.971  83.779  84.920  1.00  0.00     0.155 C 
ATOM      4  O   UNL     1      96.913  84.936  85.331  1.00  0.00    -0.295 OA
BRANCH   3   5
ATOM      5  C   UNL     1      96.133  82.675  85.534  1.00  0.00     0.085 C 
BRANCH   5   6
ATOM      6  C   UNL     1      95.953  82.885  87.038  1.00  0.00     0.044 C 
BRANCH   6   7
ATOM      7  C   UNL     1      94.531  83.225  87.418  1.00  0.00    -0.044 A 
ATOM      8  C   UNL     1      92.174  82.847  87.180  1.00  0.00     0.160 A 
ATOM      9  C   UNL     1      93.486  82.532  86.829  1.00  0.00     0.054 A 
ATOM     10  C   UNL     1      91.923  83.851  88.115  1.00  0.00     0.157 A 
ATOM     11  C   UNL     1      92.986  84.541  88.700  1.00  0.00     0.050 A 
ATOM     12  C   UNL     1      94.299  84.225  88.348  1.00  0.00     0.008 A 
BRANCH   8  13
ATOM     13  O   UNL     1      91.144  82.167  86.602  1.00  0.00    -0.493 OA
ATOM     14  C   UNL     1      91.457  80.922  85.980  1.00  0.00     0.278 C 
ENDBRANCH   8  13
BRANCH  10  15
ATOM     15  O   UNL     1      90.646  84.167  88.467  1.00  0.00    -0.504 OA
ATOM     16  H   UNL     1      90.141  83.341  88.561  1.00  0.00     0.293 HD
ENDBRANCH  10  15
ENDBRANCH   6   7
ENDBRANCH   5   6
ENDBRANCH   3   5
ENDBRANCH   2   3
BRANCH   1  17
ATOM     17  C   UNL     1      99.031  81.594  82.494  1.00  0.00     0.027 C 
BRANCH  17  18
ATOM     18  C   UNL     1      99.292  82.643  81.408  1.00  0.00     0.004 C 
BRANCH  18  19
ATOM     19  C   UNL     1      99.053  82.128  79.985  1.00  0.00     0.000 C 
BRANCH  19  20
ATOM     20  C   UNL     1      98.515  83.236  79.080  1.00  0.00    -0.003 C 
ATOM     21  C   UNL     1      97.047  83.518  79.357  1.00  0.00     0.004 C 
ENDBRANCH  19  20
ENDBRANCH  18  19
ENDBRANCH  17  18
ENDBRANCH   1  17
TORSDOF 10
ENDMDL
MODEL 10
REMARK VINA RESULT:    -5.058      6.128      9.946
REMARK INTER + INTRA:          -8.903
REMARK INTER:                  -8.318
REMARK INTRA:                  -0.585
REMARK UNBOUND:                -1.035
REMARK SMILES CCCCC/C=C/C(=O)CCc1ccc(O)c(OC)c1
REMARK SMILES IDX 6 1 7 2 8 3 9 4 10 5 11 6 12 7 17 8 20 9 15 10 14 11 13 12
REMARK SMILES IDX 18 13 19 14 16 15 5 17 4 18 3 19 2 20 1 21
REMARK H PARENT 16 16
REMARK Flexibility Score: inf
ROOT
ATOM      1  C   UNL     1      93.288  97.876  75.650  1.00  0.00    -0.023 C 
ATOM      2  C   UNL     1      94.039  98.716  74.926  1.00  0.00     0.043 C 
ENDROOT
BRANCH   2   3
ATOM      3  C   UNL     1      93.419  99.919  74.308  1.00  0.00     0.155 C 
ATOM      4  O   UNL     1      93.860 101.049  74.503  1.00  0.00    -0.295 OA
BRANCH   3   5
ATOM      5  C   UNL     1      92.180  99.684  73.465  1.00  0.00     0.085 C 
BRANCH   5   6
ATOM      6  C   UNL     1      92.353 100.250  72.055  1.00  0.00     0.044 C 
BRANCH   6   7
ATOM      7  C   UNL     1      91.204  99.900  71.137  1.00  0.00    -0.044 A 
ATOM      8  C   UNL     1      89.820 100.435  69.252  1.00  0.00     0.160 A 
ATOM      9  C   UNL     1      90.880 100.758  70.099  1.00  0.00     0.054 A 
ATOM     10  C   UNL     1      89.098  99.259  69.454  1.00  0.00     0.157 A 
ATOM     11  C   UNL     1      89.437  98.405  70.505  1.00  0.00     0.050 A 
ATOM     12  C   UNL     1      90.497  98.729  71.352  1.00  0.00     0.008 A 
BRANCH   8  13
ATOM     13  O   UNL     1      89.499 101.277  68.230  1.00  0.00    -0.493 OA
ATOM     14  C   UNL     1      90.316 101.222  67.063  1.00  0.00     0.278 C 
ENDBRANCH   8  13
BRANCH  10  15
ATOM     15  O   UNL     1      88.061  98.932  68.633  1.00  0.00    -0.504 OA
ATOM     16  H   UNL     1      88.160  99.430  67.804  1.00  0.00     0.293 HD
ENDBRANCH  10  15
ENDBRANCH   6   7
ENDBRANCH   5   6
ENDBRANCH   3   5
ENDBRANCH   2   3
BRANCH   1  17
ATOM     17  C   UNL     1      93.837  96.642  76.306  1.00  0.00     0.027 C 
BRANCH  17  18
ATOM     18  C   UNL     1      92.774  95.566  76.549  1.00  0.00     0.004 C 
BRANCH  18  19
ATOM     19  C   UNL     1      91.879  95.851  77.760  1.00  0.00     0.000 C 
BRANCH  19  20
ATOM     20  C   UNL     1      90.460  95.328  77.531  1.00  0.00    -0.003 C 
ATOM     21  C   UNL     1      90.220  94.024  78.274  1.00  0.00     0.004 C 
ENDBRANCH  19  20
ENDBRANCH  18  19
ENDBRANCH  17  18
ENDBRANCH   1  17
TORSDOF 10
ENDMDL
