MODEL 1
REMARK VINA RESULT:    -6.220      0.000      0.000
REMARK INTER + INTRA:         -10.523
REMARK INTER:                 -10.038
REMARK INTRA:                  -0.484
REMARK UNBOUND:                -0.484
REMARK SMILES CCCCCCCCC(=O)NCc1ccc(O)c(OC)c1
REMARK SMILES IDX 7 1 6 2 5 3 4 4 3 5 2 6 1 7 8 8 9 9 10 10 11 11 12 13 13 14
REMARK SMILES IDX 21 15 14 16 18 17 15 18 16 19 19 20 20 21 17 22
REMARK H PARENT 11 12 17 23
REMARK Flexibility Score: inf
ROOT
ATOM      1  C   UNL     1      96.677  82.926  81.354  1.00  0.00     0.010 C 
ENDROOT
BRANCH   1   2
ATOM      2  C   UNL     1      97.793  82.335  80.446  1.00  0.00     0.001 C 
BRANCH   2   3
ATOM      3  C   UNL     1      98.131  83.267  79.246  1.00  0.00     0.000 C 
BRANCH   3   4
ATOM      4  C   UNL     1      97.464  82.836  77.909  1.00  0.00    -0.000 C 
BRANCH   4   5
ATOM      5  C   UNL     1      96.293  83.771  77.494  1.00  0.00    -0.000 C 
BRANCH   5   6
ATOM      6  C   UNL     1      96.705  84.789  76.396  1.00  0.00    -0.003 C 
ATOM      7  C   UNL     1      97.028  84.117  75.044  1.00  0.00     0.004 C 
ENDBRANCH   5   6
ENDBRANCH   4   5
ENDBRANCH   3   4
ENDBRANCH   2   3
ENDBRANCH   1   2
BRANCH   1   8
ATOM      8  C   UNL     1      96.748  82.448  82.831  1.00  0.00     0.100 C 
BRANCH   8   9
ATOM      9  C   UNL     1      95.578  82.923  83.610  1.00  0.00     0.220 C 
ATOM     10  O   UNL     1      95.556  84.122  83.978  1.00  0.00    -0.275 OA
ATOM     11  N   UNL     1      94.542  82.079  83.889  1.00  0.00    -0.352 N 
ATOM     12  H   UNL     1      94.702  81.119  83.623  1.00  0.00     0.163 HD
BRANCH  11  13
ATOM     13  C   UNL     1      93.304  82.451  84.504  1.00  0.00     0.151 C 
BRANCH  13  14
ATOM     14  C   UNL     1      92.274  81.378  84.478  1.00  0.00    -0.025 A 
ATOM     15  C   UNL     1      90.930  81.690  84.162  1.00  0.00     0.056 A 
ATOM     16  C   UNL     1      92.613  80.037  84.769  1.00  0.00     0.009 A 
ATOM     17  C   UNL     1      89.943  80.678  84.116  1.00  0.00     0.160 A 
ATOM     18  C   UNL     1      91.637  79.026  84.724  1.00  0.00     0.050 A 
ATOM     19  C   UNL     1      90.302  79.343  84.406  1.00  0.00     0.157 A 
BRANCH  17  20
ATOM     20  O   UNL     1      88.633  80.989  83.852  1.00  0.00    -0.493 OA
ATOM     21  C   UNL     1      88.052  81.927  84.775  1.00  0.00     0.278 C 
ENDBRANCH  17  20
BRANCH  19  22
ATOM     22  O   UNL     1      89.361  78.364  84.392  1.00  0.00    -0.504 OA
ATOM     23  H   UNL     1      89.717  77.572  84.801  1.00  0.00     0.293 HD
ENDBRANCH  19  22
ENDBRANCH  13  14
ENDBRANCH  11  13
ENDBRANCH   8   9
ENDBRANCH   1   8
TORSDOF 11
ENDMDL
MODEL 2
REMARK VINA RESULT:    -5.622      5.652     11.516
REMARK INTER + INTRA:          -9.557
REMARK INTER:                  -8.794
REMARK INTRA:                  -0.762
REMARK UNBOUND:                -0.484
REMARK SMILES CCCCCCCCC(=O)NCc1ccc(O)c(OC)c1
REMARK SMILES IDX 7 1 6 2 5 3 4 4 3 5 2 6 1 7 8 8 9 9 10 10 11 11 12 13 13 14
REMARK SMILES IDX 21 15 14 16 18 17 15 18 16 19 19 20 20 21 17 22
REMARK H PARENT 11 12 17 23
REMARK Flexibility Score: inf
ROOT
ATOM      1  C   UNL     1      98.103  82.200  78.073  1.00  0.00     0.010 C 
ENDROOT
BRANCH   1   2
ATOM      2  C   UNL     1      97.835  80.875  78.844  1.00  0.00     0.001 C 
BRANCH   2   3
ATOM      3  C   UNL     1      98.110  81.016  80.371  1.00  0.00     0.000 C 
BRANCH   3   4
ATOM      4  C   UNL     1      96.934  80.536  81.267  1.00  0.00    -0.000 C 
BRANCH   4   5
ATOM      5  C   UNL     1      96.637  81.511  82.442  1.00  0.00    -0.000 C 
BRANCH   5   6
ATOM      6  C   UNL     1      96.696  83.001  82.009  1.00  0.00    -0.003 C 
ATOM      7  C   UNL     1      95.989  83.944  83.007  1.00  0.00     0.004 C 
ENDBRANCH   5   6
ENDBRANCH   4   5
ENDBRANCH   3   4
ENDBRANCH   2   3
ENDBRANCH   1   2
BRANCH   1   8
ATOM      8  C   UNL     1      97.056  83.314  78.353  1.00  0.00     0.100 C 
BRANCH   8   9
ATOM      9  C   UNL     1      96.667  84.015  77.106  1.00  0.00     0.220 C 
ATOM     10  O   UNL     1      95.790  84.909  77.174  1.00  0.00    -0.275 OA
ATOM     11  N   UNL     1      97.274  83.710  75.921  1.00  0.00    -0.352 N 
ATOM     12  H   UNL     1      97.900  82.919  75.963  1.00  0.00     0.163 HD
BRANCH  11  13
ATOM     13  C   UNL     1      97.090  84.407  74.684  1.00  0.00     0.151 C 
BRANCH  13  14
ATOM     14  C   UNL     1      98.146  84.128  73.674  1.00  0.00    -0.025 A 
ATOM     15  C   UNL     1      99.120  85.109  73.372  1.00  0.00     0.056 A 
ATOM     16  C   UNL     1      98.194  82.887  72.998  1.00  0.00     0.009 A 
ATOM     17  C   UNL     1     100.139  84.851  72.426  1.00  0.00     0.160 A 
ATOM     18  C   UNL     1      99.206  82.624  72.057  1.00  0.00     0.050 A 
ATOM     19  C   UNL     1     100.174  83.604  71.763  1.00  0.00     0.157 A 
BRANCH  17  20
ATOM     20  O   UNL     1     101.057  85.818  72.104  1.00  0.00    -0.493 OA
ATOM     21  C   UNL     1     102.211  85.845  72.963  1.00  0.00     0.278 C 
ENDBRANCH  17  20
BRANCH  19  22
ATOM     22  O   UNL     1     101.130  83.350  70.834  1.00  0.00    -0.504 OA
ATOM     23  H   UNL     1     101.180  82.405  70.676  1.00  0.00     0.293 HD
ENDBRANCH  19  22
ENDBRANCH  13  14
ENDBRANCH  11  13
ENDBRANCH   8   9
ENDBRANCH   1   8
TORSDOF 11
ENDMDL
MODEL 3
REMARK VINA RESULT:    -5.499      7.971     11.968
REMARK INTER + INTRA:          -9.360
REMARK INTER:                  -7.996
REMARK INTRA:                  -1.364
REMARK UNBOUND:                -0.484
REMARK SMILES CCCCCCCCC(=O)NCc1ccc(O)c(OC)c1
REMARK SMILES IDX 7 1 6 2 5 3 4 4 3 5 2 6 1 7 8 8 9 9 10 10 11 11 12 13 13 14
REMARK SMILES IDX 21 15 14 16 18 17 15 18 16 19 19 20 20 21 17 22
REMARK H PARENT 11 12 17 23
REMARK Flexibility Score: inf
ROOT
ATOM      1  C   UNL     1      97.954  82.973  77.837  1.00  0.00     0.010 C 
ENDROOT
BRANCH   1   2
ATOM      2  C   UNL     1      97.781  81.558  77.213  1.00  0.00     0.001 C 
BRANCH   2   3
ATOM      3  C   UNL     1      99.108  81.019  76.602  1.00  0.00     0.000 C 
BRANCH   3   4
ATOM      4  C   UNL     1     100.380  81.746  77.123  1.00  0.00    -0.000 C 
BRANCH   4   5
ATOM      5  C   UNL     1     101.188  82.430  75.984  1.00  0.00    -0.000 C 
BRANCH   5   6
ATOM      6  C   UNL     1     102.718  82.205  76.121  1.00  0.00    -0.003 C 
ATOM      7  C   UNL     1     103.105  81.503  77.442  1.00  0.00     0.004 C 
ENDBRANCH   5   6
ENDBRANCH   4   5
ENDBRANCH   3   4
ENDBRANCH   2   3
ENDBRANCH   1   2
BRANCH   1   8
ATOM      8  C   UNL     1      96.853  83.986  77.413  1.00  0.00     0.100 C 
BRANCH   8   9
ATOM      9  C   UNL     1      97.070  84.471  76.029  1.00  0.00     0.220 C 
ATOM     10  O   UNL     1      96.078  84.876  75.377  1.00  0.00    -0.275 OA
ATOM     11  N   UNL     1      98.326  84.502  75.494  1.00  0.00    -0.352 N 
ATOM     12  H   UNL     1      99.036  84.074  76.070  1.00  0.00     0.163 HD
BRANCH  11  13
ATOM     13  C   UNL     1      98.683  85.075  74.232  1.00  0.00     0.151 C 
BRANCH  13  14
ATOM     14  C   UNL     1      99.014  84.069  73.187  1.00  0.00    -0.025 A 
ATOM     15  C   UNL     1     100.106  84.285  72.312  1.00  0.00     0.056 A 
ATOM     16  C   UNL     1      98.249  82.888  73.046  1.00  0.00     0.009 A 
ATOM     17  C   UNL     1     100.443  83.330  71.325  1.00  0.00     0.160 A 
ATOM     18  C   UNL     1      98.581  81.934  72.068  1.00  0.00     0.050 A 
ATOM     19  C   UNL     1      99.670  82.154  71.202  1.00  0.00     0.157 A 
BRANCH  17  20
ATOM     20  O   UNL     1     101.475  83.560  70.451  1.00  0.00    -0.493 OA
ATOM     21  C   UNL     1     101.606  84.933  70.043  1.00  0.00     0.278 C 
ENDBRANCH  17  20
BRANCH  19  22
ATOM     22  O   UNL     1      99.965  81.239  70.243  1.00  0.00    -0.504 OA
ATOM     23  H   UNL     1     100.771  80.775  70.481  1.00  0.00     0.293 HD
ENDBRANCH  19  22
ENDBRANCH  13  14
ENDBRANCH  11  13
ENDBRANCH   8   9
ENDBRANCH   1   8
TORSDOF 11
ENDMDL
MODEL 4
REMARK VINA RESULT:    -5.292     13.542     15.967
REMARK INTER + INTRA:          -9.024
REMARK INTER:                  -8.011
REMARK INTRA:                  -1.013
REMARK UNBOUND:                -0.484
REMARK SMILES CCCCCCCCC(=O)NCc1ccc(O)c(OC)c1
REMARK SMILES IDX 7 1 6 2 5 3 4 4 3 5 2 6 1 7 8 8 9 9 10 10 11 11 12 13 13 14
REMARK SMILES IDX 21 15 14 16 18 17 15 18 16 19 19 20 20 21 17 22
REMARK H PARENT 11 12 17 23
REMARK Flexibility Score: inf
ROOT
ATOM      1  C   UNL     1      89.190  72.325  68.639  1.00  0.00     0.010 C 
ENDROOT
BRANCH   1   2
ATOM      2  C   UNL     1      87.908  72.097  67.786  1.00  0.00     0.001 C 
BRANCH   2   3
ATOM      3  C   UNL     1      87.399  73.412  67.127  1.00  0.00     0.000 C 
BRANCH   3   4
ATOM      4  C   UNL     1      87.323  73.347  65.575  1.00  0.00    -0.000 C 
BRANCH   4   5
ATOM      5  C   UNL     1      88.332  72.331  64.967  1.00  0.00    -0.000 C 
BRANCH   5   6
ATOM      6  C   UNL     1      89.472  73.024  64.174  1.00  0.00    -0.003 C 
ATOM      7  C   UNL     1      89.579  74.535  64.475  1.00  0.00     0.004 C 
ENDBRANCH   5   6
ENDBRANCH   4   5
ENDBRANCH   3   4
ENDBRANCH   2   3
ENDBRANCH   1   2
BRANCH   1   8
ATOM      8  C   UNL     1      90.183  73.349  68.022  1.00  0.00     0.100 C 
BRANCH   8   9
ATOM      9  C   UNL     1      91.264  73.694  68.976  1.00  0.00     0.220 C 
ATOM     10  O   UNL     1      91.621  72.828  69.810  1.00  0.00    -0.275 OA
ATOM     11  N   UNL     1      91.873  74.915  68.923  1.00  0.00    -0.352 N 
ATOM     12  H   UNL     1      91.451  75.564  68.274  1.00  0.00     0.163 HD
BRANCH  11  13
ATOM     13  C   UNL     1      93.015  75.314  69.688  1.00  0.00     0.151 C 
BRANCH  13  14
ATOM     14  C   UNL     1      92.678  76.094  70.909  1.00  0.00    -0.025 A 
ATOM     15  C   UNL     1      92.923  75.549  72.192  1.00  0.00     0.056 A 
ATOM     16  C   UNL     1      92.106  77.383  70.813  1.00  0.00     0.009 A 
ATOM     17  C   UNL     1      92.624  76.285  73.361  1.00  0.00     0.160 A 
ATOM     18  C   UNL     1      91.808  78.121  71.972  1.00  0.00     0.050 A 
ATOM     19  C   UNL     1      92.057  77.575  73.245  1.00  0.00     0.157 A 
BRANCH  17  20
ATOM     20  O   UNL     1      92.823  75.739  74.604  1.00  0.00    -0.493 OA
ATOM     21  C   UNL     1      92.259  74.426  74.767  1.00  0.00     0.278 C 
ENDBRANCH  17  20
BRANCH  19  22
ATOM     22  O   UNL     1      91.739  78.284  74.359  1.00  0.00    -0.504 OA
ATOM     23  H   UNL     1      91.462  79.168  74.107  1.00  0.00     0.293 HD
ENDBRANCH  19  22
ENDBRANCH  13  14
ENDBRANCH  11  13
ENDBRANCH   8   9
ENDBRANCH   1   8
TORSDOF 11
ENDMDL
MODEL 5
REMARK VINA RESULT:    -5.265      5.062      7.146
REMARK INTER + INTRA:          -8.981
REMARK INTER:                  -8.450
REMARK INTRA:                  -0.531
REMARK UNBOUND:                -0.484
REMARK SMILES CCCCCCCCC(=O)NCc1ccc(O)c(OC)c1
REMARK SMILES IDX 7 1 6 2 5 3 4 4 3 5 2 6 1 7 8 8 9 9 10 10 11 11 12 13 13 14
REMARK SMILES IDX 21 15 14 16 18 17 15 18 16 19 19 20 20 21 17 22
REMARK H PARENT 11 12 17 23
REMARK Flexibility Score: inf
ROOT
ATOM      1  C   UNL     1      92.412  75.219  81.051  1.00  0.00     0.010 C 
ENDROOT
BRANCH   1   2
ATOM      2  C   UNL     1      91.142  74.628  80.374  1.00  0.00     0.001 C 
BRANCH   2   3
ATOM      3  C   UNL     1      90.782  75.365  79.051  1.00  0.00     0.000 C 
BRANCH   3   4
ATOM      4  C   UNL     1      90.326  74.415  77.907  1.00  0.00    -0.000 C 
BRANCH   4   5
ATOM      5  C   UNL     1      90.628  74.989  76.494  1.00  0.00    -0.000 C 
BRANCH   5   6
ATOM      6  C   UNL     1      90.560  76.539  76.453  1.00  0.00    -0.003 C 
ATOM      7  C   UNL     1      90.162  77.086  75.065  1.00  0.00     0.004 C 
ENDBRANCH   5   6
ENDBRANCH   4   5
ENDBRANCH   3   4
ENDBRANCH   2   3
ENDBRANCH   1   2
BRANCH   1   8
ATOM      8  C   UNL     1      92.445  75.039  82.594  1.00  0.00     0.100 C 
BRANCH   8   9
ATOM      9  C   UNL     1      93.160  76.158  83.253  1.00  0.00     0.220 C 
ATOM     10  O   UNL     1      94.364  76.352  82.956  1.00  0.00    -0.275 OA
ATOM     11  N   UNL     1      92.512  76.971  84.138  1.00  0.00    -0.352 N 
ATOM     12  H   UNL     1      91.576  76.673  84.370  1.00  0.00     0.163 HD
BRANCH  11  13
ATOM     13  C   UNL     1      93.048  78.159  84.729  1.00  0.00     0.151 C 
BRANCH  13  14
ATOM     14  C   UNL     1      92.208  79.368  84.515  1.00  0.00    -0.025 A 
ATOM     15  C   UNL     1      92.683  80.643  84.905  1.00  0.00     0.056 A 
ATOM     16  C   UNL     1      90.926  79.267  83.927  1.00  0.00     0.009 A 
ATOM     17  C   UNL     1      91.903  81.803  84.692  1.00  0.00     0.160 A 
ATOM     18  C   UNL     1      90.146  80.417  83.712  1.00  0.00     0.050 A 
ATOM     19  C   UNL     1      90.626  81.683  84.099  1.00  0.00     0.157 A 
BRANCH  17  20
ATOM     20  O   UNL     1      92.347  83.033  85.109  1.00  0.00    -0.493 OA
ATOM     21  C   UNL     1      93.769  83.214  84.996  1.00  0.00     0.278 C 
ENDBRANCH  17  20
BRANCH  19  22
ATOM     22  O   UNL     1      89.853  82.784  83.913  1.00  0.00    -0.504 OA
ATOM     23  H   UNL     1      90.346  83.439  83.412  1.00  0.00     0.293 HD
ENDBRANCH  19  22
ENDBRANCH  13  14
ENDBRANCH  11  13
ENDBRANCH   8   9
ENDBRANCH   1   8
TORSDOF 11
ENDMDL
MODEL 6
REMARK VINA RESULT:    -5.191      2.703      8.460
REMARK INTER + INTRA:          -8.861
REMARK INTER:                  -8.167
REMARK INTRA:                  -0.695
REMARK UNBOUND:                -0.484
REMARK SMILES CCCCCCCCC(=O)NCc1ccc(O)c(OC)c1
REMARK SMILES IDX 7 1 6 2 5 3 4 4 3 5 2 6 1 7 8 8 9 9 10 10 11 11 12 13 13 14
REMARK SMILES IDX 21 15 14 16 18 17 15 18 16 19 19 20 20 21 17 22
REMARK H PARENT 11 12 17 23
REMARK Flexibility Score: inf
ROOT
ATOM      1  C   UNL     1      91.610  81.524  84.893  1.00  0.00     0.010 C 
ENDROOT
BRANCH   1   2
ATOM      2  C   UNL     1      90.310  81.818  84.089  1.00  0.00     0.001 C 
BRANCH   2   3
ATOM      3  C   UNL     1      89.139  80.877  84.498  1.00  0.00     0.000 C 
BRANCH   3   4
ATOM      4  C   UNL     1      87.912  80.953  83.545  1.00  0.00    -0.000 C 
BRANCH   4   5
ATOM      5  C   UNL     1      86.730  81.761  84.152  1.00  0.00    -0.000 C 
BRANCH   5   6
ATOM      6  C   UNL     1      86.881  83.291  83.936  1.00  0.00    -0.003 C 
ATOM      7  C   UNL     1      87.205  84.052  85.240  1.00  0.00     0.004 C 
ENDBRANCH   5   6
ENDBRANCH   4   5
ENDBRANCH   3   4
ENDBRANCH   2   3
ENDBRANCH   1   2
BRANCH   1   8
ATOM      8  C   UNL     1      92.844  82.338  84.415  1.00  0.00     0.100 C 
BRANCH   8   9
ATOM      9  C   UNL     1      94.093  81.548  84.539  1.00  0.00     0.220 C 
ATOM     10  O   UNL     1      94.011  80.365  84.946  1.00  0.00    -0.275 OA
ATOM     11  N   UNL     1      95.296  82.093  84.190  1.00  0.00    -0.352 N 
ATOM     12  H   UNL     1      95.258  83.075  83.960  1.00  0.00     0.163 HD
BRANCH  11  13
ATOM     13  C   UNL     1      96.543  81.395  84.131  1.00  0.00     0.151 C 
BRANCH  13  14
ATOM     14  C   UNL     1      96.870  80.860  82.782  1.00  0.00    -0.025 A 
ATOM     15  C   UNL     1      96.966  81.734  81.673  1.00  0.00     0.056 A 
ATOM     16  C   UNL     1      97.085  79.477  82.582  1.00  0.00     0.009 A 
ATOM     17  C   UNL     1      97.293  81.242  80.389  1.00  0.00     0.160 A 
ATOM     18  C   UNL     1      97.411  78.982  81.306  1.00  0.00     0.050 A 
ATOM     19  C   UNL     1      97.508  79.858  80.208  1.00  0.00     0.157 A 
BRANCH  17  20
ATOM     20  O   UNL     1      97.344  82.086  79.307  1.00  0.00    -0.493 OA
ATOM     21  C   UNL     1      98.083  83.297  79.540  1.00  0.00     0.278 C 
ENDBRANCH  17  20
BRANCH  19  22
ATOM     22  O   UNL     1      97.797  79.366  78.976  1.00  0.00    -0.504 OA
ATOM     23  H   UNL     1      97.086  78.788  78.688  1.00  0.00     0.293 HD
ENDBRANCH  19  22
ENDBRANCH  13  14
ENDBRANCH  11  13
ENDBRANCH   8   9
ENDBRANCH   1   8
TORSDOF 11
ENDMDL
MODEL 7
REMARK VINA RESULT:    -5.152     14.656     17.849
REMARK INTER + INTRA:          -8.798
REMARK INTER:                  -7.892
REMARK INTRA:                  -0.906
REMARK UNBOUND:                -0.484
REMARK SMILES CCCCCCCCC(=O)NCc1ccc(O)c(OC)c1
REMARK SMILES IDX 7 1 6 2 5 3 4 4 3 5 2 6 1 7 8 8 9 9 10 10 11 11 12 13 13 14
REMARK SMILES IDX 21 15 14 16 18 17 15 18 16 19 19 20 20 21 17 22
REMARK H PARENT 11 12 17 23
REMARK Flexibility Score: inf
ROOT
ATOM      1  C   UNL     1      93.273  99.586  71.998  1.00  0.00     0.010 C 
ENDROOT
BRANCH   1   2
ATOM      2  C   UNL     1      94.235  99.151  70.855  1.00  0.00     0.001 C 
BRANCH   2   3
ATOM      3  C   UNL     1      95.167 100.312  70.397  1.00  0.00     0.000 C 
BRANCH   3   4
ATOM      4  C   UNL     1      94.476 101.335  69.452  1.00  0.00    -0.000 C 
BRANCH   4   5
ATOM      5  C   UNL     1      93.767 100.655  68.246  1.00  0.00    -0.000 C 
BRANCH   5   6
ATOM      6  C   UNL     1      92.307 101.147  68.058  1.00  0.00    -0.003 C 
ATOM      7  C   UNL     1      91.283 100.304  68.850  1.00  0.00     0.004 C 
ENDBRANCH   5   6
ENDBRANCH   4   5
ENDBRANCH   3   4
ENDBRANCH   2   3
ENDBRANCH   1   2
BRANCH   1   8
ATOM      8  C   UNL     1      93.973  99.772  73.373  1.00  0.00     0.100 C 
BRANCH   8   9
ATOM      9  C   UNL     1      94.609  98.512  73.830  1.00  0.00     0.220 C 
ATOM     10  O   UNL     1      95.851  98.501  74.002  1.00  0.00    -0.275 OA
ATOM     11  N   UNL     1      93.851  97.405  74.083  1.00  0.00    -0.352 N 
ATOM     12  H   UNL     1      92.879  97.497  73.830  1.00  0.00     0.163 HD
BRANCH  11  13
ATOM     13  C   UNL     1      94.324  96.183  74.659  1.00  0.00     0.151 C 
BRANCH  13  14
ATOM     14  C   UNL     1      93.338  95.518  75.551  1.00  0.00    -0.025 A 
ATOM     15  C   UNL     1      92.173  94.923  75.009  1.00  0.00     0.056 A 
ATOM     16  C   UNL     1      93.540  95.469  76.950  1.00  0.00     0.009 A 
ATOM     17  C   UNL     1      91.235  94.273  75.843  1.00  0.00     0.160 A 
ATOM     18  C   UNL     1      92.612  94.823  77.785  1.00  0.00     0.050 A 
ATOM     19  C   UNL     1      91.457  94.231  77.238  1.00  0.00     0.157 A 
BRANCH  17  20
ATOM     20  O   UNL     1      90.087  93.734  75.320  1.00  0.00    -0.493 OA
ATOM     21  C   UNL     1      90.265  92.443  74.712  1.00  0.00     0.278 C 
ENDBRANCH  17  20
BRANCH  19  22
ATOM     22  O   UNL     1      90.553  93.633  78.056  1.00  0.00    -0.504 OA
ATOM     23  H   UNL     1      89.746  93.456  77.566  1.00  0.00     0.293 HD
ENDBRANCH  19  22
ENDBRANCH  13  14
ENDBRANCH  11  13
ENDBRANCH   8   9
ENDBRANCH   1   8
TORSDOF 11
ENDMDL
MODEL 8
REMARK VINA RESULT:    -5.083      5.427     11.441
REMARK INTER + INTRA:          -8.688
REMARK INTER:                  -8.172
REMARK INTRA:                  -0.516
REMARK UNBOUND:                -0.484
REMARK SMILES CCCCCCCCC(=O)NCc1ccc(O)c(OC)c1
REMARK SMILES IDX 7 1 6 2 5 3 4 4 3 5 2 6 1 7 8 8 9 9 10 10 11 11 12 13 13 14
REMARK SMILES IDX 21 15 14 16 18 17 15 18 16 19 19 20 20 21 17 22
REMARK H PARENT 11 12 17 23
REMARK Flexibility Score: inf
ROOT
ATOM      1  C   UNL     1      97.643  83.009  79.551  1.00  0.00     0.010 C 
ENDROOT
BRANCH   1   2
ATOM      2  C   UNL     1      97.067  82.666  80.955  1.00  0.00     0.001 C 
BRANCH   2   3
ATOM      3  C   UNL     1      97.436  81.222  81.407  1.00  0.00     0.000 C 
BRANCH   3   4
ATOM      4  C   UNL     1      96.447  80.617  82.443  1.00  0.00    -0.000 C 
BRANCH   4   5
ATOM      5  C   UNL     1      95.890  81.680  83.432  1.00  0.00    -0.000 C 
BRANCH   5   6
ATOM      6  C   UNL     1      96.938  82.114  84.492  1.00  0.00    -0.003 C 
ATOM      7  C   UNL     1      96.929  83.636  84.756  1.00  0.00     0.004 C 
ENDBRANCH   5   6
ENDBRANCH   4   5
ENDBRANCH   3   4
ENDBRANCH   2   3
ENDBRANCH   1   2
BRANCH   1   8
ATOM      8  C   UNL     1      96.616  83.675  78.594  1.00  0.00     0.100 C 
BRANCH   8   9
ATOM      9  C   UNL     1      96.926  83.376  77.176  1.00  0.00     0.220 C 
ATOM     10  O   UNL     1      97.142  82.183  76.853  1.00  0.00    -0.275 OA
ATOM     11  N   UNL     1      96.945  84.373  76.243  1.00  0.00    -0.352 N 
ATOM     12  H   UNL     1      96.844  85.303  76.625  1.00  0.00     0.163 HD
BRANCH  11  13
ATOM     13  C   UNL     1      97.090  84.195  74.831  1.00  0.00     0.151 C 
BRANCH  13  14
ATOM     14  C   UNL     1      98.504  84.154  74.372  1.00  0.00    -0.025 A 
ATOM     15  C   UNL     1      98.803  83.979  73.000  1.00  0.00     0.056 A 
ATOM     16  C   UNL     1      99.570  84.283  75.292  1.00  0.00     0.009 A 
ATOM     17  C   UNL     1     100.142  83.955  72.546  1.00  0.00     0.160 A 
ATOM     18  C   UNL     1     100.904  84.261  74.847  1.00  0.00     0.050 A 
ATOM     19  C   UNL     1     101.194  84.090  73.480  1.00  0.00     0.157 A 
BRANCH  17  20
ATOM     20  O   UNL     1     100.430  83.744  71.222  1.00  0.00    -0.493 OA
ATOM     21  C   UNL     1     100.239  82.386  70.787  1.00  0.00     0.278 C 
ENDBRANCH  17  20
BRANCH  19  22
ATOM     22  O   UNL     1     102.486  84.043  73.064  1.00  0.00    -0.504 OA
ATOM     23  H   UNL     1     102.631  84.714  72.393  1.00  0.00     0.293 HD
ENDBRANCH  19  22
ENDBRANCH  13  14
ENDBRANCH  11  13
ENDBRANCH   8   9
ENDBRANCH   1   8
TORSDOF 11
ENDMDL
MODEL 9
REMARK VINA RESULT:    -5.051      5.685      8.001
REMARK INTER + INTRA:          -8.636
REMARK INTER:                  -7.896
REMARK INTRA:                  -0.740
REMARK UNBOUND:                -0.484
REMARK SMILES CCCCCCCCC(=O)NCc1ccc(O)c(OC)c1
REMARK SMILES IDX 7 1 6 2 5 3 4 4 3 5 2 6 1 7 8 8 9 9 10 10 11 11 12 13 13 14
REMARK SMILES IDX 21 15 14 16 18 17 15 18 16 19 19 20 20 21 17 22
REMARK H PARENT 11 12 17 23
REMARK Flexibility Score: inf
ROOT
ATOM      1  C   UNL     1      91.838  73.545  81.383  1.00  0.00     0.010 C 
ENDROOT
BRANCH   1   2
ATOM      2  C   UNL     1      90.660  72.574  81.083  1.00  0.00     0.001 C 
BRANCH   2   3
ATOM      3  C   UNL     1      89.920  72.935  79.762  1.00  0.00     0.000 C 
BRANCH   3   4
ATOM      4  C   UNL     1      90.706  72.548  78.477  1.00  0.00    -0.000 C 
BRANCH   4   5
ATOM      5  C   UNL     1      90.788  73.713  77.450  1.00  0.00    -0.000 C 
BRANCH   5   6
ATOM      6  C   UNL     1      90.270  75.057  78.031  1.00  0.00    -0.003 C 
ATOM      7  C   UNL     1      90.877  76.289  77.324  1.00  0.00     0.004 C 
ENDBRANCH   5   6
ENDBRANCH   4   5
ENDBRANCH   3   4
ENDBRANCH   2   3
ENDBRANCH   1   2
BRANCH   1   8
ATOM      8  C   UNL     1      91.480  75.046  81.191  1.00  0.00     0.100 C 
BRANCH   8   9
ATOM      9  C   UNL     1      91.864  75.848  82.377  1.00  0.00     0.220 C 
ATOM     10  O   UNL     1      93.080  75.930  82.672  1.00  0.00    -0.275 OA
ATOM     11  N   UNL     1      90.914  76.502  83.109  1.00  0.00    -0.352 N 
ATOM     12  H   UNL     1      89.964  76.298  82.837  1.00  0.00     0.163 HD
BRANCH  11  13
ATOM     13  C   UNL     1      91.168  77.415  84.182  1.00  0.00     0.151 C 
BRANCH  13  14
ATOM     14  C   UNL     1      90.235  78.573  84.219  1.00  0.00    -0.025 A 
ATOM     15  C   UNL     1      90.738  79.895  84.156  1.00  0.00     0.056 A 
ATOM     16  C   UNL     1      88.839  78.378  84.322  1.00  0.00     0.009 A 
ATOM     17  C   UNL     1      89.863  81.005  84.173  1.00  0.00     0.160 A 
ATOM     18  C   UNL     1      87.963  79.478  84.338  1.00  0.00     0.050 A 
ATOM     19  C   UNL     1      88.469  80.791  84.272  1.00  0.00     0.157 A 
BRANCH  17  20
ATOM     20  O   UNL     1      90.354  82.286  84.155  1.00  0.00    -0.493 OA
ATOM     21  C   UNL     1      91.665  82.422  84.731  1.00  0.00     0.278 C 
ENDBRANCH  17  20
BRANCH  19  22
ATOM     22  O   UNL     1      87.617  81.847  84.317  1.00  0.00    -0.504 OA
ATOM     23  H   UNL     1      87.997  82.585  83.834  1.00  0.00     0.293 HD
ENDBRANCH  19  22
ENDBRANCH  13  14
ENDBRANCH  11  13
ENDBRANCH   8   9
ENDBRANCH   1   8
TORSDOF 11
ENDMDL
MODEL 10
REMARK VINA RESULT:    -4.987      3.546      4.672
REMARK INTER + INTRA:          -8.533
REMARK INTER:                  -7.990
REMARK INTRA:                  -0.543
REMARK UNBOUND:                -0.484
REMARK SMILES CCCCCCCCC(=O)NCc1ccc(O)c(OC)c1
REMARK SMILES IDX 7 1 6 2 5 3 4 4 3 5 2 6 1 7 8 8 9 9 10 10 11 11 12 13 13 14
REMARK SMILES IDX 21 15 14 16 18 17 15 18 16 19 19 20 20 21 17 22
REMARK H PARENT 11 12 17 23
REMARK Flexibility Score: inf
ROOT
ATOM      1  C   UNL     1      96.672  82.983  81.433  1.00  0.00     0.010 C 
ENDROOT
BRANCH   1   2
ATOM      2  C   UNL     1      97.938  82.456  80.699  1.00  0.00     0.001 C 
BRANCH   2   3
ATOM      3  C   UNL     1      98.261  83.279  79.416  1.00  0.00     0.000 C 
BRANCH   3   4
ATOM      4  C   UNL     1      97.535  82.762  78.142  1.00  0.00    -0.000 C 
BRANCH   4   5
ATOM      5  C   UNL     1      97.675  83.735  76.936  1.00  0.00    -0.000 C 
BRANCH   5   6
ATOM      6  C   UNL     1      98.867  83.368  76.011  1.00  0.00    -0.003 C 
ATOM      7  C   UNL     1      98.981  81.850  75.752  1.00  0.00     0.004 C 
ENDBRANCH   5   6
ENDBRANCH   4   5
ENDBRANCH   3   4
ENDBRANCH   2   3
ENDBRANCH   1   2
BRANCH   1   8
ATOM      8  C   UNL     1      96.603  82.586  82.934  1.00  0.00     0.100 C 
BRANCH   8   9
ATOM      9  C   UNL     1      95.513  83.307  83.634  1.00  0.00     0.220 C 
ATOM     10  O   UNL     1      95.504  84.561  83.589  1.00  0.00    -0.275 OA
ATOM     11  N   UNL     1      94.531  82.617  84.284  1.00  0.00    -0.352 N 
ATOM     12  H   UNL     1      94.682  81.620  84.332  1.00  0.00     0.163 HD
BRANCH  11  13
ATOM     13  C   UNL     1      93.358  83.188  84.872  1.00  0.00     0.151 C 
BRANCH  13  14
ATOM     14  C   UNL     1      93.550  83.647  86.274  1.00  0.00    -0.025 A 
ATOM     15  C   UNL     1      93.020  84.890  86.695  1.00  0.00     0.056 A 
ATOM     16  C   UNL     1      94.265  82.859  87.205  1.00  0.00     0.009 A 
ATOM     17  C   UNL     1      93.180  85.332  88.029  1.00  0.00     0.160 A 
ATOM     18  C   UNL     1      94.427  83.293  88.533  1.00  0.00     0.050 A 
ATOM     19  C   UNL     1      93.894  84.529  88.947  1.00  0.00     0.157 A 
BRANCH  17  20
ATOM     20  O   UNL     1      92.701  86.556  88.424  1.00  0.00    -0.493 OA
ATOM     21  C   UNL     1      93.547  87.662  88.066  1.00  0.00     0.278 C 
ENDBRANCH  17  20
BRANCH  19  22
ATOM     22  O   UNL     1      94.079  84.951  90.224  1.00  0.00    -0.504 OA
ATOM     23  H   UNL     1      94.270  84.196  90.786  1.00  0.00     0.293 HD
ENDBRANCH  19  22
ENDBRANCH  13  14
ENDBRANCH  11  13
ENDBRANCH   8   9
ENDBRANCH   1   8
TORSDOF 11
ENDMDL
