MODEL 1
REMARK VINA RESULT:    -7.881      0.000      0.000
REMARK INTER + INTRA:          -9.629
REMARK INTER:                  -9.263
REMARK INTRA:                  -0.365
REMARK UNBOUND:                -0.365
REMARK SMILES O=C(/C=C/C=C/c1ccc2c(c1)OCO2)N1CCCCC1
REMARK SMILES IDX 3 1 4 2 2 3 1 4 16 5 17 6 21 7 18 8 20 9 19 10 5 11 6 12
REMARK SMILES IDX 7 13 12 14 8 15 11 16 9 17 13 18 10 19 14 20 15 21
REMARK H PARENT
REMARK Flexibility Score: inf
ROOT
ATOM      1  C   UNL     1      94.996  97.239  77.885  1.00  0.00     0.071 C 
ATOM      2  C   UNL     1      93.716  97.286  77.522  1.00  0.00     0.006 C 
ENDROOT
BRANCH   1   3
ATOM      3  C   UNL     1      95.762  98.502  77.893  1.00  0.00     0.246 C 
ATOM      4  O   UNL     1      95.996  99.032  76.806  1.00  0.00    -0.270 OA
ATOM      5  N   UNL     1      96.173  99.005  79.126  1.00  0.00    -0.339 N 
ATOM      6  C   UNL     1      96.940 100.253  79.165  1.00  0.00     0.120 C 
ATOM      7  C   UNL     1      95.952  98.378  80.438  1.00  0.00     0.120 C 
ATOM      8  C   UNL     1      96.310 101.265  80.117  1.00  0.00     0.022 C 
ATOM      9  C   UNL     1      95.324  99.363  81.423  1.00  0.00     0.022 C 
ATOM     10  C   UNL     1      96.119 100.663  81.505  1.00  0.00     0.004 C 
ENDBRANCH   1   3
BRANCH   2  11
ATOM     11  C   UNL     1      92.884  96.102  77.483  1.00  0.00     0.001 C 
ATOM     12  C   UNL     1      92.364  95.616  76.343  1.00  0.00     0.008 C 
BRANCH  12  13
ATOM     13  C   UNL     1      91.507  94.423  76.248  1.00  0.00    -0.022 A 
ATOM     14  C   UNL     1      91.394  93.767  75.029  1.00  0.00     0.058 A 
ATOM     15  C   UNL     1      90.829  93.982  77.388  1.00  0.00     0.012 A 
ATOM     16  C   UNL     1      90.580  92.654  74.990  1.00  0.00     0.166 A 
ATOM     17  C   UNL     1      90.011  92.853  77.319  1.00  0.00     0.051 A 
ATOM     18  O   UNL     1      90.339  91.880  73.896  1.00  0.00    -0.454 OA
ATOM     19  C   UNL     1      89.906  92.209  76.104  1.00  0.00     0.165 A 
ATOM     20  C   UNL     1      89.439  90.898  74.448  1.00  0.00     0.468 C 
ATOM     21  O   UNL     1      89.160  91.100  75.848  1.00  0.00    -0.454 OA
ENDBRANCH  12  13
ENDBRANCH   2  11
TORSDOF 3
ENDMDL
MODEL 2
REMARK VINA RESULT:    -7.593     13.162     15.230
REMARK INTER + INTRA:          -9.290
REMARK INTER:                  -8.915
REMARK INTRA:                  -0.375
REMARK UNBOUND:                -0.365
REMARK SMILES O=C(/C=C/C=C/c1ccc2c(c1)OCO2)N1CCCCC1
REMARK SMILES IDX 3 1 4 2 2 3 1 4 16 5 17 6 21 7 18 8 20 9 19 10 5 11 6 12
REMARK SMILES IDX 7 13 12 14 8 15 11 16 9 17 13 18 10 19 14 20 15 21
REMARK H PARENT
REMARK Flexibility Score: inf
ROOT
ATOM      1  C   UNL     1      97.453  83.803  76.787  1.00  0.00     0.071 C 
ATOM      2  C   UNL     1      96.389  84.003  77.563  1.00  0.00     0.006 C 
ENDROOT
BRANCH   1   3
ATOM      3  C   UNL     1      97.415  84.327  75.407  1.00  0.00     0.246 C 
ATOM      4  O   UNL     1      96.327  84.709  74.974  1.00  0.00    -0.270 OA
ATOM      5  N   UNL     1      98.608  84.349  74.687  1.00  0.00    -0.339 N 
ATOM      6  C   UNL     1      98.601  84.859  73.313  1.00  0.00     0.120 C 
ATOM      7  C   UNL     1      99.914  83.861  75.155  1.00  0.00     0.120 C 
ATOM      8  C   UNL     1      99.654  85.944  73.115  1.00  0.00     0.022 C 
ATOM      9  C   UNL     1     101.000  84.921  74.969  1.00  0.00     0.022 C 
ATOM     10  C   UNL     1     101.034  85.450  73.538  1.00  0.00     0.004 C 
ENDBRANCH   1   3
BRANCH   2  11
ATOM     11  C   UNL     1      96.333  83.527  78.929  1.00  0.00     0.001 C 
ATOM     12  C   UNL     1      97.147  82.568  79.398  1.00  0.00     0.008 C 
BRANCH  12  13
ATOM     13  C   UNL     1      97.127  82.042  80.774  1.00  0.00    -0.022 A 
ATOM     14  C   UNL     1      97.104  82.933  81.838  1.00  0.00     0.058 A 
ATOM     15  C   UNL     1      97.131  80.659  80.970  1.00  0.00     0.012 A 
ATOM     16  C   UNL     1      97.086  82.393  83.107  1.00  0.00     0.166 A 
ATOM     17  C   UNL     1      97.112  80.139  82.266  1.00  0.00     0.051 A 
ATOM     18  O   UNL     1      97.064  83.095  84.273  1.00  0.00    -0.454 OA
ATOM     19  C   UNL     1      97.089  81.033  83.316  1.00  0.00     0.165 A 
ATOM     20  C   UNL     1      97.054  82.024  85.239  1.00  0.00     0.468 C 
ATOM     21  O   UNL     1      97.070  80.713  84.639  1.00  0.00    -0.454 OA
ENDBRANCH  12  13
ENDBRANCH   2  11
TORSDOF 3
ENDMDL
MODEL 3
REMARK VINA RESULT:    -7.511      3.328      9.167
REMARK INTER + INTRA:          -9.193
REMARK INTER:                  -8.874
REMARK INTRA:                  -0.320
REMARK UNBOUND:                -0.365
REMARK SMILES O=C(/C=C/C=C/c1ccc2c(c1)OCO2)N1CCCCC1
REMARK SMILES IDX 3 1 4 2 2 3 1 4 16 5 17 6 21 7 18 8 20 9 19 10 5 11 6 12
REMARK SMILES IDX 7 13 12 14 8 15 11 16 9 17 13 18 10 19 14 20 15 21
REMARK H PARENT
REMARK Flexibility Score: inf
ROOT
ATOM      1  C   UNL     1      92.088  95.087  76.932  1.00  0.00     0.071 C 
ATOM      2  C   UNL     1      93.412  95.105  77.068  1.00  0.00     0.006 C 
ENDROOT
BRANCH   1   3
ATOM      3  C   UNL     1      91.529  94.686  75.626  1.00  0.00     0.246 C 
ATOM      4  O   UNL     1      92.004  95.211  74.618  1.00  0.00    -0.270 OA
ATOM      5  N   UNL     1      90.499  93.747  75.621  1.00  0.00    -0.339 N 
ATOM      6  C   UNL     1      89.920  93.333  74.339  1.00  0.00     0.120 C 
ATOM      7  C   UNL     1      89.876  93.134  76.803  1.00  0.00     0.120 C 
ATOM      8  C   UNL     1      89.923  91.816  74.191  1.00  0.00     0.022 C 
ATOM      9  C   UNL     1      89.856  91.610  76.690  1.00  0.00     0.022 C 
ATOM     10  C   UNL     1      89.232  91.149  75.376  1.00  0.00     0.004 C 
ENDBRANCH   1   3
BRANCH   2  11
ATOM     11  C   UNL     1      94.054  95.484  78.309  1.00  0.00     0.001 C 
ATOM     12  C   UNL     1      95.182  96.211  78.352  1.00  0.00     0.008 C 
BRANCH  12  13
ATOM     13  C   UNL     1      95.879  96.617  79.584  1.00  0.00    -0.022 A 
ATOM     14  C   UNL     1      96.594  95.666  80.300  1.00  0.00     0.058 A 
ATOM     15  C   UNL     1      95.802  97.949  79.998  1.00  0.00     0.012 A 
ATOM     16  C   UNL     1      97.231  96.095  81.447  1.00  0.00     0.166 A 
ATOM     17  C   UNL     1      96.456  98.355  81.164  1.00  0.00     0.051 A 
ATOM     18  O   UNL     1      97.976  95.320  82.282  1.00  0.00    -0.454 OA
ATOM     19  C   UNL     1      97.164  97.403  81.867  1.00  0.00     0.165 A 
ATOM     20  C   UNL     1      98.370  96.288  83.276  1.00  0.00     0.468 C 
ATOM     21  O   UNL     1      97.858  97.612  83.019  1.00  0.00    -0.454 OA
ENDBRANCH  12  13
ENDBRANCH   2  11
TORSDOF 3
ENDMDL
MODEL 4
REMARK VINA RESULT:    -7.292     13.465     15.623
REMARK INTER + INTRA:          -8.936
REMARK INTER:                  -8.545
REMARK INTRA:                  -0.391
REMARK UNBOUND:                -0.365
REMARK SMILES O=C(/C=C/C=C/c1ccc2c(c1)OCO2)N1CCCCC1
REMARK SMILES IDX 3 1 4 2 2 3 1 4 16 5 17 6 21 7 18 8 20 9 19 10 5 11 6 12
REMARK SMILES IDX 7 13 12 14 8 15 11 16 9 17 13 18 10 19 14 20 15 21
REMARK H PARENT
REMARK Flexibility Score: inf
ROOT
ATOM      1  C   UNL     1      96.019  82.487  83.188  1.00  0.00     0.071 C 
ATOM      2  C   UNL     1      97.256  82.292  82.733  1.00  0.00     0.006 C 
ENDROOT
BRANCH   1   3
ATOM      3  C   UNL     1      95.815  82.523  84.650  1.00  0.00     0.246 C 
ATOM      4  O   UNL     1      96.536  83.274  85.308  1.00  0.00    -0.270 OA
ATOM      5  N   UNL     1      94.825  81.702  85.188  1.00  0.00    -0.339 N 
ATOM      6  C   UNL     1      94.602  81.711  86.637  1.00  0.00     0.120 C 
ATOM      7  C   UNL     1      93.977  80.761  84.442  1.00  0.00     0.120 C 
ATOM      8  C   UNL     1      93.137  81.965  86.974  1.00  0.00     0.022 C 
ATOM      9  C   UNL     1      92.497  80.981  84.756  1.00  0.00     0.022 C 
ATOM     10  C   UNL     1      92.231  80.967  86.258  1.00  0.00     0.004 C 
ENDBRANCH   1   3
BRANCH   2  11
ATOM     11  C   UNL     1      97.556  82.242  81.318  1.00  0.00     0.001 C 
ATOM     12  C   UNL     1      97.026  83.100  80.432  1.00  0.00     0.008 C 
BRANCH  12  13
ATOM     13  C   UNL     1      97.290  83.089  78.983  1.00  0.00    -0.022 A 
ATOM     14  C   UNL     1      96.547  83.918  78.154  1.00  0.00     0.058 A 
ATOM     15  C   UNL     1      98.283  82.242  78.482  1.00  0.00     0.012 A 
ATOM     16  C   UNL     1      96.831  83.872  76.805  1.00  0.00     0.166 A 
ATOM     17  C   UNL     1      98.549  82.216  77.112  1.00  0.00     0.051 A 
ATOM     18  O   UNL     1      96.216  84.602  75.835  1.00  0.00    -0.454 OA
ATOM     19  C   UNL     1      97.806  83.044  76.297  1.00  0.00     0.165 A 
ATOM     20  C   UNL     1      96.913  84.141  74.660  1.00  0.00     0.468 C 
ATOM     21  O   UNL     1      97.923  83.152  74.946  1.00  0.00    -0.454 OA
ENDBRANCH  12  13
ENDBRANCH   2  11
TORSDOF 3
ENDMDL
MODEL 5
REMARK VINA RESULT:    -7.265     15.394     16.494
REMARK INTER + INTRA:          -8.905
REMARK INTER:                  -8.574
REMARK INTRA:                  -0.331
REMARK UNBOUND:                -0.365
REMARK SMILES O=C(/C=C/C=C/c1ccc2c(c1)OCO2)N1CCCCC1
REMARK SMILES IDX 3 1 4 2 2 3 1 4 16 5 17 6 21 7 18 8 20 9 19 10 5 11 6 12
REMARK SMILES IDX 7 13 12 14 8 15 11 16 9 17 13 18 10 19 14 20 15 21
REMARK H PARENT
REMARK Flexibility Score: inf
ROOT
ATOM      1  C   UNL     1      94.834  82.092  84.316  1.00  0.00     0.071 C 
ATOM      2  C   UNL     1      93.841  81.232  84.538  1.00  0.00     0.006 C 
ENDROOT
BRANCH   1   3
ATOM      3  C   UNL     1      96.218  81.580  84.357  1.00  0.00     0.246 C 
ATOM      4  O   UNL     1      96.527  80.852  85.302  1.00  0.00    -0.270 OA
ATOM      5  N   UNL     1      97.082  81.958  83.331  1.00  0.00    -0.339 N 
ATOM      6  C   UNL     1      98.464  81.470  83.348  1.00  0.00     0.120 C 
ATOM      7  C   UNL     1      96.762  82.859  82.214  1.00  0.00     0.120 C 
ATOM      8  C   UNL     1      98.835  80.802  82.028  1.00  0.00     0.022 C 
ATOM      9  C   UNL     1      97.124  82.226  80.870  1.00  0.00     0.022 C 
ATOM     10  C   UNL     1      98.568  81.733  80.850  1.00  0.00     0.004 C 
ENDBRANCH   1   3
BRANCH   2  11
ATOM     11  C   UNL     1      92.452  81.639  84.518  1.00  0.00     0.001 C 
ATOM     12  C   UNL     1      91.440  80.764  84.405  1.00  0.00     0.008 C 
BRANCH  12  13
ATOM     13  C   UNL     1      90.012  81.124  84.371  1.00  0.00    -0.022 A 
ATOM     14  C   UNL     1      89.596  82.295  84.989  1.00  0.00     0.058 A 
ATOM     15  C   UNL     1      89.115  80.275  83.718  1.00  0.00     0.012 A 
ATOM     16  C   UNL     1      88.249  82.590  84.930  1.00  0.00     0.166 A 
ATOM     17  C   UNL     1      87.757  80.598  83.674  1.00  0.00     0.051 A 
ATOM     18  O   UNL     1      87.647  83.684  85.472  1.00  0.00    -0.454 OA
ATOM     19  C   UNL     1      87.354  81.764  84.291  1.00  0.00     0.165 A 
ATOM     20  C   UNL     1      86.273  83.453  85.102  1.00  0.00     0.468 C 
ATOM     21  O   UNL     1      86.079  82.237  84.351  1.00  0.00    -0.454 OA
ENDBRANCH  12  13
ENDBRANCH   2  11
TORSDOF 3
ENDMDL
MODEL 6
REMARK VINA RESULT:    -7.198     13.283     15.469
REMARK INTER + INTRA:          -8.826
REMARK INTER:                  -8.476
REMARK INTRA:                  -0.349
REMARK UNBOUND:                -0.365
REMARK SMILES O=C(/C=C/C=C/c1ccc2c(c1)OCO2)N1CCCCC1
REMARK SMILES IDX 3 1 4 2 2 3 1 4 16 5 17 6 21 7 18 8 20 9 19 10 5 11 6 12
REMARK SMILES IDX 7 13 12 14 8 15 11 16 9 17 13 18 10 19 14 20 15 21
REMARK H PARENT
REMARK Flexibility Score: inf
ROOT
ATOM      1  C   UNL     1      96.362  81.668  82.632  1.00  0.00     0.071 C 
ATOM      2  C   UNL     1      96.671  82.938  82.378  1.00  0.00     0.006 C 
ENDROOT
BRANCH   1   3
ATOM      3  C   UNL     1      96.304  81.235  84.042  1.00  0.00     0.246 C 
ATOM      4  O   UNL     1      97.324  80.744  84.529  1.00  0.00    -0.270 OA
ATOM      5  N   UNL     1      95.101  81.405  84.725  1.00  0.00    -0.339 N 
ATOM      6  C   UNL     1      95.012  80.980  86.125  1.00  0.00     0.120 C 
ATOM      7  C   UNL     1      93.853  81.944  84.165  1.00  0.00     0.120 C 
ATOM      8  C   UNL     1      94.494  82.104  87.017  1.00  0.00     0.022 C 
ATOM      9  C   UNL     1      93.299  83.073  85.035  1.00  0.00     0.022 C 
ATOM     10  C   UNL     1      93.168  82.649  86.495  1.00  0.00     0.004 C 
ENDBRANCH   1   3
BRANCH   2  11
ATOM     11  C   UNL     1      96.753  83.455  81.029  1.00  0.00     0.001 C 
ATOM     12  C   UNL     1      97.230  82.734  80.002  1.00  0.00     0.008 C 
BRANCH  12  13
ATOM     13  C   UNL     1      97.343  83.213  78.613  1.00  0.00    -0.022 A 
ATOM     14  C   UNL     1      98.503  82.947  77.899  1.00  0.00     0.058 A 
ATOM     15  C   UNL     1      96.277  83.922  78.053  1.00  0.00     0.012 A 
ATOM     16  C   UNL     1      98.561  83.416  76.603  1.00  0.00     0.166 A 
ATOM     17  C   UNL     1      96.363  84.386  76.738  1.00  0.00     0.051 A 
ATOM     18  O   UNL     1      99.606  83.260  75.744  1.00  0.00    -0.454 OA
ATOM     19  C   UNL     1      97.520  84.116  76.037  1.00  0.00     0.165 A 
ATOM     20  C   UNL     1      99.105  83.941  74.575  1.00  0.00     0.468 C 
ATOM     21  O   UNL     1      97.782  84.486  74.754  1.00  0.00    -0.454 OA
ENDBRANCH  12  13
ENDBRANCH   2  11
TORSDOF 3
ENDMDL
MODEL 7
REMARK VINA RESULT:    -7.139      2.770      3.637
REMARK INTER + INTRA:          -8.757
REMARK INTER:                  -8.422
REMARK INTRA:                  -0.335
REMARK UNBOUND:                -0.365
REMARK SMILES O=C(/C=C/C=C/c1ccc2c(c1)OCO2)N1CCCCC1
REMARK SMILES IDX 3 1 4 2 2 3 1 4 16 5 17 6 21 7 18 8 20 9 19 10 5 11 6 12
REMARK SMILES IDX 7 13 12 14 8 15 11 16 9 17 13 18 10 19 14 20 15 21
REMARK H PARENT
REMARK Flexibility Score: inf
ROOT
ATOM      1  C   UNL     1      96.257  97.056  80.086  1.00  0.00     0.071 C 
ATOM      2  C   UNL     1      96.417  96.597  78.846  1.00  0.00     0.006 C 
ENDROOT
BRANCH   1   3
ATOM      3  C   UNL     1      97.330  97.890  80.661  1.00  0.00     0.246 C 
ATOM      4  O   UNL     1      97.337  99.088  80.373  1.00  0.00    -0.270 OA
ATOM      5  N   UNL     1      98.265  97.268  81.487  1.00  0.00    -0.339 N 
ATOM      6  C   UNL     1      99.346  98.069  82.069  1.00  0.00     0.120 C 
ATOM      7  C   UNL     1      98.316  95.836  81.817  1.00  0.00     0.120 C 
ATOM      8  C   UNL     1      99.417  97.895  83.582  1.00  0.00     0.022 C 
ATOM      9  C   UNL     1      98.391  95.619  83.328  1.00  0.00     0.022 C 
ATOM     10  C   UNL     1      99.527  96.420  83.957  1.00  0.00     0.004 C 
ENDBRANCH   1   3
BRANCH   2  11
ATOM     11  C   UNL     1      95.421  95.771  78.197  1.00  0.00     0.001 C 
ATOM     12  C   UNL     1      94.205  96.230  77.858  1.00  0.00     0.008 C 
BRANCH  12  13
ATOM     13  C   UNL     1      93.153  95.433  77.205  1.00  0.00    -0.022 A 
ATOM     14  C   UNL     1      92.242  94.742  77.992  1.00  0.00     0.058 A 
ATOM     15  C   UNL     1      93.101  95.394  75.809  1.00  0.00     0.012 A 
ATOM     16  C   UNL     1      91.275  94.010  77.334  1.00  0.00     0.166 A 
ATOM     17  C   UNL     1      92.112  94.644  75.169  1.00  0.00     0.051 A 
ATOM     18  O   UNL     1      90.298  93.267  77.923  1.00  0.00    -0.454 OA
ATOM     19  C   UNL     1      91.211  93.962  75.960  1.00  0.00     0.165 A 
ATOM     20  C   UNL     1      89.612  92.747  76.766  1.00  0.00     0.468 C 
ATOM     21  O   UNL     1      90.187  93.184  75.517  1.00  0.00    -0.454 OA
ENDBRANCH  12  13
ENDBRANCH   2  11
TORSDOF 3
ENDMDL
MODEL 8
REMARK VINA RESULT:    -6.900     13.631     15.669
REMARK INTER + INTRA:          -8.476
REMARK INTER:                  -8.205
REMARK INTRA:                  -0.271
REMARK UNBOUND:                -0.365
REMARK SMILES O=C(/C=C/C=C/c1ccc2c(c1)OCO2)N1CCCCC1
REMARK SMILES IDX 3 1 4 2 2 3 1 4 16 5 17 6 21 7 18 8 20 9 19 10 5 11 6 12
REMARK SMILES IDX 7 13 12 14 8 15 11 16 9 17 13 18 10 19 14 20 15 21
REMARK H PARENT
REMARK Flexibility Score: inf
ROOT
ATOM      1  C   UNL     1      97.743  81.427  77.704  1.00  0.00     0.071 C 
ATOM      2  C   UNL     1      98.204  81.852  78.879  1.00  0.00     0.006 C 
ENDROOT
BRANCH   1   3
ATOM      3  C   UNL     1      98.617  81.569  76.523  1.00  0.00     0.246 C 
ATOM      4  O   UNL     1      99.345  80.617  76.236  1.00  0.00    -0.270 OA
ATOM      5  N   UNL     1      98.565  82.769  75.816  1.00  0.00    -0.339 N 
ATOM      6  C   UNL     1      99.425  82.942  74.642  1.00  0.00     0.120 C 
ATOM      7  C   UNL     1      97.744  83.941  76.155  1.00  0.00     0.120 C 
ATOM      8  C   UNL     1      98.621  83.374  73.421  1.00  0.00     0.022 C 
ATOM      9  C   UNL     1      96.924  84.408  74.952  1.00  0.00     0.022 C 
ATOM     10  C   UNL     1      97.800  84.623  73.721  1.00  0.00     0.004 C 
ENDBRANCH   1   3
BRANCH   2  11
ATOM     11  C   UNL     1      97.421  81.755  80.093  1.00  0.00     0.001 C 
ATOM     12  C   UNL     1      97.316  82.764  80.972  1.00  0.00     0.008 C 
BRANCH  12  13
ATOM     13  C   UNL     1      96.541  82.717  82.224  1.00  0.00    -0.022 A 
ATOM     14  C   UNL     1      96.131  83.907  82.810  1.00  0.00     0.058 A 
ATOM     15  C   UNL     1      96.240  81.475  82.788  1.00  0.00     0.012 A 
ATOM     16  C   UNL     1      95.408  83.811  83.981  1.00  0.00     0.166 A 
ATOM     17  C   UNL     1      95.506  81.407  83.974  1.00  0.00     0.051 A 
ATOM     18  O   UNL     1      94.919  84.856  84.705  1.00  0.00    -0.454 OA
ATOM     19  C   UNL     1      95.104  82.595  84.548  1.00  0.00     0.165 A 
ATOM     20  C   UNL     1      94.274  84.160  85.790  1.00  0.00     0.468 C 
ATOM     21  O   UNL     1      94.387  82.725  85.697  1.00  0.00    -0.454 OA
ENDBRANCH  12  13
ENDBRANCH   2  11
TORSDOF 3
ENDMDL
MODEL 9
REMARK VINA RESULT:    -6.865      2.944      9.291
REMARK INTER + INTRA:          -8.434
REMARK INTER:                  -8.052
REMARK INTRA:                  -0.382
REMARK UNBOUND:                -0.365
REMARK SMILES O=C(/C=C/C=C/c1ccc2c(c1)OCO2)N1CCCCC1
REMARK SMILES IDX 3 1 4 2 2 3 1 4 16 5 17 6 21 7 18 8 20 9 19 10 5 11 6 12
REMARK SMILES IDX 7 13 12 14 8 15 11 16 9 17 13 18 10 19 14 20 15 21
REMARK H PARENT
REMARK Flexibility Score: inf
ROOT
ATOM      1  C   UNL     1      93.577  95.708  77.294  1.00  0.00     0.071 C 
ATOM      2  C   UNL     1      94.875  95.573  77.560  1.00  0.00     0.006 C 
ENDROOT
BRANCH   1   3
ATOM      3  C   UNL     1      93.056  95.103  76.052  1.00  0.00     0.246 C 
ATOM      4  O   UNL     1      93.797  95.098  75.067  1.00  0.00    -0.270 OA
ATOM      5  N   UNL     1      91.763  94.583  76.075  1.00  0.00    -0.339 N 
ATOM      6  C   UNL     1      91.217  93.981  74.855  1.00  0.00     0.120 C 
ATOM      7  C   UNL     1      90.835  94.611  77.215  1.00  0.00     0.120 C 
ATOM      8  C   UNL     1      90.685  92.576  75.117  1.00  0.00     0.022 C 
ATOM      9  C   UNL     1      90.277  93.218  77.508  1.00  0.00     0.022 C 
ATOM     10  C   UNL     1      89.675  92.578  76.260  1.00  0.00     0.004 C 
ENDBRANCH   1   3
BRANCH   2  11
ATOM     11  C   UNL     1      95.478  96.131  78.752  1.00  0.00     0.001 C 
ATOM     12  C   UNL     1      95.330  97.418  79.107  1.00  0.00     0.008 C 
BRANCH  12  13
ATOM     13  C   UNL     1      95.926  98.038  80.302  1.00  0.00    -0.022 A 
ATOM     14  C   UNL     1      95.559  99.332  80.646  1.00  0.00     0.058 A 
ATOM     15  C   UNL     1      96.847  97.307  81.057  1.00  0.00     0.012 A 
ATOM     16  C   UNL     1      96.144  99.870  81.774  1.00  0.00     0.166 A 
ATOM     17  C   UNL     1      97.424  97.876  82.194  1.00  0.00     0.051 A 
ATOM     18  O   UNL     1      95.918 101.116  82.274  1.00  0.00    -0.454 OA
ATOM     19  C   UNL     1      97.052  99.161  82.528  1.00  0.00     0.165 A 
ATOM     20  C   UNL     1      96.785 101.111  83.426  1.00  0.00     0.468 C 
ATOM     21  O   UNL     1      97.508  99.874  83.593  1.00  0.00    -0.454 OA
ENDBRANCH  12  13
ENDBRANCH   2  11
TORSDOF 3
ENDMDL
MODEL 10
REMARK VINA RESULT:    -6.783      2.898      3.948
REMARK INTER + INTRA:          -8.338
REMARK INTER:                  -7.918
REMARK INTRA:                  -0.420
REMARK UNBOUND:                -0.365
REMARK SMILES O=C(/C=C/C=C/c1ccc2c(c1)OCO2)N1CCCCC1
REMARK SMILES IDX 3 1 4 2 2 3 1 4 16 5 17 6 21 7 18 8 20 9 19 10 5 11 6 12
REMARK SMILES IDX 7 13 12 14 8 15 11 16 9 17 13 18 10 19 14 20 15 21
REMARK H PARENT
REMARK Flexibility Score: inf
ROOT
ATOM      1  C   UNL     1      95.065  98.550  75.863  1.00  0.00     0.071 C 
ATOM      2  C   UNL     1      94.925  97.916  77.025  1.00  0.00     0.006 C 
ENDROOT
BRANCH   1   3
ATOM      3  C   UNL     1      96.093  99.605  75.767  1.00  0.00     0.246 C 
ATOM      4  O   UNL     1      96.134 100.444  76.668  1.00  0.00    -0.270 OA
ATOM      5  N   UNL     1      96.944  99.585  74.663  1.00  0.00    -0.339 N 
ATOM      6  C   UNL     1      97.972 100.623  74.537  1.00  0.00     0.120 C 
ATOM      7  C   UNL     1      96.897  98.629  73.547  1.00  0.00     0.120 C 
ATOM      8  C   UNL     1      99.354 100.016  74.324  1.00  0.00     0.022 C 
ATOM      9  C   UNL     1      98.268  98.000  73.298  1.00  0.00     0.022 C 
ATOM     10  C   UNL     1      99.353  99.060  73.135  1.00  0.00     0.004 C 
ENDBRANCH   1   3
BRANCH   2  11
ATOM     11  C   UNL     1      93.944  96.868  77.216  1.00  0.00     0.001 C 
ATOM     12  C   UNL     1      93.362  96.222  76.193  1.00  0.00     0.008 C 
BRANCH  12  13
ATOM     13  C   UNL     1      92.355  95.156  76.331  1.00  0.00    -0.022 A 
ATOM     14  C   UNL     1      92.046  94.373  75.227  1.00  0.00     0.058 A 
ATOM     15  C   UNL     1      91.738  94.963  77.569  1.00  0.00     0.012 A 
ATOM     16  C   UNL     1      91.097  93.387  75.406  1.00  0.00     0.166 A 
ATOM     17  C   UNL     1      90.781  93.958  77.722  1.00  0.00     0.051 A 
ATOM     18  O   UNL     1      90.657  92.521  74.452  1.00  0.00    -0.454 OA
ATOM     19  C   UNL     1      90.481  93.185  76.619  1.00  0.00     0.165 A 
ATOM     20  C   UNL     1      89.696  91.751  75.202  1.00  0.00     0.468 C 
ATOM     21  O   UNL     1      89.579  92.167  76.578  1.00  0.00    -0.454 OA
ENDBRANCH  12  13
ENDBRANCH   2  11
TORSDOF 3
ENDMDL
