MODEL 1
REMARK VINA RESULT:    -5.197      0.000      0.000
REMARK INTER + INTRA:          -9.692
REMARK INTER:                  -8.388
REMARK INTRA:                  -1.304
REMARK UNBOUND:                -1.304
REMARK SMILES COc1cc(CNC(=O)CCCCCCC(C)C)ccc1O
REMARK SMILES IDX 11 1 10 2 8 3 7 4 9 6 6 7 5 8 3 9 21 10 4 11 20 12 19 13
REMARK SMILES IDX 2 14 1 15 22 16 12 18 13 19 14 20 15 21 16 22 17 23 18 24
REMARK H PARENT 7 5 22 17
REMARK Flexibility Score: inf
ROOT
ATOM      1  C   UNL     1      93.805  93.266  78.810  1.00  0.00     0.010 C 
ENDROOT
BRANCH   1   2
ATOM      2  C   UNL     1      92.708  93.432  77.722  1.00  0.00     0.100 C 
BRANCH   2   3
ATOM      3  C   UNL     1      92.798  94.716  76.992  1.00  0.00     0.220 C 
ATOM      4  N   UNL     1      93.282  94.751  75.716  1.00  0.00    -0.352 N 
ATOM      5  H   UNL     1      93.597  93.860  75.361  1.00  0.00     0.163 HD
ATOM      6  O   UNL     1      92.399  95.761  77.561  1.00  0.00    -0.275 OA
BRANCH   4   7
ATOM      7  C   UNL     1      93.361  95.920  74.894  1.00  0.00     0.151 C 
BRANCH   7   8
ATOM      8  C   UNL     1      94.757  96.383  74.666  1.00  0.00    -0.025 A 
ATOM      9  C   UNL     1      96.499  97.228  73.149  1.00  0.00     0.160 A 
ATOM     10  C   UNL     1      97.405  97.307  74.229  1.00  0.00     0.157 A 
ATOM     11  C   UNL     1      95.191  96.749  73.371  1.00  0.00     0.056 A 
ATOM     12  C   UNL     1      96.997  96.908  75.515  1.00  0.00     0.050 A 
ATOM     13  C   UNL     1      95.680  96.459  75.735  1.00  0.00     0.009 A 
BRANCH   9  14
ATOM     14  O   UNL     1      96.897  97.576  71.887  1.00  0.00    -0.493 OA
ATOM     15  C   UNL     1      96.528  96.619  70.877  1.00  0.00     0.278 C 
ENDBRANCH   9  14
BRANCH  10  16
ATOM     16  O   UNL     1      98.672  97.763  74.044  1.00  0.00    -0.504 OA
ATOM     17  H   UNL     1      99.295  97.128  74.404  1.00  0.00     0.293 HD
ENDBRANCH  10  16
ENDBRANCH   7   8
ENDBRANCH   4   7
ENDBRANCH   2   3
ENDBRANCH   1   2
BRANCH   1  18
ATOM     18  C   UNL     1      95.239  93.391  78.222  1.00  0.00     0.001 C 
BRANCH  18  19
ATOM     19  C   UNL     1      96.349  93.528  79.301  1.00  0.00     0.000 C 
BRANCH  19  20
ATOM     20  C   UNL     1      97.302  94.717  78.994  1.00  0.00     0.000 C 
BRANCH  20  21
ATOM     21  C   UNL     1      96.679  96.117  79.253  1.00  0.00     0.003 C 
BRANCH  21  22
ATOM     22  C   UNL     1      96.916  96.678  80.693  1.00  0.00    -0.017 C 
ATOM     23  C   UNL     1      95.737  96.291  81.629  1.00  0.00     0.007 C 
ATOM     24  C   UNL     1      97.160  98.216  80.732  1.00  0.00     0.007 C 
ENDBRANCH  21  22
ENDBRANCH  20  21
ENDBRANCH  19  20
ENDBRANCH  18  19
ENDBRANCH   1  18
TORSDOF 11
ENDMDL
MODEL 2
REMARK VINA RESULT:    -5.171     23.327     26.261
REMARK INTER + INTRA:          -9.649
REMARK INTER:                  -8.013
REMARK INTRA:                  -1.635
REMARK UNBOUND:                -1.304
REMARK SMILES COc1cc(CNC(=O)CCCCCCC(C)C)ccc1O
REMARK SMILES IDX 11 1 10 2 8 3 7 4 9 6 6 7 5 8 3 9 21 10 4 11 20 12 19 13
REMARK SMILES IDX 2 14 1 15 22 16 12 18 13 19 14 20 15 21 16 22 17 23 18 24
REMARK H PARENT 7 5 22 17
REMARK Flexibility Score: inf
ROOT
ATOM      1  C   UNL     1      76.072  89.118  65.366  1.00  0.00     0.010 C 
ENDROOT
BRANCH   1   2
ATOM      2  C   UNL     1      74.574  89.486  65.176  1.00  0.00     0.100 C 
BRANCH   2   3
ATOM      3  C   UNL     1      73.665  88.700  66.039  1.00  0.00     0.220 C 
ATOM      4  N   UNL     1      73.612  87.341  65.929  1.00  0.00    -0.352 N 
ATOM      5  H   UNL     1      74.196  86.955  65.202  1.00  0.00     0.163 HD
ATOM      6  O   UNL     1      72.965  89.308  66.887  1.00  0.00    -0.275 OA
BRANCH   4   7
ATOM      7  C   UNL     1      72.817  86.476  66.746  1.00  0.00     0.151 C 
BRANCH   7   8
ATOM      8  C   UNL     1      72.910  85.044  66.348  1.00  0.00    -0.025 A 
ATOM      9  C   UNL     1      71.814  82.928  65.743  1.00  0.00     0.160 A 
ATOM     10  C   UNL     1      73.077  82.327  65.547  1.00  0.00     0.157 A 
ATOM     11  C   UNL     1      71.740  84.273  66.159  1.00  0.00     0.056 A 
ATOM     12  C   UNL     1      74.249  83.073  65.770  1.00  0.00     0.050 A 
ATOM     13  C   UNL     1      74.167  84.425  66.158  1.00  0.00     0.009 A 
BRANCH   9  14
ATOM     14  O   UNL     1      70.669  82.200  65.567  1.00  0.00    -0.493 OA
ATOM     15  C   UNL     1      69.540  82.987  65.147  1.00  0.00     0.278 C 
ENDBRANCH   9  14
BRANCH  10  16
ATOM     16  O   UNL     1      73.178  81.032  65.147  1.00  0.00    -0.504 OA
ATOM     17  H   UNL     1      72.717  80.919  64.313  1.00  0.00     0.293 HD
ENDBRANCH  10  16
ENDBRANCH   7   8
ENDBRANCH   4   7
ENDBRANCH   2   3
ENDBRANCH   1   2
BRANCH   1  18
ATOM     18  C   UNL     1      76.629  89.614  66.731  1.00  0.00     0.001 C 
BRANCH  18  19
ATOM     19  C   UNL     1      77.596  88.607  67.416  1.00  0.00     0.000 C 
BRANCH  19  20
ATOM     20  C   UNL     1      77.076  87.146  67.299  1.00  0.00     0.000 C 
BRANCH  20  21
ATOM     21  C   UNL     1      76.207  86.681  68.500  1.00  0.00     0.003 C 
BRANCH  21  22
ATOM     22  C   UNL     1      76.574  85.269  69.061  1.00  0.00    -0.017 C 
ATOM     23  C   UNL     1      77.246  84.403  67.958  1.00  0.00     0.007 C 
ATOM     24  C   UNL     1      75.367  84.511  69.688  1.00  0.00     0.007 C 
ENDBRANCH  21  22
ENDBRANCH  20  21
ENDBRANCH  19  20
ENDBRANCH  18  19
ENDBRANCH   1  18
TORSDOF 11
ENDMDL
MODEL 3
REMARK VINA RESULT:    -5.049     34.897     37.030
REMARK INTER + INTRA:          -9.452
REMARK INTER:                  -8.044
REMARK INTRA:                  -1.407
REMARK UNBOUND:                -1.304
REMARK SMILES COc1cc(CNC(=O)CCCCCCC(C)C)ccc1O
REMARK SMILES IDX 11 1 10 2 8 3 7 4 9 6 6 7 5 8 3 9 21 10 4 11 20 12 19 13
REMARK SMILES IDX 2 14 1 15 22 16 12 18 13 19 14 20 15 21 16 22 17 23 18 24
REMARK H PARENT 7 5 22 17
REMARK Flexibility Score: inf
ROOT
ATOM      1  C   UNL     1      61.086  85.636  74.382  1.00  0.00     0.010 C 
ENDROOT
BRANCH   1   2
ATOM      2  C   UNL     1      61.285  84.408  75.313  1.00  0.00     0.100 C 
BRANCH   2   3
ATOM      3  C   UNL     1      62.252  83.422  74.781  1.00  0.00     0.220 C 
ATOM      4  N   UNL     1      61.817  82.349  74.059  1.00  0.00    -0.352 N 
ATOM      5  H   UNL     1      60.813  82.279  73.972  1.00  0.00     0.163 HD
ATOM      6  O   UNL     1      63.476  83.609  74.987  1.00  0.00    -0.275 OA
BRANCH   4   7
ATOM      7  C   UNL     1      62.660  81.367  73.449  1.00  0.00     0.151 C 
BRANCH   7   8
ATOM      8  C   UNL     1      63.008  81.688  72.037  1.00  0.00    -0.025 A 
ATOM      9  C   UNL     1      62.383  82.621  69.849  1.00  0.00     0.160 A 
ATOM     10  C   UNL     1      63.678  82.343  69.359  1.00  0.00     0.157 A 
ATOM     11  C   UNL     1      62.053  82.274  71.176  1.00  0.00     0.056 A 
ATOM     12  C   UNL     1      64.625  81.724  70.194  1.00  0.00     0.050 A 
ATOM     13  C   UNL     1      64.298  81.408  71.527  1.00  0.00     0.009 A 
BRANCH   9  14
ATOM     14  O   UNL     1      61.442  83.187  69.033  1.00  0.00    -0.493 OA
ATOM     15  C   UNL     1      61.196  84.578  69.309  1.00  0.00     0.278 C 
ENDBRANCH   9  14
BRANCH  10  16
ATOM     16  O   UNL     1      64.023  82.665  68.084  1.00  0.00    -0.504 OA
ATOM     17  H   UNL     1      64.392  81.892  67.649  1.00  0.00     0.293 HD
ENDBRANCH  10  16
ENDBRANCH   7   8
ENDBRANCH   4   7
ENDBRANCH   2   3
ENDBRANCH   1   2
BRANCH   1  18
ATOM     18  C   UNL     1      59.645  85.705  73.801  1.00  0.00     0.001 C 
BRANCH  18  19
ATOM     19  C   UNL     1      59.388  84.703  72.641  1.00  0.00     0.000 C 
BRANCH  19  20
ATOM     20  C   UNL     1      57.896  84.703  72.204  1.00  0.00     0.000 C 
BRANCH  20  21
ATOM     21  C   UNL     1      57.662  85.155  70.736  1.00  0.00     0.003 C 
BRANCH  21  22
ATOM     22  C   UNL     1      57.472  86.696  70.553  1.00  0.00    -0.017 C 
ATOM     23  C   UNL     1      58.801  87.358  70.095  1.00  0.00     0.007 C 
ATOM     24  C   UNL     1      56.914  87.412  71.819  1.00  0.00     0.007 C 
ENDBRANCH  21  22
ENDBRANCH  20  21
ENDBRANCH  19  20
ENDBRANCH  18  19
ENDBRANCH   1  18
TORSDOF 11
ENDMDL
MODEL 4
REMARK VINA RESULT:    -4.951     25.432     28.408
REMARK INTER + INTRA:          -9.294
REMARK INTER:                  -8.699
REMARK INTRA:                  -0.595
REMARK UNBOUND:                -1.304
REMARK SMILES COc1cc(CNC(=O)CCCCCCC(C)C)ccc1O
REMARK SMILES IDX 11 1 10 2 8 3 7 4 9 6 6 7 5 8 3 9 21 10 4 11 20 12 19 13
REMARK SMILES IDX 2 14 1 15 22 16 12 18 13 19 14 20 15 21 16 22 17 23 18 24
REMARK H PARENT 7 5 22 17
REMARK Flexibility Score: inf
ROOT
ATOM      1  C   UNL     1      68.499  85.769  70.610  1.00  0.00     0.010 C 
ENDROOT
BRANCH   1   2
ATOM      2  C   UNL     1      69.434  84.672  70.028  1.00  0.00     0.100 C 
BRANCH   2   3
ATOM      3  C   UNL     1      70.182  85.116  68.830  1.00  0.00     0.220 C 
ATOM      4  N   UNL     1      71.185  86.034  68.945  1.00  0.00    -0.352 N 
ATOM      5  H   UNL     1      71.323  86.392  69.879  1.00  0.00     0.163 HD
ATOM      6  O   UNL     1      69.889  84.614  67.718  1.00  0.00    -0.275 OA
BRANCH   4   7
ATOM      7  C   UNL     1      72.012  86.493  67.871  1.00  0.00     0.151 C 
BRANCH   7   8
ATOM      8  C   UNL     1      73.465  86.285  68.119  1.00  0.00    -0.025 A 
ATOM      9  C   UNL     1      75.811  86.751  67.546  1.00  0.00     0.160 A 
ATOM     10  C   UNL     1      76.237  85.930  68.613  1.00  0.00     0.157 A 
ATOM     11  C   UNL     1      74.431  86.907  67.296  1.00  0.00     0.056 A 
ATOM     12  C   UNL     1      75.285  85.275  69.415  1.00  0.00     0.050 A 
ATOM     13  C   UNL     1      73.909  85.458  69.178  1.00  0.00     0.009 A 
BRANCH   9  14
ATOM     14  O   UNL     1      76.729  87.361  66.735  1.00  0.00    -0.493 OA
ATOM     15  C   UNL     1      76.993  88.731  67.088  1.00  0.00     0.278 C 
ENDBRANCH   9  14
BRANCH  10  16
ATOM     16  O   UNL     1      77.559  85.760  68.876  1.00  0.00    -0.504 OA
ATOM     17  H   UNL     1      77.915  85.080  68.299  1.00  0.00     0.293 HD
ENDBRANCH  10  16
ENDBRANCH   7   8
ENDBRANCH   4   7
ENDBRANCH   2   3
ENDBRANCH   1   2
BRANCH   1  18
ATOM     18  C   UNL     1      67.799  85.309  71.920  1.00  0.00     0.001 C 
BRANCH  18  19
ATOM     19  C   UNL     1      66.256  85.504  71.908  1.00  0.00     0.000 C 
BRANCH  19  20
ATOM     20  C   UNL     1      65.543  84.372  71.115  1.00  0.00     0.000 C 
BRANCH  20  21
ATOM     21  C   UNL     1      64.350  83.721  71.868  1.00  0.00     0.003 C 
BRANCH  21  22
ATOM     22  C   UNL     1      63.878  82.353  71.277  1.00  0.00    -0.017 C 
ATOM     23  C   UNL     1      63.263  81.462  72.393  1.00  0.00     0.007 C 
ATOM     24  C   UNL     1      64.996  81.580  70.517  1.00  0.00     0.007 C 
ENDBRANCH  21  22
ENDBRANCH  20  21
ENDBRANCH  19  20
ENDBRANCH  18  19
ENDBRANCH   1  18
TORSDOF 11
ENDMDL
MODEL 5
REMARK VINA RESULT:    -4.916      7.544     11.157
REMARK INTER + INTRA:          -9.237
REMARK INTER:                  -8.228
REMARK INTRA:                  -1.009
REMARK UNBOUND:                -1.304
REMARK SMILES COc1cc(CNC(=O)CCCCCCC(C)C)ccc1O
REMARK SMILES IDX 11 1 10 2 8 3 7 4 9 6 6 7 5 8 3 9 21 10 4 11 20 12 19 13
REMARK SMILES IDX 2 14 1 15 22 16 12 18 13 19 14 20 15 21 16 22 17 23 18 24
REMARK H PARENT 7 5 22 17
REMARK Flexibility Score: inf
ROOT
ATOM      1  C   UNL     1      88.819  98.675  66.688  1.00  0.00     0.010 C 
ENDROOT
BRANCH   1   2
ATOM      2  C   UNL     1      90.023  99.433  67.313  1.00  0.00     0.100 C 
BRANCH   2   3
ATOM      3  C   UNL     1      90.121  99.264  68.781  1.00  0.00     0.220 C 
ATOM      4  N   UNL     1      91.084  99.924  69.487  1.00  0.00    -0.352 N 
ATOM      5  H   UNL     1      91.717 100.474  68.925  1.00  0.00     0.163 HD
ATOM      6  O   UNL     1      89.288  98.524  69.358  1.00  0.00    -0.275 OA
BRANCH   4   7
ATOM      7  C   UNL     1      91.239  99.883  70.910  1.00  0.00     0.151 C 
BRANCH   7   8
ATOM      8  C   UNL     1      92.607  99.483  71.340  1.00  0.00    -0.025 A 
ATOM      9  C   UNL     1      94.935  98.920  70.783  1.00  0.00     0.160 A 
ATOM     10  C   UNL     1      95.227  98.761  72.155  1.00  0.00     0.157 A 
ATOM     11  C   UNL     1      93.625  99.260  70.385  1.00  0.00     0.056 A 
ATOM     12  C   UNL     1      94.213  98.942  73.112  1.00  0.00     0.050 A 
ATOM     13  C   UNL     1      92.914  99.311  72.710  1.00  0.00     0.009 A 
BRANCH   9  14
ATOM     14  O   UNL     1      95.905  98.707  69.841  1.00  0.00    -0.493 OA
ATOM     15  C   UNL     1      96.005  97.338  69.410  1.00  0.00     0.278 C 
ENDBRANCH   9  14
BRANCH  10  16
ATOM     16  O   UNL     1      96.480  98.432  72.566  1.00  0.00    -0.504 OA
ATOM     17  H   UNL     1      96.480  98.304  73.518  1.00  0.00     0.293 HD
ENDBRANCH  10  16
ENDBRANCH   7   8
ENDBRANCH   4   7
ENDBRANCH   2   3
ENDBRANCH   1   2
BRANCH   1  18
ATOM     18  C   UNL     1      87.668  99.638  66.280  1.00  0.00     0.001 C 
BRANCH  18  19
ATOM     19  C   UNL     1      87.568 100.908  67.172  1.00  0.00     0.000 C 
BRANCH  19  20
ATOM     20  C   UNL     1      87.064 102.136  66.363  1.00  0.00     0.000 C 
BRANCH  20  21
ATOM     21  C   UNL     1      88.108 103.277  66.221  1.00  0.00     0.003 C 
BRANCH  21  22
ATOM     22  C   UNL     1      89.472 103.004  66.936  1.00  0.00    -0.017 C 
ATOM     23  C   UNL     1      89.618 103.910  68.191  1.00  0.00     0.007 C 
ATOM     24  C   UNL     1      90.709 103.160  66.004  1.00  0.00     0.007 C 
ENDBRANCH  21  22
ENDBRANCH  20  21
ENDBRANCH  19  20
ENDBRANCH  18  19
ENDBRANCH   1  18
TORSDOF 11
ENDMDL
MODEL 6
REMARK VINA RESULT:    -4.844      4.602      6.921
REMARK INTER + INTRA:          -9.121
REMARK INTER:                  -8.444
REMARK INTRA:                  -0.677
REMARK UNBOUND:                -1.304
REMARK SMILES COc1cc(CNC(=O)CCCCCCC(C)C)ccc1O
REMARK SMILES IDX 11 1 10 2 8 3 7 4 9 6 6 7 5 8 3 9 21 10 4 11 20 12 19 13
REMARK SMILES IDX 2 14 1 15 22 16 12 18 13 19 14 20 15 21 16 22 17 23 18 24
REMARK H PARENT 7 5 22 17
REMARK Flexibility Score: inf
ROOT
ATOM      1  C   UNL     1      94.629  97.136  74.597  1.00  0.00     0.010 C 
ENDROOT
BRANCH   1   2
ATOM      2  C   UNL     1      95.897  97.659  73.867  1.00  0.00     0.100 C 
BRANCH   2   3
ATOM      3  C   UNL     1      95.636  98.088  72.475  1.00  0.00     0.220 C 
ATOM      4  N   UNL     1      94.975  99.255  72.226  1.00  0.00    -0.352 N 
ATOM      5  H   UNL     1      94.659  99.744  73.051  1.00  0.00     0.163 HD
ATOM      6  O   UNL     1      96.057  97.370  71.535  1.00  0.00    -0.275 OA
BRANCH   4   7
ATOM      7  C   UNL     1      94.717  99.797  70.927  1.00  0.00     0.151 C 
BRANCH   7   8
ATOM      8  C   UNL     1      93.267  99.860  70.593  1.00  0.00    -0.025 A 
ATOM      9  C   UNL     1      91.461 100.529  69.065  1.00  0.00     0.160 A 
ATOM     10  C   UNL     1      90.510  99.944  69.930  1.00  0.00     0.157 A 
ATOM     11  C   UNL     1      92.828 100.499  69.412  1.00  0.00     0.056 A 
ATOM     12  C   UNL     1      90.931  99.339  71.127  1.00  0.00     0.050 A 
ATOM     13  C   UNL     1      92.301  99.287  71.453  1.00  0.00     0.009 A 
BRANCH   9  14
ATOM     14  O   UNL     1      91.057 101.155  67.917  1.00  0.00    -0.493 OA
ATOM     15  C   UNL     1      91.538 102.506  67.794  1.00  0.00     0.278 C 
ENDBRANCH   9  14
BRANCH  10  16
ATOM     16  O   UNL     1      89.186  99.959  69.622  1.00  0.00    -0.504 OA
ATOM     17  H   UNL     1      88.942 100.832  69.304  1.00  0.00     0.293 HD
ENDBRANCH  10  16
ENDBRANCH   7   8
ENDBRANCH   4   7
ENDBRANCH   2   3
ENDBRANCH   1   2
BRANCH   1  18
ATOM     18  C   UNL     1      94.907  95.828  75.392  1.00  0.00     0.001 C 
BRANCH  18  19
ATOM     19  C   UNL     1      93.993  94.639  74.983  1.00  0.00     0.000 C 
BRANCH  19  20
ATOM     20  C   UNL     1      93.660  93.729  76.198  1.00  0.00     0.000 C 
BRANCH  20  21
ATOM     21  C   UNL     1      92.219  93.147  76.183  1.00  0.00     0.003 C 
BRANCH  21  22
ATOM     22  C   UNL     1      91.264  93.749  77.265  1.00  0.00    -0.017 C 
ATOM     23  C   UNL     1      90.188  92.707  77.680  1.00  0.00     0.007 C 
ATOM     24  C   UNL     1      90.591  95.085  76.831  1.00  0.00     0.007 C 
ENDBRANCH  21  22
ENDBRANCH  20  21
ENDBRANCH  19  20
ENDBRANCH  18  19
ENDBRANCH   1  18
TORSDOF 11
ENDMDL
MODEL 7
REMARK VINA RESULT:    -4.786     13.449     15.851
REMARK INTER + INTRA:          -9.028
REMARK INTER:                  -8.221
REMARK INTRA:                  -0.807
REMARK UNBOUND:                -1.304
REMARK SMILES COc1cc(CNC(=O)CCCCCCC(C)C)ccc1O
REMARK SMILES IDX 11 1 10 2 8 3 7 4 9 6 6 7 5 8 3 9 21 10 4 11 20 12 19 13
REMARK SMILES IDX 2 14 1 15 22 16 12 18 13 19 14 20 15 21 16 22 17 23 18 24
REMARK H PARENT 7 5 22 17
REMARK Flexibility Score: inf
ROOT
ATOM      1  C   UNL     1      97.190  81.017  73.812  1.00  0.00     0.010 C 
ENDROOT
BRANCH   1   2
ATOM      2  C   UNL     1      96.753  82.507  73.868  1.00  0.00     0.100 C 
BRANCH   2   3
ATOM      3  C   UNL     1      96.339  82.945  75.220  1.00  0.00     0.220 C 
ATOM      4  N   UNL     1      96.656  82.195  76.315  1.00  0.00    -0.352 N 
ATOM      5  H   UNL     1      97.138  81.332  76.109  1.00  0.00     0.163 HD
ATOM      6  O   UNL     1      95.715  84.028  75.336  1.00  0.00    -0.275 OA
BRANCH   4   7
ATOM      7  C   UNL     1      96.361  82.547  77.670  1.00  0.00     0.151 C 
BRANCH   7   8
ATOM      8  C   UNL     1      97.152  81.770  78.664  1.00  0.00    -0.025 A 
ATOM      9  C   UNL     1      98.894  80.108  79.168  1.00  0.00     0.160 A 
ATOM     10  C   UNL     1      98.695  80.317  80.551  1.00  0.00     0.157 A 
ATOM     11  C   UNL     1      98.109  80.821  78.237  1.00  0.00     0.056 A 
ATOM     12  C   UNL     1      97.718  81.229  80.988  1.00  0.00     0.050 A 
ATOM     13  C   UNL     1      96.959  81.959  80.052  1.00  0.00     0.009 A 
BRANCH   9  14
ATOM     14  O   UNL     1      99.814  79.194  78.733  1.00  0.00    -0.493 OA
ATOM     15  C   UNL     1     100.823  79.752  77.872  1.00  0.00     0.278 C 
ENDBRANCH   9  14
BRANCH  10  16
ATOM     16  O   UNL     1      99.435  79.643  81.470  1.00  0.00    -0.504 OA
ATOM     17  H   UNL     1     100.265  79.368  81.073  1.00  0.00     0.293 HD
ENDBRANCH  10  16
ENDBRANCH   7   8
ENDBRANCH   4   7
ENDBRANCH   2   3
ENDBRANCH   1   2
BRANCH   1  18
ATOM     18  C   UNL     1      98.248  80.756  72.702  1.00  0.00     0.001 C 
BRANCH  18  19
ATOM     19  C   UNL     1      99.620  81.434  72.973  1.00  0.00     0.000 C 
BRANCH  19  20
ATOM     20  C   UNL     1     100.348  81.802  71.650  1.00  0.00     0.000 C 
BRANCH  20  21
ATOM     21  C   UNL     1     100.496  83.329  71.407  1.00  0.00     0.003 C 
BRANCH  21  22
ATOM     22  C   UNL     1     101.943  83.884  71.616  1.00  0.00    -0.017 C 
ATOM     23  C   UNL     1     102.188  84.212  73.115  1.00  0.00     0.007 C 
ATOM     24  C   UNL     1     102.273  85.119  70.727  1.00  0.00     0.007 C 
ENDBRANCH  21  22
ENDBRANCH  20  21
ENDBRANCH  19  20
ENDBRANCH  18  19
ENDBRANCH   1  18
TORSDOF 11
ENDMDL
MODEL 8
REMARK VINA RESULT:    -4.731     26.630     29.246
REMARK INTER + INTRA:          -8.939
REMARK INTER:                  -7.753
REMARK INTRA:                  -1.185
REMARK UNBOUND:                -1.304
REMARK SMILES COc1cc(CNC(=O)CCCCCCC(C)C)ccc1O
REMARK SMILES IDX 11 1 10 2 8 3 7 4 9 6 6 7 5 8 3 9 21 10 4 11 20 12 19 13
REMARK SMILES IDX 2 14 1 15 22 16 12 18 13 19 14 20 15 21 16 22 17 23 18 24
REMARK H PARENT 7 5 22 17
REMARK Flexibility Score: inf
ROOT
ATOM      1  C   UNL     1      84.921  67.753  71.230  1.00  0.00     0.010 C 
ENDROOT
BRANCH   1   2
ATOM      2  C   UNL     1      84.168  68.856  72.025  1.00  0.00     0.100 C 
BRANCH   2   3
ATOM      3  C   UNL     1      84.815  70.184  71.936  1.00  0.00     0.220 C 
ATOM      4  N   UNL     1      86.154  70.315  72.160  1.00  0.00    -0.352 N 
ATOM      5  H   UNL     1      86.623  69.461  72.424  1.00  0.00     0.163 HD
ATOM      6  O   UNL     1      84.111  71.177  71.628  1.00  0.00    -0.275 OA
BRANCH   4   7
ATOM      7  C   UNL     1      86.896  71.534  72.047  1.00  0.00     0.151 C 
BRANCH   7   8
ATOM      8  C   UNL     1      87.736  71.598  70.819  1.00  0.00    -0.025 A 
ATOM      9  C   UNL     1      89.950  71.741  69.759  1.00  0.00     0.160 A 
ATOM     10  C   UNL     1      89.347  71.675  68.484  1.00  0.00     0.157 A 
ATOM     11  C   UNL     1      89.140  71.721  70.914  1.00  0.00     0.056 A 
ATOM     12  C   UNL     1      87.947  71.592  68.376  1.00  0.00     0.050 A 
ATOM     13  C   UNL     1      87.146  71.543  69.534  1.00  0.00     0.009 A 
BRANCH   9  14
ATOM     14  O   UNL     1      91.308  71.862  69.875  1.00  0.00    -0.493 OA
ATOM     15  C   UNL     1      91.750  73.207  70.136  1.00  0.00     0.278 C 
ENDBRANCH   9  14
BRANCH  10  16
ATOM     16  O   UNL     1      90.102  71.694  67.354  1.00  0.00    -0.504 OA
ATOM     17  H   UNL     1      89.566  71.997  66.617  1.00  0.00     0.293 HD
ENDBRANCH  10  16
ENDBRANCH   7   8
ENDBRANCH   4   7
ENDBRANCH   2   3
ENDBRANCH   1   2
BRANCH   1  18
ATOM     18  C   UNL     1      84.307  66.342  71.460  1.00  0.00     0.001 C 
BRANCH  18  19
ATOM     19  C   UNL     1      83.258  66.294  72.606  1.00  0.00     0.000 C 
BRANCH  19  20
ATOM     20  C   UNL     1      82.028  65.425  72.220  1.00  0.00     0.000 C 
BRANCH  20  21
ATOM     21  C   UNL     1      80.924  66.194  71.443  1.00  0.00     0.003 C 
BRANCH  21  22
ATOM     22  C   UNL     1      80.861  65.872  69.913  1.00  0.00    -0.017 C 
ATOM     23  C   UNL     1      81.486  64.478  69.625  1.00  0.00     0.007 C 
ATOM     24  C   UNL     1      81.522  66.962  69.018  1.00  0.00     0.007 C 
ENDBRANCH  21  22
ENDBRANCH  20  21
ENDBRANCH  19  20
ENDBRANCH  18  19
ENDBRANCH   1  18
TORSDOF 11
ENDMDL
MODEL 9
REMARK VINA RESULT:    -4.682     13.688     16.224
REMARK INTER + INTRA:          -8.860
REMARK INTER:                  -7.714
REMARK INTRA:                  -1.146
REMARK UNBOUND:                -1.304
REMARK SMILES COc1cc(CNC(=O)CCCCCCC(C)C)ccc1O
REMARK SMILES IDX 11 1 10 2 8 3 7 4 9 6 6 7 5 8 3 9 21 10 4 11 20 12 19 13
REMARK SMILES IDX 2 14 1 15 22 16 12 18 13 19 14 20 15 21 16 22 17 23 18 24
REMARK H PARENT 7 5 22 17
REMARK Flexibility Score: inf
ROOT
ATOM      1  C   UNL     1     100.249  83.190  74.042  1.00  0.00     0.010 C 
ENDROOT
BRANCH   1   2
ATOM      2  C   UNL     1      98.829  83.563  73.534  1.00  0.00     0.100 C 
BRANCH   2   3
ATOM      3  C   UNL     1      97.744  82.902  74.293  1.00  0.00     0.220 C 
ATOM      4  N   UNL     1      97.943  81.672  74.850  1.00  0.00    -0.352 N 
ATOM      5  H   UNL     1      98.847  81.265  74.659  1.00  0.00     0.163 HD
ATOM      6  O   UNL     1      96.652  83.506  74.432  1.00  0.00    -0.275 OA
BRANCH   4   7
ATOM      7  C   UNL     1      96.991  80.964  75.651  1.00  0.00     0.151 C 
BRANCH   7   8
ATOM      8  C   UNL     1      97.246  81.089  77.113  1.00  0.00    -0.025 A 
ATOM      9  C   UNL     1      98.430  80.353  79.138  1.00  0.00     0.160 A 
ATOM     10  C   UNL     1      97.769  81.349  79.889  1.00  0.00     0.157 A 
ATOM     11  C   UNL     1      98.150  80.218  77.762  1.00  0.00     0.056 A 
ATOM     12  C   UNL     1      96.837  82.196  79.262  1.00  0.00     0.050 A 
ATOM     13  C   UNL     1      96.584  82.075  77.882  1.00  0.00     0.009 A 
BRANCH   9  14
ATOM     14  O   UNL     1      99.309  79.498  79.746  1.00  0.00    -0.493 OA
ATOM     15  C   UNL     1     100.690  79.850  79.550  1.00  0.00     0.278 C 
ENDBRANCH   9  14
BRANCH  10  16
ATOM     16  O   UNL     1      98.018  81.500  81.217  1.00  0.00    -0.504 OA
ATOM     17  H   UNL     1      98.520  82.306  81.358  1.00  0.00     0.293 HD
ENDBRANCH  10  16
ENDBRANCH   7   8
ENDBRANCH   4   7
ENDBRANCH   2   3
ENDBRANCH   1   2
BRANCH   1  18
ATOM     18  C   UNL     1     101.312  84.255  73.647  1.00  0.00     0.001 C 
BRANCH  18  19
ATOM     19  C   UNL     1     102.333  83.757  72.586  1.00  0.00     0.000 C 
BRANCH  19  20
ATOM     20  C   UNL     1     101.886  82.411  71.949  1.00  0.00     0.000 C 
BRANCH  20  21
ATOM     21  C   UNL     1     101.202  82.558  70.562  1.00  0.00     0.003 C 
BRANCH  21  22
ATOM     22  C   UNL     1     100.275  81.362  70.164  1.00  0.00    -0.017 C 
ATOM     23  C   UNL     1      99.694  80.679  71.434  1.00  0.00     0.007 C 
ATOM     24  C   UNL     1     100.970  80.311  69.249  1.00  0.00     0.007 C 
ENDBRANCH  21  22
ENDBRANCH  20  21
ENDBRANCH  19  20
ENDBRANCH  18  19
ENDBRANCH   1  18
TORSDOF 11
ENDMDL
MODEL 10
REMARK VINA RESULT:    -4.638      2.682      4.675
REMARK INTER + INTRA:          -8.789
REMARK INTER:                  -7.608
REMARK INTRA:                  -1.181
REMARK UNBOUND:                -1.304
REMARK SMILES COc1cc(CNC(=O)CCCCCCC(C)C)ccc1O
REMARK SMILES IDX 11 1 10 2 8 3 7 4 9 6 6 7 5 8 3 9 21 10 4 11 20 12 19 13
REMARK SMILES IDX 2 14 1 15 22 16 12 18 13 19 14 20 15 21 16 22 17 23 18 24
REMARK H PARENT 7 5 22 17
REMARK Flexibility Score: inf
ROOT
ATOM      1  C   UNL     1      96.068  95.535  78.567  1.00  0.00     0.010 C 
ENDROOT
BRANCH   1   2
ATOM      2  C   UNL     1      97.485  95.880  78.031  1.00  0.00     0.100 C 
BRANCH   2   3
ATOM      3  C   UNL     1      97.523  97.134  77.244  1.00  0.00     0.220 C 
ATOM      4  N   UNL     1      97.640  97.092  75.885  1.00  0.00    -0.352 N 
ATOM      5  H   UNL     1      97.739  96.164  75.500  1.00  0.00     0.163 HD
ATOM      6  O   UNL     1      97.421  98.228  77.851  1.00  0.00    -0.275 OA
BRANCH   4   7
ATOM      7  C   UNL     1      97.629  98.231  75.019  1.00  0.00     0.151 C 
BRANCH   7   8
ATOM      8  C   UNL     1      96.309  98.464  74.372  1.00  0.00    -0.025 A 
ATOM      9  C   UNL     1      94.811  99.890  73.041  1.00  0.00     0.160 A 
ATOM     10  C   UNL     1      93.811  98.896  73.097  1.00  0.00     0.157 A 
ATOM     11  C   UNL     1      96.044  99.675  73.694  1.00  0.00     0.056 A 
ATOM     12  C   UNL     1      94.049  97.702  73.802  1.00  0.00     0.050 A 
ATOM     13  C   UNL     1      95.292  97.481  74.426  1.00  0.00     0.009 A 
BRANCH   9  14
ATOM     14  O   UNL     1      94.576 101.072  72.392  1.00  0.00    -0.493 OA
ATOM     15  C   UNL     1      94.466 102.205  73.272  1.00  0.00     0.278 C 
ENDBRANCH   9  14
BRANCH  10  16
ATOM     16  O   UNL     1      92.614  99.077  72.479  1.00  0.00    -0.504 OA
ATOM     17  H   UNL     1      92.279  98.229  72.178  1.00  0.00     0.293 HD
ENDBRANCH  10  16
ENDBRANCH   7   8
ENDBRANCH   4   7
ENDBRANCH   2   3
ENDBRANCH   1   2
BRANCH   1  18
ATOM     18  C   UNL     1      96.047  94.188  79.345  1.00  0.00     0.001 C 
BRANCH  18  19
ATOM     19  C   UNL     1      94.682  93.448  79.279  1.00  0.00     0.000 C 
BRANCH  19  20
ATOM     20  C   UNL     1      94.133  93.388  77.826  1.00  0.00     0.000 C 
BRANCH  20  21
ATOM     21  C   UNL     1      92.582  93.376  77.730  1.00  0.00     0.003 C 
BRANCH  21  22
ATOM     22  C   UNL     1      91.931  94.784  77.540  1.00  0.00    -0.017 C 
ATOM     23  C   UNL     1      90.573  94.659  76.795  1.00  0.00     0.007 C 
ATOM     24  C   UNL     1      92.856  95.809  76.820  1.00  0.00     0.007 C 
ENDBRANCH  21  22
ENDBRANCH  20  21
ENDBRANCH  19  20
ENDBRANCH  18  19
ENDBRANCH   1  18
TORSDOF 11
ENDMDL
