MODEL 1
REMARK VINA RESULT:    -5.556      0.000      0.000
REMARK INTER + INTRA:         -11.086
REMARK INTER:                  -9.292
REMARK INTRA:                  -1.794
REMARK UNBOUND:                -1.794
REMARK SMILES COc1cc(CNC(=O)CCCCCCCC(C)C)ccc1O
REMARK SMILES IDX 11 1 10 2 8 3 9 4 7 5 6 7 5 8 4 9 20 10 3 11 21 12 22 13
REMARK SMILES IDX 2 14 1 15 23 16 12 18 13 19 14 20 15 21 16 22 17 23 18 24
REMARK SMILES IDX 19 25
REMARK H PARENT 7 6 23 17
REMARK Flexibility Score: inf
ROOT
ATOM      1  C   UNL     1      97.189  98.029  78.975  1.00  0.00     0.010 C 
ENDROOT
BRANCH   1   2
ATOM      2  C   UNL     1      96.081  98.646  78.125  1.00  0.00     0.100 C 
BRANCH   2   3
ATOM      3  C   UNL     1      95.706  97.773  76.939  1.00  0.00     0.220 C 
ATOM      4  O   UNL     1      96.286  97.820  75.858  1.00  0.00    -0.275 OA
ATOM      5  N   UNL     1      94.638  96.940  77.236  1.00  0.00    -0.352 N 
ATOM      6  H   UNL     1      94.213  96.979  78.159  1.00  0.00     0.163 HD
BRANCH   5   7
ATOM      7  C   UNL     1      94.077  96.013  76.280  1.00  0.00     0.151 C 
BRANCH   7   8
ATOM      8  C   UNL     1      92.769  95.445  76.749  1.00  0.00    -0.025 A 
ATOM      9  C   UNL     1      92.543  94.077  76.663  1.00  0.00     0.056 A 
ATOM     10  C   UNL     1      91.798  96.294  77.265  1.00  0.00     0.009 A 
ATOM     11  C   UNL     1      91.327  93.550  77.099  1.00  0.00     0.160 A 
ATOM     12  C   UNL     1      90.582  95.767  77.700  1.00  0.00     0.050 A 
ATOM     13  C   UNL     1      90.346  94.395  77.617  1.00  0.00     0.157 A 
BRANCH  11  14
ATOM     14  O   UNL     1      91.109  92.208  77.011  1.00  0.00    -0.493 OA
ATOM     15  C   UNL     1      91.317  91.599  75.738  1.00  0.00     0.278 C 
ENDBRANCH  11  14
BRANCH  13  16
ATOM     16  O   UNL     1      89.155  93.892  78.046  1.00  0.00    -0.504 OA
ATOM     17  H   UNL     1      88.488  94.020  77.350  1.00  0.00     0.293 HD
ENDBRANCH  13  16
ENDBRANCH   7   8
ENDBRANCH   5   7
ENDBRANCH   2   3
ENDBRANCH   1   2
BRANCH   1  18
ATOM     18  C   UNL     1      97.119  98.427  80.451  1.00  0.00     0.001 C 
BRANCH  18  19
ATOM     19  C   UNL     1      97.824  97.481  81.429  1.00  0.00     0.000 C 
BRANCH  19  20
ATOM     20  C   UNL     1      96.992  97.168  82.675  1.00  0.00     0.000 C 
BRANCH  20  21
ATOM     21  C   UNL     1      96.085  95.943  82.511  1.00  0.00     0.000 C 
BRANCH  21  22
ATOM     22  C   UNL     1      96.460  95.068  81.310  1.00  0.00     0.003 C 
BRANCH  22  23
ATOM     23  C   UNL     1      95.243  94.609  80.482  1.00  0.00    -0.017 C 
ATOM     24  C   UNL     1      95.715  94.036  79.144  1.00  0.00     0.007 C 
ATOM     25  C   UNL     1      94.243  95.739  80.233  1.00  0.00     0.007 C 
ENDBRANCH  22  23
ENDBRANCH  21  22
ENDBRANCH  20  21
ENDBRANCH  19  20
ENDBRANCH  18  19
ENDBRANCH   1  18
TORSDOF 12
ENDMDL
MODEL 2
REMARK VINA RESULT:    -5.536     21.769     24.682
REMARK INTER + INTRA:         -11.051
REMARK INTER:                  -8.893
REMARK INTRA:                  -2.158
REMARK UNBOUND:                -1.794
REMARK SMILES COc1cc(CNC(=O)CCCCCCCC(C)C)ccc1O
REMARK SMILES IDX 11 1 10 2 8 3 9 4 7 5 6 7 5 8 4 9 20 10 3 11 21 12 22 13
REMARK SMILES IDX 2 14 1 15 23 16 12 18 13 19 14 20 15 21 16 22 17 23 18 24
REMARK SMILES IDX 19 25
REMARK H PARENT 7 6 23 17
REMARK Flexibility Score: inf
ROOT
ATOM      1  C   UNL     1      77.518  87.579  66.691  1.00  0.00     0.010 C 
ENDROOT
BRANCH   1   2
ATOM      2  C   UNL     1      77.915  86.720  67.889  1.00  0.00     0.100 C 
BRANCH   2   3
ATOM      3  C   UNL     1      78.066  85.252  67.524  1.00  0.00     0.220 C 
ATOM      4  O   UNL     1      78.619  84.431  68.251  1.00  0.00    -0.275 OA
ATOM      5  N   UNL     1      77.514  84.977  66.282  1.00  0.00    -0.352 N 
ATOM      6  H   UNL     1      77.086  85.726  65.746  1.00  0.00     0.163 HD
BRANCH   5   7
ATOM      7  C   UNL     1      77.530  83.657  65.693  1.00  0.00     0.151 C 
BRANCH   7   8
ATOM      8  C   UNL     1      76.187  82.992  65.770  1.00  0.00    -0.025 A 
ATOM      9  C   UNL     1      75.064  83.744  66.094  1.00  0.00     0.056 A 
ATOM     10  C   UNL     1      76.080  81.630  65.517  1.00  0.00     0.009 A 
ATOM     11  C   UNL     1      73.816  83.125  66.166  1.00  0.00     0.160 A 
ATOM     12  C   UNL     1      74.832  81.011  65.590  1.00  0.00     0.050 A 
ATOM     13  C   UNL     1      73.700  81.758  65.914  1.00  0.00     0.157 A 
BRANCH  11  14
ATOM     14  O   UNL     1      72.718  83.866  66.484  1.00  0.00    -0.493 OA
ATOM     15  C   UNL     1      72.250  84.786  65.499  1.00  0.00     0.278 C 
ENDBRANCH  11  14
BRANCH  13  16
ATOM     16  O   UNL     1      72.487  81.142  65.981  1.00  0.00    -0.504 OA
ATOM     17  H   UNL     1      72.202  81.103  66.910  1.00  0.00     0.293 HD
ENDBRANCH  13  16
ENDBRANCH   7   8
ENDBRANCH   5   7
ENDBRANCH   2   3
ENDBRANCH   1   2
BRANCH   1  18
ATOM     18  C   UNL     1      76.172  88.287  66.867  1.00  0.00     0.001 C 
BRANCH  18  19
ATOM     19  C   UNL     1      74.938  87.483  66.444  1.00  0.00     0.000 C 
BRANCH  19  20
ATOM     20  C   UNL     1      73.725  87.714  67.350  1.00  0.00     0.000 C 
BRANCH  20  21
ATOM     21  C   UNL     1      73.600  86.683  68.476  1.00  0.00     0.000 C 
BRANCH  21  22
ATOM     22  C   UNL     1      73.454  87.315  69.864  1.00  0.00     0.003 C 
BRANCH  22  23
ATOM     23  C   UNL     1      74.733  87.221  70.719  1.00  0.00    -0.017 C 
ATOM     24  C   UNL     1      75.619  88.442  70.462  1.00  0.00     0.007 C 
ATOM     25  C   UNL     1      75.528  85.943  70.446  1.00  0.00     0.007 C 
ENDBRANCH  22  23
ENDBRANCH  21  22
ENDBRANCH  20  21
ENDBRANCH  19  20
ENDBRANCH  18  19
ENDBRANCH   1  18
TORSDOF 12
ENDMDL
MODEL 3
REMARK VINA RESULT:    -5.344      2.941      7.183
REMARK INTER + INTRA:         -10.730
REMARK INTER:                  -9.265
REMARK INTRA:                  -1.465
REMARK UNBOUND:                -1.794
REMARK SMILES COc1cc(CNC(=O)CCCCCCCC(C)C)ccc1O
REMARK SMILES IDX 11 1 10 2 8 3 9 4 7 5 6 7 5 8 4 9 20 10 3 11 21 12 22 13
REMARK SMILES IDX 2 14 1 15 23 16 12 18 13 19 14 20 15 21 16 22 17 23 18 24
REMARK SMILES IDX 19 25
REMARK H PARENT 7 6 23 17
REMARK Flexibility Score: inf
ROOT
ATOM      1  C   UNL     1      95.705  94.072  79.185  1.00  0.00     0.010 C 
ENDROOT
BRANCH   1   2
ATOM      2  C   UNL     1      95.222  93.466  80.500  1.00  0.00     0.100 C 
BRANCH   2   3
ATOM      3  C   UNL     1      95.644  94.288  81.706  1.00  0.00     0.220 C 
ATOM      4  O   UNL     1      95.058  94.253  82.785  1.00  0.00    -0.275 OA
ATOM      5  N   UNL     1      96.752  95.073  81.425  1.00  0.00    -0.352 N 
ATOM      6  H   UNL     1      97.165  95.045  80.497  1.00  0.00     0.163 HD
BRANCH   5   7
ATOM      7  C   UNL     1      97.353  95.958  82.397  1.00  0.00     0.151 C 
BRANCH   7   8
ATOM      8  C   UNL     1      96.743  97.329  82.360  1.00  0.00    -0.025 A 
ATOM      9  C   UNL     1      96.637  98.002  81.148  1.00  0.00     0.056 A 
ATOM     10  C   UNL     1      96.292  97.913  83.537  1.00  0.00     0.009 A 
ATOM     11  C   UNL     1      96.071  99.276  81.113  1.00  0.00     0.160 A 
ATOM     12  C   UNL     1      95.726  99.188  83.502  1.00  0.00     0.050 A 
ATOM     13  C   UNL     1      95.616  99.870  82.291  1.00  0.00     0.157 A 
BRANCH  11  14
ATOM     14  O   UNL     1      95.969  99.932  79.924  1.00  0.00    -0.493 OA
ATOM     15  C   UNL     1      96.810  99.484  78.862  1.00  0.00     0.278 C 
ENDBRANCH  11  14
BRANCH  13  16
ATOM     16  O   UNL     1      95.061 101.113  82.270  1.00  0.00    -0.504 OA
ATOM     17  H   UNL     1      95.557 101.671  81.646  1.00  0.00     0.293 HD
ENDBRANCH  13  16
ENDBRANCH   7   8
ENDBRANCH   5   7
ENDBRANCH   2   3
ENDBRANCH   1   2
BRANCH   1  18
ATOM     18  C   UNL     1      94.570  94.411  78.215  1.00  0.00     0.001 C 
BRANCH  18  19
ATOM     19  C   UNL     1      94.028  95.842  78.301  1.00  0.00     0.000 C 
BRANCH  19  20
ATOM     20  C   UNL     1      93.629  96.421  76.941  1.00  0.00     0.000 C 
BRANCH  20  21
ATOM     21  C   UNL     1      92.140  96.249  76.619  1.00  0.00     0.000 C 
BRANCH  21  22
ATOM     22  C   UNL     1      91.261  96.117  77.867  1.00  0.00     0.003 C 
BRANCH  22  23
ATOM     23  C   UNL     1      90.322  94.895  77.830  1.00  0.00    -0.017 C 
ATOM     24  C   UNL     1      90.905  93.769  78.686  1.00  0.00     0.007 C 
ATOM     25  C   UNL     1      90.078  94.387  76.408  1.00  0.00     0.007 C 
ENDBRANCH  22  23
ENDBRANCH  21  22
ENDBRANCH  20  21
ENDBRANCH  19  20
ENDBRANCH  18  19
ENDBRANCH   1  18
TORSDOF 12
ENDMDL
MODEL 4
REMARK VINA RESULT:    -5.048     22.713     26.338
REMARK INTER + INTRA:         -10.236
REMARK INTER:                  -9.077
REMARK INTRA:                  -1.159
REMARK UNBOUND:                -1.794
REMARK SMILES COc1cc(CNC(=O)CCCCCCCC(C)C)ccc1O
REMARK SMILES IDX 11 1 10 2 8 3 9 4 7 5 6 7 5 8 4 9 20 10 3 11 21 12 22 13
REMARK SMILES IDX 2 14 1 15 23 16 12 18 13 19 14 20 15 21 16 22 17 23 18 24
REMARK SMILES IDX 19 25
REMARK H PARENT 7 6 23 17
REMARK Flexibility Score: inf
ROOT
ATOM      1  C   UNL     1      75.748  82.203  66.130  1.00  0.00     0.010 C 
ENDROOT
BRANCH   1   2
ATOM      2  C   UNL     1      74.899  81.076  65.547  1.00  0.00     0.100 C 
BRANCH   2   3
ATOM      3  C   UNL     1      73.515  81.548  65.134  1.00  0.00     0.220 C 
ATOM      4  O   UNL     1      73.166  81.671  63.963  1.00  0.00    -0.275 OA
ATOM      5  N   UNL     1      72.720  81.823  66.237  1.00  0.00    -0.352 N 
ATOM      6  H   UNL     1      73.100  81.701  67.172  1.00  0.00     0.163 HD
BRANCH   5   7
ATOM      7  C   UNL     1      71.360  82.296  66.124  1.00  0.00     0.151 C 
BRANCH   7   8
ATOM      8  C   UNL     1      70.912  83.019  67.361  1.00  0.00    -0.025 A 
ATOM      9  C   UNL     1      71.525  84.213  67.720  1.00  0.00     0.056 A 
ATOM     10  C   UNL     1      69.890  82.485  68.136  1.00  0.00     0.009 A 
ATOM     11  C   UNL     1      71.109  84.884  68.870  1.00  0.00     0.160 A 
ATOM     12  C   UNL     1      69.474  83.156  69.287  1.00  0.00     0.050 A 
ATOM     13  C   UNL     1      70.084  84.356  69.654  1.00  0.00     0.157 A 
BRANCH  11  14
ATOM     14  O   UNL     1      71.713  86.055  69.218  1.00  0.00    -0.493 OA
ATOM     15  C   UNL     1      73.075  85.982  69.638  1.00  0.00     0.278 C 
ENDBRANCH  11  14
BRANCH  13  16
ATOM     16  O   UNL     1      69.668  85.002  70.778  1.00  0.00    -0.504 OA
ATOM     17  H   UNL     1      69.332  85.881  70.532  1.00  0.00     0.293 HD
ENDBRANCH  13  16
ENDBRANCH   7   8
ENDBRANCH   5   7
ENDBRANCH   2   3
ENDBRANCH   1   2
BRANCH   1  18
ATOM     18  C   UNL     1      77.136  82.314  65.493  1.00  0.00     0.001 C 
BRANCH  18  19
ATOM     19  C   UNL     1      77.843  83.662  65.673  1.00  0.00     0.000 C 
BRANCH  19  20
ATOM     20  C   UNL     1      77.153  84.577  66.688  1.00  0.00     0.000 C 
BRANCH  20  21
ATOM     21  C   UNL     1      77.886  84.660  68.032  1.00  0.00     0.000 C 
BRANCH  21  22
ATOM     22  C   UNL     1      77.120  83.996  69.181  1.00  0.00     0.003 C 
BRANCH  22  23
ATOM     23  C   UNL     1      77.020  84.877  70.442  1.00  0.00    -0.017 C 
ATOM     24  C   UNL     1      75.942  84.324  71.376  1.00  0.00     0.007 C 
ATOM     25  C   UNL     1      76.714  86.339  70.112  1.00  0.00     0.007 C 
ENDBRANCH  22  23
ENDBRANCH  21  22
ENDBRANCH  20  21
ENDBRANCH  19  20
ENDBRANCH  18  19
ENDBRANCH   1  18
TORSDOF 12
ENDMDL
MODEL 5
REMARK VINA RESULT:    -5.009     12.805     14.889
REMARK INTER + INTRA:         -10.170
REMARK INTER:                  -8.914
REMARK INTRA:                  -1.256
REMARK UNBOUND:                -1.794
REMARK SMILES COc1cc(CNC(=O)CCCCCCCC(C)C)ccc1O
REMARK SMILES IDX 11 1 10 2 8 3 9 4 7 5 6 7 5 8 4 9 20 10 3 11 21 12 22 13
REMARK SMILES IDX 2 14 1 15 23 16 12 18 13 19 14 20 15 21 16 22 17 23 18 24
REMARK SMILES IDX 19 25
REMARK H PARENT 7 6 23 17
REMARK Flexibility Score: inf
ROOT
ATOM      1  C   UNL     1      98.669  82.024  86.224  1.00  0.00     0.010 C 
ENDROOT
BRANCH   1   2
ATOM      2  C   UNL     1      98.510  82.801  84.918  1.00  0.00     0.100 C 
BRANCH   2   3
ATOM      3  C   UNL     1      99.447  82.303  83.831  1.00  0.00     0.220 C 
ATOM      4  O   UNL     1     100.388  81.544  84.047  1.00  0.00    -0.275 OA
ATOM      5  N   UNL     1      99.106  82.818  82.589  1.00  0.00    -0.352 N 
ATOM      6  H   UNL     1      98.315  83.451  82.508  1.00  0.00     0.163 HD
BRANCH   5   7
ATOM      7  C   UNL     1      99.841  82.510  81.384  1.00  0.00     0.151 C 
BRANCH   7   8
ATOM      8  C   UNL     1      99.098  82.930  80.150  1.00  0.00    -0.025 A 
ATOM      9  C   UNL     1      99.761  82.975  78.929  1.00  0.00     0.056 A 
ATOM     10  C   UNL     1      97.754  83.271  80.240  1.00  0.00     0.009 A 
ATOM     11  C   UNL     1      99.070  83.366  77.782  1.00  0.00     0.160 A 
ATOM     12  C   UNL     1      97.063  83.662  79.093  1.00  0.00     0.050 A 
ATOM     13  C   UNL     1      97.720  83.710  77.864  1.00  0.00     0.157 A 
BRANCH  11  14
ATOM     14  O   UNL     1      99.723  83.409  76.588  1.00  0.00    -0.493 OA
ATOM     15  C   UNL     1     101.101  83.780  76.616  1.00  0.00     0.278 C 
ENDBRANCH  11  14
BRANCH  13  16
ATOM     16  O   UNL     1      97.035  84.093  76.751  1.00  0.00    -0.504 OA
ATOM     17  H   UNL     1      96.959  83.333  76.149  1.00  0.00     0.293 HD
ENDBRANCH  13  16
ENDBRANCH   7   8
ENDBRANCH   5   7
ENDBRANCH   2   3
ENDBRANCH   1   2
BRANCH   1  18
ATOM     18  C   UNL     1      97.794  80.770  86.298  1.00  0.00     0.001 C 
BRANCH  18  19
ATOM     19  C   UNL     1      96.616  80.840  87.276  1.00  0.00     0.000 C 
BRANCH  19  20
ATOM     20  C   UNL     1      95.276  81.125  86.590  1.00  0.00     0.000 C 
BRANCH  20  21
ATOM     21  C   UNL     1      94.856  82.597  86.662  1.00  0.00     0.000 C 
BRANCH  21  22
ATOM     22  C   UNL     1      95.608  83.391  87.735  1.00  0.00     0.003 C 
BRANCH  22  23
ATOM     23  C   UNL     1      95.554  84.916  87.521  1.00  0.00    -0.017 C 
ATOM     24  C   UNL     1      94.129  85.422  87.754  1.00  0.00     0.007 C 
ATOM     25  C   UNL     1      96.024  85.329  86.125  1.00  0.00     0.007 C 
ENDBRANCH  22  23
ENDBRANCH  21  22
ENDBRANCH  20  21
ENDBRANCH  19  20
ENDBRANCH  18  19
ENDBRANCH   1  18
TORSDOF 12
ENDMDL
MODEL 6
REMARK VINA RESULT:    -4.946     17.405     21.361
REMARK INTER + INTRA:         -10.065
REMARK INTER:                  -8.794
REMARK INTRA:                  -1.271
REMARK UNBOUND:                -1.794
REMARK SMILES COc1cc(CNC(=O)CCCCCCCC(C)C)ccc1O
REMARK SMILES IDX 11 1 10 2 8 3 9 4 7 5 6 7 5 8 4 9 20 10 3 11 21 12 22 13
REMARK SMILES IDX 2 14 1 15 23 16 12 18 13 19 14 20 15 21 16 22 17 23 18 24
REMARK SMILES IDX 19 25
REMARK H PARENT 7 6 23 17
REMARK Flexibility Score: inf
ROOT
ATOM      1  C   UNL     1      76.224  88.089  70.053  1.00  0.00     0.010 C 
ENDROOT
BRANCH   1   2
ATOM      2  C   UNL     1      74.882  88.759  69.767  1.00  0.00     0.100 C 
BRANCH   2   3
ATOM      3  C   UNL     1      74.567  89.869  70.757  1.00  0.00     0.220 C 
ATOM      4  O   UNL     1      74.013  89.673  71.834  1.00  0.00    -0.275 OA
ATOM      5  N   UNL     1      74.976  91.106  70.282  1.00  0.00    -0.352 N 
ATOM      6  H   UNL     1      75.418  91.172  69.369  1.00  0.00     0.163 HD
BRANCH   5   7
ATOM      7  C   UNL     1      74.788  92.331  71.024  1.00  0.00     0.151 C 
BRANCH   7   8
ATOM      8  C   UNL     1      76.094  92.939  71.445  1.00  0.00    -0.025 A 
ATOM      9  C   UNL     1      76.362  94.269  71.147  1.00  0.00     0.056 A 
ATOM     10  C   UNL     1      77.023  92.164  72.129  1.00  0.00     0.009 A 
ATOM     11  C   UNL     1      77.576  94.833  71.538  1.00  0.00     0.160 A 
ATOM     12  C   UNL     1      78.238  92.728  72.519  1.00  0.00     0.050 A 
ATOM     13  C   UNL     1      78.515  94.063  72.224  1.00  0.00     0.157 A 
BRANCH  11  14
ATOM     14  O   UNL     1      77.835  96.138  71.243  1.00  0.00    -0.493 OA
ATOM     15  C   UNL     1      78.250  96.431  69.909  1.00  0.00     0.278 C 
ENDBRANCH  11  14
BRANCH  13  16
ATOM     16  O   UNL     1      79.704  94.602  72.612  1.00  0.00    -0.504 OA
ATOM     17  H   UNL     1      80.021  95.203  71.915  1.00  0.00     0.293 HD
ENDBRANCH  13  16
ENDBRANCH   7   8
ENDBRANCH   5   7
ENDBRANCH   2   3
ENDBRANCH   1   2
BRANCH   1  18
ATOM     18  C   UNL     1      76.134  86.564  70.158  1.00  0.00     0.001 C 
BRANCH  18  19
ATOM     19  C   UNL     1      77.465  85.811  70.059  1.00  0.00     0.000 C 
BRANCH  19  20
ATOM     20  C   UNL     1      77.364  84.506  69.264  1.00  0.00     0.000 C 
BRANCH  20  21
ATOM     21  C   UNL     1      76.485  84.620  68.013  1.00  0.00     0.000 C 
BRANCH  21  22
ATOM     22  C   UNL     1      77.246  85.124  66.782  1.00  0.00     0.003 C 
BRANCH  22  23
ATOM     23  C   UNL     1      76.843  86.548  66.351  1.00  0.00    -0.017 C 
ATOM     24  C   UNL     1      76.725  86.613  64.827  1.00  0.00     0.007 C 
ATOM     25  C   UNL     1      77.832  87.609  66.836  1.00  0.00     0.007 C 
ENDBRANCH  22  23
ENDBRANCH  21  22
ENDBRANCH  20  21
ENDBRANCH  19  20
ENDBRANCH  18  19
ENDBRANCH   1  18
TORSDOF 12
ENDMDL
MODEL 7
REMARK VINA RESULT:    -4.933     33.974     37.299
REMARK INTER + INTRA:         -10.044
REMARK INTER:                  -8.963
REMARK INTRA:                  -1.081
REMARK UNBOUND:                -1.794
REMARK SMILES COc1cc(CNC(=O)CCCCCCCC(C)C)ccc1O
REMARK SMILES IDX 11 1 10 2 8 3 9 4 7 5 6 7 5 8 4 9 20 10 3 11 21 12 22 13
REMARK SMILES IDX 2 14 1 15 23 16 12 18 13 19 14 20 15 21 16 22 17 23 18 24
REMARK SMILES IDX 19 25
REMARK H PARENT 7 6 23 17
REMARK Flexibility Score: inf
ROOT
ATOM      1  C   UNL     1      61.341  85.103  69.617  1.00  0.00     0.010 C 
ENDROOT
BRANCH   1   2
ATOM      2  C   UNL     1      60.051  85.332  70.402  1.00  0.00     0.100 C 
BRANCH   2   3
ATOM      3  C   UNL     1      59.911  86.768  70.879  1.00  0.00     0.220 C 
ATOM      4  O   UNL     1      60.784  87.357  71.509  1.00  0.00    -0.275 OA
ATOM      5  N   UNL     1      58.684  87.307  70.519  1.00  0.00    -0.352 N 
ATOM      6  H   UNL     1      58.017  86.738  70.006  1.00  0.00     0.163 HD
BRANCH   5   7
ATOM      7  C   UNL     1      58.292  88.656  70.857  1.00  0.00     0.151 C 
BRANCH   7   8
ATOM      8  C   UNL     1      57.180  89.154  69.981  1.00  0.00    -0.025 A 
ATOM      9  C   UNL     1      56.890  88.490  68.795  1.00  0.00     0.056 A 
ATOM     10  C   UNL     1      56.451  90.273  70.364  1.00  0.00     0.009 A 
ATOM     11  C   UNL     1      55.856  88.952  67.980  1.00  0.00     0.160 A 
ATOM     12  C   UNL     1      55.418  90.736  69.549  1.00  0.00     0.050 A 
ATOM     13  C   UNL     1      55.120  90.076  68.357  1.00  0.00     0.157 A 
BRANCH  11  14
ATOM     14  O   UNL     1      55.575  88.299  66.818  1.00  0.00    -0.493 OA
ATOM     15  C   UNL     1      54.854  87.073  66.922  1.00  0.00     0.278 C 
ENDBRANCH  11  14
BRANCH  13  16
ATOM     16  O   UNL     1      54.108  90.537  67.570  1.00  0.00    -0.504 OA
ATOM     17  H   UNL     1      53.257  90.293  67.974  1.00  0.00     0.293 HD
ENDBRANCH  13  16
ENDBRANCH   7   8
ENDBRANCH   5   7
ENDBRANCH   2   3
ENDBRANCH   1   2
BRANCH   1  18
ATOM     18  C   UNL     1      61.625  83.627  69.327  1.00  0.00     0.001 C 
BRANCH  18  19
ATOM     19  C   UNL     1      63.072  83.290  68.953  1.00  0.00     0.000 C 
BRANCH  19  20
ATOM     20  C   UNL     1      63.570  81.983  69.575  1.00  0.00     0.000 C 
BRANCH  20  21
ATOM     21  C   UNL     1      64.628  82.189  70.664  1.00  0.00     0.000 C 
BRANCH  21  22
ATOM     22  C   UNL     1      64.268  81.522  71.995  1.00  0.00     0.003 C 
BRANCH  22  23
ATOM     23  C   UNL     1      62.923  82.000  72.577  1.00  0.00    -0.017 C 
ATOM     24  C   UNL     1      62.995  83.499  72.880  1.00  0.00     0.007 C 
ATOM     25  C   UNL     1      62.528  81.238  73.843  1.00  0.00     0.007 C 
ENDBRANCH  22  23
ENDBRANCH  21  22
ENDBRANCH  20  21
ENDBRANCH  19  20
ENDBRANCH  18  19
ENDBRANCH   1  18
TORSDOF 12
ENDMDL
MODEL 8
REMARK VINA RESULT:    -4.801     30.417     34.186
REMARK INTER + INTRA:          -9.823
REMARK INTER:                  -8.171
REMARK INTRA:                  -1.652
REMARK UNBOUND:                -1.794
REMARK SMILES COc1cc(CNC(=O)CCCCCCCC(C)C)ccc1O
REMARK SMILES IDX 11 1 10 2 8 3 9 4 7 5 6 7 5 8 4 9 20 10 3 11 21 12 22 13
REMARK SMILES IDX 2 14 1 15 23 16 12 18 13 19 14 20 15 21 16 22 17 23 18 24
REMARK SMILES IDX 19 25
REMARK H PARENT 7 6 23 17
REMARK Flexibility Score: inf
ROOT
ATOM      1  C   UNL     1      62.678  81.819  74.193  1.00  0.00     0.010 C 
ENDROOT
BRANCH   1   2
ATOM      2  C   UNL     1      63.279  82.709  75.279  1.00  0.00     0.100 C 
BRANCH   2   3
ATOM      3  C   UNL     1      62.470  83.975  75.503  1.00  0.00     0.220 C 
ATOM      4  O   UNL     1      62.784  84.842  76.314  1.00  0.00    -0.275 OA
ATOM      5  N   UNL     1      61.348  84.013  74.689  1.00  0.00    -0.352 N 
ATOM      6  H   UNL     1      61.162  83.242  74.053  1.00  0.00     0.163 HD
BRANCH   5   7
ATOM      7  C   UNL     1      60.402  85.106  74.708  1.00  0.00     0.151 C 
BRANCH   7   8
ATOM      8  C   UNL     1      60.239  85.731  73.354  1.00  0.00    -0.025 A 
ATOM      9  C   UNL     1      61.247  85.594  72.407  1.00  0.00     0.056 A 
ATOM     10  C   UNL     1      59.081  86.442  73.060  1.00  0.00     0.009 A 
ATOM     11  C   UNL     1      61.095  86.175  71.148  1.00  0.00     0.160 A 
ATOM     12  C   UNL     1      58.930  87.024  71.801  1.00  0.00     0.050 A 
ATOM     13  C   UNL     1      59.936  86.891  70.845  1.00  0.00     0.157 A 
BRANCH  11  14
ATOM     14  O   UNL     1      62.085  86.039  70.222  1.00  0.00    -0.493 OA
ATOM     15  C   UNL     1      63.212  86.905  70.347  1.00  0.00     0.278 C 
ENDBRANCH  11  14
BRANCH  13  16
ATOM     16  O   UNL     1      59.776  87.462  69.619  1.00  0.00    -0.504 OA
ATOM     17  H   UNL     1      59.220  86.883  69.070  1.00  0.00     0.293 HD
ENDBRANCH  13  16
ENDBRANCH   7   8
ENDBRANCH   5   7
ENDBRANCH   2   3
ENDBRANCH   1   2
BRANCH   1  18
ATOM     18  C   UNL     1      63.726  81.196  73.266  1.00  0.00     0.001 C 
BRANCH  18  19
ATOM     19  C   UNL     1      63.758  81.745  71.836  1.00  0.00     0.000 C 
BRANCH  19  20
ATOM     20  C   UNL     1      65.129  81.610  71.167  1.00  0.00     0.000 C 
BRANCH  20  21
ATOM     21  C   UNL     1      65.918  82.923  71.124  1.00  0.00     0.000 C 
BRANCH  21  22
ATOM     22  C   UNL     1      65.191  84.090  71.801  1.00  0.00     0.003 C 
BRANCH  22  23
ATOM     23  C   UNL     1      66.138  85.067  72.525  1.00  0.00    -0.017 C 
ATOM     24  C   UNL     1      67.593  84.673  72.255  1.00  0.00     0.007 C 
ATOM     25  C   UNL     1      65.891  85.114  74.033  1.00  0.00     0.007 C 
ENDBRANCH  22  23
ENDBRANCH  21  22
ENDBRANCH  20  21
ENDBRANCH  19  20
ENDBRANCH  18  19
ENDBRANCH   1  18
TORSDOF 12
ENDMDL
MODEL 9
REMARK VINA RESULT:    -4.755     22.386     26.349
REMARK INTER + INTRA:          -9.745
REMARK INTER:                  -8.667
REMARK INTRA:                  -1.078
REMARK UNBOUND:                -1.794
REMARK SMILES COc1cc(CNC(=O)CCCCCCCC(C)C)ccc1O
REMARK SMILES IDX 11 1 10 2 8 3 9 4 7 5 6 7 5 8 4 9 20 10 3 11 21 12 22 13
REMARK SMILES IDX 2 14 1 15 23 16 12 18 13 19 14 20 15 21 16 22 17 23 18 24
REMARK SMILES IDX 19 25
REMARK H PARENT 7 6 23 17
REMARK Flexibility Score: inf
ROOT
ATOM      1  C   UNL     1      75.500  83.563  67.036  1.00  0.00     0.010 C 
ENDROOT
BRANCH   1   2
ATOM      2  C   UNL     1      74.192  84.304  66.769  1.00  0.00     0.100 C 
BRANCH   2   3
ATOM      3  C   UNL     1      72.987  83.378  66.791  1.00  0.00     0.220 C 
ATOM      4  O   UNL     1      72.981  82.268  66.266  1.00  0.00    -0.275 OA
ATOM      5  N   UNL     1      71.918  83.950  67.464  1.00  0.00    -0.352 N 
ATOM      6  H   UNL     1      72.013  84.882  67.858  1.00  0.00     0.163 HD
BRANCH   5   7
ATOM      7  C   UNL     1      70.646  83.283  67.624  1.00  0.00     0.151 C 
BRANCH   7   8
ATOM      8  C   UNL     1      69.998  83.616  68.936  1.00  0.00    -0.025 A 
ATOM      9  C   UNL     1      68.621  83.489  69.075  1.00  0.00     0.056 A 
ATOM     10  C   UNL     1      70.782  84.049  69.998  1.00  0.00     0.009 A 
ATOM     11  C   UNL     1      68.019  83.799  70.294  1.00  0.00     0.160 A 
ATOM     12  C   UNL     1      70.179  84.359  71.218  1.00  0.00     0.050 A 
ATOM     13  C   UNL     1      68.798  84.235  71.366  1.00  0.00     0.157 A 
BRANCH  11  14
ATOM     14  O   UNL     1      66.669  83.674  70.427  1.00  0.00    -0.493 OA
ATOM     15  C   UNL     1      66.171  82.390  70.801  1.00  0.00     0.278 C 
ENDBRANCH  11  14
BRANCH  13  16
ATOM     16  O   UNL     1      68.222  84.540  72.562  1.00  0.00    -0.504 OA
ATOM     17  H   UNL     1      68.264  83.760  73.142  1.00  0.00     0.293 HD
ENDBRANCH  13  16
ENDBRANCH   7   8
ENDBRANCH   5   7
ENDBRANCH   2   3
ENDBRANCH   1   2
BRANCH   1  18
ATOM     18  C   UNL     1      76.238  84.057  68.284  1.00  0.00     0.001 C 
BRANCH  18  19
ATOM     19  C   UNL     1      77.766  84.086  68.184  1.00  0.00     0.000 C 
BRANCH  19  20
ATOM     20  C   UNL     1      78.345  85.504  68.179  1.00  0.00     0.000 C 
BRANCH  20  21
ATOM     21  C   UNL     1      77.281  86.598  68.321  1.00  0.00     0.000 C 
BRANCH  21  22
ATOM     22  C   UNL     1      77.267  87.254  69.705  1.00  0.00     0.003 C 
BRANCH  22  23
ATOM     23  C   UNL     1      75.942  87.970  70.032  1.00  0.00    -0.017 C 
ATOM     24  C   UNL     1      74.918  86.955  70.544  1.00  0.00     0.007 C 
ATOM     25  C   UNL     1      75.367  88.717  68.828  1.00  0.00     0.007 C 
ENDBRANCH  22  23
ENDBRANCH  21  22
ENDBRANCH  20  21
ENDBRANCH  19  20
ENDBRANCH  18  19
ENDBRANCH   1  18
TORSDOF 12
ENDMDL
MODEL 10
REMARK VINA RESULT:    -4.678     29.661     32.509
REMARK INTER + INTRA:          -9.617
REMARK INTER:                  -7.714
REMARK INTRA:                  -1.903
REMARK UNBOUND:                -1.794
REMARK SMILES COc1cc(CNC(=O)CCCCCCCC(C)C)ccc1O
REMARK SMILES IDX 11 1 10 2 8 3 9 4 7 5 6 7 5 8 4 9 20 10 3 11 21 12 22 13
REMARK SMILES IDX 2 14 1 15 23 16 12 18 13 19 14 20 15 21 16 22 17 23 18 24
REMARK SMILES IDX 19 25
REMARK H PARENT 7 6 23 17
REMARK Flexibility Score: inf
ROOT
ATOM      1  C   UNL     1      65.415  83.789  77.326  1.00  0.00     0.010 C 
ENDROOT
BRANCH   1   2
ATOM      2  C   UNL     1      64.200  84.471  76.702  1.00  0.00     0.100 C 
BRANCH   2   3
ATOM      3  C   UNL     1      63.320  83.497  75.936  1.00  0.00     0.220 C 
ATOM      4  O   UNL     1      62.104  83.425  76.088  1.00  0.00    -0.275 OA
ATOM      5  N   UNL     1      64.063  82.714  75.066  1.00  0.00    -0.352 N 
ATOM      6  H   UNL     1      65.071  82.837  75.016  1.00  0.00     0.163 HD
BRANCH   5   7
ATOM      7  C   UNL     1      63.471  81.700  74.224  1.00  0.00     0.151 C 
BRANCH   7   8
ATOM      8  C   UNL     1      63.508  82.084  72.773  1.00  0.00    -0.025 A 
ATOM      9  C   UNL     1      62.632  83.052  72.296  1.00  0.00     0.056 A 
ATOM     10  C   UNL     1      64.417  81.468  71.923  1.00  0.00     0.009 A 
ATOM     11  C   UNL     1      62.666  83.408  70.948  1.00  0.00     0.160 A 
ATOM     12  C   UNL     1      64.451  81.824  70.574  1.00  0.00     0.050 A 
ATOM     13  C   UNL     1      63.575  82.794  70.086  1.00  0.00     0.157 A 
BRANCH  11  14
ATOM     14  O   UNL     1      61.805  84.357  70.483  1.00  0.00    -0.493 OA
ATOM     15  C   UNL     1      60.748  84.755  71.355  1.00  0.00     0.278 C 
ENDBRANCH  11  14
BRANCH  13  16
ATOM     16  O   UNL     1      63.619  83.134  68.768  1.00  0.00    -0.504 OA
ATOM     17  H   UNL     1      63.560  84.102  68.689  1.00  0.00     0.293 HD
ENDBRANCH  13  16
ENDBRANCH   7   8
ENDBRANCH   5   7
ENDBRANCH   2   3
ENDBRANCH   1   2
BRANCH   1  18
ATOM     18  C   UNL     1      66.536  84.762  77.700  1.00  0.00     0.001 C 
BRANCH  18  19
ATOM     19  C   UNL     1      67.627  84.958  76.642  1.00  0.00     0.000 C 
BRANCH  19  20
ATOM     20  C   UNL     1      67.413  86.204  75.777  1.00  0.00     0.000 C 
BRANCH  20  21
ATOM     21  C   UNL     1      66.601  85.931  74.506  1.00  0.00     0.000 C 
BRANCH  21  22
ATOM     22  C   UNL     1      67.411  85.238  73.406  1.00  0.00     0.003 C 
BRANCH  22  23
ATOM     23  C   UNL     1      66.536  84.555  72.336  1.00  0.00    -0.017 C 
ATOM     24  C   UNL     1      67.428  83.899  71.279  1.00  0.00     0.007 C 
ATOM     25  C   UNL     1      65.569  85.529  71.661  1.00  0.00     0.007 C 
ENDBRANCH  22  23
ENDBRANCH  21  22
ENDBRANCH  20  21
ENDBRANCH  19  20
ENDBRANCH  18  19
ENDBRANCH   1  18
TORSDOF 12
ENDMDL
