MODEL 1
REMARK VINA RESULT:    -6.250      0.000      0.000
REMARK INTER + INTRA:         -10.614
REMARK INTER:                  -9.722
REMARK INTRA:                  -0.893
REMARK UNBOUND:                -0.893
REMARK SMILES CCCCC/C=C/C(=O)CCc1ccc(O)c(OC)c1
REMARK SMILES IDX 6 1 7 2 8 3 9 4 10 5 11 6 12 7 17 8 20 9 15 10 14 11 13 12
REMARK SMILES IDX 18 13 19 14 16 15 5 17 4 18 3 19 2 20 1 21
REMARK H PARENT 16 16
REMARK Flexibility Score: inf
ROOT
ATOM      1  C   UNL     1      91.531  94.740  76.267  1.00  0.00    -0.023 C 
ATOM      2  C   UNL     1      92.477  95.573  76.718  1.00  0.00     0.043 C 
ENDROOT
BRANCH   2   3
ATOM      3  C   UNL     1      93.528  96.073  75.791  1.00  0.00     0.155 C 
ATOM      4  O   UNL     1      93.326  97.017  75.029  1.00  0.00    -0.295 OA
BRANCH   3   5
ATOM      5  C   UNL     1      94.847  95.325  75.796  1.00  0.00     0.085 C 
BRANCH   5   6
ATOM      6  C   UNL     1      94.702  93.949  76.449  1.00  0.00     0.044 C 
BRANCH   6   7
ATOM      7  C   UNL     1      95.245  93.907  77.857  1.00  0.00    -0.044 A 
ATOM      8  C   UNL     1      96.669  94.821  79.559  1.00  0.00     0.160 A 
ATOM      9  C   UNL     1      96.168  94.860  78.258  1.00  0.00     0.054 A 
ATOM     10  C   UNL     1      96.241  93.829  80.442  1.00  0.00     0.157 A 
ATOM     11  C   UNL     1      95.312  92.876  80.023  1.00  0.00     0.050 A 
ATOM     12  C   UNL     1      94.811  92.916  78.722  1.00  0.00     0.008 A 
BRANCH   8  13
ATOM     13  O   UNL     1      97.576  95.757  79.956  1.00  0.00    -0.493 OA
ATOM     14  C   UNL     1      97.072  97.049  80.287  1.00  0.00     0.278 C 
ENDBRANCH   8  13
BRANCH  10  15
ATOM     15  O   UNL     1      96.723  93.781  81.715  1.00  0.00    -0.504 OA
ATOM     16  H   UNL     1      97.693  93.835  81.677  1.00  0.00     0.293 HD
ENDBRANCH  10  15
ENDBRANCH   6   7
ENDBRANCH   5   6
ENDBRANCH   3   5
ENDBRANCH   2   3
BRANCH   1  17
ATOM     17  C   UNL     1      90.438  94.192  77.137  1.00  0.00     0.027 C 
BRANCH  17  18
ATOM     18  C   UNL     1      90.726  92.774  77.643  1.00  0.00     0.004 C 
BRANCH  18  19
ATOM     19  C   UNL     1      89.636  91.760  77.283  1.00  0.00     0.000 C 
BRANCH  19  20
ATOM     20  C   UNL     1      89.679  91.408  75.796  1.00  0.00    -0.003 C 
ATOM     21  C   UNL     1      91.106  91.199  75.314  1.00  0.00     0.004 C 
ENDBRANCH  19  20
ENDBRANCH  18  19
ENDBRANCH  17  18
ENDBRANCH   1  17
TORSDOF 10
ENDMDL
MODEL 2
REMARK VINA RESULT:    -6.153      2.385      4.576
REMARK INTER + INTRA:         -10.464
REMARK INTER:                  -9.523
REMARK INTRA:                  -0.941
REMARK UNBOUND:                -0.893
REMARK SMILES CCCCC/C=C/C(=O)CCc1ccc(O)c(OC)c1
REMARK SMILES IDX 6 1 7 2 8 3 9 4 10 5 11 6 12 7 17 8 20 9 15 10 14 11 13 12
REMARK SMILES IDX 18 13 19 14 16 15 5 17 4 18 3 19 2 20 1 21
REMARK H PARENT 16 16
REMARK Flexibility Score: inf
ROOT
ATOM      1  C   UNL     1      91.630  94.086  77.550  1.00  0.00    -0.023 C 
ATOM      2  C   UNL     1      92.534  93.298  78.146  1.00  0.00     0.043 C 
ENDROOT
BRANCH   2   3
ATOM      3  C   UNL     1      93.886  93.830  78.467  1.00  0.00     0.155 C 
ATOM      4  O   UNL     1      94.735  93.146  79.034  1.00  0.00    -0.295 OA
BRANCH   3   5
ATOM      5  C   UNL     1      94.145  95.280  78.105  1.00  0.00     0.085 C 
BRANCH   5   6
ATOM      6  C   UNL     1      95.581  95.482  77.618  1.00  0.00     0.044 C 
BRANCH   6   7
ATOM      7  C   UNL     1      95.656  95.881  76.162  1.00  0.00    -0.044 A 
ATOM      8  C   UNL     1      96.719  97.118  74.403  1.00  0.00     0.160 A 
ATOM      9  C   UNL     1      96.650  96.751  75.747  1.00  0.00     0.054 A 
ATOM     10  C   UNL     1      95.794  96.610  73.492  1.00  0.00     0.157 A 
ATOM     11  C   UNL     1      94.797  95.735  73.926  1.00  0.00     0.050 A 
ATOM     12  C   UNL     1      94.728  95.368  75.270  1.00  0.00     0.008 A 
BRANCH   8  13
ATOM     13  O   UNL     1      97.697  97.974  73.992  1.00  0.00    -0.493 OA
ATOM     14  C   UNL     1      98.846  98.096  74.828  1.00  0.00     0.278 C 
ENDBRANCH   8  13
BRANCH  10  15
ATOM     15  O   UNL     1      95.851  96.961  72.177  1.00  0.00    -0.504 OA
ATOM     16  H   UNL     1      95.057  97.482  71.965  1.00  0.00     0.293 HD
ENDBRANCH  10  15
ENDBRANCH   6   7
ENDBRANCH   5   6
ENDBRANCH   3   5
ENDBRANCH   2   3
BRANCH   1  17
ATOM     17  C   UNL     1      90.247  93.625  77.194  1.00  0.00     0.027 C 
BRANCH  17  18
ATOM     18  C   UNL     1      90.085  92.103  77.259  1.00  0.00     0.004 C 
BRANCH  18  19
ATOM     19  C   UNL     1      89.770  91.460  75.905  1.00  0.00     0.000 C 
BRANCH  19  20
ATOM     20  C   UNL     1      91.053  91.072  75.167  1.00  0.00    -0.003 C 
ATOM     21  C   UNL     1      90.934  89.696  74.530  1.00  0.00     0.004 C 
ENDBRANCH  19  20
ENDBRANCH  18  19
ENDBRANCH  17  18
ENDBRANCH   1  17
TORSDOF 10
ENDMDL
MODEL 3
REMARK VINA RESULT:    -6.067      2.605      4.901
REMARK INTER + INTRA:         -10.329
REMARK INTER:                  -9.750
REMARK INTRA:                  -0.580
REMARK UNBOUND:                -0.893
REMARK SMILES CCCCC/C=C/C(=O)CCc1ccc(O)c(OC)c1
REMARK SMILES IDX 6 1 7 2 8 3 9 4 10 5 11 6 12 7 17 8 20 9 15 10 14 11 13 12
REMARK SMILES IDX 18 13 19 14 16 15 5 17 4 18 3 19 2 20 1 21
REMARK H PARENT 16 16
REMARK Flexibility Score: inf
ROOT
ATOM      1  C   UNL     1      91.389  93.345  77.417  1.00  0.00    -0.023 C 
ATOM      2  C   UNL     1      92.409  93.267  78.280  1.00  0.00     0.043 C 
ENDROOT
BRANCH   2   3
ATOM      3  C   UNL     1      93.605  94.132  78.096  1.00  0.00     0.155 C 
ATOM      4  O   UNL     1      94.688  93.862  78.613  1.00  0.00    -0.295 OA
BRANCH   3   5
ATOM      5  C   UNL     1      93.407  95.395  77.280  1.00  0.00     0.085 C 
BRANCH   5   6
ATOM      6  C   UNL     1      93.646  95.138  75.792  1.00  0.00     0.044 C 
BRANCH   6   7
ATOM      7  C   UNL     1      94.865  95.855  75.260  1.00  0.00    -0.044 A 
ATOM      8  C   UNL     1      96.173  96.623  73.401  1.00  0.00     0.160 A 
ATOM      9  C   UNL     1      95.047  95.961  73.891  1.00  0.00     0.054 A 
ATOM     10  C   UNL     1      97.101  97.170  74.286  1.00  0.00     0.157 A 
ATOM     11  C   UNL     1      96.904  97.055  75.663  1.00  0.00     0.050 A 
ATOM     12  C   UNL     1      95.778  96.392  76.153  1.00  0.00     0.008 A 
BRANCH   8  13
ATOM     13  O   UNL     1      96.354  96.729  72.055  1.00  0.00    -0.493 OA
ATOM     14  C   UNL     1      95.733  97.834  71.401  1.00  0.00     0.278 C 
ENDBRANCH   8  13
BRANCH  10  15
ATOM     15  O   UNL     1      98.204  97.820  73.820  1.00  0.00    -0.504 OA
ATOM     16  H   UNL     1      98.068  98.013  72.876  1.00  0.00     0.293 HD
ENDBRANCH  10  15
ENDBRANCH   6   7
ENDBRANCH   5   6
ENDBRANCH   3   5
ENDBRANCH   2   3
BRANCH   1  17
ATOM     17  C   UNL     1      90.149  92.507  77.533  1.00  0.00     0.027 C 
BRANCH  17  18
ATOM     18  C   UNL     1      90.108  91.351  76.529  1.00  0.00     0.004 C 
BRANCH  18  19
ATOM     19  C   UNL     1      90.127  91.807  75.067  1.00  0.00     0.000 C 
BRANCH  19  20
ATOM     20  C   UNL     1      90.123  90.609  74.115  1.00  0.00    -0.003 C 
ATOM     21  C   UNL     1      90.853  89.419  74.715  1.00  0.00     0.004 C 
ENDBRANCH  19  20
ENDBRANCH  18  19
ENDBRANCH  17  18
ENDBRANCH   1  17
TORSDOF 10
ENDMDL
MODEL 4
REMARK VINA RESULT:    -6.057      1.901      2.988
REMARK INTER + INTRA:         -10.313
REMARK INTER:                  -9.591
REMARK INTRA:                  -0.723
REMARK UNBOUND:                -0.893
REMARK SMILES CCCCC/C=C/C(=O)CCc1ccc(O)c(OC)c1
REMARK SMILES IDX 6 1 7 2 8 3 9 4 10 5 11 6 12 7 17 8 20 9 15 10 14 11 13 12
REMARK SMILES IDX 18 13 19 14 16 15 5 17 4 18 3 19 2 20 1 21
REMARK H PARENT 16 16
REMARK Flexibility Score: inf
ROOT
ATOM      1  C   UNL     1      91.409  93.302  77.388  1.00  0.00    -0.023 C 
ATOM      2  C   UNL     1      92.345  93.262  78.344  1.00  0.00     0.043 C 
ENDROOT
BRANCH   2   3
ATOM      3  C   UNL     1      93.646  93.955  78.140  1.00  0.00     0.155 C 
ATOM      4  O   UNL     1      93.707  95.113  77.730  1.00  0.00    -0.295 OA
BRANCH   3   5
ATOM      5  C   UNL     1      94.896  93.142  78.412  1.00  0.00     0.085 C 
BRANCH   5   6
ATOM      6  C   UNL     1      95.366  93.314  79.857  1.00  0.00     0.044 C 
BRANCH   6   7
ATOM      7  C   UNL     1      96.230  94.537  80.052  1.00  0.00    -0.044 A 
ATOM      8  C   UNL     1      96.711  96.570  81.233  1.00  0.00     0.160 A 
ATOM      9  C   UNL     1      95.912  95.441  81.054  1.00  0.00     0.054 A 
ATOM     10  C   UNL     1      97.817  96.781  80.410  1.00  0.00     0.157 A 
ATOM     11  C   UNL     1      98.124  95.862  79.406  1.00  0.00     0.050 A 
ATOM     12  C   UNL     1      97.325  94.733  79.226  1.00  0.00     0.008 A 
BRANCH   8  13
ATOM     13  O   UNL     1      96.401  97.460  82.217  1.00  0.00    -0.493 OA
ATOM     14  C   UNL     1      96.917  97.192  83.520  1.00  0.00     0.278 C 
ENDBRANCH   8  13
BRANCH  10  15
ATOM     15  O   UNL     1      98.605  97.880  80.576  1.00  0.00    -0.504 OA
ATOM     16  H   UNL     1      98.028  98.649  80.724  1.00  0.00     0.293 HD
ENDBRANCH  10  15
ENDBRANCH   6   7
ENDBRANCH   5   6
ENDBRANCH   3   5
ENDBRANCH   2   3
BRANCH   1  17
ATOM     17  C   UNL     1      90.074  92.629  77.517  1.00  0.00     0.027 C 
BRANCH  17  18
ATOM     18  C   UNL     1      89.908  91.434  76.572  1.00  0.00     0.004 C 
BRANCH  18  19
ATOM     19  C   UNL     1      90.889  91.442  75.395  1.00  0.00     0.000 C 
BRANCH  19  20
ATOM     20  C   UNL     1      90.311  90.699  74.190  1.00  0.00    -0.003 C 
ATOM     21  C   UNL     1      89.111  91.429  73.609  1.00  0.00     0.004 C 
ENDBRANCH  19  20
ENDBRANCH  18  19
ENDBRANCH  17  18
ENDBRANCH   1  17
TORSDOF 10
ENDMDL
MODEL 5
REMARK VINA RESULT:    -5.821      2.227      3.329
REMARK INTER + INTRA:          -9.946
REMARK INTER:                  -9.206
REMARK INTRA:                  -0.740
REMARK UNBOUND:                -0.893
REMARK SMILES CCCCC/C=C/C(=O)CCc1ccc(O)c(OC)c1
REMARK SMILES IDX 6 1 7 2 8 3 9 4 10 5 11 6 12 7 17 8 20 9 15 10 14 11 13 12
REMARK SMILES IDX 18 13 19 14 16 15 5 17 4 18 3 19 2 20 1 21
REMARK H PARENT 16 16
REMARK Flexibility Score: inf
ROOT
ATOM      1  C   UNL     1      92.028  94.137  77.685  1.00  0.00    -0.023 C 
ATOM      2  C   UNL     1      92.982  93.247  77.987  1.00  0.00     0.043 C 
ENDROOT
BRANCH   2   3
ATOM      3  C   UNL     1      94.142  93.658  78.823  1.00  0.00     0.155 C 
ATOM      4  O   UNL     1      94.471  93.034  79.830  1.00  0.00    -0.295 OA
BRANCH   3   5
ATOM      5  C   UNL     1      94.868  94.920  78.397  1.00  0.00     0.085 C 
BRANCH   5   6
ATOM      6  C   UNL     1      96.375  94.682  78.283  1.00  0.00     0.044 C 
BRANCH   6   7
ATOM      7  C   UNL     1      97.173  95.475  79.290  1.00  0.00    -0.044 A 
ATOM      8  C   UNL     1      98.853  95.560  81.002  1.00  0.00     0.160 A 
ATOM      9  C   UNL     1      98.115  94.827  80.073  1.00  0.00     0.054 A 
ATOM     10  C   UNL     1      98.638  96.931  81.138  1.00  0.00     0.157 A 
ATOM     11  C   UNL     1      97.685  97.570  80.343  1.00  0.00     0.050 A 
ATOM     12  C   UNL     1      96.948  96.836  79.413  1.00  0.00     0.008 A 
BRANCH   8  13
ATOM     13  O   UNL     1      99.780  94.925  81.773  1.00  0.00    -0.493 OA
ATOM     14  C   UNL     1      99.315  94.312  82.974  1.00  0.00     0.278 C 
ENDBRANCH   8  13
BRANCH  10  15
ATOM     15  O   UNL     1      99.352  97.658  82.042  1.00  0.00    -0.504 OA
ATOM     16  H   UNL     1      98.889  97.621  82.897  1.00  0.00     0.293 HD
ENDBRANCH  10  15
ENDBRANCH   6   7
ENDBRANCH   5   6
ENDBRANCH   3   5
ENDBRANCH   2   3
BRANCH   1  17
ATOM     17  C   UNL     1      90.828  93.801  76.849  1.00  0.00     0.027 C 
BRANCH  17  18
ATOM     18  C   UNL     1      89.992  92.655  77.428  1.00  0.00     0.004 C 
BRANCH  18  19
ATOM     19  C   UNL     1      90.036  91.376  76.585  1.00  0.00     0.000 C 
BRANCH  19  20
ATOM     20  C   UNL     1      90.868  91.580  75.318  1.00  0.00    -0.003 C 
ATOM     21  C   UNL     1      90.810  90.360  74.412  1.00  0.00     0.004 C 
ENDBRANCH  19  20
ENDBRANCH  18  19
ENDBRANCH  17  18
ENDBRANCH   1  17
TORSDOF 10
ENDMDL
MODEL 6
REMARK VINA RESULT:    -5.713      2.392      3.577
REMARK INTER + INTRA:          -9.778
REMARK INTER:                  -9.013
REMARK INTRA:                  -0.765
REMARK UNBOUND:                -0.893
REMARK SMILES CCCCC/C=C/C(=O)CCc1ccc(O)c(OC)c1
REMARK SMILES IDX 6 1 7 2 8 3 9 4 10 5 11 6 12 7 17 8 20 9 15 10 14 11 13 12
REMARK SMILES IDX 18 13 19 14 16 15 5 17 4 18 3 19 2 20 1 21
REMARK H PARENT 16 16
REMARK Flexibility Score: inf
ROOT
ATOM      1  C   UNL     1      93.712  93.346  77.403  1.00  0.00    -0.023 C 
ATOM      2  C   UNL     1      93.641  93.332  78.740  1.00  0.00     0.043 C 
ENDROOT
BRANCH   2   3
ATOM      3  C   UNL     1      94.842  92.975  79.543  1.00  0.00     0.155 C 
ATOM      4  O   UNL     1      94.750  92.527  80.684  1.00  0.00    -0.295 OA
BRANCH   3   5
ATOM      5  C   UNL     1      96.189  93.243  78.901  1.00  0.00     0.085 C 
BRANCH   5   6
ATOM      6  C   UNL     1      96.597  94.709  79.058  1.00  0.00     0.044 C 
BRANCH   6   7
ATOM      7  C   UNL     1      97.220  95.004  80.402  1.00  0.00    -0.044 A 
ATOM      8  C   UNL     1      97.327  96.347  82.388  1.00  0.00     0.160 A 
ATOM      9  C   UNL     1      96.752  96.076  81.146  1.00  0.00     0.054 A 
ATOM     10  C   UNL     1      98.362  95.545  82.869  1.00  0.00     0.157 A 
ATOM     11  C   UNL     1      98.822  94.470  82.107  1.00  0.00     0.050 A 
ATOM     12  C   UNL     1      98.247  94.198  80.866  1.00  0.00     0.008 A 
BRANCH   8  13
ATOM     13  O   UNL     1      96.869  97.400  83.122  1.00  0.00    -0.493 OA
ATOM     14  C   UNL     1      96.897  98.684  82.501  1.00  0.00     0.278 C 
ENDBRANCH   8  13
BRANCH  10  15
ATOM     15  O   UNL     1      98.931  95.800  84.080  1.00  0.00    -0.504 OA
ATOM     16  H   UNL     1      99.796  95.357  84.109  1.00  0.00     0.293 HD
ENDBRANCH  10  15
ENDBRANCH   6   7
ENDBRANCH   5   6
ENDBRANCH   3   5
ENDBRANCH   2   3
BRANCH   1  17
ATOM     17  C   UNL     1      92.547  93.694  76.522  1.00  0.00     0.027 C 
BRANCH  17  18
ATOM     18  C   UNL     1      91.274  92.918  76.875  1.00  0.00     0.004 C 
BRANCH  18  19
ATOM     19  C   UNL     1      90.525  92.380  75.652  1.00  0.00     0.000 C 
BRANCH  19  20
ATOM     20  C   UNL     1      90.428  90.854  75.692  1.00  0.00    -0.003 C 
ATOM     21  C   UNL     1      90.815  90.236  74.358  1.00  0.00     0.004 C 
ENDBRANCH  19  20
ENDBRANCH  18  19
ENDBRANCH  17  18
ENDBRANCH   1  17
TORSDOF 10
ENDMDL
MODEL 7
REMARK VINA RESULT:    -5.509     12.481     14.466
REMARK INTER + INTRA:          -9.462
REMARK INTER:                  -8.923
REMARK INTRA:                  -0.539
REMARK UNBOUND:                -0.893
REMARK SMILES CCCCC/C=C/C(=O)CCc1ccc(O)c(OC)c1
REMARK SMILES IDX 6 1 7 2 8 3 9 4 10 5 11 6 12 7 17 8 20 9 15 10 14 11 13 12
REMARK SMILES IDX 18 13 19 14 16 15 5 17 4 18 3 19 2 20 1 21
REMARK H PARENT 16 16
REMARK Flexibility Score: inf
ROOT
ATOM      1  C   UNL     1      97.993  81.754  78.652  1.00  0.00    -0.023 C 
ATOM      2  C   UNL     1      96.766  81.837  78.124  1.00  0.00     0.043 C 
ENDROOT
BRANCH   2   3
ATOM      3  C   UNL     1      96.566  82.523  76.819  1.00  0.00     0.155 C 
ATOM      4  O   UNL     1      95.507  83.078  76.533  1.00  0.00    -0.295 OA
BRANCH   3   5
ATOM      5  C   UNL     1      97.718  82.456  75.836  1.00  0.00     0.085 C 
BRANCH   5   6
ATOM      6  C   UNL     1      97.374  83.169  74.527  1.00  0.00     0.044 C 
BRANCH   6   7
ATOM      7  C   UNL     1      98.447  83.018  73.476  1.00  0.00    -0.044 A 
ATOM      8  C   UNL     1      99.714  81.622  71.990  1.00  0.00     0.160 A 
ATOM      9  C   UNL     1      98.723  81.761  72.962  1.00  0.00     0.054 A 
ATOM     10  C   UNL     1     100.417  82.741  71.546  1.00  0.00     0.157 A 
ATOM     11  C   UNL     1     100.129  84.000  72.073  1.00  0.00     0.050 A 
ATOM     12  C   UNL     1      99.138  84.139  73.045  1.00  0.00     0.008 A 
BRANCH   8  13
ATOM     13  O   UNL     1      99.986  80.387  71.483  1.00  0.00    -0.493 OA
ATOM     14  C   UNL     1      99.116  79.898  70.464  1.00  0.00     0.278 C 
ENDBRANCH   8  13
BRANCH  10  15
ATOM     15  O   UNL     1     101.387  82.618  70.597  1.00  0.00    -0.504 OA
ATOM     16  H   UNL     1     101.978  81.891  70.858  1.00  0.00     0.293 HD
ENDBRANCH  10  15
ENDBRANCH   6   7
ENDBRANCH   5   6
ENDBRANCH   3   5
ENDBRANCH   2   3
BRANCH   1  17
ATOM     17  C   UNL     1      98.278  81.079  79.963  1.00  0.00     0.027 C 
BRANCH  17  18
ATOM     18  C   UNL     1      97.035  80.932  80.847  1.00  0.00     0.004 C 
BRANCH  18  19
ATOM     19  C   UNL     1      96.702  82.192  81.652  1.00  0.00     0.000 C 
BRANCH  19  20
ATOM     20  C   UNL     1      96.011  81.839  82.970  1.00  0.00    -0.003 C 
ATOM     21  C   UNL     1      95.890  80.334  83.149  1.00  0.00     0.004 C 
ENDBRANCH  19  20
ENDBRANCH  18  19
ENDBRANCH  17  18
ENDBRANCH   1  17
TORSDOF 10
ENDMDL
MODEL 8
REMARK VINA RESULT:    -5.449      2.818      4.493
REMARK INTER + INTRA:          -9.368
REMARK INTER:                  -8.075
REMARK INTRA:                  -1.293
REMARK UNBOUND:                -0.893
REMARK SMILES CCCCC/C=C/C(=O)CCc1ccc(O)c(OC)c1
REMARK SMILES IDX 6 1 7 2 8 3 9 4 10 5 11 6 12 7 17 8 20 9 15 10 14 11 13 12
REMARK SMILES IDX 18 13 19 14 16 15 5 17 4 18 3 19 2 20 1 21
REMARK H PARENT 16 16
REMARK Flexibility Score: inf
ROOT
ATOM      1  C   UNL     1      93.795  94.948  77.879  1.00  0.00    -0.023 C 
ATOM      2  C   UNL     1      94.030  93.632  77.808  1.00  0.00     0.043 C 
ENDROOT
BRANCH   2   3
ATOM      3  C   UNL     1      95.215  93.051  78.496  1.00  0.00     0.155 C 
ATOM      4  O   UNL     1      96.168  92.593  77.871  1.00  0.00    -0.295 OA
BRANCH   3   5
ATOM      5  C   UNL     1      95.162  93.007  80.011  1.00  0.00     0.085 C 
BRANCH   5   6
ATOM      6  C   UNL     1      96.474  93.496  80.627  1.00  0.00     0.044 C 
BRANCH   6   7
ATOM      7  C   UNL     1      96.544  95.001  80.742  1.00  0.00    -0.044 A 
ATOM      8  C   UNL     1      97.158  97.126  79.812  1.00  0.00     0.160 A 
ATOM      9  C   UNL     1      97.094  95.736  79.705  1.00  0.00     0.054 A 
ATOM     10  C   UNL     1      96.671  97.761  80.954  1.00  0.00     0.157 A 
ATOM     11  C   UNL     1      96.121  97.006  81.991  1.00  0.00     0.050 A 
ATOM     12  C   UNL     1      96.057  95.617  81.884  1.00  0.00     0.008 A 
BRANCH   8  13
ATOM     13  O   UNL     1      97.698  97.852  78.793  1.00  0.00    -0.493 OA
ATOM     14  C   UNL     1      98.829  97.293  78.128  1.00  0.00     0.278 C 
ENDBRANCH   8  13
BRANCH  10  15
ATOM     15  O   UNL     1      96.728  99.117  81.070  1.00  0.00    -0.504 OA
ATOM     16  H   UNL     1      96.637  99.347  82.011  1.00  0.00     0.293 HD
ENDBRANCH  10  15
ENDBRANCH   6   7
ENDBRANCH   5   6
ENDBRANCH   3   5
ENDBRANCH   2   3
BRANCH   1  17
ATOM     17  C   UNL     1      92.623  95.609  77.214  1.00  0.00     0.027 C 
BRANCH  17  18
ATOM     18  C   UNL     1      92.674  95.526  75.684  1.00  0.00     0.004 C 
BRANCH  18  19
ATOM     19  C   UNL     1      93.541  96.612  75.039  1.00  0.00     0.000 C 
BRANCH  19  20
ATOM     20  C   UNL     1      94.879  96.042  74.567  1.00  0.00    -0.003 C 
ATOM     21  C   UNL     1      96.046  96.665  75.317  1.00  0.00     0.004 C 
ENDBRANCH  19  20
ENDBRANCH  18  19
ENDBRANCH  17  18
ENDBRANCH   1  17
TORSDOF 10
ENDMDL
MODEL 9
REMARK VINA RESULT:    -5.359     13.870     16.530
REMARK INTER + INTRA:          -9.228
REMARK INTER:                  -8.435
REMARK INTRA:                  -0.792
REMARK UNBOUND:                -0.893
REMARK SMILES CCCCC/C=C/C(=O)CCc1ccc(O)c(OC)c1
REMARK SMILES IDX 6 1 7 2 8 3 9 4 10 5 11 6 12 7 17 8 20 9 15 10 14 11 13 12
REMARK SMILES IDX 18 13 19 14 16 15 5 17 4 18 3 19 2 20 1 21
REMARK H PARENT 16 16
REMARK Flexibility Score: inf
ROOT
ATOM      1  C   UNL     1      96.086  82.077  82.304  1.00  0.00    -0.023 C 
ATOM      2  C   UNL     1      95.796  81.279  83.339  1.00  0.00     0.043 C 
ENDROOT
BRANCH   2   3
ATOM      3  C   UNL     1      94.798  81.713  84.353  1.00  0.00     0.155 C 
ATOM      4  O   UNL     1      94.827  82.836  84.853  1.00  0.00    -0.295 OA
BRANCH   3   5
ATOM      5  C   UNL     1      93.772  80.680  84.779  1.00  0.00     0.085 C 
BRANCH   5   6
ATOM      6  C   UNL     1      92.400  81.318  85.000  1.00  0.00     0.044 C 
BRANCH   6   7
ATOM      7  C   UNL     1      91.260  80.354  84.772  1.00  0.00    -0.044 A 
ATOM      8  C   UNL     1      88.941  79.959  84.297  1.00  0.00     0.160 A 
ATOM      9  C   UNL     1      89.993  80.850  84.508  1.00  0.00     0.054 A 
ATOM     10  C   UNL     1      89.169  78.585  84.353  1.00  0.00     0.157 A 
ATOM     11  C   UNL     1      90.450  78.100  84.620  1.00  0.00     0.050 A 
ATOM     12  C   UNL     1      91.502  78.992  84.831  1.00  0.00     0.008 A 
BRANCH   8  13
ATOM     13  O   UNL     1      87.695  80.445  84.037  1.00  0.00    -0.493 OA
ATOM     14  C   UNL     1      86.989  81.036  85.126  1.00  0.00     0.278 C 
ENDBRANCH   8  13
BRANCH  10  15
ATOM     15  O   UNL     1      88.150  77.705  84.148  1.00  0.00    -0.504 OA
ATOM     16  H   UNL     1      87.343  78.073  84.547  1.00  0.00     0.293 HD
ENDBRANCH  10  15
ENDBRANCH   6   7
ENDBRANCH   5   6
ENDBRANCH   3   5
ENDBRANCH   2   3
BRANCH   1  17
ATOM     17  C   UNL     1      97.080  81.712  81.240  1.00  0.00     0.027 C 
BRANCH  17  18
ATOM     18  C   UNL     1      97.735  80.346  81.471  1.00  0.00     0.004 C 
BRANCH  18  19
ATOM     19  C   UNL     1      97.515  79.358  80.321  1.00  0.00     0.000 C 
BRANCH  19  20
ATOM     20  C   UNL     1      97.281  77.941  80.848  1.00  0.00    -0.003 C 
ATOM     21  C   UNL     1      96.605  77.959  82.210  1.00  0.00     0.004 C 
ENDBRANCH  19  20
ENDBRANCH  18  19
ENDBRANCH  17  18
ENDBRANCH   1  17
TORSDOF 10
ENDMDL
MODEL 10
REMARK VINA RESULT:    -5.113     12.827     14.569
REMARK INTER + INTRA:          -8.846
REMARK INTER:                  -8.061
REMARK INTRA:                  -0.785
REMARK UNBOUND:                -0.893
REMARK SMILES CCCCC/C=C/C(=O)CCc1ccc(O)c(OC)c1
REMARK SMILES IDX 6 1 7 2 8 3 9 4 10 5 11 6 12 7 17 8 20 9 15 10 14 11 13 12
REMARK SMILES IDX 18 13 19 14 16 15 5 17 4 18 3 19 2 20 1 21
REMARK H PARENT 16 16
REMARK Flexibility Score: inf
ROOT
ATOM      1  C   UNL     1      97.246  82.082  78.104  1.00  0.00    -0.023 C 
ATOM      2  C   UNL     1      96.163  82.486  77.429  1.00  0.00     0.043 C 
ENDROOT
BRANCH   2   3
ATOM      3  C   UNL     1      96.278  82.843  75.989  1.00  0.00     0.155 C 
ATOM      4  O   UNL     1      95.483  83.607  75.444  1.00  0.00    -0.295 OA
BRANCH   3   5
ATOM      5  C   UNL     1      97.396  82.175  75.213  1.00  0.00     0.085 C 
BRANCH   5   6
ATOM      6  C   UNL     1      97.341  82.544  73.730  1.00  0.00     0.044 C 
BRANCH   6   7
ATOM      7  C   UNL     1      98.708  82.777  73.132  1.00  0.00    -0.044 A 
ATOM      8  C   UNL     1     100.755  81.905  72.233  1.00  0.00     0.160 A 
ATOM      9  C   UNL     1      99.493  81.689  72.786  1.00  0.00     0.054 A 
ATOM     10  C   UNL     1     101.216  83.206  72.033  1.00  0.00     0.157 A 
ATOM     11  C   UNL     1     100.414  84.292  72.387  1.00  0.00     0.050 A 
ATOM     12  C   UNL     1      99.152  84.075  72.940  1.00  0.00     0.008 A 
BRANCH   8  13
ATOM     13  O   UNL     1     101.529  80.836  71.892  1.00  0.00    -0.493 OA
ATOM     14  C   UNL     1     101.751  79.850  72.898  1.00  0.00     0.278 C 
ENDBRANCH   8  13
BRANCH  10  15
ATOM     15  O   UNL     1     102.447  83.429  71.494  1.00  0.00    -0.504 OA
ATOM     16  H   UNL     1     102.761  84.298  71.799  1.00  0.00     0.293 HD
ENDBRANCH  10  15
ENDBRANCH   6   7
ENDBRANCH   5   6
ENDBRANCH   3   5
ENDBRANCH   2   3
BRANCH   1  17
ATOM     17  C   UNL     1      97.213  81.705  79.557  1.00  0.00     0.027 C 
BRANCH  17  18
ATOM     18  C   UNL     1      97.776  80.306  79.828  1.00  0.00     0.004 C 
BRANCH  18  19
ATOM     19  C   UNL     1      98.893  79.896  78.863  1.00  0.00     0.000 C 
BRANCH  19  20
ATOM     20  C   UNL     1     100.271  80.206  79.449  1.00  0.00    -0.003 C 
ATOM     21  C   UNL     1     101.387  79.726  78.535  1.00  0.00     0.004 C 
ENDBRANCH  19  20
ENDBRANCH  18  19
ENDBRANCH  17  18
ENDBRANCH   1  17
TORSDOF 10
ENDMDL
