MODEL 1
REMARK VINA RESULT:    -6.878      0.000      0.000
REMARK INTER + INTRA:         -11.601
REMARK INTER:                 -10.697
REMARK INTRA:                  -0.903
REMARK UNBOUND:                -0.903
REMARK SMILES COc1cc(CNC(=O)CCCC/C=C/C(C)C)ccc1O
REMARK SMILES IDX 10 1 8 2 7 3 9 5 6 6 5 7 3 8 21 9 4 10 20 11 19 12 2 13 1 14
REMARK SMILES IDX 22 15 11 17 12 18 13 19 14 20 15 21 16 22 17 23 18 24
REMARK H PARENT 7 4 22 16
REMARK Flexibility Score: inf
ROOT
ATOM      1  C   UNL     1      90.184  92.616  77.567  1.00  0.00     0.100 C 
ENDROOT
BRANCH   1   2
ATOM      2  C   UNL     1      91.231  93.308  76.791  1.00  0.00     0.220 C 
ATOM      3  N   UNL     1      92.548  93.115  77.081  1.00  0.00    -0.352 N 
ATOM      4  H   UNL     1      92.727  92.499  77.862  1.00  0.00     0.163 HD
ATOM      5  O   UNL     1      90.873  94.055  75.848  1.00  0.00    -0.275 OA
BRANCH   3   6
ATOM      6  C   UNL     1      93.635  93.711  76.372  1.00  0.00     0.151 C 
BRANCH   6   7
ATOM      7  C   UNL     1      94.606  94.353  77.300  1.00  0.00    -0.025 A 
ATOM      8  C   UNL     1      95.321  94.895  79.593  1.00  0.00     0.160 A 
ATOM      9  C   UNL     1      96.457  95.556  79.083  1.00  0.00     0.157 A 
ATOM     10  C   UNL     1      94.406  94.303  78.698  1.00  0.00     0.056 A 
ATOM     11  C   UNL     1      96.660  95.632  77.691  1.00  0.00     0.050 A 
ATOM     12  C   UNL     1      95.747  95.027  76.805  1.00  0.00     0.009 A 
BRANCH   8  13
ATOM     13  O   UNL     1      95.085  94.875  80.944  1.00  0.00    -0.493 OA
ATOM     14  C   UNL     1      95.625  93.724  81.618  1.00  0.00     0.278 C 
ENDBRANCH   8  13
BRANCH   9  15
ATOM     15  O   UNL     1      97.365  96.125  79.918  1.00  0.00    -0.504 OA
ATOM     16  H   UNL     1      97.805  95.441  80.428  1.00  0.00     0.293 HD
ENDBRANCH   9  15
ENDBRANCH   6   7
ENDBRANCH   3   6
ENDBRANCH   1   2
BRANCH   1  17
ATOM     17  C   UNL     1      90.337  91.073  77.486  1.00  0.00     0.010 C 
BRANCH  17  18
ATOM     18  C   UNL     1      89.206  90.395  76.662  1.00  0.00     0.005 C 
BRANCH  18  19
ATOM     19  C   UNL     1      89.756  89.608  75.442  1.00  0.00     0.027 C 
BRANCH  19  20
ATOM     20  C   UNL     1      89.381  90.226  74.178  1.00  0.00    -0.031 C 
ATOM     21  C   UNL     1      89.752  91.464  73.803  1.00  0.00    -0.028 C 
BRANCH  21  22
ATOM     22  C   UNL     1      89.380  92.057  72.519  1.00  0.00     0.005 C 
ATOM     23  C   UNL     1      89.461  93.609  72.542  1.00  0.00     0.012 C 
ATOM     24  C   UNL     1      90.261  91.474  71.384  1.00  0.00     0.012 C 
ENDBRANCH  21  22
ENDBRANCH  19  20
ENDBRANCH  18  19
ENDBRANCH  17  18
ENDBRANCH   1  17
TORSDOF 10
ENDMDL
MODEL 2
REMARK VINA RESULT:    -6.672      2.605      8.186
REMARK INTER + INTRA:         -11.280
REMARK INTER:                 -10.531
REMARK INTRA:                  -0.749
REMARK UNBOUND:                -0.903
REMARK SMILES COc1cc(CNC(=O)CCCC/C=C/C(C)C)ccc1O
REMARK SMILES IDX 10 1 8 2 7 3 9 5 6 6 5 7 3 8 21 9 4 10 20 11 19 12 2 13 1 14
REMARK SMILES IDX 22 15 11 17 12 18 13 19 14 20 15 21 16 22 17 23 18 24
REMARK H PARENT 7 4 22 16
REMARK Flexibility Score: inf
ROOT
ATOM      1  C   UNL     1      92.315  94.343  76.244  1.00  0.00     0.100 C 
ENDROOT
BRANCH   1   2
ATOM      2  C   UNL     1      91.177  93.411  76.366  1.00  0.00     0.220 C 
ATOM      3  N   UNL     1      90.529  92.963  75.254  1.00  0.00    -0.352 N 
ATOM      4  H   UNL     1      90.874  93.334  74.380  1.00  0.00     0.163 HD
ATOM      5  O   UNL     1      90.843  93.031  77.514  1.00  0.00    -0.275 OA
BRANCH   3   6
ATOM      6  C   UNL     1      89.440  92.039  75.262  1.00  0.00     0.151 C 
BRANCH   6   7
ATOM      7  C   UNL     1      89.915  90.634  75.127  1.00  0.00    -0.025 A 
ATOM      8  C   UNL     1      90.371  88.435  76.135  1.00  0.00     0.160 A 
ATOM      9  C   UNL     1      90.798  87.948  74.883  1.00  0.00     0.157 A 
ATOM     10  C   UNL     1      89.936  89.772  76.246  1.00  0.00     0.056 A 
ATOM     11  C   UNL     1      90.800  88.802  73.762  1.00  0.00     0.050 A 
ATOM     12  C   UNL     1      90.353  90.132  73.880  1.00  0.00     0.009 A 
BRANCH   8  13
ATOM     13  O   UNL     1      90.428  87.628  77.243  1.00  0.00    -0.493 OA
ATOM     14  C   UNL     1      89.793  88.184  78.409  1.00  0.00     0.278 C 
ENDBRANCH   8  13
BRANCH   9  15
ATOM     15  O   UNL     1      91.210  86.662  74.739  1.00  0.00    -0.504 OA
ATOM     16  H   UNL     1      90.838  86.294  73.934  1.00  0.00     0.293 HD
ENDBRANCH   9  15
ENDBRANCH   6   7
ENDBRANCH   3   6
ENDBRANCH   1   2
BRANCH   1  17
ATOM     17  C   UNL     1      93.674  93.610  76.405  1.00  0.00     0.010 C 
BRANCH  17  18
ATOM     18  C   UNL     1      94.869  94.417  75.823  1.00  0.00     0.005 C 
BRANCH  18  19
ATOM     19  C   UNL     1      95.986  94.658  76.875  1.00  0.00     0.027 C 
BRANCH  19  20
ATOM     20  C   UNL     1      95.466  94.663  78.234  1.00  0.00    -0.031 C 
ATOM     21  C   UNL     1      96.062  95.284  79.269  1.00  0.00    -0.028 C 
BRANCH  21  22
ATOM     22  C   UNL     1      95.511  95.293  80.624  1.00  0.00     0.005 C 
ATOM     23  C   UNL     1      95.896  94.018  81.424  1.00  0.00     0.012 C 
ATOM     24  C   UNL     1      95.957  96.574  81.375  1.00  0.00     0.012 C 
ENDBRANCH  21  22
ENDBRANCH  19  20
ENDBRANCH  18  19
ENDBRANCH  17  18
ENDBRANCH   1  17
TORSDOF 10
ENDMDL
MODEL 3
REMARK VINA RESULT:    -6.628      1.604      2.758
REMARK INTER + INTRA:         -11.212
REMARK INTER:                 -10.574
REMARK INTRA:                  -0.638
REMARK UNBOUND:                -0.903
REMARK SMILES COc1cc(CNC(=O)CCCC/C=C/C(C)C)ccc1O
REMARK SMILES IDX 10 1 8 2 7 3 9 5 6 6 5 7 3 8 21 9 4 10 20 11 19 12 2 13 1 14
REMARK SMILES IDX 22 15 11 17 12 18 13 19 14 20 15 21 16 22 17 23 18 24
REMARK H PARENT 7 4 22 16
REMARK Flexibility Score: inf
ROOT
ATOM      1  C   UNL     1      91.708  93.759  76.689  1.00  0.00     0.100 C 
ENDROOT
BRANCH   1   2
ATOM      2  C   UNL     1      93.175  93.884  76.604  1.00  0.00     0.220 C 
ATOM      3  N   UNL     1      93.931  93.934  77.737  1.00  0.00    -0.352 N 
ATOM      4  H   UNL     1      93.408  93.903  78.601  1.00  0.00     0.163 HD
ATOM      5  O   UNL     1      93.702  93.919  75.466  1.00  0.00    -0.275 OA
BRANCH   3   6
ATOM      6  C   UNL     1      95.356  94.022  77.763  1.00  0.00     0.151 C 
BRANCH   6   7
ATOM      7  C   UNL     1      95.854  94.438  79.103  1.00  0.00    -0.025 A 
ATOM      8  C   UNL     1      97.086  96.036  80.514  1.00  0.00     0.160 A 
ATOM      9  C   UNL     1      96.793  95.257  81.653  1.00  0.00     0.157 A 
ATOM     10  C   UNL     1      96.616  95.619  79.251  1.00  0.00     0.056 A 
ATOM     11  C   UNL     1      96.051  94.067  81.518  1.00  0.00     0.050 A 
ATOM     12  C   UNL     1      95.576  93.665  80.254  1.00  0.00     0.009 A 
BRANCH   8  13
ATOM     13  O   UNL     1      97.864  97.160  80.631  1.00  0.00    -0.493 OA
ATOM     14  C   UNL     1      97.126  98.394  80.565  1.00  0.00     0.278 C 
ENDBRANCH   8  13
BRANCH   9  15
ATOM     15  O   UNL     1      97.220  95.638  82.885  1.00  0.00    -0.504 OA
ATOM     16  H   UNL     1      96.581  95.359  83.545  1.00  0.00     0.293 HD
ENDBRANCH   9  15
ENDBRANCH   6   7
ENDBRANCH   3   6
ENDBRANCH   1   2
BRANCH   1  17
ATOM     17  C   UNL     1      91.285  92.566  77.588  1.00  0.00     0.010 C 
BRANCH  17  18
ATOM     18  C   UNL     1      89.819  92.112  77.342  1.00  0.00     0.005 C 
BRANCH  18  19
ATOM     19  C   UNL     1      89.685  90.567  77.257  1.00  0.00     0.027 C 
BRANCH  19  20
ATOM     20  C   UNL     1      89.563  90.104  75.883  1.00  0.00    -0.031 C 
ATOM     21  C   UNL     1      88.662  90.575  75.003  1.00  0.00    -0.028 C 
BRANCH  21  22
ATOM     22  C   UNL     1      88.571  90.108  73.620  1.00  0.00     0.005 C 
ATOM     23  C   UNL     1      87.276  90.600  72.916  1.00  0.00     0.012 C 
ATOM     24  C   UNL     1      89.831  90.538  72.824  1.00  0.00     0.012 C 
ENDBRANCH  21  22
ENDBRANCH  19  20
ENDBRANCH  18  19
ENDBRANCH  17  18
ENDBRANCH   1  17
TORSDOF 10
ENDMDL
MODEL 4
REMARK VINA RESULT:    -6.443      3.964      7.486
REMARK INTER + INTRA:         -10.925
REMARK INTER:                 -10.267
REMARK INTRA:                  -0.658
REMARK UNBOUND:                -0.903
REMARK SMILES COc1cc(CNC(=O)CCCC/C=C/C(C)C)ccc1O
REMARK SMILES IDX 10 1 8 2 7 3 9 5 6 6 5 7 3 8 21 9 4 10 20 11 19 12 2 13 1 14
REMARK SMILES IDX 22 15 11 17 12 18 13 19 14 20 15 21 16 22 17 23 18 24
REMARK H PARENT 7 4 22 16
REMARK Flexibility Score: inf
ROOT
ATOM      1  C   UNL     1      95.258  96.205  74.860  1.00  0.00     0.100 C 
ENDROOT
BRANCH   1   2
ATOM      2  C   UNL     1      94.961  95.213  75.911  1.00  0.00     0.220 C 
ATOM      3  N   UNL     1      93.676  94.843  76.170  1.00  0.00    -0.352 N 
ATOM      4  H   UNL     1      92.976  95.314  75.612  1.00  0.00     0.163 HD
ATOM      5  O   UNL     1      95.924  94.707  76.537  1.00  0.00    -0.275 OA
BRANCH   3   6
ATOM      6  C   UNL     1      93.286  93.871  77.141  1.00  0.00     0.151 C 
BRANCH   6   7
ATOM      7  C   UNL     1      92.083  93.112  76.703  1.00  0.00    -0.025 A 
ATOM      8  C   UNL     1      90.734  92.118  74.899  1.00  0.00     0.160 A 
ATOM      9  C   UNL     1      89.805  91.650  75.851  1.00  0.00     0.157 A 
ATOM     10  C   UNL     1      91.861  92.846  75.333  1.00  0.00     0.056 A 
ATOM     11  C   UNL     1      90.002  91.924  77.219  1.00  0.00     0.050 A 
ATOM     12  C   UNL     1      91.138  92.641  77.643  1.00  0.00     0.009 A 
BRANCH   8  13
ATOM     13  O   UNL     1      90.511  91.911  73.561  1.00  0.00    -0.493 OA
ATOM     14  C   UNL     1      89.801  92.981  72.911  1.00  0.00     0.278 C 
ENDBRANCH   8  13
BRANCH   9  15
ATOM     15  O   UNL     1      88.716  90.935  75.468  1.00  0.00    -0.504 OA
ATOM     16  H   UNL     1      88.972  90.292  74.803  1.00  0.00     0.293 HD
ENDBRANCH   9  15
ENDBRANCH   6   7
ENDBRANCH   3   6
ENDBRANCH   1   2
BRANCH   1  17
ATOM     17  C   UNL     1      93.967  96.679  74.139  1.00  0.00     0.010 C 
BRANCH  17  18
ATOM     18  C   UNL     1      94.064  98.144  73.626  1.00  0.00     0.005 C 
BRANCH  18  19
ATOM     19  C   UNL     1      94.161  98.222  72.079  1.00  0.00     0.027 C 
BRANCH  19  20
ATOM     20  C   UNL     1      92.970  98.809  71.484  1.00  0.00    -0.031 C 
ATOM     21  C   UNL     1      92.498  98.491  70.265  1.00  0.00    -0.028 C 
BRANCH  21  22
ATOM     22  C   UNL     1      91.286  99.080  69.695  1.00  0.00     0.005 C 
ATOM     23  C   UNL     1      91.586  99.946  68.441  1.00  0.00     0.012 C 
ATOM     24  C   UNL     1      90.255  97.969  69.366  1.00  0.00     0.012 C 
ENDBRANCH  21  22
ENDBRANCH  19  20
ENDBRANCH  18  19
ENDBRANCH  17  18
ENDBRANCH   1  17
TORSDOF 10
ENDMDL
MODEL 5
REMARK VINA RESULT:    -6.022      2.773      8.941
REMARK INTER + INTRA:         -10.270
REMARK INTER:                  -9.644
REMARK INTRA:                  -0.626
REMARK UNBOUND:                -0.903
REMARK SMILES COc1cc(CNC(=O)CCCC/C=C/C(C)C)ccc1O
REMARK SMILES IDX 10 1 8 2 7 3 9 5 6 6 5 7 3 8 21 9 4 10 20 11 19 12 2 13 1 14
REMARK SMILES IDX 22 15 11 17 12 18 13 19 14 20 15 21 16 22 17 23 18 24
REMARK H PARENT 7 4 22 16
REMARK Flexibility Score: inf
ROOT
ATOM      1  C   UNL     1      96.473  94.460  76.967  1.00  0.00     0.100 C 
ENDROOT
BRANCH   1   2
ATOM      2  C   UNL     1      95.509  94.076  75.918  1.00  0.00     0.220 C 
ATOM      3  N   UNL     1      94.212  93.806  76.235  1.00  0.00    -0.352 N 
ATOM      4  H   UNL     1      93.992  93.868  77.220  1.00  0.00     0.163 HD
ATOM      5  O   UNL     1      95.914  94.029  74.731  1.00  0.00    -0.275 OA
BRANCH   3   6
ATOM      6  C   UNL     1      93.198  93.457  75.293  1.00  0.00     0.151 C 
BRANCH   6   7
ATOM      7  C   UNL     1      92.172  92.564  75.899  1.00  0.00    -0.025 A 
ATOM      8  C   UNL     1      90.666  90.625  75.721  1.00  0.00     0.160 A 
ATOM      9  C   UNL     1      90.231  90.840  77.045  1.00  0.00     0.157 A 
ATOM     10  C   UNL     1      91.630  91.489  75.160  1.00  0.00     0.056 A 
ATOM     11  C   UNL     1      90.749  91.920  77.787  1.00  0.00     0.050 A 
ATOM     12  C   UNL     1      91.719  92.771  77.223  1.00  0.00     0.009 A 
BRANCH   8  13
ATOM     13  O   UNL     1      90.117  89.615  74.973  1.00  0.00    -0.493 OA
ATOM     14  C   UNL     1      89.046  90.040  74.110  1.00  0.00     0.278 C 
ENDBRANCH   8  13
BRANCH   9  15
ATOM     15  O   UNL     1      89.315  90.019  77.620  1.00  0.00    -0.504 OA
ATOM     16  H   UNL     1      89.755  89.425  78.231  1.00  0.00     0.293 HD
ENDBRANCH   9  15
ENDBRANCH   6   7
ENDBRANCH   3   6
ENDBRANCH   1   2
BRANCH   1  17
ATOM     17  C   UNL     1      95.767  95.142  78.170  1.00  0.00     0.010 C 
BRANCH  17  18
ATOM     18  C   UNL     1      96.471  94.856  79.526  1.00  0.00     0.005 C 
BRANCH  18  19
ATOM     19  C   UNL     1      95.470  94.799  80.711  1.00  0.00     0.027 C 
BRANCH  19  20
ATOM     20  C   UNL     1      96.019  95.393  81.921  1.00  0.00    -0.031 C 
ATOM     21  C   UNL     1      96.066  96.716  82.159  1.00  0.00    -0.028 C 
BRANCH  21  22
ATOM     22  C   UNL     1      96.605  97.290  83.392  1.00  0.00     0.005 C 
ATOM     23  C   UNL     1      97.996  96.703  83.757  1.00  0.00     0.012 C 
ATOM     24  C   UNL     1      96.669  98.836  83.280  1.00  0.00     0.012 C 
ENDBRANCH  21  22
ENDBRANCH  19  20
ENDBRANCH  18  19
ENDBRANCH  17  18
ENDBRANCH   1  17
TORSDOF 10
ENDMDL
MODEL 6
REMARK VINA RESULT:    -5.909      5.132      7.134
REMARK INTER + INTRA:         -10.094
REMARK INTER:                  -9.511
REMARK INTRA:                  -0.583
REMARK UNBOUND:                -0.903
REMARK SMILES COc1cc(CNC(=O)CCCC/C=C/C(C)C)ccc1O
REMARK SMILES IDX 10 1 8 2 7 3 9 5 6 6 5 7 3 8 21 9 4 10 20 11 19 12 2 13 1 14
REMARK SMILES IDX 22 15 11 17 12 18 13 19 14 20 15 21 16 22 17 23 18 24
REMARK H PARENT 7 4 22 16
REMARK Flexibility Score: inf
ROOT
ATOM      1  C   UNL     1      94.208  99.267  72.536  1.00  0.00     0.100 C 
ENDROOT
BRANCH   1   2
ATOM      2  C   UNL     1      95.071  98.155  72.979  1.00  0.00     0.220 C 
ATOM      3  N   UNL     1      94.874  97.567  74.191  1.00  0.00    -0.352 N 
ATOM      4  H   UNL     1      94.127  97.966  74.743  1.00  0.00     0.163 HD
ATOM      5  O   UNL     1      95.970  97.757  72.199  1.00  0.00    -0.275 OA
BRANCH   3   6
ATOM      6  C   UNL     1      95.631  96.467  74.697  1.00  0.00     0.151 C 
BRANCH   6   7
ATOM      7  C   UNL     1      94.785  95.546  75.504  1.00  0.00    -0.025 A 
ATOM      8  C   UNL     1      94.363  94.334  77.606  1.00  0.00     0.160 A 
ATOM      9  C   UNL     1      93.173  93.807  77.064  1.00  0.00     0.157 A 
ATOM     10  C   UNL     1      95.158  95.196  76.821  1.00  0.00     0.056 A 
ATOM     11  C   UNL     1      92.798  94.131  75.745  1.00  0.00     0.050 A 
ATOM     12  C   UNL     1      93.592  95.001  74.973  1.00  0.00     0.009 A 
BRANCH   8  13
ATOM     13  O   UNL     1      94.766  93.970  78.865  1.00  0.00    -0.493 OA
ATOM     14  C   UNL     1      95.663  94.907  79.489  1.00  0.00     0.278 C 
ENDBRANCH   8  13
BRANCH   9  15
ATOM     15  O   UNL     1      92.378  92.985  77.797  1.00  0.00    -0.504 OA
ATOM     16  H   UNL     1      91.653  92.671  77.253  1.00  0.00     0.293 HD
ENDBRANCH   9  15
ENDBRANCH   6   7
ENDBRANCH   3   6
ENDBRANCH   1   2
BRANCH   1  17
ATOM     17  C   UNL     1      92.909  98.751  71.862  1.00  0.00     0.010 C 
BRANCH  17  18
ATOM     18  C   UNL     1      92.905  98.957  70.321  1.00  0.00     0.005 C 
BRANCH  18  19
ATOM     19  C   UNL     1      91.754  99.889  69.853  1.00  0.00     0.027 C 
BRANCH  19  20
ATOM     20  C   UNL     1      91.294  99.560  68.512  1.00  0.00    -0.031 C 
ATOM     21  C   UNL     1      90.718  98.391  68.177  1.00  0.00    -0.028 C 
BRANCH  21  22
ATOM     22  C   UNL     1      90.245  98.089  66.826  1.00  0.00     0.005 C 
ATOM     23  C   UNL     1      89.544  96.705  66.743  1.00  0.00     0.012 C 
ATOM     24  C   UNL     1      89.305  99.216  66.323  1.00  0.00     0.012 C 
ENDBRANCH  21  22
ENDBRANCH  19  20
ENDBRANCH  18  19
ENDBRANCH  17  18
ENDBRANCH   1  17
TORSDOF 10
ENDMDL
MODEL 7
REMARK VINA RESULT:    -5.888      4.450      8.155
REMARK INTER + INTRA:         -10.062
REMARK INTER:                  -9.408
REMARK INTRA:                  -0.654
REMARK UNBOUND:                -0.903
REMARK SMILES COc1cc(CNC(=O)CCCC/C=C/C(C)C)ccc1O
REMARK SMILES IDX 10 1 8 2 7 3 9 5 6 6 5 7 3 8 21 9 4 10 20 11 19 12 2 13 1 14
REMARK SMILES IDX 22 15 11 17 12 18 13 19 14 20 15 21 16 22 17 23 18 24
REMARK H PARENT 7 4 22 16
REMARK Flexibility Score: inf
ROOT
ATOM      1  C   UNL     1      95.222  95.937  74.808  1.00  0.00     0.100 C 
ENDROOT
BRANCH   1   2
ATOM      2  C   UNL     1      94.823  95.128  75.975  1.00  0.00     0.220 C 
ATOM      3  N   UNL     1      93.575  94.586  76.047  1.00  0.00    -0.352 N 
ATOM      4  H   UNL     1      92.970  94.805  75.267  1.00  0.00     0.163 HD
ATOM      5  O   UNL     1      95.670  94.937  76.881  1.00  0.00    -0.275 OA
BRANCH   3   6
ATOM      6  C   UNL     1      93.103  93.764  77.115  1.00  0.00     0.151 C 
BRANCH   6   7
ATOM      7  C   UNL     1      91.883  93.006  76.723  1.00  0.00    -0.025 A 
ATOM      8  C   UNL     1      90.443  92.050  74.970  1.00  0.00     0.160 A 
ATOM      9  C   UNL     1      89.572  91.546  75.959  1.00  0.00     0.157 A 
ATOM     10  C   UNL     1      91.587  92.776  75.361  1.00  0.00     0.056 A 
ATOM     11  C   UNL     1      89.844  91.784  77.321  1.00  0.00     0.050 A 
ATOM     12  C   UNL     1      90.996  92.501  77.701  1.00  0.00     0.009 A 
BRANCH   8  13
ATOM     13  O   UNL     1      90.148  91.877  73.641  1.00  0.00    -0.493 OA
ATOM     14  C   UNL     1      89.689  93.072  72.982  1.00  0.00     0.278 C 
ENDBRANCH   8  13
BRANCH   9  15
ATOM     15  O   UNL     1      88.469  90.832  75.617  1.00  0.00    -0.504 OA
ATOM     16  H   UNL     1      87.685  91.370  75.748  1.00  0.00     0.293 HD
ENDBRANCH   9  15
ENDBRANCH   6   7
ENDBRANCH   3   6
ENDBRANCH   1   2
BRANCH   1  17
ATOM     17  C   UNL     1      94.019  96.717  74.213  1.00  0.00     0.010 C 
BRANCH  17  18
ATOM     18  C   UNL     1      94.453  97.953  73.376  1.00  0.00     0.005 C 
BRANCH  18  19
ATOM     19  C   UNL     1      94.494  99.255  74.222  1.00  0.00     0.027 C 
BRANCH  19  20
ATOM     20  C   UNL     1      93.434 100.180  73.854  1.00  0.00    -0.031 C 
ATOM     21  C   UNL     1      93.033 101.214  74.617  1.00  0.00    -0.028 C 
BRANCH  21  22
ATOM     22  C   UNL     1      91.978 102.144  74.217  1.00  0.00     0.005 C 
ATOM     23  C   UNL     1      91.633 102.030  72.707  1.00  0.00     0.012 C 
ATOM     24  C   UNL     1      90.715 101.930  75.091  1.00  0.00     0.012 C 
ENDBRANCH  21  22
ENDBRANCH  19  20
ENDBRANCH  18  19
ENDBRANCH  17  18
ENDBRANCH   1  17
TORSDOF 10
ENDMDL
MODEL 8
REMARK VINA RESULT:    -5.606     13.058     15.468
REMARK INTER + INTRA:          -9.622
REMARK INTER:                  -8.902
REMARK INTRA:                  -0.720
REMARK UNBOUND:                -0.903
REMARK SMILES COc1cc(CNC(=O)CCCC/C=C/C(C)C)ccc1O
REMARK SMILES IDX 10 1 8 2 7 3 9 5 6 6 5 7 3 8 21 9 4 10 20 11 19 12 2 13 1 14
REMARK SMILES IDX 22 15 11 17 12 18 13 19 14 20 15 21 16 22 17 23 18 24
REMARK H PARENT 7 4 22 16
REMARK Flexibility Score: inf
ROOT
ATOM      1  C   UNL     1      95.308  82.949  85.142  1.00  0.00     0.100 C 
ENDROOT
BRANCH   1   2
ATOM      2  C   UNL     1      94.164  82.833  86.067  1.00  0.00     0.220 C 
ATOM      3  N   UNL     1      92.890  83.017  85.618  1.00  0.00    -0.352 N 
ATOM      4  H   UNL     1      92.813  83.254  84.639  1.00  0.00     0.163 HD
ATOM      5  O   UNL     1      94.397  82.540  87.264  1.00  0.00    -0.275 OA
BRANCH   3   6
ATOM      6  C   UNL     1      91.717  82.896  86.422  1.00  0.00     0.151 C 
BRANCH   6   7
ATOM      7  C   UNL     1      90.861  81.763  85.974  1.00  0.00    -0.025 A 
ATOM      8  C   UNL     1      88.768  80.479  86.147  1.00  0.00     0.160 A 
ATOM      9  C   UNL     1      89.208  79.621  85.118  1.00  0.00     0.157 A 
ATOM     10  C   UNL     1      89.598  81.539  86.567  1.00  0.00     0.056 A 
ATOM     11  C   UNL     1      90.474  79.820  84.531  1.00  0.00     0.050 A 
ATOM     12  C   UNL     1      91.291  80.889  84.949  1.00  0.00     0.009 A 
BRANCH   8  13
ATOM     13  O   UNL     1      87.566  80.249  86.766  1.00  0.00    -0.493 OA
ATOM     14  C   UNL     1      87.681  79.871  88.151  1.00  0.00     0.278 C 
ENDBRANCH   8  13
BRANCH   9  15
ATOM     15  O   UNL     1      88.428  78.599  84.682  1.00  0.00    -0.504 OA
ATOM     16  H   UNL     1      88.611  77.811  85.200  1.00  0.00     0.293 HD
ENDBRANCH   9  15
ENDBRANCH   6   7
ENDBRANCH   3   6
ENDBRANCH   1   2
BRANCH   1  17
ATOM     17  C   UNL     1      95.447  81.691  84.244  1.00  0.00     0.010 C 
BRANCH  17  18
ATOM     18  C   UNL     1      96.719  81.723  83.350  1.00  0.00     0.005 C 
BRANCH  18  19
ATOM     19  C   UNL     1      96.839  83.044  82.542  1.00  0.00     0.027 C 
BRANCH  19  20
ATOM     20  C   UNL     1      96.795  82.813  81.106  1.00  0.00    -0.031 C 
ATOM     21  C   UNL     1      97.801  82.271  80.396  1.00  0.00    -0.028 C 
BRANCH  21  22
ATOM     22  C   UNL     1      97.728  82.030  78.955  1.00  0.00     0.005 C 
ATOM     23  C   UNL     1      96.349  82.429  78.361  1.00  0.00     0.012 C 
ATOM     24  C   UNL     1      98.879  82.771  78.228  1.00  0.00     0.012 C 
ENDBRANCH  21  22
ENDBRANCH  19  20
ENDBRANCH  18  19
ENDBRANCH  17  18
ENDBRANCH   1  17
TORSDOF 10
ENDMDL
MODEL 9
REMARK VINA RESULT:    -5.538     14.202     16.774
REMARK INTER + INTRA:          -9.518
REMARK INTER:                  -8.144
REMARK INTRA:                  -1.374
REMARK UNBOUND:                -0.903
REMARK SMILES COc1cc(CNC(=O)CCCC/C=C/C(C)C)ccc1O
REMARK SMILES IDX 10 1 8 2 7 3 9 5 6 6 5 7 3 8 21 9 4 10 20 11 19 12 2 13 1 14
REMARK SMILES IDX 22 15 11 17 12 18 13 19 14 20 15 21 16 22 17 23 18 24
REMARK H PARENT 7 4 22 16
REMARK Flexibility Score: inf
ROOT
ATOM      1  C   UNL     1      84.343  91.801  86.364  1.00  0.00     0.100 C 
ENDROOT
BRANCH   1   2
ATOM      2  C   UNL     1      83.640  91.611  87.647  1.00  0.00     0.220 C 
ATOM      3  N   UNL     1      83.796  90.459  88.357  1.00  0.00    -0.352 N 
ATOM      4  H   UNL     1      84.394  89.769  87.924  1.00  0.00     0.163 HD
ATOM      5  O   UNL     1      82.919  92.547  88.071  1.00  0.00    -0.275 OA
BRANCH   3   6
ATOM      6  C   UNL     1      83.187  90.191  89.621  1.00  0.00     0.151 C 
BRANCH   6   7
ATOM      7  C   UNL     1      81.917  89.430  89.465  1.00  0.00    -0.025 A 
ATOM      8  C   UNL     1      79.517  89.171  89.950  1.00  0.00     0.160 A 
ATOM      9  C   UNL     1      79.484  88.001  89.163  1.00  0.00     0.157 A 
ATOM     10  C   UNL     1      80.732  89.872  90.095  1.00  0.00     0.056 A 
ATOM     11  C   UNL     1      80.662  87.536  88.545  1.00  0.00     0.050 A 
ATOM     12  C   UNL     1      81.868  88.250  88.686  1.00  0.00     0.009 A 
BRANCH   8  13
ATOM     13  O   UNL     1      78.388  89.590  90.607  1.00  0.00    -0.493 OA
ATOM     14  C   UNL     1      78.641  90.148  91.910  1.00  0.00     0.278 C 
ENDBRANCH   8  13
BRANCH   9  15
ATOM     15  O   UNL     1      78.327  87.309  88.992  1.00  0.00    -0.504 OA
ATOM     16  H   UNL     1      77.625  87.915  88.744  1.00  0.00     0.293 HD
ENDBRANCH   9  15
ENDBRANCH   6   7
ENDBRANCH   3   6
ENDBRANCH   1   2
BRANCH   1  17
ATOM     17  C   UNL     1      84.477  90.466  85.582  1.00  0.00     0.010 C 
BRANCH  17  18
ATOM     18  C   UNL     1      83.289  90.211  84.612  1.00  0.00     0.005 C 
BRANCH  18  19
ATOM     19  C   UNL     1      81.924  90.164  85.351  1.00  0.00     0.027 C 
BRANCH  19  20
ATOM     20  C   UNL     1      81.164  88.968  85.021  1.00  0.00    -0.031 C 
ATOM     21  C   UNL     1      81.616  87.981  84.225  1.00  0.00    -0.028 C 
BRANCH  21  22
ATOM     22  C   UNL     1      80.842  86.777  83.922  1.00  0.00     0.005 C 
ATOM     23  C   UNL     1      80.095  86.228  85.169  1.00  0.00     0.012 C 
ATOM     24  C   UNL     1      79.851  87.054  82.761  1.00  0.00     0.012 C 
ENDBRANCH  21  22
ENDBRANCH  19  20
ENDBRANCH  18  19
ENDBRANCH  17  18
ENDBRANCH   1  17
TORSDOF 10
ENDMDL
MODEL 10
REMARK VINA RESULT:    -5.464     13.983     16.635
REMARK INTER + INTRA:          -9.402
REMARK INTER:                  -8.148
REMARK INTRA:                  -1.254
REMARK UNBOUND:                -0.903
REMARK SMILES COc1cc(CNC(=O)CCCC/C=C/C(C)C)ccc1O
REMARK SMILES IDX 10 1 8 2 7 3 9 5 6 6 5 7 3 8 21 9 4 10 20 11 19 12 2 13 1 14
REMARK SMILES IDX 22 15 11 17 12 18 13 19 14 20 15 21 16 22 17 23 18 24
REMARK H PARENT 7 4 22 16
REMARK Flexibility Score: inf
ROOT
ATOM      1  C   UNL     1      84.296  91.893  86.509  1.00  0.00     0.100 C 
ENDROOT
BRANCH   1   2
ATOM      2  C   UNL     1      83.480  91.893  87.738  1.00  0.00     0.220 C 
ATOM      3  N   UNL     1      83.594  90.881  88.644  1.00  0.00    -0.352 N 
ATOM      4  H   UNL     1      84.245  90.152  88.389  1.00  0.00     0.163 HD
ATOM      5  O   UNL     1      82.702  92.858  87.933  1.00  0.00    -0.275 OA
BRANCH   3   6
ATOM      6  C   UNL     1      82.875  90.804  89.875  1.00  0.00     0.151 C 
BRANCH   6   7
ATOM      7  C   UNL     1      81.619  90.019  89.726  1.00  0.00    -0.025 A 
ATOM      8  C   UNL     1      80.429  88.055  88.838  1.00  0.00     0.160 A 
ATOM      9  C   UNL     1      79.238  88.499  89.449  1.00  0.00     0.157 A 
ATOM     10  C   UNL     1      81.606  88.819  88.980  1.00  0.00     0.056 A 
ATOM     11  C   UNL     1      79.231  89.704  90.180  1.00  0.00     0.050 A 
ATOM     12  C   UNL     1      80.414  90.454  90.326  1.00  0.00     0.009 A 
BRANCH   8  13
ATOM     13  O   UNL     1      80.425  86.918  88.071  1.00  0.00    -0.493 OA
ATOM     14  C   UNL     1      81.490  85.999  88.379  1.00  0.00     0.278 C 
ENDBRANCH   8  13
BRANCH   9  15
ATOM     15  O   UNL     1      78.090  87.781  89.343  1.00  0.00    -0.504 OA
ATOM     16  H   UNL     1      77.359  88.371  89.145  1.00  0.00     0.293 HD
ENDBRANCH   9  15
ENDBRANCH   6   7
ENDBRANCH   3   6
ENDBRANCH   1   2
BRANCH   1  17
ATOM     17  C   UNL     1      84.560  90.452  85.997  1.00  0.00     0.010 C 
BRANCH  17  18
ATOM     18  C   UNL     1      83.841  90.147  84.652  1.00  0.00     0.005 C 
BRANCH  18  19
ATOM     19  C   UNL     1      82.295  90.199  84.784  1.00  0.00     0.027 C 
BRANCH  19  20
ATOM     20  C   UNL     1      81.659  89.009  84.240  1.00  0.00    -0.031 C 
ATOM     21  C   UNL     1      80.860  88.189  84.947  1.00  0.00    -0.028 C 
BRANCH  21  22
ATOM     22  C   UNL     1      80.214  87.008  84.375  1.00  0.00     0.005 C 
ATOM     23  C   UNL     1      80.096  87.093  82.828  1.00  0.00     0.012 C 
ATOM     24  C   UNL     1      80.971  85.724  84.803  1.00  0.00     0.012 C 
ENDBRANCH  21  22
ENDBRANCH  19  20
ENDBRANCH  18  19
ENDBRANCH  17  18
ENDBRANCH   1  17
TORSDOF 10
ENDMDL
