MODEL 1
REMARK VINA RESULT:    -6.400      0.000      0.000
REMARK INTER + INTRA:         -10.645
REMARK INTER:                  -9.955
REMARK INTRA:                  -0.690
REMARK UNBOUND:                -0.690
REMARK SMILES CCCCC/C=C/C(=O)CCc1ccc(O)c(OC)c1
REMARK SMILES IDX 6 1 7 2 8 3 9 4 10 5 11 6 12 7 17 8 20 9 15 10 14 11 13 12
REMARK SMILES IDX 18 13 19 14 16 15 5 17 4 18 3 19 2 20 1 21
REMARK H PARENT 16 16
REMARK Flexibility Score: inf
ROOT
ATOM      1  C   UNL     1      91.454  94.439  77.551  1.00  0.00    -0.023 C 
ATOM      2  C   UNL     1      91.575  95.565  76.837  1.00  0.00     0.043 C 
ENDROOT
BRANCH   2   3
ATOM      3  C   UNL     1      92.845  96.339  76.884  1.00  0.00     0.155 C 
ATOM      4  O   UNL     1      92.866  97.534  77.174  1.00  0.00    -0.295 OA
BRANCH   3   5
ATOM      5  C   UNL     1      94.108  95.591  76.504  1.00  0.00     0.085 C 
BRANCH   5   6
ATOM      6  C   UNL     1      95.345  96.235  77.132  1.00  0.00     0.044 C 
BRANCH   6   7
ATOM      7  C   UNL     1      95.536  95.852  78.580  1.00  0.00    -0.044 A 
ATOM      8  C   UNL     1      96.588  96.229  80.704  1.00  0.00     0.160 A 
ATOM      9  C   UNL     1      96.412  96.583  79.366  1.00  0.00     0.054 A 
ATOM     10  C   UNL     1      95.886  95.149  81.238  1.00  0.00     0.157 A 
ATOM     11  C   UNL     1      95.008  94.422  80.433  1.00  0.00     0.050 A 
ATOM     12  C   UNL     1      94.832  94.776  79.095  1.00  0.00     0.008 A 
BRANCH   8  13
ATOM     13  O   UNL     1      97.449  96.947  81.479  1.00  0.00    -0.493 OA
ATOM     14  C   UNL     1      98.831  96.603  81.403  1.00  0.00     0.278 C 
ENDBRANCH   8  13
BRANCH  10  15
ATOM     15  O   UNL     1      96.049  94.793  82.543  1.00  0.00    -0.504 OA
ATOM     16  H   UNL     1      96.999  94.663  82.707  1.00  0.00     0.293 HD
ENDBRANCH  10  15
ENDBRANCH   6   7
ENDBRANCH   5   6
ENDBRANCH   3   5
ENDBRANCH   2   3
BRANCH   1  17
ATOM     17  C   UNL     1      90.207  93.602  77.558  1.00  0.00     0.027 C 
BRANCH  17  18
ATOM     18  C   UNL     1      89.928  92.929  76.210  1.00  0.00     0.004 C 
BRANCH  18  19
ATOM     19  C   UNL     1      89.616  91.433  76.325  1.00  0.00     0.000 C 
BRANCH  19  20
ATOM     20  C   UNL     1      89.826  90.722  74.987  1.00  0.00    -0.003 C 
ATOM     21  C   UNL     1      89.782  89.211  75.147  1.00  0.00     0.004 C 
ENDBRANCH  19  20
ENDBRANCH  18  19
ENDBRANCH  17  18
ENDBRANCH   1  17
TORSDOF 10
ENDMDL
MODEL 2
REMARK VINA RESULT:    -6.209      1.993      3.140
REMARK INTER + INTRA:         -10.347
REMARK INTER:                  -9.138
REMARK INTRA:                  -1.209
REMARK UNBOUND:                -0.690
REMARK SMILES CCCCC/C=C/C(=O)CCc1ccc(O)c(OC)c1
REMARK SMILES IDX 6 1 7 2 8 3 9 4 10 5 11 6 12 7 17 8 20 9 15 10 14 11 13 12
REMARK SMILES IDX 18 13 19 14 16 15 5 17 4 18 3 19 2 20 1 21
REMARK H PARENT 16 16
REMARK Flexibility Score: inf
ROOT
ATOM      1  C   UNL     1      92.935  96.014  76.219  1.00  0.00    -0.023 C 
ATOM      2  C   UNL     1      93.649  95.809  75.105  1.00  0.00     0.043 C 
ENDROOT
BRANCH   2   3
ATOM      3  C   UNL     1      94.371  96.943  74.467  1.00  0.00     0.155 C 
ATOM      4  O   UNL     1      94.634  96.951  73.266  1.00  0.00    -0.295 OA
BRANCH   3   5
ATOM      5  C   UNL     1      94.813  98.065  75.385  1.00  0.00     0.085 C 
BRANCH   5   6
ATOM      6  C   UNL     1      96.162  97.752  76.035  1.00  0.00     0.044 C 
BRANCH   6   7
ATOM      7  C   UNL     1      96.103  97.765  77.545  1.00  0.00    -0.044 A 
ATOM      8  C   UNL     1      95.918  96.580  79.623  1.00  0.00     0.160 A 
ATOM      9  C   UNL     1      95.972  96.568  78.229  1.00  0.00     0.054 A 
ATOM     10  C   UNL     1      95.997  97.789  80.314  1.00  0.00     0.157 A 
ATOM     11  C   UNL     1      96.128  98.987  79.610  1.00  0.00     0.050 A 
ATOM     12  C   UNL     1      96.182  98.974  78.216  1.00  0.00     0.008 A 
BRANCH   8  13
ATOM     13  O   UNL     1      95.789  95.404  80.299  1.00  0.00    -0.493 OA
ATOM     14  C   UNL     1      94.856  94.458  79.781  1.00  0.00     0.278 C 
ENDBRANCH   8  13
BRANCH  10  15
ATOM     15  O   UNL     1      95.946  97.814  81.675  1.00  0.00    -0.504 OA
ATOM     16  H   UNL     1      95.889  96.897  81.995  1.00  0.00     0.293 HD
ENDBRANCH  10  15
ENDBRANCH   6   7
ENDBRANCH   5   6
ENDBRANCH   3   5
ENDBRANCH   2   3
BRANCH   1  17
ATOM     17  C   UNL     1      92.180  94.924  76.922  1.00  0.00     0.027 C 
BRANCH  17  18
ATOM     18  C   UNL     1      90.689  95.239  77.092  1.00  0.00     0.004 C 
BRANCH  18  19
ATOM     19  C   UNL     1      89.766  94.174  76.492  1.00  0.00     0.000 C 
BRANCH  19  20
ATOM     20  C   UNL     1      89.932  94.090  74.974  1.00  0.00    -0.003 C 
ATOM     21  C   UNL     1      90.605  92.792  74.558  1.00  0.00     0.004 C 
ENDBRANCH  19  20
ENDBRANCH  18  19
ENDBRANCH  17  18
ENDBRANCH   1  17
TORSDOF 10
ENDMDL
MODEL 3
REMARK VINA RESULT:    -6.147     12.409     15.364
REMARK INTER + INTRA:         -10.251
REMARK INTER:                  -9.639
REMARK INTRA:                  -0.611
REMARK UNBOUND:                -0.690
REMARK SMILES CCCCC/C=C/C(=O)CCc1ccc(O)c(OC)c1
REMARK SMILES IDX 6 1 7 2 8 3 9 4 10 5 11 6 12 7 17 8 20 9 15 10 14 11 13 12
REMARK SMILES IDX 18 13 19 14 16 15 5 17 4 18 3 19 2 20 1 21
REMARK H PARENT 16 16
REMARK Flexibility Score: inf
ROOT
ATOM      1  C   UNL     1      96.684  82.865  81.875  1.00  0.00    -0.023 C 
ATOM      2  C   UNL     1      96.306  82.267  83.012  1.00  0.00     0.043 C 
ENDROOT
BRANCH   2   3
ATOM      3  C   UNL     1      95.138  82.788  83.772  1.00  0.00     0.155 C 
ATOM      4  O   UNL     1      95.045  83.973  84.085  1.00  0.00    -0.295 OA
BRANCH   3   5
ATOM      5  C   UNL     1      94.094  81.771  84.188  1.00  0.00     0.085 C 
BRANCH   5   6
ATOM      6  C   UNL     1      92.808  82.455  84.656  1.00  0.00     0.044 C 
BRANCH   6   7
ATOM      7  C   UNL     1      91.587  81.580  84.501  1.00  0.00    -0.044 A 
ATOM      8  C   UNL     1      89.200  81.329  84.510  1.00  0.00     0.160 A 
ATOM      9  C   UNL     1      90.328  82.137  84.654  1.00  0.00     0.054 A 
ATOM     10  C   UNL     1      89.346  79.974  84.215  1.00  0.00     0.157 A 
ATOM     11  C   UNL     1      90.621  79.426  84.064  1.00  0.00     0.050 A 
ATOM     12  C   UNL     1      91.749  80.235  84.208  1.00  0.00     0.008 A 
BRANCH   8  13
ATOM     13  O   UNL     1      87.961  81.875  84.659  1.00  0.00    -0.493 OA
ATOM     14  C   UNL     1      87.769  83.194  84.154  1.00  0.00     0.278 C 
ENDBRANCH   8  13
BRANCH  10  15
ATOM     15  O   UNL     1      88.253  79.174  84.071  1.00  0.00    -0.504 OA
ATOM     16  H   UNL     1      87.776  79.449  83.269  1.00  0.00     0.293 HD
ENDBRANCH  10  15
ENDBRANCH   6   7
ENDBRANCH   5   6
ENDBRANCH   3   5
ENDBRANCH   2   3
BRANCH   1  17
ATOM     17  C   UNL     1      97.850  82.402  81.051  1.00  0.00     0.027 C 
BRANCH  17  18
ATOM     18  C   UNL     1      97.468  81.345  80.010  1.00  0.00     0.004 C 
BRANCH  18  19
ATOM     19  C   UNL     1      97.802  81.752  78.571  1.00  0.00     0.000 C 
BRANCH  19  20
ATOM     20  C   UNL     1      97.737  83.271  78.399  1.00  0.00    -0.003 C 
ATOM     21  C   UNL     1      96.355  83.722  77.953  1.00  0.00     0.004 C 
ENDBRANCH  19  20
ENDBRANCH  18  19
ENDBRANCH  17  18
ENDBRANCH   1  17
TORSDOF 10
ENDMDL
MODEL 4
REMARK VINA RESULT:    -6.049     11.773     13.711
REMARK INTER + INTRA:         -10.098
REMARK INTER:                  -9.481
REMARK INTRA:                  -0.617
REMARK UNBOUND:                -0.690
REMARK SMILES CCCCC/C=C/C(=O)CCc1ccc(O)c(OC)c1
REMARK SMILES IDX 6 1 7 2 8 3 9 4 10 5 11 6 12 7 17 8 20 9 15 10 14 11 13 12
REMARK SMILES IDX 18 13 19 14 16 15 5 17 4 18 3 19 2 20 1 21
REMARK H PARENT 16 16
REMARK Flexibility Score: inf
ROOT
ATOM      1  C   UNL     1      97.458  82.992  79.509  1.00  0.00    -0.023 C 
ATOM      2  C   UNL     1      97.004  82.847  80.760  1.00  0.00     0.043 C 
ENDROOT
BRANCH   2   3
ATOM      3  C   UNL     1      97.890  82.271  81.808  1.00  0.00     0.155 C 
ATOM      4  O   UNL     1      99.007  81.833  81.544  1.00  0.00    -0.295 OA
BRANCH   3   5
ATOM      5  C   UNL     1      97.321  82.205  83.212  1.00  0.00     0.085 C 
BRANCH   5   6
ATOM      6  C   UNL     1      95.880  81.692  83.204  1.00  0.00     0.044 C 
BRANCH   6   7
ATOM      7  C   UNL     1      94.950  82.542  84.038  1.00  0.00    -0.044 A 
ATOM      8  C   UNL     1      92.782  82.915  84.997  1.00  0.00     0.160 A 
ATOM      9  C   UNL     1      93.640  82.130  84.226  1.00  0.00     0.054 A 
ATOM     10  C   UNL     1      93.244  84.100  85.568  1.00  0.00     0.157 A 
ATOM     11  C   UNL     1      94.566  84.501  85.369  1.00  0.00     0.050 A 
ATOM     12  C   UNL     1      95.424  83.716  84.598  1.00  0.00     0.008 A 
BRANCH   8  13
ATOM     13  O   UNL     1      91.494  82.513  85.183  1.00  0.00    -0.493 OA
ATOM     14  C   UNL     1      91.176  81.169  84.826  1.00  0.00     0.278 C 
ENDBRANCH   8  13
BRANCH  10  15
ATOM     15  O   UNL     1      92.416  84.874  86.323  1.00  0.00    -0.504 OA
ATOM     16  H   UNL     1      92.365  85.755  85.914  1.00  0.00     0.293 HD
ENDBRANCH  10  15
ENDBRANCH   6   7
ENDBRANCH   5   6
ENDBRANCH   3   5
ENDBRANCH   2   3
BRANCH   1  17
ATOM     17  C   UNL     1      96.628  83.563  78.396  1.00  0.00     0.027 C 
BRANCH  17  18
ATOM     18  C   UNL     1      97.352  83.566  77.046  1.00  0.00     0.004 C 
BRANCH  18  19
ATOM     19  C   UNL     1      96.733  84.519  76.019  1.00  0.00     0.000 C 
BRANCH  19  20
ATOM     20  C   UNL     1      97.649  84.697  74.808  1.00  0.00    -0.003 C 
ATOM     21  C   UNL     1      97.458  83.578  73.796  1.00  0.00     0.004 C 
ENDBRANCH  19  20
ENDBRANCH  18  19
ENDBRANCH  17  18
ENDBRANCH   1  17
TORSDOF 10
ENDMDL
MODEL 5
REMARK VINA RESULT:    -5.839     12.057     13.939
REMARK INTER + INTRA:          -9.771
REMARK INTER:                  -8.666
REMARK INTRA:                  -1.105
REMARK UNBOUND:                -0.690
REMARK SMILES CCCCC/C=C/C(=O)CCc1ccc(O)c(OC)c1
REMARK SMILES IDX 6 1 7 2 8 3 9 4 10 5 11 6 12 7 17 8 20 9 15 10 14 11 13 12
REMARK SMILES IDX 18 13 19 14 16 15 5 17 4 18 3 19 2 20 1 21
REMARK H PARENT 16 16
REMARK Flexibility Score: inf
ROOT
ATOM      1  C   UNL     1      98.786  82.576  75.645  1.00  0.00    -0.023 C 
ATOM      2  C   UNL     1      98.428  83.804  76.041  1.00  0.00     0.043 C 
ENDROOT
BRANCH   2   3
ATOM      3  C   UNL     1      97.031  84.062  76.485  1.00  0.00     0.155 C 
ATOM      4  O   UNL     1      96.280  84.810  75.862  1.00  0.00    -0.295 OA
BRANCH   3   5
ATOM      5  C   UNL     1      96.597  83.396  77.776  1.00  0.00     0.085 C 
BRANCH   5   6
ATOM      6  C   UNL     1      97.739  83.360  78.793  1.00  0.00     0.044 C 
BRANCH   6   7
ATOM      7  C   UNL     1      97.362  82.657  80.075  1.00  0.00    -0.044 A 
ATOM      8  C   UNL     1      96.728  82.758  82.388  1.00  0.00     0.160 A 
ATOM      9  C   UNL     1      97.077  83.408  81.204  1.00  0.00     0.054 A 
ATOM     10  C   UNL     1      96.669  81.365  82.427  1.00  0.00     0.157 A 
ATOM     11  C   UNL     1      96.958  80.622  81.282  1.00  0.00     0.050 A 
ATOM     12  C   UNL     1      97.307  81.273  80.099  1.00  0.00     0.008 A 
BRANCH   8  13
ATOM     13  O   UNL     1      96.448  83.495  83.499  1.00  0.00    -0.493 OA
ATOM     14  C   UNL     1      95.809  84.754  83.298  1.00  0.00     0.278 C 
ENDBRANCH   8  13
BRANCH  10  15
ATOM     15  O   UNL     1      96.329  80.719  83.577  1.00  0.00    -0.504 OA
ATOM     16  H   UNL     1      95.768  81.311  84.106  1.00  0.00     0.293 HD
ENDBRANCH  10  15
ENDBRANCH   6   7
ENDBRANCH   5   6
ENDBRANCH   3   5
ENDBRANCH   2   3
BRANCH   1  17
ATOM     17  C   UNL     1     100.173  82.235  75.183  1.00  0.00     0.027 C 
BRANCH  17  18
ATOM     18  C   UNL     1     101.200  82.225  76.320  1.00  0.00     0.004 C 
BRANCH  18  19
ATOM     19  C   UNL     1     101.087  81.004  77.239  1.00  0.00     0.000 C 
BRANCH  19  20
ATOM     20  C   UNL     1     101.847  81.225  78.547  1.00  0.00    -0.003 C 
ATOM     21  C   UNL     1     100.899  81.337  79.730  1.00  0.00     0.004 C 
ENDBRANCH  19  20
ENDBRANCH  18  19
ENDBRANCH  17  18
ENDBRANCH   1  17
TORSDOF 10
ENDMDL
MODEL 6
REMARK VINA RESULT:    -5.716     11.849     13.451
REMARK INTER + INTRA:          -9.580
REMARK INTER:                  -8.931
REMARK INTRA:                  -0.649
REMARK UNBOUND:                -0.690
REMARK SMILES CCCCC/C=C/C(=O)CCc1ccc(O)c(OC)c1
REMARK SMILES IDX 6 1 7 2 8 3 9 4 10 5 11 6 12 7 17 8 20 9 15 10 14 11 13 12
REMARK SMILES IDX 18 13 19 14 16 15 5 17 4 18 3 19 2 20 1 21
REMARK H PARENT 16 16
REMARK Flexibility Score: inf
ROOT
ATOM      1  C   UNL     1      97.379  83.262  78.863  1.00  0.00    -0.023 C 
ATOM      2  C   UNL     1      97.185  82.824  80.113  1.00  0.00     0.043 C 
ENDROOT
BRANCH   2   3
ATOM      3  C   UNL     1      98.349  82.401  80.939  1.00  0.00     0.155 C 
ATOM      4  O   UNL     1      99.507  82.587  80.571  1.00  0.00    -0.295 OA
BRANCH   3   5
ATOM      5  C   UNL     1      98.032  81.681  82.235  1.00  0.00     0.085 C 
BRANCH   5   6
ATOM      6  C   UNL     1      96.523  81.548  82.442  1.00  0.00     0.044 C 
BRANCH   6   7
ATOM      7  C   UNL     1      96.037  82.247  83.690  1.00  0.00    -0.044 A 
ATOM      8  C   UNL     1      96.486  83.164  85.861  1.00  0.00     0.160 A 
ATOM      9  C   UNL     1      96.935  82.519  84.709  1.00  0.00     0.054 A 
ATOM     10  C   UNL     1      95.146  83.529  85.979  1.00  0.00     0.157 A 
ATOM     11  C   UNL     1      94.253  83.248  84.944  1.00  0.00     0.050 A 
ATOM     12  C   UNL     1      94.702  82.602  83.792  1.00  0.00     0.008 A 
BRANCH   8  13
ATOM     13  O   UNL     1      97.368  83.433  86.865  1.00  0.00    -0.493 OA
ATOM     14  C   UNL     1      98.752  83.235  86.583  1.00  0.00     0.278 C 
ENDBRANCH   8  13
BRANCH  10  15
ATOM     15  O   UNL     1      94.695  84.160  87.099  1.00  0.00    -0.504 OA
ATOM     16  H   UNL     1      93.910  83.686  87.422  1.00  0.00     0.293 HD
ENDBRANCH  10  15
ENDBRANCH   6   7
ENDBRANCH   5   6
ENDBRANCH   3   5
ENDBRANCH   2   3
BRANCH   1  17
ATOM     17  C   UNL     1      96.259  83.706  77.967  1.00  0.00     0.027 C 
BRANCH  17  18
ATOM     18  C   UNL     1      96.744  84.482  76.738  1.00  0.00     0.004 C 
BRANCH  18  19
ATOM     19  C   UNL     1      97.475  83.612  75.711  1.00  0.00     0.000 C 
BRANCH  19  20
ATOM     20  C   UNL     1      97.476  84.270  74.331  1.00  0.00    -0.003 C 
ATOM     21  C   UNL     1      98.020  83.330  73.266  1.00  0.00     0.004 C 
ENDBRANCH  19  20
ENDBRANCH  18  19
ENDBRANCH  17  18
ENDBRANCH   1  17
TORSDOF 10
ENDMDL
MODEL 7
REMARK VINA RESULT:    -5.476     16.367     19.385
REMARK INTER + INTRA:          -9.208
REMARK INTER:                  -8.513
REMARK INTRA:                  -0.695
REMARK UNBOUND:                -0.690
REMARK SMILES CCCCC/C=C/C(=O)CCc1ccc(O)c(OC)c1
REMARK SMILES IDX 6 1 7 2 8 3 9 4 10 5 11 6 12 7 17 8 20 9 15 10 14 11 13 12
REMARK SMILES IDX 18 13 19 14 16 15 5 17 4 18 3 19 2 20 1 21
REMARK H PARENT 16 16
REMARK Flexibility Score: inf
ROOT
ATOM      1  C   UNL     1      74.384  90.232  70.406  1.00  0.00    -0.023 C 
ATOM      2  C   UNL     1      74.299  91.320  71.183  1.00  0.00     0.043 C 
ENDROOT
BRANCH   2   3
ATOM      3  C   UNL     1      73.105  91.522  72.047  1.00  0.00     0.155 C 
ATOM      4  O   UNL     1      72.010  91.041  71.763  1.00  0.00    -0.295 OA
BRANCH   3   5
ATOM      5  C   UNL     1      73.295  92.400  73.269  1.00  0.00     0.085 C 
BRANCH   5   6
ATOM      6  C   UNL     1      74.076  93.669  72.925  1.00  0.00     0.044 C 
BRANCH   6   7
ATOM      7  C   UNL     1      75.303  93.855  73.785  1.00  0.00    -0.044 A 
ATOM      8  C   UNL     1      77.606  94.495  74.002  1.00  0.00     0.160 A 
ATOM      9  C   UNL     1      76.472  94.323  73.207  1.00  0.00     0.054 A 
ATOM     10  C   UNL     1      77.555  94.197  75.363  1.00  0.00     0.157 A 
ATOM     11  C   UNL     1      76.370  93.726  75.930  1.00  0.00     0.050 A 
ATOM     12  C   UNL     1      75.237  93.554  75.135  1.00  0.00     0.008 A 
BRANCH   8  13
ATOM     13  O   UNL     1      78.757  94.956  73.437  1.00  0.00    -0.493 OA
ATOM     14  C   UNL     1      78.758  96.305  72.975  1.00  0.00     0.278 C 
ENDBRANCH   8  13
BRANCH  10  15
ATOM     15  O   UNL     1      78.655  94.361  76.150  1.00  0.00    -0.504 OA
ATOM     16  H   UNL     1      79.347  94.794  75.621  1.00  0.00     0.293 HD
ENDBRANCH  10  15
ENDBRANCH   6   7
ENDBRANCH   5   6
ENDBRANCH   3   5
ENDBRANCH   2   3
BRANCH   1  17
ATOM     17  C   UNL     1      75.554  89.955  69.507  1.00  0.00     0.027 C 
BRANCH  17  18
ATOM     18  C   UNL     1      75.347  88.731  68.610  1.00  0.00     0.004 C 
BRANCH  18  19
ATOM     19  C   UNL     1      76.636  88.223  67.956  1.00  0.00     0.000 C 
BRANCH  19  20
ATOM     20  C   UNL     1      76.672  86.695  67.921  1.00  0.00    -0.003 C 
ATOM     21  C   UNL     1      77.193  86.120  69.228  1.00  0.00     0.004 C 
ENDBRANCH  19  20
ENDBRANCH  18  19
ENDBRANCH  17  18
ENDBRANCH   1  17
TORSDOF 10
ENDMDL
MODEL 8
REMARK VINA RESULT:    -5.364     17.402     20.328
REMARK INTER + INTRA:          -9.033
REMARK INTER:                  -8.478
REMARK INTRA:                  -0.556
REMARK UNBOUND:                -0.690
REMARK SMILES CCCCC/C=C/C(=O)CCc1ccc(O)c(OC)c1
REMARK SMILES IDX 6 1 7 2 8 3 9 4 10 5 11 6 12 7 17 8 20 9 15 10 14 11 13 12
REMARK SMILES IDX 18 13 19 14 16 15 5 17 4 18 3 19 2 20 1 21
REMARK H PARENT 16 16
REMARK Flexibility Score: inf
ROOT
ATOM      1  C   UNL     1      91.684  75.419  69.079  1.00  0.00    -0.023 C 
ATOM      2  C   UNL     1      92.564  76.018  69.890  1.00  0.00     0.043 C 
ENDROOT
BRANCH   2   3
ATOM      3  C   UNL     1      92.105  77.079  70.828  1.00  0.00     0.155 C 
ATOM      4  O   UNL     1      91.449  78.045  70.444  1.00  0.00    -0.295 OA
BRANCH   3   5
ATOM      5  C   UNL     1      92.535  76.935  72.275  1.00  0.00     0.085 C 
BRANCH   5   6
ATOM      6  C   UNL     1      91.887  78.004  73.156  1.00  0.00     0.044 C 
BRANCH   6   7
ATOM      7  C   UNL     1      91.677  77.544  74.579  1.00  0.00    -0.044 A 
ATOM      8  C   UNL     1      91.204  75.786  76.142  1.00  0.00     0.160 A 
ATOM      9  C   UNL     1      91.397  76.210  74.827  1.00  0.00     0.054 A 
ATOM     10  C   UNL     1      91.293  76.700  77.191  1.00  0.00     0.157 A 
ATOM     11  C   UNL     1      91.575  78.041  76.925  1.00  0.00     0.050 A 
ATOM     12  C   UNL     1      91.768  78.465  75.610  1.00  0.00     0.008 A 
BRANCH   8  13
ATOM     13  O   UNL     1      90.928  74.474  76.389  1.00  0.00    -0.493 OA
ATOM     14  C   UNL     1      92.024  73.562  76.347  1.00  0.00     0.278 C 
ENDBRANCH   8  13
BRANCH  10  15
ATOM     15  O   UNL     1      91.106  76.298  78.479  1.00  0.00    -0.504 OA
ATOM     16  H   UNL     1      90.671  77.020  78.964  1.00  0.00     0.293 HD
ENDBRANCH  10  15
ENDBRANCH   6   7
ENDBRANCH   5   6
ENDBRANCH   3   5
ENDBRANCH   2   3
BRANCH   1  17
ATOM     17  C   UNL     1      92.067  74.342  68.106  1.00  0.00     0.027 C 
BRANCH  17  18
ATOM     18  C   UNL     1      90.963  73.300  67.897  1.00  0.00     0.004 C 
BRANCH  18  19
ATOM     19  C   UNL     1      89.577  73.912  67.667  1.00  0.00     0.000 C 
BRANCH  19  20
ATOM     20  C   UNL     1      88.533  72.827  67.399  1.00  0.00    -0.003 C 
ATOM     21  C   UNL     1      88.328  71.938  68.615  1.00  0.00     0.004 C 
ENDBRANCH  19  20
ENDBRANCH  18  19
ENDBRANCH  17  18
ENDBRANCH   1  17
TORSDOF 10
ENDMDL
MODEL 9
REMARK VINA RESULT:    -5.363     13.920     16.488
REMARK INTER + INTRA:          -9.031
REMARK INTER:                  -8.350
REMARK INTRA:                  -0.681
REMARK UNBOUND:                -0.690
REMARK SMILES CCCCC/C=C/C(=O)CCc1ccc(O)c(OC)c1
REMARK SMILES IDX 6 1 7 2 8 3 9 4 10 5 11 6 12 7 17 8 20 9 15 10 14 11 13 12
REMARK SMILES IDX 18 13 19 14 16 15 5 17 4 18 3 19 2 20 1 21
REMARK H PARENT 16 16
REMARK Flexibility Score: inf
ROOT
ATOM      1  C   UNL     1      94.702  81.738  86.350  1.00  0.00    -0.023 C 
ATOM      2  C   UNL     1      93.602  82.447  86.631  1.00  0.00     0.043 C 
ENDROOT
BRANCH   2   3
ATOM      3  C   UNL     1      92.917  83.211  85.552  1.00  0.00     0.155 C 
ATOM      4  O   UNL     1      93.026  84.431  85.452  1.00  0.00    -0.295 OA
BRANCH   3   5
ATOM      5  C   UNL     1      92.035  82.411  84.614  1.00  0.00     0.085 C 
BRANCH   5   6
ATOM      6  C   UNL     1      91.069  81.514  85.389  1.00  0.00     0.044 C 
BRANCH   6   7
ATOM      7  C   UNL     1      89.697  81.447  84.762  1.00  0.00    -0.044 A 
ATOM      8  C   UNL     1      87.554  82.445  84.350  1.00  0.00     0.160 A 
ATOM      9  C   UNL     1      88.821  82.507  84.930  1.00  0.00     0.054 A 
ATOM     10  C   UNL     1      87.179  81.325  83.610  1.00  0.00     0.157 A 
ATOM     11  C   UNL     1      88.072  80.264  83.450  1.00  0.00     0.050 A 
ATOM     12  C   UNL     1      89.339  80.326  84.030  1.00  0.00     0.008 A 
BRANCH   8  13
ATOM     13  O   UNL     1      86.690  83.487  84.514  1.00  0.00    -0.493 OA
ATOM     14  C   UNL     1      86.769  84.207  85.743  1.00  0.00     0.278 C 
ENDBRANCH   8  13
BRANCH  10  15
ATOM     15  O   UNL     1      85.945  81.252  83.038  1.00  0.00    -0.504 OA
ATOM     16  H   UNL     1      85.960  80.549  82.366  1.00  0.00     0.293 HD
ENDBRANCH  10  15
ENDBRANCH   6   7
ENDBRANCH   5   6
ENDBRANCH   3   5
ENDBRANCH   2   3
BRANCH   1  17
ATOM     17  C   UNL     1      95.450  80.942  87.381  1.00  0.00     0.027 C 
BRANCH  17  18
ATOM     18  C   UNL     1      96.790  81.574  87.772  1.00  0.00     0.004 C 
BRANCH  18  19
ATOM     19  C   UNL     1      97.909  81.317  86.758  1.00  0.00     0.000 C 
BRANCH  19  20
ATOM     20  C   UNL     1      98.080  82.506  85.812  1.00  0.00    -0.003 C 
ATOM     21  C   UNL     1      97.801  82.115  84.370  1.00  0.00     0.004 C 
ENDBRANCH  19  20
ENDBRANCH  18  19
ENDBRANCH  17  18
ENDBRANCH   1  17
TORSDOF 10
ENDMDL
MODEL 10
REMARK VINA RESULT:    -5.340     17.584     21.418
REMARK INTER + INTRA:          -8.995
REMARK INTER:                  -8.266
REMARK INTRA:                  -0.728
REMARK UNBOUND:                -0.690
REMARK SMILES CCCCC/C=C/C(=O)CCc1ccc(O)c(OC)c1
REMARK SMILES IDX 6 1 7 2 8 3 9 4 10 5 11 6 12 7 17 8 20 9 15 10 14 11 13 12
REMARK SMILES IDX 18 13 19 14 16 15 5 17 4 18 3 19 2 20 1 21
REMARK H PARENT 16 16
REMARK Flexibility Score: inf
ROOT
ATOM      1  C   UNL     1      74.268  93.215  73.571  1.00  0.00    -0.023 C 
ATOM      2  C   UNL     1      74.598  92.906  72.311  1.00  0.00     0.043 C 
ENDROOT
BRANCH   2   3
ATOM      3  C   UNL     1      73.824  91.870  71.575  1.00  0.00     0.155 C 
ATOM      4  O   UNL     1      72.714  91.499  71.951  1.00  0.00    -0.295 OA
BRANCH   3   5
ATOM      5  C   UNL     1      74.499  91.256  70.363  1.00  0.00     0.085 C 
BRANCH   5   6
ATOM      6  C   UNL     1      74.010  89.827  70.120  1.00  0.00     0.044 C 
BRANCH   6   7
ATOM      7  C   UNL     1      75.036  88.966  69.423  1.00  0.00    -0.044 A 
ATOM      8  C   UNL     1      75.744  86.814  68.630  1.00  0.00     0.160 A 
ATOM      9  C   UNL     1      74.796  87.609  69.275  1.00  0.00     0.054 A 
ATOM     10  C   UNL     1      76.919  87.386  68.143  1.00  0.00     0.157 A 
ATOM     11  C   UNL     1      77.146  88.753  68.301  1.00  0.00     0.050 A 
ATOM     12  C   UNL     1      76.198  89.548  68.945  1.00  0.00     0.008 A 
BRANCH   8  13
ATOM     13  O   UNL     1      75.510  85.480  68.483  1.00  0.00    -0.493 OA
ATOM     14  C   UNL     1      74.295  85.102  67.838  1.00  0.00     0.278 C 
ENDBRANCH   8  13
BRANCH  10  15
ATOM     15  O   UNL     1      77.852  86.620  67.512  1.00  0.00    -0.504 OA
ATOM     16  H   UNL     1      77.810  86.811  66.559  1.00  0.00     0.293 HD
ENDBRANCH  10  15
ENDBRANCH   6   7
ENDBRANCH   5   6
ENDBRANCH   3   5
ENDBRANCH   2   3
BRANCH   1  17
ATOM     17  C   UNL     1      74.999  94.247  74.381  1.00  0.00     0.027 C 
BRANCH  17  18
ATOM     18  C   UNL     1      75.989  93.638  75.379  1.00  0.00     0.004 C 
BRANCH  18  19
ATOM     19  C   UNL     1      77.395  94.242  75.294  1.00  0.00     0.000 C 
BRANCH  19  20
ATOM     20  C   UNL     1      77.957  94.134  73.876  1.00  0.00    -0.003 C 
ATOM     21  C   UNL     1      78.492  95.470  73.386  1.00  0.00     0.004 C 
ENDBRANCH  19  20
ENDBRANCH  18  19
ENDBRANCH  17  18
ENDBRANCH   1  17
TORSDOF 10
ENDMDL
