MODEL 1
REMARK VINA RESULT:    -6.716      0.000      0.000
REMARK INTER + INTRA:         -12.722
REMARK INTER:                 -11.427
REMARK INTRA:                  -1.295
REMARK UNBOUND:                -1.295
REMARK SMILES C=C(C)[C@]12C[C@@H](C)[C@@]34O[C@](Cc5ccccc5)(O[C@@H]1[C@@H]3C=C(COC(=O)Cc1ccc(O)cc1)C[C@]1(O)C(=O)C(C)=C[C@@H]41)O2
REMARK SMILES IDX 23 1 22 2 21 3 20 4 9 5 8 6 10 7 6 8 18 10 44 11 19 12 5 13
REMARK SMILES IDX 7 14 4 15 11 16 12 17 13 18 17 19 14 20 16 21 15 22 2 23
REMARK SMILES IDX 3 24 1 25 35 26 36 27 43 28 38 29 42 30 39 32 40 33 41 34
REMARK SMILES IDX 37 35 24 37 25 38 26 39 27 40 28 41 29 42 34 43 30 44 33 45
REMARK SMILES IDX 31 46 32 47
REMARK H PARENT 37 36 32 48
REMARK Flexibility Score: 90.00
ROOT
ATOM      1  C   UNL     1      76.346  84.731  69.629  1.00  0.00     0.264 C 
ENDROOT
BRANCH   1   2
ATOM      2  C   UNL     1      75.154  85.550  69.189  1.00  0.00    -0.033 C 
ATOM      3  C   UNL     1      74.328  85.057  68.243  1.00  0.00    -0.015 C 
BRANCH   3   4
ATOM      4  C   UNL     1      73.122  85.705  67.582  1.00  0.00     0.078 C 
ATOM      5  O   UNL     1      71.136  85.038  68.897  1.00  0.00    -0.319 OA
ATOM      6  C   UNL     1      71.939  86.192  68.497  1.00  0.00     0.095 CG0
ATOM      7  C   UNL     1      70.872  84.082  67.852  1.00  0.00     0.289 C 
ATOM      8  C   UNL     1      71.046  87.181  67.640  1.00  0.00     0.023 C 
ATOM      9  G   UNL     1      72.479  86.772  69.837  1.00  0.00     0.000 G0
ATOM     10  O   UNL     1      72.081  83.582  67.290  1.00  0.00    -0.320 OA
ATOM     11  O   UNL     1      70.148  84.652  66.765  1.00  0.00    -0.313 OA
ATOM     12  C   UNL     1      72.507  84.734  66.544  1.00  0.00     0.170 C 
ATOM     13  C   UNL     1      71.024  86.773  66.135  1.00  0.00     0.049 C 
ATOM     14  C   UNL     1      69.602  87.368  68.138  1.00  0.00     0.011 C 
ATOM     15  C   UNL     1      71.175  85.262  65.956  1.00  0.00     0.122 C 
BRANCH   7  16
ATOM     16  C   UNL     1      70.072  82.939  68.446  1.00  0.00     0.135 C 
BRANCH  16  17
ATOM     17  C   UNL     1      69.256  83.378  69.637  1.00  0.00    -0.040 A 
ATOM     18  C   UNL     1      69.867  83.541  70.880  1.00  0.00     0.004 A 
ATOM     19  C   UNL     1      67.890  83.621  69.494  1.00  0.00     0.004 A 
ATOM     20  C   UNL     1      69.113  83.947  71.981  1.00  0.00     0.000 A 
ATOM     21  C   UNL     1      67.136  84.028  70.595  1.00  0.00     0.000 A 
ATOM     22  C   UNL     1      67.747  84.190  71.838  1.00  0.00     0.000 A 
ENDBRANCH  16  17
ENDBRANCH   7  16
BRANCH  15  23
ATOM     23  C   UNL     1      70.977  84.829  64.539  1.00  0.00    -0.046 C 
ATOM     24  C   UNL     1      69.643  84.227  64.212  1.00  0.00     0.042 C 
ATOM     25  C   UNL     1      71.937  84.971  63.614  1.00  0.00     0.010 C 
ENDBRANCH  15  23
ENDBRANCH   3   4
BRANCH   2  26
ATOM     26  C   UNL     1      75.044  86.878  69.915  1.00  0.00     0.078 C 
BRANCH  26  27
ATOM     27  C   UNL     1      73.750  87.668  69.731  1.00  0.00     0.140 C 
ATOM     28  C   UNL     1      72.499  86.770  69.827  1.00  0.00     0.086 CG0
ATOM     29  C   UNL     1      73.518  88.669  70.843  1.00  0.00     0.190 C 
ATOM     30  C   UNL     1      71.578  87.548  70.726  1.00  0.00    -0.010 C 
ATOM     31  G   UNL     1      71.955  86.205  68.483  1.00  0.00     0.000 G0
ATOM     32  O   UNL     1      74.344  89.468  71.260  1.00  0.00    -0.291 OA
ATOM     33  C   UNL     1      72.129  88.603  71.334  1.00  0.00    -0.008 C 
ATOM     34  C   UNL     1      71.557  89.532  72.331  1.00  0.00     0.048 C 
BRANCH  27  35
ATOM     35  O   UNL     1      73.792  88.467  68.560  1.00  0.00    -0.381 OA
ATOM     36  H   UNL     1      73.224  88.056  67.887  1.00  0.00     0.212 HD
ENDBRANCH  27  35
ENDBRANCH  26  27
ENDBRANCH   2  26
ENDBRANCH   1   2
BRANCH   1  37
ATOM     37  O   UNL     1      76.789  83.936  68.550  1.00  0.00    -0.461 OA
BRANCH  37  38
ATOM     38  C   UNL     1      77.920  84.371  67.898  1.00  0.00     0.310 C 
ATOM     39  O   UNL     1      78.520  85.407  68.149  1.00  0.00    -0.252 OA
BRANCH  38  40
ATOM     40  C   UNL     1      78.302  83.374  66.831  1.00  0.00     0.158 C 
BRANCH  40  41
ATOM     41  C   UNL     1      77.177  83.078  65.874  1.00  0.00    -0.037 A 
ATOM     42  C   UNL     1      76.698  81.774  65.743  1.00  0.00     0.008 A 
ATOM     43  C   UNL     1      76.613  84.106  65.119  1.00  0.00     0.008 A 
ATOM     44  C   UNL     1      75.656  81.499  64.856  1.00  0.00     0.046 A 
ATOM     45  C   UNL     1      75.572  83.831  64.232  1.00  0.00     0.046 A 
ATOM     46  C   UNL     1      75.093  82.528  64.101  1.00  0.00     0.115 A 
BRANCH  46  47
ATOM     47  O   UNL     1      74.078  82.259  63.235  1.00  0.00    -0.508 OA
ATOM     48  H   UNL     1      73.441  81.667  63.671  1.00  0.00     0.293 HD
ENDBRANCH  46  47
ENDBRANCH  40  41
ENDBRANCH  38  40
ENDBRANCH  37  38
ENDBRANCH   1  37
TORSDOF 10
ENDMDL
MODEL 2
REMARK VINA RESULT:    -6.666     26.296     29.442
REMARK INTER + INTRA:         -12.638
REMARK INTER:                 -12.130
REMARK INTRA:                  -0.508
REMARK UNBOUND:                -1.295
REMARK SMILES C=C(C)[C@]12C[C@@H](C)[C@@]34O[C@](Cc5ccccc5)(O[C@@H]1[C@@H]3C=C(COC(=O)Cc1ccc(O)cc1)C[C@]1(O)C(=O)C(C)=C[C@@H]41)O2
REMARK SMILES IDX 23 1 22 2 21 3 20 4 9 5 8 6 10 7 6 8 18 10 44 11 19 12 5 13
REMARK SMILES IDX 7 14 4 15 11 16 12 17 13 18 17 19 14 20 16 21 15 22 2 23
REMARK SMILES IDX 3 24 1 25 35 26 36 27 43 28 38 29 42 30 39 32 40 33 41 34
REMARK SMILES IDX 37 35 24 37 25 38 26 39 27 40 28 41 29 42 34 43 30 44 33 45
REMARK SMILES IDX 31 46 32 47
REMARK H PARENT 37 36 32 48
REMARK Flexibility Score: 90.00
ROOT
ATOM      1  C   UNL     1      98.338  83.074  86.767  1.00  0.00     0.264 C 
ENDROOT
BRANCH   1   2
ATOM      2  C   UNL     1      96.906  83.512  86.978  1.00  0.00    -0.033 C 
ATOM      3  C   UNL     1      95.926  82.585  86.966  1.00  0.00    -0.015 C 
BRANCH   3   4
ATOM      4  C   UNL     1      94.421  82.772  87.077  1.00  0.00     0.078 C 
ATOM      5  O   UNL     1      93.838  82.530  89.468  1.00  0.00    -0.319 OA
ATOM      6  C   UNL     1      93.846  83.481  88.358  1.00  0.00     0.095 CG0
ATOM      7  C   UNL     1      93.390  81.201  89.136  1.00  0.00     0.289 C 
ATOM      8  C   UNL     1      92.359  83.922  88.035  1.00  0.00     0.023 C 
ATOM      9  G   UNL     1      94.794  84.621  88.831  1.00  0.00     0.000 G0
ATOM     10  O   UNL     1      94.182  80.632  88.097  1.00  0.00    -0.320 OA
ATOM     11  O   UNL     1      92.049  81.185  88.652  1.00  0.00    -0.313 OA
ATOM     12  C   UNL     1      93.712  81.398  86.976  1.00  0.00     0.170 C 
ATOM     13  C   UNL     1      91.661  82.918  87.068  1.00  0.00     0.049 C 
ATOM     14  C   UNL     1      91.459  84.159  89.260  1.00  0.00     0.011 C 
ATOM     15  C   UNL     1      92.191  81.495  87.250  1.00  0.00     0.122 C 
BRANCH   7  16
ATOM     16  C   UNL     1      93.487  80.343  90.382  1.00  0.00     0.135 C 
BRANCH  16  17
ATOM     17  C   UNL     1      92.376  80.637  91.360  1.00  0.00    -0.040 A 
ATOM     18  C   UNL     1      91.337  79.723  91.531  1.00  0.00     0.004 A 
ATOM     19  C   UNL     1      92.390  81.824  92.092  1.00  0.00     0.004 A 
ATOM     20  C   UNL     1      90.311  79.996  92.436  1.00  0.00     0.000 A 
ATOM     21  C   UNL     1      91.363  82.096  92.997  1.00  0.00     0.000 A 
ATOM     22  C   UNL     1      90.324  81.182  93.168  1.00  0.00     0.000 A 
ENDBRANCH  16  17
ENDBRANCH   7  16
BRANCH  15  23
ATOM     23  C   UNL     1      91.414  80.488  86.466  1.00  0.00    -0.046 C 
ATOM     24  C   UNL     1      90.026  80.891  86.064  1.00  0.00     0.042 C 
ATOM     25  C   UNL     1      91.928  79.294  86.139  1.00  0.00     0.010 C 
ENDBRANCH  15  23
ENDBRANCH   3   4
BRANCH   2  26
ATOM     26  C   UNL     1      96.766  85.007  87.191  1.00  0.00     0.078 C 
BRANCH  26  27
ATOM     27  C   UNL     1      95.410  85.519  87.674  1.00  0.00     0.140 C 
ATOM     28  C   UNL     1      94.826  84.646  88.804  1.00  0.00     0.086 CG0
ATOM     29  C   UNL     1      95.505  86.880  88.331  1.00  0.00     0.190 C 
ATOM     30  C   UNL     1      94.357  85.653  89.817  1.00  0.00    -0.010 C 
ATOM     31  G   UNL     1      93.865  83.504  88.362  1.00  0.00     0.000 G0
ATOM     32  O   UNL     1      96.085  87.851  87.867  1.00  0.00    -0.291 OA
ATOM     33  C   UNL     1      94.746  86.912  89.595  1.00  0.00    -0.008 C 
ATOM     34  C   UNL     1      94.544  88.128  90.410  1.00  0.00     0.048 C 
BRANCH  27  35
ATOM     35  O   UNL     1      94.519  85.726  86.592  1.00  0.00    -0.381 OA
ATOM     36  H   UNL     1      94.422  84.888  86.109  1.00  0.00     0.212 HD
ENDBRANCH  27  35
ENDBRANCH  26  27
ENDBRANCH   2  26
ENDBRANCH   1   2
BRANCH   1  37
ATOM     37  O   UNL     1      98.693  83.276  85.416  1.00  0.00    -0.461 OA
BRANCH  37  38
ATOM     38  C   UNL     1      99.196  82.182  84.750  1.00  0.00     0.310 C 
ATOM     39  O   UNL     1     100.290  81.675  84.956  1.00  0.00    -0.252 OA
BRANCH  38  40
ATOM     40  C   UNL     1      98.189  81.707  83.730  1.00  0.00     0.158 C 
BRANCH  40  41
ATOM     41  C   UNL     1      98.674  81.857  82.311  1.00  0.00    -0.037 A 
ATOM     42  C   UNL     1      98.435  83.042  81.614  1.00  0.00     0.008 A 
ATOM     43  C   UNL     1      99.363  80.813  81.695  1.00  0.00     0.008 A 
ATOM     44  C   UNL     1      98.883  83.181  80.300  1.00  0.00     0.046 A 
ATOM     45  C   UNL     1      99.812  80.952  80.381  1.00  0.00     0.046 A 
ATOM     46  C   UNL     1      99.572  82.135  79.684  1.00  0.00     0.115 A 
BRANCH  46  47
ATOM     47  O   UNL     1     100.009  82.271  78.402  1.00  0.00    -0.508 OA
ATOM     48  H   UNL     1     100.261  83.199  78.251  1.00  0.00     0.293 HD
ENDBRANCH  46  47
ENDBRANCH  40  41
ENDBRANCH  38  40
ENDBRANCH  37  38
ENDBRANCH   1  37
TORSDOF 10
ENDMDL
MODEL 3
REMARK VINA RESULT:    -6.573     27.634     31.223
REMARK INTER + INTRA:         -12.479
REMARK INTER:                 -11.218
REMARK INTRA:                  -1.261
REMARK UNBOUND:                -1.295
REMARK SMILES C=C(C)[C@]12C[C@@H](C)[C@@]34O[C@](Cc5ccccc5)(O[C@@H]1[C@@H]3C=C(COC(=O)Cc1ccc(O)cc1)C[C@]1(O)C(=O)C(C)=C[C@@H]41)O2
REMARK SMILES IDX 23 1 22 2 21 3 20 4 9 5 8 6 10 7 6 8 18 10 44 11 19 12 5 13
REMARK SMILES IDX 7 14 4 15 11 16 12 17 13 18 17 19 14 20 16 21 15 22 2 23
REMARK SMILES IDX 3 24 1 25 35 26 36 27 43 28 38 29 42 30 39 32 40 33 41 34
REMARK SMILES IDX 37 35 24 37 25 38 26 39 27 40 28 41 29 42 34 43 30 44 33 45
REMARK SMILES IDX 31 46 32 47
REMARK H PARENT 37 36 32 48
REMARK Flexibility Score: 90.00
ROOT
ATOM      1  C   UNL     1      92.117  86.196  90.649  1.00  0.00     0.264 C 
ENDROOT
BRANCH   1   2
ATOM      2  C   UNL     1      92.530  85.142  89.648  1.00  0.00    -0.033 C 
ATOM      3  C   UNL     1      93.807  85.110  89.214  1.00  0.00    -0.015 C 
BRANCH   3   4
ATOM      4  C   UNL     1      94.449  84.212  88.168  1.00  0.00     0.078 C 
ATOM      5  O   UNL     1      95.391  82.266  89.369  1.00  0.00    -0.319 OA
ATOM      6  C   UNL     1      94.388  82.654  88.380  1.00  0.00     0.095 CG0
ATOM      7  C   UNL     1      96.673  82.909  89.231  1.00  0.00     0.289 C 
ATOM      8  C   UNL     1      94.727  81.968  86.993  1.00  0.00     0.023 C 
ATOM      9  G   UNL     1      93.031  82.236  89.018  1.00  0.00     0.000 G0
ATOM     10  O   UNL     1      96.549  84.328  89.287  1.00  0.00    -0.320 OA
ATOM     11  O   UNL     1      97.289  82.625  87.977  1.00  0.00    -0.313 OA
ATOM     12  C   UNL     1      95.945  84.577  88.008  1.00  0.00     0.170 C 
ATOM     13  C   UNL     1      95.750  82.812  86.172  1.00  0.00     0.049 C 
ATOM     14  C   UNL     1      95.219  80.513  87.078  1.00  0.00     0.011 C 
ATOM     15  C   UNL     1      96.700  83.592  87.083  1.00  0.00     0.122 C 
BRANCH   7  16
ATOM     16  C   UNL     1      97.569  82.428  90.355  1.00  0.00     0.135 C 
BRANCH  16  17
ATOM     17  C   UNL     1      96.900  82.544  91.702  1.00  0.00    -0.040 A 
ATOM     18  C   UNL     1      96.213  83.708  92.042  1.00  0.00     0.004 A 
ATOM     19  C   UNL     1      96.970  81.485  92.607  1.00  0.00     0.004 A 
ATOM     20  C   UNL     1      95.594  83.815  93.288  1.00  0.00     0.000 A 
ATOM     21  C   UNL     1      96.352  81.592  93.853  1.00  0.00     0.000 A 
ATOM     22  C   UNL     1      95.664  82.757  94.193  1.00  0.00     0.000 A 
ENDBRANCH  16  17
ENDBRANCH   7  16
BRANCH  15  23
ATOM     23  C   UNL     1      97.799  84.263  86.325  1.00  0.00    -0.046 C 
ATOM     24  C   UNL     1      97.375  85.239  85.269  1.00  0.00     0.042 C 
ATOM     25  C   UNL     1      99.092  84.006  86.575  1.00  0.00     0.010 C 
ENDBRANCH  15  23
ENDBRANCH   3   4
BRANCH   2  26
ATOM     26  C   UNL     1      91.395  84.214  89.257  1.00  0.00     0.078 C 
BRANCH  26  27
ATOM     27  C   UNL     1      91.757  82.974  88.442  1.00  0.00     0.140 C 
ATOM     28  C   UNL     1      93.000  82.251  89.000  1.00  0.00     0.086 CG0
ATOM     29  C   UNL     1      90.694  81.898  88.521  1.00  0.00     0.190 C 
ATOM     30  C   UNL     1      92.591  80.805  89.007  1.00  0.00    -0.010 C 
ATOM     31  G   UNL     1      94.367  82.655  88.373  1.00  0.00     0.000 G0
ATOM     32  O   UNL     1      89.496  82.074  88.353  1.00  0.00    -0.291 OA
ATOM     33  C   UNL     1      91.296  80.575  88.770  1.00  0.00    -0.008 C 
ATOM     34  C   UNL     1      90.537  79.308  88.780  1.00  0.00     0.048 C 
BRANCH  27  35
ATOM     35  O   UNL     1      91.839  83.268  87.058  1.00  0.00    -0.381 OA
ATOM     36  H   UNL     1      92.247  82.510  86.607  1.00  0.00     0.212 HD
ENDBRANCH  27  35
ENDBRANCH  26  27
ENDBRANCH   2  26
ENDBRANCH   1   2
BRANCH   1  37
ATOM     37  O   UNL     1      92.940  86.101  91.793  1.00  0.00    -0.461 OA
BRANCH  37  38
ATOM     38  C   UNL     1      93.469  87.282  92.260  1.00  0.00     0.310 C 
ATOM     39  O   UNL     1      92.850  88.129  92.889  1.00  0.00    -0.252 OA
BRANCH  38  40
ATOM     40  C   UNL     1      94.927  87.368  91.875  1.00  0.00     0.158 C 
BRANCH  40  41
ATOM     41  C   UNL     1      95.166  88.240  90.670  1.00  0.00    -0.037 A 
ATOM     42  C   UNL     1      94.584  89.506  90.598  1.00  0.00     0.008 A 
ATOM     43  C   UNL     1      95.970  87.783  89.627  1.00  0.00     0.008 A 
ATOM     44  C   UNL     1      94.805  90.313  89.482  1.00  0.00     0.046 A 
ATOM     45  C   UNL     1      96.192  88.591  88.511  1.00  0.00     0.046 A 
ATOM     46  C   UNL     1      95.610  89.855  88.438  1.00  0.00     0.115 A 
BRANCH  46  47
ATOM     47  O   UNL     1      95.825  90.643  87.350  1.00  0.00    -0.508 OA
ATOM     48  H   UNL     1      95.050  91.217  87.217  1.00  0.00     0.293 HD
ENDBRANCH  46  47
ENDBRANCH  40  41
ENDBRANCH  38  40
ENDBRANCH  37  38
ENDBRANCH   1  37
TORSDOF 10
ENDMDL
MODEL 4
REMARK VINA RESULT:    -6.297      7.492     12.030
REMARK INTER + INTRA:         -12.009
REMARK INTER:                  -9.511
REMARK INTRA:                  -2.498
REMARK UNBOUND:                -1.295
REMARK SMILES C=C(C)[C@]12C[C@@H](C)[C@@]34O[C@](Cc5ccccc5)(O[C@@H]1[C@@H]3C=C(COC(=O)Cc1ccc(O)cc1)C[C@]1(O)C(=O)C(C)=C[C@@H]41)O2
REMARK SMILES IDX 23 1 22 2 21 3 20 4 9 5 8 6 10 7 6 8 18 10 44 11 19 12 5 13
REMARK SMILES IDX 7 14 4 15 11 16 12 17 13 18 17 19 14 20 16 21 15 22 2 23
REMARK SMILES IDX 3 24 1 25 35 26 36 27 43 28 38 29 42 30 39 32 40 33 41 34
REMARK SMILES IDX 37 35 24 37 25 38 26 39 27 40 28 41 29 42 34 43 30 44 33 45
REMARK SMILES IDX 31 46 32 47
REMARK H PARENT 37 36 32 48
REMARK Flexibility Score: 90.00
ROOT
ATOM      1  C   UNL     1      61.339  88.233  72.484  1.00  0.00     0.264 C 
ENDROOT
BRANCH   1   2
ATOM      2  C   UNL     1      62.764  87.913  72.874  1.00  0.00    -0.033 C 
ATOM      3  C   UNL     1      63.045  87.618  74.160  1.00  0.00    -0.015 C 
BRANCH   3   4
ATOM      4  C   UNL     1      64.388  87.339  74.815  1.00  0.00     0.078 C 
ATOM      5  O   UNL     1      64.732  84.892  74.740  1.00  0.00    -0.319 OA
ATOM      6  C   UNL     1      65.265  86.162  74.252  1.00  0.00     0.095 CG0
ATOM      7  C   UNL     1      64.343  84.881  76.127  1.00  0.00     0.289 C 
ATOM      8  C   UNL     1      66.739  86.357  74.800  1.00  0.00     0.023 C 
ATOM      9  G   UNL     1      65.136  86.067  72.704  1.00  0.00     0.000 G0
ATOM     10  O   UNL     1      63.368  85.883  76.400  1.00  0.00    -0.320 OA
ATOM     11  O   UNL     1      65.436  85.160  76.999  1.00  0.00    -0.313 OA
ATOM     12  C   UNL     1      64.189  87.059  76.325  1.00  0.00     0.170 C 
ATOM     13  C   UNL     1      66.740  86.993  76.224  1.00  0.00     0.049 C 
ATOM     14  C   UNL     1      67.615  85.092  74.807  1.00  0.00     0.011 C 
ATOM     15  C   UNL     1      65.494  86.601  77.020  1.00  0.00     0.122 C 
BRANCH   7  16
ATOM     16  C   UNL     1      63.777  83.512  76.451  1.00  0.00     0.135 C 
BRANCH  16  17
ATOM     17  C   UNL     1      63.247  82.814  75.223  1.00  0.00    -0.040 A 
ATOM     18  C   UNL     1      64.055  81.916  74.527  1.00  0.00     0.004 A 
ATOM     19  C   UNL     1      61.947  83.068  74.785  1.00  0.00     0.004 A 
ATOM     20  C   UNL     1      63.564  81.270  73.392  1.00  0.00     0.000 A 
ATOM     21  C   UNL     1      61.456  82.422  73.650  1.00  0.00     0.000 A 
ATOM     22  C   UNL     1      62.264  81.524  72.954  1.00  0.00     0.000 A 
ENDBRANCH  16  17
ENDBRANCH   7  16
BRANCH  15  23
ATOM     23  C   UNL     1      65.559  87.048  78.444  1.00  0.00    -0.046 C 
ATOM     24  C   UNL     1      66.556  86.343  79.315  1.00  0.00     0.042 C 
ATOM     25  C   UNL     1      64.771  88.025  78.918  1.00  0.00     0.010 C 
ENDBRANCH  15  23
ENDBRANCH   3   4
BRANCH   2  26
ATOM     26  C   UNL     1      63.728  87.964  71.703  1.00  0.00     0.078 C 
BRANCH  26  27
ATOM     27  C   UNL     1      65.136  87.421  71.935  1.00  0.00     0.140 C 
ATOM     28  C   UNL     1      65.126  86.081  72.699  1.00  0.00     0.086 CG0
ATOM     29  C   UNL     1      65.835  87.053  70.643  1.00  0.00     0.190 C 
ATOM     30  C   UNL     1      66.089  85.227  71.922  1.00  0.00    -0.010 C 
ATOM     31  G   UNL     1      65.265  86.173  74.247  1.00  0.00     0.000 G0
ATOM     32  O   UNL     1      65.908  87.762  69.651  1.00  0.00    -0.291 OA
ATOM     33  C   UNL     1      66.484  85.733  70.749  1.00  0.00    -0.008 C 
ATOM     34  C   UNL     1      67.345  85.146  69.702  1.00  0.00     0.048 C 
BRANCH  27  35
ATOM     35  O   UNL     1      65.983  88.402  72.510  1.00  0.00    -0.381 OA
ATOM     36  H   UNL     1      66.577  87.962  73.141  1.00  0.00     0.212 HD
ENDBRANCH  27  35
ENDBRANCH  26  27
ENDBRANCH   2  26
ENDBRANCH   1   2
BRANCH   1  37
ATOM     37  O   UNL     1      60.548  87.071  72.615  1.00  0.00    -0.461 OA
BRANCH  37  38
ATOM     38  C   UNL     1      59.584  86.881  71.652  1.00  0.00     0.310 C 
ATOM     39  O   UNL     1      58.747  87.710  71.322  1.00  0.00    -0.252 OA
BRANCH  38  40
ATOM     40  C   UNL     1      59.721  85.495  71.069  1.00  0.00     0.158 C 
BRANCH  40  41
ATOM     41  C   UNL     1      60.984  85.316  70.269  1.00  0.00    -0.037 A 
ATOM     42  C   UNL     1      61.778  84.185  70.461  1.00  0.00     0.008 A 
ATOM     43  C   UNL     1      61.361  86.281  69.335  1.00  0.00     0.008 A 
ATOM     44  C   UNL     1      62.949  84.020  69.720  1.00  0.00     0.046 A 
ATOM     45  C   UNL     1      62.532  86.116  68.593  1.00  0.00     0.046 A 
ATOM     46  C   UNL     1      63.325  84.986  68.786  1.00  0.00     0.115 A 
BRANCH  46  47
ATOM     47  O   UNL     1      64.467  84.825  68.064  1.00  0.00    -0.508 OA
ATOM     48  H   UNL     1      65.210  85.218  68.555  1.00  0.00     0.293 HD
ENDBRANCH  46  47
ENDBRANCH  40  41
ENDBRANCH  38  40
ENDBRANCH  37  38
ENDBRANCH   1  37
TORSDOF 10
ENDMDL
MODEL 5
REMARK VINA RESULT:    -6.279     26.818     29.554
REMARK INTER + INTRA:         -11.979
REMARK INTER:                 -11.410
REMARK INTRA:                  -0.569
REMARK UNBOUND:                -1.295
REMARK SMILES C=C(C)[C@]12C[C@@H](C)[C@@]34O[C@](Cc5ccccc5)(O[C@@H]1[C@@H]3C=C(COC(=O)Cc1ccc(O)cc1)C[C@]1(O)C(=O)C(C)=C[C@@H]41)O2
REMARK SMILES IDX 23 1 22 2 21 3 20 4 9 5 8 6 10 7 6 8 18 10 44 11 19 12 5 13
REMARK SMILES IDX 7 14 4 15 11 16 12 17 13 18 17 19 14 20 16 21 15 22 2 23
REMARK SMILES IDX 3 24 1 25 35 26 36 27 43 28 38 29 42 30 39 32 40 33 41 34
REMARK SMILES IDX 37 35 24 37 25 38 26 39 27 40 28 41 29 42 34 43 30 44 33 45
REMARK SMILES IDX 31 46 32 47
REMARK H PARENT 37 36 32 48
REMARK Flexibility Score: 90.00
ROOT
ATOM      1  C   UNL     1      98.001  82.658  86.116  1.00  0.00     0.264 C 
ENDROOT
BRANCH   1   2
ATOM      2  C   UNL     1      96.657  83.194  86.554  1.00  0.00    -0.033 C 
ATOM      3  C   UNL     1      95.647  82.331  86.785  1.00  0.00    -0.015 C 
BRANCH   3   4
ATOM      4  C   UNL     1      94.200  82.616  87.155  1.00  0.00     0.078 C 
ATOM      5  O   UNL     1      94.064  82.567  89.623  1.00  0.00    -0.319 OA
ATOM      6  C   UNL     1      93.910  83.441  88.462  1.00  0.00     0.095 CG0
ATOM      7  C   UNL     1      93.499  81.249  89.481  1.00  0.00     0.289 C 
ATOM      8  C   UNL     1      92.411  83.950  88.385  1.00  0.00     0.023 C 
ATOM      9  G   UNL     1      94.983  84.550  88.666  1.00  0.00     0.000 G0
ATOM     10  O   UNL     1      94.054  80.567  88.360  1.00  0.00    -0.320 OA
ATOM     11  O   UNL     1      92.092  81.284  89.253  1.00  0.00    -0.313 OA
ATOM     12  C   UNL     1      93.420  81.285  87.290  1.00  0.00     0.170 C 
ATOM     13  C   UNL     1      91.497  82.929  87.641  1.00  0.00     0.049 C 
ATOM     14  C   UNL     1      91.769  84.321  89.733  1.00  0.00     0.011 C 
ATOM     15  C   UNL     1      91.984  81.491  87.830  1.00  0.00     0.122 C 
BRANCH   7  16
ATOM     16  C   UNL     1      93.786  80.470  90.750  1.00  0.00     0.135 C 
BRANCH  16  17
ATOM     17  C   UNL     1      94.122  79.028  90.465  1.00  0.00    -0.040 A 
ATOM     18  C   UNL     1      93.112  78.131  90.120  1.00  0.00     0.004 A 
ATOM     19  C   UNL     1      95.445  78.592  90.546  1.00  0.00     0.004 A 
ATOM     20  C   UNL     1      93.424  76.796  89.856  1.00  0.00     0.000 A 
ATOM     21  C   UNL     1      95.756  77.258  90.282  1.00  0.00     0.000 A 
ATOM     22  C   UNL     1      94.746  76.361  89.937  1.00  0.00     0.000 A 
ENDBRANCH  16  17
ENDBRANCH   7  16
BRANCH  15  23
ATOM     23  C   UNL     1      91.026  80.485  87.280  1.00  0.00    -0.046 C 
ATOM     24  C   UNL     1      91.100  80.240  85.802  1.00  0.00     0.042 C 
ATOM     25  C   UNL     1      90.151  79.837  88.062  1.00  0.00     0.010 C 
ENDBRANCH  15  23
ENDBRANCH   3   4
BRANCH   2  26
ATOM     26  C   UNL     1      96.633  84.706  86.686  1.00  0.00     0.078 C 
BRANCH  26  27
ATOM     27  C   UNL     1      95.423  85.326  87.382  1.00  0.00     0.140 C 
ATOM     28  C   UNL     1      95.009  84.541  88.644  1.00  0.00     0.086 CG0
ATOM     29  C   UNL     1      95.717  86.703  87.938  1.00  0.00     0.190 C 
ATOM     30  C   UNL     1      94.796  85.618  89.671  1.00  0.00    -0.010 C 
ATOM     31  G   UNL     1      93.918  83.449  88.444  1.00  0.00     0.000 G0
ATOM     32  O   UNL     1      96.257  87.614  87.326  1.00  0.00    -0.291 OA
ATOM     33  C   UNL     1      95.210  86.838  89.316  1.00  0.00    -0.008 C 
ATOM     34  C   UNL     1      95.234  88.096  90.089  1.00  0.00     0.048 C 
BRANCH  27  35
ATOM     35  O   UNL     1      94.360  85.549  86.471  1.00  0.00    -0.381 OA
ATOM     36  H   UNL     1      94.626  86.253  85.855  1.00  0.00     0.212 HD
ENDBRANCH  27  35
ENDBRANCH  26  27
ENDBRANCH   2  26
ENDBRANCH   1   2
BRANCH   1  37
ATOM     37  O   UNL     1      98.360  83.248  84.885  1.00  0.00    -0.461 OA
BRANCH  37  38
ATOM     38  C   UNL     1      97.978  82.568  83.751  1.00  0.00     0.310 C 
ATOM     39  O   UNL     1      97.832  81.356  83.675  1.00  0.00    -0.252 OA
BRANCH  38  40
ATOM     40  C   UNL     1      97.767  83.549  82.623  1.00  0.00     0.158 C 
BRANCH  40  41
ATOM     41  C   UNL     1      98.462  83.140  81.351  1.00  0.00    -0.037 A 
ATOM     42  C   UNL     1      97.801  83.251  80.127  1.00  0.00     0.008 A 
ATOM     43  C   UNL     1      99.767  82.649  81.395  1.00  0.00     0.008 A 
ATOM     44  C   UNL     1      98.445  82.871  78.949  1.00  0.00     0.046 A 
ATOM     45  C   UNL     1     100.411  82.269  80.217  1.00  0.00     0.046 A 
ATOM     46  C   UNL     1      99.750  82.380  78.995  1.00  0.00     0.115 A 
BRANCH  46  47
ATOM     47  O   UNL     1     100.378  82.009  77.846  1.00  0.00    -0.508 OA
ATOM     48  H   UNL     1     100.862  81.180  78.004  1.00  0.00     0.293 HD
ENDBRANCH  46  47
ENDBRANCH  40  41
ENDBRANCH  38  40
ENDBRANCH  37  38
ENDBRANCH   1  37
TORSDOF 10
ENDMDL
MODEL 6
REMARK VINA RESULT:    -6.216     27.615     31.635
REMARK INTER + INTRA:         -11.872
REMARK INTER:                 -10.799
REMARK INTRA:                  -1.073
REMARK UNBOUND:                -1.295
REMARK SMILES C=C(C)[C@]12C[C@@H](C)[C@@]34O[C@](Cc5ccccc5)(O[C@@H]1[C@@H]3C=C(COC(=O)Cc1ccc(O)cc1)C[C@]1(O)C(=O)C(C)=C[C@@H]41)O2
REMARK SMILES IDX 23 1 22 2 21 3 20 4 9 5 8 6 10 7 6 8 18 10 44 11 19 12 5 13
REMARK SMILES IDX 7 14 4 15 11 16 12 17 13 18 17 19 14 20 16 21 15 22 2 23
REMARK SMILES IDX 3 24 1 25 35 26 36 27 43 28 38 29 42 30 39 32 40 33 41 34
REMARK SMILES IDX 37 35 24 37 25 38 26 39 27 40 28 41 29 42 34 43 30 44 33 45
REMARK SMILES IDX 31 46 32 47
REMARK H PARENT 37 36 32 48
REMARK Flexibility Score: 90.00
ROOT
ATOM      1  C   UNL     1      92.025  86.188  90.564  1.00  0.00     0.264 C 
ENDROOT
BRANCH   1   2
ATOM      2  C   UNL     1      92.462  85.133  89.574  1.00  0.00    -0.033 C 
ATOM      3  C   UNL     1      93.736  85.131  89.132  1.00  0.00    -0.015 C 
BRANCH   3   4
ATOM      4  C   UNL     1      94.397  84.237  88.095  1.00  0.00     0.078 C 
ATOM      5  O   UNL     1      95.367  82.315  89.312  1.00  0.00    -0.319 OA
ATOM      6  C   UNL     1      94.361  82.680  88.316  1.00  0.00     0.095 CG0
ATOM      7  C   UNL     1      96.638  82.979  89.174  1.00  0.00     0.289 C 
ATOM      8  C   UNL     1      94.717  81.991  86.935  1.00  0.00     0.023 C 
ATOM      9  G   UNL     1      93.009  82.243  88.952  1.00  0.00     0.000 G0
ATOM     10  O   UNL     1      96.490  84.395  89.220  1.00  0.00    -0.320 OA
ATOM     11  O   UNL     1      97.264  82.698  87.925  1.00  0.00    -0.313 OA
ATOM     12  C   UNL     1      95.887  84.627  87.937  1.00  0.00     0.170 C 
ATOM     13  C   UNL     1      95.729  82.847  86.113  1.00  0.00     0.049 C 
ATOM     14  C   UNL     1      95.233  80.545  87.031  1.00  0.00     0.011 C 
ATOM     15  C   UNL     1      96.662  83.648  87.022  1.00  0.00     0.122 C 
BRANCH   7  16
ATOM     16  C   UNL     1      97.538  82.520  90.304  1.00  0.00     0.135 C 
BRANCH  16  17
ATOM     17  C   UNL     1      98.226  81.216  89.986  1.00  0.00    -0.040 A 
ATOM     18  C   UNL     1      97.564  80.007  90.198  1.00  0.00     0.004 A 
ATOM     19  C   UNL     1      99.525  81.220  89.479  1.00  0.00     0.004 A 
ATOM     20  C   UNL     1      98.201  78.801  89.903  1.00  0.00     0.000 A 
ATOM     21  C   UNL     1     100.162  80.014  89.184  1.00  0.00     0.000 A 
ATOM     22  C   UNL     1      99.500  78.806  89.396  1.00  0.00     0.000 A 
ENDBRANCH  16  17
ENDBRANCH   7  16
BRANCH  15  23
ATOM     23  C   UNL     1      97.753  84.332  86.264  1.00  0.00    -0.046 C 
ATOM     24  C   UNL     1      97.333  85.472  85.384  1.00  0.00     0.042 C 
ATOM     25  C   UNL     1      99.035  83.950  86.365  1.00  0.00     0.010 C 
ENDBRANCH  15  23
ENDBRANCH   3   4
BRANCH   2  26
ATOM     26  C   UNL     1      91.351  84.168  89.203  1.00  0.00     0.078 C 
BRANCH  26  27
ATOM     27  C   UNL     1      91.738  82.943  88.377  1.00  0.00     0.140 C 
ATOM     28  C   UNL     1      92.994  82.238  88.932  1.00  0.00     0.086 CG0
ATOM     29  C   UNL     1      90.695  81.847  88.442  1.00  0.00     0.190 C 
ATOM     30  C   UNL     1      92.611  80.784  88.924  1.00  0.00    -0.010 C 
ATOM     31  G   UNL     1      94.354  82.673  88.313  1.00  0.00     0.000 G0
ATOM     32  O   UNL     1      89.495  82.001  88.272  1.00  0.00    -0.291 OA
ATOM     33  C   UNL     1      91.322  80.533  88.680  1.00  0.00    -0.008 C 
ATOM     34  C   UNL     1      90.586  79.251  88.675  1.00  0.00     0.048 C 
BRANCH  27  35
ATOM     35  O   UNL     1      91.818  83.252  86.996  1.00  0.00    -0.381 OA
ATOM     36  H   UNL     1      92.680  83.668  86.825  1.00  0.00     0.212 HD
ENDBRANCH  27  35
ENDBRANCH  26  27
ENDBRANCH   2  26
ENDBRANCH   1   2
BRANCH   1  37
ATOM     37  O   UNL     1      92.790  86.067  91.744  1.00  0.00    -0.461 OA
BRANCH  37  38
ATOM     38  C   UNL     1      93.408  87.213  92.187  1.00  0.00     0.310 C 
ATOM     39  O   UNL     1      92.875  88.311  92.273  1.00  0.00    -0.252 OA
BRANCH  38  40
ATOM     40  C   UNL     1      94.841  86.904  92.551  1.00  0.00     0.158 C 
BRANCH  40  41
ATOM     41  C   UNL     1      95.824  87.861  91.928  1.00  0.00    -0.037 A 
ATOM     42  C   UNL     1      95.677  88.243  90.595  1.00  0.00     0.008 A 
ATOM     43  C   UNL     1      96.882  88.365  92.685  1.00  0.00     0.008 A 
ATOM     44  C   UNL     1      96.589  89.128  90.018  1.00  0.00     0.046 A 
ATOM     45  C   UNL     1      97.793  89.251  92.108  1.00  0.00     0.046 A 
ATOM     46  C   UNL     1      97.647  89.632  90.775  1.00  0.00     0.115 A 
BRANCH  46  47
ATOM     47  O   UNL     1      98.536  90.495  90.212  1.00  0.00    -0.508 OA
ATOM     48  H   UNL     1      98.587  90.317  89.257  1.00  0.00     0.293 HD
ENDBRANCH  46  47
ENDBRANCH  40  41
ENDBRANCH  38  40
ENDBRANCH  37  38
ENDBRANCH   1  37
TORSDOF 10
ENDMDL
MODEL 7
REMARK VINA RESULT:    -6.020      2.614      7.696
REMARK INTER + INTRA:         -11.539
REMARK INTER:                 -10.430
REMARK INTRA:                  -1.109
REMARK UNBOUND:                -1.295
REMARK SMILES C=C(C)[C@]12C[C@@H](C)[C@@]34O[C@](Cc5ccccc5)(O[C@@H]1[C@@H]3C=C(COC(=O)Cc1ccc(O)cc1)C[C@]1(O)C(=O)C(C)=C[C@@H]41)O2
REMARK SMILES IDX 23 1 22 2 21 3 20 4 9 5 8 6 10 7 6 8 18 10 44 11 19 12 5 13
REMARK SMILES IDX 7 14 4 15 11 16 12 17 13 18 17 19 14 20 16 21 15 22 2 23
REMARK SMILES IDX 3 24 1 25 35 26 36 27 43 28 38 29 42 30 39 32 40 33 41 34
REMARK SMILES IDX 37 35 24 37 25 38 26 39 27 40 28 41 29 42 34 43 30 44 33 45
REMARK SMILES IDX 31 46 32 47
REMARK H PARENT 37 36 32 48
REMARK Flexibility Score: 90.00
ROOT
ATOM      1  C   UNL     1      70.518  86.070  69.095  1.00  0.00     0.264 C 
ENDROOT
BRANCH   1   2
ATOM      2  C   UNL     1      71.293  85.839  67.819  1.00  0.00    -0.033 C 
ATOM      3  C   UNL     1      71.862  86.890  67.193  1.00  0.00    -0.015 C 
BRANCH   3   4
ATOM      4  C   UNL     1      72.618  86.936  65.875  1.00  0.00     0.078 C 
ATOM      5  O   UNL     1      75.011  86.612  66.406  1.00  0.00    -0.319 OA
ATOM      6  C   UNL     1      73.879  86.011  65.703  1.00  0.00     0.095 CG0
ATOM      7  C   UNL     1      75.153  88.036  66.240  1.00  0.00     0.289 C 
ATOM      8  C   UNL     1      74.206  85.930  64.155  1.00  0.00     0.023 C 
ATOM      9  G   UNL     1      73.663  84.643  66.414  1.00  0.00     0.000 G0
ATOM     10  O   UNL     1      73.979  88.725  66.662  1.00  0.00    -0.320 OA
ATOM     11  O   UNL     1      75.350  88.407  64.878  1.00  0.00    -0.313 OA
ATOM     12  C   UNL     1      73.088  88.383  65.588  1.00  0.00     0.170 C 
ATOM     13  C   UNL     1      73.853  87.261  63.425  1.00  0.00     0.049 C 
ATOM     14  C   UNL     1      75.648  85.523  63.805  1.00  0.00     0.011 C 
ATOM     15  C   UNL     1      74.010  88.472  64.347  1.00  0.00     0.122 C 
BRANCH   7  16
ATOM     16  C   UNL     1      76.340  88.494  67.064  1.00  0.00     0.135 C 
BRANCH  16  17
ATOM     17  C   UNL     1      76.948  87.364  67.858  1.00  0.00    -0.040 A 
ATOM     18  C   UNL     1      76.708  87.266  69.228  1.00  0.00     0.004 A 
ATOM     19  C   UNL     1      77.750  86.418  67.221  1.00  0.00     0.004 A 
ATOM     20  C   UNL     1      77.269  86.221  69.962  1.00  0.00     0.000 A 
ATOM     21  C   UNL     1      78.311  85.373  67.955  1.00  0.00     0.000 A 
ATOM     22  C   UNL     1      78.071  85.275  69.325  1.00  0.00     0.000 A 
ENDBRANCH  16  17
ENDBRANCH   7  16
BRANCH  15  23
ATOM     23  C   UNL     1      73.853  89.769  63.623  1.00  0.00    -0.046 C 
ATOM     24  C   UNL     1      72.446  90.203  63.338  1.00  0.00     0.042 C 
ATOM     25  C   UNL     1      74.910  90.504  63.248  1.00  0.00     0.010 C 
ENDBRANCH  15  23
ENDBRANCH   3   4
BRANCH   2  26
ATOM     26  C   UNL     1      71.331  84.381  67.401  1.00  0.00     0.078 C 
BRANCH  26  27
ATOM     27  C   UNL     1      72.266  84.009  66.252  1.00  0.00     0.140 C 
ATOM     28  C   UNL     1      73.662  84.648  66.404  1.00  0.00     0.086 CG0
ATOM     29  C   UNL     1      72.588  82.529  66.222  1.00  0.00     0.190 C 
ATOM     30  C   UNL     1      74.602  83.512  66.110  1.00  0.00    -0.010 C 
ATOM     31  G   UNL     1      73.871  86.016  65.692  1.00  0.00     0.000 G0
ATOM     32  O   UNL     1      71.769  81.625  66.296  1.00  0.00    -0.291 OA
ATOM     33  C   UNL     1      74.033  82.306  66.030  1.00  0.00    -0.008 C 
ATOM     34  C   UNL     1      74.648  80.975  65.838  1.00  0.00     0.048 C 
BRANCH  27  35
ATOM     35  O   UNL     1      71.661  84.248  64.992  1.00  0.00    -0.381 OA
ATOM     36  H   UNL     1      71.786  85.186  64.766  1.00  0.00     0.212 HD
ENDBRANCH  27  35
ENDBRANCH  26  27
ENDBRANCH   2  26
ENDBRANCH   1   2
BRANCH   1  37
ATOM     37  O   UNL     1      71.360  86.685  70.047  1.00  0.00    -0.461 OA
BRANCH  37  38
ATOM     38  C   UNL     1      70.936  87.897  70.541  1.00  0.00     0.310 C 
ATOM     39  O   UNL     1      70.060  88.591  70.043  1.00  0.00    -0.252 OA
BRANCH  38  40
ATOM     40  C   UNL     1      71.717  88.235  71.788  1.00  0.00     0.158 C 
BRANCH  40  41
ATOM     41  C   UNL     1      72.806  89.247  71.544  1.00  0.00    -0.037 A 
ATOM     42  C   UNL     1      72.515  90.611  71.597  1.00  0.00     0.008 A 
ATOM     43  C   UNL     1      74.104  88.822  71.264  1.00  0.00     0.008 A 
ATOM     44  C   UNL     1      73.523  91.548  71.370  1.00  0.00     0.046 A 
ATOM     45  C   UNL     1      75.112  89.760  71.037  1.00  0.00     0.046 A 
ATOM     46  C   UNL     1      74.822  91.122  71.090  1.00  0.00     0.115 A 
BRANCH  46  47
ATOM     47  O   UNL     1      75.804  92.037  70.868  1.00  0.00    -0.508 OA
ATOM     48  H   UNL     1      76.352  91.737  70.122  1.00  0.00     0.293 HD
ENDBRANCH  46  47
ENDBRANCH  40  41
ENDBRANCH  38  40
ENDBRANCH  37  38
ENDBRANCH   1  37
TORSDOF 10
ENDMDL
MODEL 8
REMARK VINA RESULT:    -5.999      5.682      9.683
REMARK INTER + INTRA:         -11.502
REMARK INTER:                  -9.614
REMARK INTRA:                  -1.888
REMARK UNBOUND:                -1.295
REMARK SMILES C=C(C)[C@]12C[C@@H](C)[C@@]34O[C@](Cc5ccccc5)(O[C@@H]1[C@@H]3C=C(COC(=O)Cc1ccc(O)cc1)C[C@]1(O)C(=O)C(C)=C[C@@H]41)O2
REMARK SMILES IDX 23 1 22 2 21 3 20 4 9 5 8 6 10 7 6 8 18 10 44 11 19 12 5 13
REMARK SMILES IDX 7 14 4 15 11 16 12 17 13 18 17 19 14 20 16 21 15 22 2 23
REMARK SMILES IDX 3 24 1 25 35 26 36 27 43 28 38 29 42 30 39 32 40 33 41 34
REMARK SMILES IDX 37 35 24 37 25 38 26 39 27 40 28 41 29 42 34 43 30 44 33 45
REMARK SMILES IDX 31 46 32 47
REMARK H PARENT 37 36 32 48
REMARK Flexibility Score: 90.00
ROOT
ATOM      1  C   UNL     1      66.263  87.113  68.645  1.00  0.00     0.264 C 
ENDROOT
BRANCH   1   2
ATOM      2  C   UNL     1      65.548  87.384  69.948  1.00  0.00    -0.033 C 
ATOM      3  C   UNL     1      64.206  87.259  70.002  1.00  0.00    -0.015 C 
BRANCH   3   4
ATOM      4  C   UNL     1      63.255  87.545  71.154  1.00  0.00     0.078 C 
ATOM      5  O   UNL     1      62.950  85.419  72.380  1.00  0.00    -0.319 OA
ATOM      6  C   UNL     1      63.472  86.778  72.510  1.00  0.00     0.095 CG0
ATOM      7  C   UNL     1      61.685  85.308  71.701  1.00  0.00     0.289 C 
ATOM      8  C   UNL     1      62.656  87.546  73.631  1.00  0.00     0.023 C 
ATOM      9  G   UNL     1      64.989  86.586  72.801  1.00  0.00     0.000 G0
ATOM     10  O   UNL     1      61.749  85.864  70.391  1.00  0.00    -0.320 OA
ATOM     11  O   UNL     1      60.646  86.018  72.371  1.00  0.00    -0.313 OA
ATOM     12  C   UNL     1      61.797  87.263  70.715  1.00  0.00     0.170 C 
ATOM     13  C   UNL     1      61.355  88.184  73.056  1.00  0.00     0.049 C 
ATOM     14  C   UNL     1      62.309  86.719  74.881  1.00  0.00     0.011 C 
ATOM     15  C   UNL     1      60.793  87.370  71.889  1.00  0.00     0.122 C 
BRANCH   7  16
ATOM     16  C   UNL     1      61.319  83.839  71.617  1.00  0.00     0.135 C 
BRANCH  16  17
ATOM     17  C   UNL     1      62.538  82.952  71.586  1.00  0.00    -0.040 A 
ATOM     18  C   UNL     1      63.268  82.811  70.406  1.00  0.00     0.004 A 
ATOM     19  C   UNL     1      62.935  82.273  72.738  1.00  0.00     0.004 A 
ATOM     20  C   UNL     1      64.397  81.991  70.378  1.00  0.00     0.000 A 
ATOM     21  C   UNL     1      64.064  81.453  72.709  1.00  0.00     0.000 A 
ATOM     22  C   UNL     1      64.794  81.312  71.530  1.00  0.00     0.000 A 
ENDBRANCH  16  17
ENDBRANCH   7  16
BRANCH  15  23
ATOM     23  C   UNL     1      59.454  87.858  71.440  1.00  0.00    -0.046 C 
ATOM     24  C   UNL     1      59.255  87.976  69.958  1.00  0.00     0.042 C 
ATOM     25  C   UNL     1      58.485  88.172  72.313  1.00  0.00     0.010 C 
ENDBRANCH  15  23
ENDBRANCH   3   4
BRANCH   2  26
ATOM     26  C   UNL     1      66.488  87.772  71.074  1.00  0.00     0.078 C 
BRANCH  26  27
ATOM     27  C   UNL     1      65.911  87.798  72.488  1.00  0.00     0.140 C 
ATOM     28  C   UNL     1      64.999  86.586  72.769  1.00  0.00     0.086 CG0
ATOM     29  C   UNL     1      66.977  87.656  73.553  1.00  0.00     0.190 C 
ATOM     30  C   UNL     1      65.451  86.114  74.123  1.00  0.00    -0.010 C 
ATOM     31  G   UNL     1      63.480  86.794  72.501  1.00  0.00     0.000 G0
ATOM     32  O   UNL     1      68.018  88.295  73.603  1.00  0.00    -0.291 OA
ATOM     33  C   UNL     1      66.575  86.675  74.578  1.00  0.00    -0.008 C 
ATOM     34  C   UNL     1      67.344  86.400  75.810  1.00  0.00     0.048 C 
BRANCH  27  35
ATOM     35  O   UNL     1      65.307  89.048  72.778  1.00  0.00    -0.381 OA
ATOM     36  H   UNL     1      64.878  89.376  71.970  1.00  0.00     0.212 HD
ENDBRANCH  27  35
ENDBRANCH  26  27
ENDBRANCH   2  26
ENDBRANCH   1   2
BRANCH   1  37
ATOM     37  O   UNL     1      65.482  86.239  67.858  1.00  0.00    -0.461 OA
BRANCH  37  38
ATOM     38  C   UNL     1      66.169  85.277  67.154  1.00  0.00     0.310 C 
ATOM     39  O   UNL     1      66.671  85.438  66.051  1.00  0.00    -0.252 OA
BRANCH  38  40
ATOM     40  C   UNL     1      66.206  83.998  67.955  1.00  0.00     0.158 C 
BRANCH  40  41
ATOM     41  C   UNL     1      67.433  83.881  68.821  1.00  0.00    -0.037 A 
ATOM     42  C   UNL     1      67.332  84.048  70.202  1.00  0.00     0.008 A 
ATOM     43  C   UNL     1      68.672  83.606  68.242  1.00  0.00     0.008 A 
ATOM     44  C   UNL     1      68.469  83.941  71.003  1.00  0.00     0.046 A 
ATOM     45  C   UNL     1      69.809  83.498  69.042  1.00  0.00     0.046 A 
ATOM     46  C   UNL     1      69.708  83.666  70.423  1.00  0.00     0.115 A 
BRANCH  46  47
ATOM     47  O   UNL     1      70.817  83.562  71.205  1.00  0.00    -0.508 OA
ATOM     48  H   UNL     1      70.553  83.243  72.085  1.00  0.00     0.293 HD
ENDBRANCH  46  47
ENDBRANCH  40  41
ENDBRANCH  38  40
ENDBRANCH  37  38
ENDBRANCH   1  37
TORSDOF 10
ENDMDL
MODEL 9
REMARK VINA RESULT:    -5.743      5.518      9.997
REMARK INTER + INTRA:         -11.067
REMARK INTER:                 -10.462
REMARK INTRA:                  -0.605
REMARK UNBOUND:                -1.295
REMARK SMILES C=C(C)[C@]12C[C@@H](C)[C@@]34O[C@](Cc5ccccc5)(O[C@@H]1[C@@H]3C=C(COC(=O)Cc1ccc(O)cc1)C[C@]1(O)C(=O)C(C)=C[C@@H]41)O2
REMARK SMILES IDX 23 1 22 2 21 3 20 4 9 5 8 6 10 7 6 8 18 10 44 11 19 12 5 13
REMARK SMILES IDX 7 14 4 15 11 16 12 17 13 18 17 19 14 20 16 21 15 22 2 23
REMARK SMILES IDX 3 24 1 25 35 26 36 27 43 28 38 29 42 30 39 32 40 33 41 34
REMARK SMILES IDX 37 35 24 37 25 38 26 39 27 40 28 41 29 42 34 43 30 44 33 45
REMARK SMILES IDX 31 46 32 47
REMARK H PARENT 37 36 32 48
REMARK Flexibility Score: 90.00
ROOT
ATOM      1  C   UNL     1      67.573  86.807  70.611  1.00  0.00     0.264 C 
ENDROOT
BRANCH   1   2
ATOM      2  C   UNL     1      66.660  85.702  71.088  1.00  0.00    -0.033 C 
ATOM      3  C   UNL     1      66.266  85.683  72.378  1.00  0.00    -0.015 C 
BRANCH   3   4
ATOM      4  C   UNL     1      65.423  84.654  73.115  1.00  0.00     0.078 C 
ATOM      5  O   UNL     1      63.071  85.399  72.952  1.00  0.00    -0.319 OA
ATOM      6  C   UNL     1      63.987  84.329  72.563  1.00  0.00     0.095 CG0
ATOM      7  C   UNL     1      63.216  85.871  74.305  1.00  0.00     0.289 C 
ATOM      8  C   UNL     1      63.515  82.969  73.225  1.00  0.00     0.023 C 
ATOM      9  G   UNL     1      63.974  84.354  71.006  1.00  0.00     0.000 G0
ATOM     10  O   UNL     1      64.540  86.336  74.552  1.00  0.00    -0.320 OA
ATOM     11  O   UNL     1      62.982  84.844  75.266  1.00  0.00    -0.313 OA
ATOM     12  C   UNL     1      65.242  85.083  74.592  1.00  0.00     0.170 C 
ATOM     13  C   UNL     1      64.073  82.814  74.673  1.00  0.00     0.049 C 
ATOM     14  C   UNL     1      61.995  82.731  73.236  1.00  0.00     0.011 C 
ATOM     15  C   UNL     1      64.254  84.169  75.358  1.00  0.00     0.122 C 
BRANCH   7  16
ATOM     16  C   UNL     1      62.227  86.999  74.523  1.00  0.00     0.135 C 
BRANCH  16  17
ATOM     17  C   UNL     1      61.055  86.916  73.577  1.00  0.00    -0.040 A 
ATOM     18  C   UNL     1      60.137  85.873  73.694  1.00  0.00     0.004 A 
ATOM     19  C   UNL     1      60.891  87.882  72.585  1.00  0.00     0.004 A 
ATOM     20  C   UNL     1      59.053  85.797  72.818  1.00  0.00     0.000 A 
ATOM     21  C   UNL     1      59.807  87.806  71.710  1.00  0.00     0.000 A 
ATOM     22  C   UNL     1      58.889  86.763  71.827  1.00  0.00     0.000 A 
ENDBRANCH  16  17
ENDBRANCH   7  16
BRANCH  15  23
ATOM     23  C   UNL     1      64.614  84.039  76.802  1.00  0.00    -0.046 C 
ATOM     24  C   UNL     1      63.478  84.130  77.778  1.00  0.00     0.042 C 
ATOM     25  C   UNL     1      65.880  83.852  77.203  1.00  0.00     0.010 C 
ENDBRANCH  15  23
ENDBRANCH   3   4
BRANCH   2  26
ATOM     26  C   UNL     1      66.288  84.722  69.991  1.00  0.00     0.078 C 
BRANCH  26  27
ATOM     27  C   UNL     1      65.200  83.698  70.310  1.00  0.00     0.140 C 
ATOM     28  C   UNL     1      63.984  84.337  71.013  1.00  0.00     0.086 CG0
ATOM     29  C   UNL     1      64.579  83.105  69.063  1.00  0.00     0.190 C 
ATOM     30  C   UNL     1      62.809  83.755  70.278  1.00  0.00    -0.010 C 
ATOM     31  G   UNL     1      64.001  84.312  72.569  1.00  0.00     0.000 G0
ATOM     32  O   UNL     1      65.197  82.653  68.110  1.00  0.00    -0.291 OA
ATOM     33  C   UNL     1      63.108  83.082  69.163  1.00  0.00    -0.008 C 
ATOM     34  C   UNL     1      62.218  82.455  68.163  1.00  0.00     0.048 C 
BRANCH  27  35
ATOM     35  O   UNL     1      65.730  82.574  70.992  1.00  0.00    -0.381 OA
ATOM     36  H   UNL     1      66.242  82.891  71.755  1.00  0.00     0.212 HD
ENDBRANCH  27  35
ENDBRANCH  26  27
ENDBRANCH   2  26
ENDBRANCH   1   2
BRANCH   1  37
ATOM     37  O   UNL     1      68.460  86.294  69.640  1.00  0.00    -0.461 OA
BRANCH  37  38
ATOM     38  C   UNL     1      69.614  85.716  70.116  1.00  0.00     0.310 C 
ATOM     39  O   UNL     1      69.968  85.714  71.287  1.00  0.00    -0.252 OA
BRANCH  38  40
ATOM     40  C   UNL     1      70.372  85.087  68.972  1.00  0.00     0.158 C 
BRANCH  40  41
ATOM     41  C   UNL     1      69.496  84.780  67.785  1.00  0.00    -0.037 A 
ATOM     42  C   UNL     1      69.038  83.480  67.573  1.00  0.00     0.008 A 
ATOM     43  C   UNL     1      69.143  85.796  66.897  1.00  0.00     0.008 A 
ATOM     44  C   UNL     1      68.228  83.195  66.474  1.00  0.00     0.046 A 
ATOM     45  C   UNL     1      68.332  85.512  65.797  1.00  0.00     0.046 A 
ATOM     46  C   UNL     1      67.875  84.212  65.586  1.00  0.00     0.115 A 
BRANCH  46  47
ATOM     47  O   UNL     1      67.085  83.934  64.513  1.00  0.00    -0.508 OA
ATOM     48  H   UNL     1      67.649  83.797  63.733  1.00  0.00     0.293 HD
ENDBRANCH  46  47
ENDBRANCH  40  41
ENDBRANCH  38  40
ENDBRANCH  37  38
ENDBRANCH   1  37
TORSDOF 10
ENDMDL
MODEL 10
REMARK VINA RESULT:    -5.597      6.713     12.097
REMARK INTER + INTRA:         -10.819
REMARK INTER:                 -10.204
REMARK INTRA:                  -0.615
REMARK UNBOUND:                -1.295
REMARK SMILES C=C(C)[C@]12C[C@@H](C)[C@@]34O[C@](Cc5ccccc5)(O[C@@H]1[C@@H]3C=C(COC(=O)Cc1ccc(O)cc1)C[C@]1(O)C(=O)C(C)=C[C@@H]41)O2
REMARK SMILES IDX 23 1 22 2 21 3 20 4 9 5 8 6 10 7 6 8 18 10 44 11 19 12 5 13
REMARK SMILES IDX 7 14 4 15 11 16 12 17 13 18 17 19 14 20 16 21 15 22 2 23
REMARK SMILES IDX 3 24 1 25 35 26 36 27 43 28 38 29 42 30 39 32 40 33 41 34
REMARK SMILES IDX 37 35 24 37 25 38 26 39 27 40 28 41 29 42 34 43 30 44 33 45
REMARK SMILES IDX 31 46 32 47
REMARK H PARENT 37 36 32 48
REMARK Flexibility Score: 90.00
ROOT
ATOM      1  C   UNL     1      63.319  89.172  72.501  1.00  0.00     0.264 C 
ENDROOT
BRANCH   1   2
ATOM      2  C   UNL     1      64.448  88.494  73.242  1.00  0.00    -0.033 C 
ATOM      3  C   UNL     1      64.214  87.975  74.466  1.00  0.00    -0.015 C 
BRANCH   3   4
ATOM      4  C   UNL     1      65.183  87.319  75.437  1.00  0.00     0.078 C 
ATOM      5  O   UNL     1      65.128  84.889  74.978  1.00  0.00    -0.319 OA
ATOM      6  C   UNL     1      65.997  86.064  74.949  1.00  0.00     0.095 CG0
ATOM      7  C   UNL     1      64.287  84.776  76.142  1.00  0.00     0.289 C 
ATOM      8  C   UNL     1      67.200  85.852  75.958  1.00  0.00     0.023 C 
ATOM      9  G   UNL     1      66.398  86.213  73.452  1.00  0.00     0.000 G0
ATOM     10  O   UNL     1      63.454  85.922  76.293  1.00  0.00    -0.320 OA
ATOM     11  O   UNL     1      65.040  84.684  77.349  1.00  0.00    -0.313 OA
ATOM     12  C   UNL     1      64.430  86.886  76.719  1.00  0.00     0.170 C 
ATOM     13  C   UNL     1      66.811  86.272  77.408  1.00  0.00     0.049 C 
ATOM     14  C   UNL     1      67.801  84.436  75.981  1.00  0.00     0.011 C 
ATOM     15  C   UNL     1      65.321  86.060  77.679  1.00  0.00     0.122 C 
BRANCH   7  16
ATOM     16  C   UNL     1      63.428  83.535  75.988  1.00  0.00     0.135 C 
BRANCH  16  17
ATOM     17  C   UNL     1      63.353  83.073  74.554  1.00  0.00    -0.040 A 
ATOM     18  C   UNL     1      63.105  83.994  73.537  1.00  0.00     0.004 A 
ATOM     19  C   UNL     1      63.532  81.725  74.247  1.00  0.00     0.004 A 
ATOM     20  C   UNL     1      63.036  83.566  72.210  1.00  0.00     0.000 A 
ATOM     21  C   UNL     1      63.463  81.297  72.921  1.00  0.00     0.000 A 
ATOM     22  C   UNL     1      63.215  82.218  71.903  1.00  0.00     0.000 A 
ENDBRANCH  16  17
ENDBRANCH   7  16
BRANCH  15  23
ATOM     23  C   UNL     1      64.960  86.284  79.111  1.00  0.00    -0.046 C 
ATOM     24  C   UNL     1      66.091  86.641  80.030  1.00  0.00     0.042 C 
ATOM     25  C   UNL     1      63.698  86.171  79.551  1.00  0.00     0.010 C 
ENDBRANCH  15  23
ENDBRANCH   3   4
BRANCH   2  26
ATOM     26  C   UNL     1      65.751  88.485  72.465  1.00  0.00     0.078 C 
BRANCH  26  27
ATOM     27  C   UNL     1      66.885  87.623  73.015  1.00  0.00     0.140 C 
ATOM     28  C   UNL     1      66.398  86.226  73.451  1.00  0.00     0.086 CG0
ATOM     29  C   UNL     1      67.924  87.292  71.964  1.00  0.00     0.190 C 
ATOM     30  C   UNL     1      67.424  85.298  72.862  1.00  0.00    -0.010 C 
ATOM     31  G   UNL     1      66.001  86.074  74.948  1.00  0.00     0.000 G0
ATOM     32  O   UNL     1      68.449  88.098  71.210  1.00  0.00    -0.291 OA
ATOM     33  C   UNL     1      68.278  85.861  72.001  1.00  0.00    -0.008 C 
ATOM     34  C   UNL     1      69.346  85.250  71.184  1.00  0.00     0.048 C 
BRANCH  27  35
ATOM     35  O   UNL     1      67.621  88.310  74.014  1.00  0.00    -0.381 OA
ATOM     36  H   UNL     1      67.550  87.810  74.845  1.00  0.00     0.212 HD
ENDBRANCH  27  35
ENDBRANCH  26  27
ENDBRANCH   2  26
ENDBRANCH   1   2
BRANCH   1  37
ATOM     37  O   UNL     1      62.825  88.301  71.506  1.00  0.00    -0.461 OA
BRANCH  37  38
ATOM     38  C   UNL     1      62.527  88.873  70.291  1.00  0.00     0.310 C 
ATOM     39  O   UNL     1      62.568  90.071  70.049  1.00  0.00    -0.252 OA
BRANCH  38  40
ATOM     40  C   UNL     1      62.143  87.794  69.307  1.00  0.00     0.158 C 
BRANCH  40  41
ATOM     41  C   UNL     1      61.060  86.884  69.825  1.00  0.00    -0.037 A 
ATOM     42  C   UNL     1      61.147  85.507  69.619  1.00  0.00     0.008 A 
ATOM     43  C   UNL     1      59.969  87.418  70.511  1.00  0.00     0.008 A 
ATOM     44  C   UNL     1      60.144  84.665  70.098  1.00  0.00     0.046 A 
ATOM     45  C   UNL     1      58.965  86.575  70.991  1.00  0.00     0.046 A 
ATOM     46  C   UNL     1      59.053  85.199  70.784  1.00  0.00     0.115 A 
BRANCH  46  47
ATOM     47  O   UNL     1      58.074  84.377  71.251  1.00  0.00    -0.508 OA
ATOM     48  H   UNL     1      57.215  84.688  70.917  1.00  0.00     0.293 HD
ENDBRANCH  46  47
ENDBRANCH  40  41
ENDBRANCH  38  40
ENDBRANCH  37  38
ENDBRANCH   1  37
TORSDOF 10
ENDMDL
