MODEL 1
REMARK VINA RESULT:    -6.586      0.000      0.000
REMARK INTER + INTRA:         -11.741
REMARK INTER:                 -10.628
REMARK INTRA:                  -1.113
REMARK UNBOUND:                -1.113
REMARK SMILES COc1cc(CNC(=O)CCCCC/C=C/C(C)C)ccc1O
REMARK SMILES IDX 11 1 10 2 8 3 7 4 9 6 6 7 5 8 3 9 22 10 4 11 21 12 20 13
REMARK SMILES IDX 2 14 1 15 23 16 12 18 13 19 14 20 15 21 16 22 17 23 18 24
REMARK SMILES IDX 19 25
REMARK H PARENT 7 5 23 17
REMARK Flexibility Score: inf
ROOT
ATOM      1  C   UNL     1      92.325  94.439  76.192  1.00  0.00     0.010 C 
ENDROOT
BRANCH   1   2
ATOM      2  C   UNL     1      93.385  94.347  75.064  1.00  0.00     0.100 C 
BRANCH   2   3
ATOM      3  C   UNL     1      94.775  94.503  75.532  1.00  0.00     0.220 C 
ATOM      4  N   UNL     1      95.091  95.508  76.394  1.00  0.00    -0.352 N 
ATOM      5  H   UNL     1      94.331  96.142  76.600  1.00  0.00     0.163 HD
ATOM      6  O   UNL     1      95.630  93.669  75.149  1.00  0.00    -0.275 OA
BRANCH   4   7
ATOM      7  C   UNL     1      96.368  95.713  76.997  1.00  0.00     0.151 C 
BRANCH   7   8
ATOM      8  C   UNL     1      96.403  95.288  78.420  1.00  0.00    -0.025 A 
ATOM      9  C   UNL     1      97.412  95.405  80.660  1.00  0.00     0.160 A 
ATOM     10  C   UNL     1      96.499  94.431  81.121  1.00  0.00     0.157 A 
ATOM     11  C   UNL     1      97.363  95.819  79.314  1.00  0.00     0.056 A 
ATOM     12  C   UNL     1      95.529  93.909  80.246  1.00  0.00     0.050 A 
ATOM     13  C   UNL     1      95.475  94.342  78.908  1.00  0.00     0.009 A 
BRANCH   9  14
ATOM     14  O   UNL     1      98.302  95.984  81.525  1.00  0.00    -0.493 OA
ATOM     15  C   UNL     1      97.909  97.285  81.990  1.00  0.00     0.278 C 
ENDBRANCH   9  14
BRANCH  10  16
ATOM     16  O   UNL     1      96.531  93.985  82.402  1.00  0.00    -0.504 OA
ATOM     17  H   UNL     1      97.388  93.589  82.581  1.00  0.00     0.293 HD
ENDBRANCH  10  16
ENDBRANCH   7   8
ENDBRANCH   4   7
ENDBRANCH   2   3
ENDBRANCH   1   2
BRANCH   1  18
ATOM     18  C   UNL     1      92.510  93.300  77.228  1.00  0.00     0.001 C 
BRANCH  18  19
ATOM     19  C   UNL     1      91.189  92.587  77.612  1.00  0.00     0.004 C 
BRANCH  19  20
ATOM     20  C   UNL     1      90.167  92.618  76.442  1.00  0.00     0.027 C 
BRANCH  20  21
ATOM     21  C   UNL     1      90.202  91.431  75.604  1.00  0.00    -0.031 C 
ATOM     22  C   UNL     1      90.447  90.206  76.102  1.00  0.00    -0.028 C 
BRANCH  22  23
ATOM     23  C   UNL     1      90.483  88.994  75.287  1.00  0.00     0.005 C 
ATOM     24  C   UNL     1      90.942  87.784  76.144  1.00  0.00     0.012 C 
ATOM     25  C   UNL     1      89.102  88.754  74.620  1.00  0.00     0.012 C 
ENDBRANCH  22  23
ENDBRANCH  20  21
ENDBRANCH  19  20
ENDBRANCH  18  19
ENDBRANCH   1  18
TORSDOF 11
ENDMDL
MODEL 2
REMARK VINA RESULT:    -6.443      1.714      2.752
REMARK INTER + INTRA:         -11.510
REMARK INTER:                 -10.404
REMARK INTRA:                  -1.106
REMARK UNBOUND:                -1.113
REMARK SMILES COc1cc(CNC(=O)CCCCC/C=C/C(C)C)ccc1O
REMARK SMILES IDX 11 1 10 2 8 3 7 4 9 6 6 7 5 8 3 9 22 10 4 11 21 12 20 13
REMARK SMILES IDX 2 14 1 15 23 16 12 18 13 19 14 20 15 21 16 22 17 23 18 24
REMARK SMILES IDX 19 25
REMARK H PARENT 7 5 23 17
REMARK Flexibility Score: inf
ROOT
ATOM      1  C   UNL     1      91.350  93.780  76.591  1.00  0.00     0.010 C 
ENDROOT
BRANCH   1   2
ATOM      2  C   UNL     1      92.417  93.478  75.507  1.00  0.00     0.100 C 
BRANCH   2   3
ATOM      3  C   UNL     1      93.589  94.371  75.552  1.00  0.00     0.220 C 
ATOM      4  N   UNL     1      94.694  94.005  76.259  1.00  0.00    -0.352 N 
ATOM      5  H   UNL     1      94.595  93.145  76.780  1.00  0.00     0.163 HD
ATOM      6  O   UNL     1      93.550  95.439  74.896  1.00  0.00    -0.275 OA
BRANCH   4   7
ATOM      7  C   UNL     1      95.924  94.726  76.307  1.00  0.00     0.151 C 
BRANCH   7   8
ATOM      8  C   UNL     1      96.267  95.181  77.680  1.00  0.00    -0.025 A 
ATOM      9  C   UNL     1      95.802  95.225  80.094  1.00  0.00     0.160 A 
ATOM     10  C   UNL     1      96.896  96.097  80.288  1.00  0.00     0.157 A 
ATOM     11  C   UNL     1      95.491  94.781  78.793  1.00  0.00     0.056 A 
ATOM     12  C   UNL     1      97.685  96.487  79.191  1.00  0.00     0.050 A 
ATOM     13  C   UNL     1      97.380  96.024  77.897  1.00  0.00     0.009 A 
BRANCH   9  14
ATOM     14  O   UNL     1      95.082  94.769  81.166  1.00  0.00    -0.493 OA
ATOM     15  C   UNL     1      95.620  93.584  81.776  1.00  0.00     0.278 C 
ENDBRANCH   9  14
BRANCH  10  16
ATOM     16  O   UNL     1      97.212  96.569  81.520  1.00  0.00    -0.504 OA
ATOM     17  H   UNL     1      96.535  96.303  82.147  1.00  0.00     0.293 HD
ENDBRANCH  10  16
ENDBRANCH   7   8
ENDBRANCH   4   7
ENDBRANCH   2   3
ENDBRANCH   1   2
BRANCH   1  18
ATOM     18  C   UNL     1      91.140  92.561  77.525  1.00  0.00     0.001 C 
BRANCH  18  19
ATOM     19  C   UNL     1      89.706  91.977  77.474  1.00  0.00     0.004 C 
BRANCH  19  20
ATOM     20  C   UNL     1      89.643  90.705  76.582  1.00  0.00     0.027 C 
BRANCH  20  21
ATOM     21  C   UNL     1      88.972  90.915  75.311  1.00  0.00    -0.031 C 
ATOM     22  C   UNL     1      89.564  91.545  74.281  1.00  0.00    -0.028 C 
BRANCH  22  23
ATOM     23  C   UNL     1      88.919  91.767  72.989  1.00  0.00     0.005 C 
ATOM     24  C   UNL     1      89.411  93.099  72.364  1.00  0.00     0.012 C 
ATOM     25  C   UNL     1      89.161  90.552  72.052  1.00  0.00     0.012 C 
ENDBRANCH  22  23
ENDBRANCH  20  21
ENDBRANCH  19  20
ENDBRANCH  18  19
ENDBRANCH   1  18
TORSDOF 11
ENDMDL
MODEL 3
REMARK VINA RESULT:    -6.410      1.820      2.365
REMARK INTER + INTRA:         -11.458
REMARK INTER:                 -10.518
REMARK INTRA:                  -0.941
REMARK UNBOUND:                -1.113
REMARK SMILES COc1cc(CNC(=O)CCCCC/C=C/C(C)C)ccc1O
REMARK SMILES IDX 11 1 10 2 8 3 7 4 9 6 6 7 5 8 3 9 22 10 4 11 21 12 20 13
REMARK SMILES IDX 2 14 1 15 23 16 12 18 13 19 14 20 15 21 16 22 17 23 18 24
REMARK SMILES IDX 19 25
REMARK H PARENT 7 5 23 17
REMARK Flexibility Score: inf
ROOT
ATOM      1  C   UNL     1      91.808  94.465  76.269  1.00  0.00     0.010 C 
ENDROOT
BRANCH   1   2
ATOM      2  C   UNL     1      93.030  94.318  75.325  1.00  0.00     0.100 C 
BRANCH   2   3
ATOM      3  C   UNL     1      94.289  94.842  75.886  1.00  0.00     0.220 C 
ATOM      4  N   UNL     1      94.937  94.147  76.862  1.00  0.00    -0.352 N 
ATOM      5  H   UNL     1      94.447  93.327  77.191  1.00  0.00     0.163 HD
ATOM      6  O   UNL     1      94.754  95.906  75.414  1.00  0.00    -0.275 OA
BRANCH   4   7
ATOM      7  C   UNL     1      96.205  94.489  77.420  1.00  0.00     0.151 C 
BRANCH   7   8
ATOM      8  C   UNL     1      96.113  94.878  78.852  1.00  0.00    -0.025 A 
ATOM      9  C   UNL     1      96.416  96.542  80.636  1.00  0.00     0.160 A 
ATOM     10  C   UNL     1      95.987  95.595  81.592  1.00  0.00     0.157 A 
ATOM     11  C   UNL     1      96.484  96.175  79.277  1.00  0.00     0.056 A 
ATOM     12  C   UNL     1      95.600  94.307  81.178  1.00  0.00     0.050 A 
ATOM     13  C   UNL     1      95.652  93.954  79.816  1.00  0.00     0.009 A 
BRANCH   9  14
ATOM     14  O   UNL     1      96.711  97.825  81.017  1.00  0.00    -0.493 OA
ATOM     15  C   UNL     1      98.028  98.260  80.642  1.00  0.00     0.278 C 
ENDBRANCH   9  14
BRANCH  10  16
ATOM     16  O   UNL     1      95.934  95.900  82.912  1.00  0.00    -0.504 OA
ATOM     17  H   UNL     1      96.319  96.768  83.055  1.00  0.00     0.293 HD
ENDBRANCH  10  16
ENDBRANCH   7   8
ENDBRANCH   4   7
ENDBRANCH   2   3
ENDBRANCH   1   2
BRANCH   1  18
ATOM     18  C   UNL     1      91.784  93.336  77.331  1.00  0.00     0.001 C 
BRANCH  18  19
ATOM     19  C   UNL     1      90.620  92.330  77.145  1.00  0.00     0.004 C 
BRANCH  19  20
ATOM     20  C   UNL     1      91.028  91.158  76.209  1.00  0.00     0.027 C 
BRANCH  20  21
ATOM     21  C   UNL     1      90.306  91.139  74.948  1.00  0.00    -0.031 C 
ATOM     22  C   UNL     1      90.396  92.137  74.052  1.00  0.00    -0.028 C 
BRANCH  22  23
ATOM     23  C   UNL     1      89.687  92.145  72.775  1.00  0.00     0.005 C 
ATOM     24  C   UNL     1      89.406  93.603  72.324  1.00  0.00     0.012 C 
ATOM     25  C   UNL     1      90.487  91.343  71.713  1.00  0.00     0.012 C 
ENDBRANCH  22  23
ENDBRANCH  20  21
ENDBRANCH  19  20
ENDBRANCH  18  19
ENDBRANCH   1  18
TORSDOF 11
ENDMDL
MODEL 4
REMARK VINA RESULT:    -5.963      5.423      8.425
REMARK INTER + INTRA:         -10.736
REMARK INTER:                  -9.845
REMARK INTRA:                  -0.891
REMARK UNBOUND:                -1.113
REMARK SMILES COc1cc(CNC(=O)CCCCC/C=C/C(C)C)ccc1O
REMARK SMILES IDX 11 1 10 2 8 3 7 4 9 6 6 7 5 8 3 9 22 10 4 11 21 12 20 13
REMARK SMILES IDX 2 14 1 15 23 16 12 18 13 19 14 20 15 21 16 22 17 23 18 24
REMARK SMILES IDX 19 25
REMARK H PARENT 7 5 23 17
REMARK Flexibility Score: inf
ROOT
ATOM      1  C   UNL     1      93.499  97.811  72.339  1.00  0.00     0.010 C 
ENDROOT
BRANCH   1   2
ATOM      2  C   UNL     1      94.670  98.292  73.234  1.00  0.00     0.100 C 
BRANCH   2   3
ATOM      3  C   UNL     1      94.969  97.393  74.365  1.00  0.00     0.220 C 
ATOM      4  N   UNL     1      94.236  96.259  74.542  1.00  0.00    -0.352 N 
ATOM      5  H   UNL     1      93.463  96.152  73.899  1.00  0.00     0.163 HD
ATOM      6  O   UNL     1      95.929  97.683  75.118  1.00  0.00    -0.275 OA
BRANCH   4   7
ATOM      7  C   UNL     1      94.479  95.260  75.531  1.00  0.00     0.151 C 
BRANCH   7   8
ATOM      8  C   UNL     1      93.265  94.466  75.853  1.00  0.00    -0.025 A 
ATOM      9  C   UNL     1      91.095  93.518  75.190  1.00  0.00     0.160 A 
ATOM     10  C   UNL     1      90.927  92.996  76.491  1.00  0.00     0.157 A 
ATOM     11  C   UNL     1      92.257  94.256  74.884  1.00  0.00     0.056 A 
ATOM     12  C   UNL     1      91.932  93.184  77.458  1.00  0.00     0.050 A 
ATOM     13  C   UNL     1      93.097  93.905  77.138  1.00  0.00     0.009 A 
BRANCH   9  14
ATOM     14  O   UNL     1      90.165  93.266  74.217  1.00  0.00    -0.493 OA
ATOM     15  C   UNL     1      90.611  92.354  73.200  1.00  0.00     0.278 C 
ENDBRANCH   9  14
BRANCH  10  16
ATOM     16  O   UNL     1      89.811  92.305  76.834  1.00  0.00    -0.504 OA
ATOM     17  H   UNL     1      89.113  92.921  77.068  1.00  0.00     0.293 HD
ENDBRANCH  10  16
ENDBRANCH   7   8
ENDBRANCH   4   7
ENDBRANCH   2   3
ENDBRANCH   1   2
BRANCH   1  18
ATOM     18  C   UNL     1      93.458  98.595  71.002  1.00  0.00     0.001 C 
BRANCH  18  19
ATOM     19  C   UNL     1      92.890 100.030  71.138  1.00  0.00     0.004 C 
BRANCH  19  20
ATOM     20  C   UNL     1      91.745 100.286  70.119  1.00  0.00     0.027 C 
BRANCH  20  21
ATOM     21  C   UNL     1      91.498  99.168  69.225  1.00  0.00    -0.031 C 
ATOM     22  C   UNL     1      90.340  99.023  68.557  1.00  0.00    -0.028 C 
BRANCH  22  23
ATOM     23  C   UNL     1      90.063  97.914  67.648  1.00  0.00     0.005 C 
ATOM     24  C   UNL     1      90.355  98.335  66.183  1.00  0.00     0.012 C 
ATOM     25  C   UNL     1      90.870  96.657  68.072  1.00  0.00     0.012 C 
ENDBRANCH  22  23
ENDBRANCH  20  21
ENDBRANCH  19  20
ENDBRANCH  18  19
ENDBRANCH   1  18
TORSDOF 11
ENDMDL
MODEL 5
REMARK VINA RESULT:    -5.853      4.395      9.300
REMARK INTER + INTRA:         -10.559
REMARK INTER:                  -9.677
REMARK INTRA:                  -0.882
REMARK UNBOUND:                -1.113
REMARK SMILES COc1cc(CNC(=O)CCCCC/C=C/C(C)C)ccc1O
REMARK SMILES IDX 11 1 10 2 8 3 7 4 9 6 6 7 5 8 3 9 22 10 4 11 21 12 20 13
REMARK SMILES IDX 2 14 1 15 23 16 12 18 13 19 14 20 15 21 16 22 17 23 18 24
REMARK SMILES IDX 19 25
REMARK H PARENT 7 5 23 17
REMARK Flexibility Score: inf
ROOT
ATOM      1  C   UNL     1      96.251  95.888  75.200  1.00  0.00     0.010 C 
ENDROOT
BRANCH   1   2
ATOM      2  C   UNL     1      95.887  94.404  74.939  1.00  0.00     0.100 C 
BRANCH   2   3
ATOM      3  C   UNL     1      94.818  93.885  75.813  1.00  0.00     0.220 C 
ATOM      4  N   UNL     1      93.598  93.585  75.287  1.00  0.00    -0.352 N 
ATOM      5  H   UNL     1      93.492  93.818  74.310  1.00  0.00     0.163 HD
ATOM      6  O   UNL     1      95.080  93.694  77.024  1.00  0.00    -0.275 OA
BRANCH   4   7
ATOM      7  C   UNL     1      92.513  92.989  75.997  1.00  0.00     0.151 C 
BRANCH   7   8
ATOM      8  C   UNL     1      91.387  92.610  75.105  1.00  0.00    -0.025 A 
ATOM      9  C   UNL     1      89.511  91.120  74.549  1.00  0.00     0.160 A 
ATOM     10  C   UNL     1      89.272  91.861  73.371  1.00  0.00     0.157 A 
ATOM     11  C   UNL     1      90.570  91.494  75.401  1.00  0.00     0.056 A 
ATOM     12  C   UNL     1      90.067  92.984  73.076  1.00  0.00     0.050 A 
ATOM     13  C   UNL     1      91.110  93.362  73.942  1.00  0.00     0.009 A 
BRANCH   9  14
ATOM     14  O   UNL     1      88.688  90.079  74.891  1.00  0.00    -0.493 OA
ATOM     15  C   UNL     1      89.258  88.780  74.662  1.00  0.00     0.278 C 
ENDBRANCH   9  14
BRANCH  10  16
ATOM     16  O   UNL     1      88.281  91.518  72.511  1.00  0.00    -0.504 OA
ATOM     17  H   UNL     1      87.469  91.370  73.001  1.00  0.00     0.293 HD
ENDBRANCH  10  16
ENDBRANCH   7   8
ENDBRANCH   4   7
ENDBRANCH   2   3
ENDBRANCH   1   2
BRANCH   1  18
ATOM     18  C   UNL     1      95.361  96.838  74.359  1.00  0.00     0.001 C 
BRANCH  18  19
ATOM     19  C   UNL     1      96.064  97.393  73.094  1.00  0.00     0.004 C 
BRANCH  19  20
ATOM     20  C   UNL     1      97.586  97.076  73.106  1.00  0.00     0.027 C 
BRANCH  20  21
ATOM     21  C   UNL     1      98.132  96.785  71.791  1.00  0.00    -0.031 C 
ATOM     22  C   UNL     1      97.454  96.075  70.872  1.00  0.00    -0.028 C 
BRANCH  22  23
ATOM     23  C   UNL     1      97.973  95.770  69.541  1.00  0.00     0.005 C 
ATOM     24  C   UNL     1      97.360  96.734  68.491  1.00  0.00     0.012 C 
ATOM     25  C   UNL     1      99.525  95.814  69.547  1.00  0.00     0.012 C 
ENDBRANCH  22  23
ENDBRANCH  20  21
ENDBRANCH  19  20
ENDBRANCH  18  19
ENDBRANCH   1  18
TORSDOF 11
ENDMDL
MODEL 6
REMARK VINA RESULT:    -5.683     22.936     27.285
REMARK INTER + INTRA:         -10.285
REMARK INTER:                  -9.420
REMARK INTRA:                  -0.865
REMARK UNBOUND:                -1.113
REMARK SMILES COc1cc(CNC(=O)CCCCC/C=C/C(C)C)ccc1O
REMARK SMILES IDX 11 1 10 2 8 3 7 4 9 6 6 7 5 8 3 9 22 10 4 11 21 12 20 13
REMARK SMILES IDX 2 14 1 15 23 16 12 18 13 19 14 20 15 21 16 22 17 23 18 24
REMARK SMILES IDX 19 25
REMARK H PARENT 7 5 23 17
REMARK Flexibility Score: inf
ROOT
ATOM      1  C   UNL     1      83.327  69.042  71.478  1.00  0.00     0.010 C 
ENDROOT
BRANCH   1   2
ATOM      2  C   UNL     1      84.401  68.477  72.444  1.00  0.00     0.100 C 
BRANCH   2   3
ATOM      3  C   UNL     1      85.667  69.232  72.441  1.00  0.00     0.220 C 
ATOM      4  N   UNL     1      86.614  68.965  71.500  1.00  0.00    -0.352 N 
ATOM      5  H   UNL     1      86.396  68.186  70.893  1.00  0.00     0.163 HD
ATOM      6  O   UNL     1      85.822  70.140  73.293  1.00  0.00    -0.275 OA
BRANCH   4   7
ATOM      7  C   UNL     1      87.835  69.681  71.324  1.00  0.00     0.151 C 
BRANCH   7   8
ATOM      8  C   UNL     1      87.816  70.558  70.124  1.00  0.00    -0.025 A 
ATOM      9  C   UNL     1      88.793  72.385  68.798  1.00  0.00     0.160 A 
ATOM     10  C   UNL     1      87.743  72.264  67.861  1.00  0.00     0.157 A 
ATOM     11  C   UNL     1      88.816  71.539  69.926  1.00  0.00     0.056 A 
ATOM     12  C   UNL     1      86.753  71.282  68.040  1.00  0.00     0.050 A 
ATOM     13  C   UNL     1      86.794  70.428  69.158  1.00  0.00     0.009 A 
BRANCH   9  14
ATOM     14  O   UNL     1      89.809  73.279  68.588  1.00  0.00    -0.493 OA
ATOM     15  C   UNL     1      90.899  73.158  69.518  1.00  0.00     0.278 C 
ENDBRANCH   9  14
BRANCH  10  16
ATOM     16  O   UNL     1      87.668  73.078  66.778  1.00  0.00    -0.504 OA
ATOM     17  H   UNL     1      88.370  73.733  66.821  1.00  0.00     0.293 HD
ENDBRANCH  10  16
ENDBRANCH   7   8
ENDBRANCH   4   7
ENDBRANCH   2   3
ENDBRANCH   1   2
BRANCH   1  18
ATOM     18  C   UNL     1      82.531  67.899  70.798  1.00  0.00     0.001 C 
BRANCH  18  19
ATOM     19  C   UNL     1      81.052  67.814  71.253  1.00  0.00     0.004 C 
BRANCH  19  20
ATOM     20  C   UNL     1      80.412  66.456  70.850  1.00  0.00     0.027 C 
BRANCH  20  21
ATOM     21  C   UNL     1      80.207  65.552  71.969  1.00  0.00    -0.031 C 
ATOM     22  C   UNL     1      80.842  65.707  73.144  1.00  0.00    -0.028 C 
BRANCH  22  23
ATOM     23  C   UNL     1      80.654  64.820  74.289  1.00  0.00     0.005 C 
ATOM     24  C   UNL     1      79.852  63.560  73.867  1.00  0.00     0.012 C 
ATOM     25  C   UNL     1      82.026  64.461  74.921  1.00  0.00     0.012 C 
ENDBRANCH  22  23
ENDBRANCH  20  21
ENDBRANCH  19  20
ENDBRANCH  18  19
ENDBRANCH   1  18
TORSDOF 11
ENDMDL
MODEL 7
REMARK VINA RESULT:    -5.671     27.470     30.028
REMARK INTER + INTRA:         -10.265
REMARK INTER:                  -9.352
REMARK INTRA:                  -0.913
REMARK UNBOUND:                -1.113
REMARK SMILES COc1cc(CNC(=O)CCCCC/C=C/C(C)C)ccc1O
REMARK SMILES IDX 11 1 10 2 8 3 7 4 9 6 6 7 5 8 3 9 22 10 4 11 21 12 20 13
REMARK SMILES IDX 2 14 1 15 23 16 12 18 13 19 14 20 15 21 16 22 17 23 18 24
REMARK SMILES IDX 19 25
REMARK H PARENT 7 5 23 17
REMARK Flexibility Score: inf
ROOT
ATOM      1  C   UNL     1      81.935  65.866  75.992  1.00  0.00     0.010 C 
ENDROOT
BRANCH   1   2
ATOM      2  C   UNL     1      82.478  64.431  75.768  1.00  0.00     0.100 C 
BRANCH   2   3
ATOM      3  C   UNL     1      83.802  64.189  76.371  1.00  0.00     0.220 C 
ATOM      4  N   UNL     1      83.899  63.484  77.532  1.00  0.00    -0.352 N 
ATOM      5  H   UNL     1      83.013  63.231  77.947  1.00  0.00     0.163 HD
ATOM      6  O   UNL     1      84.817  64.610  75.768  1.00  0.00    -0.275 OA
BRANCH   4   7
ATOM      7  C   UNL     1      85.116  63.097  78.168  1.00  0.00     0.151 C 
BRANCH   7   8
ATOM      8  C   UNL     1      85.432  63.933  79.356  1.00  0.00    -0.025 A 
ATOM      9  C   UNL     1      86.431  65.953  80.342  1.00  0.00     0.160 A 
ATOM     10  C   UNL     1      86.078  65.497  81.631  1.00  0.00     0.157 A 
ATOM     11  C   UNL     1      86.113  65.165  79.216  1.00  0.00     0.056 A 
ATOM     12  C   UNL     1      85.386  64.281  81.780  1.00  0.00     0.050 A 
ATOM     13  C   UNL     1      85.055  63.510  80.650  1.00  0.00     0.009 A 
BRANCH   9  14
ATOM     14  O   UNL     1      87.027  67.175  80.179  1.00  0.00    -0.493 OA
ATOM     15  C   UNL     1      88.441  67.111  79.927  1.00  0.00     0.278 C 
ENDBRANCH   9  14
BRANCH  10  16
ATOM     16  O   UNL     1      86.391  66.211  82.741  1.00  0.00    -0.504 OA
ATOM     17  H   UNL     1      85.883  67.026  82.749  1.00  0.00     0.293 HD
ENDBRANCH  10  16
ENDBRANCH   7   8
ENDBRANCH   4   7
ENDBRANCH   2   3
ENDBRANCH   1   2
BRANCH   1  18
ATOM     18  C   UNL     1      80.839  66.218  74.954  1.00  0.00     0.001 C 
BRANCH  18  19
ATOM     19  C   UNL     1      80.441  65.031  74.041  1.00  0.00     0.004 C 
BRANCH  19  20
ATOM     20  C   UNL     1      80.111  65.509  72.600  1.00  0.00     0.027 C 
BRANCH  20  21
ATOM     21  C   UNL     1      81.250  66.076  71.897  1.00  0.00    -0.031 C 
ATOM     22  C   UNL     1      81.287  67.364  71.510  1.00  0.00    -0.028 C 
BRANCH  22  23
ATOM     23  C   UNL     1      82.418  67.965  70.808  1.00  0.00     0.005 C 
ATOM     24  C   UNL     1      83.091  69.045  71.696  1.00  0.00     0.012 C 
ATOM     25  C   UNL     1      83.418  66.864  70.359  1.00  0.00     0.012 C 
ENDBRANCH  22  23
ENDBRANCH  20  21
ENDBRANCH  19  20
ENDBRANCH  18  19
ENDBRANCH   1  18
TORSDOF 11
ENDMDL
MODEL 8
REMARK VINA RESULT:    -5.645      4.985      6.587
REMARK INTER + INTRA:         -10.223
REMARK INTER:                  -9.612
REMARK INTRA:                  -0.611
REMARK UNBOUND:                -1.113
REMARK SMILES COc1cc(CNC(=O)CCCCC/C=C/C(C)C)ccc1O
REMARK SMILES IDX 11 1 10 2 8 3 7 4 9 6 6 7 5 8 3 9 22 10 4 11 21 12 20 13
REMARK SMILES IDX 2 14 1 15 23 16 12 18 13 19 14 20 15 21 16 22 17 23 18 24
REMARK SMILES IDX 19 25
REMARK H PARENT 7 5 23 17
REMARK Flexibility Score: inf
ROOT
ATOM      1  C   UNL     1      94.551  98.138  72.855  1.00  0.00     0.010 C 
ENDROOT
BRANCH   1   2
ATOM      2  C   UNL     1      94.230  97.098  73.959  1.00  0.00     0.100 C 
BRANCH   2   3
ATOM      3  C   UNL     1      95.312  96.914  74.943  1.00  0.00     0.220 C 
ATOM      4  N   UNL     1      95.660  95.659  75.341  1.00  0.00    -0.352 N 
ATOM      5  H   UNL     1      95.077  94.922  74.970  1.00  0.00     0.163 HD
ATOM      6  O   UNL     1      95.917  97.930  75.361  1.00  0.00    -0.275 OA
BRANCH   4   7
ATOM      7  C   UNL     1      96.747  95.335  76.208  1.00  0.00     0.151 C 
BRANCH   7   8
ATOM      8  C   UNL     1      96.327  95.209  77.628  1.00  0.00    -0.025 A 
ATOM      9  C   UNL     1      96.576  95.837  79.993  1.00  0.00     0.160 A 
ATOM     10  C   UNL     1      95.559  94.922  80.342  1.00  0.00     0.157 A 
ATOM     11  C   UNL     1      96.959  95.966  78.642  1.00  0.00     0.056 A 
ATOM     12  C   UNL     1      94.912  94.176  79.340  1.00  0.00     0.050 A 
ATOM     13  C   UNL     1      95.286  94.326  77.991  1.00  0.00     0.009 A 
BRANCH   9  14
ATOM     14  O   UNL     1      97.151  96.632  80.949  1.00  0.00    -0.493 OA
ATOM     15  C   UNL     1      96.604  97.959  81.016  1.00  0.00     0.278 C 
ENDBRANCH   9  14
BRANCH  10  16
ATOM     16  O   UNL     1      95.181  94.747  81.633  1.00  0.00    -0.504 OA
ATOM     17  H   UNL     1      94.349  94.268  81.660  1.00  0.00     0.293 HD
ENDBRANCH  10  16
ENDBRANCH   7   8
ENDBRANCH   4   7
ENDBRANCH   2   3
ENDBRANCH   1   2
BRANCH   1  18
ATOM     18  C   UNL     1      93.254  98.760  72.277  1.00  0.00     0.001 C 
BRANCH  18  19
ATOM     19  C   UNL     1      93.206  98.776  70.728  1.00  0.00     0.004 C 
BRANCH  19  20
ATOM     20  C   UNL     1      92.072  99.701  70.205  1.00  0.00     0.027 C 
BRANCH  20  21
ATOM     21  C   UNL     1      90.965  98.981  69.598  1.00  0.00    -0.031 C 
ATOM     22  C   UNL     1      91.013  98.522  68.335  1.00  0.00    -0.028 C 
BRANCH  22  23
ATOM     23  C   UNL     1      89.920  97.792  67.697  1.00  0.00     0.005 C 
ATOM     24  C   UNL     1      89.528  98.471  66.358  1.00  0.00     0.012 C 
ATOM     25  C   UNL     1      90.309  96.300  67.510  1.00  0.00     0.012 C 
ENDBRANCH  22  23
ENDBRANCH  20  21
ENDBRANCH  19  20
ENDBRANCH  18  19
ENDBRANCH   1  18
TORSDOF 11
ENDMDL
MODEL 9
REMARK VINA RESULT:    -5.607     14.618     17.206
REMARK INTER + INTRA:         -10.161
REMARK INTER:                  -8.980
REMARK INTRA:                  -1.181
REMARK UNBOUND:                -1.113
REMARK SMILES COc1cc(CNC(=O)CCCCC/C=C/C(C)C)ccc1O
REMARK SMILES IDX 11 1 10 2 8 3 7 4 9 6 6 7 5 8 3 9 22 10 4 11 21 12 20 13
REMARK SMILES IDX 2 14 1 15 23 16 12 18 13 19 14 20 15 21 16 22 17 23 18 24
REMARK SMILES IDX 19 25
REMARK H PARENT 7 5 23 17
REMARK Flexibility Score: inf
ROOT
ATOM      1  C   UNL     1      85.300  90.258  85.502  1.00  0.00     0.010 C 
ENDROOT
BRANCH   1   2
ATOM      2  C   UNL     1      84.153  90.421  84.472  1.00  0.00     0.100 C 
BRANCH   2   3
ATOM      3  C   UNL     1      83.016  89.507  84.690  1.00  0.00     0.220 C 
ATOM      4  N   UNL     1      81.767  90.013  84.880  1.00  0.00    -0.352 N 
ATOM      5  H   UNL     1      81.724  91.022  84.931  1.00  0.00     0.163 HD
ATOM      6  O   UNL     1      83.229  88.272  84.653  1.00  0.00    -0.275 OA
BRANCH   4   7
ATOM      7  C   UNL     1      80.571  89.245  85.005  1.00  0.00     0.151 C 
BRANCH   7   8
ATOM      8  C   UNL     1      80.510  88.485  86.280  1.00  0.00    -0.025 A 
ATOM      9  C   UNL     1      80.663  88.413  88.734  1.00  0.00     0.160 A 
ATOM     10  C   UNL     1      80.445  87.019  88.706  1.00  0.00     0.157 A 
ATOM     11  C   UNL     1      80.702  89.134  87.523  1.00  0.00     0.056 A 
ATOM     12  C   UNL     1      80.235  86.366  87.477  1.00  0.00     0.050 A 
ATOM     13  C   UNL     1      80.257  87.095  86.274  1.00  0.00     0.009 A 
BRANCH   9  14
ATOM     14  O   UNL     1      80.780  89.072  89.929  1.00  0.00    -0.493 OA
ATOM     15  C   UNL     1      79.579  89.735  90.356  1.00  0.00     0.278 C 
ENDBRANCH   9  14
BRANCH  10  16
ATOM     16  O   UNL     1      80.428  86.285  89.847  1.00  0.00    -0.504 OA
ATOM     17  H   UNL     1      80.459  85.351  89.626  1.00  0.00     0.293 HD
ENDBRANCH  10  16
ENDBRANCH   7   8
ENDBRANCH   4   7
ENDBRANCH   2   3
ENDBRANCH   1   2
BRANCH   1  18
ATOM     18  C   UNL     1      84.810  90.570  86.939  1.00  0.00     0.001 C 
BRANCH  18  19
ATOM     19  C   UNL     1      83.982  91.875  87.045  1.00  0.00     0.004 C 
BRANCH  19  20
ATOM     20  C   UNL     1      83.128  91.901  88.344  1.00  0.00     0.027 C 
BRANCH  20  21
ATOM     21  C   UNL     1      82.391  93.138  88.534  1.00  0.00    -0.031 C 
ATOM     22  C   UNL     1      82.994  94.340  88.550  1.00  0.00    -0.028 C 
BRANCH  22  23
ATOM     23  C   UNL     1      82.281  95.601  88.733  1.00  0.00     0.005 C 
ATOM     24  C   UNL     1      82.123  96.332  87.374  1.00  0.00     0.012 C 
ATOM     25  C   UNL     1      80.916  95.350  89.430  1.00  0.00     0.012 C 
ENDBRANCH  22  23
ENDBRANCH  20  21
ENDBRANCH  19  20
ENDBRANCH  18  19
ENDBRANCH   1  18
TORSDOF 11
ENDMDL
MODEL 10
REMARK VINA RESULT:    -5.575      4.544      8.299
REMARK INTER + INTRA:         -10.110
REMARK INTER:                  -9.382
REMARK INTRA:                  -0.728
REMARK UNBOUND:                -1.113
REMARK SMILES COc1cc(CNC(=O)CCCCC/C=C/C(C)C)ccc1O
REMARK SMILES IDX 11 1 10 2 8 3 7 4 9 6 6 7 5 8 3 9 22 10 4 11 21 12 20 13
REMARK SMILES IDX 2 14 1 15 23 16 12 18 13 19 14 20 15 21 16 22 17 23 18 24
REMARK SMILES IDX 19 25
REMARK H PARENT 7 5 23 17
REMARK Flexibility Score: inf
ROOT
ATOM      1  C   UNL     1      96.702  97.829  74.244  1.00  0.00     0.010 C 
ENDROOT
BRANCH   1   2
ATOM      2  C   UNL     1      95.716  97.378  75.353  1.00  0.00     0.100 C 
BRANCH   2   3
ATOM      3  C   UNL     1      95.719  95.925  75.604  1.00  0.00     0.220 C 
ATOM      4  N   UNL     1      94.623  95.180  75.287  1.00  0.00    -0.352 N 
ATOM      5  H   UNL     1      93.831  95.715  74.957  1.00  0.00     0.163 HD
ATOM      6  O   UNL     1      96.759  95.403  76.070  1.00  0.00    -0.275 OA
BRANCH   4   7
ATOM      7  C   UNL     1      94.528  93.760  75.387  1.00  0.00     0.151 C 
BRANCH   7   8
ATOM      8  C   UNL     1      93.151  93.300  75.703  1.00  0.00    -0.025 A 
ATOM      9  C   UNL     1      91.050  92.221  75.018  1.00  0.00     0.160 A 
ATOM     10  C   UNL     1      90.505  92.472  76.296  1.00  0.00     0.157 A 
ATOM     11  C   UNL     1      92.363  92.644  74.728  1.00  0.00     0.056 A 
ATOM     12  C   UNL     1      91.286  93.108  77.279  1.00  0.00     0.050 A 
ATOM     13  C   UNL     1      92.603  93.510  76.988  1.00  0.00     0.009 A 
BRANCH   9  14
ATOM     14  O   UNL     1      90.330  91.525  74.083  1.00  0.00    -0.493 OA
ATOM     15  C   UNL     1      90.260  92.166  72.799  1.00  0.00     0.278 C 
ENDBRANCH   9  14
BRANCH  10  16
ATOM     16  O   UNL     1      89.236  92.107  76.606  1.00  0.00    -0.504 OA
ATOM     17  H   UNL     1      88.840  92.775  77.171  1.00  0.00     0.293 HD
ENDBRANCH  10  16
ENDBRANCH   7   8
ENDBRANCH   4   7
ENDBRANCH   2   3
ENDBRANCH   1   2
BRANCH   1  18
ATOM     18  C   UNL     1      96.173  97.448  72.837  1.00  0.00     0.001 C 
BRANCH  18  19
ATOM     19  C   UNL     1      94.714  97.899  72.577  1.00  0.00     0.004 C 
BRANCH  19  20
ATOM     20  C   UNL     1      94.561  98.542  71.170  1.00  0.00     0.027 C 
BRANCH  20  21
ATOM     21  C   UNL     1      93.215  99.007  70.883  1.00  0.00    -0.031 C 
ATOM     22  C   UNL     1      92.514  98.569  69.822  1.00  0.00    -0.028 C 
BRANCH  22  23
ATOM     23  C   UNL     1      91.158  99.012  69.509  1.00  0.00     0.005 C 
ATOM     24  C   UNL     1      91.158  99.870  68.216  1.00  0.00     0.012 C 
ATOM     25  C   UNL     1      90.204  97.791  69.408  1.00  0.00     0.012 C 
ENDBRANCH  22  23
ENDBRANCH  20  21
ENDBRANCH  19  20
ENDBRANCH  18  19
ENDBRANCH   1  18
TORSDOF 11
ENDMDL
