MODEL 1
REMARK VINA RESULT:    -6.551      0.000      0.000
REMARK INTER + INTRA:         -10.923
REMARK INTER:                 -10.189
REMARK INTRA:                  -0.734
REMARK UNBOUND:                -0.734
REMARK SMILES COc1cc(CNC(=O)CCCC/C=C/C(C)C)ccc1O
REMARK SMILES IDX 10 1 8 2 7 3 9 5 6 6 5 7 3 8 21 9 4 10 20 11 19 12 2 13 1 14
REMARK SMILES IDX 22 15 11 17 12 18 13 19 14 20 15 21 16 22 17 23 18 24
REMARK H PARENT 7 4 22 16
REMARK Flexibility Score: inf
ROOT
ATOM      1  C   UNL     1      92.459  78.291  84.647  1.00  0.00     0.100 C 
ENDROOT
BRANCH   1   2
ATOM      2  C   UNL     1      92.067  79.679  84.960  1.00  0.00     0.220 C 
ATOM      3  N   UNL     1      90.752  80.032  85.010  1.00  0.00    -0.352 N 
ATOM      4  H   UNL     1      90.103  79.287  84.797  1.00  0.00     0.163 HD
ATOM      5  O   UNL     1      92.975  80.511  85.199  1.00  0.00    -0.275 OA
BRANCH   3   6
ATOM      6  C   UNL     1      90.269  81.336  85.334  1.00  0.00     0.151 C 
BRANCH   6   7
ATOM      7  C   UNL     1      88.993  81.637  84.628  1.00  0.00    -0.025 A 
ATOM      8  C   UNL     1      87.044  83.102  84.287  1.00  0.00     0.160 A 
ATOM      9  C   UNL     1      86.569  82.236  83.280  1.00  0.00     0.157 A 
ATOM     10  C   UNL     1      88.249  82.794  84.952  1.00  0.00     0.056 A 
ATOM     11  C   UNL     1      87.290  81.068  82.960  1.00  0.00     0.050 A 
ATOM     12  C   UNL     1      88.498  80.775  83.622  1.00  0.00     0.009 A 
BRANCH   8  13
ATOM     13  O   UNL     1      86.312  84.205  84.648  1.00  0.00    -0.493 OA
ATOM     14  C   UNL     1      86.226  84.412  86.069  1.00  0.00     0.278 C 
ENDBRANCH   8  13
BRANCH   9  15
ATOM     15  O   UNL     1      85.419  82.510  82.612  1.00  0.00    -0.504 OA
ATOM     16  H   UNL     1      84.671  82.163  83.103  1.00  0.00     0.293 HD
ENDBRANCH   9  15
ENDBRANCH   6   7
ENDBRANCH   3   6
ENDBRANCH   1   2
BRANCH   1  17
ATOM     17  C   UNL     1      91.223  77.400  84.352  1.00  0.00     0.010 C 
BRANCH  17  18
ATOM     18  C   UNL     1      91.131  76.969  82.861  1.00  0.00     0.005 C 
BRANCH  18  19
ATOM     19  C   UNL     1      91.772  75.578  82.608  1.00  0.00     0.027 C 
BRANCH  19  20
ATOM     20  C   UNL     1      91.230  74.934  81.420  1.00  0.00    -0.031 C 
ATOM     21  C   UNL     1      91.439  75.367  80.164  1.00  0.00    -0.028 C 
BRANCH  21  22
ATOM     22  C   UNL     1      90.900  74.692  78.983  1.00  0.00     0.005 C 
ATOM     23  C   UNL     1      89.624  73.867  79.306  1.00  0.00     0.012 C 
ATOM     24  C   UNL     1      90.622  75.722  77.857  1.00  0.00     0.012 C 
ENDBRANCH  21  22
ENDBRANCH  19  20
ENDBRANCH  18  19
ENDBRANCH  17  18
ENDBRANCH   1  17
TORSDOF 10
ENDMDL
MODEL 2
REMARK VINA RESULT:    -6.268      6.639      8.145
REMARK INTER + INTRA:         -10.484
REMARK INTER:                  -9.741
REMARK INTRA:                  -0.743
REMARK UNBOUND:                -0.734
REMARK SMILES COc1cc(CNC(=O)CCCC/C=C/C(C)C)ccc1O
REMARK SMILES IDX 10 1 8 2 7 3 9 5 6 6 5 7 3 8 21 9 4 10 20 11 19 12 2 13 1 14
REMARK SMILES IDX 22 15 11 17 12 18 13 19 14 20 15 21 16 22 17 23 18 24
REMARK H PARENT 7 4 22 16
REMARK Flexibility Score: inf
ROOT
ATOM      1  C   UNL     1      96.695  83.462  81.686  1.00  0.00     0.100 C 
ENDROOT
BRANCH   1   2
ATOM      2  C   UNL     1      96.289  83.000  83.027  1.00  0.00     0.220 C 
ATOM      3  N   UNL     1      95.685  81.789  83.188  1.00  0.00    -0.352 N 
ATOM      4  H   UNL     1      95.528  81.274  82.333  1.00  0.00     0.163 HD
ATOM      5  O   UNL     1      96.538  83.741  84.009  1.00  0.00    -0.275 OA
BRANCH   3   6
ATOM      6  C   UNL     1      95.284  81.238  84.443  1.00  0.00     0.151 C 
BRANCH   6   7
ATOM      7  C   UNL     1      93.807  81.073  84.520  1.00  0.00    -0.025 A 
ATOM      8  C   UNL     1      91.838  79.616  84.773  1.00  0.00     0.160 A 
ATOM      9  C   UNL     1      90.993  80.742  84.688  1.00  0.00     0.157 A 
ATOM     10  C   UNL     1      93.235  79.791  84.686  1.00  0.00     0.056 A 
ATOM     11  C   UNL     1      91.548  82.023  84.503  1.00  0.00     0.050 A 
ATOM     12  C   UNL     1      92.944  82.190  84.429  1.00  0.00     0.009 A 
BRANCH   8  13
ATOM     13  O   UNL     1      91.301  78.359  84.887  1.00  0.00    -0.493 OA
ATOM     14  C   UNL     1      91.636  77.476  83.801  1.00  0.00     0.278 C 
ENDBRANCH   8  13
BRANCH   9  15
ATOM     15  O   UNL     1      89.645  80.609  84.782  1.00  0.00    -0.504 OA
ATOM     16  H   UNL     1      89.235  80.917  83.970  1.00  0.00     0.293 HD
ENDBRANCH   9  15
ENDBRANCH   6   7
ENDBRANCH   3   6
ENDBRANCH   1   2
BRANCH   1  17
ATOM     17  C   UNL     1      97.645  82.448  80.994  1.00  0.00     0.010 C 
BRANCH  17  18
ATOM     18  C   UNL     1      97.368  82.303  79.471  1.00  0.00     0.005 C 
BRANCH  18  19
ATOM     19  C   UNL     1      96.568  83.504  78.899  1.00  0.00     0.027 C 
BRANCH  19  20
ATOM     20  C   UNL     1      96.842  83.721  77.486  1.00  0.00    -0.031 C 
ATOM     21  C   UNL     1      98.072  83.697  76.942  1.00  0.00    -0.028 C 
BRANCH  21  22
ATOM     22  C   UNL     1      98.323  83.899  75.515  1.00  0.00     0.005 C 
ATOM     23  C   UNL     1      98.863  82.616  74.825  1.00  0.00     0.012 C 
ATOM     24  C   UNL     1      97.037  84.406  74.812  1.00  0.00     0.012 C 
ENDBRANCH  21  22
ENDBRANCH  19  20
ENDBRANCH  18  19
ENDBRANCH  17  18
ENDBRANCH   1  17
TORSDOF 10
ENDMDL
MODEL 3
REMARK VINA RESULT:    -6.016     11.294     14.260
REMARK INTER + INTRA:         -10.091
REMARK INTER:                  -9.480
REMARK INTRA:                  -0.611
REMARK UNBOUND:                -0.734
REMARK SMILES COc1cc(CNC(=O)CCCC/C=C/C(C)C)ccc1O
REMARK SMILES IDX 10 1 8 2 7 3 9 5 6 6 5 7 3 8 21 9 4 10 20 11 19 12 2 13 1 14
REMARK SMILES IDX 22 15 11 17 12 18 13 19 14 20 15 21 16 22 17 23 18 24
REMARK H PARENT 7 4 22 16
REMARK Flexibility Score: inf
ROOT
ATOM      1  C   UNL     1      96.511  83.573  77.543  1.00  0.00     0.100 C 
ENDROOT
BRANCH   1   2
ATOM      2  C   UNL     1      96.662  84.378  76.315  1.00  0.00     0.220 C 
ATOM      3  N   UNL     1      97.317  83.872  75.234  1.00  0.00    -0.352 N 
ATOM      4  H   UNL     1      97.694  82.943  75.359  1.00  0.00     0.163 HD
ATOM      5  O   UNL     1      96.151  85.524  76.292  1.00  0.00    -0.275 OA
BRANCH   3   6
ATOM      6  C   UNL     1      97.489  84.555  73.991  1.00  0.00     0.151 C 
BRANCH   6   7
ATOM      7  C   UNL     1      98.402  83.811  73.080  1.00  0.00    -0.025 A 
ATOM      8  C   UNL     1     100.497  83.701  71.792  1.00  0.00     0.160 A 
ATOM      9  C   UNL     1     100.163  82.400  71.360  1.00  0.00     0.157 A 
ATOM     10  C   UNL     1      99.613  84.394  72.645  1.00  0.00     0.056 A 
ATOM     11  C   UNL     1      98.949  81.814  71.769  1.00  0.00     0.050 A 
ATOM     12  C   UNL     1      98.079  82.510  72.631  1.00  0.00     0.009 A 
BRANCH   8  13
ATOM     13  O   UNL     1     101.646  84.301  71.343  1.00  0.00    -0.493 OA
ATOM     14  C   UNL     1     101.435  85.252  70.284  1.00  0.00     0.278 C 
ENDBRANCH   8  13
BRANCH   9  15
ATOM     15  O   UNL     1     100.998  81.700  70.548  1.00  0.00    -0.504 OA
ATOM     16  H   UNL     1     100.493  81.056  70.048  1.00  0.00     0.293 HD
ENDBRANCH   9  15
ENDBRANCH   6   7
ENDBRANCH   3   6
ENDBRANCH   1   2
BRANCH   1  17
ATOM     17  C   UNL     1      97.881  83.298  78.219  1.00  0.00     0.010 C 
BRANCH  17  18
ATOM     18  C   UNL     1      97.828  83.424  79.768  1.00  0.00     0.005 C 
BRANCH  18  19
ATOM     19  C   UNL     1      97.327  82.123  80.450  1.00  0.00     0.027 C 
BRANCH  19  20
ATOM     20  C   UNL     1      96.874  82.360  81.813  1.00  0.00    -0.031 C 
ATOM     21  C   UNL     1      96.234  83.473  82.214  1.00  0.00    -0.028 C 
BRANCH  21  22
ATOM     22  C   UNL     1      95.770  83.681  83.586  1.00  0.00     0.005 C 
ATOM     23  C   UNL     1      94.602  82.728  83.964  1.00  0.00     0.012 C 
ATOM     24  C   UNL     1      96.951  83.529  84.580  1.00  0.00     0.012 C 
ENDBRANCH  21  22
ENDBRANCH  19  20
ENDBRANCH  18  19
ENDBRANCH  17  18
ENDBRANCH   1  17
TORSDOF 10
ENDMDL
MODEL 4
REMARK VINA RESULT:    -5.893      5.909     10.558
REMARK INTER + INTRA:          -9.899
REMARK INTER:                  -9.148
REMARK INTRA:                  -0.752
REMARK UNBOUND:                -0.734
REMARK SMILES COc1cc(CNC(=O)CCCC/C=C/C(C)C)ccc1O
REMARK SMILES IDX 10 1 8 2 7 3 9 5 6 6 5 7 3 8 21 9 4 10 20 11 19 12 2 13 1 14
REMARK SMILES IDX 22 15 11 17 12 18 13 19 14 20 15 21 16 22 17 23 18 24
REMARK H PARENT 7 4 22 16
REMARK Flexibility Score: inf
ROOT
ATOM      1  C   UNL     1      93.709  84.623  87.900  1.00  0.00     0.100 C 
ENDROOT
BRANCH   1   2
ATOM      2  C   UNL     1      93.536  84.225  86.490  1.00  0.00     0.220 C 
ATOM      3  N   UNL     1      93.955  83.002  86.060  1.00  0.00    -0.352 N 
ATOM      4  H   UNL     1      94.399  82.431  86.766  1.00  0.00     0.163 HD
ATOM      5  O   UNL     1      92.973  85.033  85.712  1.00  0.00    -0.275 OA
BRANCH   3   6
ATOM      6  C   UNL     1      93.805  82.511  84.727  1.00  0.00     0.151 C 
BRANCH   6   7
ATOM      7  C   UNL     1      92.688  81.533  84.628  1.00  0.00    -0.025 A 
ATOM      8  C   UNL     1      90.300  81.060  84.259  1.00  0.00     0.160 A 
ATOM      9  C   UNL     1      90.548  79.681  84.415  1.00  0.00     0.157 A 
ATOM     10  C   UNL     1      91.370  81.973  84.368  1.00  0.00     0.056 A 
ATOM     11  C   UNL     1      91.853  79.230  84.693  1.00  0.00     0.050 A 
ATOM     12  C   UNL     1      92.917  80.147  84.789  1.00  0.00     0.009 A 
BRANCH   8  13
ATOM     13  O   UNL     1      89.020  81.510  84.053  1.00  0.00    -0.493 OA
ATOM     14  C   UNL     1      88.444  82.180  85.190  1.00  0.00     0.278 C 
ENDBRANCH   8  13
BRANCH   9  15
ATOM     15  O   UNL     1      89.542  78.775  84.302  1.00  0.00    -0.504 OA
ATOM     16  H   UNL     1      89.911  77.890  84.257  1.00  0.00     0.293 HD
ENDBRANCH   9  15
ENDBRANCH   6   7
ENDBRANCH   3   6
ENDBRANCH   1   2
BRANCH   1  17
ATOM     17  C   UNL     1      93.270  86.093  88.139  1.00  0.00     0.010 C 
BRANCH  17  18
ATOM     18  C   UNL     1      93.323  86.505  89.637  1.00  0.00     0.005 C 
BRANCH  18  19
ATOM     19  C   UNL     1      92.085  87.339  90.064  1.00  0.00     0.027 C 
BRANCH  19  20
ATOM     20  C   UNL     1      92.226  88.744  89.716  1.00  0.00    -0.031 C 
ATOM     21  C   UNL     1      93.372  89.440  89.827  1.00  0.00    -0.028 C 
BRANCH  21  22
ATOM     22  C   UNL     1      93.495  90.849  89.452  1.00  0.00     0.005 C 
ATOM     23  C   UNL     1      93.792  91.031  87.937  1.00  0.00     0.012 C 
ATOM     24  C   UNL     1      92.218  91.626  89.862  1.00  0.00     0.012 C 
ENDBRANCH  21  22
ENDBRANCH  19  20
ENDBRANCH  18  19
ENDBRANCH  17  18
ENDBRANCH   1  17
TORSDOF 10
ENDMDL
MODEL 5
REMARK VINA RESULT:    -5.791     19.780     21.855
REMARK INTER + INTRA:          -9.741
REMARK INTER:                  -8.956
REMARK INTRA:                  -0.785
REMARK UNBOUND:                -0.734
REMARK SMILES COc1cc(CNC(=O)CCCC/C=C/C(C)C)ccc1O
REMARK SMILES IDX 10 1 8 2 7 3 9 5 6 6 5 7 3 8 21 9 4 10 20 11 19 12 2 13 1 14
REMARK SMILES IDX 22 15 11 17 12 18 13 19 14 20 15 21 16 22 17 23 18 24
REMARK H PARENT 7 4 22 16
REMARK Flexibility Score: inf
ROOT
ATOM      1  C   UNL     1      94.797  96.979  73.469  1.00  0.00     0.100 C 
ENDROOT
BRANCH   1   2
ATOM      2  C   UNL     1      94.689  97.999  72.409  1.00  0.00     0.220 C 
ATOM      3  N   UNL     1      93.559  98.752  72.287  1.00  0.00    -0.352 N 
ATOM      4  H   UNL     1      92.828  98.533  72.949  1.00  0.00     0.163 HD
ATOM      5  O   UNL     1      95.670  98.167  71.646  1.00  0.00    -0.275 OA
BRANCH   3   6
ATOM      6  C   UNL     1      93.368  99.784  71.318  1.00  0.00     0.151 C 
BRANCH   6   7
ATOM      7  C   UNL     1      91.934 100.165  71.203  1.00  0.00    -0.025 A 
ATOM      8  C   UNL     1      89.983 101.397  72.063  1.00  0.00     0.160 A 
ATOM      9  C   UNL     1      89.206 100.919  70.987  1.00  0.00     0.157 A 
ATOM     10  C   UNL     1      91.337 101.014  72.162  1.00  0.00     0.056 A 
ATOM     11  C   UNL     1      89.783 100.057  70.034  1.00  0.00     0.050 A 
ATOM     12  C   UNL     1      91.139  99.690  70.134  1.00  0.00     0.009 A 
BRANCH   8  13
ATOM     13  O   UNL     1      89.409 102.183  73.029  1.00  0.00    -0.493 OA
ATOM     14  C   UNL     1      90.358 102.843  73.888  1.00  0.00     0.278 C 
ENDBRANCH   8  13
BRANCH   9  15
ATOM     15  O   UNL     1      87.903 101.279  70.855  1.00  0.00    -0.504 OA
ATOM     16  H   UNL     1      87.781 101.741  70.022  1.00  0.00     0.293 HD
ENDBRANCH   9  15
ENDBRANCH   6   7
ENDBRANCH   3   6
ENDBRANCH   1   2
BRANCH   1  17
ATOM     17  C   UNL     1      93.787  97.238  74.619  1.00  0.00     0.010 C 
BRANCH  17  18
ATOM     18  C   UNL     1      94.210  96.570  75.958  1.00  0.00     0.005 C 
BRANCH  18  19
ATOM     19  C   UNL     1      93.147  96.759  77.074  1.00  0.00     0.027 C 
BRANCH  19  20
ATOM     20  C   UNL     1      91.998  95.886  76.888  1.00  0.00    -0.031 C 
ATOM     21  C   UNL     1      92.083  94.585  76.555  1.00  0.00    -0.028 C 
BRANCH  21  22
ATOM     22  C   UNL     1      90.914  93.720  76.393  1.00  0.00     0.005 C 
ATOM     23  C   UNL     1      90.030  93.679  77.671  1.00  0.00     0.012 C 
ATOM     24  C   UNL     1      90.085  94.165  75.161  1.00  0.00     0.012 C 
ENDBRANCH  21  22
ENDBRANCH  19  20
ENDBRANCH  18  19
ENDBRANCH  17  18
ENDBRANCH   1  17
TORSDOF 10
ENDMDL
MODEL 6
REMARK VINA RESULT:    -5.644     17.450     19.786
REMARK INTER + INTRA:          -9.512
REMARK INTER:                  -8.771
REMARK INTRA:                  -0.741
REMARK UNBOUND:                -0.734
REMARK SMILES COc1cc(CNC(=O)CCCC/C=C/C(C)C)ccc1O
REMARK SMILES IDX 10 1 8 2 7 3 9 5 6 6 5 7 3 8 21 9 4 10 20 11 19 12 2 13 1 14
REMARK SMILES IDX 22 15 11 17 12 18 13 19 14 20 15 21 16 22 17 23 18 24
REMARK H PARENT 7 4 22 16
REMARK Flexibility Score: inf
ROOT
ATOM      1  C   UNL     1      95.856  98.594  76.372  1.00  0.00     0.100 C 
ENDROOT
BRANCH   1   2
ATOM      2  C   UNL     1      97.069  98.288  77.155  1.00  0.00     0.220 C 
ATOM      3  N   UNL     1      97.049  97.313  78.106  1.00  0.00    -0.352 N 
ATOM      4  H   UNL     1      96.155  96.858  78.233  1.00  0.00     0.163 HD
ATOM      5  O   UNL     1      98.115  98.932  76.903  1.00  0.00    -0.275 OA
BRANCH   3   6
ATOM      6  C   UNL     1      98.174  96.919  78.894  1.00  0.00     0.151 C 
BRANCH   6   7
ATOM      7  C   UNL     1      98.033  97.364  80.308  1.00  0.00    -0.025 A 
ATOM      8  C   UNL     1      96.624  98.195  82.147  1.00  0.00     0.160 A 
ATOM      9  C   UNL     1      97.743  98.196  83.005  1.00  0.00     0.157 A 
ATOM     10  C   UNL     1      96.780  97.782  80.808  1.00  0.00     0.056 A 
ATOM     11  C   UNL     1      99.004  97.801  82.515  1.00  0.00     0.050 A 
ATOM     12  C   UNL     1      99.147  97.378  81.179  1.00  0.00     0.009 A 
BRANCH   8  13
ATOM     13  O   UNL     1      95.409  98.642  82.602  1.00  0.00    -0.493 OA
ATOM     14  C   UNL     1      95.076  99.975  82.172  1.00  0.00     0.278 C 
ENDBRANCH   8  13
BRANCH   9  15
ATOM     15  O   UNL     1      97.625  98.576  84.304  1.00  0.00    -0.504 OA
ATOM     16  H   UNL     1      96.806  99.062  84.423  1.00  0.00     0.293 HD
ENDBRANCH   9  15
ENDBRANCH   6   7
ENDBRANCH   3   6
ENDBRANCH   1   2
BRANCH   1  17
ATOM     17  C   UNL     1      94.952  97.343  76.203  1.00  0.00     0.010 C 
BRANCH  17  18
ATOM     18  C   UNL     1      93.612  97.456  76.983  1.00  0.00     0.005 C 
BRANCH  18  19
ATOM     19  C   UNL     1      93.176  96.103  77.608  1.00  0.00     0.027 C 
BRANCH  19  20
ATOM     20  C   UNL     1      91.896  95.648  77.089  1.00  0.00    -0.031 C 
ATOM     21  C   UNL     1      91.351  94.449  77.364  1.00  0.00    -0.028 C 
BRANCH  21  22
ATOM     22  C   UNL     1      90.052  94.019  76.847  1.00  0.00     0.005 C 
ATOM     23  C   UNL     1      89.918  94.260  75.317  1.00  0.00     0.012 C 
ATOM     24  C   UNL     1      89.802  92.529  77.196  1.00  0.00     0.012 C 
ENDBRANCH  21  22
ENDBRANCH  19  20
ENDBRANCH  18  19
ENDBRANCH  17  18
ENDBRANCH   1  17
TORSDOF 10
ENDMDL
MODEL 7
REMARK VINA RESULT:    -5.611     19.834     22.007
REMARK INTER + INTRA:          -9.461
REMARK INTER:                  -8.608
REMARK INTRA:                  -0.852
REMARK UNBOUND:                -0.734
REMARK SMILES COc1cc(CNC(=O)CCCC/C=C/C(C)C)ccc1O
REMARK SMILES IDX 10 1 8 2 7 3 9 5 6 6 5 7 3 8 21 9 4 10 20 11 19 12 2 13 1 14
REMARK SMILES IDX 22 15 11 17 12 18 13 19 14 20 15 21 16 22 17 23 18 24
REMARK H PARENT 7 4 22 16
REMARK Flexibility Score: inf
ROOT
ATOM      1  C   UNL     1      94.421  96.979  73.975  1.00  0.00     0.100 C 
ENDROOT
BRANCH   1   2
ATOM      2  C   UNL     1      94.335  98.093  73.011  1.00  0.00     0.220 C 
ATOM      3  N   UNL     1      94.034  99.352  73.435  1.00  0.00    -0.352 N 
ATOM      4  H   UNL     1      93.860  99.438  74.427  1.00  0.00     0.163 HD
ATOM      5  O   UNL     1      94.568  97.850  71.802  1.00  0.00    -0.275 OA
BRANCH   3   6
ATOM      6  C   UNL     1      93.958 100.501  72.590  1.00  0.00     0.151 C 
BRANCH   6   7
ATOM      7  C   UNL     1      92.679 101.237  72.782  1.00  0.00    -0.025 A 
ATOM      8  C   UNL     1      90.296 101.541  72.240  1.00  0.00     0.160 A 
ATOM      9  C   UNL     1      90.226 102.616  73.150  1.00  0.00     0.157 A 
ATOM     10  C   UNL     1      91.521 100.864  72.063  1.00  0.00     0.056 A 
ATOM     11  C   UNL     1      91.377 103.012  73.859  1.00  0.00     0.050 A 
ATOM     12  C   UNL     1      92.592 102.322  73.685  1.00  0.00     0.009 A 
BRANCH   8  13
ATOM     13  O   UNL     1      89.195 101.194  71.499  1.00  0.00    -0.493 OA
ATOM     14  C   UNL     1      89.444 100.163  70.526  1.00  0.00     0.278 C 
ENDBRANCH   8  13
BRANCH   9  15
ATOM     15  O   UNL     1      89.059 103.281  73.353  1.00  0.00    -0.504 OA
ATOM     16  H   UNL     1      89.146 103.855  74.118  1.00  0.00     0.293 HD
ENDBRANCH   9  15
ENDBRANCH   6   7
ENDBRANCH   3   6
ENDBRANCH   1   2
BRANCH   1  17
ATOM     17  C   UNL     1      94.248  97.472  75.437  1.00  0.00     0.010 C 
BRANCH  17  18
ATOM     18  C   UNL     1      94.612  96.386  76.488  1.00  0.00     0.005 C 
BRANCH  18  19
ATOM     19  C   UNL     1      93.533  96.253  77.597  1.00  0.00     0.027 C 
BRANCH  19  20
ATOM     20  C   UNL     1      92.202  96.055  77.045  1.00  0.00    -0.031 C 
ATOM     21  C   UNL     1      91.838  94.987  76.311  1.00  0.00    -0.028 C 
BRANCH  21  22
ATOM     22  C   UNL     1      90.488  94.799  75.782  1.00  0.00     0.005 C 
ATOM     23  C   UNL     1      90.462  93.842  74.559  1.00  0.00     0.012 C 
ATOM     24  C   UNL     1      89.540  94.293  76.900  1.00  0.00     0.012 C 
ENDBRANCH  21  22
ENDBRANCH  19  20
ENDBRANCH  18  19
ENDBRANCH  17  18
ENDBRANCH   1  17
TORSDOF 10
ENDMDL
MODEL 8
REMARK VINA RESULT:    -5.604     12.329     14.548
REMARK INTER + INTRA:          -9.451
REMARK INTER:                  -8.363
REMARK INTRA:                  -1.088
REMARK UNBOUND:                -0.734
REMARK SMILES COc1cc(CNC(=O)CCCC/C=C/C(C)C)ccc1O
REMARK SMILES IDX 10 1 8 2 7 3 9 5 6 6 5 7 3 8 21 9 4 10 20 11 19 12 2 13 1 14
REMARK SMILES IDX 22 15 11 17 12 18 13 19 14 20 15 21 16 22 17 23 18 24
REMARK H PARENT 7 4 22 16
REMARK Flexibility Score: inf
ROOT
ATOM      1  C   UNL     1      96.537  83.296  77.809  1.00  0.00     0.100 C 
ENDROOT
BRANCH   1   2
ATOM      2  C   UNL     1      96.684  84.197  76.650  1.00  0.00     0.220 C 
ATOM      3  N   UNL     1      97.568  83.905  75.655  1.00  0.00    -0.352 N 
ATOM      4  H   UNL     1      98.106  83.061  75.797  1.00  0.00     0.163 HD
ATOM      5  O   UNL     1      95.958  85.219  76.599  1.00  0.00    -0.275 OA
BRANCH   3   6
ATOM      6  C   UNL     1      97.762  84.693  74.480  1.00  0.00     0.151 C 
BRANCH   6   7
ATOM      7  C   UNL     1      99.166  84.610  73.993  1.00  0.00    -0.025 A 
ATOM      8  C   UNL     1     100.769  84.506  72.127  1.00  0.00     0.160 A 
ATOM      9  C   UNL     1     101.838  84.474  73.046  1.00  0.00     0.157 A 
ATOM     10  C   UNL     1      99.445  84.572  72.608  1.00  0.00     0.056 A 
ATOM     11  C   UNL     1     101.575  84.492  74.430  1.00  0.00     0.050 A 
ATOM     12  C   UNL     1     100.249  84.569  74.901  1.00  0.00     0.009 A 
BRANCH   8  13
ATOM     13  O   UNL     1     101.017  84.422  70.780  1.00  0.00    -0.493 OA
ATOM     14  C   UNL     1     100.805  83.111  70.225  1.00  0.00     0.278 C 
ENDBRANCH   8  13
BRANCH   9  15
ATOM     15  O   UNL     1     103.125  84.424  72.616  1.00  0.00    -0.504 OA
ATOM     16  H   UNL     1     103.356  85.256  72.197  1.00  0.00     0.293 HD
ENDBRANCH   9  15
ENDBRANCH   6   7
ENDBRANCH   3   6
ENDBRANCH   1   2
BRANCH   1  17
ATOM     17  C   UNL     1      97.691  83.483  78.830  1.00  0.00     0.010 C 
BRANCH  17  18
ATOM     18  C   UNL     1      97.385  82.842  80.213  1.00  0.00     0.005 C 
BRANCH  18  19
ATOM     19  C   UNL     1      98.642  82.195  80.855  1.00  0.00     0.027 C 
BRANCH  19  20
ATOM     20  C   UNL     1      99.729  82.044  79.899  1.00  0.00    -0.031 C 
ATOM     21  C   UNL     1     100.065  80.880  79.314  1.00  0.00    -0.028 C 
BRANCH  21  22
ATOM     22  C   UNL     1     101.150  80.755  78.340  1.00  0.00     0.005 C 
ATOM     23  C   UNL     1     100.953  81.693  77.117  1.00  0.00     0.012 C 
ATOM     24  C   UNL     1     102.517  81.017  79.024  1.00  0.00     0.012 C 
ENDBRANCH  21  22
ENDBRANCH  19  20
ENDBRANCH  18  19
ENDBRANCH  17  18
ENDBRANCH   1  17
TORSDOF 10
ENDMDL
MODEL 9
REMARK VINA RESULT:    -5.577      4.358      7.606
REMARK INTER + INTRA:          -9.409
REMARK INTER:                  -8.424
REMARK INTRA:                  -0.985
REMARK UNBOUND:                -0.734
REMARK SMILES COc1cc(CNC(=O)CCCC/C=C/C(C)C)ccc1O
REMARK SMILES IDX 10 1 8 2 7 3 9 5 6 6 5 7 3 8 21 9 4 10 20 11 19 12 2 13 1 14
REMARK SMILES IDX 22 15 11 17 12 18 13 19 14 20 15 21 16 22 17 23 18 24
REMARK H PARENT 7 4 22 16
REMARK Flexibility Score: inf
ROOT
ATOM      1  C   UNL     1      94.603  81.564  85.754  1.00  0.00     0.100 C 
ENDROOT
BRANCH   1   2
ATOM      2  C   UNL     1      93.373  81.488  84.943  1.00  0.00     0.220 C 
ATOM      3  N   UNL     1      92.490  80.466  85.121  1.00  0.00    -0.352 N 
ATOM      4  H   UNL     1      92.761  79.783  85.815  1.00  0.00     0.163 HD
ATOM      5  O   UNL     1      93.157  82.400  84.108  1.00  0.00    -0.275 OA
BRANCH   3   6
ATOM      6  C   UNL     1      91.259  80.319  84.411  1.00  0.00     0.151 C 
BRANCH   6   7
ATOM      7  C   UNL     1      90.893  78.886  84.243  1.00  0.00    -0.025 A 
ATOM      8  C   UNL     1      91.552  76.563  83.766  1.00  0.00     0.160 A 
ATOM      9  C   UNL     1      90.215  76.147  83.938  1.00  0.00     0.157 A 
ATOM     10  C   UNL     1      91.878  77.927  83.918  1.00  0.00     0.056 A 
ATOM     11  C   UNL     1      89.219  77.096  84.243  1.00  0.00     0.050 A 
ATOM     12  C   UNL     1      89.556  78.454  84.404  1.00  0.00     0.009 A 
BRANCH   8  13
ATOM     13  O   UNL     1      92.513  75.654  83.404  1.00  0.00    -0.493 OA
ATOM     14  C   UNL     1      93.416  75.299  84.468  1.00  0.00     0.278 C 
ENDBRANCH   8  13
BRANCH   9  15
ATOM     15  O   UNL     1      89.871  74.840  83.812  1.00  0.00    -0.504 OA
ATOM     16  H   UNL     1      89.690  74.643  82.890  1.00  0.00     0.293 HD
ENDBRANCH   9  15
ENDBRANCH   6   7
ENDBRANCH   3   6
ENDBRANCH   1   2
BRANCH   1  17
ATOM     17  C   UNL     1      94.957  83.030  86.122  1.00  0.00     0.010 C 
BRANCH  17  18
ATOM     18  C   UNL     1      96.270  83.522  85.451  1.00  0.00     0.005 C 
BRANCH  18  19
ATOM     19  C   UNL     1      96.002  84.356  84.169  1.00  0.00     0.027 C 
BRANCH  19  20
ATOM     20  C   UNL     1      96.289  83.604  82.957  1.00  0.00    -0.031 C 
ATOM     21  C   UNL     1      97.220  82.636  82.870  1.00  0.00    -0.028 C 
BRANCH  21  22
ATOM     22  C   UNL     1      97.478  81.879  81.646  1.00  0.00     0.005 C 
ATOM     23  C   UNL     1      96.775  80.493  81.651  1.00  0.00     0.012 C 
ATOM     24  C   UNL     1      97.058  82.708  80.404  1.00  0.00     0.012 C 
ENDBRANCH  21  22
ENDBRANCH  19  20
ENDBRANCH  18  19
ENDBRANCH  17  18
ENDBRANCH   1  17
TORSDOF 10
ENDMDL
MODEL 10
REMARK VINA RESULT:    -5.555     21.849     24.038
REMARK INTER + INTRA:          -9.375
REMARK INTER:                  -8.051
REMARK INTRA:                  -1.323
REMARK UNBOUND:                -0.734
REMARK SMILES COc1cc(CNC(=O)CCCC/C=C/C(C)C)ccc1O
REMARK SMILES IDX 10 1 8 2 7 3 9 5 6 6 5 7 3 8 21 9 4 10 20 11 19 12 2 13 1 14
REMARK SMILES IDX 22 15 11 17 12 18 13 19 14 20 15 21 16 22 17 23 18 24
REMARK H PARENT 7 4 22 16
REMARK Flexibility Score: inf
ROOT
ATOM      1  C   UNL     1      76.221  83.592  64.042  1.00  0.00     0.100 C 
ENDROOT
BRANCH   1   2
ATOM      2  C   UNL     1      74.769  83.820  63.910  1.00  0.00     0.220 C 
ATOM      3  N   UNL     1      73.886  83.121  64.678  1.00  0.00    -0.352 N 
ATOM      4  H   UNL     1      74.305  82.444  65.301  1.00  0.00     0.163 HD
ATOM      5  O   UNL     1      74.378  84.687  63.091  1.00  0.00    -0.275 OA
BRANCH   3   6
ATOM      6  C   UNL     1      72.468  83.290  64.649  1.00  0.00     0.151 C 
BRANCH   6   7
ATOM      7  C   UNL     1      71.952  83.800  65.948  1.00  0.00    -0.025 A 
ATOM      8  C   UNL     1      72.135  85.354  67.849  1.00  0.00     0.160 A 
ATOM      9  C   UNL     1      70.970  84.797  68.417  1.00  0.00     0.157 A 
ATOM     10  C   UNL     1      72.615  84.849  66.623  1.00  0.00     0.056 A 
ATOM     11  C   UNL     1      70.309  83.737  67.765  1.00  0.00     0.050 A 
ATOM     12  C   UNL     1      70.789  83.248  66.535  1.00  0.00     0.009 A 
BRANCH   8  13
ATOM     13  O   UNL     1      72.819  86.341  68.512  1.00  0.00    -0.493 OA
ATOM     14  C   UNL     1      72.525  87.671  68.049  1.00  0.00     0.278 C 
ENDBRANCH   8  13
BRANCH   9  15
ATOM     15  O   UNL     1      70.473  85.269  69.590  1.00  0.00    -0.504 OA
ATOM     16  H   UNL     1      70.285  86.206  69.504  1.00  0.00     0.293 HD
ENDBRANCH   9  15
ENDBRANCH   6   7
ENDBRANCH   3   6
ENDBRANCH   1   2
BRANCH   1  17
ATOM     17  C   UNL     1      76.605  83.174  65.487  1.00  0.00     0.010 C 
BRANCH  17  18
ATOM     18  C   UNL     1      77.242  84.333  66.303  1.00  0.00     0.005 C 
BRANCH  18  19
ATOM     19  C   UNL     1      76.322  84.819  67.456  1.00  0.00     0.027 C 
BRANCH  19  20
ATOM     20  C   UNL     1      76.261  86.271  67.532  1.00  0.00    -0.031 C 
ATOM     21  C   UNL     1      77.190  87.036  68.135  1.00  0.00    -0.028 C 
BRANCH  21  22
ATOM     22  C   UNL     1      77.118  88.496  68.183  1.00  0.00     0.005 C 
ATOM     23  C   UNL     1      77.214  89.137  66.771  1.00  0.00     0.012 C 
ATOM     24  C   UNL     1      75.823  88.946  68.907  1.00  0.00     0.012 C 
ENDBRANCH  21  22
ENDBRANCH  19  20
ENDBRANCH  18  19
ENDBRANCH  17  18
ENDBRANCH   1  17
TORSDOF 10
ENDMDL
