MODEL 1
REMARK VINA RESULT:    -5.731      0.000      0.000
REMARK INTER + INTRA:          -9.836
REMARK INTER:                  -8.913
REMARK INTRA:                  -0.923
REMARK UNBOUND:                -0.923
REMARK SMILES COc1cc(CNC(=O)CCCCCC(C)C)ccc1O
REMARK SMILES IDX 10 1 8 2 7 3 9 5 6 6 5 7 3 8 20 9 4 10 19 11 18 12 2 13 1 14
REMARK SMILES IDX 21 15 11 17 12 18 13 19 14 20 15 21 16 22 17 23
REMARK H PARENT 7 4 21 16
REMARK Flexibility Score: inf
ROOT
ATOM      1  C   UNL     1      89.770  97.947  69.828  1.00  0.00     0.100 C 
ENDROOT
BRANCH   1   2
ATOM      2  C   UNL     1      89.450  98.166  68.402  1.00  0.00     0.220 C 
ATOM      3  N   UNL     1      88.349  98.896  68.067  1.00  0.00    -0.352 N 
ATOM      4  H   UNL     1      87.743  99.131  68.841  1.00  0.00     0.163 HD
ATOM      5  O   UNL     1      90.225  97.708  67.527  1.00  0.00    -0.275 OA
BRANCH   3   6
ATOM      6  C   UNL     1      88.019  99.327  66.747  1.00  0.00     0.151 C 
BRANCH   6   7
ATOM      7  C   UNL     1      88.056 100.807  66.589  1.00  0.00    -0.025 A 
ATOM      8  C   UNL     1      89.329 102.907  66.468  1.00  0.00     0.160 A 
ATOM      9  C   UNL     1      88.134 103.615  66.222  1.00  0.00     0.157 A 
ATOM     10  C   UNL     1      89.281 101.511  66.668  1.00  0.00     0.056 A 
ATOM     11  C   UNL     1      86.907 102.928  66.168  1.00  0.00     0.050 A 
ATOM     12  C   UNL     1      86.868 101.535  66.344  1.00  0.00     0.009 A 
BRANCH   8  13
ATOM     13  O   UNL     1      90.532 103.559  66.544  1.00  0.00    -0.493 OA
ATOM     14  C   UNL     1      91.360 103.392  65.377  1.00  0.00     0.278 C 
ENDBRANCH   8  13
BRANCH   9  15
ATOM     15  O   UNL     1      88.169 104.957  66.030  1.00  0.00    -0.504 OA
ATOM     16  H   UNL     1      89.018 105.300  66.317  1.00  0.00     0.293 HD
ENDBRANCH   9  15
ENDBRANCH   6   7
ENDBRANCH   3   6
ENDBRANCH   1   2
BRANCH   1  17
ATOM     17  C   UNL     1      89.990  99.252  70.640  1.00  0.00     0.010 C 
BRANCH  17  18
ATOM     18  C   UNL     1      91.162 100.094  70.063  1.00  0.00     0.001 C 
BRANCH  18  19
ATOM     19  C   UNL     1      92.227 100.476  71.125  1.00  0.00     0.000 C 
BRANCH  19  20
ATOM     20  C   UNL     1      92.452  99.343  72.167  1.00  0.00     0.003 C 
BRANCH  20  21
ATOM     21  C   UNL     1      93.931  99.164  72.640  1.00  0.00    -0.017 C 
ATOM     22  C   UNL     1      94.855  98.791  71.443  1.00  0.00     0.007 C 
ATOM     23  C   UNL     1      94.080  98.113  73.777  1.00  0.00     0.007 C 
ENDBRANCH  20  21
ENDBRANCH  19  20
ENDBRANCH  18  19
ENDBRANCH  17  18
ENDBRANCH   1  17
TORSDOF 10
ENDMDL
MODEL 2
REMARK VINA RESULT:    -5.663      2.490      6.943
REMARK INTER + INTRA:          -9.731
REMARK INTER:                  -8.966
REMARK INTRA:                  -0.765
REMARK UNBOUND:                -0.923
REMARK SMILES COc1cc(CNC(=O)CCCCCC(C)C)ccc1O
REMARK SMILES IDX 10 1 8 2 7 3 9 5 6 6 5 7 3 8 20 9 4 10 19 11 18 12 2 13 1 14
REMARK SMILES IDX 21 15 11 17 12 18 13 19 14 20 15 21 16 22 17 23
REMARK H PARENT 7 4 21 16
REMARK Flexibility Score: inf
ROOT
ATOM      1  C   UNL     1      89.180  98.548  66.641  1.00  0.00     0.100 C 
ENDROOT
BRANCH   1   2
ATOM      2  C   UNL     1      89.741  98.254  67.976  1.00  0.00     0.220 C 
ATOM      3  N   UNL     1      89.379  99.025  69.040  1.00  0.00    -0.352 N 
ATOM      4  H   UNL     1      88.838  99.846  68.805  1.00  0.00     0.163 HD
ATOM      5  O   UNL     1      90.509  97.270  68.110  1.00  0.00    -0.275 OA
BRANCH   3   6
ATOM      6  C   UNL     1      89.704  98.751  70.403  1.00  0.00     0.151 C 
BRANCH   6   7
ATOM      7  C   UNL     1      90.563  99.798  71.020  1.00  0.00    -0.025 A 
ATOM      8  C   UNL     1      90.839 102.064  71.935  1.00  0.00     0.160 A 
ATOM      9  C   UNL     1      92.180 101.768  72.257  1.00  0.00     0.157 A 
ATOM     10  C   UNL     1      90.045 101.084  71.302  1.00  0.00     0.056 A 
ATOM     11  C   UNL     1      92.714 100.501  71.957  1.00  0.00     0.050 A 
ATOM     12  C   UNL     1      91.911  99.522  71.349  1.00  0.00     0.009 A 
BRANCH   8  13
ATOM     13  O   UNL     1      90.305 103.298  72.200  1.00  0.00    -0.493 OA
ATOM     14  C   UNL     1      89.037 103.249  72.882  1.00  0.00     0.278 C 
ENDBRANCH   8  13
BRANCH   9  15
ATOM     15  O   UNL     1      92.953 102.704  72.864  1.00  0.00    -0.504 OA
ATOM     16  H   UNL     1      93.878 102.522  72.682  1.00  0.00     0.293 HD
ENDBRANCH   9  15
ENDBRANCH   6   7
ENDBRANCH   3   6
ENDBRANCH   1   2
BRANCH   1  17
ATOM     17  C   UNL     1      88.621  99.988  66.487  1.00  0.00     0.010 C 
BRANCH  17  18
ATOM     18  C   UNL     1      87.075  99.990  66.334  1.00  0.00     0.001 C 
BRANCH  18  19
ATOM     19  C   UNL     1      86.467 101.413  66.234  1.00  0.00     0.000 C 
BRANCH  19  20
ATOM     20  C   UNL     1      87.548 102.525  66.360  1.00  0.00     0.003 C 
BRANCH  20  21
ATOM     21  C   UNL     1      87.026 103.983  66.141  1.00  0.00    -0.017 C 
ATOM     22  C   UNL     1      88.201 104.951  65.817  1.00  0.00     0.007 C 
ATOM     23  C   UNL     1      86.209 104.520  67.352  1.00  0.00     0.007 C 
ENDBRANCH  20  21
ENDBRANCH  19  20
ENDBRANCH  18  19
ENDBRANCH  17  18
ENDBRANCH   1  17
TORSDOF 10
ENDMDL
MODEL 3
REMARK VINA RESULT:    -5.592      1.672      2.420
REMARK INTER + INTRA:          -9.620
REMARK INTER:                  -8.434
REMARK INTRA:                  -1.186
REMARK UNBOUND:                -0.923
REMARK SMILES COc1cc(CNC(=O)CCCCCC(C)C)ccc1O
REMARK SMILES IDX 10 1 8 2 7 3 9 5 6 6 5 7 3 8 20 9 4 10 19 11 18 12 2 13 1 14
REMARK SMILES IDX 21 15 11 17 12 18 13 19 14 20 15 21 16 22 17 23
REMARK H PARENT 7 4 21 16
REMARK Flexibility Score: inf
ROOT
ATOM      1  C   UNL     1      89.645  98.049  69.401  1.00  0.00     0.100 C 
ENDROOT
BRANCH   1   2
ATOM      2  C   UNL     1      89.225  98.374  68.022  1.00  0.00     0.220 C 
ATOM      3  N   UNL     1      88.090  99.101  67.822  1.00  0.00    -0.352 N 
ATOM      4  H   UNL     1      87.533  99.257  68.650  1.00  0.00     0.163 HD
ATOM      5  O   UNL     1      89.949  98.010  67.063  1.00  0.00    -0.275 OA
BRANCH   3   6
ATOM      6  C   UNL     1      87.664  99.630  66.566  1.00  0.00     0.151 C 
BRANCH   6   7
ATOM      7  C   UNL     1      87.818 101.107  66.472  1.00  0.00    -0.025 A 
ATOM      8  C   UNL     1      89.256 103.100  66.380  1.00  0.00     0.160 A 
ATOM      9  C   UNL     1      88.114 103.914  66.225  1.00  0.00     0.157 A 
ATOM     10  C   UNL     1      89.100 101.704  66.521  1.00  0.00     0.056 A 
ATOM     11  C   UNL     1      86.833 103.334  66.202  1.00  0.00     0.050 A 
ATOM     12  C   UNL     1      86.685 101.941  66.318  1.00  0.00     0.009 A 
BRANCH   8  13
ATOM     13  O   UNL     1      90.512 103.647  66.425  1.00  0.00    -0.493 OA
ATOM     14  C   UNL     1      91.537 102.796  65.878  1.00  0.00     0.278 C 
ENDBRANCH   8  13
BRANCH   9  15
ATOM     15  O   UNL     1      88.254 105.257  66.091  1.00  0.00    -0.504 OA
ATOM     16  H   UNL     1      87.397 105.679  66.184  1.00  0.00     0.293 HD
ENDBRANCH   9  15
ENDBRANCH   6   7
ENDBRANCH   3   6
ENDBRANCH   1   2
BRANCH   1  17
ATOM     17  C   UNL     1      89.576  99.244  70.388  1.00  0.00     0.010 C 
BRANCH  17  18
ATOM     18  C   UNL     1      90.993  99.704  70.831  1.00  0.00     0.001 C 
BRANCH  18  19
ATOM     19  C   UNL     1      91.401 101.086  70.255  1.00  0.00     0.000 C 
BRANCH  19  20
ATOM     20  C   UNL     1      90.268 102.143  70.405  1.00  0.00     0.003 C 
BRANCH  20  21
ATOM     21  C   UNL     1      90.372 103.046  71.677  1.00  0.00    -0.017 C 
ATOM     22  C   UNL     1      91.780 102.924  72.331  1.00  0.00     0.007 C 
ATOM     23  C   UNL     1      89.266 102.739  72.728  1.00  0.00     0.007 C 
ENDBRANCH  20  21
ENDBRANCH  19  20
ENDBRANCH  18  19
ENDBRANCH  17  18
ENDBRANCH   1  17
TORSDOF 10
ENDMDL
MODEL 4
REMARK VINA RESULT:    -5.548     20.007     22.878
REMARK INTER + INTRA:          -9.552
REMARK INTER:                  -7.851
REMARK INTRA:                  -1.701
REMARK UNBOUND:                -0.923
REMARK SMILES COc1cc(CNC(=O)CCCCCC(C)C)ccc1O
REMARK SMILES IDX 10 1 8 2 7 3 9 5 6 6 5 7 3 8 20 9 4 10 19 11 18 12 2 13 1 14
REMARK SMILES IDX 21 15 11 17 12 18 13 19 14 20 15 21 16 22 17 23
REMARK H PARENT 7 4 21 16
REMARK Flexibility Score: inf
ROOT
ATOM      1  C   UNL     1      75.416  81.628  64.703  1.00  0.00     0.100 C 
ENDROOT
BRANCH   1   2
ATOM      2  C   UNL     1      76.082  82.936  64.875  1.00  0.00     0.220 C 
ATOM      3  N   UNL     1      76.778  83.188  66.019  1.00  0.00    -0.352 N 
ATOM      4  H   UNL     1      76.675  82.490  66.742  1.00  0.00     0.163 HD
ATOM      5  O   UNL     1      76.027  83.774  63.942  1.00  0.00    -0.275 OA
BRANCH   3   6
ATOM      6  C   UNL     1      77.605  84.330  66.244  1.00  0.00     0.151 C 
BRANCH   6   7
ATOM      7  C   UNL     1      76.887  85.450  66.910  1.00  0.00    -0.025 A 
ATOM      8  C   UNL     1      75.237  86.250  68.548  1.00  0.00     0.160 A 
ATOM      9  C   UNL     1      75.568  87.584  68.227  1.00  0.00     0.157 A 
ATOM     10  C   UNL     1      75.884  85.192  67.875  1.00  0.00     0.056 A 
ATOM     11  C   UNL     1      76.545  87.851  67.251  1.00  0.00     0.050 A 
ATOM     12  C   UNL     1      77.203  86.794  66.601  1.00  0.00     0.009 A 
BRANCH   8  13
ATOM     13  O   UNL     1      74.275  85.968  69.482  1.00  0.00    -0.493 OA
ATOM     14  C   UNL     1      74.620  84.882  70.364  1.00  0.00     0.278 C 
ENDBRANCH   8  13
BRANCH   9  15
ATOM     15  O   UNL     1      74.950  88.608  68.867  1.00  0.00    -0.504 OA
ATOM     16  H   UNL     1      74.153  88.284  69.293  1.00  0.00     0.293 HD
ENDBRANCH   9  15
ENDBRANCH   6   7
ENDBRANCH   3   6
ENDBRANCH   1   2
BRANCH   1  17
ATOM     17  C   UNL     1      74.040  81.701  63.990  1.00  0.00     0.010 C 
BRANCH  17  18
ATOM     18  C   UNL     1      72.897  81.159  64.892  1.00  0.00     0.001 C 
BRANCH  18  19
ATOM     19  C   UNL     1      71.852  82.238  65.278  1.00  0.00     0.000 C 
BRANCH  19  20
ATOM     20  C   UNL     1      72.237  83.648  64.744  1.00  0.00     0.003 C 
BRANCH  20  21
ATOM     21  C   UNL     1      72.856  84.611  65.809  1.00  0.00    -0.017 C 
ATOM     22  C   UNL     1      71.778  85.069  66.836  1.00  0.00     0.007 C 
ATOM     23  C   UNL     1      73.548  85.851  65.172  1.00  0.00     0.007 C 
ENDBRANCH  20  21
ENDBRANCH  19  20
ENDBRANCH  18  19
ENDBRANCH  17  18
ENDBRANCH   1  17
TORSDOF 10
ENDMDL
MODEL 5
REMARK VINA RESULT:    -5.478      9.613     12.500
REMARK INTER + INTRA:          -9.443
REMARK INTER:                  -8.310
REMARK INTRA:                  -1.133
REMARK UNBOUND:                -0.923
REMARK SMILES COc1cc(CNC(=O)CCCCCC(C)C)ccc1O
REMARK SMILES IDX 10 1 8 2 7 3 9 5 6 6 5 7 3 8 20 9 4 10 19 11 18 12 2 13 1 14
REMARK SMILES IDX 21 15 11 17 12 18 13 19 14 20 15 21 16 22 17 23
REMARK H PARENT 7 4 21 16
REMARK Flexibility Score: inf
ROOT
ATOM      1  C   UNL     1      96.575  93.731  80.390  1.00  0.00     0.100 C 
ENDROOT
BRANCH   1   2
ATOM      2  C   UNL     1      97.235  94.768  79.570  1.00  0.00     0.220 C 
ATOM      3  N   UNL     1      96.544  95.891  79.227  1.00  0.00    -0.352 N 
ATOM      4  H   UNL     1      95.560  95.872  79.457  1.00  0.00     0.163 HD
ATOM      5  O   UNL     1      98.436  94.610  79.240  1.00  0.00    -0.275 OA
BRANCH   3   6
ATOM      6  C   UNL     1      97.105  97.040  78.593  1.00  0.00     0.151 C 
BRANCH   6   7
ATOM      7  C   UNL     1      96.988  97.005  77.110  1.00  0.00    -0.025 A 
ATOM      8  C   UNL     1      95.782  96.312  75.082  1.00  0.00     0.160 A 
ATOM      9  C   UNL     1      96.729  96.993  74.289  1.00  0.00     0.157 A 
ATOM     10  C   UNL     1      95.928  96.306  76.486  1.00  0.00     0.056 A 
ATOM     11  C   UNL     1      97.803  97.669  74.897  1.00  0.00     0.050 A 
ATOM     12  C   UNL     1      97.929  97.679  76.297  1.00  0.00     0.009 A 
BRANCH   8  13
ATOM     13  O   UNL     1      94.740  95.631  74.508  1.00  0.00    -0.493 OA
ATOM     14  C   UNL     1      93.442  96.129  74.885  1.00  0.00     0.278 C 
ENDBRANCH   8  13
BRANCH   9  15
ATOM     15  O   UNL     1      96.599  97.003  72.938  1.00  0.00    -0.504 OA
ATOM     16  H   UNL     1      97.037  96.233  72.569  1.00  0.00     0.293 HD
ENDBRANCH   9  15
ENDBRANCH   6   7
ENDBRANCH   3   6
ENDBRANCH   1   2
BRANCH   1  17
ATOM     17  C   UNL     1      95.265  93.168  79.774  1.00  0.00     0.010 C 
BRANCH  17  18
ATOM     18  C   UNL     1      95.412  92.917  78.248  1.00  0.00     0.001 C 
BRANCH  18  19
ATOM     19  C   UNL     1      94.180  93.380  77.426  1.00  0.00     0.000 C 
BRANCH  19  20
ATOM     20  C   UNL     1      92.881  93.415  78.282  1.00  0.00     0.003 C 
BRANCH  20  21
ATOM     21  C   UNL     1      91.550  93.319  77.467  1.00  0.00    -0.017 C 
ATOM     22  C   UNL     1      91.761  92.509  76.154  1.00  0.00     0.007 C 
ATOM     23  C   UNL     1      90.938  94.712  77.142  1.00  0.00     0.007 C 
ENDBRANCH  20  21
ENDBRANCH  19  20
ENDBRANCH  18  19
ENDBRANCH  17  18
ENDBRANCH   1  17
TORSDOF 10
ENDMDL
MODEL 6
REMARK VINA RESULT:    -5.451      3.308      5.732
REMARK INTER + INTRA:          -9.400
REMARK INTER:                  -8.874
REMARK INTRA:                  -0.527
REMARK UNBOUND:                -0.923
REMARK SMILES COc1cc(CNC(=O)CCCCCC(C)C)ccc1O
REMARK SMILES IDX 10 1 8 2 7 3 9 5 6 6 5 7 3 8 20 9 4 10 19 11 18 12 2 13 1 14
REMARK SMILES IDX 21 15 11 17 12 18 13 19 14 20 15 21 16 22 17 23
REMARK H PARENT 7 4 21 16
REMARK Flexibility Score: inf
ROOT
ATOM      1  C   UNL     1      94.701  99.323  73.436  1.00  0.00     0.100 C 
ENDROOT
BRANCH   1   2
ATOM      2  C   UNL     1      94.541  99.547  71.984  1.00  0.00     0.220 C 
ATOM      3  N   UNL     1      93.340  99.974  71.501  1.00  0.00    -0.352 N 
ATOM      4  H   UNL     1      92.589  99.982  72.176  1.00  0.00     0.163 HD
ATOM      5  O   UNL     1      95.529  99.379  71.229  1.00  0.00    -0.275 OA
BRANCH   3   6
ATOM      6  C   UNL     1      93.097 100.393  70.157  1.00  0.00     0.151 C 
BRANCH   6   7
ATOM      7  C   UNL     1      91.761  99.979  69.649  1.00  0.00    -0.025 A 
ATOM      8  C   UNL     1      90.033 100.038  67.901  1.00  0.00     0.160 A 
ATOM      9  C   UNL     1      89.247  99.139  68.651  1.00  0.00     0.157 A 
ATOM     10  C   UNL     1      91.276 100.468  68.413  1.00  0.00     0.056 A 
ATOM     11  C   UNL     1      89.707  98.667  69.894  1.00  0.00     0.050 A 
ATOM     12  C   UNL     1      90.957  99.080  70.387  1.00  0.00     0.009 A 
BRANCH   8  13
ATOM     13  O   UNL     1      89.594 100.524  66.697  1.00  0.00    -0.493 OA
ATOM     14  C   UNL     1      89.893 101.918  66.488  1.00  0.00     0.278 C 
ENDBRANCH   8  13
BRANCH   9  15
ATOM     15  O   UNL     1      88.049  98.721  68.168  1.00  0.00    -0.504 OA
ATOM     16  H   UNL     1      87.892  97.815  68.442  1.00  0.00     0.293 HD
ENDBRANCH   9  15
ENDBRANCH   6   7
ENDBRANCH   3   6
ENDBRANCH   1   2
BRANCH   1  17
ATOM     17  C   UNL     1      93.617  98.405  74.063  1.00  0.00     0.010 C 
BRANCH  17  18
ATOM     18  C   UNL     1      94.213  97.043  74.516  1.00  0.00     0.001 C 
BRANCH  18  19
ATOM     19  C   UNL     1      93.151  96.063  75.080  1.00  0.00     0.000 C 
BRANCH  19  20
ATOM     20  C   UNL     1      93.699  95.220  76.268  1.00  0.00     0.003 C 
BRANCH  20  21
ATOM     21  C   UNL     1      92.688  94.995  77.439  1.00  0.00    -0.017 C 
ATOM     22  C   UNL     1      93.042  93.705  78.237  1.00  0.00     0.007 C 
ATOM     23  C   UNL     1      91.209  94.936  76.958  1.00  0.00     0.007 C 
ENDBRANCH  20  21
ENDBRANCH  19  20
ENDBRANCH  18  19
ENDBRANCH  17  18
ENDBRANCH   1  17
TORSDOF 10
ENDMDL
MODEL 7
REMARK VINA RESULT:    -5.405     31.575     34.474
REMARK INTER + INTRA:          -9.330
REMARK INTER:                  -7.909
REMARK INTRA:                  -1.420
REMARK UNBOUND:                -0.923
REMARK SMILES COc1cc(CNC(=O)CCCCCC(C)C)ccc1O
REMARK SMILES IDX 10 1 8 2 7 3 9 5 6 6 5 7 3 8 20 9 4 10 19 11 18 12 2 13 1 14
REMARK SMILES IDX 21 15 11 17 12 18 13 19 14 20 15 21 16 22 17 23
REMARK H PARENT 7 4 21 16
REMARK Flexibility Score: inf
ROOT
ATOM      1  C   UNL     1      83.434  64.453  75.359  1.00  0.00     0.100 C 
ENDROOT
BRANCH   1   2
ATOM      2  C   UNL     1      84.136  65.714  75.674  1.00  0.00     0.220 C 
ATOM      3  N   UNL     1      85.059  66.203  74.799  1.00  0.00    -0.352 N 
ATOM      4  H   UNL     1      85.296  65.580  74.039  1.00  0.00     0.163 HD
ATOM      5  O   UNL     1      83.835  66.333  76.724  1.00  0.00    -0.275 OA
BRANCH   3   6
ATOM      6  C   UNL     1      85.681  67.485  74.890  1.00  0.00     0.151 C 
BRANCH   6   7
ATOM      7  C   UNL     1      85.236  68.427  73.828  1.00  0.00    -0.025 A 
ATOM      8  C   UNL     1      84.995  70.722  72.978  1.00  0.00     0.160 A 
ATOM      9  C   UNL     1      84.450  70.218  71.778  1.00  0.00     0.157 A 
ATOM     10  C   UNL     1      85.367  69.825  74.002  1.00  0.00     0.056 A 
ATOM     11  C   UNL     1      84.290  68.830  71.605  1.00  0.00     0.050 A 
ATOM     12  C   UNL     1      84.685  67.942  72.619  1.00  0.00     0.009 A 
BRANCH   8  13
ATOM     13  O   UNL     1      85.140  72.070  73.174  1.00  0.00    -0.493 OA
ATOM     14  C   UNL     1      85.825  72.410  74.395  1.00  0.00     0.278 C 
ENDBRANCH   8  13
BRANCH   9  15
ATOM     15  O   UNL     1      84.087  71.071  70.788  1.00  0.00    -0.504 OA
ATOM     16  H   UNL     1      84.861  71.543  70.473  1.00  0.00     0.293 HD
ENDBRANCH   9  15
ENDBRANCH   6   7
ENDBRANCH   3   6
ENDBRANCH   1   2
BRANCH   1  17
ATOM     17  C   UNL     1      82.430  63.991  76.450  1.00  0.00     0.010 C 
BRANCH  17  18
ATOM     18  C   UNL     1      81.027  63.700  75.850  1.00  0.00     0.001 C 
BRANCH  18  19
ATOM     19  C   UNL     1      80.302  64.971  75.333  1.00  0.00     0.000 C 
BRANCH  19  20
ATOM     20  C   UNL     1      80.245  65.023  73.778  1.00  0.00     0.003 C 
BRANCH  20  21
ATOM     21  C   UNL     1      81.248  66.022  73.114  1.00  0.00    -0.017 C 
ATOM     22  C   UNL     1      81.197  67.410  73.818  1.00  0.00     0.007 C 
ATOM     23  C   UNL     1      81.011  66.190  71.585  1.00  0.00     0.007 C 
ENDBRANCH  20  21
ENDBRANCH  19  20
ENDBRANCH  18  19
ENDBRANCH  17  18
ENDBRANCH   1  17
TORSDOF 10
ENDMDL
MODEL 8
REMARK VINA RESULT:    -5.262     19.583     22.408
REMARK INTER + INTRA:          -9.107
REMARK INTER:                  -8.302
REMARK INTRA:                  -0.805
REMARK UNBOUND:                -0.923
REMARK SMILES COc1cc(CNC(=O)CCCCCC(C)C)ccc1O
REMARK SMILES IDX 10 1 8 2 7 3 9 5 6 6 5 7 3 8 20 9 4 10 19 11 18 12 2 13 1 14
REMARK SMILES IDX 21 15 11 17 12 18 13 19 14 20 15 21 16 22 17 23
REMARK H PARENT 7 4 21 16
REMARK Flexibility Score: inf
ROOT
ATOM      1  C   UNL     1      77.235  87.549  67.077  1.00  0.00     0.100 C 
ENDROOT
BRANCH   1   2
ATOM      2  C   UNL     1      77.215  86.073  67.136  1.00  0.00     0.220 C 
ATOM      3  N   UNL     1      76.863  85.363  66.028  1.00  0.00    -0.352 N 
ATOM      4  H   UNL     1      76.506  85.918  65.263  1.00  0.00     0.163 HD
ATOM      5  O   UNL     1      77.566  85.502  68.198  1.00  0.00    -0.275 OA
BRANCH   3   6
ATOM      6  C   UNL     1      76.967  83.945  65.892  1.00  0.00     0.151 C 
BRANCH   6   7
ATOM      7  C   UNL     1      75.646  83.271  65.779  1.00  0.00    -0.025 A 
ATOM      8  C   UNL     1      73.190  83.364  65.861  1.00  0.00     0.160 A 
ATOM      9  C   UNL     1      73.129  82.002  65.496  1.00  0.00     0.157 A 
ATOM     10  C   UNL     1      74.448  83.984  66.018  1.00  0.00     0.056 A 
ATOM     11  C   UNL     1      74.314  81.276  65.282  1.00  0.00     0.050 A 
ATOM     12  C   UNL     1      75.563  81.906  65.416  1.00  0.00     0.009 A 
BRANCH   8  13
ATOM     13  O   UNL     1      72.048  84.083  66.094  1.00  0.00    -0.493 OA
ATOM     14  C   UNL     1      72.082  85.420  65.557  1.00  0.00     0.278 C 
ENDBRANCH   8  13
BRANCH   9  15
ATOM     15  O   UNL     1      71.925  81.395  65.345  1.00  0.00    -0.504 OA
ATOM     16  H   UNL     1      71.226  82.003  65.597  1.00  0.00     0.293 HD
ENDBRANCH   9  15
ENDBRANCH   6   7
ENDBRANCH   3   6
ENDBRANCH   1   2
BRANCH   1  17
ATOM     17  C   UNL     1      75.884  88.221  67.443  1.00  0.00     0.010 C 
BRANCH  17  18
ATOM     18  C   UNL     1      76.097  89.586  68.154  1.00  0.00     0.001 C 
BRANCH  18  19
ATOM     19  C   UNL     1      74.967  89.942  69.156  1.00  0.00     0.000 C 
BRANCH  19  20
ATOM     20  C   UNL     1      73.925  88.795  69.300  1.00  0.00     0.003 C 
BRANCH  20  21
ATOM     21  C   UNL     1      72.437  89.263  69.393  1.00  0.00    -0.017 C 
ATOM     22  C   UNL     1      71.984  89.943  68.067  1.00  0.00     0.007 C 
ATOM     23  C   UNL     1      72.177  90.215  70.596  1.00  0.00     0.007 C 
ENDBRANCH  20  21
ENDBRANCH  19  20
ENDBRANCH  18  19
ENDBRANCH  17  18
ENDBRANCH   1  17
TORSDOF 10
ENDMDL
MODEL 9
REMARK VINA RESULT:    -5.206      7.963      9.624
REMARK INTER + INTRA:          -9.021
REMARK INTER:                  -8.376
REMARK INTRA:                  -0.644
REMARK UNBOUND:                -0.923
REMARK SMILES COc1cc(CNC(=O)CCCCCC(C)C)ccc1O
REMARK SMILES IDX 10 1 8 2 7 3 9 5 6 6 5 7 3 8 20 9 4 10 19 11 18 12 2 13 1 14
REMARK SMILES IDX 21 15 11 17 12 18 13 19 14 20 15 21 16 22 17 23
REMARK H PARENT 7 4 21 16
REMARK Flexibility Score: inf
ROOT
ATOM      1  C   UNL     1      95.542  96.271  73.467  1.00  0.00     0.100 C 
ENDROOT
BRANCH   1   2
ATOM      2  C   UNL     1      95.812  97.016  72.219  1.00  0.00     0.220 C 
ATOM      3  N   UNL     1      95.934  96.334  71.046  1.00  0.00    -0.352 N 
ATOM      4  H   UNL     1      95.962  95.329  71.139  1.00  0.00     0.163 HD
ATOM      5  O   UNL     1      95.880  98.268  72.261  1.00  0.00    -0.275 OA
BRANCH   3   6
ATOM      6  C   UNL     1      96.021  96.933  69.753  1.00  0.00     0.151 C 
BRANCH   6   7
ATOM      7  C   UNL     1      97.422  97.146  69.300  1.00  0.00    -0.025 A 
ATOM      8  C   UNL     1      99.071  98.423  67.997  1.00  0.00     0.160 A 
ATOM      9  C   UNL     1     100.100  97.594  68.491  1.00  0.00     0.157 A 
ATOM     10  C   UNL     1      97.737  98.183  68.389  1.00  0.00     0.056 A 
ATOM     11  C   UNL     1      99.795  96.543  69.376  1.00  0.00     0.050 A 
ATOM     12  C   UNL     1      98.467  96.325  69.782  1.00  0.00     0.009 A 
BRANCH   8  13
ATOM     13  O   UNL     1      99.345  99.439  67.119  1.00  0.00    -0.493 OA
ATOM     14  C   UNL     1      98.229  99.802  66.284  1.00  0.00     0.278 C 
ENDBRANCH   8  13
BRANCH   9  15
ATOM     15  O   UNL     1     101.386  97.815  68.118  1.00  0.00    -0.504 OA
ATOM     16  H   UNL     1     101.558  98.759  68.106  1.00  0.00     0.293 HD
ENDBRANCH   9  15
ENDBRANCH   6   7
ENDBRANCH   3   6
ENDBRANCH   1   2
BRANCH   1  17
ATOM     17  C   UNL     1      94.337  96.809  74.284  1.00  0.00     0.010 C 
BRANCH  17  18
ATOM     18  C   UNL     1      94.032  95.909  75.514  1.00  0.00     0.001 C 
BRANCH  18  19
ATOM     19  C   UNL     1      94.090  94.392  75.196  1.00  0.00     0.000 C 
BRANCH  19  20
ATOM     20  C   UNL     1      92.888  93.616  75.810  1.00  0.00     0.003 C 
BRANCH  20  21
ATOM     21  C   UNL     1      92.295  94.242  77.115  1.00  0.00    -0.017 C 
ATOM     22  C   UNL     1      92.533  93.307  78.337  1.00  0.00     0.007 C 
ATOM     23  C   UNL     1      90.782  94.582  76.988  1.00  0.00     0.007 C 
ENDBRANCH  20  21
ENDBRANCH  19  20
ENDBRANCH  18  19
ENDBRANCH  17  18
ENDBRANCH   1  17
TORSDOF 10
ENDMDL
MODEL 10
REMARK VINA RESULT:    -5.176     34.957     37.114
REMARK INTER + INTRA:          -8.973
REMARK INTER:                  -7.911
REMARK INTRA:                  -1.063
REMARK UNBOUND:                -0.923
REMARK SMILES COc1cc(CNC(=O)CCCCCC(C)C)ccc1O
REMARK SMILES IDX 10 1 8 2 7 3 9 5 6 6 5 7 3 8 20 9 4 10 19 11 18 12 2 13 1 14
REMARK SMILES IDX 21 15 11 17 12 18 13 19 14 20 15 21 16 22 17 23
REMARK H PARENT 7 4 21 16
REMARK Flexibility Score: inf
ROOT
ATOM      1  C   UNL     1      83.969  66.480  75.083  1.00  0.00     0.100 C 
ENDROOT
BRANCH   1   2
ATOM      2  C   UNL     1      83.056  66.905  74.002  1.00  0.00     0.220 C 
ATOM      3  N   UNL     1      82.241  65.984  73.414  1.00  0.00    -0.352 N 
ATOM      4  H   UNL     1      82.420  65.026  73.681  1.00  0.00     0.163 HD
ATOM      5  O   UNL     1      83.020  68.116  73.675  1.00  0.00    -0.275 OA
BRANCH   3   6
ATOM      6  C   UNL     1      81.197  66.283  72.487  1.00  0.00     0.151 C 
BRANCH   6   7
ATOM      7  C   UNL     1      81.424  65.693  71.141  1.00  0.00    -0.025 A 
ATOM      8  C   UNL     1      82.490  64.006  69.704  1.00  0.00     0.160 A 
ATOM      9  C   UNL     1      81.804  64.526  68.587  1.00  0.00     0.157 A 
ATOM     10  C   UNL     1      82.311  64.604  70.970  1.00  0.00     0.056 A 
ATOM     11  C   UNL     1      80.940  65.626  68.741  1.00  0.00     0.050 A 
ATOM     12  C   UNL     1      80.746  66.202  70.008  1.00  0.00     0.009 A 
BRANCH   8  13
ATOM     13  O   UNL     1      83.351  62.948  69.573  1.00  0.00    -0.493 OA
ATOM     14  C   UNL     1      84.742  63.316  69.648  1.00  0.00     0.278 C 
ENDBRANCH   8  13
BRANCH   9  15
ATOM     15  O   UNL     1      81.971  63.960  67.366  1.00  0.00    -0.504 OA
ATOM     16  H   UNL     1      82.774  63.434  67.364  1.00  0.00     0.293 HD
ENDBRANCH   9  15
ENDBRANCH   6   7
ENDBRANCH   3   6
ENDBRANCH   1   2
BRANCH   1  17
ATOM     17  C   UNL     1      83.979  64.950  75.347  1.00  0.00     0.010 C 
BRANCH  17  18
ATOM     18  C   UNL     1      83.284  64.597  76.691  1.00  0.00     0.001 C 
BRANCH  18  19
ATOM     19  C   UNL     1      82.453  63.288  76.629  1.00  0.00     0.000 C 
BRANCH  19  20
ATOM     20  C   UNL     1      81.203  63.427  75.713  1.00  0.00     0.003 C 
BRANCH  20  21
ATOM     21  C   UNL     1      79.911  63.935  76.433  1.00  0.00    -0.017 C 
ATOM     22  C   UNL     1      78.692  63.028  76.093  1.00  0.00     0.007 C 
ATOM     23  C   UNL     1      79.580  65.420  76.104  1.00  0.00     0.007 C 
ENDBRANCH  20  21
ENDBRANCH  19  20
ENDBRANCH  18  19
ENDBRANCH  17  18
ENDBRANCH   1  17
TORSDOF 10
ENDMDL
