MODEL 1
REMARK VINA RESULT:    -6.202      0.000      0.000
REMARK INTER + INTRA:         -10.968
REMARK INTER:                 -10.010
REMARK INTRA:                  -0.958
REMARK UNBOUND:                -0.958
REMARK SMILES CCCCCCCCC(=O)NCc1ccc(O)c(OC)c1
REMARK SMILES IDX 7 1 6 2 5 3 4 4 3 5 2 6 1 7 8 8 9 9 10 10 11 11 12 13 13 14
REMARK SMILES IDX 21 15 14 16 18 17 15 18 16 19 19 20 20 21 17 22
REMARK H PARENT 11 12 17 23
REMARK Flexibility Score: inf
ROOT
ATOM      1  C   UNL     1      92.596  97.325  76.001  1.00  0.00     0.010 C 
ENDROOT
BRANCH   1   2
ATOM      2  C   UNL     1      92.331  96.179  77.020  1.00  0.00     0.001 C 
BRANCH   2   3
ATOM      3  C   UNL     1      90.887  96.229  77.600  1.00  0.00     0.000 C 
BRANCH   3   4
ATOM      4  C   UNL     1      89.933  95.158  76.999  1.00  0.00    -0.000 C 
BRANCH   4   5
ATOM      5  C   UNL     1      89.728  93.940  77.943  1.00  0.00    -0.000 C 
BRANCH   5   6
ATOM      6  C   UNL     1      90.781  92.823  77.712  1.00  0.00    -0.003 C 
ATOM      7  C   UNL     1      91.099  92.598  76.217  1.00  0.00     0.004 C 
ENDBRANCH   5   6
ENDBRANCH   4   5
ENDBRANCH   3   4
ENDBRANCH   2   3
ENDBRANCH   1   2
BRANCH   1   8
ATOM      8  C   UNL     1      94.077  97.428  75.541  1.00  0.00     0.100 C 
BRANCH   8   9
ATOM      9  C   UNL     1      94.912  98.111  76.558  1.00  0.00     0.220 C 
ATOM     10  O   UNL     1      94.914  99.366  76.581  1.00  0.00    -0.275 OA
ATOM     11  N   UNL     1      95.635  97.388  77.462  1.00  0.00    -0.352 N 
ATOM     12  H   UNL     1      95.630  96.392  77.299  1.00  0.00     0.163 HD
BRANCH  11  13
ATOM     13  C   UNL     1      96.362  97.924  78.572  1.00  0.00     0.151 C 
BRANCH  13  14
ATOM     14  C   UNL     1      95.935  97.382  79.889  1.00  0.00    -0.025 A 
ATOM     15  C   UNL     1      95.475  96.047  79.995  1.00  0.00     0.056 A 
ATOM     16  C   UNL     1      95.975  98.183  81.053  1.00  0.00     0.009 A 
ATOM     17  C   UNL     1      95.082  95.512  81.243  1.00  0.00     0.160 A 
ATOM     18  C   UNL     1      95.587  97.657  82.298  1.00  0.00     0.050 A 
ATOM     19  C   UNL     1      95.133  96.328  82.396  1.00  0.00     0.157 A 
BRANCH  17  20
ATOM     20  O   UNL     1      94.597  94.232  81.336  1.00  0.00    -0.493 OA
ATOM     21  C   UNL     1      95.273  93.284  80.491  1.00  0.00     0.278 C 
ENDBRANCH  17  20
BRANCH  19  22
ATOM     22  O   UNL     1      94.734  95.837  83.598  1.00  0.00    -0.504 OA
ATOM     23  H   UNL     1      93.793  95.648  83.569  1.00  0.00     0.293 HD
ENDBRANCH  19  22
ENDBRANCH  13  14
ENDBRANCH  11  13
ENDBRANCH   8   9
ENDBRANCH   1   8
TORSDOF 11
ENDMDL
MODEL 2
REMARK VINA RESULT:    -5.971      5.429      7.195
REMARK INTER + INTRA:         -10.594
REMARK INTER:                  -9.661
REMARK INTRA:                  -0.934
REMARK UNBOUND:                -0.958
REMARK SMILES CCCCCCCCC(=O)NCc1ccc(O)c(OC)c1
REMARK SMILES IDX 7 1 6 2 5 3 4 4 3 5 2 6 1 7 8 8 9 9 10 10 11 11 12 13 13 14
REMARK SMILES IDX 21 15 14 16 18 17 15 18 16 19 19 20 20 21 17 22
REMARK H PARENT 11 12 17 23
REMARK Flexibility Score: inf
ROOT
ATOM      1  C   UNL     1      89.880  99.966  71.194  1.00  0.00     0.010 C 
ENDROOT
BRANCH   1   2
ATOM      2  C   UNL     1      89.273  98.534  71.240  1.00  0.00     0.001 C 
BRANCH   2   3
ATOM      3  C   UNL     1      89.773  97.644  70.064  1.00  0.00     0.000 C 
BRANCH   3   4
ATOM      4  C   UNL     1      88.778  97.564  68.871  1.00  0.00    -0.000 C 
BRANCH   4   5
ATOM      5  C   UNL     1      89.035  98.663  67.802  1.00  0.00    -0.000 C 
BRANCH   5   6
ATOM      6  C   UNL     1      88.069  99.870  67.943  1.00  0.00    -0.003 C 
ATOM      7  C   UNL     1      88.796 101.232  67.883  1.00  0.00     0.004 C 
ENDBRANCH   5   6
ENDBRANCH   4   5
ENDBRANCH   3   4
ENDBRANCH   2   3
ENDBRANCH   1   2
BRANCH   1   8
ATOM      8  C   UNL     1      91.434  99.991  71.220  1.00  0.00     0.100 C 
BRANCH   8   9
ATOM      9  C   UNL     1      91.946 100.332  72.570  1.00  0.00     0.220 C 
ATOM     10  O   UNL     1      91.841 101.518  72.963  1.00  0.00    -0.275 OA
ATOM     11  N   UNL     1      92.488  99.368  73.370  1.00  0.00    -0.352 N 
ATOM     12  H   UNL     1      92.603  98.470  72.923  1.00  0.00     0.163 HD
BRANCH  11  13
ATOM     13  C   UNL     1      92.885  99.540  74.734  1.00  0.00     0.151 C 
BRANCH  13  14
ATOM     14  C   UNL     1      93.376  98.293  75.379  1.00  0.00    -0.025 A 
ATOM     15  C   UNL     1      92.457  97.328  75.857  1.00  0.00     0.056 A 
ATOM     16  C   UNL     1      94.761  98.050  75.531  1.00  0.00     0.009 A 
ATOM     17  C   UNL     1      92.910  96.130  76.457  1.00  0.00     0.160 A 
ATOM     18  C   UNL     1      95.217  96.861  76.126  1.00  0.00     0.050 A 
ATOM     19  C   UNL     1      94.298  95.903  76.596  1.00  0.00     0.157 A 
BRANCH  17  20
ATOM     20  O   UNL     1      92.018  95.216  76.957  1.00  0.00    -0.493 OA
ATOM     21  C   UNL     1      90.888  95.801  77.628  1.00  0.00     0.278 C 
ENDBRANCH  17  20
BRANCH  19  22
ATOM     22  O   UNL     1      94.748  94.771  77.193  1.00  0.00    -0.504 OA
ATOM     23  H   UNL     1      95.171  94.994  78.026  1.00  0.00     0.293 HD
ENDBRANCH  19  22
ENDBRANCH  13  14
ENDBRANCH  11  13
ENDBRANCH   8   9
ENDBRANCH   1   8
TORSDOF 11
ENDMDL
MODEL 3
REMARK VINA RESULT:    -5.879      5.865      9.647
REMARK INTER + INTRA:         -10.445
REMARK INTER:                  -9.947
REMARK INTRA:                  -0.499
REMARK UNBOUND:                -0.958
REMARK SMILES CCCCCCCCC(=O)NCc1ccc(O)c(OC)c1
REMARK SMILES IDX 7 1 6 2 5 3 4 4 3 5 2 6 1 7 8 8 9 9 10 10 11 11 12 13 13 14
REMARK SMILES IDX 21 15 14 16 18 17 15 18 16 19 19 20 20 21 17 22
REMARK H PARENT 11 12 17 23
REMARK Flexibility Score: inf
ROOT
ATOM      1  C   UNL     1      92.944  98.452  75.148  1.00  0.00     0.010 C 
ENDROOT
BRANCH   1   2
ATOM      2  C   UNL     1      93.523  97.079  75.595  1.00  0.00     0.001 C 
BRANCH   2   3
ATOM      3  C   UNL     1      92.926  96.601  76.952  1.00  0.00     0.000 C 
BRANCH   3   4
ATOM      4  C   UNL     1      92.038  95.330  76.833  1.00  0.00    -0.000 C 
BRANCH   4   5
ATOM      5  C   UNL     1      91.164  95.088  78.096  1.00  0.00    -0.000 C 
BRANCH   5   6
ATOM      6  C   UNL     1      90.713  93.609  78.235  1.00  0.00    -0.003 C 
ATOM      7  C   UNL     1      89.177  93.446  78.220  1.00  0.00     0.004 C 
ENDBRANCH   5   6
ENDBRANCH   4   5
ENDBRANCH   3   4
ENDBRANCH   2   3
ENDBRANCH   1   2
BRANCH   1   8
ATOM      8  C   UNL     1      93.946  99.326  74.343  1.00  0.00     0.100 C 
BRANCH   8   9
ATOM      9  C   UNL     1      93.240 100.232  73.406  1.00  0.00     0.220 C 
ATOM     10  O   UNL     1      93.834 101.266  73.017  1.00  0.00    -0.275 OA
ATOM     11  N   UNL     1      91.987  99.928  72.958  1.00  0.00    -0.352 N 
ATOM     12  H   UNL     1      91.570  99.121  73.399  1.00  0.00     0.163 HD
BRANCH  11  13
ATOM     13  C   UNL     1      91.263 100.642  71.951  1.00  0.00     0.151 C 
BRANCH  13  14
ATOM     14  C   UNL     1      90.402  99.776  71.101  1.00  0.00    -0.025 A 
ATOM     15  C   UNL     1      89.796 100.301  69.935  1.00  0.00     0.056 A 
ATOM     16  C   UNL     1      90.172  98.423  71.441  1.00  0.00     0.009 A 
ATOM     17  C   UNL     1      88.989  99.485  69.108  1.00  0.00     0.160 A 
ATOM     18  C   UNL     1      89.372  97.606  70.622  1.00  0.00     0.050 A 
ATOM     19  C   UNL     1      88.774  98.134  69.461  1.00  0.00     0.157 A 
BRANCH  17  20
ATOM     20  O   UNL     1      88.368 100.006  68.001  1.00  0.00    -0.493 OA
ATOM     21  C   UNL     1      88.869 101.292  67.595  1.00  0.00     0.278 C 
ENDBRANCH  17  20
BRANCH  19  22
ATOM     22  O   UNL     1      87.981  97.345  68.692  1.00  0.00    -0.504 OA
ATOM     23  H   UNL     1      88.412  97.182  67.850  1.00  0.00     0.293 HD
ENDBRANCH  19  22
ENDBRANCH  13  14
ENDBRANCH  11  13
ENDBRANCH   8   9
ENDBRANCH   1   8
TORSDOF 11
ENDMDL
MODEL 4
REMARK VINA RESULT:    -5.656     13.396     15.301
REMARK INTER + INTRA:         -10.087
REMARK INTER:                  -9.317
REMARK INTRA:                  -0.769
REMARK UNBOUND:                -0.958
REMARK SMILES CCCCCCCCC(=O)NCc1ccc(O)c(OC)c1
REMARK SMILES IDX 7 1 6 2 5 3 4 4 3 5 2 6 1 7 8 8 9 9 10 10 11 11 12 13 13 14
REMARK SMILES IDX 21 15 14 16 18 17 15 18 16 19 19 20 20 21 17 22
REMARK H PARENT 11 12 17 23
REMARK Flexibility Score: inf
ROOT
ATOM      1  C   UNL     1      97.455  82.503  84.500  1.00  0.00     0.010 C 
ENDROOT
BRANCH   1   2
ATOM      2  C   UNL     1      96.837  83.930  84.450  1.00  0.00     0.001 C 
BRANCH   2   3
ATOM      3  C   UNL     1      97.531  84.906  85.445  1.00  0.00     0.000 C 
BRANCH   3   4
ATOM      4  C   UNL     1      96.960  84.838  86.890  1.00  0.00    -0.000 C 
BRANCH   4   5
ATOM      5  C   UNL     1      95.405  84.849  86.922  1.00  0.00    -0.000 C 
BRANCH   5   6
ATOM      6  C   UNL     1      94.839  85.688  88.100  1.00  0.00    -0.003 C 
ATOM      7  C   UNL     1      93.510  85.128  88.652  1.00  0.00     0.004 C 
ENDBRANCH   5   6
ENDBRANCH   4   5
ENDBRANCH   3   4
ENDBRANCH   2   3
ENDBRANCH   1   2
BRANCH   1   8
ATOM      8  C   UNL     1      98.980  82.487  84.797  1.00  0.00     0.100 C 
BRANCH   8   9
ATOM      9  C   UNL     1      99.763  82.147  83.584  1.00  0.00     0.220 C 
ATOM     10  O   UNL     1     100.553  81.174  83.639  1.00  0.00    -0.275 OA
ATOM     11  N   UNL     1      99.602  82.861  82.432  1.00  0.00    -0.352 N 
ATOM     12  H   UNL     1      99.009  83.673  82.523  1.00  0.00     0.163 HD
BRANCH  11  13
ATOM     13  C   UNL     1     100.189  82.546  81.165  1.00  0.00     0.151 C 
BRANCH  13  14
ATOM     14  C   UNL     1      99.346  82.928  80.001  1.00  0.00    -0.025 A 
ATOM     15  C   UNL     1      99.908  82.988  78.703  1.00  0.00     0.056 A 
ATOM     16  C   UNL     1      97.976  83.239  80.166  1.00  0.00     0.009 A 
ATOM     17  C   UNL     1      99.115  83.332  77.584  1.00  0.00     0.160 A 
ATOM     18  C   UNL     1      97.182  83.580  79.057  1.00  0.00     0.050 A 
ATOM     19  C   UNL     1      97.747  83.635  77.768  1.00  0.00     0.157 A 
BRANCH  17  20
ATOM     20  O   UNL     1      99.671  83.430  76.334  1.00  0.00    -0.493 OA
ATOM     21  C   UNL     1     101.033  83.896  76.330  1.00  0.00     0.278 C 
ENDBRANCH  17  20
BRANCH  19  22
ATOM     22  O   UNL     1      96.978  83.993  76.708  1.00  0.00    -0.504 OA
ATOM     23  H   UNL     1      97.337  84.789  76.307  1.00  0.00     0.293 HD
ENDBRANCH  19  22
ENDBRANCH  13  14
ENDBRANCH  11  13
ENDBRANCH   8   9
ENDBRANCH   1   8
TORSDOF 11
ENDMDL
MODEL 5
REMARK VINA RESULT:    -5.597     22.100     24.790
REMARK INTER + INTRA:          -9.990
REMARK INTER:                  -9.045
REMARK INTRA:                  -0.946
REMARK UNBOUND:                -0.958
REMARK SMILES CCCCCCCCC(=O)NCc1ccc(O)c(OC)c1
REMARK SMILES IDX 7 1 6 2 5 3 4 4 3 5 2 6 1 7 8 8 9 9 10 10 11 11 12 13 13 14
REMARK SMILES IDX 21 15 14 16 18 17 15 18 16 19 19 20 20 21 17 22
REMARK H PARENT 11 12 17 23
REMARK Flexibility Score: inf
ROOT
ATOM      1  C   UNL     1      76.359  87.930  67.974  1.00  0.00     0.010 C 
ENDROOT
BRANCH   1   2
ATOM      2  C   UNL     1      76.682  87.688  69.477  1.00  0.00     0.001 C 
BRANCH   2   3
ATOM      3  C   UNL     1      75.493  88.074  70.404  1.00  0.00     0.000 C 
BRANCH   3   4
ATOM      4  C   UNL     1      74.465  86.927  70.616  1.00  0.00    -0.000 C 
BRANCH   4   5
ATOM      5  C   UNL     1      74.952  85.570  70.034  1.00  0.00    -0.000 C 
BRANCH   5   6
ATOM      6  C   UNL     1      75.647  84.679  71.100  1.00  0.00    -0.003 C 
ATOM      7  C   UNL     1      77.082  84.273  70.699  1.00  0.00     0.004 C 
ENDBRANCH   5   6
ENDBRANCH   4   5
ENDBRANCH   3   4
ENDBRANCH   2   3
ENDBRANCH   1   2
BRANCH   1   8
ATOM      8  C   UNL     1      77.567  87.691  67.024  1.00  0.00     0.100 C 
BRANCH   8   9
ATOM      9  C   UNL     1      77.515  86.340  66.415  1.00  0.00     0.220 C 
ATOM     10  O   UNL     1      77.199  86.245  65.205  1.00  0.00    -0.275 OA
ATOM     11  N   UNL     1      77.832  85.235  67.150  1.00  0.00    -0.352 N 
ATOM     12  H   UNL     1      77.986  85.416  68.131  1.00  0.00     0.163 HD
BRANCH  11  13
ATOM     13  C   UNL     1      77.956  83.902  66.644  1.00  0.00     0.151 C 
BRANCH  13  14
ATOM     14  C   UNL     1      76.655  83.206  66.458  1.00  0.00    -0.025 A 
ATOM     15  C   UNL     1      75.451  83.824  66.872  1.00  0.00     0.056 A 
ATOM     16  C   UNL     1      76.595  81.921  65.871  1.00  0.00     0.009 A 
ATOM     17  C   UNL     1      74.205  83.183  66.685  1.00  0.00     0.160 A 
ATOM     18  C   UNL     1      75.359  81.278  65.681  1.00  0.00     0.050 A 
ATOM     19  C   UNL     1      74.165  81.900  66.093  1.00  0.00     0.157 A 
BRANCH  17  20
ATOM     20  O   UNL     1      73.043  83.765  67.125  1.00  0.00    -0.493 OA
ATOM     21  C   UNL     1      72.547  84.810  66.269  1.00  0.00     0.278 C 
ENDBRANCH  17  20
BRANCH  19  22
ATOM     22  O   UNL     1      72.979  81.259  65.931  1.00  0.00    -0.504 OA
ATOM     23  H   UNL     1      73.058  80.614  65.224  1.00  0.00     0.293 HD
ENDBRANCH  19  22
ENDBRANCH  13  14
ENDBRANCH  11  13
ENDBRANCH   8   9
ENDBRANCH   1   8
TORSDOF 11
ENDMDL
MODEL 6
REMARK VINA RESULT:    -5.348     31.836     34.860
REMARK INTER + INTRA:          -9.590
REMARK INTER:                  -7.920
REMARK INTRA:                  -1.669
REMARK UNBOUND:                -0.958
REMARK SMILES CCCCCCCCC(=O)NCc1ccc(O)c(OC)c1
REMARK SMILES IDX 7 1 6 2 5 3 4 4 3 5 2 6 1 7 8 8 9 9 10 10 11 11 12 13 13 14
REMARK SMILES IDX 21 15 14 16 18 17 15 18 16 19 19 20 20 21 17 22
REMARK H PARENT 11 12 17 23
REMARK Flexibility Score: inf
ROOT
ATOM      1  C   UNL     1      61.617  84.586  74.138  1.00  0.00     0.010 C 
ENDROOT
BRANCH   1   2
ATOM      2  C   UNL     1      61.562  83.063  74.450  1.00  0.00     0.001 C 
BRANCH   2   3
ATOM      3  C   UNL     1      62.973  82.467  74.725  1.00  0.00     0.000 C 
BRANCH   3   4
ATOM      4  C   UNL     1      63.344  81.278  73.793  1.00  0.00    -0.000 C 
BRANCH   4   5
ATOM      5  C   UNL     1      63.207  81.633  72.285  1.00  0.00    -0.000 C 
BRANCH   5   6
ATOM      6  C   UNL     1      64.426  82.430  71.747  1.00  0.00    -0.003 C 
ATOM      7  C   UNL     1      65.424  81.547  70.967  1.00  0.00     0.004 C 
ENDBRANCH   5   6
ENDBRANCH   4   5
ENDBRANCH   3   4
ENDBRANCH   2   3
ENDBRANCH   1   2
BRANCH   1   8
ATOM      8  C   UNL     1      60.285  85.164  73.583  1.00  0.00     0.100 C 
BRANCH   8   9
ATOM      9  C   UNL     1      60.024  84.689  72.203  1.00  0.00     0.220 C 
ATOM     10  O   UNL     1      58.862  84.317  71.911  1.00  0.00    -0.275 OA
ATOM     11  N   UNL     1      61.021  84.686  71.270  1.00  0.00    -0.352 N 
ATOM     12  H   UNL     1      61.933  84.921  71.633  1.00  0.00     0.163 HD
BRANCH  11  13
ATOM     13  C   UNL     1      60.864  84.387  69.879  1.00  0.00     0.151 C 
BRANCH  13  14
ATOM     14  C   UNL     1      62.127  83.985  69.204  1.00  0.00    -0.025 A 
ATOM     15  C   UNL     1      63.228  84.873  69.164  1.00  0.00     0.056 A 
ATOM     16  C   UNL     1      62.250  82.717  68.589  1.00  0.00     0.009 A 
ATOM     17  C   UNL     1      64.440  84.498  68.541  1.00  0.00     0.160 A 
ATOM     18  C   UNL     1      63.453  82.337  67.969  1.00  0.00     0.050 A 
ATOM     19  C   UNL     1      64.546  83.225  67.936  1.00  0.00     0.157 A 
BRANCH  17  20
ATOM     20  O   UNL     1      65.492  85.376  68.467  1.00  0.00    -0.493 OA
ATOM     21  C   UNL     1      65.721  86.124  69.675  1.00  0.00     0.278 C 
ENDBRANCH  17  20
BRANCH  19  22
ATOM     22  O   UNL     1      65.694  82.860  67.311  1.00  0.00    -0.504 OA
ATOM     23  H   UNL     1      65.568  82.901  66.360  1.00  0.00     0.293 HD
ENDBRANCH  19  22
ENDBRANCH  13  14
ENDBRANCH  11  13
ENDBRANCH   8   9
ENDBRANCH   1   8
TORSDOF 11
ENDMDL
MODEL 7
REMARK VINA RESULT:    -5.331      5.787      8.204
REMARK INTER + INTRA:          -9.563
REMARK INTER:                  -8.335
REMARK INTRA:                  -1.228
REMARK UNBOUND:                -0.958
REMARK SMILES CCCCCCCCC(=O)NCc1ccc(O)c(OC)c1
REMARK SMILES IDX 7 1 6 2 5 3 4 4 3 5 2 6 1 7 8 8 9 9 10 10 11 11 12 13 13 14
REMARK SMILES IDX 21 15 14 16 18 17 15 18 16 19 19 20 20 21 17 22
REMARK H PARENT 11 12 17 23
REMARK Flexibility Score: inf
ROOT
ATOM      1  C   UNL     1      89.431 100.159  71.371  1.00  0.00     0.010 C 
ENDROOT
BRANCH   1   2
ATOM      2  C   UNL     1      90.078  98.766  71.120  1.00  0.00     0.001 C 
BRANCH   2   3
ATOM      3  C   UNL     1      89.121  97.800  70.361  1.00  0.00     0.000 C 
BRANCH   3   4
ATOM      4  C   UNL     1      89.604  97.438  68.928  1.00  0.00    -0.000 C 
BRANCH   4   5
ATOM      5  C   UNL     1      88.827  98.205  67.821  1.00  0.00    -0.000 C 
BRANCH   5   6
ATOM      6  C   UNL     1      89.397  99.627  67.569  1.00  0.00    -0.003 C 
ATOM      7  C   UNL     1      88.385 100.746  67.900  1.00  0.00     0.004 C 
ENDBRANCH   5   6
ENDBRANCH   4   5
ENDBRANCH   3   4
ENDBRANCH   2   3
ENDBRANCH   1   2
BRANCH   1   8
ATOM      8  C   UNL     1      90.327 101.355  70.945  1.00  0.00     0.100 C 
BRANCH   8   9
ATOM      9  C   UNL     1      91.651 101.302  71.611  1.00  0.00     0.220 C 
ATOM     10  O   UNL     1      92.675 101.214  70.893  1.00  0.00    -0.275 OA
ATOM     11  N   UNL     1      91.747 101.375  72.971  1.00  0.00    -0.352 N 
ATOM     12  H   UNL     1      90.860 101.356  73.454  1.00  0.00     0.163 HD
BRANCH  11  13
ATOM     13  C   UNL     1      92.962 101.476  73.719  1.00  0.00     0.151 C 
BRANCH  13  14
ATOM     14  C   UNL     1      93.503 100.164  74.167  1.00  0.00    -0.025 A 
ATOM     15  C   UNL     1      94.775  99.729  73.724  1.00  0.00     0.056 A 
ATOM     16  C   UNL     1      92.760  99.331  75.035  1.00  0.00     0.009 A 
ATOM     17  C   UNL     1      95.309  98.493  74.155  1.00  0.00     0.160 A 
ATOM     18  C   UNL     1      93.286  98.101  75.468  1.00  0.00     0.050 A 
ATOM     19  C   UNL     1      94.554  97.675  75.026  1.00  0.00     0.157 A 
BRANCH  17  20
ATOM     20  O   UNL     1      96.523  98.054  73.692  1.00  0.00    -0.493 OA
ATOM     21  C   UNL     1      96.533  97.719  72.293  1.00  0.00     0.278 C 
ENDBRANCH  17  20
BRANCH  19  22
ATOM     22  O   UNL     1      95.041  96.473  75.428  1.00  0.00    -0.504 OA
ATOM     23  H   UNL     1      95.941  96.370  75.109  1.00  0.00     0.293 HD
ENDBRANCH  19  22
ENDBRANCH  13  14
ENDBRANCH  11  13
ENDBRANCH   8   9
ENDBRANCH   1   8
TORSDOF 11
ENDMDL
MODEL 8
REMARK VINA RESULT:    -5.263     17.480     20.684
REMARK INTER + INTRA:          -9.452
REMARK INTER:                  -8.618
REMARK INTRA:                  -0.834
REMARK UNBOUND:                -0.958
REMARK SMILES CCCCCCCCC(=O)NCc1ccc(O)c(OC)c1
REMARK SMILES IDX 7 1 6 2 5 3 4 4 3 5 2 6 1 7 8 8 9 9 10 10 11 11 12 13 13 14
REMARK SMILES IDX 21 15 14 16 18 17 15 18 16 19 19 20 20 21 17 22
REMARK H PARENT 11 12 17 23
REMARK Flexibility Score: inf
ROOT
ATOM      1  C   UNL     1      74.177  87.133  70.261  1.00  0.00     0.010 C 
ENDROOT
BRANCH   1   2
ATOM      2  C   UNL     1      74.668  85.749  69.747  1.00  0.00     0.001 C 
BRANCH   2   3
ATOM      3  C   UNL     1      75.553  85.011  70.795  1.00  0.00     0.000 C 
BRANCH   3   4
ATOM      4  C   UNL     1      76.873  84.437  70.207  1.00  0.00    -0.000 C 
BRANCH   4   5
ATOM      5  C   UNL     1      77.855  85.549  69.740  1.00  0.00    -0.000 C 
BRANCH   5   6
ATOM      6  C   UNL     1      78.266  85.394  68.251  1.00  0.00    -0.003 C 
ATOM      7  C   UNL     1      78.129  83.943  67.739  1.00  0.00     0.004 C 
ENDBRANCH   5   6
ENDBRANCH   4   5
ENDBRANCH   3   4
ENDBRANCH   2   3
ENDBRANCH   1   2
BRANCH   1   8
ATOM      8  C   UNL     1      75.326  88.103  70.654  1.00  0.00     0.100 C 
BRANCH   8   9
ATOM      9  C   UNL     1      74.810  89.461  70.949  1.00  0.00     0.220 C 
ATOM     10  O   UNL     1      73.656  89.568  71.430  1.00  0.00    -0.275 OA
ATOM     11  N   UNL     1      75.586  90.562  70.726  1.00  0.00    -0.352 N 
ATOM     12  H   UNL     1      76.459  90.370  70.258  1.00  0.00     0.163 HD
BRANCH  11  13
ATOM     13  C   UNL     1      75.258  91.905  71.098  1.00  0.00     0.151 C 
BRANCH  13  14
ATOM     14  C   UNL     1      75.984  92.389  72.303  1.00  0.00    -0.025 A 
ATOM     15  C   UNL     1      75.298  92.554  73.529  1.00  0.00     0.056 A 
ATOM     16  C   UNL     1      77.363  92.696  72.246  1.00  0.00     0.009 A 
ATOM     17  C   UNL     1      75.978  92.998  74.687  1.00  0.00     0.160 A 
ATOM     18  C   UNL     1      78.046  93.136  73.394  1.00  0.00     0.050 A 
ATOM     19  C   UNL     1      77.358  93.295  74.612  1.00  0.00     0.157 A 
BRANCH  17  20
ATOM     20  O   UNL     1      75.302  93.197  75.864  1.00  0.00    -0.493 OA
ATOM     21  C   UNL     1      74.094  92.427  75.988  1.00  0.00     0.278 C 
ENDBRANCH  17  20
BRANCH  19  22
ATOM     22  O   UNL     1      78.019  93.747  75.708  1.00  0.00    -0.504 OA
ATOM     23  H   UNL     1      77.595  93.408  76.500  1.00  0.00     0.293 HD
ENDBRANCH  19  22
ENDBRANCH  13  14
ENDBRANCH  11  13
ENDBRANCH   8   9
ENDBRANCH   1   8
TORSDOF 11
ENDMDL
MODEL 9
REMARK VINA RESULT:    -5.261     19.104     23.117
REMARK INTER + INTRA:          -9.449
REMARK INTER:                  -8.820
REMARK INTRA:                  -0.629
REMARK UNBOUND:                -0.958
REMARK SMILES CCCCCCCCC(=O)NCc1ccc(O)c(OC)c1
REMARK SMILES IDX 7 1 6 2 5 3 4 4 3 5 2 6 1 7 8 8 9 9 10 10 11 11 12 13 13 14
REMARK SMILES IDX 21 15 14 16 18 17 15 18 16 19 19 20 20 21 17 22
REMARK H PARENT 11 12 17 23
REMARK Flexibility Score: inf
ROOT
ATOM      1  C   UNL     1      74.919  89.197  70.709  1.00  0.00     0.010 C 
ENDROOT
BRANCH   1   2
ATOM      2  C   UNL     1      74.081  89.962  71.773  1.00  0.00     0.001 C 
BRANCH   2   3
ATOM      3  C   UNL     1      74.539  91.442  71.931  1.00  0.00     0.000 C 
BRANCH   3   4
ATOM      4  C   UNL     1      75.942  91.732  71.328  1.00  0.00    -0.000 C 
BRANCH   4   5
ATOM      5  C   UNL     1      76.606  93.001  71.935  1.00  0.00    -0.000 C 
BRANCH   5   6
ATOM      6  C   UNL     1      77.843  92.665  72.810  1.00  0.00    -0.003 C 
ATOM      7  C   UNL     1      77.696  93.150  74.269  1.00  0.00     0.004 C 
ENDBRANCH   5   6
ENDBRANCH   4   5
ENDBRANCH   3   4
ENDBRANCH   2   3
ENDBRANCH   1   2
BRANCH   1   8
ATOM      8  C   UNL     1      74.704  87.658  70.724  1.00  0.00     0.100 C 
BRANCH   8   9
ATOM      9  C   UNL     1      75.905  86.939  70.236  1.00  0.00     0.220 C 
ATOM     10  O   UNL     1      76.852  87.614  69.765  1.00  0.00    -0.275 OA
ATOM     11  N   UNL     1      75.985  85.579  70.326  1.00  0.00    -0.352 N 
ATOM     12  H   UNL     1      75.136  85.131  70.638  1.00  0.00     0.163 HD
BRANCH  11  13
ATOM     13  C   UNL     1      77.138  84.788  70.022  1.00  0.00     0.151 C 
BRANCH  13  14
ATOM     14  C   UNL     1      77.187  84.312  68.614  1.00  0.00    -0.025 A 
ATOM     15  C   UNL     1      76.041  83.733  68.017  1.00  0.00     0.056 A 
ATOM     16  C   UNL     1      78.371  84.424  67.850  1.00  0.00     0.009 A 
ATOM     17  C   UNL     1      76.068  83.293  66.674  1.00  0.00     0.160 A 
ATOM     18  C   UNL     1      78.404  83.989  66.513  1.00  0.00     0.050 A 
ATOM     19  C   UNL     1      77.260  83.417  65.925  1.00  0.00     0.157 A 
BRANCH  17  20
ATOM     20  O   UNL     1      74.969  82.694  66.111  1.00  0.00    -0.493 OA
ATOM     21  C   UNL     1      73.730  83.378  66.365  1.00  0.00     0.278 C 
ENDBRANCH  17  20
BRANCH  19  22
ATOM     22  O   UNL     1      77.309  82.974  64.642  1.00  0.00    -0.504 OA
ATOM     23  H   UNL     1      77.918  82.234  64.583  1.00  0.00     0.293 HD
ENDBRANCH  19  22
ENDBRANCH  13  14
ENDBRANCH  11  13
ENDBRANCH   8   9
ENDBRANCH   1   8
TORSDOF 11
ENDMDL
MODEL 10
REMARK VINA RESULT:    -5.197     13.348     15.832
REMARK INTER + INTRA:          -9.346
REMARK INTER:                  -8.508
REMARK INTRA:                  -0.838
REMARK UNBOUND:                -0.958
REMARK SMILES CCCCCCCCC(=O)NCc1ccc(O)c(OC)c1
REMARK SMILES IDX 7 1 6 2 5 3 4 4 3 5 2 6 1 7 8 8 9 9 10 10 11 11 12 13 13 14
REMARK SMILES IDX 21 15 14 16 18 17 15 18 16 19 19 20 20 21 17 22
REMARK H PARENT 11 12 17 23
REMARK Flexibility Score: inf
ROOT
ATOM      1  C   UNL     1      98.077  80.952  85.229  1.00  0.00     0.010 C 
ENDROOT
BRANCH   1   2
ATOM      2  C   UNL     1      96.879  80.196  85.874  1.00  0.00     0.001 C 
BRANCH   2   3
ATOM      3  C   UNL     1      96.033  81.117  86.801  1.00  0.00     0.000 C 
BRANCH   3   4
ATOM      4  C   UNL     1      95.525  82.411  86.105  1.00  0.00    -0.000 C 
BRANCH   4   5
ATOM      5  C   UNL     1      95.560  83.651  87.042  1.00  0.00    -0.000 C 
BRANCH   5   6
ATOM      6  C   UNL     1      96.609  84.706  86.596  1.00  0.00    -0.003 C 
ATOM      7  C   UNL     1      96.821  84.731  85.067  1.00  0.00     0.004 C 
ENDBRANCH   5   6
ENDBRANCH   4   5
ENDBRANCH   3   4
ENDBRANCH   2   3
ENDBRANCH   1   2
BRANCH   1   8
ATOM      8  C   UNL     1      98.404  80.492  83.780  1.00  0.00     0.100 C 
BRANCH   8   9
ATOM      9  C   UNL     1      98.967  81.603  82.976  1.00  0.00     0.220 C 
ATOM     10  O   UNL     1      99.067  82.733  83.510  1.00  0.00    -0.275 OA
ATOM     11  N   UNL     1      99.392  81.387  81.696  1.00  0.00    -0.352 N 
ATOM     12  H   UNL     1      99.186  80.466  81.338  1.00  0.00     0.163 HD
BRANCH  11  13
ATOM     13  C   UNL     1     100.078  82.334  80.872  1.00  0.00     0.151 C 
BRANCH  13  14
ATOM     14  C   UNL     1      99.265  82.842  79.735  1.00  0.00    -0.025 A 
ATOM     15  C   UNL     1      99.846  82.986  78.452  1.00  0.00     0.056 A 
ATOM     16  C   UNL     1      97.906  83.191  79.912  1.00  0.00     0.009 A 
ATOM     17  C   UNL     1      99.081  83.451  77.358  1.00  0.00     0.160 A 
ATOM     18  C   UNL     1      97.139  83.653  78.827  1.00  0.00     0.050 A 
ATOM     19  C   UNL     1      97.723  83.791  77.553  1.00  0.00     0.157 A 
BRANCH  17  20
ATOM     20  O   UNL     1      99.657  83.630  76.125  1.00  0.00    -0.493 OA
ATOM     21  C   UNL     1     100.372  82.482  75.637  1.00  0.00     0.278 C 
ENDBRANCH  17  20
BRANCH  19  22
ATOM     22  O   UNL     1      96.982  84.264  76.518  1.00  0.00    -0.504 OA
ATOM     23  H   UNL     1      97.006  85.224  76.520  1.00  0.00     0.293 HD
ENDBRANCH  19  22
ENDBRANCH  13  14
ENDBRANCH  11  13
ENDBRANCH   8   9
ENDBRANCH   1   8
TORSDOF 11
ENDMDL
