MODEL 1
REMARK VINA RESULT:    -6.967      0.000      0.000
REMARK INTER + INTRA:         -12.757
REMARK INTER:                 -11.244
REMARK INTRA:                  -1.513
REMARK UNBOUND:                -1.513
REMARK SMILES COc1cc(CNC(=O)CCCCC/C=C/C(C)C)ccc1O
REMARK SMILES IDX 11 1 10 2 8 3 7 4 9 6 6 7 5 8 3 9 22 10 4 11 21 12 20 13
REMARK SMILES IDX 2 14 1 15 23 16 12 18 13 19 14 20 15 21 16 22 17 23 18 24
REMARK SMILES IDX 19 25
REMARK H PARENT 7 5 23 17
REMARK Flexibility Score: inf
ROOT
ATOM      1  C   UNL     1      90.556  91.495  77.904  1.00  0.00     0.010 C 
ENDROOT
BRANCH   1   2
ATOM      2  C   UNL     1      89.615  92.643  77.458  1.00  0.00     0.100 C 
BRANCH   2   3
ATOM      3  C   UNL     1      90.285  93.698  76.675  1.00  0.00     0.220 C 
ATOM      4  N   UNL     1      91.591  93.553  76.319  1.00  0.00    -0.352 N 
ATOM      5  H   UNL     1      92.041  92.730  76.696  1.00  0.00     0.163 HD
ATOM      6  O   UNL     1      89.612  94.695  76.321  1.00  0.00    -0.275 OA
BRANCH   4   7
ATOM      7  C   UNL     1      92.328  94.446  75.486  1.00  0.00     0.151 C 
BRANCH   7   8
ATOM      8  C   UNL     1      93.712  94.675  75.977  1.00  0.00    -0.025 A 
ATOM      9  C   UNL     1      95.432  94.417  77.716  1.00  0.00     0.160 A 
ATOM     10  C   UNL     1      96.337  95.162  76.930  1.00  0.00     0.157 A 
ATOM     11  C   UNL     1      94.125  94.187  77.239  1.00  0.00     0.056 A 
ATOM     12  C   UNL     1      95.943  95.638  75.666  1.00  0.00     0.050 A 
ATOM     13  C   UNL     1      94.643  95.387  75.188  1.00  0.00     0.009 A 
BRANCH   9  14
ATOM     14  O   UNL     1      95.833  93.875  78.908  1.00  0.00    -0.493 OA
ATOM     15  C   UNL     1      95.376  94.596  80.065  1.00  0.00     0.278 C 
ENDBRANCH   9  14
BRANCH  10  16
ATOM     16  O   UNL     1      97.594  95.430  77.365  1.00  0.00    -0.504 OA
ATOM     17  H   UNL     1      97.716  96.381  77.424  1.00  0.00     0.293 HD
ENDBRANCH  10  16
ENDBRANCH   7   8
ENDBRANCH   4   7
ENDBRANCH   2   3
ENDBRANCH   1   2
BRANCH   1  18
ATOM     18  C   UNL     1      89.893  90.111  77.688  1.00  0.00     0.001 C 
BRANCH  18  19
ATOM     19  C   UNL     1      89.760  89.710  76.197  1.00  0.00     0.004 C 
BRANCH  19  20
ATOM     20  C   UNL     1      91.018  90.125  75.384  1.00  0.00     0.027 C 
BRANCH  20  21
ATOM     21  C   UNL     1      90.711  90.705  74.088  1.00  0.00    -0.031 C 
ATOM     22  C   UNL     1      89.617  91.459  73.879  1.00  0.00    -0.028 C 
BRANCH  22  23
ATOM     23  C   UNL     1      89.283  92.061  72.590  1.00  0.00     0.005 C 
ATOM     24  C   UNL     1      89.484  93.599  72.647  1.00  0.00     0.012 C 
ATOM     25  C   UNL     1      90.113  91.399  71.457  1.00  0.00     0.012 C 
ENDBRANCH  22  23
ENDBRANCH  20  21
ENDBRANCH  19  20
ENDBRANCH  18  19
ENDBRANCH   1  18
TORSDOF 11
ENDMDL
MODEL 2
REMARK VINA RESULT:    -6.679      2.481      7.870
REMARK INTER + INTRA:         -12.293
REMARK INTER:                 -11.276
REMARK INTRA:                  -1.017
REMARK UNBOUND:                -1.513
REMARK SMILES COc1cc(CNC(=O)CCCCC/C=C/C(C)C)ccc1O
REMARK SMILES IDX 11 1 10 2 8 3 7 4 9 6 6 7 5 8 3 9 22 10 4 11 21 12 20 13
REMARK SMILES IDX 2 14 1 15 23 16 12 18 13 19 14 20 15 21 16 22 17 23 18 24
REMARK SMILES IDX 19 25
REMARK H PARENT 7 5 23 17
REMARK Flexibility Score: inf
ROOT
ATOM      1  C   UNL     1      93.323  94.032  76.162  1.00  0.00     0.010 C 
ENDROOT
BRANCH   1   2
ATOM      2  C   UNL     1      92.010  94.774  76.521  1.00  0.00     0.100 C 
BRANCH   2   3
ATOM      3  C   UNL     1      90.837  93.890  76.649  1.00  0.00     0.220 C 
ATOM      4  N   UNL     1      90.961  92.684  77.270  1.00  0.00    -0.352 N 
ATOM      5  H   UNL     1      91.904  92.447  77.544  1.00  0.00     0.163 HD
ATOM      6  O   UNL     1      89.734  94.296  76.212  1.00  0.00    -0.275 OA
BRANCH   4   7
ATOM      7  C   UNL     1      89.893  91.779  77.546  1.00  0.00     0.151 C 
BRANCH   7   8
ATOM      8  C   UNL     1      90.022  90.499  76.804  1.00  0.00    -0.025 A 
ATOM      9  C   UNL     1      90.186  89.267  74.682  1.00  0.00     0.160 A 
ATOM     10  C   UNL     1      90.215  88.047  75.393  1.00  0.00     0.157 A 
ATOM     11  C   UNL     1      90.081  90.481  75.391  1.00  0.00     0.056 A 
ATOM     12  C   UNL     1      90.174  88.054  76.799  1.00  0.00     0.050 A 
ATOM     13  C   UNL     1      90.089  89.271  77.500  1.00  0.00     0.009 A 
BRANCH   9  14
ATOM     14  O   UNL     1      90.314  89.276  73.318  1.00  0.00    -0.493 OA
ATOM     15  C   UNL     1      90.133  90.570  72.720  1.00  0.00     0.278 C 
ENDBRANCH   9  14
BRANCH  10  16
ATOM     16  O   UNL     1      90.287  86.856  74.748  1.00  0.00    -0.504 OA
ATOM     17  H   UNL     1      90.625  86.187  75.348  1.00  0.00     0.293 HD
ENDBRANCH  10  16
ENDBRANCH   7   8
ENDBRANCH   4   7
ENDBRANCH   2   3
ENDBRANCH   1   2
BRANCH   1  18
ATOM     18  C   UNL     1      94.207  94.885  75.216  1.00  0.00     0.001 C 
BRANCH  18  19
ATOM     19  C   UNL     1      95.397  95.576  75.929  1.00  0.00     0.004 C 
BRANCH  19  20
ATOM     20  C   UNL     1      96.024  94.651  77.009  1.00  0.00     0.027 C 
BRANCH  20  21
ATOM     21  C   UNL     1      96.018  95.223  78.345  1.00  0.00    -0.031 C 
ATOM     22  C   UNL     1      95.358  94.653  79.368  1.00  0.00    -0.028 C 
BRANCH  22  23
ATOM     23  C   UNL     1      95.337  95.200  80.723  1.00  0.00     0.005 C 
ATOM     24  C   UNL     1      95.785  94.122  81.745  1.00  0.00     0.012 C 
ATOM     25  C   UNL     1      96.208  96.483  80.797  1.00  0.00     0.012 C 
ENDBRANCH  22  23
ENDBRANCH  20  21
ENDBRANCH  19  20
ENDBRANCH  18  19
ENDBRANCH   1  18
TORSDOF 11
ENDMDL
MODEL 3
REMARK VINA RESULT:    -6.602      2.446      4.378
REMARK INTER + INTRA:         -12.168
REMARK INTER:                 -11.275
REMARK INTRA:                  -0.893
REMARK UNBOUND:                -1.513
REMARK SMILES COc1cc(CNC(=O)CCCCC/C=C/C(C)C)ccc1O
REMARK SMILES IDX 11 1 10 2 8 3 7 4 9 6 6 7 5 8 3 9 22 10 4 11 21 12 20 13
REMARK SMILES IDX 2 14 1 15 23 16 12 18 13 19 14 20 15 21 16 22 17 23 18 24
REMARK SMILES IDX 19 25
REMARK H PARENT 7 5 23 17
REMARK Flexibility Score: inf
ROOT
ATOM      1  C   UNL     1      91.611  94.561  76.474  1.00  0.00     0.010 C 
ENDROOT
BRANCH   1   2
ATOM      2  C   UNL     1      92.808  94.033  75.641  1.00  0.00     0.100 C 
BRANCH   2   3
ATOM      3  C   UNL     1      94.127  94.418  76.177  1.00  0.00     0.220 C 
ATOM      4  N   UNL     1      94.687  93.693  77.184  1.00  0.00    -0.352 N 
ATOM      5  H   UNL     1      94.099  92.958  77.553  1.00  0.00     0.163 HD
ATOM      6  O   UNL     1      94.722  95.390  75.654  1.00  0.00    -0.275 OA
BRANCH   4   7
ATOM      7  C   UNL     1      95.992  93.895  77.726  1.00  0.00     0.151 C 
BRANCH   7   8
ATOM      8  C   UNL     1      95.960  94.495  79.085  1.00  0.00    -0.025 A 
ATOM      9  C   UNL     1      96.305  96.418  80.580  1.00  0.00     0.160 A 
ATOM     10  C   UNL     1      95.949  95.619  81.688  1.00  0.00     0.157 A 
ATOM     11  C   UNL     1      96.317  95.848  79.290  1.00  0.00     0.056 A 
ATOM     12  C   UNL     1      95.576  94.276  81.494  1.00  0.00     0.050 A 
ATOM     13  C   UNL     1      95.571  93.721  80.201  1.00  0.00     0.009 A 
BRANCH   9  14
ATOM     14  O   UNL     1      96.585  97.748  80.746  1.00  0.00    -0.493 OA
ATOM     15  C   UNL     1      97.080  98.397  79.563  1.00  0.00     0.278 C 
ENDBRANCH   9  14
BRANCH  10  16
ATOM     16  O   UNL     1      95.952  96.120  82.949  1.00  0.00    -0.504 OA
ATOM     17  H   UNL     1      96.810  96.511  83.135  1.00  0.00     0.293 HD
ENDBRANCH  10  16
ENDBRANCH   7   8
ENDBRANCH   4   7
ENDBRANCH   2   3
ENDBRANCH   1   2
BRANCH   1  18
ATOM     18  C   UNL     1      90.286  93.884  76.039  1.00  0.00     0.001 C 
BRANCH  18  19
ATOM     19  C   UNL     1      89.568  93.126  77.184  1.00  0.00     0.004 C 
BRANCH  19  20
ATOM     20  C   UNL     1      90.444  91.965  77.732  1.00  0.00     0.027 C 
BRANCH  20  21
ATOM     21  C   UNL     1      89.961  90.645  77.365  1.00  0.00    -0.031 C 
ATOM     22  C   UNL     1      90.425  89.983  76.291  1.00  0.00    -0.028 C 
BRANCH  22  23
ATOM     23  C   UNL     1      89.965  88.653  75.898  1.00  0.00     0.005 C 
ATOM     24  C   UNL     1      89.124  88.738  74.596  1.00  0.00     0.012 C 
ATOM     25  C   UNL     1      91.172  87.686  75.759  1.00  0.00     0.012 C 
ENDBRANCH  22  23
ENDBRANCH  20  21
ENDBRANCH  19  20
ENDBRANCH  18  19
ENDBRANCH   1  18
TORSDOF 11
ENDMDL
MODEL 4
REMARK VINA RESULT:    -6.157      2.677      7.208
REMARK INTER + INTRA:         -11.450
REMARK INTER:                 -10.454
REMARK INTRA:                  -0.996
REMARK UNBOUND:                -1.513
REMARK SMILES COc1cc(CNC(=O)CCCCC/C=C/C(C)C)ccc1O
REMARK SMILES IDX 11 1 10 2 8 3 7 4 9 6 6 7 5 8 3 9 22 10 4 11 21 12 20 13
REMARK SMILES IDX 2 14 1 15 23 16 12 18 13 19 14 20 15 21 16 22 17 23 18 24
REMARK SMILES IDX 19 25
REMARK H PARENT 7 5 23 17
REMARK Flexibility Score: inf
ROOT
ATOM      1  C   UNL     1      93.014  94.248  77.230  1.00  0.00     0.010 C 
ENDROOT
BRANCH   1   2
ATOM      2  C   UNL     1      91.820  94.788  76.400  1.00  0.00     0.100 C 
BRANCH   2   3
ATOM      3  C   UNL     1      90.721  93.821  76.229  1.00  0.00     0.220 C 
ATOM      4  N   UNL     1      90.567  92.805  77.123  1.00  0.00    -0.352 N 
ATOM      5  H   UNL     1      91.292  92.747  77.825  1.00  0.00     0.163 HD
ATOM      6  O   UNL     1      89.923  93.987  75.276  1.00  0.00    -0.275 OA
BRANCH   4   7
ATOM      7  C   UNL     1      89.496  91.862  77.131  1.00  0.00     0.151 C 
BRANCH   7   8
ATOM      8  C   UNL     1      89.876  90.559  76.528  1.00  0.00    -0.025 A 
ATOM      9  C   UNL     1      90.326  89.172  74.547  1.00  0.00     0.160 A 
ATOM     10  C   UNL     1      90.550  88.055  75.381  1.00  0.00     0.157 A 
ATOM     11  C   UNL     1      89.983  90.411  75.125  1.00  0.00     0.056 A 
ATOM     12  C   UNL     1      90.463  88.194  76.778  1.00  0.00     0.050 A 
ATOM     13  C   UNL     1      90.139  89.439  77.348  1.00  0.00     0.009 A 
BRANCH   9  14
ATOM     14  O   UNL     1      90.494  89.069  73.191  1.00  0.00    -0.493 OA
ATOM     15  C   UNL     1      89.983  90.189  72.449  1.00  0.00     0.278 C 
ENDBRANCH   9  14
BRANCH  10  16
ATOM     16  O   UNL     1      90.855  86.839  74.863  1.00  0.00    -0.504 OA
ATOM     17  H   UNL     1      91.587  86.457  75.353  1.00  0.00     0.293 HD
ENDBRANCH  10  16
ENDBRANCH   7   8
ENDBRANCH   4   7
ENDBRANCH   2   3
ENDBRANCH   1   2
BRANCH   1  18
ATOM     18  C   UNL     1      94.135  93.704  76.308  1.00  0.00     0.001 C 
BRANCH  18  19
ATOM     19  C   UNL     1      95.544  93.742  76.952  1.00  0.00     0.004 C 
BRANCH  19  20
ATOM     20  C   UNL     1      96.575  94.438  76.020  1.00  0.00     0.027 C 
BRANCH  20  21
ATOM     21  C   UNL     1      95.974  95.338  75.052  1.00  0.00    -0.031 C 
ATOM     22  C   UNL     1      95.965  96.673  75.220  1.00  0.00    -0.028 C 
BRANCH  22  23
ATOM     23  C   UNL     1      95.373  97.605  74.263  1.00  0.00     0.005 C 
ATOM     24  C   UNL     1      95.429  99.053  74.819  1.00  0.00     0.012 C 
ATOM     25  C   UNL     1      96.074  97.475  72.884  1.00  0.00     0.012 C 
ENDBRANCH  22  23
ENDBRANCH  20  21
ENDBRANCH  19  20
ENDBRANCH  18  19
ENDBRANCH   1  18
TORSDOF 11
ENDMDL
MODEL 5
REMARK VINA RESULT:    -5.818      2.538      4.382
REMARK INTER + INTRA:         -10.902
REMARK INTER:                  -9.992
REMARK INTRA:                  -0.910
REMARK UNBOUND:                -1.513
REMARK SMILES COc1cc(CNC(=O)CCCCC/C=C/C(C)C)ccc1O
REMARK SMILES IDX 11 1 10 2 8 3 7 4 9 6 6 7 5 8 3 9 22 10 4 11 21 12 20 13
REMARK SMILES IDX 2 14 1 15 23 16 12 18 13 19 14 20 15 21 16 22 17 23 18 24
REMARK SMILES IDX 19 25
REMARK H PARENT 7 5 23 17
REMARK Flexibility Score: inf
ROOT
ATOM      1  C   UNL     1      92.972  93.564  76.430  1.00  0.00     0.010 C 
ENDROOT
BRANCH   1   2
ATOM      2  C   UNL     1      93.921  94.256  75.418  1.00  0.00     0.100 C 
BRANCH   2   3
ATOM      3  C   UNL     1      95.300  94.430  75.911  1.00  0.00     0.220 C 
ATOM      4  N   UNL     1      95.616  95.514  76.673  1.00  0.00    -0.352 N 
ATOM      5  H   UNL     1      94.867  96.182  76.787  1.00  0.00     0.163 HD
ATOM      6  O   UNL     1      96.144  93.542  75.646  1.00  0.00    -0.275 OA
BRANCH   4   7
ATOM      7  C   UNL     1      96.880  95.753  77.292  1.00  0.00     0.151 C 
BRANCH   7   8
ATOM      8  C   UNL     1      96.748  96.264  78.681  1.00  0.00    -0.025 A 
ATOM      9  C   UNL     1      96.116  95.921  81.032  1.00  0.00     0.160 A 
ATOM     10  C   UNL     1      96.451  97.263  81.317  1.00  0.00     0.157 A 
ATOM     11  C   UNL     1      96.258  95.435  79.717  1.00  0.00     0.056 A 
ATOM     12  C   UNL     1      96.955  98.092  80.298  1.00  0.00     0.050 A 
ATOM     13  C   UNL     1      97.113  97.593  78.992  1.00  0.00     0.009 A 
BRANCH   9  14
ATOM     14  O   UNL     1      95.707  95.082  82.034  1.00  0.00    -0.493 OA
ATOM     15  C   UNL     1      95.710  93.690  81.673  1.00  0.00     0.278 C 
ENDBRANCH   9  14
BRANCH  10  16
ATOM     16  O   UNL     1      96.301  97.777  82.564  1.00  0.00    -0.504 OA
ATOM     17  H   UNL     1      95.814  98.603  82.512  1.00  0.00     0.293 HD
ENDBRANCH  10  16
ENDBRANCH   7   8
ENDBRANCH   4   7
ENDBRANCH   2   3
ENDBRANCH   1   2
BRANCH   1  18
ATOM     18  C   UNL     1      91.784  94.487  76.803  1.00  0.00     0.001 C 
BRANCH  18  19
ATOM     19  C   UNL     1      90.416  93.989  76.270  1.00  0.00     0.004 C 
BRANCH  19  20
ATOM     20  C   UNL     1      89.916  92.749  77.062  1.00  0.00     0.027 C 
BRANCH  20  21
ATOM     21  C   UNL     1      89.661  91.587  76.228  1.00  0.00    -0.031 C 
ATOM     22  C   UNL     1      90.550  91.143  75.322  1.00  0.00    -0.028 C 
BRANCH  22  23
ATOM     23  C   UNL     1      90.326  89.976  74.473  1.00  0.00     0.005 C 
ATOM     24  C   UNL     1      91.020  88.728  75.080  1.00  0.00     0.012 C 
ATOM     25  C   UNL     1      88.804  89.756  74.253  1.00  0.00     0.012 C 
ENDBRANCH  22  23
ENDBRANCH  20  21
ENDBRANCH  19  20
ENDBRANCH  18  19
ENDBRANCH   1  18
TORSDOF 11
ENDMDL
MODEL 6
REMARK VINA RESULT:    -5.653      4.204      6.793
REMARK INTER + INTRA:         -10.636
REMARK INTER:                  -9.694
REMARK INTRA:                  -0.943
REMARK UNBOUND:                -1.513
REMARK SMILES COc1cc(CNC(=O)CCCCC/C=C/C(C)C)ccc1O
REMARK SMILES IDX 11 1 10 2 8 3 7 4 9 6 6 7 5 8 3 9 22 10 4 11 21 12 20 13
REMARK SMILES IDX 2 14 1 15 23 16 12 18 13 19 14 20 15 21 16 22 17 23 18 24
REMARK SMILES IDX 19 25
REMARK H PARENT 7 5 23 17
REMARK Flexibility Score: inf
ROOT
ATOM      1  C   UNL     1      96.555  94.779  77.825  1.00  0.00     0.010 C 
ENDROOT
BRANCH   1   2
ATOM      2  C   UNL     1      95.438  94.130  78.682  1.00  0.00     0.100 C 
BRANCH   2   3
ATOM      3  C   UNL     1      95.676  94.205  80.136  1.00  0.00     0.220 C 
ATOM      4  N   UNL     1      96.329  95.279  80.661  1.00  0.00    -0.352 N 
ATOM      5  H   UNL     1      96.678  95.936  79.977  1.00  0.00     0.163 HD
ATOM      6  O   UNL     1      95.230  93.285  80.861  1.00  0.00    -0.275 OA
BRANCH   4   7
ATOM      7  C   UNL     1      96.539  95.523  82.051  1.00  0.00     0.151 C 
BRANCH   7   8
ATOM      8  C   UNL     1      96.478  96.967  82.394  1.00  0.00    -0.025 A 
ATOM      9  C   UNL     1      96.505  98.769  84.068  1.00  0.00     0.160 A 
ATOM     10  C   UNL     1      96.307  99.721  83.045  1.00  0.00     0.157 A 
ATOM     11  C   UNL     1      96.581  97.400  83.736  1.00  0.00     0.056 A 
ATOM     12  C   UNL     1      96.221  99.304  81.705  1.00  0.00     0.050 A 
ATOM     13  C   UNL     1      96.316  97.938  81.380  1.00  0.00     0.009 A 
BRANCH   9  14
ATOM     14  O   UNL     1      96.678  99.172  85.366  1.00  0.00    -0.493 OA
ATOM     15  C   UNL     1      95.529  98.965  86.203  1.00  0.00     0.278 C 
ENDBRANCH   9  14
BRANCH  10  16
ATOM     16  O   UNL     1      96.201 101.045  83.325  1.00  0.00    -0.504 OA
ATOM     17  H   UNL     1      95.274 101.278  83.419  1.00  0.00     0.293 HD
ENDBRANCH  10  16
ENDBRANCH   7   8
ENDBRANCH   4   7
ENDBRANCH   2   3
ENDBRANCH   1   2
BRANCH   1  18
ATOM     18  C   UNL     1      96.234  94.670  76.313  1.00  0.00     0.001 C 
BRANCH  18  19
ATOM     19  C   UNL     1      94.787  95.089  75.951  1.00  0.00     0.004 C 
BRANCH  19  20
ATOM     20  C   UNL     1      93.982  93.898  75.361  1.00  0.00     0.027 C 
BRANCH  20  21
ATOM     21  C   UNL     1      92.579  93.896  75.739  1.00  0.00    -0.031 C 
ATOM     22  C   UNL     1      92.142  93.328  76.877  1.00  0.00    -0.028 C 
BRANCH  22  23
ATOM     23  C   UNL     1      90.741  93.314  77.288  1.00  0.00     0.005 C 
ATOM     24  C   UNL     1      89.905  94.258  76.384  1.00  0.00     0.012 C 
ATOM     25  C   UNL     1      90.195  91.860  77.286  1.00  0.00     0.012 C 
ENDBRANCH  22  23
ENDBRANCH  20  21
ENDBRANCH  19  20
ENDBRANCH  18  19
ENDBRANCH   1  18
TORSDOF 11
ENDMDL
MODEL 7
REMARK VINA RESULT:    -5.386     26.178     28.924
REMARK INTER + INTRA:         -10.206
REMARK INTER:                  -9.087
REMARK INTRA:                  -1.119
REMARK UNBOUND:                -1.513
REMARK SMILES COc1cc(CNC(=O)CCCCC/C=C/C(C)C)ccc1O
REMARK SMILES IDX 11 1 10 2 8 3 7 4 9 6 6 7 5 8 3 9 22 10 4 11 21 12 20 13
REMARK SMILES IDX 2 14 1 15 23 16 12 18 13 19 14 20 15 21 16 22 17 23 18 24
REMARK SMILES IDX 19 25
REMARK H PARENT 7 5 23 17
REMARK Flexibility Score: inf
ROOT
ATOM      1  C   UNL     1      81.362  64.809  74.844  1.00  0.00     0.010 C 
ENDROOT
BRANCH   1   2
ATOM      2  C   UNL     1      82.194  65.788  75.713  1.00  0.00     0.100 C 
BRANCH   2   3
ATOM      3  C   UNL     1      83.483  65.236  76.171  1.00  0.00     0.220 C 
ATOM      4  N   UNL     1      83.502  64.242  77.102  1.00  0.00    -0.352 N 
ATOM      5  H   UNL     1      82.596  63.998  77.477  1.00  0.00     0.163 HD
ATOM      6  O   UNL     1      84.537  65.676  75.653  1.00  0.00    -0.275 OA
BRANCH   4   7
ATOM      7  C   UNL     1      84.667  63.557  77.559  1.00  0.00     0.151 C 
BRANCH   7   8
ATOM      8  C   UNL     1      85.151  64.062  78.870  1.00  0.00    -0.025 A 
ATOM      9  C   UNL     1      86.385  65.728  80.193  1.00  0.00     0.160 A 
ATOM     10  C   UNL     1      86.117  64.992  81.368  1.00  0.00     0.157 A 
ATOM     11  C   UNL     1      85.909  65.254  78.954  1.00  0.00     0.056 A 
ATOM     12  C   UNL     1      85.350  63.814  81.298  1.00  0.00     0.050 A 
ATOM     13  C   UNL     1      84.862  63.358  80.060  1.00  0.00     0.009 A 
BRANCH   9  14
ATOM     14  O   UNL     1      87.055  66.921  80.261  1.00  0.00    -0.493 OA
ATOM     15  C   UNL     1      88.270  66.957  79.494  1.00  0.00     0.278 C 
ENDBRANCH   9  14
BRANCH  10  16
ATOM     16  O   UNL     1      86.581  65.398  82.576  1.00  0.00    -0.504 OA
ATOM     17  H   UNL     1      86.081  64.967  83.273  1.00  0.00     0.293 HD
ENDBRANCH  10  16
ENDBRANCH   7   8
ENDBRANCH   4   7
ENDBRANCH   2   3
ENDBRANCH   1   2
BRANCH   1  18
ATOM     18  C   UNL     1      80.234  65.555  74.086  1.00  0.00     0.001 C 
BRANCH  18  19
ATOM     19  C   UNL     1      80.111  65.149  72.595  1.00  0.00     0.004 C 
BRANCH  19  20
ATOM     20  C   UNL     1      80.142  66.393  71.664  1.00  0.00     0.027 C 
BRANCH  20  21
ATOM     21  C   UNL     1      80.923  67.499  72.192  1.00  0.00    -0.031 C 
ATOM     22  C   UNL     1      82.214  67.687  71.865  1.00  0.00    -0.028 C 
BRANCH  22  23
ATOM     23  C   UNL     1      83.025  68.790  72.373  1.00  0.00     0.005 C 
ATOM     24  C   UNL     1      84.143  68.251  73.305  1.00  0.00     0.012 C 
ATOM     25  C   UNL     1      83.592  69.627  71.194  1.00  0.00     0.012 C 
ENDBRANCH  22  23
ENDBRANCH  20  21
ENDBRANCH  19  20
ENDBRANCH  18  19
ENDBRANCH   1  18
TORSDOF 11
ENDMDL
MODEL 8
REMARK VINA RESULT:    -5.358     26.745     29.641
REMARK INTER + INTRA:         -10.160
REMARK INTER:                  -9.297
REMARK INTRA:                  -0.863
REMARK UNBOUND:                -1.513
REMARK SMILES COc1cc(CNC(=O)CCCCC/C=C/C(C)C)ccc1O
REMARK SMILES IDX 11 1 10 2 8 3 7 4 9 6 6 7 5 8 3 9 22 10 4 11 21 12 20 13
REMARK SMILES IDX 2 14 1 15 23 16 12 18 13 19 14 20 15 21 16 22 17 23 18 24
REMARK SMILES IDX 19 25
REMARK H PARENT 7 5 23 17
REMARK Flexibility Score: inf
ROOT
ATOM      1  C   UNL     1      64.420  82.390  75.097  1.00  0.00     0.010 C 
ENDROOT
BRANCH   1   2
ATOM      2  C   UNL     1      64.444  83.596  74.123  1.00  0.00     0.100 C 
BRANCH   2   3
ATOM      3  C   UNL     1      64.135  84.889  74.762  1.00  0.00     0.220 C 
ATOM      4  N   UNL     1      63.825  84.934  76.087  1.00  0.00    -0.352 N 
ATOM      5  H   UNL     1      63.758  84.030  76.535  1.00  0.00     0.163 HD
ATOM      6  O   UNL     1      64.207  85.929  74.066  1.00  0.00    -0.275 OA
BRANCH   4   7
ATOM      7  C   UNL     1      63.602  86.120  76.847  1.00  0.00     0.151 C 
BRANCH   7   8
ATOM      8  C   UNL     1      64.633  86.329  77.897  1.00  0.00    -0.025 A 
ATOM      9  C   UNL     1      65.272  87.124  80.135  1.00  0.00     0.160 A 
ATOM     10  C   UNL     1      66.615  86.775  79.874  1.00  0.00     0.157 A 
ATOM     11  C   UNL     1      64.294  86.907  79.143  1.00  0.00     0.056 A 
ATOM     12  C   UNL     1      66.961  86.184  78.645  1.00  0.00     0.050 A 
ATOM     13  C   UNL     1      65.975  85.953  77.668  1.00  0.00     0.009 A 
BRANCH   9  14
ATOM     14  O   UNL     1      64.910  87.618  81.360  1.00  0.00    -0.493 OA
ATOM     15  C   UNL     1      63.864  86.875  82.008  1.00  0.00     0.278 C 
ENDBRANCH   9  14
BRANCH  10  16
ATOM     16  O   UNL     1      67.591  86.993  80.792  1.00  0.00    -0.504 OA
ATOM     17  H   UNL     1      68.450  86.872  80.379  1.00  0.00     0.293 HD
ENDBRANCH  10  16
ENDBRANCH   7   8
ENDBRANCH   4   7
ENDBRANCH   2   3
ENDBRANCH   1   2
BRANCH   1  18
ATOM     18  C   UNL     1      63.328  81.367  74.695  1.00  0.00     0.001 C 
BRANCH  18  19
ATOM     19  C   UNL     1      63.335  81.007  73.187  1.00  0.00     0.004 C 
BRANCH  19  20
ATOM     20  C   UNL     1      62.017  81.451  72.492  1.00  0.00     0.027 C 
BRANCH  20  21
ATOM     21  C   UNL     1      62.227  82.189  71.259  1.00  0.00    -0.031 C 
ATOM     22  C   UNL     1      62.674  81.600  70.136  1.00  0.00    -0.028 C 
BRANCH  22  23
ATOM     23  C   UNL     1      62.890  82.313  68.879  1.00  0.00     0.005 C 
ATOM     24  C   UNL     1      63.386  81.332  67.783  1.00  0.00     0.012 C 
ATOM     25  C   UNL     1      61.597  83.063  68.458  1.00  0.00     0.012 C 
ENDBRANCH  22  23
ENDBRANCH  20  21
ENDBRANCH  19  20
ENDBRANCH  18  19
ENDBRANCH   1  18
TORSDOF 11
ENDMDL
MODEL 9
REMARK VINA RESULT:    -5.295     26.151     29.072
REMARK INTER + INTRA:         -10.058
REMARK INTER:                  -9.351
REMARK INTRA:                  -0.707
REMARK UNBOUND:                -1.513
REMARK SMILES COc1cc(CNC(=O)CCCCC/C=C/C(C)C)ccc1O
REMARK SMILES IDX 11 1 10 2 8 3 7 4 9 6 6 7 5 8 3 9 22 10 4 11 21 12 20 13
REMARK SMILES IDX 2 14 1 15 23 16 12 18 13 19 14 20 15 21 16 22 17 23 18 24
REMARK SMILES IDX 19 25
REMARK H PARENT 7 5 23 17
REMARK Flexibility Score: inf
ROOT
ATOM      1  C   UNL     1      83.276  65.173  76.183  1.00  0.00     0.010 C 
ENDROOT
BRANCH   1   2
ATOM      2  C   UNL     1      83.733  64.002  77.090  1.00  0.00     0.100 C 
BRANCH   2   3
ATOM      3  C   UNL     1      85.062  64.196  77.697  1.00  0.00     0.220 C 
ATOM      4  N   UNL     1      85.375  65.388  78.277  1.00  0.00    -0.352 N 
ATOM      5  H   UNL     1      84.667  66.103  78.180  1.00  0.00     0.163 HD
ATOM      6  O   UNL     1      85.864  63.232  77.698  1.00  0.00    -0.275 OA
BRANCH   4   7
ATOM      7  C   UNL     1      86.582  65.677  78.981  1.00  0.00     0.151 C 
BRANCH   7   8
ATOM      8  C   UNL     1      86.385  65.737  80.453  1.00  0.00    -0.025 A 
ATOM      9  C   UNL     1      86.751  66.854  82.613  1.00  0.00     0.160 A 
ATOM     10  C   UNL     1      86.051  65.816  83.267  1.00  0.00     0.157 A 
ATOM     11  C   UNL     1      86.920  66.802  81.215  1.00  0.00     0.056 A 
ATOM     12  C   UNL     1      85.500  64.761  82.518  1.00  0.00     0.050 A 
ATOM     13  C   UNL     1      85.656  64.727  81.120  1.00  0.00     0.009 A 
BRANCH   9  14
ATOM     14  O   UNL     1      87.216  67.929  83.322  1.00  0.00    -0.493 OA
ATOM     15  C   UNL     1      87.381  69.123  82.539  1.00  0.00     0.278 C 
ENDBRANCH   9  14
BRANCH  10  16
ATOM     16  O   UNL     1      85.891  65.814  84.614  1.00  0.00    -0.504 OA
ATOM     17  H   UNL     1      85.041  66.203  84.836  1.00  0.00     0.293 HD
ENDBRANCH  10  16
ENDBRANCH   7   8
ENDBRANCH   4   7
ENDBRANCH   2   3
ENDBRANCH   1   2
BRANCH   1  18
ATOM     18  C   UNL     1      81.790  65.014  75.770  1.00  0.00     0.001 C 
BRANCH  18  19
ATOM     19  C   UNL     1      81.578  64.078  74.553  1.00  0.00     0.004 C 
BRANCH  19  20
ATOM     20  C   UNL     1      80.157  64.248  73.948  1.00  0.00     0.027 C 
BRANCH  20  21
ATOM     21  C   UNL     1      80.124  65.082  72.759  1.00  0.00    -0.031 C 
ATOM     22  C   UNL     1      81.241  65.577  72.197  1.00  0.00    -0.028 C 
BRANCH  22  23
ATOM     23  C   UNL     1      81.243  66.414  70.999  1.00  0.00     0.005 C 
ATOM     24  C   UNL     1      79.805  66.537  70.428  1.00  0.00     0.012 C 
ATOM     25  C   UNL     1      81.874  67.798  71.312  1.00  0.00     0.012 C 
ENDBRANCH  22  23
ENDBRANCH  20  21
ENDBRANCH  19  20
ENDBRANCH  18  19
ENDBRANCH   1  18
TORSDOF 11
ENDMDL
MODEL 10
REMARK VINA RESULT:    -5.261     26.646     29.479
REMARK INTER + INTRA:         -10.004
REMARK INTER:                  -7.747
REMARK INTRA:                  -2.257
REMARK UNBOUND:                -1.513
REMARK SMILES COc1cc(CNC(=O)CCCCC/C=C/C(C)C)ccc1O
REMARK SMILES IDX 11 1 10 2 8 3 7 4 9 6 6 7 5 8 3 9 22 10 4 11 21 12 20 13
REMARK SMILES IDX 2 14 1 15 23 16 12 18 13 19 14 20 15 21 16 22 17 23 18 24
REMARK SMILES IDX 19 25
REMARK H PARENT 7 5 23 17
REMARK Flexibility Score: inf
ROOT
ATOM      1  C   UNL     1      84.968  66.000  77.182  1.00  0.00     0.010 C 
ENDROOT
BRANCH   1   2
ATOM      2  C   UNL     1      84.163  67.278  76.832  1.00  0.00     0.100 C 
BRANCH   2   3
ATOM      3  C   UNL     1      84.458  67.826  75.495  1.00  0.00     0.220 C 
ATOM      4  N   UNL     1      83.581  67.629  74.472  1.00  0.00    -0.352 N 
ATOM      5  H   UNL     1      82.795  67.035  74.700  1.00  0.00     0.163 HD
ATOM      6  O   UNL     1      85.503  68.502  75.346  1.00  0.00    -0.275 OA
BRANCH   4   7
ATOM      7  C   UNL     1      83.695  68.183  73.163  1.00  0.00     0.151 C 
BRANCH   7   8
ATOM      8  C   UNL     1      83.350  67.207  72.097  1.00  0.00    -0.025 A 
ATOM      9  C   UNL     1      83.950  65.286  70.683  1.00  0.00     0.160 A 
ATOM     10  C   UNL     1      82.704  65.382  70.025  1.00  0.00     0.157 A 
ATOM     11  C   UNL     1      84.266  66.203  71.706  1.00  0.00     0.056 A 
ATOM     12  C   UNL     1      81.778  66.365  70.417  1.00  0.00     0.050 A 
ATOM     13  C   UNL     1      82.093  67.265  71.453  1.00  0.00     0.009 A 
BRANCH   9  14
ATOM     14  O   UNL     1      84.823  64.279  70.369  1.00  0.00    -0.493 OA
ATOM     15  C   UNL     1      85.916  64.139  71.292  1.00  0.00     0.278 C 
ENDBRANCH   9  14
BRANCH  10  16
ATOM     16  O   UNL     1      82.373  64.537  69.017  1.00  0.00    -0.504 OA
ATOM     17  H   UNL     1      81.596  64.030  69.267  1.00  0.00     0.293 HD
ENDBRANCH  10  16
ENDBRANCH   7   8
ENDBRANCH   4   7
ENDBRANCH   2   3
ENDBRANCH   1   2
BRANCH   1  18
ATOM     18  C   UNL     1      84.060  64.744  77.163  1.00  0.00     0.001 C 
BRANCH  18  19
ATOM     19  C   UNL     1      84.570  63.620  76.226  1.00  0.00     0.004 C 
BRANCH  19  20
ATOM     20  C   UNL     1      83.993  63.772  74.791  1.00  0.00     0.027 C 
BRANCH  20  21
ATOM     21  C   UNL     1      82.577  64.098  74.762  1.00  0.00    -0.031 C 
ATOM     22  C   UNL     1      81.896  64.239  73.611  1.00  0.00    -0.028 C 
BRANCH  22  23
ATOM     23  C   UNL     1      80.472  64.560  73.548  1.00  0.00     0.005 C 
ATOM     24  C   UNL     1      79.631  63.387  74.118  1.00  0.00     0.012 C 
ATOM     25  C   UNL     1      80.191  65.899  74.282  1.00  0.00     0.012 C 
ENDBRANCH  22  23
ENDBRANCH  20  21
ENDBRANCH  19  20
ENDBRANCH  18  19
ENDBRANCH   1  18
TORSDOF 11
ENDMDL
