MODEL 1
REMARK VINA RESULT:    -7.123      0.000      0.000
REMARK INTER + INTRA:         -13.170
REMARK INTER:                 -12.537
REMARK INTRA:                  -0.633
REMARK UNBOUND:                -0.633
REMARK SMILES C=C(C)[C@]12C[C@@H](C)[C@@]34O[C@](Cc5ccccc5)(O[C@@H]1[C@@H]3C=C(COC(=O)Cc1ccc(O)c(OC)c1)C[C@]1(O)C(=O)C(C)=C[C@@H]41)O2
REMARK SMILES IDX 23 1 22 2 21 3 20 4 9 5 8 6 10 7 6 8 18 9 46 10 19 11 5 12
REMARK SMILES IDX 7 13 4 14 45 15 38 16 44 17 40 18 42 20 41 21 43 22 39 23
REMARK SMILES IDX 11 25 12 26 13 27 17 28 14 29 16 30 15 31 2 32 3 33 1 34
REMARK SMILES IDX 37 35 24 37 25 38 26 39 27 40 28 41 36 42 29 43 33 44 30 45
REMARK SMILES IDX 31 46 34 47 35 48 32 49
REMARK H PARENT 39 24 32 50
REMARK Flexibility Score: 90.00
ROOT
ATOM      1  C   UNL     1      95.527  98.852  73.843  1.00  0.00     0.264 C 
ENDROOT
BRANCH   1   2
ATOM      2  C   UNL     1      94.869 100.124  73.361  1.00  0.00    -0.033 C 
ATOM      3  C   UNL     1      94.309 100.153  72.135  1.00  0.00    -0.015 C 
BRANCH   3   4
ATOM      4  C   UNL     1      93.662 101.313  71.397  1.00  0.00     0.078 C 
ATOM      5  O   UNL     1      91.247 101.249  71.928  1.00  0.00    -0.319 OA
ATOM      6  C   UNL     1      92.455 102.057  72.082  1.00  0.00     0.095 C 
ATOM      7  C   UNL     1      91.063 100.655  70.629  1.00  0.00     0.289 C 
ATOM      8  C   UNL     1      92.258 103.440  71.335  1.00  0.00     0.023 C 
ATOM      9  O   UNL     1      92.171  99.832  70.275  1.00  0.00    -0.320 OA
ATOM     10  O   UNL     1      90.964 101.633  69.597  1.00  0.00    -0.313 OA
ATOM     11  C   UNL     1      93.159 100.840  70.011  1.00  0.00     0.170 C 
ATOM     12  C   UNL     1      92.618 103.329  69.821  1.00  0.00     0.049 C 
ATOM     13  C   UNL     1      90.867 104.078  71.484  1.00  0.00     0.011 C 
ATOM     14  C   UNL     1      92.338 101.928  69.275  1.00  0.00     0.122 C 
BRANCH   6  15
ATOM     15  C   UNL     1      92.666 102.151  73.620  1.00  0.00     0.086 C 
ATOM     16  C   UNL     1      94.093 102.505  74.090  1.00  0.00     0.140 CG0
ATOM     17  C   UNL     1      91.794 103.071  74.428  1.00  0.00    -0.010 C 
ATOM     18  C   UNL     1      93.831 103.330  75.333  1.00  0.00     0.190 C 
ATOM     19  G   UNL     1      94.930 101.260  74.379  1.00  0.00     0.000 G0
ATOM     20  C   UNL     1      92.413 103.727  75.416  1.00  0.00    -0.008 C 
ATOM     21  O   UNL     1      94.677 103.676  76.144  1.00  0.00    -0.291 OA
ATOM     22  C   UNL     1      91.865 104.633  76.445  1.00  0.00     0.048 C 
BRANCH  16  23
ATOM     23  O   UNL     1      94.776 103.400  73.228  1.00  0.00    -0.381 OA
ATOM     24  H   UNL     1      95.073 102.906  72.446  1.00  0.00     0.212 HD
ENDBRANCH  16  23
ENDBRANCH   6  15
BRANCH   7  25
ATOM     25  C   UNL     1      89.797  99.824  70.661  1.00  0.00     0.135 C 
BRANCH  25  26
ATOM     26  C   UNL     1      89.455  99.262  69.304  1.00  0.00    -0.040 A 
ATOM     27  C   UNL     1      89.819  97.955  68.978  1.00  0.00     0.004 A 
ATOM     28  C   UNL     1      88.773 100.048  68.375  1.00  0.00     0.004 A 
ATOM     29  C   UNL     1      89.503  97.435  67.722  1.00  0.00     0.000 A 
ATOM     30  C   UNL     1      88.457  99.528  67.119  1.00  0.00     0.000 A 
ATOM     31  C   UNL     1      88.822  98.221  66.794  1.00  0.00     0.000 A 
ENDBRANCH  25  26
ENDBRANCH   7  25
BRANCH  14  32
ATOM     32  C   UNL     1      92.502 101.848  67.792  1.00  0.00    -0.046 C 
ATOM     33  C   UNL     1      91.276 102.125  66.974  1.00  0.00     0.042 C 
ATOM     34  C   UNL     1      93.679 101.544  67.223  1.00  0.00     0.010 C 
ENDBRANCH  14  32
ENDBRANCH   3   4
BRANCH   2  35
ATOM     35  C   UNL     1      94.927 101.247  74.380  1.00  0.00     0.078 CG0
ATOM     36  G   UNL     1      94.116 102.506  74.079  1.00  0.00     0.000 G0
ENDBRANCH   2  35
ENDBRANCH   1   2
BRANCH   1  37
ATOM     37  O   UNL     1      95.130  97.779  73.018  1.00  0.00    -0.461 OA
BRANCH  37  38
ATOM     38  C   UNL     1      94.724  96.634  73.662  1.00  0.00     0.310 C 
ATOM     39  O   UNL     1      95.142  95.509  73.426  1.00  0.00    -0.252 OA
BRANCH  38  40
ATOM     40  C   UNL     1      93.684  96.981  74.702  1.00  0.00     0.158 C 
BRANCH  40  41
ATOM     41  C   UNL     1      93.405  95.849  75.656  1.00  0.00    -0.033 A 
ATOM     42  C   UNL     1      94.170  95.708  76.814  1.00  0.00     0.054 A 
ATOM     43  C   UNL     1      92.382  94.942  75.381  1.00  0.00     0.008 A 
ATOM     44  C   UNL     1      93.912  94.659  77.697  1.00  0.00     0.160 A 
ATOM     45  C   UNL     1      92.123  93.893  76.265  1.00  0.00     0.050 A 
ATOM     46  C   UNL     1      92.888  93.752  77.422  1.00  0.00     0.157 A 
BRANCH  44  47
ATOM     47  O   UNL     1      94.666  94.532  78.824  1.00  0.00    -0.493 OA
ATOM     48  C   UNL     1      95.429  93.334  78.961  1.00  0.00     0.278 C 
ENDBRANCH  44  47
BRANCH  46  49
ATOM     49  O   UNL     1      92.626  92.725  78.277  1.00  0.00    -0.504 OA
ATOM     50  H   UNL     1      92.238  93.084  79.093  1.00  0.00     0.293 HD
ENDBRANCH  46  49
ENDBRANCH  40  41
ENDBRANCH  38  40
ENDBRANCH  37  38
ENDBRANCH   1  37
TORSDOF 11
ENDMDL
MODEL 2
REMARK VINA RESULT:    -6.747     32.808     36.663
REMARK INTER + INTRA:         -12.509
REMARK INTER:                 -11.438
REMARK INTRA:                  -1.070
REMARK UNBOUND:                -0.633
REMARK SMILES C=C(C)[C@]12C[C@@H](C)[C@@]34O[C@](Cc5ccccc5)(O[C@@H]1[C@@H]3C=C(COC(=O)Cc1ccc(O)c(OC)c1)C[C@]1(O)C(=O)C(C)=C[C@@H]41)O2
REMARK SMILES IDX 23 1 22 2 21 3 20 4 9 5 8 6 10 7 6 8 18 9 46 10 19 11 5 12
REMARK SMILES IDX 7 13 4 14 45 15 38 16 44 17 40 18 42 20 41 21 43 22 39 23
REMARK SMILES IDX 11 25 12 26 13 27 17 28 14 29 16 30 15 31 2 32 3 33 1 34
REMARK SMILES IDX 37 35 24 37 25 38 26 39 27 40 28 41 36 42 29 43 33 44 30 45
REMARK SMILES IDX 31 46 34 47 35 48 32 49
REMARK H PARENT 39 24 32 50
REMARK Flexibility Score: 90.00
ROOT
ATOM      1  C   UNL     1      58.293  88.054  69.757  1.00  0.00     0.264 C 
ENDROOT
BRANCH   1   2
ATOM      2  C   UNL     1      58.720  87.027  70.779  1.00  0.00    -0.033 C 
ATOM      3  C   UNL     1      59.814  86.276  70.542  1.00  0.00    -0.015 C 
BRANCH   3   4
ATOM      4  C   UNL     1      60.400  85.138  71.362  1.00  0.00     0.078 C 
ATOM      5  O   UNL     1      62.078  86.135  72.881  1.00  0.00    -0.319 OA
ATOM      6  C   UNL     1      60.803  85.423  72.857  1.00  0.00     0.095 C 
ATOM      7  C   UNL     1      63.076  85.646  71.965  1.00  0.00     0.289 C 
ATOM      8  C   UNL     1      60.970  84.024  73.583  1.00  0.00     0.023 C 
ATOM      9  O   UNL     1      62.601  85.673  70.621  1.00  0.00    -0.320 OA
ATOM     10  O   UNL     1      63.427  84.289  72.222  1.00  0.00    -0.313 OA
ATOM     11  C   UNL     1      61.666  84.584  70.663  1.00  0.00     0.170 C 
ATOM     12  C   UNL     1      61.509  82.934  72.606  1.00  0.00     0.049 C 
ATOM     13  C   UNL     1      61.831  84.041  74.856  1.00  0.00     0.011 C 
ATOM     14  C   UNL     1      62.411  83.537  71.528  1.00  0.00     0.122 C 
BRANCH   6  15
ATOM     15  C   UNL     1      59.796  86.405  73.522  1.00  0.00     0.086 C 
ATOM     16  C   UNL     1      58.304  86.162  73.213  1.00  0.00     0.140 CG0
ATOM     17  C   UNL     1      59.820  86.586  75.014  1.00  0.00    -0.010 C 
ATOM     18  C   UNL     1      57.633  86.567  74.509  1.00  0.00     0.190 C 
ATOM     19  G   UNL     1      57.820  86.986  72.021  1.00  0.00     0.000 G0
ATOM     20  C   UNL     1      58.622  86.708  75.595  1.00  0.00    -0.008 C 
ATOM     21  O   UNL     1      56.431  86.713  74.668  1.00  0.00    -0.291 OA
ATOM     22  C   UNL     1      58.270  86.976  77.004  1.00  0.00     0.048 C 
BRANCH  16  23
ATOM     23  O   UNL     1      57.964  84.793  73.069  1.00  0.00    -0.381 OA
ATOM     24  H   UNL     1      57.160  84.732  72.526  1.00  0.00     0.212 HD
ENDBRANCH  16  23
ENDBRANCH   6  15
BRANCH   7  25
ATOM     25  C   UNL     1      64.307  86.520  72.090  1.00  0.00     0.135 C 
BRANCH  25  26
ATOM     26  C   UNL     1      65.531  85.860  71.506  1.00  0.00    -0.040 A 
ATOM     27  C   UNL     1      65.526  85.432  70.178  1.00  0.00     0.004 A 
ATOM     28  C   UNL     1      66.668  85.678  72.293  1.00  0.00     0.004 A 
ATOM     29  C   UNL     1      66.658  84.821  69.638  1.00  0.00     0.000 A 
ATOM     30  C   UNL     1      67.800  85.068  71.752  1.00  0.00     0.000 A 
ATOM     31  C   UNL     1      67.794  84.639  70.425  1.00  0.00     0.000 A 
ENDBRANCH  25  26
ENDBRANCH   7  25
BRANCH  14  32
ATOM     32  C   UNL     1      63.083  82.495  70.694  1.00  0.00    -0.046 C 
ATOM     33  C   UNL     1      64.433  82.041  71.163  1.00  0.00     0.042 C 
ATOM     34  C   UNL     1      62.512  81.994  69.588  1.00  0.00     0.010 C 
ENDBRANCH  14  32
ENDBRANCH   3   4
BRANCH   2  35
ATOM     35  C   UNL     1      57.814  86.986  71.996  1.00  0.00     0.078 CG0
ATOM     36  G   UNL     1      58.295  86.174  73.198  1.00  0.00     0.000 G0
ENDBRANCH   2  35
ENDBRANCH   1   2
BRANCH   1  37
ATOM     37  O   UNL     1      57.874  89.227  70.421  1.00  0.00    -0.461 OA
BRANCH  37  38
ATOM     38  C   UNL     1      56.758  89.850  69.911  1.00  0.00     0.310 C 
ATOM     39  O   UNL     1      56.665  91.048  69.682  1.00  0.00    -0.252 OA
BRANCH  38  40
ATOM     40  C   UNL     1      55.671  88.827  69.678  1.00  0.00     0.158 C 
BRANCH  40  41
ATOM     41  C   UNL     1      54.876  89.088  68.425  1.00  0.00    -0.033 A 
ATOM     42  C   UNL     1      55.475  88.932  67.174  1.00  0.00     0.054 A 
ATOM     43  C   UNL     1      53.542  89.484  68.515  1.00  0.00     0.008 A 
ATOM     44  C   UNL     1      54.740  89.174  66.014  1.00  0.00     0.160 A 
ATOM     45  C   UNL     1      52.807  89.726  67.355  1.00  0.00     0.050 A 
ATOM     46  C   UNL     1      53.405  89.572  66.104  1.00  0.00     0.157 A 
BRANCH  44  47
ATOM     47  O   UNL     1      55.335  89.020  64.799  1.00  0.00    -0.493 OA
ATOM     48  C   UNL     1      56.556  89.726  64.581  1.00  0.00     0.278 C 
ENDBRANCH  44  47
BRANCH  46  49
ATOM     49  O   UNL     1      52.676  89.809  64.979  1.00  0.00    -0.504 OA
ATOM     50  H   UNL     1      51.841  89.315  65.031  1.00  0.00     0.293 HD
ENDBRANCH  46  49
ENDBRANCH  40  41
ENDBRANCH  38  40
ENDBRANCH  37  38
ENDBRANCH   1  37
TORSDOF 11
ENDMDL
MODEL 3
REMARK VINA RESULT:    -6.579      1.294      2.027
REMARK INTER + INTRA:         -12.212
REMARK INTER:                 -11.416
REMARK INTRA:                  -0.796
REMARK UNBOUND:                -0.633
REMARK SMILES C=C(C)[C@]12C[C@@H](C)[C@@]34O[C@](Cc5ccccc5)(O[C@@H]1[C@@H]3C=C(COC(=O)Cc1ccc(O)c(OC)c1)C[C@]1(O)C(=O)C(C)=C[C@@H]41)O2
REMARK SMILES IDX 23 1 22 2 21 3 20 4 9 5 8 6 10 7 6 8 18 9 46 10 19 11 5 12
REMARK SMILES IDX 7 13 4 14 45 15 38 16 44 17 40 18 42 20 41 21 43 22 39 23
REMARK SMILES IDX 11 25 12 26 13 27 17 28 14 29 16 30 15 31 2 32 3 33 1 34
REMARK SMILES IDX 37 35 24 37 25 38 26 39 27 40 28 41 36 42 29 43 33 44 30 45
REMARK SMILES IDX 31 46 34 47 35 48 32 49
REMARK H PARENT 39 24 32 50
REMARK Flexibility Score: 90.00
ROOT
ATOM      1  C   UNL     1      95.418  98.769  73.463  1.00  0.00     0.264 C 
ENDROOT
BRANCH   1   2
ATOM      2  C   UNL     1      94.766 100.091  73.132  1.00  0.00    -0.033 C 
ATOM      3  C   UNL     1      94.169 100.250  71.934  1.00  0.00    -0.015 C 
BRANCH   3   4
ATOM      4  C   UNL     1      93.519 101.487  71.336  1.00  0.00     0.078 C 
ATOM      5  O   UNL     1      91.115 101.386  71.910  1.00  0.00    -0.319 OA
ATOM      6  C   UNL     1      92.334 102.163  72.121  1.00  0.00     0.095 C 
ATOM      7  C   UNL     1      90.898 100.934  70.559  1.00  0.00     0.289 C 
ATOM      8  C   UNL     1      92.136 103.619  71.529  1.00  0.00     0.023 C 
ATOM      9  O   UNL     1      91.991 100.145  70.096  1.00  0.00    -0.320 OA
ATOM     10  O   UNL     1      90.788 102.016  69.638  1.00  0.00    -0.313 OA
ATOM     11  C   UNL     1      92.983 101.167  69.919  1.00  0.00     0.170 C 
ATOM     12  C   UNL     1      92.463 103.666  70.004  1.00  0.00     0.049 C 
ATOM     13  C   UNL     1      90.755 104.249  71.774  1.00  0.00     0.011 C 
ATOM     14  C   UNL     1      92.159 102.333  69.319  1.00  0.00     0.122 C 
BRANCH   6  15
ATOM     15  C   UNL     1      92.578 102.093  73.656  1.00  0.00     0.086 C 
ATOM     16  C   UNL     1      94.013 102.403  74.131  1.00  0.00     0.140 CG0
ATOM     17  C   UNL     1      91.720 102.916  74.577  1.00  0.00    -0.010 C 
ATOM     18  C   UNL     1      93.776 103.088  75.461  1.00  0.00     0.190 C 
ATOM     19  G   UNL     1      94.861 101.139  74.267  1.00  0.00     0.000 G0
ATOM     20  C   UNL     1      92.358 103.465  75.615  1.00  0.00    -0.008 C 
ATOM     21  O   UNL     1      94.637 103.349  76.286  1.00  0.00    -0.291 OA
ATOM     22  C   UNL     1      91.830 104.253  76.748  1.00  0.00     0.048 C 
BRANCH  16  23
ATOM     23  O   UNL     1      94.674 103.389  73.356  1.00  0.00    -0.381 OA
ATOM     24  H   UNL     1      94.114 103.606  72.593  1.00  0.00     0.212 HD
ENDBRANCH  16  23
ENDBRANCH   6  15
BRANCH   7  25
ATOM     25  C   UNL     1      89.625 100.114  70.531  1.00  0.00     0.135 C 
BRANCH  25  26
ATOM     26  C   UNL     1      89.327  99.580  69.152  1.00  0.00    -0.040 A 
ATOM     27  C   UNL     1      88.528 100.316  68.277  1.00  0.00     0.004 A 
ATOM     28  C   UNL     1      89.851  98.351  68.751  1.00  0.00     0.004 A 
ATOM     29  C   UNL     1      88.253  99.823  67.001  1.00  0.00     0.000 A 
ATOM     30  C   UNL     1      89.575  97.857  67.476  1.00  0.00     0.000 A 
ATOM     31  C   UNL     1      88.776  98.594  66.601  1.00  0.00     0.000 A 
ENDBRANCH  25  26
ENDBRANCH   7  25
BRANCH  14  32
ATOM     32  C   UNL     1      92.291 102.408  67.833  1.00  0.00    -0.046 C 
ATOM     33  C   UNL     1      91.400 101.497  67.042  1.00  0.00     0.042 C 
ATOM     34  C   UNL     1      93.157 103.243  67.239  1.00  0.00     0.010 C 
ENDBRANCH  14  32
ENDBRANCH   3   4
BRANCH   2  35
ATOM     35  C   UNL     1      94.873 101.105  74.255  1.00  0.00     0.078 CG0
ATOM     36  G   UNL     1      94.052 102.386  74.121  1.00  0.00     0.000 G0
ENDBRANCH   2  35
ENDBRANCH   1   2
BRANCH   1  37
ATOM     37  O   UNL     1      94.450  97.743  73.406  1.00  0.00    -0.461 OA
BRANCH  37  38
ATOM     38  C   UNL     1      94.798  96.545  73.986  1.00  0.00     0.310 C 
ATOM     39  O   UNL     1      95.330  95.611  73.403  1.00  0.00    -0.252 OA
BRANCH  38  40
ATOM     40  C   UNL     1      94.419  96.564  75.448  1.00  0.00     0.158 C 
BRANCH  40  41
ATOM     41  C   UNL     1      95.593  96.325  76.362  1.00  0.00    -0.033 A 
ATOM     42  C   UNL     1      95.520  95.341  77.349  1.00  0.00     0.054 A 
ATOM     43  C   UNL     1      96.753  97.087  76.222  1.00  0.00     0.008 A 
ATOM     44  C   UNL     1      96.607  95.120  78.195  1.00  0.00     0.160 A 
ATOM     45  C   UNL     1      97.840  96.866  77.068  1.00  0.00     0.050 A 
ATOM     46  C   UNL     1      97.767  95.883  78.055  1.00  0.00     0.157 A 
BRANCH  44  47
ATOM     47  O   UNL     1      96.523  94.157  79.155  1.00  0.00    -0.493 OA
ATOM     48  C   UNL     1      95.510  94.317  80.147  1.00  0.00     0.278 C 
ENDBRANCH  44  47
BRANCH  46  49
ATOM     49  O   UNL     1      98.834  95.675  78.875  1.00  0.00    -0.504 OA
ATOM     50  H   UNL     1      99.042  96.502  79.341  1.00  0.00     0.293 HD
ENDBRANCH  46  49
ENDBRANCH  40  41
ENDBRANCH  38  40
ENDBRANCH  37  38
ENDBRANCH   1  37
TORSDOF 11
ENDMDL
MODEL 4
REMARK VINA RESULT:    -6.509     31.238     34.748
REMARK INTER + INTRA:         -12.089
REMARK INTER:                  -9.974
REMARK INTRA:                  -2.115
REMARK UNBOUND:                -0.633
REMARK SMILES C=C(C)[C@]12C[C@@H](C)[C@@]34O[C@](Cc5ccccc5)(O[C@@H]1[C@@H]3C=C(COC(=O)Cc1ccc(O)c(OC)c1)C[C@]1(O)C(=O)C(C)=C[C@@H]41)O2
REMARK SMILES IDX 23 1 22 2 21 3 20 4 9 5 8 6 10 7 6 8 18 9 46 10 19 11 5 12
REMARK SMILES IDX 7 13 4 14 45 15 38 16 44 17 40 18 42 20 41 21 43 22 39 23
REMARK SMILES IDX 11 25 12 26 13 27 17 28 14 29 16 30 15 31 2 32 3 33 1 34
REMARK SMILES IDX 37 35 24 37 25 38 26 39 27 40 28 41 36 42 29 43 33 44 30 45
REMARK SMILES IDX 31 46 34 47 35 48 32 49
REMARK H PARENT 39 24 32 50
REMARK Flexibility Score: 90.00
ROOT
ATOM      1  C   UNL     1      57.608  87.110  73.338  1.00  0.00     0.264 C 
ENDROOT
BRANCH   1   2
ATOM      2  C   UNL     1      58.770  86.544  74.119  1.00  0.00    -0.033 C 
ATOM      3  C   UNL     1      59.639  85.717  73.502  1.00  0.00    -0.015 C 
BRANCH   3   4
ATOM      4  C   UNL     1      60.829  84.965  74.077  1.00  0.00     0.078 C 
ATOM      5  O   UNL     1      62.811  86.415  73.777  1.00  0.00    -0.319 OA
ATOM      6  C   UNL     1      61.963  85.791  74.791  1.00  0.00     0.095 C 
ATOM      7  C   UNL     1      63.150  85.577  72.656  1.00  0.00     0.289 C 
ATOM      8  C   UNL     1      62.830  84.776  75.646  1.00  0.00     0.023 C 
ATOM      9  O   UNL     1      61.980  85.099  71.996  1.00  0.00    -0.320 OA
ATOM     10  O   UNL     1      63.872  84.413  73.049  1.00  0.00    -0.313 OA
ATOM     11  C   UNL     1      61.519  84.142  72.961  1.00  0.00     0.170 C 
ATOM     12  C   UNL     1      62.909  83.377  74.962  1.00  0.00     0.049 C 
ATOM     13  C   UNL     1      64.247  85.254  75.999  1.00  0.00     0.011 C 
ATOM     14  C   UNL     1      62.838  83.486  73.439  1.00  0.00     0.122 C 
BRANCH   6  15
ATOM     15  C   UNL     1      61.360  86.987  75.582  1.00  0.00     0.086 C 
ATOM     16  C   UNL     1      60.075  86.693  76.384  1.00  0.00     0.140 CG0
ATOM     17  C   UNL     1      62.222  87.730  76.564  1.00  0.00    -0.010 C 
ATOM     18  C   UNL     1      60.232  87.590  77.594  1.00  0.00     0.190 C 
ATOM     19  G   UNL     1      58.811  87.007  75.584  1.00  0.00     0.000 G0
ATOM     20  C   UNL     1      61.610  88.107  77.692  1.00  0.00    -0.008 C 
ATOM     21  O   UNL     1      59.363  87.825  78.419  1.00  0.00    -0.291 OA
ATOM     22  C   UNL     1      62.114  88.911  78.825  1.00  0.00     0.048 C 
BRANCH  16  23
ATOM     23  O   UNL     1      60.028  85.387  76.934  1.00  0.00    -0.381 OA
ATOM     24  H   UNL     1      59.274  84.916  76.543  1.00  0.00     0.212 HD
ENDBRANCH  16  23
ENDBRANCH   6  15
BRANCH   7  25
ATOM     25  C   UNL     1      63.987  86.390  71.690  1.00  0.00     0.135 C 
BRANCH  25  26
ATOM     26  C   UNL     1      64.975  85.533  70.938  1.00  0.00    -0.040 A 
ATOM     27  C   UNL     1      66.247  85.310  71.465  1.00  0.00     0.004 A 
ATOM     28  C   UNL     1      64.616  84.963  69.717  1.00  0.00     0.004 A 
ATOM     29  C   UNL     1      67.161  84.518  70.770  1.00  0.00     0.000 A 
ATOM     30  C   UNL     1      65.530  84.170  69.022  1.00  0.00     0.000 A 
ATOM     31  C   UNL     1      66.802  83.948  69.549  1.00  0.00     0.000 A 
ENDBRANCH  25  26
ENDBRANCH   7  25
BRANCH  14  32
ATOM     32  C   UNL     1      63.095  82.181  72.757  1.00  0.00    -0.046 C 
ATOM     33  C   UNL     1      62.649  80.952  73.490  1.00  0.00     0.042 C 
ATOM     34  C   UNL     1      63.691  82.113  71.557  1.00  0.00     0.010 C 
ENDBRANCH  14  32
ENDBRANCH   3   4
BRANCH   2  35
ATOM     35  C   UNL     1      58.804  87.014  75.561  1.00  0.00     0.078 CG0
ATOM     36  G   UNL     1      60.046  86.668  76.381  1.00  0.00     0.000 G0
ENDBRANCH   2  35
ENDBRANCH   1   2
BRANCH   1  37
ATOM     37  O   UNL     1      58.084  87.671  72.134  1.00  0.00    -0.461 OA
BRANCH  37  38
ATOM     38  C   UNL     1      57.521  87.191  70.974  1.00  0.00     0.310 C 
ATOM     39  O   UNL     1      56.870  86.159  70.884  1.00  0.00    -0.252 OA
BRANCH  38  40
ATOM     40  C   UNL     1      57.832  88.133  69.835  1.00  0.00     0.158 C 
BRANCH  40  41
ATOM     41  C   UNL     1      59.232  87.969  69.302  1.00  0.00    -0.033 A 
ATOM     42  C   UNL     1      59.835  89.011  68.596  1.00  0.00     0.054 A 
ATOM     43  C   UNL     1      59.924  86.777  69.513  1.00  0.00     0.008 A 
ATOM     44  C   UNL     1      61.131  88.860  68.103  1.00  0.00     0.160 A 
ATOM     45  C   UNL     1      61.220  86.626  69.020  1.00  0.00     0.050 A 
ATOM     46  C   UNL     1      61.824  87.666  68.315  1.00  0.00     0.157 A 
BRANCH  44  47
ATOM     47  O   UNL     1      61.710  89.883  67.415  1.00  0.00    -0.493 OA
ATOM     48  C   UNL     1      62.230  90.968  68.183  1.00  0.00     0.278 C 
ENDBRANCH  44  47
BRANCH  46  49
ATOM     49  O   UNL     1      63.090  87.508  67.838  1.00  0.00    -0.504 OA
ATOM     50  H   UNL     1      63.098  86.775  67.200  1.00  0.00     0.293 HD
ENDBRANCH  46  49
ENDBRANCH  40  41
ENDBRANCH  38  40
ENDBRANCH  37  38
ENDBRANCH   1  37
TORSDOF 11
ENDMDL
MODEL 5
REMARK VINA RESULT:    -6.294     32.130     35.736
REMARK INTER + INTRA:         -11.710
REMARK INTER:                 -10.725
REMARK INTRA:                  -0.985
REMARK UNBOUND:                -0.633
REMARK SMILES C=C(C)[C@]12C[C@@H](C)[C@@]34O[C@](Cc5ccccc5)(O[C@@H]1[C@@H]3C=C(COC(=O)Cc1ccc(O)c(OC)c1)C[C@]1(O)C(=O)C(C)=C[C@@H]41)O2
REMARK SMILES IDX 23 1 22 2 21 3 20 4 9 5 8 6 10 7 6 8 18 9 46 10 19 11 5 12
REMARK SMILES IDX 7 13 4 14 45 15 38 16 44 17 40 18 42 20 41 21 43 22 39 23
REMARK SMILES IDX 11 25 12 26 13 27 17 28 14 29 16 30 15 31 2 32 3 33 1 34
REMARK SMILES IDX 37 35 24 37 25 38 26 39 27 40 28 41 36 42 29 43 33 44 30 45
REMARK SMILES IDX 31 46 34 47 35 48 32 49
REMARK H PARENT 39 24 32 50
REMARK Flexibility Score: 90.00
ROOT
ATOM      1  C   UNL     1      57.643  87.135  73.376  1.00  0.00     0.264 C 
ENDROOT
BRANCH   1   2
ATOM      2  C   UNL     1      58.812  86.564  74.144  1.00  0.00    -0.033 C 
ATOM      3  C   UNL     1      59.666  85.728  73.519  1.00  0.00    -0.015 C 
BRANCH   3   4
ATOM      4  C   UNL     1      60.858  84.970  74.080  1.00  0.00     0.078 C 
ATOM      5  O   UNL     1      62.841  86.415  73.771  1.00  0.00    -0.319 OA
ATOM      6  C   UNL     1      62.000  85.789  74.788  1.00  0.00     0.095 C 
ATOM      7  C   UNL     1      63.169  85.581  72.643  1.00  0.00     0.289 C 
ATOM      8  C   UNL     1      62.871  84.768  75.632  1.00  0.00     0.023 C 
ATOM      9  O   UNL     1      61.993  85.109  71.990  1.00  0.00    -0.320 OA
ATOM     10  O   UNL     1      63.891  84.413  73.025  1.00  0.00    -0.313 OA
ATOM     11  C   UNL     1      61.536  84.149  72.956  1.00  0.00     0.170 C 
ATOM     12  C   UNL     1      62.941  83.371  74.942  1.00  0.00     0.049 C 
ATOM     13  C   UNL     1      64.293  85.241  75.975  1.00  0.00     0.011 C 
ATOM     14  C   UNL     1      62.858  83.487  73.419  1.00  0.00     0.122 C 
BRANCH   6  15
ATOM     15  C   UNL     1      61.407  86.984  75.590  1.00  0.00     0.086 C 
ATOM     16  C   UNL     1      60.124  86.691  76.396  1.00  0.00     0.140 CG0
ATOM     17  C   UNL     1      62.277  87.716  76.573  1.00  0.00    -0.010 C 
ATOM     18  C   UNL     1      60.292  87.580  77.610  1.00  0.00     0.190 C 
ATOM     19  G   UNL     1      58.859  87.017  75.603  1.00  0.00     0.000 G0
ATOM     20  C   UNL     1      61.673  88.089  77.706  1.00  0.00    -0.008 C 
ATOM     21  O   UNL     1      59.428  87.815  78.441  1.00  0.00    -0.291 OA
ATOM     22  C   UNL     1      62.186  88.883  78.841  1.00  0.00     0.048 C 
BRANCH  16  23
ATOM     23  O   UNL     1      60.073  85.382  76.938  1.00  0.00    -0.381 OA
ATOM     24  H   UNL     1      59.314  84.918  76.548  1.00  0.00     0.212 HD
ENDBRANCH  16  23
ENDBRANCH   6  15
BRANCH   7  25
ATOM     25  C   UNL     1      64.000  86.396  71.674  1.00  0.00     0.135 C 
BRANCH  25  26
ATOM     26  C   UNL     1      64.961  85.536  70.891  1.00  0.00    -0.040 A 
ATOM     27  C   UNL     1      66.241  85.291  71.388  1.00  0.00     0.004 A 
ATOM     28  C   UNL     1      64.569  84.984  69.671  1.00  0.00     0.004 A 
ATOM     29  C   UNL     1      67.130  84.495  70.664  1.00  0.00     0.000 A 
ATOM     30  C   UNL     1      65.458  84.189  68.948  1.00  0.00     0.000 A 
ATOM     31  C   UNL     1      66.738  83.945  69.445  1.00  0.00     0.000 A 
ENDBRANCH  25  26
ENDBRANCH   7  25
BRANCH  14  32
ATOM     32  C   UNL     1      63.105  82.185  72.730  1.00  0.00    -0.046 C 
ATOM     33  C   UNL     1      62.671  80.953  73.466  1.00  0.00     0.042 C 
ATOM     34  C   UNL     1      63.683  82.121  71.521  1.00  0.00     0.010 C 
ENDBRANCH  14  32
ENDBRANCH   3   4
BRANCH   2  35
ATOM     35  C   UNL     1      58.870  87.042  75.582  1.00  0.00     0.078 CG0
ATOM     36  G   UNL     1      60.114  86.676  76.391  1.00  0.00     0.000 G0
ENDBRANCH   2  35
ENDBRANCH   1   2
BRANCH   1  37
ATOM     37  O   UNL     1      58.109  87.714  72.177  1.00  0.00    -0.461 OA
BRANCH  37  38
ATOM     38  C   UNL     1      57.602  87.191  71.011  1.00  0.00     0.310 C 
ATOM     39  O   UNL     1      56.947  86.161  70.929  1.00  0.00    -0.252 OA
BRANCH  38  40
ATOM     40  C   UNL     1      57.980  88.082  69.851  1.00  0.00     0.158 C 
BRANCH  40  41
ATOM     41  C   UNL     1      56.851  88.974  69.402  1.00  0.00    -0.033 A 
ATOM     42  C   UNL     1      56.881  89.551  68.132  1.00  0.00     0.054 A 
ATOM     43  C   UNL     1      55.777  89.221  70.256  1.00  0.00     0.008 A 
ATOM     44  C   UNL     1      55.836  90.377  67.717  1.00  0.00     0.160 A 
ATOM     45  C   UNL     1      54.731  90.047  69.840  1.00  0.00     0.050 A 
ATOM     46  C   UNL     1      54.761  90.625  68.572  1.00  0.00     0.157 A 
BRANCH  44  47
ATOM     47  O   UNL     1      55.877  90.935  66.475  1.00  0.00    -0.493 OA
ATOM     48  C   UNL     1      55.524  90.097  65.376  1.00  0.00     0.278 C 
ENDBRANCH  44  47
BRANCH  46  49
ATOM     49  O   UNL     1      53.735  91.428  68.177  1.00  0.00    -0.504 OA
ATOM     50  H   UNL     1      53.689  92.198  68.768  1.00  0.00     0.293 HD
ENDBRANCH  46  49
ENDBRANCH  40  41
ENDBRANCH  38  40
ENDBRANCH  37  38
ENDBRANCH   1  37
TORSDOF 11
ENDMDL
MODEL 6
REMARK VINA RESULT:    -6.118     17.995     22.383
REMARK INTER + INTRA:         -11.401
REMARK INTER:                  -9.217
REMARK INTRA:                  -2.184
REMARK UNBOUND:                -0.633
REMARK SMILES C=C(C)[C@]12C[C@@H](C)[C@@]34O[C@](Cc5ccccc5)(O[C@@H]1[C@@H]3C=C(COC(=O)Cc1ccc(O)c(OC)c1)C[C@]1(O)C(=O)C(C)=C[C@@H]41)O2
REMARK SMILES IDX 23 1 22 2 21 3 20 4 9 5 8 6 10 7 6 8 18 9 46 10 19 11 5 12
REMARK SMILES IDX 7 13 4 14 45 15 38 16 44 17 40 18 42 20 41 21 43 22 39 23
REMARK SMILES IDX 11 25 12 26 13 27 17 28 14 29 16 30 15 31 2 32 3 33 1 34
REMARK SMILES IDX 37 35 24 37 25 38 26 39 27 40 28 41 36 42 29 43 33 44 30 45
REMARK SMILES IDX 31 46 34 47 35 48 32 49
REMARK H PARENT 39 24 32 50
REMARK Flexibility Score: 90.00
ROOT
ATOM      1  C   UNL     1     100.121  83.214  71.954  1.00  0.00     0.264 C 
ENDROOT
BRANCH   1   2
ATOM      2  C   UNL     1      99.460  82.239  72.901  1.00  0.00    -0.033 C 
ATOM      3  C   UNL     1     100.087  81.083  73.200  1.00  0.00    -0.015 C 
BRANCH   3   4
ATOM      4  C   UNL     1      99.608  79.919  74.051  1.00  0.00     0.078 C 
ATOM      5  O   UNL     1     100.380  80.349  76.361  1.00  0.00    -0.319 OA
ATOM      6  C   UNL     1      99.181  80.204  75.539  1.00  0.00     0.095 C 
ATOM      7  C   UNL     1     101.426  79.394  76.100  1.00  0.00     0.289 C 
ATOM      8  C   UNL     1      98.346  78.957  76.047  1.00  0.00     0.023 C 
ATOM      9  O   UNL     1     101.838  79.439  74.736  1.00  0.00    -0.320 OA
ATOM     10  O   UNL     1     101.003  78.052  76.330  1.00  0.00    -0.313 OA
ATOM     11  C   UNL     1     100.702  78.824  74.109  1.00  0.00     0.170 C 
ATOM     12  C   UNL     1      98.853  77.630  75.403  1.00  0.00     0.049 C 
ATOM     13  C   UNL     1      98.272  78.790  77.573  1.00  0.00     0.011 C 
ATOM     14  C   UNL     1     100.350  77.685  75.097  1.00  0.00     0.122 C 
BRANCH   6  15
ATOM     15  C   UNL     1      98.464  81.581  75.653  1.00  0.00     0.086 C 
ATOM     16  C   UNL     1      97.466  81.922  74.527  1.00  0.00     0.140 CG0
ATOM     17  C   UNL     1      97.704  81.914  76.906  1.00  0.00    -0.010 C 
ATOM     18  C   UNL     1      96.405  82.715  75.261  1.00  0.00     0.190 C 
ATOM     19  G   UNL     1      98.118  82.722  73.400  1.00  0.00     0.000 G0
ATOM     20  C   UNL     1      96.557  82.575  76.722  1.00  0.00    -0.008 C 
ATOM     21  O   UNL     1      95.504  83.349  74.734  1.00  0.00    -0.291 OA
ATOM     22  C   UNL     1      95.609  83.129  77.710  1.00  0.00     0.048 C 
BRANCH  16  23
ATOM     23  O   UNL     1      96.762  80.799  74.024  1.00  0.00    -0.381 OA
ATOM     24  H   UNL     1      96.157  80.481  74.715  1.00  0.00     0.212 HD
ENDBRANCH  16  23
ENDBRANCH   6  15
BRANCH   7  25
ATOM     25  C   UNL     1     102.601  79.716  77.001  1.00  0.00     0.135 C 
BRANCH  25  26
ATOM     26  C   UNL     1     102.402  79.186  78.399  1.00  0.00    -0.040 A 
ATOM     27  C   UNL     1     101.488  79.801  79.255  1.00  0.00     0.004 A 
ATOM     28  C   UNL     1     103.131  78.080  78.837  1.00  0.00     0.004 A 
ATOM     29  C   UNL     1     101.304  79.311  80.548  1.00  0.00     0.000 A 
ATOM     30  C   UNL     1     102.947  77.590  80.130  1.00  0.00     0.000 A 
ATOM     31  C   UNL     1     102.033  78.207  80.985  1.00  0.00     0.000 A 
ENDBRANCH  25  26
ENDBRANCH   7  25
BRANCH  14  32
ATOM     32  C   UNL     1     100.894  76.367  74.651  1.00  0.00    -0.046 C 
ATOM     33  C   UNL     1     101.538  75.523  75.711  1.00  0.00     0.042 C 
ATOM     34  C   UNL     1     100.811  75.960  73.376  1.00  0.00     0.010 C 
ENDBRANCH  14  32
ENDBRANCH   3   4
BRANCH   2  35
ATOM     35  C   UNL     1      98.119  82.726  73.415  1.00  0.00     0.078 CG0
ATOM     36  G   UNL     1      97.464  81.916  74.533  1.00  0.00     0.000 G0
ENDBRANCH   2  35
ENDBRANCH   1   2
BRANCH   1  37
ATOM     37  O   UNL     1     101.467  82.836  71.758  1.00  0.00    -0.461 OA
BRANCH  37  38
ATOM     38  C   UNL     1     101.965  82.995  70.486  1.00  0.00     0.310 C 
ATOM     39  O   UNL     1     103.018  83.550  70.208  1.00  0.00    -0.252 OA
BRANCH  38  40
ATOM     40  C   UNL     1     101.010  82.378  69.490  1.00  0.00     0.158 C 
BRANCH  40  41
ATOM     41  C   UNL     1     100.942  80.876  69.593  1.00  0.00    -0.033 A 
ATOM     42  C   UNL     1      99.707  80.243  69.736  1.00  0.00     0.054 A 
ATOM     43  C   UNL     1     102.112  80.120  69.546  1.00  0.00     0.008 A 
ATOM     44  C   UNL     1      99.643  78.853  69.832  1.00  0.00     0.160 A 
ATOM     45  C   UNL     1     102.049  78.729  69.641  1.00  0.00     0.050 A 
ATOM     46  C   UNL     1     100.815  78.096  69.785  1.00  0.00     0.157 A 
BRANCH  44  47
ATOM     47  O   UNL     1      98.432  78.245  69.971  1.00  0.00    -0.493 OA
ATOM     48  C   UNL     1      97.993  77.973  71.301  1.00  0.00     0.278 C 
ENDBRANCH  44  47
BRANCH  46  49
ATOM     49  O   UNL     1     100.765  76.738  69.876  1.00  0.00    -0.504 OA
ATOM     50  H   UNL     1     101.188  76.460  70.706  1.00  0.00     0.293 HD
ENDBRANCH  46  49
ENDBRANCH  40  41
ENDBRANCH  38  40
ENDBRANCH  37  38
ENDBRANCH   1  37
TORSDOF 11
ENDMDL
MODEL 7
REMARK VINA RESULT:    -6.071     17.249     21.586
REMARK INTER + INTRA:         -11.318
REMARK INTER:                  -9.713
REMARK INTRA:                  -1.605
REMARK UNBOUND:                -0.633
REMARK SMILES C=C(C)[C@]12C[C@@H](C)[C@@]34O[C@](Cc5ccccc5)(O[C@@H]1[C@@H]3C=C(COC(=O)Cc1ccc(O)c(OC)c1)C[C@]1(O)C(=O)C(C)=C[C@@H]41)O2
REMARK SMILES IDX 23 1 22 2 21 3 20 4 9 5 8 6 10 7 6 8 18 9 46 10 19 11 5 12
REMARK SMILES IDX 7 13 4 14 45 15 38 16 44 17 40 18 42 20 41 21 43 22 39 23
REMARK SMILES IDX 11 25 12 26 13 27 17 28 14 29 16 30 15 31 2 32 3 33 1 34
REMARK SMILES IDX 37 35 24 37 25 38 26 39 27 40 28 41 36 42 29 43 33 44 30 45
REMARK SMILES IDX 31 46 34 47 35 48 32 49
REMARK H PARENT 39 24 32 50
REMARK Flexibility Score: 90.00
ROOT
ATOM      1  C   UNL     1      99.793  84.479  72.448  1.00  0.00     0.264 C 
ENDROOT
BRANCH   1   2
ATOM      2  C   UNL     1      98.930  83.342  72.944  1.00  0.00    -0.033 C 
ATOM      3  C   UNL     1      99.221  82.081  72.566  1.00  0.00    -0.015 C 
BRANCH   3   4
ATOM      4  C   UNL     1      98.474  80.789  72.860  1.00  0.00     0.078 C 
ATOM      5  O   UNL     1      99.461  79.839  74.919  1.00  0.00    -0.319 OA
ATOM      6  C   UNL     1      98.229  80.392  74.363  1.00  0.00     0.095 C 
ATOM      7  C   UNL     1     100.173  78.930  74.058  1.00  0.00     0.289 C 
ATOM      8  C   UNL     1      97.099  79.280  74.386  1.00  0.00     0.023 C 
ATOM      9  O   UNL     1     100.507  79.548  72.817  1.00  0.00    -0.320 OA
ATOM     10  O   UNL     1      99.396  77.784  73.720  1.00  0.00    -0.313 OA
ATOM     11  C   UNL     1      99.210  79.596  72.202  1.00  0.00     0.170 C 
ATOM     12  C   UNL     1      97.168  78.368  73.123  1.00  0.00     0.049 C 
ATOM     13  C   UNL     1      97.062  78.403  75.649  1.00  0.00     0.011 C 
ATOM     14  C   UNL     1      98.600  78.229  72.603  1.00  0.00     0.122 C 
BRANCH   6  15
ATOM     15  C   UNL     1      97.944  81.653  75.228  1.00  0.00     0.086 C 
ATOM     16  C   UNL     1      97.017  82.714  74.599  1.00  0.00     0.140 CG0
ATOM     17  C   UNL     1      97.391  81.485  76.615  1.00  0.00    -0.010 C 
ATOM     18  C   UNL     1      96.275  83.255  75.803  1.00  0.00     0.190 C 
ATOM     19  G   UNL     1      97.800  83.798  73.859  1.00  0.00     0.000 G0
ATOM     20  C   UNL     1      96.471  82.386  76.978  1.00  0.00    -0.008 C 
ATOM     21  O   UNL     1      95.563  84.247  75.808  1.00  0.00    -0.291 OA
ATOM     22  C   UNL     1      95.784  82.576  78.272  1.00  0.00     0.048 C 
BRANCH  16  23
ATOM     23  O   UNL     1      95.991  82.170  73.785  1.00  0.00    -0.381 OA
ATOM     24  H   UNL     1      96.295  81.315  73.438  1.00  0.00     0.212 HD
ENDBRANCH  16  23
ENDBRANCH   6  15
BRANCH   7  25
ATOM     25  C   UNL     1     101.438  78.492  74.769  1.00  0.00     0.135 C 
BRANCH  25  26
ATOM     26  C   UNL     1     101.301  78.577  76.268  1.00  0.00    -0.040 A 
ATOM     27  C   UNL     1     100.413  77.733  76.936  1.00  0.00     0.004 A 
ATOM     28  C   UNL     1     102.063  79.497  76.988  1.00  0.00     0.004 A 
ATOM     29  C   UNL     1     100.286  77.810  78.323  1.00  0.00     0.000 A 
ATOM     30  C   UNL     1     101.936  79.574  78.375  1.00  0.00     0.000 A 
ATOM     31  C   UNL     1     101.047  78.731  79.042  1.00  0.00     0.000 A 
ENDBRANCH  25  26
ENDBRANCH   7  25
BRANCH  14  32
ATOM     32  C   UNL     1      98.717  77.220  71.508  1.00  0.00    -0.046 C 
ATOM     33  C   UNL     1      97.451  76.884  70.778  1.00  0.00     0.042 C 
ATOM     34  C   UNL     1      99.889  76.645  71.196  1.00  0.00     0.010 C 
ENDBRANCH  14  32
ENDBRANCH   3   4
BRANCH   2  35
ATOM     35  C   UNL     1      97.803  83.801  73.850  1.00  0.00     0.078 CG0
ATOM     36  G   UNL     1      97.008  82.719  74.579  1.00  0.00     0.000 G0
ENDBRANCH   2  35
ENDBRANCH   1   2
BRANCH   1  37
ATOM     37  O   UNL     1     101.152  84.153  72.643  1.00  0.00    -0.461 OA
BRANCH  37  38
ATOM     38  C   UNL     1     101.905  83.977  71.505  1.00  0.00     0.310 C 
ATOM     39  O   UNL     1     101.470  84.014  70.363  1.00  0.00    -0.252 OA
BRANCH  38  40
ATOM     40  C   UNL     1     103.346  83.731  71.887  1.00  0.00     0.158 C 
BRANCH  40  41
ATOM     41  C   UNL     1     103.887  82.437  71.334  1.00  0.00    -0.033 A 
ATOM     42  C   UNL     1     104.009  81.322  72.163  1.00  0.00     0.054 A 
ATOM     43  C   UNL     1     104.266  82.355  69.995  1.00  0.00     0.008 A 
ATOM     44  C   UNL     1     104.510  80.124  71.652  1.00  0.00     0.160 A 
ATOM     45  C   UNL     1     104.768  81.158  69.483  1.00  0.00     0.050 A 
ATOM     46  C   UNL     1     104.890  80.043  70.312  1.00  0.00     0.157 A 
BRANCH  44  47
ATOM     47  O   UNL     1     104.625  79.042  72.471  1.00  0.00    -0.493 OA
ATOM     48  C   UNL     1     105.165  79.268  73.772  1.00  0.00     0.278 C 
ENDBRANCH  44  47
BRANCH  46  49
ATOM     49  O   UNL     1     105.380  78.879  69.801  1.00  0.00    -0.504 OA
ATOM     50  H   UNL     1     105.044  78.136  70.330  1.00  0.00     0.293 HD
ENDBRANCH  46  49
ENDBRANCH  40  41
ENDBRANCH  38  40
ENDBRANCH  37  38
ENDBRANCH   1  37
TORSDOF 11
ENDMDL
MODEL 8
REMARK VINA RESULT:    -5.913     30.552     33.905
REMARK INTER + INTRA:         -11.040
REMARK INTER:                  -8.769
REMARK INTRA:                  -2.271
REMARK UNBOUND:                -0.633
REMARK SMILES C=C(C)[C@]12C[C@@H](C)[C@@]34O[C@](Cc5ccccc5)(O[C@@H]1[C@@H]3C=C(COC(=O)Cc1ccc(O)c(OC)c1)C[C@]1(O)C(=O)C(C)=C[C@@H]41)O2
REMARK SMILES IDX 23 1 22 2 21 3 20 4 9 5 8 6 10 7 6 8 18 9 46 10 19 11 5 12
REMARK SMILES IDX 7 13 4 14 45 15 38 16 44 17 40 18 42 20 41 21 43 22 39 23
REMARK SMILES IDX 11 25 12 26 13 27 17 28 14 29 16 30 15 31 2 32 3 33 1 34
REMARK SMILES IDX 37 35 24 37 25 38 26 39 27 40 28 41 36 42 29 43 33 44 30 45
REMARK SMILES IDX 31 46 34 47 35 48 32 49
REMARK H PARENT 39 24 32 50
REMARK Flexibility Score: 90.00
ROOT
ATOM      1  C   UNL     1      58.887  88.896  74.344  1.00  0.00     0.264 C 
ENDROOT
BRANCH   1   2
ATOM      2  C   UNL     1      60.126  88.196  74.853  1.00  0.00    -0.033 C 
ATOM      3  C   UNL     1      60.521  87.047  74.268  1.00  0.00    -0.015 C 
BRANCH   3   4
ATOM      4  C   UNL     1      61.670  86.123  74.636  1.00  0.00     0.078 C 
ATOM      5  O   UNL     1      63.634  86.854  73.321  1.00  0.00    -0.319 OA
ATOM      6  C   UNL     1      63.126  86.720  74.685  1.00  0.00     0.095 C 
ATOM      7  C   UNL     1      63.358  85.742  72.449  1.00  0.00     0.289 C 
ATOM      8  C   UNL     1      64.036  85.699  75.485  1.00  0.00     0.023 C 
ATOM      9  O   UNL     1      61.957  85.491  72.357  1.00  0.00    -0.320 OA
ATOM     10  O   UNL     1      63.936  84.527  72.920  1.00  0.00    -0.313 OA
ATOM     11  C   UNL     1      61.717  84.926  73.655  1.00  0.00     0.170 C 
ATOM     12  C   UNL     1      63.582  84.225  75.253  1.00  0.00     0.049 C 
ATOM     13  C   UNL     1      65.547  85.815  75.221  1.00  0.00     0.011 C 
ATOM     14  C   UNL     1      62.966  84.034  73.867  1.00  0.00     0.122 C 
BRANCH   6  15
ATOM     15  C   UNL     1      63.107  88.174  75.237  1.00  0.00     0.086 C 
ATOM     16  C   UNL     1      62.189  88.429  76.450  1.00  0.00     0.140 CG0
ATOM     17  C   UNL     1      64.401  88.827  75.635  1.00  0.00    -0.010 C 
ATOM     18  C   UNL     1      62.960  89.473  77.230  1.00  0.00     0.190 C 
ATOM     19  G   UNL     1      60.803  88.917  76.032  1.00  0.00     0.000 G0
ATOM     20  C   UNL     1      64.345  89.586  76.735  1.00  0.00    -0.008 C 
ATOM     21  O   UNL     1      62.528  90.111  78.178  1.00  0.00    -0.291 OA
ATOM     22  C   UNL     1      65.383  90.430  77.363  1.00  0.00     0.048 C 
BRANCH  16  23
ATOM     23  O   UNL     1      62.103  87.333  77.346  1.00  0.00    -0.381 OA
ATOM     24  H   UNL     1      62.304  86.519  76.855  1.00  0.00     0.212 HD
ENDBRANCH  16  23
ENDBRANCH   6  15
BRANCH   7  25
ATOM     25  C   UNL     1      63.911  86.066  71.076  1.00  0.00     0.135 C 
BRANCH  25  26
ATOM     26  C   UNL     1      65.358  85.662  70.939  1.00  0.00    -0.040 A 
ATOM     27  C   UNL     1      65.694  84.496  70.250  1.00  0.00     0.004 A 
ATOM     28  C   UNL     1      66.359  86.453  71.501  1.00  0.00     0.004 A 
ATOM     29  C   UNL     1      67.032  84.122  70.123  1.00  0.00     0.000 A 
ATOM     30  C   UNL     1      67.697  86.079  71.374  1.00  0.00     0.000 A 
ATOM     31  C   UNL     1      68.033  84.914  70.685  1.00  0.00     0.000 A 
ENDBRANCH  25  26
ENDBRANCH   7  25
BRANCH  14  32
ATOM     32  C   UNL     1      62.691  82.599  73.554  1.00  0.00    -0.046 C 
ATOM     33  C   UNL     1      63.403  82.033  72.362  1.00  0.00     0.042 C 
ATOM     34  C   UNL     1      61.854  81.859  74.296  1.00  0.00     0.010 C 
ENDBRANCH  14  32
ENDBRANCH   3   4
BRANCH   2  35
ATOM     35  C   UNL     1      60.789  88.924  76.006  1.00  0.00     0.078 CG0
ATOM     36  G   UNL     1      62.171  88.436  76.439  1.00  0.00     0.000 G0
ENDBRANCH   2  35
ENDBRANCH   1   2
BRANCH   1  37
ATOM     37  O   UNL     1      58.706  88.590  72.978  1.00  0.00    -0.461 OA
BRANCH  37  38
ATOM     38  C   UNL     1      57.443  88.193  72.606  1.00  0.00     0.310 C 
ATOM     39  O   UNL     1      56.532  87.932  73.379  1.00  0.00    -0.252 OA
BRANCH  38  40
ATOM     40  C   UNL     1      57.357  88.131  71.099  1.00  0.00     0.158 C 
BRANCH  40  41
ATOM     41  C   UNL     1      58.412  87.246  70.486  1.00  0.00    -0.033 A 
ATOM     42  C   UNL     1      59.384  87.797  69.650  1.00  0.00     0.054 A 
ATOM     43  C   UNL     1      58.417  85.878  70.755  1.00  0.00     0.008 A 
ATOM     44  C   UNL     1      60.361  86.978  69.083  1.00  0.00     0.160 A 
ATOM     45  C   UNL     1      59.394  85.059  70.188  1.00  0.00     0.050 A 
ATOM     46  C   UNL     1      60.365  85.608  69.352  1.00  0.00     0.157 A 
BRANCH  44  47
ATOM     47  O   UNL     1      61.304  87.526  68.268  1.00  0.00    -0.493 OA
ATOM     48  C   UNL     1      61.509  88.935  68.369  1.00  0.00     0.278 C 
ENDBRANCH  44  47
BRANCH  46  49
ATOM     49  O   UNL     1      61.315  84.799  68.804  1.00  0.00    -0.504 OA
ATOM     50  H   UNL     1      60.923  83.927  68.627  1.00  0.00     0.293 HD
ENDBRANCH  46  49
ENDBRANCH  40  41
ENDBRANCH  38  40
ENDBRANCH  37  38
ENDBRANCH   1  37
TORSDOF 11
ENDMDL
MODEL 9
REMARK VINA RESULT:    -5.757      2.934      9.478
REMARK INTER + INTRA:         -10.765
REMARK INTER:                 -10.049
REMARK INTRA:                  -0.716
REMARK UNBOUND:                -0.633
REMARK SMILES C=C(C)[C@]12C[C@@H](C)[C@@]34O[C@](Cc5ccccc5)(O[C@@H]1[C@@H]3C=C(COC(=O)Cc1ccc(O)c(OC)c1)C[C@]1(O)C(=O)C(C)=C[C@@H]41)O2
REMARK SMILES IDX 23 1 22 2 21 3 20 4 9 5 8 6 10 7 6 8 18 9 46 10 19 11 5 12
REMARK SMILES IDX 7 13 4 14 45 15 38 16 44 17 40 18 42 20 41 21 43 22 39 23
REMARK SMILES IDX 11 25 12 26 13 27 17 28 14 29 16 30 15 31 2 32 3 33 1 34
REMARK SMILES IDX 37 35 24 37 25 38 26 39 27 40 28 41 36 42 29 43 33 44 30 45
REMARK SMILES IDX 31 46 34 47 35 48 32 49
REMARK H PARENT 39 24 32 50
REMARK Flexibility Score: 90.00
ROOT
ATOM      1  C   UNL     1      92.323 101.331  71.724  1.00  0.00     0.264 C 
ENDROOT
BRANCH   1   2
ATOM      2  C   UNL     1      93.771 100.900  71.722  1.00  0.00    -0.033 C 
ATOM      3  C   UNL     1      94.275 100.278  72.806  1.00  0.00    -0.015 C 
BRANCH   3   4
ATOM      4  C   UNL     1      95.699  99.821  73.081  1.00  0.00     0.078 C 
ATOM      5  O   UNL     1      95.860  97.472  72.323  1.00  0.00    -0.319 OA
ATOM      6  C   UNL     1      96.371  98.817  72.072  1.00  0.00     0.095 C 
ATOM      7  C   UNL     1      95.747  97.104  73.710  1.00  0.00     0.289 C 
ATOM      8  C   UNL     1      97.933  98.842  72.339  1.00  0.00     0.023 C 
ATOM      9  O   UNL     1      94.911  98.014  74.420  1.00  0.00    -0.320 OA
ATOM     10  O   UNL     1      97.004  97.132  74.381  1.00  0.00    -0.313 OA
ATOM     11  C   UNL     1      95.778  99.158  74.479  1.00  0.00     0.170 C 
ATOM     12  C   UNL     1      98.251  99.087  73.846  1.00  0.00     0.049 C 
ATOM     13  C   UNL     1      98.706  97.608  71.846  1.00  0.00     0.011 C 
ATOM     14  C   UNL     1      97.160  98.517  74.754  1.00  0.00     0.122 C 
BRANCH   6  15
ATOM     15  C   UNL     1      95.937  99.131  70.610  1.00  0.00     0.086 C 
ATOM     16  C   UNL     1      95.892 100.623  70.220  1.00  0.00     0.140 CG0
ATOM     17  C   UNL     1      96.679  98.494  69.469  1.00  0.00    -0.010 C 
ATOM     18  C   UNL     1      96.310 100.593  68.765  1.00  0.00     0.190 C 
ATOM     19  G   UNL     1      94.504 101.230  70.418  1.00  0.00     0.000 G0
ATOM     20  C   UNL     1      96.880  99.280  68.406  1.00  0.00    -0.008 C 
ATOM     21  O   UNL     1      96.241 101.533  67.989  1.00  0.00    -0.291 OA
ATOM     22  C   UNL     1      97.487  98.972  67.095  1.00  0.00     0.048 C 
BRANCH  16  23
ATOM     23  O   UNL     1      96.894 101.410  70.843  1.00  0.00    -0.381 OA
ATOM     24  H   UNL     1      97.585 101.602  70.188  1.00  0.00     0.212 HD
ENDBRANCH  16  23
ENDBRANCH   6  15
BRANCH   7  25
ATOM     25  C   UNL     1      95.164  95.707  73.787  1.00  0.00     0.135 C 
BRANCH  25  26
ATOM     26  C   UNL     1      94.376  95.493  75.055  1.00  0.00    -0.040 A 
ATOM     27  C   UNL     1      94.899  94.697  76.074  1.00  0.00     0.004 A 
ATOM     28  C   UNL     1      93.125  96.090  75.209  1.00  0.00     0.004 A 
ATOM     29  C   UNL     1      94.170  94.498  77.247  1.00  0.00     0.000 A 
ATOM     30  C   UNL     1      92.396  95.891  76.382  1.00  0.00     0.000 A 
ATOM     31  C   UNL     1      92.919  95.095  77.401  1.00  0.00     0.000 A 
ENDBRANCH  25  26
ENDBRANCH   7  25
BRANCH  14  32
ATOM     32  C   UNL     1      97.529  98.576  76.200  1.00  0.00    -0.046 C 
ATOM     33  C   UNL     1      97.663  97.259  76.904  1.00  0.00     0.042 C 
ATOM     34  C   UNL     1      97.728  99.742  76.834  1.00  0.00     0.010 C 
ENDBRANCH  14  32
ENDBRANCH   3   4
BRANCH   2  35
ATOM     35  C   UNL     1      94.490 101.238  70.429  1.00  0.00     0.078 CG0
ATOM     36  G   UNL     1      95.871 100.621  70.216  1.00  0.00     0.000 G0
ENDBRANCH   2  35
ENDBRANCH   1   2
BRANCH   1  37
ATOM     37  O   UNL     1      91.611 100.580  70.763  1.00  0.00    -0.461 OA
BRANCH  37  38
ATOM     38  C   UNL     1      90.437 101.134  70.307  1.00  0.00     0.310 C 
ATOM     39  O   UNL     1      89.497 100.503  69.844  1.00  0.00    -0.252 OA
BRANCH  38  40
ATOM     40  C   UNL     1      90.492 102.635  70.466  1.00  0.00     0.158 C 
BRANCH  40  41
ATOM     41  C   UNL     1      89.997 103.374  69.249  1.00  0.00    -0.033 A 
ATOM     42  C   UNL     1      90.465 103.023  67.982  1.00  0.00     0.054 A 
ATOM     43  C   UNL     1      89.071 104.407  69.389  1.00  0.00     0.008 A 
ATOM     44  C   UNL     1      90.006 103.706  66.855  1.00  0.00     0.160 A 
ATOM     45  C   UNL     1      88.613 105.091  68.262  1.00  0.00     0.050 A 
ATOM     46  C   UNL     1      89.080 104.741  66.996  1.00  0.00     0.157 A 
BRANCH  44  47
ATOM     47  O   UNL     1      90.470 103.355  65.624  1.00  0.00    -0.493 OA
ATOM     48  C   UNL     1      91.705 102.641  65.576  1.00  0.00     0.278 C 
ENDBRANCH  44  47
BRANCH  46  49
ATOM     49  O   UNL     1      88.625 105.414  65.904  1.00  0.00    -0.504 OA
ATOM     50  H   UNL     1      87.680 105.220  65.783  1.00  0.00     0.293 HD
ENDBRANCH  46  49
ENDBRANCH  40  41
ENDBRANCH  38  40
ENDBRANCH  37  38
ENDBRANCH   1  37
TORSDOF 11
ENDMDL
MODEL 10
REMARK VINA RESULT:    -5.711     16.547     21.206
REMARK INTER + INTRA:         -10.684
REMARK INTER:                  -9.445
REMARK INTRA:                  -1.239
REMARK UNBOUND:                -0.633
REMARK SMILES C=C(C)[C@]12C[C@@H](C)[C@@]34O[C@](Cc5ccccc5)(O[C@@H]1[C@@H]3C=C(COC(=O)Cc1ccc(O)c(OC)c1)C[C@]1(O)C(=O)C(C)=C[C@@H]41)O2
REMARK SMILES IDX 23 1 22 2 21 3 20 4 9 5 8 6 10 7 6 8 18 9 46 10 19 11 5 12
REMARK SMILES IDX 7 13 4 14 45 15 38 16 44 17 40 18 42 20 41 21 43 22 39 23
REMARK SMILES IDX 11 25 12 26 13 27 17 28 14 29 16 30 15 31 2 32 3 33 1 34
REMARK SMILES IDX 37 35 24 37 25 38 26 39 27 40 28 41 36 42 29 43 33 44 30 45
REMARK SMILES IDX 31 46 34 47 35 48 32 49
REMARK H PARENT 39 24 32 50
REMARK Flexibility Score: 90.00
ROOT
ATOM      1  C   UNL     1      99.851  84.231  72.299  1.00  0.00     0.264 C 
ENDROOT
BRANCH   1   2
ATOM      2  C   UNL     1      98.981  83.106  72.809  1.00  0.00    -0.033 C 
ATOM      3  C   UNL     1      99.187  81.854  72.353  1.00  0.00    -0.015 C 
BRANCH   3   4
ATOM      4  C   UNL     1      98.410  80.581  72.646  1.00  0.00     0.078 C 
ATOM      5  O   UNL     1      99.511  79.493  74.575  1.00  0.00    -0.319 OA
ATOM      6  C   UNL     1      98.264  80.121  74.144  1.00  0.00     0.095 C 
ATOM      7  C   UNL     1     100.114  78.600  73.620  1.00  0.00     0.289 C 
ATOM      8  C   UNL     1      97.093  79.055  74.207  1.00  0.00     0.023 C 
ATOM      9  O   UNL     1     100.378  79.263  72.386  1.00  0.00    -0.320 OA
ATOM     10  O   UNL     1      99.264  77.503  73.293  1.00  0.00    -0.313 OA
ATOM     11  C   UNL     1      99.040  79.392  71.879  1.00  0.00     0.170 C 
ATOM     12  C   UNL     1      97.024  78.204  72.902  1.00  0.00     0.049 C 
ATOM     13  C   UNL     1      97.116  78.120  75.427  1.00  0.00     0.011 C 
ATOM     14  C   UNL     1      98.404  78.034  72.264  1.00  0.00     0.122 C 
BRANCH   6  15
ATOM     15  C   UNL     1      98.102  81.349  75.085  1.00  0.00     0.086 C 
ATOM     16  C   UNL     1      97.177  82.476  74.580  1.00  0.00     0.140 CG0
ATOM     17  C   UNL     1      97.651  81.136  76.503  1.00  0.00    -0.010 C 
ATOM     18  C   UNL     1      96.554  82.986  75.862  1.00  0.00     0.190 C 
ATOM     19  G   UNL     1      97.947  83.562  73.830  1.00  0.00     0.000 G0
ATOM     20  C   UNL     1      96.802  82.054  76.978  1.00  0.00    -0.008 C 
ATOM     21  O   UNL     1      95.888  84.005  75.969  1.00  0.00    -0.291 OA
ATOM     22  C   UNL     1      96.226  82.208  78.329  1.00  0.00     0.048 C 
BRANCH  16  23
ATOM     23  O   UNL     1      96.069  82.013  73.826  1.00  0.00    -0.381 OA
ATOM     24  H   UNL     1      96.370  81.295  73.246  1.00  0.00     0.212 HD
ENDBRANCH  16  23
ENDBRANCH   6  15
BRANCH   7  25
ATOM     25  C   UNL     1     101.410  78.078  74.208  1.00  0.00     0.135 C 
BRANCH  25  26
ATOM     26  C   UNL     1     102.582  78.965  73.869  1.00  0.00    -0.040 A 
ATOM     27  C   UNL     1     103.336  78.715  72.722  1.00  0.00     0.004 A 
ATOM     28  C   UNL     1     102.910  80.036  74.699  1.00  0.00     0.004 A 
ATOM     29  C   UNL     1     104.421  79.535  72.408  1.00  0.00     0.000 A 
ATOM     30  C   UNL     1     103.994  80.856  74.385  1.00  0.00     0.000 A 
ATOM     31  C   UNL     1     104.749  80.605  73.239  1.00  0.00     0.000 A 
ENDBRANCH  25  26
ENDBRANCH   7  25
BRANCH  14  32
ATOM     32  C   UNL     1      98.393  77.074  71.119  1.00  0.00    -0.046 C 
ATOM     33  C   UNL     1      97.783  77.573  69.843  1.00  0.00     0.042 C 
ATOM     34  C   UNL     1      98.899  75.836  71.226  1.00  0.00     0.010 C 
ENDBRANCH  14  32
ENDBRANCH   3   4
BRANCH   2  35
ATOM     35  C   UNL     1      97.948  83.566  73.820  1.00  0.00     0.078 CG0
ATOM     36  G   UNL     1      97.193  82.482  74.589  1.00  0.00     0.000 G0
ENDBRANCH   2  35
ENDBRANCH   1   2
BRANCH   1  37
ATOM     37  O   UNL     1     100.987  84.355  73.127  1.00  0.00    -0.461 OA
BRANCH  37  38
ATOM     38  C   UNL     1     102.209  84.276  72.500  1.00  0.00     0.310 C 
ATOM     39  O   UNL     1     103.293  84.356  73.061  1.00  0.00    -0.252 OA
BRANCH  38  40
ATOM     40  C   UNL     1     102.003  84.077  71.017  1.00  0.00     0.158 C 
BRANCH  40  41
ATOM     41  C   UNL     1     103.167  84.561  70.191  1.00  0.00    -0.033 A 
ATOM     42  C   UNL     1     103.209  85.887  69.756  1.00  0.00     0.054 A 
ATOM     43  C   UNL     1     104.202  83.686  69.862  1.00  0.00     0.008 A 
ATOM     44  C   UNL     1     104.286  86.335  68.991  1.00  0.00     0.160 A 
ATOM     45  C   UNL     1     105.279  84.135  69.098  1.00  0.00     0.050 A 
ATOM     46  C   UNL     1     105.321  85.459  68.662  1.00  0.00     0.157 A 
BRANCH  44  47
ATOM     47  O   UNL     1     104.316  87.631  68.572  1.00  0.00    -0.493 OA
ATOM     48  C   UNL     1     103.064  88.307  68.465  1.00  0.00     0.278 C 
ENDBRANCH  44  47
BRANCH  46  49
ATOM     49  O   UNL     1     106.379  85.886  67.918  1.00  0.00    -0.504 OA
ATOM     50  H   UNL     1     106.079  86.588  67.316  1.00  0.00     0.293 HD
ENDBRANCH  46  49
ENDBRANCH  40  41
ENDBRANCH  38  40
ENDBRANCH  37  38
ENDBRANCH   1  37
TORSDOF 11
ENDMDL
