MODEL 1
REMARK VINA RESULT:    -5.659      0.000      0.000
REMARK INTER + INTRA:         -10.363
REMARK INTER:                  -9.298
REMARK INTRA:                  -1.066
REMARK UNBOUND:                -1.066
REMARK SMILES CCCCC[C@H](O)CC(=O)CCc1ccc(O)c(OC)c1
REMARK SMILES IDX 8 1 6 2 7 3 5 5 4 6 3 7 2 8 1 9 9 10 10 11 11 12 12 13 13 14
REMARK SMILES IDX 21 15 14 16 18 17 15 18 16 19 19 20 20 21 17 22
REMARK H PARENT 7 4 17 23
REMARK Flexibility Score: inf
ROOT
ATOM      1  C   UNL     1      97.064  82.021  78.691  1.00  0.00     0.107 C 
ENDROOT
BRANCH   1   2
ATOM      2  C   UNL     1      96.887  81.941  77.173  1.00  0.00     0.121 C 
BRANCH   2   3
ATOM      3  O   UNL     1      96.438  80.639  76.806  1.00  0.00    -0.393 OA
ATOM      4  H   UNL     1      95.496  80.705  76.568  1.00  0.00     0.210 HD
ENDBRANCH   2   3
BRANCH   2   5
ATOM      5  C   UNL     1      95.907  82.986  76.627  1.00  0.00     0.032 C 
BRANCH   5   6
ATOM      6  C   UNL     1      96.020  83.144  75.106  1.00  0.00     0.003 C 
BRANCH   6   7
ATOM      7  C   UNL     1      97.457  83.373  74.625  1.00  0.00    -0.000 C 
BRANCH   7   8
ATOM      8  C   UNL     1      97.892  82.414  73.518  1.00  0.00    -0.003 C 
ATOM      9  C   UNL     1      96.923  81.250  73.380  1.00  0.00     0.004 C 
ENDBRANCH   7   8
ENDBRANCH   6   7
ENDBRANCH   5   6
ENDBRANCH   2   5
ENDBRANCH   1   2
BRANCH   1  10
ATOM     10  C   UNL     1      98.137  81.080  79.216  1.00  0.00     0.135 C 
ATOM     11  O   UNL     1      98.910  80.510  78.447  1.00  0.00    -0.300 OA
BRANCH  10  12
ATOM     12  C   UNL     1      98.226  80.923  80.726  1.00  0.00     0.080 C 
BRANCH  12  13
ATOM     13  C   UNL     1      96.922  80.457  81.375  1.00  0.00     0.043 C 
BRANCH  13  14
ATOM     14  C   UNL     1      96.362  81.453  82.362  1.00  0.00    -0.044 A 
ATOM     15  C   UNL     1      95.561  81.016  83.417  1.00  0.00     0.054 A 
ATOM     16  C   UNL     1      96.646  82.812  82.217  1.00  0.00     0.008 A 
ATOM     17  C   UNL     1      95.045  81.938  84.328  1.00  0.00     0.160 A 
ATOM     18  C   UNL     1      96.130  83.733  83.129  1.00  0.00     0.050 A 
ATOM     19  C   UNL     1      95.330  83.296  84.184  1.00  0.00     0.157 A 
BRANCH  17  20
ATOM     20  O   UNL     1      94.264  81.499  85.354  1.00  0.00    -0.493 OA
ATOM     21  C   UNL     1      94.931  80.924  86.477  1.00  0.00     0.278 C 
ENDBRANCH  17  20
BRANCH  19  22
ATOM     22  O   UNL     1      94.832  84.205  85.068  1.00  0.00    -0.504 OA
ATOM     23  H   UNL     1      94.518  83.737  85.861  1.00  0.00     0.293 HD
ENDBRANCH  19  22
ENDBRANCH  13  14
ENDBRANCH  12  13
ENDBRANCH  10  12
ENDBRANCH   1  10
TORSDOF 12
ENDMDL
MODEL 2
REMARK VINA RESULT:    -5.631      1.758      3.037
REMARK INTER + INTRA:         -10.318
REMARK INTER:                  -9.535
REMARK INTRA:                  -0.783
REMARK UNBOUND:                -1.066
REMARK SMILES CCCCC[C@H](O)CC(=O)CCc1ccc(O)c(OC)c1
REMARK SMILES IDX 8 1 6 2 7 3 5 5 4 6 3 7 2 8 1 9 9 10 10 11 11 12 12 13 13 14
REMARK SMILES IDX 21 15 14 16 18 17 15 18 16 19 19 20 20 21 17 22
REMARK H PARENT 7 4 17 23
REMARK Flexibility Score: inf
ROOT
ATOM      1  C   UNL     1      97.358  82.365  76.332  1.00  0.00     0.107 C 
ENDROOT
BRANCH   1   2
ATOM      2  C   UNL     1      96.501  82.942  75.203  1.00  0.00     0.121 C 
BRANCH   2   3
ATOM      3  O   UNL     1      96.364  84.351  75.371  1.00  0.00    -0.393 OA
ATOM      4  H   UNL     1      96.325  84.754  74.486  1.00  0.00     0.210 HD
ENDBRANCH   2   3
BRANCH   2   5
ATOM      5  C   UNL     1      97.071  82.653  73.809  1.00  0.00     0.032 C 
BRANCH   5   6
ATOM      6  C   UNL     1      98.595  82.811  73.765  1.00  0.00     0.003 C 
BRANCH   6   7
ATOM      7  C   UNL     1      99.050  84.144  73.161  1.00  0.00    -0.000 C 
BRANCH   7   8
ATOM      8  C   UNL     1     100.292  84.025  72.281  1.00  0.00    -0.003 C 
ATOM      9  C   UNL     1     100.359  82.668  71.596  1.00  0.00     0.004 C 
ENDBRANCH   7   8
ENDBRANCH   6   7
ENDBRANCH   5   6
ENDBRANCH   2   5
ENDBRANCH   1   2
BRANCH   1  10
ATOM     10  C   UNL     1      96.588  82.178  77.629  1.00  0.00     0.135 C 
ATOM     11  O   UNL     1      95.526  82.769  77.825  1.00  0.00    -0.300 OA
BRANCH  10  12
ATOM     12  C   UNL     1      97.173  81.198  78.635  1.00  0.00     0.080 C 
BRANCH  12  13
ATOM     13  C   UNL     1      97.740  81.868  79.887  1.00  0.00     0.043 C 
BRANCH  13  14
ATOM     14  C   UNL     1      97.084  81.393  81.162  1.00  0.00    -0.044 A 
ATOM     15  C   UNL     1      96.708  82.314  82.139  1.00  0.00     0.054 A 
ATOM     16  C   UNL     1      96.854  80.031  81.361  1.00  0.00     0.008 A 
ATOM     17  C   UNL     1      96.101  81.873  83.315  1.00  0.00     0.160 A 
ATOM     18  C   UNL     1      96.247  79.590  82.537  1.00  0.00     0.050 A 
ATOM     19  C   UNL     1      95.871  80.512  83.514  1.00  0.00     0.157 A 
BRANCH  17  20
ATOM     20  O   UNL     1      95.739  82.782  84.263  1.00  0.00    -0.493 OA
ATOM     21  C   UNL     1      95.594  84.137  83.840  1.00  0.00     0.278 C 
ENDBRANCH  17  20
BRANCH  19  22
ATOM     22  O   UNL     1      95.279  80.070  84.659  1.00  0.00    -0.504 OA
ATOM     23  H   UNL     1      95.940  79.601  85.197  1.00  0.00     0.293 HD
ENDBRANCH  19  22
ENDBRANCH  13  14
ENDBRANCH  12  13
ENDBRANCH  10  12
ENDBRANCH   1  10
TORSDOF 12
ENDMDL
MODEL 3
REMARK VINA RESULT:    -5.459     21.626     25.235
REMARK INTER + INTRA:         -10.036
REMARK INTER:                  -8.402
REMARK INTRA:                  -1.634
REMARK UNBOUND:                -1.066
REMARK SMILES CCCCC[C@H](O)CC(=O)CCc1ccc(O)c(OC)c1
REMARK SMILES IDX 8 1 6 2 7 3 5 5 4 6 3 7 2 8 1 9 9 10 10 11 11 12 12 13 13 14
REMARK SMILES IDX 21 15 14 16 18 17 15 18 16 19 19 20 20 21 17 22
REMARK H PARENT 7 4 17 23
REMARK Flexibility Score: inf
ROOT
ATOM      1  C   UNL     1      88.097  99.615  67.780  1.00  0.00     0.107 C 
ENDROOT
BRANCH   1   2
ATOM      2  C   UNL     1      88.865  98.362  67.355  1.00  0.00     0.121 C 
BRANCH   2   3
ATOM      3  O   UNL     1      89.224  98.459  65.978  1.00  0.00    -0.393 OA
ATOM      4  H   UNL     1      88.440  98.759  65.487  1.00  0.00     0.210 HD
ENDBRANCH   2   3
BRANCH   2   5
ATOM      5  C   UNL     1      90.128  98.120  68.190  1.00  0.00     0.032 C 
BRANCH   5   6
ATOM      6  C   UNL     1      90.713  99.426  68.742  1.00  0.00     0.003 C 
BRANCH   6   7
ATOM      7  C   UNL     1      91.589  99.222  69.982  1.00  0.00    -0.000 C 
BRANCH   7   8
ATOM      8  C   UNL     1      91.144 100.046  71.189  1.00  0.00    -0.003 C 
ATOM      9  C   UNL     1      89.661 100.374  71.119  1.00  0.00     0.004 C 
ENDBRANCH   7   8
ENDBRANCH   6   7
ENDBRANCH   5   6
ENDBRANCH   2   5
ENDBRANCH   1   2
BRANCH   1  10
ATOM     10  C   UNL     1      87.397 100.307  66.621  1.00  0.00     0.135 C 
ATOM     11  O   UNL     1      86.510  99.736  65.986  1.00  0.00    -0.300 OA
BRANCH  10  12
ATOM     12  C   UNL     1      87.818 101.738  66.326  1.00  0.00     0.080 C 
BRANCH  12  13
ATOM     13  C   UNL     1      89.064 102.183  67.095  1.00  0.00     0.043 C 
BRANCH  13  14
ATOM     14  C   UNL     1      90.274 102.363  66.209  1.00  0.00    -0.044 A 
ATOM     15  C   UNL     1      90.635 103.637  65.772  1.00  0.00     0.054 A 
ATOM     16  C   UNL     1      91.029 101.254  65.828  1.00  0.00     0.008 A 
ATOM     17  C   UNL     1      91.753 103.802  64.954  1.00  0.00     0.160 A 
ATOM     18  C   UNL     1      92.148 101.419  65.010  1.00  0.00     0.050 A 
ATOM     19  C   UNL     1      92.509 102.693  64.573  1.00  0.00     0.157 A 
BRANCH  17  20
ATOM     20  O   UNL     1      92.096 105.052  64.533  1.00  0.00    -0.493 OA
ATOM     21  C   UNL     1      92.708 105.914  65.491  1.00  0.00     0.278 C 
ENDBRANCH  17  20
BRANCH  19  22
ATOM     22  O   UNL     1      93.603 102.842  63.775  1.00  0.00    -0.504 OA
ATOM     23  H   UNL     1      93.309 103.008  62.863  1.00  0.00     0.293 HD
ENDBRANCH  19  22
ENDBRANCH  13  14
ENDBRANCH  12  13
ENDBRANCH  10  12
ENDBRANCH   1  10
TORSDOF 12
ENDMDL
MODEL 4
REMARK VINA RESULT:    -5.456     24.156     26.962
REMARK INTER + INTRA:         -10.030
REMARK INTER:                  -9.113
REMARK INTRA:                  -0.917
REMARK UNBOUND:                -1.066
REMARK SMILES CCCCC[C@H](O)CC(=O)CCc1ccc(O)c(OC)c1
REMARK SMILES IDX 8 1 6 2 7 3 5 5 4 6 3 7 2 8 1 9 9 10 10 11 11 12 12 13 13 14
REMARK SMILES IDX 21 15 14 16 18 17 15 18 16 19 19 20 20 21 17 22
REMARK H PARENT 7 4 17 23
REMARK Flexibility Score: inf
ROOT
ATOM      1  C   UNL     1      76.717  85.271  65.750  1.00  0.00     0.107 C 
ENDROOT
BRANCH   1   2
ATOM      2  C   UNL     1      76.760  86.332  66.853  1.00  0.00     0.121 C 
BRANCH   2   3
ATOM      3  O   UNL     1      77.909  86.131  67.672  1.00  0.00    -0.393 OA
ATOM      4  H   UNL     1      78.696  86.334  67.136  1.00  0.00     0.210 HD
ENDBRANCH   2   3
BRANCH   2   5
ATOM      5  C   UNL     1      76.772  87.765  66.308  1.00  0.00     0.032 C 
BRANCH   5   6
ATOM      6  C   UNL     1      77.208  88.782  67.370  1.00  0.00     0.003 C 
BRANCH   6   7
ATOM      7  C   UNL     1      76.208  89.927  67.560  1.00  0.00    -0.000 C 
BRANCH   7   8
ATOM      8  C   UNL     1      75.542  89.936  68.935  1.00  0.00    -0.003 C 
ATOM      9  C   UNL     1      74.289  89.075  68.950  1.00  0.00     0.004 C 
ENDBRANCH   7   8
ENDBRANCH   6   7
ENDBRANCH   5   6
ENDBRANCH   2   5
ENDBRANCH   1   2
BRANCH   1  10
ATOM     10  C   UNL     1      76.791  83.851  66.286  1.00  0.00     0.135 C 
ATOM     11  O   UNL     1      77.875  83.296  66.463  1.00  0.00    -0.300 OA
BRANCH  10  12
ATOM     12  C   UNL     1      75.468  83.182  66.629  1.00  0.00     0.080 C 
BRANCH  12  13
ATOM     13  C   UNL     1      74.923  82.289  65.513  1.00  0.00     0.043 C 
BRANCH  13  14
ATOM     14  C   UNL     1      73.417  82.325  65.408  1.00  0.00    -0.044 A 
ATOM     15  C   UNL     1      72.723  83.491  65.731  1.00  0.00     0.054 A 
ATOM     16  C   UNL     1      72.720  81.192  64.989  1.00  0.00     0.008 A 
ATOM     17  C   UNL     1      71.331  83.524  65.633  1.00  0.00     0.160 A 
ATOM     18  C   UNL     1      71.329  81.224  64.891  1.00  0.00     0.050 A 
ATOM     19  C   UNL     1      70.635  82.390  65.214  1.00  0.00     0.157 A 
BRANCH  17  20
ATOM     20  O   UNL     1      70.664  84.668  65.952  1.00  0.00    -0.493 OA
ATOM     21  C   UNL     1      70.448  84.928  67.338  1.00  0.00     0.278 C 
ENDBRANCH  17  20
BRANCH  19  22
ATOM     22  O   UNL     1      69.276  82.410  65.114  1.00  0.00    -0.504 OA
ATOM     23  H   UNL     1      69.017  83.068  64.446  1.00  0.00     0.293 HD
ENDBRANCH  19  22
ENDBRANCH  13  14
ENDBRANCH  12  13
ENDBRANCH  10  12
ENDBRANCH   1  10
TORSDOF 12
ENDMDL
MODEL 5
REMARK VINA RESULT:    -5.421      2.412      8.347
REMARK INTER + INTRA:          -9.972
REMARK INTER:                  -8.947
REMARK INTRA:                  -1.025
REMARK UNBOUND:                -1.066
REMARK SMILES CCCCC[C@H](O)CC(=O)CCc1ccc(O)c(OC)c1
REMARK SMILES IDX 8 1 6 2 7 3 5 5 4 6 3 7 2 8 1 9 9 10 10 11 11 12 12 13 13 14
REMARK SMILES IDX 21 15 14 16 18 17 15 18 16 19 19 20 20 21 17 22
REMARK H PARENT 7 4 17 23
REMARK Flexibility Score: inf
ROOT
ATOM      1  C   UNL     1      95.215  83.386  85.776  1.00  0.00     0.107 C 
ENDROOT
BRANCH   1   2
ATOM      2  C   UNL     1      93.782  83.397  86.313  1.00  0.00     0.121 C 
BRANCH   2   3
ATOM      3  O   UNL     1      92.966  84.235  85.497  1.00  0.00    -0.393 OA
ATOM      4  H   UNL     1      93.544  84.900  85.083  1.00  0.00     0.210 HD
ENDBRANCH   2   3
BRANCH   2   5
ATOM      5  C   UNL     1      93.156  81.999  86.384  1.00  0.00     0.032 C 
BRANCH   5   6
ATOM      6  C   UNL     1      91.710  81.987  85.873  1.00  0.00     0.003 C 
BRANCH   6   7
ATOM      7  C   UNL     1      91.534  81.205  84.568  1.00  0.00    -0.000 C 
BRANCH   7   8
ATOM      8  C   UNL     1      90.081  80.850  84.258  1.00  0.00    -0.003 C 
ATOM      9  C   UNL     1      89.121  81.603  85.166  1.00  0.00     0.004 C 
ENDBRANCH   7   8
ENDBRANCH   6   7
ENDBRANCH   5   6
ENDBRANCH   2   5
ENDBRANCH   1   2
BRANCH   1  10
ATOM     10  C   UNL     1      95.400  84.270  84.553  1.00  0.00     0.135 C 
ATOM     11  O   UNL     1      95.205  85.484  84.615  1.00  0.00    -0.300 OA
BRANCH  10  12
ATOM     12  C   UNL     1      95.877  83.586  83.282  1.00  0.00     0.080 C 
BRANCH  12  13
ATOM     13  C   UNL     1      95.580  82.086  83.243  1.00  0.00     0.043 C 
BRANCH  13  14
ATOM     14  C   UNL     1      96.300  81.368  82.125  1.00  0.00    -0.044 A 
ATOM     15  C   UNL     1      96.744  82.081  81.011  1.00  0.00     0.054 A 
ATOM     16  C   UNL     1      96.520  79.993  82.208  1.00  0.00     0.008 A 
ATOM     17  C   UNL     1      97.410  81.417  79.980  1.00  0.00     0.160 A 
ATOM     18  C   UNL     1      97.185  79.330  81.177  1.00  0.00     0.050 A 
ATOM     19  C   UNL     1      97.630  80.042  80.063  1.00  0.00     0.157 A 
BRANCH  17  20
ATOM     20  O   UNL     1      97.839  82.123  78.897  1.00  0.00    -0.493 OA
ATOM     21  C   UNL     1      96.917  82.282  77.820  1.00  0.00     0.278 C 
ENDBRANCH  17  20
BRANCH  19  22
ATOM     22  O   UNL     1      98.279  79.384  79.063  1.00  0.00    -0.504 OA
ATOM     23  H   UNL     1      99.206  79.675  79.041  1.00  0.00     0.293 HD
ENDBRANCH  19  22
ENDBRANCH  13  14
ENDBRANCH  12  13
ENDBRANCH  10  12
ENDBRANCH   1  10
TORSDOF 12
ENDMDL
MODEL 6
REMARK VINA RESULT:    -5.347     23.524     26.042
REMARK INTER + INTRA:          -9.851
REMARK INTER:                  -9.167
REMARK INTRA:                  -0.684
REMARK UNBOUND:                -1.066
REMARK SMILES CCCCC[C@H](O)CC(=O)CCc1ccc(O)c(OC)c1
REMARK SMILES IDX 8 1 6 2 7 3 5 5 4 6 3 7 2 8 1 9 9 10 10 11 11 12 12 13 13 14
REMARK SMILES IDX 21 15 14 16 18 17 15 18 16 19 19 20 20 21 17 22
REMARK H PARENT 7 4 17 23
REMARK Flexibility Score: inf
ROOT
ATOM      1  C   UNL     1      75.509  83.402  66.382  1.00  0.00     0.107 C 
ENDROOT
BRANCH   1   2
ATOM      2  C   UNL     1      75.258  82.427  65.229  1.00  0.00     0.121 C 
BRANCH   2   3
ATOM      3  O   UNL     1      76.433  81.658  64.982  1.00  0.00    -0.393 OA
ATOM      4  H   UNL     1      77.160  82.053  65.495  1.00  0.00     0.210 HD
ENDBRANCH   2   3
BRANCH   2   5
ATOM      5  C   UNL     1      74.080  81.480  65.488  1.00  0.00     0.032 C 
BRANCH   5   6
ATOM      6  C   UNL     1      72.732  82.210  65.440  1.00  0.00     0.003 C 
BRANCH   6   7
ATOM      7  C   UNL     1      71.596  81.350  64.877  1.00  0.00    -0.000 C 
BRANCH   7   8
ATOM      8  C   UNL     1      70.263  82.088  64.775  1.00  0.00    -0.003 C 
ATOM      9  C   UNL     1      70.046  83.008  65.967  1.00  0.00     0.004 C 
ENDBRANCH   7   8
ENDBRANCH   6   7
ENDBRANCH   5   6
ENDBRANCH   2   5
ENDBRANCH   1   2
BRANCH   1  10
ATOM     10  C   UNL     1      76.934  83.929  66.418  1.00  0.00     0.135 C 
ATOM     11  O   UNL     1      77.890  83.160  66.518  1.00  0.00    -0.300 OA
BRANCH  10  12
ATOM     12  C   UNL     1      77.108  85.433  66.279  1.00  0.00     0.080 C 
BRANCH  12  13
ATOM     13  C   UNL     1      77.469  86.134  67.590  1.00  0.00     0.043 C 
BRANCH  13  14
ATOM     14  C   UNL     1      76.636  87.366  67.852  1.00  0.00    -0.044 A 
ATOM     15  C   UNL     1      75.376  87.244  68.439  1.00  0.00     0.054 A 
ATOM     16  C   UNL     1      77.126  88.626  67.507  1.00  0.00     0.008 A 
ATOM     17  C   UNL     1      74.607  88.382  68.681  1.00  0.00     0.160 A 
ATOM     18  C   UNL     1      76.357  89.764  67.750  1.00  0.00     0.050 A 
ATOM     19  C   UNL     1      75.097  89.642  68.336  1.00  0.00     0.157 A 
BRANCH  17  20
ATOM     20  O   UNL     1      73.378  88.251  69.254  1.00  0.00    -0.493 OA
ATOM     21  C   UNL     1      72.381  87.565  68.499  1.00  0.00     0.278 C 
ENDBRANCH  17  20
BRANCH  19  22
ATOM     22  O   UNL     1      74.356  90.761  68.568  1.00  0.00    -0.504 OA
ATOM     23  H   UNL     1      73.755  90.594  69.314  1.00  0.00     0.293 HD
ENDBRANCH  19  22
ENDBRANCH  13  14
ENDBRANCH  12  13
ENDBRANCH  10  12
ENDBRANCH   1  10
TORSDOF 12
ENDMDL
MODEL 7
REMARK VINA RESULT:    -5.337     23.595     26.138
REMARK INTER + INTRA:          -9.835
REMARK INTER:                  -8.655
REMARK INTRA:                  -1.181
REMARK UNBOUND:                -1.066
REMARK SMILES CCCCC[C@H](O)CC(=O)CCc1ccc(O)c(OC)c1
REMARK SMILES IDX 8 1 6 2 7 3 5 5 4 6 3 7 2 8 1 9 9 10 10 11 11 12 12 13 13 14
REMARK SMILES IDX 21 15 14 16 18 17 15 18 16 19 19 20 20 21 17 22
REMARK H PARENT 7 4 17 23
REMARK Flexibility Score: inf
ROOT
ATOM      1  C   UNL     1      76.641  84.141  65.007  1.00  0.00     0.107 C 
ENDROOT
BRANCH   1   2
ATOM      2  C   UNL     1      75.750  82.899  64.930  1.00  0.00     0.121 C 
BRANCH   2   3
ATOM      3  O   UNL     1      76.545  81.724  65.070  1.00  0.00    -0.393 OA
ATOM      4  H   UNL     1      75.966  80.955  64.926  1.00  0.00     0.210 HD
ENDBRANCH   2   3
BRANCH   2   5
ATOM      5  C   UNL     1      74.642  82.889  65.991  1.00  0.00     0.032 C 
BRANCH   5   6
ATOM      6  C   UNL     1      73.558  81.849  65.682  1.00  0.00     0.003 C 
BRANCH   6   7
ATOM      7  C   UNL     1      72.288  82.459  65.079  1.00  0.00    -0.000 C 
BRANCH   7   8
ATOM      8  C   UNL     1      71.034  81.620  65.319  1.00  0.00    -0.003 C 
ATOM      9  C   UNL     1      69.834  82.498  65.641  1.00  0.00     0.004 C 
ENDBRANCH   7   8
ENDBRANCH   6   7
ENDBRANCH   5   6
ENDBRANCH   2   5
ENDBRANCH   1   2
BRANCH   1  10
ATOM     10  C   UNL     1      77.425  84.232  66.306  1.00  0.00     0.135 C 
ATOM     11  O   UNL     1      78.025  83.254  66.753  1.00  0.00    -0.300 OA
BRANCH  10  12
ATOM     12  C   UNL     1      77.463  85.592  66.987  1.00  0.00     0.080 C 
BRANCH  12  13
ATOM     13  C   UNL     1      76.910  85.581  68.413  1.00  0.00     0.043 C 
BRANCH  13  14
ATOM     14  C   UNL     1      75.539  86.204  68.521  1.00  0.00    -0.044 A 
ATOM     15  C   UNL     1      75.362  87.557  68.234  1.00  0.00     0.054 A 
ATOM     16  C   UNL     1      74.448  85.425  68.909  1.00  0.00     0.008 A 
ATOM     17  C   UNL     1      74.095  88.131  68.334  1.00  0.00     0.160 A 
ATOM     18  C   UNL     1      73.181  85.998  69.009  1.00  0.00     0.050 A 
ATOM     19  C   UNL     1      73.004  87.352  68.721  1.00  0.00     0.157 A 
BRANCH  17  20
ATOM     20  O   UNL     1      73.935  89.454  68.051  1.00  0.00    -0.493 OA
ATOM     21  C   UNL     1      74.129  89.856  66.696  1.00  0.00     0.278 C 
ENDBRANCH  17  20
BRANCH  19  22
ATOM     22  O   UNL     1      71.762  87.901  68.822  1.00  0.00    -0.504 OA
ATOM     23  H   UNL     1      71.638  88.242  69.725  1.00  0.00     0.293 HD
ENDBRANCH  19  22
ENDBRANCH  13  14
ENDBRANCH  12  13
ENDBRANCH  10  12
ENDBRANCH   1  10
TORSDOF 12
ENDMDL
MODEL 8
REMARK VINA RESULT:    -5.334     23.241     25.819
REMARK INTER + INTRA:          -9.830
REMARK INTER:                  -7.583
REMARK INTRA:                  -2.247
REMARK UNBOUND:                -1.066
REMARK SMILES CCCCC[C@H](O)CC(=O)CCc1ccc(O)c(OC)c1
REMARK SMILES IDX 8 1 6 2 7 3 5 5 4 6 3 7 2 8 1 9 9 10 10 11 11 12 12 13 13 14
REMARK SMILES IDX 21 15 14 16 18 17 15 18 16 19 19 20 20 21 17 22
REMARK H PARENT 7 4 17 23
REMARK Flexibility Score: inf
ROOT
ATOM      1  C   UNL     1      76.944  84.889  65.451  1.00  0.00     0.107 C 
ENDROOT
BRANCH   1   2
ATOM      2  C   UNL     1      77.104  84.160  66.787  1.00  0.00     0.121 C 
BRANCH   2   3
ATOM      3  O   UNL     1      78.167  83.213  66.697  1.00  0.00    -0.393 OA
ATOM      4  H   UNL     1      78.718  83.308  67.494  1.00  0.00     0.210 HD
ENDBRANCH   2   3
BRANCH   2   5
ATOM      5  C   UNL     1      77.373  85.110  67.960  1.00  0.00     0.032 C 
BRANCH   5   6
ATOM      6  C   UNL     1      76.334  84.955  69.078  1.00  0.00     0.003 C 
BRANCH   6   7
ATOM      7  C   UNL     1      75.218  86.002  69.017  1.00  0.00    -0.000 C 
BRANCH   7   8
ATOM      8  C   UNL     1      73.978  85.532  68.259  1.00  0.00    -0.003 C 
ATOM      9  C   UNL     1      72.752  86.348  68.640  1.00  0.00     0.004 C 
ENDBRANCH   7   8
ENDBRANCH   6   7
ENDBRANCH   5   6
ENDBRANCH   2   5
ENDBRANCH   1   2
BRANCH   1  10
ATOM     10  C   UNL     1      75.518  84.863  64.926  1.00  0.00     0.135 C 
ATOM     11  O   UNL     1      74.954  83.798  64.677  1.00  0.00    -0.300 OA
BRANCH  10  12
ATOM     12  C   UNL     1      74.824  86.208  64.772  1.00  0.00     0.080 C 
BRANCH  12  13
ATOM     13  C   UNL     1      75.785  87.399  64.765  1.00  0.00     0.043 C 
BRANCH  13  14
ATOM     14  C   UNL     1      75.696  88.238  66.017  1.00  0.00    -0.044 A 
ATOM     15  C   UNL     1      74.482  88.822  66.381  1.00  0.00     0.054 A 
ATOM     16  C   UNL     1      76.828  88.429  66.810  1.00  0.00     0.008 A 
ATOM     17  C   UNL     1      74.401  89.597  67.539  1.00  0.00     0.160 A 
ATOM     18  C   UNL     1      76.746  89.203  67.968  1.00  0.00     0.050 A 
ATOM     19  C   UNL     1      75.533  89.787  68.331  1.00  0.00     0.157 A 
BRANCH  17  20
ATOM     20  O   UNL     1      73.211  90.163  67.884  1.00  0.00    -0.493 OA
ATOM     21  C   UNL     1      72.033  89.590  67.318  1.00  0.00     0.278 C 
ENDBRANCH  17  20
BRANCH  19  22
ATOM     22  O   UNL     1      75.466  90.542  69.464  1.00  0.00    -0.504 OA
ATOM     23  H   UNL     1      76.354  90.602  69.857  1.00  0.00     0.293 HD
ENDBRANCH  19  22
ENDBRANCH  13  14
ENDBRANCH  12  13
ENDBRANCH  10  12
ENDBRANCH   1  10
TORSDOF 12
ENDMDL
MODEL 9
REMARK VINA RESULT:    -5.289      2.610      7.504
REMARK INTER + INTRA:          -9.755
REMARK INTER:                  -8.138
REMARK INTRA:                  -1.617
REMARK UNBOUND:                -1.066
REMARK SMILES CCCCC[C@H](O)CC(=O)CCc1ccc(O)c(OC)c1
REMARK SMILES IDX 8 1 6 2 7 3 5 5 4 6 3 7 2 8 1 9 9 10 10 11 11 12 12 13 13 14
REMARK SMILES IDX 21 15 14 16 18 17 15 18 16 19 19 20 20 21 17 22
REMARK H PARENT 7 4 17 23
REMARK Flexibility Score: inf
ROOT
ATOM      1  C   UNL     1      98.972  78.338  80.234  1.00  0.00     0.107 C 
ENDROOT
BRANCH   1   2
ATOM      2  C   UNL     1      98.012  78.452  81.421  1.00  0.00     0.121 C 
BRANCH   2   3
ATOM      3  O   UNL     1      98.743  78.758  82.606  1.00  0.00    -0.393 OA
ATOM      4  H   UNL     1      99.353  79.488  82.400  1.00  0.00     0.210 HD
ENDBRANCH   2   3
BRANCH   2   5
ATOM      5  C   UNL     1      96.923  79.512  81.212  1.00  0.00     0.032 C 
BRANCH   5   6
ATOM      6  C   UNL     1      96.965  80.601  82.290  1.00  0.00     0.003 C 
BRANCH   6   7
ATOM      7  C   UNL     1      96.784  82.016  81.730  1.00  0.00    -0.000 C 
BRANCH   7   8
ATOM      8  C   UNL     1      96.020  82.952  82.665  1.00  0.00    -0.003 C 
ATOM      9  C   UNL     1      95.294  82.176  83.753  1.00  0.00     0.004 C 
ENDBRANCH   7   8
ENDBRANCH   6   7
ENDBRANCH   5   6
ENDBRANCH   2   5
ENDBRANCH   1   2
BRANCH   1  10
ATOM     10  C   UNL     1     100.059  79.401  80.243  1.00  0.00     0.135 C 
ATOM     11  O   UNL     1     101.017  79.321  81.011  1.00  0.00    -0.300 OA
BRANCH  10  12
ATOM     12  C   UNL     1      99.919  80.528  79.230  1.00  0.00     0.080 C 
BRANCH  12  13
ATOM     13  C   UNL     1      99.375  80.073  77.875  1.00  0.00     0.043 C 
BRANCH  13  14
ATOM     14  C   UNL     1      98.337  81.012  77.308  1.00  0.00    -0.044 A 
ATOM     15  C   UNL     1      98.362  81.343  75.953  1.00  0.00     0.054 A 
ATOM     16  C   UNL     1      97.355  81.549  78.140  1.00  0.00     0.008 A 
ATOM     17  C   UNL     1      97.402  82.211  75.430  1.00  0.00     0.160 A 
ATOM     18  C   UNL     1      96.395  82.417  77.617  1.00  0.00     0.050 A 
ATOM     19  C   UNL     1      96.419  82.747  76.262  1.00  0.00     0.157 A 
BRANCH  17  20
ATOM     20  O   UNL     1      97.436  82.527  74.106  1.00  0.00    -0.493 OA
ATOM     21  C   UNL     1      98.474  83.406  73.676  1.00  0.00     0.278 C 
ENDBRANCH  17  20
BRANCH  19  22
ATOM     22  O   UNL     1      95.478  83.595  75.763  1.00  0.00    -0.504 OA
ATOM     23  H   UNL     1      94.618  83.389  76.170  1.00  0.00     0.293 HD
ENDBRANCH  19  22
ENDBRANCH  13  14
ENDBRANCH  12  13
ENDBRANCH  10  12
ENDBRANCH   1  10
TORSDOF 12
ENDMDL
