MODEL 1
REMARK VINA RESULT:    -6.707      0.000      0.000
REMARK INTER + INTRA:         -11.259
REMARK INTER:                 -10.431
REMARK INTRA:                  -0.828
REMARK UNBOUND:                -0.828
REMARK SMILES COc1cc(CNC(=O)CCCC/C=C/C(C)C)ccc1O
REMARK SMILES IDX 10 1 8 2 7 3 9 5 6 6 5 7 3 8 21 9 4 10 20 11 19 12 2 13 1 14
REMARK SMILES IDX 22 15 11 17 12 18 13 19 14 20 15 21 16 22 17 23 18 24
REMARK H PARENT 7 4 22 16
REMARK Flexibility Score: inf
ROOT
ATOM      1  C   UNL     1      93.662  94.741  74.942  1.00  0.00     0.100 C 
ENDROOT
BRANCH   1   2
ATOM      2  C   UNL     1      92.262  94.479  75.325  1.00  0.00     0.220 C 
ATOM      3  N   UNL     1      91.545  93.503  74.699  1.00  0.00    -0.352 N 
ATOM      4  H   UNL     1      92.039  93.016  73.964  1.00  0.00     0.163 HD
ATOM      5  O   UNL     1      91.764  95.161  76.253  1.00  0.00    -0.275 OA
BRANCH   3   6
ATOM      6  C   UNL     1      90.198  93.150  75.016  1.00  0.00     0.151 C 
BRANCH   6   7
ATOM      7  C   UNL     1      90.142  92.058  76.026  1.00  0.00    -0.025 A 
ATOM      8  C   UNL     1      89.973  89.661  76.562  1.00  0.00     0.160 A 
ATOM      9  C   UNL     1      90.054  89.962  77.937  1.00  0.00     0.157 A 
ATOM     10  C   UNL     1      90.016  90.711  75.620  1.00  0.00     0.056 A 
ATOM     11  C   UNL     1      90.160  91.302  78.358  1.00  0.00     0.050 A 
ATOM     12  C   UNL     1      90.214  92.343  77.410  1.00  0.00     0.009 A 
BRANCH   8  13
ATOM     13  O   UNL     1      89.803  88.364  76.150  1.00  0.00    -0.493 OA
ATOM     14  C   UNL     1      91.029  87.688  75.816  1.00  0.00     0.278 C 
ENDBRANCH   8  13
BRANCH   9  15
ATOM     15  O   UNL     1      90.029  88.974  78.869  1.00  0.00    -0.504 OA
ATOM     16  H   UNL     1      90.268  89.335  79.725  1.00  0.00     0.293 HD
ENDBRANCH   9  15
ENDBRANCH   6   7
ENDBRANCH   3   6
ENDBRANCH   1   2
BRANCH   1  17
ATOM     17  C   UNL     1      94.653  93.880  75.771  1.00  0.00     0.010 C 
BRANCH  17  18
ATOM     18  C   UNL     1      95.189  94.618  77.030  1.00  0.00     0.005 C 
BRANCH  18  19
ATOM     19  C   UNL     1      94.395  94.251  78.312  1.00  0.00     0.027 C 
BRANCH  19  20
ATOM     20  C   UNL     1      95.113  94.618  79.524  1.00  0.00    -0.031 C 
ATOM     21  C   UNL     1      96.104  95.526  79.570  1.00  0.00    -0.028 C 
BRANCH  21  22
ATOM     22  C   UNL     1      96.799  95.894  80.804  1.00  0.00     0.005 C 
ATOM     23  C   UNL     1      96.110  97.078  81.537  1.00  0.00     0.012 C 
ATOM     24  C   UNL     1      96.922  94.661  81.737  1.00  0.00     0.012 C 
ENDBRANCH  21  22
ENDBRANCH  19  20
ENDBRANCH  18  19
ENDBRANCH  17  18
ENDBRANCH   1  17
TORSDOF 10
ENDMDL
MODEL 2
REMARK VINA RESULT:    -6.097      2.949      8.136
REMARK INTER + INTRA:         -10.310
REMARK INTER:                  -9.542
REMARK INTRA:                  -0.769
REMARK UNBOUND:                -0.828
REMARK SMILES COc1cc(CNC(=O)CCCC/C=C/C(C)C)ccc1O
REMARK SMILES IDX 10 1 8 2 7 3 9 5 6 6 5 7 3 8 21 9 4 10 20 11 19 12 2 13 1 14
REMARK SMILES IDX 22 15 11 17 12 18 13 19 14 20 15 21 16 22 17 23 18 24
REMARK H PARENT 7 4 22 16
REMARK Flexibility Score: inf
ROOT
ATOM      1  C   UNL     1      92.214  93.427  76.002  1.00  0.00     0.100 C 
ENDROOT
BRANCH   1   2
ATOM      2  C   UNL     1      93.507  94.134  76.079  1.00  0.00     0.220 C 
ATOM      3  N   UNL     1      94.594  93.527  76.632  1.00  0.00    -0.352 N 
ATOM      4  H   UNL     1      94.427  92.596  76.991  1.00  0.00     0.163 HD
ATOM      5  O   UNL     1      93.579  95.292  75.602  1.00  0.00    -0.275 OA
BRANCH   3   6
ATOM      6  C   UNL     1      95.894  94.110  76.726  1.00  0.00     0.151 C 
BRANCH   6   7
ATOM      7  C   UNL     1      96.038  94.930  77.960  1.00  0.00    -0.025 A 
ATOM      8  C   UNL     1      95.580  95.270  80.355  1.00  0.00     0.160 A 
ATOM      9  C   UNL     1      96.318  96.472  80.326  1.00  0.00     0.157 A 
ATOM     10  C   UNL     1      95.445  94.513  79.173  1.00  0.00     0.056 A 
ATOM     11  C   UNL     1      96.898  96.911  79.120  1.00  0.00     0.050 A 
ATOM     12  C   UNL     1      96.768  96.141  77.947  1.00  0.00     0.009 A 
BRANCH   8  13
ATOM     13  O   UNL     1      94.958  94.872  81.511  1.00  0.00    -0.493 OA
ATOM     14  C   UNL     1      95.583  93.747  82.156  1.00  0.00     0.278 C 
ENDBRANCH   8  13
BRANCH   9  15
ATOM     15  O   UNL     1      96.478  97.218  81.450  1.00  0.00    -0.504 OA
ATOM     16  H   UNL     1      96.605  96.638  82.204  1.00  0.00     0.293 HD
ENDBRANCH   9  15
ENDBRANCH   6   7
ENDBRANCH   3   6
ENDBRANCH   1   2
BRANCH   1  17
ATOM     17  C   UNL     1      92.103  92.576  74.709  1.00  0.00     0.010 C 
BRANCH  17  18
ATOM     18  C   UNL     1      90.975  93.064  73.757  1.00  0.00     0.005 C 
BRANCH  18  19
ATOM     19  C   UNL     1      90.303  91.895  72.988  1.00  0.00     0.027 C 
BRANCH  19  20
ATOM     20  C   UNL     1      89.942  90.796  73.870  1.00  0.00    -0.031 C 
ATOM     21  C   UNL     1      90.473  89.562  73.797  1.00  0.00    -0.028 C 
BRANCH  21  22
ATOM     22  C   UNL     1      90.109  88.477  74.707  1.00  0.00     0.005 C 
ATOM     23  C   UNL     1      91.096  87.279  74.621  1.00  0.00     0.012 C 
ATOM     24  C   UNL     1      90.009  89.007  76.161  1.00  0.00     0.012 C 
ENDBRANCH  21  22
ENDBRANCH  19  20
ENDBRANCH  18  19
ENDBRANCH  17  18
ENDBRANCH   1  17
TORSDOF 10
ENDMDL
MODEL 3
REMARK VINA RESULT:    -6.087      2.010      3.145
REMARK INTER + INTRA:         -10.296
REMARK INTER:                  -9.879
REMARK INTRA:                  -0.416
REMARK UNBOUND:                -0.828
REMARK SMILES COc1cc(CNC(=O)CCCC/C=C/C(C)C)ccc1O
REMARK SMILES IDX 10 1 8 2 7 3 9 5 6 6 5 7 3 8 21 9 4 10 20 11 19 12 2 13 1 14
REMARK SMILES IDX 22 15 11 17 12 18 13 19 14 20 15 21 16 22 17 23 18 24
REMARK H PARENT 7 4 22 16
REMARK Flexibility Score: inf
ROOT
ATOM      1  C   UNL     1      93.175  94.162  75.948  1.00  0.00     0.100 C 
ENDROOT
BRANCH   1   2
ATOM      2  C   UNL     1      91.994  93.337  76.265  1.00  0.00     0.220 C 
ATOM      3  N   UNL     1      91.093  93.017  75.294  1.00  0.00    -0.352 N 
ATOM      4  H   UNL     1      91.294  93.404  74.382  1.00  0.00     0.163 HD
ATOM      5  O   UNL     1      91.859  92.924  77.442  1.00  0.00    -0.275 OA
BRANCH   3   6
ATOM      6  C   UNL     1      89.938  92.200  75.490  1.00  0.00     0.151 C 
BRANCH   6   7
ATOM      7  C   UNL     1      90.244  90.760  75.274  1.00  0.00    -0.025 A 
ATOM      8  C   UNL     1      90.654  88.511  76.188  1.00  0.00     0.160 A 
ATOM      9  C   UNL     1      90.807  88.006  74.880  1.00  0.00     0.157 A 
ATOM     10  C   UNL     1      90.376  89.881  76.373  1.00  0.00     0.056 A 
ATOM     11  C   UNL     1      90.698  88.874  73.776  1.00  0.00     0.050 A 
ATOM     12  C   UNL     1      90.409  90.239  73.969  1.00  0.00     0.009 A 
BRANCH   8  13
ATOM     13  O   UNL     1      90.825  87.683  77.269  1.00  0.00    -0.493 OA
ATOM     14  C   UNL     1      89.695  87.641  78.160  1.00  0.00     0.278 C 
ENDBRANCH   8  13
BRANCH   9  15
ATOM     15  O   UNL     1      91.062  86.689  74.667  1.00  0.00    -0.504 OA
ATOM     16  H   UNL     1      90.558  86.160  75.289  1.00  0.00     0.293 HD
ENDBRANCH   9  15
ENDBRANCH   6   7
ENDBRANCH   3   6
ENDBRANCH   1   2
BRANCH   1  17
ATOM     17  C   UNL     1      94.381  93.810  76.861  1.00  0.00     0.010 C 
BRANCH  17  18
ATOM     18  C   UNL     1      94.223  94.356  78.308  1.00  0.00     0.005 C 
BRANCH  18  19
ATOM     19  C   UNL     1      95.583  94.760  78.938  1.00  0.00     0.027 C 
BRANCH  19  20
ATOM     20  C   UNL     1      96.555  95.162  77.932  1.00  0.00    -0.031 C 
ATOM     21  C   UNL     1      97.113  96.384  77.866  1.00  0.00    -0.028 C 
BRANCH  21  22
ATOM     22  C   UNL     1      98.104  96.760  76.858  1.00  0.00     0.005 C 
ATOM     23  C   UNL     1      99.489  96.108  77.121  1.00  0.00     0.012 C 
ATOM     24  C   UNL     1      97.586  96.405  75.440  1.00  0.00     0.012 C 
ENDBRANCH  21  22
ENDBRANCH  19  20
ENDBRANCH  18  19
ENDBRANCH  17  18
ENDBRANCH   1  17
TORSDOF 10
ENDMDL
MODEL 4
REMARK VINA RESULT:    -5.693     19.971     22.468
REMARK INTER + INTRA:          -9.682
REMARK INTER:                  -8.027
REMARK INTRA:                  -1.656
REMARK UNBOUND:                -0.828
REMARK SMILES COc1cc(CNC(=O)CCCC/C=C/C(C)C)ccc1O
REMARK SMILES IDX 10 1 8 2 7 3 9 5 6 6 5 7 3 8 21 9 4 10 20 11 19 12 2 13 1 14
REMARK SMILES IDX 22 15 11 17 12 18 13 19 14 20 15 21 16 22 17 23 18 24
REMARK H PARENT 7 4 22 16
REMARK Flexibility Score: inf
ROOT
ATOM      1  C   UNL     1      77.399  87.796  65.891  1.00  0.00     0.100 C 
ENDROOT
BRANCH   1   2
ATOM      2  C   UNL     1      77.765  86.367  65.921  1.00  0.00     0.220 C 
ATOM      3  N   UNL     1      77.082  85.462  65.165  1.00  0.00    -0.352 N 
ATOM      4  H   UNL     1      76.319  85.847  64.626  1.00  0.00     0.163 HD
ATOM      5  O   UNL     1      78.733  86.018  66.640  1.00  0.00    -0.275 OA
BRANCH   3   6
ATOM      6  C   UNL     1      77.377  84.067  65.098  1.00  0.00     0.151 C 
BRANCH   6   7
ATOM      7  C   UNL     1      76.141  83.253  64.942  1.00  0.00    -0.025 A 
ATOM      8  C   UNL     1      73.701  83.127  64.633  1.00  0.00     0.160 A 
ATOM      9  C   UNL     1      73.775  81.718  64.622  1.00  0.00     0.157 A 
ATOM     10  C   UNL     1      74.883  83.880  64.795  1.00  0.00     0.056 A 
ATOM     11  C   UNL     1      75.020  81.079  64.787  1.00  0.00     0.050 A 
ATOM     12  C   UNL     1      76.196  81.840  64.936  1.00  0.00     0.009 A 
BRANCH   8  13
ATOM     13  O   UNL     1      72.484  83.752  64.539  1.00  0.00    -0.493 OA
ATOM     14  C   UNL     1      72.508  85.142  64.913  1.00  0.00     0.278 C 
ENDBRANCH   8  13
BRANCH   9  15
ATOM     15  O   UNL     1      72.658  80.964  64.455  1.00  0.00    -0.504 OA
ATOM     16  H   UNL     1      72.638  80.270  65.118  1.00  0.00     0.293 HD
ENDBRANCH   9  15
ENDBRANCH   6   7
ENDBRANCH   3   6
ENDBRANCH   1   2
BRANCH   1  17
ATOM     17  C   UNL     1      76.529  88.189  67.115  1.00  0.00     0.010 C 
BRANCH  17  18
ATOM     18  C   UNL     1      75.044  88.458  66.740  1.00  0.00     0.005 C 
BRANCH  18  19
ATOM     19  C   UNL     1      74.057  87.920  67.811  1.00  0.00     0.027 C 
BRANCH  19  20
ATOM     20  C   UNL     1      74.568  86.733  68.479  1.00  0.00    -0.031 C 
ATOM     21  C   UNL     1      74.574  85.503  67.934  1.00  0.00    -0.028 C 
BRANCH  21  22
ATOM     22  C   UNL     1      75.111  84.326  68.616  1.00  0.00     0.005 C 
ATOM     23  C   UNL     1      76.662  84.355  68.710  1.00  0.00     0.012 C 
ATOM     24  C   UNL     1      74.475  84.185  70.024  1.00  0.00     0.012 C 
ENDBRANCH  21  22
ENDBRANCH  19  20
ENDBRANCH  18  19
ENDBRANCH  17  18
ENDBRANCH   1  17
TORSDOF 10
ENDMDL
MODEL 5
REMARK VINA RESULT:    -5.692     21.400     25.150
REMARK INTER + INTRA:          -9.681
REMARK INTER:                  -8.768
REMARK INTRA:                  -0.913
REMARK UNBOUND:                -0.828
REMARK SMILES COc1cc(CNC(=O)CCCC/C=C/C(C)C)ccc1O
REMARK SMILES IDX 10 1 8 2 7 3 9 5 6 6 5 7 3 8 21 9 4 10 20 11 19 12 2 13 1 14
REMARK SMILES IDX 22 15 11 17 12 18 13 19 14 20 15 21 16 22 17 23 18 24
REMARK H PARENT 7 4 22 16
REMARK Flexibility Score: inf
ROOT
ATOM      1  C   UNL     1      73.602  80.569  63.403  1.00  0.00     0.100 C 
ENDROOT
BRANCH   1   2
ATOM      2  C   UNL     1      72.213  81.036  63.578  1.00  0.00     0.220 C 
ATOM      3  N   UNL     1      71.921  82.367  63.537  1.00  0.00    -0.352 N 
ATOM      4  H   UNL     1      72.718  82.974  63.405  1.00  0.00     0.163 HD
ATOM      5  O   UNL     1      71.315  80.176  63.741  1.00  0.00    -0.275 OA
BRANCH   3   6
ATOM      6  C   UNL     1      70.610  82.918  63.663  1.00  0.00     0.151 C 
BRANCH   6   7
ATOM      7  C   UNL     1      70.319  83.322  65.065  1.00  0.00    -0.025 A 
ATOM      8  C   UNL     1      70.848  84.698  67.037  1.00  0.00     0.160 A 
ATOM      9  C   UNL     1      69.767  84.118  67.733  1.00  0.00     0.157 A 
ATOM     10  C   UNL     1      71.115  84.294  65.713  1.00  0.00     0.056 A 
ATOM     11  C   UNL     1      68.977  83.133  67.107  1.00  0.00     0.050 A 
ATOM     12  C   UNL     1      69.244  82.745  65.780  1.00  0.00     0.009 A 
BRANCH   8  13
ATOM     13  O   UNL     1      71.660  85.609  67.664  1.00  0.00    -0.493 OA
ATOM     14  C   UNL     1      71.189  86.967  67.585  1.00  0.00     0.278 C 
ENDBRANCH   8  13
BRANCH   9  15
ATOM     15  O   UNL     1      69.475  84.495  69.005  1.00  0.00    -0.504 OA
ATOM     16  H   UNL     1      69.490  85.452  69.067  1.00  0.00     0.293 HD
ENDBRANCH   9  15
ENDBRANCH   6   7
ENDBRANCH   3   6
ENDBRANCH   1   2
BRANCH   1  17
ATOM     17  C   UNL     1      74.423  80.710  64.713  1.00  0.00     0.010 C 
BRANCH  17  18
ATOM     18  C   UNL     1      75.902  81.117  64.460  1.00  0.00     0.005 C 
BRANCH  18  19
ATOM     19  C   UNL     1      76.087  82.657  64.397  1.00  0.00     0.027 C 
BRANCH  19  20
ATOM     20  C   UNL     1      76.676  83.188  65.618  1.00  0.00    -0.031 C 
ATOM     21  C   UNL     1      75.984  83.842  66.568  1.00  0.00    -0.028 C 
BRANCH  21  22
ATOM     22  C   UNL     1      76.593  84.350  67.798  1.00  0.00     0.005 C 
ATOM     23  C   UNL     1      77.160  85.786  67.624  1.00  0.00     0.012 C 
ATOM     24  C   UNL     1      75.572  84.296  68.964  1.00  0.00     0.012 C 
ENDBRANCH  21  22
ENDBRANCH  19  20
ENDBRANCH  18  19
ENDBRANCH  17  18
ENDBRANCH   1  17
TORSDOF 10
ENDMDL
MODEL 6
REMARK VINA RESULT:    -5.678     17.472     20.268
REMARK INTER + INTRA:          -9.659
REMARK INTER:                  -8.942
REMARK INTRA:                  -0.716
REMARK UNBOUND:                -0.828
REMARK SMILES COc1cc(CNC(=O)CCCC/C=C/C(C)C)ccc1O
REMARK SMILES IDX 10 1 8 2 7 3 9 5 6 6 5 7 3 8 21 9 4 10 20 11 19 12 2 13 1 14
REMARK SMILES IDX 22 15 11 17 12 18 13 19 14 20 15 21 16 22 17 23 18 24
REMARK H PARENT 7 4 22 16
REMARK Flexibility Score: inf
ROOT
ATOM      1  C   UNL     1      77.058  89.765  63.449  1.00  0.00     0.100 C 
ENDROOT
BRANCH   1   2
ATOM      2  C   UNL     1      76.484  91.084  63.776  1.00  0.00     0.220 C 
ATOM      3  N   UNL     1      77.288  92.177  63.898  1.00  0.00    -0.352 N 
ATOM      4  H   UNL     1      78.274  91.997  63.773  1.00  0.00     0.163 HD
ATOM      5  O   UNL     1      75.240  91.171  63.914  1.00  0.00    -0.275 OA
BRANCH   3   6
ATOM      6  C   UNL     1      76.829  93.500  64.180  1.00  0.00     0.151 C 
BRANCH   6   7
ATOM      7  C   UNL     1      77.674  94.164  65.210  1.00  0.00    -0.025 A 
ATOM      8  C   UNL     1      77.944  95.060  67.487  1.00  0.00     0.160 A 
ATOM      9  C   UNL     1      79.277  95.412  67.191  1.00  0.00     0.157 A 
ATOM     10  C   UNL     1      77.155  94.442  66.494  1.00  0.00     0.056 A 
ATOM     11  C   UNL     1      79.802  95.159  65.909  1.00  0.00     0.050 A 
ATOM     12  C   UNL     1      79.010  94.531  64.927  1.00  0.00     0.009 A 
BRANCH   8  13
ATOM     13  O   UNL     1      77.408  95.364  68.713  1.00  0.00    -0.493 OA
ATOM     14  C   UNL     1      76.583  94.323  69.267  1.00  0.00     0.278 C 
ENDBRANCH   8  13
BRANCH   9  15
ATOM     15  O   UNL     1      80.068  95.996  68.129  1.00  0.00    -0.504 OA
ATOM     16  H   UNL     1      80.285  95.355  68.810  1.00  0.00     0.293 HD
ENDBRANCH   9  15
ENDBRANCH   6   7
ENDBRANCH   3   6
ENDBRANCH   1   2
BRANCH   1  17
ATOM     17  C   UNL     1      77.931  89.216  64.610  1.00  0.00     0.010 C 
BRANCH  17  18
ATOM     18  C   UNL     1      77.088  88.731  65.823  1.00  0.00     0.005 C 
BRANCH  18  19
ATOM     19  C   UNL     1      77.960  88.050  66.913  1.00  0.00     0.027 C 
BRANCH  19  20
ATOM     20  C   UNL     1      77.420  86.761  67.319  1.00  0.00    -0.031 C 
ATOM     21  C   UNL     1      76.107  86.492  67.430  1.00  0.00    -0.028 C 
BRANCH  21  22
ATOM     22  C   UNL     1      75.586  85.182  67.821  1.00  0.00     0.005 C 
ATOM     23  C   UNL     1      76.670  84.294  68.492  1.00  0.00     0.012 C 
ATOM     24  C   UNL     1      74.355  85.350  68.750  1.00  0.00     0.012 C 
ENDBRANCH  21  22
ENDBRANCH  19  20
ENDBRANCH  18  19
ENDBRANCH  17  18
ENDBRANCH   1  17
TORSDOF 10
ENDMDL
MODEL 7
REMARK VINA RESULT:    -5.672     14.092     16.265
REMARK INTER + INTRA:          -9.649
REMARK INTER:                  -8.073
REMARK INTRA:                  -1.576
REMARK UNBOUND:                -0.828
REMARK SMILES COc1cc(CNC(=O)CCCC/C=C/C(C)C)ccc1O
REMARK SMILES IDX 10 1 8 2 7 3 9 5 6 6 5 7 3 8 21 9 4 10 20 11 19 12 2 13 1 14
REMARK SMILES IDX 22 15 11 17 12 18 13 19 14 20 15 21 16 22 17 23 18 24
REMARK H PARENT 7 4 22 16
REMARK Flexibility Score: inf
ROOT
ATOM      1  C   UNL     1      82.923  91.299  89.836  1.00  0.00     0.100 C 
ENDROOT
BRANCH   1   2
ATOM      2  C   UNL     1      82.898  91.478  88.371  1.00  0.00     0.220 C 
ATOM      3  N   UNL     1      82.712  90.409  87.547  1.00  0.00    -0.352 N 
ATOM      4  H   UNL     1      82.621  89.519  88.017  1.00  0.00     0.163 HD
ATOM      5  O   UNL     1      83.029  92.640  87.914  1.00  0.00    -0.275 OA
BRANCH   3   6
ATOM      6  C   UNL     1      82.640  90.481  86.122  1.00  0.00     0.151 C 
BRANCH   6   7
ATOM      7  C   UNL     1      81.796  89.390  85.562  1.00  0.00    -0.025 A 
ATOM      8  C   UNL     1      81.474  87.006  85.034  1.00  0.00     0.160 A 
ATOM      9  C   UNL     1      80.194  87.294  84.516  1.00  0.00     0.157 A 
ATOM     10  C   UNL     1      82.263  88.056  85.549  1.00  0.00     0.056 A 
ATOM     11  C   UNL     1      79.723  88.621  84.504  1.00  0.00     0.050 A 
ATOM     12  C   UNL     1      80.514  89.661  85.032  1.00  0.00     0.009 A 
BRANCH   8  13
ATOM     13  O   UNL     1      81.963  85.726  84.987  1.00  0.00    -0.493 OA
ATOM     14  C   UNL     1      82.670  85.324  86.175  1.00  0.00     0.278 C 
ENDBRANCH   8  13
BRANCH   9  15
ATOM     15  O   UNL     1      79.404  86.305  84.024  1.00  0.00    -0.504 OA
ATOM     16  H   UNL     1      78.504  86.430  84.333  1.00  0.00     0.293 HD
ENDBRANCH   9  15
ENDBRANCH   6   7
ENDBRANCH   3   6
ENDBRANCH   1   2
BRANCH   1  17
ATOM     17  C   UNL     1      81.550  91.633  90.477  1.00  0.00     0.010 C 
BRANCH  17  18
ATOM     18  C   UNL     1      80.445  91.925  89.423  1.00  0.00     0.005 C 
BRANCH  18  19
ATOM     19  C   UNL     1      79.161  91.086  89.664  1.00  0.00     0.027 C 
BRANCH  19  20
ATOM     20  C   UNL     1      79.443  89.660  89.726  1.00  0.00    -0.031 C 
ATOM     21  C   UNL     1      79.824  88.918  88.670  1.00  0.00    -0.028 C 
BRANCH  21  22
ATOM     22  C   UNL     1      80.122  87.489  88.759  1.00  0.00     0.005 C 
ATOM     23  C   UNL     1      81.621  87.217  89.065  1.00  0.00     0.012 C 
ATOM     24  C   UNL     1      79.211  86.817  89.819  1.00  0.00     0.012 C 
ENDBRANCH  21  22
ENDBRANCH  19  20
ENDBRANCH  18  19
ENDBRANCH  17  18
ENDBRANCH   1  17
TORSDOF 10
ENDMDL
MODEL 8
REMARK VINA RESULT:    -5.670      2.247      3.479
REMARK INTER + INTRA:          -9.647
REMARK INTER:                  -9.101
REMARK INTRA:                  -0.546
REMARK UNBOUND:                -0.828
REMARK SMILES COc1cc(CNC(=O)CCCC/C=C/C(C)C)ccc1O
REMARK SMILES IDX 10 1 8 2 7 3 9 5 6 6 5 7 3 8 21 9 4 10 20 11 19 12 2 13 1 14
REMARK SMILES IDX 22 15 11 17 12 18 13 19 14 20 15 21 16 22 17 23 18 24
REMARK H PARENT 7 4 22 16
REMARK Flexibility Score: inf
ROOT
ATOM      1  C   UNL     1      95.357  94.396  78.921  1.00  0.00     0.100 C 
ENDROOT
BRANCH   1   2
ATOM      2  C   UNL     1      94.858  94.095  77.566  1.00  0.00     0.220 C 
ATOM      3  N   UNL     1      93.584  94.421  77.210  1.00  0.00    -0.352 N 
ATOM      4  H   UNL     1      93.032  94.847  77.943  1.00  0.00     0.163 HD
ATOM      5  O   UNL     1      95.645  93.557  76.750  1.00  0.00    -0.275 OA
BRANCH   3   6
ATOM      6  C   UNL     1      93.016  94.202  75.918  1.00  0.00     0.151 C 
BRANCH   6   7
ATOM      7  C   UNL     1      91.811  93.332  75.991  1.00  0.00    -0.025 A 
ATOM      8  C   UNL     1      90.565  91.353  75.218  1.00  0.00     0.160 A 
ATOM      9  C   UNL     1      89.530  91.649  76.129  1.00  0.00     0.157 A 
ATOM     10  C   UNL     1      91.694  92.197  75.156  1.00  0.00     0.056 A 
ATOM     11  C   UNL     1      89.624  92.788  76.954  1.00  0.00     0.050 A 
ATOM     12  C   UNL     1      90.760  93.618  76.893  1.00  0.00     0.009 A 
BRANCH   8  13
ATOM     13  O   UNL     1      90.448  90.284  74.367  1.00  0.00    -0.493 OA
ATOM     14  C   UNL     1      91.398  89.231  74.614  1.00  0.00     0.278 C 
ENDBRANCH   8  13
BRANCH   9  15
ATOM     15  O   UNL     1      88.436  90.850  76.223  1.00  0.00    -0.504 OA
ATOM     16  H   UNL     1      87.670  91.313  75.877  1.00  0.00     0.293 HD
ENDBRANCH   9  15
ENDBRANCH   6   7
ENDBRANCH   3   6
ENDBRANCH   1   2
BRANCH   1  17
ATOM     17  C   UNL     1      96.363  95.578  78.912  1.00  0.00     0.010 C 
BRANCH  17  18
ATOM     18  C   UNL     1      97.027  95.818  80.297  1.00  0.00     0.005 C 
BRANCH  18  19
ATOM     19  C   UNL     1      95.982  96.006  81.429  1.00  0.00     0.027 C 
BRANCH  19  20
ATOM     20  C   UNL     1      96.319  97.116  82.307  1.00  0.00    -0.031 C 
ATOM     21  C   UNL     1      96.270  97.060  83.650  1.00  0.00    -0.028 C 
BRANCH  21  22
ATOM     22  C   UNL     1      96.633  98.183  84.514  1.00  0.00     0.005 C 
ATOM     23  C   UNL     1      96.724  97.770  86.010  1.00  0.00     0.012 C 
ATOM     24  C   UNL     1      97.962  98.821  84.034  1.00  0.00     0.012 C 
ENDBRANCH  21  22
ENDBRANCH  19  20
ENDBRANCH  18  19
ENDBRANCH  17  18
ENDBRANCH   1  17
TORSDOF 10
ENDMDL
MODEL 9
REMARK VINA RESULT:    -5.596     11.226     13.288
REMARK INTER + INTRA:          -9.532
REMARK INTER:                  -8.587
REMARK INTRA:                  -0.945
REMARK UNBOUND:                -0.828
REMARK SMILES COc1cc(CNC(=O)CCCC/C=C/C(C)C)ccc1O
REMARK SMILES IDX 10 1 8 2 7 3 9 5 6 6 5 7 3 8 21 9 4 10 20 11 19 12 2 13 1 14
REMARK SMILES IDX 22 15 11 17 12 18 13 19 14 20 15 21 16 22 17 23 18 24
REMARK H PARENT 7 4 22 16
REMARK Flexibility Score: inf
ROOT
ATOM      1  C   UNL     1      98.907  81.800  78.841  1.00  0.00     0.100 C 
ENDROOT
BRANCH   1   2
ATOM      2  C   UNL     1      98.679  81.463  80.259  1.00  0.00     0.220 C 
ATOM      3  N   UNL     1      97.431  81.550  80.798  1.00  0.00    -0.352 N 
ATOM      4  H   UNL     1      96.715  81.878  80.165  1.00  0.00     0.163 HD
ATOM      5  O   UNL     1      99.659  81.074  80.941  1.00  0.00    -0.275 OA
BRANCH   3   6
ATOM      6  C   UNL     1      97.100  81.218  82.147  1.00  0.00     0.151 C 
BRANCH   6   7
ATOM      7  C   UNL     1      96.788  82.432  82.949  1.00  0.00    -0.025 A 
ATOM      8  C   UNL     1      95.605  83.496  84.828  1.00  0.00     0.160 A 
ATOM      9  C   UNL     1      96.196  84.734  84.500  1.00  0.00     0.157 A 
ATOM     10  C   UNL     1      95.904  82.359  84.049  1.00  0.00     0.056 A 
ATOM     11  C   UNL     1      97.065  84.826  83.395  1.00  0.00     0.050 A 
ATOM     12  C   UNL     1      97.366  83.683  82.630  1.00  0.00     0.009 A 
BRANCH   8  13
ATOM     13  O   UNL     1      94.708  83.415  85.863  1.00  0.00    -0.493 OA
ATOM     14  C   UNL     1      95.048  82.433  86.859  1.00  0.00     0.278 C 
ENDBRANCH   8  13
BRANCH   9  15
ATOM     15  O   UNL     1      95.940  85.845  85.238  1.00  0.00    -0.504 OA
ATOM     16  H   UNL     1      95.455  85.600  86.029  1.00  0.00     0.293 HD
ENDBRANCH   9  15
ENDBRANCH   6   7
ENDBRANCH   3   6
ENDBRANCH   1   2
BRANCH   1  17
ATOM     17  C   UNL     1      97.837  82.790  78.308  1.00  0.00     0.010 C 
BRANCH  17  18
ATOM     18  C   UNL     1      97.091  82.257  77.053  1.00  0.00     0.005 C 
BRANCH  18  19
ATOM     19  C   UNL     1      97.079  83.287  75.891  1.00  0.00     0.027 C 
BRANCH  19  20
ATOM     20  C   UNL     1      98.420  83.600  75.423  1.00  0.00    -0.031 C 
ATOM     21  C   UNL     1      99.281  82.691  74.932  1.00  0.00    -0.028 C 
BRANCH  21  22
ATOM     22  C   UNL     1     100.619  83.032  74.449  1.00  0.00     0.005 C 
ATOM     23  C   UNL     1     100.629  84.346  73.618  1.00  0.00     0.012 C 
ATOM     24  C   UNL     1     101.612  83.121  75.637  1.00  0.00     0.012 C 
ENDBRANCH  21  22
ENDBRANCH  19  20
ENDBRANCH  18  19
ENDBRANCH  17  18
ENDBRANCH   1  17
TORSDOF 10
ENDMDL
MODEL 10
REMARK VINA RESULT:    -5.540     26.141     29.638
REMARK INTER + INTRA:          -9.444
REMARK INTER:                  -8.155
REMARK INTRA:                  -1.289
REMARK UNBOUND:                -0.828
REMARK SMILES COc1cc(CNC(=O)CCCC/C=C/C(C)C)ccc1O
REMARK SMILES IDX 10 1 8 2 7 3 9 5 6 6 5 7 3 8 21 9 4 10 20 11 19 12 2 13 1 14
REMARK SMILES IDX 22 15 11 17 12 18 13 19 14 20 15 21 16 22 17 23 18 24
REMARK H PARENT 7 4 22 16
REMARK Flexibility Score: inf
ROOT
ATOM      1  C   UNL     1      80.157  65.789  72.202  1.00  0.00     0.100 C 
ENDROOT
BRANCH   1   2
ATOM      2  C   UNL     1      80.621  64.831  73.223  1.00  0.00     0.220 C 
ATOM      3  N   UNL     1      81.927  64.812  73.611  1.00  0.00    -0.352 N 
ATOM      4  H   UNL     1      82.524  65.474  73.133  1.00  0.00     0.163 HD
ATOM      5  O   UNL     1      79.778  64.056  73.736  1.00  0.00    -0.275 OA
BRANCH   3   6
ATOM      6  C   UNL     1      82.469  63.948  74.610  1.00  0.00     0.151 C 
BRANCH   6   7
ATOM      7  C   UNL     1      83.325  64.695  75.572  1.00  0.00    -0.025 A 
ATOM      8  C   UNL     1      84.323  66.813  76.334  1.00  0.00     0.160 A 
ATOM      9  C   UNL     1      84.938  66.138  77.409  1.00  0.00     0.157 A 
ATOM     10  C   UNL     1      83.526  66.086  75.426  1.00  0.00     0.056 A 
ATOM     11  C   UNL     1      84.763  64.748  77.557  1.00  0.00     0.050 A 
ATOM     12  C   UNL     1      83.955  64.032  76.652  1.00  0.00     0.009 A 
BRANCH   8  13
ATOM     13  O   UNL     1      84.544  68.154  76.148  1.00  0.00    -0.493 OA
ATOM     14  C   UNL     1      85.412  68.458  75.041  1.00  0.00     0.278 C 
ENDBRANCH   8  13
BRANCH   9  15
ATOM     15  O   UNL     1      85.701  66.810  78.309  1.00  0.00    -0.504 OA
ATOM     16  H   UNL     1      86.630  66.664  78.114  1.00  0.00     0.293 HD
ENDBRANCH   9  15
ENDBRANCH   6   7
ENDBRANCH   3   6
ENDBRANCH   1   2
BRANCH   1  17
ATOM     17  C   UNL     1      80.667  67.226  72.492  1.00  0.00     0.010 C 
BRANCH  17  18
ATOM     18  C   UNL     1      81.511  67.815  71.326  1.00  0.00     0.005 C 
BRANCH  18  19
ATOM     19  C   UNL     1      83.036  67.620  71.544  1.00  0.00     0.027 C 
BRANCH  19  20
ATOM     20  C   UNL     1      83.611  66.689  70.586  1.00  0.00    -0.031 C 
ATOM     21  C   UNL     1      82.920  65.710  69.974  1.00  0.00    -0.028 C 
BRANCH  21  22
ATOM     22  C   UNL     1      83.515  64.797  68.998  1.00  0.00     0.005 C 
ATOM     23  C   UNL     1      82.441  64.031  68.178  1.00  0.00     0.012 C 
ATOM     24  C   UNL     1      84.480  65.569  68.061  1.00  0.00     0.012 C 
ENDBRANCH  21  22
ENDBRANCH  19  20
ENDBRANCH  18  19
ENDBRANCH  17  18
ENDBRANCH   1  17
TORSDOF 10
ENDMDL
