MODEL 1
REMARK VINA RESULT:    -6.649      0.000      0.000
REMARK INTER + INTRA:         -10.964
REMARK INTER:                 -10.341
REMARK INTRA:                  -0.623
REMARK UNBOUND:                -0.623
REMARK SMILES COc1cc(CNC(=O)CCCCCC(C)C)ccc1O
REMARK SMILES IDX 10 1 8 2 7 3 9 5 6 6 5 7 3 8 20 9 4 10 19 11 18 12 2 13 1 14
REMARK SMILES IDX 21 15 11 17 12 18 13 19 14 20 15 21 16 22 17 23
REMARK H PARENT 7 4 21 16
REMARK Flexibility Score: inf
ROOT
ATOM      1  C   UNL     1      90.779  94.614  76.909  1.00  0.00     0.100 C 
ENDROOT
BRANCH   1   2
ATOM      2  C   UNL     1      91.968  95.488  76.837  1.00  0.00     0.220 C 
ATOM      3  N   UNL     1      93.188  94.939  76.573  1.00  0.00    -0.352 N 
ATOM      4  H   UNL     1      93.209  93.929  76.575  1.00  0.00     0.163 HD
ATOM      5  O   UNL     1      91.823  96.726  76.979  1.00  0.00    -0.275 OA
BRANCH   3   6
ATOM      6  C   UNL     1      94.381  95.676  76.306  1.00  0.00     0.151 C 
BRANCH   6   7
ATOM      7  C   UNL     1      95.332  95.682  77.449  1.00  0.00    -0.025 A 
ATOM      8  C   UNL     1      95.915  95.012  79.742  1.00  0.00     0.160 A 
ATOM      9  C   UNL     1      97.173  95.636  79.603  1.00  0.00     0.157 A 
ATOM     10  C   UNL     1      94.996  95.055  78.672  1.00  0.00     0.056 A 
ATOM     11  C   UNL     1      97.507  96.286  78.401  1.00  0.00     0.050 A 
ATOM     12  C   UNL     1      96.597  96.304  77.331  1.00  0.00     0.009 A 
BRANCH   8  13
ATOM     13  O   UNL     1      95.562  94.390  80.912  1.00  0.00    -0.493 OA
ATOM     14  C   UNL     1      95.745  92.962  80.890  1.00  0.00     0.278 C 
ENDBRANCH   8  13
BRANCH   9  15
ATOM     15  O   UNL     1      98.062  95.602  80.627  1.00  0.00    -0.504 OA
ATOM     16  H   UNL     1      98.731  94.937  80.448  1.00  0.00     0.293 HD
ENDBRANCH   9  15
ENDBRANCH   6   7
ENDBRANCH   3   6
ENDBRANCH   1   2
BRANCH   1  17
ATOM     17  C   UNL     1      90.999  93.301  77.708  1.00  0.00     0.010 C 
BRANCH  17  18
ATOM     18  C   UNL     1      89.788  92.337  77.570  1.00  0.00     0.001 C 
BRANCH  18  19
ATOM     19  C   UNL     1      90.040  91.168  76.581  1.00  0.00     0.000 C 
BRANCH  19  20
ATOM     20  C   UNL     1      91.027  91.562  75.444  1.00  0.00     0.003 C 
BRANCH  20  21
ATOM     21  C   UNL     1      90.960  90.658  74.170  1.00  0.00    -0.017 C 
ATOM     22  C   UNL     1      89.746  91.046  73.276  1.00  0.00     0.007 C 
ATOM     23  C   UNL     1      90.909  89.139  74.509  1.00  0.00     0.007 C 
ENDBRANCH  20  21
ENDBRANCH  19  20
ENDBRANCH  18  19
ENDBRANCH  17  18
ENDBRANCH   1  17
TORSDOF 10
ENDMDL
MODEL 2
REMARK VINA RESULT:    -6.400      3.253      4.738
REMARK INTER + INTRA:         -10.578
REMARK INTER:                  -9.158
REMARK INTRA:                  -1.420
REMARK UNBOUND:                -0.623
REMARK SMILES COc1cc(CNC(=O)CCCCCC(C)C)ccc1O
REMARK SMILES IDX 10 1 8 2 7 3 9 5 6 6 5 7 3 8 20 9 4 10 19 11 18 12 2 13 1 14
REMARK SMILES IDX 21 15 11 17 12 18 13 19 14 20 15 21 16 22 17 23
REMARK H PARENT 7 4 21 16
REMARK Flexibility Score: inf
ROOT
ATOM      1  C   UNL     1      95.934  97.730  74.633  1.00  0.00     0.100 C 
ENDROOT
BRANCH   1   2
ATOM      2  C   UNL     1      97.090  97.350  75.471  1.00  0.00     0.220 C 
ATOM      3  N   UNL     1      96.919  97.184  76.813  1.00  0.00    -0.352 N 
ATOM      4  H   UNL     1      96.015  97.467  77.164  1.00  0.00     0.163 HD
ATOM      5  O   UNL     1      98.200  97.148  74.921  1.00  0.00    -0.275 OA
BRANCH   3   6
ATOM      6  C   UNL     1      97.898  96.655  77.707  1.00  0.00     0.151 C 
BRANCH   6   7
ATOM      7  C   UNL     1      97.311  95.820  78.790  1.00  0.00    -0.025 A 
ATOM      8  C   UNL     1      96.243  95.634  80.997  1.00  0.00     0.160 A 
ATOM      9  C   UNL     1      96.133  94.238  80.823  1.00  0.00     0.157 A 
ATOM     10  C   UNL     1      96.848  96.414  79.988  1.00  0.00     0.056 A 
ATOM     11  C   UNL     1      96.615  93.634  79.647  1.00  0.00     0.050 A 
ATOM     12  C   UNL     1      97.194  94.419  78.636  1.00  0.00     0.009 A 
BRANCH   8  13
ATOM     13  O   UNL     1      95.798  96.239  82.143  1.00  0.00    -0.493 OA
ATOM     14  C   UNL     1      96.802  97.022  82.815  1.00  0.00     0.278 C 
ENDBRANCH   8  13
BRANCH   9  15
ATOM     15  O   UNL     1      95.555  93.479  81.788  1.00  0.00    -0.504 OA
ATOM     16  H   UNL     1      94.903  94.003  82.259  1.00  0.00     0.293 HD
ENDBRANCH   9  15
ENDBRANCH   6   7
ENDBRANCH   3   6
ENDBRANCH   1   2
BRANCH   1  17
ATOM     17  C   UNL     1      94.634  96.939  74.943  1.00  0.00     0.010 C 
BRANCH  17  18
ATOM     18  C   UNL     1      94.710  95.481  74.414  1.00  0.00     0.001 C 
BRANCH  18  19
ATOM     19  C   UNL     1      94.129  94.435  75.402  1.00  0.00     0.000 C 
BRANCH  19  20
ATOM     20  C   UNL     1      94.227  94.906  76.882  1.00  0.00     0.003 C 
BRANCH  20  21
ATOM     21  C   UNL     1      92.895  94.811  77.694  1.00  0.00    -0.017 C 
ATOM     22  C   UNL     1      92.670  93.364  78.225  1.00  0.00     0.007 C 
ATOM     23  C   UNL     1      91.655  95.279  76.879  1.00  0.00     0.007 C 
ENDBRANCH  20  21
ENDBRANCH  19  20
ENDBRANCH  18  19
ENDBRANCH  17  18
ENDBRANCH   1  17
TORSDOF 10
ENDMDL
MODEL 3
REMARK VINA RESULT:    -6.067      6.805      9.905
REMARK INTER + INTRA:         -10.059
REMARK INTER:                  -9.538
REMARK INTRA:                  -0.521
REMARK UNBOUND:                -0.623
REMARK SMILES COc1cc(CNC(=O)CCCCCC(C)C)ccc1O
REMARK SMILES IDX 10 1 8 2 7 3 9 5 6 6 5 7 3 8 20 9 4 10 19 11 18 12 2 13 1 14
REMARK SMILES IDX 21 15 11 17 12 18 13 19 14 20 15 21 16 22 17 23
REMARK H PARENT 7 4 21 16
REMARK Flexibility Score: inf
ROOT
ATOM      1  C   UNL     1      94.106  98.283  74.029  1.00  0.00     0.100 C 
ENDROOT
BRANCH   1   2
ATOM      2  C   UNL     1      93.996  98.812  72.654  1.00  0.00     0.220 C 
ATOM      3  N   UNL     1      92.933  99.597  72.321  1.00  0.00    -0.352 N 
ATOM      4  H   UNL     1      92.210  99.655  73.025  1.00  0.00     0.163 HD
ATOM      5  O   UNL     1      94.909  98.560  71.830  1.00  0.00    -0.275 OA
BRANCH   3   6
ATOM      6  C   UNL     1      92.791 100.311  71.093  1.00  0.00     0.151 C 
BRANCH   6   7
ATOM      7  C   UNL     1      91.570  99.929  70.333  1.00  0.00    -0.025 A 
ATOM      8  C   UNL     1      90.135 100.156  68.349  1.00  0.00     0.160 A 
ATOM      9  C   UNL     1      89.281  99.154  68.855  1.00  0.00     0.157 A 
ATOM     10  C   UNL     1      91.264 100.550  69.099  1.00  0.00     0.056 A 
ATOM     11  C   UNL     1      89.561  98.548  70.094  1.00  0.00     0.050 A 
ATOM     12  C   UNL     1      90.700  98.928  70.825  1.00  0.00     0.009 A 
BRANCH   8  13
ATOM     13  O   UNL     1      89.869 100.772  67.154  1.00  0.00    -0.493 OA
ATOM     14  C   UNL     1      90.615 100.236  66.044  1.00  0.00     0.278 C 
ENDBRANCH   8  13
BRANCH   9  15
ATOM     15  O   UNL     1      88.192  98.769  68.143  1.00  0.00    -0.504 OA
ATOM     16  H   UNL     1      87.504  99.433  68.225  1.00  0.00     0.293 HD
ENDBRANCH   9  15
ENDBRANCH   6   7
ENDBRANCH   3   6
ENDBRANCH   1   2
BRANCH   1  17
ATOM     17  C   UNL     1      94.608  96.816  74.111  1.00  0.00     0.010 C 
BRANCH  17  18
ATOM     18  C   UNL     1      94.372  96.208  75.521  1.00  0.00     0.001 C 
BRANCH  18  19
ATOM     19  C   UNL     1      92.911  95.744  75.756  1.00  0.00     0.000 C 
BRANCH  19  20
ATOM     20  C   UNL     1      92.657  95.323  77.232  1.00  0.00     0.003 C 
BRANCH  20  21
ATOM     21  C   UNL     1      92.573  93.780  77.474  1.00  0.00    -0.017 C 
ATOM     22  C   UNL     1      91.096  93.329  77.675  1.00  0.00     0.007 C 
ATOM     23  C   UNL     1      93.444  93.308  78.674  1.00  0.00     0.007 C 
ENDBRANCH  20  21
ENDBRANCH  19  20
ENDBRANCH  18  19
ENDBRANCH  17  18
ENDBRANCH   1  17
TORSDOF 10
ENDMDL
MODEL 4
REMARK VINA RESULT:    -5.995      3.555      6.704
REMARK INTER + INTRA:          -9.947
REMARK INTER:                  -8.449
REMARK INTRA:                  -1.498
REMARK UNBOUND:                -0.623
REMARK SMILES COc1cc(CNC(=O)CCCCCC(C)C)ccc1O
REMARK SMILES IDX 10 1 8 2 7 3 9 5 6 6 5 7 3 8 20 9 4 10 19 11 18 12 2 13 1 14
REMARK SMILES IDX 21 15 11 17 12 18 13 19 14 20 15 21 16 22 17 23
REMARK H PARENT 7 4 21 16
REMARK Flexibility Score: inf
ROOT
ATOM      1  C   UNL     1      93.319  93.043  78.792  1.00  0.00     0.100 C 
ENDROOT
BRANCH   1   2
ATOM      2  C   UNL     1      92.546  93.991  77.963  1.00  0.00     0.220 C 
ATOM      3  N   UNL     1      93.166  95.089  77.448  1.00  0.00    -0.352 N 
ATOM      4  H   UNL     1      94.104  95.247  77.789  1.00  0.00     0.163 HD
ATOM      5  O   UNL     1      91.341  93.741  77.715  1.00  0.00    -0.275 OA
BRANCH   3   6
ATOM      6  C   UNL     1      92.592  95.987  76.498  1.00  0.00     0.151 C 
BRANCH   6   7
ATOM      7  C   UNL     1      93.476  96.244  75.328  1.00  0.00    -0.025 A 
ATOM      8  C   UNL     1      94.347  97.771  73.608  1.00  0.00     0.160 A 
ATOM      9  C   UNL     1      95.207  96.753  73.144  1.00  0.00     0.157 A 
ATOM     10  C   UNL     1      93.473  97.504  74.685  1.00  0.00     0.056 A 
ATOM     11  C   UNL     1      95.199  95.488  73.760  1.00  0.00     0.050 A 
ATOM     12  C   UNL     1      94.344  95.237  74.847  1.00  0.00     0.009 A 
BRANCH   8  13
ATOM     13  O   UNL     1      94.325  99.003  73.010  1.00  0.00    -0.493 OA
ATOM     14  C   UNL     1      95.078 100.007  73.718  1.00  0.00     0.278 C 
ENDBRANCH   8  13
BRANCH   9  15
ATOM     15  O   UNL     1      96.049  96.998  72.109  1.00  0.00    -0.504 OA
ATOM     16  H   UNL     1      96.933  96.704  72.339  1.00  0.00     0.293 HD
ENDBRANCH   9  15
ENDBRANCH   6   7
ENDBRANCH   3   6
ENDBRANCH   1   2
BRANCH   1  17
ATOM     17  C   UNL     1      94.851  93.083  78.548  1.00  0.00     0.010 C 
BRANCH  17  18
ATOM     18  C   UNL     1      95.637  93.276  79.874  1.00  0.00     0.001 C 
BRANCH  18  19
ATOM     19  C   UNL     1      96.906  94.156  79.716  1.00  0.00     0.000 C 
BRANCH  19  20
ATOM     20  C   UNL     1      97.024  94.766  78.289  1.00  0.00     0.003 C 
BRANCH  20  21
ATOM     21  C   UNL     1      96.607  96.269  78.177  1.00  0.00    -0.017 C 
ATOM     22  C   UNL     1      97.024  96.860  76.799  1.00  0.00     0.007 C 
ATOM     23  C   UNL     1      97.182  97.143  79.329  1.00  0.00     0.007 C 
ENDBRANCH  20  21
ENDBRANCH  19  20
ENDBRANCH  18  19
ENDBRANCH  17  18
ENDBRANCH   1  17
TORSDOF 10
ENDMDL
MODEL 5
REMARK VINA RESULT:    -5.789     13.147     15.789
REMARK INTER + INTRA:          -9.627
REMARK INTER:                  -9.157
REMARK INTRA:                  -0.471
REMARK UNBOUND:                -0.623
REMARK SMILES COc1cc(CNC(=O)CCCCCC(C)C)ccc1O
REMARK SMILES IDX 10 1 8 2 7 3 9 5 6 6 5 7 3 8 20 9 4 10 19 11 18 12 2 13 1 14
REMARK SMILES IDX 21 15 11 17 12 18 13 19 14 20 15 21 16 22 17 23
REMARK H PARENT 7 4 21 16
REMARK Flexibility Score: inf
ROOT
ATOM      1  C   UNL     1      95.927  82.069  82.904  1.00  0.00     0.100 C 
ENDROOT
BRANCH   1   2
ATOM      2  C   UNL     1      95.252  81.999  84.216  1.00  0.00     0.220 C 
ATOM      3  N   UNL     1      93.896  81.873  84.265  1.00  0.00    -0.352 N 
ATOM      4  H   UNL     1      93.427  81.971  83.376  1.00  0.00     0.163 HD
ATOM      5  O   UNL     1      95.948  82.014  85.261  1.00  0.00    -0.275 OA
BRANCH   3   6
ATOM      6  C   UNL     1      93.136  81.621  85.448  1.00  0.00     0.151 C 
BRANCH   6   7
ATOM      7  C   UNL     1      91.838  80.946  85.176  1.00  0.00    -0.025 A 
ATOM      8  C   UNL     1      90.460  78.909  85.145  1.00  0.00     0.160 A 
ATOM      9  C   UNL     1      89.349  79.670  84.723  1.00  0.00     0.157 A 
ATOM     10  C   UNL     1      91.702  79.548  85.351  1.00  0.00     0.056 A 
ATOM     11  C   UNL     1      89.481  81.057  84.520  1.00  0.00     0.050 A 
ATOM     12  C   UNL     1      90.714  81.691  84.750  1.00  0.00     0.009 A 
BRANCH   8  13
ATOM     13  O   UNL     1      90.358  77.555  85.329  1.00  0.00    -0.493 OA
ATOM     14  C   UNL     1      90.913  76.778  84.250  1.00  0.00     0.278 C 
ENDBRANCH   8  13
BRANCH   9  15
ATOM     15  O   UNL     1      88.152  79.066  84.520  1.00  0.00    -0.504 OA
ATOM     16  H   UNL     1      88.099  78.272  85.058  1.00  0.00     0.293 HD
ENDBRANCH   9  15
ENDBRANCH   6   7
ENDBRANCH   3   6
ENDBRANCH   1   2
BRANCH   1  17
ATOM     17  C   UNL     1      96.385  80.695  82.347  1.00  0.00     0.010 C 
BRANCH  17  18
ATOM     18  C   UNL     1      97.325  80.858  81.120  1.00  0.00     0.001 C 
BRANCH  18  19
ATOM     19  C   UNL     1      96.876  81.978  80.145  1.00  0.00     0.000 C 
BRANCH  19  20
ATOM     20  C   UNL     1      97.740  82.012  78.851  1.00  0.00     0.003 C 
BRANCH  20  21
ATOM     21  C   UNL     1      96.942  81.820  77.520  1.00  0.00    -0.017 C 
ATOM     22  C   UNL     1      97.879  81.970  76.285  1.00  0.00     0.007 C 
ATOM     23  C   UNL     1      95.733  82.792  77.393  1.00  0.00     0.007 C 
ENDBRANCH  20  21
ENDBRANCH  19  20
ENDBRANCH  18  19
ENDBRANCH  17  18
ENDBRANCH   1  17
TORSDOF 10
ENDMDL
MODEL 6
REMARK VINA RESULT:    -5.657      9.985     12.158
REMARK INTER + INTRA:          -9.422
REMARK INTER:                  -8.176
REMARK INTRA:                  -1.246
REMARK UNBOUND:                -0.623
REMARK SMILES COc1cc(CNC(=O)CCCCCC(C)C)ccc1O
REMARK SMILES IDX 10 1 8 2 7 3 9 5 6 6 5 7 3 8 20 9 4 10 19 11 18 12 2 13 1 14
REMARK SMILES IDX 21 15 11 17 12 18 13 19 14 20 15 21 16 22 17 23
REMARK H PARENT 7 4 21 16
REMARK Flexibility Score: inf
ROOT
ATOM      1  C   UNL     1      89.731  98.581  66.695  1.00  0.00     0.100 C 
ENDROOT
BRANCH   1   2
ATOM      2  C   UNL     1      89.299  98.662  68.105  1.00  0.00     0.220 C 
ATOM      3  N   UNL     1      90.114  98.177  69.084  1.00  0.00    -0.352 N 
ATOM      4  H   UNL     1      90.920  97.666  68.752  1.00  0.00     0.163 HD
ATOM      5  O   UNL     1      88.205  99.215  68.376  1.00  0.00    -0.275 OA
BRANCH   3   6
ATOM      6  C   UNL     1      89.904  98.344  70.487  1.00  0.00     0.151 C 
BRANCH   6   7
ATOM      7  C   UNL     1      90.568  99.557  71.037  1.00  0.00    -0.025 A 
ATOM      8  C   UNL     1      90.449 101.888  71.808  1.00  0.00     0.160 A 
ATOM      9  C   UNL     1      91.818 101.844  72.147  1.00  0.00     0.157 A 
ATOM     10  C   UNL     1      89.837 100.751  71.239  1.00  0.00     0.056 A 
ATOM     11  C   UNL     1      92.561 100.670  71.925  1.00  0.00     0.050 A 
ATOM     12  C   UNL     1      91.940  99.533  71.380  1.00  0.00     0.009 A 
BRANCH   8  13
ATOM     13  O   UNL     1      89.712 103.028  71.998  1.00  0.00    -0.493 OA
ATOM     14  C   UNL     1      89.679 103.897  70.849  1.00  0.00     0.278 C 
ENDBRANCH   8  13
BRANCH   9  15
ATOM     15  O   UNL     1      92.416 102.932  72.693  1.00  0.00    -0.504 OA
ATOM     16  H   UNL     1      92.707 103.523  71.994  1.00  0.00     0.293 HD
ENDBRANCH   9  15
ENDBRANCH   6   7
ENDBRANCH   3   6
ENDBRANCH   1   2
BRANCH   1  17
ATOM     17  C   UNL     1      90.086  99.951  66.056  1.00  0.00     0.010 C 
BRANCH  17  18
ATOM     18  C   UNL     1      90.818 100.879  67.064  1.00  0.00     0.001 C 
BRANCH  18  19
ATOM     19  C   UNL     1      89.966 102.096  67.512  1.00  0.00     0.000 C 
BRANCH  19  20
ATOM     20  C   UNL     1      89.039 102.616  66.375  1.00  0.00     0.003 C 
BRANCH  20  21
ATOM     21  C   UNL     1      87.516 102.644  66.725  1.00  0.00    -0.017 C 
ATOM     22  C   UNL     1      86.800 101.368  66.191  1.00  0.00     0.007 C 
ATOM     23  C   UNL     1      86.797 103.920  66.198  1.00  0.00     0.007 C 
ENDBRANCH  20  21
ENDBRANCH  19  20
ENDBRANCH  18  19
ENDBRANCH  17  18
ENDBRANCH   1  17
TORSDOF 10
ENDMDL
MODEL 7
REMARK VINA RESULT:    -5.520      3.681      5.392
REMARK INTER + INTRA:          -9.209
REMARK INTER:                  -8.331
REMARK INTRA:                  -0.878
REMARK UNBOUND:                -0.623
REMARK SMILES COc1cc(CNC(=O)CCCCCC(C)C)ccc1O
REMARK SMILES IDX 10 1 8 2 7 3 9 5 6 6 5 7 3 8 20 9 4 10 19 11 18 12 2 13 1 14
REMARK SMILES IDX 21 15 11 17 12 18 13 19 14 20 15 21 16 22 17 23
REMARK H PARENT 7 4 21 16
REMARK Flexibility Score: inf
ROOT
ATOM      1  C   UNL     1      96.275  93.724  78.765  1.00  0.00     0.100 C 
ENDROOT
BRANCH   1   2
ATOM      2  C   UNL     1      96.124  95.064  79.370  1.00  0.00     0.220 C 
ATOM      3  N   UNL     1      96.024  95.180  80.724  1.00  0.00    -0.352 N 
ATOM      4  H   UNL     1      95.928  94.305  81.220  1.00  0.00     0.163 HD
ATOM      5  O   UNL     1      96.133  96.074  78.624  1.00  0.00    -0.275 OA
BRANCH   3   6
ATOM      6  C   UNL     1      96.048  96.411  81.448  1.00  0.00     0.151 C 
BRANCH   6   7
ATOM      7  C   UNL     1      97.103  96.452  82.496  1.00  0.00    -0.025 A 
ATOM      8  C   UNL     1      97.839  97.079  84.757  1.00  0.00     0.160 A 
ATOM      9  C   UNL     1      99.090  96.471  84.516  1.00  0.00     0.157 A 
ATOM     10  C   UNL     1      96.861  97.082  83.740  1.00  0.00     0.056 A 
ATOM     11  C   UNL     1      99.350  95.865  83.274  1.00  0.00     0.050 A 
ATOM     12  C   UNL     1      98.364  95.850  82.274  1.00  0.00     0.009 A 
BRANCH   8  13
ATOM     13  O   UNL     1      97.572  97.693  85.953  1.00  0.00    -0.493 OA
ATOM     14  C   UNL     1      96.237  97.460  86.441  1.00  0.00     0.278 C 
ENDBRANCH   8  13
BRANCH   9  15
ATOM     15  O   UNL     1     100.038  96.465  85.487  1.00  0.00    -0.504 OA
ATOM     16  H   UNL     1     100.893  96.668  85.101  1.00  0.00     0.293 HD
ENDBRANCH   9  15
ENDBRANCH   6   7
ENDBRANCH   3   6
ENDBRANCH   1   2
BRANCH   1  17
ATOM     17  C   UNL     1      95.056  93.263  77.923  1.00  0.00     0.010 C 
BRANCH  17  18
ATOM     18  C   UNL     1      93.749  93.258  78.764  1.00  0.00     0.001 C 
BRANCH  18  19
ATOM     19  C   UNL     1      92.465  93.423  77.908  1.00  0.00     0.000 C 
BRANCH  19  20
ATOM     20  C   UNL     1      92.786  93.612  76.397  1.00  0.00     0.003 C 
BRANCH  20  21
ATOM     21  C   UNL     1      92.553  95.057  75.848  1.00  0.00    -0.017 C 
ATOM     22  C   UNL     1      93.850  95.619  75.194  1.00  0.00     0.007 C 
ATOM     23  C   UNL     1      92.036  96.041  76.937  1.00  0.00     0.007 C 
ENDBRANCH  20  21
ENDBRANCH  19  20
ENDBRANCH  18  19
ENDBRANCH  17  18
ENDBRANCH   1  17
TORSDOF 10
ENDMDL
MODEL 8
REMARK VINA RESULT:    -5.472     11.974     14.099
REMARK INTER + INTRA:          -9.133
REMARK INTER:                  -8.085
REMARK INTRA:                  -1.049
REMARK UNBOUND:                -0.623
REMARK SMILES COc1cc(CNC(=O)CCCCCC(C)C)ccc1O
REMARK SMILES IDX 10 1 8 2 7 3 9 5 6 6 5 7 3 8 20 9 4 10 19 11 18 12 2 13 1 14
REMARK SMILES IDX 21 15 11 17 12 18 13 19 14 20 15 21 16 22 17 23
REMARK H PARENT 7 4 21 16
REMARK Flexibility Score: inf
ROOT
ATOM      1  C   UNL     1      96.407  82.369  74.112  1.00  0.00     0.100 C 
ENDROOT
BRANCH   1   2
ATOM      2  C   UNL     1      96.231  82.985  75.444  1.00  0.00     0.220 C 
ATOM      3  N   UNL     1      96.119  82.184  76.541  1.00  0.00    -0.352 N 
ATOM      4  H   UNL     1      96.033  81.198  76.341  1.00  0.00     0.163 HD
ATOM      5  O   UNL     1      96.229  84.236  75.541  1.00  0.00    -0.275 OA
BRANCH   3   6
ATOM      6  C   UNL     1      96.119  82.641  77.894  1.00  0.00     0.151 C 
BRANCH   6   7
ATOM      7  C   UNL     1      97.035  81.865  78.773  1.00  0.00    -0.025 A 
ATOM      8  C   UNL     1      99.007  80.423  79.054  1.00  0.00     0.160 A 
ATOM      9  C   UNL     1      98.819  80.442  80.452  1.00  0.00     0.157 A 
ATOM     10  C   UNL     1      98.104  81.118  78.222  1.00  0.00     0.056 A 
ATOM     11  C   UNL     1      97.744  81.159  81.009  1.00  0.00     0.050 A 
ATOM     12  C   UNL     1      96.862  81.869  80.177  1.00  0.00     0.009 A 
BRANCH   8  13
ATOM     13  O   UNL     1     100.036  79.715  78.491  1.00  0.00    -0.493 OA
ATOM     14  C   UNL     1      99.624  78.835  77.427  1.00  0.00     0.278 C 
ENDBRANCH   8  13
BRANCH   9  15
ATOM     15  O   UNL     1      99.680  79.775  81.261  1.00  0.00    -0.504 OA
ATOM     16  H   UNL     1      99.366  78.877  81.393  1.00  0.00     0.293 HD
ENDBRANCH   9  15
ENDBRANCH   6   7
ENDBRANCH   3   6
ENDBRANCH   1   2
BRANCH   1  17
ATOM     17  C   UNL     1      97.522  81.290  74.050  1.00  0.00     0.010 C 
BRANCH  17  18
ATOM     18  C   UNL     1      97.763  80.799  72.595  1.00  0.00     0.001 C 
BRANCH  18  19
ATOM     19  C   UNL     1      99.224  80.998  72.112  1.00  0.00     0.000 C 
BRANCH  19  20
ATOM     20  C   UNL     1     100.037  81.923  73.063  1.00  0.00     0.003 C 
BRANCH  20  21
ATOM     21  C   UNL     1     100.462  83.295  72.445  1.00  0.00    -0.017 C 
ATOM     22  C   UNL     1     101.837  83.758  73.013  1.00  0.00     0.007 C 
ATOM     23  C   UNL     1      99.396  84.409  72.655  1.00  0.00     0.007 C 
ENDBRANCH  20  21
ENDBRANCH  19  20
ENDBRANCH  18  19
ENDBRANCH  17  18
ENDBRANCH   1  17
TORSDOF 10
ENDMDL
MODEL 9
REMARK VINA RESULT:    -5.376     13.897     16.831
REMARK INTER + INTRA:          -8.984
REMARK INTER:                  -8.212
REMARK INTRA:                  -0.773
REMARK UNBOUND:                -0.623
REMARK SMILES COc1cc(CNC(=O)CCCCCC(C)C)ccc1O
REMARK SMILES IDX 10 1 8 2 7 3 9 5 6 6 5 7 3 8 20 9 4 10 19 11 18 12 2 13 1 14
REMARK SMILES IDX 21 15 11 17 12 18 13 19 14 20 15 21 16 22 17 23
REMARK H PARENT 7 4 21 16
REMARK Flexibility Score: inf
ROOT
ATOM      1  C   UNL     1      91.259  83.568  88.562  1.00  0.00     0.100 C 
ENDROOT
BRANCH   1   2
ATOM      2  C   UNL     1      91.578  82.523  87.567  1.00  0.00     0.220 C 
ATOM      3  N   UNL     1      91.335  82.759  86.247  1.00  0.00    -0.352 N 
ATOM      4  H   UNL     1      90.820  83.606  86.054  1.00  0.00     0.163 HD
ATOM      5  O   UNL     1      92.105  81.453  87.956  1.00  0.00    -0.275 OA
BRANCH   3   6
ATOM      6  C   UNL     1      91.750  81.917  85.171  1.00  0.00     0.151 C 
BRANCH   6   7
ATOM      7  C   UNL     1      90.768  80.843  84.859  1.00  0.00    -0.025 A 
ATOM      8  C   UNL     1      88.496  80.151  84.221  1.00  0.00     0.160 A 
ATOM      9  C   UNL     1      88.916  78.804  84.197  1.00  0.00     0.157 A 
ATOM     10  C   UNL     1      89.419  81.159  84.570  1.00  0.00     0.056 A 
ATOM     11  C   UNL     1      90.248  78.475  84.509  1.00  0.00     0.050 A 
ATOM     12  C   UNL     1      91.168  79.487  84.831  1.00  0.00     0.009 A 
BRANCH   8  13
ATOM     13  O   UNL     1      87.199  80.490  83.941  1.00  0.00    -0.493 OA
ATOM     14  C   UNL     1      86.560  81.256  84.980  1.00  0.00     0.278 C 
ENDBRANCH   8  13
BRANCH   9  15
ATOM     15  O   UNL     1      88.036  77.826  83.866  1.00  0.00    -0.504 OA
ATOM     16  H   UNL     1      88.103  77.107  84.498  1.00  0.00     0.293 HD
ENDBRANCH   9  15
ENDBRANCH   6   7
ENDBRANCH   3   6
ENDBRANCH   1   2
BRANCH   1  17
ATOM     17  C   UNL     1      92.336  84.680  88.687  1.00  0.00     0.010 C 
BRANCH  17  18
ATOM     18  C   UNL     1      91.964  85.717  89.782  1.00  0.00     0.001 C 
BRANCH  18  19
ATOM     19  C   UNL     1      93.083  86.756  90.053  1.00  0.00     0.000 C 
BRANCH  19  20
ATOM     20  C   UNL     1      94.503  86.122  89.989  1.00  0.00     0.003 C 
BRANCH  20  21
ATOM     21  C   UNL     1      95.508  86.846  89.035  1.00  0.00    -0.017 C 
ATOM     22  C   UNL     1      95.115  88.341  88.846  1.00  0.00     0.007 C 
ATOM     23  C   UNL     1      95.635  86.149  87.649  1.00  0.00     0.007 C 
ENDBRANCH  20  21
ENDBRANCH  19  20
ENDBRANCH  18  19
ENDBRANCH  17  18
ENDBRANCH   1  17
TORSDOF 10
ENDMDL
MODEL 10
REMARK VINA RESULT:    -5.333      3.538      5.556
REMARK INTER + INTRA:          -8.919
REMARK INTER:                  -8.289
REMARK INTRA:                  -0.629
REMARK UNBOUND:                -0.623
REMARK SMILES COc1cc(CNC(=O)CCCCCC(C)C)ccc1O
REMARK SMILES IDX 10 1 8 2 7 3 9 5 6 6 5 7 3 8 20 9 4 10 19 11 18 12 2 13 1 14
REMARK SMILES IDX 21 15 11 17 12 18 13 19 14 20 15 21 16 22 17 23
REMARK H PARENT 7 4 21 16
REMARK Flexibility Score: inf
ROOT
ATOM      1  C   UNL     1      96.674  94.084  78.904  1.00  0.00     0.100 C 
ENDROOT
BRANCH   1   2
ATOM      2  C   UNL     1      96.588  94.504  80.318  1.00  0.00     0.220 C 
ATOM      3  N   UNL     1      96.008  95.698  80.628  1.00  0.00    -0.352 N 
ATOM      4  H   UNL     1      95.791  96.284  79.834  1.00  0.00     0.163 HD
ATOM      5  O   UNL     1      97.014  93.731  81.210  1.00  0.00    -0.275 OA
BRANCH   3   6
ATOM      6  C   UNL     1      95.704  96.147  81.949  1.00  0.00     0.151 C 
BRANCH   6   7
ATOM      7  C   UNL     1      96.654  97.176  82.449  1.00  0.00    -0.025 A 
ATOM      8  C   UNL     1      98.801  97.770  83.492  1.00  0.00     0.160 A 
ATOM      9  C   UNL     1      98.493  99.139  83.341  1.00  0.00     0.157 A 
ATOM     10  C   UNL     1      97.872  96.798  83.063  1.00  0.00     0.056 A 
ATOM     11  C   UNL     1      97.273  99.526  82.757  1.00  0.00     0.050 A 
ATOM     12  C   UNL     1      96.363  98.554  82.309  1.00  0.00     0.009 A 
BRANCH   8  13
ATOM     13  O   UNL     1      99.974  97.372  84.077  1.00  0.00    -0.493 OA
ATOM     14  C   UNL     1      99.820  96.898  85.429  1.00  0.00     0.278 C 
ENDBRANCH   8  13
BRANCH   9  15
ATOM     15  O   UNL     1      99.378 100.081  83.753  1.00  0.00    -0.504 OA
ATOM     16  H   UNL     1      99.183 100.915  83.318  1.00  0.00     0.293 HD
ENDBRANCH   9  15
ENDBRANCH   6   7
ENDBRANCH   3   6
ENDBRANCH   1   2
BRANCH   1  17
ATOM     17  C   UNL     1      95.694  92.944  78.516  1.00  0.00     0.010 C 
BRANCH  17  18
ATOM     18  C   UNL     1      94.222  93.320  78.838  1.00  0.00     0.001 C 
BRANCH  18  19
ATOM     19  C   UNL     1      93.285  93.254  77.603  1.00  0.00     0.000 C 
BRANCH  19  20
ATOM     20  C   UNL     1      91.782  93.339  78.000  1.00  0.00     0.003 C 
BRANCH  20  21
ATOM     21  C   UNL     1      90.962  94.436  77.246  1.00  0.00    -0.017 C 
ATOM     22  C   UNL     1      90.558  93.949  75.823  1.00  0.00     0.007 C 
ATOM     23  C   UNL     1      91.714  95.795  77.152  1.00  0.00     0.007 C 
ENDBRANCH  20  21
ENDBRANCH  19  20
ENDBRANCH  18  19
ENDBRANCH  17  18
ENDBRANCH   1  17
TORSDOF 10
ENDMDL
