MODEL 1
REMARK VINA RESULT:    -6.362      0.000      0.000
REMARK INTER + INTRA:         -10.626
REMARK INTER:                  -9.895
REMARK INTRA:                  -0.731
REMARK UNBOUND:                -0.731
REMARK SMILES COc1cc(CNC(=O)CCCC/C=C/C(C)C)ccc1O
REMARK SMILES IDX 10 1 8 2 7 3 9 5 6 6 5 7 3 8 21 9 4 10 20 11 19 12 2 13 1 14
REMARK SMILES IDX 22 15 11 17 12 18 13 19 14 20 15 21 16 22 17 23 18 24
REMARK H PARENT 7 4 22 16
REMARK Flexibility Score: inf
ROOT
ATOM      1  C   UNL     1      94.823  98.923  73.690  1.00  0.00     0.100 C 
ENDROOT
BRANCH   1   2
ATOM      2  C   UNL     1      94.440  99.686  72.486  1.00  0.00     0.220 C 
ATOM      3  N   UNL     1      93.164 100.140  72.332  1.00  0.00    -0.352 N 
ATOM      4  H   UNL     1      92.530  99.892  73.079  1.00  0.00     0.163 HD
ATOM      5  O   UNL     1      95.324  99.921  71.628  1.00  0.00    -0.275 OA
BRANCH   3   6
ATOM      6  C   UNL     1      92.702 100.912  71.224  1.00  0.00     0.151 C 
BRANCH   6   7
ATOM      7  C   UNL     1      91.576 100.239  70.521  1.00  0.00    -0.025 A 
ATOM      8  C   UNL     1      90.102 100.048  68.558  1.00  0.00     0.160 A 
ATOM      9  C   UNL     1      89.444  98.954  69.157  1.00  0.00     0.157 A 
ATOM     10  C   UNL     1      91.159 100.681  69.245  1.00  0.00     0.056 A 
ATOM     11  C   UNL     1      89.835  98.515  70.437  1.00  0.00     0.050 A 
ATOM     12  C   UNL     1      90.900  99.146  71.111  1.00  0.00     0.009 A 
BRANCH   8  13
ATOM     13  O   UNL     1      89.681 100.521  67.341  1.00  0.00    -0.493 OA
ATOM     14  C   UNL     1      90.363  99.936  66.216  1.00  0.00     0.278 C 
ENDBRANCH   8  13
BRANCH   9  15
ATOM     15  O   UNL     1      88.431  98.315  68.517  1.00  0.00    -0.504 OA
ATOM     16  H   UNL     1      87.620  98.414  69.021  1.00  0.00     0.293 HD
ENDBRANCH   9  15
ENDBRANCH   6   7
ENDBRANCH   3   6
ENDBRANCH   1   2
BRANCH   1  17
ATOM     17  C   UNL     1      94.743  97.392  73.447  1.00  0.00     0.010 C 
BRANCH  17  18
ATOM     18  C   UNL     1      94.960  96.561  74.743  1.00  0.00     0.005 C 
BRANCH  18  19
ATOM     19  C   UNL     1      94.519  95.082  74.577  1.00  0.00     0.027 C 
BRANCH  19  20
ATOM     20  C   UNL     1      93.614  94.659  75.635  1.00  0.00    -0.031 C 
ATOM     21  C   UNL     1      92.723  95.469  76.236  1.00  0.00    -0.028 C 
BRANCH  21  22
ATOM     22  C   UNL     1      91.808  95.017  77.285  1.00  0.00     0.005 C 
ATOM     23  C   UNL     1      90.360  94.819  76.758  1.00  0.00     0.012 C 
ATOM     24  C   UNL     1      92.342  93.716  77.938  1.00  0.00     0.012 C 
ENDBRANCH  21  22
ENDBRANCH  19  20
ENDBRANCH  18  19
ENDBRANCH  17  18
ENDBRANCH   1  17
TORSDOF 10
ENDMDL
MODEL 2
REMARK VINA RESULT:    -5.765     17.453     19.724
REMARK INTER + INTRA:          -9.697
REMARK INTER:                  -8.324
REMARK INTRA:                  -1.374
REMARK UNBOUND:                -0.731
REMARK SMILES COc1cc(CNC(=O)CCCC/C=C/C(C)C)ccc1O
REMARK SMILES IDX 10 1 8 2 7 3 9 5 6 6 5 7 3 8 21 9 4 10 20 11 19 12 2 13 1 14
REMARK SMILES IDX 22 15 11 17 12 18 13 19 14 20 15 21 16 22 17 23 18 24
REMARK H PARENT 7 4 22 16
REMARK Flexibility Score: inf
ROOT
ATOM      1  C   UNL     1     100.850  78.387  80.676  1.00  0.00     0.100 C 
ENDROOT
BRANCH   1   2
ATOM      2  C   UNL     1     100.905  79.298  79.516  1.00  0.00     0.220 C 
ATOM      3  N   UNL     1      99.923  79.275  78.572  1.00  0.00    -0.352 N 
ATOM      4  H   UNL     1      99.199  78.586  78.726  1.00  0.00     0.163 HD
ATOM      5  O   UNL     1     101.865  80.103  79.439  1.00  0.00    -0.275 OA
BRANCH   3   6
ATOM      6  C   UNL     1      99.867  80.133  77.432  1.00  0.00     0.151 C 
BRANCH   6   7
ATOM      7  C   UNL     1      98.625  80.954  77.427  1.00  0.00    -0.025 A 
ATOM      8  C   UNL     1      96.855  82.129  76.182  1.00  0.00     0.160 A 
ATOM      9  C   UNL     1      96.247  82.502  77.398  1.00  0.00     0.157 A 
ATOM     10  C   UNL     1      98.038  81.361  76.207  1.00  0.00     0.056 A 
ATOM     11  C   UNL     1      96.831  82.121  78.622  1.00  0.00     0.050 A 
ATOM     12  C   UNL     1      98.006  81.344  78.637  1.00  0.00     0.009 A 
BRANCH   8  13
ATOM     13  O   UNL     1      96.327  82.553  74.989  1.00  0.00    -0.493 OA
ATOM     14  C   UNL     1      96.962  81.983  73.830  1.00  0.00     0.278 C 
ENDBRANCH   8  13
BRANCH   9  15
ATOM     15  O   UNL     1      95.100  83.230  77.408  1.00  0.00    -0.504 OA
ATOM     16  H   UNL     1      95.287  84.127  77.122  1.00  0.00     0.293 HD
ENDBRANCH   9  15
ENDBRANCH   6   7
ENDBRANCH   3   6
ENDBRANCH   1   2
BRANCH   1  17
ATOM     17  C   UNL     1      99.388  78.022  81.048  1.00  0.00     0.010 C 
BRANCH  17  18
ATOM     18  C   UNL     1      98.647  79.170  81.788  1.00  0.00     0.005 C 
BRANCH  18  19
ATOM     19  C   UNL     1      97.132  79.211  81.450  1.00  0.00     0.027 C 
BRANCH  19  20
ATOM     20  C   UNL     1      96.396  80.096  82.340  1.00  0.00    -0.031 C 
ATOM     21  C   UNL     1      96.366  81.436  82.218  1.00  0.00    -0.028 C 
BRANCH  21  22
ATOM     22  C   UNL     1      95.603  82.306  83.112  1.00  0.00     0.005 C 
ATOM     23  C   UNL     1      95.356  81.653  84.500  1.00  0.00     0.012 C 
ATOM     24  C   UNL     1      96.314  83.675  83.264  1.00  0.00     0.012 C 
ENDBRANCH  21  22
ENDBRANCH  19  20
ENDBRANCH  18  19
ENDBRANCH  17  18
ENDBRANCH   1  17
TORSDOF 10
ENDMDL
MODEL 3
REMARK VINA RESULT:    -5.708      6.654     11.378
REMARK INTER + INTRA:          -9.609
REMARK INTER:                  -8.531
REMARK INTRA:                  -1.078
REMARK UNBOUND:                -0.731
REMARK SMILES COc1cc(CNC(=O)CCCC/C=C/C(C)C)ccc1O
REMARK SMILES IDX 10 1 8 2 7 3 9 5 6 6 5 7 3 8 21 9 4 10 20 11 19 12 2 13 1 14
REMARK SMILES IDX 22 15 11 17 12 18 13 19 14 20 15 21 16 22 17 23 18 24
REMARK H PARENT 7 4 22 16
REMARK Flexibility Score: inf
ROOT
ATOM      1  C   UNL     1      96.988  96.526  76.831  1.00  0.00     0.100 C 
ENDROOT
BRANCH   1   2
ATOM      2  C   UNL     1      96.534  95.698  77.965  1.00  0.00     0.220 C 
ATOM      3  N   UNL     1      97.427  94.963  78.685  1.00  0.00    -0.352 N 
ATOM      4  H   UNL     1      98.383  95.018  78.364  1.00  0.00     0.163 HD
ATOM      5  O   UNL     1      95.314  95.713  78.258  1.00  0.00    -0.275 OA
BRANCH   3   6
ATOM      6  C   UNL     1      97.095  94.157  79.817  1.00  0.00     0.151 C 
BRANCH   6   7
ATOM      7  C   UNL     1      97.760  94.651  81.053  1.00  0.00    -0.025 A 
ATOM      8  C   UNL     1      98.000  96.371  82.799  1.00  0.00     0.160 A 
ATOM      9  C   UNL     1      99.003  95.599  83.422  1.00  0.00     0.157 A 
ATOM     10  C   UNL     1      97.390  95.891  81.621  1.00  0.00     0.056 A 
ATOM     11  C   UNL     1      99.396  94.370  82.856  1.00  0.00     0.050 A 
ATOM     12  C   UNL     1      98.773  93.894  81.686  1.00  0.00     0.009 A 
BRANCH   8  13
ATOM     13  O   UNL     1      97.661  97.598  83.309  1.00  0.00    -0.493 OA
ATOM     14  C   UNL     1      96.806  98.374  82.449  1.00  0.00     0.278 C 
ENDBRANCH   8  13
BRANCH   9  15
ATOM     15  O   UNL     1      99.601  96.026  84.564  1.00  0.00    -0.504 OA
ATOM     16  H   UNL     1     100.017  96.878  84.410  1.00  0.00     0.293 HD
ENDBRANCH   9  15
ENDBRANCH   6   7
ENDBRANCH   3   6
ENDBRANCH   1   2
BRANCH   1  17
ATOM     17  C   UNL     1      95.803  96.953  75.923  1.00  0.00     0.010 C 
BRANCH  17  18
ATOM     18  C   UNL     1      95.936  96.425  74.467  1.00  0.00     0.005 C 
BRANCH  18  19
ATOM     19  C   UNL     1      94.775  95.471  74.076  1.00  0.00     0.027 C 
BRANCH  19  20
ATOM     20  C   UNL     1      93.667  95.543  75.017  1.00  0.00    -0.031 C 
ATOM     21  C   UNL     1      93.206  94.495  75.724  1.00  0.00    -0.028 C 
BRANCH  21  22
ATOM     22  C   UNL     1      92.104  94.595  76.680  1.00  0.00     0.005 C 
ATOM     23  C   UNL     1      92.328  93.703  77.933  1.00  0.00     0.012 C 
ATOM     24  C   UNL     1      91.879  96.074  77.087  1.00  0.00     0.012 C 
ENDBRANCH  21  22
ENDBRANCH  19  20
ENDBRANCH  18  19
ENDBRANCH  17  18
ENDBRANCH   1  17
TORSDOF 10
ENDMDL
MODEL 4
REMARK VINA RESULT:    -5.692      1.691      2.389
REMARK INTER + INTRA:          -9.585
REMARK INTER:                  -8.869
REMARK INTRA:                  -0.716
REMARK UNBOUND:                -0.731
REMARK SMILES COc1cc(CNC(=O)CCCC/C=C/C(C)C)ccc1O
REMARK SMILES IDX 10 1 8 2 7 3 9 5 6 6 5 7 3 8 21 9 4 10 20 11 19 12 2 13 1 14
REMARK SMILES IDX 22 15 11 17 12 18 13 19 14 20 15 21 16 22 17 23 18 24
REMARK H PARENT 7 4 22 16
REMARK Flexibility Score: inf
ROOT
ATOM      1  C   UNL     1      93.809  96.808  74.885  1.00  0.00     0.100 C 
ENDROOT
BRANCH   1   2
ATOM      2  C   UNL     1      94.311  97.462  73.661  1.00  0.00     0.220 C 
ATOM      3  N   UNL     1      93.693  98.571  73.167  1.00  0.00    -0.352 N 
ATOM      4  H   UNL     1      92.879  98.873  73.685  1.00  0.00     0.163 HD
ATOM      5  O   UNL     1      95.329  96.981  73.108  1.00  0.00    -0.275 OA
BRANCH   3   6
ATOM      6  C   UNL     1      94.117  99.294  72.011  1.00  0.00     0.151 C 
BRANCH   6   7
ATOM      7  C   UNL     1      92.965  99.661  71.142  1.00  0.00    -0.025 A 
ATOM      8  C   UNL     1      92.094 100.721  69.098  1.00  0.00     0.160 A 
ATOM      9  C   UNL     1      90.783 100.352  69.465  1.00  0.00     0.157 A 
ATOM     10  C   UNL     1      93.171 100.375  69.940  1.00  0.00     0.056 A 
ATOM     11  C   UNL     1      90.560  99.658  70.670  1.00  0.00     0.050 A 
ATOM     12  C   UNL     1      91.644  99.306  71.499  1.00  0.00     0.009 A 
BRANCH   8  13
ATOM     13  O   UNL     1      92.308 101.455  67.959  1.00  0.00    -0.493 OA
ATOM     14  C   UNL     1      93.331 102.460  68.092  1.00  0.00     0.278 C 
ENDBRANCH   8  13
BRANCH   9  15
ATOM     15  O   UNL     1      89.725 100.659  68.671  1.00  0.00    -0.504 OA
ATOM     16  H   UNL     1      89.691 100.047  67.932  1.00  0.00     0.293 HD
ENDBRANCH   9  15
ENDBRANCH   6   7
ENDBRANCH   3   6
ENDBRANCH   1   2
BRANCH   1  17
ATOM     17  C   UNL     1      94.696  95.602  75.295  1.00  0.00     0.010 C 
BRANCH  17  18
ATOM     18  C   UNL     1      95.287  95.745  76.726  1.00  0.00     0.005 C 
BRANCH  18  19
ATOM     19  C   UNL     1      94.621  94.774  77.739  1.00  0.00     0.027 C 
BRANCH  19  20
ATOM     20  C   UNL     1      93.173  94.744  77.597  1.00  0.00    -0.031 C 
ATOM     21  C   UNL     1      92.427  93.629  77.698  1.00  0.00    -0.028 C 
BRANCH  21  22
ATOM     22  C   UNL     1      90.970  93.625  77.571  1.00  0.00     0.005 C 
ATOM     23  C   UNL     1      90.436  94.904  76.870  1.00  0.00     0.012 C 
ATOM     24  C   UNL     1      90.500  92.349  76.825  1.00  0.00     0.012 C 
ENDBRANCH  21  22
ENDBRANCH  19  20
ENDBRANCH  18  19
ENDBRANCH  17  18
ENDBRANCH   1  17
TORSDOF 10
ENDMDL
MODEL 5
REMARK VINA RESULT:    -5.691      1.560      2.113
REMARK INTER + INTRA:          -9.582
REMARK INTER:                  -8.823
REMARK INTRA:                  -0.759
REMARK UNBOUND:                -0.731
REMARK SMILES COc1cc(CNC(=O)CCCC/C=C/C(C)C)ccc1O
REMARK SMILES IDX 10 1 8 2 7 3 9 5 6 6 5 7 3 8 21 9 4 10 20 11 19 12 2 13 1 14
REMARK SMILES IDX 22 15 11 17 12 18 13 19 14 20 15 21 16 22 17 23 18 24
REMARK H PARENT 7 4 22 16
REMARK Flexibility Score: inf
ROOT
ATOM      1  C   UNL     1      94.821  98.696  73.738  1.00  0.00     0.100 C 
ENDROOT
BRANCH   1   2
ATOM      2  C   UNL     1      94.508  99.411  72.486  1.00  0.00     0.220 C 
ATOM      3  N   UNL     1      93.274  99.954  72.290  1.00  0.00    -0.352 N 
ATOM      4  H   UNL     1      92.617  99.804  73.043  1.00  0.00     0.163 HD
ATOM      5  O   UNL     1      95.414  99.523  71.625  1.00  0.00    -0.275 OA
BRANCH   3   6
ATOM      6  C   UNL     1      92.882 100.691  71.131  1.00  0.00     0.151 C 
BRANCH   6   7
ATOM      7  C   UNL     1      91.694 100.082  70.473  1.00  0.00    -0.025 A 
ATOM      8  C   UNL     1      90.129  99.983  68.574  1.00  0.00     0.160 A 
ATOM      9  C   UNL     1      89.442  98.919  69.194  1.00  0.00     0.157 A 
ATOM     10  C   UNL     1      91.245 100.556  69.219  1.00  0.00     0.056 A 
ATOM     11  C   UNL     1      89.866  98.449  70.453  1.00  0.00     0.050 A 
ATOM     12  C   UNL     1      90.989  99.019  71.084  1.00  0.00     0.009 A 
BRANCH   8  13
ATOM     13  O   UNL     1      89.681 100.488  67.380  1.00  0.00    -0.493 OA
ATOM     14  C   UNL     1      90.532 100.186  66.259  1.00  0.00     0.278 C 
ENDBRANCH   8  13
BRANCH   9  15
ATOM     15  O   UNL     1      88.372  98.337  68.594  1.00  0.00    -0.504 OA
ATOM     16  H   UNL     1      87.854  97.865  69.250  1.00  0.00     0.293 HD
ENDBRANCH   9  15
ENDBRANCH   6   7
ENDBRANCH   3   6
ENDBRANCH   1   2
BRANCH   1  17
ATOM     17  C   UNL     1      94.675  97.160  73.572  1.00  0.00     0.010 C 
BRANCH  17  18
ATOM     18  C   UNL     1      93.752  96.520  74.647  1.00  0.00     0.005 C 
BRANCH  18  19
ATOM     19  C   UNL     1      94.013  95.000  74.821  1.00  0.00     0.027 C 
BRANCH  19  20
ATOM     20  C   UNL     1      94.709  94.704  76.065  1.00  0.00    -0.031 C 
ATOM     21  C   UNL     1      95.352  95.622  76.809  1.00  0.00    -0.028 C 
BRANCH  21  22
ATOM     22  C   UNL     1      96.028  95.304  78.066  1.00  0.00     0.005 C 
ATOM     23  C   UNL     1      96.213  93.775  78.267  1.00  0.00     0.012 C 
ATOM     24  C   UNL     1      97.391  96.040  78.143  1.00  0.00     0.012 C 
ENDBRANCH  21  22
ENDBRANCH  19  20
ENDBRANCH  18  19
ENDBRANCH  17  18
ENDBRANCH   1  17
TORSDOF 10
ENDMDL
MODEL 6
REMARK VINA RESULT:    -5.665     17.415     20.343
REMARK INTER + INTRA:          -9.542
REMARK INTER:                  -9.001
REMARK INTRA:                  -0.541
REMARK UNBOUND:                -0.731
REMARK SMILES COc1cc(CNC(=O)CCCC/C=C/C(C)C)ccc1O
REMARK SMILES IDX 10 1 8 2 7 3 9 5 6 6 5 7 3 8 21 9 4 10 20 11 19 12 2 13 1 14
REMARK SMILES IDX 22 15 11 17 12 18 13 19 14 20 15 21 16 22 17 23 18 24
REMARK H PARENT 7 4 22 16
REMARK Flexibility Score: inf
ROOT
ATOM      1  C   UNL     1      96.398  80.854  83.591  1.00  0.00     0.100 C 
ENDROOT
BRANCH   1   2
ATOM      2  C   UNL     1      96.469  82.306  83.845  1.00  0.00     0.220 C 
ATOM      3  N   UNL     1      95.331  83.050  83.923  1.00  0.00    -0.352 N 
ATOM      4  H   UNL     1      94.474  82.537  83.773  1.00  0.00     0.163 HD
ATOM      5  O   UNL     1      97.600  82.824  84.008  1.00  0.00    -0.275 OA
BRANCH   3   6
ATOM      6  C   UNL     1      95.290  84.452  84.196  1.00  0.00     0.151 C 
BRANCH   6   7
ATOM      7  C   UNL     1      94.841  84.725  85.588  1.00  0.00    -0.025 A 
ATOM      8  C   UNL     1      95.182  85.844  87.754  1.00  0.00     0.160 A 
ATOM      9  C   UNL     1      93.988  85.273  88.239  1.00  0.00     0.157 A 
ATOM     10  C   UNL     1      95.598  85.564  86.436  1.00  0.00     0.056 A 
ATOM     11  C   UNL     1      93.232  84.419  87.412  1.00  0.00     0.050 A 
ATOM     12  C   UNL     1      93.649  84.154  86.093  1.00  0.00     0.009 A 
BRANCH   8  13
ATOM     13  O   UNL     1      95.956  86.623  88.577  1.00  0.00    -0.493 OA
ATOM     14  C   UNL     1      95.941  88.024  88.243  1.00  0.00     0.278 C 
ENDBRANCH   8  13
BRANCH   9  15
ATOM     15  O   UNL     1      93.553  85.533  89.499  1.00  0.00    -0.504 OA
ATOM     16  H   UNL     1      94.023  86.293  89.850  1.00  0.00     0.293 HD
ENDBRANCH   9  15
ENDBRANCH   6   7
ENDBRANCH   3   6
ENDBRANCH   1   2
BRANCH   1  17
ATOM     17  C   UNL     1      96.309  80.541  82.073  1.00  0.00     0.010 C 
BRANCH  17  18
ATOM     18  C   UNL     1      96.884  81.681  81.186  1.00  0.00     0.005 C 
BRANCH  18  19
ATOM     19  C   UNL     1      98.108  81.219  80.350  1.00  0.00     0.027 C 
BRANCH  19  20
ATOM     20  C   UNL     1      97.864  81.323  78.919  1.00  0.00    -0.031 C 
ATOM     21  C   UNL     1      96.828  81.988  78.375  1.00  0.00    -0.028 C 
BRANCH  21  22
ATOM     22  C   UNL     1      96.613  82.097  76.932  1.00  0.00     0.005 C 
ATOM     23  C   UNL     1      95.819  83.376  76.549  1.00  0.00     0.012 C 
ATOM     24  C   UNL     1      97.970  82.042  76.183  1.00  0.00     0.012 C 
ENDBRANCH  21  22
ENDBRANCH  19  20
ENDBRANCH  18  19
ENDBRANCH  17  18
ENDBRANCH   1  17
TORSDOF 10
ENDMDL
MODEL 7
REMARK VINA RESULT:    -5.628      1.999      3.174
REMARK INTER + INTRA:          -9.484
REMARK INTER:                  -8.727
REMARK INTRA:                  -0.757
REMARK UNBOUND:                -0.731
REMARK SMILES COc1cc(CNC(=O)CCCC/C=C/C(C)C)ccc1O
REMARK SMILES IDX 10 1 8 2 7 3 9 5 6 6 5 7 3 8 21 9 4 10 20 11 19 12 2 13 1 14
REMARK SMILES IDX 22 15 11 17 12 18 13 19 14 20 15 21 16 22 17 23 18 24
REMARK H PARENT 7 4 22 16
REMARK Flexibility Score: inf
ROOT
ATOM      1  C   UNL     1      93.925  96.471  75.622  1.00  0.00     0.100 C 
ENDROOT
BRANCH   1   2
ATOM      2  C   UNL     1      94.267  97.025  74.298  1.00  0.00     0.220 C 
ATOM      3  N   UNL     1      93.685  98.176  73.859  1.00  0.00    -0.352 N 
ATOM      4  H   UNL     1      93.009  98.581  74.492  1.00  0.00     0.163 HD
ATOM      5  O   UNL     1      95.120  96.420  73.605  1.00  0.00    -0.275 OA
BRANCH   3   6
ATOM      6  C   UNL     1      93.970  98.810  72.611  1.00  0.00     0.151 C 
BRANCH   6   7
ATOM      7  C   UNL     1      92.897  99.768  72.227  1.00  0.00    -0.025 A 
ATOM      8  C   UNL     1      90.773 100.234  71.074  1.00  0.00     0.160 A 
ATOM      9  C   UNL     1      90.834 101.576  71.502  1.00  0.00     0.157 A 
ATOM     10  C   UNL     1      91.805  99.344  71.438  1.00  0.00     0.056 A 
ATOM     11  C   UNL     1      91.927 102.018  72.273  1.00  0.00     0.050 A 
ATOM     12  C   UNL     1      92.947 101.119  72.642  1.00  0.00     0.009 A 
BRANCH   8  13
ATOM     13  O   UNL     1      89.745  99.815  70.268  1.00  0.00    -0.493 OA
ATOM     14  C   UNL     1      90.155  99.438  68.941  1.00  0.00     0.278 C 
ENDBRANCH   8  13
BRANCH   9  15
ATOM     15  O   UNL     1      89.850 102.455  71.180  1.00  0.00    -0.504 OA
ATOM     16  H   UNL     1      89.023 101.982  71.062  1.00  0.00     0.293 HD
ENDBRANCH   9  15
ENDBRANCH   6   7
ENDBRANCH   3   6
ENDBRANCH   1   2
BRANCH   1  17
ATOM     17  C   UNL     1      95.032  95.516  76.146  1.00  0.00     0.010 C 
BRANCH  17  18
ATOM     18  C   UNL     1      94.907  95.224  77.668  1.00  0.00     0.005 C 
BRANCH  18  19
ATOM     19  C   UNL     1      94.251  93.845  77.953  1.00  0.00     0.027 C 
BRANCH  19  20
ATOM     20  C   UNL     1      92.800  93.903  77.870  1.00  0.00    -0.031 C 
ATOM     21  C   UNL     1      92.080  93.396  76.852  1.00  0.00    -0.028 C 
BRANCH  21  22
ATOM     22  C   UNL     1      90.619  93.448  76.799  1.00  0.00     0.005 C 
ATOM     23  C   UNL     1      89.958  92.578  77.904  1.00  0.00     0.012 C 
ATOM     24  C   UNL     1      90.131  94.917  76.885  1.00  0.00     0.012 C 
ENDBRANCH  21  22
ENDBRANCH  19  20
ENDBRANCH  18  19
ENDBRANCH  17  18
ENDBRANCH   1  17
TORSDOF 10
ENDMDL
MODEL 8
REMARK VINA RESULT:    -5.620     27.941     30.775
REMARK INTER + INTRA:          -9.472
REMARK INTER:                  -8.853
REMARK INTRA:                  -0.618
REMARK UNBOUND:                -0.731
REMARK SMILES COc1cc(CNC(=O)CCCC/C=C/C(C)C)ccc1O
REMARK SMILES IDX 10 1 8 2 7 3 9 5 6 6 5 7 3 8 21 9 4 10 20 11 19 12 2 13 1 14
REMARK SMILES IDX 22 15 11 17 12 18 13 19 14 20 15 21 16 22 17 23 18 24
REMARK H PARENT 7 4 22 16
REMARK Flexibility Score: inf
ROOT
ATOM      1  C   UNL     1      84.329  67.108  71.743  1.00  0.00     0.100 C 
ENDROOT
BRANCH   1   2
ATOM      2  C   UNL     1      84.574  68.515  72.116  1.00  0.00     0.220 C 
ATOM      3  N   UNL     1      84.892  69.437  71.165  1.00  0.00    -0.352 N 
ATOM      4  H   UNL     1      84.964  69.073  70.225  1.00  0.00     0.163 HD
ATOM      5  O   UNL     1      84.458  68.836  73.323  1.00  0.00    -0.275 OA
BRANCH   3   6
ATOM      6  C   UNL     1      85.116  70.825  71.417  1.00  0.00     0.151 C 
BRANCH   6   7
ATOM      7  C   UNL     1      86.524  71.212  71.128  1.00  0.00    -0.025 A 
ATOM      8  C   UNL     1      88.270  71.837  69.509  1.00  0.00     0.160 A 
ATOM      9  C   UNL     1      89.199  71.971  70.562  1.00  0.00     0.157 A 
ATOM     10  C   UNL     1      86.944  71.457  69.801  1.00  0.00     0.056 A 
ATOM     11  C   UNL     1      88.800  71.711  71.888  1.00  0.00     0.050 A 
ATOM     12  C   UNL     1      87.470  71.344  72.171  1.00  0.00     0.009 A 
BRANCH   8  13
ATOM     13  O   UNL     1      88.671  72.025  68.210  1.00  0.00    -0.493 OA
ATOM     14  C   UNL     1      87.641  71.773  67.237  1.00  0.00     0.278 C 
ENDBRANCH   8  13
BRANCH   9  15
ATOM     15  O   UNL     1      90.481  72.348  70.316  1.00  0.00    -0.504 OA
ATOM     16  H   UNL     1      91.065  71.935  70.956  1.00  0.00     0.293 HD
ENDBRANCH   9  15
ENDBRANCH   6   7
ENDBRANCH   3   6
ENDBRANCH   1   2
BRANCH   1  17
ATOM     17  C   UNL     1      83.017  66.952  70.928  1.00  0.00     0.010 C 
BRANCH  17  18
ATOM     18  C   UNL     1      82.198  65.695  71.334  1.00  0.00     0.005 C 
BRANCH  18  19
ATOM     19  C   UNL     1      80.998  66.043  72.255  1.00  0.00     0.027 C 
BRANCH  19  20
ATOM     20  C   UNL     1      80.917  65.157  73.407  1.00  0.00    -0.031 C 
ATOM     21  C   UNL     1      80.261  65.453  74.544  1.00  0.00    -0.028 C 
BRANCH  21  22
ATOM     22  C   UNL     1      80.176  64.539  75.682  1.00  0.00     0.005 C 
ATOM     23  C   UNL     1      79.332  63.274  75.361  1.00  0.00     0.012 C 
ATOM     24  C   UNL     1      81.597  64.147  76.163  1.00  0.00     0.012 C 
ENDBRANCH  21  22
ENDBRANCH  19  20
ENDBRANCH  18  19
ENDBRANCH  17  18
ENDBRANCH   1  17
TORSDOF 10
ENDMDL
MODEL 9
REMARK VINA RESULT:    -5.601      3.788      8.555
REMARK INTER + INTRA:          -9.443
REMARK INTER:                  -8.367
REMARK INTRA:                  -1.076
REMARK UNBOUND:                -0.731
REMARK SMILES COc1cc(CNC(=O)CCCC/C=C/C(C)C)ccc1O
REMARK SMILES IDX 10 1 8 2 7 3 9 5 6 6 5 7 3 8 21 9 4 10 20 11 19 12 2 13 1 14
REMARK SMILES IDX 22 15 11 17 12 18 13 19 14 20 15 21 16 22 17 23 18 24
REMARK H PARENT 7 4 22 16
REMARK Flexibility Score: inf
ROOT
ATOM      1  C   UNL     1      96.561  96.753  72.978  1.00  0.00     0.100 C 
ENDROOT
BRANCH   1   2
ATOM      2  C   UNL     1      95.506  97.151  73.930  1.00  0.00     0.220 C 
ATOM      3  N   UNL     1      94.469  96.311  74.204  1.00  0.00    -0.352 N 
ATOM      4  H   UNL     1      94.481  95.438  73.694  1.00  0.00     0.163 HD
ATOM      5  O   UNL     1      95.606  98.269  74.492  1.00  0.00    -0.275 OA
BRANCH   3   6
ATOM      6  C   UNL     1      93.418  96.588  75.130  1.00  0.00     0.151 C 
BRANCH   6   7
ATOM      7  C   UNL     1      93.307  95.523  76.165  1.00  0.00    -0.025 A 
ATOM      8  C   UNL     1      94.370  93.817  77.586  1.00  0.00     0.160 A 
ATOM      9  C   UNL     1      93.116  93.504  78.150  1.00  0.00     0.157 A 
ATOM     10  C   UNL     1      94.454  94.821  76.599  1.00  0.00     0.056 A 
ATOM     11  C   UNL     1      91.961  94.182  77.713  1.00  0.00     0.050 A 
ATOM     12  C   UNL     1      92.056  95.191  76.735  1.00  0.00     0.009 A 
BRANCH   8  13
ATOM     13  O   UNL     1      95.487  93.114  77.960  1.00  0.00    -0.493 OA
ATOM     14  C   UNL     1      96.344  93.818  78.878  1.00  0.00     0.278 C 
ENDBRANCH   8  13
BRANCH   9  15
ATOM     15  O   UNL     1      93.003  92.552  79.112  1.00  0.00    -0.504 OA
ATOM     16  H   UNL     1      93.813  92.517  79.625  1.00  0.00     0.293 HD
ENDBRANCH   9  15
ENDBRANCH   6   7
ENDBRANCH   3   6
ENDBRANCH   1   2
BRANCH   1  17
ATOM     17  C   UNL     1      95.971  96.387  71.590  1.00  0.00     0.010 C 
BRANCH  17  18
ATOM     18  C   UNL     1      96.862  96.864  70.409  1.00  0.00     0.005 C 
BRANCH  18  19
ATOM     19  C   UNL     1      96.152  97.921  69.521  1.00  0.00     0.027 C 
BRANCH  19  20
ATOM     20  C   UNL     1      94.938  98.429  70.141  1.00  0.00    -0.031 C 
ATOM     21  C   UNL     1      94.694  99.732  70.370  1.00  0.00    -0.028 C 
BRANCH  21  22
ATOM     22  C   UNL     1      93.457 100.223  70.977  1.00  0.00     0.005 C 
ATOM     23  C   UNL     1      92.284 100.280  69.960  1.00  0.00     0.012 C 
ATOM     24  C   UNL     1      93.082  99.354  72.206  1.00  0.00     0.012 C 
ENDBRANCH  21  22
ENDBRANCH  19  20
ENDBRANCH  18  19
ENDBRANCH  17  18
ENDBRANCH   1  17
TORSDOF 10
ENDMDL
MODEL 10
REMARK VINA RESULT:    -5.537     29.952     33.362
REMARK INTER + INTRA:          -9.343
REMARK INTER:                  -7.168
REMARK INTRA:                  -2.175
REMARK UNBOUND:                -0.731
REMARK SMILES COc1cc(CNC(=O)CCCC/C=C/C(C)C)ccc1O
REMARK SMILES IDX 10 1 8 2 7 3 9 5 6 6 5 7 3 8 21 9 4 10 20 11 19 12 2 13 1 14
REMARK SMILES IDX 22 15 11 17 12 18 13 19 14 20 15 21 16 22 17 23 18 24
REMARK H PARENT 7 4 22 16
REMARK Flexibility Score: inf
ROOT
ATOM      1  C   UNL     1      79.673  64.577  76.360  1.00  0.00     0.100 C 
ENDROOT
BRANCH   1   2
ATOM      2  C   UNL     1      80.244  65.877  75.960  1.00  0.00     0.220 C 
ATOM      3  N   UNL     1      80.373  66.200  74.643  1.00  0.00    -0.352 N 
ATOM      4  H   UNL     1      80.074  65.483  73.997  1.00  0.00     0.163 HD
ATOM      5  O   UNL     1      80.583  66.679  76.865  1.00  0.00    -0.275 OA
BRANCH   3   6
ATOM      6  C   UNL     1      80.881  67.442  74.154  1.00  0.00     0.151 C 
BRANCH   6   7
ATOM      7  C   UNL     1      82.241  67.282  73.568  1.00  0.00    -0.025 A 
ATOM      8  C   UNL     1      84.551  68.090  73.301  1.00  0.00     0.160 A 
ATOM      9  C   UNL     1      84.843  66.984  72.477  1.00  0.00     0.157 A 
ATOM     10  C   UNL     1      83.254  68.230  73.837  1.00  0.00     0.056 A 
ATOM     11  C   UNL     1      83.838  66.041  72.185  1.00  0.00     0.050 A 
ATOM     12  C   UNL     1      82.549  66.183  72.734  1.00  0.00     0.009 A 
BRANCH   8  13
ATOM     13  O   UNL     1      85.508  69.045  73.535  1.00  0.00    -0.493 OA
ATOM     14  C   UNL     1      85.133  70.368  73.108  1.00  0.00     0.278 C 
ENDBRANCH   8  13
BRANCH   9  15
ATOM     15  O   UNL     1      86.086  66.812  71.956  1.00  0.00    -0.504 OA
ATOM     16  H   UNL     1      86.692  67.439  72.358  1.00  0.00     0.293 HD
ENDBRANCH   9  15
ENDBRANCH   6   7
ENDBRANCH   3   6
ENDBRANCH   1   2
BRANCH   1  17
ATOM     17  C   UNL     1      80.612  63.399  75.984  1.00  0.00     0.010 C 
BRANCH  17  18
ATOM     18  C   UNL     1      82.043  63.555  76.572  1.00  0.00     0.005 C 
BRANCH  18  19
ATOM     19  C   UNL     1      83.111  63.798  75.471  1.00  0.00     0.027 C 
BRANCH  19  20
ATOM     20  C   UNL     1      84.092  64.795  75.871  1.00  0.00    -0.031 C 
ATOM     21  C   UNL     1      83.849  65.786  76.749  1.00  0.00    -0.028 C 
BRANCH  21  22
ATOM     22  C   UNL     1      84.857  66.766  77.151  1.00  0.00     0.005 C 
ATOM     23  C   UNL     1      84.235  68.155  77.467  1.00  0.00     0.012 C 
ATOM     24  C   UNL     1      85.668  66.235  78.362  1.00  0.00     0.012 C 
ENDBRANCH  21  22
ENDBRANCH  19  20
ENDBRANCH  18  19
ENDBRANCH  17  18
ENDBRANCH   1  17
TORSDOF 10
ENDMDL
