MODEL 1
REMARK VINA RESULT:    -6.589      0.000      0.000
REMARK INTER + INTRA:         -11.428
REMARK INTER:                 -10.634
REMARK INTRA:                  -0.794
REMARK UNBOUND:                -0.794
REMARK SMILES CCCCCCCCC(=O)NCc1ccc(O)c(OC)c1
REMARK SMILES IDX 7 1 6 2 5 3 4 4 3 5 2 6 1 7 8 8 9 9 10 10 11 11 12 13 13 14
REMARK SMILES IDX 21 15 14 16 18 17 15 18 16 19 19 20 20 21 17 22
REMARK H PARENT 11 12 17 23
REMARK Flexibility Score: inf
ROOT
ATOM      1  C   UNL     1      91.769  95.795  76.887  1.00  0.00     0.010 C 
ENDROOT
BRANCH   1   2
ATOM      2  C   UNL     1      90.404  95.048  76.850  1.00  0.00     0.001 C 
BRANCH   2   3
ATOM      3  C   UNL     1      90.449  93.701  77.631  1.00  0.00     0.000 C 
BRANCH   3   4
ATOM      4  C   UNL     1      91.199  92.565  76.879  1.00  0.00    -0.000 C 
BRANCH   4   5
ATOM      5  C   UNL     1      90.286  91.806  75.875  1.00  0.00    -0.000 C 
BRANCH   5   6
ATOM      6  C   UNL     1      91.097  91.050  74.787  1.00  0.00    -0.003 C 
ATOM      7  C   UNL     1      90.250  90.698  73.544  1.00  0.00     0.004 C 
ENDBRANCH   5   6
ENDBRANCH   4   5
ENDBRANCH   3   4
ENDBRANCH   2   3
ENDBRANCH   1   2
BRANCH   1   8
ATOM      8  C   UNL     1      92.682  95.498  75.664  1.00  0.00     0.100 C 
BRANCH   8   9
ATOM      9  C   UNL     1      93.987  94.938  76.089  1.00  0.00     0.220 C 
ATOM     10  O   UNL     1      94.435  93.941  75.473  1.00  0.00    -0.275 OA
ATOM     11  N   UNL     1      94.692  95.514  77.106  1.00  0.00    -0.352 N 
ATOM     12  H   UNL     1      94.201  96.254  77.587  1.00  0.00     0.163 HD
BRANCH  11  13
ATOM     13  C   UNL     1      96.017  95.157  77.513  1.00  0.00     0.151 C 
BRANCH  13  14
ATOM     14  C   UNL     1      96.070  94.407  78.796  1.00  0.00    -0.025 A 
ATOM     15  C   UNL     1      97.107  94.659  79.726  1.00  0.00     0.056 A 
ATOM     16  C   UNL     1      95.095  93.432  79.109  1.00  0.00     0.009 A 
ATOM     17  C   UNL     1      97.161  93.967  80.957  1.00  0.00     0.160 A 
ATOM     18  C   UNL     1      95.142  92.741  80.333  1.00  0.00     0.050 A 
ATOM     19  C   UNL     1      96.175  92.998  81.255  1.00  0.00     0.157 A 
BRANCH  17  20
ATOM     20  O   UNL     1      98.190  94.182  81.839  1.00  0.00    -0.493 OA
ATOM     21  C   UNL     1      99.367  94.753  81.241  1.00  0.00     0.278 C 
ENDBRANCH  17  20
BRANCH  19  22
ATOM     22  O   UNL     1      96.228  92.306  82.421  1.00  0.00    -0.504 OA
ATOM     23  H   UNL     1      96.083  91.373  82.246  1.00  0.00     0.293 HD
ENDBRANCH  19  22
ENDBRANCH  13  14
ENDBRANCH  11  13
ENDBRANCH   8   9
ENDBRANCH   1   8
TORSDOF 11
ENDMDL
MODEL 2
REMARK VINA RESULT:    -6.007      1.952      2.976
REMARK INTER + INTRA:         -10.488
REMARK INTER:                  -9.287
REMARK INTRA:                  -1.201
REMARK UNBOUND:                -0.794
REMARK SMILES CCCCCCCCC(=O)NCc1ccc(O)c(OC)c1
REMARK SMILES IDX 7 1 6 2 5 3 4 4 3 5 2 6 1 7 8 8 9 9 10 10 11 11 12 13 13 14
REMARK SMILES IDX 21 15 14 16 18 17 15 18 16 19 19 20 20 21 17 22
REMARK H PARENT 11 12 17 23
REMARK Flexibility Score: inf
ROOT
ATOM      1  C   UNL     1      94.333  95.443  76.122  1.00  0.00     0.010 C 
ENDROOT
BRANCH   1   2
ATOM      2  C   UNL     1      92.913  95.877  75.659  1.00  0.00     0.001 C 
BRANCH   2   3
ATOM      3  C   UNL     1      91.964  96.161  76.860  1.00  0.00     0.000 C 
BRANCH   3   4
ATOM      4  C   UNL     1      90.841  95.100  77.036  1.00  0.00    -0.000 C 
BRANCH   4   5
ATOM      5  C   UNL     1      90.830  94.043  75.895  1.00  0.00    -0.000 C 
BRANCH   5   6
ATOM      6  C   UNL     1      90.803  92.587  76.432  1.00  0.00    -0.003 C 
ATOM      7  C   UNL     1      90.038  92.453  77.767  1.00  0.00     0.004 C 
ENDBRANCH   5   6
ENDBRANCH   4   5
ENDBRANCH   3   4
ENDBRANCH   2   3
ENDBRANCH   1   2
BRANCH   1   8
ATOM      8  C   UNL     1      94.476  93.914  76.363  1.00  0.00     0.100 C 
BRANCH   8   9
ATOM      9  C   UNL     1      94.659  93.610  77.803  1.00  0.00     0.220 C 
ATOM     10  O   UNL     1      93.653  93.277  78.474  1.00  0.00    -0.275 OA
ATOM     11  N   UNL     1      95.899  93.664  78.372  1.00  0.00    -0.352 N 
ATOM     12  H   UNL     1      96.621  94.026  77.766  1.00  0.00     0.163 HD
BRANCH  11  13
ATOM     13  C   UNL     1      96.226  93.260  79.705  1.00  0.00     0.151 C 
BRANCH  13  14
ATOM     14  C   UNL     1      96.564  94.390  80.610  1.00  0.00    -0.025 A 
ATOM     15  C   UNL     1      97.843  94.464  81.211  1.00  0.00     0.056 A 
ATOM     16  C   UNL     1      95.619  95.404  80.890  1.00  0.00     0.009 A 
ATOM     17  C   UNL     1      98.185  95.542  82.060  1.00  0.00     0.160 A 
ATOM     18  C   UNL     1      95.953  96.480  81.733  1.00  0.00     0.050 A 
ATOM     19  C   UNL     1      97.229  96.548  82.325  1.00  0.00     0.157 A 
BRANCH  17  20
ATOM     20  O   UNL     1      99.411  95.590  82.674  1.00  0.00    -0.493 OA
ATOM     21  C   UNL     1     100.493  95.961  81.802  1.00  0.00     0.278 C 
ENDBRANCH  17  20
BRANCH  19  22
ATOM     22  O   UNL     1      97.532  97.576  83.159  1.00  0.00    -0.504 OA
ATOM     23  H   UNL     1      97.544  97.259  84.065  1.00  0.00     0.293 HD
ENDBRANCH  19  22
ENDBRANCH  13  14
ENDBRANCH  11  13
ENDBRANCH   8   9
ENDBRANCH   1   8
TORSDOF 11
ENDMDL
MODEL 3
REMARK VINA RESULT:    -5.711     11.836     13.823
REMARK INTER + INTRA:         -10.010
REMARK INTER:                  -9.479
REMARK INTRA:                  -0.532
REMARK UNBOUND:                -0.794
REMARK SMILES CCCCCCCCC(=O)NCc1ccc(O)c(OC)c1
REMARK SMILES IDX 7 1 6 2 5 3 4 4 3 5 2 6 1 7 8 8 9 9 10 10 11 11 12 13 13 14
REMARK SMILES IDX 21 15 14 16 18 17 15 18 16 19 19 20 20 21 17 22
REMARK H PARENT 11 12 17 23
REMARK Flexibility Score: inf
ROOT
ATOM      1  C   UNL     1      96.199  81.964  83.990  1.00  0.00     0.010 C 
ENDROOT
BRANCH   1   2
ATOM      2  C   UNL     1      94.710  82.178  84.386  1.00  0.00     0.001 C 
BRANCH   2   3
ATOM      3  C   UNL     1      93.968  80.833  84.637  1.00  0.00     0.000 C 
BRANCH   3   4
ATOM      4  C   UNL     1      92.699  80.973  85.524  1.00  0.00    -0.000 C 
BRANCH   4   5
ATOM      5  C   UNL     1      91.437  80.341  84.871  1.00  0.00    -0.000 C 
BRANCH   5   6
ATOM      6  C   UNL     1      90.463  81.407  84.302  1.00  0.00    -0.003 C 
ATOM      7  C   UNL     1      89.023  81.254  84.840  1.00  0.00     0.004 C 
ENDBRANCH   5   6
ENDBRANCH   4   5
ENDBRANCH   3   4
ENDBRANCH   2   3
ENDBRANCH   1   2
BRANCH   1   8
ATOM      8  C   UNL     1      96.610  82.682  82.674  1.00  0.00     0.100 C 
BRANCH   8   9
ATOM      9  C   UNL     1      96.911  81.708  81.598  1.00  0.00     0.220 C 
ATOM     10  O   UNL     1      96.477  80.537  81.717  1.00  0.00    -0.275 OA
ATOM     11  N   UNL     1      97.620  82.089  80.495  1.00  0.00    -0.352 N 
ATOM     12  H   UNL     1      97.994  83.026  80.542  1.00  0.00     0.163 HD
BRANCH  11  13
ATOM     13  C   UNL     1      97.852  81.287  79.333  1.00  0.00     0.151 C 
BRANCH  13  14
ATOM     14  C   UNL     1      97.371  81.907  78.069  1.00  0.00    -0.025 A 
ATOM     15  C   UNL     1      98.205  81.931  76.925  1.00  0.00     0.056 A 
ATOM     16  C   UNL     1      96.082  82.482  77.986  1.00  0.00     0.009 A 
ATOM     17  C   UNL     1      97.755  82.501  75.712  1.00  0.00     0.160 A 
ATOM     18  C   UNL     1      95.629  83.049  76.782  1.00  0.00     0.050 A 
ATOM     19  C   UNL     1      96.462  83.068  75.647  1.00  0.00     0.157 A 
BRANCH  17  20
ATOM     20  O   UNL     1      98.580  82.562  74.617  1.00  0.00    -0.493 OA
ATOM     21  C   UNL     1      99.617  81.565  74.605  1.00  0.00     0.278 C 
ENDBRANCH  17  20
BRANCH  19  22
ATOM     22  O   UNL     1      96.025  83.642  74.497  1.00  0.00    -0.504 OA
ATOM     23  H   UNL     1      96.708  83.574  73.826  1.00  0.00     0.293 HD
ENDBRANCH  19  22
ENDBRANCH  13  14
ENDBRANCH  11  13
ENDBRANCH   8   9
ENDBRANCH   1   8
TORSDOF 11
ENDMDL
MODEL 4
REMARK VINA RESULT:    -5.516     10.078     12.900
REMARK INTER + INTRA:          -9.696
REMARK INTER:                  -8.626
REMARK INTRA:                  -1.070
REMARK UNBOUND:                -0.794
REMARK SMILES CCCCCCCCC(=O)NCc1ccc(O)c(OC)c1
REMARK SMILES IDX 7 1 6 2 5 3 4 4 3 5 2 6 1 7 8 8 9 9 10 10 11 11 12 13 13 14
REMARK SMILES IDX 21 15 14 16 18 17 15 18 16 19 19 20 20 21 17 22
REMARK H PARENT 11 12 17 23
REMARK Flexibility Score: inf
ROOT
ATOM      1  C   UNL     1      88.328 100.082  66.935  1.00  0.00     0.010 C 
ENDROOT
BRANCH   1   2
ATOM      2  C   UNL     1      86.917 100.293  66.315  1.00  0.00     0.001 C 
BRANCH   2   3
ATOM      3  C   UNL     1      86.546 101.801  66.195  1.00  0.00     0.000 C 
BRANCH   3   4
ATOM      4  C   UNL     1      87.774 102.754  66.246  1.00  0.00    -0.000 C 
BRANCH   4   5
ATOM      5  C   UNL     1      87.617 103.878  67.309  1.00  0.00    -0.000 C 
BRANCH   5   6
ATOM      6  C   UNL     1      88.797 103.914  68.317  1.00  0.00    -0.003 C 
ATOM      7  C   UNL     1      88.851 105.225  69.132  1.00  0.00     0.004 C 
ENDBRANCH   5   6
ENDBRANCH   4   5
ENDBRANCH   3   4
ENDBRANCH   2   3
ENDBRANCH   1   2
BRANCH   1   8
ATOM      8  C   UNL     1      88.880  98.639  66.766  1.00  0.00     0.100 C 
BRANCH   8   9
ATOM      9  C   UNL     1      89.530  98.160  68.010  1.00  0.00     0.220 C 
ATOM     10  O   UNL     1      90.380  97.242  67.922  1.00  0.00    -0.275 OA
ATOM     11  N   UNL     1      89.227  98.728  69.214  1.00  0.00    -0.352 N 
ATOM     12  H   UNL     1      88.469  99.394  69.182  1.00  0.00     0.163 HD
BRANCH  11  13
ATOM     13  C   UNL     1      89.882  98.453  70.456  1.00  0.00     0.151 C 
BRANCH  13  14
ATOM     14  C   UNL     1      90.604  99.622  71.026  1.00  0.00    -0.025 A 
ATOM     15  C   UNL     1      89.959 100.878  71.127  1.00  0.00     0.056 A 
ATOM     16  C   UNL     1      91.941  99.504  71.470  1.00  0.00     0.009 A 
ATOM     17  C   UNL     1      90.627 101.994  71.682  1.00  0.00     0.160 A 
ATOM     18  C   UNL     1      92.611 100.610  72.024  1.00  0.00     0.050 A 
ATOM     19  C   UNL     1      91.962 101.856  72.125  1.00  0.00     0.157 A 
BRANCH  17  20
ATOM     20  O   UNL     1      90.014 103.220  71.740  1.00  0.00    -0.493 OA
ATOM     21  C   UNL     1      89.092 103.366  72.835  1.00  0.00     0.278 C 
ENDBRANCH  17  20
BRANCH  19  22
ATOM     22  O   UNL     1      92.626 102.924  72.636  1.00  0.00    -0.504 OA
ATOM     23  H   UNL     1      93.542 102.685  72.793  1.00  0.00     0.293 HD
ENDBRANCH  19  22
ENDBRANCH  13  14
ENDBRANCH  11  13
ENDBRANCH   8   9
ENDBRANCH   1   8
TORSDOF 11
ENDMDL
MODEL 5
REMARK VINA RESULT:    -5.512      9.731     12.463
REMARK INTER + INTRA:          -9.689
REMARK INTER:                  -8.536
REMARK INTRA:                  -1.154
REMARK UNBOUND:                -0.794
REMARK SMILES CCCCCCCCC(=O)NCc1ccc(O)c(OC)c1
REMARK SMILES IDX 7 1 6 2 5 3 4 4 3 5 2 6 1 7 8 8 9 9 10 10 11 11 12 13 13 14
REMARK SMILES IDX 21 15 14 16 18 17 15 18 16 19 19 20 20 21 17 22
REMARK H PARENT 11 12 17 23
REMARK Flexibility Score: inf
ROOT
ATOM      1  C   UNL     1      88.431  99.994  66.809  1.00  0.00     0.010 C 
ENDROOT
BRANCH   1   2
ATOM      2  C   UNL     1      86.993 100.215  66.259  1.00  0.00     0.001 C 
BRANCH   2   3
ATOM      3  C   UNL     1      86.623 101.725  66.167  1.00  0.00     0.000 C 
BRANCH   3   4
ATOM      4  C   UNL     1      87.856 102.672  66.142  1.00  0.00    -0.000 C 
BRANCH   4   5
ATOM      5  C   UNL     1      87.868 103.672  67.333  1.00  0.00    -0.000 C 
BRANCH   5   6
ATOM      6  C   UNL     1      89.167 103.575  68.179  1.00  0.00    -0.003 C 
ATOM      7  C   UNL     1      89.266 104.679  69.255  1.00  0.00     0.004 C 
ENDBRANCH   5   6
ENDBRANCH   4   5
ENDBRANCH   3   4
ENDBRANCH   2   3
ENDBRANCH   1   2
BRANCH   1   8
ATOM      8  C   UNL     1      88.921  98.522  66.717  1.00  0.00     0.100 C 
BRANCH   8   9
ATOM      9  C   UNL     1      89.521  98.071  67.996  1.00  0.00     0.220 C 
ATOM     10  O   UNL     1      90.318  97.103  67.971  1.00  0.00    -0.275 OA
ATOM     11  N   UNL     1      89.232  98.718  69.164  1.00  0.00    -0.352 N 
ATOM     12  H   UNL     1      88.516  99.425  69.083  1.00  0.00     0.163 HD
BRANCH  11  13
ATOM     13  C   UNL     1      89.851  98.471  70.430  1.00  0.00     0.151 C 
BRANCH  13  14
ATOM     14  C   UNL     1      90.560  99.651  70.993  1.00  0.00    -0.025 A 
ATOM     15  C   UNL     1      91.903  99.535  71.426  1.00  0.00     0.056 A 
ATOM     16  C   UNL     1      89.911 100.902  71.110  1.00  0.00     0.009 A 
ATOM     17  C   UNL     1      92.596 100.652  71.946  1.00  0.00     0.160 A 
ATOM     18  C   UNL     1      90.595 102.017  71.626  1.00  0.00     0.050 A 
ATOM     19  C   UNL     1      91.932 101.895  72.052  1.00  0.00     0.157 A 
BRANCH  17  20
ATOM     20  O   UNL     1      93.884 100.528  72.404  1.00  0.00    -0.493 OA
ATOM     21  C   UNL     1      94.879 100.516  71.366  1.00  0.00     0.278 C 
ENDBRANCH  17  20
BRANCH  19  22
ATOM     22  O   UNL     1      92.575 102.971  72.574  1.00  0.00    -0.504 OA
ATOM     23  H   UNL     1      93.139 103.364  71.903  1.00  0.00     0.293 HD
ENDBRANCH  19  22
ENDBRANCH  13  14
ENDBRANCH  11  13
ENDBRANCH   8   9
ENDBRANCH   1   8
TORSDOF 11
ENDMDL
MODEL 6
REMARK VINA RESULT:    -5.393      3.478      6.755
REMARK INTER + INTRA:          -9.498
REMARK INTER:                  -8.416
REMARK INTRA:                  -1.082
REMARK UNBOUND:                -0.794
REMARK SMILES CCCCCCCCC(=O)NCc1ccc(O)c(OC)c1
REMARK SMILES IDX 7 1 6 2 5 3 4 4 3 5 2 6 1 7 8 8 9 9 10 10 11 11 12 13 13 14
REMARK SMILES IDX 21 15 14 16 18 17 15 18 16 19 19 20 20 21 17 22
REMARK H PARENT 11 12 17 23
REMARK Flexibility Score: inf
ROOT
ATOM      1  C   UNL     1      96.578  93.913  79.144  1.00  0.00     0.010 C 
ENDROOT
BRANCH   1   2
ATOM      2  C   UNL     1      95.463  93.232  78.299  1.00  0.00     0.001 C 
BRANCH   2   3
ATOM      3  C   UNL     1      94.146  93.039  79.107  1.00  0.00     0.000 C 
BRANCH   3   4
ATOM      4  C   UNL     1      92.874  93.531  78.359  1.00  0.00    -0.000 C 
BRANCH   4   5
ATOM      5  C   UNL     1      93.184  94.636  77.309  1.00  0.00    -0.000 C 
BRANCH   5   6
ATOM      6  C   UNL     1      92.016  95.645  77.143  1.00  0.00    -0.003 C 
ATOM      7  C   UNL     1      90.671  94.957  76.823  1.00  0.00     0.004 C 
ENDBRANCH   5   6
ENDBRANCH   4   5
ENDBRANCH   3   4
ENDBRANCH   2   3
ENDBRANCH   1   2
BRANCH   1   8
ATOM      8  C   UNL     1      96.221  95.351  79.613  1.00  0.00     0.100 C 
BRANCH   8   9
ATOM      9  C   UNL     1      96.659  96.366  78.624  1.00  0.00     0.220 C 
ATOM     10  O   UNL     1      97.162  97.433  79.049  1.00  0.00    -0.275 OA
ATOM     11  N   UNL     1      96.542  96.125  77.285  1.00  0.00    -0.352 N 
ATOM     12  H   UNL     1      96.047  95.276  77.055  1.00  0.00     0.163 HD
BRANCH  11  13
ATOM     13  C   UNL     1      97.053  96.957  76.239  1.00  0.00     0.151 C 
BRANCH  13  14
ATOM     14  C   UNL     1      96.006  97.486  75.325  1.00  0.00    -0.025 A 
ATOM     15  C   UNL     1      96.151  98.767  74.740  1.00  0.00     0.056 A 
ATOM     16  C   UNL     1      94.850  96.727  75.028  1.00  0.00     0.009 A 
ATOM     17  C   UNL     1      95.172  99.276  73.857  1.00  0.00     0.160 A 
ATOM     18  C   UNL     1      93.873  97.227  74.148  1.00  0.00     0.050 A 
ATOM     19  C   UNL     1      94.025  98.501  73.568  1.00  0.00     0.157 A 
BRANCH  17  20
ATOM     20  O   UNL     1      95.294 100.534  73.324  1.00  0.00    -0.493 OA
ATOM     21  C   UNL     1      95.029 101.596  74.257  1.00  0.00     0.278 C 
ENDBRANCH  17  20
BRANCH  19  22
ATOM     22  O   UNL     1      93.063  98.986  72.742  1.00  0.00    -0.504 OA
ATOM     23  H   UNL     1      92.219  98.986  73.200  1.00  0.00     0.293 HD
ENDBRANCH  19  22
ENDBRANCH  13  14
ENDBRANCH  11  13
ENDBRANCH   8   9
ENDBRANCH   1   8
TORSDOF 11
ENDMDL
MODEL 7
REMARK VINA RESULT:    -5.334     12.203     14.500
REMARK INTER + INTRA:          -9.402
REMARK INTER:                  -8.520
REMARK INTRA:                  -0.882
REMARK UNBOUND:                -0.794
REMARK SMILES CCCCCCCCC(=O)NCc1ccc(O)c(OC)c1
REMARK SMILES IDX 7 1 6 2 5 3 4 4 3 5 2 6 1 7 8 8 9 9 10 10 11 11 12 13 13 14
REMARK SMILES IDX 21 15 14 16 18 17 15 18 16 19 19 20 20 21 17 22
REMARK H PARENT 11 12 17 23
REMARK Flexibility Score: inf
ROOT
ATOM      1  C   UNL     1      96.298  81.910  83.893  1.00  0.00     0.010 C 
ENDROOT
BRANCH   1   2
ATOM      2  C   UNL     1      94.786  81.852  84.257  1.00  0.00     0.001 C 
BRANCH   2   3
ATOM      3  C   UNL     1      94.318  80.407  84.600  1.00  0.00     0.000 C 
BRANCH   3   4
ATOM      4  C   UNL     1      95.361  79.586  85.410  1.00  0.00    -0.000 C 
BRANCH   4   5
ATOM      5  C   UNL     1      95.945  78.394  84.600  1.00  0.00    -0.000 C 
BRANCH   5   6
ATOM      6  C   UNL     1      97.414  78.073  84.988  1.00  0.00    -0.003 C 
ATOM      7  C   UNL     1      98.144  79.278  85.621  1.00  0.00     0.004 C 
ENDBRANCH   5   6
ENDBRANCH   4   5
ENDBRANCH   3   4
ENDBRANCH   2   3
ENDBRANCH   1   2
BRANCH   1   8
ATOM      8  C   UNL     1      96.595  82.643  82.555  1.00  0.00     0.100 C 
BRANCH   8   9
ATOM      9  C   UNL     1      97.013  81.690  81.499  1.00  0.00     0.220 C 
ATOM     10  O   UNL     1      96.677  80.488  81.615  1.00  0.00    -0.275 OA
ATOM     11  N   UNL     1      97.722  82.123  80.414  1.00  0.00    -0.352 N 
ATOM     12  H   UNL     1      98.013  83.088  80.464  1.00  0.00     0.163 HD
BRANCH  11  13
ATOM     13  C   UNL     1      98.060  81.336  79.268  1.00  0.00     0.151 C 
BRANCH  13  14
ATOM     14  C   UNL     1      97.505  81.863  77.993  1.00  0.00    -0.025 A 
ATOM     15  C   UNL     1      98.247  81.750  76.793  1.00  0.00     0.056 A 
ATOM     16  C   UNL     1      96.236  82.485  77.954  1.00  0.00     0.009 A 
ATOM     17  C   UNL     1      97.725  82.230  75.569  1.00  0.00     0.160 A 
ATOM     18  C   UNL     1      95.711  82.964  76.741  1.00  0.00     0.050 A 
ATOM     19  C   UNL     1      96.453  82.846  75.550  1.00  0.00     0.157 A 
BRANCH  17  20
ATOM     20  O   UNL     1      98.463  82.157  74.415  1.00  0.00    -0.493 OA
ATOM     21  C   UNL     1      99.731  82.833  74.484  1.00  0.00     0.278 C 
ENDBRANCH  17  20
BRANCH  19  22
ATOM     22  O   UNL     1      95.949  83.336  74.388  1.00  0.00    -0.504 OA
ATOM     23  H   UNL     1      95.343  84.055  74.581  1.00  0.00     0.293 HD
ENDBRANCH  19  22
ENDBRANCH  13  14
ENDBRANCH  11  13
ENDBRANCH   8   9
ENDBRANCH   1   8
TORSDOF 11
ENDMDL
MODEL 8
REMARK VINA RESULT:    -5.326     21.281     24.503
REMARK INTER + INTRA:          -9.389
REMARK INTER:                  -8.578
REMARK INTRA:                  -0.810
REMARK UNBOUND:                -0.794
REMARK SMILES CCCCCCCCC(=O)NCc1ccc(O)c(OC)c1
REMARK SMILES IDX 7 1 6 2 5 3 4 4 3 5 2 6 1 7 8 8 9 9 10 10 11 11 12 13 13 14
REMARK SMILES IDX 21 15 14 16 18 17 15 18 16 19 19 20 20 21 17 22
REMARK H PARENT 11 12 17 23
REMARK Flexibility Score: inf
ROOT
ATOM      1  C   UNL     1      76.044  82.031  64.820  1.00  0.00     0.010 C 
ENDROOT
BRANCH   1   2
ATOM      2  C   UNL     1      75.170  81.533  63.633  1.00  0.00     0.001 C 
BRANCH   2   3
ATOM      3  C   UNL     1      73.881  82.387  63.451  1.00  0.00     0.000 C 
BRANCH   3   4
ATOM      4  C   UNL     1      72.592  81.542  63.250  1.00  0.00    -0.000 C 
BRANCH   4   5
ATOM      5  C   UNL     1      72.055  80.942  64.581  1.00  0.00    -0.000 C 
BRANCH   5   6
ATOM      6  C   UNL     1      71.291  81.985  65.440  1.00  0.00    -0.003 C 
ATOM      7  C   UNL     1      69.914  82.358  64.848  1.00  0.00     0.004 C 
ENDBRANCH   5   6
ENDBRANCH   4   5
ENDBRANCH   3   4
ENDBRANCH   2   3
ENDBRANCH   1   2
BRANCH   1   8
ATOM      8  C   UNL     1      75.301  82.994  65.788  1.00  0.00     0.100 C 
BRANCH   8   9
ATOM      9  C   UNL     1      76.253  83.737  66.647  1.00  0.00     0.220 C 
ATOM     10  O   UNL     1      77.482  83.572  66.454  1.00  0.00    -0.275 OA
ATOM     11  N   UNL     1      75.798  84.599  67.604  1.00  0.00    -0.352 N 
ATOM     12  H   UNL     1      74.797  84.589  67.732  1.00  0.00     0.163 HD
BRANCH  11  13
ATOM     13  C   UNL     1      76.609  85.473  68.395  1.00  0.00     0.151 C 
BRANCH  13  14
ATOM     14  C   UNL     1      76.395  86.916  68.107  1.00  0.00    -0.025 A 
ATOM     15  C   UNL     1      75.133  87.511  68.348  1.00  0.00     0.056 A 
ATOM     16  C   UNL     1      77.439  87.717  67.588  1.00  0.00     0.009 A 
ATOM     17  C   UNL     1      74.920  88.886  68.095  1.00  0.00     0.160 A 
ATOM     18  C   UNL     1      77.233  89.085  67.336  1.00  0.00     0.050 A 
ATOM     19  C   UNL     1      75.976  89.670  67.580  1.00  0.00     0.157 A 
BRANCH  17  20
ATOM     20  O   UNL     1      73.684  89.450  68.289  1.00  0.00    -0.493 OA
ATOM     21  C   UNL     1      73.159  89.277  69.617  1.00  0.00     0.278 C 
ENDBRANCH  17  20
BRANCH  19  22
ATOM     22  O   UNL     1      75.779  90.986  67.308  1.00  0.00    -0.504 OA
ATOM     23  H   UNL     1      74.972  91.284  67.734  1.00  0.00     0.293 HD
ENDBRANCH  19  22
ENDBRANCH  13  14
ENDBRANCH  11  13
ENDBRANCH   8   9
ENDBRANCH   1   8
TORSDOF 11
ENDMDL
MODEL 9
REMARK VINA RESULT:    -5.236     21.627     24.462
REMARK INTER + INTRA:          -9.243
REMARK INTER:                  -8.251
REMARK INTRA:                  -0.992
REMARK UNBOUND:                -0.794
REMARK SMILES CCCCCCCCC(=O)NCc1ccc(O)c(OC)c1
REMARK SMILES IDX 7 1 6 2 5 3 4 4 3 5 2 6 1 7 8 8 9 9 10 10 11 11 12 13 13 14
REMARK SMILES IDX 21 15 14 16 18 17 15 18 16 19 19 20 20 21 17 22
REMARK H PARENT 11 12 17 23
REMARK Flexibility Score: inf
ROOT
ATOM      1  C   UNL     1      76.252  84.212  64.881  1.00  0.00     0.010 C 
ENDROOT
BRANCH   1   2
ATOM      2  C   UNL     1      75.562  82.978  64.231  1.00  0.00     0.001 C 
BRANCH   2   3
ATOM      3  C   UNL     1      75.572  81.736  65.170  1.00  0.00     0.000 C 
BRANCH   3   4
ATOM      4  C   UNL     1      74.176  81.383  65.758  1.00  0.00    -0.000 C 
BRANCH   4   5
ATOM      5  C   UNL     1      73.057  81.368  64.678  1.00  0.00    -0.000 C 
BRANCH   5   6
ATOM      6  C   UNL     1      72.005  82.489  64.894  1.00  0.00    -0.003 C 
ATOM      7  C   UNL     1      70.680  81.963  65.488  1.00  0.00     0.004 C 
ENDBRANCH   5   6
ENDBRANCH   4   5
ENDBRANCH   3   4
ENDBRANCH   2   3
ENDBRANCH   1   2
BRANCH   1   8
ATOM      8  C   UNL     1      77.311  83.847  65.958  1.00  0.00     0.100 C 
BRANCH   8   9
ATOM      9  C   UNL     1      77.049  84.554  67.235  1.00  0.00     0.220 C 
ATOM     10  O   UNL     1      77.870  85.424  67.612  1.00  0.00    -0.275 OA
ATOM     11  N   UNL     1      75.926  84.281  67.961  1.00  0.00    -0.352 N 
ATOM     12  H   UNL     1      75.381  83.507  67.613  1.00  0.00     0.163 HD
BRANCH  11  13
ATOM     13  C   UNL     1      75.492  84.990  69.127  1.00  0.00     0.151 C 
BRANCH  13  14
ATOM     14  C   UNL     1      74.593  86.137  68.833  1.00  0.00    -0.025 A 
ATOM     15  C   UNL     1      75.133  87.424  68.600  1.00  0.00     0.056 A 
ATOM     16  C   UNL     1      73.190  85.967  68.784  1.00  0.00     0.009 A 
ATOM     17  C   UNL     1      74.292  88.521  68.302  1.00  0.00     0.160 A 
ATOM     18  C   UNL     1      72.348  87.054  68.488  1.00  0.00     0.050 A 
ATOM     19  C   UNL     1      72.892  88.331  68.254  1.00  0.00     0.157 A 
BRANCH  17  20
ATOM     20  O   UNL     1      74.815  89.776  68.118  1.00  0.00    -0.493 OA
ATOM     21  C   UNL     1      75.179  90.447  69.338  1.00  0.00     0.278 C 
ENDBRANCH  17  20
BRANCH  19  22
ATOM     22  O   UNL     1      72.069  89.379  67.996  1.00  0.00    -0.504 OA
ATOM     23  H   UNL     1      72.577  90.096  67.607  1.00  0.00     0.293 HD
ENDBRANCH  19  22
ENDBRANCH  13  14
ENDBRANCH  11  13
ENDBRANCH   8   9
ENDBRANCH   1   8
TORSDOF 11
ENDMDL
