MODEL 1
REMARK VINA RESULT:    -7.142      0.000      0.000
REMARK INTER + INTRA:         -12.677
REMARK INTER:                 -11.109
REMARK INTRA:                  -1.569
REMARK UNBOUND:                -1.569
REMARK SMILES CCCCC/C=C/C(=O)CCc1ccc(O)c(OC)c1
REMARK SMILES IDX 6 1 7 2 8 3 9 4 10 5 11 6 12 7 17 8 20 9 15 10 14 11 13 12
REMARK SMILES IDX 18 13 19 14 16 15 5 17 4 18 3 19 2 20 1 21
REMARK H PARENT 16 16
REMARK Flexibility Score: inf
ROOT
ATOM      1  C   UNL     1      92.083  92.181  74.424  1.00  0.00    -0.023 C 
ATOM      2  C   UNL     1      91.335  92.716  73.451  1.00  0.00     0.043 C 
ENDROOT
BRANCH   2   3
ATOM      3  C   UNL     1      90.422  91.850  72.656  1.00  0.00     0.155 C 
ATOM      4  O   UNL     1      90.772  91.344  71.591  1.00  0.00    -0.295 OA
BRANCH   3   5
ATOM      5  C   UNL     1      89.020  91.665  73.201  1.00  0.00     0.085 C 
BRANCH   5   6
ATOM      6  C   UNL     1      88.647  90.184  73.286  1.00  0.00     0.044 C 
BRANCH   6   7
ATOM      7  C   UNL     1      89.428  89.442  74.344  1.00  0.00    -0.044 A 
ATOM      8  C   UNL     1      90.074  89.173  76.640  1.00  0.00     0.160 A 
ATOM      9  C   UNL     1      89.352  89.860  75.663  1.00  0.00     0.054 A 
ATOM     10  C   UNL     1      90.862  88.079  76.285  1.00  0.00     0.157 A 
ATOM     11  C   UNL     1      90.929  87.671  74.952  1.00  0.00     0.050 A 
ATOM     12  C   UNL     1      90.208  88.357  73.975  1.00  0.00     0.008 A 
BRANCH   8  13
ATOM     13  O   UNL     1      90.000  89.582  77.937  1.00  0.00    -0.493 OA
ATOM     14  C   UNL     1      89.324  88.720  78.851  1.00  0.00     0.278 C 
ENDBRANCH   8  13
BRANCH  10  15
ATOM     15  O   UNL     1      91.571  87.401  77.230  1.00  0.00    -0.504 OA
ATOM     16  H   UNL     1      91.661  86.477  76.939  1.00  0.00     0.293 HD
ENDBRANCH  10  15
ENDBRANCH   6   7
ENDBRANCH   5   6
ENDBRANCH   3   5
ENDBRANCH   2   3
BRANCH   1  17
ATOM     17  C   UNL     1      93.027  92.986  75.269  1.00  0.00     0.027 C 
BRANCH  17  18
ATOM     18  C   UNL     1      92.344  93.644  76.473  1.00  0.00     0.004 C 
BRANCH  18  19
ATOM     19  C   UNL     1      91.357  92.724  77.198  1.00  0.00     0.000 C 
BRANCH  19  20
ATOM     20  C   UNL     1      89.925  93.245  77.076  1.00  0.00    -0.003 C 
ATOM     21  C   UNL     1      89.869  94.540  76.281  1.00  0.00     0.004 C 
ENDBRANCH  19  20
ENDBRANCH  18  19
ENDBRANCH  17  18
ENDBRANCH   1  17
TORSDOF 10
ENDMDL
MODEL 2
REMARK VINA RESULT:    -6.358      1.549      2.381
REMARK INTER + INTRA:         -11.458
REMARK INTER:                 -10.462
REMARK INTRA:                  -0.996
REMARK UNBOUND:                -1.569
REMARK SMILES CCCCC/C=C/C(=O)CCc1ccc(O)c(OC)c1
REMARK SMILES IDX 6 1 7 2 8 3 9 4 10 5 11 6 12 7 17 8 20 9 15 10 14 11 13 12
REMARK SMILES IDX 18 13 19 14 16 15 5 17 4 18 3 19 2 20 1 21
REMARK H PARENT 16 16
REMARK Flexibility Score: inf
ROOT
ATOM      1  C   UNL     1      91.906  93.279  75.446  1.00  0.00    -0.023 C 
ATOM      2  C   UNL     1      91.621  93.414  74.145  1.00  0.00     0.043 C 
ENDROOT
BRANCH   2   3
ATOM      3  C   UNL     1      91.057  92.265  73.386  1.00  0.00     0.155 C 
ATOM      4  O   UNL     1      91.754  91.570  72.649  1.00  0.00    -0.295 OA
BRANCH   3   5
ATOM      5  C   UNL     1      89.567  92.026  73.528  1.00  0.00     0.085 C 
BRANCH   5   6
ATOM      6  C   UNL     1      89.225  90.542  73.382  1.00  0.00     0.044 C 
BRANCH   6   7
ATOM      7  C   UNL     1      89.713  89.710  74.544  1.00  0.00    -0.044 A 
ATOM      8  C   UNL     1      90.019  89.426  76.907  1.00  0.00     0.160 A 
ATOM      9  C   UNL     1      89.569  90.196  75.834  1.00  0.00     0.054 A 
ATOM     10  C   UNL     1      90.607  88.183  76.677  1.00  0.00     0.157 A 
ATOM     11  C   UNL     1      90.746  87.709  75.372  1.00  0.00     0.050 A 
ATOM     12  C   UNL     1      90.296  88.478  74.299  1.00  0.00     0.008 A 
BRANCH   8  13
ATOM     13  O   UNL     1      89.879  89.901  78.177  1.00  0.00    -0.493 OA
ATOM     14  C   UNL     1      90.306  91.240  78.419  1.00  0.00     0.278 C 
ENDBRANCH   8  13
BRANCH  10  15
ATOM     15  O   UNL     1      91.051  87.423  77.717  1.00  0.00    -0.504 OA
ATOM     16  H   UNL     1      90.331  86.827  77.988  1.00  0.00     0.293 HD
ENDBRANCH  10  15
ENDBRANCH   6   7
ENDBRANCH   5   6
ENDBRANCH   3   5
ENDBRANCH   2   3
BRANCH   1  17
ATOM     17  C   UNL     1      92.476  94.389  76.281  1.00  0.00     0.027 C 
BRANCH  17  18
ATOM     18  C   UNL     1      93.126  93.894  77.577  1.00  0.00     0.004 C 
BRANCH  18  19
ATOM     19  C   UNL     1      94.598  94.294  77.717  1.00  0.00     0.000 C 
BRANCH  19  20
ATOM     20  C   UNL     1      95.362  94.052  76.414  1.00  0.00    -0.003 C 
ATOM     21  C   UNL     1      96.757  94.654  76.466  1.00  0.00     0.004 C 
ENDBRANCH  19  20
ENDBRANCH  18  19
ENDBRANCH  17  18
ENDBRANCH   1  17
TORSDOF 10
ENDMDL
MODEL 3
REMARK VINA RESULT:    -5.932      5.386      8.151
REMARK INTER + INTRA:         -10.795
REMARK INTER:                  -9.732
REMARK INTRA:                  -1.063
REMARK UNBOUND:                -1.569
REMARK SMILES CCCCC/C=C/C(=O)CCc1ccc(O)c(OC)c1
REMARK SMILES IDX 6 1 7 2 8 3 9 4 10 5 11 6 12 7 17 8 20 9 15 10 14 11 13 12
REMARK SMILES IDX 18 13 19 14 16 15 5 17 4 18 3 19 2 20 1 21
REMARK H PARENT 16 16
REMARK Flexibility Score: inf
ROOT
ATOM      1  C   UNL     1      93.909  94.477  75.571  1.00  0.00    -0.023 C 
ATOM      2  C   UNL     1      94.184  95.682  75.058  1.00  0.00     0.043 C 
ENDROOT
BRANCH   2   3
ATOM      3  C   UNL     1      95.530  96.285  75.258  1.00  0.00     0.155 C 
ATOM      4  O   UNL     1      95.836  97.368  74.764  1.00  0.00    -0.295 OA
BRANCH   3   5
ATOM      5  C   UNL     1      96.524  95.468  76.060  1.00  0.00     0.085 C 
BRANCH   5   6
ATOM      6  C   UNL     1      97.089  96.273  77.231  1.00  0.00     0.044 C 
BRANCH   6   7
ATOM      7  C   UNL     1      96.507  95.860  78.562  1.00  0.00    -0.044 A 
ATOM      8  C   UNL     1      96.198  96.268  80.907  1.00  0.00     0.160 A 
ATOM      9  C   UNL     1      96.736  96.650  79.677  1.00  0.00     0.054 A 
ATOM     10  C   UNL     1      95.440  95.102  81.005  1.00  0.00     0.157 A 
ATOM     11  C   UNL     1      95.219  94.317  79.873  1.00  0.00     0.050 A 
ATOM     12  C   UNL     1      95.757  94.699  78.643  1.00  0.00     0.008 A 
BRANCH   8  13
ATOM     13  O   UNL     1      96.422  97.043  82.005  1.00  0.00    -0.493 OA
ATOM     14  C   UNL     1      96.104  98.429  81.896  1.00  0.00     0.278 C 
ENDBRANCH   8  13
BRANCH  10  15
ATOM     15  O   UNL     1      94.910  94.719  82.200  1.00  0.00    -0.504 OA
ATOM     16  H   UNL     1      94.077  95.204  82.334  1.00  0.00     0.293 HD
ENDBRANCH  10  15
ENDBRANCH   6   7
ENDBRANCH   5   6
ENDBRANCH   3   5
ENDBRANCH   2   3
BRANCH   1  17
ATOM     17  C   UNL     1      92.578  93.802  75.414  1.00  0.00     0.027 C 
BRANCH  17  18
ATOM     18  C   UNL     1      91.863  93.563  76.749  1.00  0.00     0.004 C 
BRANCH  18  19
ATOM     19  C   UNL     1      90.361  93.860  76.702  1.00  0.00     0.000 C 
BRANCH  19  20
ATOM     20  C   UNL     1      89.545  92.650  77.160  1.00  0.00    -0.003 C 
ATOM     21  C   UNL     1      90.363  91.732  78.054  1.00  0.00     0.004 C 
ENDBRANCH  19  20
ENDBRANCH  18  19
ENDBRANCH  17  18
ENDBRANCH   1  17
TORSDOF 10
ENDMDL
MODEL 4
REMARK VINA RESULT:    -5.600      4.808      7.693
REMARK INTER + INTRA:         -10.278
REMARK INTER:                  -9.314
REMARK INTRA:                  -0.964
REMARK UNBOUND:                -1.569
REMARK SMILES CCCCC/C=C/C(=O)CCc1ccc(O)c(OC)c1
REMARK SMILES IDX 6 1 7 2 8 3 9 4 10 5 11 6 12 7 17 8 20 9 15 10 14 11 13 12
REMARK SMILES IDX 18 13 19 14 16 15 5 17 4 18 3 19 2 20 1 21
REMARK H PARENT 16 16
REMARK Flexibility Score: inf
ROOT
ATOM      1  C   UNL     1      91.304  94.437  76.417  1.00  0.00    -0.023 C 
ATOM      2  C   UNL     1      92.418  93.752  76.131  1.00  0.00     0.043 C 
ENDROOT
BRANCH   2   3
ATOM      3  C   UNL     1      93.670  94.480  75.789  1.00  0.00     0.155 C 
ATOM      4  O   UNL     1      93.666  95.470  75.060  1.00  0.00    -0.295 OA
BRANCH   3   5
ATOM      5  C   UNL     1      94.959  93.907  76.343  1.00  0.00     0.085 C 
BRANCH   5   6
ATOM      6  C   UNL     1      96.022  94.993  76.514  1.00  0.00     0.044 C 
BRANCH   6   7
ATOM      7  C   UNL     1      96.130  95.491  77.936  1.00  0.00    -0.044 A 
ATOM      8  C   UNL     1      95.570  95.271  80.259  1.00  0.00     0.160 A 
ATOM      9  C   UNL     1      95.469  94.811  78.946  1.00  0.00     0.054 A 
ATOM     10  C   UNL     1      96.330  96.405  80.545  1.00  0.00     0.157 A 
ATOM     11  C   UNL     1      96.990  97.079  79.516  1.00  0.00     0.050 A 
ATOM     12  C   UNL     1      96.889  96.619  78.203  1.00  0.00     0.008 A 
BRANCH   8  13
ATOM     13  O   UNL     1      94.921  94.604  81.254  1.00  0.00    -0.493 OA
ATOM     14  C   UNL     1      95.634  93.553  81.903  1.00  0.00     0.278 C 
ENDBRANCH   8  13
BRANCH  10  15
ATOM     15  O   UNL     1      96.437  96.864  81.823  1.00  0.00    -0.504 OA
ATOM     16  H   UNL     1      97.304  96.596  82.172  1.00  0.00     0.293 HD
ENDBRANCH  10  15
ENDBRANCH   6   7
ENDBRANCH   5   6
ENDBRANCH   3   5
ENDBRANCH   2   3
BRANCH   1  17
ATOM     17  C   UNL     1      90.003  93.777  76.771  1.00  0.00     0.027 C 
BRANCH  17  18
ATOM     18  C   UNL     1      90.184  92.450  77.516  1.00  0.00     0.004 C 
BRANCH  18  19
ATOM     19  C   UNL     1      89.408  91.286  76.893  1.00  0.00     0.000 C 
BRANCH  19  20
ATOM     20  C   UNL     1      89.754  91.122  75.412  1.00  0.00    -0.003 C 
ATOM     21  C   UNL     1      91.041  90.336  75.224  1.00  0.00     0.004 C 
ENDBRANCH  19  20
ENDBRANCH  18  19
ENDBRANCH  17  18
ENDBRANCH   1  17
TORSDOF 10
ENDMDL
MODEL 5
REMARK VINA RESULT:    -5.407      5.425      8.183
REMARK INTER + INTRA:          -9.979
REMARK INTER:                  -9.080
REMARK INTRA:                  -0.898
REMARK UNBOUND:                -1.569
REMARK SMILES CCCCC/C=C/C(=O)CCc1ccc(O)c(OC)c1
REMARK SMILES IDX 6 1 7 2 8 3 9 4 10 5 11 6 12 7 17 8 20 9 15 10 14 11 13 12
REMARK SMILES IDX 18 13 19 14 16 15 5 17 4 18 3 19 2 20 1 21
REMARK H PARENT 16 16
REMARK Flexibility Score: inf
ROOT
ATOM      1  C   UNL     1      91.250  93.098  77.392  1.00  0.00    -0.023 C 
ATOM      2  C   UNL     1      91.714  93.820  76.365  1.00  0.00     0.043 C 
ENDROOT
BRANCH   2   3
ATOM      3  C   UNL     1      93.087  94.391  76.419  1.00  0.00     0.155 C 
ATOM      4  O   UNL     1      93.518  95.130  75.537  1.00  0.00    -0.295 OA
BRANCH   3   5
ATOM      5  C   UNL     1      93.947  93.971  77.595  1.00  0.00     0.085 C 
BRANCH   5   6
ATOM      6  C   UNL     1      95.280  94.721  77.604  1.00  0.00     0.044 C 
BRANCH   6   7
ATOM      7  C   UNL     1      95.846  94.898  78.993  1.00  0.00    -0.044 A 
ATOM      8  C   UNL     1      97.495  95.847  80.456  1.00  0.00     0.160 A 
ATOM      9  C   UNL     1      96.974  95.683  79.172  1.00  0.00     0.054 A 
ATOM     10  C   UNL     1      96.882  95.225  81.543  1.00  0.00     0.157 A 
ATOM     11  C   UNL     1      95.747  94.437  81.346  1.00  0.00     0.050 A 
ATOM     12  C   UNL     1      95.226  94.273  80.063  1.00  0.00     0.008 A 
BRANCH   8  13
ATOM     13  O   UNL     1      98.604  96.619  80.634  1.00  0.00    -0.493 OA
ATOM     14  C   UNL     1      99.864  96.022  80.334  1.00  0.00     0.278 C 
ENDBRANCH   8  13
BRANCH  10  15
ATOM     15  O   UNL     1      97.382  95.378  82.801  1.00  0.00    -0.504 OA
ATOM     16  H   UNL     1      97.785  94.536  83.074  1.00  0.00     0.293 HD
ENDBRANCH  10  15
ENDBRANCH   6   7
ENDBRANCH   5   6
ENDBRANCH   3   5
ENDBRANCH   2   3
BRANCH   1  17
ATOM     17  C   UNL     1      89.878  92.489  77.414  1.00  0.00     0.027 C 
BRANCH  17  18
ATOM     18  C   UNL     1      89.898  90.957  77.391  1.00  0.00     0.004 C 
BRANCH  18  19
ATOM     19  C   UNL     1      90.149  90.368  75.999  1.00  0.00     0.000 C 
BRANCH  19  20
ATOM     20  C   UNL     1      89.137  90.900  74.984  1.00  0.00    -0.003 C 
ATOM     21  C   UNL     1      89.828  91.549  73.796  1.00  0.00     0.004 C 
ENDBRANCH  19  20
ENDBRANCH  18  19
ENDBRANCH  17  18
ENDBRANCH   1  17
TORSDOF 10
ENDMDL
MODEL 6
REMARK VINA RESULT:    -5.161     24.358     27.084
REMARK INTER + INTRA:          -9.595
REMARK INTER:                  -8.956
REMARK INTRA:                  -0.640
REMARK UNBOUND:                -1.569
REMARK SMILES CCCCC/C=C/C(=O)CCc1ccc(O)c(OC)c1
REMARK SMILES IDX 6 1 7 2 8 3 9 4 10 5 11 6 12 7 17 8 20 9 15 10 14 11 13 12
REMARK SMILES IDX 18 13 19 14 16 15 5 17 4 18 3 19 2 20 1 21
REMARK H PARENT 16 16
REMARK Flexibility Score: inf
ROOT
ATOM      1  C   UNL     1      85.140  64.638  77.918  1.00  0.00    -0.023 C 
ATOM      2  C   UNL     1      84.192  63.859  77.383  1.00  0.00     0.043 C 
ENDROOT
BRANCH   2   3
ATOM      3  C   UNL     1      83.434  64.325  76.190  1.00  0.00     0.155 C 
ATOM      4  O   UNL     1      83.243  63.598  75.218  1.00  0.00    -0.295 OA
BRANCH   3   5
ATOM      5  C   UNL     1      82.953  65.763  76.215  1.00  0.00     0.085 C 
BRANCH   5   6
ATOM      6  C   UNL     1      81.442  65.847  76.000  1.00  0.00     0.044 C 
BRANCH   6   7
ATOM      7  C   UNL     1      81.059  65.930  74.541  1.00  0.00    -0.044 A 
ATOM      8  C   UNL     1      81.097  67.108  72.451  1.00  0.00     0.160 A 
ATOM      9  C   UNL     1      81.450  67.032  73.798  1.00  0.00     0.054 A 
ATOM     10  C   UNL     1      80.358  66.082  71.864  1.00  0.00     0.157 A 
ATOM     11  C   UNL     1      79.971  64.978  72.625  1.00  0.00     0.050 A 
ATOM     12  C   UNL     1      80.324  64.902  73.973  1.00  0.00     0.008 A 
BRANCH   8  13
ATOM     13  O   UNL     1      81.481  68.191  71.718  1.00  0.00    -0.493 OA
ATOM     14  C   UNL     1      82.860  68.281  71.367  1.00  0.00     0.278 C 
ENDBRANCH   8  13
BRANCH  10  15
ATOM     15  O   UNL     1      80.008  66.144  70.549  1.00  0.00    -0.504 OA
ATOM     16  H   UNL     1      80.744  66.545  70.056  1.00  0.00     0.293 HD
ENDBRANCH  10  15
ENDBRANCH   6   7
ENDBRANCH   5   6
ENDBRANCH   3   5
ENDBRANCH   2   3
BRANCH   1  17
ATOM     17  C   UNL     1      85.947  64.241  79.120  1.00  0.00     0.027 C 
BRANCH  17  18
ATOM     18  C   UNL     1      85.203  63.283  80.055  1.00  0.00     0.004 C 
BRANCH  18  19
ATOM     19  C   UNL     1      85.002  63.837  81.469  1.00  0.00     0.000 C 
BRANCH  19  20
ATOM     20  C   UNL     1      85.963  64.994  81.749  1.00  0.00    -0.003 C 
ATOM     21  C   UNL     1      85.847  65.479  83.186  1.00  0.00     0.004 C 
ENDBRANCH  19  20
ENDBRANCH  18  19
ENDBRANCH  17  18
ENDBRANCH   1  17
TORSDOF 10
ENDMDL
MODEL 7
REMARK VINA RESULT:    -5.138      4.674      7.752
REMARK INTER + INTRA:          -9.560
REMARK INTER:                  -8.898
REMARK INTRA:                  -0.662
REMARK UNBOUND:                -1.569
REMARK SMILES CCCCC/C=C/C(=O)CCc1ccc(O)c(OC)c1
REMARK SMILES IDX 6 1 7 2 8 3 9 4 10 5 11 6 12 7 17 8 20 9 15 10 14 11 13 12
REMARK SMILES IDX 18 13 19 14 16 15 5 17 4 18 3 19 2 20 1 21
REMARK H PARENT 16 16
REMARK Flexibility Score: inf
ROOT
ATOM      1  C   UNL     1      90.864  91.816  76.963  1.00  0.00    -0.023 C 
ATOM      2  C   UNL     1      90.891  92.729  75.985  1.00  0.00     0.043 C 
ENDROOT
BRANCH   2   3
ATOM      3  C   UNL     1      92.092  93.591  75.807  1.00  0.00     0.155 C 
ATOM      4  O   UNL     1      92.422  94.025  74.706  1.00  0.00    -0.295 OA
BRANCH   3   5
ATOM      5  C   UNL     1      92.918  93.863  77.049  1.00  0.00     0.085 C 
BRANCH   5   6
ATOM      6  C   UNL     1      94.286  94.445  76.690  1.00  0.00     0.044 C 
BRANCH   6   7
ATOM      7  C   UNL     1      95.163  94.674  77.898  1.00  0.00    -0.044 A 
ATOM      8  C   UNL     1      97.099  95.683  78.895  1.00  0.00     0.160 A 
ATOM      9  C   UNL     1      96.290  95.471  77.778  1.00  0.00     0.054 A 
ATOM     10  C   UNL     1      96.771  95.095  80.116  1.00  0.00     0.157 A 
ATOM     11  C   UNL     1      95.633  94.294  80.221  1.00  0.00     0.050 A 
ATOM     12  C   UNL     1      94.824  94.083  79.104  1.00  0.00     0.008 A 
BRANCH   8  13
ATOM     13  O   UNL     1      98.208  96.467  78.779  1.00  0.00    -0.493 OA
ATOM     14  C   UNL     1      98.386  97.160  77.545  1.00  0.00     0.278 C 
ENDBRANCH   8  13
BRANCH  10  15
ATOM     15  O   UNL     1      97.553  95.295  81.213  1.00  0.00    -0.504 OA
ATOM     16  H   UNL     1      97.378  96.189  81.554  1.00  0.00     0.293 HD
ENDBRANCH  10  15
ENDBRANCH   6   7
ENDBRANCH   5   6
ENDBRANCH   3   5
ENDBRANCH   2   3
BRANCH   1  17
ATOM     17  C   UNL     1      89.692  90.910  77.208  1.00  0.00     0.027 C 
BRANCH  17  18
ATOM     18  C   UNL     1      89.644  89.716  76.248  1.00  0.00     0.004 C 
BRANCH  18  19
ATOM     19  C   UNL     1      90.081  88.395  76.890  1.00  0.00     0.000 C 
BRANCH  19  20
ATOM     20  C   UNL     1      91.165  87.709  76.058  1.00  0.00    -0.003 C 
ATOM     21  C   UNL     1      90.902  87.858  74.568  1.00  0.00     0.004 C 
ENDBRANCH  19  20
ENDBRANCH  18  19
ENDBRANCH  17  18
ENDBRANCH   1  17
TORSDOF 10
ENDMDL
MODEL 8
REMARK VINA RESULT:    -4.962      6.464      8.834
REMARK INTER + INTRA:          -9.286
REMARK INTER:                  -8.495
REMARK INTRA:                  -0.791
REMARK UNBOUND:                -1.569
REMARK SMILES CCCCC/C=C/C(=O)CCc1ccc(O)c(OC)c1
REMARK SMILES IDX 6 1 7 2 8 3 9 4 10 5 11 6 12 7 17 8 20 9 15 10 14 11 13 12
REMARK SMILES IDX 18 13 19 14 16 15 5 17 4 18 3 19 2 20 1 21
REMARK H PARENT 16 16
REMARK Flexibility Score: inf
ROOT
ATOM      1  C   UNL     1      92.739  99.377  70.237  1.00  0.00    -0.023 C 
ATOM      2  C   UNL     1      93.281  98.193  70.545  1.00  0.00     0.043 C 
ENDROOT
BRANCH   2   3
ATOM      3  C   UNL     1      94.629  98.135  71.172  1.00  0.00     0.155 C 
ATOM      4  O   UNL     1      95.599  97.661  70.584  1.00  0.00    -0.295 OA
BRANCH   3   5
ATOM      5  C   UNL     1      94.735  98.643  72.597  1.00  0.00     0.085 C 
BRANCH   5   6
ATOM      6  C   UNL     1      93.817  97.858  73.536  1.00  0.00     0.044 C 
BRANCH   6   7
ATOM      7  C   UNL     1      94.511  96.687  74.192  1.00  0.00    -0.044 A 
ATOM      8  C   UNL     1      94.391  94.590  75.352  1.00  0.00     0.160 A 
ATOM      9  C   UNL     1      93.750  95.671  74.747  1.00  0.00     0.054 A 
ATOM     10  C   UNL     1      95.784  94.539  75.394  1.00  0.00     0.157 A 
ATOM     11  C   UNL     1      96.537  95.571  74.832  1.00  0.00     0.050 A 
ATOM     12  C   UNL     1      95.895  96.652  74.227  1.00  0.00     0.008 A 
BRANCH   8  13
ATOM     13  O   UNL     1      93.645  93.589  75.898  1.00  0.00    -0.493 OA
ATOM     14  C   UNL     1      93.140  93.802  77.214  1.00  0.00     0.278 C 
ENDBRANCH   8  13
BRANCH  10  15
ATOM     15  O   UNL     1      96.422  93.489  75.982  1.00  0.00    -0.504 OA
ATOM     16  H   UNL     1      95.885  92.690  75.843  1.00  0.00     0.293 HD
ENDBRANCH  10  15
ENDBRANCH   6   7
ENDBRANCH   5   6
ENDBRANCH   3   5
ENDBRANCH   2   3
BRANCH   1  17
ATOM     17  C   UNL     1      91.386  99.520  69.603  1.00  0.00     0.027 C 
BRANCH  17  18
ATOM     18  C   UNL     1      91.408 100.358  68.320  1.00  0.00     0.004 C 
BRANCH  18  19
ATOM     19  C   UNL     1      90.994  99.577  67.069  1.00  0.00     0.000 C 
BRANCH  19  20
ATOM     20  C   UNL     1      89.971  98.491  67.410  1.00  0.00    -0.003 C 
ATOM     21  C   UNL     1      89.202  98.044  66.178  1.00  0.00     0.004 C 
ENDBRANCH  19  20
ENDBRANCH  18  19
ENDBRANCH  17  18
ENDBRANCH   1  17
TORSDOF 10
ENDMDL
MODEL 9
REMARK VINA RESULT:    -4.845     23.526     26.546
REMARK INTER + INTRA:          -9.104
REMARK INTER:                  -8.123
REMARK INTRA:                  -0.981
REMARK UNBOUND:                -1.569
REMARK SMILES CCCCC/C=C/C(=O)CCc1ccc(O)c(OC)c1
REMARK SMILES IDX 6 1 7 2 8 3 9 4 10 5 11 6 12 7 17 8 20 9 15 10 14 11 13 12
REMARK SMILES IDX 18 13 19 14 16 15 5 17 4 18 3 19 2 20 1 21
REMARK H PARENT 16 16
REMARK Flexibility Score: inf
ROOT
ATOM      1  C   UNL     1      83.023  64.547  75.089  1.00  0.00    -0.023 C 
ATOM      2  C   UNL     1      81.690  64.665  75.046  1.00  0.00     0.043 C 
ENDROOT
BRANCH   2   3
ATOM      3  C   UNL     1      81.065  66.015  75.035  1.00  0.00     0.155 C 
ATOM      4  O   UNL     1      81.328  66.859  75.889  1.00  0.00    -0.295 OA
BRANCH   3   5
ATOM      5  C   UNL     1      80.044  66.278  73.945  1.00  0.00     0.085 C 
BRANCH   5   6
ATOM      6  C   UNL     1      80.454  67.470  73.077  1.00  0.00     0.044 C 
BRANCH   6   7
ATOM      7  C   UNL     1      81.510  67.118  72.057  1.00  0.00    -0.044 A 
ATOM      8  C   UNL     1      83.566  67.641  70.936  1.00  0.00     0.160 A 
ATOM      9  C   UNL     1      82.591  67.967  71.878  1.00  0.00     0.054 A 
ATOM     10  C   UNL     1      83.449  66.471  70.185  1.00  0.00     0.157 A 
ATOM     11  C   UNL     1      82.355  65.627  70.377  1.00  0.00     0.050 A 
ATOM     12  C   UNL     1      81.379  65.953  71.319  1.00  0.00     0.008 A 
BRANCH   8  13
ATOM     13  O   UNL     1      84.630  68.474  70.757  1.00  0.00    -0.493 OA
ATOM     14  C   UNL     1      84.818  69.501  71.729  1.00  0.00     0.278 C 
ENDBRANCH   8  13
BRANCH  10  15
ATOM     15  O   UNL     1      84.395  66.142  69.262  1.00  0.00    -0.504 OA
ATOM     16  H   UNL     1      83.987  66.177  68.380  1.00  0.00     0.293 HD
ENDBRANCH  10  15
ENDBRANCH   6   7
ENDBRANCH   5   6
ENDBRANCH   3   5
ENDBRANCH   2   3
BRANCH   1  17
ATOM     17  C   UNL     1      83.730  63.223  75.103  1.00  0.00     0.027 C 
BRANCH  17  18
ATOM     18  C   UNL     1      84.510  62.971  76.398  1.00  0.00     0.004 C 
BRANCH  18  19
ATOM     19  C   UNL     1      84.265  64.030  77.478  1.00  0.00     0.000 C 
BRANCH  19  20
ATOM     20  C   UNL     1      84.792  63.565  78.836  1.00  0.00    -0.003 C 
ATOM     21  C   UNL     1      85.815  64.538  79.399  1.00  0.00     0.004 C 
ENDBRANCH  19  20
ENDBRANCH  18  19
ENDBRANCH  17  18
ENDBRANCH   1  17
TORSDOF 10
ENDMDL
MODEL 10
REMARK VINA RESULT:    -4.813     22.828     25.581
REMARK INTER + INTRA:          -9.054
REMARK INTER:                  -7.761
REMARK INTRA:                  -1.293
REMARK UNBOUND:                -1.569
REMARK SMILES CCCCC/C=C/C(=O)CCc1ccc(O)c(OC)c1
REMARK SMILES IDX 6 1 7 2 8 3 9 4 10 5 11 6 12 7 17 8 20 9 15 10 14 11 13 12
REMARK SMILES IDX 18 13 19 14 16 15 5 17 4 18 3 19 2 20 1 21
REMARK H PARENT 16 16
REMARK Flexibility Score: inf
ROOT
ATOM      1  C   UNL     1      82.729  66.854  70.855  1.00  0.00    -0.023 C 
ATOM      2  C   UNL     1      82.031  65.767  71.207  1.00  0.00     0.043 C 
ENDROOT
BRANCH   2   3
ATOM      3  C   UNL     1      80.599  65.898  71.593  1.00  0.00     0.155 C 
ATOM      4  O   UNL     1      79.811  66.580  70.941  1.00  0.00    -0.295 OA
BRANCH   3   5
ATOM      5  C   UNL     1      80.174  65.188  72.863  1.00  0.00     0.085 C 
BRANCH   5   6
ATOM      6  C   UNL     1      80.324  66.096  74.084  1.00  0.00     0.044 C 
BRANCH   6   7
ATOM      7  C   UNL     1      81.542  65.767  74.915  1.00  0.00    -0.044 A 
ATOM      8  C   UNL     1      83.263  66.458  76.438  1.00  0.00     0.160 A 
ATOM      9  C   UNL     1      82.138  66.764  75.671  1.00  0.00     0.054 A 
ATOM     10  C   UNL     1      83.776  65.162  76.439  1.00  0.00     0.157 A 
ATOM     11  C   UNL     1      83.165  64.169  75.672  1.00  0.00     0.050 A 
ATOM     12  C   UNL     1      82.040  64.474  74.905  1.00  0.00     0.008 A 
BRANCH   8  13
ATOM     13  O   UNL     1      83.851  67.437  77.182  1.00  0.00    -0.493 OA
ATOM     14  C   UNL     1      84.688  68.362  76.492  1.00  0.00     0.278 C 
ENDBRANCH   8  13
BRANCH  10  15
ATOM     15  O   UNL     1      84.873  64.852  77.185  1.00  0.00    -0.504 OA
ATOM     16  H   UNL     1      85.381  64.170  76.712  1.00  0.00     0.293 HD
ENDBRANCH  10  15
ENDBRANCH   6   7
ENDBRANCH   5   6
ENDBRANCH   3   5
ENDBRANCH   2   3
BRANCH   1  17
ATOM     17  C   UNL     1      84.174  66.807  70.454  1.00  0.00     0.027 C 
BRANCH  17  18
ATOM     18  C   UNL     1      85.126  67.215  71.584  1.00  0.00     0.004 C 
BRANCH  18  19
ATOM     19  C   UNL     1      84.578  68.338  72.471  1.00  0.00     0.000 C 
BRANCH  19  20
ATOM     20  C   UNL     1      84.952  69.713  71.915  1.00  0.00    -0.003 C 
ATOM     21  C   UNL     1      83.740  70.430  71.344  1.00  0.00     0.004 C 
ENDBRANCH  19  20
ENDBRANCH  18  19
ENDBRANCH  17  18
ENDBRANCH   1  17
TORSDOF 10
ENDMDL
