MODEL 1
REMARK VINA RESULT:    -8.108      0.000      0.000
REMARK INTER + INTRA:          -9.914
REMARK INTER:                  -9.530
REMARK INTRA:                  -0.384
REMARK UNBOUND:                -0.384
REMARK SMILES O=C(/C=C/C=C/c1ccc2c(c1)OCO2)N1CCCCC1
REMARK SMILES IDX 3 1 4 2 2 3 1 4 16 5 17 6 21 7 18 8 20 9 19 10 5 11 6 12
REMARK SMILES IDX 7 13 12 14 8 15 11 16 9 17 13 18 10 19 14 20 15 21
REMARK H PARENT
REMARK Flexibility Score: inf
ROOT
ATOM      1  C   UNL     1      90.986  91.662  76.052  1.00  0.00     0.071 C 
ATOM      2  C   UNL     1      90.901  92.651  76.941  1.00  0.00     0.006 C 
ENDROOT
BRANCH   1   3
ATOM      3  C   UNL     1      89.732  91.049  75.574  1.00  0.00     0.246 C 
ATOM      4  O   UNL     1      88.800  90.959  76.374  1.00  0.00    -0.270 OA
ATOM      5  N   UNL     1      89.687  90.609  74.252  1.00  0.00    -0.339 N 
ATOM      6  C   UNL     1      88.456  89.991  73.749  1.00  0.00     0.120 C 
ATOM      7  C   UNL     1      90.790  90.658  73.281  1.00  0.00     0.120 C 
ATOM      8  C   UNL     1      87.980  90.661  72.465  1.00  0.00     0.022 C 
ATOM      9  C   UNL     1      90.351  91.321  71.976  1.00  0.00     0.022 C 
ATOM     10  C   UNL     1      89.086  90.678  71.415  1.00  0.00     0.004 C 
ENDBRANCH   1   3
BRANCH   2  11
ATOM     11  C   UNL     1      92.075  93.314  77.469  1.00  0.00     0.001 C 
ATOM     12  C   UNL     1      93.157  93.581  76.720  1.00  0.00     0.008 C 
BRANCH  12  13
ATOM     13  C   UNL     1      94.378  94.245  77.207  1.00  0.00    -0.022 A 
ATOM     14  C   UNL     1      94.633  94.273  78.572  1.00  0.00     0.058 A 
ATOM     15  C   UNL     1      95.247  94.828  76.282  1.00  0.00     0.012 A 
ATOM     16  C   UNL     1      95.789  94.905  78.979  1.00  0.00     0.166 A 
ATOM     17  C   UNL     1      96.411  95.462  76.723  1.00  0.00     0.051 A 
ATOM     18  O   UNL     1      96.214  95.040  80.266  1.00  0.00    -0.454 OA
ATOM     19  C   UNL     1      96.655  95.484  78.080  1.00  0.00     0.165 A 
ATOM     20  C   UNL     1      97.444  95.768  80.074  1.00  0.00     0.468 C 
ATOM     21  O   UNL     1      97.730  96.053  78.690  1.00  0.00    -0.454 OA
ENDBRANCH  12  13
ENDBRANCH   2  11
TORSDOF 3
ENDMDL
MODEL 2
REMARK VINA RESULT:    -7.835      2.745      9.161
REMARK INTER + INTRA:          -9.593
REMARK INTER:                  -9.229
REMARK INTRA:                  -0.363
REMARK UNBOUND:                -0.384
REMARK SMILES O=C(/C=C/C=C/c1ccc2c(c1)OCO2)N1CCCCC1
REMARK SMILES IDX 3 1 4 2 2 3 1 4 16 5 17 6 21 7 18 8 20 9 19 10 5 11 6 12
REMARK SMILES IDX 7 13 12 14 8 15 11 16 9 17 13 18 10 19 14 20 15 21
REMARK H PARENT
REMARK Flexibility Score: inf
ROOT
ATOM      1  C   UNL     1      94.415  94.345  76.317  1.00  0.00     0.071 C 
ATOM      2  C   UNL     1      93.607  94.799  75.361  1.00  0.00     0.006 C 
ENDROOT
BRANCH   1   3
ATOM      3  C   UNL     1      95.607  95.146  76.658  1.00  0.00     0.246 C 
ATOM      4  O   UNL     1      96.141  95.786  75.751  1.00  0.00    -0.270 OA
ATOM      5  N   UNL     1      96.051  95.121  77.979  1.00  0.00    -0.339 N 
ATOM      6  C   UNL     1      97.236  95.903  78.347  1.00  0.00     0.120 C 
ATOM      7  C   UNL     1      95.468  94.336  79.077  1.00  0.00     0.120 C 
ATOM      8  C   UNL     1      96.954  96.815  79.536  1.00  0.00     0.022 C 
ATOM      9  C   UNL     1      95.175  95.216  80.292  1.00  0.00     0.022 C 
ATOM     10  C   UNL     1      96.400  96.021  80.715  1.00  0.00     0.004 C 
ENDBRANCH   1   3
BRANCH   2  11
ATOM     11  C   UNL     1      92.415  94.084  74.957  1.00  0.00     0.001 C 
ATOM     12  C   UNL     1      92.419  92.774  74.663  1.00  0.00     0.008 C 
BRANCH  12  13
ATOM     13  C   UNL     1      91.239  92.000  74.240  1.00  0.00    -0.022 A 
ATOM     14  C   UNL     1      90.285  92.609  73.436  1.00  0.00     0.058 A 
ATOM     15  C   UNL     1      91.113  90.673  74.659  1.00  0.00     0.012 A 
ATOM     16  C   UNL     1      89.198  91.844  73.065  1.00  0.00     0.166 A 
ATOM     17  C   UNL     1      90.002  89.922  74.269  1.00  0.00     0.051 A 
ATOM     18  O   UNL     1      88.161  92.256  72.286  1.00  0.00    -0.454 OA
ATOM     19  C   UNL     1      89.060  90.536  73.471  1.00  0.00     0.165 A 
ATOM     20  C   UNL     1      87.355  91.060  72.247  1.00  0.00     0.468 C 
ATOM     21  O   UNL     1      87.920  89.965  72.996  1.00  0.00    -0.454 OA
ENDBRANCH  12  13
ENDBRANCH   2  11
TORSDOF 3
ENDMDL
MODEL 3
REMARK VINA RESULT:    -7.639      2.686      9.269
REMARK INTER + INTRA:          -9.362
REMARK INTER:                  -9.026
REMARK INTRA:                  -0.336
REMARK UNBOUND:                -0.384
REMARK SMILES O=C(/C=C/C=C/c1ccc2c(c1)OCO2)N1CCCCC1
REMARK SMILES IDX 3 1 4 2 2 3 1 4 16 5 17 6 21 7 18 8 20 9 19 10 5 11 6 12
REMARK SMILES IDX 7 13 12 14 8 15 11 16 9 17 13 18 10 19 14 20 15 21
REMARK H PARENT
REMARK Flexibility Score: inf
ROOT
ATOM      1  C   UNL     1      95.467  94.300  77.837  1.00  0.00     0.071 C 
ATOM      2  C   UNL     1      94.179  94.581  77.651  1.00  0.00     0.006 C 
ENDROOT
BRANCH   1   3
ATOM      3  C   UNL     1      96.345  95.371  78.350  1.00  0.00     0.246 C 
ATOM      4  O   UNL     1      96.840  96.144  77.528  1.00  0.00    -0.270 OA
ATOM      5  N   UNL     1      96.558  95.433  79.726  1.00  0.00    -0.339 N 
ATOM      6  C   UNL     1      97.429  96.482  80.264  1.00  0.00     0.120 C 
ATOM      7  C   UNL     1      96.021  94.503  80.731  1.00  0.00     0.120 C 
ATOM      8  C   UNL     1      96.735  97.269  81.371  1.00  0.00     0.022 C 
ATOM      9  C   UNL     1      95.319  95.256  81.861  1.00  0.00     0.022 C 
ATOM     10  C   UNL     1      96.215  96.336  82.461  1.00  0.00     0.004 C 
ENDBRANCH   1   3
BRANCH   2  11
ATOM     11  C   UNL     1      93.241  93.598  77.152  1.00  0.00     0.001 C 
ATOM     12  C   UNL     1      91.972  93.901  76.832  1.00  0.00     0.008 C 
BRANCH  12  13
ATOM     13  C   UNL     1      90.976  92.940  76.328  1.00  0.00    -0.022 A 
ATOM     14  C   UNL     1      90.729  92.876  74.964  1.00  0.00     0.058 A 
ATOM     15  C   UNL     1      90.307  92.119  77.239  1.00  0.00     0.012 A 
ATOM     16  C   UNL     1      89.788  91.960  74.541  1.00  0.00     0.166 A 
ATOM     17  C   UNL     1      89.358  91.201  76.783  1.00  0.00     0.051 A 
ATOM     18  O   UNL     1      89.405  91.747  73.252  1.00  0.00    -0.454 OA
ATOM     19  C   UNL     1      89.120  91.144  75.426  1.00  0.00     0.165 A 
ATOM     20  C   UNL     1      88.423  90.706  73.425  1.00  0.00     0.468 C 
ATOM     21  O   UNL     1      88.237  90.318  74.802  1.00  0.00    -0.454 OA
ENDBRANCH  12  13
ENDBRANCH   2  11
TORSDOF 3
ENDMDL
MODEL 4
REMARK VINA RESULT:    -7.385      2.567      9.076
REMARK INTER + INTRA:          -9.064
REMARK INTER:                  -8.718
REMARK INTRA:                  -0.346
REMARK UNBOUND:                -0.384
REMARK SMILES O=C(/C=C/C=C/c1ccc2c(c1)OCO2)N1CCCCC1
REMARK SMILES IDX 3 1 4 2 2 3 1 4 16 5 17 6 21 7 18 8 20 9 19 10 5 11 6 12
REMARK SMILES IDX 7 13 12 14 8 15 11 16 9 17 13 18 10 19 14 20 15 21
REMARK H PARENT
REMARK Flexibility Score: inf
ROOT
ATOM      1  C   UNL     1      94.936  93.992  78.254  1.00  0.00     0.071 C 
ATOM      2  C   UNL     1      93.749  94.384  77.794  1.00  0.00     0.006 C 
ENDROOT
BRANCH   1   3
ATOM      3  C   UNL     1      95.490  94.691  79.430  1.00  0.00     0.246 C 
ATOM      4  O   UNL     1      95.045  94.384  80.536  1.00  0.00    -0.270 OA
ATOM      5  N   UNL     1      96.475  95.653  79.210  1.00  0.00    -0.339 N 
ATOM      6  C   UNL     1      97.040  96.367  80.359  1.00  0.00     0.120 C 
ATOM      7  C   UNL     1      96.999  96.077  77.903  1.00  0.00     0.120 C 
ATOM      8  C   UNL     1      98.563  96.290  80.367  1.00  0.00     0.022 C 
ATOM      9  C   UNL     1      98.526  96.018  77.873  1.00  0.00     0.022 C 
ATOM     10  C   UNL     1      99.143  96.778  79.044  1.00  0.00     0.004 C 
ENDBRANCH   1   3
BRANCH   2  11
ATOM     11  C   UNL     1      93.124  93.760  76.646  1.00  0.00     0.001 C 
ATOM     12  C   UNL     1      92.086  92.916  76.754  1.00  0.00     0.008 C 
BRANCH  12  13
ATOM     13  C   UNL     1      91.419  92.249  75.623  1.00  0.00    -0.022 A 
ATOM     14  C   UNL     1      90.148  91.721  75.804  1.00  0.00     0.058 A 
ATOM     15  C   UNL     1      92.085  92.166  74.397  1.00  0.00     0.012 A 
ATOM     16  C   UNL     1      89.565  91.106  74.715  1.00  0.00     0.166 A 
ATOM     17  C   UNL     1      91.471  91.538  73.311  1.00  0.00     0.051 A 
ATOM     18  O   UNL     1      88.332  90.528  74.690  1.00  0.00    -0.454 OA
ATOM     19  C   UNL     1      90.208  91.017  73.502  1.00  0.00     0.165 A 
ATOM     20  C   UNL     1      88.273  90.066  73.325  1.00  0.00     0.468 C 
ATOM     21  O   UNL     1      89.460  90.373  72.565  1.00  0.00    -0.454 OA
ENDBRANCH  12  13
ENDBRANCH   2  11
TORSDOF 3
ENDMDL
MODEL 5
REMARK VINA RESULT:    -6.970      6.418      7.449
REMARK INTER + INTRA:          -8.576
REMARK INTER:                  -8.200
REMARK INTRA:                  -0.377
REMARK UNBOUND:                -0.384
REMARK SMILES O=C(/C=C/C=C/c1ccc2c(c1)OCO2)N1CCCCC1
REMARK SMILES IDX 3 1 4 2 2 3 1 4 16 5 17 6 21 7 18 8 20 9 19 10 5 11 6 12
REMARK SMILES IDX 7 13 12 14 8 15 11 16 9 17 13 18 10 19 14 20 15 21
REMARK H PARENT
REMARK Flexibility Score: inf
ROOT
ATOM      1  C   UNL     1      92.836  98.563  70.286  1.00  0.00     0.071 C 
ATOM      2  C   UNL     1      93.561  99.214  71.194  1.00  0.00     0.006 C 
ENDROOT
BRANCH   1   3
ATOM      3  C   UNL     1      92.148  99.357  69.248  1.00  0.00     0.246 C 
ATOM      4  O   UNL     1      92.562 100.497  69.037  1.00  0.00    -0.270 OA
ATOM      5  N   UNL     1      91.075  98.765  68.583  1.00  0.00    -0.339 N 
ATOM      6  C   UNL     1      90.369  99.530  67.551  1.00  0.00     0.120 C 
ATOM      7  C   UNL     1      90.525  97.426  68.839  1.00  0.00     0.120 C 
ATOM      8  C   UNL     1      90.283  98.753  66.242  1.00  0.00     0.022 C 
ATOM      9  C   UNL     1      90.420  96.615  67.548  1.00  0.00     0.022 C 
ATOM     10  C   UNL     1      89.663  97.377  66.464  1.00  0.00     0.004 C 
ENDBRANCH   1   3
BRANCH   2  11
ATOM     11  C   UNL     1      94.271  98.524  72.250  1.00  0.00     0.001 C 
ATOM     12  C   UNL     1      93.669  97.668  73.092  1.00  0.00     0.008 C 
BRANCH  12  13
ATOM     13  C   UNL     1      94.340  96.946  74.186  1.00  0.00    -0.022 A 
ATOM     14  C   UNL     1      93.755  95.796  74.696  1.00  0.00     0.058 A 
ATOM     15  C   UNL     1      95.550  97.441  74.681  1.00  0.00     0.012 A 
ATOM     16  C   UNL     1      94.422  95.155  75.720  1.00  0.00     0.166 A 
ATOM     17  C   UNL     1      96.204  96.772  75.718  1.00  0.00     0.051 A 
ATOM     18  O   UNL     1      94.013  94.020  76.352  1.00  0.00    -0.454 OA
ATOM     19  C   UNL     1      95.613  95.630  76.218  1.00  0.00     0.165 A 
ATOM     20  C   UNL     1      95.082  93.835  77.302  1.00  0.00     0.468 C 
ATOM     21  O   UNL     1      96.101  94.852  77.223  1.00  0.00    -0.454 OA
ENDBRANCH  12  13
ENDBRANCH   2  11
TORSDOF 3
ENDMDL
MODEL 6
REMARK VINA RESULT:    -6.874      3.132      9.009
REMARK INTER + INTRA:          -8.463
REMARK INTER:                  -8.165
REMARK INTRA:                  -0.298
REMARK UNBOUND:                -0.384
REMARK SMILES O=C(/C=C/C=C/c1ccc2c(c1)OCO2)N1CCCCC1
REMARK SMILES IDX 3 1 4 2 2 3 1 4 16 5 17 6 21 7 18 8 20 9 19 10 5 11 6 12
REMARK SMILES IDX 7 13 12 14 8 15 11 16 9 17 13 18 10 19 14 20 15 21
REMARK H PARENT
REMARK Flexibility Score: inf
ROOT
ATOM      1  C   UNL     1      95.834  94.742  75.304  1.00  0.00     0.071 C 
ATOM      2  C   UNL     1      94.517  94.800  75.495  1.00  0.00     0.006 C 
ENDROOT
BRANCH   1   3
ATOM      3  C   UNL     1      96.631  95.951  75.592  1.00  0.00     0.246 C 
ATOM      4  O   UNL     1      96.863  96.715  74.655  1.00  0.00    -0.270 OA
ATOM      5  N   UNL     1      97.072  96.142  76.900  1.00  0.00    -0.339 N 
ATOM      6  C   UNL     1      97.870  97.331  77.215  1.00  0.00     0.120 C 
ATOM      7  C   UNL     1      96.853  95.230  78.033  1.00  0.00     0.120 C 
ATOM      8  C   UNL     1      97.279  98.104  78.389  1.00  0.00     0.022 C 
ATOM      9  C   UNL     1      96.264  95.971  79.233  1.00  0.00     0.022 C 
ATOM     10  C   UNL     1      97.092  97.198  79.602  1.00  0.00     0.004 C 
ENDBRANCH   1   3
BRANCH   2  11
ATOM     11  C   UNL     1      93.652  93.667  75.241  1.00  0.00     0.001 C 
ATOM     12  C   UNL     1      92.442  93.791  74.672  1.00  0.00     0.008 C 
BRANCH  12  13
ATOM     13  C   UNL     1      91.520  92.675  74.398  1.00  0.00    -0.022 A 
ATOM     14  C   UNL     1      91.784  91.430  74.951  1.00  0.00     0.058 A 
ATOM     15  C   UNL     1      90.404  92.902  73.589  1.00  0.00     0.012 A 
ATOM     16  C   UNL     1      90.891  90.417  74.667  1.00  0.00     0.166 A 
ATOM     17  C   UNL     1      89.516  91.858  73.317  1.00  0.00     0.051 A 
ATOM     18  O   UNL     1      90.974  89.132  75.110  1.00  0.00    -0.454 OA
ATOM     19  C   UNL     1      89.787  90.625  73.872  1.00  0.00     0.165 A 
ATOM     20  C   UNL     1      89.799  88.556  74.504  1.00  0.00     0.468 C 
ATOM     21  O   UNL     1      89.041  89.498  73.717  1.00  0.00    -0.454 OA
ENDBRANCH  12  13
ENDBRANCH   2  11
TORSDOF 3
ENDMDL
MODEL 7
REMARK VINA RESULT:    -6.824     26.652     28.949
REMARK INTER + INTRA:          -8.404
REMARK INTER:                  -8.155
REMARK INTRA:                  -0.250
REMARK UNBOUND:                -0.384
REMARK SMILES O=C(/C=C/C=C/c1ccc2c(c1)OCO2)N1CCCCC1
REMARK SMILES IDX 3 1 4 2 2 3 1 4 16 5 17 6 21 7 18 8 20 9 19 10 5 11 6 12
REMARK SMILES IDX 7 13 12 14 8 15 11 16 9 17 13 18 10 19 14 20 15 21
REMARK H PARENT
REMARK Flexibility Score: inf
ROOT
ATOM      1  C   UNL     1      62.722  84.324  75.842  1.00  0.00     0.071 C 
ATOM      2  C   UNL     1      63.914  84.915  75.881  1.00  0.00     0.006 C 
ENDROOT
BRANCH   1   3
ATOM      3  C   UNL     1      62.320  83.652  74.590  1.00  0.00     0.246 C 
ATOM      4  O   UNL     1      61.564  84.262  73.833  1.00  0.00    -0.270 OA
ATOM      5  N   UNL     1      62.819  82.372  74.351  1.00  0.00    -0.339 N 
ATOM      6  C   UNL     1      62.434  81.677  73.119  1.00  0.00     0.120 C 
ATOM      7  C   UNL     1      63.686  81.596  75.249  1.00  0.00     0.120 C 
ATOM      8  C   UNL     1      63.657  81.185  72.352  1.00  0.00     0.022 C 
ATOM      9  C   UNL     1      64.923  81.080  74.515  1.00  0.00     0.022 C 
ATOM     10  C   UNL     1      64.550  80.326  73.241  1.00  0.00     0.004 C 
ENDBRANCH   1   3
BRANCH   2  11
ATOM     11  C   UNL     1      64.395  85.600  77.063  1.00  0.00     0.001 C 
ATOM     12  C   UNL     1      65.695  85.648  77.395  1.00  0.00     0.008 C 
BRANCH  12  13
ATOM     13  C   UNL     1      66.237  86.322  78.587  1.00  0.00    -0.022 A 
ATOM     14  C   UNL     1      66.179  87.707  78.666  1.00  0.00     0.058 A 
ATOM     15  C   UNL     1      66.795  85.548  79.608  1.00  0.00     0.012 A 
ATOM     16  C   UNL     1      66.699  88.292  79.802  1.00  0.00     0.166 A 
ATOM     17  C   UNL     1      67.314  86.166  80.747  1.00  0.00     0.051 A 
ATOM     18  O   UNL     1      66.737  89.627  80.066  1.00  0.00    -0.454 OA
ATOM     19  C   UNL     1      67.251  87.543  80.816  1.00  0.00     0.165 A 
ATOM     20  C   UNL     1      67.376  89.633  81.359  1.00  0.00     0.468 C 
ATOM     21  O   UNL     1      67.705  88.314  81.841  1.00  0.00    -0.454 OA
ENDBRANCH  12  13
ENDBRANCH   2  11
TORSDOF 3
ENDMDL
MODEL 8
REMARK VINA RESULT:    -6.784     21.659     25.404
REMARK INTER + INTRA:          -8.358
REMARK INTER:                  -8.032
REMARK INTRA:                  -0.326
REMARK UNBOUND:                -0.384
REMARK SMILES O=C(/C=C/C=C/c1ccc2c(c1)OCO2)N1CCCCC1
REMARK SMILES IDX 3 1 4 2 2 3 1 4 16 5 17 6 21 7 18 8 20 9 19 10 5 11 6 12
REMARK SMILES IDX 7 13 12 14 8 15 11 16 9 17 13 18 10 19 14 20 15 21
REMARK H PARENT
REMARK Flexibility Score: inf
ROOT
ATOM      1  C   UNL     1      84.175  68.997  72.004  1.00  0.00     0.071 C 
ATOM      2  C   UNL     1      85.449  69.053  71.622  1.00  0.00     0.006 C 
ENDROOT
BRANCH   1   3
ATOM      3  C   UNL     1      83.738  67.832  72.800  1.00  0.00     0.246 C 
ATOM      4  O   UNL     1      84.250  67.678  73.909  1.00  0.00    -0.270 OA
ATOM      5  N   UNL     1      82.783  66.985  72.241  1.00  0.00    -0.339 N 
ATOM      6  C   UNL     1      82.334  65.817  73.006  1.00  0.00     0.120 C 
ATOM      7  C   UNL     1      82.184  67.112  70.905  1.00  0.00     0.120 C 
ATOM      8  C   UNL     1      80.814  65.777  73.120  1.00  0.00     0.022 C 
ATOM      9  C   UNL     1      80.657  67.072  70.976  1.00  0.00     0.022 C 
ATOM     10  C   UNL     1      80.160  65.850  71.743  1.00  0.00     0.004 C 
ENDBRANCH   1   3
BRANCH   2  11
ATOM     11  C   UNL     1      85.970  70.154  70.840  1.00  0.00     0.001 C 
ATOM     12  C   UNL     1      86.796  69.976  69.796  1.00  0.00     0.008 C 
BRANCH  12  13
ATOM     13  C   UNL     1      87.361  71.058  68.973  1.00  0.00    -0.022 A 
ATOM     14  C   UNL     1      88.558  71.647  69.359  1.00  0.00     0.058 A 
ATOM     15  C   UNL     1      86.677  71.464  67.824  1.00  0.00     0.012 A 
ATOM     16  C   UNL     1      89.047  72.656  68.555  1.00  0.00     0.166 A 
ATOM     17  C   UNL     1      87.195  72.488  67.029  1.00  0.00     0.051 A 
ATOM     18  O   UNL     1      90.197  73.355  68.763  1.00  0.00    -0.454 OA
ATOM     19  C   UNL     1      88.384  73.066  67.421  1.00  0.00     0.165 A 
ATOM     20  C   UNL     1      90.183  74.249  67.632  1.00  0.00     0.468 C 
ATOM     21  O   UNL     1      89.036  74.072  66.776  1.00  0.00    -0.454 OA
ENDBRANCH  12  13
ENDBRANCH   2  11
TORSDOF 3
ENDMDL
MODEL 9
REMARK VINA RESULT:    -6.640     12.308     13.064
REMARK INTER + INTRA:          -8.188
REMARK INTER:                  -7.845
REMARK INTRA:                  -0.343
REMARK UNBOUND:                -0.384
REMARK SMILES O=C(/C=C/C=C/c1ccc2c(c1)OCO2)N1CCCCC1
REMARK SMILES IDX 3 1 4 2 2 3 1 4 16 5 17 6 21 7 18 8 20 9 19 10 5 11 6 12
REMARK SMILES IDX 7 13 12 14 8 15 11 16 9 17 13 18 10 19 14 20 15 21
REMARK H PARENT
REMARK Flexibility Score: inf
ROOT
ATOM      1  C   UNL     1      98.584  82.034  79.910  1.00  0.00     0.071 C 
ATOM      2  C   UNL     1      97.329  82.004  80.355  1.00  0.00     0.006 C 
ENDROOT
BRANCH   1   3
ATOM      3  C   UNL     1      98.921  81.225  78.722  1.00  0.00     0.246 C 
ATOM      4  O   UNL     1      99.316  80.074  78.912  1.00  0.00    -0.270 OA
ATOM      5  N   UNL     1      98.773  81.817  77.469  1.00  0.00    -0.339 N 
ATOM      6  C   UNL     1      99.104  81.040  76.271  1.00  0.00     0.120 C 
ATOM      7  C   UNL     1      98.347  83.200  77.206  1.00  0.00     0.120 C 
ATOM      8  C   UNL     1      97.954  81.040  75.271  1.00  0.00     0.022 C 
ATOM      9  C   UNL     1      97.195  83.243  76.203  1.00  0.00     0.022 C 
ATOM     10  C   UNL     1      97.524  82.464  74.933  1.00  0.00     0.004 C 
ENDBRANCH   1   3
BRANCH   2  11
ATOM     11  C   UNL     1      96.904  82.763  81.511  1.00  0.00     0.001 C 
ATOM     12  C   UNL     1      97.334  82.495  82.755  1.00  0.00     0.008 C 
BRANCH  12  13
ATOM     13  C   UNL     1      96.928  83.229  83.965  1.00  0.00    -0.022 A 
ATOM     14  C   UNL     1      96.178  84.389  83.832  1.00  0.00     0.058 A 
ATOM     15  C   UNL     1      97.309  82.736  85.216  1.00  0.00     0.012 A 
ATOM     16  C   UNL     1      95.822  85.041  84.995  1.00  0.00     0.166 A 
ATOM     17  C   UNL     1      96.934  83.416  86.377  1.00  0.00     0.051 A 
ATOM     18  O   UNL     1      95.093  86.188  85.075  1.00  0.00    -0.454 OA
ATOM     19  C   UNL     1      96.189  84.567  86.233  1.00  0.00     0.165 A 
ATOM     20  C   UNL     1      95.044  86.383  86.503  1.00  0.00     0.468 C 
ATOM     21  O   UNL     1      95.737  85.358  87.245  1.00  0.00    -0.454 OA
ENDBRANCH  12  13
ENDBRANCH   2  11
TORSDOF 3
ENDMDL
MODEL 10
REMARK VINA RESULT:    -6.613      4.582      8.393
REMARK INTER + INTRA:          -8.157
REMARK INTER:                  -7.791
REMARK INTRA:                  -0.366
REMARK UNBOUND:                -0.384
REMARK SMILES O=C(/C=C/C=C/c1ccc2c(c1)OCO2)N1CCCCC1
REMARK SMILES IDX 3 1 4 2 2 3 1 4 16 5 17 6 21 7 18 8 20 9 19 10 5 11 6 12
REMARK SMILES IDX 7 13 12 14 8 15 11 16 9 17 13 18 10 19 14 20 15 21
REMARK H PARENT
REMARK Flexibility Score: inf
ROOT
ATOM      1  C   UNL     1      96.052  96.606  73.938  1.00  0.00     0.071 C 
ATOM      2  C   UNL     1      95.287  96.649  75.027  1.00  0.00     0.006 C 
ENDROOT
BRANCH   1   3
ATOM      3  C   UNL     1      96.705  97.854  73.498  1.00  0.00     0.246 C 
ATOM      4  O   UNL     1      97.661  98.260  74.160  1.00  0.00    -0.270 OA
ATOM      5  N   UNL     1      96.194  98.492  72.369  1.00  0.00    -0.339 N 
ATOM      6  C   UNL     1      96.819  99.737  71.911  1.00  0.00     0.120 C 
ATOM      7  C   UNL     1      95.029  98.064  71.581  1.00  0.00     0.120 C 
ATOM      8  C   UNL     1      97.198  99.661  70.436  1.00  0.00     0.022 C 
ATOM      9  C   UNL     1      95.368  97.978  70.093  1.00  0.00     0.022 C 
ATOM     10  C   UNL     1      95.994  99.273  69.582  1.00  0.00     0.004 C 
ENDBRANCH   1   3
BRANCH   2  11
ATOM     11  C   UNL     1      94.605  95.478  75.535  1.00  0.00     0.001 C 
ATOM     12  C   UNL     1      93.366  95.134  75.150  1.00  0.00     0.008 C 
BRANCH  12  13
ATOM     13  C   UNL     1      92.624  93.960  75.640  1.00  0.00    -0.022 A 
ATOM     14  C   UNL     1      92.469  92.862  74.805  1.00  0.00     0.058 A 
ATOM     15  C   UNL     1      92.096  93.984  76.934  1.00  0.00     0.012 A 
ATOM     16  C   UNL     1      91.767  91.786  75.310  1.00  0.00     0.166 A 
ATOM     17  C   UNL     1      91.389  92.881  77.419  1.00  0.00     0.051 A 
ATOM     18  O   UNL     1      91.507  90.623  74.651  1.00  0.00    -0.454 OA
ATOM     19  C   UNL     1      91.241  91.795  76.582  1.00  0.00     0.165 A 
ATOM     20  C   UNL     1      90.759  89.902  75.652  1.00  0.00     0.468 C 
ATOM     21  O   UNL     1      90.587  90.640  76.879  1.00  0.00    -0.454 OA
ENDBRANCH  12  13
ENDBRANCH   2  11
TORSDOF 3
ENDMDL
