MODEL 1
REMARK VINA RESULT:    -5.875      0.000      0.000
REMARK INTER + INTRA:         -11.166
REMARK INTER:                  -9.653
REMARK INTRA:                  -1.514
REMARK UNBOUND:                -1.514
REMARK SMILES CCCCC[C@H](O)CC(=O)CCc1ccc(O)c(OC)c1
REMARK SMILES IDX 8 1 6 2 7 3 5 5 4 6 3 7 2 8 1 9 9 10 10 11 11 12 12 13 13 14
REMARK SMILES IDX 21 15 14 16 18 17 15 18 16 19 19 20 20 21 17 22
REMARK H PARENT 7 4 17 23
REMARK Flexibility Score: inf
ROOT
ATOM      1  C   UNL     1      93.461  97.287  76.338  1.00  0.00     0.107 C 
ENDROOT
BRANCH   1   2
ATOM      2  C   UNL     1      92.617  96.014  76.442  1.00  0.00     0.121 C 
BRANCH   2   3
ATOM      3  O   UNL     1      93.445  94.869  76.254  1.00  0.00    -0.393 OA
ATOM      4  H   UNL     1      93.895  94.964  75.397  1.00  0.00     0.210 HD
ENDBRANCH   2   3
BRANCH   2   5
ATOM      5  C   UNL     1      91.880  95.891  77.781  1.00  0.00     0.032 C 
BRANCH   5   6
ATOM      6  C   UNL     1      90.361  95.790  77.595  1.00  0.00     0.003 C 
BRANCH   6   7
ATOM      7  C   UNL     1      89.828  94.360  77.727  1.00  0.00    -0.000 C 
BRANCH   7   8
ATOM      8  C   UNL     1      89.951  93.540  76.443  1.00  0.00    -0.003 C 
ATOM      9  C   UNL     1      91.053  92.497  76.556  1.00  0.00     0.004 C 
ENDBRANCH   7   8
ENDBRANCH   6   7
ENDBRANCH   5   6
ENDBRANCH   2   5
ENDBRANCH   1   2
BRANCH   1  10
ATOM     10  C   UNL     1      94.939  97.006  76.116  1.00  0.00     0.135 C 
ATOM     11  O   UNL     1      95.365  96.707  75.001  1.00  0.00    -0.300 OA
BRANCH  10  12
ATOM     12  C   UNL     1      95.851  97.158  77.324  1.00  0.00     0.080 C 
BRANCH  12  13
ATOM     13  C   UNL     1      95.123  97.614  78.590  1.00  0.00     0.043 C 
BRANCH  13  14
ATOM     14  C   UNL     1      95.208  96.610  79.715  1.00  0.00    -0.044 A 
ATOM     15  C   UNL     1      95.269  97.048  81.038  1.00  0.00     0.054 A 
ATOM     16  C   UNL     1      95.226  95.244  79.431  1.00  0.00     0.008 A 
ATOM     17  C   UNL     1      95.346  96.120  82.077  1.00  0.00     0.160 A 
ATOM     18  C   UNL     1      95.304  94.316  80.470  1.00  0.00     0.050 A 
ATOM     19  C   UNL     1      95.364  94.754  81.793  1.00  0.00     0.157 A 
BRANCH  17  20
ATOM     20  O   UNL     1      95.406  96.560  83.365  1.00  0.00    -0.493 OA
ATOM     21  C   UNL     1      95.952  97.860  83.582  1.00  0.00     0.278 C 
ENDBRANCH  17  20
BRANCH  19  22
ATOM     22  O   UNL     1      95.440  93.839  82.798  1.00  0.00    -0.504 OA
ATOM     23  H   UNL     1      95.607  94.302  83.637  1.00  0.00     0.293 HD
ENDBRANCH  19  22
ENDBRANCH  13  14
ENDBRANCH  12  13
ENDBRANCH  10  12
ENDBRANCH   1  10
TORSDOF 12
ENDMDL
MODEL 2
REMARK VINA RESULT:    -5.455     21.775     25.510
REMARK INTER + INTRA:         -10.477
REMARK INTER:                  -8.988
REMARK INTRA:                  -1.489
REMARK UNBOUND:                -1.514
REMARK SMILES CCCCC[C@H](O)CC(=O)CCc1ccc(O)c(OC)c1
REMARK SMILES IDX 8 1 6 2 7 3 5 5 4 6 3 7 2 8 1 9 9 10 10 11 11 12 12 13 13 14
REMARK SMILES IDX 21 15 14 16 18 17 15 18 16 19 19 20 20 21 17 22
REMARK H PARENT 7 4 17 23
REMARK Flexibility Score: inf
ROOT
ATOM      1  C   UNL     1      77.360  86.943  65.857  1.00  0.00     0.107 C 
ENDROOT
BRANCH   1   2
ATOM      2  C   UNL     1      76.928  87.279  67.286  1.00  0.00     0.121 C 
BRANCH   2   3
ATOM      3  O   UNL     1      75.723  86.586  67.603  1.00  0.00    -0.393 OA
ATOM      4  H   UNL     1      75.489  86.800  68.523  1.00  0.00     0.210 HD
ENDBRANCH   2   3
BRANCH   2   5
ATOM      5  C   UNL     1      77.997  86.936  68.332  1.00  0.00     0.032 C 
BRANCH   5   6
ATOM      6  C   UNL     1      77.381  86.580  69.690  1.00  0.00     0.003 C 
BRANCH   6   7
ATOM      7  C   UNL     1      77.730  85.164  70.162  1.00  0.00    -0.000 C 
BRANCH   7   8
ATOM      8  C   UNL     1      76.537  84.210  70.168  1.00  0.00    -0.003 C 
ATOM      9  C   UNL     1      75.856  84.182  71.527  1.00  0.00     0.004 C 
ENDBRANCH   7   8
ENDBRANCH   6   7
ENDBRANCH   5   6
ENDBRANCH   2   5
ENDBRANCH   1   2
BRANCH   1  10
ATOM     10  C   UNL     1      76.799  85.621  65.360  1.00  0.00     0.135 C 
ATOM     11  O   UNL     1      75.727  85.575  64.755  1.00  0.00    -0.300 OA
BRANCH  10  12
ATOM     12  C   UNL     1      77.647  84.384  65.609  1.00  0.00     0.080 C 
BRANCH  12  13
ATOM     13  C   UNL     1      77.036  83.412  66.619  1.00  0.00     0.043 C 
BRANCH  13  14
ATOM     14  C   UNL     1      75.903  82.594  66.044  1.00  0.00    -0.044 A 
ATOM     15  C   UNL     1      74.609  82.748  66.541  1.00  0.00     0.054 A 
ATOM     16  C   UNL     1      76.152  81.686  65.014  1.00  0.00     0.008 A 
ATOM     17  C   UNL     1      73.564  81.993  66.008  1.00  0.00     0.160 A 
ATOM     18  C   UNL     1      75.107  80.932  64.481  1.00  0.00     0.050 A 
ATOM     19  C   UNL     1      73.813  81.085  64.979  1.00  0.00     0.157 A 
BRANCH  17  20
ATOM     20  O   UNL     1      72.304  82.151  66.503  1.00  0.00    -0.493 OA
ATOM     21  C   UNL     1      71.552  83.261  66.018  1.00  0.00     0.278 C 
ENDBRANCH  17  20
BRANCH  19  22
ATOM     22  O   UNL     1      72.801  80.342  64.451  1.00  0.00    -0.504 OA
ATOM     23  H   UNL     1      71.988  80.877  64.441  1.00  0.00     0.293 HD
ENDBRANCH  19  22
ENDBRANCH  13  14
ENDBRANCH  12  13
ENDBRANCH  10  12
ENDBRANCH   1  10
TORSDOF 12
ENDMDL
MODEL 3
REMARK VINA RESULT:    -5.425      1.791      6.780
REMARK INTER + INTRA:         -10.428
REMARK INTER:                  -8.810
REMARK INTRA:                  -1.618
REMARK UNBOUND:                -1.514
REMARK SMILES CCCCC[C@H](O)CC(=O)CCc1ccc(O)c(OC)c1
REMARK SMILES IDX 8 1 6 2 7 3 5 5 4 6 3 7 2 8 1 9 9 10 10 11 11 12 12 13 13 14
REMARK SMILES IDX 21 15 14 16 18 17 15 18 16 19 19 20 20 21 17 22
REMARK H PARENT 7 4 17 23
REMARK Flexibility Score: inf
ROOT
ATOM      1  C   UNL     1      95.708  95.910  82.105  1.00  0.00     0.107 C 
ENDROOT
BRANCH   1   2
ATOM      2  C   UNL     1      97.140  96.303  82.476  1.00  0.00     0.121 C 
BRANCH   2   3
ATOM      3  O   UNL     1      97.632  95.434  83.494  1.00  0.00    -0.393 OA
ATOM      4  H   UNL     1      97.038  95.510  84.261  1.00  0.00     0.210 HD
ENDBRANCH   2   3
BRANCH   2   5
ATOM      5  C   UNL     1      98.099  96.271  81.280  1.00  0.00     0.032 C 
BRANCH   5   6
ATOM      6  C   UNL     1      98.072  97.582  80.484  1.00  0.00     0.003 C 
BRANCH   6   7
ATOM      7  C   UNL     1      97.142  97.534  79.267  1.00  0.00    -0.000 C 
BRANCH   7   8
ATOM      8  C   UNL     1      96.187  98.723  79.179  1.00  0.00    -0.003 C 
ATOM      9  C   UNL     1      95.892  99.091  77.733  1.00  0.00     0.004 C 
ENDBRANCH   7   8
ENDBRANCH   6   7
ENDBRANCH   5   6
ENDBRANCH   2   5
ENDBRANCH   1   2
BRANCH   1  10
ATOM     10  C   UNL     1      95.529  94.412  81.922  1.00  0.00     0.135 C 
ATOM     11  O   UNL     1      95.409  93.665  82.893  1.00  0.00    -0.300 OA
BRANCH  10  12
ATOM     12  C   UNL     1      95.464  93.903  80.490  1.00  0.00     0.080 C 
BRANCH  12  13
ATOM     13  C   UNL     1      94.038  93.699  79.975  1.00  0.00     0.043 C 
BRANCH  13  14
ATOM     14  C   UNL     1      93.685  94.617  78.829  1.00  0.00    -0.044 A 
ATOM     15  C   UNL     1      92.371  95.054  78.664  1.00  0.00     0.054 A 
ATOM     16  C   UNL     1      94.675  95.029  77.935  1.00  0.00     0.008 A 
ATOM     17  C   UNL     1      92.047  95.903  77.605  1.00  0.00     0.160 A 
ATOM     18  C   UNL     1      94.351  95.878  76.877  1.00  0.00     0.050 A 
ATOM     19  C   UNL     1      93.036  96.315  76.712  1.00  0.00     0.157 A 
BRANCH  17  20
ATOM     20  O   UNL     1      90.759  96.323  77.453  1.00  0.00    -0.493 OA
ATOM     21  C   UNL     1      89.747  95.318  77.438  1.00  0.00     0.278 C 
ENDBRANCH  17  20
BRANCH  19  22
ATOM     22  O   UNL     1      92.732  97.143  75.675  1.00  0.00    -0.504 OA
ATOM     23  H   UNL     1      93.449  97.791  75.566  1.00  0.00     0.293 HD
ENDBRANCH  19  22
ENDBRANCH  13  14
ENDBRANCH  12  13
ENDBRANCH  10  12
ENDBRANCH   1  10
TORSDOF 12
ENDMDL
MODEL 4
REMARK VINA RESULT:    -5.286     12.476     14.314
REMARK INTER + INTRA:         -10.199
REMARK INTER:                  -9.153
REMARK INTRA:                  -1.046
REMARK UNBOUND:                -1.514
REMARK SMILES CCCCC[C@H](O)CC(=O)CCc1ccc(O)c(OC)c1
REMARK SMILES IDX 8 1 6 2 7 3 5 5 4 6 3 7 2 8 1 9 9 10 10 11 11 12 12 13 13 14
REMARK SMILES IDX 21 15 14 16 18 17 15 18 16 19 19 20 20 21 17 22
REMARK H PARENT 7 4 17 23
REMARK Flexibility Score: inf
ROOT
ATOM      1  C   UNL     1      98.913  81.539  81.639  1.00  0.00     0.107 C 
ENDROOT
BRANCH   1   2
ATOM      2  C   UNL     1      98.567  82.851  80.931  1.00  0.00     0.121 C 
BRANCH   2   3
ATOM      3  O   UNL     1      99.585  83.817  81.180  1.00  0.00    -0.393 OA
ATOM      4  H   UNL     1      99.179  84.561  81.660  1.00  0.00     0.210 HD
ENDBRANCH   2   3
BRANCH   2   5
ATOM      5  C   UNL     1      98.387  82.687  79.417  1.00  0.00     0.032 C 
BRANCH   5   6
ATOM      6  C   UNL     1      97.391  83.702  78.842  1.00  0.00     0.003 C 
BRANCH   6   7
ATOM      7  C   UNL     1      97.531  83.897  77.329  1.00  0.00    -0.000 C 
BRANCH   7   8
ATOM      8  C   UNL     1      98.667  83.086  76.709  1.00  0.00    -0.003 C 
ATOM      9  C   UNL     1      99.722  83.992  76.092  1.00  0.00     0.004 C 
ENDBRANCH   7   8
ENDBRANCH   6   7
ENDBRANCH   5   6
ENDBRANCH   2   5
ENDBRANCH   1   2
BRANCH   1  10
ATOM     10  C   UNL     1      99.907  81.718  82.774  1.00  0.00     0.135 C 
ATOM     11  O   UNL     1     101.097  81.937  82.545  1.00  0.00    -0.300 OA
BRANCH  10  12
ATOM     12  C   UNL     1      99.347  81.658  84.187  1.00  0.00     0.080 C 
BRANCH  12  13
ATOM     13  C   UNL     1      97.819  81.642  84.243  1.00  0.00     0.043 C 
BRANCH  13  14
ATOM     14  C   UNL     1      97.235  82.895  84.851  1.00  0.00    -0.044 A 
ATOM     15  C   UNL     1      96.203  82.802  85.785  1.00  0.00     0.054 A 
ATOM     16  C   UNL     1      97.728  84.145  84.477  1.00  0.00     0.008 A 
ATOM     17  C   UNL     1      95.666  83.960  86.347  1.00  0.00     0.160 A 
ATOM     18  C   UNL     1      97.190  85.304  85.039  1.00  0.00     0.050 A 
ATOM     19  C   UNL     1      96.159  85.211  85.973  1.00  0.00     0.157 A 
BRANCH  17  20
ATOM     20  O   UNL     1      94.658  83.857  87.258  1.00  0.00    -0.493 OA
ATOM     21  C   UNL     1      95.020  83.477  88.584  1.00  0.00     0.278 C 
ENDBRANCH  17  20
BRANCH  19  22
ATOM     22  O   UNL     1      95.642  86.349  86.514  1.00  0.00    -0.504 OA
ATOM     23  H   UNL     1      96.252  87.087  86.343  1.00  0.00     0.293 HD
ENDBRANCH  19  22
ENDBRANCH  13  14
ENDBRANCH  12  13
ENDBRANCH  10  12
ENDBRANCH   1  10
TORSDOF 12
ENDMDL
MODEL 5
REMARK VINA RESULT:    -5.205      2.330      4.431
REMARK INTER + INTRA:         -10.065
REMARK INTER:                  -9.089
REMARK INTRA:                  -0.976
REMARK UNBOUND:                -1.514
REMARK SMILES CCCCC[C@H](O)CC(=O)CCc1ccc(O)c(OC)c1
REMARK SMILES IDX 8 1 6 2 7 3 5 5 4 6 3 7 2 8 1 9 9 10 10 11 11 12 12 13 13 14
REMARK SMILES IDX 21 15 14 16 18 17 15 18 16 19 19 20 20 21 17 22
REMARK H PARENT 7 4 17 23
REMARK Flexibility Score: inf
ROOT
ATOM      1  C   UNL     1      95.236  94.181  79.606  1.00  0.00     0.107 C 
ENDROOT
BRANCH   1   2
ATOM      2  C   UNL     1      93.847  94.356  78.986  1.00  0.00     0.121 C 
BRANCH   2   3
ATOM      3  O   UNL     1      92.857  93.815  79.857  1.00  0.00    -0.393 OA
ATOM      4  H   UNL     1      92.102  93.533  79.311  1.00  0.00     0.210 HD
ENDBRANCH   2   3
BRANCH   2   5
ATOM      5  C   UNL     1      93.506  95.820  78.681  1.00  0.00     0.032 C 
BRANCH   5   6
ATOM      6  C   UNL     1      93.066  96.018  77.225  1.00  0.00     0.003 C 
BRANCH   6   7
ATOM      7  C   UNL     1      91.761  95.293  76.882  1.00  0.00    -0.000 C 
BRANCH   7   8
ATOM      8  C   UNL     1      90.527  95.909  77.540  1.00  0.00    -0.003 C 
ATOM      9  C   UNL     1      89.297  95.039  77.336  1.00  0.00     0.004 C 
ENDBRANCH   7   8
ENDBRANCH   6   7
ENDBRANCH   5   6
ENDBRANCH   2   5
ENDBRANCH   1   2
BRANCH   1  10
ATOM     10  C   UNL     1      95.196  94.001  81.114  1.00  0.00     0.135 C 
ATOM     11  O   UNL     1      94.755  92.967  81.617  1.00  0.00    -0.300 OA
BRANCH  10  12
ATOM     12  C   UNL     1      95.767  95.135  81.952  1.00  0.00     0.080 C 
BRANCH  12  13
ATOM     13  C   UNL     1      94.920  96.408  81.922  1.00  0.00     0.043 C 
BRANCH  13  14
ATOM     14  C   UNL     1      95.528  97.543  82.711  1.00  0.00    -0.044 A 
ATOM     15  C   UNL     1      95.994  97.320  84.007  1.00  0.00     0.054 A 
ATOM     16  C   UNL     1      95.625  98.814  82.143  1.00  0.00     0.008 A 
ATOM     17  C   UNL     1      96.557  98.369  84.735  1.00  0.00     0.160 A 
ATOM     18  C   UNL     1      96.188  99.862  82.871  1.00  0.00     0.050 A 
ATOM     19  C   UNL     1      96.653  99.640  84.167  1.00  0.00     0.157 A 
BRANCH  17  20
ATOM     20  O   UNL     1      97.007  98.140  86.000  1.00  0.00    -0.493 OA
ATOM     21  C   UNL     1      96.031  98.108  87.040  1.00  0.00     0.278 C 
ENDBRANCH  17  20
BRANCH  19  22
ATOM     22  O   UNL     1      97.200 100.671  84.868  1.00  0.00    -0.504 OA
ATOM     23  H   UNL     1      96.797 101.505  84.572  1.00  0.00     0.293 HD
ENDBRANCH  19  22
ENDBRANCH  13  14
ENDBRANCH  12  13
ENDBRANCH  10  12
ENDBRANCH   1  10
TORSDOF 12
ENDMDL
MODEL 6
REMARK VINA RESULT:    -5.090     22.369     26.247
REMARK INTER + INTRA:          -9.877
REMARK INTER:                  -8.250
REMARK INTRA:                  -1.627
REMARK UNBOUND:                -1.514
REMARK SMILES CCCCC[C@H](O)CC(=O)CCc1ccc(O)c(OC)c1
REMARK SMILES IDX 8 1 6 2 7 3 5 5 4 6 3 7 2 8 1 9 9 10 10 11 11 12 12 13 13 14
REMARK SMILES IDX 21 15 14 16 18 17 15 18 16 19 19 20 20 21 17 22
REMARK H PARENT 7 4 17 23
REMARK Flexibility Score: inf
ROOT
ATOM      1  C   UNL     1      73.244  82.088  63.823  1.00  0.00     0.107 C 
ENDROOT
BRANCH   1   2
ATOM      2  C   UNL     1      71.998  81.359  64.331  1.00  0.00     0.121 C 
BRANCH   2   3
ATOM      3  O   UNL     1      72.383  80.234  65.118  1.00  0.00    -0.393 OA
ATOM      4  H   UNL     1      73.038  80.537  65.770  1.00  0.00     0.210 HD
ENDBRANCH   2   3
BRANCH   2   5
ATOM      5  C   UNL     1      71.070  82.259  65.157  1.00  0.00     0.032 C 
BRANCH   5   6
ATOM      6  C   UNL     1      71.772  83.543  65.616  1.00  0.00     0.003 C 
BRANCH   6   7
ATOM      7  C   UNL     1      72.097  83.554  67.114  1.00  0.00    -0.000 C 
BRANCH   7   8
ATOM      8  C   UNL     1      71.719  84.859  67.812  1.00  0.00    -0.003 C 
ATOM      9  C   UNL     1      72.894  85.431  68.591  1.00  0.00     0.004 C 
ENDBRANCH   7   8
ENDBRANCH   6   7
ENDBRANCH   5   6
ENDBRANCH   2   5
ENDBRANCH   1   2
BRANCH   1  10
ATOM     10  C   UNL     1      74.459  81.182  63.710  1.00  0.00     0.135 C 
ATOM     11  O   UNL     1      74.461  80.218  62.944  1.00  0.00    -0.300 OA
BRANCH  10  12
ATOM     12  C   UNL     1      75.670  81.558  64.550  1.00  0.00     0.080 C 
BRANCH  12  13
ATOM     13  C   UNL     1      75.365  81.695  66.043  1.00  0.00     0.043 C 
BRANCH  13  14
ATOM     14  C   UNL     1      76.273  82.675  66.745  1.00  0.00    -0.044 A 
ATOM     15  C   UNL     1      75.829  83.346  67.884  1.00  0.00     0.054 A 
ATOM     16  C   UNL     1      77.558  82.910  66.254  1.00  0.00     0.008 A 
ATOM     17  C   UNL     1      76.669  84.251  68.533  1.00  0.00     0.160 A 
ATOM     18  C   UNL     1      78.399  83.815  66.903  1.00  0.00     0.050 A 
ATOM     19  C   UNL     1      77.954  84.485  68.042  1.00  0.00     0.157 A 
BRANCH  17  20
ATOM     20  O   UNL     1      76.224  84.901  69.644  1.00  0.00    -0.493 OA
ATOM     21  C   UNL     1      76.320  84.204  70.885  1.00  0.00     0.278 C 
ENDBRANCH  17  20
BRANCH  19  22
ATOM     22  O   UNL     1      78.784  85.367  68.666  1.00  0.00    -0.504 OA
ATOM     23  H   UNL     1      79.191  85.945  67.999  1.00  0.00     0.293 HD
ENDBRANCH  19  22
ENDBRANCH  13  14
ENDBRANCH  12  13
ENDBRANCH  10  12
ENDBRANCH   1  10
TORSDOF 12
ENDMDL
MODEL 7
REMARK VINA RESULT:    -5.079     13.106     14.700
REMARK INTER + INTRA:          -9.858
REMARK INTER:                  -8.812
REMARK INTRA:                  -1.046
REMARK UNBOUND:                -1.514
REMARK SMILES CCCCC[C@H](O)CC(=O)CCc1ccc(O)c(OC)c1
REMARK SMILES IDX 8 1 6 2 7 3 5 5 4 6 3 7 2 8 1 9 9 10 10 11 11 12 12 13 13 14
REMARK SMILES IDX 21 15 14 16 18 17 15 18 16 19 19 20 20 21 17 22
REMARK H PARENT 7 4 17 23
REMARK Flexibility Score: inf
ROOT
ATOM      1  C   UNL     1      99.347  81.301  81.064  1.00  0.00     0.107 C 
ENDROOT
BRANCH   1   2
ATOM      2  C   UNL     1      98.725  82.638  80.652  1.00  0.00     0.121 C 
BRANCH   2   3
ATOM      3  O   UNL     1      99.490  83.714  81.192  1.00  0.00    -0.393 OA
ATOM      4  H   UNL     1     100.423  83.561  80.959  1.00  0.00     0.210 HD
ENDBRANCH   2   3
BRANCH   2   5
ATOM      5  C   UNL     1      98.618  82.808  79.132  1.00  0.00     0.032 C 
BRANCH   5   6
ATOM      6  C   UNL     1      99.994  82.957  78.470  1.00  0.00     0.003 C 
BRANCH   6   7
ATOM      7  C   UNL     1      99.918  83.410  77.009  1.00  0.00    -0.000 C 
BRANCH   7   8
ATOM      8  C   UNL     1      98.531  83.248  76.389  1.00  0.00    -0.003 C 
ATOM      9  C   UNL     1      98.395  81.912  75.676  1.00  0.00     0.004 C 
ENDBRANCH   7   8
ENDBRANCH   6   7
ENDBRANCH   5   6
ENDBRANCH   2   5
ENDBRANCH   1   2
BRANCH   1  10
ATOM     10  C   UNL     1     100.413  81.446  82.138  1.00  0.00     0.135 C 
ATOM     11  O   UNL     1     101.486  81.997  81.894  1.00  0.00    -0.300 OA
BRANCH  10  12
ATOM     12  C   UNL     1     100.062  80.919  83.521  1.00  0.00     0.080 C 
BRANCH  12  13
ATOM     13  C   UNL     1      98.577  81.036  83.866  1.00  0.00     0.043 C 
BRANCH  13  14
ATOM     14  C   UNL     1      98.212  82.374  84.465  1.00  0.00    -0.044 A 
ATOM     15  C   UNL     1      98.730  82.747  85.705  1.00  0.00     0.054 A 
ATOM     16  C   UNL     1      97.358  83.236  83.778  1.00  0.00     0.008 A 
ATOM     17  C   UNL     1      98.394  83.983  86.257  1.00  0.00     0.160 A 
ATOM     18  C   UNL     1      97.021  84.472  84.330  1.00  0.00     0.050 A 
ATOM     19  C   UNL     1      97.539  84.845  85.570  1.00  0.00     0.157 A 
BRANCH  17  20
ATOM     20  O   UNL     1      98.905  84.337  87.470  1.00  0.00    -0.493 OA
ATOM     21  C   UNL     1     100.326  84.362  87.591  1.00  0.00     0.278 C 
ENDBRANCH  17  20
BRANCH  19  22
ATOM     22  O   UNL     1      97.203  86.055  86.099  1.00  0.00    -0.504 OA
ATOM     23  H   UNL     1      96.822  86.612  85.399  1.00  0.00     0.293 HD
ENDBRANCH  19  22
ENDBRANCH  13  14
ENDBRANCH  12  13
ENDBRANCH  10  12
ENDBRANCH   1  10
TORSDOF 12
ENDMDL
MODEL 8
REMARK VINA RESULT:    -5.044      2.543      5.042
REMARK INTER + INTRA:          -9.802
REMARK INTER:                  -8.431
REMARK INTRA:                  -1.371
REMARK UNBOUND:                -1.514
REMARK SMILES CCCCC[C@H](O)CC(=O)CCc1ccc(O)c(OC)c1
REMARK SMILES IDX 8 1 6 2 7 3 5 5 4 6 3 7 2 8 1 9 9 10 10 11 11 12 12 13 13 14
REMARK SMILES IDX 21 15 14 16 18 17 15 18 16 19 19 20 20 21 17 22
REMARK H PARENT 7 4 17 23
REMARK Flexibility Score: inf
ROOT
ATOM      1  C   UNL     1      95.896  94.602  80.577  1.00  0.00     0.107 C 
ENDROOT
BRANCH   1   2
ATOM      2  C   UNL     1      94.844  93.909  79.708  1.00  0.00     0.121 C 
BRANCH   2   3
ATOM      3  O   UNL     1      93.675  93.646  80.481  1.00  0.00    -0.393 OA
ATOM      4  H   UNL     1      93.177  92.938  80.036  1.00  0.00     0.210 HD
ENDBRANCH   2   3
BRANCH   2   5
ATOM      5  C   UNL     1      94.456  94.726  78.469  1.00  0.00     0.032 C 
BRANCH   5   6
ATOM      6  C   UNL     1      93.280  95.669  78.745  1.00  0.00     0.003 C 
BRANCH   6   7
ATOM      7  C   UNL     1      92.517  96.075  77.480  1.00  0.00    -0.000 C 
BRANCH   7   8
ATOM      8  C   UNL     1      90.999  96.028  77.638  1.00  0.00    -0.003 C 
ATOM      9  C   UNL     1      90.518  94.621  77.961  1.00  0.00     0.004 C 
ENDBRANCH   7   8
ENDBRANCH   6   7
ENDBRANCH   5   6
ENDBRANCH   2   5
ENDBRANCH   1   2
BRANCH   1  10
ATOM     10  C   UNL     1      95.555  94.579  82.058  1.00  0.00     0.135 C 
ATOM     11  O   UNL     1      95.317  93.519  82.636  1.00  0.00    -0.300 OA
BRANCH  10  12
ATOM     12  C   UNL     1      95.569  95.917  82.781  1.00  0.00     0.080 C 
BRANCH  12  13
ATOM     13  C   UNL     1      94.620  96.953  82.177  1.00  0.00     0.043 C 
BRANCH  13  14
ATOM     14  C   UNL     1      95.307  98.252  81.828  1.00  0.00    -0.044 A 
ATOM     15  C   UNL     1      95.967  98.387  80.607  1.00  0.00     0.054 A 
ATOM     16  C   UNL     1      95.279  99.318  82.728  1.00  0.00     0.008 A 
ATOM     17  C   UNL     1      96.600  99.588  80.286  1.00  0.00     0.160 A 
ATOM     18  C   UNL     1      95.912 100.519  82.407  1.00  0.00     0.050 A 
ATOM     19  C   UNL     1      96.573 100.654  81.186  1.00  0.00     0.157 A 
BRANCH  17  20
ATOM     20  O   UNL     1      97.243  99.707  79.091  1.00  0.00    -0.493 OA
ATOM     21  C   UNL     1      98.404  98.902  78.896  1.00  0.00     0.278 C 
ENDBRANCH  17  20
BRANCH  19  22
ATOM     22  O   UNL     1      97.188 101.831  80.884  1.00  0.00    -0.504 OA
ATOM     23  H   UNL     1      97.150 102.416  81.660  1.00  0.00     0.293 HD
ENDBRANCH  19  22
ENDBRANCH  13  14
ENDBRANCH  12  13
ENDBRANCH  10  12
ENDBRANCH   1  10
TORSDOF 12
ENDMDL
MODEL 9
REMARK VINA RESULT:    -4.958     22.374     26.046
REMARK INTER + INTRA:          -9.660
REMARK INTER:                  -8.001
REMARK INTRA:                  -1.659
REMARK UNBOUND:                -1.514
REMARK SMILES CCCCC[C@H](O)CC(=O)CCc1ccc(O)c(OC)c1
REMARK SMILES IDX 8 1 6 2 7 3 5 5 4 6 3 7 2 8 1 9 9 10 10 11 11 12 12 13 13 14
REMARK SMILES IDX 21 15 14 16 18 17 15 18 16 19 19 20 20 21 17 22
REMARK H PARENT 7 4 17 23
REMARK Flexibility Score: inf
ROOT
ATOM      1  C   UNL     1      76.918  87.132  64.711  1.00  0.00     0.107 C 
ENDROOT
BRANCH   1   2
ATOM      2  C   UNL     1      76.118  87.485  65.968  1.00  0.00     0.121 C 
BRANCH   2   3
ATOM      3  O   UNL     1      75.301  86.379  66.347  1.00  0.00    -0.393 OA
ATOM      4  H   UNL     1      74.869  86.039  65.544  1.00  0.00     0.210 HD
ENDBRANCH   2   3
BRANCH   2   5
ATOM      5  C   UNL     1      77.007  87.885  67.152  1.00  0.00     0.032 C 
BRANCH   5   6
ATOM      6  C   UNL     1      77.160  86.747  68.169  1.00  0.00     0.003 C 
BRANCH   6   7
ATOM      7  C   UNL     1      78.368  85.846  67.893  1.00  0.00    -0.000 C 
BRANCH   7   8
ATOM      8  C   UNL     1      78.066  84.356  68.039  1.00  0.00    -0.003 C 
ATOM      9  C   UNL     1      77.053  84.102  69.145  1.00  0.00     0.004 C 
ENDBRANCH   7   8
ENDBRANCH   6   7
ENDBRANCH   5   6
ENDBRANCH   2   5
ENDBRANCH   1   2
BRANCH   1  10
ATOM     10  C   UNL     1      76.158  86.226  63.757  1.00  0.00     0.135 C 
ATOM     11  O   UNL     1      75.009  86.496  63.407  1.00  0.00    -0.300 OA
BRANCH  10  12
ATOM     12  C   UNL     1      76.905  85.010  63.231  1.00  0.00     0.080 C 
BRANCH  12  13
ATOM     13  C   UNL     1      77.278  84.000  64.318  1.00  0.00     0.043 C 
BRANCH  13  14
ATOM     14  C   UNL     1      76.194  82.981  64.577  1.00  0.00    -0.044 A 
ATOM     15  C   UNL     1      75.186  82.779  63.633  1.00  0.00     0.054 A 
ATOM     16  C   UNL     1      76.200  82.242  65.760  1.00  0.00     0.008 A 
ATOM     17  C   UNL     1      74.186  81.836  63.873  1.00  0.00     0.160 A 
ATOM     18  C   UNL     1      75.200  81.299  66.000  1.00  0.00     0.050 A 
ATOM     19  C   UNL     1      74.193  81.097  65.056  1.00  0.00     0.157 A 
BRANCH  17  20
ATOM     20  O   UNL     1      73.207  81.648  62.944  1.00  0.00    -0.493 OA
ATOM     21  C   UNL     1      72.131  82.584  62.938  1.00  0.00     0.278 C 
ENDBRANCH  17  20
BRANCH  19  22
ATOM     22  O   UNL     1      73.221  80.175  65.302  1.00  0.00    -0.504 OA
ATOM     23  H   UNL     1      72.378  80.635  65.454  1.00  0.00     0.293 HD
ENDBRANCH  19  22
ENDBRANCH  13  14
ENDBRANCH  12  13
ENDBRANCH  10  12
ENDBRANCH   1  10
TORSDOF 12
ENDMDL
MODEL 10
REMARK VINA RESULT:    -4.865      2.567      5.052
REMARK INTER + INTRA:          -9.506
REMARK INTER:                  -7.929
REMARK INTRA:                  -1.578
REMARK UNBOUND:                -1.514
REMARK SMILES CCCCC[C@H](O)CC(=O)CCc1ccc(O)c(OC)c1
REMARK SMILES IDX 8 1 6 2 7 3 5 5 4 6 3 7 2 8 1 9 9 10 10 11 11 12 12 13 13 14
REMARK SMILES IDX 21 15 14 16 18 17 15 18 16 19 19 20 20 21 17 22
REMARK H PARENT 7 4 17 23
REMARK Flexibility Score: inf
ROOT
ATOM      1  C   UNL     1      95.828  94.250  80.836  1.00  0.00     0.107 C 
ENDROOT
BRANCH   1   2
ATOM      2  C   UNL     1      94.678  93.336  80.404  1.00  0.00     0.121 C 
BRANCH   2   3
ATOM      3  O   UNL     1      94.061  92.759  81.552  1.00  0.00    -0.393 OA
ATOM      4  H   UNL     1      94.308  93.298  82.324  1.00  0.00     0.210 HD
ENDBRANCH   2   3
BRANCH   2   5
ATOM      5  C   UNL     1      93.615  94.062  79.570  1.00  0.00     0.032 C 
BRANCH   5   6
ATOM      6  C   UNL     1      94.135  94.446  78.180  1.00  0.00     0.003 C 
BRANCH   6   7
ATOM      7  C   UNL     1      93.227  95.436  77.444  1.00  0.00    -0.000 C 
BRANCH   7   8
ATOM      8  C   UNL     1      93.781  95.890  76.095  1.00  0.00    -0.003 C 
ATOM      9  C   UNL     1      93.317  97.296  75.749  1.00  0.00     0.004 C 
ENDBRANCH   7   8
ENDBRANCH   6   7
ENDBRANCH   5   6
ENDBRANCH   2   5
ENDBRANCH   1   2
BRANCH   1  10
ATOM     10  C   UNL     1      95.770  94.624  82.308  1.00  0.00     0.135 C 
ATOM     11  O   UNL     1      95.937  93.775  83.184  1.00  0.00    -0.300 OA
BRANCH  10  12
ATOM     12  C   UNL     1      95.544  96.093  82.630  1.00  0.00     0.080 C 
BRANCH  12  13
ATOM     13  C   UNL     1      94.823  96.862  81.521  1.00  0.00     0.043 C 
BRANCH  13  14
ATOM     14  C   UNL     1      95.768  97.585  80.592  1.00  0.00    -0.044 A 
ATOM     15  C   UNL     1      96.844  98.305  81.111  1.00  0.00     0.054 A 
ATOM     16  C   UNL     1      95.564  97.533  79.212  1.00  0.00     0.008 A 
ATOM     17  C   UNL     1      97.717  98.972  80.252  1.00  0.00     0.160 A 
ATOM     18  C   UNL     1      96.437  98.200  78.352  1.00  0.00     0.050 A 
ATOM     19  C   UNL     1      97.513  98.919  78.872  1.00  0.00     0.157 A 
BRANCH  17  20
ATOM     20  O   UNL     1      98.763  99.672  80.771  1.00  0.00    -0.493 OA
ATOM     21  C   UNL     1      99.887  98.918  81.223  1.00  0.00     0.278 C 
ENDBRANCH  17  20
BRANCH  19  22
ATOM     22  O   UNL     1      98.359  99.567  78.023  1.00  0.00    -0.504 OA
ATOM     23  H   UNL     1      98.009  99.502  77.117  1.00  0.00     0.293 HD
ENDBRANCH  19  22
ENDBRANCH  13  14
ENDBRANCH  12  13
ENDBRANCH  10  12
ENDBRANCH   1  10
TORSDOF 12
ENDMDL
