MODEL 1
REMARK VINA RESULT:    -6.473      0.000      0.000
REMARK INTER + INTRA:         -11.640
REMARK INTER:                 -10.446
REMARK INTRA:                  -1.193
REMARK UNBOUND:                -1.193
REMARK SMILES COc1cc(CNC(=O)CCCCC/C=C/C(C)C)ccc1O
REMARK SMILES IDX 11 1 10 2 8 3 7 4 9 6 6 7 5 8 3 9 22 10 4 11 21 12 20 13
REMARK SMILES IDX 2 14 1 15 23 16 12 18 13 19 14 20 15 21 16 22 17 23 18 24
REMARK SMILES IDX 19 25
REMARK H PARENT 7 5 23 17
REMARK Flexibility Score: inf
ROOT
ATOM      1  C   UNL     1      93.678  97.429  75.698  1.00  0.00     0.010 C 
ENDROOT
BRANCH   1   2
ATOM      2  C   UNL     1      94.615  98.663  75.648  1.00  0.00     0.100 C 
BRANCH   2   3
ATOM      3  C   UNL     1      95.789  98.561  76.535  1.00  0.00     0.220 C 
ATOM      4  N   UNL     1      95.613  98.437  77.880  1.00  0.00    -0.352 N 
ATOM      5  H   UNL     1      94.652  98.499  78.187  1.00  0.00     0.163 HD
ATOM      6  O   UNL     1      96.930  98.551  76.015  1.00  0.00    -0.275 OA
BRANCH   4   7
ATOM      7  C   UNL     1      96.652  98.234  78.837  1.00  0.00     0.151 C 
BRANCH   7   8
ATOM      8  C   UNL     1      96.162  97.591  80.084  1.00  0.00    -0.025 A 
ATOM      9  C   UNL     1      95.632  95.568  81.379  1.00  0.00     0.160 A 
ATOM     10  C   UNL     1      95.177  96.372  82.447  1.00  0.00     0.157 A 
ATOM     11  C   UNL     1      96.112  96.182  80.204  1.00  0.00     0.056 A 
ATOM     12  C   UNL     1      95.238  97.774  82.345  1.00  0.00     0.050 A 
ATOM     13  C   UNL     1      95.737  98.379  81.177  1.00  0.00     0.009 A 
BRANCH   9  14
ATOM     14  O   UNL     1      95.659  94.204  81.502  1.00  0.00    -0.493 OA
ATOM     15  C   UNL     1      95.109  93.502  80.374  1.00  0.00     0.278 C 
ENDBRANCH   9  14
BRANCH  10  16
ATOM     16  O   UNL     1      94.681  95.821  83.583  1.00  0.00    -0.504 OA
ATOM     17  H   UNL     1      95.081  94.959  83.720  1.00  0.00     0.293 HD
ENDBRANCH  10  16
ENDBRANCH   7   8
ENDBRANCH   4   7
ENDBRANCH   2   3
ENDBRANCH   1   2
BRANCH   1  18
ATOM     18  C   UNL     1      94.484  96.109  75.595  1.00  0.00     0.001 C 
BRANCH  18  19
ATOM     19  C   UNL     1      94.405  95.229  76.868  1.00  0.00     0.004 C 
BRANCH  19  20
ATOM     20  C   UNL     1      93.240  95.676  77.794  1.00  0.00     0.027 C 
BRANCH  20  21
ATOM     21  C   UNL     1      91.944  95.152  77.397  1.00  0.00    -0.031 C 
ATOM     22  C   UNL     1      91.004  94.803  78.294  1.00  0.00    -0.028 C 
BRANCH  22  23
ATOM     23  C   UNL     1      89.691  94.279  77.928  1.00  0.00     0.005 C 
ATOM     24  C   UNL     1      89.544  94.228  76.384  1.00  0.00     0.012 C 
ATOM     25  C   UNL     1      89.464  92.891  78.587  1.00  0.00     0.012 C 
ENDBRANCH  22  23
ENDBRANCH  20  21
ENDBRANCH  19  20
ENDBRANCH  18  19
ENDBRANCH   1  18
TORSDOF 11
ENDMDL
MODEL 2
REMARK VINA RESULT:    -6.097      6.006      9.512
REMARK INTER + INTRA:         -11.033
REMARK INTER:                 -10.139
REMARK INTRA:                  -0.894
REMARK UNBOUND:                -1.193
REMARK SMILES COc1cc(CNC(=O)CCCCC/C=C/C(C)C)ccc1O
REMARK SMILES IDX 11 1 10 2 8 3 7 4 9 6 6 7 5 8 3 9 22 10 4 11 21 12 20 13
REMARK SMILES IDX 2 14 1 15 23 16 12 18 13 19 14 20 15 21 16 22 17 23 18 24
REMARK SMILES IDX 19 25
REMARK H PARENT 7 5 23 17
REMARK Flexibility Score: inf
ROOT
ATOM      1  C   UNL     1      94.664  99.425  75.255  1.00  0.00     0.010 C 
ENDROOT
BRANCH   1   2
ATOM      2  C   UNL     1      93.147  99.470  74.936  1.00  0.00     0.100 C 
BRANCH   2   3
ATOM      3  C   UNL     1      92.805 100.288  73.757  1.00  0.00     0.220 C 
ATOM      4  N   UNL     1      91.807  99.888  72.921  1.00  0.00    -0.352 N 
ATOM      5  H   UNL     1      91.408  98.987  73.142  1.00  0.00     0.163 HD
ATOM      6  O   UNL     1      93.425 101.363  73.578  1.00  0.00    -0.275 OA
BRANCH   4   7
ATOM      7  C   UNL     1      91.313 100.629  71.807  1.00  0.00     0.151 C 
BRANCH   7   8
ATOM      8  C   UNL     1      90.413  99.825  70.940  1.00  0.00    -0.025 A 
ATOM      9  C   UNL     1      88.888  99.656  69.017  1.00  0.00     0.160 A 
ATOM     10  C   UNL     1      88.655  98.298  69.322  1.00  0.00     0.157 A 
ATOM     11  C   UNL     1      89.757 100.411  69.832  1.00  0.00     0.056 A 
ATOM     12  C   UNL     1      89.315  97.700  70.411  1.00  0.00     0.050 A 
ATOM     13  C   UNL     1      90.196  98.455  71.208  1.00  0.00     0.009 A 
BRANCH   9  14
ATOM     14  O   UNL     1      88.320 100.225  67.908  1.00  0.00    -0.493 OA
ATOM     15  C   UNL     1      88.488 101.650  67.826  1.00  0.00     0.278 C 
ENDBRANCH   9  14
BRANCH  10  16
ATOM     16  O   UNL     1      87.805  97.544  68.580  1.00  0.00    -0.504 OA
ATOM     17  H   UNL     1      86.899  97.785  68.790  1.00  0.00     0.293 HD
ENDBRANCH  10  16
ENDBRANCH   7   8
ENDBRANCH   4   7
ENDBRANCH   2   3
ENDBRANCH   1   2
BRANCH   1  18
ATOM     18  C   UNL     1      95.396  98.403  74.349  1.00  0.00     0.001 C 
BRANCH  18  19
ATOM     19  C   UNL     1      95.525  96.993  74.978  1.00  0.00     0.004 C 
BRANCH  19  20
ATOM     20  C   UNL     1      94.851  96.933  76.377  1.00  0.00     0.027 C 
BRANCH  20  21
ATOM     21  C   UNL     1      93.833  95.902  76.492  1.00  0.00    -0.031 C 
ATOM     22  C   UNL     1      92.521  96.191  76.557  1.00  0.00    -0.028 C 
BRANCH  22  23
ATOM     23  C   UNL     1      91.474  95.179  76.668  1.00  0.00     0.005 C 
ATOM     24  C   UNL     1      92.102  93.774  76.867  1.00  0.00     0.012 C 
ATOM     25  C   UNL     1      90.486  95.550  77.807  1.00  0.00     0.012 C 
ENDBRANCH  22  23
ENDBRANCH  20  21
ENDBRANCH  19  20
ENDBRANCH  18  19
ENDBRANCH   1  18
TORSDOF 11
ENDMDL
MODEL 3
REMARK VINA RESULT:    -5.950     22.215     25.941
REMARK INTER + INTRA:         -10.796
REMARK INTER:                  -9.695
REMARK INTRA:                  -1.101
REMARK UNBOUND:                -1.193
REMARK SMILES COc1cc(CNC(=O)CCCCC/C=C/C(C)C)ccc1O
REMARK SMILES IDX 11 1 10 2 8 3 7 4 9 6 6 7 5 8 3 9 22 10 4 11 21 12 20 13
REMARK SMILES IDX 2 14 1 15 23 16 12 18 13 19 14 20 15 21 16 22 17 23 18 24
REMARK SMILES IDX 19 25
REMARK H PARENT 7 5 23 17
REMARK Flexibility Score: inf
ROOT
ATOM      1  C   UNL     1      76.009  80.950  63.661  1.00  0.00     0.010 C 
ENDROOT
BRANCH   1   2
ATOM      2  C   UNL     1      75.927  81.541  65.092  1.00  0.00     0.100 C 
BRANCH   2   3
ATOM      3  C   UNL     1      76.803  82.707  65.310  1.00  0.00     0.220 C 
ATOM      4  N   UNL     1      77.477  82.838  66.486  1.00  0.00    -0.352 N 
ATOM      5  H   UNL     1      77.261  82.133  67.177  1.00  0.00     0.163 HD
ATOM      6  O   UNL     1      76.935  83.536  64.379  1.00  0.00    -0.275 OA
BRANCH   4   7
ATOM      7  C   UNL     1      78.425  83.860  66.789  1.00  0.00     0.151 C 
BRANCH   7   8
ATOM      8  C   UNL     1      77.858  84.931  67.649  1.00  0.00    -0.025 A 
ATOM      9  C   UNL     1      76.556  85.626  69.617  1.00  0.00     0.160 A 
ATOM     10  C   UNL     1      76.732  86.979  69.254  1.00  0.00     0.157 A 
ATOM     11  C   UNL     1      77.112  84.613  68.808  1.00  0.00     0.056 A 
ATOM     12  C   UNL     1      77.486  87.307  68.113  1.00  0.00     0.050 A 
ATOM     13  C   UNL     1      78.054  86.291  67.322  1.00  0.00     0.009 A 
BRANCH   9  14
ATOM     14  O   UNL     1      75.899  85.298  70.773  1.00  0.00    -0.493 OA
ATOM     15  C   UNL     1      76.143  83.957  71.228  1.00  0.00     0.278 C 
ENDBRANCH   9  14
BRANCH  10  16
ATOM     16  O   UNL     1      76.189  87.982  69.990  1.00  0.00    -0.504 OA
ATOM     17  H   UNL     1      76.891  88.481  70.415  1.00  0.00     0.293 HD
ENDBRANCH  10  16
ENDBRANCH   7   8
ENDBRANCH   4   7
ENDBRANCH   2   3
ENDBRANCH   1   2
BRANCH   1  18
ATOM     18  C   UNL     1      74.636  81.025  62.945  1.00  0.00     0.001 C 
BRANCH  18  19
ATOM     19  C   UNL     1      73.477  80.390  63.753  1.00  0.00     0.004 C 
BRANCH  19  20
ATOM     20  C   UNL     1      72.126  81.103  63.464  1.00  0.00     0.027 C 
BRANCH  20  21
ATOM     21  C   UNL     1      71.788  82.130  64.435  1.00  0.00    -0.031 C 
ATOM     22  C   UNL     1      71.740  81.882  65.756  1.00  0.00    -0.028 C 
BRANCH  22  23
ATOM     23  C   UNL     1      71.409  82.893  66.757  1.00  0.00     0.005 C 
ATOM     24  C   UNL     1      71.239  84.281  66.085  1.00  0.00     0.012 C 
ATOM     25  C   UNL     1      70.146  82.465  67.554  1.00  0.00     0.012 C 
ENDBRANCH  22  23
ENDBRANCH  20  21
ENDBRANCH  19  20
ENDBRANCH  18  19
ENDBRANCH   1  18
TORSDOF 11
ENDMDL
MODEL 4
REMARK VINA RESULT:    -5.882     22.184     26.064
REMARK INTER + INTRA:         -10.686
REMARK INTER:                  -8.101
REMARK INTRA:                  -2.585
REMARK UNBOUND:                -1.193
REMARK SMILES COc1cc(CNC(=O)CCCCC/C=C/C(C)C)ccc1O
REMARK SMILES IDX 11 1 10 2 8 3 7 4 9 6 6 7 5 8 3 9 22 10 4 11 21 12 20 13
REMARK SMILES IDX 2 14 1 15 23 16 12 18 13 19 14 20 15 21 16 22 17 23 18 24
REMARK SMILES IDX 19 25
REMARK H PARENT 7 5 23 17
REMARK Flexibility Score: inf
ROOT
ATOM      1  C   UNL     1      76.722  87.543  68.434  1.00  0.00     0.010 C 
ENDROOT
BRANCH   1   2
ATOM      2  C   UNL     1      77.496  87.330  67.108  1.00  0.00     0.100 C 
BRANCH   2   3
ATOM      3  C   UNL     1      76.629  87.132  65.931  1.00  0.00     0.220 C 
ATOM      4  N   UNL     1      75.316  86.815  66.103  1.00  0.00    -0.352 N 
ATOM      5  H   UNL     1      75.041  86.663  67.063  1.00  0.00     0.163 HD
ATOM      6  O   UNL     1      77.123  87.302  64.792  1.00  0.00    -0.275 OA
BRANCH   4   7
ATOM      7  C   UNL     1      74.349  86.691  65.060  1.00  0.00     0.151 C 
BRANCH   7   8
ATOM      8  C   UNL     1      74.035  85.275  64.737  1.00  0.00    -0.025 A 
ATOM      9  C   UNL     1      73.175  83.071  65.410  1.00  0.00     0.160 A 
ATOM     10  C   UNL     1      73.486  82.561  64.130  1.00  0.00     0.157 A 
ATOM     11  C   UNL     1      73.460  84.420  65.706  1.00  0.00     0.056 A 
ATOM     12  C   UNL     1      74.043  83.407  63.154  1.00  0.00     0.050 A 
ATOM     13  C   UNL     1      74.305  84.757  63.451  1.00  0.00     0.009 A 
BRANCH   9  14
ATOM     14  O   UNL     1      72.553  82.280  66.338  1.00  0.00    -0.493 OA
ATOM     15  C   UNL     1      71.335  82.834  66.862  1.00  0.00     0.278 C 
ENDBRANCH   9  14
BRANCH  10  16
ATOM     16  O   UNL     1      73.255  81.262  63.814  1.00  0.00    -0.504 OA
ATOM     17  H   UNL     1      74.093  80.803  63.717  1.00  0.00     0.293 HD
ENDBRANCH  10  16
ENDBRANCH   7   8
ENDBRANCH   4   7
ENDBRANCH   2   3
ENDBRANCH   1   2
BRANCH   1  18
ATOM     18  C   UNL     1      77.421  86.821  69.613  1.00  0.00     0.001 C 
BRANCH  18  19
ATOM     19  C   UNL     1      78.089  85.480  69.214  1.00  0.00     0.004 C 
BRANCH  19  20
ATOM     20  C   UNL     1      77.091  84.294  69.328  1.00  0.00     0.027 C 
BRANCH  20  21
ATOM     21  C   UNL     1      76.562  83.852  68.049  1.00  0.00    -0.031 C 
ATOM     22  C   UNL     1      77.351  83.624  66.984  1.00  0.00    -0.028 C 
BRANCH  22  23
ATOM     23  C   UNL     1      76.852  83.173  65.688  1.00  0.00     0.005 C 
ATOM     24  C   UNL     1      77.680  83.811  64.541  1.00  0.00     0.012 C 
ATOM     25  C   UNL     1      76.850  81.622  65.622  1.00  0.00     0.012 C 
ENDBRANCH  22  23
ENDBRANCH  20  21
ENDBRANCH  19  20
ENDBRANCH  18  19
ENDBRANCH   1  18
TORSDOF 11
ENDMDL
MODEL 5
REMARK VINA RESULT:    -5.871     21.966     25.466
REMARK INTER + INTRA:         -10.668
REMARK INTER:                  -9.390
REMARK INTRA:                  -1.277
REMARK UNBOUND:                -1.193
REMARK SMILES COc1cc(CNC(=O)CCCCC/C=C/C(C)C)ccc1O
REMARK SMILES IDX 11 1 10 2 8 3 7 4 9 6 6 7 5 8 3 9 22 10 4 11 21 12 20 13
REMARK SMILES IDX 2 14 1 15 23 16 12 18 13 19 14 20 15 21 16 22 17 23 18 24
REMARK SMILES IDX 19 25
REMARK H PARENT 7 5 23 17
REMARK Flexibility Score: inf
ROOT
ATOM      1  C   UNL     1      77.483  85.665  69.595  1.00  0.00     0.010 C 
ENDROOT
BRANCH   1   2
ATOM      2  C   UNL     1      78.637  85.156  68.693  1.00  0.00     0.100 C 
BRANCH   2   3
ATOM      3  C   UNL     1      78.185  84.537  67.433  1.00  0.00     0.220 C 
ATOM      4  N   UNL     1      77.136  85.075  66.751  1.00  0.00    -0.352 N 
ATOM      5  H   UNL     1      76.682  85.848  67.218  1.00  0.00     0.163 HD
ATOM      6  O   UNL     1      78.814  83.543  66.998  1.00  0.00    -0.275 OA
BRANCH   4   7
ATOM      7  C   UNL     1      76.661  84.637  65.479  1.00  0.00     0.151 C 
BRANCH   7   8
ATOM      8  C   UNL     1      75.566  83.638  65.590  1.00  0.00    -0.025 A 
ATOM      9  C   UNL     1      73.197  83.098  65.971  1.00  0.00     0.160 A 
ATOM     10  C   UNL     1      73.493  81.723  65.854  1.00  0.00     0.157 A 
ATOM     11  C   UNL     1      74.236  84.044  65.847  1.00  0.00     0.056 A 
ATOM     12  C   UNL     1      74.809  81.309  65.581  1.00  0.00     0.050 A 
ATOM     13  C   UNL     1      75.837  82.260  65.440  1.00  0.00     0.009 A 
BRANCH   9  14
ATOM     14  O   UNL     1      71.905  83.516  66.149  1.00  0.00    -0.493 OA
ATOM     15  C   UNL     1      71.597  83.917  67.495  1.00  0.00     0.278 C 
ENDBRANCH   9  14
BRANCH  10  16
ATOM     16  O   UNL     1      72.527  80.780  65.994  1.00  0.00    -0.504 OA
ATOM     17  H   UNL     1      72.167  80.822  66.884  1.00  0.00     0.293 HD
ENDBRANCH  10  16
ENDBRANCH   7   8
ENDBRANCH   4   7
ENDBRANCH   2   3
ENDBRANCH   1   2
BRANCH   1  18
ATOM     18  C   UNL     1      76.714  84.483  70.239  1.00  0.00     0.001 C 
BRANCH  18  19
ATOM     19  C   UNL     1      75.346  84.887  70.847  1.00  0.00     0.004 C 
BRANCH  19  20
ATOM     20  C   UNL     1      74.367  85.395  69.751  1.00  0.00     0.027 C 
BRANCH  20  21
ATOM     21  C   UNL     1      74.236  86.842  69.710  1.00  0.00    -0.031 C 
ATOM     22  C   UNL     1      74.354  87.605  70.811  1.00  0.00    -0.028 C 
BRANCH  22  23
ATOM     23  C   UNL     1      74.233  89.061  70.802  1.00  0.00     0.005 C 
ATOM     24  C   UNL     1      73.456  89.544  72.056  1.00  0.00     0.012 C 
ATOM     25  C   UNL     1      75.636  89.716  70.690  1.00  0.00     0.012 C 
ENDBRANCH  22  23
ENDBRANCH  20  21
ENDBRANCH  19  20
ENDBRANCH  18  19
ENDBRANCH   1  18
TORSDOF 11
ENDMDL
MODEL 6
REMARK VINA RESULT:    -5.791     22.832     27.216
REMARK INTER + INTRA:         -10.539
REMARK INTER:                  -9.034
REMARK INTRA:                  -1.504
REMARK UNBOUND:                -1.193
REMARK SMILES COc1cc(CNC(=O)CCCCC/C=C/C(C)C)ccc1O
REMARK SMILES IDX 11 1 10 2 8 3 7 4 9 6 6 7 5 8 3 9 22 10 4 11 21 12 20 13
REMARK SMILES IDX 2 14 1 15 23 16 12 18 13 19 14 20 15 21 16 22 17 23 18 24
REMARK SMILES IDX 19 25
REMARK H PARENT 7 5 23 17
REMARK Flexibility Score: inf
ROOT
ATOM      1  C   UNL     1      75.353  81.796  63.811  1.00  0.00     0.010 C 
ENDROOT
BRANCH   1   2
ATOM      2  C   UNL     1      74.214  80.800  63.473  1.00  0.00     0.100 C 
BRANCH   2   3
ATOM      3  C   UNL     1      73.059  80.876  64.386  1.00  0.00     0.220 C 
ATOM      4  N   UNL     1      72.761  82.052  65.005  1.00  0.00    -0.352 N 
ATOM      5  H   UNL     1      73.425  82.796  64.840  1.00  0.00     0.163 HD
ATOM      6  O   UNL     1      72.350  79.853  64.537  1.00  0.00    -0.275 OA
BRANCH   4   7
ATOM      7  C   UNL     1      71.623  82.289  65.832  1.00  0.00     0.151 C 
BRANCH   7   8
ATOM      8  C   UNL     1      71.879  83.312  66.879  1.00  0.00    -0.025 A 
ATOM      9  C   UNL     1      71.131  84.599  68.836  1.00  0.00     0.160 A 
ATOM     10  C   UNL     1      72.355  85.303  68.840  1.00  0.00     0.157 A 
ATOM     11  C   UNL     1      70.899  83.617  67.852  1.00  0.00     0.056 A 
ATOM     12  C   UNL     1      73.344  84.995  67.888  1.00  0.00     0.050 A 
ATOM     13  C   UNL     1      73.112  84.000  66.921  1.00  0.00     0.009 A 
BRANCH   9  14
ATOM     14  O   UNL     1      70.197  84.829  69.811  1.00  0.00    -0.493 OA
ATOM     15  C   UNL     1      70.243  83.893  70.901  1.00  0.00     0.278 C 
ENDBRANCH   9  14
BRANCH  10  16
ATOM     16  O   UNL     1      72.606  86.275  69.753  1.00  0.00    -0.504 OA
ATOM     17  H   UNL     1      73.538  86.507  69.723  1.00  0.00     0.293 HD
ENDBRANCH  10  16
ENDBRANCH   7   8
ENDBRANCH   4   7
ENDBRANCH   2   3
ENDBRANCH   1   2
BRANCH   1  18
ATOM     18  C   UNL     1      76.267  81.240  64.933  1.00  0.00     0.001 C 
BRANCH  18  19
ATOM     19  C   UNL     1      76.199  82.052  66.252  1.00  0.00     0.004 C 
BRANCH  19  20
ATOM     20  C   UNL     1      77.041  83.355  66.159  1.00  0.00     0.027 C 
BRANCH  20  21
ATOM     21  C   UNL     1      77.626  83.764  67.425  1.00  0.00    -0.031 C 
ATOM     22  C   UNL     1      76.937  84.469  68.340  1.00  0.00    -0.028 C 
BRANCH  22  23
ATOM     23  C   UNL     1      77.494  84.891  69.623  1.00  0.00     0.005 C 
ATOM     24  C   UNL     1      77.575  86.439  69.692  1.00  0.00     0.012 C 
ATOM     25  C   UNL     1      76.665  84.291  70.791  1.00  0.00     0.012 C 
ENDBRANCH  22  23
ENDBRANCH  20  21
ENDBRANCH  19  20
ENDBRANCH  18  19
ENDBRANCH   1  18
TORSDOF 11
ENDMDL
MODEL 7
REMARK VINA RESULT:    -5.674     21.569     24.146
REMARK INTER + INTRA:         -10.351
REMARK INTER:                  -8.030
REMARK INTRA:                  -2.321
REMARK UNBOUND:                -1.193
REMARK SMILES COc1cc(CNC(=O)CCCCC/C=C/C(C)C)ccc1O
REMARK SMILES IDX 11 1 10 2 8 3 7 4 9 6 6 7 5 8 3 9 22 10 4 11 21 12 20 13
REMARK SMILES IDX 2 14 1 15 23 16 12 18 13 19 14 20 15 21 16 22 17 23 18 24
REMARK SMILES IDX 19 25
REMARK H PARENT 7 5 23 17
REMARK Flexibility Score: inf
ROOT
ATOM      1  C   UNL     1      75.681  83.058  65.406  1.00  0.00     0.010 C 
ENDROOT
BRANCH   1   2
ATOM      2  C   UNL     1      77.178  82.890  65.772  1.00  0.00     0.100 C 
BRANCH   2   3
ATOM      3  C   UNL     1      77.520  83.355  67.130  1.00  0.00     0.220 C 
ATOM      4  N   UNL     1      76.533  83.549  68.048  1.00  0.00    -0.352 N 
ATOM      5  H   UNL     1      75.596  83.424  67.692  1.00  0.00     0.163 HD
ATOM      6  O   UNL     1      78.729  83.521  67.416  1.00  0.00    -0.275 OA
BRANCH   4   7
ATOM      7  C   UNL     1      76.732  83.901  69.416  1.00  0.00     0.151 C 
BRANCH   7   8
ATOM      8  C   UNL     1      76.491  85.344  69.677  1.00  0.00    -0.025 A 
ATOM      9  C   UNL     1      74.983  87.176  70.326  1.00  0.00     0.160 A 
ATOM     10  C   UNL     1      76.026  88.106  70.119  1.00  0.00     0.157 A 
ATOM     11  C   UNL     1      75.221  85.805  70.094  1.00  0.00     0.056 A 
ATOM     12  C   UNL     1      77.298  87.657  69.721  1.00  0.00     0.050 A 
ATOM     13  C   UNL     1      77.532  86.285  69.511  1.00  0.00     0.009 A 
BRANCH   9  14
ATOM     14  O   UNL     1      73.767  87.592  70.798  1.00  0.00    -0.493 OA
ATOM     15  C   UNL     1      72.651  87.180  69.992  1.00  0.00     0.278 C 
ENDBRANCH   9  14
BRANCH  10  16
ATOM     16  O   UNL     1      75.830  89.435  70.303  1.00  0.00    -0.504 OA
ATOM     17  H   UNL     1      76.603  89.917  69.998  1.00  0.00     0.293 HD
ENDBRANCH  10  16
ENDBRANCH   7   8
ENDBRANCH   4   7
ENDBRANCH   2   3
ENDBRANCH   1   2
BRANCH   1  18
ATOM     18  C   UNL     1      75.514  83.572  63.954  1.00  0.00     0.001 C 
BRANCH  18  19
ATOM     19  C   UNL     1      76.821  84.131  63.337  1.00  0.00     0.004 C 
BRANCH  19  20
ATOM     20  C   UNL     1      76.847  85.685  63.375  1.00  0.00     0.027 C 
BRANCH  20  21
ATOM     21  C   UNL     1      75.974  86.259  64.384  1.00  0.00    -0.031 C 
ATOM     22  C   UNL     1      76.435  86.695  65.570  1.00  0.00    -0.028 C 
BRANCH  22  23
ATOM     23  C   UNL     1      75.584  87.282  66.602  1.00  0.00     0.005 C 
ATOM     24  C   UNL     1      75.438  88.810  66.374  1.00  0.00     0.012 C 
ATOM     25  C   UNL     1      74.211  86.558  66.643  1.00  0.00     0.012 C 
ENDBRANCH  22  23
ENDBRANCH  20  21
ENDBRANCH  19  20
ENDBRANCH  18  19
ENDBRANCH   1  18
TORSDOF 11
ENDMDL
MODEL 8
REMARK VINA RESULT:    -5.647      2.141      5.811
REMARK INTER + INTRA:         -10.307
REMARK INTER:                  -8.749
REMARK INTRA:                  -1.558
REMARK UNBOUND:                -1.193
REMARK SMILES COc1cc(CNC(=O)CCCCC/C=C/C(C)C)ccc1O
REMARK SMILES IDX 11 1 10 2 8 3 7 4 9 6 6 7 5 8 3 9 22 10 4 11 21 12 20 13
REMARK SMILES IDX 2 14 1 15 23 16 12 18 13 19 14 20 15 21 16 22 17 23 18 24
REMARK SMILES IDX 19 25
REMARK H PARENT 7 5 23 17
REMARK Flexibility Score: inf
ROOT
ATOM      1  C   UNL     1      95.658  95.734  82.001  1.00  0.00     0.010 C 
ENDROOT
BRANCH   1   2
ATOM      2  C   UNL     1      95.000  96.966  81.327  1.00  0.00     0.100 C 
BRANCH   2   3
ATOM      3  C   UNL     1      95.823  97.581  80.269  1.00  0.00     0.220 C 
ATOM      4  N   UNL     1      95.393  97.557  78.976  1.00  0.00    -0.352 N 
ATOM      5  H   UNL     1      94.542  97.033  78.825  1.00  0.00     0.163 HD
ATOM      6  O   UNL     1      96.888  98.153  80.599  1.00  0.00    -0.275 OA
BRANCH   4   7
ATOM      7  C   UNL     1      96.039  98.195  77.876  1.00  0.00     0.151 C 
BRANCH   7   8
ATOM      8  C   UNL     1      95.094  98.551  76.786  1.00  0.00    -0.025 A 
ATOM      9  C   UNL     1      94.262 100.158  75.120  1.00  0.00     0.160 A 
ATOM     10  C   UNL     1      93.253  99.245  74.745  1.00  0.00     0.157 A 
ATOM     11  C   UNL     1      95.168  99.808  76.142  1.00  0.00     0.056 A 
ATOM     12  C   UNL     1      93.180  97.985  75.367  1.00  0.00     0.050 A 
ATOM     13  C   UNL     1      94.100  97.636  76.373  1.00  0.00     0.009 A 
BRANCH   9  14
ATOM     14  O   UNL     1      94.396 101.351  74.461  1.00  0.00    -0.493 OA
ATOM     15  C   UNL     1      93.856 102.478  75.170  1.00  0.00     0.278 C 
ENDBRANCH   9  14
BRANCH  10  16
ATOM     16  O   UNL     1      92.344  99.553  73.786  1.00  0.00    -0.504 OA
ATOM     17  H   UNL     1      92.217  98.795  73.211  1.00  0.00     0.293 HD
ENDBRANCH  10  16
ENDBRANCH   7   8
ENDBRANCH   4   7
ENDBRANCH   2   3
ENDBRANCH   1   2
BRANCH   1  18
ATOM     18  C   UNL     1      96.159  94.718  80.942  1.00  0.00     0.001 C 
BRANCH  18  19
ATOM     19  C   UNL     1      95.019  93.943  80.234  1.00  0.00     0.004 C 
BRANCH  19  20
ATOM     20  C   UNL     1      95.002  94.231  78.707  1.00  0.00     0.027 C 
BRANCH  20  21
ATOM     21  C   UNL     1      93.668  94.407  78.160  1.00  0.00    -0.031 C 
ATOM     22  C   UNL     1      92.563  94.342  78.924  1.00  0.00    -0.028 C 
BRANCH  22  23
ATOM     23  C   UNL     1      91.209  94.520  78.407  1.00  0.00     0.005 C 
ATOM     24  C   UNL     1      91.092  95.875  77.660  1.00  0.00     0.012 C 
ATOM     25  C   UNL     1      90.815  93.316  77.508  1.00  0.00     0.012 C 
ENDBRANCH  22  23
ENDBRANCH  20  21
ENDBRANCH  19  20
ENDBRANCH  18  19
ENDBRANCH   1  18
TORSDOF 11
ENDMDL
MODEL 9
REMARK VINA RESULT:    -5.615     22.853     25.180
REMARK INTER + INTRA:         -10.254
REMARK INTER:                  -8.236
REMARK INTRA:                  -2.019
REMARK UNBOUND:                -1.193
REMARK SMILES COc1cc(CNC(=O)CCCCC/C=C/C(C)C)ccc1O
REMARK SMILES IDX 11 1 10 2 8 3 7 4 9 6 6 7 5 8 3 9 22 10 4 11 21 12 20 13
REMARK SMILES IDX 2 14 1 15 23 16 12 18 13 19 14 20 15 21 16 22 17 23 18 24
REMARK SMILES IDX 19 25
REMARK H PARENT 7 5 23 17
REMARK Flexibility Score: inf
ROOT
ATOM      1  C   UNL     1      74.909  81.430  64.816  1.00  0.00     0.010 C 
ENDROOT
BRANCH   1   2
ATOM      2  C   UNL     1      76.441  81.578  64.631  1.00  0.00     0.100 C 
BRANCH   2   3
ATOM      3  C   UNL     1      76.987  82.849  65.141  1.00  0.00     0.220 C 
ATOM      4  N   UNL     1      77.744  82.857  66.273  1.00  0.00    -0.352 N 
ATOM      5  H   UNL     1      77.817  81.962  66.737  1.00  0.00     0.163 HD
ATOM      6  O   UNL     1      76.770  83.896  64.486  1.00  0.00    -0.275 OA
BRANCH   4   7
ATOM      7  C   UNL     1      78.410  83.995  66.818  1.00  0.00     0.151 C 
BRANCH   7   8
ATOM      8  C   UNL     1      77.575  84.728  67.805  1.00  0.00    -0.025 A 
ATOM      9  C   UNL     1      76.547  86.816  68.601  1.00  0.00     0.160 A 
ATOM     10  C   UNL     1      76.025  86.131  69.720  1.00  0.00     0.157 A 
ATOM     11  C   UNL     1      77.324  86.113  67.658  1.00  0.00     0.056 A 
ATOM     12  C   UNL     1      76.253  84.751  69.867  1.00  0.00     0.050 A 
ATOM     13  C   UNL     1      77.014  84.052  68.911  1.00  0.00     0.009 A 
BRANCH   9  14
ATOM     14  O   UNL     1      76.258  88.140  68.402  1.00  0.00    -0.493 OA
ATOM     15  C   UNL     1      75.033  88.373  67.687  1.00  0.00     0.278 C 
ENDBRANCH   9  14
BRANCH  10  16
ATOM     16  O   UNL     1      75.297  86.777  70.665  1.00  0.00    -0.504 OA
ATOM     17  H   UNL     1      74.653  86.172  71.041  1.00  0.00     0.293 HD
ENDBRANCH  10  16
ENDBRANCH   7   8
ENDBRANCH   4   7
ENDBRANCH   2   3
ENDBRANCH   1   2
BRANCH   1  18
ATOM     18  C   UNL     1      74.483  81.783  66.264  1.00  0.00     0.001 C 
BRANCH  18  19
ATOM     19  C   UNL     1      73.383  82.871  66.343  1.00  0.00     0.004 C 
BRANCH  19  20
ATOM     20  C   UNL     1      73.981  84.257  66.716  1.00  0.00     0.027 C 
BRANCH  20  21
ATOM     21  C   UNL     1      73.199  84.984  67.701  1.00  0.00    -0.031 C 
ATOM     22  C   UNL     1      72.041  84.509  68.194  1.00  0.00    -0.028 C 
BRANCH  22  23
ATOM     23  C   UNL     1      71.235  85.212  69.188  1.00  0.00     0.005 C 
ATOM     24  C   UNL     1      70.843  84.251  70.341  1.00  0.00     0.012 C 
ATOM     25  C   UNL     1      71.990  86.469  69.699  1.00  0.00     0.012 C 
ENDBRANCH  22  23
ENDBRANCH  20  21
ENDBRANCH  19  20
ENDBRANCH  18  19
ENDBRANCH   1  18
TORSDOF 11
ENDMDL
MODEL 10
REMARK VINA RESULT:    -5.550      6.096      9.468
REMARK INTER + INTRA:         -10.151
REMARK INTER:                  -9.410
REMARK INTRA:                  -0.740
REMARK UNBOUND:                -1.193
REMARK SMILES COc1cc(CNC(=O)CCCCC/C=C/C(C)C)ccc1O
REMARK SMILES IDX 11 1 10 2 8 3 7 4 9 6 6 7 5 8 3 9 22 10 4 11 21 12 20 13
REMARK SMILES IDX 2 14 1 15 23 16 12 18 13 19 14 20 15 21 16 22 17 23 18 24
REMARK SMILES IDX 19 25
REMARK H PARENT 7 5 23 17
REMARK Flexibility Score: inf
ROOT
ATOM      1  C   UNL     1      94.524  99.921  74.573  1.00  0.00     0.010 C 
ENDROOT
BRANCH   1   2
ATOM      2  C   UNL     1      93.027 100.196  74.277  1.00  0.00     0.100 C 
BRANCH   2   3
ATOM      3  C   UNL     1      92.790 100.949  73.031  1.00  0.00     0.220 C 
ATOM      4  N   UNL     1      91.764 100.594  72.209  1.00  0.00    -0.352 N 
ATOM      5  H   UNL     1      91.266  99.761  72.492  1.00  0.00     0.163 HD
ATOM      6  O   UNL     1      93.525 101.934  72.781  1.00  0.00    -0.275 OA
BRANCH   4   7
ATOM      7  C   UNL     1      91.366 101.293  71.030  1.00  0.00     0.151 C 
BRANCH   7   8
ATOM      8  C   UNL     1      90.380 100.532  70.220  1.00  0.00    -0.025 A 
ATOM      9  C   UNL     1      89.144  98.457  69.755  1.00  0.00     0.160 A 
ATOM     10  C   UNL     1      88.536  99.070  68.638  1.00  0.00     0.157 A 
ATOM     11  C   UNL     1      90.067  99.188  70.531  1.00  0.00     0.056 A 
ATOM     12  C   UNL     1      88.827 100.412  68.330  1.00  0.00     0.050 A 
ATOM     13  C   UNL     1      89.734 101.141  69.121  1.00  0.00     0.009 A 
BRANCH   9  14
ATOM     14  O   UNL     1      88.803  97.180  70.115  1.00  0.00    -0.493 OA
ATOM     15  C   UNL     1      89.693  96.169  69.613  1.00  0.00     0.278 C 
ENDBRANCH   9  14
BRANCH  10  16
ATOM     16  O   UNL     1      87.665  98.393  67.849  1.00  0.00    -0.504 OA
ATOM     17  H   UNL     1      88.147  97.954  67.143  1.00  0.00     0.293 HD
ENDBRANCH  10  16
ENDBRANCH   7   8
ENDBRANCH   4   7
ENDBRANCH   2   3
ENDBRANCH   1   2
BRANCH   1  18
ATOM     18  C   UNL     1      94.971  98.563  73.976  1.00  0.00     0.001 C 
BRANCH  18  19
ATOM     19  C   UNL     1      95.216  97.464  75.042  1.00  0.00     0.004 C 
BRANCH  19  20
ATOM     20  C   UNL     1      94.150  97.523  76.171  1.00  0.00     0.027 C 
BRANCH  20  21
ATOM     21  C   UNL     1      93.376  96.300  76.308  1.00  0.00    -0.031 C 
ATOM     22  C   UNL     1      92.150  96.284  76.861  1.00  0.00    -0.028 C 
BRANCH  22  23
ATOM     23  C   UNL     1      91.345  95.074  77.008  1.00  0.00     0.005 C 
ATOM     24  C   UNL     1      92.036  94.084  77.983  1.00  0.00     0.012 C 
ATOM     25  C   UNL     1      89.905  95.439  77.461  1.00  0.00     0.012 C 
ENDBRANCH  22  23
ENDBRANCH  20  21
ENDBRANCH  19  20
ENDBRANCH  18  19
ENDBRANCH   1  18
TORSDOF 11
ENDMDL
