MODEL 1
REMARK VINA RESULT:    -6.110      0.000      0.000
REMARK INTER + INTRA:         -10.195
REMARK INTER:                  -9.503
REMARK INTRA:                  -0.692
REMARK UNBOUND:                -0.692
REMARK SMILES COc1cc(CNC(=O)CCCCCC(C)C)ccc1O
REMARK SMILES IDX 10 1 8 2 7 3 9 5 6 6 5 7 3 8 20 9 4 10 19 11 18 12 2 13 1 14
REMARK SMILES IDX 21 15 11 17 12 18 13 19 14 20 15 21 16 22 17 23
REMARK H PARENT 7 4 21 16
REMARK Flexibility Score: inf
ROOT
ATOM      1  C   UNL     1      78.307  85.456  68.175  1.00  0.00     0.100 C 
ENDROOT
BRANCH   1   2
ATOM      2  C   UNL     1      78.095  84.446  67.117  1.00  0.00     0.220 C 
ATOM      3  N   UNL     1      77.215  84.706  66.109  1.00  0.00    -0.352 N 
ATOM      4  H   UNL     1      76.661  85.540  66.234  1.00  0.00     0.163 HD
ATOM      5  O   UNL     1      78.763  83.384  67.148  1.00  0.00    -0.275 OA
BRANCH   3   6
ATOM      6  C   UNL     1      77.043  83.902  64.942  1.00  0.00     0.151 C 
BRANCH   6   7
ATOM      7  C   UNL     1      75.909  82.946  65.053  1.00  0.00    -0.025 A 
ATOM      8  C   UNL     1      73.668  82.384  65.896  1.00  0.00     0.160 A 
ATOM      9  C   UNL     1      73.721  81.153  65.209  1.00  0.00     0.157 A 
ATOM     10  C   UNL     1      74.769  83.264  65.828  1.00  0.00     0.056 A 
ATOM     11  C   UNL     1      74.860  80.814  64.457  1.00  0.00     0.050 A 
ATOM     12  C   UNL     1      75.943  81.705  64.374  1.00  0.00     0.009 A 
BRANCH   8  13
ATOM     13  O   UNL     1      72.576  82.724  66.650  1.00  0.00    -0.493 OA
ATOM     14  C   UNL     1      72.078  84.051  66.388  1.00  0.00     0.278 C 
ENDBRANCH   8  13
BRANCH   9  15
ATOM     15  O   UNL     1      72.668  80.298  65.269  1.00  0.00    -0.504 OA
ATOM     16  H   UNL     1      71.862  80.794  65.424  1.00  0.00     0.293 HD
ENDBRANCH   9  15
ENDBRANCH   6   7
ENDBRANCH   3   6
ENDBRANCH   1   2
BRANCH   1  17
ATOM     17  C   UNL     1      77.983  86.911  67.741  1.00  0.00     0.010 C 
BRANCH  17  18
ATOM     18  C   UNL     1      76.614  87.385  68.301  1.00  0.00     0.001 C 
BRANCH  18  19
ATOM     19  C   UNL     1      76.646  87.706  69.818  1.00  0.00     0.000 C 
BRANCH  19  20
ATOM     20  C   UNL     1      75.226  87.684  70.454  1.00  0.00     0.003 C 
BRANCH  20  21
ATOM     21  C   UNL     1      74.822  88.990  71.212  1.00  0.00    -0.017 C 
ATOM     22  C   UNL     1      73.336  88.928  71.674  1.00  0.00     0.007 C 
ATOM     23  C   UNL     1      75.066  90.277  70.371  1.00  0.00     0.007 C 
ENDBRANCH  20  21
ENDBRANCH  19  20
ENDBRANCH  18  19
ENDBRANCH  17  18
ENDBRANCH   1  17
TORSDOF 10
ENDMDL
MODEL 2
REMARK VINA RESULT:    -5.995     19.642     22.473
REMARK INTER + INTRA:         -10.016
REMARK INTER:                  -9.193
REMARK INTRA:                  -0.823
REMARK UNBOUND:                -0.692
REMARK SMILES COc1cc(CNC(=O)CCCCCC(C)C)ccc1O
REMARK SMILES IDX 10 1 8 2 7 3 9 5 6 6 5 7 3 8 20 9 4 10 19 11 18 12 2 13 1 14
REMARK SMILES IDX 21 15 11 17 12 18 13 19 14 20 15 21 16 22 17 23
REMARK H PARENT 7 4 21 16
REMARK Flexibility Score: inf
ROOT
ATOM      1  C   UNL     1      92.855  99.101  74.964  1.00  0.00     0.100 C 
ENDROOT
BRANCH   1   2
ATOM      2  C   UNL     1      92.488 100.101  73.939  1.00  0.00     0.220 C 
ATOM      3  N   UNL     1      92.208  99.687  72.670  1.00  0.00    -0.352 N 
ATOM      4  H   UNL     1      92.405  98.713  72.488  1.00  0.00     0.163 HD
ATOM      5  O   UNL     1      92.400 101.308  74.269  1.00  0.00    -0.275 OA
BRANCH   3   6
ATOM      6  C   UNL     1      91.677 100.514  71.635  1.00  0.00     0.151 C 
BRANCH   6   7
ATOM      7  C   UNL     1      90.627  99.836  70.827  1.00  0.00    -0.025 A 
ATOM      8  C   UNL     1      89.091  99.823  68.907  1.00  0.00     0.160 A 
ATOM      9  C   UNL     1      88.677  98.519  69.250  1.00  0.00     0.157 A 
ATOM     10  C   UNL     1      90.049 100.481  69.708  1.00  0.00     0.056 A 
ATOM     11  C   UNL     1      89.226  97.879  70.376  1.00  0.00     0.050 A 
ATOM     12  C   UNL     1      90.197  98.529  71.155  1.00  0.00     0.009 A 
BRANCH   8  13
ATOM     13  O   UNL     1      88.554 100.472  67.825  1.00  0.00    -0.493 OA
ATOM     14  C   UNL     1      89.225 101.703  67.494  1.00  0.00     0.278 C 
ENDBRANCH   8  13
BRANCH   9  15
ATOM     15  O   UNL     1      87.755  97.879  68.488  1.00  0.00    -0.504 OA
ATOM     16  H   UNL     1      87.906  96.932  68.529  1.00  0.00     0.293 HD
ENDBRANCH   9  15
ENDBRANCH   6   7
ENDBRANCH   3   6
ENDBRANCH   1   2
BRANCH   1  17
ATOM     17  C   UNL     1      94.343  99.156  75.404  1.00  0.00     0.010 C 
BRANCH  17  18
ATOM     18  C   UNL     1      94.675  98.045  76.438  1.00  0.00     0.001 C 
BRANCH  18  19
ATOM     19  C   UNL     1      94.733  96.623  75.818  1.00  0.00     0.000 C 
BRANCH  19  20
ATOM     20  C   UNL     1      93.528  95.741  76.254  1.00  0.00     0.003 C 
BRANCH  20  21
ATOM     21  C   UNL     1      92.800  96.215  77.554  1.00  0.00    -0.017 C 
ATOM     22  C   UNL     1      93.351  95.467  78.804  1.00  0.00     0.007 C 
ATOM     23  C   UNL     1      91.254  96.053  77.474  1.00  0.00     0.007 C 
ENDBRANCH  20  21
ENDBRANCH  19  20
ENDBRANCH  18  19
ENDBRANCH  17  18
ENDBRANCH   1  17
TORSDOF 10
ENDMDL
MODEL 3
REMARK VINA RESULT:    -5.911     18.966     21.791
REMARK INTER + INTRA:          -9.886
REMARK INTER:                  -9.373
REMARK INTRA:                  -0.513
REMARK UNBOUND:                -0.692
REMARK SMILES COc1cc(CNC(=O)CCCCCC(C)C)ccc1O
REMARK SMILES IDX 10 1 8 2 7 3 9 5 6 6 5 7 3 8 20 9 4 10 19 11 18 12 2 13 1 14
REMARK SMILES IDX 21 15 11 17 12 18 13 19 14 20 15 21 16 22 17 23
REMARK H PARENT 7 4 21 16
REMARK Flexibility Score: inf
ROOT
ATOM      1  C   UNL     1      92.570  99.481  74.247  1.00  0.00     0.100 C 
ENDROOT
BRANCH   1   2
ATOM      2  C   UNL     1      92.322 100.324  73.059  1.00  0.00     0.220 C 
ATOM      3  N   UNL     1      91.375  99.945  72.155  1.00  0.00    -0.352 N 
ATOM      4  H   UNL     1      90.993  99.022  72.302  1.00  0.00     0.163 HD
ATOM      5  O   UNL     1      92.961 101.397  72.930  1.00  0.00    -0.275 OA
BRANCH   3   6
ATOM      6  C   UNL     1      90.914 100.743  71.065  1.00  0.00     0.151 C 
BRANCH   6   7
ATOM      7  C   UNL     1      90.092  99.979  70.088  1.00  0.00    -0.025 A 
ATOM      8  C   UNL     1      89.324  97.833  69.165  1.00  0.00     0.160 A 
ATOM      9  C   UNL     1      88.476  98.523  68.273  1.00  0.00     0.157 A 
ATOM     10  C   UNL     1      90.140  98.565  70.053  1.00  0.00     0.056 A 
ATOM     11  C   UNL     1      88.440  99.929  68.280  1.00  0.00     0.050 A 
ATOM     12  C   UNL     1      89.237 100.652  69.184  1.00  0.00     0.009 A 
BRANCH   8  13
ATOM     13  O   UNL     1      89.389  96.464  69.160  1.00  0.00    -0.493 OA
ATOM     14  C   UNL     1      89.694  95.892  70.447  1.00  0.00     0.278 C 
ENDBRANCH   8  13
BRANCH   9  15
ATOM     15  O   UNL     1      87.689  97.828  67.413  1.00  0.00    -0.504 OA
ATOM     16  H   UNL     1      87.195  98.442  66.864  1.00  0.00     0.293 HD
ENDBRANCH   9  15
ENDBRANCH   6   7
ENDBRANCH   3   6
ENDBRANCH   1   2
BRANCH   1  17
ATOM     17  C   UNL     1      93.991  98.857  74.302  1.00  0.00     0.010 C 
BRANCH  17  18
ATOM     18  C   UNL     1      94.153  97.908  75.520  1.00  0.00     0.001 C 
BRANCH  18  19
ATOM     19  C   UNL     1      92.808  97.324  76.030  1.00  0.00     0.000 C 
BRANCH  19  20
ATOM     20  C   UNL     1      92.988  95.930  76.698  1.00  0.00     0.003 C 
BRANCH  20  21
ATOM     21  C   UNL     1      92.033  95.649  77.904  1.00  0.00    -0.017 C 
ATOM     22  C   UNL     1      92.326  94.253  78.531  1.00  0.00     0.007 C 
ATOM     23  C   UNL     1      90.528  95.757  77.523  1.00  0.00     0.007 C 
ENDBRANCH  20  21
ENDBRANCH  19  20
ENDBRANCH  18  19
ENDBRANCH  17  18
ENDBRANCH   1  17
TORSDOF 10
ENDMDL
MODEL 4
REMARK VINA RESULT:    -5.910     25.291     27.620
REMARK INTER + INTRA:          -9.885
REMARK INTER:                  -9.145
REMARK INTRA:                  -0.740
REMARK UNBOUND:                -0.692
REMARK SMILES COc1cc(CNC(=O)CCCCCC(C)C)ccc1O
REMARK SMILES IDX 10 1 8 2 7 3 9 5 6 6 5 7 3 8 20 9 4 10 19 11 18 12 2 13 1 14
REMARK SMILES IDX 21 15 11 17 12 18 13 19 14 20 15 21 16 22 17 23
REMARK H PARENT 7 4 21 16
REMARK Flexibility Score: inf
ROOT
ATOM      1  C   UNL     1      98.406  82.266  78.923  1.00  0.00     0.100 C 
ENDROOT
BRANCH   1   2
ATOM      2  C   UNL     1      98.898  82.451  80.305  1.00  0.00     0.220 C 
ATOM      3  N   UNL     1      98.865  81.401  81.173  1.00  0.00    -0.352 N 
ATOM      4  H   UNL     1      98.373  80.586  80.836  1.00  0.00     0.163 HD
ATOM      5  O   UNL     1      99.375  83.563  80.637  1.00  0.00    -0.275 OA
BRANCH   3   6
ATOM      6  C   UNL     1      99.461  81.389  82.471  1.00  0.00     0.151 C 
BRANCH   6   7
ATOM      7  C   UNL     1      98.495  81.700  83.559  1.00  0.00    -0.025 A 
ATOM      8  C   UNL     1      96.973  83.277  84.674  1.00  0.00     0.160 A 
ATOM      9  C   UNL     1      96.607  82.271  85.592  1.00  0.00     0.157 A 
ATOM     10  C   UNL     1      97.929  82.991  83.675  1.00  0.00     0.056 A 
ATOM     11  C   UNL     1      97.184  80.991  85.503  1.00  0.00     0.050 A 
ATOM     12  C   UNL     1      98.117  80.705  84.491  1.00  0.00     0.009 A 
BRANCH   8  13
ATOM     13  O   UNL     1      96.438  84.535  84.756  1.00  0.00    -0.493 OA
ATOM     14  C   UNL     1      97.321  85.506  85.351  1.00  0.00     0.278 C 
ENDBRANCH   8  13
BRANCH   9  15
ATOM     15  O   UNL     1      95.691  82.536  86.557  1.00  0.00    -0.504 OA
ATOM     16  H   UNL     1      96.140  82.699  87.390  1.00  0.00     0.293 HD
ENDBRANCH   9  15
ENDBRANCH   6   7
ENDBRANCH   3   6
ENDBRANCH   1   2
BRANCH   1  17
ATOM     17  C   UNL     1      97.398  83.349  78.454  1.00  0.00     0.010 C 
BRANCH  17  18
ATOM     18  C   UNL     1      97.889  84.068  77.167  1.00  0.00     0.001 C 
BRANCH  18  19
ATOM     19  C   UNL     1      98.164  83.100  75.986  1.00  0.00     0.000 C 
BRANCH  19  20
ATOM     20  C   UNL     1      99.674  83.037  75.616  1.00  0.00     0.003 C 
BRANCH  20  21
ATOM     21  C   UNL     1     100.493  84.323  75.964  1.00  0.00    -0.017 C 
ATOM     22  C   UNL     1     100.515  85.310  74.760  1.00  0.00     0.007 C 
ATOM     23  C   UNL     1     101.946  84.009  76.423  1.00  0.00     0.007 C 
ENDBRANCH  20  21
ENDBRANCH  19  20
ENDBRANCH  18  19
ENDBRANCH  17  18
ENDBRANCH   1  17
TORSDOF 10
ENDMDL
MODEL 5
REMARK VINA RESULT:    -5.732      2.079      3.033
REMARK INTER + INTRA:          -9.607
REMARK INTER:                  -8.781
REMARK INTRA:                  -0.826
REMARK UNBOUND:                -0.692
REMARK SMILES COc1cc(CNC(=O)CCCCCC(C)C)ccc1O
REMARK SMILES IDX 10 1 8 2 7 3 9 5 6 6 5 7 3 8 20 9 4 10 19 11 18 12 2 13 1 14
REMARK SMILES IDX 21 15 11 17 12 18 13 19 14 20 15 21 16 22 17 23
REMARK H PARENT 7 4 21 16
REMARK Flexibility Score: inf
ROOT
ATOM      1  C   UNL     1      77.789  83.668  65.769  1.00  0.00     0.100 C 
ENDROOT
BRANCH   1   2
ATOM      2  C   UNL     1      77.037  82.403  65.908  1.00  0.00     0.220 C 
ATOM      3  N   UNL     1      75.738  82.438  66.320  1.00  0.00    -0.352 N 
ATOM      4  H   UNL     1      75.416  83.342  66.635  1.00  0.00     0.163 HD
ATOM      5  O   UNL     1      77.600  81.324  65.602  1.00  0.00    -0.275 OA
BRANCH   3   6
ATOM      6  C   UNL     1      74.850  81.321  66.332  1.00  0.00     0.151 C 
BRANCH   6   7
ATOM      7  C   UNL     1      73.611  81.551  65.541  1.00  0.00    -0.025 A 
ATOM      8  C   UNL     1      71.299  82.376  65.391  1.00  0.00     0.160 A 
ATOM      9  C   UNL     1      71.275  82.052  64.018  1.00  0.00     0.157 A 
ATOM     10  C   UNL     1      72.459  82.106  66.147  1.00  0.00     0.056 A 
ATOM     11  C   UNL     1      72.405  81.474  63.410  1.00  0.00     0.050 A 
ATOM     12  C   UNL     1      73.566  81.231  64.164  1.00  0.00     0.009 A 
BRANCH   8  13
ATOM     13  O   UNL     1      70.202  82.920  66.006  1.00  0.00    -0.493 OA
ATOM     14  C   UNL     1      70.296  84.343  66.211  1.00  0.00     0.278 C 
ENDBRANCH   8  13
BRANCH   9  15
ATOM     15  O   UNL     1      70.164  82.304  63.282  1.00  0.00    -0.504 OA
ATOM     16  H   UNL     1      69.426  81.799  63.631  1.00  0.00     0.293 HD
ENDBRANCH   9  15
ENDBRANCH   6   7
ENDBRANCH   3   6
ENDBRANCH   1   2
BRANCH   1  17
ATOM     17  C   UNL     1      78.230  84.300  67.117  1.00  0.00     0.010 C 
BRANCH  17  18
ATOM     18  C   UNL     1      77.546  85.674  67.357  1.00  0.00     0.001 C 
BRANCH  18  19
ATOM     19  C   UNL     1      78.294  86.564  68.384  1.00  0.00     0.000 C 
BRANCH  19  20
ATOM     20  C   UNL     1      77.453  86.811  69.670  1.00  0.00     0.003 C 
BRANCH  20  21
ATOM     21  C   UNL     1      76.258  85.824  69.878  1.00  0.00    -0.017 C 
ATOM     22  C   UNL     1      75.029  86.561  70.486  1.00  0.00     0.007 C 
ATOM     23  C   UNL     1      76.634  84.597  70.758  1.00  0.00     0.007 C 
ENDBRANCH  20  21
ENDBRANCH  19  20
ENDBRANCH  18  19
ENDBRANCH  17  18
ENDBRANCH   1  17
TORSDOF 10
ENDMDL
MODEL 6
REMARK VINA RESULT:    -5.594      1.502      2.048
REMARK INTER + INTRA:          -9.393
REMARK INTER:                  -8.716
REMARK INTRA:                  -0.678
REMARK UNBOUND:                -0.692
REMARK SMILES COc1cc(CNC(=O)CCCCCC(C)C)ccc1O
REMARK SMILES IDX 10 1 8 2 7 3 9 5 6 6 5 7 3 8 20 9 4 10 19 11 18 12 2 13 1 14
REMARK SMILES IDX 21 15 11 17 12 18 13 19 14 20 15 21 16 22 17 23
REMARK H PARENT 7 4 21 16
REMARK Flexibility Score: inf
ROOT
ATOM      1  C   UNL     1      78.109  83.628  67.206  1.00  0.00     0.100 C 
ENDROOT
BRANCH   1   2
ATOM      2  C   UNL     1      77.497  83.030  66.000  1.00  0.00     0.220 C 
ATOM      3  N   UNL     1      76.799  83.824  65.140  1.00  0.00    -0.352 N 
ATOM      4  H   UNL     1      76.637  84.766  65.468  1.00  0.00     0.163 HD
ATOM      5  O   UNL     1      77.670  81.808  65.772  1.00  0.00    -0.275 OA
BRANCH   3   6
ATOM      6  C   UNL     1      76.309  83.419  63.862  1.00  0.00     0.151 C 
BRANCH   6   7
ATOM      7  C   UNL     1      75.211  82.417  63.948  1.00  0.00    -0.025 A 
ATOM      8  C   UNL     1      73.189  81.560  65.054  1.00  0.00     0.160 A 
ATOM      9  C   UNL     1      73.084  80.551  64.074  1.00  0.00     0.157 A 
ATOM     10  C   UNL     1      74.262  82.475  64.996  1.00  0.00     0.056 A 
ATOM     11  C   UNL     1      74.038  80.467  63.043  1.00  0.00     0.050 A 
ATOM     12  C   UNL     1      75.090  81.396  62.977  1.00  0.00     0.009 A 
BRANCH   8  13
ATOM     13  O   UNL     1      72.282  81.647  66.077  1.00  0.00    -0.493 OA
ATOM     14  C   UNL     1      72.117  82.980  66.598  1.00  0.00     0.278 C 
ENDBRANCH   8  13
BRANCH   9  15
ATOM     15  O   UNL     1      72.058  79.665  64.122  1.00  0.00    -0.504 OA
ATOM     16  H   UNL     1      71.270  80.104  64.451  1.00  0.00     0.293 HD
ENDBRANCH   9  15
ENDBRANCH   6   7
ENDBRANCH   3   6
ENDBRANCH   1   2
BRANCH   1  17
ATOM     17  C   UNL     1      77.256  84.743  67.868  1.00  0.00     0.010 C 
BRANCH  17  18
ATOM     18  C   UNL     1      76.018  84.158  68.602  1.00  0.00     0.001 C 
BRANCH  18  19
ATOM     19  C   UNL     1      74.875  85.188  68.800  1.00  0.00     0.000 C 
BRANCH  19  20
ATOM     20  C   UNL     1      75.012  85.968  70.140  1.00  0.00     0.003 C 
BRANCH  20  21
ATOM     21  C   UNL     1      75.097  87.522  69.994  1.00  0.00    -0.017 C 
ATOM     22  C   UNL     1      76.579  87.991  69.897  1.00  0.00     0.007 C 
ATOM     23  C   UNL     1      74.372  88.278  71.146  1.00  0.00     0.007 C 
ENDBRANCH  20  21
ENDBRANCH  19  20
ENDBRANCH  18  19
ENDBRANCH  17  18
ENDBRANCH   1  17
TORSDOF 10
ENDMDL
MODEL 7
REMARK VINA RESULT:    -5.454      2.648      7.250
REMARK INTER + INTRA:          -9.176
REMARK INTER:                  -8.443
REMARK INTRA:                  -0.732
REMARK UNBOUND:                -0.692
REMARK SMILES COc1cc(CNC(=O)CCCCCC(C)C)ccc1O
REMARK SMILES IDX 10 1 8 2 7 3 9 5 6 6 5 7 3 8 20 9 4 10 19 11 18 12 2 13 1 14
REMARK SMILES IDX 21 15 11 17 12 18 13 19 14 20 15 21 16 22 17 23
REMARK H PARENT 7 4 21 16
REMARK Flexibility Score: inf
ROOT
ATOM      1  C   UNL     1      76.049  81.175  65.316  1.00  0.00     0.100 C 
ENDROOT
BRANCH   1   2
ATOM      2  C   UNL     1      76.813  82.438  65.256  1.00  0.00     0.220 C 
ATOM      3  N   UNL     1      77.440  82.895  66.376  1.00  0.00    -0.352 N 
ATOM      4  H   UNL     1      77.222  82.388  67.222  1.00  0.00     0.163 HD
ATOM      5  O   UNL     1      76.903  83.044  64.160  1.00  0.00    -0.275 OA
BRANCH   3   6
ATOM      6  C   UNL     1      78.347  83.998  66.418  1.00  0.00     0.151 C 
BRANCH   6   7
ATOM      7  C   UNL     1      77.918  85.071  67.355  1.00  0.00    -0.025 A 
ATOM      8  C   UNL     1      76.965  87.304  67.747  1.00  0.00     0.160 A 
ATOM      9  C   UNL     1      77.038  87.088  69.140  1.00  0.00     0.157 A 
ATOM     10  C   UNL     1      77.422  86.303  66.864  1.00  0.00     0.056 A 
ATOM     11  C   UNL     1      77.554  85.878  69.639  1.00  0.00     0.050 A 
ATOM     12  C   UNL     1      77.985  84.875  68.754  1.00  0.00     0.009 A 
BRANCH   8  13
ATOM     13  O   UNL     1      76.485  88.483  67.241  1.00  0.00    -0.493 OA
ATOM     14  C   UNL     1      75.135  88.397  66.744  1.00  0.00     0.278 C 
ENDBRANCH   8  13
BRANCH   9  15
ATOM     15  O   UNL     1      76.604  88.046  69.997  1.00  0.00    -0.504 OA
ATOM     16  H   UNL     1      77.223  88.779  69.998  1.00  0.00     0.293 HD
ENDBRANCH   9  15
ENDBRANCH   6   7
ENDBRANCH   3   6
ENDBRANCH   1   2
BRANCH   1  17
ATOM     17  C   UNL     1      74.556  81.312  64.914  1.00  0.00     0.010 C 
BRANCH  17  18
ATOM     18  C   UNL     1      74.238  80.521  63.615  1.00  0.00     0.001 C 
BRANCH  18  19
ATOM     19  C   UNL     1      72.786  80.728  63.108  1.00  0.00     0.000 C 
BRANCH  19  20
ATOM     20  C   UNL     1      72.431  82.234  62.938  1.00  0.00     0.003 C 
BRANCH  20  21
ATOM     21  C   UNL     1      71.093  82.678  63.613  1.00  0.00    -0.017 C 
ATOM     22  C   UNL     1      70.755  84.156  63.259  1.00  0.00     0.007 C 
ATOM     23  C   UNL     1      71.104  82.488  65.158  1.00  0.00     0.007 C 
ENDBRANCH  20  21
ENDBRANCH  19  20
ENDBRANCH  18  19
ENDBRANCH  17  18
ENDBRANCH   1  17
TORSDOF 10
ENDMDL
MODEL 8
REMARK VINA RESULT:    -5.394      1.648      2.443
REMARK INTER + INTRA:          -9.081
REMARK INTER:                  -8.386
REMARK INTRA:                  -0.695
REMARK UNBOUND:                -0.692
REMARK SMILES COc1cc(CNC(=O)CCCCCC(C)C)ccc1O
REMARK SMILES IDX 10 1 8 2 7 3 9 5 6 6 5 7 3 8 20 9 4 10 19 11 18 12 2 13 1 14
REMARK SMILES IDX 21 15 11 17 12 18 13 19 14 20 15 21 16 22 17 23
REMARK H PARENT 7 4 21 16
REMARK Flexibility Score: inf
ROOT
ATOM      1  C   UNL     1      77.108  87.347  69.538  1.00  0.00     0.100 C 
ENDROOT
BRANCH   1   2
ATOM      2  C   UNL     1      77.489  85.988  69.100  1.00  0.00     0.220 C 
ATOM      3  N   UNL     1      77.396  85.658  67.781  1.00  0.00    -0.352 N 
ATOM      4  H   UNL     1      76.936  86.347  67.203  1.00  0.00     0.163 HD
ATOM      5  O   UNL     1      77.932  85.176  69.950  1.00  0.00    -0.275 OA
BRANCH   3   6
ATOM      6  C   UNL     1      77.889  84.452  67.199  1.00  0.00     0.151 C 
BRANCH   6   7
ATOM      7  C   UNL     1      76.807  83.513  66.795  1.00  0.00    -0.025 A 
ATOM      8  C   UNL     1      74.417  82.966  66.612  1.00  0.00     0.160 A 
ATOM      9  C   UNL     1      74.745  81.755  65.967  1.00  0.00     0.157 A 
ATOM     10  C   UNL     1      75.450  83.828  67.038  1.00  0.00     0.056 A 
ATOM     11  C   UNL     1      76.093  81.419  65.744  1.00  0.00     0.050 A 
ATOM     12  C   UNL     1      77.116  82.293  66.149  1.00  0.00     0.009 A 
BRANCH   8  13
ATOM     13  O   UNL     1      73.111  83.303  66.856  1.00  0.00    -0.493 OA
ATOM     14  C   UNL     1      72.578  84.273  65.934  1.00  0.00     0.278 C 
ENDBRANCH   8  13
BRANCH   9  15
ATOM     15  O   UNL     1      73.760  80.919  65.555  1.00  0.00    -0.504 OA
ATOM     16  H   UNL     1      73.744  80.141  66.117  1.00  0.00     0.293 HD
ENDBRANCH   9  15
ENDBRANCH   6   7
ENDBRANCH   3   6
ENDBRANCH   1   2
BRANCH   1  17
ATOM     17  C   UNL     1      75.657  87.459  70.078  1.00  0.00     0.010 C 
BRANCH  17  18
ATOM     18  C   UNL     1      75.374  88.868  70.671  1.00  0.00     0.001 C 
BRANCH  18  19
ATOM     19  C   UNL     1      75.042  89.934  69.594  1.00  0.00     0.000 C 
BRANCH  19  20
ATOM     20  C   UNL     1      75.008  91.374  70.183  1.00  0.00     0.003 C 
BRANCH  20  21
ATOM     21  C   UNL     1      75.501  91.494  71.662  1.00  0.00    -0.017 C 
ATOM     22  C   UNL     1      74.332  91.904  72.605  1.00  0.00     0.007 C 
ATOM     23  C   UNL     1      76.690  92.486  71.824  1.00  0.00     0.007 C 
ENDBRANCH  20  21
ENDBRANCH  19  20
ENDBRANCH  18  19
ENDBRANCH  17  18
ENDBRANCH   1  17
TORSDOF 10
ENDMDL
MODEL 9
REMARK VINA RESULT:    -5.389      2.678      4.933
REMARK INTER + INTRA:          -9.074
REMARK INTER:                  -7.128
REMARK INTRA:                  -1.945
REMARK UNBOUND:                -0.692
REMARK SMILES COc1cc(CNC(=O)CCCCCC(C)C)ccc1O
REMARK SMILES IDX 10 1 8 2 7 3 9 5 6 6 5 7 3 8 20 9 4 10 19 11 18 12 2 13 1 14
REMARK SMILES IDX 21 15 11 17 12 18 13 19 14 20 15 21 16 22 17 23
REMARK H PARENT 7 4 21 16
REMARK Flexibility Score: inf
ROOT
ATOM      1  C   UNL     1      74.628  88.716  70.041  1.00  0.00     0.100 C 
ENDROOT
BRANCH   1   2
ATOM      2  C   UNL     1      74.126  88.633  68.654  1.00  0.00     0.220 C 
ATOM      3  N   UNL     1      75.004  88.736  67.616  1.00  0.00    -0.352 N 
ATOM      4  H   UNL     1      75.943  88.998  67.879  1.00  0.00     0.163 HD
ATOM      5  O   UNL     1      72.903  88.428  68.460  1.00  0.00    -0.275 OA
BRANCH   3   6
ATOM      6  C   UNL     1      74.685  88.503  66.244  1.00  0.00     0.151 C 
BRANCH   6   7
ATOM      7  C   UNL     1      75.331  87.281  65.693  1.00  0.00    -0.025 A 
ATOM      8  C   UNL     1      75.507  84.831  65.575  1.00  0.00     0.160 A 
ATOM      9  C   UNL     1      76.515  84.953  64.595  1.00  0.00     0.157 A 
ATOM     10  C   UNL     1      74.935  85.995  66.132  1.00  0.00     0.056 A 
ATOM     11  C   UNL     1      76.935  86.227  64.172  1.00  0.00     0.050 A 
ATOM     12  C   UNL     1      76.345  87.382  64.712  1.00  0.00     0.009 A 
BRANCH   8  13
ATOM     13  O   UNL     1      75.097  83.600  66.016  1.00  0.00    -0.493 OA
ATOM     14  C   UNL     1      73.787  83.602  66.614  1.00  0.00     0.278 C 
ENDBRANCH   8  13
BRANCH   9  15
ATOM     15  O   UNL     1      77.073  83.840  64.056  1.00  0.00    -0.504 OA
ATOM     16  H   UNL     1      76.451  83.111  64.110  1.00  0.00     0.293 HD
ENDBRANCH   9  15
ENDBRANCH   6   7
ENDBRANCH   3   6
ENDBRANCH   1   2
BRANCH   1  17
ATOM     17  C   UNL     1      75.608  87.578  70.433  1.00  0.00     0.010 C 
BRANCH  17  18
ATOM     18  C   UNL     1      74.957  86.177  70.264  1.00  0.00     0.001 C 
BRANCH  18  19
ATOM     19  C   UNL     1      75.917  85.120  69.659  1.00  0.00     0.000 C 
BRANCH  19  20
ATOM     20  C   UNL     1      77.409  85.429  69.977  1.00  0.00     0.003 C 
BRANCH  20  21
ATOM     21  C   UNL     1      78.356  85.462  68.734  1.00  0.00    -0.017 C 
ATOM     22  C   UNL     1      78.145  86.766  67.909  1.00  0.00     0.007 C 
ATOM     23  C   UNL     1      78.192  84.216  67.816  1.00  0.00     0.007 C 
ENDBRANCH  20  21
ENDBRANCH  19  20
ENDBRANCH  18  19
ENDBRANCH  17  18
ENDBRANCH   1  17
TORSDOF 10
ENDMDL
MODEL 10
REMARK VINA RESULT:    -5.343      4.577      7.242
REMARK INTER + INTRA:          -9.002
REMARK INTER:                  -8.236
REMARK INTRA:                  -0.765
REMARK UNBOUND:                -0.692
REMARK SMILES COc1cc(CNC(=O)CCCCCC(C)C)ccc1O
REMARK SMILES IDX 10 1 8 2 7 3 9 5 6 6 5 7 3 8 20 9 4 10 19 11 18 12 2 13 1 14
REMARK SMILES IDX 21 15 11 17 12 18 13 19 14 20 15 21 16 22 17 23
REMARK H PARENT 7 4 21 16
REMARK Flexibility Score: inf
ROOT
ATOM      1  C   UNL     1      75.124  92.056  70.964  1.00  0.00     0.100 C 
ENDROOT
BRANCH   1   2
ATOM      2  C   UNL     1      74.631  90.760  70.454  1.00  0.00     0.220 C 
ATOM      3  N   UNL     1      75.186  89.604  70.915  1.00  0.00    -0.352 N 
ATOM      4  H   UNL     1      76.007  89.727  71.491  1.00  0.00     0.163 HD
ATOM      5  O   UNL     1      73.679  90.750  69.636  1.00  0.00    -0.275 OA
BRANCH   3   6
ATOM      6  C   UNL     1      74.696  88.291  70.642  1.00  0.00     0.151 C 
BRANCH   6   7
ATOM      7  C   UNL     1      75.701  87.418  69.978  1.00  0.00    -0.025 A 
ATOM      8  C   UNL     1      77.335  87.032  68.182  1.00  0.00     0.160 A 
ATOM      9  C   UNL     1      77.664  85.784  68.752  1.00  0.00     0.157 A 
ATOM     10  C   UNL     1      76.343  87.833  68.787  1.00  0.00     0.056 A 
ATOM     11  C   UNL     1      77.013  85.350  69.921  1.00  0.00     0.050 A 
ATOM     12  C   UNL     1      76.043  86.163  70.533  1.00  0.00     0.009 A 
BRANCH   8  13
ATOM     13  O   UNL     1      77.944  87.464  67.032  1.00  0.00    -0.493 OA
ATOM     14  C   UNL     1      77.127  87.326  65.854  1.00  0.00     0.278 C 
ENDBRANCH   8  13
BRANCH   9  15
ATOM     15  O   UNL     1      78.615  85.006  68.176  1.00  0.00    -0.504 OA
ATOM     16  H   UNL     1      79.316  85.562  67.829  1.00  0.00     0.293 HD
ENDBRANCH   9  15
ENDBRANCH   6   7
ENDBRANCH   3   6
ENDBRANCH   1   2
BRANCH   1  17
ATOM     17  C   UNL     1      76.430  91.959  71.797  1.00  0.00     0.010 C 
BRANCH  17  18
ATOM     18  C   UNL     1      77.163  93.327  71.874  1.00  0.00     0.001 C 
BRANCH  18  19
ATOM     19  C   UNL     1      78.312  93.352  72.916  1.00  0.00     0.000 C 
BRANCH  19  20
ATOM     20  C   UNL     1      77.946  94.190  74.176  1.00  0.00     0.003 C 
BRANCH  20  21
ATOM     21  C   UNL     1      77.671  93.353  75.468  1.00  0.00    -0.017 C 
ATOM     22  C   UNL     1      76.185  92.894  75.527  1.00  0.00     0.007 C 
ATOM     23  C   UNL     1      78.047  94.114  76.772  1.00  0.00     0.007 C 
ENDBRANCH  20  21
ENDBRANCH  19  20
ENDBRANCH  18  19
ENDBRANCH  17  18
ENDBRANCH   1  17
TORSDOF 10
ENDMDL
