MODEL 1
REMARK VINA RESULT:    -5.695      0.000      0.000
REMARK INTER + INTRA:         -10.007
REMARK INTER:                  -9.191
REMARK INTRA:                  -0.816
REMARK UNBOUND:                -0.816
REMARK SMILES CCCCCCCCC(=O)NCc1ccc(O)c(OC)c1
REMARK SMILES IDX 7 1 6 2 5 3 4 4 3 5 2 6 1 7 8 8 9 9 10 10 11 11 12 13 13 14
REMARK SMILES IDX 21 15 14 16 18 17 15 18 16 19 19 20 20 21 17 22
REMARK H PARENT 11 12 17 23
REMARK Flexibility Score: inf
ROOT
ATOM      1  C   UNL     1      89.577  98.932  70.523  1.00  0.00     0.010 C 
ENDROOT
BRANCH   1   2
ATOM      2  C   UNL     1      90.795  99.876  70.733  1.00  0.00     0.001 C 
BRANCH   2   3
ATOM      3  C   UNL     1      92.099  99.305  70.100  1.00  0.00     0.000 C 
BRANCH   3   4
ATOM      4  C   UNL     1      93.390  99.671  70.887  1.00  0.00    -0.000 C 
BRANCH   4   5
ATOM      5  C   UNL     1      93.145  99.796  72.417  1.00  0.00    -0.000 C 
BRANCH   5   6
ATOM      6  C   UNL     1      94.226  99.063  73.256  1.00  0.00    -0.003 C 
ATOM      7  C   UNL     1      93.665  97.845  74.024  1.00  0.00     0.004 C 
ENDBRANCH   5   6
ENDBRANCH   4   5
ENDBRANCH   3   4
ENDBRANCH   2   3
ENDBRANCH   1   2
BRANCH   1   8
ATOM      8  C   UNL     1      89.773  97.895  69.382  1.00  0.00     0.100 C 
BRANCH   8   9
ATOM      9  C   UNL     1      89.376  98.457  68.068  1.00  0.00     0.220 C 
ATOM     10  O   UNL     1      90.131  98.264  67.085  1.00  0.00    -0.275 OA
ATOM     11  N   UNL     1      88.202  99.141  67.932  1.00  0.00    -0.352 N 
ATOM     12  H   UNL     1      87.716  99.312  68.800  1.00  0.00     0.163 HD
BRANCH  11  13
ATOM     13  C   UNL     1      87.643  99.605  66.700  1.00  0.00     0.151 C 
BRANCH  13  14
ATOM     14  C   UNL     1      87.740 101.077  66.512  1.00  0.00    -0.025 A 
ATOM     15  C   UNL     1      89.001 101.719  66.557  1.00  0.00     0.056 A 
ATOM     16  C   UNL     1      86.584 101.860  66.291  1.00  0.00     0.009 A 
ATOM     17  C   UNL     1      89.111 103.115  66.363  1.00  0.00     0.160 A 
ATOM     18  C   UNL     1      86.687 103.249  66.097  1.00  0.00     0.050 A 
ATOM     19  C   UNL     1      87.944 103.881  66.139  1.00  0.00     0.157 A 
BRANCH  17  20
ATOM     20  O   UNL     1      90.329 103.741  66.449  1.00  0.00    -0.493 OA
ATOM     21  C   UNL     1      91.303 103.266  65.503  1.00  0.00     0.278 C 
ENDBRANCH  17  20
BRANCH  19  22
ATOM     22  O   UNL     1      88.031 105.226  65.978  1.00  0.00    -0.504 OA
ATOM     23  H   UNL     1      88.922 105.516  66.183  1.00  0.00     0.293 HD
ENDBRANCH  19  22
ENDBRANCH  13  14
ENDBRANCH  11  13
ENDBRANCH   8   9
ENDBRANCH   1   8
TORSDOF 11
ENDMDL
MODEL 2
REMARK VINA RESULT:    -5.671     20.664     23.303
REMARK INTER + INTRA:          -9.968
REMARK INTER:                  -9.225
REMARK INTRA:                  -0.743
REMARK UNBOUND:                -0.816
REMARK SMILES CCCCCCCCC(=O)NCc1ccc(O)c(OC)c1
REMARK SMILES IDX 7 1 6 2 5 3 4 4 3 5 2 6 1 7 8 8 9 9 10 10 11 11 12 13 13 14
REMARK SMILES IDX 21 15 14 16 18 17 15 18 16 19 19 20 20 21 17 22
REMARK H PARENT 11 12 17 23
REMARK Flexibility Score: inf
ROOT
ATOM      1  C   UNL     1      96.263  81.533  84.096  1.00  0.00     0.010 C 
ENDROOT
BRANCH   1   2
ATOM      2  C   UNL     1      94.938  80.861  84.558  1.00  0.00     0.001 C 
BRANCH   2   3
ATOM      3  C   UNL     1      93.822  81.905  84.861  1.00  0.00     0.000 C 
BRANCH   3   4
ATOM      4  C   UNL     1      94.094  82.762  86.129  1.00  0.00    -0.000 C 
BRANCH   4   5
ATOM      5  C   UNL     1      93.893  84.284  85.879  1.00  0.00    -0.000 C 
BRANCH   5   6
ATOM      6  C   UNL     1      95.183  85.107  86.142  1.00  0.00    -0.003 C 
ATOM      7  C   UNL     1      95.738  84.911  87.570  1.00  0.00     0.004 C 
ENDBRANCH   5   6
ENDBRANCH   4   5
ENDBRANCH   3   4
ENDBRANCH   2   3
ENDBRANCH   1   2
BRANCH   1   8
ATOM      8  C   UNL     1      96.158  82.255  82.723  1.00  0.00     0.100 C 
BRANCH   8   9
ATOM      9  C   UNL     1      96.762  81.444  81.639  1.00  0.00     0.220 C 
ATOM     10  O   UNL     1      96.614  80.199  81.674  1.00  0.00    -0.275 OA
ATOM     11  N   UNL     1      97.438  82.046  80.617  1.00  0.00    -0.352 N 
ATOM     12  H   UNL     1      97.572  83.040  80.733  1.00  0.00     0.163 HD
BRANCH  11  13
ATOM     13  C   UNL     1      97.941  81.392  79.448  1.00  0.00     0.151 C 
BRANCH  13  14
ATOM     14  C   UNL     1      97.405  81.941  78.174  1.00  0.00    -0.025 A 
ATOM     15  C   UNL     1      98.195  81.917  77.000  1.00  0.00     0.056 A 
ATOM     16  C   UNL     1      96.106  82.497  78.111  1.00  0.00     0.009 A 
ATOM     17  C   UNL     1      97.692  82.419  75.777  1.00  0.00     0.160 A 
ATOM     18  C   UNL     1      95.600  82.997  76.899  1.00  0.00     0.050 A 
ATOM     19  C   UNL     1      96.390  82.967  75.733  1.00  0.00     0.157 A 
BRANCH  17  20
ATOM     20  O   UNL     1      98.474  82.434  74.650  1.00  0.00    -0.493 OA
ATOM     21  C   UNL     1      99.347  81.297  74.525  1.00  0.00     0.278 C 
ENDBRANCH  17  20
BRANCH  19  22
ATOM     22  O   UNL     1      95.903  83.478  74.574  1.00  0.00    -0.504 OA
ATOM     23  H   UNL     1      96.183  84.391  74.483  1.00  0.00     0.293 HD
ENDBRANCH  19  22
ENDBRANCH  13  14
ENDBRANCH  11  13
ENDBRANCH   8   9
ENDBRANCH   1   8
TORSDOF 11
ENDMDL
MODEL 3
REMARK VINA RESULT:    -5.550      3.186      6.079
REMARK INTER + INTRA:          -9.773
REMARK INTER:                  -9.154
REMARK INTRA:                  -0.619
REMARK UNBOUND:                -0.816
REMARK SMILES CCCCCCCCC(=O)NCc1ccc(O)c(OC)c1
REMARK SMILES IDX 7 1 6 2 5 3 4 4 3 5 2 6 1 7 8 8 9 9 10 10 11 11 12 13 13 14
REMARK SMILES IDX 21 15 14 16 18 17 15 18 16 19 19 20 20 21 17 22
REMARK H PARENT 11 12 17 23
REMARK Flexibility Score: inf
ROOT
ATOM      1  C   UNL     1      94.169  98.467  73.851  1.00  0.00     0.010 C 
ENDROOT
BRANCH   1   2
ATOM      2  C   UNL     1      94.430  97.005  74.315  1.00  0.00     0.001 C 
BRANCH   2   3
ATOM      3  C   UNL     1      93.159  96.346  74.927  1.00  0.00     0.000 C 
BRANCH   3   4
ATOM      4  C   UNL     1      93.336  95.896  76.405  1.00  0.00    -0.000 C 
BRANCH   4   5
ATOM      5  C   UNL     1      91.985  95.807  77.171  1.00  0.00    -0.000 C 
BRANCH   5   6
ATOM      6  C   UNL     1      91.072  94.670  76.638  1.00  0.00    -0.003 C 
ATOM      7  C   UNL     1      91.083  93.418  77.543  1.00  0.00     0.004 C 
ENDBRANCH   5   6
ENDBRANCH   4   5
ENDBRANCH   3   4
ENDBRANCH   2   3
ENDBRANCH   1   2
BRANCH   1   8
ATOM      8  C   UNL     1      95.333  99.083  73.026  1.00  0.00     0.100 C 
BRANCH   8   9
ATOM      9  C   UNL     1      94.823  99.897  71.896  1.00  0.00     0.220 C 
ATOM     10  O   UNL     1      95.639 100.282  71.025  1.00  0.00    -0.275 OA
ATOM     11  N   UNL     1      93.493 100.191  71.798  1.00  0.00    -0.352 N 
ATOM     12  H   UNL     1      92.943  99.907  72.595  1.00  0.00     0.163 HD
BRANCH  11  13
ATOM     13  C   UNL     1      92.861 100.841  70.691  1.00  0.00     0.151 C 
BRANCH  13  14
ATOM     14  C   UNL     1      91.705 100.090  70.133  1.00  0.00    -0.025 A 
ATOM     15  C   UNL     1      91.363 100.224  68.766  1.00  0.00     0.056 A 
ATOM     16  C   UNL     1      90.929  99.237  70.950  1.00  0.00     0.009 A 
ATOM     17  C   UNL     1      90.277  99.503  68.217  1.00  0.00     0.160 A 
ATOM     18  C   UNL     1      89.849  98.516  70.410  1.00  0.00     0.050 A 
ATOM     19  C   UNL     1      89.516  98.651  69.049  1.00  0.00     0.157 A 
BRANCH  17  20
ATOM     20  O   UNL     1      89.921  99.666  66.902  1.00  0.00    -0.493 OA
ATOM     21  C   UNL     1      90.804 100.520  66.154  1.00  0.00     0.278 C 
ENDBRANCH  17  20
BRANCH  19  22
ATOM     22  O   UNL     1      88.454  97.973  68.543  1.00  0.00    -0.504 OA
ATOM     23  H   UNL     1      87.947  98.553  67.970  1.00  0.00     0.293 HD
ENDBRANCH  19  22
ENDBRANCH  13  14
ENDBRANCH  11  13
ENDBRANCH   8   9
ENDBRANCH   1   8
TORSDOF 11
ENDMDL
MODEL 4
REMARK VINA RESULT:    -5.503      4.548     10.313
REMARK INTER + INTRA:          -9.697
REMARK INTER:                  -9.385
REMARK INTRA:                  -0.312
REMARK UNBOUND:                -0.816
REMARK SMILES CCCCCCCCC(=O)NCc1ccc(O)c(OC)c1
REMARK SMILES IDX 7 1 6 2 5 3 4 4 3 5 2 6 1 7 8 8 9 9 10 10 11 11 12 13 13 14
REMARK SMILES IDX 21 15 14 16 18 17 15 18 16 19 19 20 20 21 17 22
REMARK H PARENT 11 12 17 23
REMARK Flexibility Score: inf
ROOT
ATOM      1  C   UNL     1      91.235  99.315  71.027  1.00  0.00     0.010 C 
ENDROOT
BRANCH   1   2
ATOM      2  C   UNL     1      90.544 100.129  69.895  1.00  0.00     0.001 C 
BRANCH   2   3
ATOM      3  C   UNL     1      90.679  99.439  68.506  1.00  0.00     0.000 C 
BRANCH   3   4
ATOM      4  C   UNL     1      89.498  98.488  68.160  1.00  0.00    -0.000 C 
BRANCH   4   5
ATOM      5  C   UNL     1      88.715  98.940  66.895  1.00  0.00    -0.000 C 
BRANCH   5   6
ATOM      6  C   UNL     1      87.788 100.155  67.169  1.00  0.00    -0.003 C 
ATOM      7  C   UNL     1      86.497 100.128  66.322  1.00  0.00     0.004 C 
ENDBRANCH   5   6
ENDBRANCH   4   5
ENDBRANCH   3   4
ENDBRANCH   2   3
ENDBRANCH   1   2
BRANCH   1   8
ATOM      8  C   UNL     1      92.218 100.151  71.893  1.00  0.00     0.100 C 
BRANCH   8   9
ATOM      9  C   UNL     1      93.375  99.337  72.336  1.00  0.00     0.220 C 
ATOM     10  O   UNL     1      94.438  99.405  71.674  1.00  0.00    -0.275 OA
ATOM     11  N   UNL     1      93.288  98.556  73.452  1.00  0.00    -0.352 N 
ATOM     12  H   UNL     1      92.364  98.508  73.857  1.00  0.00     0.163 HD
BRANCH  11  13
ATOM     13  C   UNL     1      94.368  97.839  74.057  1.00  0.00     0.151 C 
BRANCH  13  14
ATOM     14  C   UNL     1      93.946  96.603  74.769  1.00  0.00    -0.025 A 
ATOM     15  C   UNL     1      92.847  96.635  75.660  1.00  0.00     0.056 A 
ATOM     16  C   UNL     1      94.632  95.382  74.574  1.00  0.00     0.009 A 
ATOM     17  C   UNL     1      92.423  95.464  76.330  1.00  0.00     0.160 A 
ATOM     18  C   UNL     1      94.215  94.214  75.237  1.00  0.00     0.050 A 
ATOM     19  C   UNL     1      93.119  94.252  76.120  1.00  0.00     0.157 A 
BRANCH  17  20
ATOM     20  O   UNL     1      91.384  95.505  77.226  1.00  0.00    -0.493 OA
ATOM     21  C   UNL     1      90.154  94.951  76.726  1.00  0.00     0.278 C 
ENDBRANCH  17  20
BRANCH  19  22
ATOM     22  O   UNL     1      92.741  93.125  76.776  1.00  0.00    -0.504 OA
ATOM     23  H   UNL     1      92.592  92.420  76.142  1.00  0.00     0.293 HD
ENDBRANCH  19  22
ENDBRANCH  13  14
ENDBRANCH  11  13
ENDBRANCH   8   9
ENDBRANCH   1   8
TORSDOF 11
ENDMDL
MODEL 5
REMARK VINA RESULT:    -5.444     20.765     23.427
REMARK INTER + INTRA:          -9.602
REMARK INTER:                  -8.140
REMARK INTRA:                  -1.461
REMARK UNBOUND:                -0.816
REMARK SMILES CCCCCCCCC(=O)NCc1ccc(O)c(OC)c1
REMARK SMILES IDX 7 1 6 2 5 3 4 4 3 5 2 6 1 7 8 8 9 9 10 10 11 11 12 13 13 14
REMARK SMILES IDX 21 15 14 16 18 17 15 18 16 19 19 20 20 21 17 22
REMARK H PARENT 11 12 17 23
REMARK Flexibility Score: inf
ROOT
ATOM      1  C   UNL     1      71.120  83.131  65.653  1.00  0.00     0.010 C 
ENDROOT
BRANCH   1   2
ATOM      2  C   UNL     1      70.823  81.678  65.183  1.00  0.00     0.001 C 
BRANCH   2   3
ATOM      3  C   UNL     1      72.096  80.963  64.641  1.00  0.00     0.000 C 
BRANCH   3   4
ATOM      4  C   UNL     1      73.339  81.891  64.535  1.00  0.00    -0.000 C 
BRANCH   4   5
ATOM      5  C   UNL     1      74.373  81.642  65.670  1.00  0.00    -0.000 C 
BRANCH   5   6
ATOM      6  C   UNL     1      75.121  82.936  66.090  1.00  0.00    -0.003 C 
ATOM      7  C   UNL     1      75.203  83.977  64.953  1.00  0.00     0.004 C 
ENDBRANCH   5   6
ENDBRANCH   4   5
ENDBRANCH   3   4
ENDBRANCH   2   3
ENDBRANCH   1   2
BRANCH   1   8
ATOM      8  C   UNL     1      69.972  83.770  66.484  1.00  0.00     0.100 C 
BRANCH   8   9
ATOM      9  C   UNL     1      70.501  84.716  67.496  1.00  0.00     0.220 C 
ATOM     10  O   UNL     1      69.869  84.854  68.571  1.00  0.00    -0.275 OA
ATOM     11  N   UNL     1      71.664  85.396  67.270  1.00  0.00    -0.352 N 
ATOM     12  H   UNL     1      72.043  85.278  66.342  1.00  0.00     0.163 HD
BRANCH  11  13
ATOM     13  C   UNL     1      72.347  86.223  68.217  1.00  0.00     0.151 C 
BRANCH  13  14
ATOM     14  C   UNL     1      73.827  86.081  68.183  1.00  0.00    -0.025 A 
ATOM     15  C   UNL     1      74.596  86.852  67.279  1.00  0.00     0.056 A 
ATOM     16  C   UNL     1      74.490  85.176  69.043  1.00  0.00     0.009 A 
ATOM     17  C   UNL     1      76.005  86.741  67.247  1.00  0.00     0.160 A 
ATOM     18  C   UNL     1      75.891  85.061  69.017  1.00  0.00     0.050 A 
ATOM     19  C   UNL     1      76.651  85.834  68.117  1.00  0.00     0.157 A 
BRANCH  17  20
ATOM     20  O   UNL     1      76.745  87.458  66.341  1.00  0.00    -0.493 OA
ATOM     21  C   UNL     1      76.834  88.864  66.636  1.00  0.00     0.278 C 
ENDBRANCH  17  20
BRANCH  19  22
ATOM     22  O   UNL     1      78.001  85.695  68.080  1.00  0.00    -0.504 OA
ATOM     23  H   UNL     1      78.325  85.491  68.960  1.00  0.00     0.293 HD
ENDBRANCH  19  22
ENDBRANCH  13  14
ENDBRANCH  11  13
ENDBRANCH   8   9
ENDBRANCH   1   8
TORSDOF 11
ENDMDL
MODEL 6
REMARK VINA RESULT:    -5.309     20.780     23.762
REMARK INTER + INTRA:          -9.383
REMARK INTER:                  -8.744
REMARK INTRA:                  -0.640
REMARK UNBOUND:                -0.816
REMARK SMILES CCCCCCCCC(=O)NCc1ccc(O)c(OC)c1
REMARK SMILES IDX 7 1 6 2 5 3 4 4 3 5 2 6 1 7 8 8 9 9 10 10 11 11 12 13 13 14
REMARK SMILES IDX 21 15 14 16 18 17 15 18 16 19 19 20 20 21 17 22
REMARK H PARENT 11 12 17 23
REMARK Flexibility Score: inf
ROOT
ATOM      1  C   UNL     1      96.720  81.403  83.647  1.00  0.00     0.010 C 
ENDROOT
BRANCH   1   2
ATOM      2  C   UNL     1      95.768  80.316  84.223  1.00  0.00     0.001 C 
BRANCH   2   3
ATOM      3  C   UNL     1      95.221  80.698  85.630  1.00  0.00     0.000 C 
BRANCH   3   4
ATOM      4  C   UNL     1      94.094  81.768  85.596  1.00  0.00    -0.000 C 
BRANCH   4   5
ATOM      5  C   UNL     1      92.848  81.302  84.791  1.00  0.00    -0.000 C 
BRANCH   5   6
ATOM      6  C   UNL     1      92.347  79.899  85.228  1.00  0.00    -0.003 C 
ATOM      7  C   UNL     1      90.806  79.792  85.250  1.00  0.00     0.004 C 
ENDBRANCH   5   6
ENDBRANCH   4   5
ENDBRANCH   3   4
ENDBRANCH   2   3
ENDBRANCH   1   2
BRANCH   1   8
ATOM      8  C   UNL     1      96.286  81.950  82.258  1.00  0.00     0.100 C 
BRANCH   8   9
ATOM      9  C   UNL     1      97.012  81.270  81.159  1.00  0.00     0.220 C 
ATOM     10  O   UNL     1      96.920  80.022  81.067  1.00  0.00    -0.275 OA
ATOM     11  N   UNL     1      97.738  81.992  80.256  1.00  0.00    -0.352 N 
ATOM     12  H   UNL     1      97.816  82.975  80.473  1.00  0.00     0.163 HD
BRANCH  11  13
ATOM     13  C   UNL     1      98.363  81.472  79.078  1.00  0.00     0.151 C 
BRANCH  13  14
ATOM     14  C   UNL     1      97.721  81.915  77.812  1.00  0.00    -0.025 A 
ATOM     15  C   UNL     1      98.413  81.793  76.583  1.00  0.00     0.056 A 
ATOM     16  C   UNL     1      96.419  82.466  77.810  1.00  0.00     0.009 A 
ATOM     17  C   UNL     1      97.809  82.193  75.368  1.00  0.00     0.160 A 
ATOM     18  C   UNL     1      95.813  82.865  76.606  1.00  0.00     0.050 A 
ATOM     19  C   UNL     1      96.505  82.738  75.386  1.00  0.00     0.157 A 
BRANCH  17  20
ATOM     20  O   UNL     1      98.496  82.113  74.184  1.00  0.00    -0.493 OA
ATOM     21  C   UNL     1      98.768  80.769  73.750  1.00  0.00     0.278 C 
ENDBRANCH  17  20
BRANCH  19  22
ATOM     22  O   UNL     1      95.922  83.152  74.233  1.00  0.00    -0.504 OA
ATOM     23  H   UNL     1      95.492  82.407  73.806  1.00  0.00     0.293 HD
ENDBRANCH  19  22
ENDBRANCH  13  14
ENDBRANCH  11  13
ENDBRANCH   8   9
ENDBRANCH   1   8
TORSDOF 11
ENDMDL
MODEL 7
REMARK VINA RESULT:    -5.306      8.173     10.882
REMARK INTER + INTRA:          -9.378
REMARK INTER:                  -8.136
REMARK INTRA:                  -1.243
REMARK UNBOUND:                -0.816
REMARK SMILES CCCCCCCCC(=O)NCc1ccc(O)c(OC)c1
REMARK SMILES IDX 7 1 6 2 5 3 4 4 3 5 2 6 1 7 8 8 9 9 10 10 11 11 12 13 13 14
REMARK SMILES IDX 21 15 14 16 18 17 15 18 16 19 19 20 20 21 17 22
REMARK H PARENT 11 12 17 23
REMARK Flexibility Score: inf
ROOT
ATOM      1  C   UNL     1      95.369  93.078  78.527  1.00  0.00     0.010 C 
ENDROOT
BRANCH   1   2
ATOM      2  C   UNL     1      96.301  93.198  79.767  1.00  0.00     0.001 C 
BRANCH   2   3
ATOM      3  C   UNL     1      97.405  94.278  79.572  1.00  0.00     0.000 C 
BRANCH   3   4
ATOM      4  C   UNL     1      97.075  95.641  80.244  1.00  0.00    -0.000 C 
BRANCH   4   5
ATOM      5  C   UNL     1      96.905  96.793  79.214  1.00  0.00    -0.000 C 
BRANCH   5   6
ATOM      6  C   UNL     1      97.772  96.588  77.942  1.00  0.00    -0.003 C 
ATOM      7  C   UNL     1      97.063  97.054  76.652  1.00  0.00     0.004 C 
ENDBRANCH   5   6
ENDBRANCH   4   5
ENDBRANCH   3   4
ENDBRANCH   2   3
ENDBRANCH   1   2
BRANCH   1   8
ATOM      8  C   UNL     1      93.867  93.328  78.843  1.00  0.00     0.100 C 
BRANCH   8   9
ATOM      9  C   UNL     1      93.147  93.852  77.657  1.00  0.00     0.220 C 
ATOM     10  O   UNL     1      92.183  93.188  77.205  1.00  0.00    -0.275 OA
ATOM     11  N   UNL     1      93.510  95.042  77.094  1.00  0.00    -0.352 N 
ATOM     12  H   UNL     1      94.349  95.448  77.481  1.00  0.00     0.163 HD
BRANCH  11  13
ATOM     13  C   UNL     1      92.811  95.717  76.045  1.00  0.00     0.151 C 
BRANCH  13  14
ATOM     14  C   UNL     1      93.697  96.241  74.971  1.00  0.00    -0.025 A 
ATOM     15  C   UNL     1      93.528  97.560  74.488  1.00  0.00     0.056 A 
ATOM     16  C   UNL     1      94.717  95.435  74.414  1.00  0.00     0.009 A 
ATOM     17  C   UNL     1      94.375  98.077  73.480  1.00  0.00     0.160 A 
ATOM     18  C   UNL     1      95.562  95.944  73.412  1.00  0.00     0.050 A 
ATOM     19  C   UNL     1      95.391  97.259  72.938  1.00  0.00     0.157 A 
BRANCH  17  20
ATOM     20  O   UNL     1      94.182  99.342  72.984  1.00  0.00    -0.493 OA
ATOM     21  C   UNL     1      94.722 100.388  73.811  1.00  0.00     0.278 C 
ENDBRANCH  17  20
BRANCH  19  22
ATOM     22  O   UNL     1      96.194  97.731  71.951  1.00  0.00    -0.504 OA
ATOM     23  H   UNL     1      96.397  97.022  71.336  1.00  0.00     0.293 HD
ENDBRANCH  19  22
ENDBRANCH  13  14
ENDBRANCH  11  13
ENDBRANCH   8   9
ENDBRANCH   1   8
TORSDOF 11
ENDMDL
MODEL 8
REMARK VINA RESULT:    -5.298      1.915      2.902
REMARK INTER + INTRA:          -9.367
REMARK INTER:                  -7.940
REMARK INTRA:                  -1.426
REMARK UNBOUND:                -0.816
REMARK SMILES CCCCCCCCC(=O)NCc1ccc(O)c(OC)c1
REMARK SMILES IDX 7 1 6 2 5 3 4 4 3 5 2 6 1 7 8 8 9 9 10 10 11 11 12 13 13 14
REMARK SMILES IDX 21 15 14 16 18 17 15 18 16 19 19 20 20 21 17 22
REMARK H PARENT 11 12 17 23
REMARK Flexibility Score: inf
ROOT
ATOM      1  C   UNL     1      89.662  98.678  70.538  1.00  0.00     0.010 C 
ENDROOT
BRANCH   1   2
ATOM      2  C   UNL     1      90.794  99.669  70.936  1.00  0.00     0.001 C 
BRANCH   2   3
ATOM      3  C   UNL     1      90.452 101.139  70.553  1.00  0.00     0.000 C 
BRANCH   3   4
ATOM      4  C   UNL     1      91.696 102.066  70.453  1.00  0.00    -0.000 C 
BRANCH   4   5
ATOM      5  C   UNL     1      92.004 102.500  68.991  1.00  0.00    -0.000 C 
BRANCH   5   6
ATOM      6  C   UNL     1      92.861 101.455  68.227  1.00  0.00    -0.003 C 
ATOM      7  C   UNL     1      93.026 101.793  66.729  1.00  0.00     0.004 C 
ENDBRANCH   5   6
ENDBRANCH   4   5
ENDBRANCH   3   4
ENDBRANCH   2   3
ENDBRANCH   1   2
BRANCH   1   8
ATOM      8  C   UNL     1      90.115  97.567  69.551  1.00  0.00     0.100 C 
BRANCH   8   9
ATOM      9  C   UNL     1      89.802  97.931  68.148  1.00  0.00     0.220 C 
ATOM     10  O   UNL     1      89.023  97.191  67.501  1.00  0.00    -0.275 OA
ATOM     11  N   UNL     1      90.330  99.060  67.589  1.00  0.00    -0.352 N 
ATOM     12  H   UNL     1      91.010  99.533  68.167  1.00  0.00     0.163 HD
BRANCH  11  13
ATOM     13  C   UNL     1      89.995  99.591  66.303  1.00  0.00     0.151 C 
BRANCH  13  14
ATOM     14  C   UNL     1      88.967 100.664  66.345  1.00  0.00    -0.025 A 
ATOM     15  C   UNL     1      89.356 102.020  66.461  1.00  0.00     0.056 A 
ATOM     16  C   UNL     1      87.589 100.354  66.273  1.00  0.00     0.009 A 
ATOM     17  C   UNL     1      88.390 103.052  66.484  1.00  0.00     0.160 A 
ATOM     18  C   UNL     1      86.624 101.376  66.295  1.00  0.00     0.050 A 
ATOM     19  C   UNL     1      87.018 102.723  66.408  1.00  0.00     0.157 A 
BRANCH  17  20
ATOM     20  O   UNL     1      88.768 104.363  66.639  1.00  0.00    -0.493 OA
ATOM     21  C   UNL     1      89.746 104.810  65.685  1.00  0.00     0.278 C 
ENDBRANCH  17  20
BRANCH  19  22
ATOM     22  O   UNL     1      86.077 103.701  66.455  1.00  0.00    -0.504 OA
ATOM     23  H   UNL     1      85.737 103.860  65.572  1.00  0.00     0.293 HD
ENDBRANCH  19  22
ENDBRANCH  13  14
ENDBRANCH  11  13
ENDBRANCH   8   9
ENDBRANCH   1   8
TORSDOF 11
ENDMDL
MODEL 9
REMARK VINA RESULT:    -5.274     11.581     13.322
REMARK INTER + INTRA:          -9.327
REMARK INTER:                  -8.452
REMARK INTRA:                  -0.875
REMARK UNBOUND:                -0.816
REMARK SMILES CCCCCCCCC(=O)NCc1ccc(O)c(OC)c1
REMARK SMILES IDX 7 1 6 2 5 3 4 4 3 5 2 6 1 7 8 8 9 9 10 10 11 11 12 13 13 14
REMARK SMILES IDX 21 15 14 16 18 17 15 18 16 19 19 20 20 21 17 22
REMARK H PARENT 11 12 17 23
REMARK Flexibility Score: inf
ROOT
ATOM      1  C   UNL     1      97.336  94.717  79.588  1.00  0.00     0.010 C 
ENDROOT
BRANCH   1   2
ATOM      2  C   UNL     1      98.496  95.588  79.025  1.00  0.00     0.001 C 
BRANCH   2   3
ATOM      3  C   UNL     1      98.529  97.009  79.661  1.00  0.00     0.000 C 
BRANCH   3   4
ATOM      4  C   UNL     1      97.129  97.676  79.778  1.00  0.00    -0.000 C 
BRANCH   4   5
ATOM      5  C   UNL     1      96.818  98.171  81.219  1.00  0.00    -0.000 C 
BRANCH   5   6
ATOM      6  C   UNL     1      96.422  97.013  82.174  1.00  0.00    -0.003 C 
ATOM      7  C   UNL     1      97.042  97.158  83.581  1.00  0.00     0.004 C 
ENDBRANCH   5   6
ENDBRANCH   4   5
ENDBRANCH   3   4
ENDBRANCH   2   3
ENDBRANCH   1   2
BRANCH   1   8
ATOM      8  C   UNL     1      96.708  93.753  78.543  1.00  0.00     0.100 C 
BRANCH   8   9
ATOM      9  C   UNL     1      95.415  94.273  78.037  1.00  0.00     0.220 C 
ATOM     10  O   UNL     1      94.834  95.168  78.697  1.00  0.00    -0.275 OA
ATOM     11  N   UNL     1      94.889  93.807  76.866  1.00  0.00    -0.352 N 
ATOM     12  H   UNL     1      95.392  93.030  76.464  1.00  0.00     0.163 HD
BRANCH  11  13
ATOM     13  C   UNL     1      93.730  94.324  76.205  1.00  0.00     0.151 C 
BRANCH  13  14
ATOM     14  C   UNL     1      92.491  93.544  76.466  1.00  0.00    -0.025 A 
ATOM     15  C   UNL     1      91.967  92.685  75.470  1.00  0.00     0.056 A 
ATOM     16  C   UNL     1      91.814  93.647  77.704  1.00  0.00     0.009 A 
ATOM     17  C   UNL     1      90.799  91.925  75.710  1.00  0.00     0.160 A 
ATOM     18  C   UNL     1      90.653  92.892  77.949  1.00  0.00     0.050 A 
ATOM     19  C   UNL     1      90.139  92.037  76.954  1.00  0.00     0.157 A 
BRANCH  17  20
ATOM     20  O   UNL     1      90.270  91.125  74.729  1.00  0.00    -0.493 OA
ATOM     21  C   UNL     1      90.966  89.880  74.544  1.00  0.00     0.278 C 
ENDBRANCH  17  20
BRANCH  19  22
ATOM     22  O   UNL     1      89.002  91.334  77.191  1.00  0.00    -0.504 OA
ATOM     23  H   UNL     1      88.558  91.156  76.359  1.00  0.00     0.293 HD
ENDBRANCH  19  22
ENDBRANCH  13  14
ENDBRANCH  11  13
ENDBRANCH   8   9
ENDBRANCH   1   8
TORSDOF 11
ENDMDL
MODEL 10
REMARK VINA RESULT:    -5.135     20.661     22.846
REMARK INTER + INTRA:          -9.103
REMARK INTER:                  -7.373
REMARK INTRA:                  -1.729
REMARK UNBOUND:                -0.816
REMARK SMILES CCCCCCCCC(=O)NCc1ccc(O)c(OC)c1
REMARK SMILES IDX 7 1 6 2 5 3 4 4 3 5 2 6 1 7 8 8 9 9 10 10 11 11 12 13 13 14
REMARK SMILES IDX 21 15 14 16 18 17 15 18 16 19 19 20 20 21 17 22
REMARK H PARENT 11 12 17 23
REMARK Flexibility Score: inf
ROOT
ATOM      1  C   UNL     1      97.541  80.675  79.189  1.00  0.00     0.010 C 
ENDROOT
BRANCH   1   2
ATOM      2  C   UNL     1      98.971  80.497  79.777  1.00  0.00     0.001 C 
BRANCH   2   3
ATOM      3  C   UNL     1      99.577  79.103  79.440  1.00  0.00     0.000 C 
BRANCH   3   4
ATOM      4  C   UNL     1      99.788  78.862  77.919  1.00  0.00    -0.000 C 
BRANCH   4   5
ATOM      5  C   UNL     1     100.835  79.830  77.298  1.00  0.00    -0.000 C 
BRANCH   5   6
ATOM      6  C   UNL     1     100.308  80.539  76.021  1.00  0.00    -0.003 C 
ATOM      7  C   UNL     1     101.420  80.816  74.986  1.00  0.00     0.004 C 
ENDBRANCH   5   6
ENDBRANCH   4   5
ENDBRANCH   3   4
ENDBRANCH   2   3
ENDBRANCH   1   2
BRANCH   1   8
ATOM      8  C   UNL     1      97.300  82.063  78.531  1.00  0.00     0.100 C 
BRANCH   8   9
ATOM      9  C   UNL     1      96.952  81.926  77.096  1.00  0.00     0.220 C 
ATOM     10  O   UNL     1      96.518  80.821  76.692  1.00  0.00    -0.275 OA
ATOM     11  N   UNL     1      97.075  82.989  76.248  1.00  0.00    -0.352 N 
ATOM     12  H   UNL     1      97.514  83.801  76.657  1.00  0.00     0.163 HD
BRANCH  11  13
ATOM     13  C   UNL     1      96.642  83.024  74.884  1.00  0.00     0.151 C 
BRANCH  13  14
ATOM     14  C   UNL     1      97.697  82.641  73.908  1.00  0.00    -0.025 A 
ATOM     15  C   UNL     1      97.707  81.343  73.344  1.00  0.00     0.056 A 
ATOM     16  C   UNL     1      98.706  83.557  73.531  1.00  0.00     0.009 A 
ATOM     17  C   UNL     1      98.694  80.970  72.402  1.00  0.00     0.160 A 
ATOM     18  C   UNL     1      99.689  83.192  72.594  1.00  0.00     0.050 A 
ATOM     19  C   UNL     1      99.691  81.900  72.034  1.00  0.00     0.157 A 
BRANCH  17  20
ATOM     20  O   UNL     1      98.726  79.698  71.887  1.00  0.00    -0.493 OA
ATOM     21  C   UNL     1      99.222  78.705  72.803  1.00  0.00     0.278 C 
ENDBRANCH  17  20
BRANCH  19  22
ATOM     22  O   UNL     1     100.661  81.549  71.151  1.00  0.00    -0.504 OA
ATOM     23  H   UNL     1     101.405  81.172  71.626  1.00  0.00     0.293 HD
ENDBRANCH  19  22
ENDBRANCH  13  14
ENDBRANCH  11  13
ENDBRANCH   8   9
ENDBRANCH   1   8
TORSDOF 11
ENDMDL
