MODEL 1
REMARK VINA RESULT:    -5.403      0.000      0.000
REMARK INTER + INTRA:         -10.631
REMARK INTER:                  -8.877
REMARK INTRA:                  -1.754
REMARK UNBOUND:                -1.754
REMARK SMILES CCCCC[C@H](O)CC(=O)CCc1ccc(O)c(OC)c1
REMARK SMILES IDX 8 1 6 2 7 3 5 5 4 6 3 7 2 8 1 9 9 10 10 11 11 12 12 13 13 14
REMARK SMILES IDX 21 15 14 16 18 17 15 18 16 19 19 20 20 21 17 22
REMARK H PARENT 7 4 17 23
REMARK Flexibility Score: inf
ROOT
ATOM      1  C   UNL     1      96.339  82.368  74.499  1.00  0.00     0.107 C 
ENDROOT
BRANCH   1   2
ATOM      2  C   UNL     1      97.642  82.731  73.782  1.00  0.00     0.121 C 
BRANCH   2   3
ATOM      3  O   UNL     1      98.280  83.812  74.457  1.00  0.00    -0.393 OA
ATOM      4  H   UNL     1      99.097  84.025  73.972  1.00  0.00     0.210 HD
ENDBRANCH   2   3
BRANCH   2   5
ATOM      5  C   UNL     1      98.618  81.552  73.680  1.00  0.00     0.032 C 
BRANCH   5   6
ATOM      6  C   UNL     1      98.038  80.269  74.287  1.00  0.00     0.003 C 
BRANCH   6   7
ATOM      7  C   UNL     1      98.733  79.843  75.584  1.00  0.00    -0.000 C 
BRANCH   7   8
ATOM      8  C   UNL     1     100.047  80.578  75.844  1.00  0.00    -0.003 C 
ATOM      9  C   UNL     1     100.938  79.799  76.799  1.00  0.00     0.004 C 
ENDBRANCH   7   8
ENDBRANCH   6   7
ENDBRANCH   5   6
ENDBRANCH   2   5
ENDBRANCH   1   2
BRANCH   1  10
ATOM     10  C   UNL     1      96.073  83.230  75.723  1.00  0.00     0.135 C 
ATOM     11  O   UNL     1      95.882  84.441  75.615  1.00  0.00    -0.300 OA
BRANCH  10  12
ATOM     12  C   UNL     1      96.012  82.511  77.062  1.00  0.00     0.080 C 
BRANCH  12  13
ATOM     13  C   UNL     1      97.385  82.261  77.689  1.00  0.00     0.043 C 
BRANCH  13  14
ATOM     14  C   UNL     1      97.310  81.516  79.001  1.00  0.00    -0.044 A 
ATOM     15  C   UNL     1      96.789  82.145  80.132  1.00  0.00     0.054 A 
ATOM     16  C   UNL     1      97.763  80.199  79.081  1.00  0.00     0.008 A 
ATOM     17  C   UNL     1      96.720  81.455  81.342  1.00  0.00     0.160 A 
ATOM     18  C   UNL     1      97.693  79.509  80.291  1.00  0.00     0.050 A 
ATOM     19  C   UNL     1      97.172  80.138  81.422  1.00  0.00     0.157 A 
BRANCH  17  20
ATOM     20  O   UNL     1      96.210  82.080  82.440  1.00  0.00    -0.493 OA
ATOM     21  C   UNL     1      96.787  83.334  82.799  1.00  0.00     0.278 C 
ENDBRANCH  17  20
BRANCH  19  22
ATOM     22  O   UNL     1      97.110  79.455  82.599  1.00  0.00    -0.504 OA
ATOM     23  H   UNL     1      97.147  78.500  82.413  1.00  0.00     0.293 HD
ENDBRANCH  19  22
ENDBRANCH  13  14
ENDBRANCH  12  13
ENDBRANCH  10  12
ENDBRANCH   1  10
TORSDOF 12
ENDMDL
MODEL 2
REMARK VINA RESULT:    -5.260     23.171     26.041
REMARK INTER + INTRA:         -10.396
REMARK INTER:                  -8.933
REMARK INTRA:                  -1.462
REMARK UNBOUND:                -1.754
REMARK SMILES CCCCC[C@H](O)CC(=O)CCc1ccc(O)c(OC)c1
REMARK SMILES IDX 8 1 6 2 7 3 5 5 4 6 3 7 2 8 1 9 9 10 10 11 11 12 12 13 13 14
REMARK SMILES IDX 21 15 14 16 18 17 15 18 16 19 19 20 20 21 17 22
REMARK H PARENT 7 4 17 23
REMARK Flexibility Score: inf
ROOT
ATOM      1  C   UNL     1      76.856  85.442  68.822  1.00  0.00     0.107 C 
ENDROOT
BRANCH   1   2
ATOM      2  C   UNL     1      75.370  85.100  68.960  1.00  0.00     0.121 C 
BRANCH   2   3
ATOM      3  O   UNL     1      75.181  84.194  70.045  1.00  0.00    -0.393 OA
ATOM      4  H   UNL     1      75.361  84.677  70.870  1.00  0.00     0.210 HD
ENDBRANCH   2   3
BRANCH   2   5
ATOM      5  C   UNL     1      74.487  86.335  69.175  1.00  0.00     0.032 C 
BRANCH   5   6
ATOM      6  C   UNL     1      73.903  86.862  67.858  1.00  0.00     0.003 C 
BRANCH   6   7
ATOM      7  C   UNL     1      74.426  88.250  67.475  1.00  0.00    -0.000 C 
BRANCH   7   8
ATOM      8  C   UNL     1      75.316  88.885  68.542  1.00  0.00    -0.003 C 
ATOM      9  C   UNL     1      74.596  90.013  69.265  1.00  0.00     0.004 C 
ENDBRANCH   7   8
ENDBRANCH   6   7
ENDBRANCH   5   6
ENDBRANCH   2   5
ENDBRANCH   1   2
BRANCH   1  10
ATOM     10  C   UNL     1      77.310  85.549  67.375  1.00  0.00     0.135 C 
ATOM     11  O   UNL     1      77.490  86.647  66.848  1.00  0.00    -0.300 OA
BRANCH  10  12
ATOM     12  C   UNL     1      77.571  84.241  66.643  1.00  0.00     0.080 C 
BRANCH  12  13
ATOM     13  C   UNL     1      76.876  84.149  65.283  1.00  0.00     0.043 C 
BRANCH  13  14
ATOM     14  C   UNL     1      75.575  83.384  65.334  1.00  0.00    -0.044 A 
ATOM     15  C   UNL     1      74.373  84.063  65.528  1.00  0.00     0.054 A 
ATOM     16  C   UNL     1      75.577  81.996  65.186  1.00  0.00     0.008 A 
ATOM     17  C   UNL     1      73.172  83.355  65.573  1.00  0.00     0.160 A 
ATOM     18  C   UNL     1      74.376  81.288  65.231  1.00  0.00     0.050 A 
ATOM     19  C   UNL     1      73.173  81.968  65.425  1.00  0.00     0.157 A 
BRANCH  17  20
ATOM     20  O   UNL     1      72.003  84.029  65.764  1.00  0.00    -0.493 OA
ATOM     21  C   UNL     1      71.447  84.695  64.631  1.00  0.00     0.278 C 
ENDBRANCH  17  20
BRANCH  19  22
ATOM     22  O   UNL     1      72.007  81.266  65.468  1.00  0.00    -0.504 OA
ATOM     23  H   UNL     1      71.549  81.462  66.303  1.00  0.00     0.293 HD
ENDBRANCH  19  22
ENDBRANCH  13  14
ENDBRANCH  12  13
ENDBRANCH  10  12
ENDBRANCH   1  10
TORSDOF 12
ENDMDL
MODEL 3
REMARK VINA RESULT:    -5.236     23.183     25.905
REMARK INTER + INTRA:         -10.357
REMARK INTER:                  -9.303
REMARK INTRA:                  -1.054
REMARK UNBOUND:                -1.754
REMARK SMILES CCCCC[C@H](O)CC(=O)CCc1ccc(O)c(OC)c1
REMARK SMILES IDX 8 1 6 2 7 3 5 5 4 6 3 7 2 8 1 9 9 10 10 11 11 12 12 13 13 14
REMARK SMILES IDX 21 15 14 16 18 17 15 18 16 19 19 20 20 21 17 22
REMARK H PARENT 7 4 17 23
REMARK Flexibility Score: inf
ROOT
ATOM      1  C   UNL     1      75.666  84.002  65.494  1.00  0.00     0.107 C 
ENDROOT
BRANCH   1   2
ATOM      2  C   UNL     1      75.473  82.592  64.930  1.00  0.00     0.121 C 
BRANCH   2   3
ATOM      3  O   UNL     1      76.598  81.781  65.262  1.00  0.00    -0.393 OA
ATOM      4  H   UNL     1      77.073  81.578  64.437  1.00  0.00     0.210 HD
ENDBRANCH   2   3
BRANCH   2   5
ATOM      5  C   UNL     1      74.194  81.913  65.434  1.00  0.00     0.032 C 
BRANCH   5   6
ATOM      6  C   UNL     1      73.371  81.311  64.289  1.00  0.00     0.003 C 
BRANCH   6   7
ATOM      7  C   UNL     1      71.916  81.025  64.674  1.00  0.00    -0.000 C 
BRANCH   7   8
ATOM      8  C   UNL     1      71.272  82.136  65.502  1.00  0.00    -0.003 C 
ATOM      9  C   UNL     1      69.875  82.464  64.999  1.00  0.00     0.004 C 
ENDBRANCH   7   8
ENDBRANCH   6   7
ENDBRANCH   5   6
ENDBRANCH   2   5
ENDBRANCH   1   2
BRANCH   1  10
ATOM     10  C   UNL     1      76.719  84.067  66.587  1.00  0.00     0.135 C 
ATOM     11  O   UNL     1      77.916  83.957  66.321  1.00  0.00    -0.300 OA
BRANCH  10  12
ATOM     12  C   UNL     1      76.220  84.320  68.002  1.00  0.00     0.080 C 
BRANCH  12  13
ATOM     13  C   UNL     1      76.936  85.471  68.711  1.00  0.00     0.043 C 
BRANCH  13  14
ATOM     14  C   UNL     1      76.529  86.830  68.193  1.00  0.00    -0.044 A 
ATOM     15  C   UNL     1      75.220  87.279  68.365  1.00  0.00     0.054 A 
ATOM     16  C   UNL     1      77.464  87.636  67.542  1.00  0.00     0.008 A 
ATOM     17  C   UNL     1      74.845  88.535  67.887  1.00  0.00     0.160 A 
ATOM     18  C   UNL     1      77.089  88.892  67.064  1.00  0.00     0.050 A 
ATOM     19  C   UNL     1      75.780  89.341  67.236  1.00  0.00     0.157 A 
BRANCH  17  20
ATOM     20  O   UNL     1      73.564  88.963  68.060  1.00  0.00    -0.493 OA
ATOM     21  C   UNL     1      73.007  88.829  69.367  1.00  0.00     0.278 C 
ENDBRANCH  17  20
BRANCH  19  22
ATOM     22  O   UNL     1      75.426  90.569  66.765  1.00  0.00    -0.504 OA
ATOM     23  H   UNL     1      75.882  91.252  67.287  1.00  0.00     0.293 HD
ENDBRANCH  19  22
ENDBRANCH  13  14
ENDBRANCH  12  13
ENDBRANCH  10  12
ENDBRANCH   1  10
TORSDOF 12
ENDMDL
MODEL 4
REMARK VINA RESULT:    -5.150      1.767      2.559
REMARK INTER + INTRA:         -10.215
REMARK INTER:                  -9.280
REMARK INTRA:                  -0.935
REMARK UNBOUND:                -1.754
REMARK SMILES CCCCC[C@H](O)CC(=O)CCc1ccc(O)c(OC)c1
REMARK SMILES IDX 8 1 6 2 7 3 5 5 4 6 3 7 2 8 1 9 9 10 10 11 11 12 12 13 13 14
REMARK SMILES IDX 21 15 14 16 18 17 15 18 16 19 19 20 20 21 17 22
REMARK H PARENT 7 4 17 23
REMARK Flexibility Score: inf
ROOT
ATOM      1  C   UNL     1      97.055  81.831  75.126  1.00  0.00     0.107 C 
ENDROOT
BRANCH   1   2
ATOM      2  C   UNL     1      97.799  82.627  74.050  1.00  0.00     0.121 C 
BRANCH   2   3
ATOM      3  O   UNL     1      97.934  83.986  74.461  1.00  0.00    -0.393 OA
ATOM      4  H   UNL     1      97.068  84.284  74.791  1.00  0.00     0.210 HD
ENDBRANCH   2   3
BRANCH   2   5
ATOM      5  C   UNL     1      99.186  82.056  73.733  1.00  0.00     0.032 C 
BRANCH   5   6
ATOM      6  C   UNL     1     100.313  82.992  74.185  1.00  0.00     0.003 C 
BRANCH   6   7
ATOM      7  C   UNL     1     101.219  83.450  73.038  1.00  0.00    -0.000 C 
BRANCH   7   8
ATOM      8  C   UNL     1     100.520  84.364  72.033  1.00  0.00    -0.003 C 
ATOM      9  C   UNL     1     101.220  84.343  70.683  1.00  0.00     0.004 C 
ENDBRANCH   7   8
ENDBRANCH   6   7
ENDBRANCH   5   6
ENDBRANCH   2   5
ENDBRANCH   1   2
BRANCH   1  10
ATOM     10  C   UNL     1      96.224  82.708  76.048  1.00  0.00     0.135 C 
ATOM     11  O   UNL     1      95.487  83.584  75.594  1.00  0.00    -0.300 OA
BRANCH  10  12
ATOM     12  C   UNL     1      96.320  82.414  77.537  1.00  0.00     0.080 C 
BRANCH  12  13
ATOM     13  C   UNL     1      97.704  81.940  77.983  1.00  0.00     0.043 C 
BRANCH  13  14
ATOM     14  C   UNL     1      97.747  81.516  79.432  1.00  0.00    -0.044 A 
ATOM     15  C   UNL     1      96.863  82.082  80.350  1.00  0.00     0.054 A 
ATOM     16  C   UNL     1      98.670  80.558  79.851  1.00  0.00     0.008 A 
ATOM     17  C   UNL     1      96.903  81.690  81.688  1.00  0.00     0.160 A 
ATOM     18  C   UNL     1      98.710  80.166  81.189  1.00  0.00     0.050 A 
ATOM     19  C   UNL     1      97.827  80.732  82.108  1.00  0.00     0.157 A 
BRANCH  17  20
ATOM     20  O   UNL     1      96.035  82.250  82.577  1.00  0.00    -0.493 OA
ATOM     21  C   UNL     1      96.341  83.564  83.041  1.00  0.00     0.278 C 
ENDBRANCH  17  20
BRANCH  19  22
ATOM     22  O   UNL     1      97.875  80.341  83.411  1.00  0.00    -0.504 OA
ATOM     23  H   UNL     1      98.257  79.448  83.460  1.00  0.00     0.293 HD
ENDBRANCH  19  22
ENDBRANCH  13  14
ENDBRANCH  12  13
ENDBRANCH  10  12
ENDBRANCH   1  10
TORSDOF 12
ENDMDL
MODEL 5
REMARK VINA RESULT:    -5.036      5.891      8.760
REMARK INTER + INTRA:         -10.029
REMARK INTER:                  -9.238
REMARK INTRA:                  -0.790
REMARK UNBOUND:                -1.754
REMARK SMILES CCCCC[C@H](O)CC(=O)CCc1ccc(O)c(OC)c1
REMARK SMILES IDX 8 1 6 2 7 3 5 5 4 6 3 7 2 8 1 9 9 10 10 11 11 12 12 13 13 14
REMARK SMILES IDX 21 15 14 16 18 17 15 18 16 19 19 20 20 21 17 22
REMARK H PARENT 7 4 17 23
REMARK Flexibility Score: inf
ROOT
ATOM      1  C   UNL     1      95.534  81.707  84.012  1.00  0.00     0.107 C 
ENDROOT
BRANCH   1   2
ATOM      2  C   UNL     1      96.393  82.753  83.297  1.00  0.00     0.121 C 
BRANCH   2   3
ATOM      3  O   UNL     1      97.670  82.840  83.924  1.00  0.00    -0.393 OA
ATOM      4  H   UNL     1      98.297  83.203  83.273  1.00  0.00     0.210 HD
ENDBRANCH   2   3
BRANCH   2   5
ATOM      5  C   UNL     1      96.582  82.455  81.805  1.00  0.00     0.032 C 
BRANCH   5   6
ATOM      6  C   UNL     1      97.031  81.010  81.557  1.00  0.00     0.003 C 
BRANCH   6   7
ATOM      7  C   UNL     1      97.362  80.720  80.090  1.00  0.00    -0.000 C 
BRANCH   7   8
ATOM      8  C   UNL     1      97.676  81.974  79.274  1.00  0.00    -0.003 C 
ATOM      9  C   UNL     1      96.830  82.041  78.013  1.00  0.00     0.004 C 
ENDBRANCH   7   8
ENDBRANCH   6   7
ENDBRANCH   5   6
ENDBRANCH   2   5
ENDBRANCH   1   2
BRANCH   1  10
ATOM     10  C   UNL     1      95.095  82.144  85.400  1.00  0.00     0.135 C 
ATOM     11  O   UNL     1      95.779  82.922  86.065  1.00  0.00    -0.300 OA
BRANCH  10  12
ATOM     12  C   UNL     1      93.758  81.610  85.892  1.00  0.00     0.080 C 
BRANCH  12  13
ATOM     13  C   UNL     1      92.721  81.432  84.782  1.00  0.00     0.043 C 
BRANCH  13  14
ATOM     14  C   UNL     1      91.378  80.969  85.296  1.00  0.00    -0.044 A 
ATOM     15  C   UNL     1      90.263  80.997  84.458  1.00  0.00     0.054 A 
ATOM     16  C   UNL     1      91.254  80.514  86.608  1.00  0.00     0.008 A 
ATOM     17  C   UNL     1      89.024  80.568  84.933  1.00  0.00     0.160 A 
ATOM     18  C   UNL     1      90.014  80.085  87.084  1.00  0.00     0.050 A 
ATOM     19  C   UNL     1      88.899  80.113  86.246  1.00  0.00     0.157 A 
BRANCH  17  20
ATOM     20  O   UNL     1      87.942  80.601  84.106  1.00  0.00    -0.493 OA
ATOM     21  C   UNL     1      87.184  81.809  84.077  1.00  0.00     0.278 C 
ENDBRANCH  17  20
BRANCH  19  22
ATOM     22  O   UNL     1      87.694  79.692  86.721  1.00  0.00    -0.504 OA
ATOM     23  H   UNL     1      87.107  79.500  85.970  1.00  0.00     0.293 HD
ENDBRANCH  19  22
ENDBRANCH  13  14
ENDBRANCH  12  13
ENDBRANCH  10  12
ENDBRANCH   1  10
TORSDOF 12
ENDMDL
MODEL 6
REMARK VINA RESULT:    -5.017     20.986     24.373
REMARK INTER + INTRA:          -9.997
REMARK INTER:                  -8.095
REMARK INTRA:                  -1.902
REMARK UNBOUND:                -1.754
REMARK SMILES CCCCC[C@H](O)CC(=O)CCc1ccc(O)c(OC)c1
REMARK SMILES IDX 8 1 6 2 7 3 5 5 4 6 3 7 2 8 1 9 9 10 10 11 11 12 12 13 13 14
REMARK SMILES IDX 21 15 14 16 18 17 15 18 16 19 19 20 20 21 17 22
REMARK H PARENT 7 4 17 23
REMARK Flexibility Score: inf
ROOT
ATOM      1  C   UNL     1      88.832  99.075  69.059  1.00  0.00     0.107 C 
ENDROOT
BRANCH   1   2
ATOM      2  C   UNL     1      89.623  99.160  70.366  1.00  0.00     0.121 C 
BRANCH   2   3
ATOM      3  O   UNL     1      89.997  97.851  70.791  1.00  0.00    -0.393 OA
ATOM      4  H   UNL     1      89.533  97.211  70.224  1.00  0.00     0.210 HD
ENDBRANCH   2   3
BRANCH   2   5
ATOM      5  C   UNL     1      90.880 100.032  70.251  1.00  0.00     0.032 C 
BRANCH   5   6
ATOM      6  C   UNL     1      90.541 101.493  69.933  1.00  0.00     0.003 C 
BRANCH   6   7
ATOM      7  C   UNL     1      91.666 102.232  69.203  1.00  0.00    -0.000 C 
BRANCH   7   8
ATOM      8  C   UNL     1      92.661 101.301  68.511  1.00  0.00    -0.003 C 
ATOM      9  C   UNL     1      92.838 101.669  67.046  1.00  0.00     0.004 C 
ENDBRANCH   7   8
ENDBRANCH   6   7
ENDBRANCH   5   6
ENDBRANCH   2   5
ENDBRANCH   1   2
BRANCH   1  10
ATOM     10  C   UNL     1      89.625  98.453  67.921  1.00  0.00     0.135 C 
ATOM     11  O   UNL     1      90.329  97.461  68.110  1.00  0.00    -0.300 OA
BRANCH  10  12
ATOM     12  C   UNL     1      89.465  99.090  66.550  1.00  0.00     0.080 C 
BRANCH  12  13
ATOM     13  C   UNL     1      88.078  99.689  66.308  1.00  0.00     0.043 C 
BRANCH  13  14
ATOM     14  C   UNL     1      88.074 101.199  66.332  1.00  0.00    -0.044 A 
ATOM     15  C   UNL     1      86.865 101.894  66.300  1.00  0.00     0.054 A 
ATOM     16  C   UNL     1      89.280 101.899  66.386  1.00  0.00     0.008 A 
ATOM     17  C   UNL     1      86.862 103.289  66.323  1.00  0.00     0.160 A 
ATOM     18  C   UNL     1      89.277 103.294  66.409  1.00  0.00     0.050 A 
ATOM     19  C   UNL     1      88.068 103.989  66.377  1.00  0.00     0.157 A 
BRANCH  17  20
ATOM     20  O   UNL     1      85.675 103.957  66.291  1.00  0.00    -0.493 OA
ATOM     21  C   UNL     1      84.635 103.393  65.494  1.00  0.00     0.278 C 
ENDBRANCH  17  20
BRANCH  19  22
ATOM     22  O   UNL     1      88.078 105.350  66.400  1.00  0.00    -0.504 OA
ATOM     23  H   UNL     1      88.001 105.683  65.489  1.00  0.00     0.293 HD
ENDBRANCH  19  22
ENDBRANCH  13  14
ENDBRANCH  12  13
ENDBRANCH  10  12
ENDBRANCH   1  10
TORSDOF 12
ENDMDL
MODEL 7
REMARK VINA RESULT:    -4.991     17.919     20.858
REMARK INTER + INTRA:          -9.954
REMARK INTER:                  -8.992
REMARK INTRA:                  -0.962
REMARK UNBOUND:                -1.754
REMARK SMILES CCCCC[C@H](O)CC(=O)CCc1ccc(O)c(OC)c1
REMARK SMILES IDX 8 1 6 2 7 3 5 5 4 6 3 7 2 8 1 9 9 10 10 11 11 12 12 13 13 14
REMARK SMILES IDX 21 15 14 16 18 17 15 18 16 19 19 20 20 21 17 22
REMARK H PARENT 7 4 17 23
REMARK Flexibility Score: inf
ROOT
ATOM      1  C   UNL     1      89.410  99.600  68.871  1.00  0.00     0.107 C 
ENDROOT
BRANCH   1   2
ATOM      2  C   UNL     1      89.657  98.493  67.843  1.00  0.00     0.121 C 
BRANCH   2   3
ATOM      3  O   UNL     1      88.845  97.362  68.147  1.00  0.00    -0.393 OA
ATOM      4  H   UNL     1      89.163  96.984  68.986  1.00  0.00     0.210 HD
ENDBRANCH   2   3
BRANCH   2   5
ATOM      5  C   UNL     1      89.382  98.940  66.402  1.00  0.00     0.032 C 
BRANCH   5   6
ATOM      6  C   UNL     1      88.596 100.256  66.347  1.00  0.00     0.003 C 
BRANCH   6   7
ATOM      7  C   UNL     1      87.081 100.054  66.252  1.00  0.00    -0.000 C 
BRANCH   7   8
ATOM      8  C   UNL     1      86.292 101.360  66.186  1.00  0.00    -0.003 C 
ATOM      9  C   UNL     1      87.216 102.568  66.216  1.00  0.00     0.004 C 
ENDBRANCH   7   8
ENDBRANCH   6   7
ENDBRANCH   5   6
ENDBRANCH   2   5
ENDBRANCH   1   2
BRANCH   1  10
ATOM     10  C   UNL     1      89.952  99.265  70.251  1.00  0.00     0.135 C 
ATOM     11  O   UNL     1      89.606  98.238  70.834  1.00  0.00    -0.300 OA
BRANCH  10  12
ATOM     12  C   UNL     1      90.968 100.233  70.838  1.00  0.00     0.080 C 
BRANCH  12  13
ATOM     13  C   UNL     1      92.374 100.076  70.258  1.00  0.00     0.043 C 
BRANCH  13  14
ATOM     14  C   UNL     1      93.338  99.413  71.213  1.00  0.00    -0.044 A 
ATOM     15  C   UNL     1      94.577  98.965  70.755  1.00  0.00     0.054 A 
ATOM     16  C   UNL     1      92.988  99.248  72.554  1.00  0.00     0.008 A 
ATOM     17  C   UNL     1      95.467  98.353  71.639  1.00  0.00     0.160 A 
ATOM     18  C   UNL     1      93.878  98.636  73.437  1.00  0.00     0.050 A 
ATOM     19  C   UNL     1      95.117  98.189  72.979  1.00  0.00     0.157 A 
BRANCH  17  20
ATOM     20  O   UNL     1      96.674  97.919  71.180  1.00  0.00    -0.493 OA
ATOM     21  C   UNL     1      97.152  98.496  69.966  1.00  0.00     0.278 C 
ENDBRANCH  17  20
BRANCH  19  22
ATOM     22  O   UNL     1      95.977  97.593  73.851  1.00  0.00    -0.504 OA
ATOM     23  H   UNL     1      95.844  96.630  73.820  1.00  0.00     0.293 HD
ENDBRANCH  19  22
ENDBRANCH  13  14
ENDBRANCH  12  13
ENDBRANCH  10  12
ENDBRANCH   1  10
TORSDOF 12
ENDMDL
MODEL 8
REMARK VINA RESULT:    -4.945     20.666     24.109
REMARK INTER + INTRA:          -9.878
REMARK INTER:                  -8.345
REMARK INTRA:                  -1.533
REMARK UNBOUND:                -1.754
REMARK SMILES CCCCC[C@H](O)CC(=O)CCc1ccc(O)c(OC)c1
REMARK SMILES IDX 8 1 6 2 7 3 5 5 4 6 3 7 2 8 1 9 9 10 10 11 11 12 12 13 13 14
REMARK SMILES IDX 21 15 14 16 18 17 15 18 16 19 19 20 20 21 17 22
REMARK H PARENT 7 4 17 23
REMARK Flexibility Score: inf
ROOT
ATOM      1  C   UNL     1      89.002  99.309  69.088  1.00  0.00     0.107 C 
ENDROOT
BRANCH   1   2
ATOM      2  C   UNL     1      89.894  99.020  70.298  1.00  0.00     0.121 C 
BRANCH   2   3
ATOM      3  O   UNL     1      89.668  97.690  70.758  1.00  0.00    -0.393 OA
ATOM      4  H   UNL     1      88.898  97.336  70.280  1.00  0.00     0.210 HD
ENDBRANCH   2   3
BRANCH   2   5
ATOM      5  C   UNL     1      91.387  99.206  70.001  1.00  0.00     0.032 C 
BRANCH   5   6
ATOM      6  C   UNL     1      91.698 100.610  69.469  1.00  0.00     0.003 C 
BRANCH   6   7
ATOM      7  C   UNL     1      92.212 101.567  70.550  1.00  0.00    -0.000 C 
BRANCH   7   8
ATOM      8  C   UNL     1      91.212 102.658  70.928  1.00  0.00    -0.003 C 
ATOM      9  C   UNL     1      90.130 102.809  69.869  1.00  0.00     0.004 C 
ENDBRANCH   7   8
ENDBRANCH   6   7
ENDBRANCH   5   6
ENDBRANCH   2   5
ENDBRANCH   1   2
BRANCH   1  10
ATOM     10  C   UNL     1      89.273  98.383  67.914  1.00  0.00     0.135 C 
ATOM     11  O   UNL     1      89.611  97.213  68.095  1.00  0.00    -0.300 OA
BRANCH  10  12
ATOM     12  C   UNL     1      89.060  98.963  66.524  1.00  0.00     0.080 C 
BRANCH  12  13
ATOM     13  C   UNL     1      87.748  99.734  66.373  1.00  0.00     0.043 C 
BRANCH  13  14
ATOM     14  C   UNL     1      87.942 101.231  66.327  1.00  0.00    -0.044 A 
ATOM     15  C   UNL     1      89.229 101.768  66.337  1.00  0.00     0.054 A 
ATOM     16  C   UNL     1      86.833 102.076  66.274  1.00  0.00     0.008 A 
ATOM     17  C   UNL     1      89.408 103.151  66.293  1.00  0.00     0.160 A 
ATOM     18  C   UNL     1      87.012 103.459  66.230  1.00  0.00     0.050 A 
ATOM     19  C   UNL     1      88.299 103.996  66.240  1.00  0.00     0.157 A 
BRANCH  17  20
ATOM     20  O   UNL     1      90.670 103.664  66.304  1.00  0.00    -0.493 OA
ATOM     21  C   UNL     1      91.746 102.735  66.423  1.00  0.00     0.278 C 
ENDBRANCH  17  20
BRANCH  19  22
ATOM     22  O   UNL     1      88.460 105.348  66.197  1.00  0.00    -0.504 OA
ATOM     23  H   UNL     1      87.846 105.720  65.541  1.00  0.00     0.293 HD
ENDBRANCH  19  22
ENDBRANCH  13  14
ENDBRANCH  12  13
ENDBRANCH  10  12
ENDBRANCH   1  10
TORSDOF 12
ENDMDL
MODEL 9
REMARK VINA RESULT:    -4.900     21.134     22.345
REMARK INTER + INTRA:          -9.805
REMARK INTER:                  -7.792
REMARK INTRA:                  -2.013
REMARK UNBOUND:                -1.754
REMARK SMILES CCCCC[C@H](O)CC(=O)CCc1ccc(O)c(OC)c1
REMARK SMILES IDX 8 1 6 2 7 3 5 5 4 6 3 7 2 8 1 9 9 10 10 11 11 12 12 13 13 14
REMARK SMILES IDX 21 15 14 16 18 17 15 18 16 19 19 20 20 21 17 22
REMARK H PARENT 7 4 17 23
REMARK Flexibility Score: inf
ROOT
ATOM      1  C   UNL     1      80.139  64.561  74.884  1.00  0.00     0.107 C 
ENDROOT
BRANCH   1   2
ATOM      2  C   UNL     1      80.044  66.089  74.883  1.00  0.00     0.121 C 
BRANCH   2   3
ATOM      3  O   UNL     1      80.485  66.602  76.137  1.00  0.00    -0.393 OA
ATOM      4  H   UNL     1      79.775  66.451  76.786  1.00  0.00     0.210 HD
ENDBRANCH   2   3
BRANCH   2   5
ATOM      5  C   UNL     1      80.857  66.740  73.757  1.00  0.00     0.032 C 
BRANCH   5   6
ATOM      6  C   UNL     1      80.886  65.873  72.492  1.00  0.00     0.003 C 
BRANCH   6   7
ATOM      7  C   UNL     1      81.892  66.363  71.445  1.00  0.00    -0.000 C 
BRANCH   7   8
ATOM      8  C   UNL     1      81.349  66.341  70.017  1.00  0.00    -0.003 C 
ATOM      9  C   UNL     1      80.723  64.995  69.683  1.00  0.00     0.004 C 
ENDBRANCH   7   8
ENDBRANCH   6   7
ENDBRANCH   5   6
ENDBRANCH   2   5
ENDBRANCH   1   2
BRANCH   1  10
ATOM     10  C   UNL     1      80.658  63.998  76.197  1.00  0.00     0.135 C 
ATOM     11  O   UNL     1      79.965  64.021  77.214  1.00  0.00    -0.300 OA
BRANCH  10  12
ATOM     12  C   UNL     1      82.045  63.374  76.170  1.00  0.00     0.080 C 
BRANCH  12  13
ATOM     13  C   UNL     1      83.113  64.219  76.866  1.00  0.00     0.043 C 
BRANCH  13  14
ATOM     14  C   UNL     1      83.713  65.273  75.966  1.00  0.00    -0.044 A 
ATOM     15  C   UNL     1      83.960  66.554  76.461  1.00  0.00     0.054 A 
ATOM     16  C   UNL     1      84.018  64.966  74.640  1.00  0.00     0.008 A 
ATOM     17  C   UNL     1      84.515  67.527  75.629  1.00  0.00     0.160 A 
ATOM     18  C   UNL     1      84.573  65.939  73.808  1.00  0.00     0.050 A 
ATOM     19  C   UNL     1      84.821  67.219  74.303  1.00  0.00     0.157 A 
BRANCH  17  20
ATOM     20  O   UNL     1      84.752  68.774  76.123  1.00  0.00    -0.493 OA
ATOM     21  C   UNL     1      84.678  68.936  77.538  1.00  0.00     0.278 C 
ENDBRANCH  17  20
BRANCH  19  22
ATOM     22  O   UNL     1      85.362  68.161  73.481  1.00  0.00    -0.504 OA
ATOM     23  H   UNL     1      85.024  68.026  72.579  1.00  0.00     0.293 HD
ENDBRANCH  19  22
ENDBRANCH  13  14
ENDBRANCH  12  13
ENDBRANCH  10  12
ENDBRANCH   1  10
TORSDOF 12
ENDMDL
MODEL 10
REMARK VINA RESULT:    -4.863      1.824      7.456
REMARK INTER + INTRA:          -9.744
REMARK INTER:                  -8.797
REMARK INTRA:                  -0.947
REMARK UNBOUND:                -1.754
REMARK SMILES CCCCC[C@H](O)CC(=O)CCc1ccc(O)c(OC)c1
REMARK SMILES IDX 8 1 6 2 7 3 5 5 4 6 3 7 2 8 1 9 9 10 10 11 11 12 12 13 13 14
REMARK SMILES IDX 21 15 14 16 18 17 15 18 16 19 19 20 20 21 17 22
REMARK H PARENT 7 4 17 23
REMARK Flexibility Score: inf
ROOT
ATOM      1  C   UNL     1      98.587  80.239  81.308  1.00  0.00     0.107 C 
ENDROOT
BRANCH   1   2
ATOM      2  C   UNL     1      97.073  80.450  81.228  1.00  0.00     0.121 C 
BRANCH   2   3
ATOM      3  O   UNL     1      96.406  79.463  82.011  1.00  0.00    -0.393 OA
ATOM      4  H   UNL     1      96.735  78.590  81.733  1.00  0.00     0.210 HD
ENDBRANCH   2   3
BRANCH   2   5
ATOM      5  C   UNL     1      96.636  81.844  81.694  1.00  0.00     0.032 C 
BRANCH   5   6
ATOM      6  C   UNL     1      97.174  82.180  83.090  1.00  0.00     0.003 C 
BRANCH   6   7
ATOM      7  C   UNL     1      96.079  82.599  84.077  1.00  0.00    -0.000 C 
BRANCH   7   8
ATOM      8  C   UNL     1      94.782  81.806  83.926  1.00  0.00    -0.003 C 
ATOM      9  C   UNL     1      94.439  81.056  85.204  1.00  0.00     0.004 C 
ENDBRANCH   7   8
ENDBRANCH   6   7
ENDBRANCH   5   6
ENDBRANCH   2   5
ENDBRANCH   1   2
BRANCH   1  10
ATOM     10  C   UNL     1      99.243  80.113  79.942  1.00  0.00     0.135 C 
ATOM     11  O   UNL     1     100.466  80.189  79.818  1.00  0.00    -0.300 OA
BRANCH  10  12
ATOM     12  C   UNL     1      98.320  79.846  78.764  1.00  0.00     0.080 C 
BRANCH  12  13
ATOM     13  C   UNL     1      98.863  80.358  77.428  1.00  0.00     0.043 C 
BRANCH  13  14
ATOM     14  C   UNL     1      97.970  81.393  76.785  1.00  0.00    -0.044 A 
ATOM     15  C   UNL     1      98.351  81.993  75.585  1.00  0.00     0.054 A 
ATOM     16  C   UNL     1      96.765  81.748  77.391  1.00  0.00     0.008 A 
ATOM     17  C   UNL     1      97.525  82.948  74.991  1.00  0.00     0.160 A 
ATOM     18  C   UNL     1      95.939  82.702  76.797  1.00  0.00     0.050 A 
ATOM     19  C   UNL     1      96.320  83.303  75.597  1.00  0.00     0.157 A 
BRANCH  17  20
ATOM     20  O   UNL     1      97.908  83.528  73.819  1.00  0.00    -0.493 OA
ATOM     21  C   UNL     1      98.941  82.878  73.081  1.00  0.00     0.278 C 
ENDBRANCH  17  20
BRANCH  19  22
ATOM     22  O   UNL     1      95.506  84.234  75.026  1.00  0.00    -0.504 OA
ATOM     23  H   UNL     1      94.777  83.780  74.570  1.00  0.00     0.293 HD
ENDBRANCH  19  22
ENDBRANCH  13  14
ENDBRANCH  12  13
ENDBRANCH  10  12
ENDBRANCH   1  10
TORSDOF 12
ENDMDL
