MODEL 1
REMARK VINA RESULT:    -6.225      0.000      0.000
REMARK INTER + INTRA:         -11.880
REMARK INTER:                 -10.409
REMARK INTRA:                  -1.470
REMARK UNBOUND:                -1.470
REMARK SMILES COc1cc(CNC(=O)CCCCCCCC(C)C)ccc1O
REMARK SMILES IDX 11 1 10 2 8 3 9 4 7 5 6 7 5 8 4 9 20 10 3 11 21 12 22 13
REMARK SMILES IDX 2 14 1 15 23 16 12 18 13 19 14 20 15 21 16 22 17 23 18 24
REMARK SMILES IDX 19 25
REMARK H PARENT 7 6 23 17
REMARK Flexibility Score: inf
ROOT
ATOM      1  C   UNL     1      94.069  94.743  78.124  1.00  0.00     0.010 C 
ENDROOT
BRANCH   1   2
ATOM      2  C   UNL     1      94.324  93.296  78.539  1.00  0.00     0.100 C 
BRANCH   2   3
ATOM      3  C   UNL     1      95.181  93.195  79.790  1.00  0.00     0.220 C 
ATOM      4  O   UNL     1      94.870  92.520  80.767  1.00  0.00    -0.275 OA
ATOM      5  N   UNL     1      96.333  93.959  79.682  1.00  0.00    -0.352 N 
ATOM      6  H   UNL     1      96.501  94.497  78.835  1.00  0.00     0.163 HD
BRANCH   5   7
ATOM      7  C   UNL     1      97.317  94.047  80.736  1.00  0.00     0.151 C 
BRANCH   7   8
ATOM      8  C   UNL     1      97.253  95.362  81.456  1.00  0.00    -0.025 A 
ATOM      9  C   UNL     1      98.256  95.702  82.357  1.00  0.00     0.056 A 
ATOM     10  C   UNL     1      96.191  96.225  81.216  1.00  0.00     0.009 A 
ATOM     11  C   UNL     1      98.196  96.924  83.026  1.00  0.00     0.160 A 
ATOM     12  C   UNL     1      96.131  97.447  81.887  1.00  0.00     0.050 A 
ATOM     13  C   UNL     1      97.133  97.797  82.792  1.00  0.00     0.157 A 
BRANCH  11  14
ATOM     14  O   UNL     1      99.180  97.254  83.908  1.00  0.00    -0.493 OA
ATOM     15  C   UNL     1      99.114  96.662  85.205  1.00  0.00     0.278 C 
ENDBRANCH  11  14
BRANCH  13  16
ATOM     16  O   UNL     1      97.064  98.993  83.439  1.00  0.00    -0.504 OA
ATOM     17  H   UNL     1      97.878  99.496  83.264  1.00  0.00     0.293 HD
ENDBRANCH  13  16
ENDBRANCH   7   8
ENDBRANCH   5   7
ENDBRANCH   2   3
ENDBRANCH   1   2
BRANCH   1  18
ATOM     18  C   UNL     1      94.086  94.955  76.608  1.00  0.00     0.001 C 
BRANCH  18  19
ATOM     19  C   UNL     1      92.911  95.754  76.035  1.00  0.00     0.000 C 
BRANCH  19  20
ATOM     20  C   UNL     1      91.807  96.025  77.061  1.00  0.00     0.000 C 
BRANCH  20  21
ATOM     21  C   UNL     1      90.548  95.180  76.839  1.00  0.00     0.000 C 
BRANCH  21  22
ATOM     22  C   UNL     1      90.676  93.749  77.374  1.00  0.00     0.003 C 
BRANCH  22  23
ATOM     23  C   UNL     1      90.453  92.669  76.297  1.00  0.00    -0.017 C 
ATOM     24  C   UNL     1      89.747  91.460  76.915  1.00  0.00     0.007 C 
ATOM     25  C   UNL     1      91.759  92.221  75.639  1.00  0.00     0.007 C 
ENDBRANCH  22  23
ENDBRANCH  21  22
ENDBRANCH  20  21
ENDBRANCH  19  20
ENDBRANCH  18  19
ENDBRANCH   1  18
TORSDOF 12
ENDMDL
MODEL 2
REMARK VINA RESULT:    -5.808     10.935     14.685
REMARK INTER + INTRA:         -11.182
REMARK INTER:                 -10.412
REMARK INTRA:                  -0.770
REMARK UNBOUND:                -1.470
REMARK SMILES COc1cc(CNC(=O)CCCCCCCC(C)C)ccc1O
REMARK SMILES IDX 11 1 10 2 8 3 9 4 7 5 6 7 5 8 4 9 20 10 3 11 21 12 22 13
REMARK SMILES IDX 2 14 1 15 23 16 12 18 13 19 14 20 15 21 16 22 17 23 18 24
REMARK SMILES IDX 19 25
REMARK H PARENT 7 6 23 17
REMARK Flexibility Score: inf
ROOT
ATOM      1  C   UNL     1      90.622  99.464  70.851  1.00  0.00     0.010 C 
ENDROOT
BRANCH   1   2
ATOM      2  C   UNL     1      89.948  98.173  70.391  1.00  0.00     0.100 C 
BRANCH   2   3
ATOM      3  C   UNL     1      89.762  98.122  68.884  1.00  0.00     0.220 C 
ATOM      4  O   UNL     1      90.381  97.352  68.154  1.00  0.00    -0.275 OA
ATOM      5  N   UNL     1      88.826  99.050  68.455  1.00  0.00    -0.352 N 
ATOM      6  H   UNL     1      88.371  99.656  69.133  1.00  0.00     0.163 HD
BRANCH   5   7
ATOM      7  C   UNL     1      88.467  99.216  67.065  1.00  0.00     0.151 C 
BRANCH   7   8
ATOM      8  C   UNL     1      88.087 100.633  66.748  1.00  0.00    -0.025 A 
ATOM      9  C   UNL     1      89.040 101.639  66.852  1.00  0.00     0.056 A 
ATOM     10  C   UNL     1      86.787 100.924  66.354  1.00  0.00     0.009 A 
ATOM     11  C   UNL     1      88.688 102.956  66.558  1.00  0.00     0.160 A 
ATOM     12  C   UNL     1      86.435 102.242  66.060  1.00  0.00     0.050 A 
ATOM     13  C   UNL     1      87.384 103.258  66.162  1.00  0.00     0.157 A 
BRANCH  11  14
ATOM     14  O   UNL     1      89.624 103.940  66.661  1.00  0.00    -0.493 OA
ATOM     15  C   UNL     1      90.664 103.951  65.684  1.00  0.00     0.278 C 
ENDBRANCH  11  14
BRANCH  13  16
ATOM     16  O   UNL     1      87.028 104.540  65.871  1.00  0.00    -0.504 OA
ATOM     17  H   UNL     1      87.782 105.127  66.054  1.00  0.00     0.293 HD
ENDBRANCH  13  16
ENDBRANCH   7   8
ENDBRANCH   5   7
ENDBRANCH   2   3
ENDBRANCH   1   2
BRANCH   1  18
ATOM     18  C   UNL     1      92.092  99.280  71.240  1.00  0.00     0.001 C 
BRANCH  18  19
ATOM     19  C   UNL     1      92.702 100.406  72.081  1.00  0.00     0.000 C 
BRANCH  19  20
ATOM     20  C   UNL     1      93.289  99.918  73.409  1.00  0.00     0.000 C 
BRANCH  20  21
ATOM     21  C   UNL     1      94.234  98.722  73.256  1.00  0.00     0.000 C 
BRANCH  21  22
ATOM     22  C   UNL     1      93.793  97.494  74.060  1.00  0.00     0.003 C 
BRANCH  22  23
ATOM     23  C   UNL     1      94.915  96.456  74.259  1.00  0.00    -0.017 C 
ATOM     24  C   UNL     1      95.685  96.269  72.950  1.00  0.00     0.007 C 
ATOM     25  C   UNL     1      94.384  95.104  74.740  1.00  0.00     0.007 C 
ENDBRANCH  22  23
ENDBRANCH  21  22
ENDBRANCH  20  21
ENDBRANCH  19  20
ENDBRANCH  18  19
ENDBRANCH   1  18
TORSDOF 12
ENDMDL
MODEL 3
REMARK VINA RESULT:    -5.307     10.805     14.427
REMARK INTER + INTRA:         -10.344
REMARK INTER:                  -9.568
REMARK INTRA:                  -0.776
REMARK UNBOUND:                -1.470
REMARK SMILES COc1cc(CNC(=O)CCCCCCCC(C)C)ccc1O
REMARK SMILES IDX 11 1 10 2 8 3 9 4 7 5 6 7 5 8 4 9 20 10 3 11 21 12 22 13
REMARK SMILES IDX 2 14 1 15 23 16 12 18 13 19 14 20 15 21 16 22 17 23 18 24
REMARK SMILES IDX 19 25
REMARK H PARENT 7 6 23 17
REMARK Flexibility Score: inf
ROOT
ATOM      1  C   UNL     1      90.557  99.534  70.796  1.00  0.00     0.010 C 
ENDROOT
BRANCH   1   2
ATOM      2  C   UNL     1      89.870  98.274  70.274  1.00  0.00     0.100 C 
BRANCH   2   3
ATOM      3  C   UNL     1      90.018  98.114  68.770  1.00  0.00     0.220 C 
ATOM      4  O   UNL     1      90.382  97.071  68.235  1.00  0.00    -0.275 OA
ATOM      5  N   UNL     1      89.699  99.286  68.100  1.00  0.00    -0.352 N 
ATOM      6  H   UNL     1      89.417 100.107  68.630  1.00  0.00     0.163 HD
BRANCH   5   7
ATOM      7  C   UNL     1      89.764  99.409  66.662  1.00  0.00     0.151 C 
BRANCH   7   8
ATOM      8  C   UNL     1      90.296 100.746  66.235  1.00  0.00    -0.025 A 
ATOM      9  C   UNL     1      91.501 100.819  65.547  1.00  0.00     0.056 A 
ATOM     10  C   UNL     1      89.578 101.897  66.534  1.00  0.00     0.009 A 
ATOM     11  C   UNL     1      91.995 102.063  65.151  1.00  0.00     0.160 A 
ATOM     12  C   UNL     1      90.072 103.141  66.139  1.00  0.00     0.050 A 
ATOM     13  C   UNL     1      91.281 103.224  65.447  1.00  0.00     0.157 A 
BRANCH  11  14
ATOM     14  O   UNL     1      93.177 102.131  64.477  1.00  0.00    -0.493 OA
ATOM     15  C   UNL     1      93.164 101.736  63.106  1.00  0.00     0.278 C 
ENDBRANCH  11  14
BRANCH  13  16
ATOM     16  O   UNL     1      91.752 104.443  65.066  1.00  0.00    -0.504 OA
ATOM     17  H   UNL     1      91.767 104.487  64.094  1.00  0.00     0.293 HD
ENDBRANCH  13  16
ENDBRANCH   7   8
ENDBRANCH   5   7
ENDBRANCH   2   3
ENDBRANCH   1   2
BRANCH   1  18
ATOM     18  C   UNL     1      91.989  99.293  71.281  1.00  0.00     0.001 C 
BRANCH  18  19
ATOM     19  C   UNL     1      92.632 100.449  72.055  1.00  0.00     0.000 C 
BRANCH  19  20
ATOM     20  C   UNL     1      93.291 100.007  73.364  1.00  0.00     0.000 C 
BRANCH  20  21
ATOM     21  C   UNL     1      94.186  98.772  73.210  1.00  0.00     0.000 C 
BRANCH  21  22
ATOM     22  C   UNL     1      93.703  97.567  74.024  1.00  0.00     0.003 C 
BRANCH  22  23
ATOM     23  C   UNL     1      94.801  96.517  74.277  1.00  0.00    -0.017 C 
ATOM     24  C   UNL     1      95.567  96.246  72.980  1.00  0.00     0.007 C 
ATOM     25  C   UNL     1      94.241  95.204  74.827  1.00  0.00     0.007 C 
ENDBRANCH  22  23
ENDBRANCH  21  22
ENDBRANCH  20  21
ENDBRANCH  19  20
ENDBRANCH  18  19
ENDBRANCH   1  18
TORSDOF 12
ENDMDL
MODEL 4
REMARK VINA RESULT:    -5.268      2.113      3.041
REMARK INTER + INTRA:         -10.281
REMARK INTER:                  -9.444
REMARK INTRA:                  -0.837
REMARK UNBOUND:                -1.470
REMARK SMILES COc1cc(CNC(=O)CCCCCCCC(C)C)ccc1O
REMARK SMILES IDX 11 1 10 2 8 3 9 4 7 5 6 7 5 8 4 9 20 10 3 11 21 12 22 13
REMARK SMILES IDX 2 14 1 15 23 16 12 18 13 19 14 20 15 21 16 22 17 23 18 24
REMARK SMILES IDX 19 25
REMARK H PARENT 7 6 23 17
REMARK Flexibility Score: inf
ROOT
ATOM      1  C   UNL     1      94.317  95.159  78.216  1.00  0.00     0.010 C 
ENDROOT
BRANCH   1   2
ATOM      2  C   UNL     1      94.928  93.890  78.806  1.00  0.00     0.100 C 
BRANCH   2   3
ATOM      3  C   UNL     1      95.466  94.107  80.211  1.00  0.00     0.220 C 
ATOM      4  O   UNL     1      95.655  93.193  81.009  1.00  0.00    -0.275 OA
ATOM      5  N   UNL     1      95.703  95.449  80.464  1.00  0.00    -0.352 N 
ATOM      6  H   UNL     1      95.506  96.139  79.743  1.00  0.00     0.163 HD
BRANCH   5   7
ATOM      7  C   UNL     1      96.210  95.930  81.729  1.00  0.00     0.151 C 
BRANCH   7   8
ATOM      8  C   UNL     1      97.699  96.115  81.703  1.00  0.00    -0.025 A 
ATOM      9  C   UNL     1      98.249  97.166  80.978  1.00  0.00     0.056 A 
ATOM     10  C   UNL     1      98.513  95.233  82.403  1.00  0.00     0.009 A 
ATOM     11  C   UNL     1      99.633  97.337  80.954  1.00  0.00     0.160 A 
ATOM     12  C   UNL     1      99.898  95.405  82.378  1.00  0.00     0.050 A 
ATOM     13  C   UNL     1     100.458  96.456  81.654  1.00  0.00     0.157 A 
BRANCH  11  14
ATOM     14  O   UNL     1     100.169  98.368  80.242  1.00  0.00    -0.493 OA
ATOM     15  C   UNL     1      99.269  99.149  79.456  1.00  0.00     0.278 C 
ENDBRANCH  11  14
BRANCH  13  16
ATOM     16  O   UNL     1     101.811  96.614  81.638  1.00  0.00    -0.504 OA
ATOM     17  H   UNL     1     102.065  97.237  82.340  1.00  0.00     0.293 HD
ENDBRANCH  13  16
ENDBRANCH   7   8
ENDBRANCH   5   7
ENDBRANCH   2   3
ENDBRANCH   1   2
BRANCH   1  18
ATOM     18  C   UNL     1      92.994  94.916  77.483  1.00  0.00     0.001 C 
BRANCH  18  19
ATOM     19  C   UNL     1      92.196  93.691  77.942  1.00  0.00     0.000 C 
BRANCH  19  20
ATOM     20  C   UNL     1      91.710  92.816  76.784  1.00  0.00     0.000 C 
BRANCH  20  21
ATOM     21  C   UNL     1      90.249  92.376  76.922  1.00  0.00     0.000 C 
BRANCH  21  22
ATOM     22  C   UNL     1      89.967  91.005  76.299  1.00  0.00     0.003 C 
BRANCH  22  23
ATOM     23  C   UNL     1      90.438  90.886  74.837  1.00  0.00    -0.017 C 
ATOM     24  C   UNL     1      89.299  91.277  73.893  1.00  0.00     0.007 C 
ATOM     25  C   UNL     1      90.930  89.479  74.492  1.00  0.00     0.007 C 
ENDBRANCH  22  23
ENDBRANCH  21  22
ENDBRANCH  20  21
ENDBRANCH  19  20
ENDBRANCH  18  19
ENDBRANCH   1  18
TORSDOF 12
ENDMDL
MODEL 5
REMARK VINA RESULT:    -5.233     10.580     13.469
REMARK INTER + INTRA:         -10.221
REMARK INTER:                  -8.172
REMARK INTRA:                  -2.049
REMARK UNBOUND:                -1.470
REMARK SMILES COc1cc(CNC(=O)CCCCCCCC(C)C)ccc1O
REMARK SMILES IDX 11 1 10 2 8 3 9 4 7 5 6 7 5 8 4 9 20 10 3 11 21 12 22 13
REMARK SMILES IDX 2 14 1 15 23 16 12 18 13 19 14 20 15 21 16 22 17 23 18 24
REMARK SMILES IDX 19 25
REMARK H PARENT 7 6 23 17
REMARK Flexibility Score: inf
ROOT
ATOM      1  C   UNL     1      87.683  99.949  67.281  1.00  0.00     0.010 C 
ENDROOT
BRANCH   1   2
ATOM      2  C   UNL     1      88.618  98.915  66.656  1.00  0.00     0.100 C 
BRANCH   2   3
ATOM      3  C   UNL     1      89.590  98.329  67.667  1.00  0.00     0.220 C 
ATOM      4  O   UNL     1      89.895  97.140  67.698  1.00  0.00    -0.275 OA
ATOM      5  N   UNL     1      90.069  99.299  68.534  1.00  0.00    -0.352 N 
ATOM      6  H   UNL     1      89.751 100.260  68.439  1.00  0.00     0.163 HD
BRANCH   5   7
ATOM      7  C   UNL     1      91.004  99.007  69.597  1.00  0.00     0.151 C 
BRANCH   7   8
ATOM      8  C   UNL     1      91.136 100.152  70.559  1.00  0.00    -0.025 A 
ATOM      9  C   UNL     1      92.328 100.336  71.249  1.00  0.00     0.056 A 
ATOM     10  C   UNL     1      90.064 101.016  70.749  1.00  0.00     0.009 A 
ATOM     11  C   UNL     1      92.450 101.400  72.143  1.00  0.00     0.160 A 
ATOM     12  C   UNL     1      90.187 102.080  71.644  1.00  0.00     0.050 A 
ATOM     13  C   UNL     1      91.379 102.272  72.341  1.00  0.00     0.157 A 
BRANCH  11  14
ATOM     14  O   UNL     1      93.620 101.577  72.819  1.00  0.00    -0.493 OA
ATOM     15  C   UNL     1      94.039 100.516  73.676  1.00  0.00     0.278 C 
ENDBRANCH  11  14
BRANCH  13  16
ATOM     16  O   UNL     1      91.487 103.315  73.210  1.00  0.00    -0.504 OA
ATOM     17  H   UNL     1      91.916 104.061  72.758  1.00  0.00     0.293 HD
ENDBRANCH  13  16
ENDBRANCH   7   8
ENDBRANCH   5   7
ENDBRANCH   2   3
ENDBRANCH   1   2
BRANCH   1  18
ATOM     18  C   UNL     1      86.874 100.742  66.251  1.00  0.00     0.001 C 
BRANCH  18  19
ATOM     19  C   UNL     1      87.095 102.258  66.257  1.00  0.00     0.000 C 
BRANCH  19  20
ATOM     20  C   UNL     1      88.295 102.691  67.103  1.00  0.00     0.000 C 
BRANCH  20  21
ATOM     21  C   UNL     1      89.519 103.085  66.270  1.00  0.00     0.000 C 
BRANCH  21  22
ATOM     22  C   UNL     1      90.674 102.083  66.376  1.00  0.00     0.003 C 
BRANCH  22  23
ATOM     23  C   UNL     1      91.584 102.321  67.597  1.00  0.00    -0.017 C 
ATOM     24  C   UNL     1      91.669 103.820  67.894  1.00  0.00     0.007 C 
ATOM     25  C   UNL     1      92.991 101.756  67.398  1.00  0.00     0.007 C 
ENDBRANCH  22  23
ENDBRANCH  21  22
ENDBRANCH  20  21
ENDBRANCH  19  20
ENDBRANCH  18  19
ENDBRANCH   1  18
TORSDOF 12
ENDMDL
MODEL 6
REMARK VINA RESULT:    -5.217      2.760      3.550
REMARK INTER + INTRA:         -10.195
REMARK INTER:                  -8.719
REMARK INTRA:                  -1.476
REMARK UNBOUND:                -1.470
REMARK SMILES COc1cc(CNC(=O)CCCCCCCC(C)C)ccc1O
REMARK SMILES IDX 11 1 10 2 8 3 9 4 7 5 6 7 5 8 4 9 20 10 3 11 21 12 22 13
REMARK SMILES IDX 2 14 1 15 23 16 12 18 13 19 14 20 15 21 16 22 17 23 18 24
REMARK SMILES IDX 19 25
REMARK H PARENT 7 6 23 17
REMARK Flexibility Score: inf
ROOT
ATOM      1  C   UNL     1      95.954  93.106  78.533  1.00  0.00     0.010 C 
ENDROOT
BRANCH   1   2
ATOM      2  C   UNL     1      95.389  93.078  79.952  1.00  0.00     0.100 C 
BRANCH   2   3
ATOM      3  C   UNL     1      96.150  93.993  80.896  1.00  0.00     0.220 C 
ATOM      4  O   UNL     1      95.635  94.948  81.471  1.00  0.00    -0.275 OA
ATOM      5  N   UNL     1      97.480  93.615  81.011  1.00  0.00    -0.352 N 
ATOM      6  H   UNL     1      97.821  92.814  80.486  1.00  0.00     0.163 HD
BRANCH   5   7
ATOM      7  C   UNL     1      98.427  94.323  81.841  1.00  0.00     0.151 C 
BRANCH   7   8
ATOM      8  C   UNL     1      99.070  95.465  81.110  1.00  0.00    -0.025 A 
ATOM      9  C   UNL     1      99.731  95.229  79.910  1.00  0.00     0.056 A 
ATOM     10  C   UNL     1      98.999  96.748  81.640  1.00  0.00     0.009 A 
ATOM     11  C   UNL     1     100.329  96.290  79.231  1.00  0.00     0.160 A 
ATOM     12  C   UNL     1      99.598  97.809  80.960  1.00  0.00     0.050 A 
ATOM     13  C   UNL     1     100.262  97.581  79.756  1.00  0.00     0.157 A 
BRANCH  11  14
ATOM     14  O   UNL     1     100.976  96.054  78.055  1.00  0.00    -0.493 OA
ATOM     15  C   UNL     1     101.923  94.988  78.040  1.00  0.00     0.278 C 
ENDBRANCH  11  14
BRANCH  13  16
ATOM     16  O   UNL     1     100.842  98.626  79.101  1.00  0.00    -0.504 OA
ATOM     17  H   UNL     1     101.241  98.300  78.277  1.00  0.00     0.293 HD
ENDBRANCH  13  16
ENDBRANCH   7   8
ENDBRANCH   5   7
ENDBRANCH   2   3
ENDBRANCH   1   2
BRANCH   1  18
ATOM     18  C   UNL     1      96.246  94.518  78.020  1.00  0.00     0.001 C 
BRANCH  18  19
ATOM     19  C   UNL     1      95.055  95.261  77.406  1.00  0.00     0.000 C 
BRANCH  19  20
ATOM     20  C   UNL     1      94.702  94.778  75.996  1.00  0.00     0.000 C 
BRANCH  20  21
ATOM     21  C   UNL     1      93.198  94.801  75.702  1.00  0.00     0.000 C 
BRANCH  21  22
ATOM     22  C   UNL     1      92.543  93.418  75.785  1.00  0.00     0.003 C 
BRANCH  22  23
ATOM     23  C   UNL     1      91.473  93.310  76.889  1.00  0.00    -0.017 C 
ATOM     24  C   UNL     1      90.529  94.512  76.814  1.00  0.00     0.007 C 
ATOM     25  C   UNL     1      92.083  93.223  78.289  1.00  0.00     0.007 C 
ENDBRANCH  22  23
ENDBRANCH  21  22
ENDBRANCH  20  21
ENDBRANCH  19  20
ENDBRANCH  18  19
ENDBRANCH   1  18
TORSDOF 12
ENDMDL
MODEL 7
REMARK VINA RESULT:    -5.154     13.741     16.361
REMARK INTER + INTRA:         -10.090
REMARK INTER:                  -7.477
REMARK INTRA:                  -2.613
REMARK UNBOUND:                -1.470
REMARK SMILES COc1cc(CNC(=O)CCCCCCCC(C)C)ccc1O
REMARK SMILES IDX 11 1 10 2 8 3 9 4 7 5 6 7 5 8 4 9 20 10 3 11 21 12 22 13
REMARK SMILES IDX 2 14 1 15 23 16 12 18 13 19 14 20 15 21 16 22 17 23 18 24
REMARK SMILES IDX 19 25
REMARK H PARENT 7 6 23 17
REMARK Flexibility Score: inf
ROOT
ATOM      1  C   UNL     1      99.351  79.294  70.838  1.00  0.00     0.010 C 
ENDROOT
BRANCH   1   2
ATOM      2  C   UNL     1     100.185  80.563  70.677  1.00  0.00     0.100 C 
BRANCH   2   3
ATOM      3  C   UNL     1     100.676  81.107  72.009  1.00  0.00     0.220 C 
ATOM      4  O   UNL     1     101.743  80.778  72.518  1.00  0.00    -0.275 OA
ATOM      5  N   UNL     1      99.768  81.998  72.561  1.00  0.00    -0.352 N 
ATOM      6  H   UNL     1      98.902  82.202  72.070  1.00  0.00     0.163 HD
BRANCH   5   7
ATOM      7  C   UNL     1      99.987  82.654  73.830  1.00  0.00     0.151 C 
BRANCH   7   8
ATOM      8  C   UNL     1      98.733  82.721  74.651  1.00  0.00    -0.025 A 
ATOM      9  C   UNL     1      98.703  82.134  75.910  1.00  0.00     0.056 A 
ATOM     10  C   UNL     1      97.614  83.370  74.143  1.00  0.00     0.009 A 
ATOM     11  C   UNL     1      97.536  82.197  76.673  1.00  0.00     0.160 A 
ATOM     12  C   UNL     1      96.447  83.432  74.906  1.00  0.00     0.050 A 
ATOM     13  C   UNL     1      96.408  82.846  76.171  1.00  0.00     0.157 A 
BRANCH  11  14
ATOM     14  O   UNL     1      97.511  81.620  77.907  1.00  0.00    -0.493 OA
ATOM     15  C   UNL     1      97.674  80.203  77.963  1.00  0.00     0.278 C 
ENDBRANCH  11  14
BRANCH  13  16
ATOM     16  O   UNL     1      95.264  82.914  76.906  1.00  0.00    -0.504 OA
ATOM     17  H   UNL     1      95.489  83.159  77.820  1.00  0.00     0.293 HD
ENDBRANCH  13  16
ENDBRANCH   7   8
ENDBRANCH   5   7
ENDBRANCH   2   3
ENDBRANCH   1   2
BRANCH   1  18
ATOM     18  C   UNL     1      97.905  79.448  70.358  1.00  0.00     0.001 C 
BRANCH  18  19
ATOM     19  C   UNL     1      96.824  79.135  71.397  1.00  0.00     0.000 C 
BRANCH  19  20
ATOM     20  C   UNL     1      96.750  80.169  72.524  1.00  0.00     0.000 C 
BRANCH  20  21
ATOM     21  C   UNL     1      97.038  79.582  73.910  1.00  0.00     0.000 C 
BRANCH  21  22
ATOM     22  C   UNL     1      97.165  78.055  73.907  1.00  0.00     0.003 C 
BRANCH  22  23
ATOM     23  C   UNL     1      98.551  77.553  74.359  1.00  0.00    -0.017 C 
ATOM     24  C   UNL     1      99.488  78.745  74.573  1.00  0.00     0.007 C 
ATOM     25  C   UNL     1      99.177  76.580  73.360  1.00  0.00     0.007 C 
ENDBRANCH  22  23
ENDBRANCH  21  22
ENDBRANCH  20  21
ENDBRANCH  19  20
ENDBRANCH  18  19
ENDBRANCH   1  18
TORSDOF 12
ENDMDL
MODEL 8
REMARK VINA RESULT:    -5.128     12.821     14.841
REMARK INTER + INTRA:         -10.045
REMARK INTER:                  -8.769
REMARK INTRA:                  -1.276
REMARK UNBOUND:                -1.470
REMARK SMILES COc1cc(CNC(=O)CCCCCCCC(C)C)ccc1O
REMARK SMILES IDX 11 1 10 2 8 3 9 4 7 5 6 7 5 8 4 9 20 10 3 11 21 12 22 13
REMARK SMILES IDX 2 14 1 15 23 16 12 18 13 19 14 20 15 21 16 22 17 23 18 24
REMARK SMILES IDX 19 25
REMARK H PARENT 7 6 23 17
REMARK Flexibility Score: inf
ROOT
ATOM      1  C   UNL     1      97.225  82.160  77.188  1.00  0.00     0.010 C 
ENDROOT
BRANCH   1   2
ATOM      2  C   UNL     1      97.048  80.682  77.529  1.00  0.00     0.100 C 
BRANCH   2   3
ATOM      3  C   UNL     1      97.847  80.272  78.756  1.00  0.00     0.220 C 
ATOM      4  O   UNL     1      98.769  79.462  78.720  1.00  0.00    -0.275 OA
ATOM      5  N   UNL     1      97.395  80.917  79.897  1.00  0.00    -0.352 N 
ATOM      6  H   UNL     1      96.614  81.565  79.832  1.00  0.00     0.163 HD
BRANCH   5   7
ATOM      7  C   UNL     1      97.976  80.700  81.202  1.00  0.00     0.151 C 
BRANCH   7   8
ATOM      8  C   UNL     1      96.928  80.498  82.257  1.00  0.00    -0.025 A 
ATOM      9  C   UNL     1      96.296  81.601  82.819  1.00  0.00     0.056 A 
ATOM     10  C   UNL     1      96.601  79.210  82.662  1.00  0.00     0.009 A 
ATOM     11  C   UNL     1      95.322  81.412  83.800  1.00  0.00     0.160 A 
ATOM     12  C   UNL     1      95.627  79.022  83.643  1.00  0.00     0.050 A 
ATOM     13  C   UNL     1      94.988  80.122  84.213  1.00  0.00     0.157 A 
BRANCH  11  14
ATOM     14  O   UNL     1      94.705  82.496  84.349  1.00  0.00    -0.493 OA
ATOM     15  C   UNL     1      95.488  83.318  85.214  1.00  0.00     0.278 C 
ENDBRANCH  11  14
BRANCH  13  16
ATOM     16  O   UNL     1      94.038  79.926  85.169  1.00  0.00    -0.504 OA
ATOM     17  H   UNL     1      93.165  79.874  84.742  1.00  0.00     0.293 HD
ENDBRANCH  13  16
ENDBRANCH   7   8
ENDBRANCH   5   7
ENDBRANCH   2   3
ENDBRANCH   1   2
BRANCH   1  18
ATOM     18  C   UNL     1      95.953  82.816  76.643  1.00  0.00     0.001 C 
BRANCH  18  19
ATOM     19  C   UNL     1      96.028  83.305  75.192  1.00  0.00     0.000 C 
BRANCH  19  20
ATOM     20  C   UNL     1      97.462  83.458  74.678  1.00  0.00     0.000 C 
BRANCH  20  21
ATOM     21  C   UNL     1      97.768  82.584  73.457  1.00  0.00     0.000 C 
BRANCH  21  22
ATOM     22  C   UNL     1      98.155  81.147  73.821  1.00  0.00     0.003 C 
BRANCH  22  23
ATOM     23  C   UNL     1      97.008  80.135  73.634  1.00  0.00    -0.017 C 
ATOM     24  C   UNL     1      97.397  78.791  74.253  1.00  0.00     0.007 C 
ATOM     25  C   UNL     1      96.636  79.935  72.164  1.00  0.00     0.007 C 
ENDBRANCH  22  23
ENDBRANCH  21  22
ENDBRANCH  20  21
ENDBRANCH  19  20
ENDBRANCH  18  19
ENDBRANCH   1  18
TORSDOF 12
ENDMDL
MODEL 9
REMARK VINA RESULT:    -5.086     23.005     25.176
REMARK INTER + INTRA:          -9.976
REMARK INTER:                  -7.298
REMARK INTRA:                  -2.677
REMARK UNBOUND:                -1.470
REMARK SMILES COc1cc(CNC(=O)CCCCCCCC(C)C)ccc1O
REMARK SMILES IDX 11 1 10 2 8 3 9 4 7 5 6 7 5 8 4 9 20 10 3 11 21 12 22 13
REMARK SMILES IDX 2 14 1 15 23 16 12 18 13 19 14 20 15 21 16 22 17 23 18 24
REMARK SMILES IDX 19 25
REMARK H PARENT 7 6 23 17
REMARK Flexibility Score: inf
ROOT
ATOM      1  C   UNL     1      74.020  92.662  66.453  1.00  0.00     0.010 C 
ENDROOT
BRANCH   1   2
ATOM      2  C   UNL     1      72.930  91.734  65.921  1.00  0.00     0.100 C 
BRANCH   2   3
ATOM      3  C   UNL     1      73.502  90.498  65.245  1.00  0.00     0.220 C 
ATOM      4  O   UNL     1      72.810  89.557  64.865  1.00  0.00    -0.275 OA
ATOM      5  N   UNL     1      74.882  90.574  65.128  1.00  0.00    -0.352 N 
ATOM      6  H   UNL     1      75.372  91.390  65.483  1.00  0.00     0.163 HD
BRANCH   5   7
ATOM      7  C   UNL     1      75.676  89.525  64.529  1.00  0.00     0.151 C 
BRANCH   7   8
ATOM      8  C   UNL     1      76.208  88.569  65.556  1.00  0.00    -0.025 A 
ATOM      9  C   UNL     1      75.963  87.208  65.421  1.00  0.00     0.056 A 
ATOM     10  C   UNL     1      76.941  89.055  66.633  1.00  0.00     0.009 A 
ATOM     11  C   UNL     1      76.458  86.319  66.375  1.00  0.00     0.160 A 
ATOM     12  C   UNL     1      77.435  88.165  67.588  1.00  0.00     0.050 A 
ATOM     13  C   UNL     1      77.194  86.798  67.460  1.00  0.00     0.157 A 
BRANCH  11  14
ATOM     14  O   UNL     1      76.215  84.985  66.239  1.00  0.00    -0.493 OA
ATOM     15  C   UNL     1      74.960  84.610  65.673  1.00  0.00     0.278 C 
ENDBRANCH  11  14
BRANCH  13  16
ATOM     16  O   UNL     1      77.683  85.940  68.398  1.00  0.00    -0.504 OA
ATOM     17  H   UNL     1      77.606  86.354  69.275  1.00  0.00     0.293 HD
ENDBRANCH  13  16
ENDBRANCH   7   8
ENDBRANCH   5   7
ENDBRANCH   2   3
ENDBRANCH   1   2
BRANCH   1  18
ATOM     18  C   UNL     1      74.145  92.644  67.979  1.00  0.00     0.001 C 
BRANCH  18  19
ATOM     19  C   UNL     1      75.263  91.761  68.543  1.00  0.00     0.000 C 
BRANCH  19  20
ATOM     20  C   UNL     1      74.850  90.993  69.801  1.00  0.00     0.000 C 
BRANCH  20  21
ATOM     21  C   UNL     1      73.732  89.974  69.555  1.00  0.00     0.000 C 
BRANCH  21  22
ATOM     22  C   UNL     1      74.236  88.648  68.978  1.00  0.00     0.003 C 
BRANCH  22  23
ATOM     23  C   UNL     1      73.234  87.975  68.019  1.00  0.00    -0.017 C 
ATOM     24  C   UNL     1      71.867  88.654  68.139  1.00  0.00     0.007 C 
ATOM     25  C   UNL     1      73.087  86.476  68.282  1.00  0.00     0.007 C 
ENDBRANCH  22  23
ENDBRANCH  21  22
ENDBRANCH  20  21
ENDBRANCH  19  20
ENDBRANCH  18  19
ENDBRANCH   1  18
TORSDOF 12
ENDMDL
MODEL 10
REMARK VINA RESULT:    -5.058      2.557      3.300
REMARK INTER + INTRA:          -9.928
REMARK INTER:                  -8.670
REMARK INTRA:                  -1.258
REMARK UNBOUND:                -1.470
REMARK SMILES COc1cc(CNC(=O)CCCCCCCC(C)C)ccc1O
REMARK SMILES IDX 11 1 10 2 8 3 9 4 7 5 6 7 5 8 4 9 20 10 3 11 21 12 22 13
REMARK SMILES IDX 2 14 1 15 23 16 12 18 13 19 14 20 15 21 16 22 17 23 18 24
REMARK SMILES IDX 19 25
REMARK H PARENT 7 6 23 17
REMARK Flexibility Score: inf
ROOT
ATOM      1  C   UNL     1      96.137  93.551  78.484  1.00  0.00     0.010 C 
ENDROOT
BRANCH   1   2
ATOM      2  C   UNL     1      95.810  93.266  79.948  1.00  0.00     0.100 C 
BRANCH   2   3
ATOM      3  C   UNL     1      96.245  94.394  80.869  1.00  0.00     0.220 C 
ATOM      4  O   UNL     1      95.486  94.951  81.658  1.00  0.00    -0.275 OA
ATOM      5  N   UNL     1      97.584  94.707  80.694  1.00  0.00    -0.352 N 
ATOM      6  H   UNL     1      98.133  94.198  80.006  1.00  0.00     0.163 HD
BRANCH   5   7
ATOM      7  C   UNL     1      98.249  95.750  81.440  1.00  0.00     0.151 C 
BRANCH   7   8
ATOM      8  C   UNL     1      97.916  97.117  80.915  1.00  0.00    -0.025 A 
ATOM      9  C   UNL     1      98.302  97.472  79.629  1.00  0.00     0.056 A 
ATOM     10  C   UNL     1      97.224  98.012  81.722  1.00  0.00     0.009 A 
ATOM     11  C   UNL     1      97.992  98.742  79.141  1.00  0.00     0.160 A 
ATOM     12  C   UNL     1      96.914  99.282  81.234  1.00  0.00     0.050 A 
ATOM     13  C   UNL     1      97.298  99.647  79.944  1.00  0.00     0.157 A 
BRANCH  11  14
ATOM     14  O   UNL     1      98.374  99.087  77.880  1.00  0.00    -0.493 OA
ATOM     15  C   UNL     1      99.548  98.462  77.364  1.00  0.00     0.278 C 
ENDBRANCH  11  14
BRANCH  13  16
ATOM     16  O   UNL     1      96.989 100.890  79.479  1.00  0.00    -0.504 OA
ATOM     17  H   UNL     1      97.519 101.071  78.683  1.00  0.00     0.293 HD
ENDBRANCH  13  16
ENDBRANCH   7   8
ENDBRANCH   5   7
ENDBRANCH   2   3
ENDBRANCH   1   2
BRANCH   1  18
ATOM     18  C   UNL     1      95.842  94.993  78.062  1.00  0.00     0.001 C 
BRANCH  18  19
ATOM     19  C   UNL     1      94.406  95.272  77.606  1.00  0.00     0.000 C 
BRANCH  19  20
ATOM     20  C   UNL     1      94.061  94.622  76.264  1.00  0.00     0.000 C 
BRANCH  20  21
ATOM     21  C   UNL     1      93.170  93.382  76.398  1.00  0.00     0.000 C 
BRANCH  21  22
ATOM     22  C   UNL     1      92.369  93.349  77.704  1.00  0.00     0.003 C 
BRANCH  22  23
ATOM     23  C   UNL     1      90.844  93.409  77.491  1.00  0.00    -0.017 C 
ATOM     24  C   UNL     1      90.402  92.256  76.587  1.00  0.00     0.007 C 
ATOM     25  C   UNL     1      90.388  94.739  76.889  1.00  0.00     0.007 C 
ENDBRANCH  22  23
ENDBRANCH  21  22
ENDBRANCH  20  21
ENDBRANCH  19  20
ENDBRANCH  18  19
ENDBRANCH   1  18
TORSDOF 12
ENDMDL
