MODEL 1
REMARK VINA RESULT:    -6.296      0.000      0.000
REMARK INTER + INTRA:         -10.455
REMARK INTER:                  -9.793
REMARK INTRA:                  -0.662
REMARK UNBOUND:                -0.662
REMARK SMILES COc1cc(CNC(=O)CCCC/C=C/C(C)C)ccc1O
REMARK SMILES IDX 10 1 8 2 7 3 9 5 6 6 5 7 3 8 21 9 4 10 20 11 19 12 2 13 1 14
REMARK SMILES IDX 22 15 11 17 12 18 13 19 14 20 15 21 16 22 17 23 18 24
REMARK H PARENT 7 4 22 16
REMARK Flexibility Score: inf
ROOT
ATOM      1  C   UNL     1      93.199 100.347  74.294  1.00  0.00     0.100 C 
ENDROOT
BRANCH   1   2
ATOM      2  C   UNL     1      94.113  99.354  74.893  1.00  0.00     0.220 C 
ATOM      3  N   UNL     1      93.631  98.374  75.707  1.00  0.00    -0.352 N 
ATOM      4  H   UNL     1      92.634  98.409  75.873  1.00  0.00     0.163 HD
ATOM      5  O   UNL     1      95.333  99.426  74.610  1.00  0.00    -0.275 OA
BRANCH   3   6
ATOM      6  C   UNL     1      94.424  97.350  76.308  1.00  0.00     0.151 C 
BRANCH   6   7
ATOM      7  C   UNL     1      93.584  96.377  77.059  1.00  0.00    -0.025 A 
ATOM      8  C   UNL     1      93.245  94.924  79.017  1.00  0.00     0.160 A 
ATOM      9  C   UNL     1      91.986  94.537  78.513  1.00  0.00     0.157 A 
ATOM     10  C   UNL     1      94.032  95.837  78.286  1.00  0.00     0.056 A 
ATOM     11  C   UNL     1      91.534  95.052  77.282  1.00  0.00     0.050 A 
ATOM     12  C   UNL     1      92.322  95.973  76.565  1.00  0.00     0.009 A 
BRANCH   8  13
ATOM     13  O   UNL     1      93.718  94.375  80.182  1.00  0.00    -0.493 OA
ATOM     14  C   UNL     1      94.965  93.672  80.036  1.00  0.00     0.278 C 
ENDBRANCH   8  13
BRANCH   9  15
ATOM     15  O   UNL     1      91.198  93.670  79.200  1.00  0.00    -0.504 OA
ATOM     16  H   UNL     1      91.563  92.784  79.135  1.00  0.00     0.293 HD
ENDBRANCH   9  15
ENDBRANCH   6   7
ENDBRANCH   3   6
ENDBRANCH   1   2
BRANCH   1  17
ATOM     17  C   UNL     1      92.209  99.686  73.298  1.00  0.00     0.010 C 
BRANCH  17  18
ATOM     18  C   UNL     1      92.056 100.489  71.975  1.00  0.00     0.005 C 
BRANCH  18  19
ATOM     19  C   UNL     1      90.570 100.747  71.609  1.00  0.00     0.027 C 
BRANCH  19  20
ATOM     20  C   UNL     1      89.860  99.515  71.300  1.00  0.00    -0.031 C 
ATOM     21  C   UNL     1      89.704  99.025  70.056  1.00  0.00    -0.028 C 
BRANCH  21  22
ATOM     22  C   UNL     1      89.003  97.773  69.770  1.00  0.00     0.005 C 
ATOM     23  C   UNL     1      88.815  97.539  68.246  1.00  0.00     0.012 C 
ATOM     24  C   UNL     1      89.747  96.580  70.425  1.00  0.00     0.012 C 
ENDBRANCH  21  22
ENDBRANCH  19  20
ENDBRANCH  18  19
ENDBRANCH  17  18
ENDBRANCH   1  17
TORSDOF 10
ENDMDL
MODEL 2
REMARK VINA RESULT:    -6.263     15.135     17.090
REMARK INTER + INTRA:         -10.403
REMARK INTER:                  -9.649
REMARK INTRA:                  -0.754
REMARK UNBOUND:                -0.662
REMARK SMILES COc1cc(CNC(=O)CCCC/C=C/C(C)C)ccc1O
REMARK SMILES IDX 10 1 8 2 7 3 9 5 6 6 5 7 3 8 21 9 4 10 20 11 19 12 2 13 1 14
REMARK SMILES IDX 22 15 11 17 12 18 13 19 14 20 15 21 16 22 17 23 18 24
REMARK H PARENT 7 4 22 16
REMARK Flexibility Score: inf
ROOT
ATOM      1  C   UNL     1      99.041  82.996  79.584  1.00  0.00     0.100 C 
ENDROOT
BRANCH   1   2
ATOM      2  C   UNL     1      99.147  82.256  80.857  1.00  0.00     0.220 C 
ATOM      3  N   UNL     1      99.187  82.925  82.044  1.00  0.00    -0.352 N 
ATOM      4  H   UNL     1      99.164  83.933  81.967  1.00  0.00     0.163 HD
ATOM      5  O   UNL     1      99.174  81.003  80.813  1.00  0.00    -0.275 OA
BRANCH   3   6
ATOM      6  C   UNL     1      99.256  82.304  83.328  1.00  0.00     0.151 C 
BRANCH   6   7
ATOM      7  C   UNL     1      98.084  82.662  84.172  1.00  0.00    -0.025 A 
ATOM      8  C   UNL     1      96.385  82.024  85.836  1.00  0.00     0.160 A 
ATOM      9  C   UNL     1      95.861  83.333  85.803  1.00  0.00     0.157 A 
ATOM     10  C   UNL     1      97.488  81.701  85.019  1.00  0.00     0.056 A 
ATOM     11  C   UNL     1      96.432  84.297  84.949  1.00  0.00     0.050 A 
ATOM     12  C   UNL     1      97.542  83.968  84.147  1.00  0.00     0.009 A 
BRANCH   8  13
ATOM     13  O   UNL     1      95.791  81.065  86.616  1.00  0.00    -0.493 OA
ATOM     14  C   UNL     1      96.467  80.822  87.863  1.00  0.00     0.278 C 
ENDBRANCH   8  13
BRANCH   9  15
ATOM     15  O   UNL     1      94.807  83.681  86.587  1.00  0.00    -0.504 OA
ATOM     16  H   UNL     1      94.138  82.994  86.547  1.00  0.00     0.293 HD
ENDBRANCH   9  15
ENDBRANCH   6   7
ENDBRANCH   3   6
ENDBRANCH   1   2
BRANCH   1  17
ATOM     17  C   UNL     1      97.562  83.276  79.206  1.00  0.00     0.010 C 
BRANCH  17  18
ATOM     18  C   UNL     1      97.418  84.282  78.030  1.00  0.00     0.005 C 
BRANCH  18  19
ATOM     19  C   UNL     1      97.811  83.654  76.665  1.00  0.00     0.027 C 
BRANCH  19  20
ATOM     20  C   UNL     1      98.894  84.381  76.020  1.00  0.00    -0.031 C 
ATOM     21  C   UNL     1     100.100  83.853  75.744  1.00  0.00    -0.028 C 
BRANCH  21  22
ATOM     22  C   UNL     1     101.168  84.597  75.076  1.00  0.00     0.005 C 
ATOM     23  C   UNL     1     101.941  83.724  74.049  1.00  0.00     0.012 C 
ATOM     24  C   UNL     1     100.594  85.869  74.400  1.00  0.00     0.012 C 
ENDBRANCH  21  22
ENDBRANCH  19  20
ENDBRANCH  18  19
ENDBRANCH  17  18
ENDBRANCH   1  17
TORSDOF 10
ENDMDL
MODEL 3
REMARK VINA RESULT:    -6.233      1.101      2.062
REMARK INTER + INTRA:         -10.356
REMARK INTER:                  -9.707
REMARK INTRA:                  -0.649
REMARK UNBOUND:                -0.662
REMARK SMILES COc1cc(CNC(=O)CCCC/C=C/C(C)C)ccc1O
REMARK SMILES IDX 10 1 8 2 7 3 9 5 6 6 5 7 3 8 21 9 4 10 20 11 19 12 2 13 1 14
REMARK SMILES IDX 22 15 11 17 12 18 13 19 14 20 15 21 16 22 17 23 18 24
REMARK H PARENT 7 4 22 16
REMARK Flexibility Score: inf
ROOT
ATOM      1  C   UNL     1      94.238 100.301  74.923  1.00  0.00     0.100 C 
ENDROOT
BRANCH   1   2
ATOM      2  C   UNL     1      94.684  98.905  74.750  1.00  0.00     0.220 C 
ATOM      3  N   UNL     1      94.257  97.933  75.603  1.00  0.00    -0.352 N 
ATOM      4  H   UNL     1      93.652  98.253  76.347  1.00  0.00     0.163 HD
ATOM      5  O   UNL     1      95.444  98.641  73.787  1.00  0.00    -0.275 OA
BRANCH   3   6
ATOM      6  C   UNL     1      94.604  96.551  75.504  1.00  0.00     0.151 C 
BRANCH   6   7
ATOM      7  C   UNL     1      94.189  95.795  76.717  1.00  0.00    -0.025 A 
ATOM      8  C   UNL     1      92.702  94.158  77.800  1.00  0.00     0.160 A 
ATOM      9  C   UNL     1      93.397  94.330  79.015  1.00  0.00     0.157 A 
ATOM     10  C   UNL     1      93.102  94.893  76.664  1.00  0.00     0.056 A 
ATOM     11  C   UNL     1      94.470  95.240  79.088  1.00  0.00     0.050 A 
ATOM     12  C   UNL     1      94.870  95.960  77.945  1.00  0.00     0.009 A 
BRANCH   8  13
ATOM     13  O   UNL     1      91.616  93.323  77.741  1.00  0.00    -0.493 OA
ATOM     14  C   UNL     1      91.394  92.739  76.444  1.00  0.00     0.278 C 
ENDBRANCH   8  13
BRANCH   9  15
ATOM     15  O   UNL     1      93.045  93.628  80.123  1.00  0.00    -0.504 OA
ATOM     16  H   UNL     1      92.095  93.681  80.248  1.00  0.00     0.293 HD
ENDBRANCH   9  15
ENDBRANCH   6   7
ENDBRANCH   3   6
ENDBRANCH   1   2
BRANCH   1  17
ATOM     17  C   UNL     1      92.723 100.460  74.621  1.00  0.00     0.010 C 
BRANCH  17  18
ATOM     18  C   UNL     1      92.316  99.869  73.242  1.00  0.00     0.005 C 
BRANCH  18  19
ATOM     19  C   UNL     1      91.589 100.908  72.346  1.00  0.00     0.027 C 
BRANCH  19  20
ATOM     20  C   UNL     1      90.476 100.319  71.618  1.00  0.00    -0.031 C 
ATOM     21  C   UNL     1      90.340  99.002  71.381  1.00  0.00    -0.028 C 
BRANCH  21  22
ATOM     22  C   UNL     1      89.201  98.429  70.663  1.00  0.00     0.005 C 
ATOM     23  C   UNL     1      88.740  99.324  69.479  1.00  0.00     0.012 C 
ATOM     24  C   UNL     1      89.540  96.997  70.175  1.00  0.00     0.012 C 
ENDBRANCH  21  22
ENDBRANCH  19  20
ENDBRANCH  18  19
ENDBRANCH  17  18
ENDBRANCH   1  17
TORSDOF 10
ENDMDL
MODEL 4
REMARK VINA RESULT:    -6.160     20.303     23.602
REMARK INTER + INTRA:         -10.243
REMARK INTER:                  -9.174
REMARK INTRA:                  -1.069
REMARK UNBOUND:                -0.662
REMARK SMILES COc1cc(CNC(=O)CCCC/C=C/C(C)C)ccc1O
REMARK SMILES IDX 10 1 8 2 7 3 9 5 6 6 5 7 3 8 21 9 4 10 20 11 19 12 2 13 1 14
REMARK SMILES IDX 22 15 11 17 12 18 13 19 14 20 15 21 16 22 17 23 18 24
REMARK H PARENT 7 4 22 16
REMARK Flexibility Score: inf
ROOT
ATOM      1  C   UNL     1      76.004  81.354  65.203  1.00  0.00     0.100 C 
ENDROOT
BRANCH   1   2
ATOM      2  C   UNL     1      76.782  82.600  65.340  1.00  0.00     0.220 C 
ATOM      3  N   UNL     1      77.618  82.780  66.402  1.00  0.00    -0.352 N 
ATOM      4  H   UNL     1      77.631  82.019  67.067  1.00  0.00     0.163 HD
ATOM      5  O   UNL     1      76.669  83.471  64.444  1.00  0.00    -0.275 OA
BRANCH   3   6
ATOM      6  C   UNL     1      78.436  83.931  66.610  1.00  0.00     0.151 C 
BRANCH   6   7
ATOM      7  C   UNL     1      77.795  84.895  67.545  1.00  0.00    -0.025 A 
ATOM      8  C   UNL     1      76.298  85.339  69.449  1.00  0.00     0.160 A 
ATOM      9  C   UNL     1      76.579  86.717  69.350  1.00  0.00     0.157 A 
ATOM     10  C   UNL     1      76.906  84.442  68.546  1.00  0.00     0.056 A 
ATOM     11  C   UNL     1      77.448  87.186  68.345  1.00  0.00     0.050 A 
ATOM     12  C   UNL     1      78.060  86.282  67.455  1.00  0.00     0.009 A 
BRANCH   8  13
ATOM     13  O   UNL     1      75.401  84.885  70.383  1.00  0.00    -0.493 OA
ATOM     14  C   UNL     1      76.003  84.156  71.469  1.00  0.00     0.278 C 
ENDBRANCH   8  13
BRANCH   9  15
ATOM     15  O   UNL     1      76.021  87.605  70.213  1.00  0.00    -0.504 OA
ATOM     16  H   UNL     1      76.229  87.351  71.114  1.00  0.00     0.293 HD
ENDBRANCH   9  15
ENDBRANCH   6   7
ENDBRANCH   3   6
ENDBRANCH   1   2
BRANCH   1  17
ATOM     17  C   UNL     1      75.435  81.190  63.767  1.00  0.00     0.010 C 
BRANCH  17  18
ATOM     18  C   UNL     1      73.885  81.292  63.716  1.00  0.00     0.005 C 
BRANCH  18  19
ATOM     19  C   UNL     1      73.206  80.581  64.918  1.00  0.00     0.027 C 
BRANCH  19  20
ATOM     20  C   UNL     1      72.173  81.404  65.528  1.00  0.00    -0.031 C 
ATOM     21  C   UNL     1      72.407  82.577  66.145  1.00  0.00    -0.028 C 
BRANCH  21  22
ATOM     22  C   UNL     1      71.349  83.398  66.734  1.00  0.00     0.005 C 
ATOM     23  C   UNL     1      70.212  82.539  67.353  1.00  0.00     0.012 C 
ATOM     24  C   UNL     1      71.947  84.366  67.788  1.00  0.00     0.012 C 
ENDBRANCH  21  22
ENDBRANCH  19  20
ENDBRANCH  18  19
ENDBRANCH  17  18
ENDBRANCH   1  17
TORSDOF 10
ENDMDL
MODEL 5
REMARK VINA RESULT:    -5.992     15.593     17.183
REMARK INTER + INTRA:          -9.982
REMARK INTER:                  -9.065
REMARK INTRA:                  -0.917
REMARK UNBOUND:                -0.662
REMARK SMILES COc1cc(CNC(=O)CCCC/C=C/C(C)C)ccc1O
REMARK SMILES IDX 10 1 8 2 7 3 9 5 6 6 5 7 3 8 21 9 4 10 20 11 19 12 2 13 1 14
REMARK SMILES IDX 22 15 11 17 12 18 13 19 14 20 15 21 16 22 17 23 18 24
REMARK H PARENT 7 4 22 16
REMARK Flexibility Score: inf
ROOT
ATOM      1  C   UNL     1      99.482  82.923  80.030  1.00  0.00     0.100 C 
ENDROOT
BRANCH   1   2
ATOM      2  C   UNL     1      99.647  82.522  81.441  1.00  0.00     0.220 C 
ATOM      3  N   UNL     1      98.582  82.066  82.158  1.00  0.00    -0.352 N 
ATOM      4  H   UNL     1      97.704  82.054  81.658  1.00  0.00     0.163 HD
ATOM      5  O   UNL     1     100.793  82.592  81.946  1.00  0.00    -0.275 OA
BRANCH   3   6
ATOM      6  C   UNL     1      98.643  81.624  83.515  1.00  0.00     0.151 C 
BRANCH   6   7
ATOM      7  C   UNL     1      98.216  82.694  84.458  1.00  0.00    -0.025 A 
ATOM      8  C   UNL     1      98.486  83.874  86.602  1.00  0.00     0.160 A 
ATOM      9  C   UNL     1      97.429  84.741  86.259  1.00  0.00     0.157 A 
ATOM     10  C   UNL     1      98.868  82.858  85.701  1.00  0.00     0.056 A 
ATOM     11  C   UNL     1      96.757  84.578  85.031  1.00  0.00     0.050 A 
ATOM     12  C   UNL     1      97.153  83.568  84.133  1.00  0.00     0.009 A 
BRANCH   8  13
ATOM     13  O   UNL     1      99.100  83.987  87.824  1.00  0.00    -0.493 OA
ATOM     14  C   UNL     1     100.508  84.275  87.748  1.00  0.00     0.278 C 
ENDBRANCH   8  13
BRANCH   9  15
ATOM     15  O   UNL     1      97.045  85.738  87.098  1.00  0.00    -0.504 OA
ATOM     16  H   UNL     1      96.144  86.000  86.894  1.00  0.00     0.293 HD
ENDBRANCH   9  15
ENDBRANCH   6   7
ENDBRANCH   3   6
ENDBRANCH   1   2
BRANCH   1  17
ATOM     17  C   UNL     1      98.020  83.345  79.722  1.00  0.00     0.010 C 
BRANCH  17  18
ATOM     18  C   UNL     1      97.519  82.828  78.344  1.00  0.00     0.005 C 
BRANCH  18  19
ATOM     19  C   UNL     1      97.503  83.944  77.265  1.00  0.00     0.027 C 
BRANCH  19  20
ATOM     20  C   UNL     1      98.570  83.778  76.290  1.00  0.00    -0.031 C 
ATOM     21  C   UNL     1      99.878  83.932  76.567  1.00  0.00    -0.028 C 
BRANCH  21  22
ATOM     22  C   UNL     1     100.936  83.741  75.575  1.00  0.00     0.005 C 
ATOM     23  C   UNL     1     100.846  82.355  74.878  1.00  0.00     0.012 C 
ATOM     24  C   UNL     1     100.906  84.888  74.533  1.00  0.00     0.012 C 
ENDBRANCH  21  22
ENDBRANCH  19  20
ENDBRANCH  18  19
ENDBRANCH  17  18
ENDBRANCH   1  17
TORSDOF 10
ENDMDL
MODEL 6
REMARK VINA RESULT:    -5.877     15.737     18.349
REMARK INTER + INTRA:          -9.804
REMARK INTER:                  -9.227
REMARK INTRA:                  -0.577
REMARK UNBOUND:                -0.662
REMARK SMILES COc1cc(CNC(=O)CCCC/C=C/C(C)C)ccc1O
REMARK SMILES IDX 10 1 8 2 7 3 9 5 6 6 5 7 3 8 21 9 4 10 20 11 19 12 2 13 1 14
REMARK SMILES IDX 22 15 11 17 12 18 13 19 14 20 15 21 16 22 17 23 18 24
REMARK H PARENT 7 4 22 16
REMARK Flexibility Score: inf
ROOT
ATOM      1  C   UNL     1      96.954  83.330  84.444  1.00  0.00     0.100 C 
ENDROOT
BRANCH   1   2
ATOM      2  C   UNL     1      97.894  82.673  83.515  1.00  0.00     0.220 C 
ATOM      3  N   UNL     1      98.418  83.360  82.461  1.00  0.00    -0.352 N 
ATOM      4  H   UNL     1      98.094  84.313  82.370  1.00  0.00     0.163 HD
ATOM      5  O   UNL     1      98.211  81.480  83.738  1.00  0.00    -0.275 OA
BRANCH   3   6
ATOM      6  C   UNL     1      99.356  82.828  81.526  1.00  0.00     0.151 C 
BRANCH   6   7
ATOM      7  C   UNL     1      98.919  83.057  80.122  1.00  0.00    -0.025 A 
ATOM      8  C   UNL     1      99.418  83.062  77.711  1.00  0.00     0.160 A 
ATOM      9  C   UNL     1      98.096  83.471  77.437  1.00  0.00     0.157 A 
ATOM     10  C   UNL     1      99.817  82.861  79.049  1.00  0.00     0.056 A 
ATOM     11  C   UNL     1      97.195  83.689  78.498  1.00  0.00     0.050 A 
ATOM     12  C   UNL     1      97.599  83.475  79.830  1.00  0.00     0.009 A 
BRANCH   8  13
ATOM     13  O   UNL     1     100.317  82.912  76.686  1.00  0.00    -0.493 OA
ATOM     14  C   UNL     1     100.567  81.542  76.321  1.00  0.00     0.278 C 
ENDBRANCH   8  13
BRANCH   9  15
ATOM     15  O   UNL     1      97.676  83.660  76.160  1.00  0.00    -0.504 OA
ATOM     16  H   UNL     1      97.055  84.392  76.132  1.00  0.00     0.293 HD
ENDBRANCH   9  15
ENDBRANCH   6   7
ENDBRANCH   3   6
ENDBRANCH   1   2
BRANCH   1  17
ATOM     17  C   UNL     1      97.453  84.739  84.861  1.00  0.00     0.010 C 
BRANCH  17  18
ATOM     18  C   UNL     1      97.429  84.958  86.400  1.00  0.00     0.005 C 
BRANCH  18  19
ATOM     19  C   UNL     1      96.014  85.325  86.923  1.00  0.00     0.027 C 
BRANCH  19  20
ATOM     20  C   UNL     1      96.025  86.537  87.728  1.00  0.00    -0.031 C 
ATOM     21  C   UNL     1      95.242  86.738  88.804  1.00  0.00    -0.028 C 
BRANCH  21  22
ATOM     22  C   UNL     1      95.285  87.958  89.610  1.00  0.00     0.005 C 
ATOM     23  C   UNL     1      95.619  87.668  91.100  1.00  0.00     0.012 C 
ATOM     24  C   UNL     1      96.294  88.967  89.004  1.00  0.00     0.012 C 
ENDBRANCH  21  22
ENDBRANCH  19  20
ENDBRANCH  18  19
ENDBRANCH  17  18
ENDBRANCH   1  17
TORSDOF 10
ENDMDL
MODEL 7
REMARK VINA RESULT:    -5.813     21.335     24.575
REMARK INTER + INTRA:          -9.703
REMARK INTER:                  -8.698
REMARK INTRA:                  -1.005
REMARK UNBOUND:                -0.662
REMARK SMILES COc1cc(CNC(=O)CCCC/C=C/C(C)C)ccc1O
REMARK SMILES IDX 10 1 8 2 7 3 9 5 6 6 5 7 3 8 21 9 4 10 20 11 19 12 2 13 1 14
REMARK SMILES IDX 22 15 11 17 12 18 13 19 14 20 15 21 16 22 17 23 18 24
REMARK H PARENT 7 4 22 16
REMARK Flexibility Score: inf
ROOT
ATOM      1  C   UNL     1      71.777  82.104  66.282  1.00  0.00     0.100 C 
ENDROOT
BRANCH   1   2
ATOM      2  C   UNL     1      73.129  82.226  65.704  1.00  0.00     0.220 C 
ATOM      3  N   UNL     1      74.204  81.680  66.338  1.00  0.00    -0.352 N 
ATOM      4  H   UNL     1      73.996  81.225  67.217  1.00  0.00     0.163 HD
ATOM      5  O   UNL     1      73.253  82.823  64.607  1.00  0.00    -0.275 OA
BRANCH   3   6
ATOM      6  C   UNL     1      75.545  81.715  65.848  1.00  0.00     0.151 C 
BRANCH   6   7
ATOM      7  C   UNL     1      76.380  82.684  66.609  1.00  0.00    -0.025 A 
ATOM      8  C   UNL     1      76.787  84.002  68.648  1.00  0.00     0.160 A 
ATOM      9  C   UNL     1      77.972  84.515  68.081  1.00  0.00     0.157 A 
ATOM     10  C   UNL     1      76.002  83.094  67.907  1.00  0.00     0.056 A 
ATOM     11  C   UNL     1      78.351  84.131  66.780  1.00  0.00     0.050 A 
ATOM     12  C   UNL     1      77.567  83.214  66.052  1.00  0.00     0.009 A 
BRANCH   8  13
ATOM     13  O   UNL     1      76.379  84.423  69.888  1.00  0.00    -0.493 OA
ATOM     14  C   UNL     1      75.453  85.525  69.858  1.00  0.00     0.278 C 
ENDBRANCH   8  13
BRANCH   9  15
ATOM     15  O   UNL     1      78.756  85.381  68.773  1.00  0.00    -0.504 OA
ATOM     16  H   UNL     1      78.282  86.204  68.911  1.00  0.00     0.293 HD
ENDBRANCH   9  15
ENDBRANCH   6   7
ENDBRANCH   3   6
ENDBRANCH   1   2
BRANCH   1  17
ATOM     17  C   UNL     1      71.297  83.443  66.904  1.00  0.00     0.010 C 
BRANCH  17  18
ATOM     18  C   UNL     1      72.472  84.349  67.369  1.00  0.00     0.005 C 
BRANCH  18  19
ATOM     19  C   UNL     1      72.083  85.247  68.575  1.00  0.00     0.027 C 
BRANCH  19  20
ATOM     20  C   UNL     1      70.874  84.781  69.237  1.00  0.00    -0.031 C 
ATOM     21  C   UNL     1      70.844  84.259  70.476  1.00  0.00    -0.028 C 
BRANCH  21  22
ATOM     22  C   UNL     1      69.613  83.815  71.130  1.00  0.00     0.005 C 
ATOM     23  C   UNL     1      68.841  84.990  71.792  1.00  0.00     0.012 C 
ATOM     24  C   UNL     1      68.712  83.060  70.120  1.00  0.00     0.012 C 
ENDBRANCH  21  22
ENDBRANCH  19  20
ENDBRANCH  18  19
ENDBRANCH  17  18
ENDBRANCH   1  17
TORSDOF 10
ENDMDL
MODEL 8
REMARK VINA RESULT:    -5.784     21.298     24.874
REMARK INTER + INTRA:          -9.658
REMARK INTER:                  -9.001
REMARK INTRA:                  -0.657
REMARK UNBOUND:                -0.662
REMARK SMILES COc1cc(CNC(=O)CCCC/C=C/C(C)C)ccc1O
REMARK SMILES IDX 10 1 8 2 7 3 9 5 6 6 5 7 3 8 21 9 4 10 20 11 19 12 2 13 1 14
REMARK SMILES IDX 22 15 11 17 12 18 13 19 14 20 15 21 16 22 17 23 18 24
REMARK H PARENT 7 4 22 16
REMARK Flexibility Score: inf
ROOT
ATOM      1  C   UNL     1      77.630  83.736  66.384  1.00  0.00     0.100 C 
ENDROOT
BRANCH   1   2
ATOM      2  C   UNL     1      77.013  82.444  66.025  1.00  0.00     0.220 C 
ATOM      3  N   UNL     1      75.665  82.346  65.851  1.00  0.00    -0.352 N 
ATOM      4  H   UNL     1      75.151  83.202  66.010  1.00  0.00     0.163 HD
ATOM      5  O   UNL     1      77.766  81.453  65.863  1.00  0.00    -0.275 OA
BRANCH   3   6
ATOM      6  C   UNL     1      74.976  81.154  65.473  1.00  0.00     0.151 C 
BRANCH   6   7
ATOM      7  C   UNL     1      73.621  81.453  64.936  1.00  0.00    -0.025 A 
ATOM      8  C   UNL     1      71.369  82.400  65.248  1.00  0.00     0.160 A 
ATOM      9  C   UNL     1      71.037  82.048  63.923  1.00  0.00     0.157 A 
ATOM     10  C   UNL     1      72.655  82.097  65.742  1.00  0.00     0.056 A 
ATOM     11  C   UNL     1      71.983  81.387  63.114  1.00  0.00     0.050 A 
ATOM     12  C   UNL     1      73.268  81.100  63.612  1.00  0.00     0.009 A 
BRANCH   8  13
ATOM     13  O   UNL     1      70.431  82.984  66.060  1.00  0.00    -0.493 OA
ATOM     14  C   UNL     1      70.302  82.359  67.351  1.00  0.00     0.278 C 
ENDBRANCH   8  13
BRANCH   9  15
ATOM     15  O   UNL     1      69.812  82.336  63.412  1.00  0.00    -0.504 OA
ATOM     16  H   UNL     1      69.288  82.793  64.074  1.00  0.00     0.293 HD
ENDBRANCH   9  15
ENDBRANCH   6   7
ENDBRANCH   3   6
ENDBRANCH   1   2
BRANCH   1  17
ATOM     17  C   UNL     1      77.603  83.976  67.918  1.00  0.00     0.010 C 
BRANCH  17  18
ATOM     18  C   UNL     1      78.361  85.265  68.342  1.00  0.00     0.005 C 
BRANCH  18  19
ATOM     19  C   UNL     1      77.988  85.725  69.777  1.00  0.00     0.027 C 
BRANCH  19  20
ATOM     20  C   UNL     1      76.615  86.201  69.860  1.00  0.00    -0.031 C 
ATOM     21  C   UNL     1      76.265  87.500  69.889  1.00  0.00    -0.028 C 
BRANCH  21  22
ATOM     22  C   UNL     1      74.877  87.955  69.953  1.00  0.00     0.005 C 
ATOM     23  C   UNL     1      73.871  86.773  70.011  1.00  0.00     0.012 C 
ATOM     24  C   UNL     1      74.680  88.908  71.161  1.00  0.00     0.012 C 
ENDBRANCH  21  22
ENDBRANCH  19  20
ENDBRANCH  18  19
ENDBRANCH  17  18
ENDBRANCH   1  17
TORSDOF 10
ENDMDL
MODEL 9
REMARK VINA RESULT:    -5.678     28.648     31.284
REMARK INTER + INTRA:          -9.494
REMARK INTER:                  -8.371
REMARK INTRA:                  -1.123
REMARK UNBOUND:                -0.662
REMARK SMILES COc1cc(CNC(=O)CCCC/C=C/C(C)C)ccc1O
REMARK SMILES IDX 10 1 8 2 7 3 9 5 6 6 5 7 3 8 21 9 4 10 20 11 19 12 2 13 1 14
REMARK SMILES IDX 22 15 11 17 12 18 13 19 14 20 15 21 16 22 17 23 18 24
REMARK H PARENT 7 4 22 16
REMARK Flexibility Score: inf
ROOT
ATOM      1  C   UNL     1      68.017  83.587  70.774  1.00  0.00     0.100 C 
ENDROOT
BRANCH   1   2
ATOM      2  C   UNL     1      66.609  83.262  70.476  1.00  0.00     0.220 C 
ATOM      3  N   UNL     1      66.031  82.146  71.002  1.00  0.00    -0.352 N 
ATOM      4  H   UNL     1      66.643  81.576  71.570  1.00  0.00     0.163 HD
ATOM      5  O   UNL     1      65.960  84.052  69.748  1.00  0.00    -0.275 OA
BRANCH   3   6
ATOM      6  C   UNL     1      64.671  81.760  70.801  1.00  0.00     0.151 C 
BRANCH   6   7
ATOM      7  C   UNL     1      63.834  82.069  71.992  1.00  0.00    -0.025 A 
ATOM      8  C   UNL     1      62.151  83.483  73.103  1.00  0.00     0.160 A 
ATOM      9  C   UNL     1      62.216  82.661  74.248  1.00  0.00     0.157 A 
ATOM     10  C   UNL     1      62.961  83.181  71.988  1.00  0.00     0.056 A 
ATOM     11  C   UNL     1      63.095  81.561  74.273  1.00  0.00     0.050 A 
ATOM     12  C   UNL     1      63.891  81.260  73.151  1.00  0.00     0.009 A 
BRANCH   8  13
ATOM     13  O   UNL     1      61.345  84.593  73.098  1.00  0.00    -0.493 OA
ATOM     14  C   UNL     1      60.255  84.522  72.161  1.00  0.00     0.278 C 
ENDBRANCH   8  13
BRANCH   9  15
ATOM     15  O   UNL     1      61.440  82.916  75.332  1.00  0.00    -0.504 OA
ATOM     16  H   UNL     1      60.975  82.116  75.589  1.00  0.00     0.293 HD
ENDBRANCH   9  15
ENDBRANCH   6   7
ENDBRANCH   3   6
ENDBRANCH   1   2
BRANCH   1  17
ATOM     17  C   UNL     1      68.156  84.351  72.119  1.00  0.00     0.010 C 
BRANCH  17  18
ATOM     18  C   UNL     1      67.314  85.657  72.163  1.00  0.00     0.005 C 
BRANCH  18  19
ATOM     19  C   UNL     1      67.235  86.260  73.591  1.00  0.00     0.027 C 
BRANCH  19  20
ATOM     20  C   UNL     1      66.708  85.310  74.559  1.00  0.00    -0.031 C 
ATOM     21  C   UNL     1      67.117  85.228  75.838  1.00  0.00    -0.028 C 
BRANCH  21  22
ATOM     22  C   UNL     1      66.559  84.277  76.799  1.00  0.00     0.005 C 
ATOM     23  C   UNL     1      66.506  84.857  78.239  1.00  0.00     0.012 C 
ATOM     24  C   UNL     1      65.153  83.811  76.338  1.00  0.00     0.012 C 
ENDBRANCH  21  22
ENDBRANCH  19  20
ENDBRANCH  18  19
ENDBRANCH  17  18
ENDBRANCH   1  17
TORSDOF 10
ENDMDL
MODEL 10
REMARK VINA RESULT:    -5.573     28.837     31.070
REMARK INTER + INTRA:          -9.330
REMARK INTER:                  -8.357
REMARK INTRA:                  -0.973
REMARK UNBOUND:                -0.662
REMARK SMILES COc1cc(CNC(=O)CCCC/C=C/C(C)C)ccc1O
REMARK SMILES IDX 10 1 8 2 7 3 9 5 6 6 5 7 3 8 21 9 4 10 20 11 19 12 2 13 1 14
REMARK SMILES IDX 22 15 11 17 12 18 13 19 14 20 15 21 16 22 17 23 18 24
REMARK H PARENT 7 4 22 16
REMARK Flexibility Score: inf
ROOT
ATOM      1  C   UNL     1      60.860  84.832  74.269  1.00  0.00     0.100 C 
ENDROOT
BRANCH   1   2
ATOM      2  C   UNL     1      61.700  85.858  74.917  1.00  0.00     0.220 C 
ATOM      3  N   UNL     1      62.328  85.594  76.097  1.00  0.00    -0.352 N 
ATOM      4  H   UNL     1      62.148  84.675  76.479  1.00  0.00     0.163 HD
ATOM      5  O   UNL     1      61.836  86.963  74.339  1.00  0.00    -0.275 OA
BRANCH   3   6
ATOM      6  C   UNL     1      63.185  86.504  76.787  1.00  0.00     0.151 C 
BRANCH   6   7
ATOM      7  C   UNL     1      64.598  86.038  76.777  1.00  0.00    -0.025 A 
ATOM      8  C   UNL     1      66.486  84.940  77.915  1.00  0.00     0.160 A 
ATOM      9  C   UNL     1      67.286  85.125  76.768  1.00  0.00     0.157 A 
ATOM     10  C   UNL     1      65.152  85.399  77.909  1.00  0.00     0.056 A 
ATOM     11  C   UNL     1      66.753  85.778  75.639  1.00  0.00     0.050 A 
ATOM     12  C   UNL     1      65.417  86.223  75.638  1.00  0.00     0.009 A 
BRANCH   8  13
ATOM     13  O   UNL     1      67.019  84.364  79.040  1.00  0.00    -0.493 OA
ATOM     14  C   UNL     1      67.126  85.259  80.162  1.00  0.00     0.278 C 
ENDBRANCH   8  13
BRANCH   9  15
ATOM     15  O   UNL     1      68.569  84.683  76.736  1.00  0.00    -0.504 OA
ATOM     16  H   UNL     1      68.578  83.723  76.727  1.00  0.00     0.293 HD
ENDBRANCH   9  15
ENDBRANCH   6   7
ENDBRANCH   3   6
ENDBRANCH   1   2
BRANCH   1  17
ATOM     17  C   UNL     1      61.721  83.722  73.607  1.00  0.00     0.010 C 
BRANCH  17  18
ATOM     18  C   UNL     1      62.019  82.535  74.565  1.00  0.00     0.005 C 
BRANCH  18  19
ATOM     19  C   UNL     1      62.627  81.315  73.822  1.00  0.00     0.027 C 
BRANCH  19  20
ATOM     20  C   UNL     1      63.208  81.688  72.541  1.00  0.00    -0.031 C 
ATOM     21  C   UNL     1      64.435  81.318  72.130  1.00  0.00    -0.028 C 
BRANCH  21  22
ATOM     22  C   UNL     1      64.991  81.688  70.829  1.00  0.00     0.005 C 
ATOM     23  C   UNL     1      63.893  82.139  69.826  1.00  0.00     0.012 C 
ATOM     24  C   UNL     1      66.069  82.789  71.001  1.00  0.00     0.012 C 
ENDBRANCH  21  22
ENDBRANCH  19  20
ENDBRANCH  18  19
ENDBRANCH  17  18
ENDBRANCH   1  17
TORSDOF 10
ENDMDL
