MODEL 1
REMARK VINA RESULT:    -7.406      0.000      0.000
REMARK INTER + INTRA:         -13.160
REMARK INTER:                 -12.601
REMARK INTRA:                  -0.558
REMARK UNBOUND:                -0.558
REMARK SMILES C=C(C)[C@]12C[C@@H](C)[C@@]34O[C@](Cc5ccccc5)(O[C@@H]1[C@@H]3C=C(COC(=O)Cc1ccc(O)cc1)C[C@]1(O)C(=O)C(C)=C[C@@H]41)O2
REMARK SMILES IDX 23 1 22 2 21 3 20 4 9 5 8 6 10 7 6 8 18 10 44 11 19 12 5 13
REMARK SMILES IDX 7 14 4 15 11 16 12 17 13 18 17 19 14 20 16 21 15 22 2 23
REMARK SMILES IDX 3 24 1 25 35 26 36 27 43 28 38 29 42 30 39 32 40 33 41 34
REMARK SMILES IDX 37 35 24 37 25 38 26 39 27 40 28 41 29 42 34 43 30 44 33 45
REMARK SMILES IDX 31 46 32 47
REMARK H PARENT 37 36 32 48
REMARK Flexibility Score: 90.00
ROOT
ATOM      1  C   UNL     1      93.644  97.391  76.412  1.00  0.00     0.264 C 
ENDROOT
BRANCH   1   2
ATOM      2  C   UNL     1      94.704  98.041  75.553  1.00  0.00    -0.033 C 
ATOM      3  C   UNL     1      94.469  98.219  74.237  1.00  0.00    -0.015 C 
BRANCH   3   4
ATOM      4  C   UNL     1      95.387  98.770  73.158  1.00  0.00     0.078 C 
ATOM      5  O   UNL     1      94.948 101.199  73.008  1.00  0.00    -0.319 OA
ATOM      6  C   UNL     1      95.977 100.216  73.343  1.00  0.00     0.095 CG0
ATOM      7  C   UNL     1      94.171 100.900  71.833  1.00  0.00     0.289 C 
ATOM      8  C   UNL     1      97.194 100.370  72.341  1.00  0.00     0.023 C 
ATOM      9  G   UNL     1      96.304 100.493  74.840  1.00  0.00     0.000 G0
ATOM     10  O   UNL     1      93.527  99.634  71.947  1.00  0.00    -0.320 OA
ATOM     11  O   UNL     1      94.974 100.819  70.658  1.00  0.00    -0.313 OA
ATOM     12  C   UNL     1      94.658  98.762  71.792  1.00  0.00     0.170 C 
ATOM     13  C   UNL     1      96.960  99.562  71.028  1.00  0.00     0.049 C 
ATOM     14  C   UNL     1      97.580 101.817  71.987  1.00  0.00     0.011 C 
ATOM     15  C   UNL     1      95.474  99.466  70.680  1.00  0.00     0.122 C 
BRANCH   7  16
ATOM     16  C   UNL     1      93.132 101.990  71.660  1.00  0.00     0.135 C 
BRANCH  16  17
ATOM     17  C   UNL     1      91.819 101.447  71.152  1.00  0.00    -0.040 A 
ATOM     18  C   UNL     1      91.725 100.955  69.851  1.00  0.00     0.004 A 
ATOM     19  C   UNL     1      90.701 101.436  71.985  1.00  0.00     0.004 A 
ATOM     20  C   UNL     1      90.511 100.452  69.381  1.00  0.00     0.000 A 
ATOM     21  C   UNL     1      89.487 100.933  71.515  1.00  0.00     0.000 A 
ATOM     22  C   UNL     1      89.393 100.442  70.214  1.00  0.00     0.000 A 
ENDBRANCH  16  17
ENDBRANCH   7  16
BRANCH  15  23
ATOM     23  C   UNL     1      95.237  98.855  69.337  1.00  0.00    -0.046 C 
ATOM     24  C   UNL     1      95.603  97.408  69.195  1.00  0.00     0.042 C 
ATOM     25  C   UNL     1      94.727  99.561  68.317  1.00  0.00     0.010 C 
ENDBRANCH  15  23
ENDBRANCH   3   4
BRANCH   2  26
ATOM     26  C   UNL     1      95.947  98.429  76.333  1.00  0.00     0.078 C 
BRANCH  26  27
ATOM     27  C   UNL     1      96.978  99.299  75.616  1.00  0.00     0.140 C 
ATOM     28  C   UNL     1      96.325 100.474  74.859  1.00  0.00     0.086 CG0
ATOM     29  C   UNL     1      97.908 100.008  76.577  1.00  0.00     0.190 C 
ATOM     30  C   UNL     1      97.183 101.650  75.231  1.00  0.00    -0.010 C 
ATOM     31  G   UNL     1      95.985 100.220  73.361  1.00  0.00     0.000 G0
ATOM     32  O   UNL     1      98.501  99.481  77.507  1.00  0.00    -0.291 OA
ATOM     33  C   UNL     1      98.063 101.429  76.213  1.00  0.00    -0.008 C 
ATOM     34  C   UNL     1      98.995 102.359  76.882  1.00  0.00     0.048 C 
BRANCH  27  35
ATOM     35  O   UNL     1      97.849  98.516  74.816  1.00  0.00    -0.381 OA
ATOM     36  H   UNL     1      97.606  98.642  73.884  1.00  0.00     0.212 HD
ENDBRANCH  27  35
ENDBRANCH  26  27
ENDBRANCH   2  26
ENDBRANCH   1   2
BRANCH   1  37
ATOM     37  O   UNL     1      94.263  96.553  77.363  1.00  0.00    -0.461 OA
BRANCH  37  38
ATOM     38  C   UNL     1      93.552  95.439  77.746  1.00  0.00     0.310 C 
ATOM     39  O   UNL     1      94.044  94.401  78.167  1.00  0.00    -0.252 OA
BRANCH  38  40
ATOM     40  C   UNL     1      92.075  95.698  77.567  1.00  0.00     0.158 C 
BRANCH  40  41
ATOM     41  C   UNL     1      91.363  94.576  76.858  1.00  0.00    -0.037 A 
ATOM     42  C   UNL     1      90.525  93.720  77.572  1.00  0.00     0.008 A 
ATOM     43  C   UNL     1      91.543  94.392  75.487  1.00  0.00     0.008 A 
ATOM     44  C   UNL     1      89.866  92.680  76.915  1.00  0.00     0.046 A 
ATOM     45  C   UNL     1      90.884  93.352  74.830  1.00  0.00     0.046 A 
ATOM     46  C   UNL     1      90.046  92.496  75.544  1.00  0.00     0.115 A 
BRANCH  46  47
ATOM     47  O   UNL     1      89.404  91.482  74.904  1.00  0.00    -0.508 OA
ATOM     48  H   UNL     1      88.992  90.901  75.567  1.00  0.00     0.293 HD
ENDBRANCH  46  47
ENDBRANCH  40  41
ENDBRANCH  38  40
ENDBRANCH  37  38
ENDBRANCH   1  37
TORSDOF 10
ENDMDL
MODEL 2
REMARK VINA RESULT:    -6.790     15.647     20.841
REMARK INTER + INTRA:         -12.111
REMARK INTER:                 -12.287
REMARK INTRA:                   0.176
REMARK UNBOUND:                -0.558
REMARK SMILES C=C(C)[C@]12C[C@@H](C)[C@@]34O[C@](Cc5ccccc5)(O[C@@H]1[C@@H]3C=C(COC(=O)Cc1ccc(O)cc1)C[C@]1(O)C(=O)C(C)=C[C@@H]41)O2
REMARK SMILES IDX 23 1 22 2 21 3 20 4 9 5 8 6 10 7 6 8 18 10 44 11 19 12 5 13
REMARK SMILES IDX 7 14 4 15 11 16 12 17 13 18 17 19 14 20 16 21 15 22 2 23
REMARK SMILES IDX 3 24 1 25 35 26 36 27 43 28 38 29 42 30 39 32 40 33 41 34
REMARK SMILES IDX 37 35 24 37 25 38 26 39 27 40 28 41 29 42 34 43 30 44 33 45
REMARK SMILES IDX 31 46 32 47
REMARK H PARENT 37 36 32 48
REMARK Flexibility Score: 90.00
ROOT
ATOM      1  C   UNL     1      97.434  79.302  80.121  1.00  0.00     0.264 C 
ENDROOT
BRANCH   1   2
ATOM      2  C   UNL     1      97.857  79.977  81.405  1.00  0.00    -0.033 C 
ATOM      3  C   UNL     1      97.007  80.833  82.011  1.00  0.00    -0.015 C 
BRANCH   3   4
ATOM      4  C   UNL     1      97.218  81.685  83.252  1.00  0.00     0.078 C 
ATOM      5  O   UNL     1      96.422  80.359  85.181  1.00  0.00    -0.319 OA
ATOM      6  C   UNL     1      97.614  80.968  84.594  1.00  0.00     0.095 CG0
ATOM      7  C   UNL     1      95.232  81.170  85.139  1.00  0.00     0.289 C 
ATOM      8  C   UNL     1      98.176  82.073  85.580  1.00  0.00     0.023 C 
ATOM      9  G   UNL     1      98.568  79.769  84.320  1.00  0.00     0.000 G0
ATOM     10  O   UNL     1      94.905  81.541  83.802  1.00  0.00    -0.320 OA
ATOM     11  O   UNL     1      95.386  82.395  85.852  1.00  0.00    -0.313 OA
ATOM     12  C   UNL     1      95.938  82.506  83.549  1.00  0.00     0.170 C 
ATOM     13  C   UNL     1      97.466  83.445  85.368  1.00  0.00     0.049 C 
ATOM     14  C   UNL     1      98.141  81.707  87.074  1.00  0.00     0.011 C 
ATOM     15  C   UNL     1      96.022  83.267  84.895  1.00  0.00     0.122 C 
BRANCH   7  16
ATOM     16  C   UNL     1      94.093  80.374  85.744  1.00  0.00     0.135 C 
BRANCH  16  17
ATOM     17  C   UNL     1      92.804  80.562  84.983  1.00  0.00    -0.040 A 
ATOM     18  C   UNL     1      92.219  79.481  84.324  1.00  0.00     0.004 A 
ATOM     19  C   UNL     1      92.198  81.817  84.940  1.00  0.00     0.004 A 
ATOM     20  C   UNL     1      91.027  79.655  83.621  1.00  0.00     0.000 A 
ATOM     21  C   UNL     1      91.005  81.991  84.237  1.00  0.00     0.000 A 
ATOM     22  C   UNL     1      90.420  80.910  83.578  1.00  0.00     0.000 A 
ENDBRANCH  16  17
ENDBRANCH   7  16
BRANCH  15  23
ATOM     23  C   UNL     1      95.268  84.556  84.858  1.00  0.00    -0.046 C 
ATOM     24  C   UNL     1      95.914  85.680  84.104  1.00  0.00     0.042 C 
ATOM     25  C   UNL     1      94.081  84.700  85.465  1.00  0.00     0.010 C 
ENDBRANCH  15  23
ENDBRANCH   3   4
BRANCH   2  26
ATOM     26  C   UNL     1      99.245  79.571  81.863  1.00  0.00     0.078 C 
BRANCH  26  27
ATOM     27  C   UNL     1      99.675  80.008  83.262  1.00  0.00     0.140 C 
ATOM     28  C   UNL     1      98.567  79.779  84.311  1.00  0.00     0.086 CG0
ATOM     29  C   UNL     1     100.815  79.173  83.806  1.00  0.00     0.190 C 
ATOM     30  C   UNL     1      99.298  79.140  85.458  1.00  0.00    -0.010 C 
ATOM     31  G   UNL     1      97.622  80.985  84.584  1.00  0.00     0.000 G0
ATOM     32  O   UNL     1     101.845  78.906  83.206  1.00  0.00    -0.291 OA
ATOM     33  C   UNL     1     100.553  78.762  85.198  1.00  0.00    -0.008 C 
ATOM     34  C   UNL     1     101.526  78.043  86.046  1.00  0.00     0.048 C 
BRANCH  27  35
ATOM     35  O   UNL     1     100.194  81.327  83.256  1.00  0.00    -0.381 OA
ATOM     36  H   UNL     1     101.132  81.289  83.509  1.00  0.00     0.212 HD
ENDBRANCH  27  35
ENDBRANCH  26  27
ENDBRANCH   2  26
ENDBRANCH   1   2
BRANCH   1  37
ATOM     37  O   UNL     1      97.587  80.206  79.047  1.00  0.00    -0.461 OA
BRANCH  37  38
ATOM     38  C   UNL     1      98.350  79.768  77.988  1.00  0.00     0.310 C 
ATOM     39  O   UNL     1      98.319  78.638  77.521  1.00  0.00    -0.252 OA
BRANCH  38  40
ATOM     40  C   UNL     1      99.225  80.896  77.498  1.00  0.00     0.158 C 
BRANCH  40  41
ATOM     41  C   UNL     1      98.437  82.098  77.046  1.00  0.00    -0.037 A 
ATOM     42  C   UNL     1      98.748  82.722  75.837  1.00  0.00     0.008 A 
ATOM     43  C   UNL     1      97.396  82.587  77.834  1.00  0.00     0.008 A 
ATOM     44  C   UNL     1      98.019  83.836  75.419  1.00  0.00     0.046 A 
ATOM     45  C   UNL     1      96.667  83.700  77.416  1.00  0.00     0.046 A 
ATOM     46  C   UNL     1      96.978  84.325  76.209  1.00  0.00     0.115 A 
BRANCH  46  47
ATOM     47  O   UNL     1      96.267  85.411  75.801  1.00  0.00    -0.508 OA
ATOM     48  H   UNL     1      95.323  85.177  75.771  1.00  0.00     0.293 HD
ENDBRANCH  46  47
ENDBRANCH  40  41
ENDBRANCH  38  40
ENDBRANCH  37  38
ENDBRANCH   1  37
TORSDOF 10
ENDMDL
MODEL 3
REMARK VINA RESULT:    -6.674     15.256     20.452
REMARK INTER + INTRA:         -11.915
REMARK INTER:                 -12.152
REMARK INTRA:                   0.237
REMARK UNBOUND:                -0.558
REMARK SMILES C=C(C)[C@]12C[C@@H](C)[C@@]34O[C@](Cc5ccccc5)(O[C@@H]1[C@@H]3C=C(COC(=O)Cc1ccc(O)cc1)C[C@]1(O)C(=O)C(C)=C[C@@H]41)O2
REMARK SMILES IDX 23 1 22 2 21 3 20 4 9 5 8 6 10 7 6 8 18 10 44 11 19 12 5 13
REMARK SMILES IDX 7 14 4 15 11 16 12 17 13 18 17 19 14 20 16 21 15 22 2 23
REMARK SMILES IDX 3 24 1 25 35 26 36 27 43 28 38 29 42 30 39 32 40 33 41 34
REMARK SMILES IDX 37 35 24 37 25 38 26 39 27 40 28 41 29 42 34 43 30 44 33 45
REMARK SMILES IDX 31 46 32 47
REMARK H PARENT 37 36 32 48
REMARK Flexibility Score: 90.00
ROOT
ATOM      1  C   UNL     1      96.634  83.240  78.926  1.00  0.00     0.264 C 
ENDROOT
BRANCH   1   2
ATOM      2  C   UNL     1      97.455  82.453  79.922  1.00  0.00    -0.033 C 
ATOM      3  C   UNL     1      97.205  82.595  81.240  1.00  0.00    -0.015 C 
BRANCH   3   4
ATOM      4  C   UNL     1      97.927  81.984  82.430  1.00  0.00     0.078 C 
ATOM      5  O   UNL     1      96.755  79.877  82.981  1.00  0.00    -0.319 OA
ATOM      6  C   UNL     1      98.032  80.417  82.519  1.00  0.00     0.095 CG0
ATOM      7  C   UNL     1      96.134  80.605  84.059  1.00  0.00     0.289 C 
ATOM      8  C   UNL     1      99.161  80.071  83.575  1.00  0.00     0.023 C 
ATOM      9  G   UNL     1      98.227  79.795  81.105  1.00  0.00     0.000 G0
ATOM     10  O   UNL     1      95.915  81.967  83.705  1.00  0.00    -0.320 OA
ATOM     11  O   UNL     1      96.946  80.637  85.230  1.00  0.00    -0.313 OA
ATOM     12  C   UNL     1      97.265  82.458  83.747  1.00  0.00     0.170 C 
ATOM     13  C   UNL     1      99.217  81.129  84.720  1.00  0.00     0.049 C 
ATOM     14  C   UNL     1      99.084  78.662  84.188  1.00  0.00     0.011 C 
ATOM     15  C   UNL     1      97.842  81.742  84.992  1.00  0.00     0.122 C 
BRANCH   7  16
ATOM     16  C   UNL     1      94.811  79.939  84.379  1.00  0.00     0.135 C 
BRANCH  16  17
ATOM     17  C   UNL     1      93.736  80.945  84.712  1.00  0.00    -0.040 A 
ATOM     18  C   UNL     1      92.560  80.981  83.965  1.00  0.00     0.004 A 
ATOM     19  C   UNL     1      93.922  81.838  85.767  1.00  0.00     0.004 A 
ATOM     20  C   UNL     1      91.566  81.911  84.273  1.00  0.00     0.000 A 
ATOM     21  C   UNL     1      92.928  82.768  86.074  1.00  0.00     0.000 A 
ATOM     22  C   UNL     1      91.751  82.804  85.327  1.00  0.00     0.000 A 
ENDBRANCH  16  17
ENDBRANCH   7  16
BRANCH  15  23
ATOM     23  C   UNL     1      97.835  82.621  86.200  1.00  0.00    -0.046 C 
ATOM     24  C   UNL     1      96.660  82.472  87.120  1.00  0.00     0.042 C 
ATOM     25  C   UNL     1      98.822  83.494  86.447  1.00  0.00     0.010 C 
ENDBRANCH  15  23
ENDBRANCH   3   4
BRANCH   2  26
ATOM     26  C   UNL     1      98.493  81.562  79.266  1.00  0.00     0.078 C 
BRANCH  26  27
ATOM     27  C   UNL     1      99.209  80.551  80.159  1.00  0.00     0.140 C 
ATOM     28  C   UNL     1      98.236  79.812  81.101  1.00  0.00     0.086 CG0
ATOM     29  C   UNL     1      99.825  79.415  79.370  1.00  0.00     0.190 C 
ATOM     30  C   UNL     1      98.652  78.373  80.974  1.00  0.00    -0.010 C 
ATOM     31  G   UNL     1      98.048  80.431  82.516  1.00  0.00     0.000 G0
ATOM     32  O   UNL     1     100.525  79.540  78.377  1.00  0.00    -0.291 OA
ATOM     33  C   UNL     1      99.522  78.112  79.993  1.00  0.00    -0.008 C 
ATOM     34  C   UNL     1     100.078  76.824  79.532  1.00  0.00     0.048 C 
BRANCH  27  35
ATOM     35  O   UNL     1     100.314  81.139  80.825  1.00  0.00    -0.381 OA
ATOM     36  H   UNL     1     100.853  81.611  80.167  1.00  0.00     0.212 HD
ENDBRANCH  27  35
ENDBRANCH  26  27
ENDBRANCH   2  26
ENDBRANCH   1   2
BRANCH   1  37
ATOM     37  O   UNL     1      97.499  83.951  78.067  1.00  0.00    -0.461 OA
BRANCH  37  38
ATOM     38  C   UNL     1      97.101  84.056  76.754  1.00  0.00     0.310 C 
ATOM     39  O   UNL     1      96.312  84.885  76.323  1.00  0.00    -0.252 OA
BRANCH  38  40
ATOM     40  C   UNL     1      97.788  82.991  75.933  1.00  0.00     0.158 C 
BRANCH  40  41
ATOM     41  C   UNL     1      98.466  83.542  74.706  1.00  0.00    -0.037 A 
ATOM     42  C   UNL     1      98.959  84.847  74.707  1.00  0.00     0.008 A 
ATOM     43  C   UNL     1      98.601  82.748  73.567  1.00  0.00     0.008 A 
ATOM     44  C   UNL     1      99.586  85.358  73.570  1.00  0.00     0.046 A 
ATOM     45  C   UNL     1      99.229  83.258  72.430  1.00  0.00     0.046 A 
ATOM     46  C   UNL     1      99.721  84.563  72.432  1.00  0.00     0.115 A 
BRANCH  46  47
ATOM     47  O   UNL     1     100.332  85.061  71.323  1.00  0.00    -0.508 OA
ATOM     48  H   UNL     1     101.295  85.052  71.462  1.00  0.00     0.293 HD
ENDBRANCH  46  47
ENDBRANCH  40  41
ENDBRANCH  38  40
ENDBRANCH  37  38
ENDBRANCH   1  37
TORSDOF 10
ENDMDL
MODEL 4
REMARK VINA RESULT:    -6.661     21.921     26.063
REMARK INTER + INTRA:         -11.893
REMARK INTER:                 -11.320
REMARK INTRA:                  -0.572
REMARK UNBOUND:                -0.558
REMARK SMILES C=C(C)[C@]12C[C@@H](C)[C@@]34O[C@](Cc5ccccc5)(O[C@@H]1[C@@H]3C=C(COC(=O)Cc1ccc(O)cc1)C[C@]1(O)C(=O)C(C)=C[C@@H]41)O2
REMARK SMILES IDX 23 1 22 2 21 3 20 4 9 5 8 6 10 7 6 8 18 10 44 11 19 12 5 13
REMARK SMILES IDX 7 14 4 15 11 16 12 17 13 18 17 19 14 20 16 21 15 22 2 23
REMARK SMILES IDX 3 24 1 25 35 26 36 27 43 28 38 29 42 30 39 32 40 33 41 34
REMARK SMILES IDX 37 35 24 37 25 38 26 39 27 40 28 41 29 42 34 43 30 44 33 45
REMARK SMILES IDX 31 46 32 47
REMARK H PARENT 37 36 32 48
REMARK Flexibility Score: 90.00
ROOT
ATOM      1  C   UNL     1      69.930  88.421  69.613  1.00  0.00     0.264 C 
ENDROOT
BRANCH   1   2
ATOM      2  C   UNL     1      71.394  88.673  69.334  1.00  0.00    -0.033 C 
ATOM      3  C   UNL     1      72.186  87.638  68.986  1.00  0.00    -0.015 C 
BRANCH   3   4
ATOM      4  C   UNL     1      73.685  87.613  68.731  1.00  0.00     0.078 C 
ATOM      5  O   UNL     1      74.009  87.959  66.304  1.00  0.00    -0.319 OA
ATOM      6  C   UNL     1      74.270  88.553  67.614  1.00  0.00     0.095 CG0
ATOM      7  C   UNL     1      74.231  86.538  66.218  1.00  0.00     0.289 C 
ATOM      8  C   UNL     1      75.835  88.652  67.842  1.00  0.00     0.023 C 
ATOM      9  G   UNL     1      73.512  89.912  67.581  1.00  0.00     0.000 G0
ATOM     10  O   UNL     1      73.439  85.832  67.169  1.00  0.00    -0.320 OA
ATOM     11  O   UNL     1      75.582  86.181  66.501  1.00  0.00    -0.313 OA
ATOM     12  C   UNL     1      74.134  86.174  68.378  1.00  0.00     0.170 C 
ATOM     13  C   UNL     1      76.415  87.324  68.416  1.00  0.00     0.049 C 
ATOM     14  C   UNL     1      76.656  89.078  66.613  1.00  0.00     0.011 C 
ATOM     15  C   UNL     1      75.618  86.107  67.942  1.00  0.00     0.122 C 
BRANCH   7  16
ATOM     16  C   UNL     1      73.873  86.086  64.816  1.00  0.00     0.135 C 
BRANCH  16  17
ATOM     17  C   UNL     1      73.144  84.765  64.815  1.00  0.00    -0.040 A 
ATOM     18  C   UNL     1      73.864  83.571  64.820  1.00  0.00     0.004 A 
ATOM     19  C   UNL     1      71.750  84.740  64.811  1.00  0.00     0.004 A 
ATOM     20  C   UNL     1      73.189  82.349  64.820  1.00  0.00     0.000 A 
ATOM     21  C   UNL     1      71.075  83.518  64.811  1.00  0.00     0.000 A 
ATOM     22  C   UNL     1      71.795  82.324  64.815  1.00  0.00     0.000 A 
ENDBRANCH  16  17
ENDBRANCH   7  16
BRANCH  15  23
ATOM     23  C   UNL     1      76.260  84.815  68.329  1.00  0.00    -0.046 C 
ATOM     24  C   UNL     1      77.118  84.163  67.286  1.00  0.00     0.042 C 
ATOM     25  C   UNL     1      76.079  84.268  69.541  1.00  0.00     0.010 C 
ENDBRANCH  15  23
ENDBRANCH   3   4
BRANCH   2  26
ATOM     26  C   UNL     1      71.786  90.130  69.486  1.00  0.00     0.078 C 
BRANCH  26  27
ATOM     27  C   UNL     1      73.169  90.537  68.980  1.00  0.00     0.140 C 
ATOM     28  C   UNL     1      73.496  89.909  67.609  1.00  0.00     0.086 CG0
ATOM     29  C   UNL     1      73.267  92.020  68.689  1.00  0.00     0.190 C 
ATOM     30  C   UNL     1      74.055  91.061  66.821  1.00  0.00    -0.010 C 
ATOM     31  G   UNL     1      74.270  88.559  67.641  1.00  0.00     0.000 G0
ATOM     32  O   UNL     1      72.908  92.914  69.441  1.00  0.00    -0.291 OA
ATOM     33  C   UNL     1      73.916  92.263  67.387  1.00  0.00    -0.008 C 
ATOM     34  C   UNL     1      74.266  93.603  66.873  1.00  0.00     0.048 C 
BRANCH  27  35
ATOM     35  O   UNL     1      74.167  90.318  69.963  1.00  0.00    -0.381 OA
ATOM     36  H   UNL     1      75.026  90.238  69.515  1.00  0.00     0.212 HD
ENDBRANCH  27  35
ENDBRANCH  26  27
ENDBRANCH   2  26
ENDBRANCH   1   2
BRANCH   1  37
ATOM     37  O   UNL     1      69.760  87.088  70.046  1.00  0.00    -0.461 OA
BRANCH  37  38
ATOM     38  C   UNL     1      68.617  86.452  69.622  1.00  0.00     0.310 C 
ATOM     39  O   UNL     1      67.828  86.898  68.800  1.00  0.00    -0.252 OA
BRANCH  38  40
ATOM     40  C   UNL     1      68.489  85.122  70.325  1.00  0.00     0.158 C 
BRANCH  40  41
ATOM     41  C   UNL     1      67.183  84.428  70.039  1.00  0.00    -0.037 A 
ATOM     42  C   UNL     1      67.134  83.391  69.107  1.00  0.00     0.008 A 
ATOM     43  C   UNL     1      66.022  84.823  70.703  1.00  0.00     0.008 A 
ATOM     44  C   UNL     1      65.924  82.749  68.841  1.00  0.00     0.046 A 
ATOM     45  C   UNL     1      64.812  84.181  70.438  1.00  0.00     0.046 A 
ATOM     46  C   UNL     1      64.763  83.144  69.507  1.00  0.00     0.115 A 
BRANCH  46  47
ATOM     47  O   UNL     1      63.583  82.518  69.246  1.00  0.00    -0.508 OA
ATOM     48  H   UNL     1      62.858  83.160  69.342  1.00  0.00     0.293 HD
ENDBRANCH  46  47
ENDBRANCH  40  41
ENDBRANCH  38  40
ENDBRANCH  37  38
ENDBRANCH   1  37
TORSDOF 10
ENDMDL
MODEL 5
REMARK VINA RESULT:    -6.376     18.518     22.868
REMARK INTER + INTRA:         -11.407
REMARK INTER:                 -10.296
REMARK INTRA:                  -1.111
REMARK UNBOUND:                -0.558
REMARK SMILES C=C(C)[C@]12C[C@@H](C)[C@@]34O[C@](Cc5ccccc5)(O[C@@H]1[C@@H]3C=C(COC(=O)Cc1ccc(O)cc1)C[C@]1(O)C(=O)C(C)=C[C@@H]41)O2
REMARK SMILES IDX 23 1 22 2 21 3 20 4 9 5 8 6 10 7 6 8 18 10 44 11 19 12 5 13
REMARK SMILES IDX 7 14 4 15 11 16 12 17 13 18 17 19 14 20 16 21 15 22 2 23
REMARK SMILES IDX 3 24 1 25 35 26 36 27 43 28 38 29 42 30 39 32 40 33 41 34
REMARK SMILES IDX 37 35 24 37 25 38 26 39 27 40 28 41 29 42 34 43 30 44 33 45
REMARK SMILES IDX 31 46 32 47
REMARK H PARENT 37 36 32 48
REMARK Flexibility Score: 90.00
ROOT
ATOM      1  C   UNL     1      95.988  76.135  86.381  1.00  0.00     0.264 C 
ENDROOT
BRANCH   1   2
ATOM      2  C   UNL     1      96.803  77.404  86.273  1.00  0.00    -0.033 C 
ATOM      3  C   UNL     1      96.483  78.314  85.330  1.00  0.00    -0.015 C 
BRANCH   3   4
ATOM      4  C   UNL     1      97.180  79.616  84.969  1.00  0.00     0.078 C 
ATOM      5  O   UNL     1      96.068  81.410  86.258  1.00  0.00    -0.319 OA
ATOM      6  C   UNL     1      97.341  80.713  86.085  1.00  0.00     0.095 CG0
ATOM      7  C   UNL     1      95.377  81.740  85.038  1.00  0.00     0.289 C 
ATOM      8  C   UNL     1      98.438  81.742  85.590  1.00  0.00     0.023 C 
ATOM      9  G   UNL     1      97.615  80.057  87.469  1.00  0.00     0.000 G0
ATOM     10  O   UNL     1      95.120  80.577  84.256  1.00  0.00    -0.320 OA
ATOM     11  O   UNL     1      96.139  82.607  84.201  1.00  0.00    -0.313 OA
ATOM     12  C   UNL     1      96.447  80.294  83.785  1.00  0.00     0.170 C 
ATOM     13  C   UNL     1      98.408  81.910  84.040  1.00  0.00     0.049 C 
ATOM     14  C   UNL     1      98.391  83.129  86.253  1.00  0.00     0.011 C 
ATOM     15  C   UNL     1      97.002  81.706  83.476  1.00  0.00     0.122 C 
BRANCH   7  16
ATOM     16  C   UNL     1      94.068  82.413  85.401  1.00  0.00     0.135 C 
BRANCH  16  17
ATOM     17  C   UNL     1      93.567  81.982  86.757  1.00  0.00    -0.040 A 
ATOM     18  C   UNL     1      93.740  82.815  87.862  1.00  0.00     0.004 A 
ATOM     19  C   UNL     1      92.931  80.750  86.905  1.00  0.00     0.004 A 
ATOM     20  C   UNL     1      93.276  82.416  89.116  1.00  0.00     0.000 A 
ATOM     21  C   UNL     1      92.467  80.351  88.159  1.00  0.00     0.000 A 
ATOM     22  C   UNL     1      92.640  81.184  89.264  1.00  0.00     0.000 A 
ENDBRANCH  16  17
ENDBRANCH   7  16
BRANCH  15  23
ATOM     23  C   UNL     1      96.913  82.038  82.022  1.00  0.00    -0.046 C 
ATOM     24  C   UNL     1      97.098  80.894  81.069  1.00  0.00     0.042 C 
ATOM     25  C   UNL     1      96.681  83.287  81.592  1.00  0.00     0.010 C 
ENDBRANCH  15  23
ENDBRANCH   3   4
BRANCH   2  26
ATOM     26  C   UNL     1      97.919  77.485  87.298  1.00  0.00     0.078 C 
BRANCH  26  27
ATOM     27  C   UNL     1      98.607  78.836  87.474  1.00  0.00     0.140 C 
ATOM     28  C   UNL     1      97.605  80.009  87.458  1.00  0.00     0.086 CG0
ATOM     29  C   UNL     1      99.257  78.983  88.834  1.00  0.00     0.190 C 
ATOM     30  C   UNL     1      98.033  80.852  88.627  1.00  0.00    -0.010 C 
ATOM     31  G   UNL     1      97.363  80.685  86.077  1.00  0.00     0.000 G0
ATOM     32  O   UNL     1      99.992  78.161  89.360  1.00  0.00    -0.291 OA
ATOM     33  C   UNL     1      98.939  80.292  89.435  1.00  0.00    -0.008 C 
ATOM     34  C   UNL     1      99.518  80.786  90.701  1.00  0.00     0.048 C 
BRANCH  27  35
ATOM     35  O   UNL     1      99.685  78.992  86.565  1.00  0.00    -0.381 OA
ATOM     36  H   UNL     1     100.331  79.603  86.958  1.00  0.00     0.212 HD
ENDBRANCH  27  35
ENDBRANCH  26  27
ENDBRANCH   2  26
ENDBRANCH   1   2
BRANCH   1  37
ATOM     37  O   UNL     1      94.850  76.239  85.553  1.00  0.00    -0.461 OA
BRANCH  37  38
ATOM     38  C   UNL     1      94.361  75.059  85.042  1.00  0.00     0.310 C 
ATOM     39  O   UNL     1      94.498  73.959  85.559  1.00  0.00    -0.252 OA
BRANCH  38  40
ATOM     40  C   UNL     1      93.631  75.334  83.749  1.00  0.00     0.158 C 
BRANCH  40  41
ATOM     41  C   UNL     1      92.307  76.023  83.957  1.00  0.00    -0.037 A 
ATOM     42  C   UNL     1      92.241  77.416  83.974  1.00  0.00     0.008 A 
ATOM     43  C   UNL     1      91.147  75.269  84.133  1.00  0.00     0.008 A 
ATOM     44  C   UNL     1      91.015  78.055  84.168  1.00  0.00     0.046 A 
ATOM     45  C   UNL     1      89.921  75.906  84.325  1.00  0.00     0.046 A 
ATOM     46  C   UNL     1      89.856  77.299  84.343  1.00  0.00     0.115 A 
BRANCH  46  47
ATOM     47  O   UNL     1      88.660  77.922  84.532  1.00  0.00    -0.508 OA
ATOM     48  H   UNL     1      88.815  78.877  84.631  1.00  0.00     0.293 HD
ENDBRANCH  46  47
ENDBRANCH  40  41
ENDBRANCH  38  40
ENDBRANCH  37  38
ENDBRANCH   1  37
TORSDOF 10
ENDMDL
MODEL 6
REMARK VINA RESULT:    -6.136     19.320     21.846
REMARK INTER + INTRA:         -10.999
REMARK INTER:                 -10.686
REMARK INTRA:                  -0.313
REMARK UNBOUND:                -0.558
REMARK SMILES C=C(C)[C@]12C[C@@H](C)[C@@]34O[C@](Cc5ccccc5)(O[C@@H]1[C@@H]3C=C(COC(=O)Cc1ccc(O)cc1)C[C@]1(O)C(=O)C(C)=C[C@@H]41)O2
REMARK SMILES IDX 23 1 22 2 21 3 20 4 9 5 8 6 10 7 6 8 18 10 44 11 19 12 5 13
REMARK SMILES IDX 7 14 4 15 11 16 12 17 13 18 17 19 14 20 16 21 15 22 2 23
REMARK SMILES IDX 3 24 1 25 35 26 36 27 43 28 38 29 42 30 39 32 40 33 41 34
REMARK SMILES IDX 37 35 24 37 25 38 26 39 27 40 28 41 29 42 34 43 30 44 33 45
REMARK SMILES IDX 31 46 32 47
REMARK H PARENT 37 36 32 48
REMARK Flexibility Score: 90.00
ROOT
ATOM      1  C   UNL     1      97.042  81.963  81.500  1.00  0.00     0.264 C 
ENDROOT
BRANCH   1   2
ATOM      2  C   UNL     1      97.309  81.894  82.986  1.00  0.00    -0.033 C 
ATOM      3  C   UNL     1      96.340  82.268  83.848  1.00  0.00    -0.015 C 
BRANCH   3   4
ATOM      4  C   UNL     1      96.381  82.363  85.365  1.00  0.00     0.078 C 
ATOM      5  O   UNL     1      95.579  80.195  86.245  1.00  0.00    -0.319 OA
ATOM      6  C   UNL     1      96.747  81.072  86.186  1.00  0.00     0.095 CG0
ATOM      7  C   UNL     1      94.324  80.858  86.494  1.00  0.00     0.289 C 
ATOM      8  C   UNL     1      97.132  81.530  87.653  1.00  0.00     0.023 C 
ATOM      9  G   UNL     1      97.826  80.231  85.443  1.00  0.00     0.000 G0
ATOM     10  O   UNL     1      94.059  81.852  85.508  1.00  0.00    -0.320 OA
ATOM     11  O   UNL     1      94.312  81.543  87.745  1.00  0.00    -0.313 OA
ATOM     12  C   UNL     1      95.013  82.853  85.898  1.00  0.00     0.170 C 
ATOM     13  C   UNL     1      96.313  82.781  88.095  1.00  0.00     0.049 C 
ATOM     14  C   UNL     1      97.026  80.442  88.735  1.00  0.00     0.011 C 
ATOM     15  C   UNL     1      94.930  82.811  87.444  1.00  0.00     0.122 C 
BRANCH   7  16
ATOM     16  C   UNL     1      93.225  79.815  86.479  1.00  0.00     0.135 C 
BRANCH  16  17
ATOM     17  C   UNL     1      92.135  80.154  85.493  1.00  0.00    -0.040 A 
ATOM     18  C   UNL     1      91.451  81.364  85.598  1.00  0.00     0.004 A 
ATOM     19  C   UNL     1      91.813  79.256  84.476  1.00  0.00     0.004 A 
ATOM     20  C   UNL     1      90.444  81.678  84.685  1.00  0.00     0.000 A 
ATOM     21  C   UNL     1      90.805  79.570  83.563  1.00  0.00     0.000 A 
ATOM     22  C   UNL     1      90.121  80.780  83.668  1.00  0.00     0.000 A 
ENDBRANCH  16  17
ENDBRANCH   7  16
BRANCH  15  23
ATOM     23  C   UNL     1      94.062  83.898  87.989  1.00  0.00    -0.046 C 
ATOM     24  C   UNL     1      93.089  84.513  87.028  1.00  0.00     0.042 C 
ATOM     25  C   UNL     1      94.148  84.301  89.266  1.00  0.00     0.010 C 
ENDBRANCH  15  23
ENDBRANCH   3   4
BRANCH   2  26
ATOM     26  C   UNL     1      98.697  81.381  83.319  1.00  0.00     0.078 C 
BRANCH  26  27
ATOM     27  C   UNL     1      98.985  81.046  84.781  1.00  0.00     0.140 C 
ATOM     28  C   UNL     1      97.846  80.232  85.429  1.00  0.00     0.086 CG0
ATOM     29  C   UNL     1     100.175  80.123  84.941  1.00  0.00     0.190 C 
ATOM     30  C   UNL     1      98.570  79.134  86.157  1.00  0.00    -0.010 C 
ATOM     31  G   UNL     1      96.756  81.055  86.177  1.00  0.00     0.000 G0
ATOM     32  O   UNL     1     101.265  80.275  84.410  1.00  0.00    -0.291 OA
ATOM     33  C   UNL     1      99.873  79.028  85.882  1.00  0.00    -0.008 C 
ATOM     34  C   UNL     1     100.864  78.033  86.341  1.00  0.00     0.048 C 
BRANCH  27  35
ATOM     35  O   UNL     1      99.353  82.202  85.516  1.00  0.00    -0.381 OA
ATOM     36  H   UNL     1     100.249  82.464  85.246  1.00  0.00     0.212 HD
ENDBRANCH  27  35
ENDBRANCH  26  27
ENDBRANCH   2  26
ENDBRANCH   1   2
BRANCH   1  37
ATOM     37  O   UNL     1      97.003  80.654  80.972  1.00  0.00    -0.461 OA
BRANCH  37  38
ATOM     38  C   UNL     1      97.984  80.338  80.060  1.00  0.00     0.310 C 
ATOM     39  O   UNL     1      98.232  79.210  79.659  1.00  0.00    -0.252 OA
BRANCH  38  40
ATOM     40  C   UNL     1      98.702  81.596  79.636  1.00  0.00     0.158 C 
BRANCH  40  41
ATOM     41  C   UNL     1     100.170  81.378  79.382  1.00  0.00    -0.037 A 
ATOM     42  C   UNL     1     101.048  81.223  80.455  1.00  0.00     0.008 A 
ATOM     43  C   UNL     1     100.654  81.331  78.075  1.00  0.00     0.008 A 
ATOM     44  C   UNL     1     102.409  81.022  80.220  1.00  0.00     0.046 A 
ATOM     45  C   UNL     1     102.014  81.129  77.839  1.00  0.00     0.046 A 
ATOM     46  C   UNL     1     102.891  80.975  78.912  1.00  0.00     0.115 A 
BRANCH  46  47
ATOM     47  O   UNL     1     104.218  80.779  78.683  1.00  0.00    -0.508 OA
ATOM     48  H   UNL     1     104.334  80.407  77.791  1.00  0.00     0.293 HD
ENDBRANCH  46  47
ENDBRANCH  40  41
ENDBRANCH  38  40
ENDBRANCH  37  38
ENDBRANCH   1  37
TORSDOF 10
ENDMDL
MODEL 7
REMARK VINA RESULT:    -6.076     35.968     41.766
REMARK INTER + INTRA:         -10.897
REMARK INTER:                  -9.392
REMARK INTRA:                  -1.505
REMARK UNBOUND:                -0.558
REMARK SMILES C=C(C)[C@]12C[C@@H](C)[C@@]34O[C@](Cc5ccccc5)(O[C@@H]1[C@@H]3C=C(COC(=O)Cc1ccc(O)cc1)C[C@]1(O)C(=O)C(C)=C[C@@H]41)O2
REMARK SMILES IDX 23 1 22 2 21 3 20 4 9 5 8 6 10 7 6 8 18 10 44 11 19 12 5 13
REMARK SMILES IDX 7 14 4 15 11 16 12 17 13 18 17 19 14 20 16 21 15 22 2 23
REMARK SMILES IDX 3 24 1 25 35 26 36 27 43 28 38 29 42 30 39 32 40 33 41 34
REMARK SMILES IDX 37 35 24 37 25 38 26 39 27 40 28 41 29 42 34 43 30 44 33 45
REMARK SMILES IDX 31 46 32 47
REMARK H PARENT 37 36 32 48
REMARK Flexibility Score: 90.00
ROOT
ATOM      1  C   UNL     1      57.627  85.006  86.935  1.00  0.00     0.264 C 
ENDROOT
BRANCH   1   2
ATOM      2  C   UNL     1      57.253  83.561  87.171  1.00  0.00    -0.033 C 
ATOM      3  C   UNL     1      57.721  82.613  86.332  1.00  0.00    -0.015 C 
BRANCH   3   4
ATOM      4  C   UNL     1      57.435  81.120  86.306  1.00  0.00     0.078 C 
ATOM      5  O   UNL     1      59.221  80.021  87.617  1.00  0.00    -0.319 OA
ATOM      6  C   UNL     1      57.781  80.270  87.583  1.00  0.00     0.095 CG0
ATOM      7  C   UNL     1      59.814  79.669  86.352  1.00  0.00     0.289 C 
ATOM      8  C   UNL     1      57.015  78.889  87.462  1.00  0.00     0.023 C 
ATOM      9  G   UNL     1      57.498  81.080  88.882  1.00  0.00     0.000 G0
ATOM     10  O   UNL     1      59.580  80.676  85.372  1.00  0.00    -0.320 OA
ATOM     11  O   UNL     1      59.265  78.469  85.811  1.00  0.00    -0.313 OA
ATOM     12  C   UNL     1      58.182  80.462  85.121  1.00  0.00     0.170 C 
ATOM     13  C   UNL     1      56.891  78.431  85.977  1.00  0.00     0.049 C 
ATOM     14  C   UNL     1      57.590  77.737  88.304  1.00  0.00     0.011 C 
ATOM     15  C   UNL     1      58.072  78.918  85.135  1.00  0.00     0.122 C 
BRANCH   7  16
ATOM     16  C   UNL     1      61.305  79.492  86.560  1.00  0.00     0.135 C 
BRANCH  16  17
ATOM     17  C   UNL     1      62.028  79.211  85.266  1.00  0.00    -0.040 A 
ATOM     18  C   UNL     1      62.686  80.242  84.597  1.00  0.00     0.004 A 
ATOM     19  C   UNL     1      62.037  77.920  84.739  1.00  0.00     0.004 A 
ATOM     20  C   UNL     1      63.355  79.982  83.400  1.00  0.00     0.000 A 
ATOM     21  C   UNL     1      62.706  77.660  83.542  1.00  0.00     0.000 A 
ATOM     22  C   UNL     1      63.364  78.691  82.873  1.00  0.00     0.000 A 
ENDBRANCH  16  17
ENDBRANCH   7  16
BRANCH  15  23
ATOM     23  C   UNL     1      58.069  78.342  83.756  1.00  0.00    -0.046 C 
ATOM     24  C   UNL     1      57.311  79.115  82.718  1.00  0.00     0.042 C 
ATOM     25  C   UNL     1      58.707  77.200  83.463  1.00  0.00     0.010 C 
ENDBRANCH  15  23
ENDBRANCH   3   4
BRANCH   2  26
ATOM     26  C   UNL     1      56.364  83.366  88.385  1.00  0.00     0.078 C 
BRANCH  26  27
ATOM     27  C   UNL     1      56.157  81.935  88.876  1.00  0.00     0.140 C 
ATOM     28  C   UNL     1      57.469  81.123  88.879  1.00  0.00     0.086 CG0
ATOM     29  C   UNL     1      55.735  81.875  90.329  1.00  0.00     0.190 C 
ATOM     30  C   UNL     1      57.454  80.438  90.217  1.00  0.00    -0.010 C 
ATOM     31  G   UNL     1      57.762  80.289  87.598  1.00  0.00     0.000 G0
ATOM     32  O   UNL     1      54.839  82.537  90.833  1.00  0.00    -0.291 OA
ATOM     33  C   UNL     1      56.509  80.858  91.065  1.00  0.00    -0.008 C 
ATOM     34  C   UNL     1      56.252  80.476  92.468  1.00  0.00     0.048 C 
BRANCH  27  35
ATOM     35  O   UNL     1      55.092  81.300  88.188  1.00  0.00    -0.381 OA
ATOM     36  H   UNL     1      54.708  80.626  88.774  1.00  0.00     0.212 HD
ENDBRANCH  27  35
ENDBRANCH  26  27
ENDBRANCH   2  26
ENDBRANCH   1   2
BRANCH   1  37
ATOM     37  O   UNL     1      58.448  85.454  87.993  1.00  0.00    -0.461 OA
BRANCH  37  38
ATOM     38  C   UNL     1      59.746  85.767  87.663  1.00  0.00     0.310 C 
ATOM     39  O   UNL     1      60.695  85.731  88.434  1.00  0.00    -0.252 OA
BRANCH  38  40
ATOM     40  C   UNL     1      59.816  86.161  86.207  1.00  0.00     0.158 C 
BRANCH  40  41
ATOM     41  C   UNL     1      60.990  85.550  85.488  1.00  0.00    -0.037 A 
ATOM     42  C   UNL     1      61.783  86.337  84.652  1.00  0.00     0.008 A 
ATOM     43  C   UNL     1      61.285  84.198  85.657  1.00  0.00     0.008 A 
ATOM     44  C   UNL     1      62.870  85.771  83.985  1.00  0.00     0.046 A 
ATOM     45  C   UNL     1      62.372  83.631  84.991  1.00  0.00     0.046 A 
ATOM     46  C   UNL     1      63.164  84.417  84.155  1.00  0.00     0.115 A 
BRANCH  46  47
ATOM     47  O   UNL     1      64.224  83.865  83.504  1.00  0.00    -0.508 OA
ATOM     48  H   UNL     1      65.024  83.984  84.046  1.00  0.00     0.293 HD
ENDBRANCH  46  47
ENDBRANCH  40  41
ENDBRANCH  38  40
ENDBRANCH  37  38
ENDBRANCH   1  37
TORSDOF 10
ENDMDL
MODEL 8
REMARK VINA RESULT:    -6.021     27.637     32.463
REMARK INTER + INTRA:         -10.803
REMARK INTER:                 -10.264
REMARK INTRA:                  -0.539
REMARK UNBOUND:                -0.558
REMARK SMILES C=C(C)[C@]12C[C@@H](C)[C@@]34O[C@](Cc5ccccc5)(O[C@@H]1[C@@H]3C=C(COC(=O)Cc1ccc(O)cc1)C[C@]1(O)C(=O)C(C)=C[C@@H]41)O2
REMARK SMILES IDX 23 1 22 2 21 3 20 4 9 5 8 6 10 7 6 8 18 10 44 11 19 12 5 13
REMARK SMILES IDX 7 14 4 15 11 16 12 17 13 18 17 19 14 20 16 21 15 22 2 23
REMARK SMILES IDX 3 24 1 25 35 26 36 27 43 28 38 29 42 30 39 32 40 33 41 34
REMARK SMILES IDX 37 35 24 37 25 38 26 39 27 40 28 41 29 42 34 43 30 44 33 45
REMARK SMILES IDX 31 46 32 47
REMARK H PARENT 37 36 32 48
REMARK Flexibility Score: 90.00
ROOT
ATOM      1  C   UNL     1      66.987  87.380  68.797  1.00  0.00     0.264 C 
ENDROOT
BRANCH   1   2
ATOM      2  C   UNL     1      66.119  87.323  70.033  1.00  0.00    -0.033 C 
ATOM      3  C   UNL     1      64.863  86.841  69.934  1.00  0.00    -0.015 C 
BRANCH   3   4
ATOM      4  C   UNL     1      63.778  86.749  70.996  1.00  0.00     0.078 C 
ATOM      5  O   UNL     1      63.969  84.510  72.029  1.00  0.00    -0.319 OA
ATOM      6  C   UNL     1      64.084  85.940  72.310  1.00  0.00     0.095 CG0
ATOM      7  C   UNL     1      62.844  84.132  71.214  1.00  0.00     0.289 C 
ATOM      8  C   UNL     1      62.999  86.351  73.389  1.00  0.00     0.023 C 
ATOM      9  G   UNL     1      65.566  86.132  72.746  1.00  0.00     0.000 G0
ATOM     10  O   UNL     1      62.861  84.810  69.961  1.00  0.00    -0.320 OA
ATOM     11  O   UNL     1      61.598  84.471  71.818  1.00  0.00    -0.313 OA
ATOM     12  C   UNL     1      62.496  86.132  70.385  1.00  0.00     0.170 C 
ATOM     13  C   UNL     1      61.624  86.671  72.725  1.00  0.00     0.049 C 
ATOM     14  C   UNL     1      62.790  85.344  74.533  1.00  0.00     0.011 C 
ATOM     15  C   UNL     1      61.407  85.853  71.451  1.00  0.00     0.122 C 
BRANCH   7  16
ATOM     16  C   UNL     1      62.904  82.634  70.988  1.00  0.00     0.135 C 
BRANCH  16  17
ATOM     17  C   UNL     1      63.616  82.283  69.705  1.00  0.00    -0.040 A 
ATOM     18  C   UNL     1      64.968  82.587  69.553  1.00  0.00     0.004 A 
ATOM     19  C   UNL     1      62.921  81.654  68.673  1.00  0.00     0.004 A 
ATOM     20  C   UNL     1      65.628  82.261  68.367  1.00  0.00     0.000 A 
ATOM     21  C   UNL     1      63.581  81.328  67.487  1.00  0.00     0.000 A 
ATOM     22  C   UNL     1      64.933  81.632  67.334  1.00  0.00     0.000 A 
ENDBRANCH  16  17
ENDBRANCH   7  16
BRANCH  15  23
ATOM     23  C   UNL     1      60.028  86.007  70.898  1.00  0.00    -0.046 C 
ATOM     24  C   UNL     1      59.078  86.836  71.711  1.00  0.00     0.042 C 
ATOM     25  C   UNL     1      59.660  85.437  69.741  1.00  0.00     0.010 C 
ENDBRANCH  15  23
ENDBRANCH   3   4
BRANCH   2  26
ATOM     26  C   UNL     1      66.820  87.834  71.277  1.00  0.00     0.078 C 
BRANCH  26  27
ATOM     27  C   UNL     1      66.137  87.577  72.619  1.00  0.00     0.140 C 
ATOM     28  C   UNL     1      65.579  86.142  72.724  1.00  0.00     0.086 CG0
ATOM     29  C   UNL     1      67.104  87.637  73.783  1.00  0.00     0.190 C 
ATOM     30  C   UNL     1      66.025  85.693  74.088  1.00  0.00    -0.010 C 
ATOM     31  G   UNL     1      64.092  85.952  72.306  1.00  0.00     0.000 G0
ATOM     32  O   UNL     1      67.915  88.528  73.984  1.00  0.00    -0.291 OA
ATOM     33  C   UNL     1      66.903  86.496  74.696  1.00  0.00    -0.008 C 
ATOM     34  C   UNL     1      67.607  86.333  75.985  1.00  0.00     0.048 C 
BRANCH  27  35
ATOM     35  O   UNL     1      65.185  88.585  72.918  1.00  0.00    -0.381 OA
ATOM     36  H   UNL     1      65.115  88.663  73.884  1.00  0.00     0.212 HD
ENDBRANCH  27  35
ENDBRANCH  26  27
ENDBRANCH   2  26
ENDBRANCH   1   2
BRANCH   1  37
ATOM     37  O   UNL     1      68.316  87.673  69.173  1.00  0.00    -0.461 OA
BRANCH  37  38
ATOM     38  C   UNL     1      69.210  87.865  68.145  1.00  0.00     0.310 C 
ATOM     39  O   UNL     1      68.977  88.490  67.120  1.00  0.00    -0.252 OA
BRANCH  38  40
ATOM     40  C   UNL     1      70.517  87.188  68.481  1.00  0.00     0.158 C 
BRANCH  40  41
ATOM     41  C   UNL     1      70.740  85.921  67.696  1.00  0.00    -0.037 A 
ATOM     42  C   UNL     1      71.477  85.955  66.511  1.00  0.00     0.008 A 
ATOM     43  C   UNL     1      70.211  84.715  68.152  1.00  0.00     0.008 A 
ATOM     44  C   UNL     1      71.684  84.783  65.784  1.00  0.00     0.046 A 
ATOM     45  C   UNL     1      70.417  83.542  67.425  1.00  0.00     0.046 A 
ATOM     46  C   UNL     1      71.153  83.576  66.241  1.00  0.00     0.115 A 
BRANCH  46  47
ATOM     47  O   UNL     1      71.355  82.433  65.531  1.00  0.00    -0.508 OA
ATOM     48  H   UNL     1      71.725  81.755  66.123  1.00  0.00     0.293 HD
ENDBRANCH  46  47
ENDBRANCH  40  41
ENDBRANCH  38  40
ENDBRANCH  37  38
ENDBRANCH   1  37
TORSDOF 10
ENDMDL
MODEL 9
REMARK VINA RESULT:    -5.620     29.898     35.043
REMARK INTER + INTRA:         -10.120
REMARK INTER:                  -7.740
REMARK INTRA:                  -2.381
REMARK UNBOUND:                -0.558
REMARK SMILES C=C(C)[C@]12C[C@@H](C)[C@@]34O[C@](Cc5ccccc5)(O[C@@H]1[C@@H]3C=C(COC(=O)Cc1ccc(O)cc1)C[C@]1(O)C(=O)C(C)=C[C@@H]41)O2
REMARK SMILES IDX 23 1 22 2 21 3 20 4 9 5 8 6 10 7 6 8 18 10 44 11 19 12 5 13
REMARK SMILES IDX 7 14 4 15 11 16 12 17 13 18 17 19 14 20 16 21 15 22 2 23
REMARK SMILES IDX 3 24 1 25 35 26 36 27 43 28 38 29 42 30 39 32 40 33 41 34
REMARK SMILES IDX 37 35 24 37 25 38 26 39 27 40 28 41 29 42 34 43 30 44 33 45
REMARK SMILES IDX 31 46 32 47
REMARK H PARENT 37 36 32 48
REMARK Flexibility Score: 90.00
ROOT
ATOM      1  C   UNL     1      82.273  67.825  87.181  1.00  0.00     0.264 C 
ENDROOT
BRANCH   1   2
ATOM      2  C   UNL     1      80.767  67.953  87.146  1.00  0.00    -0.033 C 
ATOM      3  C   UNL     1      80.208  69.178  87.231  1.00  0.00    -0.015 C 
BRANCH   3   4
ATOM      4  C   UNL     1      78.740  69.567  87.294  1.00  0.00     0.078 C 
ATOM      5  O   UNL     1      78.007  69.998  84.972  1.00  0.00    -0.319 OA
ATOM      6  C   UNL     1      77.795  69.118  86.119  1.00  0.00     0.095 CG0
ATOM      7  C   UNL     1      78.126  71.399  85.285  1.00  0.00     0.289 C 
ATOM      8  C   UNL     1      76.300  69.264  86.623  1.00  0.00     0.023 C 
ATOM      9  G   UNL     1      78.190  67.704  85.601  1.00  0.00     0.000 G0
ATOM     10  O   UNL     1      79.190  71.636  86.204  1.00  0.00    -0.320 OA
ATOM     11  O   UNL     1      76.954  71.916  85.911  1.00  0.00    -0.313 OA
ATOM     12  C   UNL     1      78.607  71.105  87.405  1.00  0.00     0.170 C 
ATOM     13  C   UNL     1      76.144  70.461  87.611  1.00  0.00     0.049 C 
ATOM     14  C   UNL     1      75.237  69.376  85.516  1.00  0.00     0.011 C 
ATOM     15  C   UNL     1      77.137  71.582  87.303  1.00  0.00     0.122 C 
BRANCH   7  16
ATOM     16  C   UNL     1      78.384  72.153  83.996  1.00  0.00     0.135 C 
BRANCH  16  17
ATOM     17  C   UNL     1      79.248  73.371  84.215  1.00  0.00    -0.040 A 
ATOM     18  C   UNL     1      78.718  74.499  84.841  1.00  0.00     0.004 A 
ATOM     19  C   UNL     1      80.577  73.367  83.792  1.00  0.00     0.004 A 
ATOM     20  C   UNL     1      79.517  75.624  85.044  1.00  0.00     0.000 A 
ATOM     21  C   UNL     1      81.376  74.492  83.995  1.00  0.00     0.000 A 
ATOM     22  C   UNL     1      80.846  75.620  84.620  1.00  0.00     0.000 A 
ENDBRANCH  16  17
ENDBRANCH   7  16
BRANCH  15  23
ATOM     23  C   UNL     1      76.888  72.810  88.117  1.00  0.00    -0.046 C 
ATOM     24  C   UNL     1      75.942  73.814  87.528  1.00  0.00     0.042 C 
ATOM     25  C   UNL     1      77.475  73.003  89.307  1.00  0.00     0.010 C 
ENDBRANCH  15  23
ENDBRANCH   3   4
BRANCH   2  26
ATOM     26  C   UNL     1      80.059  66.619  87.005  1.00  0.00     0.078 C 
BRANCH  26  27
ATOM     27  C   UNL     1      78.564  66.653  86.692  1.00  0.00     0.140 C 
ATOM     28  C   UNL     1      78.217  67.700  85.614  1.00  0.00     0.086 CG0
ATOM     29  C   UNL     1      78.074  65.365  86.063  1.00  0.00     0.190 C 
ATOM     30  C   UNL     1      77.297  66.957  84.686  1.00  0.00    -0.010 C 
ATOM     31  G   UNL     1      77.802  69.107  86.135  1.00  0.00     0.000 G0
ATOM     32  O   UNL     1      78.305  64.240  86.481  1.00  0.00    -0.291 OA
ATOM     33  C   UNL     1      77.217  65.639  84.894  1.00  0.00    -0.008 C 
ATOM     34  C   UNL     1      76.490  64.599  84.138  1.00  0.00     0.048 C 
BRANCH  27  35
ATOM     35  O   UNL     1      77.789  66.768  87.873  1.00  0.00    -0.381 OA
ATOM     36  H   UNL     1      77.060  66.126  87.826  1.00  0.00     0.212 HD
ENDBRANCH  27  35
ENDBRANCH  26  27
ENDBRANCH   2  26
ENDBRANCH   1   2
BRANCH   1  37
ATOM     37  O   UNL     1      82.798  68.751  88.107  1.00  0.00    -0.461 OA
BRANCH  37  38
ATOM     38  C   UNL     1      83.843  69.529  87.663  1.00  0.00     0.310 C 
ATOM     39  O   UNL     1      84.461  69.347  86.623  1.00  0.00    -0.252 OA
BRANCH  38  40
ATOM     40  C   UNL     1      84.104  70.636  88.656  1.00  0.00     0.158 C 
BRANCH  40  41
ATOM     41  C   UNL     1      83.074  71.733  88.598  1.00  0.00    -0.037 A 
ATOM     42  C   UNL     1      83.088  72.648  87.545  1.00  0.00     0.008 A 
ATOM     43  C   UNL     1      82.106  71.835  89.596  1.00  0.00     0.008 A 
ATOM     44  C   UNL     1      82.134  73.665  87.491  1.00  0.00     0.046 A 
ATOM     45  C   UNL     1      81.151  72.851  89.543  1.00  0.00     0.046 A 
ATOM     46  C   UNL     1      81.166  73.766  88.491  1.00  0.00     0.115 A 
BRANCH  46  47
ATOM     47  O   UNL     1      80.236  74.759  88.439  1.00  0.00    -0.508 OA
ATOM     48  H   UNL     1      80.477  75.380  87.730  1.00  0.00     0.293 HD
ENDBRANCH  46  47
ENDBRANCH  40  41
ENDBRANCH  38  40
ENDBRANCH  37  38
ENDBRANCH   1  37
TORSDOF 10
ENDMDL
MODEL 10
REMARK VINA RESULT:    -5.568     36.019     41.276
REMARK INTER + INTRA:         -10.032
REMARK INTER:                  -8.641
REMARK INTRA:                  -1.391
REMARK UNBOUND:                -0.558
REMARK SMILES C=C(C)[C@]12C[C@@H](C)[C@@]34O[C@](Cc5ccccc5)(O[C@@H]1[C@@H]3C=C(COC(=O)Cc1ccc(O)cc1)C[C@]1(O)C(=O)C(C)=C[C@@H]41)O2
REMARK SMILES IDX 23 1 22 2 21 3 20 4 9 5 8 6 10 7 6 8 18 10 44 11 19 12 5 13
REMARK SMILES IDX 7 14 4 15 11 16 12 17 13 18 17 19 14 20 16 21 15 22 2 23
REMARK SMILES IDX 3 24 1 25 35 26 36 27 43 28 38 29 42 30 39 32 40 33 41 34
REMARK SMILES IDX 37 35 24 37 25 38 26 39 27 40 28 41 29 42 34 43 30 44 33 45
REMARK SMILES IDX 31 46 32 47
REMARK H PARENT 37 36 32 48
REMARK Flexibility Score: 90.00
ROOT
ATOM      1  C   UNL     1      61.334  83.656  85.961  1.00  0.00     0.264 C 
ENDROOT
BRANCH   1   2
ATOM      2  C   UNL     1      60.745  82.560  86.818  1.00  0.00    -0.033 C 
ATOM      3  C   UNL     1      59.524  82.071  86.516  1.00  0.00    -0.015 C 
BRANCH   3   4
ATOM      4  C   UNL     1      58.689  81.036  87.253  1.00  0.00     0.078 C 
ATOM      5  O   UNL     1      59.240  78.834  86.271  1.00  0.00    -0.319 OA
ATOM      6  C   UNL     1      59.312  79.614  87.505  1.00  0.00     0.095 CG0
ATOM      7  C   UNL     1      58.000  78.943  85.546  1.00  0.00     0.289 C 
ATOM      8  C   UNL     1      58.446  78.903  88.625  1.00  0.00     0.023 C 
ATOM      9  G   UNL     1      60.835  79.723  87.807  1.00  0.00     0.000 G0
ATOM     10  O   UNL     1      57.714  80.297  85.209  1.00  0.00    -0.320 OA
ATOM     11  O   UNL     1      56.884  78.492  86.310  1.00  0.00    -0.313 OA
ATOM     12  C   UNL     1      57.354  80.807  86.503  1.00  0.00     0.170 C 
ATOM     13  C   UNL     1      56.946  79.321  88.540  1.00  0.00     0.049 C 
ATOM     14  C   UNL     1      58.546  77.368  88.663  1.00  0.00     0.011 C 
ATOM     15  C   UNL     1      56.529  79.643  87.104  1.00  0.00     0.122 C 
BRANCH   7  16
ATOM     16  C   UNL     1      58.114  78.113  84.283  1.00  0.00     0.135 C 
BRANCH  16  17
ATOM     17  C   UNL     1      59.134  77.009  84.420  1.00  0.00    -0.040 A 
ATOM     18  C   UNL     1      58.826  75.862  85.150  1.00  0.00     0.004 A 
ATOM     19  C   UNL     1      60.384  77.138  83.816  1.00  0.00     0.004 A 
ATOM     20  C   UNL     1      59.769  74.842  85.277  1.00  0.00     0.000 A 
ATOM     21  C   UNL     1      61.327  76.117  83.942  1.00  0.00     0.000 A 
ATOM     22  C   UNL     1      61.020  74.970  84.673  1.00  0.00     0.000 A 
ENDBRANCH  16  17
ENDBRANCH   7  16
BRANCH  15  23
ATOM     23  C   UNL     1      55.058  79.870  86.971  1.00  0.00    -0.046 C 
ATOM     24  C   UNL     1      54.307  80.109  88.248  1.00  0.00     0.042 C 
ATOM     25  C   UNL     1      54.444  79.859  85.779  1.00  0.00     0.010 C 
ENDBRANCH  15  23
ENDBRANCH   3   4
BRANCH   2  26
ATOM     26  C   UNL     1      61.659  82.134  87.952  1.00  0.00     0.078 C 
BRANCH  26  27
ATOM     27  C   UNL     1      61.253  80.894  88.746  1.00  0.00     0.140 C 
ATOM     28  C   UNL     1      60.834  79.725  87.831  1.00  0.00     0.086 CG0
ATOM     29  C   UNL     1      62.409  80.300  89.523  1.00  0.00     0.190 C 
ATOM     30  C   UNL     1      61.554  78.544  88.419  1.00  0.00    -0.010 C 
ATOM     31  G   UNL     1      59.314  79.613  87.515  1.00  0.00     0.000 G0
ATOM     32  O   UNL     1      63.174  80.925  90.243  1.00  0.00    -0.291 OA
ATOM     33  C   UNL     1      62.466  78.836  89.352  1.00  0.00    -0.008 C 
ATOM     34  C   UNL     1      63.404  77.952  90.075  1.00  0.00     0.048 C 
BRANCH  27  35
ATOM     35  O   UNL     1      60.299  81.208  89.747  1.00  0.00    -0.381 OA
ATOM     36  H   UNL     1      59.411  81.134  89.358  1.00  0.00     0.212 HD
ENDBRANCH  27  35
ENDBRANCH  26  27
ENDBRANCH   2  26
ENDBRANCH   1   2
BRANCH   1  37
ATOM     37  O   UNL     1      62.129  83.080  84.947  1.00  0.00    -0.461 OA
BRANCH  37  38
ATOM     38  C   UNL     1      63.321  83.712  84.676  1.00  0.00     0.310 C 
ATOM     39  O   UNL     1      63.467  84.921  84.572  1.00  0.00    -0.252 OA
BRANCH  38  40
ATOM     40  C   UNL     1      64.414  82.681  84.528  1.00  0.00     0.158 C 
BRANCH  40  41
ATOM     41  C   UNL     1      63.986  81.480  83.725  1.00  0.00    -0.037 A 
ATOM     42  C   UNL     1      63.711  81.613  82.364  1.00  0.00     0.008 A 
ATOM     43  C   UNL     1      63.863  80.236  84.342  1.00  0.00     0.008 A 
ATOM     44  C   UNL     1      63.313  80.501  81.621  1.00  0.00     0.046 A 
ATOM     45  C   UNL     1      63.466  79.124  83.600  1.00  0.00     0.046 A 
ATOM     46  C   UNL     1      63.191  79.256  82.239  1.00  0.00     0.115 A 
BRANCH  46  47
ATOM     47  O   UNL     1      62.803  78.172  81.514  1.00  0.00    -0.508 OA
ATOM     48  H   UNL     1      62.033  77.763  81.946  1.00  0.00     0.293 HD
ENDBRANCH  46  47
ENDBRANCH  40  41
ENDBRANCH  38  40
ENDBRANCH  37  38
ENDBRANCH   1  37
TORSDOF 10
ENDMDL
