MODEL 1
REMARK VINA RESULT:    -6.365      0.000      0.000
REMARK INTER + INTRA:         -11.728
REMARK INTER:                 -10.644
REMARK INTRA:                  -1.084
REMARK UNBOUND:                -1.084
REMARK SMILES COc1cc(CNC(=O)CCCCCCCC(C)C)ccc1O
REMARK SMILES IDX 11 1 10 2 8 3 9 4 7 5 6 7 5 8 4 9 20 10 3 11 21 12 22 13
REMARK SMILES IDX 2 14 1 15 23 16 12 18 13 19 14 20 15 21 16 22 17 23 18 24
REMARK SMILES IDX 19 25
REMARK H PARENT 7 6 23 17
REMARK Flexibility Score: inf
ROOT
ATOM      1  C   UNL     1      93.714  95.458  75.130  1.00  0.00     0.010 C 
ENDROOT
BRANCH   1   2
ATOM      2  C   UNL     1      94.192  96.506  74.127  1.00  0.00     0.100 C 
BRANCH   2   3
ATOM      3  C   UNL     1      94.973  97.628  74.792  1.00  0.00     0.220 C 
ATOM      4  O   UNL     1      95.440  98.581  74.175  1.00  0.00    -0.275 OA
ATOM      5  N   UNL     1      95.089  97.428  76.159  1.00  0.00    -0.352 N 
ATOM      6  H   UNL     1      94.677  96.600  76.582  1.00  0.00     0.163 HD
BRANCH   5   7
ATOM      7  C   UNL     1      95.792  98.344  77.028  1.00  0.00     0.151 C 
BRANCH   7   8
ATOM      8  C   UNL     1      95.957  97.788  78.413  1.00  0.00    -0.025 A 
ATOM      9  C   UNL     1      96.068  98.656  79.493  1.00  0.00     0.056 A 
ATOM     10  C   UNL     1      95.997  96.412  78.601  1.00  0.00     0.009 A 
ATOM     11  C   UNL     1      96.221  98.140  80.780  1.00  0.00     0.160 A 
ATOM     12  C   UNL     1      96.152  95.896  79.888  1.00  0.00     0.050 A 
ATOM     13  C   UNL     1      96.264  96.759  80.978  1.00  0.00     0.157 A 
BRANCH  11  14
ATOM     14  O   UNL     1      96.331  98.993  81.836  1.00  0.00    -0.493 OA
ATOM     15  C   UNL     1      95.132  99.624  82.286  1.00  0.00     0.278 C 
ENDBRANCH  11  14
BRANCH  13  16
ATOM     16  O   UNL     1      96.413  96.243  82.229  1.00  0.00    -0.504 OA
ATOM     17  H   UNL     1      97.204  95.677  82.246  1.00  0.00     0.293 HD
ENDBRANCH  13  16
ENDBRANCH   7   8
ENDBRANCH   5   7
ENDBRANCH   2   3
ENDBRANCH   1   2
BRANCH   1  18
ATOM     18  C   UNL     1      92.194  95.440  75.315  1.00  0.00     0.001 C 
BRANCH  18  19
ATOM     19  C   UNL     1      91.694  95.717  76.736  1.00  0.00     0.000 C 
BRANCH  19  20
ATOM     20  C   UNL     1      91.184  94.464  77.454  1.00  0.00     0.000 C 
BRANCH  20  21
ATOM     21  C   UNL     1      89.877  93.917  76.870  1.00  0.00     0.000 C 
BRANCH  21  22
ATOM     22  C   UNL     1      89.823  92.386  76.835  1.00  0.00     0.003 C 
BRANCH  22  23
ATOM     23  C   UNL     1      90.128  91.793  75.446  1.00  0.00    -0.017 C 
ATOM     24  C   UNL     1      89.955  92.871  74.373  1.00  0.00     0.007 C 
ATOM     25  C   UNL     1      89.243  90.591  75.114  1.00  0.00     0.007 C 
ENDBRANCH  22  23
ENDBRANCH  21  22
ENDBRANCH  20  21
ENDBRANCH  19  20
ENDBRANCH  18  19
ENDBRANCH   1  18
TORSDOF 12
ENDMDL
MODEL 2
REMARK VINA RESULT:    -6.189     12.970     15.365
REMARK INTER + INTRA:         -11.433
REMARK INTER:                 -10.864
REMARK INTRA:                  -0.570
REMARK UNBOUND:                -1.084
REMARK SMILES COc1cc(CNC(=O)CCCCCCCC(C)C)ccc1O
REMARK SMILES IDX 11 1 10 2 8 3 9 4 7 5 6 7 5 8 4 9 20 10 3 11 21 12 22 13
REMARK SMILES IDX 2 14 1 15 23 16 12 18 13 19 14 20 15 21 16 22 17 23 18 24
REMARK SMILES IDX 19 25
REMARK H PARENT 7 6 23 17
REMARK Flexibility Score: inf
ROOT
ATOM      1  C   UNL     1      95.556  81.738  83.421  1.00  0.00     0.010 C 
ENDROOT
BRANCH   1   2
ATOM      2  C   UNL     1      96.832  82.564  83.270  1.00  0.00     0.100 C 
BRANCH   2   3
ATOM      3  C   UNL     1      97.740  82.031  82.175  1.00  0.00     0.220 C 
ATOM      4  O   UNL     1      98.369  80.981  82.272  1.00  0.00    -0.275 OA
ATOM      5  N   UNL     1      97.767  82.879  81.077  1.00  0.00    -0.352 N 
ATOM      6  H   UNL     1      97.220  83.735  81.091  1.00  0.00     0.163 HD
BRANCH   5   7
ATOM      7  C   UNL     1      98.560  82.610  79.899  1.00  0.00     0.151 C 
BRANCH   7   8
ATOM      8  C   UNL     1      97.929  83.172  78.658  1.00  0.00    -0.025 A 
ATOM      9  C   UNL     1      98.656  83.210  77.475  1.00  0.00     0.056 A 
ATOM     10  C   UNL     1      96.625  83.649  78.706  1.00  0.00     0.009 A 
ATOM     11  C   UNL     1      98.070  83.733  76.322  1.00  0.00     0.160 A 
ATOM     12  C   UNL     1      96.039  84.172  77.553  1.00  0.00     0.050 A 
ATOM     13  C   UNL     1      96.761  84.215  76.361  1.00  0.00     0.157 A 
BRANCH  11  14
ATOM     14  O   UNL     1      98.786  83.769  75.163  1.00  0.00    -0.493 OA
ATOM     15  C   UNL     1      99.416  82.556  74.753  1.00  0.00     0.278 C 
ENDBRANCH  11  14
BRANCH  13  16
ATOM     16  O   UNL     1      96.178  84.726  75.242  1.00  0.00    -0.504 OA
ATOM     17  H   UNL     1      95.408  85.261  75.502  1.00  0.00     0.293 HD
ENDBRANCH  13  16
ENDBRANCH   7   8
ENDBRANCH   5   7
ENDBRANCH   2   3
ENDBRANCH   1   2
BRANCH   1  18
ATOM     18  C   UNL     1      94.365  82.546  83.944  1.00  0.00     0.001 C 
BRANCH  18  19
ATOM     19  C   UNL     1      93.309  81.747  84.716  1.00  0.00     0.000 C 
BRANCH  19  20
ATOM     20  C   UNL     1      91.955  82.458  84.801  1.00  0.00     0.000 C 
BRANCH  20  21
ATOM     21  C   UNL     1      90.826  81.708  84.086  1.00  0.00     0.000 C 
BRANCH  21  22
ATOM     22  C   UNL     1      89.765  81.154  85.043  1.00  0.00     0.003 C 
BRANCH  22  23
ATOM     23  C   UNL     1      88.320  81.447  84.593  1.00  0.00    -0.017 C 
ATOM     24  C   UNL     1      87.963  80.564  83.394  1.00  0.00     0.007 C 
ATOM     25  C   UNL     1      88.105  82.917  84.231  1.00  0.00     0.007 C 
ENDBRANCH  22  23
ENDBRANCH  21  22
ENDBRANCH  20  21
ENDBRANCH  19  20
ENDBRANCH  18  19
ENDBRANCH   1  18
TORSDOF 12
ENDMDL
MODEL 3
REMARK VINA RESULT:    -6.140     12.445     14.301
REMARK INTER + INTRA:         -11.352
REMARK INTER:                 -10.525
REMARK INTRA:                  -0.827
REMARK UNBOUND:                -1.084
REMARK SMILES COc1cc(CNC(=O)CCCCCCCC(C)C)ccc1O
REMARK SMILES IDX 11 1 10 2 8 3 9 4 7 5 6 7 5 8 4 9 20 10 3 11 21 12 22 13
REMARK SMILES IDX 2 14 1 15 23 16 12 18 13 19 14 20 15 21 16 22 17 23 18 24
REMARK SMILES IDX 19 25
REMARK H PARENT 7 6 23 17
REMARK Flexibility Score: inf
ROOT
ATOM      1  C   UNL     1      98.175  82.769  78.580  1.00  0.00     0.010 C 
ENDROOT
BRANCH   1   2
ATOM      2  C   UNL     1      97.104  83.258  79.553  1.00  0.00     0.100 C 
BRANCH   2   3
ATOM      3  C   UNL     1      97.053  82.424  80.823  1.00  0.00     0.220 C 
ATOM      4  O   UNL     1      96.987  81.198  80.822  1.00  0.00    -0.275 OA
ATOM      5  N   UNL     1      97.082  83.221  81.957  1.00  0.00    -0.352 N 
ATOM      6  H   UNL     1      97.126  84.232  81.860  1.00  0.00     0.163 HD
BRANCH   5   7
ATOM      7  C   UNL     1      97.036  82.680  83.296  1.00  0.00     0.151 C 
BRANCH   7   8
ATOM      8  C   UNL     1      95.763  83.043  84.005  1.00  0.00    -0.025 A 
ATOM      9  C   UNL     1      95.725  84.171  84.815  1.00  0.00     0.056 A 
ATOM     10  C   UNL     1      94.636  82.246  83.844  1.00  0.00     0.009 A 
ATOM     11  C   UNL     1      94.542  84.508  85.474  1.00  0.00     0.160 A 
ATOM     12  C   UNL     1      93.453  82.583  84.503  1.00  0.00     0.050 A 
ATOM     13  C   UNL     1      93.406  83.713  85.318  1.00  0.00     0.157 A 
BRANCH  11  14
ATOM     14  O   UNL     1      94.508  85.614  86.268  1.00  0.00    -0.493 OA
ATOM     15  C   UNL     1      94.248  86.863  85.628  1.00  0.00     0.278 C 
ENDBRANCH  11  14
BRANCH  13  16
ATOM     16  O   UNL     1      92.245  84.032  85.955  1.00  0.00    -0.504 OA
ATOM     17  H   UNL     1      92.426  84.725  86.614  1.00  0.00     0.293 HD
ENDBRANCH  13  16
ENDBRANCH   7   8
ENDBRANCH   5   7
ENDBRANCH   2   3
ENDBRANCH   1   2
BRANCH   1  18
ATOM     18  C   UNL     1      97.776  82.919  77.109  1.00  0.00     0.001 C 
BRANCH  18  19
ATOM     19  C   UNL     1      96.768  84.032  76.804  1.00  0.00     0.000 C 
BRANCH  19  20
ATOM     20  C   UNL     1      97.040  84.748  75.478  1.00  0.00     0.000 C 
BRANCH  20  21
ATOM     21  C   UNL     1      97.338  83.791  74.318  1.00  0.00     0.000 C 
BRANCH  21  22
ATOM     22  C   UNL     1      98.819  83.754  73.928  1.00  0.00     0.003 C 
BRANCH  22  23
ATOM     23  C   UNL     1      99.537  85.105  74.116  1.00  0.00    -0.017 C 
ATOM     24  C   UNL     1      99.592  85.851  72.781  1.00  0.00     0.007 C 
ATOM     25  C   UNL     1     100.952  84.944  74.674  1.00  0.00     0.007 C 
ENDBRANCH  22  23
ENDBRANCH  21  22
ENDBRANCH  20  21
ENDBRANCH  19  20
ENDBRANCH  18  19
ENDBRANCH   1  18
TORSDOF 12
ENDMDL
MODEL 4
REMARK VINA RESULT:    -6.122      2.392      5.266
REMARK INTER + INTRA:         -11.323
REMARK INTER:                 -10.452
REMARK INTRA:                  -0.871
REMARK UNBOUND:                -1.084
REMARK SMILES COc1cc(CNC(=O)CCCCCCCC(C)C)ccc1O
REMARK SMILES IDX 11 1 10 2 8 3 9 4 7 5 6 7 5 8 4 9 20 10 3 11 21 12 22 13
REMARK SMILES IDX 2 14 1 15 23 16 12 18 13 19 14 20 15 21 16 22 17 23 18 24
REMARK SMILES IDX 19 25
REMARK H PARENT 7 6 23 17
REMARK Flexibility Score: inf
ROOT
ATOM      1  C   UNL     1      92.916  95.162  78.234  1.00  0.00     0.010 C 
ENDROOT
BRANCH   1   2
ATOM      2  C   UNL     1      94.392  94.778  78.310  1.00  0.00     0.100 C 
BRANCH   2   3
ATOM      3  C   UNL     1      95.312  95.957  78.039  1.00  0.00     0.220 C 
ATOM      4  O   UNL     1      96.498  95.974  78.358  1.00  0.00    -0.275 OA
ATOM      5  N   UNL     1      94.641  96.991  77.404  1.00  0.00    -0.352 N 
ATOM      6  H   UNL     1      93.652  96.891  77.189  1.00  0.00     0.163 HD
BRANCH   5   7
ATOM      7  C   UNL     1      95.282  98.234  77.040  1.00  0.00     0.151 C 
BRANCH   7   8
ATOM      8  C   UNL     1      95.840  98.190  75.648  1.00  0.00    -0.025 A 
ATOM      9  C   UNL     1      94.988  97.977  74.571  1.00  0.00     0.056 A 
ATOM     10  C   UNL     1      97.205  98.364  75.449  1.00  0.00     0.009 A 
ATOM     11  C   UNL     1      95.507  97.936  73.277  1.00  0.00     0.160 A 
ATOM     12  C   UNL     1      97.724  98.322  74.155  1.00  0.00     0.050 A 
ATOM     13  C   UNL     1      96.876  98.109  73.069  1.00  0.00     0.157 A 
BRANCH  11  14
ATOM     14  O   UNL     1      94.668  97.726  72.224  1.00  0.00    -0.493 OA
ATOM     15  C   UNL     1      93.555  98.609  72.097  1.00  0.00     0.278 C 
ENDBRANCH  11  14
BRANCH  13  16
ATOM     16  O   UNL     1      97.395  98.072  71.810  1.00  0.00    -0.504 OA
ATOM     17  H   UNL     1      98.360  98.178  71.863  1.00  0.00     0.293 HD
ENDBRANCH  13  16
ENDBRANCH   7   8
ENDBRANCH   5   7
ENDBRANCH   2   3
ENDBRANCH   1   2
BRANCH   1  18
ATOM     18  C   UNL     1      92.153  94.435  77.123  1.00  0.00     0.001 C 
BRANCH  18  19
ATOM     19  C   UNL     1      90.635  94.344  77.311  1.00  0.00     0.000 C 
BRANCH  19  20
ATOM     20  C   UNL     1      89.863  94.300  75.989  1.00  0.00     0.000 C 
BRANCH  20  21
ATOM     21  C   UNL     1      90.189  93.070  75.134  1.00  0.00     0.000 C 
BRANCH  21  22
ATOM     22  C   UNL     1      89.812  91.746  75.806  1.00  0.00     0.003 C 
BRANCH  22  23
ATOM     23  C   UNL     1      89.582  90.594  74.808  1.00  0.00    -0.017 C 
ATOM     24  C   UNL     1      89.775  89.251  75.516  1.00  0.00     0.007 C 
ATOM     25  C   UNL     1      90.511  90.675  73.596  1.00  0.00     0.007 C 
ENDBRANCH  22  23
ENDBRANCH  21  22
ENDBRANCH  20  21
ENDBRANCH  19  20
ENDBRANCH  18  19
ENDBRANCH   1  18
TORSDOF 12
ENDMDL
MODEL 5
REMARK VINA RESULT:    -6.004     16.795     19.875
REMARK INTER + INTRA:         -11.125
REMARK INTER:                 -10.098
REMARK INTRA:                  -1.027
REMARK UNBOUND:                -1.084
REMARK SMILES COc1cc(CNC(=O)CCCCCCCC(C)C)ccc1O
REMARK SMILES IDX 11 1 10 2 8 3 9 4 7 5 6 7 5 8 4 9 20 10 3 11 21 12 22 13
REMARK SMILES IDX 2 14 1 15 23 16 12 18 13 19 14 20 15 21 16 22 17 23 18 24
REMARK SMILES IDX 19 25
REMARK H PARENT 7 6 23 17
REMARK Flexibility Score: inf
ROOT
ATOM      1  C   UNL     1      74.866  90.598  70.179  1.00  0.00     0.010 C 
ENDROOT
BRANCH   1   2
ATOM      2  C   UNL     1      73.679  90.399  71.119  1.00  0.00     0.100 C 
BRANCH   2   3
ATOM      3  C   UNL     1      73.492  91.568  72.072  1.00  0.00     0.220 C 
ATOM      4  O   UNL     1      72.916  91.471  73.152  1.00  0.00    -0.275 OA
ATOM      5  N   UNL     1      74.042  92.734  71.562  1.00  0.00    -0.352 N 
ATOM      6  H   UNL     1      74.492  92.720  70.650  1.00  0.00     0.163 HD
BRANCH   5   7
ATOM      7  C   UNL     1      73.996  93.995  72.265  1.00  0.00     0.151 C 
BRANCH   7   8
ATOM      8  C   UNL     1      75.368  94.506  72.593  1.00  0.00    -0.025 A 
ATOM      9  C   UNL     1      76.094  93.917  73.621  1.00  0.00     0.056 A 
ATOM     10  C   UNL     1      75.899  95.564  71.865  1.00  0.00     0.009 A 
ATOM     11  C   UNL     1      77.370  94.392  73.926  1.00  0.00     0.160 A 
ATOM     12  C   UNL     1      77.175  96.040  72.171  1.00  0.00     0.050 A 
ATOM     13  C   UNL     1      77.910  95.454  73.201  1.00  0.00     0.157 A 
BRANCH  11  14
ATOM     14  O   UNL     1      78.078  93.812  74.935  1.00  0.00    -0.493 OA
ATOM     15  C   UNL     1      77.860  94.316  76.252  1.00  0.00     0.278 C 
ENDBRANCH  11  14
BRANCH  13  16
ATOM     16  O   UNL     1      79.155  95.927  73.488  1.00  0.00    -0.504 OA
ATOM     17  H   UNL     1      79.646  96.053  72.658  1.00  0.00     0.293 HD
ENDBRANCH  13  16
ENDBRANCH   7   8
ENDBRANCH   5   7
ENDBRANCH   2   3
ENDBRANCH   1   2
BRANCH   1  18
ATOM     18  C   UNL     1      75.306  89.314  69.471  1.00  0.00     0.001 C 
BRANCH  18  19
ATOM     19  C   UNL     1      76.126  89.509  68.191  1.00  0.00     0.000 C 
BRANCH  19  20
ATOM     20  C   UNL     1      77.386  88.641  68.142  1.00  0.00     0.000 C 
BRANCH  20  21
ATOM     21  C   UNL     1      77.127  87.218  67.637  1.00  0.00     0.000 C 
BRANCH  21  22
ATOM     22  C   UNL     1      77.450  86.138  68.675  1.00  0.00     0.003 C 
BRANCH  22  23
ATOM     23  C   UNL     1      76.300  85.138  68.900  1.00  0.00    -0.017 C 
ATOM     24  C   UNL     1      75.015  85.676  68.265  1.00  0.00     0.007 C 
ATOM     25  C   UNL     1      76.058  84.845  70.381  1.00  0.00     0.007 C 
ENDBRANCH  22  23
ENDBRANCH  21  22
ENDBRANCH  20  21
ENDBRANCH  19  20
ENDBRANCH  18  19
ENDBRANCH   1  18
TORSDOF 12
ENDMDL
MODEL 6
REMARK VINA RESULT:    -5.878      3.676      7.187
REMARK INTER + INTRA:         -10.915
REMARK INTER:                 -10.016
REMARK INTRA:                  -0.899
REMARK UNBOUND:                -1.084
REMARK SMILES COc1cc(CNC(=O)CCCCCCCC(C)C)ccc1O
REMARK SMILES IDX 11 1 10 2 8 3 9 4 7 5 6 7 5 8 4 9 20 10 3 11 21 12 22 13
REMARK SMILES IDX 2 14 1 15 23 16 12 18 13 19 14 20 15 21 16 22 17 23 18 24
REMARK SMILES IDX 19 25
REMARK H PARENT 7 6 23 17
REMARK Flexibility Score: inf
ROOT
ATOM      1  C   UNL     1      92.876  95.800  76.718  1.00  0.00     0.010 C 
ENDROOT
BRANCH   1   2
ATOM      2  C   UNL     1      93.474  95.485  75.348  1.00  0.00     0.100 C 
BRANCH   2   3
ATOM      3  C   UNL     1      94.478  96.534  74.899  1.00  0.00     0.220 C 
ATOM      4  O   UNL     1      95.050  97.294  75.675  1.00  0.00    -0.275 OA
ATOM      5  N   UNL     1      94.648  96.519  73.523  1.00  0.00    -0.352 N 
ATOM      6  H   UNL     1      94.121  95.858  72.959  1.00  0.00     0.163 HD
BRANCH   5   7
ATOM      7  C   UNL     1      95.542  97.422  72.835  1.00  0.00     0.151 C 
BRANCH   7   8
ATOM      8  C   UNL     1      94.801  98.368  71.935  1.00  0.00    -0.025 A 
ATOM      9  C   UNL     1      95.412  98.838  70.779  1.00  0.00     0.056 A 
ATOM     10  C   UNL     1      93.511  98.763  72.267  1.00  0.00     0.009 A 
ATOM     11  C   UNL     1      94.724  99.717  69.943  1.00  0.00     0.160 A 
ATOM     12  C   UNL     1      92.822  99.643  71.431  1.00  0.00     0.050 A 
ATOM     13  C   UNL     1      93.428 100.120  70.269  1.00  0.00     0.157 A 
BRANCH  11  14
ATOM     14  O   UNL     1      95.327 100.177  68.811  1.00  0.00    -0.493 OA
ATOM     15  C   UNL     1      95.376  99.287  67.696  1.00  0.00     0.278 C 
ENDBRANCH  11  14
BRANCH  13  16
ATOM     16  O   UNL     1      92.745 100.977  69.460  1.00  0.00    -0.504 OA
ATOM     17  H   UNL     1      93.314 101.227  68.711  1.00  0.00     0.293 HD
ENDBRANCH  13  16
ENDBRANCH   7   8
ENDBRANCH   5   7
ENDBRANCH   2   3
ENDBRANCH   1   2
BRANCH   1  18
ATOM     18  C   UNL     1      91.373  95.522  76.807  1.00  0.00     0.001 C 
BRANCH  18  19
ATOM     19  C   UNL     1      90.971  94.043  76.822  1.00  0.00     0.000 C 
BRANCH  19  20
ATOM     20  C   UNL     1      89.812  93.721  75.875  1.00  0.00     0.000 C 
BRANCH  20  21
ATOM     21  C   UNL     1      90.267  93.177  74.517  1.00  0.00     0.000 C 
BRANCH  21  22
ATOM     22  C   UNL     1      90.580  91.677  74.539  1.00  0.00     0.003 C 
BRANCH  22  23
ATOM     23  C   UNL     1      89.369  90.802  74.919  1.00  0.00    -0.017 C 
ATOM     24  C   UNL     1      89.840  89.386  75.256  1.00  0.00     0.007 C 
ATOM     25  C   UNL     1      88.317  90.744  73.810  1.00  0.00     0.007 C 
ENDBRANCH  22  23
ENDBRANCH  21  22
ENDBRANCH  20  21
ENDBRANCH  19  20
ENDBRANCH  18  19
ENDBRANCH   1  18
TORSDOF 12
ENDMDL
MODEL 7
REMARK VINA RESULT:    -5.875     13.925     16.905
REMARK INTER + INTRA:         -10.908
REMARK INTER:                 -10.237
REMARK INTRA:                  -0.671
REMARK UNBOUND:                -1.084
REMARK SMILES COc1cc(CNC(=O)CCCCCCCC(C)C)ccc1O
REMARK SMILES IDX 11 1 10 2 8 3 9 4 7 5 6 7 5 8 4 9 20 10 3 11 21 12 22 13
REMARK SMILES IDX 2 14 1 15 23 16 12 18 13 19 14 20 15 21 16 22 17 23 18 24
REMARK SMILES IDX 19 25
REMARK H PARENT 7 6 23 17
REMARK Flexibility Score: inf
ROOT
ATOM      1  C   UNL     1      95.896  83.169  82.973  1.00  0.00     0.010 C 
ENDROOT
BRANCH   1   2
ATOM      2  C   UNL     1      95.921  82.994  84.490  1.00  0.00     0.100 C 
BRANCH   2   3
ATOM      3  C   UNL     1      94.554  83.201  85.119  1.00  0.00     0.220 C 
ATOM      4  O   UNL     1      94.389  83.743  86.208  1.00  0.00    -0.275 OA
ATOM      5  N   UNL     1      93.542  82.696  84.317  1.00  0.00    -0.352 N 
ATOM      6  H   UNL     1      93.776  82.251  83.433  1.00  0.00     0.163 HD
BRANCH   5   7
ATOM      7  C   UNL     1      92.146  82.756  84.685  1.00  0.00     0.151 C 
BRANCH   7   8
ATOM      8  C   UNL     1      91.472  81.421  84.552  1.00  0.00    -0.025 A 
ATOM      9  C   UNL     1      90.139  81.359  84.166  1.00  0.00     0.056 A 
ATOM     10  C   UNL     1      92.189  80.260  84.816  1.00  0.00     0.009 A 
ATOM     11  C   UNL     1      89.513  80.119  84.043  1.00  0.00     0.160 A 
ATOM     12  C   UNL     1      91.563  79.020  84.693  1.00  0.00     0.050 A 
ATOM     13  C   UNL     1      90.225  78.948  84.307  1.00  0.00     0.157 A 
BRANCH  11  14
ATOM     14  O   UNL     1      88.205  80.062  83.665  1.00  0.00    -0.493 OA
ATOM     15  C   UNL     1      87.401  81.208  83.941  1.00  0.00     0.278 C 
ENDBRANCH  11  14
BRANCH  13  16
ATOM     16  O   UNL     1      89.625  77.731  84.189  1.00  0.00    -0.504 OA
ATOM     17  H   UNL     1      89.007  77.755  83.438  1.00  0.00     0.293 HD
ENDBRANCH  13  16
ENDBRANCH   7   8
ENDBRANCH   5   7
ENDBRANCH   2   3
ENDBRANCH   1   2
BRANCH   1  18
ATOM     18  C   UNL     1      97.149  82.633  82.275  1.00  0.00     0.001 C 
BRANCH  18  19
ATOM     19  C   UNL     1      96.923  81.472  81.302  1.00  0.00     0.000 C 
BRANCH  19  20
ATOM     20  C   UNL     1      98.162  81.131  80.469  1.00  0.00     0.000 C 
BRANCH  20  21
ATOM     21  C   UNL     1      98.050  81.566  79.003  1.00  0.00     0.000 C 
BRANCH  21  22
ATOM     22  C   UNL     1      97.290  82.884  78.819  1.00  0.00     0.003 C 
BRANCH  22  23
ATOM     23  C   UNL     1      97.609  83.595  77.489  1.00  0.00    -0.017 C 
ATOM     24  C   UNL     1      96.370  84.346  76.994  1.00  0.00     0.007 C 
ATOM     25  C   UNL     1      98.089  82.627  76.407  1.00  0.00     0.007 C 
ENDBRANCH  22  23
ENDBRANCH  21  22
ENDBRANCH  20  21
ENDBRANCH  19  20
ENDBRANCH  18  19
ENDBRANCH   1  18
TORSDOF 12
ENDMDL
MODEL 8
REMARK VINA RESULT:    -5.860     17.123     20.039
REMARK INTER + INTRA:         -10.885
REMARK INTER:                  -9.877
REMARK INTRA:                  -1.008
REMARK UNBOUND:                -1.084
REMARK SMILES COc1cc(CNC(=O)CCCCCCCC(C)C)ccc1O
REMARK SMILES IDX 11 1 10 2 8 3 9 4 7 5 6 7 5 8 4 9 20 10 3 11 21 12 22 13
REMARK SMILES IDX 2 14 1 15 23 16 12 18 13 19 14 20 15 21 16 22 17 23 18 24
REMARK SMILES IDX 19 25
REMARK H PARENT 7 6 23 17
REMARK Flexibility Score: inf
ROOT
ATOM      1  C   UNL     1      74.868  90.642  70.143  1.00  0.00     0.010 C 
ENDROOT
BRANCH   1   2
ATOM      2  C   UNL     1      73.649  90.391  71.028  1.00  0.00     0.100 C 
BRANCH   2   3
ATOM      3  C   UNL     1      73.445  91.491  72.057  1.00  0.00     0.220 C 
ATOM      4  O   UNL     1      72.829  91.326  73.106  1.00  0.00    -0.275 OA
ATOM      5  N   UNL     1      74.029  92.682  71.652  1.00  0.00    -0.352 N 
ATOM      6  H   UNL     1      74.511  92.727  70.758  1.00  0.00     0.163 HD
BRANCH   5   7
ATOM      7  C   UNL     1      73.975  93.890  72.444  1.00  0.00     0.151 C 
BRANCH   7   8
ATOM      8  C   UNL     1      75.344  94.425  72.746  1.00  0.00    -0.025 A 
ATOM      9  C   UNL     1      75.796  95.566  72.095  1.00  0.00     0.056 A 
ATOM     10  C   UNL     1      76.146  93.773  73.675  1.00  0.00     0.009 A 
ATOM     11  C   UNL     1      77.069  96.063  72.376  1.00  0.00     0.160 A 
ATOM     12  C   UNL     1      77.419  94.270  73.956  1.00  0.00     0.050 A 
ATOM     13  C   UNL     1      77.881  95.414  73.307  1.00  0.00     0.157 A 
BRANCH  11  14
ATOM     14  O   UNL     1      77.509  97.181  71.734  1.00  0.00    -0.493 OA
ATOM     15  C   UNL     1      78.001  97.015  70.405  1.00  0.00     0.278 C 
ENDBRANCH  11  14
BRANCH  13  16
ATOM     16  O   UNL     1      79.125  95.890  73.590  1.00  0.00    -0.504 OA
ATOM     17  H   UNL     1      79.252  95.890  74.555  1.00  0.00     0.293 HD
ENDBRANCH  13  16
ENDBRANCH   7   8
ENDBRANCH   5   7
ENDBRANCH   2   3
ENDBRANCH   1   2
BRANCH   1  18
ATOM     18  C   UNL     1      75.405  89.376  69.470  1.00  0.00     0.001 C 
BRANCH  18  19
ATOM     19  C   UNL     1      76.198  89.595  68.177  1.00  0.00     0.000 C 
BRANCH  19  20
ATOM     20  C   UNL     1      77.397  88.654  68.036  1.00  0.00     0.000 C 
BRANCH  20  21
ATOM     21  C   UNL     1      77.004  87.216  67.678  1.00  0.00     0.000 C 
BRANCH  21  22
ATOM     22  C   UNL     1      77.169  86.235  68.844  1.00  0.00     0.003 C 
BRANCH  22  23
ATOM     23  C   UNL     1      75.830  85.768  69.448  1.00  0.00    -0.017 C 
ATOM     24  C   UNL     1      76.010  84.398  70.107  1.00  0.00     0.007 C 
ATOM     25  C   UNL     1      74.711  85.695  68.408  1.00  0.00     0.007 C 
ENDBRANCH  22  23
ENDBRANCH  21  22
ENDBRANCH  20  21
ENDBRANCH  19  20
ENDBRANCH  18  19
ENDBRANCH   1  18
TORSDOF 12
ENDMDL
MODEL 9
REMARK VINA RESULT:    -5.845     12.862     14.561
REMARK INTER + INTRA:         -10.859
REMARK INTER:                 -10.152
REMARK INTRA:                  -0.707
REMARK UNBOUND:                -1.084
REMARK SMILES COc1cc(CNC(=O)CCCCCCCC(C)C)ccc1O
REMARK SMILES IDX 11 1 10 2 8 3 9 4 7 5 6 7 5 8 4 9 20 10 3 11 21 12 22 13
REMARK SMILES IDX 2 14 1 15 23 16 12 18 13 19 14 20 15 21 16 22 17 23 18 24
REMARK SMILES IDX 19 25
REMARK H PARENT 7 6 23 17
REMARK Flexibility Score: inf
ROOT
ATOM      1  C   UNL     1      96.585  83.567  78.751  1.00  0.00     0.010 C 
ENDROOT
BRANCH   1   2
ATOM      2  C   UNL     1      98.048  83.170  78.941  1.00  0.00     0.100 C 
BRANCH   2   3
ATOM      3  C   UNL     1      98.349  82.735  80.365  1.00  0.00     0.220 C 
ATOM      4  O   UNL     1      99.480  82.470  80.764  1.00  0.00    -0.275 OA
ATOM      5  N   UNL     1      97.196  82.671  81.133  1.00  0.00    -0.352 N 
ATOM      6  H   UNL     1      96.299  82.898  80.713  1.00  0.00     0.163 HD
BRANCH   5   7
ATOM      7  C   UNL     1      97.201  82.275  82.523  1.00  0.00     0.151 C 
BRANCH   7   8
ATOM      8  C   UNL     1      96.087  82.919  83.295  1.00  0.00    -0.025 A 
ATOM      9  C   UNL     1      95.008  82.150  83.715  1.00  0.00     0.056 A 
ATOM     10  C   UNL     1      96.145  84.278  83.580  1.00  0.00     0.009 A 
ATOM     11  C   UNL     1      93.972  82.749  84.432  1.00  0.00     0.160 A 
ATOM     12  C   UNL     1      95.108  84.877  84.297  1.00  0.00     0.050 A 
ATOM     13  C   UNL     1      94.022  84.113  84.723  1.00  0.00     0.157 A 
BRANCH  11  14
ATOM     14  O   UNL     1      92.916  81.993  84.843  1.00  0.00    -0.493 OA
ATOM     15  C   UNL     1      93.044  81.330  86.100  1.00  0.00     0.278 C 
ENDBRANCH  11  14
BRANCH  13  16
ATOM     16  O   UNL     1      93.017  84.709  85.422  1.00  0.00    -0.504 OA
ATOM     17  H   UNL     1      92.198  84.668  84.898  1.00  0.00     0.293 HD
ENDBRANCH  13  16
ENDBRANCH   7   8
ENDBRANCH   5   7
ENDBRANCH   2   3
ENDBRANCH   1   2
BRANCH   1  18
ATOM     18  C   UNL     1      96.251  84.001  77.321  1.00  0.00     0.001 C 
BRANCH  18  19
ATOM     19  C   UNL     1      97.358  83.782  76.285  1.00  0.00     0.000 C 
BRANCH  19  20
ATOM     20  C   UNL     1      97.109  84.522  74.968  1.00  0.00     0.000 C 
BRANCH  20  21
ATOM     21  C   UNL     1      97.606  83.759  73.736  1.00  0.00     0.000 C 
BRANCH  21  22
ATOM     22  C   UNL     1      99.110  83.918  73.490  1.00  0.00     0.003 C 
BRANCH  22  23
ATOM     23  C   UNL     1      99.459  85.101  72.565  1.00  0.00    -0.017 C 
ATOM     24  C   UNL     1     100.367  84.620  71.430  1.00  0.00     0.007 C 
ATOM     25  C   UNL     1     100.136  86.250  73.313  1.00  0.00     0.007 C 
ENDBRANCH  22  23
ENDBRANCH  21  22
ENDBRANCH  20  21
ENDBRANCH  19  20
ENDBRANCH  18  19
ENDBRANCH   1  18
TORSDOF 12
ENDMDL
MODEL 10
REMARK VINA RESULT:    -5.701      1.928      2.447
REMARK INTER + INTRA:         -10.618
REMARK INTER:                  -9.804
REMARK INTRA:                  -0.814
REMARK UNBOUND:                -1.084
REMARK SMILES COc1cc(CNC(=O)CCCCCCCC(C)C)ccc1O
REMARK SMILES IDX 11 1 10 2 8 3 9 4 7 5 6 7 5 8 4 9 20 10 3 11 21 12 22 13
REMARK SMILES IDX 2 14 1 15 23 16 12 18 13 19 14 20 15 21 16 22 17 23 18 24
REMARK SMILES IDX 19 25
REMARK H PARENT 7 6 23 17
REMARK Flexibility Score: inf
ROOT
ATOM      1  C   UNL     1      94.528  97.837  75.331  1.00  0.00     0.010 C 
ENDROOT
BRANCH   1   2
ATOM      2  C   UNL     1      95.630  98.882  75.174  1.00  0.00     0.100 C 
BRANCH   2   3
ATOM      3  C   UNL     1      96.932  98.454  75.832  1.00  0.00     0.220 C 
ATOM      4  O   UNL     1      97.945  98.172  75.199  1.00  0.00    -0.275 OA
ATOM      5  N   UNL     1      96.816  98.417  77.214  1.00  0.00    -0.352 N 
ATOM      6  H   UNL     1      95.930  98.657  77.650  1.00  0.00     0.163 HD
BRANCH   5   7
ATOM      7  C   UNL     1      97.907  98.033  78.080  1.00  0.00     0.151 C 
BRANCH   7   8
ATOM      8  C   UNL     1      97.436  97.204  79.240  1.00  0.00    -0.025 A 
ATOM      9  C   UNL     1      98.020  97.376  80.490  1.00  0.00     0.056 A 
ATOM     10  C   UNL     1      96.422  96.273  79.052  1.00  0.00     0.009 A 
ATOM     11  C   UNL     1      97.583  96.605  81.567  1.00  0.00     0.160 A 
ATOM     12  C   UNL     1      95.985  95.502  80.131  1.00  0.00     0.050 A 
ATOM     13  C   UNL     1      96.565  95.668  81.388  1.00  0.00     0.157 A 
BRANCH  11  14
ATOM     14  O   UNL     1      98.158  96.776  82.791  1.00  0.00    -0.493 OA
ATOM     15  C   UNL     1      98.825  98.015  83.025  1.00  0.00     0.278 C 
ENDBRANCH  11  14
BRANCH  13  16
ATOM     16  O   UNL     1      96.129  94.910  82.432  1.00  0.00    -0.504 OA
ATOM     17  H   UNL     1      95.171  94.768  82.342  1.00  0.00     0.293 HD
ENDBRANCH  13  16
ENDBRANCH   7   8
ENDBRANCH   5   7
ENDBRANCH   2   3
ENDBRANCH   1   2
BRANCH   1  18
ATOM     18  C   UNL     1      93.972  97.745  76.754  1.00  0.00     0.001 C 
BRANCH  18  19
ATOM     19  C   UNL     1      92.699  96.907  76.918  1.00  0.00     0.000 C 
BRANCH  19  20
ATOM     20  C   UNL     1      92.936  95.585  77.654  1.00  0.00     0.000 C 
BRANCH  20  21
ATOM     21  C   UNL     1      91.729  94.641  77.615  1.00  0.00     0.000 C 
BRANCH  21  22
ATOM     22  C   UNL     1      90.552  95.194  76.804  1.00  0.00     0.003 C 
BRANCH  22  23
ATOM     23  C   UNL     1      89.746  94.104  76.071  1.00  0.00    -0.017 C 
ATOM     24  C   UNL     1      89.797  92.799  76.869  1.00  0.00     0.007 C 
ATOM     25  C   UNL     1      90.251  93.857  74.649  1.00  0.00     0.007 C 
ENDBRANCH  22  23
ENDBRANCH  21  22
ENDBRANCH  20  21
ENDBRANCH  19  20
ENDBRANCH  18  19
ENDBRANCH   1  18
TORSDOF 12
ENDMDL
