MODEL 1
REMARK VINA RESULT:    -6.157      0.000      0.000
REMARK INTER + INTRA:         -10.796
REMARK INTER:                  -9.576
REMARK INTRA:                  -1.220
REMARK UNBOUND:                -1.220
REMARK SMILES CCCCC/C=C/C(=O)CCc1ccc(O)c(OC)c1
REMARK SMILES IDX 6 1 7 2 8 3 9 4 10 5 11 6 12 7 17 8 20 9 15 10 14 11 13 12
REMARK SMILES IDX 18 13 19 14 16 15 5 17 4 18 3 19 2 20 1 21
REMARK H PARENT 16 16
REMARK Flexibility Score: inf
ROOT
ATOM      1  C   UNL     1      92.670  94.808  77.896  1.00  0.00    -0.023 C 
ATOM      2  C   UNL     1      92.511  96.048  77.419  1.00  0.00     0.043 C 
ENDROOT
BRANCH   2   3
ATOM      3  C   UNL     1      93.603  96.687  76.635  1.00  0.00     0.155 C 
ATOM      4  O   UNL     1      93.370  97.487  75.731  1.00  0.00    -0.295 OA
BRANCH   3   5
ATOM      5  C   UNL     1      95.018  96.260  76.974  1.00  0.00     0.085 C 
BRANCH   5   6
ATOM      6  C   UNL     1      95.538  96.995  78.211  1.00  0.00     0.044 C 
BRANCH   6   7
ATOM      7  C   UNL     1      95.514  96.140  79.456  1.00  0.00    -0.044 A 
ATOM      8  C   UNL     1      95.206  95.938  81.827  1.00  0.00     0.160 A 
ATOM      9  C   UNL     1      95.228  96.728  80.677  1.00  0.00     0.054 A 
ATOM     10  C   UNL     1      95.470  94.571  81.740  1.00  0.00     0.157 A 
ATOM     11  C   UNL     1      95.757  93.994  80.502  1.00  0.00     0.050 A 
ATOM     12  C   UNL     1      95.779  94.784  79.353  1.00  0.00     0.008 A 
BRANCH   8  13
ATOM     13  O   UNL     1      94.925  96.513  83.030  1.00  0.00    -0.493 OA
ATOM     14  C   UNL     1      95.473  97.807  83.273  1.00  0.00     0.278 C 
ENDBRANCH   8  13
BRANCH  10  15
ATOM     15  O   UNL     1      95.450  93.789  82.855  1.00  0.00    -0.504 OA
ATOM     16  H   UNL     1      94.665  94.023  83.378  1.00  0.00     0.293 HD
ENDBRANCH  10  15
ENDBRANCH   6   7
ENDBRANCH   5   6
ENDBRANCH   3   5
ENDBRANCH   2   3
BRANCH   1  17
ATOM     17  C   UNL     1      91.618  94.095  78.695  1.00  0.00     0.027 C 
BRANCH  17  18
ATOM     18  C   UNL     1      90.192  94.435  78.251  1.00  0.00     0.004 C 
BRANCH  18  19
ATOM     19  C   UNL     1      89.507  93.307  77.472  1.00  0.00     0.000 C 
BRANCH  19  20
ATOM     20  C   UNL     1      89.924  93.320  76.001  1.00  0.00    -0.003 C 
ATOM     21  C   UNL     1      90.965  92.251  75.708  1.00  0.00     0.004 C 
ENDBRANCH  19  20
ENDBRANCH  18  19
ENDBRANCH  17  18
ENDBRANCH   1  17
TORSDOF 10
ENDMDL
MODEL 2
REMARK VINA RESULT:    -6.018      1.470      2.562
REMARK INTER + INTRA:         -10.580
REMARK INTER:                  -9.385
REMARK INTRA:                  -1.196
REMARK UNBOUND:                -1.220
REMARK SMILES CCCCC/C=C/C(=O)CCc1ccc(O)c(OC)c1
REMARK SMILES IDX 6 1 7 2 8 3 9 4 10 5 11 6 12 7 17 8 20 9 15 10 14 11 13 12
REMARK SMILES IDX 18 13 19 14 16 15 5 17 4 18 3 19 2 20 1 21
REMARK H PARENT 16 16
REMARK Flexibility Score: inf
ROOT
ATOM      1  C   UNL     1      93.646  95.631  76.604  1.00  0.00    -0.023 C 
ATOM      2  C   UNL     1      93.842  96.947  76.461  1.00  0.00     0.043 C 
ENDROOT
BRANCH   2   3
ATOM      3  C   UNL     1      95.220  97.474  76.259  1.00  0.00     0.155 C 
ATOM      4  O   UNL     1      95.581  97.950  75.185  1.00  0.00    -0.295 OA
BRANCH   3   5
ATOM      5  C   UNL     1      96.172  97.344  77.432  1.00  0.00     0.085 C 
BRANCH   5   6
ATOM      6  C   UNL     1      95.849  98.364  78.525  1.00  0.00     0.044 C 
BRANCH   6   7
ATOM      7  C   UNL     1      95.583  97.723  79.866  1.00  0.00    -0.044 A 
ATOM      8  C   UNL     1      94.912  95.813  81.155  1.00  0.00     0.160 A 
ATOM      9  C   UNL     1      95.157  96.405  79.916  1.00  0.00     0.054 A 
ATOM     10  C   UNL     1      95.094  96.547  82.328  1.00  0.00     0.157 A 
ATOM     11  C   UNL     1      95.522  97.873  82.260  1.00  0.00     0.050 A 
ATOM     12  C   UNL     1      95.768  98.465  81.021  1.00  0.00     0.008 A 
BRANCH   8  13
ATOM     13  O   UNL     1      94.494  94.518  81.208  1.00  0.00    -0.493 OA
ATOM     14  C   UNL     1      94.189  93.884  79.967  1.00  0.00     0.278 C 
ENDBRANCH   8  13
BRANCH  10  15
ATOM     15  O   UNL     1      94.858  95.980  83.543  1.00  0.00    -0.504 OA
ATOM     16  H   UNL     1      93.904  95.805  83.619  1.00  0.00     0.293 HD
ENDBRANCH  10  15
ENDBRANCH   6   7
ENDBRANCH   5   6
ENDBRANCH   3   5
ENDBRANCH   2   3
BRANCH   1  17
ATOM     17  C   UNL     1      92.289  95.022  76.812  1.00  0.00     0.027 C 
BRANCH  17  18
ATOM     18  C   UNL     1      91.405  95.834  77.764  1.00  0.00     0.004 C 
BRANCH  18  19
ATOM     19  C   UNL     1      89.904  95.625  77.536  1.00  0.00     0.000 C 
BRANCH  19  20
ATOM     20  C   UNL     1      89.605  94.184  77.120  1.00  0.00    -0.003 C 
ATOM     21  C   UNL     1      89.255  93.319  78.320  1.00  0.00     0.004 C 
ENDBRANCH  19  20
ENDBRANCH  18  19
ENDBRANCH  17  18
ENDBRANCH   1  17
TORSDOF 10
ENDMDL
MODEL 3
REMARK VINA RESULT:    -5.751     21.528     26.021
REMARK INTER + INTRA:         -10.165
REMARK INTER:                  -8.991
REMARK INTRA:                  -1.174
REMARK UNBOUND:                -1.220
REMARK SMILES CCCCC/C=C/C(=O)CCc1ccc(O)c(OC)c1
REMARK SMILES IDX 6 1 7 2 8 3 9 4 10 5 11 6 12 7 17 8 20 9 15 10 14 11 13 12
REMARK SMILES IDX 18 13 19 14 16 15 5 17 4 18 3 19 2 20 1 21
REMARK H PARENT 16 16
REMARK Flexibility Score: inf
ROOT
ATOM      1  C   UNL     1      77.602  85.991  67.211  1.00  0.00    -0.023 C 
ATOM      2  C   UNL     1      78.187  84.813  66.959  1.00  0.00     0.043 C 
ENDROOT
BRANCH   2   3
ATOM      3  C   UNL     1      77.654  83.936  65.881  1.00  0.00     0.155 C 
ATOM      4  O   UNL     1      77.553  84.324  64.719  1.00  0.00    -0.295 OA
BRANCH   3   5
ATOM      5  C   UNL     1      77.192  82.554  66.300  1.00  0.00     0.085 C 
BRANCH   5   6
ATOM      6  C   UNL     1      75.807  82.604  66.948  1.00  0.00     0.044 C 
BRANCH   6   7
ATOM      7  C   UNL     1      74.727  82.016  66.071  1.00  0.00    -0.044 A 
ATOM      8  C   UNL     1      72.405  81.789  65.511  1.00  0.00     0.160 A 
ATOM      9  C   UNL     1      73.402  82.332  66.322  1.00  0.00     0.054 A 
ATOM     10  C   UNL     1      72.746  80.938  64.461  1.00  0.00     0.157 A 
ATOM     11  C   UNL     1      74.085  80.629  64.221  1.00  0.00     0.050 A 
ATOM     12  C   UNL     1      75.082  81.172  65.032  1.00  0.00     0.008 A 
BRANCH   8  13
ATOM     13  O   UNL     1      71.100  82.099  65.756  1.00  0.00    -0.493 OA
ATOM     14  C   UNL     1      70.637  83.367  65.296  1.00  0.00     0.278 C 
ENDBRANCH   8  13
BRANCH  10  15
ATOM     15  O   UNL     1      71.781  80.402  63.663  1.00  0.00    -0.504 OA
ATOM     16  H   UNL     1      72.209  80.038  62.869  1.00  0.00     0.293 HD
ENDBRANCH  10  15
ENDBRANCH   6   7
ENDBRANCH   5   6
ENDBRANCH   3   5
ENDBRANCH   2   3
BRANCH   1  17
ATOM     17  C   UNL     1      78.077  86.931  68.280  1.00  0.00     0.027 C 
BRANCH  17  18
ATOM     18  C   UNL     1      77.608  86.534  69.684  1.00  0.00     0.004 C 
BRANCH  18  19
ATOM     19  C   UNL     1      76.084  86.467  69.825  1.00  0.00     0.000 C 
BRANCH  19  20
ATOM     20  C   UNL     1      75.646  85.147  70.461  1.00  0.00    -0.003 C 
ATOM     21  C   UNL     1      76.835  84.243  70.744  1.00  0.00     0.004 C 
ENDBRANCH  19  20
ENDBRANCH  18  19
ENDBRANCH  17  18
ENDBRANCH   1  17
TORSDOF 10
ENDMDL
MODEL 4
REMARK VINA RESULT:    -5.708     31.500     34.209
REMARK INTER + INTRA:         -10.098
REMARK INTER:                  -8.479
REMARK INTRA:                  -1.619
REMARK UNBOUND:                -1.220
REMARK SMILES CCCCC/C=C/C(=O)CCc1ccc(O)c(OC)c1
REMARK SMILES IDX 6 1 7 2 8 3 9 4 10 5 11 6 12 7 17 8 20 9 15 10 14 11 13 12
REMARK SMILES IDX 18 13 19 14 16 15 5 17 4 18 3 19 2 20 1 21
REMARK H PARENT 16 16
REMARK Flexibility Score: inf
ROOT
ATOM      1  C   UNL     1      61.813  83.874  69.882  1.00  0.00    -0.023 C 
ATOM      2  C   UNL     1      63.003  83.910  69.270  1.00  0.00     0.043 C 
ENDROOT
BRANCH   2   3
ATOM      3  C   UNL     1      63.906  82.730  69.336  1.00  0.00     0.155 C 
ATOM      4  O   UNL     1      63.746  81.749  68.612  1.00  0.00    -0.295 OA
BRANCH   3   5
ATOM      5  C   UNL     1      65.005  82.777  70.379  1.00  0.00     0.085 C 
BRANCH   5   6
ATOM      6  C   UNL     1      64.817  81.685  71.433  1.00  0.00     0.044 C 
BRANCH   6   7
ATOM      7  C   UNL     1      63.891  82.101  72.552  1.00  0.00    -0.044 A 
ATOM      8  C   UNL     1      63.291  83.659  74.276  1.00  0.00     0.160 A 
ATOM      9  C   UNL     1      64.146  83.275  73.243  1.00  0.00     0.054 A 
ATOM     10  C   UNL     1      62.192  82.865  74.603  1.00  0.00     0.157 A 
ATOM     11  C   UNL     1      61.949  81.686  73.898  1.00  0.00     0.050 A 
ATOM     12  C   UNL     1      62.805  81.302  72.866  1.00  0.00     0.008 A 
BRANCH   8  13
ATOM     13  O   UNL     1      63.539  84.812  74.957  1.00  0.00    -0.493 OA
ATOM     14  C   UNL     1      64.564  84.772  75.949  1.00  0.00     0.278 C 
ENDBRANCH   8  13
BRANCH  10  15
ATOM     15  O   UNL     1      61.349  83.230  75.609  1.00  0.00    -0.504 OA
ATOM     16  H   UNL     1      60.551  82.677  75.554  1.00  0.00     0.293 HD
ENDBRANCH  10  15
ENDBRANCH   6   7
ENDBRANCH   5   6
ENDBRANCH   3   5
ENDBRANCH   2   3
BRANCH   1  17
ATOM     17  C   UNL     1      60.845  85.022  69.863  1.00  0.00     0.027 C 
BRANCH  17  18
ATOM     18  C   UNL     1      59.552  84.732  70.633  1.00  0.00     0.004 C 
BRANCH  18  19
ATOM     19  C   UNL     1      59.782  84.376  72.105  1.00  0.00     0.000 C 
BRANCH  19  20
ATOM     20  C   UNL     1      60.058  85.629  72.939  1.00  0.00    -0.003 C 
ATOM     21  C   UNL     1      58.921  86.632  72.830  1.00  0.00     0.004 C 
ENDBRANCH  19  20
ENDBRANCH  18  19
ENDBRANCH  17  18
ENDBRANCH   1  17
TORSDOF 10
ENDMDL
MODEL 5
REMARK VINA RESULT:    -5.423     22.044     25.340
REMARK INTER + INTRA:          -9.655
REMARK INTER:                  -8.462
REMARK INTRA:                  -1.193
REMARK UNBOUND:                -1.220
REMARK SMILES CCCCC/C=C/C(=O)CCc1ccc(O)c(OC)c1
REMARK SMILES IDX 6 1 7 2 8 3 9 4 10 5 11 6 12 7 17 8 20 9 15 10 14 11 13 12
REMARK SMILES IDX 18 13 19 14 16 15 5 17 4 18 3 19 2 20 1 21
REMARK H PARENT 16 16
REMARK Flexibility Score: inf
ROOT
ATOM      1  C   UNL     1      76.571  84.583  69.093  1.00  0.00    -0.023 C 
ATOM      2  C   UNL     1      77.810  84.601  68.587  1.00  0.00     0.043 C 
ENDROOT
BRANCH   2   3
ATOM      3  C   UNL     1      78.069  84.024  67.239  1.00  0.00     0.155 C 
ATOM      4  O   UNL     1      78.967  83.208  67.045  1.00  0.00    -0.295 OA
BRANCH   3   5
ATOM      5  C   UNL     1      77.200  84.535  66.107  1.00  0.00     0.085 C 
BRANCH   5   6
ATOM      6  C   UNL     1      77.110  83.514  64.972  1.00  0.00     0.044 C 
BRANCH   6   7
ATOM      7  C   UNL     1      75.867  82.660  65.048  1.00  0.00    -0.044 A 
ATOM      8  C   UNL     1      73.680  82.255  65.950  1.00  0.00     0.160 A 
ATOM      9  C   UNL     1      74.828  83.044  65.881  1.00  0.00     0.054 A 
ATOM     10  C   UNL     1      73.586  81.092  65.187  1.00  0.00     0.157 A 
ATOM     11  C   UNL     1      74.640  80.717  64.353  1.00  0.00     0.050 A 
ATOM     12  C   UNL     1      75.788  81.507  64.284  1.00  0.00     0.008 A 
BRANCH   8  13
ATOM     13  O   UNL     1      72.658  82.631  66.769  1.00  0.00    -0.493 OA
ATOM     14  C   UNL     1      72.148  83.953  66.604  1.00  0.00     0.278 C 
ENDBRANCH   8  13
BRANCH  10  15
ATOM     15  O   UNL     1      72.470  80.313  65.246  1.00  0.00    -0.504 OA
ATOM     16  H   UNL     1      72.659  79.473  64.794  1.00  0.00     0.293 HD
ENDBRANCH  10  15
ENDBRANCH   6   7
ENDBRANCH   5   6
ENDBRANCH   3   5
ENDBRANCH   2   3
BRANCH   1  17
ATOM     17  C   UNL     1      76.228  85.143  70.443  1.00  0.00     0.027 C 
BRANCH  17  18
ATOM     18  C   UNL     1      75.142  86.223  70.388  1.00  0.00     0.004 C 
BRANCH  18  19
ATOM     19  C   UNL     1      75.036  86.918  69.027  1.00  0.00     0.000 C 
BRANCH  19  20
ATOM     20  C   UNL     1      76.123  87.982  68.865  1.00  0.00    -0.003 C 
ATOM     21  C   UNL     1      76.693  87.985  67.456  1.00  0.00     0.004 C 
ENDBRANCH  19  20
ENDBRANCH  18  19
ENDBRANCH  17  18
ENDBRANCH   1  17
TORSDOF 10
ENDMDL
MODEL 6
REMARK VINA RESULT:    -5.369     18.013     21.593
REMARK INTER + INTRA:          -9.571
REMARK INTER:                  -8.842
REMARK INTRA:                  -0.729
REMARK UNBOUND:                -1.220
REMARK SMILES CCCCC/C=C/C(=O)CCc1ccc(O)c(OC)c1
REMARK SMILES IDX 6 1 7 2 8 3 9 4 10 5 11 6 12 7 17 8 20 9 15 10 14 11 13 12
REMARK SMILES IDX 18 13 19 14 16 15 5 17 4 18 3 19 2 20 1 21
REMARK H PARENT 16 16
REMARK Flexibility Score: inf
ROOT
ATOM      1  C   UNL     1      75.127  91.239  71.375  1.00  0.00    -0.023 C 
ATOM      2  C   UNL     1      74.855  90.216  70.555  1.00  0.00     0.043 C 
ENDROOT
BRANCH   2   3
ATOM      3  C   UNL     1      74.438  88.904  71.120  1.00  0.00     0.155 C 
ATOM      4  O   UNL     1      73.587  88.819  72.004  1.00  0.00    -0.295 OA
BRANCH   3   5
ATOM      5  C   UNL     1      75.154  87.679  70.586  1.00  0.00     0.085 C 
BRANCH   5   6
ATOM      6  C   UNL     1      76.458  88.061  69.884  1.00  0.00     0.044 C 
BRANCH   6   7
ATOM      7  C   UNL     1      77.050  86.924  69.085  1.00  0.00    -0.044 A 
ATOM      8  C   UNL     1      77.381  85.821  66.980  1.00  0.00     0.160 A 
ATOM      9  C   UNL     1      76.834  86.871  67.718  1.00  0.00     0.054 A 
ATOM     10  C   UNL     1      78.136  84.838  67.619  1.00  0.00     0.157 A 
ATOM     11  C   UNL     1      78.344  84.905  68.998  1.00  0.00     0.050 A 
ATOM     12  C   UNL     1      77.797  85.955  69.735  1.00  0.00     0.008 A 
BRANCH   8  13
ATOM     13  O   UNL     1      77.171  85.766  65.635  1.00  0.00    -0.493 OA
ATOM     14  C   UNL     1      76.949  87.004  64.963  1.00  0.00     0.278 C 
ENDBRANCH   8  13
BRANCH  10  15
ATOM     15  O   UNL     1      78.676  83.808  66.910  1.00  0.00    -0.504 OA
ATOM     16  H   UNL     1      79.452  83.478  67.394  1.00  0.00     0.293 HD
ENDBRANCH  10  15
ENDBRANCH   6   7
ENDBRANCH   5   6
ENDBRANCH   3   5
ENDBRANCH   2   3
BRANCH   1  17
ATOM     17  C   UNL     1      75.554  92.592  70.885  1.00  0.00     0.027 C 
BRANCH  17  18
ATOM     18  C   UNL     1      76.314  93.402  71.940  1.00  0.00     0.004 C 
BRANCH  18  19
ATOM     19  C   UNL     1      77.646  92.770  72.358  1.00  0.00     0.000 C 
BRANCH  19  20
ATOM     20  C   UNL     1      78.094  93.282  73.727  1.00  0.00    -0.003 C 
ATOM     21  C   UNL     1      77.106  92.898  74.817  1.00  0.00     0.004 C 
ENDBRANCH  19  20
ENDBRANCH  18  19
ENDBRANCH  17  18
ENDBRANCH   1  17
TORSDOF 10
ENDMDL
MODEL 7
REMARK VINA RESULT:    -5.334     19.050     22.202
REMARK INTER + INTRA:          -9.517
REMARK INTER:                  -8.903
REMARK INTRA:                  -0.614
REMARK UNBOUND:                -1.220
REMARK SMILES CCCCC/C=C/C(=O)CCc1ccc(O)c(OC)c1
REMARK SMILES IDX 6 1 7 2 8 3 9 4 10 5 11 6 12 7 17 8 20 9 15 10 14 11 13 12
REMARK SMILES IDX 18 13 19 14 16 15 5 17 4 18 3 19 2 20 1 21
REMARK H PARENT 16 16
REMARK Flexibility Score: inf
ROOT
ATOM      1  C   UNL     1      77.971  84.420  67.819  1.00  0.00    -0.023 C 
ATOM      2  C   UNL     1      78.045  85.715  68.148  1.00  0.00     0.043 C 
ENDROOT
BRANCH   2   3
ATOM      3  C   UNL     1      77.676  86.153  69.521  1.00  0.00     0.155 C 
ATOM      4  O   UNL     1      77.941  85.475  70.512  1.00  0.00    -0.295 OA
BRANCH   3   5
ATOM      5  C   UNL     1      76.909  87.457  69.632  1.00  0.00     0.085 C 
BRANCH   5   6
ATOM      6  C   UNL     1      75.548  87.245  70.297  1.00  0.00     0.044 C 
BRANCH   6   7
ATOM      7  C   UNL     1      74.983  88.511  70.896  1.00  0.00    -0.044 A 
ATOM      8  C   UNL     1      75.152  90.872  71.294  1.00  0.00     0.160 A 
ATOM      9  C   UNL     1      75.674  89.702  70.741  1.00  0.00     0.054 A 
ATOM     10  C   UNL     1      73.947  90.834  71.996  1.00  0.00     0.157 A 
ATOM     11  C   UNL     1      73.263  89.627  72.144  1.00  0.00     0.050 A 
ATOM     12  C   UNL     1      73.786  88.457  71.590  1.00  0.00     0.008 A 
BRANCH   8  13
ATOM     13  O   UNL     1      75.829  92.044  71.143  1.00  0.00    -0.493 OA
ATOM     14  C   UNL     1      76.812  92.357  72.128  1.00  0.00     0.278 C 
ENDBRANCH   8  13
BRANCH  10  15
ATOM     15  O   UNL     1      73.427  91.969  72.540  1.00  0.00    -0.504 OA
ATOM     16  H   UNL     1      73.295  92.618  71.827  1.00  0.00     0.293 HD
ENDBRANCH  10  15
ENDBRANCH   6   7
ENDBRANCH   5   6
ENDBRANCH   3   5
ENDBRANCH   2   3
BRANCH   1  17
ATOM     17  C   UNL     1      78.325  83.898  66.456  1.00  0.00     0.027 C 
BRANCH  17  18
ATOM     18  C   UNL     1      77.097  83.573  65.599  1.00  0.00     0.004 C 
BRANCH  18  19
ATOM     19  C   UNL     1      76.926  82.077  65.313  1.00  0.00     0.000 C 
BRANCH  19  20
ATOM     20  C   UNL     1      75.897  81.449  66.254  1.00  0.00    -0.003 C 
ATOM     21  C   UNL     1      74.695  82.359  66.452  1.00  0.00     0.004 C 
ENDBRANCH  19  20
ENDBRANCH  18  19
ENDBRANCH  17  18
ENDBRANCH   1  17
TORSDOF 10
ENDMDL
MODEL 8
REMARK VINA RESULT:    -5.296     21.069     24.086
REMARK INTER + INTRA:          -9.457
REMARK INTER:                  -8.585
REMARK INTRA:                  -0.872
REMARK UNBOUND:                -1.220
REMARK SMILES CCCCC/C=C/C(=O)CCc1ccc(O)c(OC)c1
REMARK SMILES IDX 6 1 7 2 8 3 9 4 10 5 11 6 12 7 17 8 20 9 15 10 14 11 13 12
REMARK SMILES IDX 18 13 19 14 16 15 5 17 4 18 3 19 2 20 1 21
REMARK H PARENT 16 16
REMARK Flexibility Score: inf
ROOT
ATOM      1  C   UNL     1      76.009  83.515  67.327  1.00  0.00    -0.023 C 
ATOM      2  C   UNL     1      76.949  84.316  66.810  1.00  0.00     0.043 C 
ENDROOT
BRANCH   2   3
ATOM      3  C   UNL     1      77.791  85.149  67.711  1.00  0.00     0.155 C 
ATOM      4  O   UNL     1      78.703  84.665  68.378  1.00  0.00    -0.295 OA
BRANCH   3   5
ATOM      5  C   UNL     1      77.433  86.619  67.803  1.00  0.00     0.085 C 
BRANCH   5   6
ATOM      6  C   UNL     1      77.457  87.107  69.253  1.00  0.00     0.044 C 
BRANCH   6   7
ATOM      7  C   UNL     1      76.085  87.458  69.778  1.00  0.00    -0.044 A 
ATOM      8  C   UNL     1      73.764  86.909  70.045  1.00  0.00     0.160 A 
ATOM      9  C   UNL     1      75.031  86.585  69.560  1.00  0.00     0.054 A 
ATOM     10  C   UNL     1      73.568  88.102  70.741  1.00  0.00     0.157 A 
ATOM     11  C   UNL     1      74.639  88.970  70.952  1.00  0.00     0.050 A 
ATOM     12  C   UNL     1      75.906  88.646  70.467  1.00  0.00     0.008 A 
BRANCH   8  13
ATOM     13  O   UNL     1      72.726  86.053  69.832  1.00  0.00    -0.493 OA
ATOM     14  C   UNL     1      72.776  85.254  68.652  1.00  0.00     0.278 C 
ENDBRANCH   8  13
BRANCH  10  15
ATOM     15  O   UNL     1      72.335  88.429  71.220  1.00  0.00    -0.504 OA
ATOM     16  H   UNL     1      72.090  89.300  70.862  1.00  0.00     0.293 HD
ENDBRANCH  10  15
ENDBRANCH   6   7
ENDBRANCH   5   6
ENDBRANCH   3   5
ENDBRANCH   2   3
BRANCH   1  17
ATOM     17  C   UNL     1      75.120  82.645  66.488  1.00  0.00     0.027 C 
BRANCH  17  18
ATOM     18  C   UNL     1      75.897  81.736  65.529  1.00  0.00     0.004 C 
BRANCH  18  19
ATOM     19  C   UNL     1      75.002  80.963  64.555  1.00  0.00     0.000 C 
BRANCH  19  20
ATOM     20  C   UNL     1      73.546  80.967  65.022  1.00  0.00    -0.003 C 
ATOM     21  C   UNL     1      72.637  80.277  64.018  1.00  0.00     0.004 C 
ENDBRANCH  19  20
ENDBRANCH  18  19
ENDBRANCH  17  18
ENDBRANCH   1  17
TORSDOF 10
ENDMDL
MODEL 9
REMARK VINA RESULT:    -5.293     30.078     34.156
REMARK INTER + INTRA:          -9.453
REMARK INTER:                  -8.085
REMARK INTRA:                  -1.368
REMARK UNBOUND:                -1.220
REMARK SMILES CCCCC/C=C/C(=O)CCc1ccc(O)c(OC)c1
REMARK SMILES IDX 6 1 7 2 8 3 9 4 10 5 11 6 12 7 17 8 20 9 15 10 14 11 13 12
REMARK SMILES IDX 18 13 19 14 16 15 5 17 4 18 3 19 2 20 1 21
REMARK H PARENT 16 16
REMARK Flexibility Score: inf
ROOT
ATOM      1  C   UNL     1      62.294  84.760  72.908  1.00  0.00    -0.023 C 
ATOM      2  C   UNL     1      61.427  83.761  73.111  1.00  0.00     0.043 C 
ENDROOT
BRANCH   2   3
ATOM      3  C   UNL     1      61.758  82.675  74.073  1.00  0.00     0.155 C 
ATOM      4  O   UNL     1      61.695  82.844  75.289  1.00  0.00    -0.295 OA
BRANCH   3   5
ATOM      5  C   UNL     1      62.229  81.363  73.477  1.00  0.00     0.085 C 
BRANCH   5   6
ATOM      6  C   UNL     1      63.740  81.373  73.237  1.00  0.00     0.044 C 
BRANCH   6   7
ATOM      7  C   UNL     1      64.110  81.812  71.840  1.00  0.00    -0.044 A 
ATOM      8  C   UNL     1      65.733  82.681  70.301  1.00  0.00     0.160 A 
ATOM      9  C   UNL     1      65.392  82.276  71.591  1.00  0.00     0.054 A 
ATOM     10  C   UNL     1      64.789  82.616  69.276  1.00  0.00     0.157 A 
ATOM     11  C   UNL     1      63.502  82.146  69.543  1.00  0.00     0.050 A 
ATOM     12  C   UNL     1      63.161  81.742  70.833  1.00  0.00     0.008 A 
BRANCH   8  13
ATOM     13  O   UNL     1      66.992  83.138  70.054  1.00  0.00    -0.493 OA
ATOM     14  C   UNL     1      67.377  84.355  70.691  1.00  0.00     0.278 C 
ENDBRANCH   8  13
BRANCH  10  15
ATOM     15  O   UNL     1      65.110  83.008  68.012  1.00  0.00    -0.504 OA
ATOM     16  H   UNL     1      65.690  82.332  67.621  1.00  0.00     0.293 HD
ENDBRANCH  10  15
ENDBRANCH   6   7
ENDBRANCH   5   6
ENDBRANCH   3   5
ENDBRANCH   2   3
BRANCH   1  17
ATOM     17  C   UNL     1      62.035  85.891  71.955  1.00  0.00     0.027 C 
BRANCH  17  18
ATOM     18  C   UNL     1      60.987  85.552  70.890  1.00  0.00     0.004 C 
BRANCH  18  19
ATOM     19  C   UNL     1      59.821  86.544  70.839  1.00  0.00     0.000 C 
BRANCH  19  20
ATOM     20  C   UNL     1      58.476  85.816  70.865  1.00  0.00    -0.003 C 
ATOM     21  C   UNL     1      58.590  84.413  70.291  1.00  0.00     0.004 C 
ENDBRANCH  19  20
ENDBRANCH  18  19
ENDBRANCH  17  18
ENDBRANCH   1  17
TORSDOF 10
ENDMDL
MODEL 10
REMARK VINA RESULT:    -5.292     22.103     26.967
REMARK INTER + INTRA:          -9.452
REMARK INTER:                  -8.353
REMARK INTRA:                  -1.098
REMARK UNBOUND:                -1.220
REMARK SMILES CCCCC/C=C/C(=O)CCc1ccc(O)c(OC)c1
REMARK SMILES IDX 6 1 7 2 8 3 9 4 10 5 11 6 12 7 17 8 20 9 15 10 14 11 13 12
REMARK SMILES IDX 18 13 19 14 16 15 5 17 4 18 3 19 2 20 1 21
REMARK H PARENT 16 16
REMARK Flexibility Score: inf
ROOT
ATOM      1  C   UNL     1      76.593  83.779  67.308  1.00  0.00    -0.023 C 
ATOM      2  C   UNL     1      77.180  82.871  66.519  1.00  0.00     0.043 C 
ENDROOT
BRANCH   2   3
ATOM      3  C   UNL     1      76.789  82.770  65.087  1.00  0.00     0.155 C 
ATOM      4  O   UNL     1      76.848  83.735  64.328  1.00  0.00    -0.295 OA
BRANCH   3   5
ATOM      5  C   UNL     1      76.264  81.425  64.622  1.00  0.00     0.085 C 
BRANCH   5   6
ATOM      6  C   UNL     1      75.130  80.932  65.522  1.00  0.00     0.044 C 
BRANCH   6   7
ATOM      7  C   UNL     1      73.762  81.293  64.994  1.00  0.00    -0.044 A 
ATOM      8  C   UNL     1      71.654  82.405  65.282  1.00  0.00     0.160 A 
ATOM      9  C   UNL     1      72.918  82.071  65.770  1.00  0.00     0.054 A 
ATOM     10  C   UNL     1      71.251  81.957  64.024  1.00  0.00     0.157 A 
ATOM     11  C   UNL     1      72.113  81.174  63.254  1.00  0.00     0.050 A 
ATOM     12  C   UNL     1      73.376  80.840  63.743  1.00  0.00     0.008 A 
BRANCH   8  13
ATOM     13  O   UNL     1      70.823  83.169  66.043  1.00  0.00    -0.493 OA
ATOM     14  C   UNL     1      70.406  82.625  67.294  1.00  0.00     0.278 C 
ENDBRANCH   8  13
BRANCH  10  15
ATOM     15  O   UNL     1      70.021  82.276  63.536  1.00  0.00    -0.504 OA
ATOM     16  H   UNL     1      69.697  83.060  64.013  1.00  0.00     0.293 HD
ENDBRANCH  10  15
ENDBRANCH   6   7
ENDBRANCH   5   6
ENDBRANCH   3   5
ENDBRANCH   2   3
BRANCH   1  17
ATOM     17  C   UNL     1      76.931  83.944  68.762  1.00  0.00     0.027 C 
BRANCH  17  18
ATOM     18  C   UNL     1      77.313  85.381  69.131  1.00  0.00     0.004 C 
BRANCH  18  19
ATOM     19  C   UNL     1      78.256  86.044  68.122  1.00  0.00     0.000 C 
BRANCH  19  20
ATOM     20  C   UNL     1      77.654  87.340  67.575  1.00  0.00    -0.003 C 
ATOM     21  C   UNL     1      77.205  87.178  66.131  1.00  0.00     0.004 C 
ENDBRANCH  19  20
ENDBRANCH  18  19
ENDBRANCH  17  18
ENDBRANCH   1  17
TORSDOF 10
ENDMDL
