MODEL 1
REMARK VINA RESULT:    -6.545      0.000      0.000
REMARK INTER + INTRA:         -11.017
REMARK INTER:                 -10.180
REMARK INTRA:                  -0.837
REMARK UNBOUND:                -0.837
REMARK SMILES CCCCC/C=C/C(=O)CCc1ccc(O)c(OC)c1
REMARK SMILES IDX 6 1 7 2 8 3 9 4 10 5 11 6 12 7 17 8 20 9 15 10 14 11 13 12
REMARK SMILES IDX 18 13 19 14 16 15 5 17 4 18 3 19 2 20 1 21
REMARK H PARENT 16 16
REMARK Flexibility Score: inf
ROOT
ATOM      1  C   UNL     1      92.990  93.920  75.047  1.00  0.00    -0.023 C 
ATOM      2  C   UNL     1      93.754  94.902  75.542  1.00  0.00     0.043 C 
ENDROOT
BRANCH   2   3
ATOM      3  C   UNL     1      95.231  94.733  75.605  1.00  0.00     0.155 C 
ATOM      4  O   UNL     1      95.781  93.693  75.246  1.00  0.00    -0.295 OA
BRANCH   3   5
ATOM      5  C   UNL     1      96.020  95.890  76.184  1.00  0.00     0.085 C 
BRANCH   5   6
ATOM      6  C   UNL     1      97.061  95.403  77.194  1.00  0.00     0.044 C 
BRANCH   6   7
ATOM      7  C   UNL     1      96.496  95.233  78.584  1.00  0.00    -0.044 A 
ATOM      8  C   UNL     1      96.015  96.141  80.753  1.00  0.00     0.160 A 
ATOM      9  C   UNL     1      96.537  96.299  79.469  1.00  0.00     0.054 A 
ATOM     10  C   UNL     1      95.460  94.920  81.135  1.00  0.00     0.157 A 
ATOM     11  C   UNL     1      95.427  93.856  80.233  1.00  0.00     0.050 A 
ATOM     12  C   UNL     1      95.949  94.014  78.949  1.00  0.00     0.008 A 
BRANCH   8  13
ATOM     13  O   UNL     1      96.054  97.188  81.624  1.00  0.00    -0.493 OA
ATOM     14  C   UNL     1      97.157  98.085  81.512  1.00  0.00     0.278 C 
ENDBRANCH   8  13
BRANCH  10  15
ATOM     15  O   UNL     1      94.947  94.754  82.386  1.00  0.00    -0.504 OA
ATOM     16  H   UNL     1      95.038  93.817  82.631  1.00  0.00     0.293 HD
ENDBRANCH  10  15
ENDBRANCH   6   7
ENDBRANCH   5   6
ENDBRANCH   3   5
ENDBRANCH   2   3
BRANCH   1  17
ATOM     17  C   UNL     1      91.495  94.013  74.951  1.00  0.00     0.027 C 
BRANCH  17  18
ATOM     18  C   UNL     1      90.825  94.346  76.288  1.00  0.00     0.004 C 
BRANCH  18  19
ATOM     19  C   UNL     1      90.106  93.155  76.928  1.00  0.00     0.000 C 
BRANCH  19  20
ATOM     20  C   UNL     1      91.095  92.235  77.647  1.00  0.00    -0.003 C 
ATOM     21  C   UNL     1      90.381  91.272  78.582  1.00  0.00     0.004 C 
ENDBRANCH  19  20
ENDBRANCH  18  19
ENDBRANCH  17  18
ENDBRANCH   1  17
TORSDOF 10
ENDMDL
MODEL 2
REMARK VINA RESULT:    -6.121     12.606     16.574
REMARK INTER + INTRA:         -10.357
REMARK INTER:                  -8.771
REMARK INTRA:                  -1.586
REMARK UNBOUND:                -0.837
REMARK SMILES CCCCC/C=C/C(=O)CCc1ccc(O)c(OC)c1
REMARK SMILES IDX 6 1 7 2 8 3 9 4 10 5 11 6 12 7 17 8 20 9 15 10 14 11 13 12
REMARK SMILES IDX 18 13 19 14 16 15 5 17 4 18 3 19 2 20 1 21
REMARK H PARENT 16 16
REMARK Flexibility Score: inf
ROOT
ATOM      1  C   UNL     1      81.973  86.328  85.863  1.00  0.00    -0.023 C 
ATOM      2  C   UNL     1      80.949  86.023  85.057  1.00  0.00     0.043 C 
ENDROOT
BRANCH   2   3
ATOM      3  C   UNL     1      80.568  86.951  83.958  1.00  0.00     0.155 C 
ATOM      4  O   UNL     1      80.827  86.704  82.782  1.00  0.00    -0.295 OA
BRANCH   3   5
ATOM      5  C   UNL     1      79.891  88.244  84.369  1.00  0.00     0.085 C 
BRANCH   5   6
ATOM      6  C   UNL     1      80.768  89.456  84.051  1.00  0.00     0.044 C 
BRANCH   6   7
ATOM      7  C   UNL     1      81.624  89.885  85.220  1.00  0.00    -0.044 A 
ATOM      8  C   UNL     1      83.706  90.721  86.069  1.00  0.00     0.160 A 
ATOM      9  C   UNL     1      82.917  90.324  84.990  1.00  0.00     0.054 A 
ATOM     10  C   UNL     1      83.192  90.672  87.365  1.00  0.00     0.157 A 
ATOM     11  C   UNL     1      81.888  90.226  87.581  1.00  0.00     0.050 A 
ATOM     12  C   UNL     1      81.099  89.830  86.501  1.00  0.00     0.008 A 
BRANCH   8  13
ATOM     13  O   UNL     1      84.979  91.154  85.845  1.00  0.00    -0.493 OA
ATOM     14  C   UNL     1      85.790  90.362  84.980  1.00  0.00     0.278 C 
ENDBRANCH   8  13
BRANCH  10  15
ATOM     15  O   UNL     1      83.953  91.057  88.427  1.00  0.00    -0.504 OA
ATOM     16  H   UNL     1      84.884  90.860  88.223  1.00  0.00     0.293 HD
ENDBRANCH  10  15
ENDBRANCH   6   7
ENDBRANCH   5   6
ENDBRANCH   3   5
ENDBRANCH   2   3
BRANCH   1  17
ATOM     17  C   UNL     1      82.419  85.446  86.993  1.00  0.00     0.027 C 
BRANCH  17  18
ATOM     18  C   UNL     1      81.934  85.932  88.363  1.00  0.00     0.004 C 
BRANCH  18  19
ATOM     19  C   UNL     1      80.529  86.540  88.337  1.00  0.00     0.000 C 
BRANCH  19  20
ATOM     20  C   UNL     1      80.221  87.277  89.641  1.00  0.00    -0.003 C 
ATOM     21  C   UNL     1      79.189  88.373  89.432  1.00  0.00     0.004 C 
ENDBRANCH  19  20
ENDBRANCH  18  19
ENDBRANCH  17  18
ENDBRANCH   1  17
TORSDOF 10
ENDMDL
MODEL 3
REMARK VINA RESULT:    -5.952      3.614      8.264
REMARK INTER + INTRA:         -10.095
REMARK INTER:                  -9.090
REMARK INTRA:                  -1.006
REMARK UNBOUND:                -0.837
REMARK SMILES CCCCC/C=C/C(=O)CCc1ccc(O)c(OC)c1
REMARK SMILES IDX 6 1 7 2 8 3 9 4 10 5 11 6 12 7 17 8 20 9 15 10 14 11 13 12
REMARK SMILES IDX 18 13 19 14 16 15 5 17 4 18 3 19 2 20 1 21
REMARK H PARENT 16 16
REMARK Flexibility Score: inf
ROOT
ATOM      1  C   UNL     1      95.000  93.932  77.239  1.00  0.00    -0.023 C 
ATOM      2  C   UNL     1      93.776  94.312  77.625  1.00  0.00     0.043 C 
ENDROOT
BRANCH   2   3
ATOM      3  C   UNL     1      92.576  93.682  77.010  1.00  0.00     0.155 C 
ATOM      4  O   UNL     1      91.906  92.842  77.608  1.00  0.00    -0.295 OA
BRANCH   3   5
ATOM      5  C   UNL     1      92.251  94.091  75.587  1.00  0.00     0.085 C 
BRANCH   5   6
ATOM      6  C   UNL     1      92.574  92.969  74.599  1.00  0.00     0.044 C 
BRANCH   6   7
ATOM      7  C   UNL     1      91.353  92.188  74.177  1.00  0.00    -0.044 A 
ATOM      8  C   UNL     1      90.086  90.150  74.197  1.00  0.00     0.160 A 
ATOM      9  C   UNL     1      91.215  90.871  74.586  1.00  0.00     0.054 A 
ATOM     10  C   UNL     1      89.110  90.754  73.404  1.00  0.00     0.157 A 
ATOM     11  C   UNL     1      89.264  92.081  73.000  1.00  0.00     0.050 A 
ATOM     12  C   UNL     1      90.393  92.802  73.390  1.00  0.00     0.008 A 
BRANCH   8  13
ATOM     13  O   UNL     1      89.947  88.855  74.597  1.00  0.00    -0.493 OA
ATOM     14  C   UNL     1      90.148  88.579  75.982  1.00  0.00     0.278 C 
ENDBRANCH   8  13
BRANCH  10  15
ATOM     15  O   UNL     1      88.004  90.061  73.018  1.00  0.00    -0.504 OA
ATOM     16  H   UNL     1      87.887  89.309  73.624  1.00  0.00     0.293 HD
ENDBRANCH  10  15
ENDBRANCH   6   7
ENDBRANCH   5   6
ENDBRANCH   3   5
ENDBRANCH   2   3
BRANCH   1  17
ATOM     17  C   UNL     1      96.259  94.518  77.809  1.00  0.00     0.027 C 
BRANCH  17  18
ATOM     18  C   UNL     1      97.162  95.152  76.746  1.00  0.00     0.004 C 
BRANCH  18  19
ATOM     19  C   UNL     1      97.094  96.683  76.717  1.00  0.00     0.000 C 
BRANCH  19  20
ATOM     20  C   UNL     1      96.180  97.173  75.592  1.00  0.00    -0.003 C 
ATOM     21  C   UNL     1      96.079  96.151  74.471  1.00  0.00     0.004 C 
ENDBRANCH  19  20
ENDBRANCH  18  19
ENDBRANCH  17  18
ENDBRANCH   1  17
TORSDOF 10
ENDMDL
MODEL 4
REMARK VINA RESULT:    -5.852      3.394      8.018
REMARK INTER + INTRA:          -9.939
REMARK INTER:                  -9.294
REMARK INTRA:                  -0.645
REMARK UNBOUND:                -0.837
REMARK SMILES CCCCC/C=C/C(=O)CCc1ccc(O)c(OC)c1
REMARK SMILES IDX 6 1 7 2 8 3 9 4 10 5 11 6 12 7 17 8 20 9 15 10 14 11 13 12
REMARK SMILES IDX 18 13 19 14 16 15 5 17 4 18 3 19 2 20 1 21
REMARK H PARENT 16 16
REMARK Flexibility Score: inf
ROOT
ATOM      1  C   UNL     1      94.971  94.512  75.385  1.00  0.00    -0.023 C 
ATOM      2  C   UNL     1      94.021  94.468  76.328  1.00  0.00     0.043 C 
ENDROOT
BRANCH   2   3
ATOM      3  C   UNL     1      92.701  93.852  76.022  1.00  0.00     0.155 C 
ATOM      4  O   UNL     1      92.265  93.789  74.875  1.00  0.00    -0.295 OA
BRANCH   3   5
ATOM      5  C   UNL     1      91.897  93.354  77.207  1.00  0.00     0.085 C 
BRANCH   5   6
ATOM      6  C   UNL     1      90.418  93.197  76.848  1.00  0.00     0.044 C 
BRANCH   6   7
ATOM      7  C   UNL     1      90.064  91.794  76.416  1.00  0.00    -0.044 A 
ATOM      8  C   UNL     1      89.258  90.282  74.736  1.00  0.00     0.160 A 
ATOM      9  C   UNL     1      89.584  91.579  75.134  1.00  0.00     0.054 A 
ATOM     10  C   UNL     1      89.416  89.218  75.623  1.00  0.00     0.157 A 
ATOM     11  C   UNL     1      89.900  89.451  76.911  1.00  0.00     0.050 A 
ATOM     12  C   UNL     1      90.226  90.748  77.310  1.00  0.00     0.008 A 
BRANCH   8  13
ATOM     13  O   UNL     1      88.786  90.068  73.476  1.00  0.00    -0.493 OA
ATOM     14  C   UNL     1      89.690  90.296  72.396  1.00  0.00     0.278 C 
ENDBRANCH   8  13
BRANCH  10  15
ATOM     15  O   UNL     1      89.101  87.948  75.246  1.00  0.00    -0.504 OA
ATOM     16  H   UNL     1      89.168  87.372  76.026  1.00  0.00     0.293 HD
ENDBRANCH  10  15
ENDBRANCH   6   7
ENDBRANCH   5   6
ENDBRANCH   3   5
ENDBRANCH   2   3
BRANCH   1  17
ATOM     17  C   UNL     1      96.326  95.116  75.614  1.00  0.00     0.027 C 
BRANCH  17  18
ATOM     18  C   UNL     1      96.360  96.087  76.799  1.00  0.00     0.004 C 
BRANCH  18  19
ATOM     19  C   UNL     1      97.071  95.523  78.034  1.00  0.00     0.000 C 
BRANCH  19  20
ATOM     20  C   UNL     1      96.097  95.350  79.200  1.00  0.00    -0.003 C 
ATOM     21  C   UNL     1      96.428  96.292  80.347  1.00  0.00     0.004 C 
ENDBRANCH  19  20
ENDBRANCH  18  19
ENDBRANCH  17  18
ENDBRANCH   1  17
TORSDOF 10
ENDMDL
MODEL 5
REMARK VINA RESULT:    -5.799     13.859     16.642
REMARK INTER + INTRA:          -9.856
REMARK INTER:                  -8.346
REMARK INTRA:                  -1.510
REMARK UNBOUND:                -0.837
REMARK SMILES CCCCC/C=C/C(=O)CCc1ccc(O)c(OC)c1
REMARK SMILES IDX 6 1 7 2 8 3 9 4 10 5 11 6 12 7 17 8 20 9 15 10 14 11 13 12
REMARK SMILES IDX 18 13 19 14 16 15 5 17 4 18 3 19 2 20 1 21
REMARK H PARENT 16 16
REMARK Flexibility Score: inf
ROOT
ATOM      1  C   UNL     1      82.014  86.437  85.911  1.00  0.00    -0.023 C 
ATOM      2  C   UNL     1      80.983  86.149  85.108  1.00  0.00     0.043 C 
ENDROOT
BRANCH   2   3
ATOM      3  C   UNL     1      80.614  87.083  84.010  1.00  0.00     0.155 C 
ATOM      4  O   UNL     1      80.889  86.845  82.836  1.00  0.00    -0.295 OA
BRANCH   3   5
ATOM      5  C   UNL     1      79.926  88.371  84.420  1.00  0.00     0.085 C 
BRANCH   5   6
ATOM      6  C   UNL     1      80.754  89.593  84.022  1.00  0.00     0.044 C 
BRANCH   6   7
ATOM      7  C   UNL     1      81.894  89.867  84.975  1.00  0.00    -0.044 A 
ATOM      8  C   UNL     1      82.666  90.450  87.171  1.00  0.00     0.160 A 
ATOM      9  C   UNL     1      81.613  90.198  86.291  1.00  0.00     0.054 A 
ATOM     10  C   UNL     1      83.984  90.369  86.724  1.00  0.00     0.157 A 
ATOM     11  C   UNL     1      84.250  90.035  85.395  1.00  0.00     0.050 A 
ATOM     12  C   UNL     1      83.198  89.783  84.515  1.00  0.00     0.008 A 
BRANCH   8  13
ATOM     13  O   UNL     1      82.393  90.776  88.465  1.00  0.00    -0.493 OA
ATOM     14  C   UNL     1      81.132  91.389  88.728  1.00  0.00     0.278 C 
ENDBRANCH   8  13
BRANCH  10  15
ATOM     15  O   UNL     1      85.021  90.613  87.573  1.00  0.00    -0.504 OA
ATOM     16  H   UNL     1      84.729  91.267  88.231  1.00  0.00     0.293 HD
ENDBRANCH  10  15
ENDBRANCH   6   7
ENDBRANCH   5   6
ENDBRANCH   3   5
ENDBRANCH   2   3
BRANCH   1  17
ATOM     17  C   UNL     1      82.449  85.549  87.040  1.00  0.00     0.027 C 
BRANCH  17  18
ATOM     18  C   UNL     1      81.728  85.854  88.358  1.00  0.00     0.004 C 
BRANCH  18  19
ATOM     19  C   UNL     1      80.680  86.965  88.241  1.00  0.00     0.000 C 
BRANCH  19  20
ATOM     20  C   UNL     1      80.651  87.831  89.501  1.00  0.00    -0.003 C 
ATOM     21  C   UNL     1      82.003  87.847  90.197  1.00  0.00     0.004 C 
ENDBRANCH  19  20
ENDBRANCH  18  19
ENDBRANCH  17  18
ENDBRANCH   1  17
TORSDOF 10
ENDMDL
MODEL 6
REMARK VINA RESULT:    -5.789      3.394      7.826
REMARK INTER + INTRA:          -9.840
REMARK INTER:                  -9.035
REMARK INTRA:                  -0.805
REMARK UNBOUND:                -0.837
REMARK SMILES CCCCC/C=C/C(=O)CCc1ccc(O)c(OC)c1
REMARK SMILES IDX 6 1 7 2 8 3 9 4 10 5 11 6 12 7 17 8 20 9 15 10 14 11 13 12
REMARK SMILES IDX 18 13 19 14 16 15 5 17 4 18 3 19 2 20 1 21
REMARK H PARENT 16 16
REMARK Flexibility Score: inf
ROOT
ATOM      1  C   UNL     1      95.177  94.731  75.456  1.00  0.00    -0.023 C 
ATOM      2  C   UNL     1      94.221  94.387  76.328  1.00  0.00     0.043 C 
ENDROOT
BRANCH   2   3
ATOM      3  C   UNL     1      92.995  93.692  75.850  1.00  0.00     0.155 C 
ATOM      4  O   UNL     1      92.665  93.701  74.666  1.00  0.00    -0.295 OA
BRANCH   3   5
ATOM      5  C   UNL     1      92.144  93.016  76.907  1.00  0.00     0.085 C 
BRANCH   5   6
ATOM      6  C   UNL     1      90.674  92.967  76.489  1.00  0.00     0.044 C 
BRANCH   6   7
ATOM      7  C   UNL     1      90.239  91.594  76.032  1.00  0.00    -0.044 A 
ATOM      8  C   UNL     1      90.137  89.224  76.392  1.00  0.00     0.160 A 
ATOM      9  C   UNL     1      90.540  90.491  76.815  1.00  0.00     0.054 A 
ATOM     10  C   UNL     1      89.440  89.076  75.194  1.00  0.00     0.157 A 
ATOM     11  C   UNL     1      89.145  90.197  74.417  1.00  0.00     0.050 A 
ATOM     12  C   UNL     1      89.547  91.464  74.839  1.00  0.00     0.008 A 
BRANCH   8  13
ATOM     13  O   UNL     1      90.432  88.137  77.160  1.00  0.00    -0.493 OA
ATOM     14  C   UNL     1      89.724  88.001  78.391  1.00  0.00     0.278 C 
ENDBRANCH   8  13
BRANCH  10  15
ATOM     15  O   UNL     1      89.041  87.845  74.771  1.00  0.00    -0.504 OA
ATOM     16  H   UNL     1      88.678  87.933  73.873  1.00  0.00     0.293 HD
ENDBRANCH  10  15
ENDBRANCH   6   7
ENDBRANCH   5   6
ENDBRANCH   3   5
ENDBRANCH   2   3
BRANCH   1  17
ATOM     17  C   UNL     1      96.441  95.433  75.859  1.00  0.00     0.027 C 
BRANCH  17  18
ATOM     18  C   UNL     1      96.300  96.226  77.162  1.00  0.00     0.004 C 
BRANCH  18  19
ATOM     19  C   UNL     1      97.166  95.688  78.305  1.00  0.00     0.000 C 
BRANCH  19  20
ATOM     20  C   UNL     1      96.415  94.630  79.115  1.00  0.00    -0.003 C 
ATOM     21  C   UNL     1      95.222  95.228  79.843  1.00  0.00     0.004 C 
ENDBRANCH  19  20
ENDBRANCH  18  19
ENDBRANCH  17  18
ENDBRANCH   1  17
TORSDOF 10
ENDMDL
MODEL 7
REMARK VINA RESULT:    -5.609      3.904      7.902
REMARK INTER + INTRA:          -9.562
REMARK INTER:                  -8.989
REMARK INTRA:                  -0.573
REMARK UNBOUND:                -0.837
REMARK SMILES CCCCC/C=C/C(=O)CCc1ccc(O)c(OC)c1
REMARK SMILES IDX 6 1 7 2 8 3 9 4 10 5 11 6 12 7 17 8 20 9 15 10 14 11 13 12
REMARK SMILES IDX 18 13 19 14 16 15 5 17 4 18 3 19 2 20 1 21
REMARK H PARENT 16 16
REMARK Flexibility Score: inf
ROOT
ATOM      1  C   UNL     1      95.914  95.318  75.079  1.00  0.00    -0.023 C 
ATOM      2  C   UNL     1      94.814  95.509  75.818  1.00  0.00     0.043 C 
ENDROOT
BRANCH   2   3
ATOM      3  C   UNL     1      93.650  94.596  75.665  1.00  0.00     0.155 C 
ATOM      4  O   UNL     1      93.084  94.441  74.585  1.00  0.00    -0.295 OA
BRANCH   3   5
ATOM      5  C   UNL     1      93.163  93.904  76.924  1.00  0.00     0.085 C 
BRANCH   5   6
ATOM      6  C   UNL     1      91.638  93.787  76.939  1.00  0.00     0.044 C 
BRANCH   6   7
ATOM      7  C   UNL     1      91.160  92.354  76.912  1.00  0.00    -0.044 A 
ATOM      8  C   UNL     1      90.944  90.261  75.759  1.00  0.00     0.160 A 
ATOM      9  C   UNL     1      91.386  91.584  75.783  1.00  0.00     0.054 A 
ATOM     10  C   UNL     1      90.281  89.726  76.864  1.00  0.00     0.157 A 
ATOM     11  C   UNL     1      90.060  90.515  77.993  1.00  0.00     0.050 A 
ATOM     12  C   UNL     1      90.502  91.838  78.017  1.00  0.00     0.008 A 
BRANCH   8  13
ATOM     13  O   UNL     1      91.166  89.501  74.650  1.00  0.00    -0.493 OA
ATOM     14  C   UNL     1      90.247  89.648  73.569  1.00  0.00     0.278 C 
ENDBRANCH   8  13
BRANCH  10  15
ATOM     15  O   UNL     1      89.845  88.436  76.853  1.00  0.00    -0.504 OA
ATOM     16  H   UNL     1      89.313  88.286  77.653  1.00  0.00     0.293 HD
ENDBRANCH  10  15
ENDBRANCH   6   7
ENDBRANCH   5   6
ENDBRANCH   3   5
ENDBRANCH   2   3
BRANCH   1  17
ATOM     17  C   UNL     1      97.129  96.194  75.174  1.00  0.00     0.027 C 
BRANCH  17  18
ATOM     18  C   UNL     1      97.311  97.104  73.954  1.00  0.00     0.004 C 
BRANCH  18  19
ATOM     19  C   UNL     1      98.403  96.628  72.990  1.00  0.00     0.000 C 
BRANCH  19  20
ATOM     20  C   UNL     1      97.800  95.878  71.801  1.00  0.00    -0.003 C 
ATOM     21  C   UNL     1      97.907  96.689  70.520  1.00  0.00     0.004 C 
ENDBRANCH  19  20
ENDBRANCH  18  19
ENDBRANCH  17  18
ENDBRANCH   1  17
TORSDOF 10
ENDMDL
MODEL 8
REMARK VINA RESULT:    -5.566      3.896      7.036
REMARK INTER + INTRA:          -9.495
REMARK INTER:                  -8.762
REMARK INTRA:                  -0.733
REMARK UNBOUND:                -0.837
REMARK SMILES CCCCC/C=C/C(=O)CCc1ccc(O)c(OC)c1
REMARK SMILES IDX 6 1 7 2 8 3 9 4 10 5 11 6 12 7 17 8 20 9 15 10 14 11 13 12
REMARK SMILES IDX 18 13 19 14 16 15 5 17 4 18 3 19 2 20 1 21
REMARK H PARENT 16 16
REMARK Flexibility Score: inf
ROOT
ATOM      1  C   UNL     1      94.783  97.566  74.184  1.00  0.00    -0.023 C 
ATOM      2  C   UNL     1      94.603  96.309  74.606  1.00  0.00     0.043 C 
ENDROOT
BRANCH   2   3
ATOM      3  C   UNL     1      95.411  95.784  75.741  1.00  0.00     0.155 C 
ATOM      4  O   UNL     1      96.348  96.420  76.219  1.00  0.00    -0.295 OA
BRANCH   3   5
ATOM      5  C   UNL     1      95.053  94.399  76.242  1.00  0.00     0.085 C 
BRANCH   5   6
ATOM      6  C   UNL     1      93.648  94.372  76.846  1.00  0.00     0.044 C 
BRANCH   6   7
ATOM      7  C   UNL     1      92.766  93.310  76.234  1.00  0.00    -0.044 A 
ATOM      8  C   UNL     1      91.005  91.695  76.458  1.00  0.00     0.160 A 
ATOM      9  C   UNL     1      91.820  92.676  77.024  1.00  0.00     0.054 A 
ATOM     10  C   UNL     1      91.147  91.361  75.112  1.00  0.00     0.157 A 
ATOM     11  C   UNL     1      92.105  92.008  74.330  1.00  0.00     0.050 A 
ATOM     12  C   UNL     1      92.919  92.989  74.896  1.00  0.00     0.008 A 
BRANCH   8  13
ATOM     13  O   UNL     1      90.074  91.070  77.233  1.00  0.00    -0.493 OA
ATOM     14  C   UNL     1      90.317  91.034  78.637  1.00  0.00     0.278 C 
ENDBRANCH   8  13
BRANCH  10  15
ATOM     15  O   UNL     1      90.357  90.405  74.549  1.00  0.00    -0.504 OA
ATOM     16  H   UNL     1      89.561  90.837  74.194  1.00  0.00     0.293 HD
ENDBRANCH  10  15
ENDBRANCH   6   7
ENDBRANCH   5   6
ENDBRANCH   3   5
ENDBRANCH   2   3
BRANCH   1  17
ATOM     17  C   UNL     1      94.009  98.169  73.048  1.00  0.00     0.027 C 
BRANCH  17  18
ATOM     18  C   UNL     1      94.193  99.686  72.933  1.00  0.00     0.004 C 
BRANCH  18  19
ATOM     19  C   UNL     1      92.878 100.470  72.984  1.00  0.00     0.000 C 
BRANCH  19  20
ATOM     20  C   UNL     1      92.580 100.956  74.404  1.00  0.00    -0.003 C 
ATOM     21  C   UNL     1      91.344 101.840  74.442  1.00  0.00     0.004 C 
ENDBRANCH  19  20
ENDBRANCH  18  19
ENDBRANCH  17  18
ENDBRANCH   1  17
TORSDOF 10
ENDMDL
MODEL 9
REMARK VINA RESULT:    -5.523     13.207     16.456
REMARK INTER + INTRA:          -9.427
REMARK INTER:                  -7.471
REMARK INTRA:                  -1.956
REMARK UNBOUND:                -0.837
REMARK SMILES CCCCC/C=C/C(=O)CCc1ccc(O)c(OC)c1
REMARK SMILES IDX 6 1 7 2 8 3 9 4 10 5 11 6 12 7 17 8 20 9 15 10 14 11 13 12
REMARK SMILES IDX 18 13 19 14 16 15 5 17 4 18 3 19 2 20 1 21
REMARK H PARENT 16 16
REMARK Flexibility Score: inf
ROOT
ATOM      1  C   UNL     1      82.305  89.112  84.693  1.00  0.00    -0.023 C 
ATOM      2  C   UNL     1      82.910  90.264  84.379  1.00  0.00     0.043 C 
ENDROOT
BRANCH   2   3
ATOM      3  C   UNL     1      84.301  90.522  84.841  1.00  0.00     0.155 C 
ATOM      4  O   UNL     1      85.277  90.074  84.243  1.00  0.00    -0.295 OA
BRANCH   3   5
ATOM      5  C   UNL     1      84.452  91.322  86.120  1.00  0.00     0.085 C 
BRANCH   5   6
ATOM      6  C   UNL     1      84.575  90.405  87.338  1.00  0.00     0.044 C 
BRANCH   6   7
ATOM      7  C   UNL     1      83.302  90.329  88.147  1.00  0.00    -0.044 A 
ATOM      8  C   UNL     1      82.069  89.417  89.993  1.00  0.00     0.160 A 
ATOM      9  C   UNL     1      83.245  89.486  89.245  1.00  0.00     0.054 A 
ATOM     10  C   UNL     1      80.966  90.190  89.632  1.00  0.00     0.157 A 
ATOM     11  C   UNL     1      81.039  91.034  88.523  1.00  0.00     0.050 A 
ATOM     12  C   UNL     1      82.215  91.104  87.776  1.00  0.00     0.008 A 
BRANCH   8  13
ATOM     13  O   UNL     1      82.010  88.589  91.073  1.00  0.00    -0.493 OA
ATOM     14  C   UNL     1      83.228  88.353  91.776  1.00  0.00     0.278 C 
ENDBRANCH   8  13
BRANCH  10  15
ATOM     15  O   UNL     1      79.812  90.132  90.354  1.00  0.00    -0.504 OA
ATOM     16  H   UNL     1      79.671  89.210  90.629  1.00  0.00     0.293 HD
ENDBRANCH  10  15
ENDBRANCH   6   7
ENDBRANCH   5   6
ENDBRANCH   3   5
ENDBRANCH   2   3
BRANCH   1  17
ATOM     17  C   UNL     1      80.906  88.777  84.267  1.00  0.00     0.027 C 
BRANCH  17  18
ATOM     18  C   UNL     1      80.079  88.119  85.377  1.00  0.00     0.004 C 
BRANCH  18  19
ATOM     19  C   UNL     1      80.913  87.684  86.587  1.00  0.00     0.000 C 
BRANCH  19  20
ATOM     20  C   UNL     1      80.022  87.138  87.703  1.00  0.00    -0.003 C 
ATOM     21  C   UNL     1      80.813  86.283  88.680  1.00  0.00     0.004 C 
ENDBRANCH  19  20
ENDBRANCH  18  19
ENDBRANCH  17  18
ENDBRANCH   1  17
TORSDOF 10
ENDMDL
MODEL 10
REMARK VINA RESULT:    -5.428     13.287     17.025
REMARK INTER + INTRA:          -9.279
REMARK INTER:                  -8.223
REMARK INTRA:                  -1.056
REMARK UNBOUND:                -0.837
REMARK SMILES CCCCC/C=C/C(=O)CCc1ccc(O)c(OC)c1
REMARK SMILES IDX 6 1 7 2 8 3 9 4 10 5 11 6 12 7 17 8 20 9 15 10 14 11 13 12
REMARK SMILES IDX 18 13 19 14 16 15 5 17 4 18 3 19 2 20 1 21
REMARK H PARENT 16 16
REMARK Flexibility Score: inf
ROOT
ATOM      1  C   UNL     1      83.260  91.898  87.702  1.00  0.00    -0.023 C 
ATOM      2  C   UNL     1      84.033  91.002  87.076  1.00  0.00     0.043 C 
ENDROOT
BRANCH   2   3
ATOM      3  C   UNL     1      84.419  91.220  85.656  1.00  0.00     0.155 C 
ATOM      4  O   UNL     1      85.148  92.150  85.317  1.00  0.00    -0.295 OA
BRANCH   3   5
ATOM      5  C   UNL     1      83.824  90.266  84.639  1.00  0.00     0.085 C 
BRANCH   5   6
ATOM      6  C   UNL     1      82.295  90.290  84.684  1.00  0.00     0.044 C 
BRANCH   6   7
ATOM      7  C   UNL     1      81.690  88.917  84.860  1.00  0.00    -0.044 A 
ATOM      8  C   UNL     1      81.562  86.847  86.067  1.00  0.00     0.160 A 
ATOM      9  C   UNL     1      82.121  88.115  85.905  1.00  0.00     0.054 A 
ATOM     10  C   UNL     1      80.581  86.398  85.184  1.00  0.00     0.157 A 
ATOM     11  C   UNL     1      80.158  87.218  84.137  1.00  0.00     0.050 A 
ATOM     12  C   UNL     1      80.717  88.486  83.974  1.00  0.00     0.008 A 
BRANCH   8  13
ATOM     13  O   UNL     1      81.984  86.056  87.094  1.00  0.00    -0.493 OA
ATOM     14  C   UNL     1      81.456  86.337  88.388  1.00  0.00     0.278 C 
ENDBRANCH   8  13
BRANCH  10  15
ATOM     15  O   UNL     1      80.027  85.163  85.333  1.00  0.00    -0.504 OA
ATOM     16  H   UNL     1      80.640  84.506  84.959  1.00  0.00     0.293 HD
ENDBRANCH  10  15
ENDBRANCH   6   7
ENDBRANCH   5   6
ENDBRANCH   3   5
ENDBRANCH   2   3
BRANCH   1  17
ATOM     17  C   UNL     1      82.826  91.751  89.132  1.00  0.00     0.027 C 
BRANCH  17  18
ATOM     18  C   UNL     1      81.803  90.630  89.339  1.00  0.00     0.004 C 
BRANCH  18  19
ATOM     19  C   UNL     1      80.956  90.797  90.604  1.00  0.00     0.000 C 
BRANCH  19  20
ATOM     20  C   UNL     1      79.768  89.833  90.604  1.00  0.00    -0.003 C 
ATOM     21  C   UNL     1      79.531  89.241  89.224  1.00  0.00     0.004 C 
ENDBRANCH  19  20
ENDBRANCH  18  19
ENDBRANCH  17  18
ENDBRANCH   1  17
TORSDOF 10
ENDMDL
