MODEL 1
REMARK VINA RESULT:    -8.152      0.000      0.000
REMARK INTER + INTRA:         -13.160
REMARK INTER:                 -13.871
REMARK INTRA:                   0.710
REMARK UNBOUND:                 0.710
REMARK SMILES C=C(C)[C@]12C[C@@H](C)[C@@]34O[C@](Cc5ccccc5)(O[C@@H]1[C@@H]3C=C(COC(=O)Cc1ccc(O)cc1)C[C@]1(O)C(=O)C(C)=C[C@@H]41)O2
REMARK SMILES IDX 23 1 22 2 21 3 20 4 9 5 8 6 10 7 6 8 18 10 44 11 19 12 5 13
REMARK SMILES IDX 7 14 4 15 11 16 12 17 13 18 17 19 14 20 16 21 15 22 2 23
REMARK SMILES IDX 3 24 1 25 35 26 36 27 43 28 38 29 42 30 39 32 40 33 41 34
REMARK SMILES IDX 37 35 24 37 25 38 26 39 27 40 28 41 29 42 34 43 30 44 33 45
REMARK SMILES IDX 31 46 32 47
REMARK H PARENT 37 36 32 48
REMARK Flexibility Score: 90.00
ROOT
ATOM      1  C   UNL     1      96.983  81.971  81.531  1.00  0.00     0.264 C 
ENDROOT
BRANCH   1   2
ATOM      2  C   UNL     1      96.464  81.447  82.850  1.00  0.00    -0.033 C 
ATOM      3  C   UNL     1      95.731  82.258  83.639  1.00  0.00    -0.015 C 
BRANCH   3   4
ATOM      4  C   UNL     1      95.164  82.001  85.027  1.00  0.00     0.078 C 
ATOM      5  O   UNL     1      92.855  81.171  84.719  1.00  0.00    -0.319 OA
ATOM      6  C   UNL     1      94.175  80.793  85.219  1.00  0.00     0.095 CG0
ATOM      7  C   UNL     1      92.422  82.500  85.069  1.00  0.00     0.289 C 
ATOM      8  C   UNL     1      94.081  80.493  86.772  1.00  0.00     0.023 C 
ATOM      9  G   UNL     1      94.596  79.587  84.329  1.00  0.00     0.000 G0
ATOM     10  O   UNL     1      93.346  83.483  84.612  1.00  0.00    -0.320 OA
ATOM     11  O   UNL     1      92.329  82.686  86.480  1.00  0.00    -0.313 OA
ATOM     12  C   UNL     1      94.424  83.263  85.535  1.00  0.00     0.170 C 
ATOM     13  C   UNL     1      94.221  81.797  87.616  1.00  0.00     0.049 C 
ATOM     14  C   UNL     1      92.826  79.726  87.222  1.00  0.00     0.011 C 
ATOM     15  C   UNL     1      93.678  83.016  86.868  1.00  0.00     0.122 C 
BRANCH   7  16
ATOM     16  C   UNL     1      91.064  82.739  84.438  1.00  0.00     0.135 C 
BRANCH  16  17
ATOM     17  C   UNL     1      90.232  81.482  84.394  1.00  0.00    -0.040 A 
ATOM     18  C   UNL     1      88.856  81.548  84.615  1.00  0.00     0.004 A 
ATOM     19  C   UNL     1      90.838  80.254  84.132  1.00  0.00     0.004 A 
ATOM     20  C   UNL     1      88.086  80.385  84.573  1.00  0.00     0.000 A 
ATOM     21  C   UNL     1      90.068  79.091  84.090  1.00  0.00     0.000 A 
ATOM     22  C   UNL     1      88.693  79.157  84.311  1.00  0.00     0.000 A 
ENDBRANCH  16  17
ENDBRANCH   7  16
BRANCH  15  23
ATOM     23  C   UNL     1      93.635  84.240  87.723  1.00  0.00    -0.046 C 
ATOM     24  C   UNL     1      93.973  84.048  89.172  1.00  0.00     0.042 C 
ATOM     25  C   UNL     1      93.312  85.443  87.224  1.00  0.00     0.010 C 
ENDBRANCH  15  23
ENDBRANCH   3   4
BRANCH   2  26
ATOM     26  C   UNL     1      96.853  80.004  83.111  1.00  0.00     0.078 C 
BRANCH  26  27
ATOM     27  C   UNL     1      96.148  79.288  84.262  1.00  0.00     0.140 C 
ATOM     28  C   UNL     1      94.638  79.604  84.307  1.00  0.00     0.086 CG0
ATOM     29  C   UNL     1      96.161  77.783  84.104  1.00  0.00     0.190 C 
ATOM     30  C   UNL     1      94.005  78.255  84.506  1.00  0.00    -0.010 C 
ATOM     31  G   UNL     1      94.213  80.789  85.222  1.00  0.00     0.000 G0
ATOM     32  O   UNL     1      97.145  77.107  83.840  1.00  0.00    -0.291 OA
ATOM     33  C   UNL     1      94.828  77.210  84.370  1.00  0.00    -0.008 C 
ATOM     34  C   UNL     1      94.542  75.762  84.415  1.00  0.00     0.048 C 
BRANCH  27  35
ATOM     35  O   UNL     1      96.815  79.505  85.494  1.00  0.00    -0.381 OA
ATOM     36  H   UNL     1      97.569  78.892  85.546  1.00  0.00     0.212 HD
ENDBRANCH  27  35
ENDBRANCH  26  27
ENDBRANCH   2  26
ENDBRANCH   1   2
BRANCH   1  37
ATOM     37  O   UNL     1      97.786  80.984  80.920  1.00  0.00    -0.461 OA
BRANCH  37  38
ATOM     38  C   UNL     1      98.798  81.441  80.107  1.00  0.00     0.310 C 
ATOM     39  O   UNL     1      99.778  82.065  80.489  1.00  0.00    -0.252 OA
BRANCH  38  40
ATOM     40  C   UNL     1      98.509  81.054  78.676  1.00  0.00     0.158 C 
BRANCH  40  41
ATOM     41  C   UNL     1      97.943  82.188  77.863  1.00  0.00    -0.037 A 
ATOM     42  C   UNL     1      96.837  82.899  78.331  1.00  0.00     0.008 A 
ATOM     43  C   UNL     1      98.523  82.529  76.642  1.00  0.00     0.008 A 
ATOM     44  C   UNL     1      96.312  83.949  77.578  1.00  0.00     0.046 A 
ATOM     45  C   UNL     1      97.999  83.579  75.888  1.00  0.00     0.046 A 
ATOM     46  C   UNL     1      96.893  84.289  76.356  1.00  0.00     0.115 A 
BRANCH  46  47
ATOM     47  O   UNL     1      96.381  85.313  75.621  1.00  0.00    -0.508 OA
ATOM     48  H   UNL     1      95.445  85.436  75.859  1.00  0.00     0.293 HD
ENDBRANCH  46  47
ENDBRANCH  40  41
ENDBRANCH  38  40
ENDBRANCH  37  38
ENDBRANCH   1  37
TORSDOF 10
ENDMDL
MODEL 2
REMARK VINA RESULT:    -8.004      2.580      4.336
REMARK INTER + INTRA:         -12.909
REMARK INTER:                 -12.225
REMARK INTRA:                  -0.684
REMARK UNBOUND:                 0.710
REMARK SMILES C=C(C)[C@]12C[C@@H](C)[C@@]34O[C@](Cc5ccccc5)(O[C@@H]1[C@@H]3C=C(COC(=O)Cc1ccc(O)cc1)C[C@]1(O)C(=O)C(C)=C[C@@H]41)O2
REMARK SMILES IDX 23 1 22 2 21 3 20 4 9 5 8 6 10 7 6 8 18 10 44 11 19 12 5 13
REMARK SMILES IDX 7 14 4 15 11 16 12 17 13 18 17 19 14 20 16 21 15 22 2 23
REMARK SMILES IDX 3 24 1 25 35 26 36 27 43 28 38 29 42 30 39 32 40 33 41 34
REMARK SMILES IDX 37 35 24 37 25 38 26 39 27 40 28 41 29 42 34 43 30 44 33 45
REMARK SMILES IDX 31 46 32 47
REMARK H PARENT 37 36 32 48
REMARK Flexibility Score: 90.00
ROOT
ATOM      1  C   UNL     1      96.989  83.562  79.573  1.00  0.00     0.264 C 
ENDROOT
BRANCH   1   2
ATOM      2  C   UNL     1      97.419  82.515  80.574  1.00  0.00    -0.033 C 
ATOM      3  C   UNL     1      97.216  82.737  81.889  1.00  0.00    -0.015 C 
BRANCH   3   4
ATOM      4  C   UNL     1      97.620  81.889  83.084  1.00  0.00     0.078 C 
ATOM      5  O   UNL     1      95.703  80.415  83.602  1.00  0.00    -0.319 OA
ATOM      6  C   UNL     1      97.097  80.408  83.162  1.00  0.00     0.095 CG0
ATOM      7  C   UNL     1      95.402  81.327  84.676  1.00  0.00     0.289 C 
ATOM      8  C   UNL     1      97.980  79.643  84.232  1.00  0.00     0.023 C 
ATOM      9  G   UNL     1      97.053  79.762  81.747  1.00  0.00     0.000 G0
ATOM     10  O   UNL     1      95.744  82.666  84.330  1.00  0.00    -0.320 OA
ATOM     11  O   UNL     1      96.141  81.034  85.860  1.00  0.00    -0.313 OA
ATOM     12  C   UNL     1      97.176  82.584  84.396  1.00  0.00     0.170 C 
ATOM     13  C   UNL     1      98.430  80.591  85.385  1.00  0.00     0.049 C 
ATOM     14  C   UNL     1      97.344  78.378  84.832  1.00  0.00     0.011 C 
ATOM     15  C   UNL     1      97.404  81.696  85.643  1.00  0.00     0.122 C 
BRANCH   7  16
ATOM     16  C   UNL     1      93.918  81.236  84.973  1.00  0.00     0.135 C 
BRANCH  16  17
ATOM     17  C   UNL     1      93.624  81.401  86.443  1.00  0.00    -0.040 A 
ATOM     18  C   UNL     1      93.299  80.289  87.219  1.00  0.00     0.004 A 
ATOM     19  C   UNL     1      93.676  82.667  87.026  1.00  0.00     0.004 A 
ATOM     20  C   UNL     1      93.027  80.442  88.579  1.00  0.00     0.000 A 
ATOM     21  C   UNL     1      93.404  82.820  88.386  1.00  0.00     0.000 A 
ATOM     22  C   UNL     1      93.080  81.708  89.162  1.00  0.00     0.000 A 
ENDBRANCH  16  17
ENDBRANCH   7  16
BRANCH  15  23
ATOM     23  C   UNL     1      97.725  82.505  86.857  1.00  0.00    -0.046 C 
ATOM     24  C   UNL     1      98.807  83.533  86.701  1.00  0.00     0.042 C 
ATOM     25  C   UNL     1      97.084  82.323  88.021  1.00  0.00     0.010 C 
ENDBRANCH  15  23
ENDBRANCH   3   4
BRANCH   2  26
ATOM     26  C   UNL     1      98.044  81.294  79.926  1.00  0.00     0.078 C 
BRANCH  26  27
ATOM     27  C   UNL     1      98.273  80.073  80.815  1.00  0.00     0.140 C 
ATOM     28  C   UNL     1      97.067  79.784  81.732  1.00  0.00     0.086 CG0
ATOM     29  C   UNL     1      98.391  78.790  80.019  1.00  0.00     0.190 C 
ATOM     30  C   UNL     1      96.867  78.300  81.591  1.00  0.00    -0.010 C 
ATOM     31  G   UNL     1      97.119  80.415  83.153  1.00  0.00     0.000 G0
ATOM     32  O   UNL     1      99.101  78.629  79.037  1.00  0.00    -0.291 OA
ATOM     33  C   UNL     1      97.576  77.717  80.619  1.00  0.00    -0.008 C 
ATOM     34  C   UNL     1      97.572  76.317  80.147  1.00  0.00     0.048 C 
BRANCH  27  35
ATOM     35  O   UNL     1      99.509  80.158  81.504  1.00  0.00    -0.381 OA
ATOM     36  H   UNL     1      99.859  79.258  81.618  1.00  0.00     0.212 HD
ENDBRANCH  27  35
ENDBRANCH  26  27
ENDBRANCH   2  26
ENDBRANCH   1   2
BRANCH   1  37
ATOM     37  O   UNL     1      96.606  82.930  78.370  1.00  0.00    -0.461 OA
BRANCH  37  38
ATOM     38  C   UNL     1      96.960  83.572  77.206  1.00  0.00     0.310 C 
ATOM     39  O   UNL     1      96.549  84.670  76.858  1.00  0.00    -0.252 OA
BRANCH  38  40
ATOM     40  C   UNL     1      97.930  82.713  76.431  1.00  0.00     0.158 C 
BRANCH  40  41
ATOM     41  C   UNL     1      98.553  83.436  75.265  1.00  0.00    -0.037 A 
ATOM     42  C   UNL     1      97.885  83.493  74.042  1.00  0.00     0.008 A 
ATOM     43  C   UNL     1      99.798  84.047  75.408  1.00  0.00     0.008 A 
ATOM     44  C   UNL     1      98.462  84.162  72.962  1.00  0.00     0.046 A 
ATOM     45  C   UNL     1     100.376  84.716  74.328  1.00  0.00     0.046 A 
ATOM     46  C   UNL     1      99.708  84.773  73.106  1.00  0.00     0.115 A 
BRANCH  46  47
ATOM     47  O   UNL     1     100.271  85.424  72.052  1.00  0.00    -0.508 OA
ATOM     48  H   UNL     1      99.605  86.007  71.648  1.00  0.00     0.293 HD
ENDBRANCH  46  47
ENDBRANCH  40  41
ENDBRANCH  38  40
ENDBRANCH  37  38
ENDBRANCH   1  37
TORSDOF 10
ENDMDL
MODEL 3
REMARK VINA RESULT:    -7.697      1.652      2.431
REMARK INTER + INTRA:         -12.385
REMARK INTER:                 -13.910
REMARK INTRA:                   1.524
REMARK UNBOUND:                 0.710
REMARK SMILES C=C(C)[C@]12C[C@@H](C)[C@@]34O[C@](Cc5ccccc5)(O[C@@H]1[C@@H]3C=C(COC(=O)Cc1ccc(O)cc1)C[C@]1(O)C(=O)C(C)=C[C@@H]41)O2
REMARK SMILES IDX 23 1 22 2 21 3 20 4 9 5 8 6 10 7 6 8 18 10 44 11 19 12 5 13
REMARK SMILES IDX 7 14 4 15 11 16 12 17 13 18 17 19 14 20 16 21 15 22 2 23
REMARK SMILES IDX 3 24 1 25 35 26 36 27 43 28 38 29 42 30 39 32 40 33 41 34
REMARK SMILES IDX 37 35 24 37 25 38 26 39 27 40 28 41 29 42 34 43 30 44 33 45
REMARK SMILES IDX 31 46 32 47
REMARK H PARENT 37 36 32 48
REMARK Flexibility Score: 90.00
ROOT
ATOM      1  C   UNL     1      97.167  81.757  80.984  1.00  0.00     0.264 C 
ENDROOT
BRANCH   1   2
ATOM      2  C   UNL     1      97.127  81.672  82.492  1.00  0.00    -0.033 C 
ATOM      3  C   UNL     1      96.168  82.341  83.164  1.00  0.00    -0.015 C 
BRANCH   3   4
ATOM      4  C   UNL     1      95.958  82.479  84.664  1.00  0.00     0.078 C 
ATOM      5  O   UNL     1      94.405  80.678  85.343  1.00  0.00    -0.319 OA
ATOM      6  C   UNL     1      95.770  81.171  85.517  1.00  0.00     0.095 CG0
ATOM      7  C   UNL     1      93.379  81.689  85.366  1.00  0.00     0.289 C 
ATOM      8  C   UNL     1      95.999  81.553  87.037  1.00  0.00     0.023 C 
ATOM      9  G   UNL     1      96.669  80.022  84.974  1.00  0.00     0.000 G0
ATOM     10  O   UNL     1      93.603  82.678  84.365  1.00  0.00    -0.320 OA
ATOM     11  O   UNL     1      93.341  82.395  86.604  1.00  0.00    -0.313 OA
ATOM     12  C   UNL     1      94.722  83.369  84.942  1.00  0.00     0.170 C 
ATOM     13  C   UNL     1      95.519  83.005  87.341  1.00  0.00     0.049 C 
ATOM     14  C   UNL     1      95.380  80.587  88.062  1.00  0.00     0.011 C 
ATOM     15  C   UNL     1      94.350  83.414  86.444  1.00  0.00     0.122 C 
BRANCH   7  16
ATOM     16  C   UNL     1      92.042  81.013  85.129  1.00  0.00     0.135 C 
BRANCH  16  17
ATOM     17  C   UNL     1      92.202  79.574  84.707  1.00  0.00    -0.040 A 
ATOM     18  C   UNL     1      91.150  78.911  84.077  1.00  0.00     0.004 A 
ATOM     19  C   UNL     1      93.403  78.907  84.948  1.00  0.00     0.004 A 
ATOM     20  C   UNL     1      91.298  77.580  83.686  1.00  0.00     0.000 A 
ATOM     21  C   UNL     1      93.551  77.576  84.557  1.00  0.00     0.000 A 
ATOM     22  C   UNL     1      92.499  76.913  83.926  1.00  0.00     0.000 A 
ENDBRANCH  16  17
ENDBRANCH   7  16
BRANCH  15  23
ATOM     23  C   UNL     1      93.757  84.728  86.837  1.00  0.00    -0.046 C 
ATOM     24  C   UNL     1      93.689  85.771  85.762  1.00  0.00     0.042 C 
ATOM     25  C   UNL     1      93.311  84.961  88.081  1.00  0.00     0.010 C 
ENDBRANCH  15  23
ENDBRANCH   3   4
BRANCH   2  26
ATOM     26  C   UNL     1      98.224  80.796  83.069  1.00  0.00     0.078 C 
BRANCH  26  27
ATOM     27  C   UNL     1      98.120  80.432  84.548  1.00  0.00     0.140 C 
ATOM     28  C   UNL     1      96.685  80.036  84.953  1.00  0.00     0.086 CG0
ATOM     29  C   UNL     1      98.911  79.189  84.896  1.00  0.00     0.190 C 
ATOM     30  C   UNL     1      96.883  78.788  85.768  1.00  0.00    -0.010 C 
ATOM     31  G   UNL     1      95.790  81.179  85.512  1.00  0.00     0.000 G0
ATOM     32  O   UNL     1     100.072  78.976  84.578  1.00  0.00    -0.291 OA
ATOM     33  C   UNL     1      98.115  78.272  85.734  1.00  0.00    -0.008 C 
ATOM     34  C   UNL     1      98.644  77.031  86.337  1.00  0.00     0.048 C 
BRANCH  27  35
ATOM     35  O   UNL     1      98.690  81.436  85.371  1.00  0.00    -0.381 OA
ATOM     36  H   UNL     1      99.393  81.032  85.906  1.00  0.00     0.212 HD
ENDBRANCH  27  35
ENDBRANCH  26  27
ENDBRANCH   2  26
ENDBRANCH   1   2
BRANCH   1  37
ATOM     37  O   UNL     1      97.504  80.492  80.454  1.00  0.00    -0.461 OA
BRANCH  37  38
ATOM     38  C   UNL     1      97.975  80.480  79.162  1.00  0.00     0.310 C 
ATOM     39  O   UNL     1      97.806  79.572  78.361  1.00  0.00    -0.252 OA
BRANCH  38  40
ATOM     40  C   UNL     1      98.730  81.759  78.889  1.00  0.00     0.158 C 
BRANCH  40  41
ATOM     41  C   UNL     1      98.081  82.610  77.828  1.00  0.00    -0.037 A 
ATOM     42  C   UNL     1      98.530  82.542  76.509  1.00  0.00     0.008 A 
ATOM     43  C   UNL     1      97.033  83.466  78.164  1.00  0.00     0.008 A 
ATOM     44  C   UNL     1      97.930  83.330  75.526  1.00  0.00     0.046 A 
ATOM     45  C   UNL     1      96.432  84.254  77.182  1.00  0.00     0.046 A 
ATOM     46  C   UNL     1      96.881  84.186  75.863  1.00  0.00     0.115 A 
BRANCH  46  47
ATOM     47  O   UNL     1      96.296  84.955  74.905  1.00  0.00    -0.508 OA
ATOM     48  H   UNL     1      96.960  85.570  74.545  1.00  0.00     0.293 HD
ENDBRANCH  46  47
ENDBRANCH  40  41
ENDBRANCH  38  40
ENDBRANCH  37  38
ENDBRANCH   1  37
TORSDOF 10
ENDMDL
MODEL 4
REMARK VINA RESULT:    -7.690     24.644     28.635
REMARK INTER + INTRA:         -12.374
REMARK INTER:                 -10.580
REMARK INTRA:                  -1.794
REMARK UNBOUND:                 0.710
REMARK SMILES C=C(C)[C@]12C[C@@H](C)[C@@]34O[C@](Cc5ccccc5)(O[C@@H]1[C@@H]3C=C(COC(=O)Cc1ccc(O)cc1)C[C@]1(O)C(=O)C(C)=C[C@@H]41)O2
REMARK SMILES IDX 23 1 22 2 21 3 20 4 9 5 8 6 10 7 6 8 18 10 44 11 19 12 5 13
REMARK SMILES IDX 7 14 4 15 11 16 12 17 13 18 17 19 14 20 16 21 15 22 2 23
REMARK SMILES IDX 3 24 1 25 35 26 36 27 43 28 38 29 42 30 39 32 40 33 41 34
REMARK SMILES IDX 37 35 24 37 25 38 26 39 27 40 28 41 29 42 34 43 30 44 33 45
REMARK SMILES IDX 31 46 32 47
REMARK H PARENT 37 36 32 48
REMARK Flexibility Score: 90.00
ROOT
ATOM      1  C   UNL     1      70.128  88.904  69.060  1.00  0.00     0.264 C 
ENDROOT
BRANCH   1   2
ATOM      2  C   UNL     1      71.623  89.087  68.930  1.00  0.00    -0.033 C 
ATOM      3  C   UNL     1      72.399  88.011  68.685  1.00  0.00    -0.015 C 
BRANCH   3   4
ATOM      4  C   UNL     1      73.914  87.916  68.588  1.00  0.00     0.078 C 
ATOM      5  O   UNL     1      74.498  88.151  66.196  1.00  0.00    -0.319 OA
ATOM      6  C   UNL     1      74.650  88.786  67.504  1.00  0.00     0.095 CG0
ATOM      7  C   UNL     1      74.664  86.720  66.184  1.00  0.00     0.289 C 
ATOM      8  C   UNL     1      76.186  88.832  67.888  1.00  0.00     0.023 C 
ATOM      9  G   UNL     1      73.960  90.172  67.344  1.00  0.00     0.000 G0
ATOM     10  O   UNL     1      73.750  86.085  67.073  1.00  0.00    -0.320 OA
ATOM     11  O   UNL     1      75.963  86.321  66.618  1.00  0.00    -0.313 OA
ATOM     12  C   UNL     1      74.333  86.447  68.335  1.00  0.00     0.170 C 
ATOM     13  C   UNL     1      76.646  87.505  68.566  1.00  0.00     0.049 C 
ATOM     14  C   UNL     1      77.147  89.175  66.736  1.00  0.00     0.011 C 
ATOM     15  C   UNL     1      75.849  86.303  68.056  1.00  0.00     0.122 C 
BRANCH   7  16
ATOM     16  C   UNL     1      74.432  86.227  64.770  1.00  0.00     0.135 C 
BRANCH  16  17
ATOM     17  C   UNL     1      73.680  84.919  64.742  1.00  0.00    -0.040 A 
ATOM     18  C   UNL     1      74.351  83.723  64.993  1.00  0.00     0.004 A 
ATOM     19  C   UNL     1      72.313  84.908  64.466  1.00  0.00     0.004 A 
ATOM     20  C   UNL     1      73.655  82.514  64.968  1.00  0.00     0.000 A 
ATOM     21  C   UNL     1      71.617  83.699  64.441  1.00  0.00     0.000 A 
ATOM     22  C   UNL     1      72.289  82.503  64.692  1.00  0.00     0.000 A 
ENDBRANCH  16  17
ENDBRANCH   7  16
BRANCH  15  23
ATOM     23  C   UNL     1      76.391  85.003  68.554  1.00  0.00    -0.046 C 
ATOM     24  C   UNL     1      77.196  84.202  67.574  1.00  0.00     0.042 C 
ATOM     25  C   UNL     1      76.169  84.574  69.806  1.00  0.00     0.010 C 
ENDBRANCH  15  23
ENDBRANCH   3   4
BRANCH   2  26
ATOM     26  C   UNL     1      72.063  90.529  69.095  1.00  0.00     0.078 C 
BRANCH  26  27
ATOM     27  C   UNL     1      73.495  90.873  68.688  1.00  0.00     0.140 C 
ATOM     28  C   UNL     1      73.911  90.177  67.376  1.00  0.00     0.086 CG0
ATOM     29  C   UNL     1      73.665  92.338  68.347  1.00  0.00     0.190 C 
ATOM     30  C   UNL     1      74.570  91.276  66.590  1.00  0.00    -0.010 C 
ATOM     31  G   UNL     1      74.635  88.807  67.526  1.00  0.00     0.000 G0
ATOM     32  O   UNL     1      73.276  93.274  69.030  1.00  0.00    -0.291 OA
ATOM     33  C   UNL     1      74.425  92.505  67.094  1.00  0.00    -0.008 C 
ATOM     34  C   UNL     1      74.860  93.811  66.556  1.00  0.00     0.048 C 
BRANCH  27  35
ATOM     35  O   UNL     1      74.402  90.667  69.758  1.00  0.00    -0.381 OA
ATOM     36  H   UNL     1      75.265  91.036  69.504  1.00  0.00     0.212 HD
ENDBRANCH  27  35
ENDBRANCH  26  27
ENDBRANCH   2  26
ENDBRANCH   1   2
BRANCH   1  37
ATOM     37  O   UNL     1      69.531  89.028  67.787  1.00  0.00    -0.461 OA
BRANCH  37  38
ATOM     38  C   UNL     1      68.177  88.789  67.725  1.00  0.00     0.310 C 
ATOM     39  O   UNL     1      67.311  89.549  68.133  1.00  0.00    -0.252 OA
BRANCH  38  40
ATOM     40  C   UNL     1      67.932  87.447  67.077  1.00  0.00     0.158 C 
BRANCH  40  41
ATOM     41  C   UNL     1      68.601  86.311  67.806  1.00  0.00    -0.037 A 
ATOM     42  C   UNL     1      68.156  85.938  69.075  1.00  0.00     0.008 A 
ATOM     43  C   UNL     1      69.665  85.632  67.213  1.00  0.00     0.008 A 
ATOM     44  C   UNL     1      68.777  84.887  69.750  1.00  0.00     0.046 A 
ATOM     45  C   UNL     1      70.285  84.580  67.888  1.00  0.00     0.046 A 
ATOM     46  C   UNL     1      69.841  84.208  69.157  1.00  0.00     0.115 A 
BRANCH  46  47
ATOM     47  O   UNL     1      70.446  83.183  69.816  1.00  0.00    -0.508 OA
ATOM     48  H   UNL     1      70.782  82.543  69.164  1.00  0.00     0.293 HD
ENDBRANCH  46  47
ENDBRANCH  40  41
ENDBRANCH  38  40
ENDBRANCH  37  38
ENDBRANCH   1  37
TORSDOF 10
ENDMDL
MODEL 5
REMARK VINA RESULT:    -7.569      3.278      4.696
REMARK INTER + INTRA:         -12.169
REMARK INTER:                 -10.943
REMARK INTRA:                  -1.226
REMARK UNBOUND:                 0.710
REMARK SMILES C=C(C)[C@]12C[C@@H](C)[C@@]34O[C@](Cc5ccccc5)(O[C@@H]1[C@@H]3C=C(COC(=O)Cc1ccc(O)cc1)C[C@]1(O)C(=O)C(C)=C[C@@H]41)O2
REMARK SMILES IDX 23 1 22 2 21 3 20 4 9 5 8 6 10 7 6 8 18 10 44 11 19 12 5 13
REMARK SMILES IDX 7 14 4 15 11 16 12 17 13 18 17 19 14 20 16 21 15 22 2 23
REMARK SMILES IDX 3 24 1 25 35 26 36 27 43 28 38 29 42 30 39 32 40 33 41 34
REMARK SMILES IDX 37 35 24 37 25 38 26 39 27 40 28 41 29 42 34 43 30 44 33 45
REMARK SMILES IDX 31 46 32 47
REMARK H PARENT 37 36 32 48
REMARK Flexibility Score: 90.00
ROOT
ATOM      1  C   UNL     1     100.553  79.056  81.469  1.00  0.00     0.264 C 
ENDROOT
BRANCH   1   2
ATOM      2  C   UNL     1     100.313  79.855  82.728  1.00  0.00    -0.033 C 
ATOM      3  C   UNL     1      99.163  80.548  82.861  1.00  0.00    -0.015 C 
BRANCH   3   4
ATOM      4  C   UNL     1      98.719  81.477  83.979  1.00  0.00     0.078 C 
ATOM      5  O   UNL     1      97.453  80.103  85.599  1.00  0.00    -0.319 OA
ATOM      6  C   UNL     1      98.662  80.910  85.445  1.00  0.00     0.095 CG0
ATOM      7  C   UNL     1      96.262  80.661  85.011  1.00  0.00     0.289 C 
ATOM      8  C   UNL     1      98.596  82.146  86.435  1.00  0.00     0.023 C 
ATOM      9  G   UNL     1      99.829  79.912  85.699  1.00  0.00     0.000 G0
ATOM     10  O   UNL     1      96.437  80.902  83.617  1.00  0.00    -0.320 OA
ATOM     11  O   UNL     1      95.915  81.922  85.579  1.00  0.00    -0.313 OA
ATOM     12  C   UNL     1      97.311  82.041  83.667  1.00  0.00     0.170 C 
ATOM     13  C   UNL     1      97.813  83.340  85.808  1.00  0.00     0.049 C 
ATOM     14  C   UNL     1      98.030  81.843  87.833  1.00  0.00     0.011 C 
ATOM     15  C   UNL     1      96.727  82.861  84.843  1.00  0.00     0.122 C 
BRANCH   7  16
ATOM     16  C   UNL     1      95.124  79.682  85.223  1.00  0.00     0.135 C 
BRANCH  16  17
ATOM     17  C   UNL     1      94.202  80.118  86.335  1.00  0.00    -0.040 A 
ATOM     18  C   UNL     1      94.666  80.161  87.649  1.00  0.00     0.004 A 
ATOM     19  C   UNL     1      92.886  80.477  86.047  1.00  0.00     0.004 A 
ATOM     20  C   UNL     1      93.813  80.564  88.677  1.00  0.00     0.000 A 
ATOM     21  C   UNL     1      92.033  80.881  87.075  1.00  0.00     0.000 A 
ATOM     22  C   UNL     1      92.497  80.924  88.389  1.00  0.00     0.000 A 
ENDBRANCH  16  17
ENDBRANCH   7  16
BRANCH  15  23
ATOM     23  C   UNL     1      95.848  83.972  84.371  1.00  0.00    -0.046 C 
ATOM     24  C   UNL     1      95.963  84.337  82.920  1.00  0.00     0.042 C 
ATOM     25  C   UNL     1      95.003  84.609  85.196  1.00  0.00     0.010 C 
ENDBRANCH  15  23
ENDBRANCH   3   4
BRANCH   2  26
ATOM     26  C   UNL     1     101.455  79.757  83.722  1.00  0.00     0.078 C 
BRANCH  26  27
ATOM     27  C   UNL     1     101.209  80.309  85.125  1.00  0.00     0.140 C 
ATOM     28  C   UNL     1      99.823  79.910  85.674  1.00  0.00     0.086 CG0
ATOM     29  C   UNL     1     102.149  79.717  86.154  1.00  0.00     0.190 C 
ATOM     30  C   UNL     1     100.120  79.452  87.075  1.00  0.00    -0.010 C 
ATOM     31  G   UNL     1      98.671  80.927  85.431  1.00  0.00     0.000 G0
ATOM     32  O   UNL     1     103.362  79.627  86.037  1.00  0.00    -0.291 OA
ATOM     33  C   UNL     1     101.416  79.307  87.367  1.00  0.00    -0.008 C 
ATOM     34  C   UNL     1     102.063  78.806  88.597  1.00  0.00     0.048 C 
BRANCH  27  35
ATOM     35  O   UNL     1     101.471  81.700  85.189  1.00  0.00    -0.381 OA
ATOM     36  H   UNL     1     102.039  81.871  85.959  1.00  0.00     0.212 HD
ENDBRANCH  27  35
ENDBRANCH  26  27
ENDBRANCH   2  26
ENDBRANCH   1   2
BRANCH   1  37
ATOM     37  O   UNL     1      99.513  79.312  80.548  1.00  0.00    -0.461 OA
BRANCH  37  38
ATOM     38  C   UNL     1      99.898  79.774  79.311  1.00  0.00     0.310 C 
ATOM     39  O   UNL     1     100.024  79.082  78.311  1.00  0.00    -0.252 OA
BRANCH  38  40
ATOM     40  C   UNL     1     100.139  81.263  79.381  1.00  0.00     0.158 C 
BRANCH  40  41
ATOM     41  C   UNL     1      98.936  82.073  78.971  1.00  0.00    -0.037 A 
ATOM     42  C   UNL     1      98.096  82.616  79.944  1.00  0.00     0.008 A 
ATOM     43  C   UNL     1      98.662  82.280  77.620  1.00  0.00     0.008 A 
ATOM     44  C   UNL     1      96.982  83.365  79.564  1.00  0.00     0.046 A 
ATOM     45  C   UNL     1      97.548  83.030  77.240  1.00  0.00     0.046 A 
ATOM     46  C   UNL     1      96.708  83.572  78.212  1.00  0.00     0.115 A 
BRANCH  46  47
ATOM     47  O   UNL     1      95.621  84.302  77.842  1.00  0.00    -0.508 OA
ATOM     48  H   UNL     1      95.395  84.087  76.920  1.00  0.00     0.293 HD
ENDBRANCH  46  47
ENDBRANCH  40  41
ENDBRANCH  38  40
ENDBRANCH  37  38
ENDBRANCH   1  37
TORSDOF 10
ENDMDL
MODEL 6
REMARK VINA RESULT:    -7.461     25.366     29.083
REMARK INTER + INTRA:         -11.984
REMARK INTER:                 -10.455
REMARK INTRA:                  -1.529
REMARK UNBOUND:                 0.710
REMARK SMILES C=C(C)[C@]12C[C@@H](C)[C@@]34O[C@](Cc5ccccc5)(O[C@@H]1[C@@H]3C=C(COC(=O)Cc1ccc(O)cc1)C[C@]1(O)C(=O)C(C)=C[C@@H]41)O2
REMARK SMILES IDX 23 1 22 2 21 3 20 4 9 5 8 6 10 7 6 8 18 10 44 11 19 12 5 13
REMARK SMILES IDX 7 14 4 15 11 16 12 17 13 18 17 19 14 20 16 21 15 22 2 23
REMARK SMILES IDX 3 24 1 25 35 26 36 27 43 28 38 29 42 30 39 32 40 33 41 34
REMARK SMILES IDX 37 35 24 37 25 38 26 39 27 40 28 41 29 42 34 43 30 44 33 45
REMARK SMILES IDX 31 46 32 47
REMARK H PARENT 37 36 32 48
REMARK Flexibility Score: 90.00
ROOT
ATOM      1  C   UNL     1      74.878  84.316  65.688  1.00  0.00     0.264 C 
ENDROOT
BRANCH   1   2
ATOM      2  C   UNL     1      73.653  85.201  65.703  1.00  0.00    -0.033 C 
ATOM      3  C   UNL     1      72.430  84.634  65.632  1.00  0.00    -0.015 C 
BRANCH   3   4
ATOM      4  C   UNL     1      71.063  85.295  65.554  1.00  0.00     0.078 C 
ATOM      5  O   UNL     1      70.230  85.504  67.873  1.00  0.00    -0.319 OA
ATOM      6  C   UNL     1      70.642  86.281  66.705  1.00  0.00     0.095 CG0
ATOM      7  C   UNL     1      69.407  84.356  67.590  1.00  0.00     0.289 C 
ATOM      8  C   UNL     1      69.411  87.131  66.182  1.00  0.00     0.023 C 
ATOM      9  G   UNL     1      71.863  87.108  67.200  1.00  0.00     0.000 G0
ATOM     10  O   UNL     1      70.057  83.461  66.693  1.00  0.00    -0.320 OA
ATOM     11  O   UNL     1      68.180  84.712  66.956  1.00  0.00    -0.313 OA
ATOM     12  C   UNL     1      69.959  84.212  65.473  1.00  0.00     0.170 C 
ATOM     13  C   UNL     1      68.512  86.301  65.216  1.00  0.00     0.049 C 
ATOM     14  C   UNL     1      68.535  87.767  67.274  1.00  0.00     0.011 C 
ATOM     15  C   UNL     1      68.534  84.811  65.561  1.00  0.00     0.122 C 
BRANCH   7  16
ATOM     16  C   UNL     1      69.112  83.649  68.898  1.00  0.00     0.135 C 
BRANCH  16  17
ATOM     17  C   UNL     1      67.705  83.904  69.375  1.00  0.00    -0.040 A 
ATOM     18  C   UNL     1      66.654  83.118  68.903  1.00  0.00     0.004 A 
ATOM     19  C   UNL     1      67.455  84.927  70.290  1.00  0.00     0.004 A 
ATOM     20  C   UNL     1      65.352  83.355  69.346  1.00  0.00     0.000 A 
ATOM     21  C   UNL     1      66.152  85.163  70.733  1.00  0.00     0.000 A 
ATOM     22  C   UNL     1      65.102  84.377  70.260  1.00  0.00     0.000 A 
ENDBRANCH  16  17
ENDBRANCH   7  16
BRANCH  15  23
ATOM     23  C   UNL     1      67.544  84.023  64.768  1.00  0.00    -0.046 C 
ATOM     24  C   UNL     1      67.768  83.979  63.285  1.00  0.00     0.042 C 
ATOM     25  C   UNL     1      66.513  83.391  65.348  1.00  0.00     0.010 C 
ENDBRANCH  15  23
ENDBRANCH   3   4
BRANCH   2  26
ATOM     26  C   UNL     1      73.985  86.677  65.808  1.00  0.00     0.078 C 
BRANCH  26  27
ATOM     27  C   UNL     1      72.827  87.636  66.076  1.00  0.00     0.140 C 
ATOM     28  C   UNL     1      71.891  87.123  67.190  1.00  0.00     0.086 CG0
ATOM     29  C   UNL     1      73.291  88.967  66.629  1.00  0.00     0.190 C 
ATOM     30  C   UNL     1      71.678  88.335  68.054  1.00  0.00    -0.010 C 
ATOM     31  G   UNL     1      70.660  86.292  66.724  1.00  0.00     0.000 G0
ATOM     32  O   UNL     1      74.192  89.650  66.166  1.00  0.00    -0.291 OA
ATOM     33  C   UNL     1      72.469  89.377  67.783  1.00  0.00    -0.008 C 
ATOM     34  C   UNL     1      72.593  90.681  68.467  1.00  0.00     0.048 C 
BRANCH  27  35
ATOM     35  O   UNL     1      72.153  87.984  64.878  1.00  0.00    -0.381 OA
ATOM     36  H   UNL     1      71.265  88.305  65.108  1.00  0.00     0.212 HD
ENDBRANCH  27  35
ENDBRANCH  26  27
ENDBRANCH   2  26
ENDBRANCH   1   2
BRANCH   1  37
ATOM     37  O   UNL     1      76.025  85.104  65.930  1.00  0.00    -0.461 OA
BRANCH  37  38
ATOM     38  C   UNL     1      77.136  84.434  66.388  1.00  0.00     0.310 C 
ATOM     39  O   UNL     1      77.845  83.704  65.710  1.00  0.00    -0.252 OA
BRANCH  38  40
ATOM     40  C   UNL     1      77.342  84.742  67.851  1.00  0.00     0.158 C 
BRANCH  40  41
ATOM     41  C   UNL     1      76.882  86.125  68.231  1.00  0.00    -0.037 A 
ATOM     42  C   UNL     1      75.730  86.290  69.001  1.00  0.00     0.008 A 
ATOM     43  C   UNL     1      77.607  87.241  67.815  1.00  0.00     0.008 A 
ATOM     44  C   UNL     1      75.303  87.571  69.352  1.00  0.00     0.046 A 
ATOM     45  C   UNL     1      77.180  88.522  68.166  1.00  0.00     0.046 A 
ATOM     46  C   UNL     1      76.029  88.688  68.934  1.00  0.00     0.115 A 
BRANCH  46  47
ATOM     47  O   UNL     1      75.612  89.937  69.277  1.00  0.00    -0.508 OA
ATOM     48  H   UNL     1      75.517  90.471  68.469  1.00  0.00     0.293 HD
ENDBRANCH  46  47
ENDBRANCH  40  41
ENDBRANCH  38  40
ENDBRANCH  37  38
ENDBRANCH   1  37
TORSDOF 10
ENDMDL
MODEL 7
REMARK VINA RESULT:    -7.449      1.971      3.906
REMARK INTER + INTRA:         -11.964
REMARK INTER:                 -12.085
REMARK INTRA:                   0.121
REMARK UNBOUND:                 0.710
REMARK SMILES C=C(C)[C@]12C[C@@H](C)[C@@]34O[C@](Cc5ccccc5)(O[C@@H]1[C@@H]3C=C(COC(=O)Cc1ccc(O)cc1)C[C@]1(O)C(=O)C(C)=C[C@@H]41)O2
REMARK SMILES IDX 23 1 22 2 21 3 20 4 9 5 8 6 10 7 6 8 18 10 44 11 19 12 5 13
REMARK SMILES IDX 7 14 4 15 11 16 12 17 13 18 17 19 14 20 16 21 15 22 2 23
REMARK SMILES IDX 3 24 1 25 35 26 36 27 43 28 38 29 42 30 39 32 40 33 41 34
REMARK SMILES IDX 37 35 24 37 25 38 26 39 27 40 28 41 29 42 34 43 30 44 33 45
REMARK SMILES IDX 31 46 32 47
REMARK H PARENT 37 36 32 48
REMARK Flexibility Score: 90.00
ROOT
ATOM      1  C   UNL     1      97.037  82.535  82.497  1.00  0.00     0.264 C 
ENDROOT
BRANCH   1   2
ATOM      2  C   UNL     1      96.455  81.793  83.677  1.00  0.00    -0.033 C 
ATOM      3  C   UNL     1      96.377  82.414  84.873  1.00  0.00    -0.015 C 
BRANCH   3   4
ATOM      4  C   UNL     1      95.909  81.870  86.213  1.00  0.00     0.078 C 
ATOM      5  O   UNL     1      93.498  82.385  86.399  1.00  0.00    -0.319 OA
ATOM      6  C   UNL     1      94.454  81.283  86.317  1.00  0.00     0.095 CG0
ATOM      7  C   UNL     1      93.883  83.471  87.264  1.00  0.00     0.289 C 
ATOM      8  C   UNL     1      94.377  80.423  87.645  1.00  0.00     0.023 C 
ATOM      9  G   UNL     1      94.067  80.530  85.010  1.00  0.00     0.000 G0
ATOM     10  O   UNL     1      95.136  84.024  86.872  1.00  0.00    -0.320 OA
ATOM     11  O   UNL     1      94.053  83.053  88.616  1.00  0.00    -0.313 OA
ATOM     12  C   UNL     1      96.019  82.973  87.295  1.00  0.00     0.170 C 
ATOM     13  C   UNL     1      95.281  81.020  88.767  1.00  0.00     0.049 C 
ATOM     14  C   UNL     1      92.962  80.190  88.202  1.00  0.00     0.011 C 
ATOM     15  C   UNL     1      95.401  82.540  88.647  1.00  0.00     0.122 C 
BRANCH   7  16
ATOM     16  C   UNL     1      92.808  84.537  87.196  1.00  0.00     0.135 C 
BRANCH  16  17
ATOM     17  C   UNL     1      93.247  85.827  87.843  1.00  0.00    -0.040 A 
ATOM     18  C   UNL     1      93.215  85.958  89.231  1.00  0.00     0.004 A 
ATOM     19  C   UNL     1      93.685  86.888  87.051  1.00  0.00     0.004 A 
ATOM     20  C   UNL     1      93.622  87.151  89.829  1.00  0.00     0.000 A 
ATOM     21  C   UNL     1      94.092  88.081  87.649  1.00  0.00     0.000 A 
ATOM     22  C   UNL     1      94.061  88.212  89.037  1.00  0.00     0.000 A 
ENDBRANCH  16  17
ENDBRANCH   7  16
BRANCH  15  23
ATOM     23  C   UNL     1      96.110  83.153  89.810  1.00  0.00    -0.046 C 
ATOM     24  C   UNL     1      97.578  82.864  89.918  1.00  0.00     0.042 C 
ATOM     25  C   UNL     1      95.472  83.918  90.708  1.00  0.00     0.010 C 
ENDBRANCH  15  23
ENDBRANCH   3   4
BRANCH   2  26
ATOM     26  C   UNL     1      96.009  80.384  83.334  1.00  0.00     0.078 C 
BRANCH  26  27
ATOM     27  C   UNL     1      95.208  79.628  84.392  1.00  0.00     0.140 C 
ATOM     28  C   UNL     1      94.089  80.494  85.007  1.00  0.00     0.086 CG0
ATOM     29  C   UNL     1      94.435  78.463  83.811  1.00  0.00     0.190 C 
ATOM     30  C   UNL     1      92.895  79.581  85.000  1.00  0.00    -0.010 C 
ATOM     31  G   UNL     1      94.455  81.264  86.309  1.00  0.00     0.000 G0
ATOM     32  O   UNL     1      94.893  77.611  83.065  1.00  0.00    -0.291 OA
ATOM     33  C   UNL     1      93.048  78.444  84.314  1.00  0.00    -0.008 C 
ATOM     34  C   UNL     1      92.078  77.367  84.028  1.00  0.00     0.048 C 
BRANCH  27  35
ATOM     35  O   UNL     1      96.058  79.025  85.353  1.00  0.00    -0.381 OA
ATOM     36  H   UNL     1      95.835  79.384  86.228  1.00  0.00     0.212 HD
ENDBRANCH  27  35
ENDBRANCH  26  27
ENDBRANCH   2  26
ENDBRANCH   1   2
BRANCH   1  37
ATOM     37  O   UNL     1      97.823  81.648  81.730  1.00  0.00    -0.461 OA
BRANCH  37  38
ATOM     38  C   UNL     1      98.338  82.151  80.557  1.00  0.00     0.310 C 
ATOM     39  O   UNL     1      99.362  82.813  80.466  1.00  0.00    -0.252 OA
BRANCH  38  40
ATOM     40  C   UNL     1      97.442  81.760  79.406  1.00  0.00     0.158 C 
BRANCH  40  41
ATOM     41  C   UNL     1      97.932  82.279  78.078  1.00  0.00    -0.037 A 
ATOM     42  C   UNL     1      99.224  81.980  77.646  1.00  0.00     0.008 A 
ATOM     43  C   UNL     1      97.093  83.058  77.282  1.00  0.00     0.008 A 
ATOM     44  C   UNL     1      99.677  82.461  76.417  1.00  0.00     0.046 A 
ATOM     45  C   UNL     1      97.546  83.539  76.053  1.00  0.00     0.046 A 
ATOM     46  C   UNL     1      98.838  83.241  75.621  1.00  0.00     0.115 A 
BRANCH  46  47
ATOM     47  O   UNL     1      99.280  83.710  74.423  1.00  0.00    -0.508 OA
ATOM     48  H   UNL     1      98.704  84.441  74.137  1.00  0.00     0.293 HD
ENDBRANCH  46  47
ENDBRANCH  40  41
ENDBRANCH  38  40
ENDBRANCH  37  38
ENDBRANCH   1  37
TORSDOF 10
ENDMDL
MODEL 8
REMARK VINA RESULT:    -7.181     23.458     26.300
REMARK INTER + INTRA:         -11.509
REMARK INTER:                 -11.338
REMARK INTRA:                  -0.171
REMARK UNBOUND:                 0.710
REMARK SMILES C=C(C)[C@]12C[C@@H](C)[C@@]34O[C@](Cc5ccccc5)(O[C@@H]1[C@@H]3C=C(COC(=O)Cc1ccc(O)cc1)C[C@]1(O)C(=O)C(C)=C[C@@H]41)O2
REMARK SMILES IDX 23 1 22 2 21 3 20 4 9 5 8 6 10 7 6 8 18 10 44 11 19 12 5 13
REMARK SMILES IDX 7 14 4 15 11 16 12 17 13 18 17 19 14 20 16 21 15 22 2 23
REMARK SMILES IDX 3 24 1 25 35 26 36 27 43 28 38 29 42 30 39 32 40 33 41 34
REMARK SMILES IDX 37 35 24 37 25 38 26 39 27 40 28 41 29 42 34 43 30 44 33 45
REMARK SMILES IDX 31 46 32 47
REMARK H PARENT 37 36 32 48
REMARK Flexibility Score: 90.00
ROOT
ATOM      1  C   UNL     1      73.871  89.815  70.654  1.00  0.00     0.264 C 
ENDROOT
BRANCH   1   2
ATOM      2  C   UNL     1      73.464  91.183  71.152  1.00  0.00    -0.033 C 
ATOM      3  C   UNL     1      73.006  91.316  72.414  1.00  0.00    -0.015 C 
BRANCH   3   4
ATOM      4  C   UNL     1      72.469  92.550  73.121  1.00  0.00     0.078 C 
ATOM      5  O   UNL     1      74.384  93.615  74.267  1.00  0.00    -0.319 OA
ATOM      6  C   UNL     1      73.391  93.820  73.214  1.00  0.00     0.095 CG0
ATOM      7  C   UNL     1      73.881  93.018  75.478  1.00  0.00     0.289 C 
ATOM      8  C   UNL     1      72.472  95.053  73.594  1.00  0.00     0.023 C 
ATOM      9  G   UNL     1      74.233  93.989  71.916  1.00  0.00     0.000 G0
ATOM     10  O   UNL     1      73.271  91.757  75.219  1.00  0.00    -0.320 OA
ATOM     11  O   UNL     1      72.873  93.814  76.098  1.00  0.00    -0.313 OA
ATOM     12  C   UNL     1      72.064  92.190  74.572  1.00  0.00     0.170 C 
ATOM     13  C   UNL     1      71.290  94.623  74.516  1.00  0.00     0.049 C 
ATOM     14  C   UNL     1      73.201  96.252  74.226  1.00  0.00     0.011 C 
ATOM     15  C   UNL     1      71.667  93.435  75.402  1.00  0.00     0.122 C 
BRANCH   7  16
ATOM     16  C   UNL     1      75.042  92.839  76.436  1.00  0.00     0.135 C 
BRANCH  16  17
ATOM     17  C   UNL     1      76.148  93.832  76.178  1.00  0.00    -0.040 A 
ATOM     18  C   UNL     1      76.303  94.937  77.015  1.00  0.00     0.004 A 
ATOM     19  C   UNL     1      77.014  93.644  75.102  1.00  0.00     0.004 A 
ATOM     20  C   UNL     1      77.326  95.855  76.776  1.00  0.00     0.000 A 
ATOM     21  C   UNL     1      78.038  94.563  74.864  1.00  0.00     0.000 A 
ATOM     22  C   UNL     1      78.193  95.667  75.700  1.00  0.00     0.000 A 
ENDBRANCH  16  17
ENDBRANCH   7  16
BRANCH  15  23
ATOM     23  C   UNL     1      70.618  93.121  76.418  1.00  0.00    -0.046 C 
ATOM     24  C   UNL     1      69.325  92.575  75.888  1.00  0.00     0.042 C 
ATOM     25  C   UNL     1      70.819  93.317  77.730  1.00  0.00     0.010 C 
ENDBRANCH  15  23
ENDBRANCH   3   4
BRANCH   2  26
ATOM     26  C   UNL     1      73.641  92.273  70.111  1.00  0.00     0.078 C 
BRANCH  26  27
ATOM     27  C   UNL     1      73.490  93.718  70.582  1.00  0.00     0.140 C 
ATOM     28  C   UNL     1      74.238  93.983  71.905  1.00  0.00     0.086 CG0
ATOM     29  C   UNL     1      74.141  94.706  69.637  1.00  0.00     0.190 C 
ATOM     30  C   UNL     1      74.958  95.277  71.647  1.00  0.00    -0.010 C 
ATOM     31  G   UNL     1      73.403  93.820  73.208  1.00  0.00     0.000 G0
ATOM     32  O   UNL     1      73.992  94.730  68.425  1.00  0.00    -0.291 OA
ATOM     33  C   UNL     1      74.946  95.695  70.378  1.00  0.00    -0.008 C 
ATOM     34  C   UNL     1      75.608  96.860  69.755  1.00  0.00     0.048 C 
BRANCH  27  35
ATOM     35  O   UNL     1      72.129  94.117  70.603  1.00  0.00    -0.381 OA
ATOM     36  H   UNL     1      72.095  95.088  70.633  1.00  0.00     0.212 HD
ENDBRANCH  27  35
ENDBRANCH  26  27
ENDBRANCH   2  26
ENDBRANCH   1   2
BRANCH   1  37
ATOM     37  O   UNL     1      75.146  89.899  70.053  1.00  0.00    -0.461 OA
BRANCH  37  38
ATOM     38  C   UNL     1      75.349  89.105  68.948  1.00  0.00     0.310 C 
ATOM     39  O   UNL     1      75.785  89.494  67.873  1.00  0.00    -0.252 OA
BRANCH  38  40
ATOM     40  C   UNL     1      74.951  87.684  69.268  1.00  0.00     0.158 C 
BRANCH  40  41
ATOM     41  C   UNL     1      75.721  86.664  68.471  1.00  0.00    -0.037 A 
ATOM     42  C   UNL     1      77.055  86.397  68.782  1.00  0.00     0.008 A 
ATOM     43  C   UNL     1      75.102  85.986  67.421  1.00  0.00     0.008 A 
ATOM     44  C   UNL     1      77.769  85.453  68.043  1.00  0.00     0.046 A 
ATOM     45  C   UNL     1      75.815  85.041  66.682  1.00  0.00     0.046 A 
ATOM     46  C   UNL     1      77.148  84.775  66.993  1.00  0.00     0.115 A 
BRANCH  46  47
ATOM     47  O   UNL     1      77.845  83.855  66.272  1.00  0.00    -0.508 OA
ATOM     48  H   UNL     1      77.694  82.973  66.656  1.00  0.00     0.293 HD
ENDBRANCH  46  47
ENDBRANCH  40  41
ENDBRANCH  38  40
ENDBRANCH  37  38
ENDBRANCH   1  37
TORSDOF 10
ENDMDL
MODEL 9
REMARK VINA RESULT:    -7.178     23.051     26.340
REMARK INTER + INTRA:         -11.502
REMARK INTER:                 -11.246
REMARK INTRA:                  -0.256
REMARK UNBOUND:                 0.710
REMARK SMILES C=C(C)[C@]12C[C@@H](C)[C@@]34O[C@](Cc5ccccc5)(O[C@@H]1[C@@H]3C=C(COC(=O)Cc1ccc(O)cc1)C[C@]1(O)C(=O)C(C)=C[C@@H]41)O2
REMARK SMILES IDX 23 1 22 2 21 3 20 4 9 5 8 6 10 7 6 8 18 10 44 11 19 12 5 13
REMARK SMILES IDX 7 14 4 15 11 16 12 17 13 18 17 19 14 20 16 21 15 22 2 23
REMARK SMILES IDX 3 24 1 25 35 26 36 27 43 28 38 29 42 30 39 32 40 33 41 34
REMARK SMILES IDX 37 35 24 37 25 38 26 39 27 40 28 41 29 42 34 43 30 44 33 45
REMARK SMILES IDX 31 46 32 47
REMARK H PARENT 37 36 32 48
REMARK Flexibility Score: 90.00
ROOT
ATOM      1  C   UNL     1      72.027  91.302  72.125  1.00  0.00     0.264 C 
ENDROOT
BRANCH   1   2
ATOM      2  C   UNL     1      72.157  92.474  73.071  1.00  0.00    -0.033 C 
ATOM      3  C   UNL     1      72.954  92.361  74.154  1.00  0.00    -0.015 C 
BRANCH   3   4
ATOM      4  C   UNL     1      73.194  93.351  75.282  1.00  0.00     0.078 C 
ATOM      5  O   UNL     1      75.165  94.704  74.648  1.00  0.00    -0.319 OA
ATOM      6  C   UNL     1      73.731  94.785  74.919  1.00  0.00     0.095 CG0
ATOM      7  C   UNL     1      75.917  93.878  75.557  1.00  0.00     0.289 C 
ATOM      8  C   UNL     1      73.487  95.720  76.175  1.00  0.00     0.023 C 
ATOM      9  G   UNL     1      73.110  95.285  73.582  1.00  0.00     0.000 G0
ATOM     10  O   UNL     1      75.415  92.545  75.583  1.00  0.00    -0.320 OA
ATOM     11  O   UNL     1      75.842  94.344  76.902  1.00  0.00    -0.313 OA
ATOM     12  C   UNL     1      74.191  92.752  76.305  1.00  0.00     0.170 C 
ATOM     13  C   UNL     1      73.617  94.928  77.512  1.00  0.00     0.049 C 
ATOM     14  C   UNL     1      74.367  96.980  76.241  1.00  0.00     0.011 C 
ATOM     15  C   UNL     1      74.611  93.772  77.391  1.00  0.00     0.122 C 
BRANCH   7  16
ATOM     16  C   UNL     1      77.365  93.873  75.106  1.00  0.00     0.135 C 
BRANCH  16  17
ATOM     17  C   UNL     1      77.835  95.246  74.694  1.00  0.00    -0.040 A 
ATOM     18  C   UNL     1      77.871  96.280  75.629  1.00  0.00     0.004 A 
ATOM     19  C   UNL     1      78.233  95.479  73.379  1.00  0.00     0.004 A 
ATOM     20  C   UNL     1      78.306  97.550  75.248  1.00  0.00     0.000 A 
ATOM     21  C   UNL     1      78.669  96.749  72.998  1.00  0.00     0.000 A 
ATOM     22  C   UNL     1      78.705  97.784  73.932  1.00  0.00     0.000 A 
ENDBRANCH  16  17
ENDBRANCH   7  16
BRANCH  15  23
ATOM     23  C   UNL     1      74.887  93.113  78.703  1.00  0.00    -0.046 C 
ATOM     24  C   UNL     1      73.809  92.215  79.233  1.00  0.00     0.042 C 
ATOM     25  C   UNL     1      76.033  93.314  79.370  1.00  0.00     0.010 C 
ENDBRANCH  15  23
ENDBRANCH   3   4
BRANCH   2  26
ATOM     26  C   UNL     1      71.337  93.677  72.645  1.00  0.00     0.078 C 
BRANCH  26  27
ATOM     27  C   UNL     1      71.580  94.987  73.392  1.00  0.00     0.140 C 
ATOM     28  C   UNL     1      73.082  95.279  73.585  1.00  0.00     0.086 CG0
ATOM     29  C   UNL     1      71.111  96.196  72.611  1.00  0.00     0.190 C 
ATOM     30  C   UNL     1      73.209  96.727  73.202  1.00  0.00    -0.010 C 
ATOM     31  G   UNL     1      73.711  94.786  74.921  1.00  0.00     0.000 G0
ATOM     32  O   UNL     1      70.019  96.312  72.074  1.00  0.00    -0.291 OA
ATOM     33  C   UNL     1      72.129  97.264  72.626  1.00  0.00    -0.008 C 
ATOM     34  C   UNL     1      71.924  98.611  72.056  1.00  0.00     0.048 C 
BRANCH  27  35
ATOM     35  O   UNL     1      70.826  95.046  74.592  1.00  0.00    -0.381 OA
ATOM     36  H   UNL     1      70.185  94.315  74.588  1.00  0.00     0.212 HD
ENDBRANCH  27  35
ENDBRANCH  26  27
ENDBRANCH   2  26
ENDBRANCH   1   2
BRANCH   1  37
ATOM     37  O   UNL     1      73.313  90.809  71.814  1.00  0.00    -0.461 OA
BRANCH  37  38
ATOM     38  C   UNL     1      73.719  90.955  70.507  1.00  0.00     0.310 C 
ATOM     39  O   UNL     1      74.280  91.942  70.052  1.00  0.00    -0.252 OA
BRANCH  38  40
ATOM     40  C   UNL     1      73.366  89.711  69.728  1.00  0.00     0.158 C 
BRANCH  40  41
ATOM     41  C   UNL     1      74.576  88.917  69.309  1.00  0.00    -0.037 A 
ATOM     42  C   UNL     1      75.741  89.575  68.917  1.00  0.00     0.008 A 
ATOM     43  C   UNL     1      74.531  87.523  69.312  1.00  0.00     0.008 A 
ATOM     44  C   UNL     1      76.861  88.840  68.528  1.00  0.00     0.046 A 
ATOM     45  C   UNL     1      75.651  86.787  68.924  1.00  0.00     0.046 A 
ATOM     46  C   UNL     1      76.816  87.445  68.532  1.00  0.00     0.115 A 
BRANCH  46  47
ATOM     47  O   UNL     1      77.908  86.728  68.152  1.00  0.00    -0.508 OA
ATOM     48  H   UNL     1      77.795  86.446  67.228  1.00  0.00     0.293 HD
ENDBRANCH  46  47
ENDBRANCH  40  41
ENDBRANCH  38  40
ENDBRANCH  37  38
ENDBRANCH   1  37
TORSDOF 10
ENDMDL
MODEL 10
REMARK VINA RESULT:    -6.915     28.724     33.210
REMARK INTER + INTRA:         -11.055
REMARK INTER:                  -9.177
REMARK INTRA:                  -1.878
REMARK UNBOUND:                 0.710
REMARK SMILES C=C(C)[C@]12C[C@@H](C)[C@@]34O[C@](Cc5ccccc5)(O[C@@H]1[C@@H]3C=C(COC(=O)Cc1ccc(O)cc1)C[C@]1(O)C(=O)C(C)=C[C@@H]41)O2
REMARK SMILES IDX 23 1 22 2 21 3 20 4 9 5 8 6 10 7 6 8 18 10 44 11 19 12 5 13
REMARK SMILES IDX 7 14 4 15 11 16 12 17 13 18 17 19 14 20 16 21 15 22 2 23
REMARK SMILES IDX 3 24 1 25 35 26 36 27 43 28 38 29 42 30 39 32 40 33 41 34
REMARK SMILES IDX 37 35 24 37 25 38 26 39 27 40 28 41 29 42 34 43 30 44 33 45
REMARK SMILES IDX 31 46 32 47
REMARK H PARENT 37 36 32 48
REMARK Flexibility Score: 90.00
ROOT
ATOM      1  C   UNL     1      65.641  90.306  70.659  1.00  0.00     0.264 C 
ENDROOT
BRANCH   1   2
ATOM      2  C   UNL     1      64.534  89.284  70.550  1.00  0.00    -0.033 C 
ATOM      3  C   UNL     1      64.839  87.972  70.618  1.00  0.00    -0.015 C 
BRANCH   3   4
ATOM      4  C   UNL     1      63.934  86.760  70.462  1.00  0.00     0.078 C 
ATOM      5  O   UNL     1      63.153  86.148  72.728  1.00  0.00    -0.319 OA
ATOM      6  C   UNL     1      62.696  86.623  71.423  1.00  0.00     0.095 CG0
ATOM      7  C   UNL     1      64.137  85.096  72.689  1.00  0.00     0.289 C 
ATOM      8  C   UNL     1      61.715  85.552  70.791  1.00  0.00     0.023 C 
ATOM      9  G   UNL     1      62.066  88.015  71.717  1.00  0.00     0.000 G0
ATOM     10  O   UNL     1      65.291  85.493  71.954  1.00  0.00    -0.320 OA
ATOM     11  O   UNL     1      63.651  83.923  72.041  1.00  0.00    -0.313 OA
ATOM     12  C   UNL     1      64.762  85.461  70.619  1.00  0.00     0.170 C 
ATOM     13  C   UNL     1      62.497  84.441  70.025  1.00  0.00     0.049 C 
ATOM     14  C   UNL     1      60.729  84.896  71.773  1.00  0.00     0.011 C 
ATOM     15  C   UNL     1      63.875  84.192  70.641  1.00  0.00     0.122 C 
BRANCH   7  16
ATOM     16  C   UNL     1      64.527  84.759  74.115  1.00  0.00     0.135 C 
BRANCH  16  17
ATOM     17  C   UNL     1      65.670  85.612  74.606  1.00  0.00    -0.040 A 
ATOM     18  C   UNL     1      66.952  85.072  74.705  1.00  0.00     0.004 A 
ATOM     19  C   UNL     1      65.444  86.942  74.960  1.00  0.00     0.004 A 
ATOM     20  C   UNL     1      68.009  85.862  75.159  1.00  0.00     0.000 A 
ATOM     21  C   UNL     1      66.501  87.732  75.414  1.00  0.00     0.000 A 
ATOM     22  C   UNL     1      67.782  87.192  75.513  1.00  0.00     0.000 A 
ENDBRANCH  16  17
ENDBRANCH   7  16
BRANCH  15  23
ATOM     23  C   UNL     1      64.567  83.013  70.040  1.00  0.00    -0.046 C 
ATOM     24  C   UNL     1      65.826  83.302  69.278  1.00  0.00     0.042 C 
ATOM     25  C   UNL     1      64.091  81.766  70.174  1.00  0.00     0.010 C 
ENDBRANCH  15  23
ENDBRANCH   3   4
BRANCH   2  26
ATOM     26  C   UNL     1      63.162  89.908  70.378  1.00  0.00     0.078 C 
BRANCH  26  27
ATOM     27  C   UNL     1      61.954  88.978  70.479  1.00  0.00     0.140 C 
ATOM     28  C   UNL     1      62.054  88.021  71.686  1.00  0.00     0.086 CG0
ATOM     29  C   UNL     1      60.668  89.725  70.762  1.00  0.00     0.190 C 
ATOM     30  C   UNL     1      60.687  88.099  72.307  1.00  0.00    -0.010 C 
ATOM     31  G   UNL     1      62.687  86.627  71.405  1.00  0.00     0.000 G0
ATOM     32  O   UNL     1      60.279  90.717  70.164  1.00  0.00    -0.291 OA
ATOM     33  C   UNL     1      59.895  89.064  71.830  1.00  0.00    -0.008 C 
ATOM     34  C   UNL     1      58.542  89.480  72.253  1.00  0.00     0.048 C 
BRANCH  27  35
ATOM     35  O   UNL     1      61.701  88.322  69.248  1.00  0.00    -0.381 OA
ATOM     36  H   UNL     1      62.486  87.800  69.011  1.00  0.00     0.212 HD
ENDBRANCH  27  35
ENDBRANCH  26  27
ENDBRANCH   2  26
ENDBRANCH   1   2
BRANCH   1  37
ATOM     37  O   UNL     1      66.782  89.832  69.976  1.00  0.00    -0.461 OA
BRANCH  37  38
ATOM     38  C   UNL     1      67.974  89.904  70.661  1.00  0.00     0.310 C 
ATOM     39  O   UNL     1      68.841  90.746  70.477  1.00  0.00    -0.252 OA
BRANCH  38  40
ATOM     40  C   UNL     1      68.041  88.784  71.672  1.00  0.00     0.158 C 
BRANCH  40  41
ATOM     41  C   UNL     1      68.630  87.517  71.108  1.00  0.00    -0.037 A 
ATOM     42  C   UNL     1      69.627  87.585  70.135  1.00  0.00     0.008 A 
ATOM     43  C   UNL     1      68.178  86.277  71.558  1.00  0.00     0.008 A 
ATOM     44  C   UNL     1      70.172  86.411  69.612  1.00  0.00     0.046 A 
ATOM     45  C   UNL     1      68.723  85.104  71.036  1.00  0.00     0.046 A 
ATOM     46  C   UNL     1      69.719  85.171  70.063  1.00  0.00     0.115 A 
BRANCH  46  47
ATOM     47  O   UNL     1      70.250  84.027  69.552  1.00  0.00    -0.508 OA
ATOM     48  H   UNL     1      70.918  83.685  70.172  1.00  0.00     0.293 HD
ENDBRANCH  46  47
ENDBRANCH  40  41
ENDBRANCH  38  40
ENDBRANCH  37  38
ENDBRANCH   1  37
TORSDOF 10
ENDMDL
