MODEL 1
REMARK VINA RESULT:    -7.286      0.000      0.000
REMARK INTER + INTRA:         -12.963
REMARK INTER:                 -12.398
REMARK INTRA:                  -0.565
REMARK UNBOUND:                -0.565
REMARK SMILES C=C(C)[C@]12C[C@@H](C)[C@@]34O[C@](Cc5ccccc5)(O[C@@H]1[C@@H]3C=C(COC(=O)Cc1ccc(O)cc1)C[C@]1(O)C(=O)C(C)=C[C@@H]41)O2
REMARK SMILES IDX 23 1 22 2 21 3 20 4 9 5 8 6 10 7 6 8 18 10 44 11 19 12 5 13
REMARK SMILES IDX 7 14 4 15 11 16 12 17 13 18 17 19 14 20 16 21 15 22 2 23
REMARK SMILES IDX 3 24 1 25 35 26 36 27 43 28 38 29 42 30 39 32 40 33 41 34
REMARK SMILES IDX 37 35 24 37 25 38 26 39 27 40 28 41 29 42 34 43 30 44 33 45
REMARK SMILES IDX 31 46 32 47
REMARK H PARENT 37 36 32 48
REMARK Flexibility Score: 90.00
ROOT
ATOM      1  C   UNL     1      98.285  79.137  80.897  1.00  0.00     0.264 C 
ENDROOT
BRANCH   1   2
ATOM      2  C   UNL     1      98.502  79.930  82.165  1.00  0.00    -0.033 C 
ATOM      3  C   UNL     1      97.521  80.742  82.611  1.00  0.00    -0.015 C 
BRANCH   3   4
ATOM      4  C   UNL     1      97.518  81.690  83.800  1.00  0.00     0.078 C 
ATOM      5  O   UNL     1      96.580  80.439  85.716  1.00  0.00    -0.319 OA
ATOM      6  C   UNL     1      97.792  81.097  85.230  1.00  0.00     0.095 CG0
ATOM      7  C   UNL     1      95.353  81.152  85.471  1.00  0.00     0.289 C 
ATOM      8  C   UNL     1      98.152  82.305  86.190  1.00  0.00     0.023 C 
ATOM      9  G   UNL     1      98.851  79.958  85.163  1.00  0.00     0.000 G0
ATOM     10  O   UNL     1      95.170  81.406  84.081  1.00  0.00    -0.320 OA
ATOM     11  O   UNL     1      95.334  82.430  86.102  1.00  0.00    -0.313 OA
ATOM     12  C   UNL     1      96.159  82.428  83.880  1.00  0.00     0.170 C 
ATOM     13  C   UNL     1      97.382  83.601  85.791  1.00  0.00     0.049 C 
ATOM     14  C   UNL     1      97.956  82.038  87.692  1.00  0.00     0.011 C 
ATOM     15  C   UNL     1      96.023  83.282  85.164  1.00  0.00     0.122 C 
BRANCH   7  16
ATOM     16  C   UNL     1      94.204  80.313  85.995  1.00  0.00     0.135 C 
BRANCH  16  17
ATOM     17  C   UNL     1      92.932  80.548  85.220  1.00  0.00    -0.040 A 
ATOM     18  C   UNL     1      92.381  81.827  85.152  1.00  0.00     0.004 A 
ATOM     19  C   UNL     1      92.307  79.483  84.570  1.00  0.00     0.004 A 
ATOM     20  C   UNL     1      91.204  82.043  84.434  1.00  0.00     0.000 A 
ATOM     21  C   UNL     1      91.130  79.700  83.851  1.00  0.00     0.000 A 
ATOM     22  C   UNL     1      90.580  80.979  83.784  1.00  0.00     0.000 A 
ENDBRANCH  16  17
ENDBRANCH   7  16
BRANCH  15  23
ATOM     23  C   UNL     1      95.193  84.504  84.941  1.00  0.00    -0.046 C 
ATOM     24  C   UNL     1      95.619  85.397  83.813  1.00  0.00     0.042 C 
ATOM     25  C   UNL     1      94.129  84.788  85.705  1.00  0.00     0.010 C 
ENDBRANCH  15  23
ENDBRANCH   3   4
BRANCH   2  26
ATOM     26  C   UNL     1      99.859  79.684  82.798  1.00  0.00     0.078 C 
BRANCH  26  27
ATOM     27  C   UNL     1     100.069  80.197  84.221  1.00  0.00     0.140 C 
ATOM     28  C   UNL     1      98.841  79.946  85.119  1.00  0.00     0.086 CG0
ATOM     29  C   UNL     1     101.164  79.448  84.951  1.00  0.00     0.190 C 
ATOM     30  C   UNL     1      99.438  79.393  86.383  1.00  0.00    -0.010 C 
ATOM     31  G   UNL     1      97.808  81.107  85.208  1.00  0.00     0.000 G0
ATOM     32  O   UNL     1     102.280  79.216  84.509  1.00  0.00    -0.291 OA
ATOM     33  C   UNL     1     100.734  79.077  86.312  1.00  0.00    -0.008 C 
ATOM     34  C   UNL     1     101.616  78.445  87.316  1.00  0.00     0.048 C 
BRANCH  27  35
ATOM     35  O   UNL     1     100.518  81.542  84.226  1.00  0.00    -0.381 OA
ATOM     36  H   UNL     1     100.323  81.927  85.097  1.00  0.00     0.212 HD
ENDBRANCH  27  35
ENDBRANCH  26  27
ENDBRANCH   2  26
ENDBRANCH   1   2
BRANCH   1  37
ATOM     37  O   UNL     1      99.220  79.550  79.923  1.00  0.00    -0.461 OA
BRANCH  37  38
ATOM     38  C   UNL     1      98.704  80.181  78.815  1.00  0.00     0.310 C 
ATOM     39  O   UNL     1      97.970  79.658  77.987  1.00  0.00    -0.252 OA
BRANCH  38  40
ATOM     40  C   UNL     1      99.182  81.613  78.781  1.00  0.00     0.158 C 
BRANCH  40  41
ATOM     41  C   UNL     1      98.399  82.472  77.823  1.00  0.00    -0.037 A 
ATOM     42  C   UNL     1      97.290  83.187  78.275  1.00  0.00     0.008 A 
ATOM     43  C   UNL     1      98.781  82.552  76.485  1.00  0.00     0.008 A 
ATOM     44  C   UNL     1      96.563  83.982  77.388  1.00  0.00     0.046 A 
ATOM     45  C   UNL     1      98.056  83.348  75.597  1.00  0.00     0.046 A 
ATOM     46  C   UNL     1      96.947  84.062  76.049  1.00  0.00     0.115 A 
BRANCH  46  47
ATOM     47  O   UNL     1      96.238  84.838  75.184  1.00  0.00    -0.508 OA
ATOM     48  H   UNL     1      96.038  84.318  74.385  1.00  0.00     0.293 HD
ENDBRANCH  46  47
ENDBRANCH  40  41
ENDBRANCH  38  40
ENDBRANCH  37  38
ENDBRANCH   1  37
TORSDOF 10
ENDMDL
MODEL 2
REMARK VINA RESULT:    -6.319     32.555     37.524
REMARK INTER + INTRA:         -11.318
REMARK INTER:                 -10.336
REMARK INTRA:                  -0.982
REMARK UNBOUND:                -0.565
REMARK SMILES C=C(C)[C@]12C[C@@H](C)[C@@]34O[C@](Cc5ccccc5)(O[C@@H]1[C@@H]3C=C(COC(=O)Cc1ccc(O)cc1)C[C@]1(O)C(=O)C(C)=C[C@@H]41)O2
REMARK SMILES IDX 23 1 22 2 21 3 20 4 9 5 8 6 10 7 6 8 18 10 44 11 19 12 5 13
REMARK SMILES IDX 7 14 4 15 11 16 12 17 13 18 17 19 14 20 16 21 15 22 2 23
REMARK SMILES IDX 3 24 1 25 35 26 36 27 43 28 38 29 42 30 39 32 40 33 41 34
REMARK SMILES IDX 37 35 24 37 25 38 26 39 27 40 28 41 29 42 34 43 30 44 33 45
REMARK SMILES IDX 31 46 32 47
REMARK H PARENT 37 36 32 48
REMARK Flexibility Score: 90.00
ROOT
ATOM      1  C   UNL     1      57.646  79.386  84.099  1.00  0.00     0.264 C 
ENDROOT
BRANCH   1   2
ATOM      2  C   UNL     1      58.744  78.360  84.259  1.00  0.00    -0.033 C 
ATOM      3  C   UNL     1      59.925  78.556  83.637  1.00  0.00    -0.015 C 
BRANCH   3   4
ATOM      4  C   UNL     1      61.146  77.652  83.577  1.00  0.00     0.078 C 
ATOM      5  O   UNL     1      62.637  78.329  85.431  1.00  0.00    -0.319 OA
ATOM      6  C   UNL     1      61.826  77.221  84.928  1.00  0.00     0.095 CG0
ATOM      7  C   UNL     1      63.418  79.020  84.437  1.00  0.00     0.289 C 
ATOM      8  C   UNL     1      62.765  75.983  84.619  1.00  0.00     0.023 C 
ATOM      9  G   UNL     1      60.758  76.989  86.036  1.00  0.00     0.000 G0
ATOM     10  O   UNL     1      62.593  79.536  83.396  1.00  0.00    -0.320 OA
ATOM     11  O   UNL     1      64.358  78.162  83.793  1.00  0.00    -0.313 OA
ATOM     12  C   UNL     1      62.251  78.316  82.719  1.00  0.00     0.170 C 
ATOM     13  C   UNL     1      63.383  76.077  83.191  1.00  0.00     0.049 C 
ATOM     14  C   UNL     1      63.885  75.731  85.644  1.00  0.00     0.011 C 
ATOM     15  C   UNL     1      63.583  77.529  82.754  1.00  0.00     0.122 C 
BRANCH   7  16
ATOM     16  C   UNL     1      64.155  80.156  85.118  1.00  0.00     0.135 C 
BRANCH  16  17
ATOM     17  C   UNL     1      63.852  81.490  84.482  1.00  0.00    -0.040 A 
ATOM     18  C   UNL     1      63.102  82.438  85.177  1.00  0.00     0.004 A 
ATOM     19  C   UNL     1      64.321  81.773  83.200  1.00  0.00     0.004 A 
ATOM     20  C   UNL     1      62.822  83.673  84.589  1.00  0.00     0.000 A 
ATOM     21  C   UNL     1      64.041  83.007  82.612  1.00  0.00     0.000 A 
ATOM     22  C   UNL     1      63.291  83.956  83.307  1.00  0.00     0.000 A 
ENDBRANCH  16  17
ENDBRANCH   7  16
BRANCH  15  23
ATOM     23  C   UNL     1      64.338  77.643  81.470  1.00  0.00    -0.046 C 
ATOM     24  C   UNL     1      63.624  78.327  80.341  1.00  0.00     0.042 C 
ATOM     25  C   UNL     1      65.582  77.161  81.332  1.00  0.00     0.010 C 
ENDBRANCH  15  23
ENDBRANCH   3   4
BRANCH   2  26
ATOM     26  C   UNL     1      58.348  77.197  85.149  1.00  0.00     0.078 C 
BRANCH  26  27
ATOM     27  C   UNL     1      59.456  76.238  85.579  1.00  0.00     0.140 C 
ATOM     28  C   UNL     1      60.731  76.982  86.025  1.00  0.00     0.086 CG0
ATOM     29  C   UNL     1      59.090  75.448  86.818  1.00  0.00     0.190 C 
ATOM     30  C   UNL     1      61.114  76.287  87.302  1.00  0.00    -0.010 C 
ATOM     31  G   UNL     1      61.811  77.211  84.928  1.00  0.00     0.000 G0
ATOM     32  O   UNL     1      58.040  74.847  86.990  1.00  0.00    -0.291 OA
ATOM     33  C   UNL     1      60.201  75.440  87.788  1.00  0.00    -0.008 C 
ATOM     34  C   UNL     1      60.202  74.658  89.042  1.00  0.00     0.048 C 
BRANCH  27  35
ATOM     35  O   UNL     1      59.688  75.240  84.598  1.00  0.00    -0.381 OA
ATOM     36  H   UNL     1      58.863  75.098  84.104  1.00  0.00     0.212 HD
ENDBRANCH  27  35
ENDBRANCH  26  27
ENDBRANCH   2  26
ENDBRANCH   1   2
BRANCH   1  37
ATOM     37  O   UNL     1      57.130  79.718  85.370  1.00  0.00    -0.461 OA
BRANCH  37  38
ATOM     38  C   UNL     1      57.896  80.568  86.134  1.00  0.00     0.310 C 
ATOM     39  O   UNL     1      58.300  81.665  85.774  1.00  0.00    -0.252 OA
BRANCH  38  40
ATOM     40  C   UNL     1      58.158  79.937  87.480  1.00  0.00     0.158 C 
BRANCH  40  41
ATOM     41  C   UNL     1      56.894  79.605  88.230  1.00  0.00    -0.037 A 
ATOM     42  C   UNL     1      56.576  78.275  88.508  1.00  0.00     0.008 A 
ATOM     43  C   UNL     1      56.040  80.626  88.645  1.00  0.00     0.008 A 
ATOM     44  C   UNL     1      55.405  77.968  89.201  1.00  0.00     0.046 A 
ATOM     45  C   UNL     1      54.869  80.320  89.339  1.00  0.00     0.046 A 
ATOM     46  C   UNL     1      54.551  78.991  89.616  1.00  0.00     0.115 A 
BRANCH  46  47
ATOM     47  O   UNL     1      53.409  78.690  90.292  1.00  0.00    -0.508 OA
ATOM     48  H   UNL     1      53.638  78.182  91.090  1.00  0.00     0.293 HD
ENDBRANCH  46  47
ENDBRANCH  40  41
ENDBRANCH  38  40
ENDBRANCH  37  38
ENDBRANCH   1  37
TORSDOF 10
ENDMDL
MODEL 3
REMARK VINA RESULT:    -6.132      2.299      4.527
REMARK INTER + INTRA:         -10.999
REMARK INTER:                 -10.708
REMARK INTRA:                  -0.291
REMARK UNBOUND:                -0.565
REMARK SMILES C=C(C)[C@]12C[C@@H](C)[C@@]34O[C@](Cc5ccccc5)(O[C@@H]1[C@@H]3C=C(COC(=O)Cc1ccc(O)cc1)C[C@]1(O)C(=O)C(C)=C[C@@H]41)O2
REMARK SMILES IDX 23 1 22 2 21 3 20 4 9 5 8 6 10 7 6 8 18 10 44 11 19 12 5 13
REMARK SMILES IDX 7 14 4 15 11 16 12 17 13 18 17 19 14 20 16 21 15 22 2 23
REMARK SMILES IDX 3 24 1 25 35 26 36 27 43 28 38 29 42 30 39 32 40 33 41 34
REMARK SMILES IDX 37 35 24 37 25 38 26 39 27 40 28 41 29 42 34 43 30 44 33 45
REMARK SMILES IDX 31 46 32 47
REMARK H PARENT 37 36 32 48
REMARK Flexibility Score: 90.00
ROOT
ATOM      1  C   UNL     1      98.731  77.080  82.085  1.00  0.00     0.264 C 
ENDROOT
BRANCH   1   2
ATOM      2  C   UNL     1      97.837  77.434  83.250  1.00  0.00    -0.033 C 
ATOM      3  C   UNL     1      98.048  78.589  83.916  1.00  0.00    -0.015 C 
BRANCH   3   4
ATOM      4  C   UNL     1      97.348  79.133  85.151  1.00  0.00     0.078 C 
ATOM      5  O   UNL     1      95.484  80.550  84.357  1.00  0.00    -0.319 OA
ATOM      6  C   UNL     1      95.789  79.330  85.102  1.00  0.00     0.095 CG0
ATOM      7  C   UNL     1      96.329  81.679  84.654  1.00  0.00     0.289 C 
ATOM      8  C   UNL     1      95.277  79.485  86.593  1.00  0.00     0.023 C 
ATOM      9  G   UNL     1      95.113  78.195  84.278  1.00  0.00     0.000 G0
ATOM     10  O   UNL     1      97.701  81.373  84.424  1.00  0.00    -0.320 OA
ATOM     11  O   UNL     1      96.246  82.073  86.022  1.00  0.00    -0.313 OA
ATOM     12  C   UNL     1      97.955  80.504  85.538  1.00  0.00     0.170 C 
ATOM     13  C   UNL     1      96.334  80.202  87.489  1.00  0.00     0.049 C 
ATOM     14  C   UNL     1      93.915  80.180  86.757  1.00  0.00     0.011 C 
ATOM     15  C   UNL     1      97.177  81.194  86.685  1.00  0.00     0.122 C 
BRANCH   7  16
ATOM     16  C   UNL     1      95.905  82.835  83.769  1.00  0.00     0.135 C 
BRANCH  16  17
ATOM     17  C   UNL     1      95.016  83.810  84.500  1.00  0.00    -0.040 A 
ATOM     18  C   UNL     1      95.345  85.165  84.532  1.00  0.00     0.004 A 
ATOM     19  C   UNL     1      93.864  83.357  85.142  1.00  0.00     0.004 A 
ATOM     20  C   UNL     1      94.522  86.067  85.207  1.00  0.00     0.000 A 
ATOM     21  C   UNL     1      93.041  84.259  85.817  1.00  0.00     0.000 A 
ATOM     22  C   UNL     1      93.371  85.614  85.849  1.00  0.00     0.000 A 
ENDBRANCH  16  17
ENDBRANCH   7  16
BRANCH  15  23
ATOM     23  C   UNL     1      98.070  82.021  87.552  1.00  0.00    -0.046 C 
ATOM     24  C   UNL     1      97.770  82.002  89.021  1.00  0.00     0.042 C 
ATOM     25  C   UNL     1      99.082  82.740  87.045  1.00  0.00     0.010 C 
ENDBRANCH  15  23
ENDBRANCH   3   4
BRANCH   2  26
ATOM     26  C   UNL     1      96.767  76.393  83.519  1.00  0.00     0.078 C 
BRANCH  26  27
ATOM     27  C   UNL     1      95.659  76.767  84.501  1.00  0.00     0.140 C 
ATOM     28  C   UNL     1      95.129  78.197  84.267  1.00  0.00     0.086 CG0
ATOM     29  C   UNL     1      94.414  75.925  84.320  1.00  0.00     0.190 C 
ATOM     30  C   UNL     1      93.636  78.029  84.317  1.00  0.00    -0.010 C 
ATOM     31  G   UNL     1      95.800  79.323  85.106  1.00  0.00     0.000 G0
ATOM     32  O   UNL     1      94.390  74.706  84.235  1.00  0.00    -0.291 OA
ATOM     33  C   UNL     1      93.202  76.766  84.319  1.00  0.00    -0.008 C 
ATOM     34  C   UNL     1      91.824  76.233  84.282  1.00  0.00     0.048 C 
BRANCH  27  35
ATOM     35  O   UNL     1      96.047  76.513  85.841  1.00  0.00    -0.381 OA
ATOM     36  H   UNL     1      95.249  76.311  86.359  1.00  0.00     0.212 HD
ENDBRANCH  27  35
ENDBRANCH  26  27
ENDBRANCH   2  26
ENDBRANCH   1   2
BRANCH   1  37
ATOM     37  O   UNL     1      98.189  77.621  80.899  1.00  0.00    -0.461 OA
BRANCH  37  38
ATOM     38  C   UNL     1      98.630  78.876  80.547  1.00  0.00     0.310 C 
ATOM     39  O   UNL     1      99.731  79.127  80.077  1.00  0.00    -0.252 OA
BRANCH  38  40
ATOM     40  C   UNL     1      97.547  79.889  80.832  1.00  0.00     0.158 C 
BRANCH  40  41
ATOM     41  C   UNL     1      97.570  81.057  79.881  1.00  0.00    -0.037 A 
ATOM     42  C   UNL     1      97.466  82.358  80.371  1.00  0.00     0.008 A 
ATOM     43  C   UNL     1      97.695  80.837  78.509  1.00  0.00     0.008 A 
ATOM     44  C   UNL     1      97.486  83.440  79.491  1.00  0.00     0.046 A 
ATOM     45  C   UNL     1      97.715  81.919  77.628  1.00  0.00     0.046 A 
ATOM     46  C   UNL     1      97.611  83.220  78.118  1.00  0.00     0.115 A 
BRANCH  46  47
ATOM     47  O   UNL     1      97.630  84.275  77.259  1.00  0.00    -0.508 OA
ATOM     48  H   UNL     1      96.733  84.648  77.197  1.00  0.00     0.293 HD
ENDBRANCH  46  47
ENDBRANCH  40  41
ENDBRANCH  38  40
ENDBRANCH  37  38
ENDBRANCH   1  37
TORSDOF 10
ENDMDL
MODEL 4
REMARK VINA RESULT:    -6.079     32.365     37.365
REMARK INTER + INTRA:         -10.909
REMARK INTER:                  -9.720
REMARK INTRA:                  -1.189
REMARK UNBOUND:                -0.565
REMARK SMILES C=C(C)[C@]12C[C@@H](C)[C@@]34O[C@](Cc5ccccc5)(O[C@@H]1[C@@H]3C=C(COC(=O)Cc1ccc(O)cc1)C[C@]1(O)C(=O)C(C)=C[C@@H]41)O2
REMARK SMILES IDX 23 1 22 2 21 3 20 4 9 5 8 6 10 7 6 8 18 10 44 11 19 12 5 13
REMARK SMILES IDX 7 14 4 15 11 16 12 17 13 18 17 19 14 20 16 21 15 22 2 23
REMARK SMILES IDX 3 24 1 25 35 26 36 27 43 28 38 29 42 30 39 32 40 33 41 34
REMARK SMILES IDX 37 35 24 37 25 38 26 39 27 40 28 41 29 42 34 43 30 44 33 45
REMARK SMILES IDX 31 46 32 47
REMARK H PARENT 37 36 32 48
REMARK Flexibility Score: 90.00
ROOT
ATOM      1  C   UNL     1      58.611  78.576  88.738  1.00  0.00     0.264 C 
ENDROOT
BRANCH   1   2
ATOM      2  C   UNL     1      59.220  77.879  87.543  1.00  0.00    -0.033 C 
ATOM      3  C   UNL     1      60.159  78.519  86.815  1.00  0.00    -0.015 C 
BRANCH   3   4
ATOM      4  C   UNL     1      60.862  78.075  85.543  1.00  0.00     0.078 C 
ATOM      5  O   UNL     1      62.958  76.956  86.230  1.00  0.00    -0.319 OA
ATOM      6  C   UNL     1      61.675  76.728  85.567  1.00  0.00     0.095 CG0
ATOM      7  C   UNL     1      63.629  78.179  85.868  1.00  0.00     0.289 C 
ATOM      8  C   UNL     1      61.931  76.295  84.065  1.00  0.00     0.023 C 
ATOM      9  G   UNL     1      60.962  75.668  86.457  1.00  0.00     0.000 G0
ATOM     10  O   UNL     1      62.810  79.315  86.128  1.00  0.00    -0.320 OA
ATOM     11  O   UNL     1      63.938  78.236  84.477  1.00  0.00    -0.313 OA
ATOM     12  C   UNL     1      61.845  79.176  85.073  1.00  0.00     0.170 C 
ATOM     13  C   UNL     1      62.104  77.534  83.134  1.00  0.00     0.049 C 
ATOM     14  C   UNL     1      63.106  75.326  83.847  1.00  0.00     0.011 C 
ATOM     15  C   UNL     1      62.718  78.720  83.878  1.00  0.00     0.122 C 
BRANCH   7  16
ATOM     16  C   UNL     1      64.909  78.274  86.673  1.00  0.00     0.135 C 
BRANCH  16  17
ATOM     17  C   UNL     1      65.312  76.942  87.256  1.00  0.00    -0.040 A 
ATOM     18  C   UNL     1      66.177  76.106  86.552  1.00  0.00     0.004 A 
ATOM     19  C   UNL     1      64.819  76.549  88.500  1.00  0.00     0.004 A 
ATOM     20  C   UNL     1      66.550  74.874  87.092  1.00  0.00     0.000 A 
ATOM     21  C   UNL     1      65.192  75.317  89.039  1.00  0.00     0.000 A 
ATOM     22  C   UNL     1      66.057  74.480  88.335  1.00  0.00     0.000 A 
ENDBRANCH  16  17
ENDBRANCH   7  16
BRANCH  15  23
ATOM     23  C   UNL     1      63.059  79.855  82.968  1.00  0.00    -0.046 C 
ATOM     24  C   UNL     1      63.762  81.021  83.597  1.00  0.00     0.042 C 
ATOM     25  C   UNL     1      62.755  79.832  81.662  1.00  0.00     0.010 C 
ENDBRANCH  15  23
ENDBRANCH   3   4
BRANCH   2  26
ATOM     26  C   UNL     1      58.668  76.484  87.321  1.00  0.00     0.078 C 
BRANCH  26  27
ATOM     27  C   UNL     1      59.391  75.600  86.306  1.00  0.00     0.140 C 
ATOM     28  C   UNL     1      60.924  75.672  86.457  1.00  0.00     0.086 CG0
ATOM     29  C   UNL     1      59.112  74.127  86.517  1.00  0.00     0.190 C 
ATOM     30  C   UNL     1      61.350  74.232  86.398  1.00  0.00    -0.010 C 
ATOM     31  G   UNL     1      61.652  76.721  85.566  1.00  0.00     0.000 G0
ATOM     32  O   UNL     1      58.006  73.630  86.668  1.00  0.00    -0.291 OA
ATOM     33  C   UNL     1      60.357  73.339  86.458  1.00  0.00    -0.008 C 
ATOM     34  C   UNL     1      60.407  71.863  86.507  1.00  0.00     0.048 C 
BRANCH  27  35
ATOM     35  O   UNL     1      58.933  75.846  84.987  1.00  0.00    -0.381 OA
ATOM     36  H   UNL     1      59.139  76.768  84.758  1.00  0.00     0.212 HD
ENDBRANCH  27  35
ENDBRANCH  26  27
ENDBRANCH   2  26
ENDBRANCH   1   2
BRANCH   1  37
ATOM     37  O   UNL     1      57.205  78.457  88.680  1.00  0.00    -0.461 OA
BRANCH  37  38
ATOM     38  C   UNL     1      56.526  79.531  88.152  1.00  0.00     0.310 C 
ATOM     39  O   UNL     1      56.700  80.698  88.472  1.00  0.00    -0.252 OA
BRANCH  38  40
ATOM     40  C   UNL     1      55.536  79.044  87.122  1.00  0.00     0.158 C 
BRANCH  40  41
ATOM     41  C   UNL     1      55.712  79.704  85.779  1.00  0.00    -0.037 A 
ATOM     42  C   UNL     1      54.727  80.561  85.288  1.00  0.00     0.008 A 
ATOM     43  C   UNL     1      56.859  79.458  85.026  1.00  0.00     0.008 A 
ATOM     44  C   UNL     1      54.889  81.172  84.044  1.00  0.00     0.046 A 
ATOM     45  C   UNL     1      57.023  80.069  83.782  1.00  0.00     0.046 A 
ATOM     46  C   UNL     1      56.038  80.925  83.292  1.00  0.00     0.115 A 
BRANCH  46  47
ATOM     47  O   UNL     1      56.196  81.521  82.078  1.00  0.00    -0.508 OA
ATOM     48  H   UNL     1      56.851  81.019  81.563  1.00  0.00     0.293 HD
ENDBRANCH  46  47
ENDBRANCH  40  41
ENDBRANCH  38  40
ENDBRANCH  37  38
ENDBRANCH   1  37
TORSDOF 10
ENDMDL
MODEL 5
REMARK VINA RESULT:    -5.971      2.803      4.794
REMARK INTER + INTRA:         -10.726
REMARK INTER:                  -8.975
REMARK INTRA:                  -1.751
REMARK UNBOUND:                -0.565
REMARK SMILES C=C(C)[C@]12C[C@@H](C)[C@@]34O[C@](Cc5ccccc5)(O[C@@H]1[C@@H]3C=C(COC(=O)Cc1ccc(O)cc1)C[C@]1(O)C(=O)C(C)=C[C@@H]41)O2
REMARK SMILES IDX 23 1 22 2 21 3 20 4 9 5 8 6 10 7 6 8 18 10 44 11 19 12 5 13
REMARK SMILES IDX 7 14 4 15 11 16 12 17 13 18 17 19 14 20 16 21 15 22 2 23
REMARK SMILES IDX 3 24 1 25 35 26 36 27 43 28 38 29 42 30 39 32 40 33 41 34
REMARK SMILES IDX 37 35 24 37 25 38 26 39 27 40 28 41 29 42 34 43 30 44 33 45
REMARK SMILES IDX 31 46 32 47
REMARK H PARENT 37 36 32 48
REMARK Flexibility Score: 90.00
ROOT
ATOM      1  C   UNL     1      98.971  76.386  80.414  1.00  0.00     0.264 C 
ENDROOT
BRANCH   1   2
ATOM      2  C   UNL     1      98.332  76.712  81.744  1.00  0.00    -0.033 C 
ATOM      3  C   UNL     1      98.611  77.891  82.338  1.00  0.00    -0.015 C 
BRANCH   3   4
ATOM      4  C   UNL     1      98.165  78.418  83.692  1.00  0.00     0.078 C 
ATOM      5  O   UNL     1      96.092  79.712  83.315  1.00  0.00    -0.319 OA
ATOM      6  C   UNL     1      96.623  78.526  83.983  1.00  0.00     0.095 CG0
ATOM      7  C   UNL     1      96.912  80.892  83.412  1.00  0.00     0.289 C 
ATOM      8  C   UNL     1      96.440  78.681  85.549  1.00  0.00     0.023 C 
ATOM      9  G   UNL     1      95.854  77.338  83.335  1.00  0.00     0.000 G0
ATOM     10  O   UNL     1      98.218  80.660  82.890  1.00  0.00    -0.320 OA
ATOM     11  O   UNL     1      97.106  81.308  84.762  1.00  0.00    -0.313 OA
ATOM     12  C   UNL     1      98.759  79.829  83.929  1.00  0.00     0.170 C 
ATOM     13  C   UNL     1      97.622  79.474  86.188  1.00  0.00     0.049 C 
ATOM     14  C   UNL     1      95.107  79.301  86.001  1.00  0.00     0.011 C 
ATOM     15  C   UNL     1      98.209  80.496  85.213  1.00  0.00     0.122 C 
BRANCH   7  16
ATOM     16  C   UNL     1      96.238  82.005  82.633  1.00  0.00     0.135 C 
BRANCH  16  17
ATOM     17  C   UNL     1      95.599  83.025  83.542  1.00  0.00    -0.040 A 
ATOM     18  C   UNL     1      94.456  82.694  84.268  1.00  0.00     0.004 A 
ATOM     19  C   UNL     1      96.153  84.300  83.655  1.00  0.00     0.004 A 
ATOM     20  C   UNL     1      93.865  83.639  85.108  1.00  0.00     0.000 A 
ATOM     21  C   UNL     1      95.562  85.244  84.496  1.00  0.00     0.000 A 
ATOM     22  C   UNL     1      94.419  84.913  85.221  1.00  0.00     0.000 A 
ENDBRANCH  16  17
ENDBRANCH   7  16
BRANCH  15  23
ATOM     23  C   UNL     1      99.218  81.389  85.858  1.00  0.00    -0.046 C 
ATOM     24  C   UNL     1      98.699  82.683  86.412  1.00  0.00     0.042 C 
ATOM     25  C   UNL     1     100.515  81.055  85.937  1.00  0.00     0.010 C 
ENDBRANCH  15  23
ENDBRANCH   3   4
BRANCH   2  26
ATOM     26  C   UNL     1      97.414  75.614  82.249  1.00  0.00     0.078 C 
BRANCH  26  27
ATOM     27  C   UNL     1      96.526  75.944  83.447  1.00  0.00     0.140 C 
ATOM     28  C   UNL     1      95.878  77.339  83.328  1.00  0.00     0.086 CG0
ATOM     29  C   UNL     1      95.320  75.033  83.543  1.00  0.00     0.190 C 
ATOM     30  C   UNL     1      94.443  77.091  83.701  1.00  0.00    -0.010 C 
ATOM     31  G   UNL     1      96.650  78.513  83.997  1.00  0.00     0.000 G0
ATOM     32  O   UNL     1      95.347  73.813  83.470  1.00  0.00    -0.291 OA
ATOM     33  C   UNL     1      94.091  75.806  83.802  1.00  0.00    -0.008 C 
ATOM     34  C   UNL     1      92.770  75.199  84.066  1.00  0.00     0.048 C 
BRANCH  27  35
ATOM     35  O   UNL     1      97.208  75.732  84.672  1.00  0.00    -0.381 OA
ATOM     36  H   UNL     1      96.929  76.419  85.301  1.00  0.00     0.212 HD
ENDBRANCH  27  35
ENDBRANCH  26  27
ENDBRANCH   2  26
ENDBRANCH   1   2
BRANCH   1  37
ATOM     37  O   UNL     1      98.360  77.157  79.402  1.00  0.00    -0.461 OA
BRANCH  37  38
ATOM     38  C   UNL     1      99.209  77.839  78.561  1.00  0.00     0.310 C 
ATOM     39  O   UNL     1      99.246  77.711  77.345  1.00  0.00    -0.252 OA
BRANCH  38  40
ATOM     40  C   UNL     1     100.083  78.765  79.371  1.00  0.00     0.158 C 
BRANCH  40  41
ATOM     41  C   UNL     1      99.493  80.142  79.529  1.00  0.00    -0.037 A 
ATOM     42  C   UNL     1      98.215  80.414  79.040  1.00  0.00     0.008 A 
ATOM     43  C   UNL     1     100.224  81.147  80.162  1.00  0.00     0.008 A 
ATOM     44  C   UNL     1      97.668  81.689  79.185  1.00  0.00     0.046 A 
ATOM     45  C   UNL     1      99.677  82.422  80.308  1.00  0.00     0.046 A 
ATOM     46  C   UNL     1      98.400  82.693  79.819  1.00  0.00     0.115 A 
BRANCH  46  47
ATOM     47  O   UNL     1      97.867  83.937  79.960  1.00  0.00    -0.508 OA
ATOM     48  H   UNL     1      98.466  84.586  79.552  1.00  0.00     0.293 HD
ENDBRANCH  46  47
ENDBRANCH  40  41
ENDBRANCH  38  40
ENDBRANCH  37  38
ENDBRANCH   1  37
TORSDOF 10
ENDMDL
MODEL 6
REMARK VINA RESULT:    -5.963     31.740     36.658
REMARK INTER + INTRA:         -10.712
REMARK INTER:                  -9.963
REMARK INTRA:                  -0.749
REMARK UNBOUND:                -0.565
REMARK SMILES C=C(C)[C@]12C[C@@H](C)[C@@]34O[C@](Cc5ccccc5)(O[C@@H]1[C@@H]3C=C(COC(=O)Cc1ccc(O)cc1)C[C@]1(O)C(=O)C(C)=C[C@@H]41)O2
REMARK SMILES IDX 23 1 22 2 21 3 20 4 9 5 8 6 10 7 6 8 18 10 44 11 19 12 5 13
REMARK SMILES IDX 7 14 4 15 11 16 12 17 13 18 17 19 14 20 16 21 15 22 2 23
REMARK SMILES IDX 3 24 1 25 35 26 36 27 43 28 38 29 42 30 39 32 40 33 41 34
REMARK SMILES IDX 37 35 24 37 25 38 26 39 27 40 28 41 29 42 34 43 30 44 33 45
REMARK SMILES IDX 31 46 32 47
REMARK H PARENT 37 36 32 48
REMARK Flexibility Score: 90.00
ROOT
ATOM      1  C   UNL     1      58.964  79.847  88.136  1.00  0.00     0.264 C 
ENDROOT
BRANCH   1   2
ATOM      2  C   UNL     1      59.807  79.418  86.957  1.00  0.00    -0.033 C 
ATOM      3  C   UNL     1      60.758  80.251  86.488  1.00  0.00    -0.015 C 
BRANCH   3   4
ATOM      4  C   UNL     1      61.675  80.091  85.286  1.00  0.00     0.078 C 
ATOM      5  O   UNL     1      63.758  79.037  86.103  1.00  0.00    -0.319 OA
ATOM      6  C   UNL     1      62.610  78.828  85.221  1.00  0.00     0.095 CG0
ATOM      7  C   UNL     1      64.343  80.352  86.049  1.00  0.00     0.289 C 
ATOM      8  C   UNL     1      63.118  78.683  83.727  1.00  0.00     0.023 C 
ATOM      9  G   UNL     1      61.893  77.577  85.808  1.00  0.00     0.000 G0
ATOM     10  O   UNL     1      63.383  81.359  86.357  1.00  0.00    -0.320 OA
ATOM     11  O   UNL     1      64.836  80.674  84.751  1.00  0.00    -0.313 OA
ATOM     12  C   UNL     1      62.594  81.330  85.157  1.00  0.00     0.170 C 
ATOM     13  C   UNL     1      63.290  80.074  83.044  1.00  0.00     0.049 C 
ATOM     14  C   UNL     1      64.405  77.861  83.543  1.00  0.00     0.011 C 
ATOM     15  C   UNL     1      63.669  81.158  84.055  1.00  0.00     0.122 C 
BRANCH   7  16
ATOM     16  C   UNL     1      65.481  80.406  87.049  1.00  0.00     0.135 C 
BRANCH  16  17
ATOM     17  C   UNL     1      65.615  79.119  87.824  1.00  0.00    -0.040 A 
ATOM     18  C   UNL     1      64.755  78.853  88.888  1.00  0.00     0.004 A 
ATOM     19  C   UNL     1      66.601  78.196  87.475  1.00  0.00     0.004 A 
ATOM     20  C   UNL     1      64.879  77.662  89.605  1.00  0.00     0.000 A 
ATOM     21  C   UNL     1      66.725  77.005  88.192  1.00  0.00     0.000 A 
ATOM     22  C   UNL     1      65.865  76.739  89.256  1.00  0.00     0.000 A 
ENDBRANCH  16  17
ENDBRANCH   7  16
BRANCH  15  23
ATOM     23  C   UNL     1      64.015  82.456  83.401  1.00  0.00    -0.046 C 
ATOM     24  C   UNL     1      64.699  83.472  84.268  1.00  0.00     0.042 C 
ATOM     25  C   UNL     1      63.732  82.700  82.113  1.00  0.00     0.010 C 
ENDBRANCH  15  23
ENDBRANCH   3   4
BRANCH   2  26
ATOM     26  C   UNL     1      59.451  78.035  86.444  1.00  0.00     0.078 C 
BRANCH  26  27
ATOM     27  C   UNL     1      60.386  77.413  85.408  1.00  0.00     0.140 C 
ATOM     28  C   UNL     1      61.872  77.580  85.788  1.00  0.00     0.086 CG0
ATOM     29  C   UNL     1      60.239  75.909  85.323  1.00  0.00     0.190 C 
ATOM     30  C   UNL     1      62.451  76.214  85.547  1.00  0.00    -0.010 C 
ATOM     31  G   UNL     1      62.593  78.829  85.203  1.00  0.00     0.000 G0
ATOM     32  O   UNL     1      59.181  75.305  85.226  1.00  0.00    -0.291 OA
ATOM     33  C   UNL     1      61.558  75.248  85.311  1.00  0.00    -0.008 C 
ATOM     34  C   UNL     1      61.756  73.797  85.115  1.00  0.00     0.048 C 
BRANCH  27  35
ATOM     35  O   UNL     1      60.077  77.858  84.098  1.00  0.00    -0.381 OA
ATOM     36  H   UNL     1      59.976  78.825  84.118  1.00  0.00     0.212 HD
ENDBRANCH  27  35
ENDBRANCH  26  27
ENDBRANCH   2  26
ENDBRANCH   1   2
BRANCH   1  37
ATOM     37  O   UNL     1      57.835  79.006  88.233  1.00  0.00    -0.461 OA
BRANCH  37  38
ATOM     38  C   UNL     1      56.608  79.628  88.179  1.00  0.00     0.310 C 
ATOM     39  O   UNL     1      56.270  80.575  88.875  1.00  0.00    -0.252 OA
BRANCH  38  40
ATOM     40  C   UNL     1      55.751  78.960  87.131  1.00  0.00     0.158 C 
BRANCH  40  41
ATOM     41  C   UNL     1      55.761  79.687  85.812  1.00  0.00    -0.037 A 
ATOM     42  C   UNL     1      56.920  79.705  85.035  1.00  0.00     0.008 A 
ATOM     43  C   UNL     1      54.614  80.343  85.367  1.00  0.00     0.008 A 
ATOM     44  C   UNL     1      56.930  80.379  83.813  1.00  0.00     0.046 A 
ATOM     45  C   UNL     1      54.623  81.017  84.146  1.00  0.00     0.046 A 
ATOM     46  C   UNL     1      55.781  81.035  83.369  1.00  0.00     0.115 A 
BRANCH  46  47
ATOM     47  O   UNL     1      55.792  81.693  82.178  1.00  0.00    -0.508 OA
ATOM     48  H   UNL     1      56.327  82.501  82.268  1.00  0.00     0.293 HD
ENDBRANCH  46  47
ENDBRANCH  40  41
ENDBRANCH  38  40
ENDBRANCH  37  38
ENDBRANCH   1  37
TORSDOF 10
ENDMDL
MODEL 7
REMARK VINA RESULT:    -5.778     32.277     36.201
REMARK INTER + INTRA:         -10.398
REMARK INTER:                  -8.187
REMARK INTRA:                  -2.210
REMARK UNBOUND:                -0.565
REMARK SMILES C=C(C)[C@]12C[C@@H](C)[C@@]34O[C@](Cc5ccccc5)(O[C@@H]1[C@@H]3C=C(COC(=O)Cc1ccc(O)cc1)C[C@]1(O)C(=O)C(C)=C[C@@H]41)O2
REMARK SMILES IDX 23 1 22 2 21 3 20 4 9 5 8 6 10 7 6 8 18 10 44 11 19 12 5 13
REMARK SMILES IDX 7 14 4 15 11 16 12 17 13 18 17 19 14 20 16 21 15 22 2 23
REMARK SMILES IDX 3 24 1 25 35 26 36 27 43 28 38 29 42 30 39 32 40 33 41 34
REMARK SMILES IDX 37 35 24 37 25 38 26 39 27 40 28 41 29 42 34 43 30 44 33 45
REMARK SMILES IDX 31 46 32 47
REMARK H PARENT 37 36 32 48
REMARK Flexibility Score: 90.00
ROOT
ATOM      1  C   UNL     1      62.745  70.651  82.450  1.00  0.00     0.264 C 
ENDROOT
BRANCH   1   2
ATOM      2  C   UNL     1      62.805  69.142  82.492  1.00  0.00    -0.033 C 
ATOM      3  C   UNL     1      63.419  68.478  81.490  1.00  0.00    -0.015 C 
BRANCH   3   4
ATOM      4  C   UNL     1      63.547  66.981  81.261  1.00  0.00     0.078 C 
ATOM      5  O   UNL     1      65.667  66.269  82.316  1.00  0.00    -0.319 OA
ATOM      6  C   UNL     1      64.216  66.106  82.384  1.00  0.00     0.095 CG0
ATOM      7  C   UNL     1      66.226  66.261  80.989  1.00  0.00     0.289 C 
ATOM      8  C   UNL     1      63.846  64.593  82.097  1.00  0.00     0.023 C 
ATOM      9  G   UNL     1      63.832  66.633  83.797  1.00  0.00     0.000 G0
ATOM     10  O   UNL     1      65.647  67.278  80.177  1.00  0.00    -0.320 OA
ATOM     11  O   UNL     1      65.980  65.034  80.305  1.00  0.00    -0.313 OA
ATOM     12  C   UNL     1      64.344  66.714  79.960  1.00  0.00     0.170 C 
ATOM     13  C   UNL     1      63.728  64.312  80.568  1.00  0.00     0.049 C 
ATOM     14  C   UNL     1      64.780  63.551  82.737  1.00  0.00     0.011 C 
ATOM     15  C   UNL     1      64.658  65.212  79.754  1.00  0.00     0.122 C 
BRANCH   7  16
ATOM     16  C   UNL     1      67.722  66.484  81.102  1.00  0.00     0.135 C 
BRANCH  16  17
ATOM     17  C   UNL     1      68.090  67.225  82.363  1.00  0.00    -0.040 A 
ATOM     18  C   UNL     1      67.960  68.612  82.420  1.00  0.00     0.004 A 
ATOM     19  C   UNL     1      68.560  66.521  83.472  1.00  0.00     0.004 A 
ATOM     20  C   UNL     1      68.300  69.297  83.588  1.00  0.00     0.000 A 
ATOM     21  C   UNL     1      68.900  67.206  84.639  1.00  0.00     0.000 A 
ATOM     22  C   UNL     1      68.770  68.593  84.696  1.00  0.00     0.000 A 
ENDBRANCH  16  17
ENDBRANCH   7  16
BRANCH  15  23
ATOM     23  C   UNL     1      64.697  64.840  78.308  1.00  0.00    -0.046 C 
ATOM     24  C   UNL     1      64.094  65.827  77.353  1.00  0.00     0.042 C 
ATOM     25  C   UNL     1      65.240  63.688  77.887  1.00  0.00     0.010 C 
ENDBRANCH  15  23
ENDBRANCH   3   4
BRANCH   2  26
ATOM     26  C   UNL     1      62.140  68.553  83.722  1.00  0.00     0.078 C 
BRANCH  26  27
ATOM     27  C   UNL     1      62.342  67.061  83.978  1.00  0.00     0.140 C 
ATOM     28  C   UNL     1      63.811  66.630  83.787  1.00  0.00     0.086 CG0
ATOM     29  C   UNL     1      62.076  66.679  85.419  1.00  0.00     0.190 C 
ATOM     30  C   UNL     1      64.084  65.774  84.993  1.00  0.00    -0.010 C 
ATOM     31  G   UNL     1      64.192  66.101  82.374  1.00  0.00     0.000 G0
ATOM     32  O   UNL     1      61.090  67.000  86.066  1.00  0.00    -0.291 OA
ATOM     33  C   UNL     1      63.142  65.803  85.940  1.00  0.00    -0.008 C 
ATOM     34  C   UNL     1      63.112  65.163  87.272  1.00  0.00     0.048 C 
BRANCH  27  35
ATOM     35  O   UNL     1      61.416  66.278  83.243  1.00  0.00    -0.381 OA
ATOM     36  H   UNL     1      61.332  66.658  82.352  1.00  0.00     0.212 HD
ENDBRANCH  27  35
ENDBRANCH  26  27
ENDBRANCH   2  26
ENDBRANCH   1   2
BRANCH   1  37
ATOM     37  O   UNL     1      62.302  71.135  83.700  1.00  0.00    -0.461 OA
BRANCH  37  38
ATOM     38  C   UNL     1      62.575  72.456  83.971  1.00  0.00     0.310 C 
ATOM     39  O   UNL     1      62.427  73.380  83.183  1.00  0.00    -0.252 OA
BRANCH  38  40
ATOM     40  C   UNL     1      63.083  72.585  85.387  1.00  0.00     0.158 C 
BRANCH  40  41
ATOM     41  C   UNL     1      63.748  71.330  85.890  1.00  0.00    -0.037 A 
ATOM     42  C   UNL     1      63.081  70.502  86.793  1.00  0.00     0.008 A 
ATOM     43  C   UNL     1      65.029  70.996  85.452  1.00  0.00     0.008 A 
ATOM     44  C   UNL     1      63.697  69.340  87.260  1.00  0.00     0.046 A 
ATOM     45  C   UNL     1      65.645  69.833  85.918  1.00  0.00     0.046 A 
ATOM     46  C   UNL     1      64.979  69.006  86.822  1.00  0.00     0.115 A 
BRANCH  46  47
ATOM     47  O   UNL     1      65.579  67.873  87.277  1.00  0.00    -0.508 OA
ATOM     48  H   UNL     1      65.729  67.272  86.526  1.00  0.00     0.293 HD
ENDBRANCH  46  47
ENDBRANCH  40  41
ENDBRANCH  38  40
ENDBRANCH  37  38
ENDBRANCH   1  37
TORSDOF 10
ENDMDL
MODEL 8
REMARK VINA RESULT:    -5.769      4.065      6.939
REMARK INTER + INTRA:         -10.381
REMARK INTER:                 -10.531
REMARK INTRA:                   0.149
REMARK UNBOUND:                -0.565
REMARK SMILES C=C(C)[C@]12C[C@@H](C)[C@@]34O[C@](Cc5ccccc5)(O[C@@H]1[C@@H]3C=C(COC(=O)Cc1ccc(O)cc1)C[C@]1(O)C(=O)C(C)=C[C@@H]41)O2
REMARK SMILES IDX 23 1 22 2 21 3 20 4 9 5 8 6 10 7 6 8 18 10 44 11 19 12 5 13
REMARK SMILES IDX 7 14 4 15 11 16 12 17 13 18 17 19 14 20 16 21 15 22 2 23
REMARK SMILES IDX 3 24 1 25 35 26 36 27 43 28 38 29 42 30 39 32 40 33 41 34
REMARK SMILES IDX 37 35 24 37 25 38 26 39 27 40 28 41 29 42 34 43 30 44 33 45
REMARK SMILES IDX 31 46 32 47
REMARK H PARENT 37 36 32 48
REMARK Flexibility Score: 90.00
ROOT
ATOM      1  C   UNL     1      91.177  78.534  84.754  1.00  0.00     0.264 C 
ENDROOT
BRANCH   1   2
ATOM      2  C   UNL     1      92.634  78.930  84.811  1.00  0.00    -0.033 C 
ATOM      3  C   UNL     1      92.970  80.230  84.679  1.00  0.00    -0.015 C 
BRANCH   3   4
ATOM      4  C   UNL     1      94.348  80.871  84.625  1.00  0.00     0.078 C 
ATOM      5  O   UNL     1      94.936  81.513  86.940  1.00  0.00    -0.319 OA
ATOM      6  C   UNL     1      95.328  80.642  85.833  1.00  0.00     0.095 CG0
ATOM      7  C   UNL     1      94.578  82.858  86.566  1.00  0.00     0.289 C 
ATOM      8  C   UNL     1      96.785  81.033  85.350  1.00  0.00     0.023 C 
ATOM      9  G   UNL     1      95.177  79.201  86.403  1.00  0.00     0.000 G0
ATOM     10  O   UNL     1      93.512  82.867  85.621  1.00  0.00    -0.320 OA
ATOM     11  O   UNL     1      95.655  83.551  85.940  1.00  0.00    -0.313 OA
ATOM     12  C   UNL     1      94.208  82.404  84.453  1.00  0.00     0.170 C 
ATOM     13  C   UNL     1      96.751  82.200  84.316  1.00  0.00     0.049 C 
ATOM     14  C   UNL     1      97.784  81.373  86.469  1.00  0.00     0.011 C 
ATOM     15  C   UNL     1      95.567  83.138  84.560  1.00  0.00     0.122 C 
BRANCH   7  16
ATOM     16  C   UNL     1      94.160  83.602  87.819  1.00  0.00     0.135 C 
BRANCH  16  17
ATOM     17  C   UNL     1      94.048  82.686  89.012  1.00  0.00    -0.040 A 
ATOM     18  C   UNL     1      92.967  81.811  89.120  1.00  0.00     0.004 A 
ATOM     19  C   UNL     1      95.025  82.715  90.006  1.00  0.00     0.004 A 
ATOM     20  C   UNL     1      92.864  80.963  90.224  1.00  0.00     0.000 A 
ATOM     21  C   UNL     1      94.922  81.867  91.109  1.00  0.00     0.000 A 
ATOM     22  C   UNL     1      93.842  80.992  91.218  1.00  0.00     0.000 A 
ENDBRANCH  16  17
ENDBRANCH   7  16
BRANCH  15  23
ATOM     23  C   UNL     1      95.616  84.358  83.700  1.00  0.00    -0.046 C 
ATOM     24  C   UNL     1      95.235  85.650  84.361  1.00  0.00     0.042 C 
ATOM     25  C   UNL     1      95.979  84.303  82.410  1.00  0.00     0.010 C 
ENDBRANCH  15  23
ENDBRANCH   3   4
BRANCH   2  26
ATOM     26  C   UNL     1      93.564  77.751  85.026  1.00  0.00     0.078 C 
BRANCH  26  27
ATOM     27  C   UNL     1      95.022  78.063  85.359  1.00  0.00     0.140 C 
ATOM     28  C   UNL     1      95.154  79.201  86.391  1.00  0.00     0.086 CG0
ATOM     29  C   UNL     1      95.718  76.911  86.053  1.00  0.00     0.190 C 
ATOM     30  C   UNL     1      96.170  78.674  87.366  1.00  0.00    -0.010 C 
ATOM     31  G   UNL     1      95.325  80.636  85.812  1.00  0.00     0.000 G0
ATOM     32  O   UNL     1      95.699  75.747  85.684  1.00  0.00    -0.291 OA
ATOM     33  C   UNL     1      96.487  77.384  87.220  1.00  0.00    -0.008 C 
ATOM     34  C   UNL     1      97.370  76.523  88.034  1.00  0.00     0.048 C 
BRANCH  27  35
ATOM     35  O   UNL     1      95.790  78.263  84.184  1.00  0.00    -0.381 OA
ATOM     36  H   UNL     1      95.281  78.827  83.577  1.00  0.00     0.212 HD
ENDBRANCH  27  35
ENDBRANCH  26  27
ENDBRANCH   2  26
ENDBRANCH   1   2
BRANCH   1  37
ATOM     37  O   UNL     1      91.079  77.154  84.477  1.00  0.00    -0.461 OA
BRANCH  37  38
ATOM     38  C   UNL     1      89.828  76.688  84.145  1.00  0.00     0.310 C 
ATOM     39  O   UNL     1      88.807  77.361  84.140  1.00  0.00    -0.252 OA
BRANCH  38  40
ATOM     40  C   UNL     1      89.913  75.222  83.792  1.00  0.00     0.158 C 
BRANCH  40  41
ATOM     41  C   UNL     1      90.893  74.942  82.682  1.00  0.00    -0.037 A 
ATOM     42  C   UNL     1      90.602  73.970  81.724  1.00  0.00     0.008 A 
ATOM     43  C   UNL     1      92.091  75.652  82.612  1.00  0.00     0.008 A 
ATOM     44  C   UNL     1      91.510  73.710  80.697  1.00  0.00     0.046 A 
ATOM     45  C   UNL     1      92.998  75.393  81.585  1.00  0.00     0.046 A 
ATOM     46  C   UNL     1      92.708  74.421  80.628  1.00  0.00     0.115 A 
BRANCH  46  47
ATOM     47  O   UNL     1      93.593  74.167  79.626  1.00  0.00    -0.508 OA
ATOM     48  H   UNL     1      93.127  73.720  78.898  1.00  0.00     0.293 HD
ENDBRANCH  46  47
ENDBRANCH  40  41
ENDBRANCH  38  40
ENDBRANCH  37  38
ENDBRANCH   1  37
TORSDOF 10
ENDMDL
MODEL 9
REMARK VINA RESULT:    -5.741      3.891      8.555
REMARK INTER + INTRA:         -10.334
REMARK INTER:                  -9.668
REMARK INTRA:                  -0.665
REMARK UNBOUND:                -0.565
REMARK SMILES C=C(C)[C@]12C[C@@H](C)[C@@]34O[C@](Cc5ccccc5)(O[C@@H]1[C@@H]3C=C(COC(=O)Cc1ccc(O)cc1)C[C@]1(O)C(=O)C(C)=C[C@@H]41)O2
REMARK SMILES IDX 23 1 22 2 21 3 20 4 9 5 8 6 10 7 6 8 18 10 44 11 19 12 5 13
REMARK SMILES IDX 7 14 4 15 11 16 12 17 13 18 17 19 14 20 16 21 15 22 2 23
REMARK SMILES IDX 3 24 1 25 35 26 36 27 43 28 38 29 42 30 39 32 40 33 41 34
REMARK SMILES IDX 37 35 24 37 25 38 26 39 27 40 28 41 29 42 34 43 30 44 33 45
REMARK SMILES IDX 31 46 32 47
REMARK H PARENT 37 36 32 48
REMARK Flexibility Score: 90.00
ROOT
ATOM      1  C   UNL     1      92.180  77.933  84.324  1.00  0.00     0.264 C 
ENDROOT
BRANCH   1   2
ATOM      2  C   UNL     1      93.321  78.731  84.911  1.00  0.00    -0.033 C 
ATOM      3  C   UNL     1      94.530  78.691  84.314  1.00  0.00    -0.015 C 
BRANCH   3   4
ATOM      4  C   UNL     1      95.841  79.331  84.742  1.00  0.00     0.078 C 
ATOM      5  O   UNL     1      95.960  81.539  83.634  1.00  0.00    -0.319 OA
ATOM      6  C   UNL     1      95.881  80.891  84.942  1.00  0.00     0.095 CG0
ATOM      7  C   UNL     1      96.864  80.924  82.697  1.00  0.00     0.289 C 
ATOM      8  C   UNL     1      97.184  81.234  85.776  1.00  0.00     0.023 C 
ATOM      9  G   UNL     1      94.544  81.406  85.550  1.00  0.00     0.000 G0
ATOM     10  O   UNL     1      96.528  79.558  82.473  1.00  0.00    -0.320 OA
ATOM     11  O   UNL     1      98.210  80.918  83.166  1.00  0.00    -0.313 OA
ATOM     12  C   UNL     1      96.953  78.988  83.721  1.00  0.00     0.170 C 
ATOM     13  C   UNL     1      98.349  80.252  85.446  1.00  0.00     0.049 C 
ATOM     14  C   UNL     1      97.687  82.682  85.650  1.00  0.00     0.011 C 
ATOM     15  C   UNL     1      98.272  79.746  84.004  1.00  0.00     0.122 C 
BRANCH   7  16
ATOM     16  C   UNL     1      96.788  81.691  81.391  1.00  0.00     0.135 C 
BRANCH  16  17
ATOM     17  C   UNL     1      97.886  81.294  80.436  1.00  0.00    -0.040 A 
ATOM     18  C   UNL     1      97.839  80.057  79.795  1.00  0.00     0.004 A 
ATOM     19  C   UNL     1      98.947  82.166  80.194  1.00  0.00     0.004 A 
ATOM     20  C   UNL     1      98.855  79.690  78.911  1.00  0.00     0.000 A 
ATOM     21  C   UNL     1      99.962  81.799  79.310  1.00  0.00     0.000 A 
ATOM     22  C   UNL     1      99.916  80.561  78.670  1.00  0.00     0.000 A 
ENDBRANCH  16  17
ENDBRANCH   7  16
BRANCH  15  23
ATOM     23  C   UNL     1      99.474  78.950  83.611  1.00  0.00    -0.046 C 
ATOM     24  C   UNL     1      99.796  77.767  84.475  1.00  0.00     0.042 C 
ATOM     25  C   UNL     1     100.222  79.274  82.546  1.00  0.00     0.010 C 
ENDBRANCH  15  23
ENDBRANCH   3   4
BRANCH   2  26
ATOM     26  C   UNL     1      92.926  79.511  86.151  1.00  0.00     0.078 C 
BRANCH  26  27
ATOM     27  C   UNL     1      93.937  80.522  86.691  1.00  0.00     0.140 C 
ATOM     28  C   UNL     1      94.535  81.403  85.575  1.00  0.00     0.086 CG0
ATOM     29  C   UNL     1      93.300  81.546  87.607  1.00  0.00     0.190 C 
ATOM     30  C   UNL     1      94.464  82.790  86.148  1.00  0.00    -0.010 C 
ATOM     31  G   UNL     1      95.869  80.902  84.948  1.00  0.00     0.000 G0
ATOM     32  O   UNL     1      92.547  81.294  88.536  1.00  0.00    -0.291 OA
ATOM     33  C   UNL     1      93.754  82.909  87.274  1.00  0.00    -0.008 C 
ATOM     34  C   UNL     1      93.408  84.113  88.058  1.00  0.00     0.048 C 
BRANCH  27  35
ATOM     35  O   UNL     1      94.910  79.895  87.509  1.00  0.00    -0.381 OA
ATOM     36  H   UNL     1      95.525  80.576  87.831  1.00  0.00     0.212 HD
ENDBRANCH  27  35
ENDBRANCH  26  27
ENDBRANCH   2  26
ENDBRANCH   1   2
BRANCH   1  37
ATOM     37  O   UNL     1      92.579  76.588  84.175  1.00  0.00    -0.461 OA
BRANCH  37  38
ATOM     38  C   UNL     1      92.250  75.985  82.983  1.00  0.00     0.310 C 
ATOM     39  O   UNL     1      93.018  75.815  82.046  1.00  0.00    -0.252 OA
BRANCH  38  40
ATOM     40  C   UNL     1      90.799  75.568  83.013  1.00  0.00     0.158 C 
BRANCH  40  41
ATOM     41  C   UNL     1      90.610  74.084  82.832  1.00  0.00    -0.037 A 
ATOM     42  C   UNL     1      89.962  73.597  81.697  1.00  0.00     0.008 A 
ATOM     43  C   UNL     1      91.083  73.197  83.798  1.00  0.00     0.008 A 
ATOM     44  C   UNL     1      89.786  72.223  81.529  1.00  0.00     0.046 A 
ATOM     45  C   UNL     1      90.908  71.823  83.631  1.00  0.00     0.046 A 
ATOM     46  C   UNL     1      90.259  71.336  82.497  1.00  0.00     0.115 A 
BRANCH  46  47
ATOM     47  O   UNL     1      90.087  69.996  82.334  1.00  0.00    -0.508 OA
ATOM     48  H   UNL     1      89.244  69.840  81.875  1.00  0.00     0.293 HD
ENDBRANCH  46  47
ENDBRANCH  40  41
ENDBRANCH  38  40
ENDBRANCH  37  38
ENDBRANCH   1  37
TORSDOF 10
ENDMDL
MODEL 10
REMARK VINA RESULT:    -5.731      2.375      6.028
REMARK INTER + INTRA:         -10.317
REMARK INTER:                  -8.327
REMARK INTRA:                  -1.990
REMARK UNBOUND:                -0.565
REMARK SMILES C=C(C)[C@]12C[C@@H](C)[C@@]34O[C@](Cc5ccccc5)(O[C@@H]1[C@@H]3C=C(COC(=O)Cc1ccc(O)cc1)C[C@]1(O)C(=O)C(C)=C[C@@H]41)O2
REMARK SMILES IDX 23 1 22 2 21 3 20 4 9 5 8 6 10 7 6 8 18 10 44 11 19 12 5 13
REMARK SMILES IDX 7 14 4 15 11 16 12 17 13 18 17 19 14 20 16 21 15 22 2 23
REMARK SMILES IDX 3 24 1 25 35 26 36 27 43 28 38 29 42 30 39 32 40 33 41 34
REMARK SMILES IDX 37 35 24 37 25 38 26 39 27 40 28 41 29 42 34 43 30 44 33 45
REMARK SMILES IDX 31 46 32 47
REMARK H PARENT 37 36 32 48
REMARK Flexibility Score: 90.00
ROOT
ATOM      1  C   UNL     1     100.664  78.029  83.275  1.00  0.00     0.264 C 
ENDROOT
BRANCH   1   2
ATOM      2  C   UNL     1      99.406  78.852  83.112  1.00  0.00    -0.033 C 
ATOM      3  C   UNL     1      98.744  79.269  84.211  1.00  0.00    -0.015 C 
BRANCH   3   4
ATOM      4  C   UNL     1      97.434  80.033  84.316  1.00  0.00     0.078 C 
ATOM      5  O   UNL     1      98.007  82.436  84.425  1.00  0.00    -0.319 OA
ATOM      6  C   UNL     1      97.325  81.434  83.609  1.00  0.00     0.095 CG0
ATOM      7  C   UNL     1      97.769  82.341  85.843  1.00  0.00     0.289 C 
ATOM      8  C   UNL     1      95.787  81.800  83.506  1.00  0.00     0.023 C 
ATOM      9  G   UNL     1      98.104  81.435  82.261  1.00  0.00     0.000 G0
ATOM     10  O   UNL     1      98.141  81.061  86.345  1.00  0.00    -0.320 OA
ATOM     11  O   UNL     1      96.391  82.500  86.173  1.00  0.00    -0.313 OA
ATOM     12  C   UNL     1      97.077  80.261  85.806  1.00  0.00     0.170 C 
ATOM     13  C   UNL     1      94.984  81.245  84.722  1.00  0.00     0.049 C 
ATOM     14  C   UNL     1      95.474  83.296  83.330  1.00  0.00     0.011 C 
ATOM     15  C   UNL     1      95.843  81.179  85.986  1.00  0.00     0.122 C 
BRANCH   7  16
ATOM     16  C   UNL     1      98.581  83.419  86.534  1.00  0.00     0.135 C 
BRANCH  16  17
ATOM     17  C   UNL     1      99.282  82.899  87.764  1.00  0.00    -0.040 A 
ATOM     18  C   UNL     1     100.541  82.310  87.653  1.00  0.00     0.004 A 
ATOM     19  C   UNL     1      98.670  83.008  89.012  1.00  0.00     0.004 A 
ATOM     20  C   UNL     1     101.189  81.829  88.792  1.00  0.00     0.000 A 
ATOM     21  C   UNL     1      99.318  82.528  90.151  1.00  0.00     0.000 A 
ATOM     22  C   UNL     1     100.577  81.939  90.040  1.00  0.00     0.000 A 
ENDBRANCH  16  17
ENDBRANCH   7  16
BRANCH  15  23
ATOM     23  C   UNL     1      95.050  80.822  87.201  1.00  0.00    -0.046 C 
ATOM     24  C   UNL     1      94.889  81.904  88.227  1.00  0.00     0.042 C 
ATOM     25  C   UNL     1      94.513  79.604  87.365  1.00  0.00     0.010 C 
ENDBRANCH  15  23
ENDBRANCH   3   4
BRANCH   2  26
ATOM     26  C   UNL     1      99.050  79.114  81.660  1.00  0.00     0.078 C 
BRANCH  26  27
ATOM     27  C   UNL     1      97.950  80.138  81.385  1.00  0.00     0.140 C 
ATOM     28  C   UNL     1      98.107  81.408  82.246  1.00  0.00     0.086 CG0
ATOM     29  C   UNL     1      98.011  80.690  79.977  1.00  0.00     0.190 C 
ATOM     30  C   UNL     1      97.902  82.526  81.262  1.00  0.00    -0.010 C 
ATOM     31  G   UNL     1      97.328  81.425  83.593  1.00  0.00     0.000 G0
ATOM     32  O   UNL     1      98.111  80.022  78.958  1.00  0.00    -0.291 OA
ATOM     33  C   UNL     1      97.872  82.159  79.977  1.00  0.00    -0.008 C 
ATOM     34  C   UNL     1      97.771  82.982  78.755  1.00  0.00     0.048 C 
BRANCH  27  35
ATOM     35  O   UNL     1      96.663  79.549  81.463  1.00  0.00    -0.381 OA
ATOM     36  H   UNL     1      96.353  79.369  80.559  1.00  0.00     0.212 HD
ENDBRANCH  27  35
ENDBRANCH  26  27
ENDBRANCH   2  26
ENDBRANCH   1   2
BRANCH   1  37
ATOM     37  O   UNL     1     101.574  78.727  84.098  1.00  0.00    -0.461 OA
BRANCH  37  38
ATOM     38  C   UNL     1     102.909  78.511  83.846  1.00  0.00     0.310 C 
ATOM     39  O   UNL     1     103.512  77.476  84.090  1.00  0.00    -0.252 OA
BRANCH  38  40
ATOM     40  C   UNL     1     103.510  79.748  83.223  1.00  0.00     0.158 C 
BRANCH  40  41
ATOM     41  C   UNL     1     102.849  80.134  81.925  1.00  0.00    -0.037 A 
ATOM     42  C   UNL     1     103.070  79.372  80.777  1.00  0.00     0.008 A 
ATOM     43  C   UNL     1     102.018  81.251  81.870  1.00  0.00     0.008 A 
ATOM     44  C   UNL     1     102.459  79.729  79.575  1.00  0.00     0.046 A 
ATOM     45  C   UNL     1     101.406  81.608  80.668  1.00  0.00     0.046 A 
ATOM     46  C   UNL     1     101.626  80.848  79.521  1.00  0.00     0.115 A 
BRANCH  46  47
ATOM     47  O   UNL     1     101.031  81.196  78.348  1.00  0.00    -0.508 OA
ATOM     48  H   UNL     1     100.335  80.547  78.143  1.00  0.00     0.293 HD
ENDBRANCH  46  47
ENDBRANCH  40  41
ENDBRANCH  38  40
ENDBRANCH  37  38
ENDBRANCH   1  37
TORSDOF 10
ENDMDL
