MODEL 1
REMARK VINA RESULT:    -7.332      0.000      0.000
REMARK INTER + INTRA:         -12.913
REMARK INTER:                 -12.475
REMARK INTRA:                  -0.438
REMARK UNBOUND:                -0.438
REMARK SMILES C=C(C)[C@]12C[C@@H](C)[C@@]34O[C@](Cc5ccccc5)(O[C@@H]1[C@@H]3C=C(COC(=O)Cc1ccc(O)cc1)C[C@]1(O)C(=O)C(C)=C[C@@H]41)O2
REMARK SMILES IDX 23 1 22 2 21 3 20 4 9 5 8 6 10 7 6 8 18 10 44 11 19 12 5 13
REMARK SMILES IDX 7 14 4 15 11 16 12 17 13 18 17 19 14 20 16 21 15 22 2 23
REMARK SMILES IDX 3 24 1 25 35 26 36 27 43 28 38 29 42 30 39 32 40 33 41 34
REMARK SMILES IDX 37 35 24 37 25 38 26 39 27 40 28 41 29 42 34 43 30 44 33 45
REMARK SMILES IDX 31 46 32 47
REMARK H PARENT 37 36 32 48
REMARK Flexibility Score: 90.00
ROOT
ATOM      1  C   UNL     1      96.334  81.451  83.792  1.00  0.00     0.264 C 
ENDROOT
BRANCH   1   2
ATOM      2  C   UNL     1      95.114  81.921  84.550  1.00  0.00    -0.033 C 
ATOM      3  C   UNL     1      93.960  81.233  84.434  1.00  0.00    -0.015 C 
BRANCH   3   4
ATOM      4  C   UNL     1      92.591  81.537  85.023  1.00  0.00     0.078 C 
ATOM      5  O   UNL     1      92.437  80.303  87.161  1.00  0.00    -0.319 OA
ATOM      6  C   UNL     1      92.457  81.647  86.587  1.00  0.00     0.095 CG0
ATOM      7  C   UNL     1      91.633  79.342  86.450  1.00  0.00     0.289 C 
ATOM      8  C   UNL     1      91.083  82.371  86.900  1.00  0.00     0.023 C 
ATOM      9  G   UNL     1      93.720  82.314  87.205  1.00  0.00     0.000 G0
ATOM     10  O   UNL     1      92.053  79.218  85.094  1.00  0.00    -0.320 OA
ATOM     11  O   UNL     1      90.259  79.720  86.394  1.00  0.00    -0.313 OA
ATOM     12  C   UNL     1      91.572  80.464  84.567  1.00  0.00     0.170 C 
ATOM     13  C   UNL     1      89.996  82.019  85.840  1.00  0.00     0.049 C 
ATOM     14  C   UNL     1      90.516  82.132  88.310  1.00  0.00     0.011 C 
ATOM     15  C   UNL     1      90.199  80.616  85.265  1.00  0.00     0.122 C 
BRANCH   7  16
ATOM     16  C   UNL     1      91.760  78.004  87.151  1.00  0.00     0.135 C 
BRANCH  16  17
ATOM     17  C   UNL     1      91.019  76.910  86.424  1.00  0.00    -0.040 A 
ATOM     18  C   UNL     1      89.803  76.442  86.920  1.00  0.00     0.004 A 
ATOM     19  C   UNL     1      91.552  76.368  85.255  1.00  0.00     0.004 A 
ATOM     20  C   UNL     1      89.118  75.430  86.246  1.00  0.00     0.000 A 
ATOM     21  C   UNL     1      90.866  75.356  84.581  1.00  0.00     0.000 A 
ATOM     22  C   UNL     1      89.650  74.888  85.077  1.00  0.00     0.000 A 
ENDBRANCH  16  17
ENDBRANCH   7  16
BRANCH  15  23
ATOM     23  C   UNL     1      89.070  80.187  84.385  1.00  0.00    -0.046 C 
ATOM     24  C   UNL     1      87.874  81.092  84.355  1.00  0.00     0.042 C 
ATOM     25  C   UNL     1      89.123  79.059  83.663  1.00  0.00     0.010 C 
ENDBRANCH  15  23
ENDBRANCH   3   4
BRANCH   2  26
ATOM     26  C   UNL     1      95.373  83.161  85.385  1.00  0.00     0.078 C 
BRANCH  26  27
ATOM     27  C   UNL     1      94.296  83.563  86.391  1.00  0.00     0.140 C 
ATOM     28  C   UNL     1      93.748  82.353  87.174  1.00  0.00     0.086 CG0
ATOM     29  C   UNL     1      94.836  84.447  87.496  1.00  0.00     0.190 C 
ATOM     30  C   UNL     1      93.734  82.833  88.598  1.00  0.00    -0.010 C 
ATOM     31  G   UNL     1      92.476  81.675  86.585  1.00  0.00     0.000 G0
ATOM     32  O   UNL     1      95.531  85.439  87.333  1.00  0.00    -0.291 OA
ATOM     33  C   UNL     1      94.362  83.993  88.817  1.00  0.00    -0.008 C 
ATOM     34  C   UNL     1      94.614  84.714  90.081  1.00  0.00     0.048 C 
BRANCH  27  35
ATOM     35  O   UNL     1      93.290  84.357  85.784  1.00  0.00    -0.381 OA
ATOM     36  H   UNL     1      92.731  83.778  85.239  1.00  0.00     0.212 HD
ENDBRANCH  27  35
ENDBRANCH  26  27
ENDBRANCH   2  26
ENDBRANCH   1   2
BRANCH   1  37
ATOM     37  O   UNL     1      95.968  81.147  82.463  1.00  0.00    -0.461 OA
BRANCH  37  38
ATOM     38  C   UNL     1      96.776  80.253  81.799  1.00  0.00     0.310 C 
ATOM     39  O   UNL     1      96.646  79.038  81.823  1.00  0.00    -0.252 OA
BRANCH  38  40
ATOM     40  C   UNL     1      97.844  81.006  81.041  1.00  0.00     0.158 C 
BRANCH  40  41
ATOM     41  C   UNL     1      97.594  81.044  79.556  1.00  0.00    -0.037 A 
ATOM     42  C   UNL     1      98.139  80.060  78.731  1.00  0.00     0.008 A 
ATOM     43  C   UNL     1      96.818  82.063  79.005  1.00  0.00     0.008 A 
ATOM     44  C   UNL     1      97.908  80.096  77.356  1.00  0.00     0.046 A 
ATOM     45  C   UNL     1      96.586  82.099  77.630  1.00  0.00     0.046 A 
ATOM     46  C   UNL     1      97.132  81.116  76.805  1.00  0.00     0.115 A 
BRANCH  46  47
ATOM     47  O   UNL     1      96.907  81.151  75.464  1.00  0.00    -0.508 OA
ATOM     48  H   UNL     1      95.985  80.892  75.291  1.00  0.00     0.293 HD
ENDBRANCH  46  47
ENDBRANCH  40  41
ENDBRANCH  38  40
ENDBRANCH  37  38
ENDBRANCH   1  37
TORSDOF 10
ENDMDL
MODEL 2
REMARK VINA RESULT:    -7.107     14.899     18.529
REMARK INTER + INTRA:         -12.530
REMARK INTER:                 -11.200
REMARK INTRA:                  -1.331
REMARK UNBOUND:                -0.438
REMARK SMILES C=C(C)[C@]12C[C@@H](C)[C@@]34O[C@](Cc5ccccc5)(O[C@@H]1[C@@H]3C=C(COC(=O)Cc1ccc(O)cc1)C[C@]1(O)C(=O)C(C)=C[C@@H]41)O2
REMARK SMILES IDX 23 1 22 2 21 3 20 4 9 5 8 6 10 7 6 8 18 10 44 11 19 12 5 13
REMARK SMILES IDX 7 14 4 15 11 16 12 17 13 18 17 19 14 20 16 21 15 22 2 23
REMARK SMILES IDX 3 24 1 25 35 26 36 27 43 28 38 29 42 30 39 32 40 33 41 34
REMARK SMILES IDX 37 35 24 37 25 38 26 39 27 40 28 41 29 42 34 43 30 44 33 45
REMARK SMILES IDX 31 46 32 47
REMARK H PARENT 37 36 32 48
REMARK Flexibility Score: 90.00
ROOT
ATOM      1  C   UNL     1      97.390  98.102  75.312  1.00  0.00     0.264 C 
ENDROOT
BRANCH   1   2
ATOM      2  C   UNL     1      98.343  98.025  76.483  1.00  0.00    -0.033 C 
ATOM      3  C   UNL     1      97.927  98.437  77.698  1.00  0.00    -0.015 C 
BRANCH   3   4
ATOM      4  C   UNL     1      98.703  98.533  79.002  1.00  0.00     0.078 C 
ATOM      5  O   UNL     1      98.365  96.396  80.200  1.00  0.00    -0.319 OA
ATOM      6  C   UNL     1      99.383  97.231  79.566  1.00  0.00     0.095 CG0
ATOM      7  C   UNL     1      97.410  97.102  81.015  1.00  0.00     0.289 C 
ATOM      8  C   UNL     1     100.446  97.677  80.653  1.00  0.00     0.023 C 
ATOM      9  G   UNL     1      99.939  96.352  78.408  1.00  0.00     0.000 G0
ATOM     10  O   UNL     1      96.729  98.103  80.264  1.00  0.00    -0.320 OA
ATOM     11  O   UNL     1      98.026  97.788  82.102  1.00  0.00    -0.313 OA
ATOM     12  C   UNL     1      97.781  99.071  80.124  1.00  0.00     0.170 C 
ATOM     13  C   UNL     1      99.982  98.957  81.415  1.00  0.00     0.049 C 
ATOM     14  C   UNL     1     100.846  96.595  81.670  1.00  0.00     0.011 C 
ATOM     15  C   UNL     1      98.458  99.034  81.516  1.00  0.00     0.122 C 
BRANCH   7  16
ATOM     16  C   UNL     1      96.411  96.097  81.554  1.00  0.00     0.135 C 
BRANCH  16  17
ATOM     17  C   UNL     1      96.047  95.053  80.528  1.00  0.00    -0.040 A 
ATOM     18  C   UNL     1      96.454  93.731  80.703  1.00  0.00     0.004 A 
ATOM     19  C   UNL     1      95.304  95.411  79.404  1.00  0.00     0.004 A 
ATOM     20  C   UNL     1      96.117  92.765  79.754  1.00  0.00     0.000 A 
ATOM     21  C   UNL     1      94.967  94.446  78.455  1.00  0.00     0.000 A 
ATOM     22  C   UNL     1      95.374  93.124  78.630  1.00  0.00     0.000 A 
ENDBRANCH  16  17
ENDBRANCH   7  16
BRANCH  15  23
ATOM     23  C   UNL     1      97.997 100.151  82.395  1.00  0.00    -0.046 C 
ATOM     24  C   UNL     1      97.395  99.753  83.710  1.00  0.00     0.042 C 
ATOM     25  C   UNL     1      98.115 101.436  82.029  1.00  0.00     0.010 C 
ENDBRANCH  15  23
ENDBRANCH   3   4
BRANCH   2  26
ATOM     26  C   UNL     1      99.700  97.460  76.110  1.00  0.00     0.078 C 
BRANCH  26  27
ATOM     27  C   UNL     1     100.645  97.102  77.256  1.00  0.00     0.140 C 
ATOM     28  C   UNL     1      99.922  96.361  78.399  1.00  0.00     0.086 CG0
ATOM     29  C   UNL     1     101.706  96.104  76.842  1.00  0.00     0.190 C 
ATOM     30  C   UNL     1     100.844  95.215  78.713  1.00  0.00    -0.010 C 
ATOM     31  G   UNL     1      99.385  97.249  79.560  1.00  0.00     0.000 G0
ATOM     32  O   UNL     1     102.405  96.187  75.843  1.00  0.00    -0.291 OA
ATOM     33  C   UNL     1     101.839  95.027  77.842  1.00  0.00    -0.008 C 
ATOM     34  C   UNL     1     102.869  93.969  77.787  1.00  0.00     0.048 C 
BRANCH  27  35
ATOM     35  O   UNL     1     101.390  98.229  77.685  1.00  0.00    -0.381 OA
ATOM     36  H   UNL     1     102.141  97.916  78.218  1.00  0.00     0.212 HD
ENDBRANCH  27  35
ENDBRANCH  26  27
ENDBRANCH   2  26
ENDBRANCH   1   2
BRANCH   1  37
ATOM     37  O   UNL     1      96.275  97.273  75.562  1.00  0.00    -0.461 OA
BRANCH  37  38
ATOM     38  C   UNL     1      95.403  97.095  74.513  1.00  0.00     0.310 C 
ATOM     39  O   UNL     1      94.988  97.986  73.786  1.00  0.00    -0.252 OA
BRANCH  38  40
ATOM     40  C   UNL     1      95.040  95.634  74.402  1.00  0.00     0.158 C 
BRANCH  40  41
ATOM     41  C   UNL     1      93.829  95.265  75.218  1.00  0.00    -0.037 A 
ATOM     42  C   UNL     1      93.420  93.933  75.298  1.00  0.00     0.008 A 
ATOM     43  C   UNL     1      93.115  96.254  75.893  1.00  0.00     0.008 A 
ATOM     44  C   UNL     1      92.298  93.592  76.053  1.00  0.00     0.046 A 
ATOM     45  C   UNL     1      91.992  95.913  76.649  1.00  0.00     0.046 A 
ATOM     46  C   UNL     1      91.584  94.582  76.729  1.00  0.00     0.115 A 
BRANCH  46  47
ATOM     47  O   UNL     1      90.489  94.249  77.465  1.00  0.00    -0.508 OA
ATOM     48  H   UNL     1      89.863  94.994  77.455  1.00  0.00     0.293 HD
ENDBRANCH  46  47
ENDBRANCH  40  41
ENDBRANCH  38  40
ENDBRANCH  37  38
ENDBRANCH   1  37
TORSDOF 10
ENDMDL
MODEL 3
REMARK VINA RESULT:    -7.027      3.658      7.774
REMARK INTER + INTRA:         -12.395
REMARK INTER:                 -11.515
REMARK INTRA:                  -0.879
REMARK UNBOUND:                -0.438
REMARK SMILES C=C(C)[C@]12C[C@@H](C)[C@@]34O[C@](Cc5ccccc5)(O[C@@H]1[C@@H]3C=C(COC(=O)Cc1ccc(O)cc1)C[C@]1(O)C(=O)C(C)=C[C@@H]41)O2
REMARK SMILES IDX 23 1 22 2 21 3 20 4 9 5 8 6 10 7 6 8 18 10 44 11 19 12 5 13
REMARK SMILES IDX 7 14 4 15 11 16 12 17 13 18 17 19 14 20 16 21 15 22 2 23
REMARK SMILES IDX 3 24 1 25 35 26 36 27 43 28 38 29 42 30 39 32 40 33 41 34
REMARK SMILES IDX 37 35 24 37 25 38 26 39 27 40 28 41 29 42 34 43 30 44 33 45
REMARK SMILES IDX 31 46 32 47
REMARK H PARENT 37 36 32 48
REMARK Flexibility Score: 90.00
ROOT
ATOM      1  C   UNL     1      91.772  84.967  89.310  1.00  0.00     0.264 C 
ENDROOT
BRANCH   1   2
ATOM      2  C   UNL     1      91.150  83.593  89.218  1.00  0.00    -0.033 C 
ATOM      3  C   UNL     1      90.929  83.050  88.003  1.00  0.00    -0.015 C 
BRANCH   3   4
ATOM      4  C   UNL     1      90.256  81.736  87.641  1.00  0.00     0.078 C 
ATOM      5  O   UNL     1      92.044  80.037  87.459  1.00  0.00    -0.319 OA
ATOM      6  C   UNL     1      90.854  80.403  88.225  1.00  0.00     0.095 CG0
ATOM      7  C   UNL     1      91.929  80.193  86.032  1.00  0.00     0.289 C 
ATOM      8  C   UNL     1      89.757  79.272  88.060  1.00  0.00     0.023 C 
ATOM      9  G   UNL     1      91.378  80.620  89.675  1.00  0.00     0.000 G0
ATOM     10  O   UNL     1      91.596  81.533  85.682  1.00  0.00    -0.320 OA
ATOM     11  O   UNL     1      90.895  79.382  85.480  1.00  0.00    -0.313 OA
ATOM     12  C   UNL     1      90.223  81.568  86.102  1.00  0.00     0.170 C 
ATOM     13  C   UNL     1      88.901  79.488  86.775  1.00  0.00     0.049 C 
ATOM     14  C   UNL     1      90.287  77.828  88.083  1.00  0.00     0.011 C 
ATOM     15  C   UNL     1      89.704  80.175  85.669  1.00  0.00     0.122 C 
BRANCH   7  16
ATOM     16  C   UNL     1      93.256  79.814  85.405  1.00  0.00     0.135 C 
BRANCH  16  17
ATOM     17  C   UNL     1      94.152  81.011  85.208  1.00  0.00    -0.040 A 
ATOM     18  C   UNL     1      94.642  81.314  83.938  1.00  0.00     0.004 A 
ATOM     19  C   UNL     1      94.489  81.815  86.296  1.00  0.00     0.004 A 
ATOM     20  C   UNL     1      95.471  82.422  83.756  1.00  0.00     0.000 A 
ATOM     21  C   UNL     1      95.317  82.923  86.114  1.00  0.00     0.000 A 
ATOM     22  C   UNL     1      95.808  83.226  84.844  1.00  0.00     0.000 A 
ENDBRANCH  16  17
ENDBRANCH   7  16
BRANCH  15  23
ATOM     23  C   UNL     1      88.965  80.229  84.372  1.00  0.00    -0.046 C 
ATOM     24  C   UNL     1      87.805  81.179  84.311  1.00  0.00     0.042 C 
ATOM     25  C   UNL     1      89.317  79.472  83.322  1.00  0.00     0.010 C 
ENDBRANCH  15  23
ENDBRANCH   3   4
BRANCH   2  26
ATOM     26  C   UNL     1      90.852  82.982  90.574  1.00  0.00     0.078 C 
BRANCH  26  27
ATOM     27  C   UNL     1      90.483  81.500  90.606  1.00  0.00     0.140 C 
ATOM     28  C   UNL     1      91.377  80.656  89.673  1.00  0.00     0.086 CG0
ATOM     29  C   UNL     1      90.738  80.868  91.958  1.00  0.00     0.190 C 
ATOM     30  C   UNL     1      91.752  79.474  90.522  1.00  0.00    -0.010 C 
ATOM     31  G   UNL     1      90.834  80.420  88.233  1.00  0.00     0.000 G0
ATOM     32  O   UNL     1      90.379  81.326  93.032  1.00  0.00    -0.291 OA
ATOM     33  C   UNL     1      91.432  79.574  91.816  1.00  0.00    -0.008 C 
ATOM     34  C   UNL     1      91.715  78.658  92.940  1.00  0.00     0.048 C 
BRANCH  27  35
ATOM     35  O   UNL     1      89.094  81.307  90.398  1.00  0.00    -0.381 OA
ATOM     36  H   UNL     1      88.925  80.352  90.326  1.00  0.00     0.212 HD
ENDBRANCH  27  35
ENDBRANCH  26  27
ENDBRANCH   2  26
ENDBRANCH   1   2
BRANCH   1  37
ATOM     37  O   UNL     1      92.620  85.021  90.438  1.00  0.00    -0.461 OA
BRANCH  37  38
ATOM     38  C   UNL     1      93.970  84.946  90.188  1.00  0.00     0.310 C 
ATOM     39  O   UNL     1      94.797  84.445  90.937  1.00  0.00    -0.252 OA
BRANCH  38  40
ATOM     40  C   UNL     1      94.270  85.576  88.849  1.00  0.00     0.158 C 
BRANCH  40  41
ATOM     41  C   UNL     1      94.871  86.952  88.968  1.00  0.00    -0.037 A 
ATOM     42  C   UNL     1      94.143  87.983  89.563  1.00  0.00     0.008 A 
ATOM     43  C   UNL     1      96.156  87.197  88.484  1.00  0.00     0.008 A 
ATOM     44  C   UNL     1      94.699  89.258  89.673  1.00  0.00     0.046 A 
ATOM     45  C   UNL     1      96.713  88.472  88.594  1.00  0.00     0.046 A 
ATOM     46  C   UNL     1      95.985  89.502  89.188  1.00  0.00     0.115 A 
BRANCH  46  47
ATOM     47  O   UNL     1      96.527  90.745  89.295  1.00  0.00    -0.508 OA
ATOM     48  H   UNL     1      95.844  91.406  89.089  1.00  0.00     0.293 HD
ENDBRANCH  46  47
ENDBRANCH  40  41
ENDBRANCH  38  40
ENDBRANCH  37  38
ENDBRANCH   1  37
TORSDOF 10
ENDMDL
MODEL 4
REMARK VINA RESULT:    -6.923     26.224     29.323
REMARK INTER + INTRA:         -12.217
REMARK INTER:                 -10.760
REMARK INTRA:                  -1.457
REMARK UNBOUND:                -0.438
REMARK SMILES C=C(C)[C@]12C[C@@H](C)[C@@]34O[C@](Cc5ccccc5)(O[C@@H]1[C@@H]3C=C(COC(=O)Cc1ccc(O)cc1)C[C@]1(O)C(=O)C(C)=C[C@@H]41)O2
REMARK SMILES IDX 23 1 22 2 21 3 20 4 9 5 8 6 10 7 6 8 18 10 44 11 19 12 5 13
REMARK SMILES IDX 7 14 4 15 11 16 12 17 13 18 17 19 14 20 16 21 15 22 2 23
REMARK SMILES IDX 3 24 1 25 35 26 36 27 43 28 38 29 42 30 39 32 40 33 41 34
REMARK SMILES IDX 37 35 24 37 25 38 26 39 27 40 28 41 29 42 34 43 30 44 33 45
REMARK SMILES IDX 31 46 32 47
REMARK H PARENT 37 36 32 48
REMARK Flexibility Score: 90.00
ROOT
ATOM      1  C   UNL     1      69.123  84.111  66.825  1.00  0.00     0.264 C 
ENDROOT
BRANCH   1   2
ATOM      2  C   UNL     1      70.390  84.539  66.121  1.00  0.00    -0.033 C 
ATOM      3  C   UNL     1      70.816  85.813  66.249  1.00  0.00    -0.015 C 
BRANCH   3   4
ATOM      4  C   UNL     1      72.000  86.505  65.592  1.00  0.00     0.078 C 
ATOM      5  O   UNL     1      73.912  86.292  67.146  1.00  0.00    -0.319 OA
ATOM      6  C   UNL     1      73.437  85.906  65.818  1.00  0.00     0.095 CG0
ATOM      7  C   UNL     1      73.650  87.659  67.520  1.00  0.00     0.289 C 
ATOM      8  C   UNL     1      74.394  86.527  64.719  1.00  0.00     0.023 C 
ATOM      9  G   UNL     1      73.388  84.351  65.861  1.00  0.00     0.000 G0
ATOM     10  O   UNL     1      72.256  87.952  67.466  1.00  0.00    -0.320 OA
ATOM     11  O   UNL     1      74.274  88.591  66.640  1.00  0.00    -0.313 OA
ATOM     12  C   UNL     1      72.061  87.985  66.044  1.00  0.00     0.170 C 
ATOM     13  C   UNL     1      73.979  87.986  64.357  1.00  0.00     0.049 C 
ATOM     14  C   UNL     1      75.895  86.491  65.052  1.00  0.00     0.011 C 
ATOM     15  C   UNL     1      73.339  88.704  65.547  1.00  0.00     0.122 C 
BRANCH   7  16
ATOM     16  C   UNL     1      74.165  87.872  68.929  1.00  0.00     0.135 C 
BRANCH  16  17
ATOM     17  C   UNL     1      74.125  89.325  69.333  1.00  0.00    -0.040 A 
ATOM     18  C   UNL     1      75.258  90.123  69.184  1.00  0.00     0.004 A 
ATOM     19  C   UNL     1      72.952  89.870  69.855  1.00  0.00     0.004 A 
ATOM     20  C   UNL     1      75.220  91.467  69.557  1.00  0.00     0.000 A 
ATOM     21  C   UNL     1      72.914  91.214  70.229  1.00  0.00     0.000 A 
ATOM     22  C   UNL     1      74.047  92.012  70.079  1.00  0.00     0.000 A 
ENDBRANCH  16  17
ENDBRANCH   7  16
BRANCH  15  23
ATOM     23  C   UNL     1      73.100  90.154  65.280  1.00  0.00    -0.046 C 
ATOM     24  C   UNL     1      71.679  90.623  65.395  1.00  0.00     0.042 C 
ATOM     25  C   UNL     1      74.097  90.990  64.957  1.00  0.00     0.010 C 
ENDBRANCH  15  23
ENDBRANCH   3   4
BRANCH   2  26
ATOM     26  C   UNL     1      71.043  83.418  65.335  1.00  0.00     0.078 C 
BRANCH  26  27
ATOM     27  C   UNL     1      72.457  83.664  64.812  1.00  0.00     0.140 C 
ATOM     28  C   UNL     1      73.358  84.345  65.864  1.00  0.00     0.086 CG0
ATOM     29  C   UNL     1      73.203  82.377  64.530  1.00  0.00     0.190 C 
ATOM     30  C   UNL     1      74.632  83.550  65.800  1.00  0.00    -0.010 C 
ATOM     31  G   UNL     1      73.423  85.899  65.807  1.00  0.00     0.000 G0
ATOM     32  O   UNL     1      72.767  81.432  63.890  1.00  0.00    -0.291 OA
ATOM     33  C   UNL     1      74.570  82.425  65.083  1.00  0.00    -0.008 C 
ATOM     34  C   UNL     1      75.586  81.373  64.871  1.00  0.00     0.048 C 
BRANCH  27  35
ATOM     35  O   UNL     1      72.439  84.326  63.559  1.00  0.00    -0.381 OA
ATOM     36  H   UNL     1      71.667  84.011  63.057  1.00  0.00     0.212 HD
ENDBRANCH  27  35
ENDBRANCH  26  27
ENDBRANCH   2  26
ENDBRANCH   1   2
BRANCH   1  37
ATOM     37  O   UNL     1      69.400  83.891  68.191  1.00  0.00    -0.461 OA
BRANCH  37  38
ATOM     38  C   UNL     1      68.375  84.158  69.070  1.00  0.00     0.310 C 
ATOM     39  O   UNL     1      67.192  83.933  68.857  1.00  0.00    -0.252 OA
BRANCH  38  40
ATOM     40  C   UNL     1      68.938  84.769  70.330  1.00  0.00     0.158 C 
BRANCH  40  41
ATOM     41  C   UNL     1      68.787  86.267  70.375  1.00  0.00    -0.037 A 
ATOM     42  C   UNL     1      69.632  87.076  69.614  1.00  0.00     0.008 A 
ATOM     43  C   UNL     1      67.805  86.847  71.177  1.00  0.00     0.008 A 
ATOM     44  C   UNL     1      69.493  88.464  69.656  1.00  0.00     0.046 A 
ATOM     45  C   UNL     1      67.665  88.234  71.219  1.00  0.00     0.046 A 
ATOM     46  C   UNL     1      68.509  89.043  70.459  1.00  0.00     0.115 A 
BRANCH  46  47
ATOM     47  O   UNL     1      68.375  90.396  70.500  1.00  0.00    -0.508 OA
ATOM     48  H   UNL     1      68.704  90.720  71.356  1.00  0.00     0.293 HD
ENDBRANCH  46  47
ENDBRANCH  40  41
ENDBRANCH  38  40
ENDBRANCH  37  38
ENDBRANCH   1  37
TORSDOF 10
ENDMDL
MODEL 5
REMARK VINA RESULT:    -6.916      5.434     12.243
REMARK INTER + INTRA:         -12.205
REMARK INTER:                 -11.117
REMARK INTRA:                  -1.088
REMARK UNBOUND:                -0.438
REMARK SMILES C=C(C)[C@]12C[C@@H](C)[C@@]34O[C@](Cc5ccccc5)(O[C@@H]1[C@@H]3C=C(COC(=O)Cc1ccc(O)cc1)C[C@]1(O)C(=O)C(C)=C[C@@H]41)O2
REMARK SMILES IDX 23 1 22 2 21 3 20 4 9 5 8 6 10 7 6 8 18 10 44 11 19 12 5 13
REMARK SMILES IDX 7 14 4 15 11 16 12 17 13 18 17 19 14 20 16 21 15 22 2 23
REMARK SMILES IDX 3 24 1 25 35 26 36 27 43 28 38 29 42 30 39 32 40 33 41 34
REMARK SMILES IDX 37 35 24 37 25 38 26 39 27 40 28 41 29 42 34 43 30 44 33 45
REMARK SMILES IDX 31 46 32 47
REMARK H PARENT 37 36 32 48
REMARK Flexibility Score: 90.00
ROOT
ATOM      1  C   UNL     1      99.234  77.877  81.104  1.00  0.00     0.264 C 
ENDROOT
BRANCH   1   2
ATOM      2  C   UNL     1      98.576  77.813  79.745  1.00  0.00    -0.033 C 
ATOM      3  C   UNL     1      98.469  78.940  79.011  1.00  0.00    -0.015 C 
BRANCH   3   4
ATOM      4  C   UNL     1      97.793  79.156  77.666  1.00  0.00     0.078 C 
ATOM      5  O   UNL     1      99.533  78.870  75.931  1.00  0.00    -0.319 OA
ATOM      6  C   UNL     1      98.283  78.305  76.437  1.00  0.00     0.095 CG0
ATOM      7  C   UNL     1      99.570  80.308  75.853  1.00  0.00     0.289 C 
ATOM      8  C   UNL     1      97.171  78.402  75.313  1.00  0.00     0.023 C 
ATOM      9  G   UNL     1      98.662  76.861  76.879  1.00  0.00     0.000 G0
ATOM     10  O   UNL     1      99.319  80.902  77.124  1.00  0.00    -0.320 OA
ATOM     11  O   UNL     1      98.571  80.831  74.981  1.00  0.00    -0.313 OA
ATOM     12  C   UNL     1      97.912  80.643  77.250  1.00  0.00     0.170 C 
ATOM     13  C   UNL     1      96.460  79.790  75.330  1.00  0.00     0.049 C 
ATOM     14  C   UNL     1      97.647  78.092  73.883  1.00  0.00     0.011 C 
ATOM     15  C   UNL     1      97.395  80.899  75.813  1.00  0.00     0.122 C 
BRANCH   7  16
ATOM     16  C   UNL     1     100.941  80.721  75.355  1.00  0.00     0.135 C 
BRANCH  16  17
ATOM     17  C   UNL     1     100.856  81.723  74.230  1.00  0.00    -0.040 A 
ATOM     18  C   UNL     1     101.069  81.314  72.914  1.00  0.00     0.004 A 
ATOM     19  C   UNL     1     100.566  83.058  74.508  1.00  0.00     0.004 A 
ATOM     20  C   UNL     1     100.990  82.240  71.874  1.00  0.00     0.000 A 
ATOM     21  C   UNL     1     100.487  83.985  73.467  1.00  0.00     0.000 A 
ATOM     22  C   UNL     1     100.700  83.576  72.151  1.00  0.00     0.000 A 
ENDBRANCH  16  17
ENDBRANCH   7  16
BRANCH  15  23
ATOM     23  C   UNL     1      96.794  82.260  75.668  1.00  0.00    -0.046 C 
ATOM     24  C   UNL     1      96.878  82.877  74.303  1.00  0.00     0.042 C 
ATOM     25  C   UNL     1      96.214  82.893  76.697  1.00  0.00     0.010 C 
ENDBRANCH  15  23
ENDBRANCH   3   4
BRANCH   2  26
ATOM     26  C   UNL     1      98.111  76.418  79.373  1.00  0.00     0.078 C 
BRANCH  26  27
ATOM     27  C   UNL     1      97.692  76.185  77.922  1.00  0.00     0.140 C 
ATOM     28  C   UNL     1      98.658  76.853  76.922  1.00  0.00     0.086 CG0
ATOM     29  C   UNL     1      97.769  74.726  77.524  1.00  0.00     0.190 C 
ATOM     30  C   UNL     1      98.895  75.781  75.895  1.00  0.00    -0.010 C 
ATOM     31  G   UNL     1      98.277  78.287  76.454  1.00  0.00     0.000 G0
ATOM     32  O   UNL     1      97.305  73.793  78.161  1.00  0.00    -0.291 OA
ATOM     33  C   UNL     1      98.433  74.569  76.216  1.00  0.00    -0.008 C 
ATOM     34  C   UNL     1      98.554  73.283  75.498  1.00  0.00     0.048 C 
BRANCH  27  35
ATOM     35  O   UNL     1      96.331  76.521  77.715  1.00  0.00    -0.381 OA
ATOM     36  H   UNL     1      96.227  76.828  76.798  1.00  0.00     0.212 HD
ENDBRANCH  27  35
ENDBRANCH  26  27
ENDBRANCH   2  26
ENDBRANCH   1   2
BRANCH   1  37
ATOM     37  O   UNL     1      98.862  79.078  81.746  1.00  0.00    -0.461 OA
BRANCH  37  38
ATOM     38  C   UNL     1      97.914  78.969  82.737  1.00  0.00     0.310 C 
ATOM     39  O   UNL     1      98.117  78.522  83.857  1.00  0.00    -0.252 OA
BRANCH  38  40
ATOM     40  C   UNL     1      96.590  79.485  82.226  1.00  0.00     0.158 C 
BRANCH  40  41
ATOM     41  C   UNL     1      96.298  80.895  82.671  1.00  0.00    -0.037 A 
ATOM     42  C   UNL     1      96.752  81.974  81.911  1.00  0.00     0.008 A 
ATOM     43  C   UNL     1      95.575  81.122  83.841  1.00  0.00     0.008 A 
ATOM     44  C   UNL     1      96.482  83.280  82.323  1.00  0.00     0.046 A 
ATOM     45  C   UNL     1      95.305  82.428  84.253  1.00  0.00     0.046 A 
ATOM     46  C   UNL     1      95.759  83.506  83.495  1.00  0.00     0.115 A 
BRANCH  46  47
ATOM     47  O   UNL     1      95.497  84.779  83.897  1.00  0.00    -0.508 OA
ATOM     48  H   UNL     1      94.634  85.052  83.538  1.00  0.00     0.293 HD
ENDBRANCH  46  47
ENDBRANCH  40  41
ENDBRANCH  38  40
ENDBRANCH  37  38
ENDBRANCH   1  37
TORSDOF 10
ENDMDL
MODEL 6
REMARK VINA RESULT:    -6.740     26.464     30.390
REMARK INTER + INTRA:         -11.906
REMARK INTER:                 -11.228
REMARK INTRA:                  -0.677
REMARK UNBOUND:                -0.438
REMARK SMILES C=C(C)[C@]12C[C@@H](C)[C@@]34O[C@](Cc5ccccc5)(O[C@@H]1[C@@H]3C=C(COC(=O)Cc1ccc(O)cc1)C[C@]1(O)C(=O)C(C)=C[C@@H]41)O2
REMARK SMILES IDX 23 1 22 2 21 3 20 4 9 5 8 6 10 7 6 8 18 10 44 11 19 12 5 13
REMARK SMILES IDX 7 14 4 15 11 16 12 17 13 18 17 19 14 20 16 21 15 22 2 23
REMARK SMILES IDX 3 24 1 25 35 26 36 27 43 28 38 29 42 30 39 32 40 33 41 34
REMARK SMILES IDX 37 35 24 37 25 38 26 39 27 40 28 41 29 42 34 43 30 44 33 45
REMARK SMILES IDX 31 46 32 47
REMARK H PARENT 37 36 32 48
REMARK Flexibility Score: 90.00
ROOT
ATOM      1  C   UNL     1      68.526  83.920  68.807  1.00  0.00     0.264 C 
ENDROOT
BRANCH   1   2
ATOM      2  C   UNL     1      69.420  84.382  67.679  1.00  0.00    -0.033 C 
ATOM      3  C   UNL     1      69.861  85.656  67.668  1.00  0.00    -0.015 C 
BRANCH   3   4
ATOM      4  C   UNL     1      70.696  86.379  66.623  1.00  0.00     0.078 C 
ATOM      5  O   UNL     1      73.060  86.169  67.317  1.00  0.00    -0.319 OA
ATOM      6  C   UNL     1      72.114  85.800  66.266  1.00  0.00     0.095 CG0
ATOM      7  C   UNL     1      72.952  87.523  67.795  1.00  0.00     0.289 C 
ATOM      8  C   UNL     1      72.570  86.456  64.898  1.00  0.00     0.023 C 
ATOM      9  G   UNL     1      72.098  84.244  66.287  1.00  0.00     0.000 G0
ATOM     10  O   UNL     1      71.643  87.795  68.288  1.00  0.00    -0.320 OA
ATOM     11  O   UNL     1      73.182  88.482  66.766  1.00  0.00    -0.313 OA
ATOM     12  C   UNL     1      70.915  87.851  67.051  1.00  0.00     0.170 C 
ATOM     13  C   UNL     1      72.038  87.915  64.758  1.00  0.00     0.049 C 
ATOM     14  C   UNL     1      74.085  86.439  64.628  1.00  0.00     0.011 C 
ATOM     15  C   UNL     1      71.898  88.600  66.118  1.00  0.00     0.122 C 
BRANCH   7  16
ATOM     16  C   UNL     1      73.968  87.718  68.903  1.00  0.00     0.135 C 
BRANCH  16  17
ATOM     17  C   UNL     1      74.088  89.165  69.313  1.00  0.00    -0.040 A 
ATOM     18  C   UNL     1      75.206  89.907  68.935  1.00  0.00     0.004 A 
ATOM     19  C   UNL     1      73.079  89.760  70.071  1.00  0.00     0.004 A 
ATOM     20  C   UNL     1      75.316  91.246  69.314  1.00  0.00     0.000 A 
ATOM     21  C   UNL     1      73.190  91.098  70.450  1.00  0.00     0.000 A 
ATOM     22  C   UNL     1      74.308  91.840  70.072  1.00  0.00     0.000 A 
ENDBRANCH  16  17
ENDBRANCH   7  16
BRANCH  15  23
ATOM     23  C   UNL     1      71.564  90.051  65.999  1.00  0.00    -0.046 C 
ATOM     24  C   UNL     1      70.215  90.375  65.428  1.00  0.00     0.042 C 
ATOM     25  C   UNL     1      72.421  91.010  66.380  1.00  0.00     0.010 C 
ENDBRANCH  15  23
ENDBRANCH   3   4
BRANCH   2  26
ATOM     26  C   UNL     1      69.717  83.289  66.669  1.00  0.00     0.078 C 
BRANCH  26  27
ATOM     27  C   UNL     1      70.831  83.557  65.659  1.00  0.00     0.140 C 
ATOM     28  C   UNL     1      72.053  84.243  66.305  1.00  0.00     0.086 CG0
ATOM     29  C   UNL     1      71.431  82.282  65.105  1.00  0.00     0.190 C 
ATOM     30  C   UNL     1      73.219  83.466  65.762  1.00  0.00    -0.010 C 
ATOM     31  G   UNL     1      72.077  85.798  66.245  1.00  0.00     0.000 G0
ATOM     32  O   UNL     1      70.797  81.335  64.663  1.00  0.00    -0.291 OA
ATOM     33  C   UNL     1      72.904  82.344  65.107  1.00  0.00    -0.008 C 
ATOM     34  C   UNL     1      73.779  81.308  64.520  1.00  0.00     0.048 C 
BRANCH  27  35
ATOM     35  O   UNL     1      70.340  84.227  64.510  1.00  0.00    -0.381 OA
ATOM     36  H   UNL     1      69.644  83.678  64.110  1.00  0.00     0.212 HD
ENDBRANCH  27  35
ENDBRANCH  26  27
ENDBRANCH   2  26
ENDBRANCH   1   2
BRANCH   1  37
ATOM     37  O   UNL     1      67.947  85.044  69.433  1.00  0.00    -0.461 OA
BRANCH  37  38
ATOM     38  C   UNL     1      66.572  85.072  69.482  1.00  0.00     0.310 C 
ATOM     39  O   UNL     1      65.835  85.057  68.506  1.00  0.00    -0.252 OA
BRANCH  38  40
ATOM     40  C   UNL     1      66.120  85.123  70.921  1.00  0.00     0.158 C 
BRANCH  40  41
ATOM     41  C   UNL     1      65.053  84.108  71.238  1.00  0.00    -0.037 A 
ATOM     42  C   UNL     1      65.151  82.811  70.733  1.00  0.00     0.008 A 
ATOM     43  C   UNL     1      63.966  84.464  72.037  1.00  0.00     0.008 A 
ATOM     44  C   UNL     1      64.162  81.872  71.026  1.00  0.00     0.046 A 
ATOM     45  C   UNL     1      62.977  83.524  72.330  1.00  0.00     0.046 A 
ATOM     46  C   UNL     1      63.075  82.229  71.825  1.00  0.00     0.115 A 
BRANCH  46  47
ATOM     47  O   UNL     1      62.111  81.312  72.110  1.00  0.00    -0.508 OA
ATOM     48  H   UNL     1      61.725  81.520  72.979  1.00  0.00     0.293 HD
ENDBRANCH  46  47
ENDBRANCH  40  41
ENDBRANCH  38  40
ENDBRANCH  37  38
ENDBRANCH   1  37
TORSDOF 10
ENDMDL
MODEL 7
REMARK VINA RESULT:    -6.611      3.058      8.417
REMARK INTER + INTRA:         -11.687
REMARK INTER:                  -9.748
REMARK INTRA:                  -1.939
REMARK UNBOUND:                -0.438
REMARK SMILES C=C(C)[C@]12C[C@@H](C)[C@@]34O[C@](Cc5ccccc5)(O[C@@H]1[C@@H]3C=C(COC(=O)Cc1ccc(O)cc1)C[C@]1(O)C(=O)C(C)=C[C@@H]41)O2
REMARK SMILES IDX 23 1 22 2 21 3 20 4 9 5 8 6 10 7 6 8 18 10 44 11 19 12 5 13
REMARK SMILES IDX 7 14 4 15 11 16 12 17 13 18 17 19 14 20 16 21 15 22 2 23
REMARK SMILES IDX 3 24 1 25 35 26 36 27 43 28 38 29 42 30 39 32 40 33 41 34
REMARK SMILES IDX 37 35 24 37 25 38 26 39 27 40 28 41 29 42 34 43 30 44 33 45
REMARK SMILES IDX 31 46 32 47
REMARK H PARENT 37 36 32 48
REMARK Flexibility Score: 90.00
ROOT
ATOM      1  C   UNL     1      90.147  78.602  84.951  1.00  0.00     0.264 C 
ENDROOT
BRANCH   1   2
ATOM      2  C   UNL     1      91.519  78.753  85.566  1.00  0.00    -0.033 C 
ATOM      3  C   UNL     1      92.396  79.620  85.018  1.00  0.00    -0.015 C 
BRANCH   3   4
ATOM      4  C   UNL     1      93.842  79.898  85.395  1.00  0.00     0.078 C 
ATOM      5  O   UNL     1      93.819  81.764  87.017  1.00  0.00    -0.319 OA
ATOM      6  C   UNL     1      94.158  80.350  86.867  1.00  0.00     0.095 CG0
ATOM      7  C   UNL     1      94.211  82.611  85.919  1.00  0.00     0.289 C 
ATOM      8  C   UNL     1      95.713  80.158  87.105  1.00  0.00     0.023 C 
ATOM      9  G   UNL     1      93.231  79.620  87.882  1.00  0.00     0.000 G0
ATOM     10  O   UNL     1      93.641  82.165  84.692  1.00  0.00    -0.320 OA
ATOM     11  O   UNL     1      95.622  82.610  85.711  1.00  0.00    -0.313 OA
ATOM     12  C   UNL     1      94.429  80.986  84.462  1.00  0.00     0.170 C 
ATOM     13  C   UNL     1      96.527  80.411  85.800  1.00  0.00     0.049 C 
ATOM     14  C   UNL     1      96.315  80.989  88.251  1.00  0.00     0.011 C 
ATOM     15  C   UNL     1      95.844  81.439  84.897  1.00  0.00     0.122 C 
BRANCH   7  16
ATOM     16  C   UNL     1      93.746  84.022  86.218  1.00  0.00     0.135 C 
BRANCH  16  17
ATOM     17  C   UNL     1      94.654  84.722  87.199  1.00  0.00    -0.040 A 
ATOM     18  C   UNL     1      95.471  85.767  86.770  1.00  0.00     0.004 A 
ATOM     19  C   UNL     1      94.676  84.322  88.534  1.00  0.00     0.004 A 
ATOM     20  C   UNL     1      96.310  86.415  87.677  1.00  0.00     0.000 A 
ATOM     21  C   UNL     1      95.515  84.969  89.442  1.00  0.00     0.000 A 
ATOM     22  C   UNL     1      96.332  86.015  89.013  1.00  0.00     0.000 A 
ENDBRANCH  16  17
ENDBRANCH   7  16
BRANCH  15  23
ATOM     23  C   UNL     1      96.691  81.832  83.731  1.00  0.00    -0.046 C 
ATOM     24  C   UNL     1      97.730  80.838  83.303  1.00  0.00     0.042 C 
ATOM     25  C   UNL     1      96.532  83.006  83.102  1.00  0.00     0.010 C 
ENDBRANCH  15  23
ENDBRANCH   3   4
BRANCH   2  26
ATOM     26  C   UNL     1      91.728  77.870  86.782  1.00  0.00     0.078 C 
BRANCH  26  27
ATOM     27  C   UNL     1      92.975  78.126  87.626  1.00  0.00     0.140 C 
ATOM     28  C   UNL     1      93.213  79.630  87.872  1.00  0.00     0.086 CG0
ATOM     29  C   UNL     1      92.844  77.583  89.033  1.00  0.00     0.190 C 
ATOM     30  C   UNL     1      93.520  79.700  89.342  1.00  0.00    -0.010 C 
ATOM     31  G   UNL     1      94.154  80.350  86.861  1.00  0.00     0.000 G0
ATOM     32  O   UNL     1      92.466  76.459  89.326  1.00  0.00    -0.291 OA
ATOM     33  C   UNL     1      93.295  78.575  90.027  1.00  0.00    -0.008 C 
ATOM     34  C   UNL     1      93.405  78.305  91.476  1.00  0.00     0.048 C 
BRANCH  27  35
ATOM     35  O   UNL     1      94.103  77.445  87.104  1.00  0.00    -0.381 OA
ATOM     36  H   UNL     1      94.671  78.093  86.653  1.00  0.00     0.212 HD
ENDBRANCH  27  35
ENDBRANCH  26  27
ENDBRANCH   2  26
ENDBRANCH   1   2
BRANCH   1  37
ATOM     37  O   UNL     1      89.642  79.878  84.619  1.00  0.00    -0.461 OA
BRANCH  37  38
ATOM     38  C   UNL     1      88.472  80.249  85.243  1.00  0.00     0.310 C 
ATOM     39  O   UNL     1      87.508  80.752  84.684  1.00  0.00    -0.252 OA
BRANCH  38  40
ATOM     40  C   UNL     1      88.567  79.938  86.717  1.00  0.00     0.158 C 
BRANCH  40  41
ATOM     41  C   UNL     1      89.374  80.955  87.481  1.00  0.00    -0.037 A 
ATOM     42  C   UNL     1      89.951  82.034  86.812  1.00  0.00     0.008 A 
ATOM     43  C   UNL     1      89.545  80.818  88.859  1.00  0.00     0.008 A 
ATOM     44  C   UNL     1      90.699  82.976  87.519  1.00  0.00     0.046 A 
ATOM     45  C   UNL     1      90.293  81.759  89.567  1.00  0.00     0.046 A 
ATOM     46  C   UNL     1      90.870  82.838  88.897  1.00  0.00     0.115 A 
BRANCH  46  47
ATOM     47  O   UNL     1      91.601  83.756  89.587  1.00  0.00    -0.508 OA
ATOM     48  H   UNL     1      92.411  83.955  89.086  1.00  0.00     0.293 HD
ENDBRANCH  46  47
ENDBRANCH  40  41
ENDBRANCH  38  40
ENDBRANCH  37  38
ENDBRANCH   1  37
TORSDOF 10
ENDMDL
MODEL 8
REMARK VINA RESULT:    -6.590     14.485     18.004
REMARK INTER + INTRA:         -11.650
REMARK INTER:                 -10.980
REMARK INTRA:                  -0.670
REMARK UNBOUND:                -0.438
REMARK SMILES C=C(C)[C@]12C[C@@H](C)[C@@]34O[C@](Cc5ccccc5)(O[C@@H]1[C@@H]3C=C(COC(=O)Cc1ccc(O)cc1)C[C@]1(O)C(=O)C(C)=C[C@@H]41)O2
REMARK SMILES IDX 23 1 22 2 21 3 20 4 9 5 8 6 10 7 6 8 18 10 44 11 19 12 5 13
REMARK SMILES IDX 7 14 4 15 11 16 12 17 13 18 17 19 14 20 16 21 15 22 2 23
REMARK SMILES IDX 3 24 1 25 35 26 36 27 43 28 38 29 42 30 39 32 40 33 41 34
REMARK SMILES IDX 37 35 24 37 25 38 26 39 27 40 28 41 29 42 34 43 30 44 33 45
REMARK SMILES IDX 31 46 32 47
REMARK H PARENT 37 36 32 48
REMARK Flexibility Score: 90.00
ROOT
ATOM      1  C   UNL     1      96.542  93.956  80.843  1.00  0.00     0.264 C 
ENDROOT
BRANCH   1   2
ATOM      2  C   UNL     1      97.287  95.261  81.009  1.00  0.00    -0.033 C 
ATOM      3  C   UNL     1      96.772  96.215  81.812  1.00  0.00    -0.015 C 
BRANCH   3   4
ATOM      4  C   UNL     1      97.279  97.623  82.086  1.00  0.00     0.078 C 
ATOM      5  O   UNL     1      98.741  97.488  84.075  1.00  0.00    -0.319 OA
ATOM      6  C   UNL     1      98.738  97.797  82.646  1.00  0.00     0.095 CG0
ATOM      7  C   UNL     1      97.630  98.020  84.822  1.00  0.00     0.289 C 
ATOM      8  C   UNL     1      99.154  99.311  82.437  1.00  0.00     0.023 C 
ATOM      9  G   UNL     1      99.701  96.747  82.020  1.00  0.00     0.000 G0
ATOM     10  O   UNL     1      96.387  97.567  84.293  1.00  0.00    -0.320 OA
ATOM     11  O   UNL     1      97.574  99.444  84.772  1.00  0.00    -0.313 OA
ATOM     12  C   UNL     1      96.333  98.337  83.082  1.00  0.00     0.170 C 
ATOM     13  C   UNL     1      97.927 100.265  82.567  1.00  0.00     0.049 C 
ATOM     14  C   UNL     1     100.290  99.816  83.343  1.00  0.00     0.011 C 
ATOM     15  C   UNL     1      96.881  99.713  83.536  1.00  0.00     0.122 C 
BRANCH   7  16
ATOM     16  C   UNL     1      97.769  97.571  86.263  1.00  0.00     0.135 C 
BRANCH  16  17
ATOM     17  C   UNL     1      96.893  98.373  87.193  1.00  0.00    -0.040 A 
ATOM     18  C   UNL     1      97.413  99.484  87.856  1.00  0.00     0.004 A 
ATOM     19  C   UNL     1      95.563  98.003  87.389  1.00  0.00     0.004 A 
ATOM     20  C   UNL     1      96.603 100.227  88.716  1.00  0.00     0.000 A 
ATOM     21  C   UNL     1      94.753  98.746  88.249  1.00  0.00     0.000 A 
ATOM     22  C   UNL     1      95.273  99.857  88.912  1.00  0.00     0.000 A 
ENDBRANCH  16  17
ENDBRANCH   7  16
BRANCH  15  23
ATOM     23  C   UNL     1      95.785 100.689  83.815  1.00  0.00    -0.046 C 
ATOM     24  C   UNL     1      94.873 101.007  82.667  1.00  0.00     0.042 C 
ATOM     25  C   UNL     1      95.625 101.251  85.022  1.00  0.00     0.010 C 
ENDBRANCH  15  23
ENDBRANCH   3   4
BRANCH   2  26
ATOM     26  C   UNL     1      98.579  95.315  80.216  1.00  0.00     0.078 C 
BRANCH  26  27
ATOM     27  C   UNL     1      99.506  96.501  80.473  1.00  0.00     0.140 C 
ATOM     28  C   UNL     1      99.712  96.765  81.979  1.00  0.00     0.086 CG0
ATOM     29  C   UNL     1     100.919  96.247  79.992  1.00  0.00     0.190 C 
ATOM     30  C   UNL     1     101.198  96.959  82.101  1.00  0.00    -0.010 C 
ATOM     31  G   UNL     1      98.751  97.801  82.631  1.00  0.00     0.000 G0
ATOM     32  O   UNL     1     101.225  95.813  78.891  1.00  0.00    -0.291 OA
ATOM     33  C   UNL     1     101.907  96.650  81.011  1.00  0.00    -0.008 C 
ATOM     34  C   UNL     1     103.369  96.639  80.798  1.00  0.00     0.048 C 
BRANCH  27  35
ATOM     35  O   UNL     1      99.100  97.645  79.742  1.00  0.00    -0.381 OA
ATOM     36  H   UNL     1      99.521  98.427  80.137  1.00  0.00     0.212 HD
ENDBRANCH  27  35
ENDBRANCH  26  27
ENDBRANCH   2  26
ENDBRANCH   1   2
BRANCH   1  37
ATOM     37  O   UNL     1      95.261  94.215  80.310  1.00  0.00    -0.461 OA
BRANCH  37  38
ATOM     38  C   UNL     1      94.993  93.664  79.078  1.00  0.00     0.310 C 
ATOM     39  O   UNL     1      95.445  92.604  78.669  1.00  0.00    -0.252 OA
BRANCH  38  40
ATOM     40  C   UNL     1      94.056  94.570  78.314  1.00  0.00     0.158 C 
BRANCH  40  41
ATOM     41  C   UNL     1      92.975  93.816  77.585  1.00  0.00    -0.037 A 
ATOM     42  C   UNL     1      93.055  93.644  76.202  1.00  0.00     0.008 A 
ATOM     43  C   UNL     1      91.893  93.289  78.290  1.00  0.00     0.008 A 
ATOM     44  C   UNL     1      92.053  92.947  75.526  1.00  0.00     0.046 A 
ATOM     45  C   UNL     1      90.892  92.591  77.614  1.00  0.00     0.046 A 
ATOM     46  C   UNL     1      90.972  92.420  76.233  1.00  0.00     0.115 A 
BRANCH  46  47
ATOM     47  O   UNL     1      89.995  91.741  75.573  1.00  0.00    -0.508 OA
ATOM     48  H   UNL     1      89.768  90.942  76.080  1.00  0.00     0.293 HD
ENDBRANCH  46  47
ENDBRANCH  40  41
ENDBRANCH  38  40
ENDBRANCH  37  38
ENDBRANCH   1  37
TORSDOF 10
ENDMDL
MODEL 9
REMARK VINA RESULT:    -6.435     15.950     19.554
REMARK INTER + INTRA:         -11.387
REMARK INTER:                 -10.807
REMARK INTRA:                  -0.581
REMARK UNBOUND:                -0.438
REMARK SMILES C=C(C)[C@]12C[C@@H](C)[C@@]34O[C@](Cc5ccccc5)(O[C@@H]1[C@@H]3C=C(COC(=O)Cc1ccc(O)cc1)C[C@]1(O)C(=O)C(C)=C[C@@H]41)O2
REMARK SMILES IDX 23 1 22 2 21 3 20 4 9 5 8 6 10 7 6 8 18 10 44 11 19 12 5 13
REMARK SMILES IDX 7 14 4 15 11 16 12 17 13 18 17 19 14 20 16 21 15 22 2 23
REMARK SMILES IDX 3 24 1 25 35 26 36 27 43 28 38 29 42 30 39 32 40 33 41 34
REMARK SMILES IDX 37 35 24 37 25 38 26 39 27 40 28 41 29 42 34 43 30 44 33 45
REMARK SMILES IDX 31 46 32 47
REMARK H PARENT 37 36 32 48
REMARK Flexibility Score: 90.00
ROOT
ATOM      1  C   UNL     1      96.887  95.098  81.249  1.00  0.00     0.264 C 
ENDROOT
BRANCH   1   2
ATOM      2  C   UNL     1      97.645  96.398  81.398  1.00  0.00    -0.033 C 
ATOM      3  C   UNL     1      96.969  97.564  81.342  1.00  0.00    -0.015 C 
BRANCH   3   4
ATOM      4  C   UNL     1      97.499  98.989  81.387  1.00  0.00     0.078 C 
ATOM      5  O   UNL     1      97.455  99.699  83.756  1.00  0.00    -0.319 OA
ATOM      6  C   UNL     1      98.352  99.431  82.633  1.00  0.00     0.095 CG0
ATOM      7  C   UNL     1      96.257 100.428  83.426  1.00  0.00     0.289 C 
ATOM      8  C   UNL     1      99.114 100.764  82.243  1.00  0.00     0.023 C 
ATOM      9  G   UNL     1      99.255  98.264  83.127  1.00  0.00     0.000 G0
ATOM     10  O   UNL     1      95.497  99.751  82.429  1.00  0.00    -0.320 OA
ATOM     11  O   UNL     1      96.538 101.717  82.888  1.00  0.00    -0.313 OA
ATOM     12  C   UNL     1      96.323  99.991  81.279  1.00  0.00     0.170 C 
ATOM     13  C   UNL     1      98.274 101.638  81.263  1.00  0.00     0.049 C 
ATOM     14  C   UNL     1      99.581 101.629  83.426  1.00  0.00     0.011 C 
ATOM     15  C   UNL     1      96.772 101.457  81.488  1.00  0.00     0.122 C 
BRANCH   7  16
ATOM     16  C   UNL     1      95.430 100.577  84.688  1.00  0.00     0.135 C 
BRANCH  16  17
ATOM     17  C   UNL     1      94.709 101.900  84.739  1.00  0.00    -0.040 A 
ATOM     18  C   UNL     1      93.627 102.138  83.892  1.00  0.00     0.004 A 
ATOM     19  C   UNL     1      95.124 102.885  85.635  1.00  0.00     0.004 A 
ATOM     20  C   UNL     1      92.959 103.363  83.940  1.00  0.00     0.000 A 
ATOM     21  C   UNL     1      94.456 104.110  85.683  1.00  0.00     0.000 A 
ATOM     22  C   UNL     1      93.375 104.348  84.835  1.00  0.00     0.000 A 
ENDBRANCH  16  17
ENDBRANCH   7  16
BRANCH  15  23
ATOM     23  C   UNL     1      95.952 102.416  80.688  1.00  0.00    -0.046 C 
ATOM     24  C   UNL     1      95.850 103.812  81.228  1.00  0.00     0.042 C 
ATOM     25  C   UNL     1      95.341 102.050  79.552  1.00  0.00     0.010 C 
ENDBRANCH  15  23
ENDBRANCH   3   4
BRANCH   2  26
ATOM     26  C   UNL     1      99.134  96.198  81.609  1.00  0.00     0.078 C 
BRANCH  26  27
ATOM     27  C   UNL     1      99.956  97.428  81.990  1.00  0.00     0.140 C 
ATOM     28  C   UNL     1      99.284  98.257  83.105  1.00  0.00     0.086 CG0
ATOM     29  C   UNL     1     101.288  97.066  82.611  1.00  0.00     0.190 C 
ATOM     30  C   UNL     1     100.412  98.542  84.056  1.00  0.00    -0.010 C 
ATOM     31  G   UNL     1      98.368  99.424  82.634  1.00  0.00     0.000 G0
ATOM     32  O   UNL     1     102.084  96.257  82.159  1.00  0.00    -0.291 OA
ATOM     33  C   UNL     1     101.542  97.867  83.823  1.00  0.00    -0.008 C 
ATOM     34  C   UNL     1     102.806  97.835  84.588  1.00  0.00     0.048 C 
BRANCH  27  35
ATOM     35  O   UNL     1     100.311  98.188  80.847  1.00  0.00    -0.381 OA
ATOM     36  H   UNL     1      99.631  98.054  80.166  1.00  0.00     0.212 HD
ENDBRANCH  27  35
ENDBRANCH  26  27
ENDBRANCH   2  26
ENDBRANCH   1   2
BRANCH   1  37
ATOM     37  O   UNL     1      96.164  95.117  80.036  1.00  0.00    -0.461 OA
BRANCH  37  38
ATOM     38  C   UNL     1      95.440  93.984  79.744  1.00  0.00     0.310 C 
ATOM     39  O   UNL     1      95.052  93.166  80.566  1.00  0.00    -0.252 OA
BRANCH  38  40
ATOM     40  C   UNL     1      95.200  93.911  78.255  1.00  0.00     0.158 C 
BRANCH  40  41
ATOM     41  C   UNL     1      93.773  94.212  77.874  1.00  0.00    -0.037 A 
ATOM     42  C   UNL     1      92.842  93.178  77.785  1.00  0.00     0.008 A 
ATOM     43  C   UNL     1      93.384  95.525  77.610  1.00  0.00     0.008 A 
ATOM     44  C   UNL     1      91.521  93.457  77.431  1.00  0.00     0.046 A 
ATOM     45  C   UNL     1      92.064  95.804  77.257  1.00  0.00     0.046 A 
ATOM     46  C   UNL     1      91.133  94.770  77.167  1.00  0.00     0.115 A 
BRANCH  46  47
ATOM     47  O   UNL     1      89.845  95.042  76.822  1.00  0.00    -0.508 OA
ATOM     48  H   UNL     1      89.837  95.490  75.957  1.00  0.00     0.293 HD
ENDBRANCH  46  47
ENDBRANCH  40  41
ENDBRANCH  38  40
ENDBRANCH  37  38
ENDBRANCH   1  37
TORSDOF 10
ENDMDL
MODEL 10
REMARK VINA RESULT:    -6.033     26.220     30.711
REMARK INTER + INTRA:         -10.703
REMARK INTER:                 -10.052
REMARK INTRA:                  -0.651
REMARK UNBOUND:                -0.438
REMARK SMILES C=C(C)[C@]12C[C@@H](C)[C@@]34O[C@](Cc5ccccc5)(O[C@@H]1[C@@H]3C=C(COC(=O)Cc1ccc(O)cc1)C[C@]1(O)C(=O)C(C)=C[C@@H]41)O2
REMARK SMILES IDX 23 1 22 2 21 3 20 4 9 5 8 6 10 7 6 8 18 10 44 11 19 12 5 13
REMARK SMILES IDX 7 14 4 15 11 16 12 17 13 18 17 19 14 20 16 21 15 22 2 23
REMARK SMILES IDX 3 24 1 25 35 26 36 27 43 28 38 29 42 30 39 32 40 33 41 34
REMARK SMILES IDX 37 35 24 37 25 38 26 39 27 40 28 41 29 42 34 43 30 44 33 45
REMARK SMILES IDX 31 46 32 47
REMARK H PARENT 37 36 32 48
REMARK Flexibility Score: 90.00
ROOT
ATOM      1  C   UNL     1      67.258  85.607  69.220  1.00  0.00     0.264 C 
ENDROOT
BRANCH   1   2
ATOM      2  C   UNL     1      68.206  85.818  68.063  1.00  0.00    -0.033 C 
ATOM      3  C   UNL     1      69.318  86.560  68.248  1.00  0.00    -0.015 C 
BRANCH   3   4
ATOM      4  C   UNL     1      70.377  86.979  67.241  1.00  0.00     0.078 C 
ATOM      5  O   UNL     1      72.171  85.279  67.333  1.00  0.00    -0.319 OA
ATOM      6  C   UNL     1      71.152  85.856  66.459  1.00  0.00     0.095 CG0
ATOM      7  C   UNL     1      72.913  86.228  68.123  1.00  0.00     0.289 C 
ATOM      8  C   UNL     1      71.855  86.537  65.213  1.00  0.00     0.023 C 
ATOM      9  G   UNL     1      70.208  84.664  66.123  1.00  0.00     0.000 G0
ATOM     10  O   UNL     1      72.047  87.011  68.940  1.00  0.00    -0.320 OA
ATOM     11  O   UNL     1      73.630  87.160  67.317  1.00  0.00    -0.313 OA
ATOM     12  C   UNL     1      71.450  87.851  67.939  1.00  0.00     0.170 C 
ATOM     13  C   UNL     1      72.296  87.998  65.534  1.00  0.00     0.049 C 
ATOM     14  C   UNL     1      73.046  85.764  64.622  1.00  0.00     0.011 C 
ATOM     15  C   UNL     1      72.648  88.172  67.013  1.00  0.00     0.122 C 
BRANCH   7  16
ATOM     16  C   UNL     1      73.887  85.461  68.995  1.00  0.00     0.135 C 
BRANCH  16  17
ATOM     17  C   UNL     1      75.169  85.142  68.268  1.00  0.00    -0.040 A 
ATOM     18  C   UNL     1      76.349  85.799  68.614  1.00  0.00     0.004 A 
ATOM     19  C   UNL     1      75.173  84.190  67.249  1.00  0.00     0.004 A 
ATOM     20  C   UNL     1      77.536  85.503  67.942  1.00  0.00     0.000 A 
ATOM     21  C   UNL     1      76.360  83.895  66.576  1.00  0.00     0.000 A 
ATOM     22  C   UNL     1      77.540  84.552  66.922  1.00  0.00     0.000 A 
ENDBRANCH  16  17
ENDBRANCH   7  16
BRANCH  15  23
ATOM     23  C   UNL     1      73.244  89.510  67.308  1.00  0.00    -0.046 C 
ATOM     24  C   UNL     1      74.447  89.515  68.203  1.00  0.00     0.042 C 
ATOM     25  C   UNL     1      72.732  90.641  66.802  1.00  0.00     0.010 C 
ENDBRANCH  15  23
ENDBRANCH   3   4
BRANCH   2  26
ATOM     26  C   UNL     1      67.757  85.124  66.791  1.00  0.00     0.078 C 
BRANCH  26  27
ATOM     27  C   UNL     1      68.761  85.054  65.642  1.00  0.00     0.140 C 
ATOM     28  C   UNL     1      70.175  84.668  66.124  1.00  0.00     0.086 CG0
ATOM     29  C   UNL     1      68.441  83.949  64.657  1.00  0.00     0.190 C 
ATOM     30  C   UNL     1      70.607  83.619  65.138  1.00  0.00    -0.010 C 
ATOM     31  G   UNL     1      71.134  85.849  66.452  1.00  0.00     0.000 G0
ATOM     32  O   UNL     1      67.345  83.741  64.159  1.00  0.00    -0.291 OA
ATOM     33  C   UNL     1      69.649  83.174  64.319  1.00  0.00    -0.008 C 
ATOM     34  C   UNL     1      69.691  82.108  63.297  1.00  0.00     0.048 C 
BRANCH  27  35
ATOM     35  O   UNL     1      68.728  86.231  64.852  1.00  0.00    -0.381 OA
ATOM     36  H   UNL     1      69.111  86.027  63.982  1.00  0.00     0.212 HD
ENDBRANCH  27  35
ENDBRANCH  26  27
ENDBRANCH   2  26
ENDBRANCH   1   2
BRANCH   1  37
ATOM     37  O   UNL     1      66.309  86.652  69.242  1.00  0.00    -0.461 OA
BRANCH  37  38
ATOM     38  C   UNL     1      65.010  86.287  69.515  1.00  0.00     0.310 C 
ATOM     39  O   UNL     1      64.229  86.933  70.199  1.00  0.00    -0.252 OA
BRANCH  38  40
ATOM     40  C   UNL     1      64.703  84.973  68.839  1.00  0.00     0.158 C 
BRANCH  40  41
ATOM     41  C   UNL     1      64.076  83.966  69.768  1.00  0.00    -0.037 A 
ATOM     42  C   UNL     1      64.867  82.993  70.379  1.00  0.00     0.008 A 
ATOM     43  C   UNL     1      62.704  84.007  70.018  1.00  0.00     0.008 A 
ATOM     44  C   UNL     1      64.286  82.061  71.239  1.00  0.00     0.046 A 
ATOM     45  C   UNL     1      62.123  83.075  70.878  1.00  0.00     0.046 A 
ATOM     46  C   UNL     1      62.913  82.102  71.488  1.00  0.00     0.115 A 
BRANCH  46  47
ATOM     47  O   UNL     1      62.347  81.192  72.327  1.00  0.00    -0.508 OA
ATOM     48  H   UNL     1      62.890  80.384  72.329  1.00  0.00     0.293 HD
ENDBRANCH  46  47
ENDBRANCH  40  41
ENDBRANCH  38  40
ENDBRANCH  37  38
ENDBRANCH   1  37
TORSDOF 10
ENDMDL
