MODEL 1
REMARK VINA RESULT:    -6.372      0.000      0.000
REMARK INTER + INTRA:         -10.885
REMARK INTER:                 -10.284
REMARK INTRA:                  -0.601
REMARK UNBOUND:                -0.601
REMARK SMILES COc1cc(CNC(=O)CCCCCCC(C)C)ccc1O
REMARK SMILES IDX 11 1 10 2 8 3 7 4 9 6 6 7 5 8 3 9 21 10 4 11 20 12 19 13
REMARK SMILES IDX 2 14 1 15 22 16 12 18 13 19 14 20 15 21 16 22 17 23 18 24
REMARK H PARENT 7 5 22 17
REMARK Flexibility Score: inf
ROOT
ATOM      1  C   UNL     1      81.161  64.951  70.641  1.00  0.00     0.010 C 
ENDROOT
BRANCH   1   2
ATOM      2  C   UNL     1      80.165  65.546  71.674  1.00  0.00     0.100 C 
BRANCH   2   3
ATOM      3  C   UNL     1      80.833  66.153  72.847  1.00  0.00     0.220 C 
ATOM      4  N   UNL     1      82.105  65.791  73.180  1.00  0.00    -0.352 N 
ATOM      5  H   UNL     1      82.503  65.069  72.597  1.00  0.00     0.163 HD
ATOM      6  O   UNL     1      80.213  67.021  73.510  1.00  0.00    -0.275 OA
BRANCH   4   7
ATOM      7  C   UNL     1      82.870  66.350  74.253  1.00  0.00     0.151 C 
BRANCH   7   8
ATOM      8  C   UNL     1      83.801  67.425  73.813  1.00  0.00    -0.025 A 
ATOM      9  C   UNL     1      85.867  68.718  74.138  1.00  0.00     0.160 A 
ATOM     10  C   UNL     1      85.603  69.443  72.956  1.00  0.00     0.157 A 
ATOM     11  C   UNL     1      84.956  67.730  74.567  1.00  0.00     0.056 A 
ATOM     12  C   UNL     1      84.436  69.176  72.217  1.00  0.00     0.050 A 
ATOM     13  C   UNL     1      83.546  68.167  72.635  1.00  0.00     0.009 A 
BRANCH   9  14
ATOM     14  O   UNL     1      86.979  68.997  74.885  1.00  0.00    -0.493 OA
ATOM     15  C   UNL     1      86.713  69.815  76.039  1.00  0.00     0.278 C 
ENDBRANCH   9  14
BRANCH  10  16
ATOM     16  O   UNL     1      86.461  70.402  72.520  1.00  0.00    -0.504 OA
ATOM     17  H   UNL     1      87.292  70.327  72.996  1.00  0.00     0.293 HD
ENDBRANCH  10  16
ENDBRANCH   7   8
ENDBRANCH   4   7
ENDBRANCH   2   3
ENDBRANCH   1   2
BRANCH   1  18
ATOM     18  C   UNL     1      80.485  63.902  69.712  1.00  0.00     0.001 C 
BRANCH  18  19
ATOM     19  C   UNL     1      78.936  64.017  69.660  1.00  0.00     0.000 C 
BRANCH  19  20
ATOM     20  C   UNL     1      78.438  64.403  68.238  1.00  0.00     0.000 C 
BRANCH  20  21
ATOM     21  C   UNL     1      76.916  64.183  68.014  1.00  0.00     0.003 C 
BRANCH  21  22
ATOM     22  C   UNL     1      76.071  65.497  67.960  1.00  0.00    -0.017 C 
ATOM     23  C   UNL     1      74.715  65.302  68.695  1.00  0.00     0.007 C 
ATOM     24  C   UNL     1      75.835  66.030  66.516  1.00  0.00     0.007 C 
ENDBRANCH  21  22
ENDBRANCH  20  21
ENDBRANCH  19  20
ENDBRANCH  18  19
ENDBRANCH   1  18
TORSDOF 11
ENDMDL
MODEL 2
REMARK VINA RESULT:    -6.155      1.390      2.255
REMARK INTER + INTRA:         -10.533
REMARK INTER:                  -9.778
REMARK INTRA:                  -0.755
REMARK UNBOUND:                -0.601
REMARK SMILES COc1cc(CNC(=O)CCCCCCC(C)C)ccc1O
REMARK SMILES IDX 11 1 10 2 8 3 7 4 9 6 6 7 5 8 3 9 21 10 4 11 20 12 19 13
REMARK SMILES IDX 2 14 1 15 22 16 12 18 13 19 14 20 15 21 16 22 17 23 18 24
REMARK H PARENT 7 5 22 17
REMARK Flexibility Score: inf
ROOT
ATOM      1  C   UNL     1      80.079  65.194  69.454  1.00  0.00     0.010 C 
ENDROOT
BRANCH   1   2
ATOM      2  C   UNL     1      79.839  65.954  70.788  1.00  0.00     0.100 C 
BRANCH   2   3
ATOM      3  C   UNL     1      80.666  65.447  71.906  1.00  0.00     0.220 C 
ATOM      4  N   UNL     1      81.997  65.209  71.726  1.00  0.00    -0.352 N 
ATOM      5  H   UNL     1      82.330  65.364  70.785  1.00  0.00     0.163 HD
ATOM      6  O   UNL     1      80.122  65.267  73.023  1.00  0.00    -0.275 OA
BRANCH   4   7
ATOM      7  C   UNL     1      82.904  64.776  72.745  1.00  0.00     0.151 C 
BRANCH   7   8
ATOM      8  C   UNL     1      83.589  65.901  73.439  1.00  0.00    -0.025 A 
ATOM      9  C   UNL     1      84.847  68.012  73.343  1.00  0.00     0.160 A 
ATOM     10  C   UNL     1      84.857  68.073  74.754  1.00  0.00     0.157 A 
ATOM     11  C   UNL     1      84.230  66.920  72.698  1.00  0.00     0.056 A 
ATOM     12  C   UNL     1      84.256  67.046  75.503  1.00  0.00     0.050 A 
ATOM     13  C   UNL     1      83.616  65.972  74.852  1.00  0.00     0.009 A 
BRANCH   9  14
ATOM     14  O   UNL     1      85.463  68.986  72.605  1.00  0.00    -0.493 OA
ATOM     15  C   UNL     1      86.682  68.552  71.974  1.00  0.00     0.278 C 
ENDBRANCH   9  14
BRANCH  10  16
ATOM     16  O   UNL     1      85.445  69.113  75.402  1.00  0.00    -0.504 OA
ATOM     17  H   UNL     1      85.132  69.141  76.309  1.00  0.00     0.293 HD
ENDBRANCH  10  16
ENDBRANCH   7   8
ENDBRANCH   4   7
ENDBRANCH   2   3
ENDBRANCH   1   2
BRANCH   1  18
ATOM     18  C   UNL     1      79.728  63.684  69.567  1.00  0.00     0.001 C 
BRANCH  18  19
ATOM     19  C   UNL     1      78.345  63.314  68.959  1.00  0.00     0.000 C 
BRANCH  19  20
ATOM     20  C   UNL     1      77.865  64.385  67.939  1.00  0.00     0.000 C 
BRANCH  20  21
ATOM     21  C   UNL     1      76.912  63.837  66.841  1.00  0.00     0.003 C 
BRANCH  21  22
ATOM     22  C   UNL     1      75.577  64.635  66.680  1.00  0.00    -0.017 C 
ATOM     23  C   UNL     1      75.870  66.145  66.454  1.00  0.00     0.007 C 
ATOM     24  C   UNL     1      74.588  64.443  67.867  1.00  0.00     0.007 C 
ENDBRANCH  21  22
ENDBRANCH  20  21
ENDBRANCH  19  20
ENDBRANCH  18  19
ENDBRANCH   1  18
TORSDOF 11
ENDMDL
MODEL 3
REMARK VINA RESULT:    -6.055     24.019     25.396
REMARK INTER + INTRA:         -10.372
REMARK INTER:                  -9.710
REMARK INTRA:                  -0.662
REMARK UNBOUND:                -0.601
REMARK SMILES COc1cc(CNC(=O)CCCCCCC(C)C)ccc1O
REMARK SMILES IDX 11 1 10 2 8 3 7 4 9 6 6 7 5 8 3 9 21 10 4 11 20 12 19 13
REMARK SMILES IDX 2 14 1 15 22 16 12 18 13 19 14 20 15 21 16 22 17 23 18 24
REMARK H PARENT 7 5 22 17
REMARK Flexibility Score: inf
ROOT
ATOM      1  C   UNL     1      74.264  89.307  70.080  1.00  0.00     0.010 C 
ENDROOT
BRANCH   1   2
ATOM      2  C   UNL     1      74.612  90.819  70.166  1.00  0.00     0.100 C 
BRANCH   2   3
ATOM      3  C   UNL     1      74.141  91.458  71.415  1.00  0.00     0.220 C 
ATOM      4  N   UNL     1      74.730  92.601  71.870  1.00  0.00    -0.352 N 
ATOM      5  H   UNL     1      75.512  92.921  71.316  1.00  0.00     0.163 HD
ATOM      6  O   UNL     1      73.176  90.940  72.029  1.00  0.00    -0.275 OA
BRANCH   4   7
ATOM      7  C   UNL     1      74.323  93.336  73.029  1.00  0.00     0.151 C 
BRANCH   7   8
ATOM      8  C   UNL     1      75.458  93.702  73.920  1.00  0.00    -0.025 A 
ATOM      9  C   UNL     1      76.339  94.149  76.173  1.00  0.00     0.160 A 
ATOM     10  C   UNL     1      77.626  94.356  75.631  1.00  0.00     0.157 A 
ATOM     11  C   UNL     1      75.263  93.843  75.313  1.00  0.00     0.056 A 
ATOM     12  C   UNL     1      77.825  94.258  74.242  1.00  0.00     0.050 A 
ATOM     13  C   UNL     1      76.752  93.923  73.393  1.00  0.00     0.009 A 
BRANCH   9  14
ATOM     14  O   UNL     1      76.126  94.281  77.518  1.00  0.00    -0.493 OA
ATOM     15  C   UNL     1      75.458  95.503  77.882  1.00  0.00     0.278 C 
ENDBRANCH   9  14
BRANCH  10  16
ATOM     16  O   UNL     1      78.680  94.654  76.435  1.00  0.00    -0.504 OA
ATOM     17  H   UNL     1      78.507  94.329  77.322  1.00  0.00     0.293 HD
ENDBRANCH  10  16
ENDBRANCH   7   8
ENDBRANCH   4   7
ENDBRANCH   2   3
ENDBRANCH   1   2
BRANCH   1  18
ATOM     18  C   UNL     1      74.877  88.634  68.819  1.00  0.00     0.001 C 
BRANCH  18  19
ATOM     19  C   UNL     1      76.386  88.948  68.613  1.00  0.00     0.000 C 
BRANCH  19  20
ATOM     20  C   UNL     1      77.162  87.707  68.090  1.00  0.00     0.000 C 
BRANCH  20  21
ATOM     21  C   UNL     1      77.197  86.512  69.082  1.00  0.00     0.003 C 
BRANCH  21  22
ATOM     22  C   UNL     1      76.500  85.213  68.561  1.00  0.00    -0.017 C 
ATOM     23  C   UNL     1      76.129  84.281  69.749  1.00  0.00     0.007 C 
ATOM     24  C   UNL     1      77.335  84.438  67.500  1.00  0.00     0.007 C 
ENDBRANCH  21  22
ENDBRANCH  20  21
ENDBRANCH  19  20
ENDBRANCH  18  19
ENDBRANCH   1  18
TORSDOF 11
ENDMDL
MODEL 4
REMARK VINA RESULT:    -5.916     22.884     24.638
REMARK INTER + INTRA:         -10.148
REMARK INTER:                  -9.520
REMARK INTRA:                  -0.628
REMARK UNBOUND:                -0.601
REMARK SMILES COc1cc(CNC(=O)CCCCCCC(C)C)ccc1O
REMARK SMILES IDX 11 1 10 2 8 3 7 4 9 6 6 7 5 8 3 9 21 10 4 11 20 12 19 13
REMARK SMILES IDX 2 14 1 15 22 16 12 18 13 19 14 20 15 21 16 22 17 23 18 24
REMARK H PARENT 7 5 22 17
REMARK Flexibility Score: inf
ROOT
ATOM      1  C   UNL     1      97.005  82.714  78.080  1.00  0.00     0.010 C 
ENDROOT
BRANCH   1   2
ATOM      2  C   UNL     1      97.230  83.567  79.359  1.00  0.00     0.100 C 
BRANCH   2   3
ATOM      3  C   UNL     1      97.090  82.792  80.612  1.00  0.00     0.220 C 
ATOM      4  N   UNL     1      96.928  83.434  81.805  1.00  0.00    -0.352 N 
ATOM      5  H   UNL     1      96.960  84.441  81.749  1.00  0.00     0.163 HD
ATOM      6  O   UNL     1      97.098  81.538  80.548  1.00  0.00    -0.275 OA
BRANCH   4   7
ATOM      7  C   UNL     1      96.725  82.791  83.068  1.00  0.00     0.151 C 
BRANCH   7   8
ATOM      8  C   UNL     1      95.643  83.416  83.877  1.00  0.00    -0.025 A 
ATOM      9  C   UNL     1      93.509  83.229  85.086  1.00  0.00     0.160 A 
ATOM     10  C   UNL     1      93.598  84.589  85.457  1.00  0.00     0.157 A 
ATOM     11  C   UNL     1      94.521  82.659  84.284  1.00  0.00     0.056 A 
ATOM     12  C   UNL     1      94.690  85.363  85.025  1.00  0.00     0.050 A 
ATOM     13  C   UNL     1      95.711  84.780  84.249  1.00  0.00     0.009 A 
BRANCH   9  14
ATOM     14  O   UNL     1      92.431  82.478  85.467  1.00  0.00    -0.493 OA
ATOM     15  C   UNL     1      91.610  82.042  84.369  1.00  0.00     0.278 C 
ENDBRANCH   9  14
BRANCH  10  16
ATOM     16  O   UNL     1      92.637  85.165  86.226  1.00  0.00    -0.504 OA
ATOM     17  H   UNL     1      93.051  85.718  86.893  1.00  0.00     0.293 HD
ENDBRANCH  10  16
ENDBRANCH   7   8
ENDBRANCH   4   7
ENDBRANCH   2   3
ENDBRANCH   1   2
BRANCH   1  18
ATOM     18  C   UNL     1      98.339  82.382  77.354  1.00  0.00     0.001 C 
BRANCH  18  19
ATOM     19  C   UNL     1      98.830  83.507  76.399  1.00  0.00     0.000 C 
BRANCH  19  20
ATOM     20  C   UNL     1      97.639  84.249  75.730  1.00  0.00     0.000 C 
BRANCH  20  21
ATOM     21  C   UNL     1      97.210  83.659  74.358  1.00  0.00     0.003 C 
BRANCH  21  22
ATOM     22  C   UNL     1      98.190  83.971  73.181  1.00  0.00    -0.017 C 
ATOM     23  C   UNL     1      99.115  82.753  72.906  1.00  0.00     0.007 C 
ATOM     24  C   UNL     1      99.036  85.261  73.397  1.00  0.00     0.007 C 
ENDBRANCH  21  22
ENDBRANCH  20  21
ENDBRANCH  19  20
ENDBRANCH  18  19
ENDBRANCH   1  18
TORSDOF 11
ENDMDL
MODEL 5
REMARK VINA RESULT:    -5.775     23.513     25.932
REMARK INTER + INTRA:          -9.921
REMARK INTER:                  -8.644
REMARK INTRA:                  -1.277
REMARK UNBOUND:                -0.601
REMARK SMILES COc1cc(CNC(=O)CCCCCCC(C)C)ccc1O
REMARK SMILES IDX 11 1 10 2 8 3 7 4 9 6 6 7 5 8 3 9 21 10 4 11 20 12 19 13
REMARK SMILES IDX 2 14 1 15 22 16 12 18 13 19 14 20 15 21 16 22 17 23 18 24
REMARK H PARENT 7 5 22 17
REMARK Flexibility Score: inf
ROOT
ATOM      1  C   UNL     1      97.262  83.016  78.446  1.00  0.00     0.010 C 
ENDROOT
BRANCH   1   2
ATOM      2  C   UNL     1      96.340  83.951  77.616  1.00  0.00     0.100 C 
BRANCH   2   3
ATOM      3  C   UNL     1      96.950  84.395  76.343  1.00  0.00     0.220 C 
ATOM      4  N   UNL     1      98.281  84.202  76.113  1.00  0.00    -0.352 N 
ATOM      5  H   UNL     1      98.786  83.789  76.883  1.00  0.00     0.163 HD
ATOM      6  O   UNL     1      96.214  84.926  75.476  1.00  0.00    -0.275 OA
BRANCH   4   7
ATOM      7  C   UNL     1      98.966  84.536  74.901  1.00  0.00     0.151 C 
BRANCH   7   8
ATOM      8  C   UNL     1     100.421  84.222  74.945  1.00  0.00    -0.025 A 
ATOM      9  C   UNL     1     102.756  84.886  74.549  1.00  0.00     0.160 A 
ATOM     10  C   UNL     1     103.198  83.649  75.065  1.00  0.00     0.157 A 
ATOM     11  C   UNL     1     101.373  85.155  74.475  1.00  0.00     0.056 A 
ATOM     12  C   UNL     1     102.259  82.696  75.499  1.00  0.00     0.050 A 
ATOM     13  C   UNL     1     100.881  82.983  75.450  1.00  0.00     0.009 A 
BRANCH   9  14
ATOM     14  O   UNL     1     103.659  85.804  74.087  1.00  0.00    -0.493 OA
ATOM     15  C   UNL     1     103.841  86.931  74.964  1.00  0.00     0.278 C 
ENDBRANCH   9  14
BRANCH  10  16
ATOM     16  O   UNL     1     104.524  83.361  75.146  1.00  0.00    -0.504 OA
ATOM     17  H   UNL     1     104.782  83.303  76.069  1.00  0.00     0.293 HD
ENDBRANCH  10  16
ENDBRANCH   7   8
ENDBRANCH   4   7
ENDBRANCH   2   3
ENDBRANCH   1   2
BRANCH   1  18
ATOM     18  C   UNL     1      97.068  83.209  79.977  1.00  0.00     0.001 C 
BRANCH  18  19
ATOM     19  C   UNL     1      97.171  81.889  80.793  1.00  0.00     0.000 C 
BRANCH  19  20
ATOM     20  C   UNL     1      97.728  80.724  79.927  1.00  0.00     0.000 C 
BRANCH  20  21
ATOM     21  C   UNL     1      98.946  79.990  80.554  1.00  0.00     0.003 C 
BRANCH  21  22
ATOM     22  C   UNL     1     100.338  80.549  80.113  1.00  0.00    -0.017 C 
ATOM     23  C   UNL     1     100.879  81.556  81.167  1.00  0.00     0.007 C 
ATOM     24  C   UNL     1     100.333  81.194  78.695  1.00  0.00     0.007 C 
ENDBRANCH  21  22
ENDBRANCH  20  21
ENDBRANCH  19  20
ENDBRANCH  18  19
ENDBRANCH   1  18
TORSDOF 11
ENDMDL
MODEL 6
REMARK VINA RESULT:    -5.664     21.197     23.230
REMARK INTER + INTRA:          -9.741
REMARK INTER:                  -8.702
REMARK INTRA:                  -1.039
REMARK UNBOUND:                -0.601
REMARK SMILES COc1cc(CNC(=O)CCCCCCC(C)C)ccc1O
REMARK SMILES IDX 11 1 10 2 8 3 7 4 9 6 6 7 5 8 3 9 21 10 4 11 20 12 19 13
REMARK SMILES IDX 2 14 1 15 22 16 12 18 13 19 14 20 15 21 16 22 17 23 18 24
REMARK H PARENT 7 5 22 17
REMARK Flexibility Score: inf
ROOT
ATOM      1  C   UNL     1      75.276  89.126  69.215  1.00  0.00     0.010 C 
ENDROOT
BRANCH   1   2
ATOM      2  C   UNL     1      74.540  90.225  70.030  1.00  0.00     0.100 C 
BRANCH   2   3
ATOM      3  C   UNL     1      73.127  89.892  70.319  1.00  0.00     0.220 C 
ATOM      4  N   UNL     1      72.294  89.493  69.314  1.00  0.00    -0.352 N 
ATOM      5  H   UNL     1      72.711  89.495  68.395  1.00  0.00     0.163 HD
ATOM      6  O   UNL     1      72.723  89.960  71.505  1.00  0.00    -0.275 OA
BRANCH   4   7
ATOM      7  C   UNL     1      70.930  89.091  69.483  1.00  0.00     0.151 C 
BRANCH   7   8
ATOM      8  C   UNL     1      70.745  87.615  69.441  1.00  0.00    -0.025 A 
ATOM      9  C   UNL     1      71.409  85.408  68.583  1.00  0.00     0.160 A 
ATOM     10  C   UNL     1      70.426  84.795  69.390  1.00  0.00     0.157 A 
ATOM     11  C   UNL     1      71.548  86.812  68.600  1.00  0.00     0.056 A 
ATOM     12  C   UNL     1      69.594  85.587  70.201  1.00  0.00     0.050 A 
ATOM     13  C   UNL     1      69.758  86.986  70.236  1.00  0.00     0.009 A 
BRANCH   9  14
ATOM     14  O   UNL     1      72.198  84.651  67.760  1.00  0.00    -0.493 OA
ATOM     15  C   UNL     1      73.426  85.296  67.378  1.00  0.00     0.278 C 
ENDBRANCH   9  14
BRANCH  10  16
ATOM     16  O   UNL     1      70.269  83.445  69.392  1.00  0.00    -0.504 OA
ATOM     17  H   UNL     1      70.622  83.084  70.208  1.00  0.00     0.293 HD
ENDBRANCH  10  16
ENDBRANCH   7   8
ENDBRANCH   4   7
ENDBRANCH   2   3
ENDBRANCH   1   2
BRANCH   1  18
ATOM     18  C   UNL     1      76.449  89.706  68.374  1.00  0.00     0.001 C 
BRANCH  18  19
ATOM     19  C   UNL     1      77.503  88.643  67.953  1.00  0.00     0.000 C 
BRANCH  19  20
ATOM     20  C   UNL     1      77.000  87.198  68.230  1.00  0.00     0.000 C 
BRANCH  20  21
ATOM     21  C   UNL     1      77.087  86.247  67.004  1.00  0.00     0.003 C 
BRANCH  21  22
ATOM     22  C   UNL     1      77.383  84.753  67.360  1.00  0.00    -0.017 C 
ATOM     23  C   UNL     1      76.968  83.822  66.186  1.00  0.00     0.007 C 
ATOM     24  C   UNL     1      76.720  84.284  68.689  1.00  0.00     0.007 C 
ENDBRANCH  21  22
ENDBRANCH  20  21
ENDBRANCH  19  20
ENDBRANCH  18  19
ENDBRANCH   1  18
TORSDOF 11
ENDMDL
MODEL 7
REMARK VINA RESULT:    -5.611     25.085     26.525
REMARK INTER + INTRA:          -9.656
REMARK INTER:                  -8.908
REMARK INTRA:                  -0.748
REMARK UNBOUND:                -0.601
REMARK SMILES COc1cc(CNC(=O)CCCCCCC(C)C)ccc1O
REMARK SMILES IDX 11 1 10 2 8 3 7 4 9 6 6 7 5 8 3 9 21 10 4 11 20 12 19 13
REMARK SMILES IDX 2 14 1 15 22 16 12 18 13 19 14 20 15 21 16 22 17 23 18 24
REMARK H PARENT 7 5 22 17
REMARK Flexibility Score: inf
ROOT
ATOM      1  C   UNL     1      73.413  90.437  71.257  1.00  0.00     0.010 C 
ENDROOT
BRANCH   1   2
ATOM      2  C   UNL     1      72.533  91.691  70.995  1.00  0.00     0.100 C 
BRANCH   2   3
ATOM      3  C   UNL     1      72.787  92.794  71.948  1.00  0.00     0.220 C 
ATOM      4  N   UNL     1      73.781  93.697  71.709  1.00  0.00    -0.352 N 
ATOM      5  H   UNL     1      74.326  93.513  70.879  1.00  0.00     0.163 HD
ATOM      6  O   UNL     1      72.054  92.892  72.963  1.00  0.00    -0.275 OA
BRANCH   4   7
ATOM      7  C   UNL     1      74.080  94.833  72.527  1.00  0.00     0.151 C 
BRANCH   7   8
ATOM      8  C   UNL     1      75.269  94.631  73.400  1.00  0.00    -0.025 A 
ATOM      9  C   UNL     1      77.664  94.963  73.847  1.00  0.00     0.160 A 
ATOM     10  C   UNL     1      77.530  94.288  75.080  1.00  0.00     0.157 A 
ATOM     11  C   UNL     1      76.539  95.112  73.010  1.00  0.00     0.056 A 
ATOM     12  C   UNL     1      76.279  93.770  75.462  1.00  0.00     0.050 A 
ATOM     13  C   UNL     1      75.154  93.949  74.635  1.00  0.00     0.009 A 
BRANCH   9  14
ATOM     14  O   UNL     1      78.884  95.436  73.448  1.00  0.00    -0.493 OA
ATOM     15  C   UNL     1      78.811  96.407  72.388  1.00  0.00     0.278 C 
ENDBRANCH   9  14
BRANCH  10  16
ATOM     16  O   UNL     1      78.597  94.128  75.906  1.00  0.00    -0.504 OA
ATOM     17  H   UNL     1      79.260  94.793  75.705  1.00  0.00     0.293 HD
ENDBRANCH  10  16
ENDBRANCH   7   8
ENDBRANCH   4   7
ENDBRANCH   2   3
ENDBRANCH   1   2
BRANCH   1  18
ATOM     18  C   UNL     1      74.758  90.491  70.477  1.00  0.00     0.001 C 
BRANCH  18  19
ATOM     19  C   UNL     1      75.004  89.254  69.568  1.00  0.00     0.000 C 
BRANCH  19  20
ATOM     20  C   UNL     1      75.776  89.640  68.274  1.00  0.00     0.000 C 
BRANCH  20  21
ATOM     21  C   UNL     1      77.236  89.113  68.222  1.00  0.00     0.003 C 
BRANCH  21  22
ATOM     22  C   UNL     1      77.406  87.737  67.499  1.00  0.00    -0.017 C 
ATOM     23  C   UNL     1      76.431  87.633  66.293  1.00  0.00     0.007 C 
ATOM     24  C   UNL     1      77.238  86.510  68.443  1.00  0.00     0.007 C 
ENDBRANCH  21  22
ENDBRANCH  20  21
ENDBRANCH  19  20
ENDBRANCH  18  19
ENDBRANCH   1  18
TORSDOF 11
ENDMDL
MODEL 8
REMARK VINA RESULT:    -5.604     27.101     32.087
REMARK INTER + INTRA:          -9.645
REMARK INTER:                  -8.974
REMARK INTRA:                  -0.670
REMARK UNBOUND:                -0.601
REMARK SMILES COc1cc(CNC(=O)CCCCCCC(C)C)ccc1O
REMARK SMILES IDX 11 1 10 2 8 3 7 4 9 6 6 7 5 8 3 9 21 10 4 11 20 12 19 13
REMARK SMILES IDX 2 14 1 15 22 16 12 18 13 19 14 20 15 21 16 22 17 23 18 24
REMARK H PARENT 7 5 22 17
REMARK Flexibility Score: inf
ROOT
ATOM      1  C   UNL     1      95.990  97.579  76.170  1.00  0.00     0.010 C 
ENDROOT
BRANCH   1   2
ATOM      2  C   UNL     1      95.071  96.668  77.031  1.00  0.00     0.100 C 
BRANCH   2   3
ATOM      3  C   UNL     1      93.678  96.606  76.534  1.00  0.00     0.220 C 
ATOM      4  N   UNL     1      93.347  95.761  75.515  1.00  0.00    -0.352 N 
ATOM      5  H   UNL     1      94.123  95.246  75.126  1.00  0.00     0.163 HD
ATOM      6  O   UNL     1      92.810  97.326  77.086  1.00  0.00    -0.275 OA
BRANCH   4   7
ATOM      7  C   UNL     1      92.027  95.574  74.993  1.00  0.00     0.151 C 
BRANCH   7   8
ATOM      8  C   UNL     1      91.300  94.441  75.628  1.00  0.00    -0.025 A 
ATOM      9  C   UNL     1      90.167  92.266  75.442  1.00  0.00     0.160 A 
ATOM     10  C   UNL     1      89.952  92.256  76.837  1.00  0.00     0.157 A 
ATOM     11  C   UNL     1      90.822  93.365  74.846  1.00  0.00     0.056 A 
ATOM     12  C   UNL     1      90.389  93.340  77.621  1.00  0.00     0.050 A 
ATOM     13  C   UNL     1      91.068  94.420  77.024  1.00  0.00     0.009 A 
BRANCH   9  14
ATOM     14  O   UNL     1      89.712  91.236  74.665  1.00  0.00    -0.493 OA
ATOM     15  C   UNL     1      90.698  90.714  73.757  1.00  0.00     0.278 C 
ENDBRANCH   9  14
BRANCH  10  16
ATOM     16  O   UNL     1      89.324  91.212  77.438  1.00  0.00    -0.504 OA
ATOM     17  H   UNL     1      89.519  91.218  78.378  1.00  0.00     0.293 HD
ENDBRANCH  10  16
ENDBRANCH   7   8
ENDBRANCH   4   7
ENDBRANCH   2   3
ENDBRANCH   1   2
BRANCH   1  18
ATOM     18  C   UNL     1      95.502  99.056  76.154  1.00  0.00     0.001 C 
BRANCH  18  19
ATOM     19  C   UNL     1      94.677  99.429  74.890  1.00  0.00     0.000 C 
BRANCH  19  20
ATOM     20  C   UNL     1      95.578  99.528  73.627  1.00  0.00     0.000 C 
BRANCH  20  21
ATOM     21  C   UNL     1      94.818  99.334  72.286  1.00  0.00     0.003 C 
BRANCH  21  22
ATOM     22  C   UNL     1      95.072  97.958  71.587  1.00  0.00    -0.017 C 
ATOM     23  C   UNL     1      96.144  97.143  72.364  1.00  0.00     0.007 C 
ATOM     24  C   UNL     1      95.464  98.082  70.085  1.00  0.00     0.007 C 
ENDBRANCH  21  22
ENDBRANCH  20  21
ENDBRANCH  19  20
ENDBRANCH  18  19
ENDBRANCH   1  18
TORSDOF 11
ENDMDL
MODEL 9
REMARK VINA RESULT:    -5.531     26.685     32.444
REMARK INTER + INTRA:          -9.527
REMARK INTER:                  -8.822
REMARK INTRA:                  -0.705
REMARK UNBOUND:                -0.601
REMARK SMILES COc1cc(CNC(=O)CCCCCCC(C)C)ccc1O
REMARK SMILES IDX 11 1 10 2 8 3 7 4 9 6 6 7 5 8 3 9 21 10 4 11 20 12 19 13
REMARK SMILES IDX 2 14 1 15 22 16 12 18 13 19 14 20 15 21 16 22 17 23 18 24
REMARK H PARENT 7 5 22 17
REMARK Flexibility Score: inf
ROOT
ATOM      1  C   UNL     1      96.180  96.642  77.924  1.00  0.00     0.010 C 
ENDROOT
BRANCH   1   2
ATOM      2  C   UNL     1      95.147  95.496  78.113  1.00  0.00     0.100 C 
BRANCH   2   3
ATOM      3  C   UNL     1      93.896  95.705  77.350  1.00  0.00     0.220 C 
ATOM      4  N   UNL     1      93.719  95.105  76.138  1.00  0.00    -0.352 N 
ATOM      5  H   UNL     1      94.511  94.569  75.814  1.00  0.00     0.163 HD
ATOM      6  O   UNL     1      92.998  96.423  77.854  1.00  0.00    -0.275 OA
BRANCH   4   7
ATOM      7  C   UNL     1      92.534  95.187  75.340  1.00  0.00     0.151 C 
BRANCH   7   8
ATOM      8  C   UNL     1      91.559  94.098  75.624  1.00  0.00    -0.025 A 
ATOM      9  C   UNL     1      90.227  92.179  74.854  1.00  0.00     0.160 A 
ATOM     10  C   UNL     1      89.736  91.991  76.165  1.00  0.00     0.157 A 
ATOM     11  C   UNL     1      91.118  93.240  74.590  1.00  0.00     0.056 A 
ATOM     12  C   UNL     1      90.137  92.862  77.194  1.00  0.00     0.050 A 
ATOM     13  C   UNL     1      91.050  93.902  76.929  1.00  0.00     0.009 A 
BRANCH   9  14
ATOM     14  O   UNL     1      89.812  91.362  73.838  1.00  0.00    -0.493 OA
ATOM     15  C   UNL     1      90.680  90.237  73.608  1.00  0.00     0.278 C 
ENDBRANCH   9  14
BRANCH  10  16
ATOM     16  O   UNL     1      88.875  90.979  76.448  1.00  0.00    -0.504 OA
ATOM     17  H   UNL     1      88.063  91.342  76.809  1.00  0.00     0.293 HD
ENDBRANCH  10  16
ENDBRANCH   7   8
ENDBRANCH   4   7
ENDBRANCH   2   3
ENDBRANCH   1   2
BRANCH   1  18
ATOM     18  C   UNL     1      95.532  98.047  78.076  1.00  0.00     0.001 C 
BRANCH  18  19
ATOM     19  C   UNL     1      96.245  98.957  79.116  1.00  0.00     0.000 C 
BRANCH  19  20
ATOM     20  C   UNL     1      96.031  98.443  80.567  1.00  0.00     0.000 C 
BRANCH  20  21
ATOM     21  C   UNL     1      97.337  98.325  81.400  1.00  0.00     0.003 C 
BRANCH  21  22
ATOM     22  C   UNL     1      97.835  96.859  81.625  1.00  0.00    -0.017 C 
ATOM     23  C   UNL     1      99.021  96.535  80.673  1.00  0.00     0.007 C 
ATOM     24  C   UNL     1      96.713  95.789  81.481  1.00  0.00     0.007 C 
ENDBRANCH  21  22
ENDBRANCH  20  21
ENDBRANCH  19  20
ENDBRANCH  18  19
ENDBRANCH   1  18
TORSDOF 11
ENDMDL
MODEL 10
REMARK VINA RESULT:    -5.479     21.219     23.379
REMARK INTER + INTRA:          -9.443
REMARK INTER:                  -8.357
REMARK INTRA:                  -1.087
REMARK UNBOUND:                -0.601
REMARK SMILES COc1cc(CNC(=O)CCCCCCC(C)C)ccc1O
REMARK SMILES IDX 11 1 10 2 8 3 7 4 9 6 6 7 5 8 3 9 21 10 4 11 20 12 19 13
REMARK SMILES IDX 2 14 1 15 22 16 12 18 13 19 14 20 15 21 16 22 17 23 18 24
REMARK H PARENT 7 5 22 17
REMARK Flexibility Score: inf
ROOT
ATOM      1  C   UNL     1      74.972  90.031  68.523  1.00  0.00     0.010 C 
ENDROOT
BRANCH   1   2
ATOM      2  C   UNL     1      74.627  89.973  70.037  1.00  0.00     0.100 C 
BRANCH   2   3
ATOM      3  C   UNL     1      73.190  89.738  70.301  1.00  0.00     0.220 C 
ATOM      4  N   UNL     1      72.446  88.985  69.441  1.00  0.00    -0.352 N 
ATOM      5  H   UNL     1      72.944  88.662  68.625  1.00  0.00     0.163 HD
ATOM      6  O   UNL     1      72.682  90.224  71.342  1.00  0.00    -0.275 OA
BRANCH   4   7
ATOM      7  C   UNL     1      71.067  88.643  69.623  1.00  0.00     0.151 C 
BRANCH   7   8
ATOM      8  C   UNL     1      70.799  87.187  69.469  1.00  0.00    -0.025 A 
ATOM      9  C   UNL     1      69.431  85.208  69.982  1.00  0.00     0.160 A 
ATOM     10  C   UNL     1      70.254  84.420  69.147  1.00  0.00     0.157 A 
ATOM     11  C   UNL     1      69.721  86.578  70.151  1.00  0.00     0.056 A 
ATOM     12  C   UNL     1      71.354  85.006  68.494  1.00  0.00     0.050 A 
ATOM     13  C   UNL     1      71.619  86.381  68.644  1.00  0.00     0.009 A 
BRANCH   9  14
ATOM     14  O   UNL     1      68.383  84.640  70.653  1.00  0.00    -0.493 OA
ATOM     15  C   UNL     1      67.099  85.171  70.279  1.00  0.00     0.278 C 
ENDBRANCH   9  14
BRANCH  10  16
ATOM     16  O   UNL     1      70.000  83.098  68.967  1.00  0.00    -0.504 OA
ATOM     17  H   UNL     1      69.261  82.836  69.521  1.00  0.00     0.293 HD
ENDBRANCH  10  16
ENDBRANCH   7   8
ENDBRANCH   4   7
ENDBRANCH   2   3
ENDBRANCH   1   2
BRANCH   1  18
ATOM     18  C   UNL     1      75.495  88.668  67.988  1.00  0.00     0.001 C 
BRANCH  18  19
ATOM     19  C   UNL     1      77.038  88.509  68.082  1.00  0.00     0.000 C 
BRANCH  19  20
ATOM     20  C   UNL     1      77.465  87.015  68.007  1.00  0.00     0.000 C 
BRANCH  20  21
ATOM     21  C   UNL     1      77.041  86.169  69.239  1.00  0.00     0.003 C 
BRANCH  21  22
ATOM     22  C   UNL     1      76.320  84.826  68.889  1.00  0.00    -0.017 C 
ATOM     23  C   UNL     1      75.106  85.089  67.954  1.00  0.00     0.007 C 
ATOM     24  C   UNL     1      75.878  84.009  70.139  1.00  0.00     0.007 C 
ENDBRANCH  21  22
ENDBRANCH  20  21
ENDBRANCH  19  20
ENDBRANCH  18  19
ENDBRANCH   1  18
TORSDOF 11
ENDMDL
