MODEL 1
REMARK VINA RESULT:    -7.733      0.000      0.000
REMARK INTER + INTRA:         -13.788
REMARK INTER:                 -13.157
REMARK INTRA:                  -0.631
REMARK UNBOUND:                -0.631
REMARK SMILES C=C(C)[C@]12C[C@@H](C)[C@@]34O[C@](Cc5ccccc5)(O[C@@H]1[C@@H]3C=C(COC(=O)Cc1ccc(O)cc1)C[C@]1(O)C(=O)C(C)=C[C@@H]41)O2
REMARK SMILES IDX 23 1 22 2 21 3 20 4 9 5 8 6 10 7 6 8 18 10 44 11 19 12 5 13
REMARK SMILES IDX 7 14 4 15 11 16 12 17 13 18 17 19 14 20 16 21 15 22 2 23
REMARK SMILES IDX 3 24 1 25 35 26 36 27 43 28 38 29 42 30 39 32 40 33 41 34
REMARK SMILES IDX 37 35 24 37 25 38 26 39 27 40 28 41 29 42 34 43 30 44 33 45
REMARK SMILES IDX 31 46 32 47
REMARK H PARENT 37 36 32 48
REMARK Flexibility Score: 90.00
ROOT
ATOM      1  C   UNL     1      92.747  78.334  84.314  1.00  0.00     0.264 C 
ENDROOT
BRANCH   1   2
ATOM      2  C   UNL     1      93.899  79.143  84.865  1.00  0.00    -0.033 C 
ATOM      3  C   UNL     1      93.831  80.490  84.837  1.00  0.00    -0.015 C 
BRANCH   3   4
ATOM      4  C   UNL     1      94.872  81.518  85.252  1.00  0.00     0.078 C 
ATOM      5  O   UNL     1      94.444  82.058  87.627  1.00  0.00    -0.319 OA
ATOM      6  C   UNL     1      95.429  81.467  86.722  1.00  0.00     0.095 CG0
ATOM      7  C   UNL     1      93.817  83.264  87.151  1.00  0.00     0.289 C 
ATOM      8  C   UNL     1      96.759  82.328  86.762  1.00  0.00     0.023 C 
ATOM      9  G   UNL     1      95.570  79.996  87.211  1.00  0.00     0.000 G0
ATOM     10  O   UNL     1      93.170  83.052  85.900  1.00  0.00    -0.320 OA
ATOM     11  O   UNL     1      94.758  84.312  86.925  1.00  0.00    -0.313 OA
ATOM     12  C   UNL     1      94.315  82.946  85.039  1.00  0.00     0.170 C 
ATOM     13  C   UNL     1      96.689  83.533  85.774  1.00  0.00     0.049 C 
ATOM     14  C   UNL     1      97.179  82.832  88.153  1.00  0.00     0.011 C 
ATOM     15  C   UNL     1      95.257  84.040  85.599  1.00  0.00     0.122 C 
BRANCH   7  16
ATOM     16  C   UNL     1      92.803  83.712  88.185  1.00  0.00     0.135 C 
BRANCH  16  17
ATOM     17  C   UNL     1      93.349  84.793  89.084  1.00  0.00    -0.040 A 
ATOM     18  C   UNL     1      93.142  86.134  88.768  1.00  0.00     0.004 A 
ATOM     19  C   UNL     1      94.062  84.448  90.232  1.00  0.00     0.004 A 
ATOM     20  C   UNL     1      93.647  87.134  89.600  1.00  0.00     0.000 A 
ATOM     21  C   UNL     1      94.567  85.448  91.065  1.00  0.00     0.000 A 
ATOM     22  C   UNL     1      94.360  86.790  90.748  1.00  0.00     0.000 A 
ENDBRANCH  16  17
ENDBRANCH   7  16
BRANCH  15  23
ATOM     23  C   UNL     1      95.189  85.302  84.803  1.00  0.00    -0.046 C 
ATOM     24  C   UNL     1      94.302  86.382  85.350  1.00  0.00     0.042 C 
ATOM     25  C   UNL     1      95.879  85.461  83.665  1.00  0.00     0.010 C 
ENDBRANCH  15  23
ENDBRANCH   3   4
BRANCH   2  26
ATOM     26  C   UNL     1      95.026  78.283  85.406  1.00  0.00     0.078 C 
BRANCH  26  27
ATOM     27  C   UNL     1      96.143  78.994  86.167  1.00  0.00     0.140 C 
ATOM     28  C   UNL     1      95.597  79.992  87.208  1.00  0.00     0.086 CG0
ATOM     29  C   UNL     1      96.958  78.046  87.021  1.00  0.00     0.190 C 
ATOM     30  C   UNL     1      96.415  79.701  88.435  1.00  0.00    -0.010 C 
ATOM     31  G   UNL     1      95.437  81.465  86.729  1.00  0.00     0.000 G0
ATOM     32  O   UNL     1      97.430  76.983  86.646  1.00  0.00    -0.291 OA
ATOM     33  C   UNL     1      97.168  78.599  88.373  1.00  0.00    -0.008 C 
ATOM     34  C   UNL     1      98.022  77.970  89.401  1.00  0.00     0.048 C 
BRANCH  27  35
ATOM     35  O   UNL     1      97.097  79.556  85.281  1.00  0.00    -0.381 OA
ATOM     36  H   UNL     1      97.646  78.836  84.925  1.00  0.00     0.212 HD
ENDBRANCH  27  35
ENDBRANCH  26  27
ENDBRANCH   2  26
ENDBRANCH   1   2
BRANCH   1  37
ATOM     37  O   UNL     1      91.582  78.613  85.062  1.00  0.00    -0.461 OA
BRANCH  37  38
ATOM     38  C   UNL     1      90.422  78.777  84.340  1.00  0.00     0.310 C 
ATOM     39  O   UNL     1      89.524  77.951  84.257  1.00  0.00    -0.252 OA
BRANCH  38  40
ATOM     40  C   UNL     1      90.432  80.131  83.671  1.00  0.00     0.158 C 
BRANCH  40  41
ATOM     41  C   UNL     1      89.185  80.931  83.945  1.00  0.00    -0.037 A 
ATOM     42  C   UNL     1      89.235  82.029  84.804  1.00  0.00     0.008 A 
ATOM     43  C   UNL     1      87.981  80.574  83.339  1.00  0.00     0.008 A 
ATOM     44  C   UNL     1      88.080  82.769  85.058  1.00  0.00     0.046 A 
ATOM     45  C   UNL     1      86.825  81.314  83.592  1.00  0.00     0.046 A 
ATOM     46  C   UNL     1      86.875  82.411  84.451  1.00  0.00     0.115 A 
BRANCH  46  47
ATOM     47  O   UNL     1      85.748  83.133  84.700  1.00  0.00    -0.508 OA
ATOM     48  H   UNL     1      85.613  83.186  85.662  1.00  0.00     0.293 HD
ENDBRANCH  46  47
ENDBRANCH  40  41
ENDBRANCH  38  40
ENDBRANCH  37  38
ENDBRANCH   1  37
TORSDOF 10
ENDMDL
MODEL 2
REMARK VINA RESULT:    -7.504      3.643      6.421
REMARK INTER + INTRA:         -13.399
REMARK INTER:                 -13.058
REMARK INTRA:                  -0.341
REMARK UNBOUND:                -0.631
REMARK SMILES C=C(C)[C@]12C[C@@H](C)[C@@]34O[C@](Cc5ccccc5)(O[C@@H]1[C@@H]3C=C(COC(=O)Cc1ccc(O)cc1)C[C@]1(O)C(=O)C(C)=C[C@@H]41)O2
REMARK SMILES IDX 23 1 22 2 21 3 20 4 9 5 8 6 10 7 6 8 18 10 44 11 19 12 5 13
REMARK SMILES IDX 7 14 4 15 11 16 12 17 13 18 17 19 14 20 16 21 15 22 2 23
REMARK SMILES IDX 3 24 1 25 35 26 36 27 43 28 38 29 42 30 39 32 40 33 41 34
REMARK SMILES IDX 37 35 24 37 25 38 26 39 27 40 28 41 29 42 34 43 30 44 33 45
REMARK SMILES IDX 31 46 32 47
REMARK H PARENT 37 36 32 48
REMARK Flexibility Score: 90.00
ROOT
ATOM      1  C   UNL     1      93.014  82.150  85.500  1.00  0.00     0.264 C 
ENDROOT
BRANCH   1   2
ATOM      2  C   UNL     1      94.398  81.544  85.463  1.00  0.00    -0.033 C 
ATOM      3  C   UNL     1      94.895  81.106  84.287  1.00  0.00    -0.015 C 
BRANCH   3   4
ATOM      4  C   UNL     1      96.209  80.400  83.998  1.00  0.00     0.078 C 
ATOM      5  O   UNL     1      97.852  82.149  83.400  1.00  0.00    -0.319 OA
ATOM      6  C   UNL     1      97.550  81.121  84.394  1.00  0.00     0.095 CG0
ATOM      7  C   UNL     1      97.638  81.761  82.029  1.00  0.00     0.289 C 
ATOM      8  C   UNL     1      98.701  80.032  84.387  1.00  0.00     0.023 C 
ATOM      9  G   UNL     1      97.382  81.908  85.727  1.00  0.00     0.000 G0
ATOM     10  O   UNL     1      96.293  81.344  81.813  1.00  0.00    -0.320 OA
ATOM     11  O   UNL     1      98.450  80.655  81.646  1.00  0.00    -0.313 OA
ATOM     12  C   UNL     1      96.311  80.076  82.487  1.00  0.00     0.170 C 
ATOM     13  C   UNL     1      98.451  78.943  83.299  1.00  0.00     0.049 C 
ATOM     14  C   UNL     1     100.130  80.582  84.240  1.00  0.00     0.011 C 
ATOM     15  C   UNL     1      97.697  79.509  82.095  1.00  0.00     0.122 C 
BRANCH   7  16
ATOM     16  C   UNL     1      97.955  82.951  81.144  1.00  0.00     0.135 C 
BRANCH  16  17
ATOM     17  C   UNL     1      98.265  82.536  79.728  1.00  0.00    -0.040 A 
ATOM     18  C   UNL     1      99.553  82.124  79.387  1.00  0.00     0.004 A 
ATOM     19  C   UNL     1      97.262  82.564  78.759  1.00  0.00     0.004 A 
ATOM     20  C   UNL     1      99.839  81.740  78.076  1.00  0.00     0.000 A 
ATOM     21  C   UNL     1      97.548  82.180  77.448  1.00  0.00     0.000 A 
ATOM     22  C   UNL     1      98.836  81.768  77.108  1.00  0.00     0.000 A 
ENDBRANCH  16  17
ENDBRANCH   7  16
BRANCH  15  23
ATOM     23  C   UNL     1      97.606  78.534  80.966  1.00  0.00    -0.046 C 
ATOM     24  C   UNL     1      98.118  79.010  79.638  1.00  0.00     0.042 C 
ATOM     25  C   UNL     1      97.096  77.305  81.129  1.00  0.00     0.010 C 
ENDBRANCH  15  23
ENDBRANCH   3   4
BRANCH   2  26
ATOM     26  C   UNL     1      95.073  81.518  86.821  1.00  0.00     0.078 C 
BRANCH  26  27
ATOM     27  C   UNL     1      96.560  81.170  86.854  1.00  0.00     0.140 C 
ATOM     28  C   UNL     1      97.355  81.898  85.750  1.00  0.00     0.086 CG0
ATOM     29  C   UNL     1      97.241  81.655  88.117  1.00  0.00     0.190 C 
ATOM     30  C   UNL     1      98.564  82.420  86.474  1.00  0.00    -0.010 C 
ATOM     31  G   UNL     1      97.542  81.119  84.415  1.00  0.00     0.000 G0
ATOM     32  O   UNL     1      96.830  81.482  89.254  1.00  0.00    -0.291 OA
ATOM     33  C   UNL     1      98.518  82.325  87.806  1.00  0.00    -0.008 C 
ATOM     34  C   UNL     1      99.474  82.801  88.828  1.00  0.00     0.048 C 
BRANCH  27  35
ATOM     35  O   UNL     1      96.764  79.768  86.877  1.00  0.00    -0.381 OA
ATOM     36  H   UNL     1      96.357  79.412  87.686  1.00  0.00     0.212 HD
ENDBRANCH  27  35
ENDBRANCH  26  27
ENDBRANCH   2  26
ENDBRANCH   1   2
BRANCH   1  37
ATOM     37  O   UNL     1      92.339  81.846  84.297  1.00  0.00    -0.461 OA
BRANCH  37  38
ATOM     38  C   UNL     1      91.329  80.916  84.386  1.00  0.00     0.310 C 
ATOM     39  O   UNL     1      91.296  79.855  83.779  1.00  0.00    -0.252 OA
BRANCH  38  40
ATOM     40  C   UNL     1      90.273  81.409  85.345  1.00  0.00     0.158 C 
BRANCH  40  41
ATOM     41  C   UNL     1      88.986  81.788  84.659  1.00  0.00    -0.037 A 
ATOM     42  C   UNL     1      88.272  80.830  83.938  1.00  0.00     0.008 A 
ATOM     43  C   UNL     1      88.508  83.095  84.745  1.00  0.00     0.008 A 
ATOM     44  C   UNL     1      87.081  81.180  83.302  1.00  0.00     0.046 A 
ATOM     45  C   UNL     1      87.316  83.445  84.109  1.00  0.00     0.046 A 
ATOM     46  C   UNL     1      86.603  82.489  83.388  1.00  0.00     0.115 A 
BRANCH  46  47
ATOM     47  O   UNL     1      85.441  82.830  82.767  1.00  0.00    -0.508 OA
ATOM     48  H   UNL     1      85.644  83.419  82.019  1.00  0.00     0.293 HD
ENDBRANCH  46  47
ENDBRANCH  40  41
ENDBRANCH  38  40
ENDBRANCH  37  38
ENDBRANCH   1  37
TORSDOF 10
ENDMDL
MODEL 3
REMARK VINA RESULT:    -7.192      2.534      6.022
REMARK INTER + INTRA:         -12.869
REMARK INTER:                 -12.006
REMARK INTRA:                  -0.863
REMARK UNBOUND:                -0.631
REMARK SMILES C=C(C)[C@]12C[C@@H](C)[C@@]34O[C@](Cc5ccccc5)(O[C@@H]1[C@@H]3C=C(COC(=O)Cc1ccc(O)cc1)C[C@]1(O)C(=O)C(C)=C[C@@H]41)O2
REMARK SMILES IDX 23 1 22 2 21 3 20 4 9 5 8 6 10 7 6 8 18 10 44 11 19 12 5 13
REMARK SMILES IDX 7 14 4 15 11 16 12 17 13 18 17 19 14 20 16 21 15 22 2 23
REMARK SMILES IDX 3 24 1 25 35 26 36 27 43 28 38 29 42 30 39 32 40 33 41 34
REMARK SMILES IDX 37 35 24 37 25 38 26 39 27 40 28 41 29 42 34 43 30 44 33 45
REMARK SMILES IDX 31 46 32 47
REMARK H PARENT 37 36 32 48
REMARK Flexibility Score: 90.00
ROOT
ATOM      1  C   UNL     1      93.590  78.858  84.837  1.00  0.00     0.264 C 
ENDROOT
BRANCH   1   2
ATOM      2  C   UNL     1      94.440  79.928  85.484  1.00  0.00    -0.033 C 
ATOM      3  C   UNL     1      95.726  79.655  85.786  1.00  0.00    -0.015 C 
BRANCH   3   4
ATOM      4  C   UNL     1      96.754  80.518  86.499  1.00  0.00     0.078 C 
ATOM      5  O   UNL     1      98.024  81.718  84.750  1.00  0.00    -0.319 OA
ATOM      6  C   UNL     1      97.117  81.917  85.878  1.00  0.00     0.095 CG0
ATOM      7  C   UNL     1      99.069  80.749  84.964  1.00  0.00     0.289 C 
ATOM      8  C   UNL     1      97.851  82.764  86.998  1.00  0.00     0.023 C 
ATOM      9  G   UNL     1      95.859  82.586  85.250  1.00  0.00     0.000 G0
ATOM     10  O   UNL     1      98.530  79.475  85.304  1.00  0.00    -0.320 OA
ATOM     11  O   UNL     1      99.927  81.106  86.045  1.00  0.00    -0.313 OA
ATOM     12  C   UNL     1      98.085  79.740  86.644  1.00  0.00     0.170 C 
ATOM     13  C   UNL     1      98.697  81.854  87.940  1.00  0.00     0.049 C 
ATOM     14  C   UNL     1      98.725  83.921  86.485  1.00  0.00     0.011 C 
ATOM     15  C   UNL     1      99.227  80.620  87.209  1.00  0.00     0.122 C 
BRANCH   7  16
ATOM     16  C   UNL     1      99.882  80.639  83.689  1.00  0.00     0.135 C 
BRANCH  16  17
ATOM     17  C   UNL     1      99.026  80.786  82.456  1.00  0.00    -0.040 A 
ATOM     18  C   UNL     1      99.094  81.952  81.695  1.00  0.00     0.004 A 
ATOM     19  C   UNL     1      98.166  79.755  82.079  1.00  0.00     0.004 A 
ATOM     20  C   UNL     1      98.302  82.087  80.554  1.00  0.00     0.000 A 
ATOM     21  C   UNL     1      97.374  79.890  80.938  1.00  0.00     0.000 A 
ATOM     22  C   UNL     1      97.442  81.056  80.176  1.00  0.00     0.000 A 
ENDBRANCH  16  17
ENDBRANCH   7  16
BRANCH  15  23
ATOM     23  C   UNL     1     100.187  79.829  88.037  1.00  0.00    -0.046 C 
ATOM     24  C   UNL     1     101.639  79.984  87.696  1.00  0.00     0.042 C 
ATOM     25  C   UNL     1      99.774  79.028  89.030  1.00  0.00     0.010 C 
ENDBRANCH  15  23
ENDBRANCH   3   4
BRANCH   2  26
ATOM     26  C   UNL     1      93.691  81.228  85.708  1.00  0.00     0.078 C 
BRANCH  26  27
ATOM     27  C   UNL     1      94.520  82.453  86.090  1.00  0.00     0.140 C 
ATOM     28  C   UNL     1      95.818  82.561  85.263  1.00  0.00     0.086 CG0
ATOM     29  C   UNL     1      93.817  83.754  85.763  1.00  0.00     0.190 C 
ATOM     30  C   UNL     1      95.851  84.007  84.851  1.00  0.00    -0.010 C 
ATOM     31  G   UNL     1      97.087  81.918  85.892  1.00  0.00     0.000 G0
ATOM     32  O   UNL     1      92.661  84.026  86.052  1.00  0.00    -0.291 OA
ATOM     33  C   UNL     1      94.732  84.697  85.092  1.00  0.00    -0.008 C 
ATOM     34  C   UNL     1      94.383  86.092  84.753  1.00  0.00     0.048 C 
BRANCH  27  35
ATOM     35  O   UNL     1      94.726  82.523  87.491  1.00  0.00    -0.381 OA
ATOM     36  H   UNL     1      93.898  82.815  87.909  1.00  0.00     0.212 HD
ENDBRANCH  27  35
ENDBRANCH  26  27
ENDBRANCH   2  26
ENDBRANCH   1   2
BRANCH   1  37
ATOM     37  O   UNL     1      92.263  78.971  85.303  1.00  0.00    -0.461 OA
BRANCH  37  38
ATOM     38  C   UNL     1      91.272  78.737  84.378  1.00  0.00     0.310 C 
ATOM     39  O   UNL     1      90.683  77.675  84.232  1.00  0.00    -0.252 OA
BRANCH  38  40
ATOM     40  C   UNL     1      91.026  79.992  83.574  1.00  0.00     0.158 C 
BRANCH  40  41
ATOM     41  C   UNL     1      89.755  80.700  83.965  1.00  0.00    -0.037 A 
ATOM     42  C   UNL     1      89.815  81.896  84.681  1.00  0.00     0.008 A 
ATOM     43  C   UNL     1      88.518  80.161  83.612  1.00  0.00     0.008 A 
ATOM     44  C   UNL     1      88.638  82.552  85.044  1.00  0.00     0.046 A 
ATOM     45  C   UNL     1      87.341  80.817  83.975  1.00  0.00     0.046 A 
ATOM     46  C   UNL     1      87.401  82.012  84.691  1.00  0.00     0.115 A 
BRANCH  46  47
ATOM     47  O   UNL     1      86.253  82.651  85.045  1.00  0.00    -0.508 OA
ATOM     48  H   UNL     1      85.950  82.304  85.902  1.00  0.00     0.293 HD
ENDBRANCH  46  47
ENDBRANCH  40  41
ENDBRANCH  38  40
ENDBRANCH  37  38
ENDBRANCH   1  37
TORSDOF 10
ENDMDL
MODEL 4
REMARK VINA RESULT:    -7.163      3.265      6.082
REMARK INTER + INTRA:         -12.819
REMARK INTER:                 -12.440
REMARK INTRA:                  -0.379
REMARK UNBOUND:                -0.631
REMARK SMILES C=C(C)[C@]12C[C@@H](C)[C@@]34O[C@](Cc5ccccc5)(O[C@@H]1[C@@H]3C=C(COC(=O)Cc1ccc(O)cc1)C[C@]1(O)C(=O)C(C)=C[C@@H]41)O2
REMARK SMILES IDX 23 1 22 2 21 3 20 4 9 5 8 6 10 7 6 8 18 10 44 11 19 12 5 13
REMARK SMILES IDX 7 14 4 15 11 16 12 17 13 18 17 19 14 20 16 21 15 22 2 23
REMARK SMILES IDX 3 24 1 25 35 26 36 27 43 28 38 29 42 30 39 32 40 33 41 34
REMARK SMILES IDX 37 35 24 37 25 38 26 39 27 40 28 41 29 42 34 43 30 44 33 45
REMARK SMILES IDX 31 46 32 47
REMARK H PARENT 37 36 32 48
REMARK Flexibility Score: 90.00
ROOT
ATOM      1  C   UNL     1      93.129  77.797  84.694  1.00  0.00     0.264 C 
ENDROOT
BRANCH   1   2
ATOM      2  C   UNL     1      94.117  78.835  85.173  1.00  0.00    -0.033 C 
ATOM      3  C   UNL     1      95.313  78.942  84.557  1.00  0.00    -0.015 C 
BRANCH   3   4
ATOM      4  C   UNL     1      96.494  79.839  84.891  1.00  0.00     0.078 C 
ATOM      5  O   UNL     1      96.217  81.913  83.572  1.00  0.00    -0.319 OA
ATOM      6  C   UNL     1      96.262  81.394  84.938  1.00  0.00     0.095 CG0
ATOM      7  C   UNL     1      97.209  81.375  82.677  1.00  0.00     0.289 C 
ATOM      8  C   UNL     1      97.490  82.039  85.703  1.00  0.00     0.023 C 
ATOM      9  G   UNL     1      94.859  81.727  85.526  1.00  0.00     0.000 G0
ATOM     10  O   UNL     1      97.116  79.956  82.595  1.00  0.00    -0.320 OA
ATOM     11  O   UNL     1      98.538  81.649  83.112  1.00  0.00    -0.313 OA
ATOM     12  C   UNL     1      97.642  79.594  83.881  1.00  0.00     0.170 C 
ATOM     13  C   UNL     1      98.807  81.247  85.442  1.00  0.00     0.049 C 
ATOM     14  C   UNL     1      97.731  83.533  85.427  1.00  0.00     0.011 C 
ATOM     15  C   UNL     1      98.810  80.595  84.058  1.00  0.00     0.122 C 
BRANCH   7  16
ATOM     16  C   UNL     1      96.991  81.984  81.306  1.00  0.00     0.135 C 
BRANCH  16  17
ATOM     17  C   UNL     1      97.953  81.435  80.283  1.00  0.00    -0.040 A 
ATOM     18  C   UNL     1      98.942  82.256  79.744  1.00  0.00     0.004 A 
ATOM     19  C   UNL     1      97.853  80.104  79.877  1.00  0.00     0.004 A 
ATOM     20  C   UNL     1      99.833  81.747  78.797  1.00  0.00     0.000 A 
ATOM     21  C   UNL     1      98.743  79.596  78.930  1.00  0.00     0.000 A 
ATOM     22  C   UNL     1      99.732  80.417  78.391  1.00  0.00     0.000 A 
ENDBRANCH  16  17
ENDBRANCH   7  16
BRANCH  15  23
ATOM     23  C   UNL     1     100.130  79.984  83.715  1.00  0.00    -0.046 C 
ATOM     24  C   UNL     1     101.204  80.099  84.756  1.00  0.00     0.042 C 
ATOM     25  C   UNL     1     100.342  79.368  82.543  1.00  0.00     0.010 C 
ENDBRANCH  15  23
ENDBRANCH   3   4
BRANCH   2  26
ATOM     26  C   UNL     1      93.596  79.661  86.335  1.00  0.00     0.078 C 
BRANCH  26  27
ATOM     27  C   UNL     1      94.423  80.875  86.754  1.00  0.00     0.140 C 
ATOM     28  C   UNL     1      94.866  81.725  85.546  1.00  0.00     0.086 CG0
ATOM     29  C   UNL     1      93.624  81.866  87.574  1.00  0.00     0.190 C 
ATOM     30  C   UNL     1      94.564  83.133  85.979  1.00  0.00    -0.010 C 
ATOM     31  G   UNL     1      96.265  81.393  84.950  1.00  0.00     0.000 G0
ATOM     32  O   UNL     1      92.924  81.588  88.536  1.00  0.00    -0.291 OA
ATOM     33  C   UNL     1      93.844  83.245  87.099  1.00  0.00    -0.008 C 
ATOM     34  C   UNL     1      93.301  84.447  87.764  1.00  0.00     0.048 C 
BRANCH  27  35
ATOM     35  O   UNL     1      95.488  80.505  87.615  1.00  0.00    -0.381 OA
ATOM     36  H   UNL     1      95.765  79.601  87.388  1.00  0.00     0.212 HD
ENDBRANCH  27  35
ENDBRANCH  26  27
ENDBRANCH   2  26
ENDBRANCH   1   2
BRANCH   1  37
ATOM     37  O   UNL     1      92.309  78.360  83.693  1.00  0.00    -0.461 OA
BRANCH  37  38
ATOM     38  C   UNL     1      91.098  78.862  84.112  1.00  0.00     0.310 C 
ATOM     39  O   UNL     1      90.246  78.227  84.717  1.00  0.00    -0.252 OA
BRANCH  38  40
ATOM     40  C   UNL     1      90.987  80.313  83.708  1.00  0.00     0.158 C 
BRANCH  40  41
ATOM     41  C   UNL     1      89.629  80.900  83.992  1.00  0.00    -0.037 A 
ATOM     42  C   UNL     1      89.500  81.949  84.902  1.00  0.00     0.008 A 
ATOM     43  C   UNL     1      88.501  80.395  83.346  1.00  0.00     0.008 A 
ATOM     44  C   UNL     1      88.242  82.493  85.166  1.00  0.00     0.046 A 
ATOM     45  C   UNL     1      87.244  80.939  83.609  1.00  0.00     0.046 A 
ATOM     46  C   UNL     1      87.114  81.987  84.519  1.00  0.00     0.115 A 
BRANCH  46  47
ATOM     47  O   UNL     1      85.888  82.517  84.777  1.00  0.00    -0.508 OA
ATOM     48  H   UNL     1      85.565  82.971  83.979  1.00  0.00     0.293 HD
ENDBRANCH  46  47
ENDBRANCH  40  41
ENDBRANCH  38  40
ENDBRANCH  37  38
ENDBRANCH   1  37
TORSDOF 10
ENDMDL
MODEL 5
REMARK VINA RESULT:    -6.951      4.237      6.777
REMARK INTER + INTRA:         -12.458
REMARK INTER:                 -11.568
REMARK INTRA:                  -0.890
REMARK UNBOUND:                -0.631
REMARK SMILES C=C(C)[C@]12C[C@@H](C)[C@@]34O[C@](Cc5ccccc5)(O[C@@H]1[C@@H]3C=C(COC(=O)Cc1ccc(O)cc1)C[C@]1(O)C(=O)C(C)=C[C@@H]41)O2
REMARK SMILES IDX 23 1 22 2 21 3 20 4 9 5 8 6 10 7 6 8 18 10 44 11 19 12 5 13
REMARK SMILES IDX 7 14 4 15 11 16 12 17 13 18 17 19 14 20 16 21 15 22 2 23
REMARK SMILES IDX 3 24 1 25 35 26 36 27 43 28 38 29 42 30 39 32 40 33 41 34
REMARK SMILES IDX 37 35 24 37 25 38 26 39 27 40 28 41 29 42 34 43 30 44 33 45
REMARK SMILES IDX 31 46 32 47
REMARK H PARENT 37 36 32 48
REMARK Flexibility Score: 90.00
ROOT
ATOM      1  C   UNL     1      97.795  78.166  81.180  1.00  0.00     0.264 C 
ENDROOT
BRANCH   1   2
ATOM      2  C   UNL     1      98.122  79.102  82.321  1.00  0.00    -0.033 C 
ATOM      3  C   UNL     1      97.229  80.050  82.672  1.00  0.00    -0.015 C 
BRANCH   3   4
ATOM      4  C   UNL     1      97.347  81.147  83.718  1.00  0.00     0.078 C 
ATOM      5  O   UNL     1      96.408  80.243  85.820  1.00  0.00    -0.319 OA
ATOM      6  C   UNL     1      97.641  80.733  85.207  1.00  0.00     0.095 CG0
ATOM      7  C   UNL     1      95.225  81.009  85.521  1.00  0.00     0.289 C 
ATOM      8  C   UNL     1      98.129  82.029  85.977  1.00  0.00     0.023 C 
ATOM      9  G   UNL     1      98.611  79.517  85.261  1.00  0.00     0.000 G0
ATOM     10  O   UNL     1      94.999  81.087  84.117  1.00  0.00    -0.320 OA
ATOM     11  O   UNL     1      95.326  82.359  85.970  1.00  0.00    -0.313 OA
ATOM     12  C   UNL     1      96.049  81.992  83.743  1.00  0.00     0.170 C 
ATOM     13  C   UNL     1      97.438  83.315  85.430  1.00  0.00     0.049 C 
ATOM     14  C   UNL     1      97.982  81.983  87.508  1.00  0.00     0.011 C 
ATOM     15  C   UNL     1      96.033  83.020  84.900  1.00  0.00     0.122 C 
BRANCH   7  16
ATOM     16  C   UNL     1      94.044  80.341  86.195  1.00  0.00     0.135 C 
BRANCH  16  17
ATOM     17  C   UNL     1      92.782  80.463  85.378  1.00  0.00    -0.040 A 
ATOM     18  C   UNL     1      92.232  79.334  84.771  1.00  0.00     0.004 A 
ATOM     19  C   UNL     1      92.166  81.705  85.230  1.00  0.00     0.004 A 
ATOM     20  C   UNL     1      91.064  79.447  84.015  1.00  0.00     0.000 A 
ATOM     21  C   UNL     1      90.998  81.818  84.474  1.00  0.00     0.000 A 
ATOM     22  C   UNL     1      90.448  80.689  83.867  1.00  0.00     0.000 A 
ENDBRANCH  16  17
ENDBRANCH   7  16
BRANCH  15  23
ATOM     23  C   UNL     1      95.284  84.262  84.539  1.00  0.00    -0.046 C 
ATOM     24  C   UNL     1      95.749  84.980  83.306  1.00  0.00     0.042 C 
ATOM     25  C   UNL     1      94.256  84.709  85.274  1.00  0.00     0.010 C 
ENDBRANCH  15  23
ENDBRANCH   3   4
BRANCH   2  26
ATOM     26  C   UNL     1      99.474  78.825  82.950  1.00  0.00     0.078 C 
BRANCH  26  27
ATOM     27  C   UNL     1      99.803  79.557  84.249  1.00  0.00     0.140 C 
ATOM     28  C   UNL     1      98.631  79.523  85.252  1.00  0.00     0.086 CG0
ATOM     29  C   UNL     1     100.916  78.887  85.027  1.00  0.00     0.190 C 
ATOM     30  C   UNL     1      99.293  79.159  86.552  1.00  0.00    -0.010 C 
ATOM     31  G   UNL     1      97.653  80.732  85.205  1.00  0.00     0.000 G0
ATOM     32  O   UNL     1     101.988  78.529  84.563  1.00  0.00    -0.291 OA
ATOM     33  C   UNL     1     100.568  78.771  86.456  1.00  0.00    -0.008 C 
ATOM     34  C   UNL     1     101.491  78.272  87.496  1.00  0.00     0.048 C 
BRANCH  27  35
ATOM     35  O   UNL     1     100.303  80.860  83.998  1.00  0.00    -0.381 OA
ATOM     36  H   UNL     1     100.107  81.091  83.074  1.00  0.00     0.212 HD
ENDBRANCH  27  35
ENDBRANCH  26  27
ENDBRANCH   2  26
ENDBRANCH   1   2
BRANCH   1  37
ATOM     37  O   UNL     1      98.727  78.358  80.138  1.00  0.00    -0.461 OA
BRANCH  37  38
ATOM     38  C   UNL     1      98.368  79.257  79.160  1.00  0.00     0.310 C 
ATOM     39  O   UNL     1      97.634  79.009  78.213  1.00  0.00    -0.252 OA
BRANCH  38  40
ATOM     40  C   UNL     1      99.019  80.591  79.437  1.00  0.00     0.158 C 
BRANCH  40  41
ATOM     41  C   UNL     1      98.358  81.731  78.707  1.00  0.00    -0.037 A 
ATOM     42  C   UNL     1      97.301  82.420  79.302  1.00  0.00     0.008 A 
ATOM     43  C   UNL     1      98.801  82.096  77.437  1.00  0.00     0.008 A 
ATOM     44  C   UNL     1      96.688  83.475  78.625  1.00  0.00     0.046 A 
ATOM     45  C   UNL     1      98.189  83.152  76.760  1.00  0.00     0.046 A 
ATOM     46  C   UNL     1      97.132  83.841  77.354  1.00  0.00     0.115 A 
BRANCH  46  47
ATOM     47  O   UNL     1      96.534  84.870  76.694  1.00  0.00    -0.508 OA
ATOM     48  H   UNL     1      95.638  84.597  76.431  1.00  0.00     0.293 HD
ENDBRANCH  46  47
ENDBRANCH  40  41
ENDBRANCH  38  40
ENDBRANCH  37  38
ENDBRANCH   1  37
TORSDOF 10
ENDMDL
MODEL 6
REMARK VINA RESULT:    -6.912      4.012      8.149
REMARK INTER + INTRA:         -12.391
REMARK INTER:                 -12.923
REMARK INTRA:                   0.531
REMARK UNBOUND:                -0.631
REMARK SMILES C=C(C)[C@]12C[C@@H](C)[C@@]34O[C@](Cc5ccccc5)(O[C@@H]1[C@@H]3C=C(COC(=O)Cc1ccc(O)cc1)C[C@]1(O)C(=O)C(C)=C[C@@H]41)O2
REMARK SMILES IDX 23 1 22 2 21 3 20 4 9 5 8 6 10 7 6 8 18 10 44 11 19 12 5 13
REMARK SMILES IDX 7 14 4 15 11 16 12 17 13 18 17 19 14 20 16 21 15 22 2 23
REMARK SMILES IDX 3 24 1 25 35 26 36 27 43 28 38 29 42 30 39 32 40 33 41 34
REMARK SMILES IDX 37 35 24 37 25 38 26 39 27 40 28 41 29 42 34 43 30 44 33 45
REMARK SMILES IDX 31 46 32 47
REMARK H PARENT 37 36 32 48
REMARK Flexibility Score: 90.00
ROOT
ATOM      1  C   UNL     1      96.685  83.601  82.302  1.00  0.00     0.264 C 
ENDROOT
BRANCH   1   2
ATOM      2  C   UNL     1      95.632  83.137  83.283  1.00  0.00    -0.033 C 
ATOM      3  C   UNL     1      95.390  81.816  83.413  1.00  0.00    -0.015 C 
BRANCH   3   4
ATOM      4  C   UNL     1      94.346  81.106  84.261  1.00  0.00     0.078 C 
ATOM      5  O   UNL     1      95.409  80.597  86.435  1.00  0.00    -0.319 OA
ATOM      6  C   UNL     1      94.336  81.369  85.812  1.00  0.00     0.095 CG0
ATOM      7  C   UNL     1      95.559  79.249  85.949  1.00  0.00     0.289 C 
ATOM      8  C   UNL     1      92.940  80.874  86.373  1.00  0.00     0.023 C 
ATOM      9  G   UNL     1      94.694  82.852  86.124  1.00  0.00     0.000 G0
ATOM     10  O   UNL     1      95.784  79.228  84.543  1.00  0.00    -0.320 OA
ATOM     11  O   UNL     1      94.390  78.461  86.165  1.00  0.00    -0.313 OA
ATOM     12  C   UNL     1      94.471  79.574  84.073  1.00  0.00     0.170 C 
ATOM     13  C   UNL     1      92.409  79.641  85.578  1.00  0.00     0.049 C 
ATOM     14  C   UNL     1      92.905  80.562  87.879  1.00  0.00     0.011 C 
ATOM     15  C   UNL     1      93.552  78.782  85.036  1.00  0.00     0.122 C 
BRANCH   7  16
ATOM     16  C   UNL     1      96.734  78.614  86.666  1.00  0.00     0.135 C 
BRANCH  16  17
ATOM     17  C   UNL     1      98.056  79.067  86.098  1.00  0.00    -0.040 A 
ATOM     18  C   UNL     1      98.552  80.332  86.408  1.00  0.00     0.004 A 
ATOM     19  C   UNL     1      98.781  78.219  85.262  1.00  0.00     0.004 A 
ATOM     20  C   UNL     1      99.775  80.751  85.883  1.00  0.00     0.000 A 
ATOM     21  C   UNL     1     100.005  78.637  84.736  1.00  0.00     0.000 A 
ATOM     22  C   UNL     1     100.501  79.902  85.047  1.00  0.00     0.000 A 
ENDBRANCH  16  17
ENDBRANCH   7  16
BRANCH  15  23
ATOM     23  C   UNL     1      93.071  77.504  84.429  1.00  0.00    -0.046 C 
ATOM     24  C   UNL     1      91.584  77.347  84.309  1.00  0.00     0.042 C 
ATOM     25  C   UNL     1      93.920  76.552  84.015  1.00  0.00     0.010 C 
ENDBRANCH  15  23
ENDBRANCH   3   4
BRANCH   2  26
ATOM     26  C   UNL     1      94.966  84.280  84.027  1.00  0.00     0.078 C 
BRANCH  26  27
ATOM     27  C   UNL     1      94.030  83.912  85.176  1.00  0.00     0.140 C 
ATOM     28  C   UNL     1      94.654  82.870  86.127  1.00  0.00     0.086 CG0
ATOM     29  C   UNL     1      93.764  85.079  86.103  1.00  0.00     0.190 C 
ATOM     30  C   UNL     1      94.363  83.424  87.494  1.00  0.00    -0.010 C 
ATOM     31  G   UNL     1      94.325  81.379  85.821  1.00  0.00     0.000 G0
ATOM     32  O   UNL     1      93.438  86.203  85.751  1.00  0.00    -0.291 OA
ATOM     33  C   UNL     1      93.888  84.673  87.516  1.00  0.00    -0.008 C 
ATOM     34  C   UNL     1      93.573  85.551  88.661  1.00  0.00     0.048 C 
BRANCH  27  35
ATOM     35  O   UNL     1      92.742  83.556  84.702  1.00  0.00    -0.381 OA
ATOM     36  H   UNL     1      92.079  83.931  85.306  1.00  0.00     0.212 HD
ENDBRANCH  27  35
ENDBRANCH  26  27
ENDBRANCH   2  26
ENDBRANCH   1   2
BRANCH   1  37
ATOM     37  O   UNL     1      97.089  82.511  81.502  1.00  0.00    -0.461 OA
BRANCH  37  38
ATOM     38  C   UNL     1      97.640  82.825  80.281  1.00  0.00     0.310 C 
ATOM     39  O   UNL     1      98.789  82.576  79.944  1.00  0.00    -0.252 OA
BRANCH  38  40
ATOM     40  C   UNL     1      96.609  83.522  79.427  1.00  0.00     0.158 C 
BRANCH  40  41
ATOM     41  C   UNL     1      96.983  83.563  77.968  1.00  0.00    -0.037 A 
ATOM     42  C   UNL     1      97.989  82.727  77.483  1.00  0.00     0.008 A 
ATOM     43  C   UNL     1      96.325  84.436  77.103  1.00  0.00     0.008 A 
ATOM     44  C   UNL     1      98.337  82.765  76.132  1.00  0.00     0.046 A 
ATOM     45  C   UNL     1      96.672  84.474  75.752  1.00  0.00     0.046 A 
ATOM     46  C   UNL     1      97.678  83.639  75.267  1.00  0.00     0.115 A 
BRANCH  46  47
ATOM     47  O   UNL     1      98.017  83.676  73.950  1.00  0.00    -0.508 OA
ATOM     48  H   UNL     1      97.212  83.812  73.420  1.00  0.00     0.293 HD
ENDBRANCH  46  47
ENDBRANCH  40  41
ENDBRANCH  38  40
ENDBRANCH  37  38
ENDBRANCH   1  37
TORSDOF 10
ENDMDL
MODEL 7
REMARK VINA RESULT:    -6.514      5.864      8.597
REMARK INTER + INTRA:         -11.714
REMARK INTER:                 -10.799
REMARK INTRA:                  -0.915
REMARK UNBOUND:                -0.631
REMARK SMILES C=C(C)[C@]12C[C@@H](C)[C@@]34O[C@](Cc5ccccc5)(O[C@@H]1[C@@H]3C=C(COC(=O)Cc1ccc(O)cc1)C[C@]1(O)C(=O)C(C)=C[C@@H]41)O2
REMARK SMILES IDX 23 1 22 2 21 3 20 4 9 5 8 6 10 7 6 8 18 10 44 11 19 12 5 13
REMARK SMILES IDX 7 14 4 15 11 16 12 17 13 18 17 19 14 20 16 21 15 22 2 23
REMARK SMILES IDX 3 24 1 25 35 26 36 27 43 28 38 29 42 30 39 32 40 33 41 34
REMARK SMILES IDX 37 35 24 37 25 38 26 39 27 40 28 41 29 42 34 43 30 44 33 45
REMARK SMILES IDX 31 46 32 47
REMARK H PARENT 37 36 32 48
REMARK Flexibility Score: 90.00
ROOT
ATOM      1  C   UNL     1      97.369  75.822  82.172  1.00  0.00     0.264 C 
ENDROOT
BRANCH   1   2
ATOM      2  C   UNL     1      97.931  77.225  82.168  1.00  0.00    -0.033 C 
ATOM      3  C   UNL     1      98.759  77.600  81.171  1.00  0.00    -0.015 C 
BRANCH   3   4
ATOM      4  C   UNL     1      99.508  78.910  80.979  1.00  0.00     0.078 C 
ATOM      5  O   UNL     1      98.067  80.366  79.593  1.00  0.00    -0.319 OA
ATOM      6  C   UNL     1      98.677  80.244  80.916  1.00  0.00     0.095 CG0
ATOM      7  C   UNL     1      98.921  80.013  78.487  1.00  0.00     0.289 C 
ATOM      8  C   UNL     1      99.683  81.446  81.141  1.00  0.00     0.023 C 
ATOM      9  G   UNL     1      97.469  80.190  81.896  1.00  0.00     0.000 G0
ATOM     10  O   UNL     1      99.403  78.678  78.610  1.00  0.00    -0.320 OA
ATOM     11  O   UNL     1     100.082  80.837  78.415  1.00  0.00    -0.313 OA
ATOM     12  C   UNL     1     100.347  78.850  79.679  1.00  0.00     0.170 C 
ATOM     13  C   UNL     1     101.091  81.133  80.549  1.00  0.00     0.049 C 
ATOM     14  C   UNL     1      99.206  82.814  80.624  1.00  0.00     0.011 C 
ATOM     15  C   UNL     1     101.001  80.210  79.333  1.00  0.00     0.122 C 
BRANCH   7  16
ATOM     16  C   UNL     1      98.122  80.154  77.207  1.00  0.00     0.135 C 
BRANCH  16  17
ATOM     17  C   UNL     1      97.929  81.598  76.816  1.00  0.00    -0.040 A 
ATOM     18  C   UNL     1      98.589  82.113  75.701  1.00  0.00     0.004 A 
ATOM     19  C   UNL     1      97.090  82.417  77.570  1.00  0.00     0.004 A 
ATOM     20  C   UNL     1      98.409  83.449  75.339  1.00  0.00     0.000 A 
ATOM     21  C   UNL     1      96.910  83.753  77.209  1.00  0.00     0.000 A 
ATOM     22  C   UNL     1      97.570  84.268  76.094  1.00  0.00     0.000 A 
ENDBRANCH  16  17
ENDBRANCH   7  16
BRANCH  15  23
ATOM     23  C   UNL     1     102.315  80.042  78.642  1.00  0.00    -0.046 C 
ATOM     24  C   UNL     1     103.016  81.304  78.236  1.00  0.00     0.042 C 
ATOM     25  C   UNL     1     102.839  78.831  78.399  1.00  0.00     0.010 C 
ENDBRANCH  15  23
ENDBRANCH   3   4
BRANCH   2  26
ATOM     26  C   UNL     1      97.455  78.061  83.341  1.00  0.00     0.078 C 
BRANCH  26  27
ATOM     27  C   UNL     1      97.736  79.561  83.288  1.00  0.00     0.140 C 
ATOM     28  C   UNL     1      97.470  80.156  81.889  1.00  0.00     0.086 CG0
ATOM     29  C   UNL     1      96.793  80.359  84.164  1.00  0.00     0.190 C 
ATOM     30  C   UNL     1      96.687  81.406  82.183  1.00  0.00    -0.010 C 
ATOM     31  G   UNL     1      98.694  80.229  80.931  1.00  0.00     0.000 G0
ATOM     32  O   UNL     1      96.527  80.108  85.330  1.00  0.00    -0.291 OA
ATOM     33  C   UNL     1      96.268  81.535  83.445  1.00  0.00    -0.008 C 
ATOM     34  C   UNL     1      95.421  82.575  84.064  1.00  0.00     0.048 C 
BRANCH  27  35
ATOM     35  O   UNL     1      99.019  79.868  83.805  1.00  0.00    -0.381 OA
ATOM     36  H   UNL     1      99.211  80.802  83.616  1.00  0.00     0.212 HD
ENDBRANCH  27  35
ENDBRANCH  26  27
ENDBRANCH   2  26
ENDBRANCH   1   2
BRANCH   1  37
ATOM     37  O   UNL     1      96.440  75.695  83.227  1.00  0.00    -0.461 OA
BRANCH  37  38
ATOM     38  C   UNL     1      95.112  75.804  82.884  1.00  0.00     0.310 C 
ATOM     39  O   UNL     1      94.692  75.972  81.747  1.00  0.00    -0.252 OA
BRANCH  38  40
ATOM     40  C   UNL     1      94.260  75.685  84.124  1.00  0.00     0.158 C 
BRANCH  40  41
ATOM     41  C   UNL     1      93.256  76.800  84.257  1.00  0.00    -0.037 A 
ATOM     42  C   UNL     1      93.686  78.095  84.546  1.00  0.00     0.008 A 
ATOM     43  C   UNL     1      91.896  76.539  84.091  1.00  0.00     0.008 A 
ATOM     44  C   UNL     1      92.757  79.129  84.670  1.00  0.00     0.046 A 
ATOM     45  C   UNL     1      90.966  77.572  84.214  1.00  0.00     0.046 A 
ATOM     46  C   UNL     1      91.396  78.866  84.504  1.00  0.00     0.115 A 
BRANCH  46  47
ATOM     47  O   UNL     1      90.490  79.874  84.625  1.00  0.00    -0.508 OA
ATOM     48  H   UNL     1      90.413  80.334  83.771  1.00  0.00     0.293 HD
ENDBRANCH  46  47
ENDBRANCH  40  41
ENDBRANCH  38  40
ENDBRANCH  37  38
ENDBRANCH   1  37
TORSDOF 10
ENDMDL
MODEL 8
REMARK VINA RESULT:    -6.065     29.457     33.342
REMARK INTER + INTRA:         -10.950
REMARK INTER:                 -10.191
REMARK INTRA:                  -0.759
REMARK UNBOUND:                -0.631
REMARK SMILES C=C(C)[C@]12C[C@@H](C)[C@@]34O[C@](Cc5ccccc5)(O[C@@H]1[C@@H]3C=C(COC(=O)Cc1ccc(O)cc1)C[C@]1(O)C(=O)C(C)=C[C@@H]41)O2
REMARK SMILES IDX 23 1 22 2 21 3 20 4 9 5 8 6 10 7 6 8 18 10 44 11 19 12 5 13
REMARK SMILES IDX 7 14 4 15 11 16 12 17 13 18 17 19 14 20 16 21 15 22 2 23
REMARK SMILES IDX 3 24 1 25 35 26 36 27 43 28 38 29 42 30 39 32 40 33 41 34
REMARK SMILES IDX 37 35 24 37 25 38 26 39 27 40 28 41 29 42 34 43 30 44 33 45
REMARK SMILES IDX 31 46 32 47
REMARK H PARENT 37 36 32 48
REMARK Flexibility Score: 90.00
ROOT
ATOM      1  C   UNL     1      64.640  89.193  68.907  1.00  0.00     0.264 C 
ENDROOT
BRANCH   1   2
ATOM      2  C   UNL     1      65.477  88.610  70.022  1.00  0.00    -0.033 C 
ATOM      3  C   UNL     1      64.944  88.498  71.257  1.00  0.00    -0.015 C 
BRANCH   3   4
ATOM      4  C   UNL     1      65.591  88.023  72.548  1.00  0.00     0.078 C 
ATOM      5  O   UNL     1      65.135  85.599  72.733  1.00  0.00    -0.319 OA
ATOM      6  C   UNL     1      66.211  86.578  72.587  1.00  0.00     0.095 CG0
ATOM      7  C   UNL     1      64.108  85.952  73.680  1.00  0.00     0.289 C 
ATOM      8  C   UNL     1      67.165  86.499  73.849  1.00  0.00     0.023 C 
ATOM      9  G   UNL     1      66.874  86.224  71.224  1.00  0.00     0.000 G0
ATOM     10  O   UNL     1      63.504  87.199  73.348  1.00  0.00    -0.320 OA
ATOM     11  O   UNL     1      64.619  86.110  75.001  1.00  0.00    -0.313 OA
ATOM     12  C   UNL     1      64.567  88.096  73.707  1.00  0.00     0.170 C 
ATOM     13  C   UNL     1      66.634  87.376  75.024  1.00  0.00     0.049 C 
ATOM     14  C   UNL     1      67.464  85.081  74.365  1.00  0.00     0.011 C 
ATOM     15  C   UNL     1      65.107  87.468  75.015  1.00  0.00     0.122 C 
BRANCH   7  16
ATOM     16  C   UNL     1      63.060  84.856  73.672  1.00  0.00     0.135 C 
BRANCH  16  17
ATOM     17  C   UNL     1      63.150  83.994  72.438  1.00  0.00    -0.040 A 
ATOM     18  C   UNL     1      63.337  84.583  71.188  1.00  0.00     0.004 A 
ATOM     19  C   UNL     1      63.047  82.608  72.548  1.00  0.00     0.004 A 
ATOM     20  C   UNL     1      63.421  83.785  70.046  1.00  0.00     0.000 A 
ATOM     21  C   UNL     1      63.131  81.810  71.406  1.00  0.00     0.000 A 
ATOM     22  C   UNL     1      63.318  82.399  70.156  1.00  0.00     0.000 A 
ENDBRANCH  16  17
ENDBRANCH   7  16
BRANCH  15  23
ATOM     23  C   UNL     1      64.566  88.149  76.230  1.00  0.00    -0.046 C 
ATOM     24  C   UNL     1      65.560  88.468  77.308  1.00  0.00     0.042 C 
ATOM     25  C   UNL     1      63.267  88.458  76.351  1.00  0.00     0.010 C 
ENDBRANCH  15  23
ENDBRANCH   3   4
BRANCH   2  26
ATOM     26  C   UNL     1      66.868  88.204  69.574  1.00  0.00     0.078 C 
BRANCH  26  27
ATOM     27  C   UNL     1      67.703  87.380  70.550  1.00  0.00     0.140 C 
ATOM     28  C   UNL     1      66.885  86.250  71.210  1.00  0.00     0.086 CG0
ATOM     29  C   UNL     1      68.815  86.616  69.862  1.00  0.00     0.190 C 
ATOM     30  C   UNL     1      67.790  85.054  71.104  1.00  0.00    -0.010 C 
ATOM     31  G   UNL     1      66.225  86.590  72.578  1.00  0.00     0.000 G0
ATOM     32  O   UNL     1      69.606  87.088  69.058  1.00  0.00    -0.291 OA
ATOM     33  C   UNL     1      68.868  85.219  70.332  1.00  0.00    -0.008 C 
ATOM     34  C   UNL     1      69.914  84.252  69.940  1.00  0.00     0.048 C 
BRANCH  27  35
ATOM     35  O   UNL     1      68.386  88.208  71.477  1.00  0.00    -0.381 OA
ATOM     36  H   UNL     1      68.992  88.785  70.983  1.00  0.00     0.212 HD
ENDBRANCH  27  35
ENDBRANCH  26  27
ENDBRANCH   2  26
ENDBRANCH   1   2
BRANCH   1  37
ATOM     37  O   UNL     1      63.996  88.147  68.211  1.00  0.00    -0.461 OA
BRANCH  37  38
ATOM     38  C   UNL     1      62.652  88.314  67.970  1.00  0.00     0.310 C 
ATOM     39  O   UNL     1      62.097  88.094  66.903  1.00  0.00    -0.252 OA
BRANCH  38  40
ATOM     40  C   UNL     1      61.973  88.809  69.225  1.00  0.00     0.158 C 
BRANCH  40  41
ATOM     41  C   UNL     1      60.840  87.922  69.670  1.00  0.00    -0.037 A 
ATOM     42  C   UNL     1      60.808  86.583  69.280  1.00  0.00     0.008 A 
ATOM     43  C   UNL     1      59.822  88.439  70.470  1.00  0.00     0.008 A 
ATOM     44  C   UNL     1      59.758  85.761  69.691  1.00  0.00     0.046 A 
ATOM     45  C   UNL     1      58.771  87.617  70.882  1.00  0.00     0.046 A 
ATOM     46  C   UNL     1      58.739  86.279  70.492  1.00  0.00     0.115 A 
BRANCH  46  47
ATOM     47  O   UNL     1      57.715  85.477  70.892  1.00  0.00    -0.508 OA
ATOM     48  H   UNL     1      58.074  84.752  71.432  1.00  0.00     0.293 HD
ENDBRANCH  46  47
ENDBRANCH  40  41
ENDBRANCH  38  40
ENDBRANCH  37  38
ENDBRANCH   1  37
TORSDOF 10
ENDMDL
MODEL 9
REMARK VINA RESULT:    -6.047      4.628      7.696
REMARK INTER + INTRA:         -10.921
REMARK INTER:                  -9.803
REMARK INTRA:                  -1.117
REMARK UNBOUND:                -0.631
REMARK SMILES C=C(C)[C@]12C[C@@H](C)[C@@]34O[C@](Cc5ccccc5)(O[C@@H]1[C@@H]3C=C(COC(=O)Cc1ccc(O)cc1)C[C@]1(O)C(=O)C(C)=C[C@@H]41)O2
REMARK SMILES IDX 23 1 22 2 21 3 20 4 9 5 8 6 10 7 6 8 18 10 44 11 19 12 5 13
REMARK SMILES IDX 7 14 4 15 11 16 12 17 13 18 17 19 14 20 16 21 15 22 2 23
REMARK SMILES IDX 3 24 1 25 35 26 36 27 43 28 38 29 42 30 39 32 40 33 41 34
REMARK SMILES IDX 37 35 24 37 25 38 26 39 27 40 28 41 29 42 34 43 30 44 33 45
REMARK SMILES IDX 31 46 32 47
REMARK H PARENT 37 36 32 48
REMARK Flexibility Score: 90.00
ROOT
ATOM      1  C   UNL     1      95.367  77.556  84.367  1.00  0.00     0.264 C 
ENDROOT
BRANCH   1   2
ATOM      2  C   UNL     1      96.827  77.910  84.203  1.00  0.00    -0.033 C 
ATOM      3  C   UNL     1      97.273  78.331  83.002  1.00  0.00    -0.015 C 
BRANCH   3   4
ATOM      4  C   UNL     1      98.688  78.671  82.562  1.00  0.00     0.078 C 
ATOM      5  O   UNL     1      98.980  81.104  82.892  1.00  0.00    -0.319 OA
ATOM      6  C   UNL     1      99.462  79.799  83.339  1.00  0.00     0.095 CG0
ATOM      7  C   UNL     1      98.783  81.234  81.471  1.00  0.00     0.289 C 
ATOM      8  C   UNL     1     100.999  79.658  82.982  1.00  0.00     0.023 C 
ATOM      9  G   UNL     1      99.122  79.758  84.857  1.00  0.00     0.000 G0
ATOM     10  O   UNL     1      97.869  80.256  80.984  1.00  0.00    -0.320 OA
ATOM     11  O   UNL     1      99.988  81.036  80.736  1.00  0.00    -0.313 OA
ATOM     12  C   UNL     1      98.691  79.081  81.069  1.00  0.00     0.170 C 
ATOM     13  C   UNL     1     101.203  79.148  81.522  1.00  0.00     0.049 C 
ATOM     14  C   UNL     1     101.848  80.922  83.203  1.00  0.00     0.011 C 
ATOM     15  C   UNL     1     100.071  79.602  80.600  1.00  0.00     0.122 C 
BRANCH   7  16
ATOM     16  C   UNL     1      98.244  82.623  81.192  1.00  0.00     0.135 C 
BRANCH  16  17
ATOM     17  C   UNL     1      97.851  82.798  79.746  1.00  0.00    -0.040 A 
ATOM     18  C   UNL     1      98.653  82.267  78.736  1.00  0.00     0.004 A 
ATOM     19  C   UNL     1      96.687  83.492  79.420  1.00  0.00     0.004 A 
ATOM     20  C   UNL     1      98.289  82.428  77.399  1.00  0.00     0.000 A 
ATOM     21  C   UNL     1      96.323  83.654  78.082  1.00  0.00     0.000 A 
ATOM     22  C   UNL     1      97.124  83.122  77.073  1.00  0.00     0.000 A 
ENDBRANCH  16  17
ENDBRANCH   7  16
BRANCH  15  23
ATOM     23  C   UNL     1     100.335  79.280  79.165  1.00  0.00    -0.046 C 
ATOM     24  C   UNL     1     101.310  80.173  78.456  1.00  0.00     0.042 C 
ATOM     25  C   UNL     1      99.735  78.253  78.547  1.00  0.00     0.010 C 
ENDBRANCH  15  23
ENDBRANCH   3   4
BRANCH   2  26
ATOM     26  C   UNL     1      97.627  77.740  85.481  1.00  0.00     0.078 C 
BRANCH  26  27
ATOM     27  C   UNL     1      99.037  78.328  85.505  1.00  0.00     0.140 C 
ATOM     28  C   UNL     1      99.095  79.733  84.870  1.00  0.00     0.086 CG0
ATOM     29  C   UNL     1      99.534  78.586  86.911  1.00  0.00     0.190 C 
ATOM     30  C   UNL     1      99.911  80.527  85.851  1.00  0.00    -0.010 C 
ATOM     31  G   UNL     1      99.455  79.787  83.357  1.00  0.00     0.000 G0
ATOM     32  O   UNL     1      99.487  77.789  87.836  1.00  0.00    -0.291 OA
ATOM     33  C   UNL     1     100.151  79.922  87.018  1.00  0.00    -0.008 C 
ATOM     34  C   UNL     1     100.837  80.423  88.227  1.00  0.00     0.048 C 
BRANCH  27  35
ATOM     35  O   UNL     1      99.986  77.419  84.971  1.00  0.00    -0.381 OA
ATOM     36  H   UNL     1     100.873  77.803  85.081  1.00  0.00     0.212 HD
ENDBRANCH  27  35
ENDBRANCH  26  27
ENDBRANCH   2  26
ENDBRANCH   1   2
BRANCH   1  37
ATOM     37  O   UNL     1      94.573  78.652  83.965  1.00  0.00    -0.461 OA
BRANCH  37  38
ATOM     38  C   UNL     1      94.088  79.453  84.973  1.00  0.00     0.310 C 
ATOM     39  O   UNL     1      93.952  79.110  86.138  1.00  0.00    -0.252 OA
BRANCH  38  40
ATOM     40  C   UNL     1      93.753  80.816  84.416  1.00  0.00     0.158 C 
BRANCH  40  41
ATOM     41  C   UNL     1      94.814  81.846  84.704  1.00  0.00    -0.037 A 
ATOM     42  C   UNL     1      94.790  83.076  84.046  1.00  0.00     0.008 A 
ATOM     43  C   UNL     1      95.821  81.571  85.629  1.00  0.00     0.008 A 
ATOM     44  C   UNL     1      95.774  84.029  84.312  1.00  0.00     0.046 A 
ATOM     45  C   UNL     1      96.805  82.524  85.896  1.00  0.00     0.046 A 
ATOM     46  C   UNL     1      96.781  83.753  85.237  1.00  0.00     0.115 A 
BRANCH  46  47
ATOM     47  O   UNL     1      97.740  84.683  85.497  1.00  0.00    -0.508 OA
ATOM     48  H   UNL     1      98.386  84.681  84.769  1.00  0.00     0.293 HD
ENDBRANCH  46  47
ENDBRANCH  40  41
ENDBRANCH  38  40
ENDBRANCH  37  38
ENDBRANCH   1  37
TORSDOF 10
ENDMDL
MODEL 10
REMARK VINA RESULT:    -6.007      3.655      8.159
REMARK INTER + INTRA:         -10.851
REMARK INTER:                  -8.733
REMARK INTRA:                  -2.118
REMARK UNBOUND:                -0.631
REMARK SMILES C=C(C)[C@]12C[C@@H](C)[C@@]34O[C@](Cc5ccccc5)(O[C@@H]1[C@@H]3C=C(COC(=O)Cc1ccc(O)cc1)C[C@]1(O)C(=O)C(C)=C[C@@H]41)O2
REMARK SMILES IDX 23 1 22 2 21 3 20 4 9 5 8 6 10 7 6 8 18 10 44 11 19 12 5 13
REMARK SMILES IDX 7 14 4 15 11 16 12 17 13 18 17 19 14 20 16 21 15 22 2 23
REMARK SMILES IDX 3 24 1 25 35 26 36 27 43 28 38 29 42 30 39 32 40 33 41 34
REMARK SMILES IDX 37 35 24 37 25 38 26 39 27 40 28 41 29 42 34 43 30 44 33 45
REMARK SMILES IDX 31 46 32 47
REMARK H PARENT 37 36 32 48
REMARK Flexibility Score: 90.00
ROOT
ATOM      1  C   UNL     1      99.861  80.882  88.541  1.00  0.00     0.264 C 
ENDROOT
BRANCH   1   2
ATOM      2  C   UNL     1      98.520  81.545  88.326  1.00  0.00    -0.033 C 
ATOM      3  C   UNL     1      98.162  81.919  87.080  1.00  0.00    -0.015 C 
BRANCH   3   4
ATOM      4  C   UNL     1      96.920  82.662  86.615  1.00  0.00     0.078 C 
ATOM      5  O   UNL     1      95.243  80.949  86.006  1.00  0.00    -0.319 OA
ATOM      6  C   UNL     1      95.511  82.041  86.940  1.00  0.00     0.095 CG0
ATOM      7  C   UNL     1      95.599  81.211  84.635  1.00  0.00     0.289 C 
ATOM      8  C   UNL     1      94.428  83.180  86.739  1.00  0.00     0.023 C 
ATOM      9  G   UNL     1      95.516  81.362  88.340  1.00  0.00     0.000 G0
ATOM     10  O   UNL     1      96.979  81.543  84.513  1.00  0.00    -0.320 OA
ATOM     11  O   UNL     1      94.887  82.319  84.091  1.00  0.00    -0.313 OA
ATOM     12  C   UNL     1      96.971  82.862  85.080  1.00  0.00     0.170 C 
ATOM     13  C   UNL     1      94.833  84.161  85.597  1.00  0.00     0.049 C 
ATOM     14  C   UNL     1      92.989  82.690  86.503  1.00  0.00     0.011 C 
ATOM     15  C   UNL     1      95.659  83.461  84.516  1.00  0.00     0.122 C 
BRANCH   7  16
ATOM     16  C   UNL     1      95.297  79.968  83.821  1.00  0.00     0.135 C 
BRANCH  16  17
ATOM     17  C   UNL     1      96.374  79.679  82.806  1.00  0.00    -0.040 A 
ATOM     18  C   UNL     1      96.689  80.628  81.833  1.00  0.00     0.004 A 
ATOM     19  C   UNL     1      97.056  78.464  82.841  1.00  0.00     0.004 A 
ATOM     20  C   UNL     1      97.686  80.361  80.894  1.00  0.00     0.000 A 
ATOM     21  C   UNL     1      98.054  78.196  81.903  1.00  0.00     0.000 A 
ATOM     22  C   UNL     1      98.368  79.145  80.930  1.00  0.00     0.000 A 
ENDBRANCH  16  17
ENDBRANCH   7  16
BRANCH  15  23
ATOM     23  C   UNL     1      95.904  84.332  83.327  1.00  0.00    -0.046 C 
ATOM     24  C   UNL     1      95.930  85.810  83.584  1.00  0.00     0.042 C 
ATOM     25  C   UNL     1      96.091  83.822  82.101  1.00  0.00     0.010 C 
ENDBRANCH  15  23
ENDBRANCH   3   4
BRANCH   2  26
ATOM     26  C   UNL     1      97.719  81.698  89.605  1.00  0.00     0.078 C 
BRANCH  26  27
ATOM     27  C   UNL     1      96.263  82.140  89.468  1.00  0.00     0.140 C 
ATOM     28  C   UNL     1      95.525  81.382  88.346  1.00  0.00     0.086 CG0
ATOM     29  C   UNL     1      95.436  81.799  90.689  1.00  0.00     0.190 C 
ATOM     30  C   UNL     1      94.220  80.994  88.984  1.00  0.00    -0.010 C 
ATOM     31  G   UNL     1      95.518  82.064  86.947  1.00  0.00     0.000 G0
ATOM     32  O   UNL     1      95.751  82.034  91.846  1.00  0.00    -0.291 OA
ATOM     33  C   UNL     1      94.149  81.190  90.304  1.00  0.00    -0.008 C 
ATOM     34  C   UNL     1      93.071  80.856  91.258  1.00  0.00     0.048 C 
BRANCH  27  35
ATOM     35  O   UNL     1      96.157  83.551  89.371  1.00  0.00    -0.381 OA
ATOM     36  H   UNL     1      95.242  83.805  89.580  1.00  0.00     0.212 HD
ENDBRANCH  27  35
ENDBRANCH  26  27
ENDBRANCH   2  26
ENDBRANCH   1   2
BRANCH   1  37
ATOM     37  O   UNL     1     100.333  80.375  87.311  1.00  0.00    -0.461 OA
BRANCH  37  38
ATOM     38  C   UNL     1     100.072  79.047  87.061  1.00  0.00     0.310 C 
ATOM     39  O   UNL     1     100.313  78.127  87.829  1.00  0.00    -0.252 OA
BRANCH  38  40
ATOM     40  C   UNL     1      99.443  78.906  85.696  1.00  0.00     0.158 C 
BRANCH  40  41
ATOM     41  C   UNL     1     100.355  79.347  84.580  1.00  0.00    -0.037 A 
ATOM     42  C   UNL     1     100.080  80.519  83.876  1.00  0.00     0.008 A 
ATOM     43  C   UNL     1     101.475  78.583  84.251  1.00  0.00     0.008 A 
ATOM     44  C   UNL     1     100.924  80.927  82.842  1.00  0.00     0.046 A 
ATOM     45  C   UNL     1     102.320  78.991  83.218  1.00  0.00     0.046 A 
ATOM     46  C   UNL     1     102.044  80.162  82.514  1.00  0.00     0.115 A 
BRANCH  46  47
ATOM     47  O   UNL     1     102.867  80.559  81.506  1.00  0.00    -0.508 OA
ATOM     48  H   UNL     1     102.364  81.123  80.892  1.00  0.00     0.293 HD
ENDBRANCH  46  47
ENDBRANCH  40  41
ENDBRANCH  38  40
ENDBRANCH  37  38
ENDBRANCH   1  37
TORSDOF 10
ENDMDL
