MODEL 1
REMARK VINA RESULT:    -8.047      0.000      0.000
REMARK INTER + INTRA:          -9.770
REMARK INTER:                  -9.458
REMARK INTRA:                  -0.311
REMARK UNBOUND:                -0.311
REMARK SMILES O=C(/C=C/C=C/c1ccc2c(c1)OCO2)N1CCCCC1
REMARK SMILES IDX 3 1 4 2 2 3 1 4 16 5 17 6 21 7 18 8 20 9 19 10 5 11 6 12
REMARK SMILES IDX 7 13 12 14 8 15 11 16 9 17 13 18 10 19 14 20 15 21
REMARK H PARENT
REMARK Flexibility Score: inf
ROOT
ATOM      1  C   UNL     1      95.125  96.259  78.642  1.00  0.00     0.071 C 
ATOM      2  C   UNL     1      93.979  96.392  77.977  1.00  0.00     0.006 C 
ENDROOT
BRANCH   1   3
ATOM      3  C   UNL     1      95.753  97.476  79.194  1.00  0.00     0.246 C 
ATOM      4  O   UNL     1      95.342  98.563  78.787  1.00  0.00    -0.270 OA
ATOM      5  N   UNL     1      96.770  97.313  80.134  1.00  0.00    -0.339 N 
ATOM      6  C   UNL     1      97.416  98.502  80.696  1.00  0.00     0.120 C 
ATOM      7  C   UNL     1      97.316  96.033  80.610  1.00  0.00     0.120 C 
ATOM      8  C   UNL     1      97.403  98.475  82.221  1.00  0.00     0.022 C 
ATOM      9  C   UNL     1      97.324  95.969  82.137  1.00  0.00     0.022 C 
ATOM     10  C   UNL     1      98.017  97.183  82.749  1.00  0.00     0.004 C 
ENDBRANCH   1   3
BRANCH   2  11
ATOM     11  C   UNL     1      93.288  95.259  77.399  1.00  0.00     0.001 C 
ATOM     12  C   UNL     1      91.952  95.126  77.435  1.00  0.00     0.008 C 
BRANCH  12  13
ATOM     13  C   UNL     1      91.201  93.992  76.872  1.00  0.00    -0.022 A 
ATOM     14  C   UNL     1      91.393  93.649  75.540  1.00  0.00     0.058 A 
ATOM     15  C   UNL     1      90.314  93.292  77.694  1.00  0.00     0.012 A 
ATOM     16  C   UNL     1      90.666  92.580  75.058  1.00  0.00     0.166 A 
ATOM     17  C   UNL     1      89.591  92.213  77.179  1.00  0.00     0.051 A 
ATOM     18  O   UNL     1      90.712  92.092  73.788  1.00  0.00    -0.454 OA
ATOM     19  C   UNL     1      89.790  91.880  75.855  1.00  0.00     0.165 A 
ATOM     20  C   UNL     1      89.766  91.007  73.876  1.00  0.00     0.468 C 
ATOM     21  O   UNL     1      89.177  90.867  75.185  1.00  0.00    -0.454 OA
ENDBRANCH  12  13
ENDBRANCH   2  11
TORSDOF 3
ENDMDL
MODEL 2
REMARK VINA RESULT:    -7.838     12.708     13.975
REMARK INTER + INTRA:          -9.524
REMARK INTER:                  -9.273
REMARK INTRA:                  -0.251
REMARK UNBOUND:                -0.311
REMARK SMILES O=C(/C=C/C=C/c1ccc2c(c1)OCO2)N1CCCCC1
REMARK SMILES IDX 3 1 4 2 2 3 1 4 16 5 17 6 21 7 18 8 20 9 19 10 5 11 6 12
REMARK SMILES IDX 7 13 12 14 8 15 11 16 9 17 13 18 10 19 14 20 15 21
REMARK H PARENT
REMARK Flexibility Score: inf
ROOT
ATOM      1  C   UNL     1      95.956  83.779  83.419  1.00  0.00     0.071 C 
ATOM      2  C   UNL     1      96.682  83.020  82.601  1.00  0.00     0.006 C 
ENDROOT
BRANCH   1   3
ATOM      3  C   UNL     1      95.860  83.378  84.837  1.00  0.00     0.246 C 
ATOM      4  O   UNL     1      96.670  83.871  85.624  1.00  0.00    -0.270 OA
ATOM      5  N   UNL     1      94.867  82.466  85.189  1.00  0.00    -0.339 N 
ATOM      6  C   UNL     1      94.751  82.045  86.589  1.00  0.00     0.120 C 
ATOM      7  C   UNL     1      93.914  81.823  84.273  1.00  0.00     0.120 C 
ATOM      8  C   UNL     1      93.331  82.233  87.111  1.00  0.00     0.022 C 
ATOM      9  C   UNL     1      92.476  81.987  84.765  1.00  0.00     0.022 C 
ATOM     10  C   UNL     1      92.320  81.529  86.213  1.00  0.00     0.004 C 
ENDBRANCH   1   3
BRANCH   2  11
ATOM     11  C   UNL     1      96.835  83.331  81.196  1.00  0.00     0.001 C 
ATOM     12  C   UNL     1      97.214  82.418  80.287  1.00  0.00     0.008 C 
BRANCH  12  13
ATOM     13  C   UNL     1      97.393  82.682  78.849  1.00  0.00    -0.022 A 
ATOM     14  C   UNL     1      96.652  83.692  78.251  1.00  0.00     0.058 A 
ATOM     15  C   UNL     1      98.303  81.908  78.126  1.00  0.00     0.012 A 
ATOM     16  C   UNL     1      96.854  83.902  76.902  1.00  0.00     0.166 A 
ATOM     17  C   UNL     1      98.488  82.141  76.761  1.00  0.00     0.051 A 
ATOM     18  O   UNL     1      96.228  84.838  76.137  1.00  0.00    -0.454 OA
ATOM     19  C   UNL     1      97.748  83.147  76.177  1.00  0.00     0.165 A 
ATOM     20  C   UNL     1      96.827  84.587  74.850  1.00  0.00     0.468 C 
ATOM     21  O   UNL     1      97.793  83.516  74.868  1.00  0.00    -0.454 OA
ENDBRANCH  12  13
ENDBRANCH   2  11
TORSDOF 3
ENDMDL
MODEL 3
REMARK VINA RESULT:    -7.717      2.067      2.783
REMARK INTER + INTRA:          -9.381
REMARK INTER:                  -9.157
REMARK INTRA:                  -0.225
REMARK UNBOUND:                -0.311
REMARK SMILES O=C(/C=C/C=C/c1ccc2c(c1)OCO2)N1CCCCC1
REMARK SMILES IDX 3 1 4 2 2 3 1 4 16 5 17 6 21 7 18 8 20 9 19 10 5 11 6 12
REMARK SMILES IDX 7 13 12 14 8 15 11 16 9 17 13 18 10 19 14 20 15 21
REMARK H PARENT
REMARK Flexibility Score: inf
ROOT
ATOM      1  C   UNL     1      94.927  96.966  78.467  1.00  0.00     0.071 C 
ATOM      2  C   UNL     1      93.736  96.928  77.872  1.00  0.00     0.006 C 
ENDROOT
BRANCH   1   3
ATOM      3  C   UNL     1      95.488  98.286  78.814  1.00  0.00     0.246 C 
ATOM      4  O   UNL     1      95.280  98.711  79.952  1.00  0.00    -0.270 OA
ATOM      5  N   UNL     1      96.208  98.965  77.833  1.00  0.00    -0.339 N 
ATOM      6  C   UNL     1      96.772 100.281  78.147  1.00  0.00     0.120 C 
ATOM      7  C   UNL     1      96.437  98.512  76.453  1.00  0.00     0.120 C 
ATOM      8  C   UNL     1      98.263 100.339  77.830  1.00  0.00     0.022 C 
ATOM      9  C   UNL     1      97.923  98.558  76.095  1.00  0.00     0.022 C 
ATOM     10  C   UNL     1      98.531  99.927  76.386  1.00  0.00     0.004 C 
ENDBRANCH   1   3
BRANCH   2  11
ATOM     11  C   UNL     1      93.105  95.681  77.493  1.00  0.00     0.001 C 
ATOM     12  C   UNL     1      91.839  95.614  77.049  1.00  0.00     0.008 C 
BRANCH  12  13
ATOM     13  C   UNL     1      91.147  94.374  76.658  1.00  0.00    -0.022 A 
ATOM     14  C   UNL     1      91.220  93.946  75.340  1.00  0.00     0.058 A 
ATOM     15  C   UNL     1      90.435  93.662  77.627  1.00  0.00     0.012 A 
ATOM     16  C   UNL     1      90.555  92.779  75.022  1.00  0.00     0.166 A 
ATOM     17  C   UNL     1      89.771  92.483  77.277  1.00  0.00     0.051 A 
ATOM     18  O   UNL     1      90.505  92.199  73.792  1.00  0.00    -0.454 OA
ATOM     19  C   UNL     1      89.850  92.067  75.965  1.00  0.00     0.165 A 
ATOM     20  C   UNL     1      89.690  91.042  74.067  1.00  0.00     0.468 C 
ATOM     21  O   UNL     1      89.271  90.952  75.444  1.00  0.00    -0.454 OA
ENDBRANCH  12  13
ENDBRANCH   2  11
TORSDOF 3
ENDMDL
MODEL 4
REMARK VINA RESULT:    -7.586     13.017     14.626
REMARK INTER + INTRA:          -9.228
REMARK INTER:                  -8.828
REMARK INTRA:                  -0.399
REMARK UNBOUND:                -0.311
REMARK SMILES O=C(/C=C/C=C/c1ccc2c(c1)OCO2)N1CCCCC1
REMARK SMILES IDX 3 1 4 2 2 3 1 4 16 5 17 6 21 7 18 8 20 9 19 10 5 11 6 12
REMARK SMILES IDX 7 13 12 14 8 15 11 16 9 17 13 18 10 19 14 20 15 21
REMARK H PARENT
REMARK Flexibility Score: inf
ROOT
ATOM      1  C   UNL     1      97.566  83.931  76.934  1.00  0.00     0.071 C 
ATOM      2  C   UNL     1      96.463  83.909  77.679  1.00  0.00     0.006 C 
ENDROOT
BRANCH   1   3
ATOM      3  C   UNL     1      97.439  84.321  75.516  1.00  0.00     0.246 C 
ATOM      4  O   UNL     1      96.317  84.625  75.108  1.00  0.00    -0.270 OA
ATOM      5  N   UNL     1      98.593  84.316  74.734  1.00  0.00    -0.339 N 
ATOM      6  C   UNL     1      98.497  84.694  73.321  1.00  0.00     0.120 C 
ATOM      7  C   UNL     1      99.938  83.917  75.174  1.00  0.00     0.120 C 
ATOM      8  C   UNL     1      99.497  85.789  72.968  1.00  0.00     0.022 C 
ATOM      9  C   UNL     1     100.972  84.990  74.834  1.00  0.00     0.022 C 
ATOM     10  C   UNL     1     100.914  85.383  73.361  1.00  0.00     0.004 C 
ENDBRANCH   1   3
BRANCH   2  11
ATOM     11  C   UNL     1      96.487  83.540  79.079  1.00  0.00     0.001 C 
ATOM     12  C   UNL     1      97.516  82.884  79.640  1.00  0.00     0.008 C 
BRANCH  12  13
ATOM     13  C   UNL     1      97.588  82.477  81.053  1.00  0.00    -0.022 A 
ATOM     14  C   UNL     1      98.616  81.640  81.463  1.00  0.00     0.058 A 
ATOM     15  C   UNL     1      96.618  82.946  81.943  1.00  0.00     0.012 A 
ATOM     16  C   UNL     1      98.642  81.287  82.797  1.00  0.00     0.166 A 
ATOM     17  C   UNL     1      96.668  82.572  83.288  1.00  0.00     0.051 A 
ATOM     18  O   UNL     1      99.563  80.478  83.391  1.00  0.00    -0.454 OA
ATOM     19  C   UNL     1      97.694  81.740  83.685  1.00  0.00     0.165 A 
ATOM     20  C   UNL     1      99.087  80.475  84.752  1.00  0.00     0.468 C 
ATOM     21  O   UNL     1      97.902  81.274  84.947  1.00  0.00    -0.454 OA
ENDBRANCH  12  13
ENDBRANCH   2  11
TORSDOF 3
ENDMDL
MODEL 5
REMARK VINA RESULT:    -7.440     12.765     13.969
REMARK INTER + INTRA:          -9.057
REMARK INTER:                  -8.715
REMARK INTRA:                  -0.342
REMARK UNBOUND:                -0.311
REMARK SMILES O=C(/C=C/C=C/c1ccc2c(c1)OCO2)N1CCCCC1
REMARK SMILES IDX 3 1 4 2 2 3 1 4 16 5 17 6 21 7 18 8 20 9 19 10 5 11 6 12
REMARK SMILES IDX 7 13 12 14 8 15 11 16 9 17 13 18 10 19 14 20 15 21
REMARK H PARENT
REMARK Flexibility Score: inf
ROOT
ATOM      1  C   UNL     1      96.946  82.887  82.411  1.00  0.00     0.071 C 
ATOM      2  C   UNL     1      97.087  82.235  81.258  1.00  0.00     0.006 C 
ENDROOT
BRANCH   1   3
ATOM      3  C   UNL     1      96.996  82.105  83.662  1.00  0.00     0.246 C 
ATOM      4  O   UNL     1      98.089  81.655  84.009  1.00  0.00    -0.270 OA
ATOM      5  N   UNL     1      95.805  81.925  84.364  1.00  0.00    -0.339 N 
ATOM      6  C   UNL     1      95.822  81.149  85.607  1.00  0.00     0.120 C 
ATOM      7  C   UNL     1      94.476  82.408  83.959  1.00  0.00     0.120 C 
ATOM      8  C   UNL     1      95.186  81.923  86.756  1.00  0.00     0.022 C 
ATOM      9  C   UNL     1      93.803  83.188  85.088  1.00  0.00     0.022 C 
ATOM     10  C   UNL     1      93.782  82.391  86.389  1.00  0.00     0.004 C 
ENDBRANCH   1   3
BRANCH   2  11
ATOM     11  C   UNL     1      97.052  82.914  79.981  1.00  0.00     0.001 C 
ATOM     12  C   UNL     1      97.336  82.298  78.822  1.00  0.00     0.008 C 
BRANCH  12  13
ATOM     13  C   UNL     1      97.324  82.941  77.498  1.00  0.00    -0.022 A 
ATOM     14  C   UNL     1      98.044  82.366  76.460  1.00  0.00     0.058 A 
ATOM     15  C   UNL     1      96.586  84.115  77.322  1.00  0.00     0.012 A 
ATOM     16  C   UNL     1      98.002  83.006  75.238  1.00  0.00     0.166 A 
ATOM     17  C   UNL     1      96.560  84.742  76.074  1.00  0.00     0.051 A 
ATOM     18  O   UNL     1      98.638  82.603  74.104  1.00  0.00    -0.454 OA
ATOM     19  C   UNL     1      97.280  84.162  75.050  1.00  0.00     0.165 A 
ATOM     20  C   UNL     1      98.235  83.635  73.181  1.00  0.00     0.468 C 
ATOM     21  O   UNL     1      97.373  84.628  73.775  1.00  0.00    -0.454 OA
ENDBRANCH  12  13
ENDBRANCH   2  11
TORSDOF 3
ENDMDL
MODEL 6
REMARK VINA RESULT:    -7.331     12.234     14.311
REMARK INTER + INTRA:          -8.928
REMARK INTER:                  -8.607
REMARK INTRA:                  -0.321
REMARK UNBOUND:                -0.311
REMARK SMILES O=C(/C=C/C=C/c1ccc2c(c1)OCO2)N1CCCCC1
REMARK SMILES IDX 3 1 4 2 2 3 1 4 16 5 17 6 21 7 18 8 20 9 19 10 5 11 6 12
REMARK SMILES IDX 7 13 12 14 8 15 11 16 9 17 13 18 10 19 14 20 15 21
REMARK H PARENT
REMARK Flexibility Score: inf
ROOT
ATOM      1  C   UNL     1      97.063  82.571  78.224  1.00  0.00     0.071 C 
ATOM      2  C   UNL     1      97.667  82.959  79.346  1.00  0.00     0.006 C 
ENDROOT
BRANCH   1   3
ATOM      3  C   UNL     1      97.902  82.043  77.130  1.00  0.00     0.246 C 
ATOM      4  O   UNL     1      98.299  80.882  77.228  1.00  0.00    -0.270 OA
ATOM      5  N   UNL     1      98.191  82.894  76.065  1.00  0.00    -0.339 N 
ATOM      6  C   UNL     1      99.027  82.400  74.966  1.00  0.00     0.120 C 
ATOM      7  C   UNL     1      97.773  84.298  75.936  1.00  0.00     0.120 C 
ATOM      8  C   UNL     1      98.352  82.611  73.615  1.00  0.00     0.022 C 
ATOM      9  C   UNL     1      97.094  84.551  74.590  1.00  0.00     0.022 C 
ATOM     10  C   UNL     1      97.955  84.072  73.425  1.00  0.00     0.004 C 
ENDBRANCH   1   3
BRANCH   2  11
ATOM     11  C   UNL     1      96.930  83.490  80.473  1.00  0.00     0.001 C 
ATOM     12  C   UNL     1      96.865  82.864  81.659  1.00  0.00     0.008 C 
BRANCH  12  13
ATOM     13  C   UNL     1      96.125  83.354  82.833  1.00  0.00    -0.022 A 
ATOM     14  C   UNL     1      95.931  84.720  82.988  1.00  0.00     0.058 A 
ATOM     15  C   UNL     1      95.636  82.430  83.761  1.00  0.00     0.012 A 
ATOM     16  C   UNL     1      95.232  85.131  84.104  1.00  0.00     0.166 A 
ATOM     17  C   UNL     1      94.931  82.874  84.882  1.00  0.00     0.051 A 
ATOM     18  O   UNL     1      94.940  86.419  84.435  1.00  0.00    -0.454 OA
ATOM     19  C   UNL     1      94.745  84.232  85.026  1.00  0.00     0.165 A 
ATOM     20  C   UNL     1      94.216  86.230  85.667  1.00  0.00     0.468 C 
ATOM     21  O   UNL     1      94.088  84.845  86.048  1.00  0.00    -0.454 OA
ENDBRANCH  12  13
ENDBRANCH   2  11
TORSDOF 3
ENDMDL
MODEL 7
REMARK VINA RESULT:    -7.320      2.728      9.313
REMARK INTER + INTRA:          -8.915
REMARK INTER:                  -8.589
REMARK INTRA:                  -0.327
REMARK UNBOUND:                -0.311
REMARK SMILES O=C(/C=C/C=C/c1ccc2c(c1)OCO2)N1CCCCC1
REMARK SMILES IDX 3 1 4 2 2 3 1 4 16 5 17 6 21 7 18 8 20 9 19 10 5 11 6 12
REMARK SMILES IDX 7 13 12 14 8 15 11 16 9 17 13 18 10 19 14 20 15 21
REMARK H PARENT
REMARK Flexibility Score: inf
ROOT
ATOM      1  C   UNL     1      92.782  95.149  77.350  1.00  0.00     0.071 C 
ATOM      2  C   UNL     1      94.101  95.047  77.506  1.00  0.00     0.006 C 
ENDROOT
BRANCH   1   3
ATOM      3  C   UNL     1      92.207  94.773  76.043  1.00  0.00     0.246 C 
ATOM      4  O   UNL     1      92.813  95.127  75.031  1.00  0.00    -0.270 OA
ATOM      5  N   UNL     1      91.015  94.050  76.042  1.00  0.00    -0.339 N 
ATOM      6  C   UNL     1      90.416  93.668  74.760  1.00  0.00     0.120 C 
ATOM      7  C   UNL     1      90.240  93.651  77.226  1.00  0.00     0.120 C 
ATOM      8  C   UNL     1      90.130  92.171  74.703  1.00  0.00     0.022 C 
ATOM      9  C   UNL     1      89.929  92.154  77.205  1.00  0.00     0.022 C 
ATOM     10  C   UNL     1      89.278  91.732  75.890  1.00  0.00     0.004 C 
ENDBRANCH   1   3
BRANCH   2  11
ATOM     11  C   UNL     1      94.757  95.392  78.749  1.00  0.00     0.001 C 
ATOM     12  C   UNL     1      95.618  96.417  78.856  1.00  0.00     0.008 C 
BRANCH  12  13
ATOM     13  C   UNL     1      96.318  96.806  80.092  1.00  0.00    -0.022 A 
ATOM     14  C   UNL     1      97.054  95.851  80.781  1.00  0.00     0.058 A 
ATOM     15  C   UNL     1      96.223  98.127  80.537  1.00  0.00     0.012 A 
ATOM     16  C   UNL     1      97.692  96.264  81.932  1.00  0.00     0.166 A 
ATOM     17  C   UNL     1      96.880  98.517  81.707  1.00  0.00     0.051 A 
ATOM     18  O   UNL     1      98.456  95.482  82.745  1.00  0.00    -0.454 OA
ATOM     19  C   UNL     1      97.608  97.561  82.383  1.00  0.00     0.165 A 
ATOM     20  C   UNL     1      98.843  96.434  83.757  1.00  0.00     0.468 C 
ATOM     21  O   UNL     1      98.309  97.755  83.534  1.00  0.00    -0.454 OA
ENDBRANCH  12  13
ENDBRANCH   2  11
TORSDOF 3
ENDMDL
MODEL 8
REMARK VINA RESULT:    -7.312      6.189      7.820
REMARK INTER + INTRA:          -8.905
REMARK INTER:                  -8.563
REMARK INTRA:                  -0.342
REMARK UNBOUND:                -0.311
REMARK SMILES O=C(/C=C/C=C/c1ccc2c(c1)OCO2)N1CCCCC1
REMARK SMILES IDX 3 1 4 2 2 3 1 4 16 5 17 6 21 7 18 8 20 9 19 10 5 11 6 12
REMARK SMILES IDX 7 13 12 14 8 15 11 16 9 17 13 18 10 19 14 20 15 21
REMARK H PARENT
REMARK Flexibility Score: inf
ROOT
ATOM      1  C   UNL     1      95.606  97.156  72.069  1.00  0.00     0.071 C 
ATOM      2  C   UNL     1      95.167  97.517  73.273  1.00  0.00     0.006 C 
ENDROOT
BRANCH   1   3
ATOM      3  C   UNL     1      96.683  97.957  71.453  1.00  0.00     0.246 C 
ATOM      4  O   UNL     1      97.802  97.894  71.963  1.00  0.00    -0.270 OA
ATOM      5  N   UNL     1      96.360  98.733  70.340  1.00  0.00    -0.339 N 
ATOM      6  C   UNL     1      97.406  99.543  69.710  1.00  0.00     0.120 C 
ATOM      7  C   UNL     1      95.028  98.867  69.732  1.00  0.00     0.120 C 
ATOM      8  C   UNL     1      97.497  99.269  68.213  1.00  0.00     0.022 C 
ATOM      9  C   UNL     1      95.078  98.604  68.227  1.00  0.00     0.022 C 
ATOM     10  C   UNL     1      96.141  99.456  67.540  1.00  0.00     0.004 C 
ENDBRANCH   1   3
BRANCH   2  11
ATOM     11  C   UNL     1      94.115  96.795  73.957  1.00  0.00     0.001 C 
ATOM     12  C   UNL     1      94.279  96.255  75.175  1.00  0.00     0.008 C 
BRANCH  12  13
ATOM     13  C   UNL     1      93.248  95.505  75.912  1.00  0.00    -0.022 A 
ATOM     14  C   UNL     1      92.367  94.696  75.206  1.00  0.00     0.058 A 
ATOM     15  C   UNL     1      93.184  95.627  77.302  1.00  0.00     0.012 A 
ATOM     16  C   UNL     1      91.419  94.013  75.940  1.00  0.00     0.166 A 
ATOM     17  C   UNL     1      92.214  94.924  78.020  1.00  0.00     0.051 A 
ATOM     18  O   UNL     1      90.471  93.176  75.436  1.00  0.00    -0.454 OA
ATOM     19  C   UNL     1      91.344  94.124  77.310  1.00  0.00     0.165 A 
ATOM     20  C   UNL     1      89.791  92.773  76.643  1.00  0.00     0.468 C 
ATOM     21  O   UNL     1      90.341  93.370  77.835  1.00  0.00    -0.454 OA
ENDBRANCH  12  13
ENDBRANCH   2  11
TORSDOF 3
ENDMDL
MODEL 9
REMARK VINA RESULT:    -6.843     13.367     14.841
REMARK INTER + INTRA:          -8.354
REMARK INTER:                  -7.998
REMARK INTRA:                  -0.356
REMARK UNBOUND:                -0.311
REMARK SMILES O=C(/C=C/C=C/c1ccc2c(c1)OCO2)N1CCCCC1
REMARK SMILES IDX 3 1 4 2 2 3 1 4 16 5 17 6 21 7 18 8 20 9 19 10 5 11 6 12
REMARK SMILES IDX 7 13 12 14 8 15 11 16 9 17 13 18 10 19 14 20 15 21
REMARK H PARENT
REMARK Flexibility Score: inf
ROOT
ATOM      1  C   UNL     1      97.391  82.757  78.349  1.00  0.00     0.071 C 
ATOM      2  C   UNL     1      97.389  83.460  79.481  1.00  0.00     0.006 C 
ENDROOT
BRANCH   1   3
ATOM      3  C   UNL     1      97.730  83.460  77.096  1.00  0.00     0.246 C 
ATOM      4  O   UNL     1      97.030  84.422  76.775  1.00  0.00    -0.270 OA
ATOM      5  N   UNL     1      98.814  82.987  76.359  1.00  0.00    -0.339 N 
ATOM      6  C   UNL     1      99.172  83.661  75.107  1.00  0.00     0.120 C 
ATOM      7  C   UNL     1      99.644  81.817  76.686  1.00  0.00     0.120 C 
ATOM      8  C   UNL     1     100.645  84.056  75.088  1.00  0.00     0.022 C 
ATOM      9  C   UNL     1     101.130  82.173  76.674  1.00  0.00     0.022 C 
ATOM     10  C   UNL     1     101.538  82.851  75.369  1.00  0.00     0.004 C 
ENDBRANCH   1   3
BRANCH   2  11
ATOM     11  C   UNL     1      97.069  82.859  80.758  1.00  0.00     0.001 C 
ATOM     12  C   UNL     1      96.431  83.525  81.735  1.00  0.00     0.008 C 
BRANCH  12  13
ATOM     13  C   UNL     1      96.089  82.966  83.054  1.00  0.00    -0.022 A 
ATOM     14  C   UNL     1      95.940  83.826  84.133  1.00  0.00     0.058 A 
ATOM     15  C   UNL     1      95.923  81.585  83.182  1.00  0.00     0.012 A 
ATOM     16  C   UNL     1      95.619  83.255  85.348  1.00  0.00     0.166 A 
ATOM     17  C   UNL     1      95.598  81.034  84.423  1.00  0.00     0.051 A 
ATOM     18  O   UNL     1      95.433  83.924  86.519  1.00  0.00    -0.454 OA
ATOM     19  C   UNL     1      95.452  81.897  85.490  1.00  0.00     0.165 A 
ATOM     20  C   UNL     1      95.130  82.833  87.413  1.00  0.00     0.468 C 
ATOM     21  O   UNL     1      95.141  81.544  86.766  1.00  0.00    -0.454 OA
ENDBRANCH  12  13
ENDBRANCH   2  11
TORSDOF 3
ENDMDL
MODEL 10
REMARK VINA RESULT:    -6.640     16.787     20.253
REMARK INTER + INTRA:          -8.116
REMARK INTER:                  -7.709
REMARK INTRA:                  -0.407
REMARK UNBOUND:                -0.311
REMARK SMILES O=C(/C=C/C=C/c1ccc2c(c1)OCO2)N1CCCCC1
REMARK SMILES IDX 3 1 4 2 2 3 1 4 16 5 17 6 21 7 18 8 20 9 19 10 5 11 6 12
REMARK SMILES IDX 7 13 12 14 8 15 11 16 9 17 13 18 10 19 14 20 15 21
REMARK H PARENT
REMARK Flexibility Score: inf
ROOT
ATOM      1  C   UNL     1      90.815  75.566  83.313  1.00  0.00     0.071 C 
ATOM      2  C   UNL     1      89.975  76.305  84.035  1.00  0.00     0.006 C 
ENDROOT
BRANCH   1   3
ATOM      3  C   UNL     1      90.443  74.165  83.034  1.00  0.00     0.246 C 
ATOM      4  O   UNL     1      90.014  73.492  83.972  1.00  0.00    -0.270 OA
ATOM      5  N   UNL     1      90.607  73.697  81.731  1.00  0.00    -0.339 N 
ATOM      6  C   UNL     1      90.252  72.308  81.424  1.00  0.00     0.120 C 
ATOM      7  C   UNL     1      91.158  74.455  80.598  1.00  0.00     0.120 C 
ATOM      8  C   UNL     1      89.294  72.227  80.240  1.00  0.00     0.022 C 
ATOM      9  C   UNL     1      90.227  74.395  79.387  1.00  0.00     0.022 C 
ATOM     10  C   UNL     1      89.862  72.957  79.027  1.00  0.00     0.004 C 
ENDBRANCH   1   3
BRANCH   2  11
ATOM     11  C   UNL     1      90.253  77.688  84.361  1.00  0.00     0.001 C 
ATOM     12  C   UNL     1      91.370  78.318  83.966  1.00  0.00     0.008 C 
BRANCH  12  13
ATOM     13  C   UNL     1      91.706  79.718  84.276  1.00  0.00    -0.022 A 
ATOM     14  C   UNL     1      92.972  80.018  84.760  1.00  0.00     0.058 A 
ATOM     15  C   UNL     1      90.739  80.707  84.074  1.00  0.00     0.012 A 
ATOM     16  C   UNL     1      93.239  81.343  85.035  1.00  0.00     0.166 A 
ATOM     17  C   UNL     1      91.037  82.041  84.362  1.00  0.00     0.051 A 
ATOM     18  O   UNL     1      94.413  81.838  85.515  1.00  0.00    -0.454 OA
ATOM     19  C   UNL     1      92.297  82.328  84.841  1.00  0.00     0.165 A 
ATOM     20  C   UNL     1      94.104  83.244  85.601  1.00  0.00     0.468 C 
ATOM     21  O   UNL     1      92.763  83.562  85.175  1.00  0.00    -0.454 OA
ENDBRANCH  12  13
ENDBRANCH   2  11
TORSDOF 3
ENDMDL
