MODEL 1
REMARK VINA RESULT:    -6.389      0.000      0.000
REMARK INTER + INTRA:         -11.005
REMARK INTER:                 -10.310
REMARK INTRA:                  -0.695
REMARK UNBOUND:                -0.695
REMARK SMILES CCCCCCCCC(=O)NCc1ccc(O)c(OC)c1
REMARK SMILES IDX 7 1 6 2 5 3 4 4 3 5 2 6 1 7 8 8 9 9 10 10 11 11 12 13 13 14
REMARK SMILES IDX 21 15 14 16 18 17 15 18 16 19 19 20 20 21 17 22
REMARK H PARENT 11 12 17 23
REMARK Flexibility Score: inf
ROOT
ATOM      1  C   UNL     1      91.224  95.444  76.543  1.00  0.00     0.010 C 
ENDROOT
BRANCH   1   2
ATOM      2  C   UNL     1      90.175  94.515  75.868  1.00  0.00     0.001 C 
BRANCH   2   3
ATOM      3  C   UNL     1      89.683  93.389  76.824  1.00  0.00     0.000 C 
BRANCH   3   4
ATOM      4  C   UNL     1      89.903  91.954  76.269  1.00  0.00    -0.000 C 
BRANCH   4   5
ATOM      5  C   UNL     1      90.418  91.951  74.801  1.00  0.00    -0.000 C 
BRANCH   5   6
ATOM      6  C   UNL     1      90.100  90.624  74.060  1.00  0.00    -0.003 C 
ATOM      7  C   UNL     1      89.904  89.432  75.022  1.00  0.00     0.004 C 
ENDBRANCH   5   6
ENDBRANCH   4   5
ENDBRANCH   3   4
ENDBRANCH   2   3
ENDBRANCH   1   2
BRANCH   1   8
ATOM      8  C   UNL     1      91.926  94.810  77.776  1.00  0.00     0.100 C 
BRANCH   8   9
ATOM      9  C   UNL     1      93.401  94.920  77.674  1.00  0.00     0.220 C 
ATOM     10  O   UNL     1      93.924  94.870  76.535  1.00  0.00    -0.275 OA
ATOM     11  N   UNL     1      94.162  95.102  78.793  1.00  0.00    -0.352 N 
ATOM     12  H   UNL     1      93.650  95.041  79.661  1.00  0.00     0.163 HD
BRANCH  11  13
ATOM     13  C   UNL     1      95.569  95.362  78.813  1.00  0.00     0.151 C 
BRANCH  13  14
ATOM     14  C   UNL     1      95.959  96.493  79.697  1.00  0.00    -0.025 A 
ATOM     15  C   UNL     1      96.781  96.263  80.826  1.00  0.00     0.056 A 
ATOM     16  C   UNL     1      95.516  97.809  79.432  1.00  0.00     0.009 A 
ATOM     17  C   UNL     1      97.174  97.331  81.666  1.00  0.00     0.160 A 
ATOM     18  C   UNL     1      95.904  98.876  80.263  1.00  0.00     0.050 A 
ATOM     19  C   UNL     1      96.725  98.641  81.383  1.00  0.00     0.157 A 
BRANCH  17  20
ATOM     20  O   UNL     1      97.936  97.100  82.784  1.00  0.00    -0.493 OA
ATOM     21  C   UNL     1      98.910  96.053  82.626  1.00  0.00     0.278 C 
ENDBRANCH  17  20
BRANCH  19  22
ATOM     22  O   UNL     1      97.071  99.672  82.194  1.00  0.00    -0.504 OA
ATOM     23  H   UNL     1      97.910  99.477  82.620  1.00  0.00     0.293 HD
ENDBRANCH  19  22
ENDBRANCH  13  14
ENDBRANCH  11  13
ENDBRANCH   8   9
ENDBRANCH   1   8
TORSDOF 11
ENDMDL
MODEL 2
REMARK VINA RESULT:    -5.848     12.603     15.513
REMARK INTER + INTRA:         -10.132
REMARK INTER:                  -9.936
REMARK INTRA:                  -0.196
REMARK UNBOUND:                -0.695
REMARK SMILES CCCCCCCCC(=O)NCc1ccc(O)c(OC)c1
REMARK SMILES IDX 7 1 6 2 5 3 4 4 3 5 2 6 1 7 8 8 9 9 10 10 11 11 12 13 13 14
REMARK SMILES IDX 21 15 14 16 18 17 15 18 16 19 19 20 20 21 17 22
REMARK H PARENT 11 12 17 23
REMARK Flexibility Score: inf
ROOT
ATOM      1  C   UNL     1      97.082  82.115  80.757  1.00  0.00     0.010 C 
ENDROOT
BRANCH   1   2
ATOM      2  C   UNL     1      97.095  83.244  79.686  1.00  0.00     0.001 C 
BRANCH   2   3
ATOM      3  C   UNL     1      97.208  82.681  78.239  1.00  0.00     0.000 C 
BRANCH   3   4
ATOM      4  C   UNL     1      97.778  83.701  77.213  1.00  0.00    -0.000 C 
BRANCH   4   5
ATOM      5  C   UNL     1      96.665  84.528  76.508  1.00  0.00    -0.000 C 
BRANCH   5   6
ATOM      6  C   UNL     1      96.801  84.514  74.961  1.00  0.00    -0.003 C 
ATOM      7  C   UNL     1      98.262  84.672  74.486  1.00  0.00     0.004 C 
ENDBRANCH   5   6
ENDBRANCH   4   5
ENDBRANCH   3   4
ENDBRANCH   2   3
ENDBRANCH   1   2
BRANCH   1   8
ATOM      8  C   UNL     1      97.420  82.605  82.193  1.00  0.00     0.100 C 
BRANCH   8   9
ATOM      9  C   UNL     1      96.224  83.165  82.867  1.00  0.00     0.220 C 
ATOM     10  O   UNL     1      95.972  84.384  82.717  1.00  0.00    -0.275 OA
ATOM     11  N   UNL     1      95.406  82.361  83.609  1.00  0.00    -0.352 N 
ATOM     12  H   UNL     1      95.748  81.420  83.735  1.00  0.00     0.163 HD
BRANCH  11  13
ATOM     13  C   UNL     1      94.156  82.748  84.188  1.00  0.00     0.151 C 
BRANCH  13  14
ATOM     14  C   UNL     1      93.216  81.615  84.403  1.00  0.00    -0.025 A 
ATOM     15  C   UNL     1      91.824  81.852  84.493  1.00  0.00     0.056 A 
ATOM     16  C   UNL     1      93.692  80.289  84.524  1.00  0.00     0.009 A 
ATOM     17  C   UNL     1      90.917  80.783  84.680  1.00  0.00     0.160 A 
ATOM     18  C   UNL     1      92.796  79.222  84.708  1.00  0.00     0.050 A 
ATOM     19  C   UNL     1      91.411  79.464  84.795  1.00  0.00     0.157 A 
BRANCH  17  20
ATOM     20  O   UNL     1      89.572  81.019  84.810  1.00  0.00    -0.493 OA
ATOM     21  C   UNL     1      88.784  80.568  83.694  1.00  0.00     0.278 C 
ENDBRANCH  17  20
BRANCH  19  22
ATOM     22  O   UNL     1      90.556  78.430  85.001  1.00  0.00    -0.504 OA
ATOM     23  H   UNL     1      91.034  77.600  84.928  1.00  0.00     0.293 HD
ENDBRANCH  19  22
ENDBRANCH  13  14
ENDBRANCH  11  13
ENDBRANCH   8   9
ENDBRANCH   1   8
TORSDOF 11
ENDMDL
MODEL 3
REMARK VINA RESULT:    -5.824      4.400      6.262
REMARK INTER + INTRA:         -10.094
REMARK INTER:                  -9.389
REMARK INTRA:                  -0.705
REMARK UNBOUND:                -0.695
REMARK SMILES CCCCCCCCC(=O)NCc1ccc(O)c(OC)c1
REMARK SMILES IDX 7 1 6 2 5 3 4 4 3 5 2 6 1 7 8 8 9 9 10 10 11 11 12 13 13 14
REMARK SMILES IDX 21 15 14 16 18 17 15 18 16 19 19 20 20 21 17 22
REMARK H PARENT 11 12 17 23
REMARK Flexibility Score: inf
ROOT
ATOM      1  C   UNL     1      93.731  94.874  77.720  1.00  0.00     0.010 C 
ENDROOT
BRANCH   1   2
ATOM      2  C   UNL     1      92.188  94.862  77.919  1.00  0.00     0.001 C 
BRANCH   2   3
ATOM      3  C   UNL     1      91.448  95.694  76.830  1.00  0.00     0.000 C 
BRANCH   3   4
ATOM      4  C   UNL     1      90.369  94.888  76.052  1.00  0.00    -0.000 C 
BRANCH   4   5
ATOM      5  C   UNL     1      89.520  93.972  76.978  1.00  0.00    -0.000 C 
BRANCH   5   6
ATOM      6  C   UNL     1      89.879  92.469  76.822  1.00  0.00    -0.003 C 
ATOM      7  C   UNL     1      89.942  92.018  75.346  1.00  0.00     0.004 C 
ENDBRANCH   5   6
ENDBRANCH   4   5
ENDBRANCH   3   4
ENDBRANCH   2   3
ENDBRANCH   1   2
BRANCH   1   8
ATOM      8  C   UNL     1      94.482  95.845  78.674  1.00  0.00     0.100 C 
BRANCH   8   9
ATOM      9  C   UNL     1      94.838  97.109  77.985  1.00  0.00     0.220 C 
ATOM     10  O   UNL     1      95.485  97.973  78.624  1.00  0.00    -0.275 OA
ATOM     11  N   UNL     1      94.492  97.309  76.680  1.00  0.00    -0.352 N 
ATOM     12  H   UNL     1      93.900  96.591  76.290  1.00  0.00     0.163 HD
BRANCH  11  13
ATOM     13  C   UNL     1      94.897  98.417  75.869  1.00  0.00     0.151 C 
BRANCH  13  14
ATOM     14  C   UNL     1      95.436  98.023  74.539  1.00  0.00    -0.025 A 
ATOM     15  C   UNL     1      96.795  98.262  74.223  1.00  0.00     0.056 A 
ATOM     16  C   UNL     1      94.607  97.410  73.571  1.00  0.00     0.009 A 
ATOM     17  C   UNL     1      97.326  97.877  72.970  1.00  0.00     0.160 A 
ATOM     18  C   UNL     1      95.130  97.025  72.324  1.00  0.00     0.050 A 
ATOM     19  C   UNL     1      96.483  97.263  72.017  1.00  0.00     0.157 A 
BRANCH  17  20
ATOM     20  O   UNL     1      98.632  98.148  72.650  1.00  0.00    -0.493 OA
ATOM     21  C   UNL     1      98.909  99.543  72.435  1.00  0.00     0.278 C 
ENDBRANCH  17  20
BRANCH  19  22
ATOM     22  O   UNL     1      96.971  96.912  70.800  1.00  0.00    -0.504 OA
ATOM     23  H   UNL     1      96.254  96.594  70.247  1.00  0.00     0.293 HD
ENDBRANCH  19  22
ENDBRANCH  13  14
ENDBRANCH  11  13
ENDBRANCH   8   9
ENDBRANCH   1   8
TORSDOF 11
ENDMDL
MODEL 4
REMARK VINA RESULT:    -5.678     13.133     15.802
REMARK INTER + INTRA:          -9.858
REMARK INTER:                  -9.340
REMARK INTRA:                  -0.518
REMARK UNBOUND:                -0.695
REMARK SMILES CCCCCCCCC(=O)NCc1ccc(O)c(OC)c1
REMARK SMILES IDX 7 1 6 2 5 3 4 4 3 5 2 6 1 7 8 8 9 9 10 10 11 11 12 13 13 14
REMARK SMILES IDX 21 15 14 16 18 17 15 18 16 19 19 20 20 21 17 22
REMARK H PARENT 11 12 17 23
REMARK Flexibility Score: inf
ROOT
ATOM      1  C   UNL     1      96.264  82.592  82.639  1.00  0.00     0.010 C 
ENDROOT
BRANCH   1   2
ATOM      2  C   UNL     1      96.921  82.859  81.254  1.00  0.00     0.001 C 
BRANCH   2   3
ATOM      3  C   UNL     1      97.527  81.567  80.631  1.00  0.00     0.000 C 
BRANCH   3   4
ATOM      4  C   UNL     1      98.377  81.826  79.355  1.00  0.00    -0.000 C 
BRANCH   4   5
ATOM      5  C   UNL     1      97.737  81.220  78.074  1.00  0.00    -0.000 C 
BRANCH   5   6
ATOM      6  C   UNL     1      97.801  82.187  76.861  1.00  0.00    -0.003 C 
ATOM      7  C   UNL     1      97.707  83.673  77.273  1.00  0.00     0.004 C 
ENDBRANCH   5   6
ENDBRANCH   4   5
ENDBRANCH   3   4
ENDBRANCH   2   3
ENDBRANCH   1   2
BRANCH   1   8
ATOM      8  C   UNL     1      95.838  83.883  83.393  1.00  0.00     0.100 C 
BRANCH   8   9
ATOM      9  C   UNL     1      94.944  83.572  84.534  1.00  0.00     0.220 C 
ATOM     10  O   UNL     1      95.349  83.823  85.694  1.00  0.00    -0.275 OA
ATOM     11  N   UNL     1      93.700  83.053  84.319  1.00  0.00    -0.352 N 
ATOM     12  H   UNL     1      93.509  82.809  83.357  1.00  0.00     0.163 HD
BRANCH  11  13
ATOM     13  C   UNL     1      92.697  82.843  85.318  1.00  0.00     0.151 C 
BRANCH  13  14
ATOM     14  C   UNL     1      91.568  81.987  84.866  1.00  0.00    -0.025 A 
ATOM     15  C   UNL     1      90.239  82.473  84.920  1.00  0.00     0.056 A 
ATOM     16  C   UNL     1      91.796  80.679  84.380  1.00  0.00     0.009 A 
ATOM     17  C   UNL     1      89.157  81.677  84.478  1.00  0.00     0.160 A 
ATOM     18  C   UNL     1      90.725  79.882  83.938  1.00  0.00     0.050 A 
ATOM     19  C   UNL     1      89.406  80.373  83.992  1.00  0.00     0.157 A 
BRANCH  17  20
ATOM     20  O   UNL     1      87.867  82.134  84.571  1.00  0.00    -0.493 OA
ATOM     21  C   UNL     1      87.727  83.354  85.320  1.00  0.00     0.278 C 
ENDBRANCH  17  20
BRANCH  19  22
ATOM     22  O   UNL     1      88.376  79.587  83.588  1.00  0.00    -0.504 OA
ATOM     23  H   UNL     1      88.281  78.848  84.194  1.00  0.00     0.293 HD
ENDBRANCH  19  22
ENDBRANCH  13  14
ENDBRANCH  11  13
ENDBRANCH   8   9
ENDBRANCH   1   8
TORSDOF 11
ENDMDL
MODEL 5
REMARK VINA RESULT:    -5.630      1.745      2.496
REMARK INTER + INTRA:          -9.780
REMARK INTER:                  -9.261
REMARK INTRA:                  -0.519
REMARK UNBOUND:                -0.695
REMARK SMILES CCCCCCCCC(=O)NCc1ccc(O)c(OC)c1
REMARK SMILES IDX 7 1 6 2 5 3 4 4 3 5 2 6 1 7 8 8 9 9 10 10 11 11 12 13 13 14
REMARK SMILES IDX 21 15 14 16 18 17 15 18 16 19 19 20 20 21 17 22
REMARK H PARENT 11 12 17 23
REMARK Flexibility Score: inf
ROOT
ATOM      1  C   UNL     1      93.210  95.535  77.930  1.00  0.00     0.010 C 
ENDROOT
BRANCH   1   2
ATOM      2  C   UNL     1      91.859  94.774  77.798  1.00  0.00     0.001 C 
BRANCH   2   3
ATOM      3  C   UNL     1      90.938  95.395  76.707  1.00  0.00     0.000 C 
BRANCH   3   4
ATOM      4  C   UNL     1      90.616  94.427  75.534  1.00  0.00    -0.000 C 
BRANCH   4   5
ATOM      5  C   UNL     1      90.320  92.978  76.016  1.00  0.00    -0.000 C 
BRANCH   5   6
ATOM      6  C   UNL     1      90.164  91.979  74.838  1.00  0.00    -0.003 C 
ATOM      7  C   UNL     1      89.608  90.608  75.283  1.00  0.00     0.004 C 
ENDBRANCH   5   6
ENDBRANCH   4   5
ENDBRANCH   3   4
ENDBRANCH   2   3
ENDBRANCH   1   2
BRANCH   1   8
ATOM      8  C   UNL     1      94.237  94.837  78.865  1.00  0.00     0.100 C 
BRANCH   8   9
ATOM      9  C   UNL     1      95.472  95.644  79.009  1.00  0.00     0.220 C 
ATOM     10  O   UNL     1      96.063  96.018  77.968  1.00  0.00    -0.275 OA
ATOM     11  N   UNL     1      95.933  95.993  80.246  1.00  0.00    -0.352 N 
ATOM     12  H   UNL     1      95.433  95.568  81.013  1.00  0.00     0.163 HD
BRANCH  11  13
ATOM     13  C   UNL     1      97.024  96.880  80.512  1.00  0.00     0.151 C 
BRANCH  13  14
ATOM     14  C   UNL     1      96.660  98.042  81.367  1.00  0.00    -0.025 A 
ATOM     15  C   UNL     1      97.450  98.371  82.494  1.00  0.00     0.056 A 
ATOM     16  C   UNL     1      95.524  98.831  81.075  1.00  0.00     0.009 A 
ATOM     17  C   UNL     1      97.127  99.483  83.306  1.00  0.00     0.160 A 
ATOM     18  C   UNL     1      95.198  99.939  81.878  1.00  0.00     0.050 A 
ATOM     19  C   UNL     1      95.990 100.263  82.996  1.00  0.00     0.157 A 
BRANCH  17  20
ATOM     20  O   UNL     1      97.869  99.776  84.422  1.00  0.00    -0.493 OA
ATOM     21  C   UNL     1      98.378  98.620  85.111  1.00  0.00     0.278 C 
ENDBRANCH  17  20
BRANCH  19  22
ATOM     22  O   UNL     1      95.651 101.317  83.781  1.00  0.00    -0.504 OA
ATOM     23  H   UNL     1      95.536 102.099  83.235  1.00  0.00     0.293 HD
ENDBRANCH  19  22
ENDBRANCH  13  14
ENDBRANCH  11  13
ENDBRANCH   8   9
ENDBRANCH   1   8
TORSDOF 11
ENDMDL
MODEL 6
REMARK VINA RESULT:    -5.614     15.976     18.606
REMARK INTER + INTRA:          -9.754
REMARK INTER:                  -9.097
REMARK INTRA:                  -0.657
REMARK UNBOUND:                -0.695
REMARK SMILES CCCCCCCCC(=O)NCc1ccc(O)c(OC)c1
REMARK SMILES IDX 7 1 6 2 5 3 4 4 3 5 2 6 1 7 8 8 9 9 10 10 11 11 12 13 13 14
REMARK SMILES IDX 21 15 14 16 18 17 15 18 16 19 19 20 20 21 17 22
REMARK H PARENT 11 12 17 23
REMARK Flexibility Score: inf
ROOT
ATOM      1  C   UNL     1      91.494  74.108  81.131  1.00  0.00     0.010 C 
ENDROOT
BRANCH   1   2
ATOM      2  C   UNL     1      91.105  75.162  80.054  1.00  0.00     0.001 C 
BRANCH   2   3
ATOM      3  C   UNL     1      90.328  74.528  78.863  1.00  0.00     0.000 C 
BRANCH   3   4
ATOM      4  C   UNL     1      90.358  75.387  77.567  1.00  0.00    -0.000 C 
BRANCH   4   5
ATOM      5  C   UNL     1      91.231  76.666  77.715  1.00  0.00    -0.000 C 
BRANCH   5   6
ATOM      6  C   UNL     1      91.167  77.579  76.461  1.00  0.00    -0.003 C 
ATOM      7  C   UNL     1      90.041  77.178  75.483  1.00  0.00     0.004 C 
ENDBRANCH   5   6
ENDBRANCH   4   5
ENDBRANCH   3   4
ENDBRANCH   2   3
ENDBRANCH   1   2
BRANCH   1   8
ATOM      8  C   UNL     1      90.866  74.373  82.527  1.00  0.00     0.100 C 
BRANCH   8   9
ATOM      9  C   UNL     1      91.786  75.146  83.395  1.00  0.00     0.220 C 
ATOM     10  O   UNL     1      92.733  74.539  83.949  1.00  0.00    -0.275 OA
ATOM     11  N   UNL     1      91.617  76.491  83.560  1.00  0.00    -0.352 N 
ATOM     12  H   UNL     1      90.777  76.861  83.141  1.00  0.00     0.163 HD
BRANCH  11  13
ATOM     13  C   UNL     1      92.513  77.367  84.252  1.00  0.00     0.151 C 
BRANCH  13  14
ATOM     14  C   UNL     1      92.060  78.783  84.290  1.00  0.00    -0.025 A 
ATOM     15  C   UNL     1      90.734  79.117  83.922  1.00  0.00     0.056 A 
ATOM     16  C   UNL     1      92.938  79.817  84.688  1.00  0.00     0.009 A 
ATOM     17  C   UNL     1      90.284  80.456  83.970  1.00  0.00     0.160 A 
ATOM     18  C   UNL     1      92.496  81.151  84.739  1.00  0.00     0.050 A 
ATOM     19  C   UNL     1      91.175  81.476  84.374  1.00  0.00     0.157 A 
BRANCH  17  20
ATOM     20  O   UNL     1      89.012  80.783  83.572  1.00  0.00    -0.493 OA
ATOM     21  C   UNL     1      87.974  80.152  84.342  1.00  0.00     0.278 C 
ENDBRANCH  17  20
BRANCH  19  22
ATOM     22  O   UNL     1      90.766  82.770  84.400  1.00  0.00    -0.504 OA
ATOM     23  H   UNL     1      90.213  82.915  85.171  1.00  0.00     0.293 HD
ENDBRANCH  19  22
ENDBRANCH  13  14
ENDBRANCH  11  13
ENDBRANCH   8   9
ENDBRANCH   1   8
TORSDOF 11
ENDMDL
MODEL 7
REMARK VINA RESULT:    -5.409     21.408     24.979
REMARK INTER + INTRA:          -9.425
REMARK INTER:                  -8.455
REMARK INTRA:                  -0.970
REMARK UNBOUND:                -0.695
REMARK SMILES CCCCCCCCC(=O)NCc1ccc(O)c(OC)c1
REMARK SMILES IDX 7 1 6 2 5 3 4 4 3 5 2 6 1 7 8 8 9 9 10 10 11 11 12 13 13 14
REMARK SMILES IDX 21 15 14 16 18 17 15 18 16 19 19 20 20 21 17 22
REMARK H PARENT 11 12 17 23
REMARK Flexibility Score: inf
ROOT
ATOM      1  C   UNL     1      76.613  88.728  66.783  1.00  0.00     0.010 C 
ENDROOT
BRANCH   1   2
ATOM      2  C   UNL     1      75.469  89.606  67.367  1.00  0.00     0.001 C 
BRANCH   2   3
ATOM      3  C   UNL     1      75.585  89.774  68.911  1.00  0.00     0.000 C 
BRANCH   3   4
ATOM      4  C   UNL     1      74.450  89.066  69.705  1.00  0.00    -0.000 C 
BRANCH   4   5
ATOM      5  C   UNL     1      73.803  89.989  70.777  1.00  0.00    -0.000 C 
BRANCH   5   6
ATOM      6  C   UNL     1      74.184  91.482  70.587  1.00  0.00    -0.003 C 
ATOM      7  C   UNL     1      74.228  92.263  71.918  1.00  0.00     0.004 C 
ENDBRANCH   5   6
ENDBRANCH   4   5
ENDBRANCH   3   4
ENDBRANCH   2   3
ENDBRANCH   1   2
BRANCH   1   8
ATOM      8  C   UNL     1      77.563  88.134  67.861  1.00  0.00     0.100 C 
BRANCH   8   9
ATOM      9  C   UNL     1      77.355  86.674  68.018  1.00  0.00     0.220 C 
ATOM     10  O   UNL     1      77.406  86.186  69.172  1.00  0.00    -0.275 OA
ATOM     11  N   UNL     1      77.086  85.891  66.932  1.00  0.00    -0.352 N 
ATOM     12  H   UNL     1      77.154  86.368  66.045  1.00  0.00     0.163 HD
BRANCH  11  13
ATOM     13  C   UNL     1      76.729  84.505  66.969  1.00  0.00     0.151 C 
BRANCH  13  14
ATOM     14  C   UNL     1      75.350  84.226  66.488  1.00  0.00    -0.025 A 
ATOM     15  C   UNL     1      74.259  84.986  66.975  1.00  0.00     0.056 A 
ATOM     16  C   UNL     1      75.102  83.202  65.545  1.00  0.00     0.009 A 
ATOM     17  C   UNL     1      72.944  84.744  66.514  1.00  0.00     0.160 A 
ATOM     18  C   UNL     1      73.797  82.957  65.082  1.00  0.00     0.050 A 
ATOM     19  C   UNL     1      72.716  83.718  65.568  1.00  0.00     0.157 A 
BRANCH  17  20
ATOM     20  O   UNL     1      71.883  85.452  67.018  1.00  0.00    -0.493 OA
ATOM     21  C   UNL     1      71.487  85.058  68.343  1.00  0.00     0.278 C 
ENDBRANCH  17  20
BRANCH  19  22
ATOM     22  O   UNL     1      71.456  83.456  65.136  1.00  0.00    -0.504 OA
ATOM     23  H   UNL     1      70.823  83.876  65.722  1.00  0.00     0.293 HD
ENDBRANCH  19  22
ENDBRANCH  13  14
ENDBRANCH  11  13
ENDBRANCH   8   9
ENDBRANCH   1   8
TORSDOF 11
ENDMDL
MODEL 8
REMARK VINA RESULT:    -5.375     12.423     15.144
REMARK INTER + INTRA:          -9.369
REMARK INTER:                  -8.230
REMARK INTRA:                  -1.139
REMARK UNBOUND:                -0.695
REMARK SMILES CCCCCCCCC(=O)NCc1ccc(O)c(OC)c1
REMARK SMILES IDX 7 1 6 2 5 3 4 4 3 5 2 6 1 7 8 8 9 9 10 10 11 11 12 13 13 14
REMARK SMILES IDX 21 15 14 16 18 17 15 18 16 19 19 20 20 21 17 22
REMARK H PARENT 11 12 17 23
REMARK Flexibility Score: inf
ROOT
ATOM      1  C   UNL     1      97.915  79.690  82.675  1.00  0.00     0.010 C 
ENDROOT
BRANCH   1   2
ATOM      2  C   UNL     1      97.581  80.718  83.794  1.00  0.00     0.001 C 
BRANCH   2   3
ATOM      3  C   UNL     1      96.054  80.791  84.089  1.00  0.00     0.000 C 
BRANCH   3   4
ATOM      4  C   UNL     1      95.607  82.124  84.754  1.00  0.00    -0.000 C 
BRANCH   4   5
ATOM      5  C   UNL     1      96.531  83.319  84.383  1.00  0.00    -0.000 C 
BRANCH   5   6
ATOM      6  C   UNL     1      95.967  84.168  83.212  1.00  0.00    -0.003 C 
ATOM      7  C   UNL     1      96.385  83.631  81.826  1.00  0.00     0.004 C 
ENDBRANCH   5   6
ENDBRANCH   4   5
ENDBRANCH   3   4
ENDBRANCH   2   3
ENDBRANCH   1   2
BRANCH   1   8
ATOM      8  C   UNL     1      97.063  79.864  81.386  1.00  0.00     0.100 C 
BRANCH   8   9
ATOM      9  C   UNL     1      97.919  80.114  80.202  1.00  0.00     0.220 C 
ATOM     10  O   UNL     1      98.201  79.145  79.457  1.00  0.00    -0.275 OA
ATOM     11  N   UNL     1      98.362  81.374  79.920  1.00  0.00    -0.352 N 
ATOM     12  H   UNL     1      98.150  82.060  80.629  1.00  0.00     0.163 HD
BRANCH  11  13
ATOM     13  C   UNL     1      99.071  81.766  78.740  1.00  0.00     0.151 C 
BRANCH  13  14
ATOM     14  C   UNL     1      98.290  82.652  77.836  1.00  0.00    -0.025 A 
ATOM     15  C   UNL     1      98.769  82.944  76.536  1.00  0.00     0.056 A 
ATOM     16  C   UNL     1      97.064  83.219  78.255  1.00  0.00     0.009 A 
ATOM     17  C   UNL     1      98.029  83.771  75.660  1.00  0.00     0.160 A 
ATOM     18  C   UNL     1      96.323  84.041  77.387  1.00  0.00     0.050 A 
ATOM     19  C   UNL     1      96.804  84.325  76.095  1.00  0.00     0.157 A 
BRANCH  17  20
ATOM     20  O   UNL     1      98.515  84.087  74.416  1.00  0.00    -0.493 OA
ATOM     21  C   UNL     1      98.170  83.139  73.391  1.00  0.00     0.278 C 
ENDBRANCH  17  20
BRANCH  19  22
ATOM     22  O   UNL     1      96.095  85.142  75.275  1.00  0.00    -0.504 OA
ATOM     23  H   UNL     1      96.699  85.687  74.765  1.00  0.00     0.293 HD
ENDBRANCH  19  22
ENDBRANCH  13  14
ENDBRANCH  11  13
ENDBRANCH   8   9
ENDBRANCH   1   8
TORSDOF 11
ENDMDL
MODEL 9
REMARK VINA RESULT:    -5.346     12.190     14.323
REMARK INTER + INTRA:          -9.322
REMARK INTER:                  -8.362
REMARK INTRA:                  -0.959
REMARK UNBOUND:                -0.695
REMARK SMILES CCCCCCCCC(=O)NCc1ccc(O)c(OC)c1
REMARK SMILES IDX 7 1 6 2 5 3 4 4 3 5 2 6 1 7 8 8 9 9 10 10 11 11 12 13 13 14
REMARK SMILES IDX 21 15 14 16 18 17 15 18 16 19 19 20 20 21 17 22
REMARK H PARENT 11 12 17 23
REMARK Flexibility Score: inf
ROOT
ATOM      1  C   UNL     1      97.960  82.979  79.527  1.00  0.00     0.010 C 
ENDROOT
BRANCH   1   2
ATOM      2  C   UNL     1      97.786  81.654  80.322  1.00  0.00     0.001 C 
BRANCH   2   3
ATOM      3  C   UNL     1      97.773  81.888  81.861  1.00  0.00     0.000 C 
BRANCH   3   4
ATOM      4  C   UNL     1      96.428  81.504  82.542  1.00  0.00    -0.000 C 
BRANCH   4   5
ATOM      5  C   UNL     1      95.761  82.705  83.272  1.00  0.00    -0.000 C 
BRANCH   5   6
ATOM      6  C   UNL     1      96.140  84.071  82.640  1.00  0.00    -0.003 C 
ATOM      7  C   UNL     1      95.830  85.267  83.567  1.00  0.00     0.004 C 
ENDBRANCH   5   6
ENDBRANCH   4   5
ENDBRANCH   3   4
ENDBRANCH   2   3
ENDBRANCH   1   2
BRANCH   1   8
ATOM      8  C   UNL     1      96.638  83.530  78.924  1.00  0.00     0.100 C 
BRANCH   8   9
ATOM      9  C   UNL     1      96.750  83.720  77.458  1.00  0.00     0.220 C 
ATOM     10  O   UNL     1      96.033  84.593  76.913  1.00  0.00    -0.275 OA
ATOM     11  N   UNL     1      97.636  82.979  76.728  1.00  0.00    -0.352 N 
ATOM     12  H   UNL     1      98.098  82.249  77.250  1.00  0.00     0.163 HD
BRANCH  11  13
ATOM     13  C   UNL     1      97.938  83.164  75.342  1.00  0.00     0.151 C 
BRANCH  13  14
ATOM     14  C   UNL     1      99.300  83.706  75.090  1.00  0.00    -0.025 A 
ATOM     15  C   UNL     1     100.442  83.000  75.539  1.00  0.00     0.056 A 
ATOM     16  C   UNL     1      99.480  84.930  74.405  1.00  0.00     0.009 A 
ATOM     17  C   UNL     1     101.743  83.494  75.292  1.00  0.00     0.160 A 
ATOM     18  C   UNL     1     100.772  85.426  74.155  1.00  0.00     0.050 A 
ATOM     19  C   UNL     1     101.903  84.718  74.602  1.00  0.00     0.157 A 
BRANCH  17  20
ATOM     20  O   UNL     1     102.847  82.830  75.765  1.00  0.00    -0.493 OA
ATOM     21  C   UNL     1     103.132  81.599  75.078  1.00  0.00     0.278 C 
ENDBRANCH  17  20
BRANCH  19  22
ATOM     22  O   UNL     1     103.145  85.219  74.380  1.00  0.00    -0.504 OA
ATOM     23  H   UNL     1     103.109  86.178  74.389  1.00  0.00     0.293 HD
ENDBRANCH  19  22
ENDBRANCH  13  14
ENDBRANCH  11  13
ENDBRANCH   8   9
ENDBRANCH   1   8
TORSDOF 11
ENDMDL
MODEL 10
REMARK VINA RESULT:    -5.329     22.210     24.390
REMARK INTER + INTRA:          -9.295
REMARK INTER:                  -7.551
REMARK INTRA:                  -1.744
REMARK UNBOUND:                -0.695
REMARK SMILES CCCCCCCCC(=O)NCc1ccc(O)c(OC)c1
REMARK SMILES IDX 7 1 6 2 5 3 4 4 3 5 2 6 1 7 8 8 9 9 10 10 11 11 12 13 13 14
REMARK SMILES IDX 21 15 14 16 18 17 15 18 16 19 19 20 20 21 17 22
REMARK H PARENT 11 12 17 23
REMARK Flexibility Score: inf
ROOT
ATOM      1  C   UNL     1      76.159  83.704  63.908  1.00  0.00     0.010 C 
ENDROOT
BRANCH   1   2
ATOM      2  C   UNL     1      76.732  83.006  65.175  1.00  0.00     0.001 C 
BRANCH   2   3
ATOM      3  C   UNL     1      77.492  84.000  66.103  1.00  0.00     0.000 C 
BRANCH   3   4
ATOM      4  C   UNL     1      76.558  84.847  67.013  1.00  0.00    -0.000 C 
BRANCH   4   5
ATOM      5  C   UNL     1      77.301  85.450  68.239  1.00  0.00    -0.000 C 
BRANCH   5   6
ATOM      6  C   UNL     1      76.377  85.606  69.477  1.00  0.00    -0.003 C 
ATOM      7  C   UNL     1      75.942  84.251  70.076  1.00  0.00     0.004 C 
ENDBRANCH   5   6
ENDBRANCH   4   5
ENDBRANCH   3   4
ENDBRANCH   2   3
ENDBRANCH   1   2
BRANCH   1   8
ATOM      8  C   UNL     1      74.631  83.498  63.712  1.00  0.00     0.100 C 
BRANCH   8   9
ATOM      9  C   UNL     1      73.872  84.723  64.061  1.00  0.00     0.220 C 
ATOM     10  O   UNL     1      72.639  84.621  64.267  1.00  0.00    -0.275 OA
ATOM     11  N   UNL     1      74.510  85.924  64.182  1.00  0.00    -0.352 N 
ATOM     12  H   UNL     1      75.482  85.909  63.911  1.00  0.00     0.163 HD
BRANCH  11  13
ATOM     13  C   UNL     1      73.919  87.141  64.648  1.00  0.00     0.151 C 
BRANCH  13  14
ATOM     14  C   UNL     1      74.664  87.782  65.765  1.00  0.00    -0.025 A 
ATOM     15  C   UNL     1      74.042  87.965  67.023  1.00  0.00     0.056 A 
ATOM     16  C   UNL     1      75.997  88.222  65.591  1.00  0.00     0.009 A 
ATOM     17  C   UNL     1      74.744  88.557  68.099  1.00  0.00     0.160 A 
ATOM     18  C   UNL     1      76.700  88.811  66.658  1.00  0.00     0.050 A 
ATOM     19  C   UNL     1      76.076  88.987  67.908  1.00  0.00     0.157 A 
BRANCH  17  20
ATOM     20  O   UNL     1      74.126  88.772  69.305  1.00  0.00    -0.493 OA
ATOM     21  C   UNL     1      72.698  88.919  69.217  1.00  0.00     0.278 C 
ENDBRANCH  17  20
BRANCH  19  22
ATOM     22  O   UNL     1      76.754  89.581  68.923  1.00  0.00    -0.504 OA
ATOM     23  H   UNL     1      77.628  89.190  68.996  1.00  0.00     0.293 HD
ENDBRANCH  19  22
ENDBRANCH  13  14
ENDBRANCH  11  13
ENDBRANCH   8   9
ENDBRANCH   1   8
TORSDOF 11
ENDMDL
