MODEL 1
REMARK VINA RESULT:    -5.263      0.000      0.000
REMARK INTER + INTRA:         -10.055
REMARK INTER:                  -8.494
REMARK INTRA:                  -1.561
REMARK UNBOUND:                -1.561
REMARK SMILES CCCCCCCCC(=O)NCc1ccc(O)c(OC)c1
REMARK SMILES IDX 7 1 6 2 5 3 4 4 3 5 2 6 1 7 8 8 9 9 10 10 11 11 12 13 13 14
REMARK SMILES IDX 21 15 14 16 18 17 15 18 16 19 19 20 20 21 17 22
REMARK H PARENT 11 12 17 23
REMARK Flexibility Score: inf
ROOT
ATOM      1  C   UNL     1      72.002  81.751  64.685  1.00  0.00     0.010 C 
ENDROOT
BRANCH   1   2
ATOM      2  C   UNL     1      72.490  80.393  64.103  1.00  0.00     0.001 C 
BRANCH   2   3
ATOM      3  C   UNL     1      73.506  80.583  62.938  1.00  0.00     0.000 C 
BRANCH   3   4
ATOM      4  C   UNL     1      74.556  81.700  63.198  1.00  0.00    -0.000 C 
BRANCH   4   5
ATOM      5  C   UNL     1      75.839  81.166  63.897  1.00  0.00    -0.000 C 
BRANCH   5   6
ATOM      6  C   UNL     1      75.942  81.618  65.378  1.00  0.00    -0.003 C 
ATOM      7  C   UNL     1      77.133  82.567  65.635  1.00  0.00     0.004 C 
ENDBRANCH   5   6
ENDBRANCH   4   5
ENDBRANCH   3   4
ENDBRANCH   2   3
ENDBRANCH   1   2
BRANCH   1   8
ATOM      8  C   UNL     1      72.220  81.893  66.218  1.00  0.00     0.100 C 
BRANCH   8   9
ATOM      9  C   UNL     1      72.434  83.309  66.604  1.00  0.00     0.220 C 
ATOM     10  O   UNL     1      71.690  83.805  67.483  1.00  0.00    -0.275 OA
ATOM     11  N   UNL     1      73.437  84.039  66.033  1.00  0.00    -0.352 N 
ATOM     12  H   UNL     1      73.917  83.572  65.278  1.00  0.00     0.163 HD
BRANCH  11  13
ATOM     13  C   UNL     1      73.832  85.359  66.419  1.00  0.00     0.151 C 
BRANCH  13  14
ATOM     14  C   UNL     1      75.171  85.422  67.063  1.00  0.00    -0.025 A 
ATOM     15  C   UNL     1      75.437  84.662  68.228  1.00  0.00     0.056 A 
ATOM     16  C   UNL     1      76.197  86.238  66.532  1.00  0.00     0.009 A 
ATOM     17  C   UNL     1      76.711  84.698  68.842  1.00  0.00     0.160 A 
ATOM     18  C   UNL     1      77.465  86.277  67.137  1.00  0.00     0.050 A 
ATOM     19  C   UNL     1      77.724  85.517  68.294  1.00  0.00     0.157 A 
BRANCH  17  20
ATOM     20  O   UNL     1      76.954  83.994  69.994  1.00  0.00    -0.493 OA
ATOM     21  C   UNL     1      76.084  84.336  71.088  1.00  0.00     0.278 C 
ENDBRANCH  17  20
BRANCH  19  22
ATOM     22  O   UNL     1      78.944  85.582  68.887  1.00  0.00    -0.504 OA
ATOM     23  H   UNL     1      79.581  85.947  68.268  1.00  0.00     0.293 HD
ENDBRANCH  19  22
ENDBRANCH  13  14
ENDBRANCH  11  13
ENDBRANCH   8   9
ENDBRANCH   1   8
TORSDOF 11
ENDMDL
MODEL 2
REMARK VINA RESULT:    -5.040     24.162     27.660
REMARK INTER + INTRA:          -9.694
REMARK INTER:                  -8.720
REMARK INTRA:                  -0.974
REMARK UNBOUND:                -1.561
REMARK SMILES CCCCCCCCC(=O)NCc1ccc(O)c(OC)c1
REMARK SMILES IDX 7 1 6 2 5 3 4 4 3 5 2 6 1 7 8 8 9 9 10 10 11 11 12 13 13 14
REMARK SMILES IDX 21 15 14 16 18 17 15 18 16 19 19 20 20 21 17 22
REMARK H PARENT 11 12 17 23
REMARK Flexibility Score: inf
ROOT
ATOM      1  C   UNL     1      95.123  95.335  77.922  1.00  0.00     0.010 C 
ENDROOT
BRANCH   1   2
ATOM      2  C   UNL     1      94.056  95.174  76.801  1.00  0.00     0.001 C 
BRANCH   2   3
ATOM      3  C   UNL     1      92.746  95.955  77.118  1.00  0.00     0.000 C 
BRANCH   3   4
ATOM      4  C   UNL     1      91.941  95.370  78.312  1.00  0.00    -0.000 C 
BRANCH   4   5
ATOM      5  C   UNL     1      91.608  93.861  78.130  1.00  0.00    -0.000 C 
BRANCH   5   6
ATOM      6  C   UNL     1      90.116  93.542  78.414  1.00  0.00    -0.003 C 
ATOM      7  C   UNL     1      89.148  94.352  77.524  1.00  0.00     0.004 C 
ENDBRANCH   5   6
ENDBRANCH   4   5
ENDBRANCH   3   4
ENDBRANCH   2   3
ENDBRANCH   1   2
BRANCH   1   8
ATOM      8  C   UNL     1      95.367  94.041  78.748  1.00  0.00     0.100 C 
BRANCH   8   9
ATOM      9  C   UNL     1      95.150  94.275  80.196  1.00  0.00     0.220 C 
ATOM     10  O   UNL     1      94.097  93.839  80.718  1.00  0.00    -0.275 OA
ATOM     11  N   UNL     1      96.091  94.925  80.942  1.00  0.00    -0.352 N 
ATOM     12  H   UNL     1      96.857  95.309  80.407  1.00  0.00     0.163 HD
BRANCH  11  13
ATOM     13  C   UNL     1      96.065  95.088  82.363  1.00  0.00     0.151 C 
BRANCH  13  14
ATOM     14  C   UNL     1      95.959  96.504  82.805  1.00  0.00    -0.025 A 
ATOM     15  C   UNL     1      96.674  96.951  83.941  1.00  0.00     0.056 A 
ATOM     16  C   UNL     1      95.145  97.425  82.105  1.00  0.00     0.009 A 
ATOM     17  C   UNL     1      96.598  98.299  84.362  1.00  0.00     0.160 A 
ATOM     18  C   UNL     1      95.066  98.767  82.518  1.00  0.00     0.050 A 
ATOM     19  C   UNL     1      95.782  99.206  83.648  1.00  0.00     0.157 A 
BRANCH  17  20
ATOM     20  O   UNL     1      97.258  98.721  85.489  1.00  0.00    -0.493 OA
ATOM     21  C   UNL     1      96.756  98.155  86.712  1.00  0.00     0.278 C 
ENDBRANCH  17  20
BRANCH  19  22
ATOM     22  O   UNL     1      95.677 100.496  84.055  1.00  0.00    -0.504 OA
ATOM     23  H   UNL     1      96.522 100.793  84.401  1.00  0.00     0.293 HD
ENDBRANCH  19  22
ENDBRANCH  13  14
ENDBRANCH  11  13
ENDBRANCH   8   9
ENDBRANCH   1   8
TORSDOF 11
ENDMDL
MODEL 3
REMARK VINA RESULT:    -5.020      2.149      3.414
REMARK INTER + INTRA:          -9.663
REMARK INTER:                  -8.743
REMARK INTRA:                  -0.919
REMARK UNBOUND:                -1.561
REMARK SMILES CCCCCCCCC(=O)NCc1ccc(O)c(OC)c1
REMARK SMILES IDX 7 1 6 2 5 3 4 4 3 5 2 6 1 7 8 8 9 9 10 10 11 11 12 13 13 14
REMARK SMILES IDX 21 15 14 16 18 17 15 18 16 19 19 20 20 21 17 22
REMARK H PARENT 11 12 17 23
REMARK Flexibility Score: inf
ROOT
ATOM      1  C   UNL     1      75.149  81.136  63.532  1.00  0.00     0.010 C 
ENDROOT
BRANCH   1   2
ATOM      2  C   UNL     1      73.723  80.515  63.552  1.00  0.00     0.001 C 
BRANCH   2   3
ATOM      3  C   UNL     1      72.656  81.470  62.939  1.00  0.00     0.000 C 
BRANCH   3   4
ATOM      4  C   UNL     1      71.411  81.684  63.846  1.00  0.00    -0.000 C 
BRANCH   4   5
ATOM      5  C   UNL     1      71.186  83.178  64.214  1.00  0.00    -0.000 C 
BRANCH   5   6
ATOM      6  C   UNL     1      71.836  83.562  65.571  1.00  0.00    -0.003 C 
ATOM      7  C   UNL     1      72.299  82.333  66.384  1.00  0.00     0.004 C 
ENDBRANCH   5   6
ENDBRANCH   4   5
ENDBRANCH   3   4
ENDBRANCH   2   3
ENDBRANCH   1   2
BRANCH   1   8
ATOM      8  C   UNL     1      75.707  81.479  64.942  1.00  0.00     0.100 C 
BRANCH   8   9
ATOM      9  C   UNL     1      76.677  82.598  64.881  1.00  0.00     0.220 C 
ATOM     10  O   UNL     1      76.728  83.286  63.833  1.00  0.00    -0.275 OA
ATOM     11  N   UNL     1      77.473  82.886  65.953  1.00  0.00    -0.352 N 
ATOM     12  H   UNL     1      77.413  82.219  66.708  1.00  0.00     0.163 HD
BRANCH  11  13
ATOM     13  C   UNL     1      78.341  84.017  66.069  1.00  0.00     0.151 C 
BRANCH  13  14
ATOM     14  C   UNL     1      77.915  84.999  67.103  1.00  0.00    -0.025 A 
ATOM     15  C   UNL     1      77.861  84.620  68.465  1.00  0.00     0.056 A 
ATOM     16  C   UNL     1      77.554  86.318  66.746  1.00  0.00     0.009 A 
ATOM     17  C   UNL     1      77.474  85.547  69.461  1.00  0.00     0.160 A 
ATOM     18  C   UNL     1      77.170  87.245  67.731  1.00  0.00     0.050 A 
ATOM     19  C   UNL     1      77.121  86.863  69.086  1.00  0.00     0.157 A 
BRANCH  17  20
ATOM     20  O   UNL     1      77.382  85.166  70.776  1.00  0.00    -0.493 OA
ATOM     21  C   UNL     1      76.423  84.123  71.021  1.00  0.00     0.278 C 
ENDBRANCH  17  20
BRANCH  19  22
ATOM     22  O   UNL     1      76.722  87.757  70.026  1.00  0.00    -0.504 OA
ATOM     23  H   UNL     1      75.763  87.764  70.075  1.00  0.00     0.293 HD
ENDBRANCH  19  22
ENDBRANCH  13  14
ENDBRANCH  11  13
ENDBRANCH   8   9
ENDBRANCH   1   8
TORSDOF 11
ENDMDL
MODEL 4
REMARK VINA RESULT:    -4.905     23.448     26.880
REMARK INTER + INTRA:          -9.476
REMARK INTER:                  -8.608
REMARK INTRA:                  -0.869
REMARK UNBOUND:                -1.561
REMARK SMILES CCCCCCCCC(=O)NCc1ccc(O)c(OC)c1
REMARK SMILES IDX 7 1 6 2 5 3 4 4 3 5 2 6 1 7 8 8 9 9 10 10 11 11 12 13 13 14
REMARK SMILES IDX 21 15 14 16 18 17 15 18 16 19 19 20 20 21 17 22
REMARK H PARENT 11 12 17 23
REMARK Flexibility Score: inf
ROOT
ATOM      1  C   UNL     1      92.728  95.375  78.594  1.00  0.00     0.010 C 
ENDROOT
BRANCH   1   2
ATOM      2  C   UNL     1      91.301  95.246  77.989  1.00  0.00     0.001 C 
BRANCH   2   3
ATOM      3  C   UNL     1      90.503  94.061  78.609  1.00  0.00     0.000 C 
BRANCH   3   4
ATOM      4  C   UNL     1      89.462  93.432  77.642  1.00  0.00    -0.000 C 
BRANCH   4   5
ATOM      5  C   UNL     1      89.637  93.916  76.174  1.00  0.00    -0.000 C 
BRANCH   5   6
ATOM      6  C   UNL     1      89.989  92.757  75.202  1.00  0.00    -0.003 C 
ATOM      7  C   UNL     1      91.251  91.978  75.631  1.00  0.00     0.004 C 
ENDBRANCH   5   6
ENDBRANCH   4   5
ENDBRANCH   3   4
ENDBRANCH   2   3
ENDBRANCH   1   2
BRANCH   1   8
ATOM      8  C   UNL     1      93.293  94.044  79.165  1.00  0.00     0.100 C 
BRANCH   8   9
ATOM      9  C   UNL     1      94.410  94.291  80.108  1.00  0.00     0.220 C 
ATOM     10  O   UNL     1      94.470  93.602  81.154  1.00  0.00    -0.275 OA
ATOM     11  N   UNL     1      95.363  95.227  79.824  1.00  0.00    -0.352 N 
ATOM     12  H   UNL     1      95.172  95.782  79.002  1.00  0.00     0.163 HD
BRANCH  11  13
ATOM     13  C   UNL     1      96.558  95.459  80.577  1.00  0.00     0.151 C 
BRANCH  13  14
ATOM     14  C   UNL     1      96.419  96.517  81.614  1.00  0.00    -0.025 A 
ATOM     15  C   UNL     1      97.440  96.710  82.575  1.00  0.00     0.056 A 
ATOM     16  C   UNL     1      95.271  97.342  81.661  1.00  0.00     0.009 A 
ATOM     17  C   UNL     1      97.329  97.723  83.555  1.00  0.00     0.160 A 
ATOM     18  C   UNL     1      95.156  98.351  82.633  1.00  0.00     0.050 A 
ATOM     19  C   UNL     1      96.177  98.540  83.585  1.00  0.00     0.157 A 
BRANCH  17  20
ATOM     20  O   UNL     1      98.300  97.881  84.512  1.00  0.00    -0.493 OA
ATOM     21  C   UNL     1      98.520  96.716  85.326  1.00  0.00     0.278 C 
ENDBRANCH  17  20
BRANCH  19  22
ATOM     22  O   UNL     1      96.044  99.500  84.536  1.00  0.00    -0.504 OA
ATOM     23  H   UNL     1      95.308 100.073  84.311  1.00  0.00     0.293 HD
ENDBRANCH  19  22
ENDBRANCH  13  14
ENDBRANCH  11  13
ENDBRANCH   8   9
ENDBRANCH   1   8
TORSDOF 11
ENDMDL
MODEL 5
REMARK VINA RESULT:    -4.874      3.173      5.283
REMARK INTER + INTRA:          -9.426
REMARK INTER:                  -8.780
REMARK INTRA:                  -0.646
REMARK UNBOUND:                -1.561
REMARK SMILES CCCCCCCCC(=O)NCc1ccc(O)c(OC)c1
REMARK SMILES IDX 7 1 6 2 5 3 4 4 3 5 2 6 1 7 8 8 9 9 10 10 11 11 12 13 13 14
REMARK SMILES IDX 21 15 14 16 18 17 15 18 16 19 19 20 20 21 17 22
REMARK H PARENT 11 12 17 23
REMARK Flexibility Score: inf
ROOT
ATOM      1  C   UNL     1      71.529  83.007  66.805  1.00  0.00     0.010 C 
ENDROOT
BRANCH   1   2
ATOM      2  C   UNL     1      70.222  82.772  67.616  1.00  0.00     0.001 C 
BRANCH   2   3
ATOM      3  C   UNL     1      70.067  83.785  68.789  1.00  0.00     0.000 C 
BRANCH   3   4
ATOM      4  C   UNL     1      69.434  83.170  70.069  1.00  0.00    -0.000 C 
BRANCH   4   5
ATOM      5  C   UNL     1      69.794  83.962  71.358  1.00  0.00    -0.000 C 
BRANCH   5   6
ATOM      6  C   UNL     1      68.917  85.230  71.543  1.00  0.00    -0.003 C 
ATOM      7  C   UNL     1      67.792  85.034  72.583  1.00  0.00     0.004 C 
ENDBRANCH   5   6
ENDBRANCH   4   5
ENDBRANCH   3   4
ENDBRANCH   2   3
ENDBRANCH   1   2
BRANCH   1   8
ATOM      8  C   UNL     1      71.649  82.120  65.535  1.00  0.00     0.100 C 
BRANCH   8   9
ATOM      9  C   UNL     1      73.046  81.673  65.318  1.00  0.00     0.220 C 
ATOM     10  O   UNL     1      73.346  81.173  64.208  1.00  0.00    -0.275 OA
ATOM     11  N   UNL     1      73.984  81.830  66.298  1.00  0.00    -0.352 N 
ATOM     12  H   UNL     1      73.617  82.161  67.178  1.00  0.00     0.163 HD
BRANCH  11  13
ATOM     13  C   UNL     1      75.385  81.571  66.162  1.00  0.00     0.151 C 
BRANCH  13  14
ATOM     14  C   UNL     1      76.251  82.597  66.804  1.00  0.00    -0.025 A 
ATOM     15  C   UNL     1      75.782  83.325  67.924  1.00  0.00     0.056 A 
ATOM     16  C   UNL     1      77.548  82.865  66.310  1.00  0.00     0.009 A 
ATOM     17  C   UNL     1      76.600  84.290  68.555  1.00  0.00     0.160 A 
ATOM     18  C   UNL     1      78.367  83.823  66.934  1.00  0.00     0.050 A 
ATOM     19  C   UNL     1      77.895  84.542  68.049  1.00  0.00     0.157 A 
BRANCH  17  20
ATOM     20  O   UNL     1      76.129  85.025  69.614  1.00  0.00    -0.493 OA
ATOM     21  C   UNL     1      76.167  84.332  70.874  1.00  0.00     0.278 C 
ENDBRANCH  17  20
BRANCH  19  22
ATOM     22  O   UNL     1      78.683  85.484  68.628  1.00  0.00    -0.504 OA
ATOM     23  H   UNL     1      79.511  85.084  68.903  1.00  0.00     0.293 HD
ENDBRANCH  19  22
ENDBRANCH  13  14
ENDBRANCH  11  13
ENDBRANCH   8   9
ENDBRANCH   1   8
TORSDOF 11
ENDMDL
MODEL 6
REMARK VINA RESULT:    -4.656      3.292      6.501
REMARK INTER + INTRA:          -9.075
REMARK INTER:                  -8.098
REMARK INTRA:                  -0.977
REMARK UNBOUND:                -1.561
REMARK SMILES CCCCCCCCC(=O)NCc1ccc(O)c(OC)c1
REMARK SMILES IDX 7 1 6 2 5 3 4 4 3 5 2 6 1 7 8 8 9 9 10 10 11 11 12 13 13 14
REMARK SMILES IDX 21 15 14 16 18 17 15 18 16 19 19 20 20 21 17 22
REMARK H PARENT 11 12 17 23
REMARK Flexibility Score: inf
ROOT
ATOM      1  C   UNL     1      76.026  82.866  66.832  1.00  0.00     0.010 C 
ENDROOT
BRANCH   1   2
ATOM      2  C   UNL     1      77.413  83.137  66.181  1.00  0.00     0.001 C 
BRANCH   2   3
ATOM      3  C   UNL     1      78.402  83.825  67.167  1.00  0.00     0.000 C 
BRANCH   3   4
ATOM      4  C   UNL     1      78.086  85.325  67.427  1.00  0.00    -0.000 C 
BRANCH   4   5
ATOM      5  C   UNL     1      78.294  85.734  68.913  1.00  0.00    -0.000 C 
BRANCH   5   6
ATOM      6  C   UNL     1      76.968  85.743  69.720  1.00  0.00    -0.003 C 
ATOM      7  C   UNL     1      76.741  84.439  70.516  1.00  0.00     0.004 C 
ENDBRANCH   5   6
ENDBRANCH   4   5
ENDBRANCH   3   4
ENDBRANCH   2   3
ENDBRANCH   1   2
BRANCH   1   8
ATOM      8  C   UNL     1      74.915  83.855  66.379  1.00  0.00     0.100 C 
BRANCH   8   9
ATOM      9  C   UNL     1      73.576  83.220  66.424  1.00  0.00     0.220 C 
ATOM     10  O   UNL     1      73.495  81.987  66.206  1.00  0.00    -0.275 OA
ATOM     11  N   UNL     1      72.468  83.959  66.724  1.00  0.00    -0.352 N 
ATOM     12  H   UNL     1      72.634  84.952  66.795  1.00  0.00     0.163 HD
BRANCH  11  13
ATOM     13  C   UNL     1      71.151  83.441  66.935  1.00  0.00     0.151 C 
BRANCH  13  14
ATOM     14  C   UNL     1      70.633  83.657  68.313  1.00  0.00    -0.025 A 
ATOM     15  C   UNL     1      69.410  83.070  68.715  1.00  0.00     0.056 A 
ATOM     16  C   UNL     1      71.346  84.451  69.241  1.00  0.00     0.009 A 
ATOM     17  C   UNL     1      68.914  83.252  70.027  1.00  0.00     0.160 A 
ATOM     18  C   UNL     1      70.859  84.636  70.547  1.00  0.00     0.050 A 
ATOM     19  C   UNL     1      69.643  84.046  70.941  1.00  0.00     0.157 A 
BRANCH  17  20
ATOM     20  O   UNL     1      67.707  82.717  70.401  1.00  0.00    -0.493 OA
ATOM     21  C   UNL     1      66.568  83.354  69.796  1.00  0.00     0.278 C 
ENDBRANCH  17  20
BRANCH  19  22
ATOM     22  O   UNL     1      69.167  84.253  72.196  1.00  0.00    -0.504 OA
ATOM     23  H   UNL     1      68.745  85.114  72.240  1.00  0.00     0.293 HD
ENDBRANCH  19  22
ENDBRANCH  13  14
ENDBRANCH  11  13
ENDBRANCH   8   9
ENDBRANCH   1   8
TORSDOF 11
ENDMDL
MODEL 7
REMARK VINA RESULT:    -4.584     24.322     27.478
REMARK INTER + INTRA:          -8.958
REMARK INTER:                  -7.730
REMARK INTRA:                  -1.228
REMARK UNBOUND:                -1.561
REMARK SMILES CCCCCCCCC(=O)NCc1ccc(O)c(OC)c1
REMARK SMILES IDX 7 1 6 2 5 3 4 4 3 5 2 6 1 7 8 8 9 9 10 10 11 11 12 13 13 14
REMARK SMILES IDX 21 15 14 16 18 17 15 18 16 19 19 20 20 21 17 22
REMARK H PARENT 11 12 17 23
REMARK Flexibility Score: inf
ROOT
ATOM      1  C   UNL     1      92.113  95.503  78.261  1.00  0.00     0.010 C 
ENDROOT
BRANCH   1   2
ATOM      2  C   UNL     1      93.070  96.533  77.593  1.00  0.00     0.001 C 
BRANCH   2   3
ATOM      3  C   UNL     1      93.190  96.314  76.056  1.00  0.00     0.000 C 
BRANCH   3   4
ATOM      4  C   UNL     1      94.656  96.176  75.556  1.00  0.00    -0.000 C 
BRANCH   4   5
ATOM      5  C   UNL     1      95.201  97.490  74.926  1.00  0.00    -0.000 C 
BRANCH   5   6
ATOM      6  C   UNL     1      96.535  97.952  75.572  1.00  0.00    -0.003 C 
ATOM      7  C   UNL     1      96.394  98.273  77.076  1.00  0.00     0.004 C 
ENDBRANCH   5   6
ENDBRANCH   4   5
ENDBRANCH   3   4
ENDBRANCH   2   3
ENDBRANCH   1   2
BRANCH   1   8
ATOM      8  C   UNL     1      92.716  94.077  78.392  1.00  0.00     0.100 C 
BRANCH   8   9
ATOM      9  C   UNL     1      94.040  94.109  79.060  1.00  0.00     0.220 C 
ATOM     10  O   UNL     1      95.068  94.023  78.348  1.00  0.00    -0.275 OA
ATOM     11  N   UNL     1      94.129  94.258  80.415  1.00  0.00    -0.352 N 
ATOM     12  H   UNL     1      93.243  94.230  80.897  1.00  0.00     0.163 HD
BRANCH  11  13
ATOM     13  C   UNL     1      95.339  94.444  81.156  1.00  0.00     0.151 C 
BRANCH  13  14
ATOM     14  C   UNL     1      95.620  95.864  81.501  1.00  0.00    -0.025 A 
ATOM     15  C   UNL     1      95.763  96.253  82.855  1.00  0.00     0.056 A 
ATOM     16  C   UNL     1      95.747  96.845  80.492  1.00  0.00     0.009 A 
ATOM     17  C   UNL     1      96.047  97.595  83.197  1.00  0.00     0.160 A 
ATOM     18  C   UNL     1      96.031  98.182  80.825  1.00  0.00     0.050 A 
ATOM     19  C   UNL     1      96.174  98.562  82.174  1.00  0.00     0.157 A 
BRANCH  17  20
ATOM     20  O   UNL     1      96.143  97.978  84.511  1.00  0.00    -0.493 OA
ATOM     21  C   UNL     1      97.383  97.612  85.142  1.00  0.00     0.278 C 
ENDBRANCH  17  20
BRANCH  19  22
ATOM     22  O   UNL     1      96.421  99.859  82.487  1.00  0.00    -0.504 OA
ATOM     23  H   UNL     1      96.415 100.389  81.686  1.00  0.00     0.293 HD
ENDBRANCH  19  22
ENDBRANCH  13  14
ENDBRANCH  11  13
ENDBRANCH   8   9
ENDBRANCH   1   8
TORSDOF 11
ENDMDL
MODEL 8
REMARK VINA RESULT:    -4.566     12.040     14.049
REMARK INTER + INTRA:          -8.930
REMARK INTER:                  -7.822
REMARK INTRA:                  -1.108
REMARK UNBOUND:                -1.561
REMARK SMILES CCCCCCCCC(=O)NCc1ccc(O)c(OC)c1
REMARK SMILES IDX 7 1 6 2 5 3 4 4 3 5 2 6 1 7 8 8 9 9 10 10 11 11 12 13 13 14
REMARK SMILES IDX 21 15 14 16 18 17 15 18 16 19 19 20 20 21 17 22
REMARK H PARENT 11 12 17 23
REMARK Flexibility Score: inf
ROOT
ATOM      1  C   UNL     1      62.330  84.301  70.443  1.00  0.00     0.010 C 
ENDROOT
BRANCH   1   2
ATOM      2  C   UNL     1      62.303  83.318  69.238  1.00  0.00     0.001 C 
BRANCH   2   3
ATOM      3  C   UNL     1      63.310  82.144  69.413  1.00  0.00     0.000 C 
BRANCH   3   4
ATOM      4  C   UNL     1      63.649  81.825  70.897  1.00  0.00    -0.000 C 
BRANCH   4   5
ATOM      5  C   UNL     1      65.179  81.693  71.147  1.00  0.00    -0.000 C 
BRANCH   5   6
ATOM      6  C   UNL     1      65.893  83.069  71.211  1.00  0.00    -0.003 C 
ATOM      7  C   UNL     1      66.996  83.223  70.141  1.00  0.00     0.004 C 
ENDBRANCH   5   6
ENDBRANCH   4   5
ENDBRANCH   3   4
ENDBRANCH   2   3
ENDBRANCH   1   2
BRANCH   1   8
ATOM      8  C   UNL     1      60.920  84.695  70.966  1.00  0.00     0.100 C 
BRANCH   8   9
ATOM      9  C   UNL     1      60.780  84.403  72.413  1.00  0.00     0.220 C 
ATOM     10  O   UNL     1      59.922  85.041  73.069  1.00  0.00    -0.275 OA
ATOM     11  N   UNL     1      61.548  83.441  73.004  1.00  0.00    -0.352 N 
ATOM     12  H   UNL     1      62.264  83.053  72.407  1.00  0.00     0.163 HD
BRANCH  11  13
ATOM     13  C   UNL     1      61.411  82.971  74.349  1.00  0.00     0.151 C 
BRANCH  13  14
ATOM     14  C   UNL     1      62.472  83.461  75.269  1.00  0.00    -0.025 A 
ATOM     15  C   UNL     1      62.262  84.630  76.039  1.00  0.00     0.056 A 
ATOM     16  C   UNL     1      63.703  82.776  75.388  1.00  0.00     0.009 A 
ATOM     17  C   UNL     1      63.255  85.098  76.931  1.00  0.00     0.160 A 
ATOM     18  C   UNL     1      64.694  83.236  76.274  1.00  0.00     0.050 A 
ATOM     19  C   UNL     1      64.478  84.398  77.040  1.00  0.00     0.157 A 
BRANCH  17  20
ATOM     20  O   UNL     1      63.067  86.254  77.645  1.00  0.00    -0.493 OA
ATOM     21  C   UNL     1      62.874  87.424  76.831  1.00  0.00     0.278 C 
ENDBRANCH  17  20
BRANCH  19  22
ATOM     22  O   UNL     1      65.451  84.849  77.872  1.00  0.00    -0.504 OA
ATOM     23  H   UNL     1      66.290  84.449  77.629  1.00  0.00     0.293 HD
ENDBRANCH  19  22
ENDBRANCH  13  14
ENDBRANCH  11  13
ENDBRANCH   8   9
ENDBRANCH   1   8
TORSDOF 11
ENDMDL
MODEL 9
REMARK VINA RESULT:    -4.491     11.746     14.515
REMARK INTER + INTRA:          -8.808
REMARK INTER:                  -6.939
REMARK INTRA:                  -1.868
REMARK UNBOUND:                -1.561
REMARK SMILES CCCCCCCCC(=O)NCc1ccc(O)c(OC)c1
REMARK SMILES IDX 7 1 6 2 5 3 4 4 3 5 2 6 1 7 8 8 9 9 10 10 11 11 12 13 13 14
REMARK SMILES IDX 21 15 14 16 18 17 15 18 16 19 19 20 20 21 17 22
REMARK H PARENT 11 12 17 23
REMARK Flexibility Score: inf
ROOT
ATOM      1  C   UNL     1      62.600  85.823  69.324  1.00  0.00     0.010 C 
ENDROOT
BRANCH   1   2
ATOM      2  C   UNL     1      61.185  85.178  69.371  1.00  0.00     0.001 C 
BRANCH   2   3
ATOM      3  C   UNL     1      60.860  84.573  70.769  1.00  0.00     0.000 C 
BRANCH   3   4
ATOM      4  C   UNL     1      61.345  85.448  71.959  1.00  0.00    -0.000 C 
BRANCH   4   5
ATOM      5  C   UNL     1      60.371  85.403  73.171  1.00  0.00    -0.000 C 
BRANCH   5   6
ATOM      6  C   UNL     1      59.061  86.196  72.913  1.00  0.00    -0.003 C 
ATOM      7  C   UNL     1      59.311  87.566  72.245  1.00  0.00     0.004 C 
ENDBRANCH   5   6
ENDBRANCH   4   5
ENDBRANCH   3   4
ENDBRANCH   2   3
ENDBRANCH   1   2
BRANCH   1   8
ATOM      8  C   UNL     1      63.693  84.898  68.718  1.00  0.00     0.100 C 
BRANCH   8   9
ATOM      9  C   UNL     1      64.379  84.111  69.770  1.00  0.00     0.220 C 
ATOM     10  O   UNL     1      65.396  84.603  70.314  1.00  0.00    -0.275 OA
ATOM     11  N   UNL     1      63.892  82.894  70.155  1.00  0.00    -0.352 N 
ATOM     12  H   UNL     1      63.124  82.556  69.594  1.00  0.00     0.163 HD
BRANCH  11  13
ATOM     13  C   UNL     1      64.377  82.107  71.247  1.00  0.00     0.151 C 
BRANCH  13  14
ATOM     14  C   UNL     1      63.682  82.374  72.535  1.00  0.00    -0.025 A 
ATOM     15  C   UNL     1      64.159  83.383  73.406  1.00  0.00     0.056 A 
ATOM     16  C   UNL     1      62.542  81.628  72.914  1.00  0.00     0.009 A 
ATOM     17  C   UNL     1      63.499  83.660  74.625  1.00  0.00     0.160 A 
ATOM     18  C   UNL     1      61.881  81.899  74.125  1.00  0.00     0.050 A 
ATOM     19  C   UNL     1      62.359  82.906  74.985  1.00  0.00     0.157 A 
BRANCH  17  20
ATOM     20  O   UNL     1      63.987  84.609  75.487  1.00  0.00    -0.493 OA
ATOM     21  C   UNL     1      65.219  84.241  76.132  1.00  0.00     0.278 C 
ENDBRANCH  17  20
BRANCH  19  22
ATOM     22  O   UNL     1      61.729  83.142  76.165  1.00  0.00    -0.504 OA
ATOM     23  H   UNL     1      62.168  82.652  76.865  1.00  0.00     0.293 HD
ENDBRANCH  19  22
ENDBRANCH  13  14
ENDBRANCH  11  13
ENDBRANCH   8   9
ENDBRANCH   1   8
TORSDOF 11
ENDMDL
MODEL 10
REMARK VINA RESULT:    -4.473     22.815     26.050
REMARK INTER + INTRA:          -8.780
REMARK INTER:                  -8.145
REMARK INTRA:                  -0.634
REMARK UNBOUND:                -1.561
REMARK SMILES CCCCCCCCC(=O)NCc1ccc(O)c(OC)c1
REMARK SMILES IDX 7 1 6 2 5 3 4 4 3 5 2 6 1 7 8 8 9 9 10 10 11 11 12 13 13 14
REMARK SMILES IDX 21 15 14 16 18 17 15 18 16 19 19 20 20 21 17 22
REMARK H PARENT 11 12 17 23
REMARK Flexibility Score: inf
ROOT
ATOM      1  C   UNL     1      93.868  99.083  75.640  1.00  0.00     0.010 C 
ENDROOT
BRANCH   1   2
ATOM      2  C   UNL     1      93.743  99.791  74.260  1.00  0.00     0.001 C 
BRANCH   2   3
ATOM      3  C   UNL     1      92.432  99.402  73.516  1.00  0.00     0.000 C 
BRANCH   3   4
ATOM      4  C   UNL     1      91.902 100.508  72.560  1.00  0.00    -0.000 C 
BRANCH   4   5
ATOM      5  C   UNL     1      91.794 100.026  71.085  1.00  0.00    -0.000 C 
BRANCH   5   6
ATOM      6  C   UNL     1      90.600  99.060  70.860  1.00  0.00    -0.003 C 
ATOM      7  C   UNL     1      89.242  99.682  71.256  1.00  0.00     0.004 C 
ENDBRANCH   5   6
ENDBRANCH   4   5
ENDBRANCH   3   4
ENDBRANCH   2   3
ENDBRANCH   1   2
BRANCH   1   8
ATOM      8  C   UNL     1      93.033  97.777  75.756  1.00  0.00     0.100 C 
BRANCH   8   9
ATOM      9  C   UNL     1      93.900  96.603  76.013  1.00  0.00     0.220 C 
ATOM     10  O   UNL     1      94.829  96.359  75.205  1.00  0.00    -0.275 OA
ATOM     11  N   UNL     1      93.706  95.826  77.120  1.00  0.00    -0.352 N 
ATOM     12  H   UNL     1      92.882  96.058  77.653  1.00  0.00     0.163 HD
BRANCH  11  13
ATOM     13  C   UNL     1      94.556  94.759  77.551  1.00  0.00     0.151 C 
BRANCH  13  14
ATOM     14  C   UNL     1      94.939  94.837  78.987  1.00  0.00    -0.025 A 
ATOM     15  C   UNL     1      95.333  96.073  79.552  1.00  0.00     0.056 A 
ATOM     16  C   UNL     1      94.920  93.686  79.808  1.00  0.00     0.009 A 
ATOM     17  C   UNL     1      95.683  96.167  80.919  1.00  0.00     0.160 A 
ATOM     18  C   UNL     1      95.265  93.773  81.168  1.00  0.00     0.050 A 
ATOM     19  C   UNL     1      95.654  95.006  81.725  1.00  0.00     0.157 A 
BRANCH  17  20
ATOM     20  O   UNL     1      96.105  97.357  81.455  1.00  0.00    -0.493 OA
ATOM     21  C   UNL     1      96.016  98.474  80.553  1.00  0.00     0.278 C 
ENDBRANCH  17  20
BRANCH  19  22
ATOM     22  O   UNL     1      96.012  95.074  83.033  1.00  0.00    -0.504 OA
ATOM     23  H   UNL     1      95.325  95.524  83.530  1.00  0.00     0.293 HD
ENDBRANCH  19  22
ENDBRANCH  13  14
ENDBRANCH  11  13
ENDBRANCH   8   9
ENDBRANCH   1   8
TORSDOF 11
ENDMDL
