MODEL 1
REMARK VINA RESULT:    -7.061      0.000      0.000
REMARK INTER + INTRA:          -8.709
REMARK INTER:                  -8.299
REMARK INTRA:                  -0.410
REMARK UNBOUND:                -0.410
REMARK SMILES O=C(/C=C/C=C/c1ccc2c(c1)OCO2)N1CCCCC1
REMARK SMILES IDX 3 1 4 2 2 3 1 4 16 5 17 6 21 7 18 8 20 9 19 10 5 11 6 12
REMARK SMILES IDX 7 13 12 14 8 15 11 16 9 17 13 18 10 19 14 20 15 21
REMARK H PARENT
REMARK Flexibility Score: inf
ROOT
ATOM      1  C   UNL     1      99.483  82.525  80.929  1.00  0.00     0.071 C 
ATOM      2  C   UNL     1      99.033  81.605  81.780  1.00  0.00     0.006 C 
ENDROOT
BRANCH   1   3
ATOM      3  C   UNL     1     100.071  82.065  79.655  1.00  0.00     0.246 C 
ATOM      4  O   UNL     1     100.938  81.191  79.711  1.00  0.00    -0.270 OA
ATOM      5  N   UNL     1      99.611  82.651  78.478  1.00  0.00    -0.339 N 
ATOM      6  C   UNL     1     100.180  82.219  77.198  1.00  0.00     0.120 C 
ATOM      7  C   UNL     1      98.613  83.726  78.375  1.00  0.00     0.120 C 
ATOM      8  C   UNL     1      99.090  81.812  76.212  1.00  0.00     0.022 C 
ATOM      9  C   UNL     1      97.503  83.358  77.391  1.00  0.00     0.022 C 
ATOM     10  C   UNL     1      98.066  82.930  76.039  1.00  0.00     0.004 C 
ENDBRANCH   1   3
BRANCH   2  11
ATOM     11  C   UNL     1      98.440  81.959  83.052  1.00  0.00     0.001 C 
ATOM     12  C   UNL     1      97.749  83.094  83.242  1.00  0.00     0.008 C 
BRANCH  12  13
ATOM     13  C   UNL     1      97.134  83.506  84.515  1.00  0.00    -0.022 A 
ATOM     14  C   UNL     1      96.988  84.859  84.788  1.00  0.00     0.058 A 
ATOM     15  C   UNL     1      96.713  82.522  85.413  1.00  0.00     0.012 A 
ATOM     16  C   UNL     1      96.406  85.195  85.993  1.00  0.00     0.166 A 
ATOM     17  C   UNL     1      96.127  82.891  86.626  1.00  0.00     0.051 A 
ATOM     18  O   UNL     1      96.178  86.459  86.444  1.00  0.00    -0.454 OA
ATOM     19  C   UNL     1      95.987  84.237  86.888  1.00  0.00     0.165 A 
ATOM     20  C   UNL     1      95.568  86.189  87.723  1.00  0.00     0.468 C 
ATOM     21  O   UNL     1      95.443  84.781  88.011  1.00  0.00    -0.454 OA
ENDBRANCH  12  13
ENDBRANCH   2  11
TORSDOF 3
ENDMDL
MODEL 2
REMARK VINA RESULT:    -6.955      1.008      1.107
REMARK INTER + INTRA:          -8.585
REMARK INTER:                  -8.237
REMARK INTRA:                  -0.348
REMARK UNBOUND:                -0.410
REMARK SMILES O=C(/C=C/C=C/c1ccc2c(c1)OCO2)N1CCCCC1
REMARK SMILES IDX 3 1 4 2 2 3 1 4 16 5 17 6 21 7 18 8 20 9 19 10 5 11 6 12
REMARK SMILES IDX 7 13 12 14 8 15 11 16 9 17 13 18 10 19 14 20 15 21
REMARK H PARENT
REMARK Flexibility Score: inf
ROOT
ATOM      1  C   UNL     1      98.513  82.585  81.070  1.00  0.00     0.071 C 
ATOM      2  C   UNL     1      98.884  82.780  82.334  1.00  0.00     0.006 C 
ENDROOT
BRANCH   1   3
ATOM      3  C   UNL     1      99.560  82.601  80.029  1.00  0.00     0.246 C 
ATOM      4  O   UNL     1     100.643  82.081  80.302  1.00  0.00    -0.270 OA
ATOM      5  N   UNL     1      99.256  83.206  78.811  1.00  0.00    -0.339 N 
ATOM      6  C   UNL     1     100.277  83.242  77.759  1.00  0.00     0.120 C 
ATOM      7  C   UNL     1      97.993  83.875  78.464  1.00  0.00     0.120 C 
ATOM      8  C   UNL     1      99.744  82.681  76.445  1.00  0.00     0.022 C 
ATOM      9  C   UNL     1      97.428  83.342  77.148  1.00  0.00     0.022 C 
ATOM     10  C   UNL     1      98.462  83.395  76.027  1.00  0.00     0.004 C 
ENDBRANCH   1   3
BRANCH   2  11
ATOM     11  C   UNL     1      97.931  82.783  83.423  1.00  0.00     0.001 C 
ATOM     12  C   UNL     1      97.633  83.888  84.126  1.00  0.00     0.008 C 
BRANCH  12  13
ATOM     13  C   UNL     1      96.680  83.945  85.247  1.00  0.00    -0.022 A 
ATOM     14  C   UNL     1      96.410  85.169  85.843  1.00  0.00     0.058 A 
ATOM     15  C   UNL     1      96.072  82.764  85.679  1.00  0.00     0.012 A 
ATOM     16  C   UNL     1      95.510  85.172  86.888  1.00  0.00     0.166 A 
ATOM     17  C   UNL     1      95.164  82.795  86.740  1.00  0.00     0.051 A 
ATOM     18  O   UNL     1      95.117  86.263  87.600  1.00  0.00    -0.454 OA
ATOM     19  C   UNL     1      94.903  84.016  87.326  1.00  0.00     0.165 A 
ATOM     20  C   UNL     1      94.194  85.665  88.534  1.00  0.00     0.468 C 
ATOM     21  O   UNL     1      94.054  84.240  88.365  1.00  0.00    -0.454 OA
ENDBRANCH  12  13
ENDBRANCH   2  11
TORSDOF 3
ENDMDL
MODEL 3
REMARK VINA RESULT:    -6.931     13.138     15.082
REMARK INTER + INTRA:          -8.557
REMARK INTER:                  -8.221
REMARK INTRA:                  -0.336
REMARK UNBOUND:                -0.410
REMARK SMILES O=C(/C=C/C=C/c1ccc2c(c1)OCO2)N1CCCCC1
REMARK SMILES IDX 3 1 4 2 2 3 1 4 16 5 17 6 21 7 18 8 20 9 19 10 5 11 6 12
REMARK SMILES IDX 7 13 12 14 8 15 11 16 9 17 13 18 10 19 14 20 15 21
REMARK H PARENT
REMARK Flexibility Score: inf
ROOT
ATOM      1  C   UNL     1      96.518  95.563  79.895  1.00  0.00     0.071 C 
ATOM      2  C   UNL     1      95.545  96.259  79.311  1.00  0.00     0.006 C 
ENDROOT
BRANCH   1   3
ATOM      3  C   UNL     1      97.500  96.298  80.718  1.00  0.00     0.246 C 
ATOM      4  O   UNL     1      98.514  96.715  80.158  1.00  0.00    -0.270 OA
ATOM      5  N   UNL     1      97.216  96.465  82.073  1.00  0.00    -0.339 N 
ATOM      6  C   UNL     1      98.174  97.186  82.917  1.00  0.00     0.120 C 
ATOM      7  C   UNL     1      96.040  95.944  82.785  1.00  0.00     0.120 C 
ATOM      8  C   UNL     1      97.499  98.316  83.687  1.00  0.00     0.022 C 
ATOM      9  C   UNL     1      95.336  97.048  83.574  1.00  0.00     0.022 C 
ATOM     10  C   UNL     1      96.306  97.797  84.484  1.00  0.00     0.004 C 
ENDBRANCH   1   3
BRANCH   2  11
ATOM     11  C   UNL     1      94.537  95.628  78.486  1.00  0.00     0.001 C 
ATOM     12  C   UNL     1      93.222  95.735  78.736  1.00  0.00     0.008 C 
BRANCH  12  13
ATOM     13  C   UNL     1      92.157  95.108  77.935  1.00  0.00    -0.022 A 
ATOM     14  C   UNL     1      92.442  93.957  77.214  1.00  0.00     0.058 A 
ATOM     15  C   UNL     1      90.886  95.690  77.923  1.00  0.00     0.012 A 
ATOM     16  C   UNL     1      91.412  93.407  76.480  1.00  0.00     0.166 A 
ATOM     17  C   UNL     1      89.862  95.112  77.171  1.00  0.00     0.051 A 
ATOM     18  O   UNL     1      91.490  92.286  75.709  1.00  0.00    -0.454 OA
ATOM     19  C   UNL     1      90.156  93.968  76.458  1.00  0.00     0.165 A 
ATOM     20  C   UNL     1      90.142  92.207  75.202  1.00  0.00     0.468 C 
ATOM     21  O   UNL     1      89.290  93.271  75.673  1.00  0.00    -0.454 OA
ENDBRANCH  12  13
ENDBRANCH   2  11
TORSDOF 3
ENDMDL
MODEL 4
REMARK VINA RESULT:    -6.922      3.062      8.923
REMARK INTER + INTRA:          -8.546
REMARK INTER:                  -8.219
REMARK INTRA:                  -0.327
REMARK UNBOUND:                -0.410
REMARK SMILES O=C(/C=C/C=C/c1ccc2c(c1)OCO2)N1CCCCC1
REMARK SMILES IDX 3 1 4 2 2 3 1 4 16 5 17 6 21 7 18 8 20 9 19 10 5 11 6 12
REMARK SMILES IDX 7 13 12 14 8 15 11 16 9 17 13 18 10 19 14 20 15 21
REMARK H PARENT
REMARK Flexibility Score: inf
ROOT
ATOM      1  C   UNL     1      96.369  83.747  85.158  1.00  0.00     0.071 C 
ATOM      2  C   UNL     1      97.491  83.425  84.517  1.00  0.00     0.006 C 
ENDROOT
BRANCH   1   3
ATOM      3  C   UNL     1      96.349  83.623  86.629  1.00  0.00     0.246 C 
ATOM      4  O   UNL     1      97.217  84.224  87.263  1.00  0.00    -0.270 OA
ATOM      5  N   UNL     1      95.354  82.830  87.200  1.00  0.00    -0.339 N 
ATOM      6  C   UNL     1      95.312  82.683  88.658  1.00  0.00     0.120 C 
ATOM      7  C   UNL     1      94.331  82.063  86.475  1.00  0.00     0.120 C 
ATOM      8  C   UNL     1      93.931  83.018  89.212  1.00  0.00     0.022 C 
ATOM      9  C   UNL     1      92.930  82.369  87.005  1.00  0.00     0.022 C 
ATOM     10  C   UNL     1      92.850  82.196  88.519  1.00  0.00     0.004 C 
ENDBRANCH   1   3
BRANCH   2  11
ATOM     11  C   UNL     1      97.608  83.514  83.077  1.00  0.00     0.001 C 
ATOM     12  C   UNL     1      98.576  82.891  82.387  1.00  0.00     0.008 C 
BRANCH  12  13
ATOM     13  C   UNL     1      98.746  82.954  80.925  1.00  0.00    -0.022 A 
ATOM     14  C   UNL     1      97.704  83.437  80.145  1.00  0.00     0.058 A 
ATOM     15  C   UNL     1      99.951  82.526  80.364  1.00  0.00     0.012 A 
ATOM     16  C   UNL     1      97.910  83.477  78.781  1.00  0.00     0.166 A 
ATOM     17  C   UNL     1     100.133  82.578  78.980  1.00  0.00     0.051 A 
ATOM     18  O   UNL     1      97.017  83.913  77.851  1.00  0.00    -0.454 OA
ATOM     19  C   UNL     1      99.092  83.059  78.214  1.00  0.00     0.165 A 
ATOM     20  C   UNL     1      97.769  83.723  76.636  1.00  0.00     0.468 C 
ATOM     21  O   UNL     1      99.087  83.181  76.859  1.00  0.00    -0.454 OA
ENDBRANCH  12  13
ENDBRANCH   2  11
TORSDOF 3
ENDMDL
MODEL 5
REMARK VINA RESULT:    -6.823      2.880      9.060
REMARK INTER + INTRA:          -8.430
REMARK INTER:                  -8.102
REMARK INTRA:                  -0.328
REMARK UNBOUND:                -0.410
REMARK SMILES O=C(/C=C/C=C/c1ccc2c(c1)OCO2)N1CCCCC1
REMARK SMILES IDX 3 1 4 2 2 3 1 4 16 5 17 6 21 7 18 8 20 9 19 10 5 11 6 12
REMARK SMILES IDX 7 13 12 14 8 15 11 16 9 17 13 18 10 19 14 20 15 21
REMARK H PARENT
REMARK Flexibility Score: inf
ROOT
ATOM      1  C   UNL     1      97.322  83.507  84.760  1.00  0.00     0.071 C 
ATOM      2  C   UNL     1      98.050  82.902  83.823  1.00  0.00     0.006 C 
ENDROOT
BRANCH   1   3
ATOM      3  C   UNL     1      97.548  83.127  86.169  1.00  0.00     0.246 C 
ATOM      4  O   UNL     1      98.665  82.707  86.473  1.00  0.00    -0.270 OA
ATOM      5  N   UNL     1      96.482  83.263  87.057  1.00  0.00    -0.339 N 
ATOM      6  C   UNL     1      96.674  82.888  88.461  1.00  0.00     0.120 C 
ATOM      7  C   UNL     1      95.124  83.716  86.722  1.00  0.00     0.120 C 
ATOM      8  C   UNL     1      96.265  84.018  89.400  1.00  0.00     0.022 C 
ATOM      9  C   UNL     1      94.675  84.848  87.646  1.00  0.00     0.022 C 
ATOM     10  C   UNL     1      94.838  84.475  89.117  1.00  0.00     0.004 C 
ENDBRANCH   1   3
BRANCH   2  11
ATOM     11  C   UNL     1      97.901  83.208  82.416  1.00  0.00     0.001 C 
ATOM     12  C   UNL     1      98.783  82.804  81.488  1.00  0.00     0.008 C 
BRANCH  12  13
ATOM     13  C   UNL     1      98.684  83.093  80.047  1.00  0.00    -0.022 A 
ATOM     14  C   UNL     1      99.807  82.932  79.247  1.00  0.00     0.058 A 
ATOM     15  C   UNL     1      97.461  83.522  79.525  1.00  0.00     0.012 A 
ATOM     16  C   UNL     1      99.665  83.215  77.904  1.00  0.00     0.166 A 
ATOM     17  C   UNL     1      97.345  83.801  78.161  1.00  0.00     0.051 A 
ATOM     18  O   UNL     1     100.642  83.121  76.961  1.00  0.00    -0.454 OA
ATOM     19  C   UNL     1      98.467  83.637  77.375  1.00  0.00     0.165 A 
ATOM     20  C   UNL     1      99.924  83.532  75.780  1.00  0.00     0.468 C 
ATOM     21  O   UNL     1      98.543  83.861  76.035  1.00  0.00    -0.454 OA
ENDBRANCH  12  13
ENDBRANCH   2  11
TORSDOF 3
ENDMDL
MODEL 6
REMARK VINA RESULT:    -6.821     25.388     26.342
REMARK INTER + INTRA:          -8.427
REMARK INTER:                  -8.062
REMARK INTRA:                  -0.366
REMARK UNBOUND:                -0.410
REMARK SMILES O=C(/C=C/C=C/c1ccc2c(c1)OCO2)N1CCCCC1
REMARK SMILES IDX 3 1 4 2 2 3 1 4 16 5 17 6 21 7 18 8 20 9 19 10 5 11 6 12
REMARK SMILES IDX 7 13 12 14 8 15 11 16 9 17 13 18 10 19 14 20 15 21
REMARK H PARENT
REMARK Flexibility Score: inf
ROOT
ATOM      1  C   UNL     1      77.300  85.548  67.615  1.00  0.00     0.071 C 
ATOM      2  C   UNL     1      76.852  85.600  68.868  1.00  0.00     0.006 C 
ENDROOT
BRANCH   1   3
ATOM      3  C   UNL     1      77.631  84.224  67.051  1.00  0.00     0.246 C 
ATOM      4  O   UNL     1      78.756  83.775  67.274  1.00  0.00    -0.270 OA
ATOM      5  N   UNL     1      76.652  83.575  66.300  1.00  0.00    -0.339 N 
ATOM      6  C   UNL     1      76.953  82.261  65.722  1.00  0.00     0.120 C 
ATOM      7  C   UNL     1      75.317  84.098  65.975  1.00  0.00     0.120 C 
ATOM      8  C   UNL     1      75.894  81.231  66.098  1.00  0.00     0.022 C 
ATOM      9  C   UNL     1      74.225  83.090  66.335  1.00  0.00     0.022 C 
ATOM     10  C   UNL     1      74.499  81.720  65.722  1.00  0.00     0.004 C 
ENDBRANCH   1   3
BRANCH   2  11
ATOM     11  C   UNL     1      76.502  86.851  69.508  1.00  0.00     0.001 C 
ATOM     12  C   UNL     1      75.301  87.069  70.068  1.00  0.00     0.008 C 
BRANCH  12  13
ATOM     13  C   UNL     1      74.890  88.322  70.724  1.00  0.00    -0.022 A 
ATOM     14  C   UNL     1      75.658  89.464  70.539  1.00  0.00     0.058 A 
ATOM     15  C   UNL     1      73.738  88.327  71.515  1.00  0.00     0.012 A 
ATOM     16  C   UNL     1      75.232  90.613  71.173  1.00  0.00     0.166 A 
ATOM     17  C   UNL     1      73.331  89.505  72.145  1.00  0.00     0.051 A 
ATOM     18  O   UNL     1      75.845  91.828  71.119  1.00  0.00    -0.454 OA
ATOM     19  C   UNL     1      74.100  90.634  71.955  1.00  0.00     0.165 A 
ATOM     20  C   UNL     1      74.970  92.614  71.953  1.00  0.00     0.468 C 
ATOM     21  O   UNL     1      73.861  91.863  72.487  1.00  0.00    -0.454 OA
ENDBRANCH  12  13
ENDBRANCH   2  11
TORSDOF 3
ENDMDL
MODEL 7
REMARK VINA RESULT:    -6.752     24.310     26.491
REMARK INTER + INTRA:          -8.346
REMARK INTER:                  -7.963
REMARK INTRA:                  -0.383
REMARK UNBOUND:                -0.410
REMARK SMILES O=C(/C=C/C=C/c1ccc2c(c1)OCO2)N1CCCCC1
REMARK SMILES IDX 3 1 4 2 2 3 1 4 16 5 17 6 21 7 18 8 20 9 19 10 5 11 6 12
REMARK SMILES IDX 7 13 12 14 8 15 11 16 9 17 13 18 10 19 14 20 15 21
REMARK H PARENT
REMARK Flexibility Score: inf
ROOT
ATOM      1  C   UNL     1      75.294  90.711  71.160  1.00  0.00     0.071 C 
ATOM      2  C   UNL     1      74.760  89.492  71.202  1.00  0.00     0.006 C 
ENDROOT
BRANCH   1   3
ATOM      3  C   UNL     1      74.772  91.731  72.090  1.00  0.00     0.246 C 
ATOM      4  O   UNL     1      73.582  91.663  72.400  1.00  0.00    -0.270 OA
ATOM      5  N   UNL     1      75.657  92.705  72.550  1.00  0.00    -0.339 N 
ATOM      6  C   UNL     1      75.166  93.735  73.471  1.00  0.00     0.120 C 
ATOM      7  C   UNL     1      77.070  92.846  72.168  1.00  0.00     0.120 C 
ATOM      8  C   UNL     1      76.030  93.819  74.724  1.00  0.00     0.022 C 
ATOM      9  C   UNL     1      77.970  92.938  73.400  1.00  0.00     0.022 C 
ATOM     10  C   UNL     1      77.498  94.022  74.364  1.00  0.00     0.004 C 
ENDBRANCH   1   3
BRANCH   2  11
ATOM     11  C   UNL     1      75.205  88.426  70.330  1.00  0.00     0.001 C 
ATOM     12  C   UNL     1      76.386  88.455  69.691  1.00  0.00     0.008 C 
BRANCH  12  13
ATOM     13  C   UNL     1      76.883  87.404  68.787  1.00  0.00    -0.022 A 
ATOM     14  C   UNL     1      77.129  86.136  69.297  1.00  0.00     0.058 A 
ATOM     15  C   UNL     1      77.095  87.712  67.441  1.00  0.00     0.012 A 
ATOM     16  C   UNL     1      77.593  85.185  68.412  1.00  0.00     0.166 A 
ATOM     17  C   UNL     1      77.566  86.729  66.567  1.00  0.00     0.051 A 
ATOM     18  O   UNL     1      77.893  83.892  68.715  1.00  0.00    -0.454 OA
ATOM     19  C   UNL     1      77.806  85.473  67.084  1.00  0.00     0.165 A 
ATOM     20  C   UNL     1      78.318  83.400  67.428  1.00  0.00     0.468 C 
ATOM     21  O   UNL     1      78.266  84.397  66.388  1.00  0.00    -0.454 OA
ENDBRANCH  12  13
ENDBRANCH   2  11
TORSDOF 3
ENDMDL
MODEL 8
REMARK VINA RESULT:    -6.486     24.543     26.593
REMARK INTER + INTRA:          -8.033
REMARK INTER:                  -7.672
REMARK INTRA:                  -0.361
REMARK UNBOUND:                -0.410
REMARK SMILES O=C(/C=C/C=C/c1ccc2c(c1)OCO2)N1CCCCC1
REMARK SMILES IDX 3 1 4 2 2 3 1 4 16 5 17 6 21 7 18 8 20 9 19 10 5 11 6 12
REMARK SMILES IDX 7 13 12 14 8 15 11 16 9 17 13 18 10 19 14 20 15 21
REMARK H PARENT
REMARK Flexibility Score: inf
ROOT
ATOM      1  C   UNL     1      75.248  90.518  70.782  1.00  0.00     0.071 C 
ATOM      2  C   UNL     1      75.513  89.229  70.986  1.00  0.00     0.006 C 
ENDROOT
BRANCH   1   3
ATOM      3  C   UNL     1      74.829  91.332  71.940  1.00  0.00     0.246 C 
ATOM      4  O   UNL     1      73.714  91.114  72.415  1.00  0.00    -0.270 OA
ATOM      5  N   UNL     1      75.719  92.295  72.414  1.00  0.00    -0.339 N 
ATOM      6  C   UNL     1      75.329  93.122  73.560  1.00  0.00     0.120 C 
ATOM      7  C   UNL     1      77.037  92.614  71.846  1.00  0.00     0.120 C 
ATOM      8  C   UNL     1      76.384  93.084  74.660  1.00  0.00     0.022 C 
ATOM      9  C   UNL     1      78.124  92.589  72.922  1.00  0.00     0.022 C 
ATOM     10  C   UNL     1      77.756  93.466  74.115  1.00  0.00     0.004 C 
ENDBRANCH   1   3
BRANCH   2  11
ATOM     11  C   UNL     1      75.930  88.351  69.913  1.00  0.00     0.001 C 
ATOM     12  C   UNL     1      76.177  87.044  70.099  1.00  0.00     0.008 C 
BRANCH  12  13
ATOM     13  C   UNL     1      76.611  86.109  69.047  1.00  0.00    -0.022 A 
ATOM     14  C   UNL     1      75.837  84.989  68.778  1.00  0.00     0.058 A 
ATOM     15  C   UNL     1      77.792  86.375  68.349  1.00  0.00     0.012 A 
ATOM     16  C   UNL     1      76.284  84.143  67.784  1.00  0.00     0.166 A 
ATOM     17  C   UNL     1      78.221  85.502  67.348  1.00  0.00     0.051 A 
ATOM     18  O   UNL     1      75.671  82.999  67.374  1.00  0.00    -0.454 OA
ATOM     19  C   UNL     1      77.444  84.392  67.087  1.00  0.00     0.165 A 
ATOM     20  C   UNL     1      76.576  82.556  66.342  1.00  0.00     0.468 C 
ATOM     21  O   UNL     1      77.703  83.436  66.154  1.00  0.00    -0.454 OA
ENDBRANCH  12  13
ENDBRANCH   2  11
TORSDOF 3
ENDMDL
MODEL 9
REMARK VINA RESULT:    -6.433     24.285     25.725
REMARK INTER + INTRA:          -7.971
REMARK INTER:                  -7.589
REMARK INTRA:                  -0.383
REMARK UNBOUND:                -0.410
REMARK SMILES O=C(/C=C/C=C/c1ccc2c(c1)OCO2)N1CCCCC1
REMARK SMILES IDX 3 1 4 2 2 3 1 4 16 5 17 6 21 7 18 8 20 9 19 10 5 11 6 12
REMARK SMILES IDX 7 13 12 14 8 15 11 16 9 17 13 18 10 19 14 20 15 21
REMARK H PARENT
REMARK Flexibility Score: inf
ROOT
ATOM      1  C   UNL     1      75.469  88.026  70.592  1.00  0.00     0.071 C 
ATOM      2  C   UNL     1      74.449  88.861  70.776  1.00  0.00     0.006 C 
ENDROOT
BRANCH   1   3
ATOM      3  C   UNL     1      75.182  86.692  70.027  1.00  0.00     0.246 C 
ATOM      4  O   UNL     1      74.004  86.337  69.976  1.00  0.00    -0.270 OA
ATOM      5  N   UNL     1      76.262  85.924  69.594  1.00  0.00    -0.339 N 
ATOM      6  C   UNL     1      76.009  84.594  69.032  1.00  0.00     0.120 C 
ATOM      7  C   UNL     1      77.682  86.296  69.680  1.00  0.00     0.120 C 
ATOM      8  C   UNL     1      76.665  84.432  67.665  1.00  0.00     0.022 C 
ATOM      9  C   UNL     1      78.377  86.143  68.326  1.00  0.00     0.022 C 
ATOM     10  C   UNL     1      78.154  84.756  67.731  1.00  0.00     0.004 C 
ENDBRANCH   1   3
BRANCH   2  11
ATOM     11  C   UNL     1      74.630  90.188  71.324  1.00  0.00     0.001 C 
ATOM     12  C   UNL     1      75.708  90.944  71.058  1.00  0.00     0.008 C 
BRANCH  12  13
ATOM     13  C   UNL     1      75.946  92.294  71.595  1.00  0.00    -0.022 A 
ATOM     14  C   UNL     1      77.163  92.576  72.199  1.00  0.00     0.058 A 
ATOM     15  C   UNL     1      74.938  93.255  71.482  1.00  0.00     0.012 A 
ATOM     16  C   UNL     1      77.339  93.855  72.686  1.00  0.00     0.166 A 
ATOM     17  C   UNL     1      75.143  94.542  71.984  1.00  0.00     0.051 A 
ATOM     18  O   UNL     1      78.455  94.326  73.308  1.00  0.00    -0.454 OA
ATOM     19  C   UNL     1      76.356  94.812  72.581  1.00  0.00     0.165 A 
ATOM     20  C   UNL     1      78.063  95.686  73.584  1.00  0.00     0.468 C 
ATOM     21  O   UNL     1      76.733  96.002  73.125  1.00  0.00    -0.454 OA
ENDBRANCH  12  13
ENDBRANCH   2  11
TORSDOF 3
ENDMDL
MODEL 10
REMARK VINA RESULT:    -6.394     39.059     40.459
REMARK INTER + INTRA:          -7.926
REMARK INTER:                  -7.601
REMARK INTRA:                  -0.325
REMARK UNBOUND:                -0.410
REMARK SMILES O=C(/C=C/C=C/c1ccc2c(c1)OCO2)N1CCCCC1
REMARK SMILES IDX 3 1 4 2 2 3 1 4 16 5 17 6 21 7 18 8 20 9 19 10 5 11 6 12
REMARK SMILES IDX 7 13 12 14 8 15 11 16 9 17 13 18 10 19 14 20 15 21
REMARK H PARENT
REMARK Flexibility Score: inf
ROOT
ATOM      1  C   UNL     1      60.425  84.522  72.316  1.00  0.00     0.071 C 
ATOM      2  C   UNL     1      59.936  85.681  72.752  1.00  0.00     0.006 C 
ENDROOT
BRANCH   1   3
ATOM      3  C   UNL     1      61.441  83.841  73.143  1.00  0.00     0.246 C 
ATOM      4  O   UNL     1      61.198  83.700  74.342  1.00  0.00    -0.270 OA
ATOM      5  N   UNL     1      62.607  83.408  72.513  1.00  0.00    -0.339 N 
ATOM      6  C   UNL     1      63.637  82.733  73.309  1.00  0.00     0.120 C 
ATOM      7  C   UNL     1      62.952  83.597  71.096  1.00  0.00     0.120 C 
ATOM      8  C   UNL     1      64.029  81.394  72.694  1.00  0.00     0.022 C 
ATOM      9  C   UNL     1      63.354  82.275  70.443  1.00  0.00     0.022 C 
ATOM     10  C   UNL     1      64.446  81.564  71.237  1.00  0.00     0.004 C 
ENDBRANCH   1   3
BRANCH   2  11
ATOM     11  C   UNL     1      58.938  86.423  72.012  1.00  0.00     0.001 C 
ATOM     12  C   UNL     1      59.051  87.736  71.755  1.00  0.00     0.008 C 
BRANCH  12  13
ATOM     13  C   UNL     1      58.063  88.540  71.016  1.00  0.00    -0.022 A 
ATOM     14  C   UNL     1      57.588  88.073  69.797  1.00  0.00     0.058 A 
ATOM     15  C   UNL     1      57.630  89.751  71.561  1.00  0.00     0.012 A 
ATOM     16  C   UNL     1      56.664  88.860  69.142  1.00  0.00     0.166 A 
ATOM     17  C   UNL     1      56.694  90.529  70.876  1.00  0.00     0.051 A 
ATOM     18  O   UNL     1      56.083  88.580  67.943  1.00  0.00    -0.454 OA
ATOM     19  C   UNL     1      56.228  90.056  69.667  1.00  0.00     0.165 A 
ATOM     20  C   UNL     1      55.234  89.732  67.773  1.00  0.00     0.468 C 
ATOM     21  O   UNL     1      55.321  90.673  68.863  1.00  0.00    -0.454 OA
ENDBRANCH  12  13
ENDBRANCH   2  11
TORSDOF 3
ENDMDL
