MODEL 1
REMARK VINA RESULT:    -6.266      0.000      0.000
REMARK INTER + INTRA:         -10.766
REMARK INTER:                  -9.746
REMARK INTRA:                  -1.020
REMARK UNBOUND:                -1.020
REMARK SMILES COc1cc(CNC(=O)CCCCCC(C)C)ccc1O
REMARK SMILES IDX 10 1 8 2 7 3 9 5 6 6 5 7 3 8 20 9 4 10 19 11 18 12 2 13 1 14
REMARK SMILES IDX 21 15 11 17 12 18 13 19 14 20 15 21 16 22 17 23
REMARK H PARENT 7 4 21 16
REMARK Flexibility Score: inf
ROOT
ATOM      1  C   UNL     1      94.060  95.595  74.926  1.00  0.00     0.100 C 
ENDROOT
BRANCH   1   2
ATOM      2  C   UNL     1      95.313  95.194  75.598  1.00  0.00     0.220 C 
ATOM      3  N   UNL     1      95.854  96.008  76.548  1.00  0.00    -0.352 N 
ATOM      4  H   UNL     1      95.414  96.913  76.632  1.00  0.00     0.163 HD
ATOM      5  O   UNL     1      95.833  94.088  75.308  1.00  0.00    -0.275 OA
BRANCH   3   6
ATOM      6  C   UNL     1      96.954  95.668  77.392  1.00  0.00     0.151 C 
BRANCH   6   7
ATOM      7  C   UNL     1      96.534  95.184  78.734  1.00  0.00    -0.025 A 
ATOM      8  C   UNL     1      96.664  95.317  81.186  1.00  0.00     0.160 A 
ATOM      9  C   UNL     1      95.684  94.308  81.291  1.00  0.00     0.157 A 
ATOM     10  C   UNL     1      97.097  95.735  79.910  1.00  0.00     0.056 A 
ATOM     11  C   UNL     1      95.137  93.734  80.129  1.00  0.00     0.050 A 
ATOM     12  C   UNL     1      95.554  94.172  78.860  1.00  0.00     0.009 A 
BRANCH   8  13
ATOM     13  O   UNL     1      97.224  95.875  82.306  1.00  0.00    -0.493 OA
ATOM     14  C   UNL     1      96.689  97.170  82.640  1.00  0.00     0.278 C 
ENDBRANCH   8  13
BRANCH   9  15
ATOM     15  O   UNL     1      95.263  93.897  82.513  1.00  0.00    -0.504 OA
ATOM     16  H   UNL     1      94.934  94.650  83.009  1.00  0.00     0.293 HD
ENDBRANCH   9  15
ENDBRANCH   6   7
ENDBRANCH   3   6
ENDBRANCH   1   2
BRANCH   1  17
ATOM     17  C   UNL     1      92.935  94.526  74.984  1.00  0.00     0.010 C 
BRANCH  17  18
ATOM     18  C   UNL     1      92.146  94.598  76.320  1.00  0.00     0.001 C 
BRANCH  18  19
ATOM     19  C   UNL     1      92.363  93.361  77.231  1.00  0.00     0.000 C 
BRANCH  19  20
ATOM     20  C   UNL     1      91.024  92.657  77.598  1.00  0.00     0.003 C 
BRANCH  20  21
ATOM     21  C   UNL     1      90.740  91.333  76.817  1.00  0.00    -0.017 C 
ATOM     22  C   UNL     1      89.902  91.613  75.535  1.00  0.00     0.007 C 
ATOM     23  C   UNL     1      90.034  90.256  77.692  1.00  0.00     0.007 C 
ENDBRANCH  20  21
ENDBRANCH  19  20
ENDBRANCH  18  19
ENDBRANCH  17  18
ENDBRANCH   1  17
TORSDOF 10
ENDMDL
MODEL 2
REMARK VINA RESULT:    -6.100      1.508      2.194
REMARK INTER + INTRA:         -10.507
REMARK INTER:                  -9.686
REMARK INTRA:                  -0.821
REMARK UNBOUND:                -1.020
REMARK SMILES COc1cc(CNC(=O)CCCCCC(C)C)ccc1O
REMARK SMILES IDX 10 1 8 2 7 3 9 5 6 6 5 7 3 8 20 9 4 10 19 11 18 12 2 13 1 14
REMARK SMILES IDX 21 15 11 17 12 18 13 19 14 20 15 21 16 22 17 23
REMARK H PARENT 7 4 21 16
REMARK Flexibility Score: inf
ROOT
ATOM      1  C   UNL     1      92.341  94.305  75.963  1.00  0.00     0.100 C 
ENDROOT
BRANCH   1   2
ATOM      2  C   UNL     1      93.734  94.593  76.363  1.00  0.00     0.220 C 
ATOM      3  N   UNL     1      94.250  93.993  77.473  1.00  0.00    -0.352 N 
ATOM      4  H   UNL     1      93.580  93.481  78.030  1.00  0.00     0.163 HD
ATOM      5  O   UNL     1      94.429  95.353  75.646  1.00  0.00    -0.275 OA
BRANCH   3   6
ATOM      6  C   UNL     1      95.619  94.043  77.874  1.00  0.00     0.151 C 
BRANCH   6   7
ATOM      7  C   UNL     1      95.805  94.569  79.253  1.00  0.00    -0.025 A 
ATOM      8  C   UNL     1      96.317  96.432  80.774  1.00  0.00     0.160 A 
ATOM      9  C   UNL     1      96.094  95.586  81.881  1.00  0.00     0.157 A 
ATOM     10  C   UNL     1      96.190  95.914  79.468  1.00  0.00     0.056 A 
ATOM     11  C   UNL     1      95.738  94.240  81.679  1.00  0.00     0.050 A 
ATOM     12  C   UNL     1      95.589  93.736  80.376  1.00  0.00     0.009 A 
BRANCH   8  13
ATOM     13  O   UNL     1      96.685  97.740  80.949  1.00  0.00    -0.493 OA
ATOM     14  C   UNL     1      98.010  98.041  80.472  1.00  0.00     0.278 C 
ENDBRANCH   8  13
BRANCH   9  15
ATOM     15  O   UNL     1      96.217  96.074  83.141  1.00  0.00    -0.504 OA
ATOM     16  H   UNL     1      96.795  96.839  83.134  1.00  0.00     0.293 HD
ENDBRANCH   9  15
ENDBRANCH   6   7
ENDBRANCH   3   6
ENDBRANCH   1   2
BRANCH   1  17
ATOM     17  C   UNL     1      92.201  93.658  74.559  1.00  0.00     0.010 C 
BRANCH  17  18
ATOM     18  C   UNL     1      92.244  92.107  74.636  1.00  0.00     0.001 C 
BRANCH  18  19
ATOM     19  C   UNL     1      90.858  91.464  74.902  1.00  0.00     0.000 C 
BRANCH  19  20
ATOM     20  C   UNL     1      90.802  90.734  76.276  1.00  0.00     0.003 C 
BRANCH  20  21
ATOM     21  C   UNL     1      90.572  91.666  77.510  1.00  0.00    -0.017 C 
ATOM     22  C   UNL     1      90.256  90.831  78.785  1.00  0.00     0.007 C 
ATOM     23  C   UNL     1      89.452  92.720  77.271  1.00  0.00     0.007 C 
ENDBRANCH  20  21
ENDBRANCH  19  20
ENDBRANCH  18  19
ENDBRANCH  17  18
ENDBRANCH   1  17
TORSDOF 10
ENDMDL
MODEL 3
REMARK VINA RESULT:    -5.654     15.625     18.188
REMARK INTER + INTRA:          -9.814
REMARK INTER:                  -8.021
REMARK INTRA:                  -1.793
REMARK UNBOUND:                -1.020
REMARK SMILES COc1cc(CNC(=O)CCCCCC(C)C)ccc1O
REMARK SMILES IDX 10 1 8 2 7 3 9 5 6 6 5 7 3 8 20 9 4 10 19 11 18 12 2 13 1 14
REMARK SMILES IDX 21 15 11 17 12 18 13 19 14 20 15 21 16 22 17 23
REMARK H PARENT 7 4 21 16
REMARK Flexibility Score: inf
ROOT
ATOM      1  C   UNL     1      80.852  85.920  84.438  1.00  0.00     0.100 C 
ENDROOT
BRANCH   1   2
ATOM      2  C   UNL     1      81.614  85.930  85.704  1.00  0.00     0.220 C 
ATOM      3  N   UNL     1      80.989  86.298  86.858  1.00  0.00    -0.352 N 
ATOM      4  H   UNL     1      80.058  86.672  86.737  1.00  0.00     0.163 HD
ATOM      5  O   UNL     1      82.812  85.559  85.697  1.00  0.00    -0.275 OA
BRANCH   3   6
ATOM      6  C   UNL     1      81.549  86.189  88.167  1.00  0.00     0.151 C 
BRANCH   6   7
ATOM      7  C   UNL     1      81.163  87.312  89.063  1.00  0.00    -0.025 A 
ATOM      8  C   UNL     1      79.440  88.796  90.002  1.00  0.00     0.160 A 
ATOM      9  C   UNL     1      80.415  89.406  90.820  1.00  0.00     0.157 A 
ATOM     10  C   UNL     1      79.823  87.766  89.116  1.00  0.00     0.056 A 
ATOM     11  C   UNL     1      81.755  88.981  90.756  1.00  0.00     0.050 A 
ATOM     12  C   UNL     1      82.125  87.939  89.889  1.00  0.00     0.009 A 
BRANCH   8  13
ATOM     13  O   UNL     1      78.134  89.208  90.035  1.00  0.00    -0.493 OA
ATOM     14  C   UNL     1      77.259  88.313  90.747  1.00  0.00     0.278 C 
ENDBRANCH   8  13
BRANCH   9  15
ATOM     15  O   UNL     1      80.058  90.398  91.673  1.00  0.00    -0.504 OA
ATOM     16  H   UNL     1      80.037  90.057  92.570  1.00  0.00     0.293 HD
ENDBRANCH   9  15
ENDBRANCH   6   7
ENDBRANCH   3   6
ENDBRANCH   1   2
BRANCH   1  17
ATOM     17  C   UNL     1      80.742  87.305  83.747  1.00  0.00     0.010 C 
BRANCH  17  18
ATOM     18  C   UNL     1      79.516  88.107  84.263  1.00  0.00     0.001 C 
BRANCH  18  19
ATOM     19  C   UNL     1      79.892  89.484  84.873  1.00  0.00     0.000 C 
BRANCH  19  20
ATOM     20  C   UNL     1      81.380  89.856  84.612  1.00  0.00     0.003 C 
BRANCH  20  21
ATOM     21  C   UNL     1      82.201  90.227  85.890  1.00  0.00    -0.017 C 
ATOM     22  C   UNL     1      83.232  89.111  86.232  1.00  0.00     0.007 C 
ATOM     23  C   UNL     1      81.299  90.517  87.125  1.00  0.00     0.007 C 
ENDBRANCH  20  21
ENDBRANCH  19  20
ENDBRANCH  18  19
ENDBRANCH  17  18
ENDBRANCH   1  17
TORSDOF 10
ENDMDL
MODEL 4
REMARK VINA RESULT:    -5.577      2.046      2.757
REMARK INTER + INTRA:          -9.695
REMARK INTER:                  -9.103
REMARK INTRA:                  -0.592
REMARK UNBOUND:                -1.020
REMARK SMILES COc1cc(CNC(=O)CCCCCC(C)C)ccc1O
REMARK SMILES IDX 10 1 8 2 7 3 9 5 6 6 5 7 3 8 20 9 4 10 19 11 18 12 2 13 1 14
REMARK SMILES IDX 21 15 11 17 12 18 13 19 14 20 15 21 16 22 17 23
REMARK H PARENT 7 4 21 16
REMARK Flexibility Score: inf
ROOT
ATOM      1  C   UNL     1      92.887  93.335  76.255  1.00  0.00     0.100 C 
ENDROOT
BRANCH   1   2
ATOM      2  C   UNL     1      94.064  94.151  76.619  1.00  0.00     0.220 C 
ATOM      3  N   UNL     1      94.841  93.772  77.674  1.00  0.00    -0.352 N 
ATOM      4  H   UNL     1      94.469  93.012  78.224  1.00  0.00     0.163 HD
ATOM      5  O   UNL     1      94.348  95.155  75.922  1.00  0.00    -0.275 OA
BRANCH   3   6
ATOM      6  C   UNL     1      96.092  94.362  78.026  1.00  0.00     0.151 C 
BRANCH   6   7
ATOM      7  C   UNL     1      96.125  94.872  79.423  1.00  0.00    -0.025 A 
ATOM      8  C   UNL     1      96.740  96.618  81.042  1.00  0.00     0.160 A 
ATOM      9  C   UNL     1      96.128  95.874  82.073  1.00  0.00     0.157 A 
ATOM     10  C   UNL     1      96.751  96.104  79.728  1.00  0.00     0.056 A 
ATOM     11  C   UNL     1      95.526  94.635  81.786  1.00  0.00     0.050 A 
ATOM     12  C   UNL     1      95.519  94.141  80.471  1.00  0.00     0.009 A 
BRANCH   8  13
ATOM     13  O   UNL     1      97.350  97.817  81.304  1.00  0.00    -0.493 OA
ATOM     14  C   UNL     1      96.632  98.958  80.797  1.00  0.00     0.278 C 
ENDBRANCH   8  13
BRANCH   9  15
ATOM     15  O   UNL     1      96.114  96.358  83.341  1.00  0.00    -0.504 OA
ATOM     16  H   UNL     1      96.678  97.133  83.394  1.00  0.00     0.293 HD
ENDBRANCH   9  15
ENDBRANCH   6   7
ENDBRANCH   3   6
ENDBRANCH   1   2
BRANCH   1  17
ATOM     17  C   UNL     1      91.717  94.144  75.634  1.00  0.00     0.010 C 
BRANCH  17  18
ATOM     18  C   UNL     1      91.385  93.657  74.196  1.00  0.00     0.001 C 
BRANCH  18  19
ATOM     19  C   UNL     1      91.468  92.117  74.032  1.00  0.00     0.000 C 
BRANCH  19  20
ATOM     20  C   UNL     1      90.061  91.454  73.978  1.00  0.00     0.003 C 
BRANCH  20  21
ATOM     21  C   UNL     1      89.748  90.677  72.658  1.00  0.00    -0.017 C 
ATOM     22  C   UNL     1      90.336  91.421  71.423  1.00  0.00     0.007 C 
ATOM     23  C   UNL     1      88.226  90.423  72.453  1.00  0.00     0.007 C 
ENDBRANCH  20  21
ENDBRANCH  19  20
ENDBRANCH  18  19
ENDBRANCH  17  18
ENDBRANCH   1  17
TORSDOF 10
ENDMDL
MODEL 5
REMARK VINA RESULT:    -5.566     29.150     31.342
REMARK INTER + INTRA:          -9.678
REMARK INTER:                  -8.980
REMARK INTRA:                  -0.697
REMARK UNBOUND:                -1.020
REMARK SMILES COc1cc(CNC(=O)CCCCCC(C)C)ccc1O
REMARK SMILES IDX 10 1 8 2 7 3 9 5 6 6 5 7 3 8 20 9 4 10 19 11 18 12 2 13 1 14
REMARK SMILES IDX 21 15 11 17 12 18 13 19 14 20 15 21 16 22 17 23
REMARK H PARENT 7 4 21 16
REMARK Flexibility Score: inf
ROOT
ATOM      1  C   UNL     1      63.301  85.393  76.490  1.00  0.00     0.100 C 
ENDROOT
BRANCH   1   2
ATOM      2  C   UNL     1      64.588  85.942  76.965  1.00  0.00     0.220 C 
ATOM      3  N   UNL     1      64.656  86.516  78.199  1.00  0.00    -0.352 N 
ATOM      4  H   UNL     1      63.765  86.644  78.658  1.00  0.00     0.163 HD
ATOM      5  O   UNL     1      65.604  85.830  76.237  1.00  0.00    -0.275 OA
BRANCH   3   6
ATOM      6  C   UNL     1      65.859  86.927  78.849  1.00  0.00     0.151 C 
BRANCH   6   7
ATOM      7  C   UNL     1      66.115  86.198  80.121  1.00  0.00    -0.025 A 
ATOM      8  C   UNL     1      65.410  85.547  82.385  1.00  0.00     0.160 A 
ATOM      9  C   UNL     1      66.570  84.755  82.516  1.00  0.00     0.157 A 
ATOM     10  C   UNL     1      65.199  86.278  81.196  1.00  0.00     0.056 A 
ATOM     11  C   UNL     1      67.501  84.689  81.463  1.00  0.00     0.050 A 
ATOM     12  C   UNL     1      67.273  85.400  80.273  1.00  0.00     0.009 A 
BRANCH   8  13
ATOM     13  O   UNL     1      64.501  85.640  83.406  1.00  0.00    -0.493 OA
ATOM     14  C   UNL     1      63.795  86.896  83.444  1.00  0.00     0.278 C 
ENDBRANCH   8  13
BRANCH   9  15
ATOM     15  O   UNL     1      66.783  84.050  83.655  1.00  0.00    -0.504 OA
ATOM     16  H   UNL     1      66.594  83.122  83.498  1.00  0.00     0.293 HD
ENDBRANCH   9  15
ENDBRANCH   6   7
ENDBRANCH   3   6
ENDBRANCH   1   2
BRANCH   1  17
ATOM     17  C   UNL     1      63.436  84.346  75.351  1.00  0.00     0.010 C 
BRANCH  17  18
ATOM     18  C   UNL     1      62.593  83.073  75.640  1.00  0.00     0.001 C 
BRANCH  18  19
ATOM     19  C   UNL     1      63.409  81.758  75.535  1.00  0.00     0.000 C 
BRANCH  19  20
ATOM     20  C   UNL     1      62.820  80.784  74.473  1.00  0.00     0.003 C 
BRANCH  20  21
ATOM     21  C   UNL     1      63.679  80.622  73.177  1.00  0.00    -0.017 C 
ATOM     22  C   UNL     1      65.193  80.818  73.486  1.00  0.00     0.007 C 
ATOM     23  C   UNL     1      63.238  81.585  72.036  1.00  0.00     0.007 C 
ENDBRANCH  20  21
ENDBRANCH  19  20
ENDBRANCH  18  19
ENDBRANCH  17  18
ENDBRANCH   1  17
TORSDOF 10
ENDMDL
MODEL 6
REMARK VINA RESULT:    -5.552     14.524     16.428
REMARK INTER + INTRA:          -9.656
REMARK INTER:                  -8.320
REMARK INTRA:                  -1.336
REMARK UNBOUND:                -1.020
REMARK SMILES COc1cc(CNC(=O)CCCCCC(C)C)ccc1O
REMARK SMILES IDX 10 1 8 2 7 3 9 5 6 6 5 7 3 8 20 9 4 10 19 11 18 12 2 13 1 14
REMARK SMILES IDX 21 15 11 17 12 18 13 19 14 20 15 21 16 22 17 23
REMARK H PARENT 7 4 21 16
REMARK Flexibility Score: inf
ROOT
ATOM      1  C   UNL     1      80.979  88.841  83.907  1.00  0.00     0.100 C 
ENDROOT
BRANCH   1   2
ATOM      2  C   UNL     1      82.123  89.093  84.808  1.00  0.00     0.220 C 
ATOM      3  N   UNL     1      81.987  89.987  85.828  1.00  0.00    -0.352 N 
ATOM      4  H   UNL     1      81.131  90.523  85.812  1.00  0.00     0.163 HD
ATOM      5  O   UNL     1      83.185  88.445  84.641  1.00  0.00    -0.275 OA
BRANCH   3   6
ATOM      6  C   UNL     1      82.942  90.198  86.868  1.00  0.00     0.151 C 
BRANCH   6   7
ATOM      7  C   UNL     1      82.580  91.320  87.776  1.00  0.00    -0.025 A 
ATOM      8  C   UNL     1      82.926  93.625  88.560  1.00  0.00     0.160 A 
ATOM      9  C   UNL     1      81.846  93.479  89.457  1.00  0.00     0.157 A 
ATOM     10  C   UNL     1      83.297  92.539  87.739  1.00  0.00     0.056 A 
ATOM     11  C   UNL     1      81.142  92.262  89.521  1.00  0.00     0.050 A 
ATOM     12  C   UNL     1      81.502  91.193  88.683  1.00  0.00     0.009 A 
BRANCH   8  13
ATOM     13  O   UNL     1      83.636  94.795  88.496  1.00  0.00    -0.493 OA
ATOM     14  C   UNL     1      83.571  95.446  87.213  1.00  0.00     0.278 C 
ENDBRANCH   8  13
BRANCH   9  15
ATOM     15  O   UNL     1      81.482  94.516  90.252  1.00  0.00    -0.504 OA
ATOM     16  H   UNL     1      81.907  94.428  91.108  1.00  0.00     0.293 HD
ENDBRANCH   9  15
ENDBRANCH   6   7
ENDBRANCH   3   6
ENDBRANCH   1   2
BRANCH   1  17
ATOM     17  C   UNL     1      79.856  87.968  84.529  1.00  0.00     0.010 C 
BRANCH  17  18
ATOM     18  C   UNL     1      80.275  86.475  84.618  1.00  0.00     0.001 C 
BRANCH  18  19
ATOM     19  C   UNL     1      80.139  85.880  86.045  1.00  0.00     0.000 C 
BRANCH  19  20
ATOM     20  C   UNL     1      81.233  86.417  87.013  1.00  0.00     0.003 C 
BRANCH  20  21
ATOM     21  C   UNL     1      80.723  87.429  88.090  1.00  0.00    -0.017 C 
ATOM     22  C   UNL     1      81.723  87.525  89.280  1.00  0.00     0.007 C 
ATOM     23  C   UNL     1      79.299  87.086  88.615  1.00  0.00     0.007 C 
ENDBRANCH  20  21
ENDBRANCH  19  20
ENDBRANCH  18  19
ENDBRANCH  17  18
ENDBRANCH   1  17
TORSDOF 10
ENDMDL
MODEL 7
REMARK VINA RESULT:    -5.550     14.156     17.261
REMARK INTER + INTRA:          -9.652
REMARK INTER:                  -8.567
REMARK INTRA:                  -1.085
REMARK UNBOUND:                -1.020
REMARK SMILES COc1cc(CNC(=O)CCCCCC(C)C)ccc1O
REMARK SMILES IDX 10 1 8 2 7 3 9 5 6 6 5 7 3 8 20 9 4 10 19 11 18 12 2 13 1 14
REMARK SMILES IDX 21 15 11 17 12 18 13 19 14 20 15 21 16 22 17 23
REMARK H PARENT 7 4 21 16
REMARK Flexibility Score: inf
ROOT
ATOM      1  C   UNL     1      84.681  90.728  86.045  1.00  0.00     0.100 C 
ENDROOT
BRANCH   1   2
ATOM      2  C   UNL     1      83.881  90.790  87.286  1.00  0.00     0.220 C 
ATOM      3  N   UNL     1      83.838  89.705  88.110  1.00  0.00    -0.352 N 
ATOM      4  H   UNL     1      84.264  88.870  87.734  1.00  0.00     0.163 HD
ATOM      5  O   UNL     1      83.290  91.859  87.577  1.00  0.00    -0.275 OA
BRANCH   3   6
ATOM      6  C   UNL     1      83.253  89.684  89.412  1.00  0.00     0.151 C 
BRANCH   6   7
ATOM      7  C   UNL     1      81.875  89.124  89.425  1.00  0.00    -0.025 A 
ATOM      8  C   UNL     1      79.450  89.431  89.699  1.00  0.00     0.160 A 
ATOM      9  C   UNL     1      79.245  88.072  89.383  1.00  0.00     0.157 A 
ATOM     10  C   UNL     1      80.765  89.944  89.736  1.00  0.00     0.056 A 
ATOM     11  C   UNL     1      80.343  87.241  89.097  1.00  0.00     0.050 A 
ATOM     12  C   UNL     1      81.648  87.763  89.112  1.00  0.00     0.009 A 
BRANCH   8  13
ATOM     13  O   UNL     1      78.396  90.253  90.000  1.00  0.00    -0.493 OA
ATOM     14  C   UNL     1      78.341  91.447  89.196  1.00  0.00     0.278 C 
ENDBRANCH   8  13
BRANCH   9  15
ATOM     15  O   UNL     1      77.985  87.568  89.346  1.00  0.00    -0.504 OA
ATOM     16  H   UNL     1      77.719  87.307  90.230  1.00  0.00     0.293 HD
ENDBRANCH   9  15
ENDBRANCH   6   7
ENDBRANCH   3   6
ENDBRANCH   1   2
BRANCH   1  17
ATOM     17  C   UNL     1      83.841  90.546  84.753  1.00  0.00     0.010 C 
BRANCH  17  18
ATOM     18  C   UNL     1      83.057  89.205  84.763  1.00  0.00     0.001 C 
BRANCH  18  19
ATOM     19  C   UNL     1      81.605  89.343  85.292  1.00  0.00     0.000 C 
BRANCH  19  20
ATOM     20  C   UNL     1      80.549  89.177  84.162  1.00  0.00     0.003 C 
BRANCH  20  21
ATOM     21  C   UNL     1      79.843  87.783  84.117  1.00  0.00    -0.017 C 
ATOM     22  C   UNL     1      80.158  86.959  85.400  1.00  0.00     0.007 C 
ATOM     23  C   UNL     1      80.212  86.959  82.849  1.00  0.00     0.007 C 
ENDBRANCH  20  21
ENDBRANCH  19  20
ENDBRANCH  18  19
ENDBRANCH  17  18
ENDBRANCH   1  17
TORSDOF 10
ENDMDL
MODEL 8
REMARK VINA RESULT:    -5.395     14.638     17.650
REMARK INTER + INTRA:          -9.412
REMARK INTER:                  -8.230
REMARK INTRA:                  -1.182
REMARK UNBOUND:                -1.020
REMARK SMILES COc1cc(CNC(=O)CCCCCC(C)C)ccc1O
REMARK SMILES IDX 10 1 8 2 7 3 9 5 6 6 5 7 3 8 20 9 4 10 19 11 18 12 2 13 1 14
REMARK SMILES IDX 21 15 11 17 12 18 13 19 14 20 15 21 16 22 17 23
REMARK H PARENT 7 4 21 16
REMARK Flexibility Score: inf
ROOT
ATOM      1  C   UNL     1      83.763  90.540  89.352  1.00  0.00     0.100 C 
ENDROOT
BRANCH   1   2
ATOM      2  C   UNL     1      83.448  90.886  87.950  1.00  0.00     0.220 C 
ATOM      3  N   UNL     1      83.723  89.990  86.961  1.00  0.00    -0.352 N 
ATOM      4  H   UNL     1      84.257  89.184  87.254  1.00  0.00     0.163 HD
ATOM      5  O   UNL     1      82.893  91.985  87.705  1.00  0.00    -0.275 OA
BRANCH   3   6
ATOM      6  C   UNL     1      83.316  90.120  85.599  1.00  0.00     0.151 C 
BRANCH   6   7
ATOM      7  C   UNL     1      82.324  89.091  85.184  1.00  0.00    -0.025 A 
ATOM      8  C   UNL     1      81.411  86.815  85.363  1.00  0.00     0.160 A 
ATOM      9  C   UNL     1      80.394  87.153  84.446  1.00  0.00     0.157 A 
ATOM     10  C   UNL     1      82.381  87.779  85.712  1.00  0.00     0.056 A 
ATOM     11  C   UNL     1      80.344  88.447  83.895  1.00  0.00     0.050 A 
ATOM     12  C   UNL     1      81.298  89.410  84.265  1.00  0.00     0.009 A 
BRANCH   8  13
ATOM     13  O   UNL     1      81.490  85.555  85.896  1.00  0.00    -0.493 OA
ATOM     14  C   UNL     1      82.811  85.191  86.339  1.00  0.00     0.278 C 
ENDBRANCH   8  13
BRANCH   9  15
ATOM     15  O   UNL     1      79.459  86.233  84.102  1.00  0.00    -0.504 OA
ATOM     16  H   UNL     1      79.686  85.385  84.490  1.00  0.00     0.293 HD
ENDBRANCH   9  15
ENDBRANCH   6   7
ENDBRANCH   3   6
ENDBRANCH   1   2
BRANCH   1  17
ATOM     17  C   UNL     1      82.617  89.809  90.102  1.00  0.00     0.010 C 
BRANCH  17  18
ATOM     18  C   UNL     1      81.692  89.037  89.122  1.00  0.00     0.001 C 
BRANCH  18  19
ATOM     19  C   UNL     1      81.657  87.508  89.383  1.00  0.00     0.000 C 
BRANCH  19  20
ATOM     20  C   UNL     1      80.279  86.881  89.020  1.00  0.00     0.003 C 
BRANCH  20  21
ATOM     21  C   UNL     1      79.228  86.882  90.178  1.00  0.00    -0.017 C 
ATOM     22  C   UNL     1      78.183  88.019  89.979  1.00  0.00     0.007 C 
ATOM     23  C   UNL     1      79.881  86.997  91.586  1.00  0.00     0.007 C 
ENDBRANCH  20  21
ENDBRANCH  19  20
ENDBRANCH  18  19
ENDBRANCH  17  18
ENDBRANCH   1  17
TORSDOF 10
ENDMDL
MODEL 9
REMARK VINA RESULT:    -5.358      6.408     10.230
REMARK INTER + INTRA:          -9.354
REMARK INTER:                  -8.649
REMARK INTRA:                  -0.705
REMARK UNBOUND:                -1.020
REMARK SMILES COc1cc(CNC(=O)CCCCCC(C)C)ccc1O
REMARK SMILES IDX 10 1 8 2 7 3 9 5 6 6 5 7 3 8 20 9 4 10 19 11 18 12 2 13 1 14
REMARK SMILES IDX 21 15 11 17 12 18 13 19 14 20 15 21 16 22 17 23
REMARK H PARENT 7 4 21 16
REMARK Flexibility Score: inf
ROOT
ATOM      1  C   UNL     1      94.075  97.386  73.630  1.00  0.00     0.100 C 
ENDROOT
BRANCH   1   2
ATOM      2  C   UNL     1      94.068  98.112  72.343  1.00  0.00     0.220 C 
ATOM      3  N   UNL     1      93.042  98.963  72.060  1.00  0.00    -0.352 N 
ATOM      4  H   UNL     1      92.273  98.934  72.714  1.00  0.00     0.163 HD
ATOM      5  O   UNL     1      95.033  97.962  71.553  1.00  0.00    -0.275 OA
BRANCH   3   6
ATOM      6  C   UNL     1      92.995  99.851  70.943  1.00  0.00     0.151 C 
BRANCH   6   7
ATOM      7  C   UNL     1      92.029  99.423  69.895  1.00  0.00    -0.025 A 
ATOM      8  C   UNL     1      91.110  99.640  67.625  1.00  0.00     0.160 A 
ATOM      9  C   UNL     1      90.235  98.562  67.878  1.00  0.00     0.157 A 
ATOM     10  C   UNL     1      91.987 100.076  68.641  1.00  0.00     0.056 A 
ATOM     11  C   UNL     1      90.249  97.923  69.132  1.00  0.00     0.050 A 
ATOM     12  C   UNL     1      91.143  98.346  70.131  1.00  0.00     0.009 A 
BRANCH   8  13
ATOM     13  O   UNL     1      91.098 100.289  66.418  1.00  0.00    -0.493 OA
ATOM     14  C   UNL     1      92.277 101.079  66.171  1.00  0.00     0.278 C 
ENDBRANCH   8  13
BRANCH   9  15
ATOM     15  O   UNL     1      89.386  98.137  66.910  1.00  0.00    -0.504 OA
ATOM     16  H   UNL     1      89.173  97.212  67.053  1.00  0.00     0.293 HD
ENDBRANCH   9  15
ENDBRANCH   6   7
ENDBRANCH   3   6
ENDBRANCH   1   2
BRANCH   1  17
ATOM     17  C   UNL     1      95.492  97.030  74.154  1.00  0.00     0.010 C 
BRANCH  17  18
ATOM     18  C   UNL     1      95.426  96.222  75.479  1.00  0.00     0.001 C 
BRANCH  18  19
ATOM     19  C   UNL     1      94.769  94.826  75.318  1.00  0.00     0.000 C 
BRANCH  19  20
ATOM     20  C   UNL     1      93.885  94.446  76.541  1.00  0.00     0.003 C 
BRANCH  20  21
ATOM     21  C   UNL     1      92.523  93.766  76.186  1.00  0.00    -0.017 C 
ATOM     22  C   UNL     1      92.553  93.183  74.742  1.00  0.00     0.007 C 
ATOM     23  C   UNL     1      91.308  94.724  76.350  1.00  0.00     0.007 C 
ENDBRANCH  20  21
ENDBRANCH  19  20
ENDBRANCH  18  19
ENDBRANCH  17  18
ENDBRANCH   1  17
TORSDOF 10
ENDMDL
MODEL 10
REMARK VINA RESULT:    -5.356     19.013     21.076
REMARK INTER + INTRA:          -9.352
REMARK INTER:                  -8.757
REMARK INTRA:                  -0.594
REMARK UNBOUND:                -1.020
REMARK SMILES COc1cc(CNC(=O)CCCCCC(C)C)ccc1O
REMARK SMILES IDX 10 1 8 2 7 3 9 5 6 6 5 7 3 8 20 9 4 10 19 11 18 12 2 13 1 14
REMARK SMILES IDX 21 15 11 17 12 18 13 19 14 20 15 21 16 22 17 23
REMARK H PARENT 7 4 21 16
REMARK Flexibility Score: inf
ROOT
ATOM      1  C   UNL     1      76.708  89.990  65.158  1.00  0.00     0.100 C 
ENDROOT
BRANCH   1   2
ATOM      2  C   UNL     1      77.003  91.314  64.571  1.00  0.00     0.220 C 
ATOM      3  N   UNL     1      76.337  92.412  65.027  1.00  0.00    -0.352 N 
ATOM      4  H   UNL     1      75.574  92.214  65.659  1.00  0.00     0.163 HD
ATOM      5  O   UNL     1      77.896  91.405  63.693  1.00  0.00    -0.275 OA
BRANCH   3   6
ATOM      6  C   UNL     1      76.642  93.762  64.677  1.00  0.00     0.151 C 
BRANCH   6   7
ATOM      7  C   UNL     1      77.566  94.421  65.639  1.00  0.00    -0.025 A 
ATOM      8  C   UNL     1      78.004  95.371  67.865  1.00  0.00     0.160 A 
ATOM      9  C   UNL     1      79.344  95.613  67.495  1.00  0.00     0.157 A 
ATOM     10  C   UNL     1      77.119  94.794  66.929  1.00  0.00     0.056 A 
ATOM     11  C   UNL     1      79.792  95.270  66.206  1.00  0.00     0.050 A 
ATOM     12  C   UNL     1      78.912  94.673  65.287  1.00  0.00     0.009 A 
BRANCH   8  13
ATOM     13  O   UNL     1      77.542  95.716  69.108  1.00  0.00    -0.493 OA
ATOM     14  C   UNL     1      77.028  94.605  69.867  1.00  0.00     0.278 C 
ENDBRANCH   8  13
BRANCH   9  15
ATOM     15  O   UNL     1      80.202  96.170  68.386  1.00  0.00    -0.504 OA
ATOM     16  H   UNL     1      80.173  95.677  69.209  1.00  0.00     0.293 HD
ENDBRANCH   9  15
ENDBRANCH   6   7
ENDBRANCH   3   6
ENDBRANCH   1   2
BRANCH   1  17
ATOM     17  C   UNL     1      77.776  88.905  64.856  1.00  0.00     0.010 C 
BRANCH  17  18
ATOM     18  C   UNL     1      78.281  88.221  66.156  1.00  0.00     0.001 C 
BRANCH  18  19
ATOM     19  C   UNL     1      77.930  86.712  66.235  1.00  0.00     0.000 C 
BRANCH  19  20
ATOM     20  C   UNL     1      77.116  86.364  67.515  1.00  0.00     0.003 C 
BRANCH  20  21
ATOM     21  C   UNL     1      77.089  84.845  67.888  1.00  0.00    -0.017 C 
ATOM     22  C   UNL     1      77.286  83.960  66.622  1.00  0.00     0.007 C 
ATOM     23  C   UNL     1      75.789  84.429  68.634  1.00  0.00     0.007 C 
ENDBRANCH  20  21
ENDBRANCH  19  20
ENDBRANCH  18  19
ENDBRANCH  17  18
ENDBRANCH   1  17
TORSDOF 10
ENDMDL
