MODEL 1
REMARK VINA RESULT:    -5.870      0.000      0.000
REMARK INTER + INTRA:         -10.090
REMARK INTER:                  -9.474
REMARK INTRA:                  -0.616
REMARK UNBOUND:                -0.616
REMARK SMILES CCCCCCCCC(=O)NCc1ccc(O)c(OC)c1
REMARK SMILES IDX 7 1 6 2 5 3 4 4 3 5 2 6 1 7 8 8 9 9 10 10 11 11 12 13 13 14
REMARK SMILES IDX 21 15 14 16 18 17 15 18 16 19 19 20 20 21 17 22
REMARK H PARENT 11 12 17 23
REMARK Flexibility Score: inf
ROOT
ATOM      1  C   UNL     1      92.405  93.239  77.971  1.00  0.00     0.010 C 
ENDROOT
BRANCH   1   2
ATOM      2  C   UNL     1      90.988  93.656  77.482  1.00  0.00     0.001 C 
BRANCH   2   3
ATOM      3  C   UNL     1      89.929  92.540  77.727  1.00  0.00     0.000 C 
BRANCH   3   4
ATOM      4  C   UNL     1      89.924  91.431  76.637  1.00  0.00    -0.000 C 
BRANCH   4   5
ATOM      5  C   UNL     1      90.335  91.965  75.236  1.00  0.00    -0.000 C 
BRANCH   5   6
ATOM      6  C   UNL     1      90.232  90.879  74.131  1.00  0.00    -0.003 C 
ATOM      7  C   UNL     1      90.825  89.521  74.567  1.00  0.00     0.004 C 
ENDBRANCH   5   6
ENDBRANCH   4   5
ENDBRANCH   3   4
ENDBRANCH   2   3
ENDBRANCH   1   2
BRANCH   1   8
ATOM      8  C   UNL     1      93.440  94.399  77.960  1.00  0.00     0.100 C 
BRANCH   8   9
ATOM      9  C   UNL     1      94.020  94.593  76.609  1.00  0.00     0.220 C 
ATOM     10  O   UNL     1      94.688  93.657  76.108  1.00  0.00    -0.275 OA
ATOM     11  N   UNL     1      93.802  95.752  75.921  1.00  0.00    -0.352 N 
ATOM     12  H   UNL     1      93.326  96.468  76.450  1.00  0.00     0.163 HD
BRANCH  11  13
ATOM     13  C   UNL     1      94.184  96.003  74.565  1.00  0.00     0.151 C 
BRANCH  13  14
ATOM     14  C   UNL     1      94.544  97.421  74.295  1.00  0.00    -0.025 A 
ATOM     15  C   UNL     1      93.605  98.291  73.691  1.00  0.00     0.056 A 
ATOM     16  C   UNL     1      95.823  97.922  74.630  1.00  0.00     0.009 A 
ATOM     17  C   UNL     1      93.927  99.646  73.443  1.00  0.00     0.160 A 
ATOM     18  C   UNL     1      96.149  99.269  74.387  1.00  0.00     0.050 A 
ATOM     19  C   UNL     1      95.209 100.130  73.789  1.00  0.00     0.157 A 
BRANCH  17  20
ATOM     20  O   UNL     1      93.031 100.477  72.819  1.00  0.00    -0.493 OA
ATOM     21  C   UNL     1      92.672 100.063  71.489  1.00  0.00     0.278 C 
ENDBRANCH  17  20
BRANCH  19  22
ATOM     22  O   UNL     1      95.543 101.421  73.534  1.00  0.00    -0.504 OA
ATOM     23  H   UNL     1      96.471 101.558  73.739  1.00  0.00     0.293 HD
ENDBRANCH  19  22
ENDBRANCH  13  14
ENDBRANCH  11  13
ENDBRANCH   8   9
ENDBRANCH   1   8
TORSDOF 11
ENDMDL
MODEL 2
REMARK VINA RESULT:    -5.827      3.351      5.803
REMARK INTER + INTRA:         -10.019
REMARK INTER:                  -9.426
REMARK INTRA:                  -0.593
REMARK UNBOUND:                -0.616
REMARK SMILES CCCCCCCCC(=O)NCc1ccc(O)c(OC)c1
REMARK SMILES IDX 7 1 6 2 5 3 4 4 3 5 2 6 1 7 8 8 9 9 10 10 11 11 12 13 13 14
REMARK SMILES IDX 21 15 14 16 18 17 15 18 16 19 19 20 20 21 17 22
REMARK H PARENT 11 12 17 23
REMARK Flexibility Score: inf
ROOT
ATOM      1  C   UNL     1      94.069  96.671  74.280  1.00  0.00     0.010 C 
ENDROOT
BRANCH   1   2
ATOM      2  C   UNL     1      93.537  95.928  75.539  1.00  0.00     0.001 C 
BRANCH   2   3
ATOM      3  C   UNL     1      93.768  94.390  75.456  1.00  0.00     0.000 C 
BRANCH   3   4
ATOM      4  C   UNL     1      93.021  93.584  76.556  1.00  0.00    -0.000 C 
BRANCH   4   5
ATOM      5  C   UNL     1      91.724  94.292  77.042  1.00  0.00    -0.000 C 
BRANCH   5   6
ATOM      6  C   UNL     1      90.593  93.287  77.393  1.00  0.00    -0.003 C 
ATOM      7  C   UNL     1      90.585  92.047  76.472  1.00  0.00     0.004 C 
ENDBRANCH   5   6
ENDBRANCH   4   5
ENDBRANCH   3   4
ENDBRANCH   2   3
ENDBRANCH   1   2
BRANCH   1   8
ATOM      8  C   UNL     1      93.697  98.180  74.235  1.00  0.00     0.100 C 
BRANCH   8   9
ATOM      9  C   UNL     1      93.868  98.738  72.872  1.00  0.00     0.220 C 
ATOM     10  O   UNL     1      94.878  98.397  72.211  1.00  0.00    -0.275 OA
ATOM     11  N   UNL     1      92.930  99.578  72.344  1.00  0.00    -0.352 N 
ATOM     12  H   UNL     1      92.206  99.855  72.990  1.00  0.00     0.163 HD
BRANCH  11  13
ATOM     13  C   UNL     1      92.909 100.067  70.999  1.00  0.00     0.151 C 
BRANCH  13  14
ATOM     14  C   UNL     1      91.655  99.750  70.264  1.00  0.00    -0.025 A 
ATOM     15  C   UNL     1      91.353 100.416  69.052  1.00  0.00     0.056 A 
ATOM     16  C   UNL     1      90.746  98.787  70.759  1.00  0.00     0.009 A 
ATOM     17  C   UNL     1      90.174 100.113  68.333  1.00  0.00     0.160 A 
ATOM     18  C   UNL     1      89.572  98.481  70.048  1.00  0.00     0.050 A 
ATOM     19  C   UNL     1      89.279  99.145  68.842  1.00  0.00     0.157 A 
BRANCH  17  20
ATOM     20  O   UNL     1      89.861 100.789  67.181  1.00  0.00    -0.493 OA
ATOM     21  C   UNL     1      90.616 100.372  66.030  1.00  0.00     0.278 C 
ENDBRANCH  17  20
BRANCH  19  22
ATOM     22  O   UNL     1      88.129  98.861  68.177  1.00  0.00    -0.504 OA
ATOM     23  H   UNL     1      87.429  98.686  68.810  1.00  0.00     0.293 HD
ENDBRANCH  19  22
ENDBRANCH  13  14
ENDBRANCH  11  13
ENDBRANCH   8   9
ENDBRANCH   1   8
TORSDOF 11
ENDMDL
MODEL 3
REMARK VINA RESULT:    -5.508     13.699     15.687
REMARK INTER + INTRA:          -9.505
REMARK INTER:                  -8.852
REMARK INTRA:                  -0.654
REMARK UNBOUND:                -0.616
REMARK SMILES CCCCCCCCC(=O)NCc1ccc(O)c(OC)c1
REMARK SMILES IDX 7 1 6 2 5 3 4 4 3 5 2 6 1 7 8 8 9 9 10 10 11 11 12 13 13 14
REMARK SMILES IDX 21 15 14 16 18 17 15 18 16 19 19 20 20 21 17 22
REMARK H PARENT 11 12 17 23
REMARK Flexibility Score: inf
ROOT
ATOM      1  C   UNL     1      97.735  80.894  77.704  1.00  0.00     0.010 C 
ENDROOT
BRANCH   1   2
ATOM      2  C   UNL     1      97.639  79.947  78.935  1.00  0.00     0.001 C 
BRANCH   2   3
ATOM      3  C   UNL     1      98.126  80.633  80.245  1.00  0.00     0.000 C 
BRANCH   3   4
ATOM      4  C   UNL     1      97.051  80.676  81.367  1.00  0.00    -0.000 C 
BRANCH   4   5
ATOM      5  C   UNL     1      96.826  82.109  81.929  1.00  0.00    -0.000 C 
BRANCH   5   6
ATOM      6  C   UNL     1      95.733  82.152  83.031  1.00  0.00    -0.003 C 
ATOM      7  C   UNL     1      95.513  80.784  83.712  1.00  0.00     0.004 C 
ENDBRANCH   5   6
ENDBRANCH   4   5
ENDBRANCH   3   4
ENDBRANCH   2   3
ENDBRANCH   1   2
BRANCH   1   8
ATOM      8  C   UNL     1      96.895  82.194  77.844  1.00  0.00     0.100 C 
BRANCH   8   9
ATOM      9  C   UNL     1      96.590  82.785  76.518  1.00  0.00     0.220 C 
ATOM     10  O   UNL     1      95.472  83.329  76.353  1.00  0.00    -0.275 OA
ATOM     11  N   UNL     1      97.517  82.759  75.517  1.00  0.00    -0.352 N 
ATOM     12  H   UNL     1      98.346  82.222  75.728  1.00  0.00     0.163 HD
BRANCH  11  13
ATOM     13  C   UNL     1      97.397  83.413  74.250  1.00  0.00     0.151 C 
BRANCH  13  14
ATOM     14  C   UNL     1      98.554  83.183  73.342  1.00  0.00    -0.025 A 
ATOM     15  C   UNL     1      98.944  81.864  73.006  1.00  0.00     0.056 A 
ATOM     16  C   UNL     1      99.283  84.268  72.805  1.00  0.00     0.009 A 
ATOM     17  C   UNL     1     100.030  81.631  72.132  1.00  0.00     0.160 A 
ATOM     18  C   UNL     1     100.363  84.043  71.934  1.00  0.00     0.050 A 
ATOM     19  C   UNL     1     100.744  82.729  71.601  1.00  0.00     0.157 A 
BRANCH  17  20
ATOM     20  O   UNL     1     100.433  80.352  71.840  1.00  0.00    -0.493 OA
ATOM     21  C   UNL     1     101.128  79.695  72.915  1.00  0.00     0.278 C 
ENDBRANCH  17  20
BRANCH  19  22
ATOM     22  O   UNL     1     101.806  82.520  70.781  1.00  0.00    -0.504 OA
ATOM     23  H   UNL     1     102.529  82.137  71.284  1.00  0.00     0.293 HD
ENDBRANCH  19  22
ENDBRANCH  13  14
ENDBRANCH  11  13
ENDBRANCH   8   9
ENDBRANCH   1   8
TORSDOF 11
ENDMDL
MODEL 4
REMARK VINA RESULT:    -5.444      2.453      7.721
REMARK INTER + INTRA:          -9.402
REMARK INTER:                  -8.802
REMARK INTRA:                  -0.600
REMARK UNBOUND:                -0.616
REMARK SMILES CCCCCCCCC(=O)NCc1ccc(O)c(OC)c1
REMARK SMILES IDX 7 1 6 2 5 3 4 4 3 5 2 6 1 7 8 8 9 9 10 10 11 11 12 13 13 14
REMARK SMILES IDX 21 15 14 16 18 17 15 18 16 19 19 20 20 21 17 22
REMARK H PARENT 11 12 17 23
REMARK Flexibility Score: inf
ROOT
ATOM      1  C   UNL     1      93.088  99.316  71.765  1.00  0.00     0.010 C 
ENDROOT
BRANCH   1   2
ATOM      2  C   UNL     1      92.462 100.696  71.410  1.00  0.00     0.001 C 
BRANCH   2   3
ATOM      3  C   UNL     1      91.215 100.558  70.488  1.00  0.00     0.000 C 
BRANCH   3   4
ATOM      4  C   UNL     1      90.304  99.348  70.842  1.00  0.00    -0.000 C 
BRANCH   4   5
ATOM      5  C   UNL     1      90.172  98.333  69.672  1.00  0.00    -0.000 C 
BRANCH   5   6
ATOM      6  C   UNL     1      89.049  98.720  68.672  1.00  0.00    -0.003 C 
ATOM      7  C   UNL     1      89.511  98.663  67.199  1.00  0.00     0.004 C 
ENDBRANCH   5   6
ENDBRANCH   4   5
ENDBRANCH   3   4
ENDBRANCH   2   3
ENDBRANCH   1   2
BRANCH   1   8
ATOM      8  C   UNL     1      93.128  99.018  73.290  1.00  0.00     0.100 C 
BRANCH   8   9
ATOM      9  C   UNL     1      94.187  98.033  73.619  1.00  0.00     0.220 C 
ATOM     10  O   UNL     1      95.289  98.124  73.027  1.00  0.00    -0.275 OA
ATOM     11  N   UNL     1      93.972  97.073  74.566  1.00  0.00    -0.352 N 
ATOM     12  H   UNL     1      93.026  97.036  74.916  1.00  0.00     0.163 HD
BRANCH  11  13
ATOM     13  C   UNL     1      94.953  96.162  75.070  1.00  0.00     0.151 C 
BRANCH  13  14
ATOM     14  C   UNL     1      94.436  95.239  76.115  1.00  0.00    -0.025 A 
ATOM     15  C   UNL     1      93.205  94.567  75.926  1.00  0.00     0.056 A 
ATOM     16  C   UNL     1      95.157  95.019  77.312  1.00  0.00     0.009 A 
ATOM     17  C   UNL     1      92.709  93.673  76.903  1.00  0.00     0.160 A 
ATOM     18  C   UNL     1      94.669  94.130  78.287  1.00  0.00     0.050 A 
ATOM     19  C   UNL     1      93.445  93.463  78.091  1.00  0.00     0.157 A 
BRANCH  17  20
ATOM     20  O   UNL     1      91.495  93.055  76.737  1.00  0.00    -0.493 OA
ATOM     21  C   UNL     1      91.442  92.154  75.617  1.00  0.00     0.278 C 
ENDBRANCH  17  20
BRANCH  19  22
ATOM     22  O   UNL     1      92.970  92.628  79.051  1.00  0.00    -0.504 OA
ATOM     23  H   UNL     1      93.704  92.262  79.549  1.00  0.00     0.293 HD
ENDBRANCH  19  22
ENDBRANCH  13  14
ENDBRANCH  11  13
ENDBRANCH   8   9
ENDBRANCH   1   8
TORSDOF 11
ENDMDL
MODEL 5
REMARK VINA RESULT:    -5.420      4.698      8.570
REMARK INTER + INTRA:          -9.364
REMARK INTER:                  -8.753
REMARK INTRA:                  -0.611
REMARK UNBOUND:                -0.616
REMARK SMILES CCCCCCCCC(=O)NCc1ccc(O)c(OC)c1
REMARK SMILES IDX 7 1 6 2 5 3 4 4 3 5 2 6 1 7 8 8 9 9 10 10 11 11 12 13 13 14
REMARK SMILES IDX 21 15 14 16 18 17 15 18 16 19 19 20 20 21 17 22
REMARK H PARENT 11 12 17 23
REMARK Flexibility Score: inf
ROOT
ATOM      1  C   UNL     1      96.274  97.637  81.471  1.00  0.00     0.010 C 
ENDROOT
BRANCH   1   2
ATOM      2  C   UNL     1      96.875  98.493  82.623  1.00  0.00     0.001 C 
BRANCH   2   3
ATOM      3  C   UNL     1      96.003  99.742  82.945  1.00  0.00     0.000 C 
BRANCH   3   4
ATOM      4  C   UNL     1      96.539 101.060  82.318  1.00  0.00    -0.000 C 
BRANCH   4   5
ATOM      5  C   UNL     1      95.425 101.887  81.616  1.00  0.00    -0.000 C 
BRANCH   5   6
ATOM      6  C   UNL     1      95.590 101.920  80.072  1.00  0.00    -0.003 C 
ATOM      7  C   UNL     1      94.531 102.800  79.374  1.00  0.00     0.004 C 
ENDBRANCH   5   6
ENDBRANCH   4   5
ENDBRANCH   3   4
ENDBRANCH   2   3
ENDBRANCH   1   2
BRANCH   1   8
ATOM      8  C   UNL     1      96.154  96.124  81.807  1.00  0.00     0.100 C 
BRANCH   8   9
ATOM      9  C   UNL     1      96.140  95.297  80.577  1.00  0.00     0.220 C 
ATOM     10  O   UNL     1      96.726  95.736  79.558  1.00  0.00    -0.275 OA
ATOM     11  N   UNL     1      95.529  94.076  80.569  1.00  0.00    -0.352 N 
ATOM     12  H   UNL     1      95.016  93.860  81.411  1.00  0.00     0.163 HD
BRANCH  11  13
ATOM     13  C   UNL     1      95.568  93.129  79.496  1.00  0.00     0.151 C 
BRANCH  13  14
ATOM     14  C   UNL     1      94.499  93.327  78.481  1.00  0.00    -0.025 A 
ATOM     15  C   UNL     1      94.837  93.656  77.146  1.00  0.00     0.056 A 
ATOM     16  C   UNL     1      93.135  93.195  78.827  1.00  0.00     0.009 A 
ATOM     17  C   UNL     1      93.833  93.830  76.166  1.00  0.00     0.160 A 
ATOM     18  C   UNL     1      92.131  93.365  77.856  1.00  0.00     0.050 A 
ATOM     19  C   UNL     1      92.474  93.690  76.529  1.00  0.00     0.157 A 
BRANCH  17  20
ATOM     20  O   UNL     1      94.160  94.190  74.883  1.00  0.00    -0.493 OA
ATOM     21  C   UNL     1      94.564  95.563  74.742  1.00  0.00     0.278 C 
ENDBRANCH  17  20
BRANCH  19  22
ATOM     22  O   UNL     1      91.497  93.879  75.606  1.00  0.00    -0.504 OA
ATOM     23  H   UNL     1      90.839  93.185  75.690  1.00  0.00     0.293 HD
ENDBRANCH  19  22
ENDBRANCH  13  14
ENDBRANCH  11  13
ENDBRANCH   8   9
ENDBRANCH   1   8
TORSDOF 11
ENDMDL
MODEL 6
REMARK VINA RESULT:    -5.292      2.523      4.314
REMARK INTER + INTRA:          -9.156
REMARK INTER:                  -8.365
REMARK INTRA:                  -0.792
REMARK UNBOUND:                -0.616
REMARK SMILES CCCCCCCCC(=O)NCc1ccc(O)c(OC)c1
REMARK SMILES IDX 7 1 6 2 5 3 4 4 3 5 2 6 1 7 8 8 9 9 10 10 11 11 12 13 13 14
REMARK SMILES IDX 21 15 14 16 18 17 15 18 16 19 19 20 20 21 17 22
REMARK H PARENT 11 12 17 23
REMARK Flexibility Score: inf
ROOT
ATOM      1  C   UNL     1      94.965  95.406  75.511  1.00  0.00     0.010 C 
ENDROOT
BRANCH   1   2
ATOM      2  C   UNL     1      94.380  94.057  76.020  1.00  0.00     0.001 C 
BRANCH   2   3
ATOM      3  C   UNL     1      94.230  94.027  77.569  1.00  0.00     0.000 C 
BRANCH   3   4
ATOM      4  C   UNL     1      92.776  93.760  78.053  1.00  0.00    -0.000 C 
BRANCH   4   5
ATOM      5  C   UNL     1      91.751  94.767  77.458  1.00  0.00    -0.000 C 
BRANCH   5   6
ATOM      6  C   UNL     1      90.455  94.074  76.959  1.00  0.00    -0.003 C 
ATOM      7  C   UNL     1      90.132  92.777  77.734  1.00  0.00     0.004 C 
ENDBRANCH   5   6
ENDBRANCH   4   5
ENDBRANCH   3   4
ENDBRANCH   2   3
ENDBRANCH   1   2
BRANCH   1   8
ATOM      8  C   UNL     1      93.979  96.228  74.634  1.00  0.00     0.100 C 
BRANCH   8   9
ATOM      9  C   UNL     1      94.705  97.116  73.694  1.00  0.00     0.220 C 
ATOM     10  O   UNL     1      95.632  96.625  73.007  1.00  0.00    -0.275 OA
ATOM     11  N   UNL     1      94.349  98.428  73.563  1.00  0.00    -0.352 N 
ATOM     12  H   UNL     1      93.651  98.739  74.223  1.00  0.00     0.163 HD
BRANCH  11  13
ATOM     13  C   UNL     1      94.873  99.344  72.597  1.00  0.00     0.151 C 
BRANCH  13  14
ATOM     14  C   UNL     1      93.900  99.725  71.539  1.00  0.00    -0.025 A 
ATOM     15  C   UNL     1      92.520  99.458  71.711  1.00  0.00     0.056 A 
ATOM     16  C   UNL     1      94.330 100.354  70.348  1.00  0.00     0.009 A 
ATOM     17  C   UNL     1      91.581  99.831  70.722  1.00  0.00     0.160 A 
ATOM     18  C   UNL     1      93.401 100.728  69.361  1.00  0.00     0.050 A 
ATOM     19  C   UNL     1      92.029 100.462  69.540  1.00  0.00     0.157 A 
BRANCH  17  20
ATOM     20  O   UNL     1      90.250  99.533  70.872  1.00  0.00    -0.493 OA
ATOM     21  C   UNL     1      89.903  98.185  70.507  1.00  0.00     0.278 C 
ENDBRANCH  17  20
BRANCH  19  22
ATOM     22  O   UNL     1      91.143 100.802  68.569  1.00  0.00    -0.504 OA
ATOM     23  H   UNL     1      91.067 100.081  67.939  1.00  0.00     0.293 HD
ENDBRANCH  19  22
ENDBRANCH  13  14
ENDBRANCH  11  13
ENDBRANCH   8   9
ENDBRANCH   1   8
TORSDOF 11
ENDMDL
MODEL 7
REMARK VINA RESULT:    -5.283      3.689      4.426
REMARK INTER + INTRA:          -9.141
REMARK INTER:                  -8.359
REMARK INTRA:                  -0.783
REMARK UNBOUND:                -0.616
REMARK SMILES CCCCCCCCC(=O)NCc1ccc(O)c(OC)c1
REMARK SMILES IDX 7 1 6 2 5 3 4 4 3 5 2 6 1 7 8 8 9 9 10 10 11 11 12 13 13 14
REMARK SMILES IDX 21 15 14 16 18 17 15 18 16 19 19 20 20 21 17 22
REMARK H PARENT 11 12 17 23
REMARK Flexibility Score: inf
ROOT
ATOM      1  C   UNL     1      92.836  95.668  75.826  1.00  0.00     0.010 C 
ENDROOT
BRANCH   1   2
ATOM      2  C   UNL     1      92.910  95.188  77.304  1.00  0.00     0.001 C 
BRANCH   2   3
ATOM      3  C   UNL     1      92.807  93.639  77.426  1.00  0.00     0.000 C 
BRANCH   3   4
ATOM      4  C   UNL     1      91.441  93.144  77.981  1.00  0.00    -0.000 C 
BRANCH   4   5
ATOM      5  C   UNL     1      90.502  92.602  76.865  1.00  0.00    -0.000 C 
BRANCH   5   6
ATOM      6  C   UNL     1      91.285  92.041  75.648  1.00  0.00    -0.003 C 
ATOM      7  C   UNL     1      90.751  90.672  75.170  1.00  0.00     0.004 C 
ENDBRANCH   5   6
ENDBRANCH   4   5
ENDBRANCH   3   4
ENDBRANCH   2   3
ENDBRANCH   1   2
BRANCH   1   8
ATOM      8  C   UNL     1      94.064  95.253  74.968  1.00  0.00     0.100 C 
BRANCH   8   9
ATOM      9  C   UNL     1      94.787  96.439  74.450  1.00  0.00     0.220 C 
ATOM     10  O   UNL     1      94.281  97.572  74.635  1.00  0.00    -0.275 OA
ATOM     11  N   UNL     1      95.987  96.298  73.815  1.00  0.00    -0.352 N 
ATOM     12  H   UNL     1      96.258  95.341  73.643  1.00  0.00     0.163 HD
BRANCH  11  13
ATOM     13  C   UNL     1      96.843  97.366  73.398  1.00  0.00     0.151 C 
BRANCH  13  14
ATOM     14  C   UNL     1      96.856  97.588  71.928  1.00  0.00    -0.025 A 
ATOM     15  C   UNL     1      98.076  97.546  71.211  1.00  0.00     0.056 A 
ATOM     16  C   UNL     1      95.659  97.848  71.222  1.00  0.00     0.009 A 
ATOM     17  C   UNL     1      98.101  97.739  69.811  1.00  0.00     0.160 A 
ATOM     18  C   UNL     1      95.677  98.039  69.829  1.00  0.00     0.050 A 
ATOM     19  C   UNL     1      96.894  97.993  69.122  1.00  0.00     0.157 A 
BRANCH  17  20
ATOM     20  O   UNL     1      99.289  97.740  69.124  1.00  0.00    -0.493 OA
ATOM     21  C   UNL     1      99.887  96.439  68.980  1.00  0.00     0.278 C 
ENDBRANCH  17  20
BRANCH  19  22
ATOM     22  O   UNL     1      96.905  98.207  67.781  1.00  0.00    -0.504 OA
ATOM     23  H   UNL     1      96.267  97.626  67.360  1.00  0.00     0.293 HD
ENDBRANCH  19  22
ENDBRANCH  13  14
ENDBRANCH  11  13
ENDBRANCH   8   9
ENDBRANCH   1   8
TORSDOF 11
ENDMDL
MODEL 8
REMARK VINA RESULT:    -5.123     25.133     28.492
REMARK INTER + INTRA:          -8.885
REMARK INTER:                  -8.286
REMARK INTRA:                  -0.599
REMARK UNBOUND:                -0.616
REMARK SMILES CCCCCCCCC(=O)NCc1ccc(O)c(OC)c1
REMARK SMILES IDX 7 1 6 2 5 3 4 4 3 5 2 6 1 7 8 8 9 9 10 10 11 11 12 13 13 14
REMARK SMILES IDX 21 15 14 16 18 17 15 18 16 19 19 20 20 21 17 22
REMARK H PARENT 11 12 17 23
REMARK Flexibility Score: inf
ROOT
ATOM      1  C   UNL     1      82.560  67.194  73.218  1.00  0.00     0.010 C 
ENDROOT
BRANCH   1   2
ATOM      2  C   UNL     1      81.570  66.207  72.535  1.00  0.00     0.001 C 
BRANCH   2   3
ATOM      3  C   UNL     1      80.587  65.560  73.554  1.00  0.00     0.000 C 
BRANCH   3   4
ATOM      4  C   UNL     1      81.293  64.768  74.690  1.00  0.00    -0.000 C 
BRANCH   4   5
ATOM      5  C   UNL     1      80.611  64.967  76.074  1.00  0.00    -0.000 C 
BRANCH   5   6
ATOM      6  C   UNL     1      79.114  64.557  76.065  1.00  0.00    -0.003 C 
ATOM      7  C   UNL     1      78.910  63.029  75.981  1.00  0.00     0.004 C 
ENDBRANCH   5   6
ENDBRANCH   4   5
ENDBRANCH   3   4
ENDBRANCH   2   3
ENDBRANCH   1   2
BRANCH   1   8
ATOM      8  C   UNL     1      83.698  67.692  72.283  1.00  0.00     0.100 C 
BRANCH   8   9
ATOM      9  C   UNL     1      84.366  68.893  72.840  1.00  0.00     0.220 C 
ATOM     10  O   UNL     1      84.846  68.825  73.997  1.00  0.00    -0.275 OA
ATOM     11  N   UNL     1      84.479  70.032  72.095  1.00  0.00    -0.352 N 
ATOM     12  H   UNL     1      83.983  70.007  71.216  1.00  0.00     0.163 HD
BRANCH  11  13
ATOM     13  C   UNL     1      85.218  71.201  72.462  1.00  0.00     0.151 C 
BRANCH  13  14
ATOM     14  C   UNL     1      86.501  71.357  71.725  1.00  0.00    -0.025 A 
ATOM     15  C   UNL     1      86.540  71.187  70.320  1.00  0.00     0.056 A 
ATOM     16  C   UNL     1      87.698  71.671  72.408  1.00  0.00     0.009 A 
ATOM     17  C   UNL     1      87.749  71.349  69.604  1.00  0.00     0.160 A 
ATOM     18  C   UNL     1      88.903  71.834  71.701  1.00  0.00     0.050 A 
ATOM     19  C   UNL     1      88.935  71.667  70.303  1.00  0.00     0.157 A 
BRANCH  17  20
ATOM     20  O   UNL     1      87.793  71.143  68.248  1.00  0.00    -0.493 OA
ATOM     21  C   UNL     1      87.344  72.264  67.467  1.00  0.00     0.278 C 
ENDBRANCH  17  20
BRANCH  19  22
ATOM     22  O   UNL     1      90.108  71.800  69.634  1.00  0.00    -0.504 OA
ATOM     23  H   UNL     1      90.839  71.612  70.228  1.00  0.00     0.293 HD
ENDBRANCH  19  22
ENDBRANCH  13  14
ENDBRANCH  11  13
ENDBRANCH   8   9
ENDBRANCH   1   8
TORSDOF 11
ENDMDL
MODEL 9
REMARK VINA RESULT:    -5.016      5.010      8.658
REMARK INTER + INTRA:          -8.711
REMARK INTER:                  -8.031
REMARK INTRA:                  -0.680
REMARK UNBOUND:                -0.616
REMARK SMILES CCCCCCCCC(=O)NCc1ccc(O)c(OC)c1
REMARK SMILES IDX 7 1 6 2 5 3 4 4 3 5 2 6 1 7 8 8 9 9 10 10 11 11 12 13 13 14
REMARK SMILES IDX 21 15 14 16 18 17 15 18 16 19 19 20 20 21 17 22
REMARK H PARENT 11 12 17 23
REMARK Flexibility Score: inf
ROOT
ATOM      1  C   UNL     1      98.464  97.165  79.826  1.00  0.00     0.010 C 
ENDROOT
BRANCH   1   2
ATOM      2  C   UNL     1      97.026  97.721  80.035  1.00  0.00     0.001 C 
BRANCH   2   3
ATOM      3  C   UNL     1      96.783  98.190  81.499  1.00  0.00     0.000 C 
BRANCH   3   4
ATOM      4  C   UNL     1      97.937  97.825  82.475  1.00  0.00    -0.000 C 
BRANCH   4   5
ATOM      5  C   UNL     1      97.473  96.897  83.633  1.00  0.00    -0.000 C 
BRANCH   5   6
ATOM      6  C   UNL     1      98.609  96.594  84.646  1.00  0.00    -0.003 C 
ATOM      7  C   UNL     1      98.370  97.242  86.028  1.00  0.00     0.004 C 
ENDBRANCH   5   6
ENDBRANCH   4   5
ENDBRANCH   3   4
ENDBRANCH   2   3
ENDBRANCH   1   2
BRANCH   1   8
ATOM      8  C   UNL     1      98.527  95.910  78.911  1.00  0.00     0.100 C 
BRANCH   8   9
ATOM      9  C   UNL     1      97.543  94.884  79.333  1.00  0.00     0.220 C 
ATOM     10  O   UNL     1      97.605  94.448  80.507  1.00  0.00    -0.275 OA
ATOM     11  N   UNL     1      96.578  94.452  78.469  1.00  0.00    -0.352 N 
ATOM     12  H   UNL     1      96.673  94.802  77.527  1.00  0.00     0.163 HD
BRANCH  11  13
ATOM     13  C   UNL     1      95.494  93.578  78.798  1.00  0.00     0.151 C 
BRANCH  13  14
ATOM     14  C   UNL     1      94.179  94.025  78.266  1.00  0.00    -0.025 A 
ATOM     15  C   UNL     1      93.051  93.173  78.343  1.00  0.00     0.056 A 
ATOM     16  C   UNL     1      94.031  95.300  77.672  1.00  0.00     0.009 A 
ATOM     17  C   UNL     1      91.791  93.591  77.858  1.00  0.00     0.160 A 
ATOM     18  C   UNL     1      92.780  95.723  77.188  1.00  0.00     0.050 A 
ATOM     19  C   UNL     1      91.662  94.871  77.272  1.00  0.00     0.157 A 
BRANCH  17  20
ATOM     20  O   UNL     1      90.710  92.748  77.896  1.00  0.00    -0.493 OA
ATOM     21  C   UNL     1      90.479  92.030  76.671  1.00  0.00     0.278 C 
ENDBRANCH  17  20
BRANCH  19  22
ATOM     22  O   UNL     1      90.465  95.277  76.776  1.00  0.00    -0.504 OA
ATOM     23  H   UNL     1      90.115  95.984  77.324  1.00  0.00     0.293 HD
ENDBRANCH  19  22
ENDBRANCH  13  14
ENDBRANCH  11  13
ENDBRANCH   8   9
ENDBRANCH   1   8
TORSDOF 11
ENDMDL
MODEL 10
REMARK VINA RESULT:    -4.811      2.654      8.351
REMARK INTER + INTRA:          -8.381
REMARK INTER:                  -7.744
REMARK INTRA:                  -0.636
REMARK UNBOUND:                -0.616
REMARK SMILES CCCCCCCCC(=O)NCc1ccc(O)c(OC)c1
REMARK SMILES IDX 7 1 6 2 5 3 4 4 3 5 2 6 1 7 8 8 9 9 10 10 11 11 12 13 13 14
REMARK SMILES IDX 21 15 14 16 18 17 15 18 16 19 19 20 20 21 17 22
REMARK H PARENT 11 12 17 23
REMARK Flexibility Score: inf
ROOT
ATOM      1  C   UNL     1      93.693  99.848  72.272  1.00  0.00     0.010 C 
ENDROOT
BRANCH   1   2
ATOM      2  C   UNL     1      93.282 101.338  72.445  1.00  0.00     0.001 C 
BRANCH   2   3
ATOM      3  C   UNL     1      93.809 101.944  73.779  1.00  0.00     0.000 C 
BRANCH   3   4
ATOM      4  C   UNL     1      92.686 102.490  74.707  1.00  0.00    -0.000 C 
BRANCH   4   5
ATOM      5  C   UNL     1      91.426 102.947  73.919  1.00  0.00    -0.000 C 
BRANCH   5   6
ATOM      6  C   UNL     1      90.435 103.757  74.797  1.00  0.00    -0.003 C 
ATOM      7  C   UNL     1      90.071 103.035  76.113  1.00  0.00     0.004 C 
ENDBRANCH   5   6
ENDBRANCH   4   5
ENDBRANCH   3   4
ENDBRANCH   2   3
ENDBRANCH   1   2
BRANCH   1   8
ATOM      8  C   UNL     1      93.289  98.941  73.469  1.00  0.00     0.100 C 
BRANCH   8   9
ATOM      9  C   UNL     1      94.354  97.958  73.784  1.00  0.00     0.220 C 
ATOM     10  O   UNL     1      95.543  98.267  73.531  1.00  0.00    -0.275 OA
ATOM     11  N   UNL     1      94.043  96.761  74.363  1.00  0.00    -0.352 N 
ATOM     12  H   UNL     1      93.053  96.580  74.443  1.00  0.00     0.163 HD
BRANCH  11  13
ATOM     13  C   UNL     1      94.984  95.795  74.841  1.00  0.00     0.151 C 
BRANCH  13  14
ATOM     14  C   UNL     1      94.482  94.979  75.979  1.00  0.00    -0.025 A 
ATOM     15  C   UNL     1      93.378  94.111  75.800  1.00  0.00     0.056 A 
ATOM     16  C   UNL     1      95.091  95.055  77.253  1.00  0.00     0.009 A 
ATOM     17  C   UNL     1      92.901  93.316  76.868  1.00  0.00     0.160 A 
ATOM     18  C   UNL     1      94.622  94.266  78.318  1.00  0.00     0.050 A 
ATOM     19  C   UNL     1      93.524  93.403  78.133  1.00  0.00     0.157 A 
BRANCH  17  20
ATOM     20  O   UNL     1      91.804  92.507  76.704  1.00  0.00    -0.493 OA
ATOM     21  C   UNL     1      90.734  93.111  75.956  1.00  0.00     0.278 C 
ENDBRANCH  17  20
BRANCH  19  22
ATOM     22  O   UNL     1      93.061  92.666  79.174  1.00  0.00    -0.504 OA
ATOM     23  H   UNL     1      92.248  93.055  79.505  1.00  0.00     0.293 HD
ENDBRANCH  19  22
ENDBRANCH  13  14
ENDBRANCH  11  13
ENDBRANCH   8   9
ENDBRANCH   1   8
TORSDOF 11
ENDMDL
