MODEL 1
REMARK VINA RESULT:    -6.693      0.000      0.000
REMARK INTER + INTRA:         -11.585
REMARK INTER:                 -10.411
REMARK INTRA:                  -1.174
REMARK UNBOUND:                -1.174
REMARK SMILES CCCCC/C=C/C(=O)CCc1ccc(O)c(OC)c1
REMARK SMILES IDX 6 1 7 2 8 3 9 4 10 5 11 6 12 7 17 8 20 9 15 10 14 11 13 12
REMARK SMILES IDX 18 13 19 14 16 15 5 17 4 18 3 19 2 20 1 21
REMARK H PARENT 16 16
REMARK Flexibility Score: inf
ROOT
ATOM      1  C   UNL     1      91.716  96.258  77.491  1.00  0.00    -0.023 C 
ATOM      2  C   UNL     1      92.262  96.294  76.269  1.00  0.00     0.043 C 
ENDROOT
BRANCH   2   3
ATOM      3  C   UNL     1      93.742  96.359  76.120  1.00  0.00     0.155 C 
ATOM      4  O   UNL     1      94.280  97.110  75.309  1.00  0.00    -0.295 OA
BRANCH   3   5
ATOM      5  C   UNL     1      94.550  95.410  76.983  1.00  0.00     0.085 C 
BRANCH   5   6
ATOM      6  C   UNL     1      95.362  96.170  78.033  1.00  0.00     0.044 C 
BRANCH   6   7
ATOM      7  C   UNL     1      95.340  95.503  79.388  1.00  0.00    -0.044 A 
ATOM      8  C   UNL     1      95.060  95.647  81.767  1.00  0.00     0.160 A 
ATOM      9  C   UNL     1      95.080  96.264  80.516  1.00  0.00     0.054 A 
ATOM     10  C   UNL     1      95.300  94.278  81.874  1.00  0.00     0.157 A 
ATOM     11  C   UNL     1      95.561  93.524  80.728  1.00  0.00     0.050 A 
ATOM     12  C   UNL     1      95.581  94.141  79.477  1.00  0.00     0.008 A 
BRANCH   8  13
ATOM     13  O   UNL     1      94.804  96.394  82.877  1.00  0.00    -0.493 OA
ATOM     14  C   UNL     1      95.837  97.273  83.320  1.00  0.00     0.278 C 
ENDBRANCH   8  13
BRANCH  10  15
ATOM     15  O   UNL     1      95.282  93.664  83.089  1.00  0.00    -0.504 OA
ATOM     16  H   UNL     1      96.161  93.764  83.495  1.00  0.00     0.293 HD
ENDBRANCH  10  15
ENDBRANCH   6   7
ENDBRANCH   5   6
ENDBRANCH   3   5
ENDBRANCH   2   3
BRANCH   1  17
ATOM     17  C   UNL     1      90.235  96.193  77.726  1.00  0.00     0.027 C 
BRANCH  17  18
ATOM     18  C   UNL     1      89.573  94.981  77.063  1.00  0.00     0.004 C 
BRANCH  18  19
ATOM     19  C   UNL     1      89.239  93.852  78.043  1.00  0.00     0.000 C 
BRANCH  19  20
ATOM     20  C   UNL     1      90.429  92.910  78.227  1.00  0.00    -0.003 C 
ATOM     21  C   UNL     1      91.143  92.651  76.910  1.00  0.00     0.004 C 
ENDBRANCH  19  20
ENDBRANCH  18  19
ENDBRANCH  17  18
ENDBRANCH   1  17
TORSDOF 10
ENDMDL
MODEL 2
REMARK VINA RESULT:    -6.271      1.204      2.233
REMARK INTER + INTRA:         -10.927
REMARK INTER:                  -9.853
REMARK INTRA:                  -1.074
REMARK UNBOUND:                -1.174
REMARK SMILES CCCCC/C=C/C(=O)CCc1ccc(O)c(OC)c1
REMARK SMILES IDX 6 1 7 2 8 3 9 4 10 5 11 6 12 7 17 8 20 9 15 10 14 11 13 12
REMARK SMILES IDX 18 13 19 14 16 15 5 17 4 18 3 19 2 20 1 21
REMARK H PARENT 16 16
REMARK Flexibility Score: inf
ROOT
ATOM      1  C   UNL     1      91.958  95.772  77.939  1.00  0.00    -0.023 C 
ATOM      2  C   UNL     1      92.528  95.936  76.739  1.00  0.00     0.043 C 
ENDROOT
BRANCH   2   3
ATOM      3  C   UNL     1      93.617  96.935  76.565  1.00  0.00     0.155 C 
ATOM      4  O   UNL     1      93.416  98.030  76.043  1.00  0.00    -0.295 OA
BRANCH   3   5
ATOM      5  C   UNL     1      95.001  96.512  77.017  1.00  0.00     0.085 C 
BRANCH   5   6
ATOM      6  C   UNL     1      95.586  97.507  78.021  1.00  0.00     0.044 C 
BRANCH   6   7
ATOM      7  C   UNL     1      95.414  97.064  79.455  1.00  0.00    -0.044 A 
ATOM      8  C   UNL     1      94.913  95.340  81.047  1.00  0.00     0.160 A 
ATOM      9  C   UNL     1      95.071  95.748  79.723  1.00  0.00     0.054 A 
ATOM     10  C   UNL     1      95.101  96.251  82.086  1.00  0.00     0.157 A 
ATOM     11  C   UNL     1      95.446  97.573  81.800  1.00  0.00     0.050 A 
ATOM     12  C   UNL     1      95.604  97.981  80.476  1.00  0.00     0.008 A 
BRANCH   8  13
ATOM     13  O   UNL     1      94.575  94.047  81.314  1.00  0.00    -0.493 OA
ATOM     14  C   UNL     1      95.252  93.034  80.572  1.00  0.00     0.278 C 
ENDBRANCH   8  13
BRANCH  10  15
ATOM     15  O   UNL     1      94.950  95.864  83.383  1.00  0.00    -0.504 OA
ATOM     16  H   UNL     1      95.144  96.627  83.954  1.00  0.00     0.293 HD
ENDBRANCH  10  15
ENDBRANCH   6   7
ENDBRANCH   5   6
ENDBRANCH   3   5
ENDBRANCH   2   3
BRANCH   1  17
ATOM     17  C   UNL     1      90.854  94.787  78.195  1.00  0.00     0.027 C 
BRANCH  17  18
ATOM     18  C   UNL     1      89.738  94.848  77.147  1.00  0.00     0.004 C 
BRANCH  18  19
ATOM     19  C   UNL     1      89.758  93.675  76.162  1.00  0.00     0.000 C 
BRANCH  19  20
ATOM     20  C   UNL     1      90.824  92.649  76.546  1.00  0.00    -0.003 C 
ATOM     21  C   UNL     1      91.220  91.785  75.359  1.00  0.00     0.004 C 
ENDBRANCH  19  20
ENDBRANCH  18  19
ENDBRANCH  17  18
ENDBRANCH   1  17
TORSDOF 10
ENDMDL
MODEL 3
REMARK VINA RESULT:    -5.862      2.404      4.434
REMARK INTER + INTRA:         -10.291
REMARK INTER:                  -8.659
REMARK INTRA:                  -1.632
REMARK UNBOUND:                -1.174
REMARK SMILES CCCCC/C=C/C(=O)CCc1ccc(O)c(OC)c1
REMARK SMILES IDX 6 1 7 2 8 3 9 4 10 5 11 6 12 7 17 8 20 9 15 10 14 11 13 12
REMARK SMILES IDX 18 13 19 14 16 15 5 17 4 18 3 19 2 20 1 21
REMARK H PARENT 16 16
REMARK Flexibility Score: inf
ROOT
ATOM      1  C   UNL     1      92.993  95.470  78.845  1.00  0.00    -0.023 C 
ATOM      2  C   UNL     1      93.127  94.205  79.261  1.00  0.00     0.043 C 
ENDROOT
BRANCH   2   3
ATOM      3  C   UNL     1      94.293  93.820  80.102  1.00  0.00     0.155 C 
ATOM      4  O   UNL     1      94.152  93.303  81.209  1.00  0.00    -0.295 OA
BRANCH   3   5
ATOM      5  C   UNL     1      95.665  94.147  79.547  1.00  0.00     0.085 C 
BRANCH   5   6
ATOM      6  C   UNL     1      96.471  95.002  80.526  1.00  0.00     0.044 C 
BRANCH   6   7
ATOM      7  C   UNL     1      96.363  96.482  80.241  1.00  0.00    -0.044 A 
ATOM      8  C   UNL     1      96.349  98.749  81.025  1.00  0.00     0.160 A 
ATOM      9  C   UNL     1      96.448  97.383  81.289  1.00  0.00     0.054 A 
ATOM     10  C   UNL     1      96.165  99.196  79.717  1.00  0.00     0.157 A 
ATOM     11  C   UNL     1      96.081  98.275  78.671  1.00  0.00     0.050 A 
ATOM     12  C   UNL     1      96.181  96.909  78.936  1.00  0.00     0.008 A 
BRANCH   8  13
ATOM     13  O   UNL     1      96.432  99.638  82.055  1.00  0.00    -0.493 OA
ATOM     14  C   UNL     1      95.284  99.773  82.890  1.00  0.00     0.278 C 
ENDBRANCH   8  13
BRANCH  10  15
ATOM     15  O   UNL     1      96.067 100.527  79.446  1.00  0.00    -0.504 OA
ATOM     16  H   UNL     1      95.320 100.888  79.954  1.00  0.00     0.293 HD
ENDBRANCH  10  15
ENDBRANCH   6   7
ENDBRANCH   5   6
ENDBRANCH   3   5
ENDBRANCH   2   3
BRANCH   1  17
ATOM     17  C   UNL     1      91.848  95.937  77.995  1.00  0.00     0.027 C 
BRANCH  17  18
ATOM     18  C   UNL     1      92.224  96.106  76.519  1.00  0.00     0.004 C 
BRANCH  18  19
ATOM     19  C   UNL     1      93.443  97.008  76.296  1.00  0.00     0.000 C 
BRANCH  19  20
ATOM     20  C   UNL     1      94.597  96.229  75.663  1.00  0.00    -0.003 C 
ATOM     21  C   UNL     1      95.461  97.125  74.790  1.00  0.00     0.004 C 
ENDBRANCH  19  20
ENDBRANCH  18  19
ENDBRANCH  17  18
ENDBRANCH   1  17
TORSDOF 10
ENDMDL
MODEL 4
REMARK VINA RESULT:    -5.267     12.469     14.705
REMARK INTER + INTRA:          -9.366
REMARK INTER:                  -8.184
REMARK INTRA:                  -1.182
REMARK UNBOUND:                -1.174
REMARK SMILES CCCCC/C=C/C(=O)CCc1ccc(O)c(OC)c1
REMARK SMILES IDX 6 1 7 2 8 3 9 4 10 5 11 6 12 7 17 8 20 9 15 10 14 11 13 12
REMARK SMILES IDX 18 13 19 14 16 15 5 17 4 18 3 19 2 20 1 21
REMARK H PARENT 16 16
REMARK Flexibility Score: inf
ROOT
ATOM      1  C   UNL     1     100.189  82.463  81.381  1.00  0.00    -0.023 C 
ATOM      2  C   UNL     1      99.969  81.200  81.766  1.00  0.00     0.043 C 
ENDROOT
BRANCH   2   3
ATOM      3  C   UNL     1     100.593  80.685  83.015  1.00  0.00     0.155 C 
ATOM      4  O   UNL     1     101.810  80.704  83.187  1.00  0.00    -0.295 OA
BRANCH   3   5
ATOM      5  C   UNL     1      99.654  80.088  84.044  1.00  0.00     0.085 C 
BRANCH   5   6
ATOM      6  C   UNL     1      98.229  80.616  83.868  1.00  0.00     0.044 C 
BRANCH   6   7
ATOM      7  C   UNL     1      98.037  81.994  84.453  1.00  0.00    -0.044 A 
ATOM      8  C   UNL     1      98.332  83.537  86.268  1.00  0.00     0.160 A 
ATOM      9  C   UNL     1      98.510  82.263  85.728  1.00  0.00     0.054 A 
ATOM     10  C   UNL     1      97.684  84.525  85.527  1.00  0.00     0.157 A 
ATOM     11  C   UNL     1      97.213  84.239  84.245  1.00  0.00     0.050 A 
ATOM     12  C   UNL     1      97.391  82.965  83.705  1.00  0.00     0.008 A 
BRANCH   8  13
ATOM     13  O   UNL     1      98.796  83.803  87.521  1.00  0.00    -0.493 OA
ATOM     14  C   UNL     1     100.157  84.216  87.635  1.00  0.00     0.278 C 
ENDBRANCH   8  13
BRANCH  10  15
ATOM     15  O   UNL     1      97.506  85.773  86.044  1.00  0.00    -0.504 OA
ATOM     16  H   UNL     1      96.550  85.931  86.136  1.00  0.00     0.293 HD
ENDBRANCH  10  15
ENDBRANCH   6   7
ENDBRANCH   5   6
ENDBRANCH   3   5
ENDBRANCH   2   3
BRANCH   1  17
ATOM     17  C   UNL     1      99.597  83.057  80.136  1.00  0.00     0.027 C 
BRANCH  17  18
ATOM     18  C   UNL     1      98.074  83.210  80.207  1.00  0.00     0.004 C 
BRANCH  18  19
ATOM     19  C   UNL     1      97.429  83.564  78.864  1.00  0.00     0.000 C 
BRANCH  19  20
ATOM     20  C   UNL     1      98.422  83.393  77.713  1.00  0.00    -0.003 C 
ATOM     21  C   UNL     1      97.811  83.808  76.384  1.00  0.00     0.004 C 
ENDBRANCH  19  20
ENDBRANCH  18  19
ENDBRANCH  17  18
ENDBRANCH   1  17
TORSDOF 10
ENDMDL
MODEL 5
REMARK VINA RESULT:    -5.241     12.327     14.684
REMARK INTER + INTRA:          -9.326
REMARK INTER:                  -8.690
REMARK INTRA:                  -0.636
REMARK UNBOUND:                -1.174
REMARK SMILES CCCCC/C=C/C(=O)CCc1ccc(O)c(OC)c1
REMARK SMILES IDX 6 1 7 2 8 3 9 4 10 5 11 6 12 7 17 8 20 9 15 10 14 11 13 12
REMARK SMILES IDX 18 13 19 14 16 15 5 17 4 18 3 19 2 20 1 21
REMARK H PARENT 16 16
REMARK Flexibility Score: inf
ROOT
ATOM      1  C   UNL     1      98.188  83.187  84.825  1.00  0.00    -0.023 C 
ATOM      2  C   UNL     1      97.982  82.645  83.618  1.00  0.00     0.043 C 
ENDROOT
BRANCH   2   3
ATOM      3  C   UNL     1      98.555  81.310  83.296  1.00  0.00     0.155 C 
ATOM      4  O   UNL     1      98.502  80.373  84.090  1.00  0.00    -0.295 OA
BRANCH   3   5
ATOM      5  C   UNL     1      99.257  81.180  81.959  1.00  0.00     0.085 C 
BRANCH   5   6
ATOM      6  C   UNL     1      99.696  82.546  81.427  1.00  0.00     0.044 C 
BRANCH   6   7
ATOM      7  C   UNL     1      99.005  82.924  80.138  1.00  0.00    -0.044 A 
ATOM      8  C   UNL     1      99.048  83.144  77.749  1.00  0.00     0.160 A 
ATOM      9  C   UNL     1      99.686  82.795  78.939  1.00  0.00     0.054 A 
ATOM     10  C   UNL     1      97.736  83.618  77.774  1.00  0.00     0.157 A 
ATOM     11  C   UNL     1      97.063  83.743  78.990  1.00  0.00     0.050 A 
ATOM     12  C   UNL     1      97.702  83.394  80.180  1.00  0.00     0.008 A 
BRANCH   8  13
ATOM     13  O   UNL     1      99.716  83.017  76.568  1.00  0.00    -0.493 OA
ATOM     14  C   UNL     1     100.900  82.223  76.575  1.00  0.00     0.278 C 
ENDBRANCH   8  13
BRANCH  10  15
ATOM     15  O   UNL     1      97.102  83.962  76.619  1.00  0.00    -0.504 OA
ATOM     16  H   UNL     1      96.190  83.626  76.660  1.00  0.00     0.293 HD
ENDBRANCH  10  15
ENDBRANCH   6   7
ENDBRANCH   5   6
ENDBRANCH   3   5
ENDBRANCH   2   3
BRANCH   1  17
ATOM     17  C   UNL     1      97.645  84.527  85.227  1.00  0.00     0.027 C 
BRANCH  17  18
ATOM     18  C   UNL     1      96.634  84.447  86.376  1.00  0.00     0.004 C 
BRANCH  18  19
ATOM     19  C   UNL     1      95.643  85.615  86.404  1.00  0.00     0.000 C 
BRANCH  19  20
ATOM     20  C   UNL     1      95.385  86.085  87.837  1.00  0.00    -0.003 C 
ATOM     21  C   UNL     1      94.083  85.520  88.382  1.00  0.00     0.004 C 
ENDBRANCH  19  20
ENDBRANCH  18  19
ENDBRANCH  17  18
ENDBRANCH   1  17
TORSDOF 10
ENDMDL
MODEL 6
REMARK VINA RESULT:    -5.161      5.745      9.900
REMARK INTER + INTRA:          -9.201
REMARK INTER:                  -8.601
REMARK INTRA:                  -0.600
REMARK UNBOUND:                -1.174
REMARK SMILES CCCCC/C=C/C(=O)CCc1ccc(O)c(OC)c1
REMARK SMILES IDX 6 1 7 2 8 3 9 4 10 5 11 6 12 7 17 8 20 9 15 10 14 11 13 12
REMARK SMILES IDX 18 13 19 14 16 15 5 17 4 18 3 19 2 20 1 21
REMARK H PARENT 16 16
REMARK Flexibility Score: inf
ROOT
ATOM      1  C   UNL     1      93.557  97.853  75.300  1.00  0.00    -0.023 C 
ATOM      2  C   UNL     1      93.127  99.120  75.348  1.00  0.00     0.043 C 
ENDROOT
BRANCH   2   3
ATOM      3  C   UNL     1      93.236  99.986  74.142  1.00  0.00     0.155 C 
ATOM      4  O   UNL     1      93.993 100.954  74.105  1.00  0.00    -0.295 OA
BRANCH   3   5
ATOM      5  C   UNL     1      92.324  99.645  72.980  1.00  0.00     0.085 C 
BRANCH   5   6
ATOM      6  C   UNL     1      91.476 100.849  72.567  1.00  0.00     0.044 C 
BRANCH   6   7
ATOM      7  C   UNL     1      90.572 100.556  71.393  1.00  0.00    -0.044 A 
ATOM      8  C   UNL     1      89.227  99.009  70.146  1.00  0.00     0.160 A 
ATOM      9  C   UNL     1      90.062  99.278  71.231  1.00  0.00     0.054 A 
ATOM     10  C   UNL     1      88.913 100.019  69.238  1.00  0.00     0.157 A 
ATOM     11  C   UNL     1      89.435 101.302  69.415  1.00  0.00     0.050 A 
ATOM     12  C   UNL     1      90.271 101.571  70.499  1.00  0.00     0.008 A 
BRANCH   8  13
ATOM     13  O   UNL     1      88.724  97.753  69.985  1.00  0.00    -0.493 OA
ATOM     14  C   UNL     1      89.542  96.666  70.415  1.00  0.00     0.278 C 
ENDBRANCH   8  13
BRANCH  10  15
ATOM     15  O   UNL     1      88.099  99.768  68.176  1.00  0.00    -0.504 OA
ATOM     16  H   UNL     1      88.623  99.327  67.486  1.00  0.00     0.293 HD
ENDBRANCH  10  15
ENDBRANCH   6   7
ENDBRANCH   5   6
ENDBRANCH   3   5
ENDBRANCH   2   3
BRANCH   1  17
ATOM     17  C   UNL     1      93.482  96.917  76.471  1.00  0.00     0.027 C 
BRANCH  17  18
ATOM     18  C   UNL     1      92.239  96.022  76.448  1.00  0.00     0.004 C 
BRANCH  18  19
ATOM     19  C   UNL     1      91.427  96.066  77.746  1.00  0.00     0.000 C 
BRANCH  19  20
ATOM     20  C   UNL     1      90.053  95.419  77.559  1.00  0.00    -0.003 C 
ATOM     21  C   UNL     1      90.155  94.106  76.800  1.00  0.00     0.004 C 
ENDBRANCH  19  20
ENDBRANCH  18  19
ENDBRANCH  17  18
ENDBRANCH   1  17
TORSDOF 10
ENDMDL
MODEL 7
REMARK VINA RESULT:    -4.986      2.303      4.412
REMARK INTER + INTRA:          -8.930
REMARK INTER:                  -8.164
REMARK INTRA:                  -0.765
REMARK UNBOUND:                -1.174
REMARK SMILES CCCCC/C=C/C(=O)CCc1ccc(O)c(OC)c1
REMARK SMILES IDX 6 1 7 2 8 3 9 4 10 5 11 6 12 7 17 8 20 9 15 10 14 11 13 12
REMARK SMILES IDX 18 13 19 14 16 15 5 17 4 18 3 19 2 20 1 21
REMARK H PARENT 16 16
REMARK Flexibility Score: inf
ROOT
ATOM      1  C   UNL     1      93.592  95.545  78.340  1.00  0.00    -0.023 C 
ATOM      2  C   UNL     1      93.767  94.845  79.467  1.00  0.00     0.043 C 
ENDROOT
BRANCH   2   3
ATOM      3  C   UNL     1      94.819  95.253  80.438  1.00  0.00     0.155 C 
ATOM      4  O   UNL     1      95.871  94.629  80.557  1.00  0.00    -0.295 OA
BRANCH   3   5
ATOM      5  C   UNL     1      94.502  96.451  81.313  1.00  0.00     0.085 C 
BRANCH   5   6
ATOM      6  C   UNL     1      95.626  97.487  81.263  1.00  0.00     0.044 C 
BRANCH   6   7
ATOM      7  C   UNL     1      95.865  98.160  82.594  1.00  0.00    -0.044 A 
ATOM      8  C   UNL     1      96.761  98.096  84.819  1.00  0.00     0.160 A 
ATOM      9  C   UNL     1      96.540  97.474  83.590  1.00  0.00     0.054 A 
ATOM     10  C   UNL     1      96.302  99.395  85.036  1.00  0.00     0.157 A 
ATOM     11  C   UNL     1      95.623 100.073  84.023  1.00  0.00     0.050 A 
ATOM     12  C   UNL     1      95.403  99.451  82.794  1.00  0.00     0.008 A 
BRANCH   8  13
ATOM     13  O   UNL     1      97.425  97.424  85.801  1.00  0.00    -0.493 OA
ATOM     14  C   UNL     1      98.670  96.824  85.448  1.00  0.00     0.278 C 
ENDBRANCH   8  13
BRANCH  10  15
ATOM     15  O   UNL     1      96.511 100.013  86.232  1.00  0.00    -0.504 OA
ATOM     16  H   UNL     1      97.326  99.654  86.623  1.00  0.00     0.293 HD
ENDBRANCH  10  15
ENDBRANCH   6   7
ENDBRANCH   5   6
ENDBRANCH   3   5
ENDBRANCH   2   3
BRANCH   1  17
ATOM     17  C   UNL     1      92.555  95.198  77.311  1.00  0.00     0.027 C 
BRANCH  17  18
ATOM     18  C   UNL     1      91.308  96.085  77.391  1.00  0.00     0.004 C 
BRANCH  18  19
ATOM     19  C   UNL     1      90.005  95.297  77.559  1.00  0.00     0.000 C 
BRANCH  19  20
ATOM     20  C   UNL     1      90.255  93.791  77.472  1.00  0.00    -0.003 C 
ATOM     21  C   UNL     1      89.619  93.053  78.640  1.00  0.00     0.004 C 
ENDBRANCH  19  20
ENDBRANCH  18  19
ENDBRANCH  17  18
ENDBRANCH   1  17
TORSDOF 10
ENDMDL
MODEL 8
REMARK VINA RESULT:    -4.963     12.802     14.924
REMARK INTER + INTRA:          -8.893
REMARK INTER:                  -8.050
REMARK INTRA:                  -0.843
REMARK UNBOUND:                -1.174
REMARK SMILES CCCCC/C=C/C(=O)CCc1ccc(O)c(OC)c1
REMARK SMILES IDX 6 1 7 2 8 3 9 4 10 5 11 6 12 7 17 8 20 9 15 10 14 11 13 12
REMARK SMILES IDX 18 13 19 14 16 15 5 17 4 18 3 19 2 20 1 21
REMARK H PARENT 16 16
REMARK Flexibility Score: inf
ROOT
ATOM      1  C   UNL     1      97.826  82.262  83.896  1.00  0.00    -0.023 C 
ATOM      2  C   UNL     1      97.521  83.565  83.935  1.00  0.00     0.043 C 
ENDROOT
BRANCH   2   3
ATOM      3  C   UNL     1      96.772  84.118  85.096  1.00  0.00     0.155 C 
ATOM      4  O   UNL     1      96.795  85.315  85.373  1.00  0.00    -0.295 OA
BRANCH   3   5
ATOM      5  C   UNL     1      96.019  83.118  85.953  1.00  0.00     0.085 C 
BRANCH   5   6
ATOM      6  C   UNL     1      95.211  83.820  87.045  1.00  0.00     0.044 C 
BRANCH   6   7
ATOM      7  C   UNL     1      93.811  83.271  87.185  1.00  0.00    -0.044 A 
ATOM      8  C   UNL     1      91.598  83.441  88.097  1.00  0.00     0.160 A 
ATOM      9  C   UNL     1      92.891  83.948  87.969  1.00  0.00     0.054 A 
ATOM     10  C   UNL     1      91.242  82.264  87.440  1.00  0.00     0.157 A 
ATOM     11  C   UNL     1      92.180  81.593  86.654  1.00  0.00     0.050 A 
ATOM     12  C   UNL     1      93.473  82.100  86.526  1.00  0.00     0.008 A 
BRANCH   8  13
ATOM     13  O   UNL     1      90.691  84.105  88.867  1.00  0.00    -0.493 OA
ATOM     14  C   UNL     1      91.175  84.701  90.070  1.00  0.00     0.278 C 
ENDBRANCH   8  13
BRANCH  10  15
ATOM     15  O   UNL     1      89.982  81.758  87.557  1.00  0.00    -0.504 OA
ATOM     16  H   UNL     1      89.802  81.205  86.778  1.00  0.00     0.293 HD
ENDBRANCH  10  15
ENDBRANCH   6   7
ENDBRANCH   5   6
ENDBRANCH   3   5
ENDBRANCH   2   3
BRANCH   1  17
ATOM     17  C   UNL     1      98.578  81.629  82.762  1.00  0.00     0.027 C 
BRANCH  17  18
ATOM     18  C   UNL     1      99.808  82.435  82.331  1.00  0.00     0.004 C 
BRANCH  18  19
ATOM     19  C   UNL     1      99.767  82.879  80.865  1.00  0.00     0.000 C 
BRANCH  19  20
ATOM     20  C   UNL     1      98.550  82.298  80.146  1.00  0.00    -0.003 C 
ATOM     21  C   UNL     1      97.653  83.394  79.593  1.00  0.00     0.004 C 
ENDBRANCH  19  20
ENDBRANCH  18  19
ENDBRANCH  17  18
ENDBRANCH   1  17
TORSDOF 10
ENDMDL
MODEL 9
REMARK VINA RESULT:    -4.932     13.143     15.722
REMARK INTER + INTRA:          -8.845
REMARK INTER:                  -7.076
REMARK INTRA:                  -1.768
REMARK UNBOUND:                -1.174
REMARK SMILES CCCCC/C=C/C(=O)CCc1ccc(O)c(OC)c1
REMARK SMILES IDX 6 1 7 2 8 3 9 4 10 5 11 6 12 7 17 8 20 9 15 10 14 11 13 12
REMARK SMILES IDX 18 13 19 14 16 15 5 17 4 18 3 19 2 20 1 21
REMARK H PARENT 16 16
REMARK Flexibility Score: inf
ROOT
ATOM      1  C   UNL     1      99.099  81.920  79.547  1.00  0.00    -0.023 C 
ATOM      2  C   UNL     1      98.880  83.238  79.469  1.00  0.00     0.043 C 
ENDROOT
BRANCH   2   3
ATOM      3  C   UNL     1      97.569  83.745  78.979  1.00  0.00     0.155 C 
ATOM      4  O   UNL     1      96.545  83.649  79.651  1.00  0.00    -0.295 OA
BRANCH   3   5
ATOM      5  C   UNL     1      97.552  84.338  77.584  1.00  0.00     0.085 C 
BRANCH   5   6
ATOM      6  C   UNL     1      97.734  83.256  76.518  1.00  0.00     0.044 C 
BRANCH   6   7
ATOM      7  C   UNL     1      99.124  83.242  75.927  1.00  0.00    -0.044 A 
ATOM      8  C   UNL     1     100.990  82.019  75.044  1.00  0.00     0.160 A 
ATOM      9  C   UNL     1      99.707  82.031  75.591  1.00  0.00     0.054 A 
ATOM     10  C   UNL     1     101.674  83.217  74.841  1.00  0.00     0.157 A 
ATOM     11  C   UNL     1     101.073  84.429  75.185  1.00  0.00     0.050 A 
ATOM     12  C   UNL     1      99.790  84.441  75.732  1.00  0.00     0.008 A 
BRANCH   8  13
ATOM     13  O   UNL     1     101.565  80.829  74.713  1.00  0.00    -0.493 OA
ATOM     14  C   UNL     1     101.044  80.152  73.571  1.00  0.00     0.278 C 
ENDBRANCH   8  13
BRANCH  10  15
ATOM     15  O   UNL     1     102.927  83.218  74.308  1.00  0.00    -0.504 OA
ATOM     16  H   UNL     1     102.917  83.767  73.506  1.00  0.00     0.293 HD
ENDBRANCH  10  15
ENDBRANCH   6   7
ENDBRANCH   5   6
ENDBRANCH   3   5
ENDBRANCH   2   3
BRANCH   1  17
ATOM     17  C   UNL     1     100.392  81.330  80.029  1.00  0.00     0.027 C 
BRANCH  17  18
ATOM     18  C   UNL     1     100.815  80.084  79.244  1.00  0.00     0.004 C 
BRANCH  18  19
ATOM     19  C   UNL     1     101.937  80.346  78.235  1.00  0.00     0.000 C 
BRANCH  19  20
ATOM     20  C   UNL     1     102.531  81.743  78.420  1.00  0.00    -0.003 C 
ATOM     21  C   UNL     1     103.802  81.920  77.605  1.00  0.00     0.004 C 
ENDBRANCH  19  20
ENDBRANCH  18  19
ENDBRANCH  17  18
ENDBRANCH   1  17
TORSDOF 10
ENDMDL
MODEL 10
REMARK VINA RESULT:    -4.923      4.061      7.846
REMARK INTER + INTRA:          -8.832
REMARK INTER:                  -8.186
REMARK INTRA:                  -0.645
REMARK UNBOUND:                -1.174
REMARK SMILES CCCCC/C=C/C(=O)CCc1ccc(O)c(OC)c1
REMARK SMILES IDX 6 1 7 2 8 3 9 4 10 5 11 6 12 7 17 8 20 9 15 10 14 11 13 12
REMARK SMILES IDX 18 13 19 14 16 15 5 17 4 18 3 19 2 20 1 21
REMARK H PARENT 16 16
REMARK Flexibility Score: inf
ROOT
ATOM      1  C   UNL     1      93.932  96.110  77.931  1.00  0.00    -0.023 C 
ATOM      2  C   UNL     1      94.235  95.723  76.686  1.00  0.00     0.043 C 
ENDROOT
BRANCH   2   3
ATOM      3  C   UNL     1      94.462  96.742  75.626  1.00  0.00     0.155 C 
ATOM      4  O   UNL     1      95.541  96.847  75.046  1.00  0.00    -0.295 OA
BRANCH   3   5
ATOM      5  C   UNL     1      93.308  97.682  75.334  1.00  0.00     0.085 C 
BRANCH   5   6
ATOM      6  C   UNL     1      93.709  99.141  75.561  1.00  0.00     0.044 C 
BRANCH   6   7
ATOM      7  C   UNL     1      92.946 100.103  74.682  1.00  0.00    -0.044 A 
ATOM      8  C   UNL     1      91.864 100.596  72.598  1.00  0.00     0.160 A 
ATOM      9  C   UNL     1      92.569  99.707  73.409  1.00  0.00     0.054 A 
ATOM     10  C   UNL     1      91.545 101.869  73.069  1.00  0.00     0.157 A 
ATOM     11  C   UNL     1      91.933 102.254  74.354  1.00  0.00     0.050 A 
ATOM     12  C   UNL     1      92.638 101.364  75.165  1.00  0.00     0.008 A 
BRANCH   8  13
ATOM     13  O   UNL     1      91.491 100.209  71.345  1.00  0.00    -0.493 OA
ATOM     14  C   UNL     1      90.394  99.304  71.246  1.00  0.00     0.278 C 
ENDBRANCH   8  13
BRANCH  10  15
ATOM     15  O   UNL     1      90.857 102.747  72.287  1.00  0.00    -0.504 OA
ATOM     16  H   UNL     1      91.488 103.184  71.691  1.00  0.00     0.293 HD
ENDBRANCH  10  15
ENDBRANCH   6   7
ENDBRANCH   5   6
ENDBRANCH   3   5
ENDBRANCH   2   3
BRANCH   1  17
ATOM     17  C   UNL     1      93.688  95.145  79.054  1.00  0.00     0.027 C 
BRANCH  17  18
ATOM     18  C   UNL     1      92.586  94.127  78.745  1.00  0.00     0.004 C 
BRANCH  18  19
ATOM     19  C   UNL     1      91.261  94.767  78.318  1.00  0.00     0.000 C 
BRANCH  19  20
ATOM     20  C   UNL     1      90.401  93.780  77.528  1.00  0.00    -0.003 C 
ATOM     21  C   UNL     1      89.156  93.381  78.304  1.00  0.00     0.004 C 
ENDBRANCH  19  20
ENDBRANCH  18  19
ENDBRANCH  17  18
ENDBRANCH   1  17
TORSDOF 10
ENDMDL
