MODEL 1
REMARK VINA RESULT:    -7.053      0.000      0.000
REMARK INTER + INTRA:         -11.794
REMARK INTER:                 -10.970
REMARK INTRA:                  -0.824
REMARK UNBOUND:                -0.824
REMARK SMILES COc1cc(CNC(=O)CCCC/C=C/C(C)C)ccc1O
REMARK SMILES IDX 10 1 8 2 7 3 9 5 6 6 5 7 3 8 21 9 4 10 20 11 19 12 2 13 1 14
REMARK SMILES IDX 22 15 11 17 12 18 13 19 14 20 15 21 16 22 17 23 18 24
REMARK H PARENT 7 4 22 16
REMARK Flexibility Score: inf
ROOT
ATOM      1  C   UNL     1      92.237  95.865  77.166  1.00  0.00     0.100 C 
ENDROOT
BRANCH   1   2
ATOM      2  C   UNL     1      93.581  95.266  77.070  1.00  0.00     0.220 C 
ATOM      3  N   UNL     1      93.875  94.115  77.738  1.00  0.00    -0.352 N 
ATOM      4  H   UNL     1      93.121  93.744  78.300  1.00  0.00     0.163 HD
ATOM      5  O   UNL     1      94.432  95.832  76.341  1.00  0.00    -0.275 OA
BRANCH   3   6
ATOM      6  C   UNL     1      95.132  93.440  77.686  1.00  0.00     0.151 C 
BRANCH   6   7
ATOM      7  C   UNL     1      95.924  93.662  78.926  1.00  0.00    -0.025 A 
ATOM      8  C   UNL     1      97.819  94.732  80.079  1.00  0.00     0.160 A 
ATOM      9  C   UNL     1      97.434  94.114  81.287  1.00  0.00     0.157 A 
ATOM     10  C   UNL     1      97.063  94.499  78.911  1.00  0.00     0.056 A 
ATOM     11  C   UNL     1      96.312  93.262  81.313  1.00  0.00     0.050 A 
ATOM     12  C   UNL     1      95.556  93.045  80.145  1.00  0.00     0.009 A 
BRANCH   8  13
ATOM     13  O   UNL     1      98.948  95.509  80.033  1.00  0.00    -0.493 OA
ATOM     14  C   UNL     1      98.687  96.912  79.843  1.00  0.00     0.278 C 
ENDBRANCH   8  13
BRANCH   9  15
ATOM     15  O   UNL     1      98.132  94.328  82.431  1.00  0.00    -0.504 OA
ATOM     16  H   UNL     1      98.142  95.267  82.631  1.00  0.00     0.293 HD
ENDBRANCH   9  15
ENDBRANCH   6   7
ENDBRANCH   3   6
ENDBRANCH   1   2
BRANCH   1  17
ATOM     17  C   UNL     1      91.192  95.061  76.346  1.00  0.00     0.010 C 
BRANCH  17  18
ATOM     18  C   UNL     1      90.214  94.250  77.242  1.00  0.00     0.005 C 
BRANCH  18  19
ATOM     19  C   UNL     1      90.694  92.791  77.468  1.00  0.00     0.027 C 
BRANCH  19  20
ATOM     20  C   UNL     1      90.352  91.923  76.352  1.00  0.00    -0.031 C 
ATOM     21  C   UNL     1      91.174  91.659  75.320  1.00  0.00    -0.028 C 
BRANCH  21  22
ATOM     22  C   UNL     1      90.816  90.766  74.217  1.00  0.00     0.005 C 
ATOM     23  C   UNL     1      90.866  89.269  74.631  1.00  0.00     0.012 C 
ATOM     24  C   UNL     1      89.419  91.139  73.658  1.00  0.00     0.012 C 
ENDBRANCH  21  22
ENDBRANCH  19  20
ENDBRANCH  18  19
ENDBRANCH  17  18
ENDBRANCH   1  17
TORSDOF 10
ENDMDL
MODEL 2
REMARK VINA RESULT:    -6.479      1.917      2.898
REMARK INTER + INTRA:         -10.900
REMARK INTER:                  -9.921
REMARK INTRA:                  -0.979
REMARK UNBOUND:                -0.824
REMARK SMILES COc1cc(CNC(=O)CCCC/C=C/C(C)C)ccc1O
REMARK SMILES IDX 10 1 8 2 7 3 9 5 6 6 5 7 3 8 21 9 4 10 20 11 19 12 2 13 1 14
REMARK SMILES IDX 22 15 11 17 12 18 13 19 14 20 15 21 16 22 17 23 18 24
REMARK H PARENT 7 4 22 16
REMARK Flexibility Score: inf
ROOT
ATOM      1  C   UNL     1      93.934  93.580  77.609  1.00  0.00     0.100 C 
ENDROOT
BRANCH   1   2
ATOM      2  C   UNL     1      95.059  93.275  78.514  1.00  0.00     0.220 C 
ATOM      3  N   UNL     1      94.891  93.322  79.865  1.00  0.00    -0.352 N 
ATOM      4  H   UNL     1      93.969  93.598  80.171  1.00  0.00     0.163 HD
ATOM      5  O   UNL     1      96.159  92.951  78.004  1.00  0.00    -0.275 OA
BRANCH   3   6
ATOM      6  C   UNL     1      95.904  93.015  80.824  1.00  0.00     0.151 C 
BRANCH   6   7
ATOM      7  C   UNL     1      96.627  94.238  81.266  1.00  0.00    -0.025 A 
ATOM      8  C   UNL     1      98.707  95.334  81.999  1.00  0.00     0.160 A 
ATOM      9  C   UNL     1      98.026  96.565  82.093  1.00  0.00     0.157 A 
ATOM     10  C   UNL     1      98.002  94.183  81.590  1.00  0.00     0.056 A 
ATOM     11  C   UNL     1      96.652  96.632  81.792  1.00  0.00     0.050 A 
ATOM     12  C   UNL     1      95.959  95.480  81.373  1.00  0.00     0.009 A 
BRANCH   8  13
ATOM     13  O   UNL     1     100.030  95.250  82.354  1.00  0.00    -0.493 OA
ATOM     14  C   UNL     1     100.247  94.869  83.725  1.00  0.00     0.278 C 
ENDBRANCH   8  13
BRANCH   9  15
ATOM     15  O   UNL     1      98.679  97.694  82.471  1.00  0.00    -0.504 OA
ATOM     16  H   UNL     1      99.173  97.525  83.276  1.00  0.00     0.293 HD
ENDBRANCH   9  15
ENDBRANCH   6   7
ENDBRANCH   3   6
ENDBRANCH   1   2
BRANCH   1  17
ATOM     17  C   UNL     1      93.371  95.005  77.856  1.00  0.00     0.010 C 
BRANCH  17  18
ATOM     18  C   UNL     1      92.580  95.562  76.639  1.00  0.00     0.005 C 
BRANCH  18  19
ATOM     19  C   UNL     1      91.047  95.567  76.883  1.00  0.00     0.027 C 
BRANCH  19  20
ATOM     20  C   UNL     1      90.473  94.233  76.786  1.00  0.00    -0.031 C 
ATOM     21  C   UNL     1      90.705  93.382  75.770  1.00  0.00    -0.028 C 
BRANCH  21  22
ATOM     22  C   UNL     1      90.133  92.038  75.703  1.00  0.00     0.005 C 
ATOM     23  C   UNL     1      91.048  91.045  74.935  1.00  0.00     0.012 C 
ATOM     24  C   UNL     1      89.825  91.515  77.130  1.00  0.00     0.012 C 
ENDBRANCH  21  22
ENDBRANCH  19  20
ENDBRANCH  18  19
ENDBRANCH  17  18
ENDBRANCH   1  17
TORSDOF 10
ENDMDL
MODEL 3
REMARK VINA RESULT:    -6.242     12.090     14.200
REMARK INTER + INTRA:         -10.532
REMARK INTER:                  -9.827
REMARK INTRA:                  -0.705
REMARK UNBOUND:                -0.824
REMARK SMILES COc1cc(CNC(=O)CCCC/C=C/C(C)C)ccc1O
REMARK SMILES IDX 10 1 8 2 7 3 9 5 6 6 5 7 3 8 21 9 4 10 20 11 19 12 2 13 1 14
REMARK SMILES IDX 22 15 11 17 12 18 13 19 14 20 15 21 16 22 17 23 18 24
REMARK H PARENT 7 4 22 16
REMARK Flexibility Score: inf
ROOT
ATOM      1  C   UNL     1      96.297  80.264  82.495  1.00  0.00     0.100 C 
ENDROOT
BRANCH   1   2
ATOM      2  C   UNL     1      97.168  80.161  81.308  1.00  0.00     0.220 C 
ATOM      3  N   UNL     1      97.308  81.218  80.459  1.00  0.00    -0.352 N 
ATOM      4  H   UNL     1      96.761  82.033  80.699  1.00  0.00     0.163 HD
ATOM      5  O   UNL     1      97.789  79.087  81.121  1.00  0.00    -0.275 OA
BRANCH   3   6
ATOM      6  C   UNL     1      98.149  81.230  79.305  1.00  0.00     0.151 C 
BRANCH   6   7
ATOM      7  C   UNL     1      97.470  81.863  78.141  1.00  0.00    -0.025 A 
ATOM      8  C   UNL     1      97.482  82.520  75.768  1.00  0.00     0.160 A 
ATOM      9  C   UNL     1      96.183  83.050  75.908  1.00  0.00     0.157 A 
ATOM     10  C   UNL     1      98.114  81.935  76.886  1.00  0.00     0.056 A 
ATOM     11  C   UNL     1      95.536  83.003  77.158  1.00  0.00     0.050 A 
ATOM     12  C   UNL     1      96.170  82.406  78.265  1.00  0.00     0.009 A 
BRANCH   8  13
ATOM     13  O   UNL     1      98.142  82.622  74.570  1.00  0.00    -0.493 OA
ATOM     14  C   UNL     1      98.569  81.360  74.026  1.00  0.00     0.278 C 
ENDBRANCH   8  13
BRANCH   9  15
ATOM     15  O   UNL     1      95.541  83.608  74.849  1.00  0.00    -0.504 OA
ATOM     16  H   UNL     1      95.973  83.340  74.034  1.00  0.00     0.293 HD
ENDBRANCH   9  15
ENDBRANCH   6   7
ENDBRANCH   3   6
ENDBRANCH   1   2
BRANCH   1  17
ATOM     17  C   UNL     1      96.097  81.740  82.932  1.00  0.00     0.010 C 
BRANCH  17  18
ATOM     18  C   UNL     1      95.028  81.901  84.049  1.00  0.00     0.005 C 
BRANCH  18  19
ATOM     19  C   UNL     1      94.469  80.536  84.532  1.00  0.00     0.027 C 
BRANCH  19  20
ATOM     20  C   UNL     1      93.217  80.683  85.259  1.00  0.00    -0.031 C 
ATOM     21  C   UNL     1      92.083  81.167  84.720  1.00  0.00    -0.028 C 
BRANCH  21  22
ATOM     22  C   UNL     1      90.829  81.289  85.464  1.00  0.00     0.005 C 
ATOM     23  C   UNL     1      90.917  82.348  86.598  1.00  0.00     0.012 C 
ATOM     24  C   UNL     1      89.661  81.609  84.497  1.00  0.00     0.012 C 
ENDBRANCH  21  22
ENDBRANCH  19  20
ENDBRANCH  18  19
ENDBRANCH  17  18
ENDBRANCH   1  17
TORSDOF 10
ENDMDL
MODEL 4
REMARK VINA RESULT:    -6.209     10.351     14.027
REMARK INTER + INTRA:         -10.480
REMARK INTER:                  -9.532
REMARK INTRA:                  -0.949
REMARK UNBOUND:                -0.824
REMARK SMILES COc1cc(CNC(=O)CCCC/C=C/C(C)C)ccc1O
REMARK SMILES IDX 10 1 8 2 7 3 9 5 6 6 5 7 3 8 21 9 4 10 20 11 19 12 2 13 1 14
REMARK SMILES IDX 22 15 11 17 12 18 13 19 14 20 15 21 16 22 17 23 18 24
REMARK H PARENT 7 4 22 16
REMARK Flexibility Score: inf
ROOT
ATOM      1  C   UNL     1      89.746  97.819  69.736  1.00  0.00     0.100 C 
ENDROOT
BRANCH   1   2
ATOM      2  C   UNL     1      89.476  98.165  68.327  1.00  0.00     0.220 C 
ATOM      3  N   UNL     1      88.378  98.899  67.993  1.00  0.00    -0.352 N 
ATOM      4  H   UNL     1      87.781  99.150  68.769  1.00  0.00     0.163 HD
ATOM      5  O   UNL     1      90.296  97.784  67.456  1.00  0.00    -0.275 OA
BRANCH   3   6
ATOM      6  C   UNL     1      88.045  99.312  66.667  1.00  0.00     0.151 C 
BRANCH   6   7
ATOM      7  C   UNL     1      88.126 100.790  66.518  1.00  0.00    -0.025 A 
ATOM      8  C   UNL     1      89.472 102.850  66.423  1.00  0.00     0.160 A 
ATOM      9  C   UNL     1      88.300 103.607  66.217  1.00  0.00     0.157 A 
ATOM     10  C   UNL     1      89.374 101.451  66.573  1.00  0.00     0.056 A 
ATOM     11  C   UNL     1      87.047 102.965  66.180  1.00  0.00     0.050 A 
ATOM     12  C   UNL     1      86.960 101.566  66.319  1.00  0.00     0.009 A 
BRANCH   8  13
ATOM     13  O   UNL     1      90.687 103.478  66.526  1.00  0.00    -0.493 OA
ATOM     14  C   UNL     1      91.514 103.352  65.354  1.00  0.00     0.278 C 
ENDBRANCH   8  13
BRANCH   9  15
ATOM     15  O   UNL     1      88.361 104.954  66.056  1.00  0.00    -0.504 OA
ATOM     16  H   UNL     1      89.060 105.312  66.607  1.00  0.00     0.293 HD
ENDBRANCH   9  15
ENDBRANCH   6   7
ENDBRANCH   3   6
ENDBRANCH   1   2
BRANCH   1  17
ATOM     17  C   UNL     1      89.952  99.088  70.607  1.00  0.00     0.010 C 
BRANCH  17  18
ATOM     18  C   UNL     1      91.300  99.807  70.318  1.00  0.00     0.005 C 
BRANCH  18  19
ATOM     19  C   UNL     1      91.732 100.740  71.482  1.00  0.00     0.027 C 
BRANCH  19  20
ATOM     20  C   UNL     1      92.907 100.238  72.178  1.00  0.00    -0.031 C 
ATOM     21  C   UNL     1      92.982  99.027  72.759  1.00  0.00    -0.028 C 
BRANCH  21  22
ATOM     22  C   UNL     1      94.181  98.535  73.437  1.00  0.00     0.005 C 
ATOM     23  C   UNL     1      93.870  97.359  74.404  1.00  0.00     0.012 C 
ATOM     24  C   UNL     1      95.256  98.127  72.397  1.00  0.00     0.012 C 
ENDBRANCH  21  22
ENDBRANCH  19  20
ENDBRANCH  18  19
ENDBRANCH  17  18
ENDBRANCH   1  17
TORSDOF 10
ENDMDL
MODEL 5
REMARK VINA RESULT:    -5.977     11.735     14.336
REMARK INTER + INTRA:         -10.119
REMARK INTER:                  -9.462
REMARK INTRA:                  -0.657
REMARK UNBOUND:                -0.824
REMARK SMILES COc1cc(CNC(=O)CCCC/C=C/C(C)C)ccc1O
REMARK SMILES IDX 10 1 8 2 7 3 9 5 6 6 5 7 3 8 21 9 4 10 20 11 19 12 2 13 1 14
REMARK SMILES IDX 22 15 11 17 12 18 13 19 14 20 15 21 16 22 17 23 18 24
REMARK H PARENT 7 4 22 16
REMARK Flexibility Score: inf
ROOT
ATOM      1  C   UNL     1      97.381  78.522  81.007  1.00  0.00     0.100 C 
ENDROOT
BRANCH   1   2
ATOM      2  C   UNL     1      98.300  79.220  80.088  1.00  0.00     0.220 C 
ATOM      3  N   UNL     1      97.829  79.807  78.952  1.00  0.00    -0.352 N 
ATOM      4  H   UNL     1      96.836  79.699  78.797  1.00  0.00     0.163 HD
ATOM      5  O   UNL     1      99.516  79.276  80.396  1.00  0.00    -0.275 OA
BRANCH   3   6
ATOM      6  C   UNL     1      98.628  80.531  78.017  1.00  0.00     0.151 C 
BRANCH   6   7
ATOM      7  C   UNL     1      97.802  81.451  77.188  1.00  0.00    -0.025 A 
ATOM      8  C   UNL     1      97.330  82.519  75.021  1.00  0.00     0.160 A 
ATOM      9  C   UNL     1      96.224  83.185  75.589  1.00  0.00     0.157 A 
ATOM     10  C   UNL     1      98.109  81.661  75.825  1.00  0.00     0.056 A 
ATOM     11  C   UNL     1      95.917  83.000  76.951  1.00  0.00     0.050 A 
ATOM     12  C   UNL     1      96.694  82.132  77.744  1.00  0.00     0.009 A 
BRANCH   8  13
ATOM     13  O   UNL     1      97.672  82.747  73.712  1.00  0.00    -0.493 OA
ATOM     14  C   UNL     1      98.805  83.619  73.544  1.00  0.00     0.278 C 
ENDBRANCH   8  13
BRANCH   9  15
ATOM     15  O   UNL     1      95.446  84.008  74.839  1.00  0.00    -0.504 OA
ATOM     16  H   UNL     1      94.543  83.979  75.163  1.00  0.00     0.293 HD
ENDBRANCH   9  15
ENDBRANCH   6   7
ENDBRANCH   3   6
ENDBRANCH   1   2
BRANCH   1  17
ATOM     17  C   UNL     1      96.646  79.516  81.946  1.00  0.00     0.010 C 
BRANCH  17  18
ATOM     18  C   UNL     1      97.393  80.871  82.097  1.00  0.00     0.005 C 
BRANCH  18  19
ATOM     19  C   UNL     1      96.489  82.085  81.751  1.00  0.00     0.027 C 
BRANCH  19  20
ATOM     20  C   UNL     1      96.015  82.771  82.943  1.00  0.00    -0.031 C 
ATOM     21  C   UNL     1      95.228  82.206  83.878  1.00  0.00    -0.028 C 
BRANCH  21  22
ATOM     22  C   UNL     1      94.779  82.909  85.079  1.00  0.00     0.005 C 
ATOM     23  C   UNL     1      95.328  82.261  86.381  1.00  0.00     0.012 C 
ATOM     24  C   UNL     1      95.168  84.408  85.001  1.00  0.00     0.012 C 
ENDBRANCH  21  22
ENDBRANCH  19  20
ENDBRANCH  18  19
ENDBRANCH  17  18
ENDBRANCH   1  17
TORSDOF 10
ENDMDL
MODEL 6
REMARK VINA RESULT:    -5.920     12.190     15.776
REMARK INTER + INTRA:         -10.031
REMARK INTER:                  -8.565
REMARK INTRA:                  -1.467
REMARK UNBOUND:                -0.824
REMARK SMILES COc1cc(CNC(=O)CCCC/C=C/C(C)C)ccc1O
REMARK SMILES IDX 10 1 8 2 7 3 9 5 6 6 5 7 3 8 21 9 4 10 20 11 19 12 2 13 1 14
REMARK SMILES IDX 22 15 11 17 12 18 13 19 14 20 15 21 16 22 17 23 18 24
REMARK H PARENT 7 4 22 16
REMARK Flexibility Score: inf
ROOT
ATOM      1  C   UNL     1      89.544  98.111  68.544  1.00  0.00     0.100 C 
ENDROOT
BRANCH   1   2
ATOM      2  C   UNL     1      88.911  98.705  67.350  1.00  0.00     0.220 C 
ATOM      3  N   UNL     1      87.706  99.332  67.446  1.00  0.00    -0.352 N 
ATOM      4  H   UNL     1      87.295  99.329  68.370  1.00  0.00     0.163 HD
ATOM      5  O   UNL     1      89.525  98.634  66.258  1.00  0.00    -0.275 OA
BRANCH   3   6
ATOM      6  C   UNL     1      87.027  99.964  66.360  1.00  0.00     0.151 C 
BRANCH   6   7
ATOM      7  C   UNL     1      87.237 101.438  66.368  1.00  0.00    -0.025 A 
ATOM      8  C   UNL     1      86.367 103.714  66.018  1.00  0.00     0.160 A 
ATOM      9  C   UNL     1      87.616 104.250  66.395  1.00  0.00     0.157 A 
ATOM     10  C   UNL     1      86.190 102.315  66.006  1.00  0.00     0.056 A 
ATOM     11  C   UNL     1      88.675 103.388  66.740  1.00  0.00     0.050 A 
ATOM     12  C   UNL     1      88.485 101.992  66.736  1.00  0.00     0.009 A 
BRANCH   8  13
ATOM     13  O   UNL     1      85.353 104.547  65.618  1.00  0.00    -0.493 OA
ATOM     14  C   UNL     1      84.223 104.565  66.509  1.00  0.00     0.278 C 
ENDBRANCH   8  13
BRANCH   9  15
ATOM     15  O   UNL     1      87.815 105.593  66.430  1.00  0.00    -0.504 OA
ATOM     16  H   UNL     1      88.718 105.790  66.169  1.00  0.00     0.293 HD
ENDBRANCH   9  15
ENDBRANCH   6   7
ENDBRANCH   3   6
ENDBRANCH   1   2
BRANCH   1  17
ATOM     17  C   UNL     1      89.547  99.100  69.741  1.00  0.00     0.010 C 
BRANCH  17  18
ATOM     18  C   UNL     1      90.960  99.296  70.359  1.00  0.00     0.005 C 
BRANCH  18  19
ATOM     19  C   UNL     1      91.498 100.739  70.157  1.00  0.00     0.027 C 
BRANCH  19  20
ATOM     20  C   UNL     1      92.270 100.868  68.930  1.00  0.00    -0.031 C 
ATOM     21  C   UNL     1      91.795 101.407  67.792  1.00  0.00    -0.028 C 
BRANCH  21  22
ATOM     22  C   UNL     1      92.596 101.545  66.576  1.00  0.00     0.005 C 
ATOM     23  C   UNL     1      91.808 101.133  65.302  1.00  0.00     0.012 C 
ATOM     24  C   UNL     1      93.132 102.995  66.449  1.00  0.00     0.012 C 
ENDBRANCH  21  22
ENDBRANCH  19  20
ENDBRANCH  18  19
ENDBRANCH  17  18
ENDBRANCH   1  17
TORSDOF 10
ENDMDL
MODEL 7
REMARK VINA RESULT:    -5.827      2.802      4.622
REMARK INTER + INTRA:          -9.886
REMARK INTER:                  -9.138
REMARK INTRA:                  -0.749
REMARK UNBOUND:                -0.824
REMARK SMILES COc1cc(CNC(=O)CCCC/C=C/C(C)C)ccc1O
REMARK SMILES IDX 10 1 8 2 7 3 9 5 6 6 5 7 3 8 21 9 4 10 20 11 19 12 2 13 1 14
REMARK SMILES IDX 22 15 11 17 12 18 13 19 14 20 15 21 16 22 17 23 18 24
REMARK H PARENT 7 4 22 16
REMARK Flexibility Score: inf
ROOT
ATOM      1  C   UNL     1      94.366  93.263  78.438  1.00  0.00     0.100 C 
ENDROOT
BRANCH   1   2
ATOM      2  C   UNL     1      94.952  93.469  79.777  1.00  0.00     0.220 C 
ATOM      3  N   UNL     1      95.432  94.691  80.141  1.00  0.00    -0.352 N 
ATOM      4  H   UNL     1      95.372  95.403  79.426  1.00  0.00     0.163 HD
ATOM      5  O   UNL     1      94.972  92.497  80.570  1.00  0.00    -0.275 OA
BRANCH   3   6
ATOM      6  C   UNL     1      95.988  95.001  81.419  1.00  0.00     0.151 C 
BRANCH   6   7
ATOM      7  C   UNL     1      96.713  96.301  81.400  1.00  0.00    -0.025 A 
ATOM      8  C   UNL     1      98.736  97.602  80.875  1.00  0.00     0.160 A 
ATOM      9  C   UNL     1      98.103  98.774  81.337  1.00  0.00     0.157 A 
ATOM     10  C   UNL     1      98.037  96.377  80.913  1.00  0.00     0.056 A 
ATOM     11  C   UNL     1      96.790  98.710  81.843  1.00  0.00     0.050 A 
ATOM     12  C   UNL     1      96.095  97.485  81.866  1.00  0.00     0.009 A 
BRANCH   8  13
ATOM     13  O   UNL     1     100.037  97.648  80.443  1.00  0.00    -0.493 OA
ATOM     14  C   UNL     1     100.981  97.061  81.357  1.00  0.00     0.278 C 
ENDBRANCH   8  13
BRANCH   9  15
ATOM     15  O   UNL     1      98.743  99.972  81.302  1.00  0.00    -0.504 OA
ATOM     16  H   UNL     1      98.097 100.681  81.336  1.00  0.00     0.293 HD
ENDBRANCH   9  15
ENDBRANCH   6   7
ENDBRANCH   3   6
ENDBRANCH   1   2
BRANCH   1  17
ATOM     17  C   UNL     1      92.816  93.202  78.496  1.00  0.00     0.010 C 
BRANCH  17  18
ATOM     18  C   UNL     1      92.147  93.520  77.129  1.00  0.00     0.005 C 
BRANCH  18  19
ATOM     19  C   UNL     1      91.658  94.991  77.038  1.00  0.00     0.027 C 
BRANCH  19  20
ATOM     20  C   UNL     1      92.678  95.874  76.492  1.00  0.00    -0.031 C 
ATOM     21  C   UNL     1      93.246  95.716  75.283  1.00  0.00    -0.028 C 
BRANCH  21  22
ATOM     22  C   UNL     1      94.256  96.627  74.745  1.00  0.00     0.005 C 
ATOM     23  C   UNL     1      95.248  95.910  73.788  1.00  0.00     0.012 C 
ATOM     24  C   UNL     1      93.573  97.826  74.037  1.00  0.00     0.012 C 
ENDBRANCH  21  22
ENDBRANCH  19  20
ENDBRANCH  18  19
ENDBRANCH  17  18
ENDBRANCH   1  17
TORSDOF 10
ENDMDL
MODEL 8
REMARK VINA RESULT:    -5.775      2.910      4.213
REMARK INTER + INTRA:          -9.806
REMARK INTER:                  -9.059
REMARK INTRA:                  -0.748
REMARK UNBOUND:                -0.824
REMARK SMILES COc1cc(CNC(=O)CCCC/C=C/C(C)C)ccc1O
REMARK SMILES IDX 10 1 8 2 7 3 9 5 6 6 5 7 3 8 21 9 4 10 20 11 19 12 2 13 1 14
REMARK SMILES IDX 22 15 11 17 12 18 13 19 14 20 15 21 16 22 17 23 18 24
REMARK H PARENT 7 4 22 16
REMARK Flexibility Score: inf
ROOT
ATOM      1  C   UNL     1      94.807  93.093  78.714  1.00  0.00     0.100 C 
ENDROOT
BRANCH   1   2
ATOM      2  C   UNL     1      95.284  93.440  80.067  1.00  0.00     0.220 C 
ATOM      3  N   UNL     1      95.741  94.695  80.337  1.00  0.00    -0.352 N 
ATOM      4  H   UNL     1      95.744  95.327  79.549  1.00  0.00     0.163 HD
ATOM      5  O   UNL     1      95.234  92.558  80.957  1.00  0.00    -0.275 OA
BRANCH   3   6
ATOM      6  C   UNL     1      96.194  95.140  81.617  1.00  0.00     0.151 C 
BRANCH   6   7
ATOM      7  C   UNL     1      96.625  96.564  81.579  1.00  0.00    -0.025 A 
ATOM      8  C   UNL     1      97.176  98.653  82.760  1.00  0.00     0.160 A 
ATOM      9  C   UNL     1      97.464  99.275  81.527  1.00  0.00     0.157 A 
ATOM     10  C   UNL     1      96.758  97.306  82.774  1.00  0.00     0.056 A 
ATOM     11  C   UNL     1      97.316  98.554  80.326  1.00  0.00     0.050 A 
ATOM     12  C   UNL     1      96.909  97.205  80.351  1.00  0.00     0.009 A 
BRANCH   8  13
ATOM     13  O   UNL     1      97.255  99.370  83.927  1.00  0.00    -0.493 OA
ATOM     14  C   UNL     1      96.793  98.654  85.088  1.00  0.00     0.278 C 
ENDBRANCH   8  13
BRANCH   9  15
ATOM     15  O   UNL     1      97.882 100.566  81.480  1.00  0.00    -0.504 OA
ATOM     16  H   UNL     1      98.330 100.728  80.646  1.00  0.00     0.293 HD
ENDBRANCH   9  15
ENDBRANCH   6   7
ENDBRANCH   3   6
ENDBRANCH   1   2
BRANCH   1  17
ATOM     17  C   UNL     1      93.284  93.349  78.561  1.00  0.00     0.010 C 
BRANCH  17  18
ATOM     18  C   UNL     1      92.962  94.540  77.616  1.00  0.00     0.005 C 
BRANCH  18  19
ATOM     19  C   UNL     1      93.104  94.160  76.117  1.00  0.00     0.027 C 
BRANCH  19  20
ATOM     20  C   UNL     1      92.305  92.994  75.771  1.00  0.00    -0.031 C 
ATOM     21  C   UNL     1      90.960  92.966  75.788  1.00  0.00    -0.028 C 
BRANCH  21  22
ATOM     22  C   UNL     1      90.177  91.788  75.416  1.00  0.00     0.005 C 
ATOM     23  C   UNL     1      90.997  90.783  74.561  1.00  0.00     0.012 C 
ATOM     24  C   UNL     1      89.609  91.100  76.685  1.00  0.00     0.012 C 
ENDBRANCH  21  22
ENDBRANCH  19  20
ENDBRANCH  18  19
ENDBRANCH  17  18
ENDBRANCH   1  17
TORSDOF 10
ENDMDL
MODEL 9
REMARK VINA RESULT:    -5.707     11.011     14.700
REMARK INTER + INTRA:          -9.699
REMARK INTER:                  -8.821
REMARK INTRA:                  -0.879
REMARK UNBOUND:                -0.824
REMARK SMILES COc1cc(CNC(=O)CCCC/C=C/C(C)C)ccc1O
REMARK SMILES IDX 10 1 8 2 7 3 9 5 6 6 5 7 3 8 21 9 4 10 20 11 19 12 2 13 1 14
REMARK SMILES IDX 22 15 11 17 12 18 13 19 14 20 15 21 16 22 17 23 18 24
REMARK H PARENT 7 4 22 16
REMARK Flexibility Score: inf
ROOT
ATOM      1  C   UNL     1      89.522  97.878  69.115  1.00  0.00     0.100 C 
ENDROOT
BRANCH   1   2
ATOM      2  C   UNL     1      89.096  98.417  67.809  1.00  0.00     0.220 C 
ATOM      3  N   UNL     1      87.959  99.160  67.705  1.00  0.00    -0.352 N 
ATOM      4  H   UNL     1      87.447  99.279  68.568  1.00  0.00     0.163 HD
ATOM      5  O   UNL     1      89.821  98.191  66.810  1.00  0.00    -0.275 OA
BRANCH   3   6
ATOM      6  C   UNL     1      87.478  99.751  66.497  1.00  0.00     0.151 C 
BRANCH   6   7
ATOM      7  C   UNL     1      87.860 101.187  66.403  1.00  0.00    -0.025 A 
ATOM      8  C   UNL     1      87.211 103.551  66.174  1.00  0.00     0.160 A 
ATOM      9  C   UNL     1      88.568 103.931  66.240  1.00  0.00     0.157 A 
ATOM     10  C   UNL     1      86.870 102.185  66.253  1.00  0.00     0.056 A 
ATOM     11  C   UNL     1      89.567 102.946  66.370  1.00  0.00     0.050 A 
ATOM     12  C   UNL     1      89.216 101.585  66.460  1.00  0.00     0.009 A 
BRANCH   8  13
ATOM     13  O   UNL     1      86.240 104.501  65.981  1.00  0.00    -0.493 OA
ATOM     14  C   UNL     1      85.595 104.934  67.193  1.00  0.00     0.278 C 
ENDBRANCH   8  13
BRANCH   9  15
ATOM     15  O   UNL     1      88.929 105.239  66.180  1.00  0.00    -0.504 OA
ATOM     16  H   UNL     1      88.216 105.784  66.521  1.00  0.00     0.293 HD
ENDBRANCH   9  15
ENDBRANCH   6   7
ENDBRANCH   3   6
ENDBRANCH   1   2
BRANCH   1  17
ATOM     17  C   UNL     1      89.669  99.001  70.177  1.00  0.00     0.010 C 
BRANCH  17  18
ATOM     18  C   UNL     1      90.960  99.847  69.987  1.00  0.00     0.005 C 
BRANCH  18  19
ATOM     19  C   UNL     1      91.477 100.443  71.324  1.00  0.00     0.027 C 
BRANCH  19  20
ATOM     20  C   UNL     1      92.830 100.006  71.631  1.00  0.00    -0.031 C 
ATOM     21  C   UNL     1      93.597  99.278  70.799  1.00  0.00    -0.028 C 
BRANCH  21  22
ATOM     22  C   UNL     1      94.963  98.865  71.120  1.00  0.00     0.005 C 
ATOM     23  C   UNL     1      95.055  98.159  72.501  1.00  0.00     0.012 C 
ATOM     24  C   UNL     1      95.528  97.959  69.996  1.00  0.00     0.012 C 
ENDBRANCH  21  22
ENDBRANCH  19  20
ENDBRANCH  18  19
ENDBRANCH  17  18
ENDBRANCH   1  17
TORSDOF 10
ENDMDL
MODEL 10
REMARK VINA RESULT:    -5.597     21.083     23.590
REMARK INTER + INTRA:          -9.529
REMARK INTER:                  -7.409
REMARK INTRA:                  -2.120
REMARK UNBOUND:                -0.824
REMARK SMILES COc1cc(CNC(=O)CCCC/C=C/C(C)C)ccc1O
REMARK SMILES IDX 10 1 8 2 7 3 9 5 6 6 5 7 3 8 21 9 4 10 20 11 19 12 2 13 1 14
REMARK SMILES IDX 22 15 11 17 12 18 13 19 14 20 15 21 16 22 17 23 18 24
REMARK H PARENT 7 4 22 16
REMARK Flexibility Score: inf
ROOT
ATOM      1  C   UNL     1      76.787  85.089  69.316  1.00  0.00     0.100 C 
ENDROOT
BRANCH   1   2
ATOM      2  C   UNL     1      77.245  85.910  68.179  1.00  0.00     0.220 C 
ATOM      3  N   UNL     1      77.083  87.263  68.193  1.00  0.00    -0.352 N 
ATOM      4  H   UNL     1      76.617  87.628  69.013  1.00  0.00     0.163 HD
ATOM      5  O   UNL     1      77.805  85.330  67.217  1.00  0.00    -0.275 OA
BRANCH   3   6
ATOM      6  C   UNL     1      77.518  88.147  67.161  1.00  0.00     0.151 C 
BRANCH   6   7
ATOM      7  C   UNL     1      76.374  88.646  66.349  1.00  0.00    -0.025 A 
ATOM      8  C   UNL     1      74.207  89.806  66.213  1.00  0.00     0.160 A 
ATOM      9  C   UNL     1      74.194  89.620  64.815  1.00  0.00     0.157 A 
ATOM     10  C   UNL     1      75.294  89.316  66.966  1.00  0.00     0.056 A 
ATOM     11  C   UNL     1      75.254  88.936  64.189  1.00  0.00     0.050 A 
ATOM     12  C   UNL     1      76.341  88.460  64.947  1.00  0.00     0.009 A 
BRANCH   8  13
ATOM     13  O   UNL     1      73.146  90.414  66.836  1.00  0.00    -0.493 OA
ATOM     14  C   UNL     1      72.235  89.497  67.469  1.00  0.00     0.278 C 
ENDBRANCH   8  13
BRANCH   9  15
ATOM     15  O   UNL     1      73.169  90.091  64.059  1.00  0.00    -0.504 OA
ATOM     16  H   UNL     1      72.944  90.980  64.342  1.00  0.00     0.293 HD
ENDBRANCH   9  15
ENDBRANCH   6   7
ENDBRANCH   3   6
ENDBRANCH   1   2
BRANCH   1  17
ATOM     17  C   UNL     1      75.322  84.612  69.125  1.00  0.00     0.010 C 
BRANCH  17  18
ATOM     18  C   UNL     1      74.294  85.777  69.182  1.00  0.00     0.005 C 
BRANCH  18  19
ATOM     19  C   UNL     1      73.608  86.026  67.812  1.00  0.00     0.027 C 
BRANCH  19  20
ATOM     20  C   UNL     1      74.008  85.047  66.813  1.00  0.00    -0.031 C 
ATOM     21  C   UNL     1      74.625  85.355  65.658  1.00  0.00    -0.028 C 
BRANCH  21  22
ATOM     22  C   UNL     1      75.036  84.351  64.676  1.00  0.00     0.005 C 
ATOM     23  C   UNL     1      75.939  84.951  63.563  1.00  0.00     0.012 C 
ATOM     24  C   UNL     1      75.744  83.167  65.384  1.00  0.00     0.012 C 
ENDBRANCH  21  22
ENDBRANCH  19  20
ENDBRANCH  18  19
ENDBRANCH  17  18
ENDBRANCH   1  17
TORSDOF 10
ENDMDL
