MODEL 1
REMARK VINA RESULT:    -6.426      0.000      0.000
REMARK INTER + INTRA:         -12.102
REMARK INTER:                 -10.558
REMARK INTRA:                  -1.543
REMARK UNBOUND:                -1.543
REMARK SMILES CCCCC[C@H](O)CC(=O)CCc1ccc(O)c(OC)c1
REMARK SMILES IDX 8 1 6 2 7 3 5 5 4 6 3 7 2 8 1 9 9 10 10 11 11 12 12 13 13 14
REMARK SMILES IDX 21 15 14 16 18 17 15 18 16 19 19 20 20 21 17 22
REMARK H PARENT 7 4 17 23
REMARK Flexibility Score: inf
ROOT
ATOM      1  C   UNL     1      90.809  93.581  74.893  1.00  0.00     0.107 C 
ENDROOT
BRANCH   1   2
ATOM      2  C   UNL     1      89.942  93.087  73.731  1.00  0.00     0.121 C 
BRANCH   2   3
ATOM      3  O   UNL     1      89.376  94.199  73.043  1.00  0.00    -0.393 OA
ATOM      4  H   UNL     1      89.537  94.074  72.092  1.00  0.00     0.210 HD
ENDBRANCH   2   3
BRANCH   2   5
ATOM      5  C   UNL     1      90.716  92.217  72.733  1.00  0.00     0.032 C 
BRANCH   5   6
ATOM      6  C   UNL     1      90.671  90.730  73.108  1.00  0.00     0.003 C 
BRANCH   6   7
ATOM      7  C   UNL     1      89.464  89.993  72.519  1.00  0.00    -0.000 C 
BRANCH   7   8
ATOM      8  C   UNL     1      88.233  90.015  73.422  1.00  0.00    -0.003 C 
ATOM      9  C   UNL     1      87.075  90.749  72.762  1.00  0.00     0.004 C 
ENDBRANCH   7   8
ENDBRANCH   6   7
ENDBRANCH   5   6
ENDBRANCH   2   5
ENDBRANCH   1   2
BRANCH   1  10
ATOM     10  C   UNL     1      89.994  94.141  76.047  1.00  0.00     0.135 C 
ATOM     11  O   UNL     1      89.614  95.312  76.044  1.00  0.00    -0.300 OA
BRANCH  10  12
ATOM     12  C   UNL     1      89.642  93.172  77.166  1.00  0.00     0.080 C 
BRANCH  12  13
ATOM     13  C   UNL     1      90.803  92.270  77.586  1.00  0.00     0.043 C 
BRANCH  13  14
ATOM     14  C   UNL     1      90.401  90.823  77.745  1.00  0.00    -0.044 A 
ATOM     15  C   UNL     1      90.355  89.985  76.631  1.00  0.00     0.054 A 
ATOM     16  C   UNL     1      90.075  90.325  79.007  1.00  0.00     0.008 A 
ATOM     17  C   UNL     1      89.984  88.648  76.779  1.00  0.00     0.160 A 
ATOM     18  C   UNL     1      89.704  88.988  79.155  1.00  0.00     0.050 A 
ATOM     19  C   UNL     1      89.658  88.150  78.041  1.00  0.00     0.157 A 
BRANCH  17  20
ATOM     20  O   UNL     1      89.942  87.839  75.684  1.00  0.00    -0.493 OA
ATOM     21  C   UNL     1      91.184  87.545  75.048  1.00  0.00     0.278 C 
ENDBRANCH  17  20
BRANCH  19  22
ATOM     22  O   UNL     1      89.294  86.847  78.199  1.00  0.00    -0.504 OA
ATOM     23  H   UNL     1      89.810  86.459  78.926  1.00  0.00     0.293 HD
ENDBRANCH  19  22
ENDBRANCH  13  14
ENDBRANCH  12  13
ENDBRANCH  10  12
ENDBRANCH   1  10
TORSDOF 12
ENDMDL
MODEL 2
REMARK VINA RESULT:    -6.233     11.240     14.709
REMARK INTER + INTRA:         -11.785
REMARK INTER:                  -9.640
REMARK INTRA:                  -2.145
REMARK UNBOUND:                -1.543
REMARK SMILES CCCCC[C@H](O)CC(=O)CCc1ccc(O)c(OC)c1
REMARK SMILES IDX 8 1 6 2 7 3 5 5 4 6 3 7 2 8 1 9 9 10 10 11 11 12 12 13 13 14
REMARK SMILES IDX 21 15 14 16 18 17 15 18 16 19 19 20 20 21 17 22
REMARK H PARENT 7 4 17 23
REMARK Flexibility Score: inf
ROOT
ATOM      1  C   UNL     1      80.514  85.774  85.383  1.00  0.00     0.107 C 
ENDROOT
BRANCH   1   2
ATOM      2  C   UNL     1      81.732  85.765  86.310  1.00  0.00     0.121 C 
BRANCH   2   3
ATOM      3  O   UNL     1      82.895  86.152  85.583  1.00  0.00    -0.393 OA
ATOM      4  H   UNL     1      82.916  87.125  85.553  1.00  0.00     0.210 HD
ENDBRANCH   2   3
BRANCH   2   5
ATOM      5  C   UNL     1      81.567  86.683  87.527  1.00  0.00     0.032 C 
BRANCH   5   6
ATOM      6  C   UNL     1      80.095  86.865  87.917  1.00  0.00     0.003 C 
BRANCH   6   7
ATOM      7  C   UNL     1      79.880  87.002  89.428  1.00  0.00    -0.000 C 
BRANCH   7   8
ATOM      8  C   UNL     1      80.337  88.347  89.991  1.00  0.00    -0.003 C 
ATOM      9  C   UNL     1      81.177  88.166  91.246  1.00  0.00     0.004 C 
ENDBRANCH   7   8
ENDBRANCH   6   7
ENDBRANCH   5   6
ENDBRANCH   2   5
ENDBRANCH   1   2
BRANCH   1  10
ATOM     10  C   UNL     1      80.621  86.804  84.269  1.00  0.00     0.135 C 
ATOM     11  O   UNL     1      81.279  86.573  83.255  1.00  0.00    -0.300 OA
BRANCH  10  12
ATOM     12  C   UNL     1      79.842  88.096  84.458  1.00  0.00     0.080 C 
BRANCH  12  13
ATOM     13  C   UNL     1      80.665  89.356  84.184  1.00  0.00     0.043 C 
BRANCH  13  14
ATOM     14  C   UNL     1      81.630  89.687  85.297  1.00  0.00    -0.044 A 
ATOM     15  C   UNL     1      82.994  89.450  85.131  1.00  0.00     0.054 A 
ATOM     16  C   UNL     1      81.156  90.229  86.492  1.00  0.00     0.008 A 
ATOM     17  C   UNL     1      83.885  89.756  86.160  1.00  0.00     0.160 A 
ATOM     18  C   UNL     1      82.047  90.536  87.521  1.00  0.00     0.050 A 
ATOM     19  C   UNL     1      83.411  90.299  87.355  1.00  0.00     0.157 A 
BRANCH  17  20
ATOM     20  O   UNL     1      85.216  89.520  85.987  1.00  0.00    -0.493 OA
ATOM     21  C   UNL     1      85.937  90.442  85.172  1.00  0.00     0.278 C 
ENDBRANCH  17  20
BRANCH  19  22
ATOM     22  O   UNL     1      84.271  90.602  88.367  1.00  0.00    -0.504 OA
ATOM     23  H   UNL     1      83.807  90.510  89.216  1.00  0.00     0.293 HD
ENDBRANCH  19  22
ENDBRANCH  13  14
ENDBRANCH  12  13
ENDBRANCH  10  12
ENDBRANCH   1  10
TORSDOF 12
ENDMDL
MODEL 3
REMARK VINA RESULT:    -5.856      3.741      5.903
REMARK INTER + INTRA:         -11.166
REMARK INTER:                  -9.758
REMARK INTRA:                  -1.408
REMARK UNBOUND:                -1.543
REMARK SMILES CCCCC[C@H](O)CC(=O)CCc1ccc(O)c(OC)c1
REMARK SMILES IDX 8 1 6 2 7 3 5 5 4 6 3 7 2 8 1 9 9 10 10 11 11 12 12 13 13 14
REMARK SMILES IDX 21 15 14 16 18 17 15 18 16 19 19 20 20 21 17 22
REMARK H PARENT 7 4 17 23
REMARK Flexibility Score: inf
ROOT
ATOM      1  C   UNL     1      90.799  93.518  74.322  1.00  0.00     0.107 C 
ENDROOT
BRANCH   1   2
ATOM      2  C   UNL     1      89.609  93.020  73.498  1.00  0.00     0.121 C 
BRANCH   2   3
ATOM      3  O   UNL     1      89.238  94.008  72.539  1.00  0.00    -0.393 OA
ATOM      4  H   UNL     1      88.272  93.967  72.428  1.00  0.00     0.210 HD
ENDBRANCH   2   3
BRANCH   2   5
ATOM      5  C   UNL     1      89.891  91.697  72.776  1.00  0.00     0.032 C 
BRANCH   5   6
ATOM      6  C   UNL     1      89.902  90.505  73.741  1.00  0.00     0.003 C 
BRANCH   6   7
ATOM      7  C   UNL     1      88.676  90.456  74.659  1.00  0.00    -0.000 C 
BRANCH   7   8
ATOM      8  C   UNL     1      89.002  90.710  76.129  1.00  0.00    -0.003 C 
ATOM      9  C   UNL     1      90.230  89.927  76.568  1.00  0.00     0.004 C 
ENDBRANCH   7   8
ENDBRANCH   6   7
ENDBRANCH   5   6
ENDBRANCH   2   5
ENDBRANCH   1   2
BRANCH   1  10
ATOM     10  C   UNL     1      90.387  94.145  75.644  1.00  0.00     0.135 C 
ATOM     11  O   UNL     1      89.351  94.803  75.737  1.00  0.00    -0.300 OA
BRANCH  10  12
ATOM     12  C   UNL     1      91.291  93.876  76.837  1.00  0.00     0.080 C 
BRANCH  12  13
ATOM     13  C   UNL     1      92.460  92.940  76.525  1.00  0.00     0.043 C 
BRANCH  13  14
ATOM     14  C   UNL     1      93.800  93.635  76.558  1.00  0.00    -0.044 A 
ATOM     15  C   UNL     1      94.328  94.076  77.771  1.00  0.00     0.054 A 
ATOM     16  C   UNL     1      94.510  93.836  75.374  1.00  0.00     0.008 A 
ATOM     17  C   UNL     1      95.567  94.717  77.801  1.00  0.00     0.160 A 
ATOM     18  C   UNL     1      95.749  94.478  75.403  1.00  0.00     0.050 A 
ATOM     19  C   UNL     1      96.277  94.918  76.617  1.00  0.00     0.157 A 
BRANCH  17  20
ATOM     20  O   UNL     1      96.072  95.143  78.992  1.00  0.00    -0.493 OA
ATOM     21  C   UNL     1      95.837  94.315  80.130  1.00  0.00     0.278 C 
ENDBRANCH  17  20
BRANCH  19  22
ATOM     22  O   UNL     1      97.487  95.543  76.633  1.00  0.00    -0.504 OA
ATOM     23  H   UNL     1      98.190  94.872  76.601  1.00  0.00     0.293 HD
ENDBRANCH  19  22
ENDBRANCH  13  14
ENDBRANCH  12  13
ENDBRANCH  10  12
ENDBRANCH   1  10
TORSDOF 12
ENDMDL
MODEL 4
REMARK VINA RESULT:    -5.768      4.132      6.150
REMARK INTER + INTRA:         -11.021
REMARK INTER:                 -10.006
REMARK INTRA:                  -1.015
REMARK UNBOUND:                -1.543
REMARK SMILES CCCCC[C@H](O)CC(=O)CCc1ccc(O)c(OC)c1
REMARK SMILES IDX 8 1 6 2 7 3 5 5 4 6 3 7 2 8 1 9 9 10 10 11 11 12 12 13 13 14
REMARK SMILES IDX 21 15 14 16 18 17 15 18 16 19 19 20 20 21 17 22
REMARK H PARENT 7 4 17 23
REMARK Flexibility Score: inf
ROOT
ATOM      1  C   UNL     1      93.836  93.967  76.769  1.00  0.00     0.107 C 
ENDROOT
BRANCH   1   2
ATOM      2  C   UNL     1      95.367  93.964  76.810  1.00  0.00     0.121 C 
BRANCH   2   3
ATOM      3  O   UNL     1      95.884  93.757  75.497  1.00  0.00    -0.393 OA
ATOM      4  H   UNL     1      95.157  93.431  74.938  1.00  0.00     0.210 HD
ENDBRANCH   2   3
BRANCH   2   5
ATOM      5  C   UNL     1      95.954  95.257  77.386  1.00  0.00     0.032 C 
BRANCH   5   6
ATOM      6  C   UNL     1      96.583  95.039  78.768  1.00  0.00     0.003 C 
BRANCH   6   7
ATOM      7  C   UNL     1      96.987  96.343  79.463  1.00  0.00    -0.000 C 
BRANCH   7   8
ATOM      8  C   UNL     1      96.248  96.592  80.776  1.00  0.00    -0.003 C 
ATOM      9  C   UNL     1      95.294  95.452  81.099  1.00  0.00     0.004 C 
ENDBRANCH   7   8
ENDBRANCH   6   7
ENDBRANCH   5   6
ENDBRANCH   2   5
ENDBRANCH   1   2
BRANCH   1  10
ATOM     10  C   UNL     1      93.278  94.242  75.382  1.00  0.00     0.135 C 
ATOM     11  O   UNL     1      93.415  95.344  74.852  1.00  0.00    -0.300 OA
BRANCH  10  12
ATOM     12  C   UNL     1      92.592  93.079  74.681  1.00  0.00     0.080 C 
BRANCH  12  13
ATOM     13  C   UNL     1      91.091  92.988  74.966  1.00  0.00     0.043 C 
BRANCH  13  14
ATOM     14  C   UNL     1      90.747  91.936  75.994  1.00  0.00    -0.044 A 
ATOM     15  C   UNL     1      90.644  90.598  75.615  1.00  0.00     0.054 A 
ATOM     16  C   UNL     1      90.532  92.304  77.322  1.00  0.00     0.008 A 
ATOM     17  C   UNL     1      90.327  89.627  76.565  1.00  0.00     0.160 A 
ATOM     18  C   UNL     1      90.214  91.333  78.273  1.00  0.00     0.050 A 
ATOM     19  C   UNL     1      90.112  89.995  77.894  1.00  0.00     0.157 A 
BRANCH  17  20
ATOM     20  O   UNL     1      90.229  88.323  76.183  1.00  0.00    -0.493 OA
ATOM     21  C   UNL     1      89.363  88.032  75.088  1.00  0.00     0.278 C 
ENDBRANCH  17  20
BRANCH  19  22
ATOM     22  O   UNL     1      89.802  89.056  78.830  1.00  0.00    -0.504 OA
ATOM     23  H   UNL     1      90.609  88.813  79.315  1.00  0.00     0.293 HD
ENDBRANCH  19  22
ENDBRANCH  13  14
ENDBRANCH  12  13
ENDBRANCH  10  12
ENDBRANCH   1  10
TORSDOF 12
ENDMDL
MODEL 5
REMARK VINA RESULT:    -5.453      4.439      6.158
REMARK INTER + INTRA:         -10.504
REMARK INTER:                  -9.528
REMARK INTRA:                  -0.976
REMARK UNBOUND:                -1.543
REMARK SMILES CCCCC[C@H](O)CC(=O)CCc1ccc(O)c(OC)c1
REMARK SMILES IDX 8 1 6 2 7 3 5 5 4 6 3 7 2 8 1 9 9 10 10 11 11 12 12 13 13 14
REMARK SMILES IDX 21 15 14 16 18 17 15 18 16 19 19 20 20 21 17 22
REMARK H PARENT 7 4 17 23
REMARK Flexibility Score: inf
ROOT
ATOM      1  C   UNL     1      93.826  94.001  76.778  1.00  0.00     0.107 C 
ENDROOT
BRANCH   1   2
ATOM      2  C   UNL     1      95.326  93.699  76.758  1.00  0.00     0.121 C 
BRANCH   2   3
ATOM      3  O   UNL     1      95.807  93.726  75.417  1.00  0.00    -0.393 OA
ATOM      4  H   UNL     1      95.037  93.692  74.823  1.00  0.00     0.210 HD
ENDBRANCH   2   3
BRANCH   2   5
ATOM      5  C   UNL     1      96.147  94.676  77.609  1.00  0.00     0.032 C 
BRANCH   5   6
ATOM      6  C   UNL     1      96.763  95.798  76.765  1.00  0.00     0.003 C 
BRANCH   6   7
ATOM      7  C   UNL     1      98.294  95.830  76.824  1.00  0.00    -0.000 C 
BRANCH   7   8
ATOM      8  C   UNL     1      98.909  97.029  76.104  1.00  0.00    -0.003 C 
ATOM      9  C   UNL     1      98.588  97.008  74.618  1.00  0.00     0.004 C 
ENDBRANCH   7   8
ENDBRANCH   6   7
ENDBRANCH   5   6
ENDBRANCH   2   5
ENDBRANCH   1   2
BRANCH   1  10
ATOM     10  C   UNL     1      93.267  94.330  75.403  1.00  0.00     0.135 C 
ATOM     11  O   UNL     1      93.417  95.448  74.910  1.00  0.00    -0.300 OA
BRANCH  10  12
ATOM     12  C   UNL     1      92.562  93.202  74.666  1.00  0.00     0.080 C 
BRANCH  12  13
ATOM     13  C   UNL     1      91.067  93.105  74.975  1.00  0.00     0.043 C 
BRANCH  13  14
ATOM     14  C   UNL     1      90.745  92.062  76.019  1.00  0.00    -0.044 A 
ATOM     15  C   UNL     1      90.696  90.713  75.666  1.00  0.00     0.054 A 
ATOM     16  C   UNL     1      90.496  92.448  77.336  1.00  0.00     0.008 A 
ATOM     17  C   UNL     1      90.399  89.751  76.632  1.00  0.00     0.160 A 
ATOM     18  C   UNL     1      90.200  91.486  78.302  1.00  0.00     0.050 A 
ATOM     19  C   UNL     1      90.151  90.138  77.949  1.00  0.00     0.157 A 
BRANCH  17  20
ATOM     20  O   UNL     1      90.353  88.437  76.276  1.00  0.00    -0.493 OA
ATOM     21  C   UNL     1      89.510  88.092  75.178  1.00  0.00     0.278 C 
ENDBRANCH  17  20
BRANCH  19  22
ATOM     22  O   UNL     1      89.860  89.207  78.901  1.00  0.00    -0.504 OA
ATOM     23  H   UNL     1      90.668  89.003  79.402  1.00  0.00     0.293 HD
ENDBRANCH  19  22
ENDBRANCH  13  14
ENDBRANCH  12  13
ENDBRANCH  10  12
ENDBRANCH   1  10
TORSDOF 12
ENDMDL
MODEL 6
REMARK VINA RESULT:    -5.453     12.466     14.816
REMARK INTER + INTRA:         -10.502
REMARK INTER:                  -8.602
REMARK INTRA:                  -1.900
REMARK UNBOUND:                -1.543
REMARK SMILES CCCCC[C@H](O)CC(=O)CCc1ccc(O)c(OC)c1
REMARK SMILES IDX 8 1 6 2 7 3 5 5 4 6 3 7 2 8 1 9 9 10 10 11 11 12 12 13 13 14
REMARK SMILES IDX 21 15 14 16 18 17 15 18 16 19 19 20 20 21 17 22
REMARK H PARENT 7 4 17 23
REMARK Flexibility Score: inf
ROOT
ATOM      1  C   UNL     1      83.383  90.846  89.329  1.00  0.00     0.107 C 
ENDROOT
BRANCH   1   2
ATOM      2  C   UNL     1      82.169  89.954  89.600  1.00  0.00     0.121 C 
BRANCH   2   3
ATOM      3  O   UNL     1      82.096  89.646  90.990  1.00  0.00    -0.393 OA
ATOM      4  H   UNL     1      82.439  90.412  91.483  1.00  0.00     0.210 HD
ENDBRANCH   2   3
BRANCH   2   5
ATOM      5  C   UNL     1      80.847  90.588  89.153  1.00  0.00     0.032 C 
BRANCH   5   6
ATOM      6  C   UNL     1      80.065  89.678  88.197  1.00  0.00     0.003 C 
BRANCH   6   7
ATOM      7  C   UNL     1      80.547  88.224  88.214  1.00  0.00    -0.000 C 
BRANCH   7   8
ATOM      8  C   UNL     1      79.463  87.224  88.610  1.00  0.00    -0.003 C 
ATOM      9  C   UNL     1      79.789  86.547  89.932  1.00  0.00     0.004 C 
ENDBRANCH   7   8
ENDBRANCH   6   7
ENDBRANCH   5   6
ENDBRANCH   2   5
ENDBRANCH   1   2
BRANCH   1  10
ATOM     10  C   UNL     1      83.480  91.297  87.880  1.00  0.00     0.135 C 
ATOM     11  O   UNL     1      83.282  92.471  87.569  1.00  0.00    -0.300 OA
BRANCH  10  12
ATOM     12  C   UNL     1      83.874  90.239  86.862  1.00  0.00     0.080 C 
BRANCH  12  13
ATOM     13  C   UNL     1      83.217  90.428  85.493  1.00  0.00     0.043 C 
BRANCH  13  14
ATOM     14  C   UNL     1      82.230  89.336  85.154  1.00  0.00    -0.044 A 
ATOM     15  C   UNL     1      82.581  87.998  85.335  1.00  0.00     0.054 A 
ATOM     16  C   UNL     1      80.968  89.666  84.661  1.00  0.00     0.008 A 
ATOM     17  C   UNL     1      81.668  86.990  85.022  1.00  0.00     0.160 A 
ATOM     18  C   UNL     1      80.055  88.658  84.349  1.00  0.00     0.050 A 
ATOM     19  C   UNL     1      80.406  87.320  84.529  1.00  0.00     0.157 A 
BRANCH  17  20
ATOM     20  O   UNL     1      82.022  85.687  85.202  1.00  0.00    -0.493 OA
ATOM     21  C   UNL     1      82.517  85.321  86.489  1.00  0.00     0.278 C 
ENDBRANCH  17  20
BRANCH  19  22
ATOM     22  O   UNL     1      79.506  86.345  84.220  1.00  0.00    -0.504 OA
ATOM     23  H   UNL     1      79.474  85.702  84.950  1.00  0.00     0.293 HD
ENDBRANCH  19  22
ENDBRANCH  13  14
ENDBRANCH  12  13
ENDBRANCH  10  12
ENDBRANCH   1  10
TORSDOF 12
ENDMDL
MODEL 7
REMARK VINA RESULT:    -5.321     11.482     14.396
REMARK INTER + INTRA:         -10.286
REMARK INTER:                  -8.847
REMARK INTRA:                  -1.439
REMARK UNBOUND:                -1.543
REMARK SMILES CCCCC[C@H](O)CC(=O)CCc1ccc(O)c(OC)c1
REMARK SMILES IDX 8 1 6 2 7 3 5 5 4 6 3 7 2 8 1 9 9 10 10 11 11 12 12 13 13 14
REMARK SMILES IDX 21 15 14 16 18 17 15 18 16 19 19 20 20 21 17 22
REMARK H PARENT 7 4 17 23
REMARK Flexibility Score: inf
ROOT
ATOM      1  C   UNL     1      81.728  90.178  90.258  1.00  0.00     0.107 C 
ENDROOT
BRANCH   1   2
ATOM      2  C   UNL     1      83.051  89.686  89.666  1.00  0.00     0.121 C 
BRANCH   2   3
ATOM      3  O   UNL     1      82.856  88.424  89.031  1.00  0.00    -0.393 OA
ATOM      4  H   UNL     1      82.050  88.025  89.402  1.00  0.00     0.210 HD
ENDBRANCH   2   3
BRANCH   2   5
ATOM      5  C   UNL     1      83.660  90.668  88.659  1.00  0.00     0.032 C 
BRANCH   5   6
ATOM      6  C   UNL     1      84.084  89.973  87.359  1.00  0.00     0.003 C 
BRANCH   6   7
ATOM      7  C   UNL     1      85.249  90.672  86.650  1.00  0.00    -0.000 C 
BRANCH   7   8
ATOM      8  C   UNL     1      85.166  90.605  85.126  1.00  0.00    -0.003 C 
ATOM      9  C   UNL     1      83.727  90.700  84.644  1.00  0.00     0.004 C 
ENDBRANCH   7   8
ENDBRANCH   6   7
ENDBRANCH   5   6
ENDBRANCH   2   5
ENDBRANCH   1   2
BRANCH   1  10
ATOM     10  C   UNL     1      80.836  90.864  89.235  1.00  0.00     0.135 C 
ATOM     11  O   UNL     1      80.732  92.090  89.207  1.00  0.00    -0.300 OA
BRANCH  10  12
ATOM     12  C   UNL     1      80.128  89.963  88.235  1.00  0.00     0.080 C 
BRANCH  12  13
ATOM     13  C   UNL     1      80.372  90.351  86.776  1.00  0.00     0.043 C 
BRANCH  13  14
ATOM     14  C   UNL     1      80.526  89.158  85.863  1.00  0.00    -0.044 A 
ATOM     15  C   UNL     1      80.860  87.912  86.394  1.00  0.00     0.054 A 
ATOM     16  C   UNL     1      80.335  89.303  84.489  1.00  0.00     0.008 A 
ATOM     17  C   UNL     1      81.001  86.810  85.550  1.00  0.00     0.160 A 
ATOM     18  C   UNL     1      80.476  88.201  83.645  1.00  0.00     0.050 A 
ATOM     19  C   UNL     1      80.809  86.955  84.176  1.00  0.00     0.157 A 
BRANCH  17  20
ATOM     20  O   UNL     1      81.327  85.598  86.080  1.00  0.00    -0.493 OA
ATOM     21  C   UNL     1      82.700  85.379  86.399  1.00  0.00     0.278 C 
ENDBRANCH  17  20
BRANCH  19  22
ATOM     22  O   UNL     1      80.945  85.887  83.342  1.00  0.00    -0.504 OA
ATOM     23  H   UNL     1      80.921  85.069  83.868  1.00  0.00     0.293 HD
ENDBRANCH  19  22
ENDBRANCH  13  14
ENDBRANCH  12  13
ENDBRANCH  10  12
ENDBRANCH   1  10
TORSDOF 12
ENDMDL
MODEL 8
REMARK VINA RESULT:    -5.261     11.610     14.409
REMARK INTER + INTRA:         -10.188
REMARK INTER:                  -8.424
REMARK INTRA:                  -1.763
REMARK UNBOUND:                -1.543
REMARK SMILES CCCCC[C@H](O)CC(=O)CCc1ccc(O)c(OC)c1
REMARK SMILES IDX 8 1 6 2 7 3 5 5 4 6 3 7 2 8 1 9 9 10 10 11 11 12 12 13 13 14
REMARK SMILES IDX 21 15 14 16 18 17 15 18 16 19 19 20 20 21 17 22
REMARK H PARENT 7 4 17 23
REMARK Flexibility Score: inf
ROOT
ATOM      1  C   UNL     1      81.341  89.355  84.313  1.00  0.00     0.107 C 
ENDROOT
BRANCH   1   2
ATOM      2  C   UNL     1      80.452  89.973  85.394  1.00  0.00     0.121 C 
BRANCH   2   3
ATOM      3  O   UNL     1      79.080  89.739  85.083  1.00  0.00    -0.393 OA
ATOM      4  H   UNL     1      78.633  89.460  85.902  1.00  0.00     0.210 HD
ENDBRANCH   2   3
BRANCH   2   5
ATOM      5  C   UNL     1      80.751  89.433  86.798  1.00  0.00     0.032 C 
BRANCH   5   6
ATOM      6  C   UNL     1      80.208  88.013  86.997  1.00  0.00     0.003 C 
BRANCH   6   7
ATOM      7  C   UNL     1      81.260  87.029  87.521  1.00  0.00    -0.000 C 
BRANCH   7   8
ATOM      8  C   UNL     1      81.608  85.920  86.530  1.00  0.00    -0.003 C 
ATOM      9  C   UNL     1      80.587  85.841  85.405  1.00  0.00     0.004 C 
ENDBRANCH   7   8
ENDBRANCH   6   7
ENDBRANCH   5   6
ENDBRANCH   2   5
ENDBRANCH   1   2
BRANCH   1  10
ATOM     10  C   UNL     1      82.819  89.381  84.670  1.00  0.00     0.135 C 
ATOM     11  O   UNL     1      83.433  88.340  84.900  1.00  0.00    -0.300 OA
BRANCH  10  12
ATOM     12  C   UNL     1      83.494  90.745  84.681  1.00  0.00     0.080 C 
BRANCH  12  13
ATOM     13  C   UNL     1      84.582  90.883  85.747  1.00  0.00     0.043 C 
BRANCH  13  14
ATOM     14  C   UNL     1      84.028  91.093  87.136  1.00  0.00    -0.044 A 
ATOM     15  C   UNL     1      83.552  92.349  87.514  1.00  0.00     0.054 A 
ATOM     16  C   UNL     1      83.991  90.031  88.040  1.00  0.00     0.008 A 
ATOM     17  C   UNL     1      83.039  92.541  88.797  1.00  0.00     0.160 A 
ATOM     18  C   UNL     1      83.479  90.224  89.322  1.00  0.00     0.050 A 
ATOM     19  C   UNL     1      83.003  91.479  89.701  1.00  0.00     0.157 A 
BRANCH  17  20
ATOM     20  O   UNL     1      82.578  93.772  89.156  1.00  0.00    -0.493 OA
ATOM     21  C   UNL     1      82.620  94.795  88.163  1.00  0.00     0.278 C 
ENDBRANCH  17  20
BRANCH  19  22
ATOM     22  O   UNL     1      82.504  91.655  90.957  1.00  0.00    -0.504 OA
ATOM     23  H   UNL     1      81.913  90.913  91.170  1.00  0.00     0.293 HD
ENDBRANCH  19  22
ENDBRANCH  13  14
ENDBRANCH  12  13
ENDBRANCH  10  12
ENDBRANCH   1  10
TORSDOF 12
ENDMDL
MODEL 9
REMARK VINA RESULT:    -5.244     11.662     15.252
REMARK INTER + INTRA:         -10.160
REMARK INTER:                  -9.191
REMARK INTRA:                  -0.969
REMARK UNBOUND:                -1.543
REMARK SMILES CCCCC[C@H](O)CC(=O)CCc1ccc(O)c(OC)c1
REMARK SMILES IDX 8 1 6 2 7 3 5 5 4 6 3 7 2 8 1 9 9 10 10 11 11 12 12 13 13 14
REMARK SMILES IDX 21 15 14 16 18 17 15 18 16 19 19 20 20 21 17 22
REMARK H PARENT 7 4 17 23
REMARK Flexibility Score: inf
ROOT
ATOM      1  C   UNL     1      82.064  86.737  85.788  1.00  0.00     0.107 C 
ENDROOT
BRANCH   1   2
ATOM      2  C   UNL     1      81.723  85.877  87.007  1.00  0.00     0.121 C 
BRANCH   2   3
ATOM      3  O   UNL     1      82.827  85.032  87.327  1.00  0.00    -0.393 OA
ATOM      4  H   UNL     1      82.792  84.260  86.736  1.00  0.00     0.210 HD
ENDBRANCH   2   3
BRANCH   2   5
ATOM      5  C   UNL     1      81.348  86.707  88.241  1.00  0.00     0.032 C 
BRANCH   5   6
ATOM      6  C   UNL     1      79.850  86.623  88.559  1.00  0.00     0.003 C 
BRANCH   6   7
ATOM      7  C   UNL     1      79.463  87.347  89.852  1.00  0.00    -0.000 C 
BRANCH   7   8
ATOM      8  C   UNL     1      79.136  86.404  91.008  1.00  0.00    -0.003 C 
ATOM      9  C   UNL     1      79.768  86.879  92.307  1.00  0.00     0.004 C 
ENDBRANCH   7   8
ENDBRANCH   6   7
ENDBRANCH   5   6
ENDBRANCH   2   5
ENDBRANCH   1   2
BRANCH   1  10
ATOM     10  C   UNL     1      80.833  87.245  85.054  1.00  0.00     0.135 C 
ATOM     11  O   UNL     1      80.279  86.558  84.196  1.00  0.00    -0.300 OA
BRANCH  10  12
ATOM     12  C   UNL     1      80.308  88.611  85.469  1.00  0.00     0.080 C 
BRANCH  12  13
ATOM     13  C   UNL     1      80.943  89.772  84.703  1.00  0.00     0.043 C 
BRANCH  13  14
ATOM     14  C   UNL     1      82.300  90.163  85.240  1.00  0.00    -0.044 A 
ATOM     15  C   UNL     1      82.508  90.248  86.616  1.00  0.00     0.054 A 
ATOM     16  C   UNL     1      83.345  90.438  84.358  1.00  0.00     0.008 A 
ATOM     17  C   UNL     1      83.762  90.608  87.111  1.00  0.00     0.160 A 
ATOM     18  C   UNL     1      84.599  90.798  84.852  1.00  0.00     0.050 A 
ATOM     19  C   UNL     1      84.807  90.883  86.229  1.00  0.00     0.157 A 
BRANCH  17  20
ATOM     20  O   UNL     1      83.953  90.688  88.457  1.00  0.00    -0.493 OA
ATOM     21  C   UNL     1      83.144  89.847  89.278  1.00  0.00     0.278 C 
ENDBRANCH  17  20
BRANCH  19  22
ATOM     22  O   UNL     1      86.036  91.235  86.699  1.00  0.00    -0.504 OA
ATOM     23  H   UNL     1      85.926  91.870  87.428  1.00  0.00     0.293 HD
ENDBRANCH  19  22
ENDBRANCH  13  14
ENDBRANCH  12  13
ENDBRANCH  10  12
ENDBRANCH   1  10
TORSDOF 12
ENDMDL
MODEL 10
REMARK VINA RESULT:    -5.164     11.084     13.281
REMARK INTER + INTRA:         -10.028
REMARK INTER:                  -8.122
REMARK INTRA:                  -1.907
REMARK UNBOUND:                -1.543
REMARK SMILES CCCCC[C@H](O)CC(=O)CCc1ccc(O)c(OC)c1
REMARK SMILES IDX 8 1 6 2 7 3 5 5 4 6 3 7 2 8 1 9 9 10 10 11 11 12 12 13 13 14
REMARK SMILES IDX 21 15 14 16 18 17 15 18 16 19 19 20 20 21 17 22
REMARK H PARENT 7 4 17 23
REMARK Flexibility Score: inf
ROOT
ATOM      1  C   UNL     1      98.148  82.207  75.410  1.00  0.00     0.107 C 
ENDROOT
BRANCH   1   2
ATOM      2  C   UNL     1      99.613  82.652  75.423  1.00  0.00     0.121 C 
BRANCH   2   3
ATOM      3  O   UNL     1      99.709  84.010  75.000  1.00  0.00    -0.393 OA
ATOM      4  H   UNL     1     100.153  84.511  75.707  1.00  0.00     0.210 HD
ENDBRANCH   2   3
BRANCH   2   5
ATOM      5  C   UNL     1     100.273  82.504  76.800  1.00  0.00     0.032 C 
BRANCH   5   6
ATOM      6  C   UNL     1     101.492  81.575  76.757  1.00  0.00     0.003 C 
BRANCH   6   7
ATOM      7  C   UNL     1     101.126  80.104  76.535  1.00  0.00    -0.000 C 
BRANCH   7   8
ATOM      8  C   UNL     1     100.346  79.485  77.694  1.00  0.00    -0.003 C 
ATOM      9  C   UNL     1      98.957  79.047  77.256  1.00  0.00     0.004 C 
ENDBRANCH   7   8
ENDBRANCH   6   7
ENDBRANCH   5   6
ENDBRANCH   2   5
ENDBRANCH   1   2
BRANCH   1  10
ATOM     10  C   UNL     1      97.315  82.869  76.495  1.00  0.00     0.135 C 
ATOM     11  O   UNL     1      97.130  84.086  76.498  1.00  0.00    -0.300 OA
BRANCH  10  12
ATOM     12  C   UNL     1      96.694  81.949  77.535  1.00  0.00     0.080 C 
BRANCH  12  13
ATOM     13  C   UNL     1      96.226  82.675  78.798  1.00  0.00     0.043 C 
BRANCH  13  14
ATOM     14  C   UNL     1      97.117  82.422  79.991  1.00  0.00    -0.044 A 
ATOM     15  C   UNL     1      96.773  82.938  81.240  1.00  0.00     0.054 A 
ATOM     16  C   UNL     1      98.284  81.672  79.843  1.00  0.00     0.008 A 
ATOM     17  C   UNL     1      97.596  82.702  82.342  1.00  0.00     0.160 A 
ATOM     18  C   UNL     1      99.107  81.437  80.944  1.00  0.00     0.050 A 
ATOM     19  C   UNL     1      98.763  81.952  82.194  1.00  0.00     0.157 A 
BRANCH  17  20
ATOM     20  O   UNL     1      97.250  83.212  83.557  1.00  0.00    -0.493 OA
ATOM     21  C   UNL     1      97.028  84.619  83.631  1.00  0.00     0.278 C 
ENDBRANCH  17  20
BRANCH  19  22
ATOM     22  O   UNL     1      99.575  81.716  83.262  1.00  0.00    -0.504 OA
ATOM     23  H   UNL     1      99.526  80.773  83.494  1.00  0.00     0.293 HD
ENDBRANCH  19  22
ENDBRANCH  13  14
ENDBRANCH  12  13
ENDBRANCH  10  12
ENDBRANCH   1  10
TORSDOF 12
ENDMDL
