MODEL 1
REMARK VINA RESULT:    -7.294      0.000      0.000
REMARK INTER + INTRA:          -8.901
REMARK INTER:                  -8.573
REMARK INTRA:                  -0.328
REMARK UNBOUND:                -0.328
REMARK SMILES O=C(/C=C/C=C/c1ccc2c(c1)OCO2)N1CCCCC1
REMARK SMILES IDX 3 1 4 2 2 3 1 4 16 5 17 6 21 7 18 8 20 9 19 10 5 11 6 12
REMARK SMILES IDX 7 13 12 14 8 15 11 16 9 17 13 18 10 19 14 20 15 21
REMARK H PARENT
REMARK Flexibility Score: inf
ROOT
ATOM      1  C   UNL     1      96.130  81.831  82.689  1.00  0.00     0.071 C 
ATOM      2  C   UNL     1      97.074  81.796  81.750  1.00  0.00     0.006 C 
ENDROOT
BRANCH   1   3
ATOM      3  C   UNL     1      96.508  81.460  84.067  1.00  0.00     0.246 C 
ATOM      4  O   UNL     1      97.710  81.376  84.325  1.00  0.00    -0.270 OA
ATOM      5  N   UNL     1      95.482  81.225  84.981  1.00  0.00    -0.339 N 
ATOM      6  C   UNL     1      95.827  80.850  86.356  1.00  0.00     0.120 C 
ATOM      7  C   UNL     1      94.040  81.272  84.700  1.00  0.00     0.120 C 
ATOM      8  C   UNL     1      95.135  81.755  87.371  1.00  0.00     0.022 C 
ATOM      9  C   UNL     1      93.310  82.168  85.700  1.00  0.00     0.022 C 
ATOM     10  C   UNL     1      93.628  81.781  87.141  1.00  0.00     0.004 C 
ENDBRANCH   1   3
BRANCH   2  11
ATOM     11  C   UNL     1      96.800  82.142  80.371  1.00  0.00     0.001 C 
ATOM     12  C   UNL     1      97.543  81.691  79.348  1.00  0.00     0.008 C 
BRANCH  12  13
ATOM     13  C   UNL     1      97.314  82.018  77.930  1.00  0.00    -0.022 A 
ATOM     14  C   UNL     1      98.321  81.765  77.008  1.00  0.00     0.058 A 
ATOM     15  C   UNL     1      96.089  82.573  77.552  1.00  0.00     0.012 A 
ATOM     16  C   UNL     1      98.059  82.087  75.692  1.00  0.00     0.166 A 
ATOM     17  C   UNL     1      95.852  82.890  76.213  1.00  0.00     0.051 A 
ATOM     18  O   UNL     1      98.912  81.918  74.644  1.00  0.00    -0.454 OA
ATOM     19  C   UNL     1      96.858  82.635  75.304  1.00  0.00     0.165 A 
ATOM     20  C   UNL     1      98.112  82.421  73.555  1.00  0.00     0.468 C 
ATOM     21  O   UNL     1      96.807  82.877  73.966  1.00  0.00    -0.454 OA
ENDBRANCH  12  13
ENDBRANCH   2  11
TORSDOF 3
ENDMDL
MODEL 2
REMARK VINA RESULT:    -7.123      2.792      9.573
REMARK INTER + INTRA:          -8.700
REMARK INTER:                  -8.356
REMARK INTRA:                  -0.344
REMARK UNBOUND:                -0.328
REMARK SMILES O=C(/C=C/C=C/c1ccc2c(c1)OCO2)N1CCCCC1
REMARK SMILES IDX 3 1 4 2 2 3 1 4 16 5 17 6 21 7 18 8 20 9 19 10 5 11 6 12
REMARK SMILES IDX 7 13 12 14 8 15 11 16 9 17 13 18 10 19 14 20 15 21
REMARK H PARENT
REMARK Flexibility Score: inf
ROOT
ATOM      1  C   UNL     1      96.435  81.866  77.103  1.00  0.00     0.071 C 
ATOM      2  C   UNL     1      97.097  82.276  78.183  1.00  0.00     0.006 C 
ENDROOT
BRANCH   1   3
ATOM      3  C   UNL     1      96.570  82.657  75.863  1.00  0.00     0.246 C 
ATOM      4  O   UNL     1      95.767  83.574  75.683  1.00  0.00    -0.270 OA
ATOM      5  N   UNL     1      97.591  82.310  74.979  1.00  0.00    -0.339 N 
ATOM      6  C   UNL     1      97.746  83.074  73.738  1.00  0.00     0.120 C 
ATOM      7  C   UNL     1      98.537  81.197  75.139  1.00  0.00     0.120 C 
ATOM      8  C   UNL     1      99.173  83.587  73.574  1.00  0.00     0.022 C 
ATOM      9  C   UNL     1      99.981  81.671  74.977  1.00  0.00     0.022 C 
ATOM     10  C   UNL     1     100.179  82.445  73.677  1.00  0.00     0.004 C 
ENDBRANCH   1   3
BRANCH   2  11
ATOM     11  C   UNL     1      97.027  81.568  79.443  1.00  0.00     0.001 C 
ATOM     12  C   UNL     1      96.645  82.157  80.587  1.00  0.00     0.008 C 
BRANCH  12  13
ATOM     13  C   UNL     1      96.564  81.487  81.896  1.00  0.00    -0.022 A 
ATOM     14  C   UNL     1      96.459  82.259  83.045  1.00  0.00     0.058 A 
ATOM     15  C   UNL     1      96.595  80.091  81.946  1.00  0.00     0.012 A 
ATOM     16  C   UNL     1      96.386  81.586  84.247  1.00  0.00     0.166 A 
ATOM     17  C   UNL     1      96.519  79.435  83.177  1.00  0.00     0.051 A 
ATOM     18  O   UNL     1      96.282  82.159  85.478  1.00  0.00    -0.454 OA
ATOM     19  C   UNL     1      96.416  80.212  84.312  1.00  0.00     0.165 A 
ATOM     20  C   UNL     1      96.249  80.991  86.323  1.00  0.00     0.468 C 
ATOM     21  O   UNL     1      96.333  79.752  85.590  1.00  0.00    -0.454 OA
ENDBRANCH  12  13
ENDBRANCH   2  11
TORSDOF 3
ENDMDL
MODEL 3
REMARK VINA RESULT:    -6.985      2.793      9.169
REMARK INTER + INTRA:          -8.538
REMARK INTER:                  -8.330
REMARK INTRA:                  -0.209
REMARK UNBOUND:                -0.328
REMARK SMILES O=C(/C=C/C=C/c1ccc2c(c1)OCO2)N1CCCCC1
REMARK SMILES IDX 3 1 4 2 2 3 1 4 16 5 17 6 21 7 18 8 20 9 19 10 5 11 6 12
REMARK SMILES IDX 7 13 12 14 8 15 11 16 9 17 13 18 10 19 14 20 15 21
REMARK H PARENT
REMARK Flexibility Score: inf
ROOT
ATOM      1  C   UNL     1      97.453  80.432  78.390  1.00  0.00     0.071 C 
ATOM      2  C   UNL     1      97.885  81.173  79.409  1.00  0.00     0.006 C 
ENDROOT
BRANCH   1   3
ATOM      3  C   UNL     1      98.176  80.527  77.106  1.00  0.00     0.246 C 
ATOM      4  O   UNL     1      98.986  79.638  76.842  1.00  0.00    -0.270 OA
ATOM      5  N   UNL     1      97.897  81.617  76.282  1.00  0.00    -0.339 N 
ATOM      6  C   UNL     1      98.604  81.740  75.004  1.00  0.00     0.120 C 
ATOM      7  C   UNL     1      96.972  82.719  76.583  1.00  0.00     0.120 C 
ATOM      8  C   UNL     1      97.630  81.922  73.845  1.00  0.00     0.022 C 
ATOM      9  C   UNL     1      95.980  82.936  75.441  1.00  0.00     0.022 C 
ATOM     10  C   UNL     1      96.690  83.096  74.099  1.00  0.00     0.004 C 
ENDBRANCH   1   3
BRANCH   2  11
ATOM     11  C   UNL     1      97.243  81.148  80.705  1.00  0.00     0.001 C 
ATOM     12  C   UNL     1      96.806  82.259  81.321  1.00  0.00     0.008 C 
BRANCH  12  13
ATOM     13  C   UNL     1      96.154  82.292  82.641  1.00  0.00    -0.022 A 
ATOM     14  C   UNL     1      95.996  83.511  83.286  1.00  0.00     0.058 A 
ATOM     15  C   UNL     1      95.712  81.094  83.208  1.00  0.00     0.012 A 
ATOM     16  C   UNL     1      95.379  83.491  84.520  1.00  0.00     0.166 A 
ATOM     17  C   UNL     1      95.091  81.103  84.459  1.00  0.00     0.051 A 
ATOM     18  O   UNL     1      95.134  84.574  85.307  1.00  0.00    -0.454 OA
ATOM     19  C   UNL     1      94.938  82.319  85.091  1.00  0.00     0.165 A 
ATOM     20  C   UNL     1      94.489  83.953  86.437  1.00  0.00     0.468 C 
ATOM     21  O   UNL     1      94.362  82.522  86.307  1.00  0.00    -0.454 OA
ENDBRANCH  12  13
ENDBRANCH   2  11
TORSDOF 3
ENDMDL
MODEL 4
REMARK VINA RESULT:    -6.881      1.866      3.050
REMARK INTER + INTRA:          -8.416
REMARK INTER:                  -8.033
REMARK INTRA:                  -0.383
REMARK UNBOUND:                -0.328
REMARK SMILES O=C(/C=C/C=C/c1ccc2c(c1)OCO2)N1CCCCC1
REMARK SMILES IDX 3 1 4 2 2 3 1 4 16 5 17 6 21 7 18 8 20 9 19 10 5 11 6 12
REMARK SMILES IDX 7 13 12 14 8 15 11 16 9 17 13 18 10 19 14 20 15 21
REMARK H PARENT
REMARK Flexibility Score: inf
ROOT
ATOM      1  C   UNL     1      95.193  82.072  84.128  1.00  0.00     0.071 C 
ATOM      2  C   UNL     1      95.903  83.026  83.528  1.00  0.00     0.006 C 
ENDROOT
BRANCH   1   3
ATOM      3  C   UNL     1      94.631  82.361  85.463  1.00  0.00     0.246 C 
ATOM      4  O   UNL     1      95.314  83.034  86.234  1.00  0.00    -0.270 OA
ATOM      5  N   UNL     1      93.369  81.848  85.761  1.00  0.00    -0.339 N 
ATOM      6  C   UNL     1      92.787  82.113  87.080  1.00  0.00     0.120 C 
ATOM      7  C   UNL     1      92.545  81.003  84.883  1.00  0.00     0.120 C 
ATOM      8  C   UNL     1      91.388  82.709  86.962  1.00  0.00     0.022 C 
ATOM      9  C   UNL     1      91.131  81.567  84.742  1.00  0.00     0.022 C 
ATOM     10  C   UNL     1      90.489  81.826  86.102  1.00  0.00     0.004 C 
ENDBRANCH   1   3
BRANCH   2  11
ATOM     11  C   UNL     1      96.494  82.837  82.220  1.00  0.00     0.001 C 
ATOM     12  C   UNL     1      96.783  81.624  81.722  1.00  0.00     0.008 C 
BRANCH  12  13
ATOM     13  C   UNL     1      97.392  81.376  80.404  1.00  0.00    -0.022 A 
ATOM     14  C   UNL     1      97.042  82.189  79.335  1.00  0.00     0.058 A 
ATOM     15  C   UNL     1      98.304  80.327  80.266  1.00  0.00     0.012 A 
ATOM     16  C   UNL     1      97.639  81.918  78.120  1.00  0.00     0.166 A 
ATOM     17  C   UNL     1      98.893  80.074  79.025  1.00  0.00     0.051 A 
ATOM     18  O   UNL     1      97.429  82.596  76.959  1.00  0.00    -0.454 OA
ATOM     19  C   UNL     1      98.540  80.889  77.969  1.00  0.00     0.165 A 
ATOM     20  C   UNL     1      98.298  81.878  76.060  1.00  0.00     0.468 C 
ATOM     21  O   UNL     1      99.006  80.793  76.694  1.00  0.00    -0.454 OA
ENDBRANCH  12  13
ENDBRANCH   2  11
TORSDOF 3
ENDMDL
MODEL 5
REMARK VINA RESULT:    -6.639     14.218     17.269
REMARK INTER + INTRA:          -8.132
REMARK INTER:                  -7.914
REMARK INTRA:                  -0.218
REMARK UNBOUND:                -0.328
REMARK SMILES O=C(/C=C/C=C/c1ccc2c(c1)OCO2)N1CCCCC1
REMARK SMILES IDX 3 1 4 2 2 3 1 4 16 5 17 6 21 7 18 8 20 9 19 10 5 11 6 12
REMARK SMILES IDX 7 13 12 14 8 15 11 16 9 17 13 18 10 19 14 20 15 21
REMARK H PARENT
REMARK Flexibility Score: inf
ROOT
ATOM      1  C   UNL     1      95.712  96.471  73.624  1.00  0.00     0.071 C 
ATOM      2  C   UNL     1      94.533  95.966  73.981  1.00  0.00     0.006 C 
ENDROOT
BRANCH   1   3
ATOM      3  C   UNL     1      95.808  97.154  72.319  1.00  0.00     0.246 C 
ATOM      4  O   UNL     1      96.437  96.588  71.425  1.00  0.00    -0.270 OA
ATOM      5  N   UNL     1      95.187  98.395  72.189  1.00  0.00    -0.339 N 
ATOM      6  C   UNL     1      95.270  99.101  70.906  1.00  0.00     0.120 C 
ATOM      7  C   UNL     1      94.468  99.123  73.245  1.00  0.00     0.120 C 
ATOM      8  C   UNL     1      93.889  99.504  70.402  1.00  0.00     0.022 C 
ATOM      9  C   UNL     1      93.076  99.547  72.775  1.00  0.00     0.022 C 
ATOM     10  C   UNL     1      93.135 100.310  71.455  1.00  0.00     0.004 C 
ENDBRANCH   1   3
BRANCH   2  11
ATOM     11  C   UNL     1      94.340  95.278  75.240  1.00  0.00     0.001 C 
ATOM     12  C   UNL     1      95.313  95.154  76.157  1.00  0.00     0.008 C 
BRANCH  12  13
ATOM     13  C   UNL     1      95.173  94.459  77.448  1.00  0.00    -0.022 A 
ATOM     14  C   UNL     1      96.234  94.479  78.344  1.00  0.00     0.058 A 
ATOM     15  C   UNL     1      93.976  93.798  77.736  1.00  0.00     0.012 A 
ATOM     16  C   UNL     1      96.055  93.814  79.540  1.00  0.00     0.166 A 
ATOM     17  C   UNL     1      93.823  93.133  78.954  1.00  0.00     0.051 A 
ATOM     18  O   UNL     1      96.970  93.716  80.543  1.00  0.00    -0.454 OA
ATOM     19  C   UNL     1      94.882  93.159  79.837  1.00  0.00     0.165 A 
ATOM     20  C   UNL     1      96.241  92.927  81.505  1.00  0.00     0.468 C 
ATOM     21  O   UNL     1      94.915  92.570  81.064  1.00  0.00    -0.454 OA
ENDBRANCH  12  13
ENDBRANCH   2  11
TORSDOF 3
ENDMDL
MODEL 6
REMARK VINA RESULT:    -6.596     12.853     14.985
REMARK INTER + INTRA:          -8.080
REMARK INTER:                  -7.774
REMARK INTRA:                  -0.307
REMARK UNBOUND:                -0.328
REMARK SMILES O=C(/C=C/C=C/c1ccc2c(c1)OCO2)N1CCCCC1
REMARK SMILES IDX 3 1 4 2 2 3 1 4 16 5 17 6 21 7 18 8 20 9 19 10 5 11 6 12
REMARK SMILES IDX 7 13 12 14 8 15 11 16 9 17 13 18 10 19 14 20 15 21
REMARK H PARENT
REMARK Flexibility Score: inf
ROOT
ATOM      1  C   UNL     1      94.140  94.144  78.209  1.00  0.00     0.071 C 
ATOM      2  C   UNL     1      95.455  94.244  78.395  1.00  0.00     0.006 C 
ENDROOT
BRANCH   1   3
ATOM      3  C   UNL     1      93.658  93.695  76.887  1.00  0.00     0.246 C 
ATOM      4  O   UNL     1      94.487  93.599  75.982  1.00  0.00    -0.270 OA
ATOM      5  N   UNL     1      92.299  93.415  76.752  1.00  0.00    -0.339 N 
ATOM      6  C   UNL     1      91.790  92.972  75.450  1.00  0.00     0.120 C 
ATOM      7  C   UNL     1      91.274  93.560  77.796  1.00  0.00     0.120 C 
ATOM      8  C   UNL     1      90.998  91.675  75.574  1.00  0.00     0.022 C 
ATOM      9  C   UNL     1      90.453  92.280  77.948  1.00  0.00     0.022 C 
ATOM     10  C   UNL     1      89.887  91.811  76.611  1.00  0.00     0.004 C 
ENDBRANCH   1   3
BRANCH   2  11
ATOM     11  C   UNL     1      96.022  94.675  79.655  1.00  0.00     0.001 C 
ATOM     12  C   UNL     1      97.317  94.501  79.966  1.00  0.00     0.008 C 
BRANCH  12  13
ATOM     13  C   UNL     1      97.943  94.913  81.234  1.00  0.00    -0.022 A 
ATOM     14  C   UNL     1      97.650  96.165  81.757  1.00  0.00     0.058 A 
ATOM     15  C   UNL     1      98.817  94.031  81.876  1.00  0.00     0.012 A 
ATOM     16  C   UNL     1      98.261  96.505  82.947  1.00  0.00     0.166 A 
ATOM     17  C   UNL     1      99.421  94.401  83.079  1.00  0.00     0.051 A 
ATOM     18  O   UNL     1      98.105  97.680  83.616  1.00  0.00    -0.454 OA
ATOM     19  C   UNL     1      99.123  95.647  83.590  1.00  0.00     0.165 A 
ATOM     20  C   UNL     1      98.966  97.465  84.753  1.00  0.00     0.468 C 
ATOM     21  O   UNL     1      99.615  96.177  84.743  1.00  0.00    -0.454 OA
ENDBRANCH  12  13
ENDBRANCH   2  11
TORSDOF 3
ENDMDL
MODEL 7
REMARK VINA RESULT:    -6.461     12.559     13.908
REMARK INTER + INTRA:          -7.922
REMARK INTER:                  -7.603
REMARK INTRA:                  -0.319
REMARK UNBOUND:                -0.328
REMARK SMILES O=C(/C=C/C=C/c1ccc2c(c1)OCO2)N1CCCCC1
REMARK SMILES IDX 3 1 4 2 2 3 1 4 16 5 17 6 21 7 18 8 20 9 19 10 5 11 6 12
REMARK SMILES IDX 7 13 12 14 8 15 11 16 9 17 13 18 10 19 14 20 15 21
REMARK H PARENT
REMARK Flexibility Score: inf
ROOT
ATOM      1  C   UNL     1      96.696  93.730  79.618  1.00  0.00     0.071 C 
ATOM      2  C   UNL     1      95.427  94.129  79.692  1.00  0.00     0.006 C 
ENDROOT
BRANCH   1   3
ATOM      3  C   UNL     1      97.653  94.272  80.602  1.00  0.00     0.246 C 
ATOM      4  O   UNL     1      97.728  93.707  81.694  1.00  0.00    -0.270 OA
ATOM      5  N   UNL     1      98.404  95.387  80.233  1.00  0.00    -0.339 N 
ATOM      6  C   UNL     1      99.359  95.951  81.191  1.00  0.00     0.120 C 
ATOM      7  C   UNL     1      98.310  96.114  78.958  1.00  0.00     0.120 C 
ATOM      8  C   UNL     1     100.748  96.090  80.577  1.00  0.00     0.022 C 
ATOM      9  C   UNL     1      99.686  96.277  78.312  1.00  0.00     0.022 C 
ATOM     10  C   UNL     1     100.694  96.889  79.279  1.00  0.00     0.004 C 
ENDBRANCH   1   3
BRANCH   2  11
ATOM     11  C   UNL     1      94.416  93.654  78.772  1.00  0.00     0.001 C 
ATOM     12  C   UNL     1      93.451  94.448  78.280  1.00  0.00     0.008 C 
BRANCH  12  13
ATOM     13  C   UNL     1      92.395  94.015  77.349  1.00  0.00    -0.022 A 
ATOM     14  C   UNL     1      92.472  92.751  76.780  1.00  0.00     0.058 A 
ATOM     15  C   UNL     1      91.344  94.890  77.064  1.00  0.00     0.012 A 
ATOM     16  C   UNL     1      91.459  92.391  75.915  1.00  0.00     0.166 A 
ATOM     17  C   UNL     1      90.331  94.499  76.184  1.00  0.00     0.051 A 
ATOM     18  O   UNL     1      91.355  91.203  75.259  1.00  0.00    -0.454 OA
ATOM     19  C   UNL     1      90.417  93.242  75.625  1.00  0.00     0.165 A 
ATOM     20  C   UNL     1      90.130  91.402  74.524  1.00  0.00     0.468 C 
ATOM     21  O   UNL     1      89.530  92.693  74.751  1.00  0.00    -0.454 OA
ENDBRANCH  12  13
ENDBRANCH   2  11
TORSDOF 3
ENDMDL
MODEL 8
REMARK VINA RESULT:    -6.407      4.513      6.727
REMARK INTER + INTRA:          -7.859
REMARK INTER:                  -7.518
REMARK INTRA:                  -0.340
REMARK UNBOUND:                -0.328
REMARK SMILES O=C(/C=C/C=C/c1ccc2c(c1)OCO2)N1CCCCC1
REMARK SMILES IDX 3 1 4 2 2 3 1 4 16 5 17 6 21 7 18 8 20 9 19 10 5 11 6 12
REMARK SMILES IDX 7 13 12 14 8 15 11 16 9 17 13 18 10 19 14 20 15 21
REMARK H PARENT
REMARK Flexibility Score: inf
ROOT
ATOM      1  C   UNL     1      95.183  84.923  87.289  1.00  0.00     0.071 C 
ATOM      2  C   UNL     1      94.562  84.780  86.119  1.00  0.00     0.006 C 
ENDROOT
BRANCH   1   3
ATOM      3  C   UNL     1      94.487  85.664  88.359  1.00  0.00     0.246 C 
ATOM      4  O   UNL     1      93.532  85.111  88.906  1.00  0.00    -0.270 OA
ATOM      5  N   UNL     1      94.952  86.940  88.674  1.00  0.00    -0.339 N 
ATOM      6  C   UNL     1      94.277  87.702  89.729  1.00  0.00     0.120 C 
ATOM      7  C   UNL     1      96.058  87.649  88.014  1.00  0.00     0.120 C 
ATOM      8  C   UNL     1      95.267  88.198  90.778  1.00  0.00     0.022 C 
ATOM      9  C   UNL     1      97.072  88.166  89.035  1.00  0.00     0.022 C 
ATOM     10  C   UNL     1      96.400  88.989  90.131  1.00  0.00     0.004 C 
ENDBRANCH   1   3
BRANCH   2  11
ATOM     11  C   UNL     1      95.164  84.070  85.010  1.00  0.00     0.001 C 
ATOM     12  C   UNL     1      94.984  82.755  84.806  1.00  0.00     0.008 C 
BRANCH  12  13
ATOM     13  C   UNL     1      95.578  81.983  83.702  1.00  0.00    -0.022 A 
ATOM     14  C   UNL     1      96.073  82.659  82.595  1.00  0.00     0.058 A 
ATOM     15  C   UNL     1      95.626  80.590  83.798  1.00  0.00     0.012 A 
ATOM     16  C   UNL     1      96.620  81.893  81.586  1.00  0.00     0.166 A 
ATOM     17  C   UNL     1      96.185  79.839  82.762  1.00  0.00     0.051 A 
ATOM     18  O   UNL     1      97.154  82.364  80.426  1.00  0.00    -0.454 OA
ATOM     19  C   UNL     1      96.675  80.520  81.667  1.00  0.00     0.165 A 
ATOM     20  C   UNL     1      97.551  81.134  79.786  1.00  0.00     0.468 C 
ATOM     21  O   UNL     1      97.250  79.960  80.568  1.00  0.00    -0.454 OA
ENDBRANCH  12  13
ENDBRANCH   2  11
TORSDOF 3
ENDMDL
MODEL 9
REMARK VINA RESULT:    -6.392     17.536     20.784
REMARK INTER + INTRA:          -7.841
REMARK INTER:                  -7.456
REMARK INTRA:                  -0.384
REMARK UNBOUND:                -0.328
REMARK SMILES O=C(/C=C/C=C/c1ccc2c(c1)OCO2)N1CCCCC1
REMARK SMILES IDX 3 1 4 2 2 3 1 4 16 5 17 6 21 7 18 8 20 9 19 10 5 11 6 12
REMARK SMILES IDX 7 13 12 14 8 15 11 16 9 17 13 18 10 19 14 20 15 21
REMARK H PARENT
REMARK Flexibility Score: inf
ROOT
ATOM      1  C   UNL     1      91.278  99.951  71.198  1.00  0.00     0.071 C 
ATOM      2  C   UNL     1      92.428 100.515  71.561  1.00  0.00     0.006 C 
ENDROOT
BRANCH   1   3
ATOM      3  C   UNL     1      90.475 100.619  70.154  1.00  0.00     0.246 C 
ATOM      4  O   UNL     1      90.523 101.848  70.099  1.00  0.00    -0.270 OA
ATOM      5  N   UNL     1      89.715  99.815  69.305  1.00  0.00    -0.339 N 
ATOM      6  C   UNL     1      88.904 100.450  68.262  1.00  0.00     0.120 C 
ATOM      7  C   UNL     1      89.598  98.351  69.369  1.00  0.00     0.120 C 
ATOM      8  C   UNL     1      89.194  99.853  66.890  1.00  0.00     0.022 C 
ATOM      9  C   UNL     1      89.879  97.714  68.008  1.00  0.00     0.022 C 
ATOM     10  C   UNL     1      89.026  98.337  66.907  1.00  0.00     0.004 C 
ENDBRANCH   1   3
BRANCH   2  11
ATOM     11  C   UNL     1      93.283  99.936  72.575  1.00  0.00     0.001 C 
ATOM     12  C   UNL     1      93.315  98.618  72.832  1.00  0.00     0.008 C 
BRANCH  12  13
ATOM     13  C   UNL     1      94.158  97.978  73.856  1.00  0.00    -0.022 A 
ATOM     14  C   UNL     1      95.393  98.535  74.159  1.00  0.00     0.058 A 
ATOM     15  C   UNL     1      93.692  96.826  74.495  1.00  0.00     0.012 A 
ATOM     16  C   UNL     1      96.146  97.900  75.125  1.00  0.00     0.166 A 
ATOM     17  C   UNL     1      94.475  96.203  75.469  1.00  0.00     0.051 A 
ATOM     18  O   UNL     1      97.377  98.287  75.560  1.00  0.00    -0.454 OA
ATOM     19  C   UNL     1      95.700  96.765  75.763  1.00  0.00     0.165 A 
ATOM     20  C   UNL     1      97.654  97.269  76.543  1.00  0.00     0.468 C 
ATOM     21  O   UNL     1      96.594  96.299  76.677  1.00  0.00    -0.454 OA
ENDBRANCH  12  13
ENDBRANCH   2  11
TORSDOF 3
ENDMDL
MODEL 10
REMARK VINA RESULT:    -6.277     18.100     19.632
REMARK INTER + INTRA:          -7.706
REMARK INTER:                  -7.329
REMARK INTRA:                  -0.377
REMARK UNBOUND:                -0.328
REMARK SMILES O=C(/C=C/C=C/c1ccc2c(c1)OCO2)N1CCCCC1
REMARK SMILES IDX 3 1 4 2 2 3 1 4 16 5 17 6 21 7 18 8 20 9 19 10 5 11 6 12
REMARK SMILES IDX 7 13 12 14 8 15 11 16 9 17 13 18 10 19 14 20 15 21
REMARK H PARENT
REMARK Flexibility Score: inf
ROOT
ATOM      1  C   UNL     1      84.805  68.849  71.586  1.00  0.00     0.071 C 
ATOM      2  C   UNL     1      84.978  70.156  71.771  1.00  0.00     0.006 C 
ENDROOT
BRANCH   1   3
ATOM      3  C   UNL     1      83.903  68.131  72.510  1.00  0.00     0.246 C 
ATOM      4  O   UNL     1      83.847  68.528  73.674  1.00  0.00    -0.270 OA
ATOM      5  N   UNL     1      83.182  67.050  72.004  1.00  0.00    -0.339 N 
ATOM      6  C   UNL     1      82.283  66.314  72.898  1.00  0.00     0.120 C 
ATOM      7  C   UNL     1      83.257  66.519  70.635  1.00  0.00     0.120 C 
ATOM      8  C   UNL     1      80.879  66.208  72.313  1.00  0.00     0.022 C 
ATOM      9  C   UNL     1      81.866  66.394  70.013  1.00  0.00     0.022 C 
ATOM     10  C   UNL     1      80.916  65.607  70.911  1.00  0.00     0.004 C 
ENDBRANCH   1   3
BRANCH   2  11
ATOM     11  C   UNL     1      85.842  70.945  70.918  1.00  0.00     0.001 C 
ATOM     12  C   UNL     1      87.037  70.508  70.491  1.00  0.00     0.008 C 
BRANCH  12  13
ATOM     13  C   UNL     1      87.957  71.271  69.631  1.00  0.00    -0.022 A 
ATOM     14  C   UNL     1      87.539  71.650  68.362  1.00  0.00     0.058 A 
ATOM     15  C   UNL     1      89.227  71.594  70.115  1.00  0.00     0.012 A 
ATOM     16  C   UNL     1      88.436  72.364  67.594  1.00  0.00     0.166 A 
ATOM     17  C   UNL     1      90.116  72.317  69.316  1.00  0.00     0.051 A 
ATOM     18  O   UNL     1      88.217  72.823  66.332  1.00  0.00    -0.454 OA
ATOM     19  C   UNL     1      89.690  72.689  68.058  1.00  0.00     0.165 A 
ATOM     20  C   UNL     1      89.474  73.473  66.053  1.00  0.00     0.468 C 
ATOM     21  O   UNL     1      90.413  73.392  67.145  1.00  0.00    -0.454 OA
ENDBRANCH  12  13
ENDBRANCH   2  11
TORSDOF 3
ENDMDL
