MODEL 1
REMARK VINA RESULT:    -6.679      0.000      0.000
REMARK INTER + INTRA:         -11.355
REMARK INTER:                 -10.778
REMARK INTRA:                  -0.577
REMARK UNBOUND:                -0.577
REMARK SMILES CCCCCCCCC(=O)NCc1ccc(O)c(OC)c1
REMARK SMILES IDX 7 1 6 2 5 3 4 4 3 5 2 6 1 7 8 8 9 9 10 10 11 11 12 13 13 14
REMARK SMILES IDX 21 15 14 16 18 17 15 18 16 19 19 20 20 21 17 22
REMARK H PARENT 11 12 17 23
REMARK Flexibility Score: inf
ROOT
ATOM      1  C   UNL     1      91.036  95.214  76.251  1.00  0.00     0.010 C 
ENDROOT
BRANCH   1   2
ATOM      2  C   UNL     1      89.824  94.341  75.813  1.00  0.00     0.001 C 
BRANCH   2   3
ATOM      3  C   UNL     1      90.032  93.707  74.407  1.00  0.00     0.000 C 
BRANCH   3   4
ATOM      4  C   UNL     1      90.688  92.297  74.446  1.00  0.00    -0.000 C 
BRANCH   4   5
ATOM      5  C   UNL     1      89.738  91.179  73.932  1.00  0.00    -0.000 C 
BRANCH   5   6
ATOM      6  C   UNL     1      89.212  90.271  75.077  1.00  0.00    -0.003 C 
ATOM      7  C   UNL     1      89.960  88.922  75.165  1.00  0.00     0.004 C 
ENDBRANCH   5   6
ENDBRANCH   4   5
ENDBRANCH   3   4
ENDBRANCH   2   3
ENDBRANCH   1   2
BRANCH   1   8
ATOM      8  C   UNL     1      91.640  94.808  77.624  1.00  0.00     0.100 C 
BRANCH   8   9
ATOM      9  C   UNL     1      93.122  94.799  77.580  1.00  0.00     0.220 C 
ATOM     10  O   UNL     1      93.686  95.020  76.481  1.00  0.00    -0.275 OA
ATOM     11  N   UNL     1      93.849  94.585  78.715  1.00  0.00    -0.352 N 
ATOM     12  H   UNL     1      93.298  94.332  79.522  1.00  0.00     0.163 HD
BRANCH  11  13
ATOM     13  C   UNL     1      95.272  94.691  78.830  1.00  0.00     0.151 C 
BRANCH  13  14
ATOM     14  C   UNL     1      95.727  95.911  79.549  1.00  0.00    -0.025 A 
ATOM     15  C   UNL     1      96.583  95.798  80.672  1.00  0.00     0.056 A 
ATOM     16  C   UNL     1      95.315  97.197  79.132  1.00  0.00     0.009 A 
ATOM     17  C   UNL     1      97.038  96.949  81.355  1.00  0.00     0.160 A 
ATOM     18  C   UNL     1      95.765  98.346  79.807  1.00  0.00     0.050 A 
ATOM     19  C   UNL     1      96.618  98.227  80.921  1.00  0.00     0.157 A 
BRANCH  17  20
ATOM     20  O   UNL     1      97.833  96.836  82.468  1.00  0.00    -0.493 OA
ATOM     21  C   UNL     1      98.083  95.480  82.876  1.00  0.00     0.278 C 
ENDBRANCH  17  20
BRANCH  19  22
ATOM     22  O   UNL     1      97.025  99.341  81.582  1.00  0.00    -0.504 OA
ATOM     23  H   UNL     1      96.300  99.680  82.113  1.00  0.00     0.293 HD
ENDBRANCH  19  22
ENDBRANCH  13  14
ENDBRANCH  11  13
ENDBRANCH   8   9
ENDBRANCH   1   8
TORSDOF 11
ENDMDL
MODEL 2
REMARK VINA RESULT:    -6.255     12.295     15.413
REMARK INTER + INTRA:         -10.672
REMARK INTER:                 -10.210
REMARK INTRA:                  -0.462
REMARK UNBOUND:                -0.577
REMARK SMILES CCCCCCCCC(=O)NCc1ccc(O)c(OC)c1
REMARK SMILES IDX 7 1 6 2 5 3 4 4 3 5 2 6 1 7 8 8 9 9 10 10 11 11 12 13 13 14
REMARK SMILES IDX 21 15 14 16 18 17 15 18 16 19 19 20 20 21 17 22
REMARK H PARENT 11 12 17 23
REMARK Flexibility Score: inf
ROOT
ATOM      1  C   UNL     1      96.999  82.196  82.447  1.00  0.00     0.010 C 
ENDROOT
BRANCH   1   2
ATOM      2  C   UNL     1      97.066  81.757  80.956  1.00  0.00     0.001 C 
BRANCH   2   3
ATOM      3  C   UNL     1      97.689  82.856  80.046  1.00  0.00     0.000 C 
BRANCH   3   4
ATOM      4  C   UNL     1      96.661  83.551  79.110  1.00  0.00    -0.000 C 
BRANCH   4   5
ATOM      5  C   UNL     1      96.819  83.124  77.623  1.00  0.00    -0.000 C 
BRANCH   5   6
ATOM      6  C   UNL     1      96.645  84.314  76.640  1.00  0.00    -0.003 C 
ATOM      7  C   UNL     1      97.551  84.201  75.394  1.00  0.00     0.004 C 
ENDBRANCH   5   6
ENDBRANCH   4   5
ENDBRANCH   3   4
ENDBRANCH   2   3
ENDBRANCH   1   2
BRANCH   1   8
ATOM      8  C   UNL     1      96.399  83.614  82.659  1.00  0.00     0.100 C 
BRANCH   8   9
ATOM      9  C   UNL     1      95.466  83.639  83.811  1.00  0.00     0.220 C 
ATOM     10  O   UNL     1      95.693  84.447  84.743  1.00  0.00    -0.275 OA
ATOM     11  N   UNL     1      94.373  82.822  83.837  1.00  0.00    -0.352 N 
ATOM     12  H   UNL     1      94.334  82.153  83.081  1.00  0.00     0.163 HD
BRANCH  11  13
ATOM     13  C   UNL     1      93.329  82.851  84.816  1.00  0.00     0.151 C 
BRANCH  13  14
ATOM     14  C   UNL     1      92.347  81.742  84.681  1.00  0.00    -0.025 A 
ATOM     15  C   UNL     1      90.972  82.027  84.499  1.00  0.00     0.056 A 
ATOM     16  C   UNL     1      92.763  80.392  84.736  1.00  0.00     0.009 A 
ATOM     17  C   UNL     1      90.029  80.984  84.353  1.00  0.00     0.160 A 
ATOM     18  C   UNL     1      91.830  79.350  84.589  1.00  0.00     0.050 A 
ATOM     19  C   UNL     1      90.464  79.640  84.406  1.00  0.00     0.157 A 
BRANCH  17  20
ATOM     20  O   UNL     1      88.692  81.261  84.219  1.00  0.00    -0.493 OA
ATOM     21  C   UNL     1      88.272  82.467  84.881  1.00  0.00     0.278 C 
ENDBRANCH  17  20
BRANCH  19  22
ATOM     22  O   UNL     1      89.568  78.627  84.293  1.00  0.00    -0.504 OA
ATOM     23  H   UNL     1      88.750  78.873  84.733  1.00  0.00     0.293 HD
ENDBRANCH  19  22
ENDBRANCH  13  14
ENDBRANCH  11  13
ENDBRANCH   8   9
ENDBRANCH   1   8
TORSDOF 11
ENDMDL
MODEL 3
REMARK VINA RESULT:    -5.989     12.550     14.730
REMARK INTER + INTRA:         -10.242
REMARK INTER:                  -9.488
REMARK INTRA:                  -0.754
REMARK UNBOUND:                -0.577
REMARK SMILES CCCCCCCCC(=O)NCc1ccc(O)c(OC)c1
REMARK SMILES IDX 7 1 6 2 5 3 4 4 3 5 2 6 1 7 8 8 9 9 10 10 11 11 12 13 13 14
REMARK SMILES IDX 21 15 14 16 18 17 15 18 16 19 19 20 20 21 17 22
REMARK H PARENT 11 12 17 23
REMARK Flexibility Score: inf
ROOT
ATOM      1  C   UNL     1      92.734  80.736  85.199  1.00  0.00     0.010 C 
ENDROOT
BRANCH   1   2
ATOM      2  C   UNL     1      91.485  80.164  84.467  1.00  0.00     0.001 C 
BRANCH   2   3
ATOM      3  C   UNL     1      90.604  81.285  83.843  1.00  0.00     0.000 C 
BRANCH   3   4
ATOM      4  C   UNL     1      89.076  81.049  84.013  1.00  0.00    -0.000 C 
BRANCH   4   5
ATOM      5  C   UNL     1      88.492  81.774  85.258  1.00  0.00    -0.000 C 
BRANCH   5   6
ATOM      6  C   UNL     1      87.885  83.160  84.911  1.00  0.00    -0.003 C 
ATOM      7  C   UNL     1      86.937  83.112  83.691  1.00  0.00     0.004 C 
ENDBRANCH   5   6
ENDBRANCH   4   5
ENDBRANCH   3   4
ENDBRANCH   2   3
ENDBRANCH   1   2
BRANCH   1   8
ATOM      8  C   UNL     1      92.639  82.256  85.512  1.00  0.00     0.100 C 
BRANCH   8   9
ATOM      9  C   UNL     1      93.920  82.946  85.231  1.00  0.00     0.220 C 
ATOM     10  O   UNL     1      94.579  83.395  86.199  1.00  0.00    -0.275 OA
ATOM     11  N   UNL     1      94.380  83.061  83.950  1.00  0.00    -0.352 N 
ATOM     12  H   UNL     1      93.733  82.743  83.244  1.00  0.00     0.163 HD
BRANCH  11  13
ATOM     13  C   UNL     1      95.659  83.575  83.564  1.00  0.00     0.151 C 
BRANCH  13  14
ATOM     14  C   UNL     1      96.275  82.856  82.417  1.00  0.00    -0.025 A 
ATOM     15  C   UNL     1      96.679  83.569  81.264  1.00  0.00     0.056 A 
ATOM     16  C   UNL     1      96.464  81.455  82.455  1.00  0.00     0.009 A 
ATOM     17  C   UNL     1      97.282  82.901  80.173  1.00  0.00     0.160 A 
ATOM     18  C   UNL     1      97.064  80.785  81.374  1.00  0.00     0.050 A 
ATOM     19  C   UNL     1      97.467  81.501  80.230  1.00  0.00     0.157 A 
BRANCH  17  20
ATOM     20  O   UNL     1      97.635  83.588  79.038  1.00  0.00    -0.493 OA
ATOM     21  C   UNL     1      96.564  83.750  78.092  1.00  0.00     0.278 C 
ENDBRANCH  17  20
BRANCH  19  22
ATOM     22  O   UNL     1      98.020  80.842  79.180  1.00  0.00    -0.504 OA
ATOM     23  H   UNL     1      98.726  80.273  79.496  1.00  0.00     0.293 HD
ENDBRANCH  19  22
ENDBRANCH  13  14
ENDBRANCH  11  13
ENDBRANCH   8   9
ENDBRANCH   1   8
TORSDOF 11
ENDMDL
MODEL 4
REMARK VINA RESULT:    -5.957      1.629      2.132
REMARK INTER + INTRA:         -10.190
REMARK INTER:                  -9.580
REMARK INTRA:                  -0.610
REMARK UNBOUND:                -0.577
REMARK SMILES CCCCCCCCC(=O)NCc1ccc(O)c(OC)c1
REMARK SMILES IDX 7 1 6 2 5 3 4 4 3 5 2 6 1 7 8 8 9 9 10 10 11 11 12 13 13 14
REMARK SMILES IDX 21 15 14 16 18 17 15 18 16 19 19 20 20 21 17 22
REMARK H PARENT 11 12 17 23
REMARK Flexibility Score: inf
ROOT
ATOM      1  C   UNL     1      91.434  95.356  76.545  1.00  0.00     0.010 C 
ENDROOT
BRANCH   1   2
ATOM      2  C   UNL     1      90.096  94.664  76.157  1.00  0.00     0.001 C 
BRANCH   2   3
ATOM      3  C   UNL     1      90.204  93.884  74.814  1.00  0.00     0.000 C 
BRANCH   3   4
ATOM      4  C   UNL     1      89.971  92.353  74.958  1.00  0.00    -0.000 C 
BRANCH   4   5
ATOM      5  C   UNL     1      90.620  91.536  73.805  1.00  0.00    -0.000 C 
BRANCH   5   6
ATOM      6  C   UNL     1      90.367  90.010  73.940  1.00  0.00    -0.003 C 
ATOM      7  C   UNL     1      89.780  89.619  75.314  1.00  0.00     0.004 C 
ENDBRANCH   5   6
ENDBRANCH   4   5
ENDBRANCH   3   4
ENDBRANCH   2   3
ENDBRANCH   1   2
BRANCH   1   8
ATOM      8  C   UNL     1      92.044  94.842  77.879  1.00  0.00     0.100 C 
BRANCH   8   9
ATOM      9  C   UNL     1      93.523  94.954  77.876  1.00  0.00     0.220 C 
ATOM     10  O   UNL     1      94.128  94.815  76.786  1.00  0.00    -0.275 OA
ATOM     11  N   UNL     1      94.200  95.232  79.029  1.00  0.00    -0.352 N 
ATOM     12  H   UNL     1      93.626  95.238  79.859  1.00  0.00     0.163 HD
BRANCH  11  13
ATOM     13  C   UNL     1      95.601  95.503  79.130  1.00  0.00     0.151 C 
BRANCH  13  14
ATOM     14  C   UNL     1      95.956  96.930  78.902  1.00  0.00    -0.025 A 
ATOM     15  C   UNL     1      95.826  97.872  79.950  1.00  0.00     0.056 A 
ATOM     16  C   UNL     1      96.422  97.370  77.642  1.00  0.00     0.009 A 
ATOM     17  C   UNL     1      96.175  99.228  79.753  1.00  0.00     0.160 A 
ATOM     18  C   UNL     1      96.772  98.717  77.440  1.00  0.00     0.050 A 
ATOM     19  C   UNL     1      96.643  99.649  78.487  1.00  0.00     0.157 A 
BRANCH  17  20
ATOM     20  O   UNL     1      96.009 100.148  80.757  1.00  0.00    -0.493 OA
ATOM     21  C   UNL     1      96.961 100.029  81.828  1.00  0.00     0.278 C 
ENDBRANCH  17  20
BRANCH  19  22
ATOM     22  O   UNL     1      96.958 100.952  78.274  1.00  0.00    -0.504 OA
ATOM     23  H   UNL     1      97.803 101.149  78.686  1.00  0.00     0.293 HD
ENDBRANCH  19  22
ENDBRANCH  13  14
ENDBRANCH  11  13
ENDBRANCH   8   9
ENDBRANCH   1   8
TORSDOF 11
ENDMDL
MODEL 5
REMARK VINA RESULT:    -5.888     12.263     14.498
REMARK INTER + INTRA:         -10.080
REMARK INTER:                  -9.395
REMARK INTRA:                  -0.685
REMARK UNBOUND:                -0.577
REMARK SMILES CCCCCCCCC(=O)NCc1ccc(O)c(OC)c1
REMARK SMILES IDX 7 1 6 2 5 3 4 4 3 5 2 6 1 7 8 8 9 9 10 10 11 11 12 13 13 14
REMARK SMILES IDX 21 15 14 16 18 17 15 18 16 19 19 20 20 21 17 22
REMARK H PARENT 11 12 17 23
REMARK Flexibility Score: inf
ROOT
ATOM      1  C   UNL     1      95.986  81.801  83.024  1.00  0.00     0.010 C 
ENDROOT
BRANCH   1   2
ATOM      2  C   UNL     1      94.963  81.534  84.165  1.00  0.00     0.001 C 
BRANCH   2   3
ATOM      3  C   UNL     1      93.930  82.690  84.312  1.00  0.00     0.000 C 
BRANCH   3   4
ATOM      4  C   UNL     1      92.552  82.233  84.868  1.00  0.00    -0.000 C 
BRANCH   4   5
ATOM      5  C   UNL     1      92.088  80.871  84.276  1.00  0.00    -0.000 C 
BRANCH   5   6
ATOM      6  C   UNL     1      90.561  80.833  83.994  1.00  0.00    -0.003 C 
ATOM      7  C   UNL     1      89.831  82.108  84.471  1.00  0.00     0.004 C 
ENDBRANCH   5   6
ENDBRANCH   4   5
ENDBRANCH   3   4
ENDBRANCH   2   3
ENDBRANCH   1   2
BRANCH   1   8
ATOM      8  C   UNL     1      96.535  80.509  82.356  1.00  0.00     0.100 C 
BRANCH   8   9
ATOM      9  C   UNL     1      97.597  80.820  81.369  1.00  0.00     0.220 C 
ATOM     10  O   UNL     1      98.204  79.866  80.827  1.00  0.00    -0.275 OA
ATOM     11  N   UNL     1      97.881  82.115  81.042  1.00  0.00    -0.352 N 
ATOM     12  H   UNL     1      97.396  82.803  81.599  1.00  0.00     0.163 HD
BRANCH  11  13
ATOM     13  C   UNL     1      98.777  82.538  80.009  1.00  0.00     0.151 C 
BRANCH  13  14
ATOM     14  C   UNL     1      98.094  83.099  78.813  1.00  0.00    -0.025 A 
ATOM     15  C   UNL     1      98.776  83.177  77.575  1.00  0.00     0.056 A 
ATOM     16  C   UNL     1      96.762  83.565  78.888  1.00  0.00     0.009 A 
ATOM     17  C   UNL     1      98.134  83.691  76.425  1.00  0.00     0.160 A 
ATOM     18  C   UNL     1      96.117  84.077  77.748  1.00  0.00     0.050 A 
ATOM     19  C   UNL     1      96.801  84.149  76.519  1.00  0.00     0.157 A 
BRANCH  17  20
ATOM     20  O   UNL     1      98.810  83.805  75.236  1.00  0.00    -0.493 OA
ATOM     21  C   UNL     1     100.170  83.339  75.285  1.00  0.00     0.278 C 
ENDBRANCH  17  20
BRANCH  19  22
ATOM     22  O   UNL     1      96.179  84.670  75.430  1.00  0.00    -0.504 OA
ATOM     23  H   UNL     1      96.262  85.626  75.441  1.00  0.00     0.293 HD
ENDBRANCH  19  22
ENDBRANCH  13  14
ENDBRANCH  11  13
ENDBRANCH   8   9
ENDBRANCH   1   8
TORSDOF 11
ENDMDL
MODEL 6
REMARK VINA RESULT:    -5.800     12.451     16.375
REMARK INTER + INTRA:          -9.937
REMARK INTER:                  -9.476
REMARK INTRA:                  -0.461
REMARK UNBOUND:                -0.577
REMARK SMILES CCCCCCCCC(=O)NCc1ccc(O)c(OC)c1
REMARK SMILES IDX 7 1 6 2 5 3 4 4 3 5 2 6 1 7 8 8 9 9 10 10 11 11 12 13 13 14
REMARK SMILES IDX 21 15 14 16 18 17 15 18 16 19 19 20 20 21 17 22
REMARK H PARENT 11 12 17 23
REMARK Flexibility Score: inf
ROOT
ATOM      1  C   UNL     1      93.628  84.925  87.346  1.00  0.00     0.010 C 
ENDROOT
BRANCH   1   2
ATOM      2  C   UNL     1      92.955  85.562  88.595  1.00  0.00     0.001 C 
BRANCH   2   3
ATOM      3  C   UNL     1      93.722  86.820  89.101  1.00  0.00     0.000 C 
BRANCH   3   4
ATOM      4  C   UNL     1      93.386  88.118  88.313  1.00  0.00    -0.000 C 
BRANCH   4   5
ATOM      5  C   UNL     1      93.401  89.386  89.212  1.00  0.00    -0.000 C 
BRANCH   5   6
ATOM      6  C   UNL     1      93.558  90.696  88.393  1.00  0.00    -0.003 C 
ATOM      7  C   UNL     1      93.812  91.933  89.282  1.00  0.00     0.004 C 
ENDBRANCH   5   6
ENDBRANCH   4   5
ENDBRANCH   3   4
ENDBRANCH   2   3
ENDBRANCH   1   2
BRANCH   1   8
ATOM      8  C   UNL     1      93.478  83.380  87.270  1.00  0.00     0.100 C 
BRANCH   8   9
ATOM      9  C   UNL     1      93.039  82.946  85.922  1.00  0.00     0.220 C 
ATOM     10  O   UNL     1      93.576  83.479  84.921  1.00  0.00    -0.275 OA
ATOM     11  N   UNL     1      92.095  81.970  85.781  1.00  0.00    -0.352 N 
ATOM     12  H   UNL     1      91.668  81.673  86.646  1.00  0.00     0.163 HD
BRANCH  11  13
ATOM     13  C   UNL     1      91.692  81.369  84.546  1.00  0.00     0.151 C 
BRANCH  13  14
ATOM     14  C   UNL     1      90.223  81.390  84.318  1.00  0.00    -0.025 A 
ATOM     15  C   UNL     1      89.498  82.598  84.457  1.00  0.00     0.056 A 
ATOM     16  C   UNL     1      89.525  80.213  83.963  1.00  0.00     0.009 A 
ATOM     17  C   UNL     1      88.103  82.638  84.227  1.00  0.00     0.160 A 
ATOM     18  C   UNL     1      88.138  80.246  83.732  1.00  0.00     0.050 A 
ATOM     19  C   UNL     1      87.424  81.451  83.869  1.00  0.00     0.157 A 
BRANCH  17  20
ATOM     20  O   UNL     1      87.396  83.800  84.403  1.00  0.00    -0.493 OA
ATOM     21  C   UNL     1      87.003  84.049  85.764  1.00  0.00     0.278 C 
ENDBRANCH  17  20
BRANCH  19  22
ATOM     22  O   UNL     1      86.081  81.467  83.670  1.00  0.00    -0.504 OA
ATOM     23  H   UNL     1      85.880  81.084  82.813  1.00  0.00     0.293 HD
ENDBRANCH  19  22
ENDBRANCH  13  14
ENDBRANCH  11  13
ENDBRANCH   8   9
ENDBRANCH   1   8
TORSDOF 11
ENDMDL
MODEL 7
REMARK VINA RESULT:    -5.702     15.148     17.719
REMARK INTER + INTRA:          -9.779
REMARK INTER:                  -9.203
REMARK INTRA:                  -0.575
REMARK UNBOUND:                -0.577
REMARK SMILES CCCCCCCCC(=O)NCc1ccc(O)c(OC)c1
REMARK SMILES IDX 7 1 6 2 5 3 4 4 3 5 2 6 1 7 8 8 9 9 10 10 11 11 12 13 13 14
REMARK SMILES IDX 21 15 14 16 18 17 15 18 16 19 19 20 20 21 17 22
REMARK H PARENT 11 12 17 23
REMARK Flexibility Score: inf
ROOT
ATOM      1  C   UNL     1      91.619  75.561  80.658  1.00  0.00     0.010 C 
ENDROOT
BRANCH   1   2
ATOM      2  C   UNL     1      91.170  75.076  79.249  1.00  0.00     0.001 C 
BRANCH   2   3
ATOM      3  C   UNL     1      90.957  76.259  78.259  1.00  0.00     0.000 C 
BRANCH   3   4
ATOM      4  C   UNL     1      91.927  76.240  77.044  1.00  0.00    -0.000 C 
BRANCH   4   5
ATOM      5  C   UNL     1      92.067  77.634  76.366  1.00  0.00    -0.000 C 
BRANCH   5   6
ATOM      6  C   UNL     1      90.774  78.068  75.625  1.00  0.00    -0.003 C 
ATOM      7  C   UNL     1      90.209  76.963  74.705  1.00  0.00     0.004 C 
ENDBRANCH   5   6
ENDBRANCH   4   5
ENDBRANCH   3   4
ENDBRANCH   2   3
ENDBRANCH   1   2
BRANCH   1   8
ATOM      8  C   UNL     1      91.026  74.728  81.829  1.00  0.00     0.100 C 
BRANCH   8   9
ATOM      9  C   UNL     1      91.051  75.491  83.100  1.00  0.00     0.220 C 
ATOM     10  O   UNL     1      90.580  74.948  84.128  1.00  0.00    -0.275 OA
ATOM     11  N   UNL     1      91.600  76.740  83.149  1.00  0.00    -0.352 N 
ATOM     12  H   UNL     1      91.869  77.113  82.251  1.00  0.00     0.163 HD
BRANCH  11  13
ATOM     13  C   UNL     1      91.810  77.514  84.334  1.00  0.00     0.151 C 
BRANCH  13  14
ATOM     14  C   UNL     1      91.293  78.905  84.243  1.00  0.00    -0.025 A 
ATOM     15  C   UNL     1      92.174  80.004  84.385  1.00  0.00     0.056 A 
ATOM     16  C   UNL     1      89.920  79.157  84.018  1.00  0.00     0.009 A 
ATOM     17  C   UNL     1      91.700  81.332  84.283  1.00  0.00     0.160 A 
ATOM     18  C   UNL     1      89.442  80.475  83.914  1.00  0.00     0.050 A 
ATOM     19  C   UNL     1      90.324  81.564  84.054  1.00  0.00     0.157 A 
BRANCH  17  20
ATOM     20  O   UNL     1      92.548  82.395  84.463  1.00  0.00    -0.493 OA
ATOM     21  C   UNL     1      92.793  82.727  85.841  1.00  0.00     0.278 C 
ENDBRANCH  17  20
BRANCH  19  22
ATOM     22  O   UNL     1      89.849  82.833  83.980  1.00  0.00    -0.504 OA
ATOM     23  H   UNL     1      90.511  83.443  84.313  1.00  0.00     0.293 HD
ENDBRANCH  19  22
ENDBRANCH  13  14
ENDBRANCH  11  13
ENDBRANCH   8   9
ENDBRANCH   1   8
TORSDOF 11
ENDMDL
MODEL 8
REMARK VINA RESULT:    -5.624     13.514     16.715
REMARK INTER + INTRA:          -9.653
REMARK INTER:                  -8.439
REMARK INTRA:                  -1.214
REMARK UNBOUND:                -0.577
REMARK SMILES CCCCCCCCC(=O)NCc1ccc(O)c(OC)c1
REMARK SMILES IDX 7 1 6 2 5 3 4 4 3 5 2 6 1 7 8 8 9 9 10 10 11 11 12 13 13 14
REMARK SMILES IDX 21 15 14 16 18 17 15 18 16 19 19 20 20 21 17 22
REMARK H PARENT 11 12 17 23
REMARK Flexibility Score: inf
ROOT
ATOM      1  C   UNL     1      93.269  84.834  87.806  1.00  0.00     0.010 C 
ENDROOT
BRANCH   1   2
ATOM      2  C   UNL     1      94.282  83.794  88.365  1.00  0.00     0.001 C 
BRANCH   2   3
ATOM      3  C   UNL     1      93.664  82.369  88.474  1.00  0.00     0.000 C 
BRANCH   3   4
ATOM      4  C   UNL     1      94.648  81.228  88.087  1.00  0.00    -0.000 C 
BRANCH   4   5
ATOM      5  C   UNL     1      94.523  80.809  86.594  1.00  0.00    -0.000 C 
BRANCH   5   6
ATOM      6  C   UNL     1      94.123  79.319  86.424  1.00  0.00    -0.003 C 
ATOM      7  C   UNL     1      94.324  78.804  84.982  1.00  0.00     0.004 C 
ENDBRANCH   5   6
ENDBRANCH   4   5
ENDBRANCH   3   4
ENDBRANCH   2   3
ENDBRANCH   1   2
BRANCH   1   8
ATOM      8  C   UNL     1      93.609  85.336  86.375  1.00  0.00     0.100 C 
BRANCH   8   9
ATOM      9  C   UNL     1      93.674  84.213  85.409  1.00  0.00     0.220 C 
ATOM     10  O   UNL     1      94.791  83.908  84.925  1.00  0.00    -0.275 OA
ATOM     11  N   UNL     1      92.548  83.513  85.081  1.00  0.00    -0.352 N 
ATOM     12  H   UNL     1      91.694  83.896  85.459  1.00  0.00     0.163 HD
BRANCH  11  13
ATOM     13  C   UNL     1      92.504  82.330  84.278  1.00  0.00     0.151 C 
BRANCH  13  14
ATOM     14  C   UNL     1      91.181  81.651  84.281  1.00  0.00    -0.025 A 
ATOM     15  C   UNL     1      90.007  82.380  84.586  1.00  0.00     0.056 A 
ATOM     16  C   UNL     1      91.071  80.272  83.984  1.00  0.00     0.009 A 
ATOM     17  C   UNL     1      88.740  81.752  84.575  1.00  0.00     0.160 A 
ATOM     18  C   UNL     1      89.814  79.642  83.971  1.00  0.00     0.050 A 
ATOM     19  C   UNL     1      88.649  80.374  84.272  1.00  0.00     0.157 A 
BRANCH  17  20
ATOM     20  O   UNL     1      87.608  82.450  84.912  1.00  0.00    -0.493 OA
ATOM     21  C   UNL     1      87.049  83.221  83.834  1.00  0.00     0.278 C 
ENDBRANCH  17  20
BRANCH  19  22
ATOM     22  O   UNL     1      87.444  79.750  84.284  1.00  0.00    -0.504 OA
ATOM     23  H   UNL     1      86.855  80.180  83.659  1.00  0.00     0.293 HD
ENDBRANCH  19  22
ENDBRANCH  13  14
ENDBRANCH  11  13
ENDBRANCH   8   9
ENDBRANCH   1   8
TORSDOF 11
ENDMDL
MODEL 9
REMARK VINA RESULT:    -5.597     12.004     13.689
REMARK INTER + INTRA:          -9.610
REMARK INTER:                  -8.599
REMARK INTRA:                  -1.010
REMARK UNBOUND:                -0.577
REMARK SMILES CCCCCCCCC(=O)NCc1ccc(O)c(OC)c1
REMARK SMILES IDX 7 1 6 2 5 3 4 4 3 5 2 6 1 7 8 8 9 9 10 10 11 11 12 13 13 14
REMARK SMILES IDX 21 15 14 16 18 17 15 18 16 19 19 20 20 21 17 22
REMARK H PARENT 11 12 17 23
REMARK Flexibility Score: inf
ROOT
ATOM      1  C   UNL     1      98.926  84.807  74.190  1.00  0.00     0.010 C 
ENDROOT
BRANCH   1   2
ATOM      2  C   UNL     1      99.333  85.423  72.821  1.00  0.00     0.001 C 
BRANCH   2   3
ATOM      3  C   UNL     1     100.504  84.645  72.150  1.00  0.00     0.000 C 
BRANCH   3   4
ATOM      4  C   UNL     1     100.896  83.338  72.896  1.00  0.00    -0.000 C 
BRANCH   4   5
ATOM      5  C   UNL     1     100.841  82.084  71.977  1.00  0.00    -0.000 C 
BRANCH   5   6
ATOM      6  C   UNL     1      99.584  82.068  71.065  1.00  0.00    -0.003 C 
ATOM      7  C   UNL     1      98.318  81.569  71.797  1.00  0.00     0.004 C 
ENDBRANCH   5   6
ENDBRANCH   4   5
ENDBRANCH   3   4
ENDBRANCH   2   3
ENDBRANCH   1   2
BRANCH   1   8
ATOM      8  C   UNL     1      97.456  84.303  74.241  1.00  0.00     0.100 C 
BRANCH   8   9
ATOM      9  C   UNL     1      96.858  84.519  75.581  1.00  0.00     0.220 C 
ATOM     10  O   UNL     1      96.094  85.501  75.741  1.00  0.00    -0.275 OA
ATOM     11  N   UNL     1      97.112  83.649  76.602  1.00  0.00    -0.352 N 
ATOM     12  H   UNL     1      97.805  82.947  76.390  1.00  0.00     0.163 HD
BRANCH  11  13
ATOM     13  C   UNL     1      96.489  83.668  77.890  1.00  0.00     0.151 C 
BRANCH  13  14
ATOM     14  C   UNL     1      97.291  83.009  78.956  1.00  0.00    -0.025 A 
ATOM     15  C   UNL     1      96.882  83.091  80.309  1.00  0.00     0.056 A 
ATOM     16  C   UNL     1      98.471  82.296  78.642  1.00  0.00     0.009 A 
ATOM     17  C   UNL     1      97.625  82.456  81.330  1.00  0.00     0.160 A 
ATOM     18  C   UNL     1      99.214  81.661  79.653  1.00  0.00     0.050 A 
ATOM     19  C   UNL     1      98.800  81.744  80.996  1.00  0.00     0.157 A 
BRANCH  17  20
ATOM     20  O   UNL     1      97.251  82.572  82.645  1.00  0.00    -0.493 OA
ATOM     21  C   UNL     1      96.242  83.569  82.884  1.00  0.00     0.278 C 
ENDBRANCH  17  20
BRANCH  19  22
ATOM     22  O   UNL     1      99.538  81.151  81.969  1.00  0.00    -0.504 OA
ATOM     23  H   UNL     1     100.211  81.763  82.278  1.00  0.00     0.293 HD
ENDBRANCH  19  22
ENDBRANCH  13  14
ENDBRANCH  11  13
ENDBRANCH   8   9
ENDBRANCH   1   8
TORSDOF 11
ENDMDL
MODEL 10
REMARK VINA RESULT:    -5.569     11.937     13.753
REMARK INTER + INTRA:          -9.565
REMARK INTER:                  -8.700
REMARK INTRA:                  -0.865
REMARK UNBOUND:                -0.577
REMARK SMILES CCCCCCCCC(=O)NCc1ccc(O)c(OC)c1
REMARK SMILES IDX 7 1 6 2 5 3 4 4 3 5 2 6 1 7 8 8 9 9 10 10 11 11 12 13 13 14
REMARK SMILES IDX 21 15 14 16 18 17 15 18 16 19 19 20 20 21 17 22
REMARK H PARENT 11 12 17 23
REMARK Flexibility Score: inf
ROOT
ATOM      1  C   UNL     1      97.720  83.152  73.840  1.00  0.00     0.010 C 
ENDROOT
BRANCH   1   2
ATOM      2  C   UNL     1      98.688  82.948  72.640  1.00  0.00     0.001 C 
BRANCH   2   3
ATOM      3  C   UNL     1     100.055  82.346  73.082  1.00  0.00     0.000 C 
BRANCH   3   4
ATOM      4  C   UNL     1     101.047  83.398  73.654  1.00  0.00    -0.000 C 
BRANCH   4   5
ATOM      5  C   UNL     1     101.304  84.577  72.673  1.00  0.00    -0.000 C 
BRANCH   5   6
ATOM      6  C   UNL     1     101.742  85.875  73.402  1.00  0.00    -0.003 C 
ATOM      7  C   UNL     1     101.776  85.718  74.938  1.00  0.00     0.004 C 
ENDBRANCH   5   6
ENDBRANCH   4   5
ENDBRANCH   3   4
ENDBRANCH   2   3
ENDBRANCH   1   2
BRANCH   1   8
ATOM      8  C   UNL     1      97.750  84.588  74.436  1.00  0.00     0.100 C 
BRANCH   8   9
ATOM      9  C   UNL     1      97.008  84.656  75.718  1.00  0.00     0.220 C 
ATOM     10  O   UNL     1      96.109  85.522  75.839  1.00  0.00    -0.275 OA
ATOM     11  N   UNL     1      97.280  83.776  76.725  1.00  0.00    -0.352 N 
ATOM     12  H   UNL     1      98.077  83.180  76.555  1.00  0.00     0.163 HD
BRANCH  11  13
ATOM     13  C   UNL     1      96.544  83.648  77.946  1.00  0.00     0.151 C 
BRANCH  13  14
ATOM     14  C   UNL     1      97.321  83.034  79.055  1.00  0.00    -0.025 A 
ATOM     15  C   UNL     1      96.889  83.183  80.395  1.00  0.00     0.056 A 
ATOM     16  C   UNL     1      98.499  82.297  78.796  1.00  0.00     0.009 A 
ATOM     17  C   UNL     1      97.607  82.589  81.459  1.00  0.00     0.160 A 
ATOM     18  C   UNL     1      99.218  81.703  79.849  1.00  0.00     0.050 A 
ATOM     19  C   UNL     1      98.781  81.853  81.180  1.00  0.00     0.157 A 
BRANCH  17  20
ATOM     20  O   UNL     1      97.211  82.770  82.760  1.00  0.00    -0.493 OA
ATOM     21  C   UNL     1      96.035  83.586  82.909  1.00  0.00     0.278 C 
ENDBRANCH  17  20
BRANCH  19  22
ATOM     22  O   UNL     1      99.497  81.300  82.192  1.00  0.00    -0.504 OA
ATOM     23  H   UNL     1      99.230  81.695  83.025  1.00  0.00     0.293 HD
ENDBRANCH  19  22
ENDBRANCH  13  14
ENDBRANCH  11  13
ENDBRANCH   8   9
ENDBRANCH   1   8
TORSDOF 11
ENDMDL
