MODEL 1
REMARK VINA RESULT:    -6.435      0.000      0.000
REMARK INTER + INTRA:         -10.736
REMARK INTER:                 -10.009
REMARK INTRA:                  -0.726
REMARK UNBOUND:                -0.726
REMARK SMILES COc1cc(CNC(=O)CCCC/C=C/C(C)C)ccc1O
REMARK SMILES IDX 10 1 8 2 7 3 9 5 6 6 5 7 3 8 21 9 4 10 20 11 19 12 2 13 1 14
REMARK SMILES IDX 22 15 11 17 12 18 13 19 14 20 15 21 16 22 17 23 18 24
REMARK H PARENT 7 4 22 16
REMARK Flexibility Score: inf
ROOT
ATOM      1  C   UNL     1      92.887 100.180  75.178  1.00  0.00     0.100 C 
ENDROOT
BRANCH   1   2
ATOM      2  C   UNL     1      92.501 100.901  73.950  1.00  0.00     0.220 C 
ATOM      3  N   UNL     1      92.236 100.217  72.801  1.00  0.00    -0.352 N 
ATOM      4  H   UNL     1      92.349  99.215  72.866  1.00  0.00     0.163 HD
ATOM      5  O   UNL     1      92.402 102.151  74.003  1.00  0.00    -0.275 OA
BRANCH   3   6
ATOM      6  C   UNL     1      91.824 100.816  71.572  1.00  0.00     0.151 C 
BRANCH   6   7
ATOM      7  C   UNL     1      90.797  99.992  70.879  1.00  0.00    -0.025 A 
ATOM      8  C   UNL     1      89.224  99.680  69.011  1.00  0.00     0.160 A 
ATOM      9  C   UNL     1      88.850  98.425  69.535  1.00  0.00     0.157 A 
ATOM     10  C   UNL     1      90.191 100.452  69.688  1.00  0.00     0.056 A 
ATOM     11  C   UNL     1      89.431  97.962  70.732  1.00  0.00     0.050 A 
ATOM     12  C   UNL     1      90.404  98.735  71.395  1.00  0.00     0.009 A 
BRANCH   8  13
ATOM     13  O   UNL     1      88.613 100.163  67.882  1.00  0.00    -0.493 OA
ATOM     14  C   UNL     1      89.332 101.231  67.237  1.00  0.00     0.278 C 
ENDBRANCH   8  13
BRANCH   9  15
ATOM     15  O   UNL     1      87.931  97.651  68.900  1.00  0.00    -0.504 OA
ATOM     16  H   UNL     1      88.358  96.861  68.561  1.00  0.00     0.293 HD
ENDBRANCH   9  15
ENDBRANCH   6   7
ENDBRANCH   3   6
ENDBRANCH   1   2
BRANCH   1  17
ATOM     17  C   UNL     1      92.996  98.651  74.934  1.00  0.00     0.010 C 
BRANCH  17  18
ATOM     18  C   UNL     1      93.899  97.934  75.977  1.00  0.00     0.005 C 
BRANCH  18  19
ATOM     19  C   UNL     1      93.625  96.408  76.047  1.00  0.00     0.027 C 
BRANCH  19  20
ATOM     20  C   UNL     1      92.675  96.070  77.097  1.00  0.00    -0.031 C 
ATOM     21  C   UNL     1      91.497  95.456  76.882  1.00  0.00    -0.028 C 
BRANCH  21  22
ATOM     22  C   UNL     1      90.567  95.108  77.955  1.00  0.00     0.005 C 
ATOM     23  C   UNL     1      89.123  94.875  77.430  1.00  0.00     0.012 C 
ATOM     24  C   UNL     1      91.081  93.867  78.730  1.00  0.00     0.012 C 
ENDBRANCH  21  22
ENDBRANCH  19  20
ENDBRANCH  18  19
ENDBRANCH  17  18
ENDBRANCH   1  17
TORSDOF 10
ENDMDL
MODEL 2
REMARK VINA RESULT:    -6.111      6.280     10.010
REMARK INTER + INTRA:         -10.232
REMARK INTER:                  -9.350
REMARK INTRA:                  -0.882
REMARK UNBOUND:                -0.726
REMARK SMILES COc1cc(CNC(=O)CCCC/C=C/C(C)C)ccc1O
REMARK SMILES IDX 10 1 8 2 7 3 9 5 6 6 5 7 3 8 21 9 4 10 20 11 19 12 2 13 1 14
REMARK SMILES IDX 22 15 11 17 12 18 13 19 14 20 15 21 16 22 17 23 18 24
REMARK H PARENT 7 4 22 16
REMARK Flexibility Score: inf
ROOT
ATOM      1  C   UNL     1      94.307  98.099  76.303  1.00  0.00     0.100 C 
ENDROOT
BRANCH   1   2
ATOM      2  C   UNL     1      95.430  98.517  77.164  1.00  0.00     0.220 C 
ATOM      3  N   UNL     1      95.875  97.706  78.164  1.00  0.00    -0.352 N 
ATOM      4  H   UNL     1      95.365  96.840  78.269  1.00  0.00     0.163 HD
ATOM      5  O   UNL     1      95.974  99.624  76.931  1.00  0.00    -0.275 OA
BRANCH   3   6
ATOM      6  C   UNL     1      96.972  98.004  79.029  1.00  0.00     0.151 C 
BRANCH   6   7
ATOM      7  C   UNL     1      97.002  97.094  80.206  1.00  0.00    -0.025 A 
ATOM      8  C   UNL     1      96.016  95.236  81.487  1.00  0.00     0.160 A 
ATOM      9  C   UNL     1      97.055  95.338  82.435  1.00  0.00     0.157 A 
ATOM     10  C   UNL     1      95.998  96.115  80.384  1.00  0.00     0.056 A 
ATOM     11  C   UNL     1      98.052  96.321  82.282  1.00  0.00     0.050 A 
ATOM     12  C   UNL     1      98.032  97.187  81.171  1.00  0.00     0.009 A 
BRANCH   8  13
ATOM     13  O   UNL     1      95.007  94.324  81.667  1.00  0.00    -0.493 OA
ATOM     14  C   UNL     1      94.988  93.270  80.687  1.00  0.00     0.278 C 
ENDBRANCH   8  13
BRANCH   9  15
ATOM     15  O   UNL     1      97.109  94.498  83.501  1.00  0.00    -0.504 OA
ATOM     16  H   UNL     1      96.602  94.869  84.228  1.00  0.00     0.293 HD
ENDBRANCH   9  15
ENDBRANCH   6   7
ENDBRANCH   3   6
ENDBRANCH   1   2
BRANCH   1  17
ATOM     17  C   UNL     1      94.680  96.869  75.432  1.00  0.00     0.010 C 
BRANCH  17  18
ATOM     18  C   UNL     1      94.001  95.557  75.915  1.00  0.00     0.005 C 
BRANCH  18  19
ATOM     19  C   UNL     1      93.051  95.792  77.120  1.00  0.00     0.027 C 
BRANCH  19  20
ATOM     20  C   UNL     1      91.878  94.932  77.069  1.00  0.00    -0.031 C 
ATOM     21  C   UNL     1      90.634  95.330  77.392  1.00  0.00    -0.028 C 
BRANCH  21  22
ATOM     22  C   UNL     1      89.466  94.453  77.314  1.00  0.00     0.005 C 
ATOM     23  C   UNL     1      89.393  93.686  75.964  1.00  0.00     0.012 C 
ATOM     24  C   UNL     1      89.455  93.467  78.511  1.00  0.00     0.012 C 
ENDBRANCH  21  22
ENDBRANCH  19  20
ENDBRANCH  18  19
ENDBRANCH  17  18
ENDBRANCH   1  17
TORSDOF 10
ENDMDL
MODEL 3
REMARK VINA RESULT:    -5.937     20.734     23.722
REMARK INTER + INTRA:          -9.961
REMARK INTER:                  -9.060
REMARK INTRA:                  -0.901
REMARK UNBOUND:                -0.726
REMARK SMILES COc1cc(CNC(=O)CCCC/C=C/C(C)C)ccc1O
REMARK SMILES IDX 10 1 8 2 7 3 9 5 6 6 5 7 3 8 21 9 4 10 20 11 19 12 2 13 1 14
REMARK SMILES IDX 22 15 11 17 12 18 13 19 14 20 15 21 16 22 17 23 18 24
REMARK H PARENT 7 4 22 16
REMARK Flexibility Score: inf
ROOT
ATOM      1  C   UNL     1      75.277  81.282  65.175  1.00  0.00     0.100 C 
ENDROOT
BRANCH   1   2
ATOM      2  C   UNL     1      76.559  81.967  65.427  1.00  0.00     0.220 C 
ATOM      3  N   UNL     1      76.674  83.311  65.236  1.00  0.00    -0.352 N 
ATOM      4  H   UNL     1      75.839  83.767  64.896  1.00  0.00     0.163 HD
ATOM      5  O   UNL     1      77.525  81.282  65.842  1.00  0.00    -0.275 OA
BRANCH   3   6
ATOM      6  C   UNL     1      77.858  84.071  65.481  1.00  0.00     0.151 C 
BRANCH   6   7
ATOM      7  C   UNL     1      77.682  85.001  66.630  1.00  0.00    -0.025 A 
ATOM      8  C   UNL     1      77.609  85.394  69.059  1.00  0.00     0.160 A 
ATOM      9  C   UNL     1      77.369  86.765  68.831  1.00  0.00     0.157 A 
ATOM     10  C   UNL     1      77.761  84.526  67.958  1.00  0.00     0.056 A 
ATOM     11  C   UNL     1      77.269  87.250  67.513  1.00  0.00     0.050 A 
ATOM     12  C   UNL     1      77.434  86.378  66.419  1.00  0.00     0.009 A 
BRANCH   8  13
ATOM     13  O   UNL     1      77.641  84.905  70.341  1.00  0.00    -0.493 OA
ATOM     14  C   UNL     1      76.391  84.352  70.790  1.00  0.00     0.278 C 
ENDBRANCH   8  13
BRANCH   9  15
ATOM     15  O   UNL     1      77.231  87.629  69.870  1.00  0.00    -0.504 OA
ATOM     16  H   UNL     1      76.505  88.231  69.691  1.00  0.00     0.293 HD
ENDBRANCH   9  15
ENDBRANCH   6   7
ENDBRANCH   3   6
ENDBRANCH   1   2
BRANCH   1  17
ATOM     17  C   UNL     1      75.054  81.023  63.660  1.00  0.00     0.010 C 
BRANCH  17  18
ATOM     18  C   UNL     1      73.642  80.454  63.345  1.00  0.00     0.005 C 
BRANCH  18  19
ATOM     19  C   UNL     1      72.635  81.564  62.938  1.00  0.00     0.027 C 
BRANCH  19  20
ATOM     20  C   UNL     1      71.577  81.730  63.923  1.00  0.00    -0.031 C 
ATOM     21  C   UNL     1      71.736  82.353  65.105  1.00  0.00    -0.028 C 
BRANCH  21  22
ATOM     22  C   UNL     1      70.652  82.527  66.072  1.00  0.00     0.005 C 
ATOM     23  C   UNL     1      71.073  83.416  67.275  1.00  0.00     0.012 C 
ATOM     24  C   UNL     1      69.395  83.104  65.371  1.00  0.00     0.012 C 
ENDBRANCH  21  22
ENDBRANCH  19  20
ENDBRANCH  18  19
ENDBRANCH  17  18
ENDBRANCH   1  17
TORSDOF 10
ENDMDL
MODEL 4
REMARK VINA RESULT:    -5.915     20.493     22.983
REMARK INTER + INTRA:          -9.927
REMARK INTER:                  -9.238
REMARK INTRA:                  -0.689
REMARK UNBOUND:                -0.726
REMARK SMILES COc1cc(CNC(=O)CCCC/C=C/C(C)C)ccc1O
REMARK SMILES IDX 10 1 8 2 7 3 9 5 6 6 5 7 3 8 21 9 4 10 20 11 19 12 2 13 1 14
REMARK SMILES IDX 22 15 11 17 12 18 13 19 14 20 15 21 16 22 17 23 18 24
REMARK H PARENT 7 4 22 16
REMARK Flexibility Score: inf
ROOT
ATOM      1  C   UNL     1      77.423  84.330  67.180  1.00  0.00     0.100 C 
ENDROOT
BRANCH   1   2
ATOM      2  C   UNL     1      77.269  83.500  65.970  1.00  0.00     0.220 C 
ATOM      3  N   UNL     1      76.459  83.905  64.952  1.00  0.00    -0.352 N 
ATOM      4  H   UNL     1      75.978  84.779  65.112  1.00  0.00     0.163 HD
ATOM      5  O   UNL     1      77.920  82.430  65.900  1.00  0.00    -0.275 OA
BRANCH   3   6
ATOM      6  C   UNL     1      76.268  83.192  63.730  1.00  0.00     0.151 C 
BRANCH   6   7
ATOM      7  C   UNL     1      75.130  82.238  63.826  1.00  0.00    -0.025 A 
ATOM      8  C   UNL     1      73.038  81.521  64.911  1.00  0.00     0.160 A 
ATOM      9  C   UNL     1      72.942  80.439  64.012  1.00  0.00     0.157 A 
ATOM     10  C   UNL     1      74.131  82.408  64.811  1.00  0.00     0.056 A 
ATOM     11  C   UNL     1      73.940  80.245  63.037  1.00  0.00     0.050 A 
ATOM     12  C   UNL     1      75.021  81.143  62.938  1.00  0.00     0.009 A 
BRANCH   8  13
ATOM     13  O   UNL     1      72.104  81.676  65.903  1.00  0.00    -0.493 OA
ATOM     14  C   UNL     1      71.794  83.048  66.208  1.00  0.00     0.278 C 
ENDBRANCH   8  13
BRANCH   9  15
ATOM     15  O   UNL     1      71.896  79.575  64.072  1.00  0.00    -0.504 OA
ATOM     16  H   UNL     1      71.908  79.116  64.915  1.00  0.00     0.293 HD
ENDBRANCH   9  15
ENDBRANCH   6   7
ENDBRANCH   3   6
ENDBRANCH   1   2
BRANCH   1  17
ATOM     17  C   UNL     1      77.385  85.845  66.844  1.00  0.00     0.010 C 
BRANCH  17  18
ATOM     18  C   UNL     1      78.095  86.721  67.914  1.00  0.00     0.005 C 
BRANCH  18  19
ATOM     19  C   UNL     1      77.501  86.515  69.334  1.00  0.00     0.027 C 
BRANCH  19  20
ATOM     20  C   UNL     1      76.628  87.611  69.726  1.00  0.00    -0.031 C 
ATOM     21  C   UNL     1      75.479  87.455  70.410  1.00  0.00    -0.028 C 
BRANCH  21  22
ATOM     22  C   UNL     1      74.627  88.574  70.812  1.00  0.00     0.005 C 
ATOM     23  C   UNL     1      75.403  89.919  70.861  1.00  0.00     0.012 C 
ATOM     24  C   UNL     1      73.400  88.678  69.869  1.00  0.00     0.012 C 
ENDBRANCH  21  22
ENDBRANCH  19  20
ENDBRANCH  18  19
ENDBRANCH  17  18
ENDBRANCH   1  17
TORSDOF 10
ENDMDL
MODEL 5
REMARK VINA RESULT:    -5.846     20.089     22.574
REMARK INTER + INTRA:          -9.819
REMARK INTER:                  -8.764
REMARK INTRA:                  -1.055
REMARK UNBOUND:                -0.726
REMARK SMILES COc1cc(CNC(=O)CCCC/C=C/C(C)C)ccc1O
REMARK SMILES IDX 10 1 8 2 7 3 9 5 6 6 5 7 3 8 21 9 4 10 20 11 19 12 2 13 1 14
REMARK SMILES IDX 22 15 11 17 12 18 13 19 14 20 15 21 16 22 17 23 18 24
REMARK H PARENT 7 4 22 16
REMARK Flexibility Score: inf
ROOT
ATOM      1  C   UNL     1      78.185  83.748  67.630  1.00  0.00     0.100 C 
ENDROOT
BRANCH   1   2
ATOM      2  C   UNL     1      77.295  83.190  66.594  1.00  0.00     0.220 C 
ATOM      3  N   UNL     1      76.110  83.795  66.302  1.00  0.00    -0.352 N 
ATOM      4  H   UNL     1      75.899  84.612  66.858  1.00  0.00     0.163 HD
ATOM      5  O   UNL     1      77.673  82.164  65.979  1.00  0.00    -0.275 OA
BRANCH   3   6
ATOM      6  C   UNL     1      75.195  83.355  65.297  1.00  0.00     0.151 C 
BRANCH   6   7
ATOM      7  C   UNL     1      73.841  83.105  65.863  1.00  0.00    -0.025 A 
ATOM      8  C   UNL     1      71.995  83.783  67.344  1.00  0.00     0.160 A 
ATOM      9  C   UNL     1      71.253  82.655  66.936  1.00  0.00     0.157 A 
ATOM     10  C   UNL     1      73.281  83.996  66.806  1.00  0.00     0.056 A 
ATOM     11  C   UNL     1      71.805  81.748  66.011  1.00  0.00     0.050 A 
ATOM     12  C   UNL     1      73.086  81.975  65.470  1.00  0.00     0.009 A 
BRANCH   8  13
ATOM     13  O   UNL     1      71.488  84.633  68.294  1.00  0.00    -0.493 OA
ATOM     14  C   UNL     1      72.390  85.686  68.681  1.00  0.00     0.278 C 
ENDBRANCH   8  13
BRANCH   9  15
ATOM     15  O   UNL     1      70.006  82.428  67.425  1.00  0.00    -0.504 OA
ATOM     16  H   UNL     1      69.354  82.785  66.818  1.00  0.00     0.293 HD
ENDBRANCH   9  15
ENDBRANCH   6   7
ENDBRANCH   3   6
ENDBRANCH   1   2
BRANCH   1  17
ATOM     17  C   UNL     1      78.236  85.298  67.567  1.00  0.00     0.010 C 
BRANCH  17  18
ATOM     18  C   UNL     1      78.076  85.966  68.962  1.00  0.00     0.005 C 
BRANCH  18  19
ATOM     19  C   UNL     1      76.806  85.477  69.709  1.00  0.00     0.027 C 
BRANCH  19  20
ATOM     20  C   UNL     1      75.934  86.580  70.085  1.00  0.00    -0.031 C 
ATOM     21  C   UNL     1      76.294  87.875  70.049  1.00  0.00    -0.028 C 
BRANCH  21  22
ATOM     22  C   UNL     1      75.394  88.969  70.412  1.00  0.00     0.005 C 
ATOM     23  C   UNL     1      74.887  89.753  69.170  1.00  0.00     0.012 C 
ATOM     24  C   UNL     1      74.205  88.429  71.248  1.00  0.00     0.012 C 
ENDBRANCH  21  22
ENDBRANCH  19  20
ENDBRANCH  18  19
ENDBRANCH  17  18
ENDBRANCH   1  17
TORSDOF 10
ENDMDL
MODEL 6
REMARK VINA RESULT:    -5.839     20.420     22.860
REMARK INTER + INTRA:          -9.809
REMARK INTER:                  -8.355
REMARK INTRA:                  -1.454
REMARK UNBOUND:                -0.726
REMARK SMILES COc1cc(CNC(=O)CCCC/C=C/C(C)C)ccc1O
REMARK SMILES IDX 10 1 8 2 7 3 9 5 6 6 5 7 3 8 21 9 4 10 20 11 19 12 2 13 1 14
REMARK SMILES IDX 22 15 11 17 12 18 13 19 14 20 15 21 16 22 17 23 18 24
REMARK H PARENT 7 4 22 16
REMARK Flexibility Score: inf
ROOT
ATOM      1  C   UNL     1      78.313  84.863  68.217  1.00  0.00     0.100 C 
ENDROOT
BRANCH   1   2
ATOM      2  C   UNL     1      77.857  84.405  66.891  1.00  0.00     0.220 C 
ATOM      3  N   UNL     1      76.671  84.840  66.379  1.00  0.00    -0.352 N 
ATOM      4  H   UNL     1      76.148  85.460  66.982  1.00  0.00     0.163 HD
ATOM      5  O   UNL     1      78.601  83.628  66.245  1.00  0.00    -0.275 OA
BRANCH   3   6
ATOM      6  C   UNL     1      76.157  84.483  65.096  1.00  0.00     0.151 C 
BRANCH   6   7
ATOM      7  C   UNL     1      75.189  83.357  65.189  1.00  0.00    -0.025 A 
ATOM      8  C   UNL     1      72.865  82.550  65.294  1.00  0.00     0.160 A 
ATOM      9  C   UNL     1      73.328  81.219  65.348  1.00  0.00     0.157 A 
ATOM     10  C   UNL     1      73.798  83.605  65.218  1.00  0.00     0.056 A 
ATOM     11  C   UNL     1      74.712  80.957  65.340  1.00  0.00     0.050 A 
ATOM     12  C   UNL     1      75.636  82.016  65.252  1.00  0.00     0.009 A 
BRANCH   8  13
ATOM     13  O   UNL     1      71.520  82.814  65.368  1.00  0.00    -0.493 OA
ATOM     14  C   UNL     1      71.069  83.201  66.679  1.00  0.00     0.278 C 
ENDBRANCH   8  13
BRANCH   9  15
ATOM     15  O   UNL     1      72.456  80.180  65.409  1.00  0.00    -0.504 OA
ATOM     16  H   UNL     1      72.081  80.128  66.291  1.00  0.00     0.293 HD
ENDBRANCH   9  15
ENDBRANCH   6   7
ENDBRANCH   3   6
ENDBRANCH   1   2
BRANCH   1  17
ATOM     17  C   UNL     1      78.056  86.381  68.419  1.00  0.00     0.010 C 
BRANCH  17  18
ATOM     18  C   UNL     1      77.174  86.686  69.662  1.00  0.00     0.005 C 
BRANCH  18  19
ATOM     19  C   UNL     1      76.605  85.396  70.313  1.00  0.00     0.027 C 
BRANCH  19  20
ATOM     20  C   UNL     1      75.270  85.081  69.826  1.00  0.00    -0.031 C 
ATOM     21  C   UNL     1      74.548  85.887  69.026  1.00  0.00    -0.028 C 
BRANCH  21  22
ATOM     22  C   UNL     1      73.215  85.541  68.532  1.00  0.00     0.005 C 
ATOM     23  C   UNL     1      72.157  85.503  69.669  1.00  0.00     0.012 C 
ATOM     24  C   UNL     1      72.787  86.524  67.411  1.00  0.00     0.012 C 
ENDBRANCH  21  22
ENDBRANCH  19  20
ENDBRANCH  18  19
ENDBRANCH  17  18
ENDBRANCH   1  17
TORSDOF 10
ENDMDL
MODEL 7
REMARK VINA RESULT:    -5.833     20.741     23.374
REMARK INTER + INTRA:          -9.799
REMARK INTER:                  -8.758
REMARK INTRA:                  -1.041
REMARK UNBOUND:                -0.726
REMARK SMILES COc1cc(CNC(=O)CCCC/C=C/C(C)C)ccc1O
REMARK SMILES IDX 10 1 8 2 7 3 9 5 6 6 5 7 3 8 21 9 4 10 20 11 19 12 2 13 1 14
REMARK SMILES IDX 22 15 11 17 12 18 13 19 14 20 15 21 16 22 17 23 18 24
REMARK H PARENT 7 4 22 16
REMARK Flexibility Score: inf
ROOT
ATOM      1  C   UNL     1      77.950  84.217  64.716  1.00  0.00     0.100 C 
ENDROOT
BRANCH   1   2
ATOM      2  C   UNL     1      77.226  82.978  65.061  1.00  0.00     0.220 C 
ATOM      3  N   UNL     1      76.307  82.452  64.203  1.00  0.00    -0.352 N 
ATOM      4  H   UNL     1      76.161  82.984  63.357  1.00  0.00     0.163 HD
ATOM      5  O   UNL     1      77.497  82.418  66.151  1.00  0.00    -0.275 OA
BRANCH   3   6
ATOM      6  C   UNL     1      75.578  81.245  64.429  1.00  0.00     0.151 C 
BRANCH   6   7
ATOM      7  C   UNL     1      74.114  81.452  64.265  1.00  0.00    -0.025 A 
ATOM      8  C   UNL     1      72.128  82.890  64.495  1.00  0.00     0.160 A 
ATOM      9  C   UNL     1      71.326  81.872  63.940  1.00  0.00     0.157 A 
ATOM     10  C   UNL     1      73.512  82.670  64.654  1.00  0.00     0.056 A 
ATOM     11  C   UNL     1      71.908  80.645  63.565  1.00  0.00     0.050 A 
ATOM     12  C   UNL     1      73.293  80.439  63.717  1.00  0.00     0.009 A 
BRANCH   8  13
ATOM     13  O   UNL     1      71.555  84.061  64.922  1.00  0.00    -0.493 OA
ATOM     14  C   UNL     1      72.216  85.246  64.443  1.00  0.00     0.278 C 
ENDBRANCH   8  13
BRANCH   9  15
ATOM     15  O   UNL     1      69.992  82.056  63.761  1.00  0.00    -0.504 OA
ATOM     16  H   UNL     1      69.784  82.003  62.825  1.00  0.00     0.293 HD
ENDBRANCH   9  15
ENDBRANCH   6   7
ENDBRANCH   3   6
ENDBRANCH   1   2
BRANCH   1  17
ATOM     17  C   UNL     1      77.016  85.256  64.040  1.00  0.00     0.010 C 
BRANCH  17  18
ATOM     18  C   UNL     1      76.303  86.185  65.063  1.00  0.00     0.005 C 
BRANCH  18  19
ATOM     19  C   UNL     1      77.218  87.341  65.549  1.00  0.00     0.027 C 
BRANCH  19  20
ATOM     20  C   UNL     1      77.188  87.491  66.996  1.00  0.00    -0.031 C 
ATOM     21  C   UNL     1      77.812  86.664  67.855  1.00  0.00    -0.028 C 
BRANCH  21  22
ATOM     22  C   UNL     1      77.784  86.845  69.307  1.00  0.00     0.005 C 
ATOM     23  C   UNL     1      76.602  87.744  69.766  1.00  0.00     0.012 C 
ATOM     24  C   UNL     1      77.740  85.468  70.018  1.00  0.00     0.012 C 
ENDBRANCH  21  22
ENDBRANCH  19  20
ENDBRANCH  18  19
ENDBRANCH  17  18
ENDBRANCH   1  17
TORSDOF 10
ENDMDL
MODEL 8
REMARK VINA RESULT:    -5.701     29.933     32.408
REMARK INTER + INTRA:          -9.594
REMARK INTER:                  -8.488
REMARK INTRA:                  -1.105
REMARK UNBOUND:                -0.726
REMARK SMILES COc1cc(CNC(=O)CCCC/C=C/C(C)C)ccc1O
REMARK SMILES IDX 10 1 8 2 7 3 9 5 6 6 5 7 3 8 21 9 4 10 20 11 19 12 2 13 1 14
REMARK SMILES IDX 22 15 11 17 12 18 13 19 14 20 15 21 16 22 17 23 18 24
REMARK H PARENT 7 4 22 16
REMARK Flexibility Score: inf
ROOT
ATOM      1  C   UNL     1      64.545  81.772  70.527  1.00  0.00     0.100 C 
ENDROOT
BRANCH   1   2
ATOM      2  C   UNL     1      64.117  83.124  70.119  1.00  0.00     0.220 C 
ATOM      3  N   UNL     1      62.829  83.357  69.740  1.00  0.00    -0.352 N 
ATOM      4  H   UNL     1      62.230  82.543  69.742  1.00  0.00     0.163 HD
ATOM      5  O   UNL     1      64.964  84.050  70.154  1.00  0.00    -0.275 OA
BRANCH   3   6
ATOM      6  C   UNL     1      62.308  84.631  69.358  1.00  0.00     0.151 C 
BRANCH   6   7
ATOM      7  C   UNL     1      61.281  85.112  70.322  1.00  0.00    -0.025 A 
ATOM      8  C   UNL     1      60.401  85.219  72.619  1.00  0.00     0.160 A 
ATOM      9  C   UNL     1      59.341  86.037  72.176  1.00  0.00     0.157 A 
ATOM     10  C   UNL     1      61.359  84.763  71.689  1.00  0.00     0.056 A 
ATOM     11  C   UNL     1      59.240  86.377  70.813  1.00  0.00     0.050 A 
ATOM     12  C   UNL     1      60.207  85.926  69.893  1.00  0.00     0.009 A 
BRANCH   8  13
ATOM     13  O   UNL     1      60.468  84.831  73.933  1.00  0.00    -0.493 OA
ATOM     14  C   UNL     1      61.263  85.699  74.762  1.00  0.00     0.278 C 
ENDBRANCH   8  13
BRANCH   9  15
ATOM     15  O   UNL     1      58.411  86.503  73.048  1.00  0.00    -0.504 OA
ATOM     16  H   UNL     1      57.718  85.848  73.159  1.00  0.00     0.293 HD
ENDBRANCH   9  15
ENDBRANCH   6   7
ENDBRANCH   3   6
ENDBRANCH   1   2
BRANCH   1  17
ATOM     17  C   UNL     1      64.450  81.583  72.065  1.00  0.00     0.010 C 
BRANCH  17  18
ATOM     18  C   UNL     1      62.986  81.593  72.588  1.00  0.00     0.005 C 
BRANCH  18  19
ATOM     19  C   UNL     1      62.895  81.245  74.098  1.00  0.00     0.027 C 
BRANCH  19  20
ATOM     20  C   UNL     1      63.026  82.424  74.940  1.00  0.00    -0.031 C 
ATOM     21  C   UNL     1      64.133  82.735  75.639  1.00  0.00    -0.028 C 
BRANCH  21  22
ATOM     22  C   UNL     1      64.248  83.937  76.464  1.00  0.00     0.005 C 
ATOM     23  C   UNL     1      63.113  84.038  77.520  1.00  0.00     0.012 C 
ATOM     24  C   UNL     1      65.641  83.989  77.144  1.00  0.00     0.012 C 
ENDBRANCH  21  22
ENDBRANCH  19  20
ENDBRANCH  18  19
ENDBRANCH  17  18
ENDBRANCH   1  17
TORSDOF 10
ENDMDL
MODEL 9
REMARK VINA RESULT:    -5.682     20.928     23.853
REMARK INTER + INTRA:          -9.564
REMARK INTER:                  -8.655
REMARK INTRA:                  -0.909
REMARK UNBOUND:                -0.726
REMARK SMILES COc1cc(CNC(=O)CCCC/C=C/C(C)C)ccc1O
REMARK SMILES IDX 10 1 8 2 7 3 9 5 6 6 5 7 3 8 21 9 4 10 20 11 19 12 2 13 1 14
REMARK SMILES IDX 22 15 11 17 12 18 13 19 14 20 15 21 16 22 17 23 18 24
REMARK H PARENT 7 4 22 16
REMARK Flexibility Score: inf
ROOT
ATOM      1  C   UNL     1      74.500  80.952  64.472  1.00  0.00     0.100 C 
ENDROOT
BRANCH   1   2
ATOM      2  C   UNL     1      75.829  81.578  64.326  1.00  0.00     0.220 C 
ATOM      3  N   UNL     1      76.014  82.889  64.650  1.00  0.00    -0.352 N 
ATOM      4  H   UNL     1      75.184  83.373  64.962  1.00  0.00     0.163 HD
ATOM      5  O   UNL     1      76.778  80.865  63.921  1.00  0.00    -0.275 OA
BRANCH   3   6
ATOM      6  C   UNL     1      77.263  83.578  64.576  1.00  0.00     0.151 C 
BRANCH   6   7
ATOM      7  C   UNL     1      77.555  84.317  65.834  1.00  0.00    -0.025 A 
ATOM      8  C   UNL     1      77.636  86.433  67.090  1.00  0.00     0.160 A 
ATOM      9  C   UNL     1      78.088  85.740  68.231  1.00  0.00     0.157 A 
ATOM     10  C   UNL     1      77.376  85.717  65.903  1.00  0.00     0.056 A 
ATOM     11  C   UNL     1      78.289  84.346  68.172  1.00  0.00     0.050 A 
ATOM     12  C   UNL     1      78.016  83.638  66.986  1.00  0.00     0.009 A 
BRANCH   8  13
ATOM     13  O   UNL     1      77.502  87.798  67.123  1.00  0.00    -0.493 OA
ATOM     14  C   UNL     1      76.139  88.252  67.215  1.00  0.00     0.278 C 
ENDBRANCH   8  13
BRANCH   9  15
ATOM     15  O   UNL     1      78.335  86.397  69.394  1.00  0.00    -0.504 OA
ATOM     16  H   UNL     1      77.587  86.960  69.609  1.00  0.00     0.293 HD
ENDBRANCH   9  15
ENDBRANCH   6   7
ENDBRANCH   3   6
ENDBRANCH   1   2
BRANCH   1  17
ATOM     17  C   UNL     1      73.751  80.877  63.114  1.00  0.00     0.010 C 
BRANCH  17  18
ATOM     18  C   UNL     1      72.222  80.651  63.279  1.00  0.00     0.005 C 
BRANCH  18  19
ATOM     19  C   UNL     1      71.408  81.960  63.093  1.00  0.00     0.027 C 
BRANCH  19  20
ATOM     20  C   UNL     1      70.860  82.447  64.350  1.00  0.00    -0.031 C 
ATOM     21  C   UNL     1      71.584  83.068  65.300  1.00  0.00    -0.028 C 
BRANCH  21  22
ATOM     22  C   UNL     1      71.008  83.568  66.548  1.00  0.00     0.005 C 
ATOM     23  C   UNL     1      70.216  82.471  67.312  1.00  0.00     0.012 C 
ATOM     24  C   UNL     1      72.119  84.174  67.445  1.00  0.00     0.012 C 
ENDBRANCH  21  22
ENDBRANCH  19  20
ENDBRANCH  18  19
ENDBRANCH  17  18
ENDBRANCH   1  17
TORSDOF 10
ENDMDL
MODEL 10
REMARK VINA RESULT:    -5.624      6.400     10.436
REMARK INTER + INTRA:          -9.474
REMARK INTER:                  -8.562
REMARK INTRA:                  -0.912
REMARK UNBOUND:                -0.726
REMARK SMILES COc1cc(CNC(=O)CCCC/C=C/C(C)C)ccc1O
REMARK SMILES IDX 10 1 8 2 7 3 9 5 6 6 5 7 3 8 21 9 4 10 20 11 19 12 2 13 1 14
REMARK SMILES IDX 22 15 11 17 12 18 13 19 14 20 15 21 16 22 17 23 18 24
REMARK H PARENT 7 4 22 16
REMARK Flexibility Score: inf
ROOT
ATOM      1  C   UNL     1      94.274  97.755  76.307  1.00  0.00     0.100 C 
ENDROOT
BRANCH   1   2
ATOM      2  C   UNL     1      95.527  97.962  77.058  1.00  0.00     0.220 C 
ATOM      3  N   UNL     1      95.506  98.097  78.414  1.00  0.00    -0.352 N 
ATOM      4  H   UNL     1      94.586  98.066  78.831  1.00  0.00     0.163 HD
ATOM      5  O   UNL     1      96.605  97.987  76.417  1.00  0.00    -0.275 OA
BRANCH   3   6
ATOM      6  C   UNL     1      96.662  98.269  79.235  1.00  0.00     0.151 C 
BRANCH   6   7
ATOM      7  C   UNL     1      96.388  97.896  80.649  1.00  0.00    -0.025 A 
ATOM      8  C   UNL     1      97.069  97.877  83.015  1.00  0.00     0.160 A 
ATOM      9  C   UNL     1      95.874  97.210  83.355  1.00  0.00     0.157 A 
ATOM     10  C   UNL     1      97.316  98.211  81.667  1.00  0.00     0.056 A 
ATOM     11  C   UNL     1      94.948  96.872  82.348  1.00  0.00     0.050 A 
ATOM     12  C   UNL     1      95.198  97.221  81.006  1.00  0.00     0.009 A 
BRANCH   8  13
ATOM     13  O   UNL     1      98.003  98.149  83.982  1.00  0.00    -0.493 OA
ATOM     14  C   UNL     1      99.313  98.446  83.466  1.00  0.00     0.278 C 
ENDBRANCH   8  13
BRANCH   9  15
ATOM     15  O   UNL     1      95.599  96.885  84.645  1.00  0.00    -0.504 OA
ATOM     16  H   UNL     1      95.969  96.022  84.844  1.00  0.00     0.293 HD
ENDBRANCH   9  15
ENDBRANCH   6   7
ENDBRANCH   3   6
ENDBRANCH   1   2
BRANCH   1  17
ATOM     17  C   UNL     1      94.155  96.297  75.785  1.00  0.00     0.010 C 
BRANCH  17  18
ATOM     18  C   UNL     1      94.166  95.243  76.927  1.00  0.00     0.005 C 
BRANCH  18  19
ATOM     19  C   UNL     1      93.048  95.495  77.974  1.00  0.00     0.027 C 
BRANCH  19  20
ATOM     20  C   UNL     1      91.871  94.675  77.728  1.00  0.00    -0.031 C 
ATOM     21  C   UNL     1      90.707  95.148  77.248  1.00  0.00    -0.028 C 
BRANCH  21  22
ATOM     22  C   UNL     1      89.542  94.302  76.989  1.00  0.00     0.005 C 
ATOM     23  C   UNL     1      89.735  93.403  75.736  1.00  0.00     0.012 C 
ATOM     24  C   UNL     1      89.214  93.445  78.239  1.00  0.00     0.012 C 
ENDBRANCH  21  22
ENDBRANCH  19  20
ENDBRANCH  18  19
ENDBRANCH  17  18
ENDBRANCH   1  17
TORSDOF 10
ENDMDL
