MODEL 1
REMARK VINA RESULT:    -6.459      0.000      0.000
REMARK INTER + INTRA:         -10.754
REMARK INTER:                 -10.046
REMARK INTRA:                  -0.709
REMARK UNBOUND:                -0.709
REMARK SMILES CCCCC/C=C/C(=O)CCc1ccc(O)c(OC)c1
REMARK SMILES IDX 6 1 7 2 8 3 9 4 10 5 11 6 12 7 17 8 20 9 15 10 14 11 13 12
REMARK SMILES IDX 18 13 19 14 16 15 5 17 4 18 3 19 2 20 1 21
REMARK H PARENT 16 16
REMARK Flexibility Score: inf
ROOT
ATOM      1  C   UNL     1      94.097  94.447  77.232  1.00  0.00    -0.023 C 
ATOM      2  C   UNL     1      93.458  93.800  76.250  1.00  0.00     0.043 C 
ENDROOT
BRANCH   2   3
ATOM      3  C   UNL     1      92.091  94.226  75.847  1.00  0.00     0.155 C 
ATOM      4  O   UNL     1      91.523  95.176  76.383  1.00  0.00    -0.295 OA
BRANCH   3   5
ATOM      5  C   UNL     1      91.411  93.396  74.776  1.00  0.00     0.085 C 
BRANCH   5   6
ATOM      6  C   UNL     1      90.006  92.973  75.209  1.00  0.00     0.044 C 
BRANCH   6   7
ATOM      7  C   UNL     1      90.016  91.858  76.228  1.00  0.00    -0.044 A 
ATOM      8  C   UNL     1      89.983  89.513  76.737  1.00  0.00     0.160 A 
ATOM      9  C   UNL     1      89.973  90.542  75.795  1.00  0.00     0.054 A 
ATOM     10  C   UNL     1      90.035  89.813  78.098  1.00  0.00     0.157 A 
ATOM     11  C   UNL     1      90.077  91.143  78.518  1.00  0.00     0.050 A 
ATOM     12  C   UNL     1      90.067  92.172  77.576  1.00  0.00     0.008 A 
BRANCH   8  13
ATOM     13  O   UNL     1      89.940  88.219  76.314  1.00  0.00    -0.493 OA
ATOM     14  C   UNL     1      91.166  87.643  75.866  1.00  0.00     0.278 C 
ENDBRANCH   8  13
BRANCH  10  15
ATOM     15  O   UNL     1      90.045  88.817  79.027  1.00  0.00    -0.504 OA
ATOM     16  H   UNL     1      90.887  88.336  78.950  1.00  0.00     0.293 HD
ENDBRANCH  10  15
ENDBRANCH   6   7
ENDBRANCH   5   6
ENDBRANCH   3   5
ENDBRANCH   2   3
BRANCH   1  17
ATOM     17  C   UNL     1      95.476  94.078  77.697  1.00  0.00     0.027 C 
BRANCH  17  18
ATOM     18  C   UNL     1      95.592  93.985  79.222  1.00  0.00     0.004 C 
BRANCH  18  19
ATOM     19  C   UNL     1      95.627  95.348  79.920  1.00  0.00     0.000 C 
BRANCH  19  20
ATOM     20  C   UNL     1      95.359  95.208  81.419  1.00  0.00    -0.003 C 
ATOM     21  C   UNL     1      95.857  93.874  81.952  1.00  0.00     0.004 C 
ENDBRANCH  19  20
ENDBRANCH  18  19
ENDBRANCH  17  18
ENDBRANCH   1  17
TORSDOF 10
ENDMDL
MODEL 2
REMARK VINA RESULT:    -6.371      0.958      2.054
REMARK INTER + INTRA:         -10.618
REMARK INTER:                  -9.791
REMARK INTRA:                  -0.827
REMARK UNBOUND:                -0.709
REMARK SMILES CCCCC/C=C/C(=O)CCc1ccc(O)c(OC)c1
REMARK SMILES IDX 6 1 7 2 8 3 9 4 10 5 11 6 12 7 17 8 20 9 15 10 14 11 13 12
REMARK SMILES IDX 18 13 19 14 16 15 5 17 4 18 3 19 2 20 1 21
REMARK H PARENT 16 16
REMARK Flexibility Score: inf
ROOT
ATOM      1  C   UNL     1      93.811  94.404  76.629  1.00  0.00    -0.023 C 
ATOM      2  C   UNL     1      92.744  93.596  76.600  1.00  0.00     0.043 C 
ENDROOT
BRANCH   2   3
ATOM      3  C   UNL     1      91.504  94.031  75.901  1.00  0.00     0.155 C 
ATOM      4  O   UNL     1      90.752  94.877  76.380  1.00  0.00    -0.295 OA
BRANCH   3   5
ATOM      5  C   UNL     1      91.188  93.337  74.591  1.00  0.00     0.085 C 
BRANCH   5   6
ATOM      6  C   UNL     1      89.938  92.463  74.712  1.00  0.00     0.044 C 
BRANCH   6   7
ATOM      7  C   UNL     1      90.218  91.123  75.350  1.00  0.00    -0.044 A 
ATOM      8  C   UNL     1      90.105  89.669  77.255  1.00  0.00     0.160 A 
ATOM      9  C   UNL     1      89.847  90.907  76.667  1.00  0.00     0.054 A 
ATOM     10  C   UNL     1      90.731  88.663  76.519  1.00  0.00     0.157 A 
ATOM     11  C   UNL     1      91.099  88.896  75.193  1.00  0.00     0.050 A 
ATOM     12  C   UNL     1      90.841  90.135  74.605  1.00  0.00     0.008 A 
BRANCH   8  13
ATOM     13  O   UNL     1      89.741  89.454  78.551  1.00  0.00    -0.493 OA
ATOM     14  C   UNL     1      90.231  90.375  79.523  1.00  0.00     0.278 C 
ENDBRANCH   8  13
BRANCH  10  15
ATOM     15  O   UNL     1      90.988  87.450  77.082  1.00  0.00    -0.504 OA
ATOM     16  H   UNL     1      90.144  87.060  77.367  1.00  0.00     0.293 HD
ENDBRANCH  10  15
ENDBRANCH   6   7
ENDBRANCH   5   6
ENDBRANCH   3   5
ENDBRANCH   2   3
BRANCH   1  17
ATOM     17  C   UNL     1      95.097  94.040  77.312  1.00  0.00     0.027 C 
BRANCH  17  18
ATOM     18  C   UNL     1      95.243  94.675  78.699  1.00  0.00     0.004 C 
BRANCH  18  19
ATOM     19  C   UNL     1      95.499  93.659  79.816  1.00  0.00     0.000 C 
BRANCH  19  20
ATOM     20  C   UNL     1      96.006  94.348  81.083  1.00  0.00    -0.003 C 
ATOM     21  C   UNL     1      95.275  95.657  81.336  1.00  0.00     0.004 C 
ENDBRANCH  19  20
ENDBRANCH  18  19
ENDBRANCH  17  18
ENDBRANCH   1  17
TORSDOF 10
ENDMDL
MODEL 3
REMARK VINA RESULT:    -6.158      1.709      2.600
REMARK INTER + INTRA:         -10.286
REMARK INTER:                  -9.555
REMARK INTRA:                  -0.731
REMARK UNBOUND:                -0.709
REMARK SMILES CCCCC/C=C/C(=O)CCc1ccc(O)c(OC)c1
REMARK SMILES IDX 6 1 7 2 8 3 9 4 10 5 11 6 12 7 17 8 20 9 15 10 14 11 13 12
REMARK SMILES IDX 18 13 19 14 16 15 5 17 4 18 3 19 2 20 1 21
REMARK H PARENT 16 16
REMARK Flexibility Score: inf
ROOT
ATOM      1  C   UNL     1      93.284  94.295  77.179  1.00  0.00    -0.023 C 
ATOM      2  C   UNL     1      92.228  93.475  77.128  1.00  0.00     0.043 C 
ENDROOT
BRANCH   2   3
ATOM      3  C   UNL     1      91.124  93.745  76.168  1.00  0.00     0.155 C 
ATOM      4  O   UNL     1      90.237  94.561  76.411  1.00  0.00    -0.295 OA
BRANCH   3   5
ATOM      5  C   UNL     1      91.119  92.923  74.894  1.00  0.00     0.085 C 
BRANCH   5   6
ATOM      6  C   UNL     1      89.911  91.987  74.841  1.00  0.00     0.044 C 
BRANCH   6   7
ATOM      7  C   UNL     1      90.046  90.800  75.766  1.00  0.00    -0.044 A 
ATOM      8  C   UNL     1      90.807  88.560  76.168  1.00  0.00     0.160 A 
ATOM      9  C   UNL     1      90.682  89.655  75.313  1.00  0.00     0.054 A 
ATOM     10  C   UNL     1      90.295  88.623  77.463  1.00  0.00     0.157 A 
ATOM     11  C   UNL     1      89.656  89.783  77.905  1.00  0.00     0.050 A 
ATOM     12  C   UNL     1      89.531  90.878  77.050  1.00  0.00     0.008 A 
BRANCH   8  13
ATOM     13  O   UNL     1      91.432  87.433  75.725  1.00  0.00    -0.493 OA
ATOM     14  C   UNL     1      91.129  87.001  74.400  1.00  0.00     0.278 C 
ENDBRANCH   8  13
BRANCH  10  15
ATOM     15  O   UNL     1      90.411  87.561  78.307  1.00  0.00    -0.504 OA
ATOM     16  H   UNL     1      89.870  86.832  77.957  1.00  0.00     0.293 HD
ENDBRANCH  10  15
ENDBRANCH   6   7
ENDBRANCH   5   6
ENDBRANCH   3   5
ENDBRANCH   2   3
BRANCH   1  17
ATOM     17  C   UNL     1      94.437  94.092  78.119  1.00  0.00     0.027 C 
BRANCH  17  18
ATOM     18  C   UNL     1      95.626  95.011  77.820  1.00  0.00     0.004 C 
BRANCH  18  19
ATOM     19  C   UNL     1      96.524  94.503  76.687  1.00  0.00     0.000 C 
BRANCH  19  20
ATOM     20  C   UNL     1      97.202  95.664  75.958  1.00  0.00    -0.003 C 
ATOM     21  C   UNL     1      96.527  95.958  74.628  1.00  0.00     0.004 C 
ENDBRANCH  19  20
ENDBRANCH  18  19
ENDBRANCH  17  18
ENDBRANCH   1  17
TORSDOF 10
ENDMDL
MODEL 4
REMARK VINA RESULT:    -6.096     12.459     15.240
REMARK INTER + INTRA:         -10.190
REMARK INTER:                  -8.379
REMARK INTRA:                  -1.812
REMARK UNBOUND:                -0.709
REMARK SMILES CCCCC/C=C/C(=O)CCc1ccc(O)c(OC)c1
REMARK SMILES IDX 6 1 7 2 8 3 9 4 10 5 11 6 12 7 17 8 20 9 15 10 14 11 13 12
REMARK SMILES IDX 18 13 19 14 16 15 5 17 4 18 3 19 2 20 1 21
REMARK H PARENT 16 16
REMARK Flexibility Score: inf
ROOT
ATOM      1  C   UNL     1      83.232  89.750  88.814  1.00  0.00    -0.023 C 
ATOM      2  C   UNL     1      81.951  89.813  89.196  1.00  0.00     0.043 C 
ENDROOT
BRANCH   2   3
ATOM      3  C   UNL     1      81.462  88.944  90.301  1.00  0.00     0.155 C 
ATOM      4  O   UNL     1      81.636  89.238  91.483  1.00  0.00    -0.295 OA
BRANCH   3   5
ATOM      5  C   UNL     1      80.785  87.650  89.895  1.00  0.00     0.085 C 
BRANCH   5   6
ATOM      6  C   UNL     1      79.975  87.827  88.610  1.00  0.00     0.044 C 
BRANCH   6   7
ATOM      7  C   UNL     1      80.525  87.025  87.454  1.00  0.00    -0.044 A 
ATOM      8  C   UNL     1      80.376  86.311  85.168  1.00  0.00     0.160 A 
ATOM      9  C   UNL     1      79.867  87.051  86.235  1.00  0.00     0.054 A 
ATOM     10  C   UNL     1      81.536  85.555  85.333  1.00  0.00     0.157 A 
ATOM     11  C   UNL     1      82.187  85.539  86.567  1.00  0.00     0.050 A 
ATOM     12  C   UNL     1      81.678  86.279  87.634  1.00  0.00     0.008 A 
BRANCH   8  13
ATOM     13  O   UNL     1      79.730  86.335  83.968  1.00  0.00    -0.493 OA
ATOM     14  C   UNL     1      80.121  87.346  83.041  1.00  0.00     0.278 C 
ENDBRANCH   8  13
BRANCH  10  15
ATOM     15  O   UNL     1      82.043  84.829  84.298  1.00  0.00    -0.504 OA
ATOM     16  H   UNL     1      81.853  85.303  83.470  1.00  0.00     0.293 HD
ENDBRANCH  10  15
ENDBRANCH   6   7
ENDBRANCH   5   6
ENDBRANCH   3   5
ENDBRANCH   2   3
BRANCH   1  17
ATOM     17  C   UNL     1      83.802  90.591  87.709  1.00  0.00     0.027 C 
BRANCH  17  18
ATOM     18  C   UNL     1      84.624  89.783  86.700  1.00  0.00     0.004 C 
BRANCH  18  19
ATOM     19  C   UNL     1      84.094  89.871  85.265  1.00  0.00     0.000 C 
BRANCH  19  20
ATOM     20  C   UNL     1      82.825  89.036  85.094  1.00  0.00    -0.003 C 
ATOM     21  C   UNL     1      81.588  89.915  85.003  1.00  0.00     0.004 C 
ENDBRANCH  19  20
ENDBRANCH  18  19
ENDBRANCH  17  18
ENDBRANCH   1  17
TORSDOF 10
ENDMDL
MODEL 5
REMARK VINA RESULT:    -5.927     12.494     15.468
REMARK INTER + INTRA:          -9.928
REMARK INTER:                  -7.900
REMARK INTRA:                  -2.028
REMARK UNBOUND:                -0.709
REMARK SMILES CCCCC/C=C/C(=O)CCc1ccc(O)c(OC)c1
REMARK SMILES IDX 6 1 7 2 8 3 9 4 10 5 11 6 12 7 17 8 20 9 15 10 14 11 13 12
REMARK SMILES IDX 18 13 19 14 16 15 5 17 4 18 3 19 2 20 1 21
REMARK H PARENT 16 16
REMARK Flexibility Score: inf
ROOT
ATOM      1  C   UNL     1      81.850  89.638  84.367  1.00  0.00    -0.023 C 
ATOM      2  C   UNL     1      83.060  89.190  84.723  1.00  0.00     0.043 C 
ENDROOT
BRANCH   2   3
ATOM      3  C   UNL     1      84.128  90.156  85.097  1.00  0.00     0.155 C 
ATOM      4  O   UNL     1      85.190  90.220  84.480  1.00  0.00    -0.295 OA
BRANCH   3   5
ATOM      5  C   UNL     1      83.862  91.021  86.313  1.00  0.00     0.085 C 
BRANCH   5   6
ATOM      6  C   UNL     1      83.829  90.185  87.593  1.00  0.00     0.044 C 
BRANCH   6   7
ATOM      7  C   UNL     1      82.425  89.911  88.080  1.00  0.00    -0.044 A 
ATOM      8  C   UNL     1      80.905  88.604  89.399  1.00  0.00     0.160 A 
ATOM      9  C   UNL     1      82.202  88.856  88.950  1.00  0.00     0.054 A 
ATOM     10  C   UNL     1      79.850  89.410  88.972  1.00  0.00     0.157 A 
ATOM     11  C   UNL     1      80.091  90.468  88.095  1.00  0.00     0.050 A 
ATOM     12  C   UNL     1      81.387  90.720  87.646  1.00  0.00     0.008 A 
BRANCH   8  13
ATOM     13  O   UNL     1      80.683  87.568  90.254  1.00  0.00    -0.493 OA
ATOM     14  C   UNL     1      80.924  87.807  91.640  1.00  0.00     0.278 C 
ENDBRANCH   8  13
BRANCH  10  15
ATOM     15  O   UNL     1      78.580  89.174  89.404  1.00  0.00    -0.504 OA
ATOM     16  H   UNL     1      78.165  90.028  89.613  1.00  0.00     0.293 HD
ENDBRANCH  10  15
ENDBRANCH   6   7
ENDBRANCH   5   6
ENDBRANCH   3   5
ENDBRANCH   2   3
BRANCH   1  17
ATOM     17  C   UNL     1      80.720  88.729  83.977  1.00  0.00     0.027 C 
BRANCH  17  18
ATOM     18  C   UNL     1      80.013  88.098  85.180  1.00  0.00     0.004 C 
BRANCH  18  19
ATOM     19  C   UNL     1      80.217  86.583  85.286  1.00  0.00     0.000 C 
BRANCH  19  20
ATOM     20  C   UNL     1      80.934  86.213  86.585  1.00  0.00    -0.003 C 
ATOM     21  C   UNL     1      82.406  85.921  86.345  1.00  0.00     0.004 C 
ENDBRANCH  19  20
ENDBRANCH  18  19
ENDBRANCH  17  18
ENDBRANCH   1  17
TORSDOF 10
ENDMDL
MODEL 6
REMARK VINA RESULT:    -5.876     11.548     14.752
REMARK INTER + INTRA:          -9.849
REMARK INTER:                  -8.725
REMARK INTRA:                  -1.123
REMARK UNBOUND:                -0.709
REMARK SMILES CCCCC/C=C/C(=O)CCc1ccc(O)c(OC)c1
REMARK SMILES IDX 6 1 7 2 8 3 9 4 10 5 11 6 12 7 17 8 20 9 15 10 14 11 13 12
REMARK SMILES IDX 18 13 19 14 16 15 5 17 4 18 3 19 2 20 1 21
REMARK H PARENT 16 16
REMARK Flexibility Score: inf
ROOT
ATOM      1  C   UNL     1      81.796  89.849  84.756  1.00  0.00    -0.023 C 
ATOM      2  C   UNL     1      82.899  89.109  84.926  1.00  0.00     0.043 C 
ENDROOT
BRANCH   2   3
ATOM      3  C   UNL     1      84.213  89.775  85.140  1.00  0.00     0.155 C 
ATOM      4  O   UNL     1      85.179  89.170  85.600  1.00  0.00    -0.295 OA
BRANCH   3   5
ATOM      5  C   UNL     1      84.284  91.253  84.809  1.00  0.00     0.085 C 
BRANCH   5   6
ATOM      6  C   UNL     1      84.974  92.039  85.925  1.00  0.00     0.044 C 
BRANCH   6   7
ATOM      7  C   UNL     1      84.003  92.594  86.940  1.00  0.00    -0.044 A 
ATOM      8  C   UNL     1      82.288  92.238  88.581  1.00  0.00     0.160 A 
ATOM      9  C   UNL     1      83.185  91.725  87.643  1.00  0.00     0.054 A 
ATOM     10  C   UNL     1      82.221  93.613  88.803  1.00  0.00     0.157 A 
ATOM     11  C   UNL     1      83.052  94.476  88.086  1.00  0.00     0.050 A 
ATOM     12  C   UNL     1      83.948  93.963  87.148  1.00  0.00     0.008 A 
BRANCH   8  13
ATOM     13  O   UNL     1      81.483  91.385  89.274  1.00  0.00    -0.493 OA
ATOM     14  C   UNL     1      81.112  90.171  88.624  1.00  0.00     0.278 C 
ENDBRANCH   8  13
BRANCH  10  15
ATOM     15  O   UNL     1      81.351  94.126  89.716  1.00  0.00    -0.504 OA
ATOM     16  H   UNL     1      81.729  94.001  90.603  1.00  0.00     0.293 HD
ENDBRANCH  10  15
ENDBRANCH   6   7
ENDBRANCH   5   6
ENDBRANCH   3   5
ENDBRANCH   2   3
BRANCH   1  17
ATOM     17  C   UNL     1      80.435  89.255  84.535  1.00  0.00     0.027 C 
BRANCH  17  18
ATOM     18  C   UNL     1      80.447  88.071  83.561  1.00  0.00     0.004 C 
BRANCH  18  19
ATOM     19  C   UNL     1      79.895  86.775  84.164  1.00  0.00     0.000 C 
BRANCH  19  20
ATOM     20  C   UNL     1      80.185  86.697  85.664  1.00  0.00    -0.003 C 
ATOM     21  C   UNL     1      81.378  85.801  85.955  1.00  0.00     0.004 C 
ENDBRANCH  19  20
ENDBRANCH  18  19
ENDBRANCH  17  18
ENDBRANCH   1  17
TORSDOF 10
ENDMDL
MODEL 7
REMARK VINA RESULT:    -5.841     12.439     15.563
REMARK INTER + INTRA:          -9.793
REMARK INTER:                  -8.173
REMARK INTRA:                  -1.620
REMARK UNBOUND:                -0.709
REMARK SMILES CCCCC/C=C/C(=O)CCc1ccc(O)c(OC)c1
REMARK SMILES IDX 6 1 7 2 8 3 9 4 10 5 11 6 12 7 17 8 20 9 15 10 14 11 13 12
REMARK SMILES IDX 18 13 19 14 16 15 5 17 4 18 3 19 2 20 1 21
REMARK H PARENT 16 16
REMARK Flexibility Score: inf
ROOT
ATOM      1  C   UNL     1      81.600  89.779  84.755  1.00  0.00    -0.023 C 
ATOM      2  C   UNL     1      82.818  89.228  84.832  1.00  0.00     0.043 C 
ENDROOT
BRANCH   2   3
ATOM      3  C   UNL     1      83.993  90.070  85.187  1.00  0.00     0.155 C 
ATOM      4  O   UNL     1      85.049  90.005  84.562  1.00  0.00    -0.295 OA
BRANCH   3   5
ATOM      5  C   UNL     1      83.836  90.975  86.393  1.00  0.00     0.085 C 
BRANCH   5   6
ATOM      6  C   UNL     1      83.799  90.168  87.692  1.00  0.00     0.044 C 
BRANCH   6   7
ATOM      7  C   UNL     1      82.393  89.892  88.171  1.00  0.00    -0.044 A 
ATOM      8  C   UNL     1      80.289  90.696  88.999  1.00  0.00     0.160 A 
ATOM      9  C   UNL     1      81.587  90.951  88.557  1.00  0.00     0.054 A 
ATOM     10  C   UNL     1      79.814  89.385  89.051  1.00  0.00     0.157 A 
ATOM     11  C   UNL     1      80.639  88.329  88.660  1.00  0.00     0.050 A 
ATOM     12  C   UNL     1      81.937  88.585  88.217  1.00  0.00     0.008 A 
BRANCH   8  13
ATOM     13  O   UNL     1      79.494  91.735  89.379  1.00  0.00    -0.493 OA
ATOM     14  C   UNL     1      80.136  92.854  89.987  1.00  0.00     0.278 C 
ENDBRANCH   8  13
BRANCH  10  15
ATOM     15  O   UNL     1      78.549  89.123  89.481  1.00  0.00    -0.504 OA
ATOM     16  H   UNL     1      77.939  89.257  88.735  1.00  0.00     0.293 HD
ENDBRANCH  10  15
ENDBRANCH   6   7
ENDBRANCH   5   6
ENDBRANCH   3   5
ENDBRANCH   2   3
BRANCH   1  17
ATOM     17  C   UNL     1      80.367  88.999  84.403  1.00  0.00     0.027 C 
BRANCH  17  18
ATOM     18  C   UNL     1      80.604  87.965  83.298  1.00  0.00     0.004 C 
BRANCH  18  19
ATOM     19  C   UNL     1      80.345  86.522  83.743  1.00  0.00     0.000 C 
BRANCH  19  20
ATOM     20  C   UNL     1      80.214  86.428  85.263  1.00  0.00    -0.003 C 
ATOM     21  C   UNL     1      81.424  85.751  85.887  1.00  0.00     0.004 C 
ENDBRANCH  19  20
ENDBRANCH  18  19
ENDBRANCH  17  18
ENDBRANCH   1  17
TORSDOF 10
ENDMDL
MODEL 8
REMARK VINA RESULT:    -5.722     26.840     28.811
REMARK INTER + INTRA:          -9.608
REMARK INTER:                  -8.866
REMARK INTRA:                  -0.742
REMARK UNBOUND:                -0.709
REMARK SMILES CCCCC/C=C/C(=O)CCc1ccc(O)c(OC)c1
REMARK SMILES IDX 6 1 7 2 8 3 9 4 10 5 11 6 12 7 17 8 20 9 15 10 14 11 13 12
REMARK SMILES IDX 18 13 19 14 16 15 5 17 4 18 3 19 2 20 1 21
REMARK H PARENT 16 16
REMARK Flexibility Score: inf
ROOT
ATOM      1  C   UNL     1      84.777  64.002  78.366  1.00  0.00    -0.023 C 
ATOM      2  C   UNL     1      84.202  63.601  77.225  1.00  0.00     0.043 C 
ENDROOT
BRANCH   2   3
ATOM      3  C   UNL     1      83.959  64.581  76.132  1.00  0.00     0.155 C 
ATOM      4  O   UNL     1      84.380  64.399  74.992  1.00  0.00    -0.295 OA
BRANCH   3   5
ATOM      5  C   UNL     1      83.210  65.844  76.511  1.00  0.00     0.085 C 
BRANCH   5   6
ATOM      6  C   UNL     1      81.698  65.652  76.383  1.00  0.00     0.044 C 
BRANCH   6   7
ATOM      7  C   UNL     1      81.212  65.747  74.956  1.00  0.00    -0.044 A 
ATOM      8  C   UNL     1      80.986  67.000  72.922  1.00  0.00     0.160 A 
ATOM      9  C   UNL     1      81.434  66.913  74.240  1.00  0.00     0.054 A 
ATOM     10  C   UNL     1      80.322  65.922  72.337  1.00  0.00     0.157 A 
ATOM     11  C   UNL     1      80.106  64.755  73.071  1.00  0.00     0.050 A 
ATOM     12  C   UNL     1      80.554  64.668  74.389  1.00  0.00     0.008 A 
BRANCH   8  13
ATOM     13  O   UNL     1      81.203  68.145  72.215  1.00  0.00    -0.493 OA
ATOM     14  C   UNL     1      82.443  68.253  71.521  1.00  0.00     0.278 C 
ENDBRANCH   8  13
BRANCH  10  15
ATOM     15  O   UNL     1      79.880  65.995  71.051  1.00  0.00    -0.504 OA
ATOM     16  H   UNL     1      80.222  65.225  70.566  1.00  0.00     0.293 HD
ENDBRANCH  10  15
ENDBRANCH   6   7
ENDBRANCH   5   6
ENDBRANCH   3   5
ENDBRANCH   2   3
BRANCH   1  17
ATOM     17  C   UNL     1      85.056  63.076  79.514  1.00  0.00     0.027 C 
BRANCH  17  18
ATOM     18  C   UNL     1      85.298  63.813  80.836  1.00  0.00     0.004 C 
BRANCH  18  19
ATOM     19  C   UNL     1      86.086  65.117  80.676  1.00  0.00     0.000 C 
BRANCH  19  20
ATOM     20  C   UNL     1      86.739  65.531  81.996  1.00  0.00    -0.003 C 
ATOM     21  C   UNL     1      85.752  65.463  83.151  1.00  0.00     0.004 C 
ENDBRANCH  19  20
ENDBRANCH  18  19
ENDBRANCH  17  18
ENDBRANCH   1  17
TORSDOF 10
ENDMDL
MODEL 9
REMARK VINA RESULT:    -5.720      3.479      5.315
REMARK INTER + INTRA:          -9.606
REMARK INTER:                  -8.978
REMARK INTRA:                  -0.628
REMARK UNBOUND:                -0.709
REMARK SMILES CCCCC/C=C/C(=O)CCc1ccc(O)c(OC)c1
REMARK SMILES IDX 6 1 7 2 8 3 9 4 10 5 11 6 12 7 17 8 20 9 15 10 14 11 13 12
REMARK SMILES IDX 18 13 19 14 16 15 5 17 4 18 3 19 2 20 1 21
REMARK H PARENT 16 16
REMARK Flexibility Score: inf
ROOT
ATOM      1  C   UNL     1      94.491  96.056  74.950  1.00  0.00    -0.023 C 
ATOM      2  C   UNL     1      94.573  94.833  75.488  1.00  0.00     0.043 C 
ENDROOT
BRANCH   2   3
ATOM      3  C   UNL     1      93.444  94.301  76.299  1.00  0.00     0.155 C 
ATOM      4  O   UNL     1      93.562  94.062  77.499  1.00  0.00    -0.295 OA
BRANCH   3   5
ATOM      5  C   UNL     1      92.152  94.020  75.556  1.00  0.00     0.085 C 
BRANCH   5   6
ATOM      6  C   UNL     1      92.324  92.872  74.559  1.00  0.00     0.044 C 
BRANCH   6   7
ATOM      7  C   UNL     1      91.007  92.294  74.097  1.00  0.00    -0.044 A 
ATOM      8  C   UNL     1      89.300  90.618  74.279  1.00  0.00     0.160 A 
ATOM      9  C   UNL     1      90.516  91.151  74.706  1.00  0.00     0.054 A 
ATOM     10  C   UNL     1      88.591  91.234  73.249  1.00  0.00     0.157 A 
ATOM     11  C   UNL     1      89.099  92.385  72.645  1.00  0.00     0.050 A 
ATOM     12  C   UNL     1      90.315  92.918  73.072  1.00  0.00     0.008 A 
BRANCH   8  13
ATOM     13  O   UNL     1      88.815  89.493  74.877  1.00  0.00    -0.493 OA
ATOM     14  C   UNL     1      89.679  88.359  74.923  1.00  0.00     0.278 C 
ENDBRANCH   8  13
BRANCH  10  15
ATOM     15  O   UNL     1      87.402  90.724  72.823  1.00  0.00    -0.504 OA
ATOM     16  H   UNL     1      87.572  89.861  72.406  1.00  0.00     0.293 HD
ENDBRANCH  10  15
ENDBRANCH   6   7
ENDBRANCH   5   6
ENDBRANCH   3   5
ENDBRANCH   2   3
BRANCH   1  17
ATOM     17  C   UNL     1      95.585  96.663  74.121  1.00  0.00     0.027 C 
BRANCH  17  18
ATOM     18  C   UNL     1      95.235  98.057  73.591  1.00  0.00     0.004 C 
BRANCH  18  19
ATOM     19  C   UNL     1      93.892  98.115  72.856  1.00  0.00     0.000 C 
BRANCH  19  20
ATOM     20  C   UNL     1      93.313  99.530  72.875  1.00  0.00    -0.003 C 
ATOM     21  C   UNL     1      92.818  99.948  71.499  1.00  0.00     0.004 C 
ENDBRANCH  19  20
ENDBRANCH  18  19
ENDBRANCH  17  18
ENDBRANCH   1  17
TORSDOF 10
ENDMDL
MODEL 10
REMARK VINA RESULT:    -5.675      1.935      3.215
REMARK INTER + INTRA:          -9.535
REMARK INTER:                  -8.990
REMARK INTRA:                  -0.545
REMARK UNBOUND:                -0.709
REMARK SMILES CCCCC/C=C/C(=O)CCc1ccc(O)c(OC)c1
REMARK SMILES IDX 6 1 7 2 8 3 9 4 10 5 11 6 12 7 17 8 20 9 15 10 14 11 13 12
REMARK SMILES IDX 18 13 19 14 16 15 5 17 4 18 3 19 2 20 1 21
REMARK H PARENT 16 16
REMARK Flexibility Score: inf
ROOT
ATOM      1  C   UNL     1      97.166  95.288  77.029  1.00  0.00    -0.023 C 
ATOM      2  C   UNL     1      95.883  94.918  77.124  1.00  0.00     0.043 C 
ENDROOT
BRANCH   2   3
ATOM      3  C   UNL     1      95.243  94.169  76.009  1.00  0.00     0.155 C 
ATOM      4  O   UNL     1      95.836  93.938  74.958  1.00  0.00    -0.295 OA
BRANCH   3   5
ATOM      5  C   UNL     1      93.800  93.751  76.217  1.00  0.00     0.085 C 
BRANCH   5   6
ATOM      6  C   UNL     1      93.016  93.792  74.904  1.00  0.00     0.044 C 
BRANCH   6   7
ATOM      7  C   UNL     1      91.823  92.866  74.903  1.00  0.00    -0.044 A 
ATOM      8  C   UNL     1      90.473  91.221  76.013  1.00  0.00     0.160 A 
ATOM      9  C   UNL     1      91.575  92.077  76.015  1.00  0.00     0.054 A 
ATOM     10  C   UNL     1      89.634  91.166  74.901  1.00  0.00     0.157 A 
ATOM     11  C   UNL     1      89.897  91.966  73.788  1.00  0.00     0.050 A 
ATOM     12  C   UNL     1      90.999  92.822  73.790  1.00  0.00     0.008 A 
BRANCH   8  13
ATOM     13  O   UNL     1      90.227  90.445  77.105  1.00  0.00    -0.493 OA
ATOM     14  C   UNL     1      90.284  91.081  78.380  1.00  0.00     0.278 C 
ENDBRANCH   8  13
BRANCH  10  15
ATOM     15  O   UNL     1      88.555  90.335  74.887  1.00  0.00    -0.504 OA
ATOM     16  H   UNL     1      88.464  89.937  75.770  1.00  0.00     0.293 HD
ENDBRANCH  10  15
ENDBRANCH   6   7
ENDBRANCH   5   6
ENDBRANCH   3   5
ENDBRANCH   2   3
BRANCH   1  17
ATOM     17  C   UNL     1      97.884  96.045  78.109  1.00  0.00     0.027 C 
BRANCH  17  18
ATOM     18  C   UNL     1      96.965  96.983  78.899  1.00  0.00     0.004 C 
BRANCH  18  19
ATOM     19  C   UNL     1      96.804  96.588  80.370  1.00  0.00     0.000 C 
BRANCH  19  20
ATOM     20  C   UNL     1      95.795  95.448  80.528  1.00  0.00    -0.003 C 
ATOM     21  C   UNL     1      95.418  95.236  81.985  1.00  0.00     0.004 C 
ENDBRANCH  19  20
ENDBRANCH  18  19
ENDBRANCH  17  18
ENDBRANCH   1  17
TORSDOF 10
ENDMDL
