MODEL 1
REMARK VINA RESULT:    -7.235      0.000      0.000
REMARK INTER + INTRA:         -13.339
REMARK INTER:                 -12.734
REMARK INTRA:                  -0.605
REMARK UNBOUND:                -0.605
REMARK SMILES C=C(C)[C@]12C[C@@H](C)[C@@]34O[C@](Cc5ccccc5)(O[C@@H]1[C@@H]3C=C(COC(=O)Cc1ccc(O)c(OC)c1)C[C@]1(O)C(=O)C(C)=C[C@@H]41)O2
REMARK SMILES IDX 23 1 22 2 21 3 20 4 9 5 8 6 10 7 6 8 18 9 46 10 19 11 5 12
REMARK SMILES IDX 7 13 4 14 45 15 38 16 44 17 40 18 42 20 41 21 43 22 39 23
REMARK SMILES IDX 11 25 12 26 13 27 17 28 14 29 16 30 15 31 2 32 3 33 1 34
REMARK SMILES IDX 37 35 24 37 25 38 26 39 27 40 28 41 36 42 29 43 33 44 30 45
REMARK SMILES IDX 31 46 34 47 35 48 32 49
REMARK H PARENT 39 24 32 50
REMARK Flexibility Score: 90.00
ROOT
ATOM      1  C   UNL     1      92.648 101.635  71.844  1.00  0.00     0.264 C 
ENDROOT
BRANCH   1   2
ATOM      2  C   UNL     1      94.022 101.007  71.818  1.00  0.00    -0.033 C 
ATOM      3  C   UNL     1      94.440 100.292  72.881  1.00  0.00    -0.015 C 
BRANCH   3   4
ATOM      4  C   UNL     1      95.787  99.634  73.132  1.00  0.00     0.078 C 
ATOM      5  O   UNL     1      95.618  97.309  72.304  1.00  0.00    -0.319 OA
ATOM      6  C   UNL     1      96.310  98.577  72.088  1.00  0.00     0.095 C 
ATOM      7  C   UNL     1      95.460  96.919  73.681  1.00  0.00     0.289 C 
ATOM      8  C   UNL     1      97.861  98.377  72.344  1.00  0.00     0.023 C 
ATOM      9  O   UNL     1      94.762  97.915  74.424  1.00  0.00    -0.320 OA
ATOM     10  O   UNL     1      96.711  96.752  74.343  1.00  0.00    -0.313 OA
ATOM     11  C   UNL     1      95.778  98.925  74.509  1.00  0.00     0.170 C 
ATOM     12  C   UNL     1      98.215  98.530  73.855  1.00  0.00     0.049 C 
ATOM     13  C   UNL     1      98.454  97.063  71.810  1.00  0.00     0.011 C 
ATOM     14  C   UNL     1      97.060  98.090  74.755  1.00  0.00     0.122 C 
BRANCH   6  15
ATOM     15  C   UNL     1      95.919  98.992  70.640  1.00  0.00     0.086 C 
ATOM     16  C   UNL     1      96.081 100.486  70.293  1.00  0.00     0.140 CG0
ATOM     17  C   UNL     1      96.559  98.291  69.475  1.00  0.00    -0.010 C 
ATOM     18  C   UNL     1      96.485 100.440  68.835  1.00  0.00     0.190 C 
ATOM     19  G   UNL     1      94.792 101.275  70.519  1.00  0.00     0.000 G0
ATOM     20  C   UNL     1      96.864  99.072  68.434  1.00  0.00    -0.008 C 
ATOM     21  O   UNL     1      96.546 101.404  68.086  1.00  0.00    -0.291 OA
ATOM     22  C   UNL     1      97.417  98.721  67.110  1.00  0.00     0.048 C 
BRANCH  16  23
ATOM     23  O   UNL     1      97.186 101.106  70.931  1.00  0.00    -0.381 OA
ATOM     24  H   UNL     1      96.852 101.648  71.665  1.00  0.00     0.212 HD
ENDBRANCH  16  23
ENDBRANCH   6  15
BRANCH   7  25
ATOM     25  C   UNL     1      94.689  95.615  73.722  1.00  0.00     0.135 C 
BRANCH  25  26
ATOM     26  C   UNL     1      94.078  95.361  75.077  1.00  0.00    -0.040 A 
ATOM     27  C   UNL     1      93.039  96.172  75.536  1.00  0.00     0.004 A 
ATOM     28  C   UNL     1      94.550  94.316  75.871  1.00  0.00     0.004 A 
ATOM     29  C   UNL     1      92.473  95.937  76.790  1.00  0.00     0.000 A 
ATOM     30  C   UNL     1      93.984  94.082  77.125  1.00  0.00     0.000 A 
ATOM     31  C   UNL     1      92.946  94.893  77.584  1.00  0.00     0.000 A 
ENDBRANCH  25  26
ENDBRANCH   7  25
BRANCH  14  32
ATOM     32  C   UNL     1      97.438  98.055  76.199  1.00  0.00    -0.046 C 
ATOM     33  C   UNL     1      98.262  99.205  76.697  1.00  0.00     0.042 C 
ATOM     34  C   UNL     1      97.062  97.051  77.007  1.00  0.00     0.010 C 
ENDBRANCH  14  32
ENDBRANCH   3   4
BRANCH   2  35
ATOM     35  C   UNL     1      94.775 101.277  70.529  1.00  0.00     0.078 CG0
ATOM     36  G   UNL     1      96.075 100.507  70.305  1.00  0.00     0.000 G0
ENDBRANCH   2  35
ENDBRANCH   1   2
BRANCH   1  37
ATOM     37  O   UNL     1      91.675 100.624  71.992  1.00  0.00    -0.461 OA
BRANCH  37  38
ATOM     38  C   UNL     1      90.471 100.841  71.363  1.00  0.00     0.310 C 
ATOM     39  O   UNL     1      90.042 101.936  71.026  1.00  0.00    -0.252 OA
BRANCH  38  40
ATOM     40  C   UNL     1      89.764  99.522  71.157  1.00  0.00     0.158 C 
BRANCH  40  41
ATOM     41  C   UNL     1      89.589  99.171  69.702  1.00  0.00    -0.033 A 
ATOM     42  C   UNL     1      89.229 100.158  68.784  1.00  0.00     0.054 A 
ATOM     43  C   UNL     1      89.788  97.859  69.272  1.00  0.00     0.008 A 
ATOM     44  C   UNL     1      89.067  99.833  67.437  1.00  0.00     0.160 A 
ATOM     45  C   UNL     1      89.626  97.533  67.925  1.00  0.00     0.050 A 
ATOM     46  C   UNL     1      89.265  98.520  67.008  1.00  0.00     0.157 A 
BRANCH  44  47
ATOM     47  O   UNL     1      88.714 100.805  66.551  1.00  0.00    -0.493 OA
ATOM     48  C   UNL     1      87.394 101.334  66.660  1.00  0.00     0.278 C 
ENDBRANCH  44  47
BRANCH  46  49
ATOM     49  O   UNL     1      89.111  98.191  65.696  1.00  0.00    -0.504 OA
ATOM     50  H   UNL     1      88.799  97.272  65.634  1.00  0.00     0.293 HD
ENDBRANCH  46  49
ENDBRANCH  40  41
ENDBRANCH  38  40
ENDBRANCH  37  38
ENDBRANCH   1  37
TORSDOF 11
ENDMDL
MODEL 2
REMARK VINA RESULT:    -6.955     16.986     21.436
REMARK INTER + INTRA:         -12.846
REMARK INTER:                  -9.854
REMARK INTRA:                  -2.992
REMARK UNBOUND:                -0.605
REMARK SMILES C=C(C)[C@]12C[C@@H](C)[C@@]34O[C@](Cc5ccccc5)(O[C@@H]1[C@@H]3C=C(COC(=O)Cc1ccc(O)c(OC)c1)C[C@]1(O)C(=O)C(C)=C[C@@H]41)O2
REMARK SMILES IDX 23 1 22 2 21 3 20 4 9 5 8 6 10 7 6 8 18 9 46 10 19 11 5 12
REMARK SMILES IDX 7 13 4 14 45 15 38 16 44 17 40 18 42 20 41 21 43 22 39 23
REMARK SMILES IDX 11 25 12 26 13 27 17 28 14 29 16 30 15 31 2 32 3 33 1 34
REMARK SMILES IDX 37 35 24 37 25 38 26 39 27 40 28 41 36 42 29 43 33 44 30 45
REMARK SMILES IDX 31 46 34 47 35 48 32 49
REMARK H PARENT 39 24 32 50
REMARK Flexibility Score: 90.00
ROOT
ATOM      1  C   UNL     1     103.607  79.137  74.802  1.00  0.00     0.264 C 
ENDROOT
BRANCH   1   2
ATOM      2  C   UNL     1     102.127  79.072  74.505  1.00  0.00    -0.033 C 
ATOM      3  C   UNL     1     101.297  79.957  75.093  1.00  0.00    -0.015 C 
BRANCH   3   4
ATOM      4  C   UNL     1      99.782  80.053  75.022  1.00  0.00     0.078 C 
ATOM      5  O   UNL     1      99.244  81.603  73.172  1.00  0.00    -0.319 OA
ATOM      6  C   UNL     1      99.107  80.216  73.609  1.00  0.00     0.095 C 
ATOM      7  C   UNL     1      99.002  82.597  74.186  1.00  0.00     0.289 C 
ATOM      8  C   UNL     1      97.570  79.866  73.768  1.00  0.00     0.023 C 
ATOM      9  O   UNL     1      99.869  82.417  75.303  1.00  0.00    -0.320 OA
ATOM     10  O   UNL     1      97.679  82.523  74.711  1.00  0.00    -0.313 OA
ATOM     11  C   UNL     1      99.289  81.240  75.886  1.00  0.00     0.170 C 
ATOM     12  C   UNL     1      97.032  80.281  75.172  1.00  0.00     0.049 C 
ATOM     13  C   UNL     1      96.647  80.436  72.679  1.00  0.00     0.011 C 
ATOM     14  C   UNL     1      97.770  81.501  75.724  1.00  0.00     0.122 C 
BRANCH   6  15
ATOM     15  C   UNL     1      99.873  79.392  72.534  1.00  0.00     0.086 C 
ATOM     16  C   UNL     1     100.324  77.978  72.955  1.00  0.00     0.140 CG0
ATOM     17  C   UNL     1      99.241  79.171  71.188  1.00  0.00    -0.010 C 
ATOM     18  C   UNL     1     100.198  77.198  71.664  1.00  0.00     0.190 C 
ATOM     19  G   UNL     1     101.749  77.969  73.508  1.00  0.00     0.000 G0
ATOM     20  C   UNL     1      99.429  77.957  70.660  1.00  0.00    -0.008 C 
ATOM     21  O   UNL     1     100.624  76.068  71.475  1.00  0.00    -0.291 OA
ATOM     22  C   UNL     1      99.031  77.421  69.342  1.00  0.00     0.048 C 
BRANCH  16  23
ATOM     23  O   UNL     1      99.423  77.326  73.834  1.00  0.00    -0.381 OA
ATOM     24  H   UNL     1      98.886  76.703  73.317  1.00  0.00     0.212 HD
ENDBRANCH  16  23
ENDBRANCH   6  15
BRANCH   7  25
ATOM     25  C   UNL     1      99.230  83.965  73.576  1.00  0.00     0.135 C 
BRANCH  25  26
ATOM     26  C   UNL     1     100.501  84.018  72.767  1.00  0.00    -0.040 A 
ATOM     27  C   UNL     1     100.444  83.959  71.374  1.00  0.00     0.004 A 
ATOM     28  C   UNL     1     101.734  84.128  73.410  1.00  0.00     0.004 A 
ATOM     29  C   UNL     1     101.621  84.009  70.625  1.00  0.00     0.000 A 
ATOM     30  C   UNL     1     102.910  84.178  72.661  1.00  0.00     0.000 A 
ATOM     31  C   UNL     1     102.853  84.118  71.268  1.00  0.00     0.000 A 
ENDBRANCH  25  26
ENDBRANCH   7  25
BRANCH  14  32
ATOM     32  C   UNL     1      97.154  82.026  76.979  1.00  0.00    -0.046 C 
ATOM     33  C   UNL     1      95.743  82.523  76.867  1.00  0.00     0.042 C 
ATOM     34  C   UNL     1      97.824  82.053  78.141  1.00  0.00     0.010 C 
ENDBRANCH  14  32
ENDBRANCH   3   4
BRANCH   2  35
ATOM     35  C   UNL     1     101.764  77.968  73.530  1.00  0.00     0.078 CG0
ATOM     36  G   UNL     1     100.354  77.992  72.941  1.00  0.00     0.000 G0
ENDBRANCH   2  35
ENDBRANCH   1   2
BRANCH   1  37
ATOM     37  O   UNL     1     103.950  78.100  75.695  1.00  0.00    -0.461 OA
BRANCH  37  38
ATOM     38  C   UNL     1     104.275  78.482  76.976  1.00  0.00     0.310 C 
ATOM     39  O   UNL     1     105.026  79.404  77.265  1.00  0.00    -0.252 OA
BRANCH  38  40
ATOM     40  C   UNL     1     103.563  77.589  77.965  1.00  0.00     0.158 C 
BRANCH  40  41
ATOM     41  C   UNL     1     102.094  77.903  78.089  1.00  0.00    -0.033 A 
ATOM     42  C   UNL     1     101.150  77.069  77.489  1.00  0.00     0.054 A 
ATOM     43  C   UNL     1     101.679  79.026  78.804  1.00  0.00     0.008 A 
ATOM     44  C   UNL     1      99.790  77.360  77.604  1.00  0.00     0.160 A 
ATOM     45  C   UNL     1     100.319  79.317  78.919  1.00  0.00     0.050 A 
ATOM     46  C   UNL     1      99.375  78.484  78.319  1.00  0.00     0.157 A 
BRANCH  44  47
ATOM     47  O   UNL     1      98.878  76.539  77.014  1.00  0.00    -0.493 OA
ATOM     48  C   UNL     1      99.331  75.246  76.615  1.00  0.00     0.278 C 
ENDBRANCH  44  47
BRANCH  46  49
ATOM     49  O   UNL     1      98.051  78.777  78.439  1.00  0.00    -0.504 OA
ATOM     50  H   UNL     1      97.720  79.102  77.584  1.00  0.00     0.293 HD
ENDBRANCH  46  49
ENDBRANCH  40  41
ENDBRANCH  38  40
ENDBRANCH  37  38
ENDBRANCH   1  37
TORSDOF 11
ENDMDL
MODEL 3
REMARK VINA RESULT:    -6.698     29.414     33.275
REMARK INTER + INTRA:         -12.394
REMARK INTER:                 -10.752
REMARK INTRA:                  -1.642
REMARK UNBOUND:                -0.605
REMARK SMILES C=C(C)[C@]12C[C@@H](C)[C@@]34O[C@](Cc5ccccc5)(O[C@@H]1[C@@H]3C=C(COC(=O)Cc1ccc(O)c(OC)c1)C[C@]1(O)C(=O)C(C)=C[C@@H]41)O2
REMARK SMILES IDX 23 1 22 2 21 3 20 4 9 5 8 6 10 7 6 8 18 9 46 10 19 11 5 12
REMARK SMILES IDX 7 13 4 14 45 15 38 16 44 17 40 18 42 20 41 21 43 22 39 23
REMARK SMILES IDX 11 25 12 26 13 27 17 28 14 29 16 30 15 31 2 32 3 33 1 34
REMARK SMILES IDX 37 35 24 37 25 38 26 39 27 40 28 41 36 42 29 43 33 44 30 45
REMARK SMILES IDX 31 46 34 47 35 48 32 49
REMARK H PARENT 39 24 32 50
REMARK Flexibility Score: 90.00
ROOT
ATOM      1  C   UNL     1      87.711  69.677  75.173  1.00  0.00     0.264 C 
ENDROOT
BRANCH   1   2
ATOM      2  C   UNL     1      86.883  68.531  75.706  1.00  0.00    -0.033 C 
ATOM      3  C   UNL     1      85.675  68.281  75.162  1.00  0.00    -0.015 C 
BRANCH   3   4
ATOM      4  C   UNL     1      84.631  67.252  75.562  1.00  0.00     0.078 C 
ATOM      5  O   UNL     1      85.054  65.229  74.203  1.00  0.00    -0.319 OA
ATOM      6  C   UNL     1      85.043  65.733  75.574  1.00  0.00     0.095 C 
ATOM      7  C   UNL     1      83.949  65.652  73.381  1.00  0.00     0.289 C 
ATOM      8  C   UNL     1      83.951  64.946  76.412  1.00  0.00     0.023 C 
ATOM      9  O   UNL     1      83.872  67.074  73.311  1.00  0.00    -0.320 OA
ATOM     10  O   UNL     1      82.693  65.224  73.901  1.00  0.00    -0.313 OA
ATOM     11  C   UNL     1      83.397  67.367  74.634  1.00  0.00     0.170 C 
ATOM     12  C   UNL     1      82.537  65.584  76.248  1.00  0.00     0.049 C 
ATOM     13  C   UNL     1      83.866  63.437  76.133  1.00  0.00     0.011 C 
ATOM     14  C   UNL     1      82.365  66.236  74.876  1.00  0.00     0.122 C 
BRANCH   6  15
ATOM     15  C   UNL     1      86.510  65.563  76.063  1.00  0.00     0.086 C 
ATOM     16  C   UNL     1      86.928  66.424  77.273  1.00  0.00     0.140 CG0
ATOM     17  C   UNL     1      87.014  64.192  76.419  1.00  0.00    -0.010 C 
ATOM     18  C   UNL     1      87.901  65.518  77.998  1.00  0.00     0.190 C 
ATOM     19  G   UNL     1      87.567  67.746  76.847  1.00  0.00     0.000 G0
ATOM     20  C   UNL     1      87.820  64.137  77.485  1.00  0.00    -0.008 C 
ATOM     21  O   UNL     1      88.627  65.853  78.922  1.00  0.00    -0.291 OA
ATOM     22  C   UNL     1      88.554  62.994  78.065  1.00  0.00     0.048 C 
BRANCH  16  23
ATOM     23  O   UNL     1      85.890  66.631  78.216  1.00  0.00    -0.381 OA
ATOM     24  H   UNL     1      85.585  67.550  78.140  1.00  0.00     0.212 HD
ENDBRANCH  16  23
ENDBRANCH   6  15
BRANCH   7  25
ATOM     25  C   UNL     1      84.143  65.081  71.992  1.00  0.00     0.135 C 
BRANCH  25  26
ATOM     26  C   UNL     1      83.055  65.519  71.043  1.00  0.00    -0.040 A 
ATOM     27  C   UNL     1      83.160  66.741  70.379  1.00  0.00     0.004 A 
ATOM     28  C   UNL     1      81.946  64.702  70.829  1.00  0.00     0.004 A 
ATOM     29  C   UNL     1      82.154  67.146  69.501  1.00  0.00     0.000 A 
ATOM     30  C   UNL     1      80.939  65.107  69.952  1.00  0.00     0.000 A 
ATOM     31  C   UNL     1      81.044  66.330  69.288  1.00  0.00     0.000 A 
ENDBRANCH  25  26
ENDBRANCH   7  25
BRANCH  14  32
ATOM     32  C   UNL     1      80.965  66.692  74.628  1.00  0.00    -0.046 C 
ATOM     33  C   UNL     1      79.880  65.881  75.273  1.00  0.00     0.042 C 
ATOM     34  C   UNL     1      80.691  67.765  73.871  1.00  0.00     0.010 C 
ENDBRANCH  14  32
ENDBRANCH   3   4
BRANCH   2  35
ATOM     35  C   UNL     1      87.565  67.778  76.833  1.00  0.00     0.078 CG0
ATOM     36  G   UNL     1      86.937  66.456  77.271  1.00  0.00     0.000 G0
ENDBRANCH   2  35
ENDBRANCH   1   2
BRANCH   1  37
ATOM     37  O   UNL     1      87.407  70.849  75.898  1.00  0.00    -0.461 OA
BRANCH  37  38
ATOM     38  C   UNL     1      87.857  72.032  75.359  1.00  0.00     0.310 C 
ATOM     39  O   UNL     1      89.024  72.401  75.350  1.00  0.00    -0.252 OA
BRANCH  38  40
ATOM     40  C   UNL     1      86.691  72.800  74.783  1.00  0.00     0.158 C 
BRANCH  40  41
ATOM     41  C   UNL     1      86.051  72.104  73.609  1.00  0.00    -0.033 A 
ATOM     42  C   UNL     1      86.835  71.691  72.531  1.00  0.00     0.054 A 
ATOM     43  C   UNL     1      84.676  71.873  73.600  1.00  0.00     0.008 A 
ATOM     44  C   UNL     1      86.243  71.048  71.445  1.00  0.00     0.160 A 
ATOM     45  C   UNL     1      84.084  71.229  72.514  1.00  0.00     0.050 A 
ATOM     46  C   UNL     1      84.866  70.817  71.436  1.00  0.00     0.157 A 
BRANCH  44  47
ATOM     47  O   UNL     1      87.018  70.649  70.398  1.00  0.00    -0.493 OA
ATOM     48  C   UNL     1      87.954  69.602  70.646  1.00  0.00     0.278 C 
ENDBRANCH  44  47
BRANCH  46  49
ATOM     49  O   UNL     1      84.277  70.188  70.381  1.00  0.00    -0.504 OA
ATOM     50  H   UNL     1      83.784  69.417  70.708  1.00  0.00     0.293 HD
ENDBRANCH  46  49
ENDBRANCH  40  41
ENDBRANCH  38  40
ENDBRANCH  37  38
ENDBRANCH   1  37
TORSDOF 11
ENDMDL
MODEL 4
REMARK VINA RESULT:    -6.530     28.712     32.845
REMARK INTER + INTRA:         -12.098
REMARK INTER:                 -11.159
REMARK INTRA:                  -0.939
REMARK UNBOUND:                -0.605
REMARK SMILES C=C(C)[C@]12C[C@@H](C)[C@@]34O[C@](Cc5ccccc5)(O[C@@H]1[C@@H]3C=C(COC(=O)Cc1ccc(O)c(OC)c1)C[C@]1(O)C(=O)C(C)=C[C@@H]41)O2
REMARK SMILES IDX 23 1 22 2 21 3 20 4 9 5 8 6 10 7 6 8 18 9 46 10 19 11 5 12
REMARK SMILES IDX 7 13 4 14 45 15 38 16 44 17 40 18 42 20 41 21 43 22 39 23
REMARK SMILES IDX 11 25 12 26 13 27 17 28 14 29 16 30 15 31 2 32 3 33 1 34
REMARK SMILES IDX 37 35 24 37 25 38 26 39 27 40 28 41 36 42 29 43 33 44 30 45
REMARK SMILES IDX 31 46 34 47 35 48 32 49
REMARK H PARENT 39 24 32 50
REMARK Flexibility Score: 90.00
ROOT
ATOM      1  C   UNL     1      87.510  69.808  74.859  1.00  0.00     0.264 C 
ENDROOT
BRANCH   1   2
ATOM      2  C   UNL     1      86.768  68.613  75.410  1.00  0.00    -0.033 C 
ATOM      3  C   UNL     1      85.566  68.288  74.892  1.00  0.00    -0.015 C 
BRANCH   3   4
ATOM      4  C   UNL     1      84.597  67.195  75.316  1.00  0.00     0.078 C 
ATOM      5  O   UNL     1      85.127  65.197  73.958  1.00  0.00    -0.319 OA
ATOM      6  C   UNL     1      85.107  65.706  75.327  1.00  0.00     0.095 C 
ATOM      7  C   UNL     1      83.983  65.543  73.154  1.00  0.00     0.289 C 
ATOM      8  C   UNL     1      84.083  64.855  76.187  1.00  0.00     0.023 C 
ATOM      9  O   UNL     1      83.813  66.956  73.079  1.00  0.00    -0.320 OA
ATOM     10  O   UNL     1      82.767  65.038  73.698  1.00  0.00    -0.313 OA
ATOM     11  C   UNL     1      83.342  67.225  74.409  1.00  0.00     0.170 C 
ATOM     12  C   UNL     1      82.628  65.399  76.046  1.00  0.00     0.049 C 
ATOM     13  C   UNL     1      84.092  63.342  75.916  1.00  0.00     0.011 C 
ATOM     14  C   UNL     1      82.391  66.031  74.674  1.00  0.00     0.122 C 
BRANCH   6  15
ATOM     15  C   UNL     1      86.591  65.634  75.790  1.00  0.00     0.086 C 
ATOM     16  C   UNL     1      86.973  66.526  76.989  1.00  0.00     0.140 CG0
ATOM     17  C   UNL     1      87.189  64.301  76.142  1.00  0.00    -0.010 C 
ATOM     18  C   UNL     1      88.015  65.688  77.700  1.00  0.00     0.190 C 
ATOM     19  G   UNL     1      87.516  67.884  76.548  1.00  0.00     0.000 G0
ATOM     20  C   UNL     1      88.015  64.303  77.194  1.00  0.00    -0.008 C 
ATOM     21  O   UNL     1      88.733  66.074  78.610  1.00  0.00    -0.291 OA
ATOM     22  C   UNL     1      88.831  63.212  77.765  1.00  0.00     0.048 C 
BRANCH  16  23
ATOM     23  O   UNL     1      85.940  66.669  77.950  1.00  0.00    -0.381 OA
ATOM     24  H   UNL     1      85.604  67.580  77.907  1.00  0.00     0.212 HD
ENDBRANCH  16  23
ENDBRANCH   6  15
BRANCH   7  25
ATOM     25  C   UNL     1      84.189  64.977  71.764  1.00  0.00     0.135 C 
BRANCH  25  26
ATOM     26  C   UNL     1      83.028  65.284  70.851  1.00  0.00    -0.040 A 
ATOM     27  C   UNL     1      82.987  66.495  70.159  1.00  0.00     0.004 A 
ATOM     28  C   UNL     1      81.998  64.358  70.697  1.00  0.00     0.004 A 
ATOM     29  C   UNL     1      81.914  66.779  69.314  1.00  0.00     0.000 A 
ATOM     30  C   UNL     1      80.924  64.642  69.852  1.00  0.00     0.000 A 
ATOM     31  C   UNL     1      80.883  65.853  69.161  1.00  0.00     0.000 A 
ENDBRANCH  25  26
ENDBRANCH   7  25
BRANCH  14  32
ATOM     32  C   UNL     1      80.959  66.394  74.449  1.00  0.00    -0.046 C 
ATOM     33  C   UNL     1      80.599  66.842  73.063  1.00  0.00     0.042 C 
ATOM     34  C   UNL     1      80.047  66.324  75.430  1.00  0.00     0.010 C 
ENDBRANCH  14  32
ENDBRANCH   3   4
BRANCH   2  35
ATOM     35  C   UNL     1      87.521  67.906  76.520  1.00  0.00     0.078 CG0
ATOM     36  G   UNL     1      86.972  66.559  76.989  1.00  0.00     0.000 G0
ENDBRANCH   2  35
ENDBRANCH   1   2
BRANCH   1  37
ATOM     37  O   UNL     1      87.041  70.981  75.490  1.00  0.00    -0.461 OA
BRANCH  37  38
ATOM     38  C   UNL     1      87.027  72.121  74.721  1.00  0.00     0.310 C 
ATOM     39  O   UNL     1      86.041  72.814  74.510  1.00  0.00    -0.252 OA
BRANCH  38  40
ATOM     40  C   UNL     1      88.413  72.383  74.181  1.00  0.00     0.158 C 
BRANCH  40  41
ATOM     41  C   UNL     1      89.259  73.214  75.111  1.00  0.00    -0.033 A 
ATOM     42  C   UNL     1      88.956  74.561  75.314  1.00  0.00     0.054 A 
ATOM     43  C   UNL     1      90.345  72.637  75.769  1.00  0.00     0.008 A 
ATOM     44  C   UNL     1      89.739  75.330  76.175  1.00  0.00     0.160 A 
ATOM     45  C   UNL     1      91.128  73.406  76.630  1.00  0.00     0.050 A 
ATOM     46  C   UNL     1      90.826  74.752  76.833  1.00  0.00     0.157 A 
BRANCH  44  47
ATOM     47  O   UNL     1      89.433  76.643  76.365  1.00  0.00    -0.493 OA
ATOM     48  C   UNL     1      89.829  77.555  75.341  1.00  0.00     0.278 C 
ENDBRANCH  44  47
BRANCH  46  49
ATOM     49  O   UNL     1      91.597  75.492  77.677  1.00  0.00    -0.504 OA
ATOM     50  H   UNL     1      92.355  74.957  77.965  1.00  0.00     0.293 HD
ENDBRANCH  46  49
ENDBRANCH  40  41
ENDBRANCH  38  40
ENDBRANCH  37  38
ENDBRANCH   1  37
TORSDOF 11
ENDMDL
MODEL 5
REMARK VINA RESULT:    -6.413     24.311     27.599
REMARK INTER + INTRA:         -11.892
REMARK INTER:                 -10.188
REMARK INTRA:                  -1.704
REMARK UNBOUND:                -0.605
REMARK SMILES C=C(C)[C@]12C[C@@H](C)[C@@]34O[C@](Cc5ccccc5)(O[C@@H]1[C@@H]3C=C(COC(=O)Cc1ccc(O)c(OC)c1)C[C@]1(O)C(=O)C(C)=C[C@@H]41)O2
REMARK SMILES IDX 23 1 22 2 21 3 20 4 9 5 8 6 10 7 6 8 18 9 46 10 19 11 5 12
REMARK SMILES IDX 7 13 4 14 45 15 38 16 44 17 40 18 42 20 41 21 43 22 39 23
REMARK SMILES IDX 11 25 12 26 13 27 17 28 14 29 16 30 15 31 2 32 3 33 1 34
REMARK SMILES IDX 37 35 24 37 25 38 26 39 27 40 28 41 36 42 29 43 33 44 30 45
REMARK SMILES IDX 31 46 34 47 35 48 32 49
REMARK H PARENT 39 24 32 50
REMARK Flexibility Score: 90.00
ROOT
ATOM      1  C   UNL     1      68.337  87.912  83.335  1.00  0.00     0.264 C 
ENDROOT
BRANCH   1   2
ATOM      2  C   UNL     1      68.837  89.337  83.390  1.00  0.00    -0.033 C 
ATOM      3  C   UNL     1      70.122  89.573  83.723  1.00  0.00    -0.015 C 
BRANCH   3   4
ATOM      4  C   UNL     1      70.840  90.897  83.922  1.00  0.00     0.078 C 
ATOM      5  O   UNL     1      71.858  91.498  81.749  1.00  0.00    -0.319 OA
ATOM      6  C   UNL     1      70.861  91.924  82.729  1.00  0.00     0.095 C 
ATOM      7  C   UNL     1      73.105  91.034  82.300  1.00  0.00     0.289 C 
ATOM      8  C   UNL     1      71.275  93.336  83.317  1.00  0.00     0.023 C 
ATOM      9  O   UNL     1      72.900  89.946  83.197  1.00  0.00    -0.320 OA
ATOM     10  O   UNL     1      73.768  92.040  83.060  1.00  0.00    -0.313 OA
ATOM     11  C   UNL     1      72.318  90.642  84.310  1.00  0.00     0.170 C 
ATOM     12  C   UNL     1      72.270  93.188  84.509  1.00  0.00     0.049 C 
ATOM     13  C   UNL     1      71.845  94.335  82.297  1.00  0.00     0.011 C 
ATOM     14  C   UNL     1      73.151  91.947  84.361  1.00  0.00     0.122 C 
BRANCH   6  15
ATOM     15  C   UNL     1      69.514  91.893  81.951  1.00  0.00     0.086 C 
ATOM     16  C   UNL     1      68.234  91.833  82.810  1.00  0.00     0.140 CG0
ATOM     17  C   UNL     1      69.214  92.977  80.954  1.00  0.00    -0.010 C 
ATOM     18  C   UNL     1      67.252  92.643  81.991  1.00  0.00     0.190 C 
ATOM     19  G   UNL     1      67.760  90.398  83.039  1.00  0.00     0.000 G0
ATOM     20  C   UNL     1      67.946  93.401  80.932  1.00  0.00    -0.008 C 
ATOM     21  O   UNL     1      66.050  92.716  82.194  1.00  0.00    -0.291 OA
ATOM     22  C   UNL     1      67.284  94.376  80.042  1.00  0.00     0.048 C 
BRANCH  16  23
ATOM     23  O   UNL     1      68.327  92.548  84.031  1.00  0.00    -0.381 OA
ATOM     24  H   UNL     1      68.328  93.498  83.831  1.00  0.00     0.212 HD
ENDBRANCH  16  23
ENDBRANCH   6  15
BRANCH   7  25
ATOM     25  C   UNL     1      73.996  90.594  81.156  1.00  0.00     0.135 C 
BRANCH  25  26
ATOM     26  C   UNL     1      74.709  91.758  80.515  1.00  0.00    -0.040 A 
ATOM     27  C   UNL     1      75.907  92.226  81.057  1.00  0.00     0.004 A 
ATOM     28  C   UNL     1      74.173  92.366  79.380  1.00  0.00     0.004 A 
ATOM     29  C   UNL     1      76.567  93.302  80.464  1.00  0.00     0.000 A 
ATOM     30  C   UNL     1      74.834  93.443  78.788  1.00  0.00     0.000 A 
ATOM     31  C   UNL     1      76.030  93.911  79.331  1.00  0.00     0.000 A 
ENDBRANCH  25  26
ENDBRANCH   7  25
BRANCH  14  32
ATOM     32  C   UNL     1      74.232  91.882  85.390  1.00  0.00    -0.046 C 
ATOM     33  C   UNL     1      75.640  91.888  84.875  1.00  0.00     0.042 C 
ATOM     34  C   UNL     1      73.958  91.823  86.703  1.00  0.00     0.010 C 
ENDBRANCH  14  32
ENDBRANCH   3   4
BRANCH   2  35
ATOM     35  C   UNL     1      67.770  90.356  83.036  1.00  0.00     0.078 CG0
ATOM     36  G   UNL     1      68.227  91.796  82.809  1.00  0.00     0.000 G0
ENDBRANCH   2  35
ENDBRANCH   1   2
BRANCH   1  37
ATOM     37  O   UNL     1      68.235  87.505  81.988  1.00  0.00    -0.461 OA
BRANCH  37  38
ATOM     38  C   UNL     1      67.251  86.586  81.703  1.00  0.00     0.310 C 
ATOM     39  O   UNL     1      67.353  85.377  81.858  1.00  0.00    -0.252 OA
BRANCH  38  40
ATOM     40  C   UNL     1      66.032  87.302  81.171  1.00  0.00     0.158 C 
BRANCH  40  41
ATOM     41  C   UNL     1      66.296  88.036  79.882  1.00  0.00    -0.033 A 
ATOM     42  C   UNL     1      66.589  87.321  78.719  1.00  0.00     0.054 A 
ATOM     43  C   UNL     1      66.249  89.429  79.850  1.00  0.00     0.008 A 
ATOM     44  C   UNL     1      66.833  88.000  77.526  1.00  0.00     0.160 A 
ATOM     45  C   UNL     1      66.494  90.109  78.656  1.00  0.00     0.050 A 
ATOM     46  C   UNL     1      66.786  89.395  77.495  1.00  0.00     0.157 A 
BRANCH  44  47
ATOM     47  O   UNL     1      67.118  87.292  76.398  1.00  0.00    -0.493 OA
ATOM     48  C   UNL     1      66.011  86.824  75.630  1.00  0.00     0.278 C 
ENDBRANCH  44  47
BRANCH  46  49
ATOM     49  O   UNL     1      67.022  90.069  76.335  1.00  0.00    -0.504 OA
ATOM     50  H   UNL     1      67.602  90.826  76.522  1.00  0.00     0.293 HD
ENDBRANCH  46  49
ENDBRANCH  40  41
ENDBRANCH  38  40
ENDBRANCH  37  38
ENDBRANCH   1  37
TORSDOF 11
ENDMDL
MODEL 6
REMARK VINA RESULT:    -6.175      1.573      2.013
REMARK INTER + INTRA:         -11.473
REMARK INTER:                 -10.513
REMARK INTRA:                  -0.960
REMARK UNBOUND:                -0.605
REMARK SMILES C=C(C)[C@]12C[C@@H](C)[C@@]34O[C@](Cc5ccccc5)(O[C@@H]1[C@@H]3C=C(COC(=O)Cc1ccc(O)c(OC)c1)C[C@]1(O)C(=O)C(C)=C[C@@H]41)O2
REMARK SMILES IDX 23 1 22 2 21 3 20 4 9 5 8 6 10 7 6 8 18 9 46 10 19 11 5 12
REMARK SMILES IDX 7 13 4 14 45 15 38 16 44 17 40 18 42 20 41 21 43 22 39 23
REMARK SMILES IDX 11 25 12 26 13 27 17 28 14 29 16 30 15 31 2 32 3 33 1 34
REMARK SMILES IDX 37 35 24 37 25 38 26 39 27 40 28 41 36 42 29 43 33 44 30 45
REMARK SMILES IDX 31 46 34 47 35 48 32 49
REMARK H PARENT 39 24 32 50
REMARK Flexibility Score: 90.00
ROOT
ATOM      1  C   UNL     1      94.606 101.666  71.462  1.00  0.00     0.264 C 
ENDROOT
BRANCH   1   2
ATOM      2  C   UNL     1      95.857 100.957  71.924  1.00  0.00    -0.033 C 
ATOM      3  C   UNL     1      95.842 100.289  73.095  1.00  0.00    -0.015 C 
BRANCH   3   4
ATOM      4  C   UNL     1      96.974  99.569  73.811  1.00  0.00     0.078 C 
ATOM      5  O   UNL     1      96.898  97.206  73.084  1.00  0.00    -0.319 OA
ATOM      6  C   UNL     1      97.723  98.411  73.052  1.00  0.00     0.095 C 
ATOM      7  C   UNL     1      96.265  96.925  74.348  1.00  0.00     0.289 C 
ATOM      8  C   UNL     1      99.082  98.136  73.818  1.00  0.00     0.023 C 
ATOM      9  O   UNL     1      95.445  98.013  74.767  1.00  0.00    -0.320 OA
ATOM     10  O   UNL     1      97.212  96.731  75.395  1.00  0.00    -0.313 OA
ATOM     11  C   UNL     1      96.456  98.963  75.138  1.00  0.00     0.170 C 
ATOM     12  C   UNL     1      98.932  98.375  75.352  1.00  0.00     0.049 C 
ATOM     13  C   UNL     1      99.709  96.754  73.574  1.00  0.00     0.011 C 
ATOM     14  C   UNL     1      97.513  98.071  75.835  1.00  0.00     0.122 C 
BRANCH   6  15
ATOM     15  C   UNL     1      97.864  98.744  71.538  1.00  0.00     0.086 C 
ATOM     16  C   UNL     1      98.245 100.200  71.195  1.00  0.00     0.140 CG0
ATOM     17  C   UNL     1      98.798  97.929  70.688  1.00  0.00    -0.010 C 
ATOM     18  C   UNL     1      99.102 100.029  69.959  1.00  0.00     0.190 C 
ATOM     19  G   UNL     1      97.017 101.073  70.940  1.00  0.00     0.000 G0
ATOM     20  C   UNL     1      99.487  98.618  69.773  1.00  0.00    -0.008 C 
ATOM     21  O   UNL     1      99.479 100.933  69.228  1.00  0.00    -0.291 OA
ATOM     22  C   UNL     1     100.418  98.144  68.728  1.00  0.00     0.048 C 
BRANCH  16  23
ATOM     23  O   UNL     1      99.121 100.800  72.134  1.00  0.00    -0.381 OA
ATOM     24  H   UNL     1     100.031 100.710  71.807  1.00  0.00     0.212 HD
ENDBRANCH  16  23
ENDBRANCH   6  15
BRANCH   7  25
ATOM     25  C   UNL     1      95.421  95.677  74.190  1.00  0.00     0.135 C 
BRANCH  25  26
ATOM     26  C   UNL     1      94.535  95.439  75.388  1.00  0.00    -0.040 A 
ATOM     27  C   UNL     1      94.938  94.553  76.387  1.00  0.00     0.004 A 
ATOM     28  C   UNL     1      93.315  96.106  75.497  1.00  0.00     0.004 A 
ATOM     29  C   UNL     1      94.119  94.333  77.496  1.00  0.00     0.000 A 
ATOM     30  C   UNL     1      92.497  95.886  76.605  1.00  0.00     0.000 A 
ATOM     31  C   UNL     1      92.899  94.999  77.604  1.00  0.00     0.000 A 
ENDBRANCH  25  26
ENDBRANCH   7  25
BRANCH  14  32
ATOM     32  C   UNL     1      97.392  98.116  77.324  1.00  0.00    -0.046 C 
ATOM     33  C   UNL     1      97.693  99.433  77.973  1.00  0.00     0.042 C 
ATOM     34  C   UNL     1      97.034  97.038  78.039  1.00  0.00     0.010 C 
ENDBRANCH  14  32
ENDBRANCH   3   4
BRANCH   2  35
ATOM     35  C   UNL     1      97.014 101.097  70.953  1.00  0.00     0.078 CG0
ATOM     36  G   UNL     1      98.229 100.198  71.179  1.00  0.00     0.000 G0
ENDBRANCH   2  35
ENDBRANCH   1   2
BRANCH   1  37
ATOM     37  O   UNL     1      93.639 101.624  72.489  1.00  0.00    -0.461 OA
BRANCH  37  38
ATOM     38  C   UNL     1      92.356 101.310  72.104  1.00  0.00     0.310 C 
ATOM     39  O   UNL     1      91.393 102.060  72.192  1.00  0.00    -0.252 OA
BRANCH  38  40
ATOM     40  C   UNL     1      92.322  99.901  71.560  1.00  0.00     0.158 C 
BRANCH  40  41
ATOM     41  C   UNL     1      91.255  99.700  70.515  1.00  0.00    -0.033 A 
ATOM     42  C   UNL     1      91.331 100.381  69.300  1.00  0.00     0.054 A 
ATOM     43  C   UNL     1      90.192  98.832  70.763  1.00  0.00     0.008 A 
ATOM     44  C   UNL     1      90.343 100.195  68.333  1.00  0.00     0.160 A 
ATOM     45  C   UNL     1      89.203  98.646  69.796  1.00  0.00     0.050 A 
ATOM     46  C   UNL     1      89.279  99.327  68.581  1.00  0.00     0.157 A 
BRANCH  44  47
ATOM     47  O   UNL     1      90.428 100.866  67.150  1.00  0.00    -0.493 OA
ATOM     48  C   UNL     1      89.504 101.933  66.943  1.00  0.00     0.278 C 
ENDBRANCH  44  47
BRANCH  46  49
ATOM     49  O   UNL     1      88.309  99.136  67.644  1.00  0.00    -0.504 OA
ATOM     50  H   UNL     1      88.593  99.541  66.808  1.00  0.00     0.293 HD
ENDBRANCH  46  49
ENDBRANCH  40  41
ENDBRANCH  38  40
ENDBRANCH  37  38
ENDBRANCH   1  37
TORSDOF 11
ENDMDL
MODEL 7
REMARK VINA RESULT:    -6.000     16.231     21.116
REMARK INTER + INTRA:         -11.165
REMARK INTER:                 -10.079
REMARK INTRA:                  -1.086
REMARK UNBOUND:                -0.605
REMARK SMILES C=C(C)[C@]12C[C@@H](C)[C@@]34O[C@](Cc5ccccc5)(O[C@@H]1[C@@H]3C=C(COC(=O)Cc1ccc(O)c(OC)c1)C[C@]1(O)C(=O)C(C)=C[C@@H]41)O2
REMARK SMILES IDX 23 1 22 2 21 3 20 4 9 5 8 6 10 7 6 8 18 9 46 10 19 11 5 12
REMARK SMILES IDX 7 13 4 14 45 15 38 16 44 17 40 18 42 20 41 21 43 22 39 23
REMARK SMILES IDX 11 25 12 26 13 27 17 28 14 29 16 30 15 31 2 32 3 33 1 34
REMARK SMILES IDX 37 35 24 37 25 38 26 39 27 40 28 41 36 42 29 43 33 44 30 45
REMARK SMILES IDX 31 46 34 47 35 48 32 49
REMARK H PARENT 39 24 32 50
REMARK Flexibility Score: 90.00
ROOT
ATOM      1  C   UNL     1      97.595  77.489  75.328  1.00  0.00     0.264 C 
ENDROOT
BRANCH   1   2
ATOM      2  C   UNL     1      98.234  78.848  75.160  1.00  0.00    -0.033 C 
ATOM      3  C   UNL     1      99.313  78.975  74.363  1.00  0.00    -0.015 C 
BRANCH   3   4
ATOM      4  C   UNL     1     100.174  80.198  74.092  1.00  0.00     0.078 C 
ATOM      5  O   UNL     1      99.207  81.336  72.119  1.00  0.00    -0.319 OA
ATOM      6  C   UNL     1      99.475  81.499  73.546  1.00  0.00     0.095 C 
ATOM      7  C   UNL     1     100.272  80.736  71.357  1.00  0.00     0.289 C 
ATOM      8  C   UNL     1     100.479  82.707  73.755  1.00  0.00     0.023 C 
ATOM      9  O   UNL     1     100.619  79.454  71.873  1.00  0.00    -0.320 OA
ATOM     10  O   UNL     1     101.470  81.506  71.403  1.00  0.00    -0.313 OA
ATOM     11  C   UNL     1     101.292  79.842  73.081  1.00  0.00     0.170 C 
ATOM     12  C   UNL     1     101.963  82.248  73.609  1.00  0.00     0.049 C 
ATOM     13  C   UNL     1     100.232  83.933  72.861  1.00  0.00     0.011 C 
ATOM     14  C   UNL     1     102.101  81.083  72.629  1.00  0.00     0.122 C 
BRANCH   6  15
ATOM     15  C   UNL     1      98.069  81.680  74.187  1.00  0.00     0.086 C 
ATOM     16  C   UNL     1      97.965  81.379  75.697  1.00  0.00     0.140 CG0
ATOM     17  C   UNL     1      97.358  82.997  74.044  1.00  0.00    -0.010 C 
ATOM     18  C   UNL     1      96.929  82.381  76.159  1.00  0.00     0.190 C 
ATOM     19  G   UNL     1      97.546  79.935  75.970  1.00  0.00     0.000 G0
ATOM     20  C   UNL     1      96.685  83.405  75.125  1.00  0.00    -0.008 C 
ATOM     21  O   UNL     1      96.392  82.390  77.256  1.00  0.00    -0.291 OA
ATOM     22  C   UNL     1      95.819  84.586  75.317  1.00  0.00     0.048 C 
BRANCH  16  23
ATOM     23  O   UNL     1      99.126  81.729  76.432  1.00  0.00    -0.381 OA
ATOM     24  H   UNL     1      99.906  81.444  75.928  1.00  0.00     0.212 HD
ENDBRANCH  16  23
ENDBRANCH   6  15
BRANCH   7  25
ATOM     25  C   UNL     1      99.811  80.603  69.919  1.00  0.00     0.135 C 
BRANCH  25  26
ATOM     26  C   UNL     1     100.931  80.857  68.941  1.00  0.00    -0.040 A 
ATOM     27  C   UNL     1     101.209  82.159  68.524  1.00  0.00     0.004 A 
ATOM     28  C   UNL     1     101.688  79.792  68.454  1.00  0.00     0.004 A 
ATOM     29  C   UNL     1     102.244  82.395  67.619  1.00  0.00     0.000 A 
ATOM     30  C   UNL     1     102.723  80.029  67.549  1.00  0.00     0.000 A 
ATOM     31  C   UNL     1     103.001  81.330  67.132  1.00  0.00     0.000 A 
ENDBRANCH  25  26
ENDBRANCH   7  25
BRANCH  14  32
ATOM     32  C   UNL     1     103.526  80.747  72.334  1.00  0.00    -0.046 C 
ATOM     33  C   UNL     1     104.055  81.208  71.008  1.00  0.00     0.042 C 
ATOM     34  C   UNL     1     104.291  80.070  73.204  1.00  0.00     0.010 C 
ENDBRANCH  14  32
ENDBRANCH   3   4
BRANCH   2  35
ATOM     35  C   UNL     1      97.531  79.937  75.948  1.00  0.00     0.078 CG0
ATOM     36  G   UNL     1      97.965  81.378  75.689  1.00  0.00     0.000 G0
ENDBRANCH   2  35
ENDBRANCH   1   2
BRANCH   1  37
ATOM     37  O   UNL     1      96.583  77.566  76.309  1.00  0.00    -0.461 OA
BRANCH  37  38
ATOM     38  C   UNL     1      96.696  76.696  77.368  1.00  0.00     0.310 C 
ATOM     39  O   UNL     1      95.852  75.871  77.693  1.00  0.00    -0.252 OA
BRANCH  38  40
ATOM     40  C   UNL     1      98.017  76.917  78.066  1.00  0.00     0.158 C 
BRANCH  40  41
ATOM     41  C   UNL     1      97.923  77.896  79.208  1.00  0.00    -0.033 A 
ATOM     42  C   UNL     1      98.231  77.485  80.505  1.00  0.00     0.054 A 
ATOM     43  C   UNL     1      97.528  79.212  78.968  1.00  0.00     0.008 A 
ATOM     44  C   UNL     1      98.143  78.391  81.563  1.00  0.00     0.160 A 
ATOM     45  C   UNL     1      97.441  80.118  80.026  1.00  0.00     0.050 A 
ATOM     46  C   UNL     1      97.748  79.708  81.322  1.00  0.00     0.157 A 
BRANCH  44  47
ATOM     47  O   UNL     1      98.446  77.978  82.825  1.00  0.00    -0.493 OA
ATOM     48  C   UNL     1      98.498  76.571  83.052  1.00  0.00     0.278 C 
ENDBRANCH  44  47
BRANCH  46  49
ATOM     49  O   UNL     1      97.660  80.601  82.347  1.00  0.00    -0.504 OA
ATOM     50  H   UNL     1      98.473  80.555  82.877  1.00  0.00     0.293 HD
ENDBRANCH  46  49
ENDBRANCH  40  41
ENDBRANCH  38  40
ENDBRANCH  37  38
ENDBRANCH   1  37
TORSDOF 11
ENDMDL
MODEL 8
REMARK VINA RESULT:    -5.952      2.806      9.212
REMARK INTER + INTRA:         -11.080
REMARK INTER:                 -10.411
REMARK INTRA:                  -0.669
REMARK UNBOUND:                -0.605
REMARK SMILES C=C(C)[C@]12C[C@@H](C)[C@@]34O[C@](Cc5ccccc5)(O[C@@H]1[C@@H]3C=C(COC(=O)Cc1ccc(O)c(OC)c1)C[C@]1(O)C(=O)C(C)=C[C@@H]41)O2
REMARK SMILES IDX 23 1 22 2 21 3 20 4 9 5 8 6 10 7 6 8 18 9 46 10 19 11 5 12
REMARK SMILES IDX 7 13 4 14 45 15 38 16 44 17 40 18 42 20 41 21 43 22 39 23
REMARK SMILES IDX 11 25 12 26 13 27 17 28 14 29 16 30 15 31 2 32 3 33 1 34
REMARK SMILES IDX 37 35 24 37 25 38 26 39 27 40 28 41 36 42 29 43 33 44 30 45
REMARK SMILES IDX 31 46 34 47 35 48 32 49
REMARK H PARENT 39 24 32 50
REMARK Flexibility Score: 90.00
ROOT
ATOM      1  C   UNL     1      94.639  98.780  70.894  1.00  0.00     0.264 C 
ENDROOT
BRANCH   1   2
ATOM      2  C   UNL     1      94.115 100.164  70.586  1.00  0.00    -0.033 C 
ATOM      3  C   UNL     1      94.309 100.683  69.357  1.00  0.00    -0.015 C 
BRANCH   3   4
ATOM      4  C   UNL     1      93.953 102.062  68.825  1.00  0.00     0.078 C 
ATOM      5  O   UNL     1      91.687 101.895  67.848  1.00  0.00    -0.319 OA
ATOM      6  C   UNL     1      92.454 102.535  68.914  1.00  0.00     0.095 C 
ATOM      7  C   UNL     1      92.336 101.849  66.563  1.00  0.00     0.289 C 
ATOM      8  C   UNL     1      92.434 104.105  68.703  1.00  0.00     0.023 C 
ATOM      9  O   UNL     1      93.592 101.181  66.642  1.00  0.00    -0.320 OA
ATOM     10  O   UNL     1      92.623 103.150  66.056  1.00  0.00    -0.313 OA
ATOM     11  C   UNL     1      94.363 102.173  67.336  1.00  0.00     0.170 C 
ATOM     12  C   UNL     1      93.557 104.566  67.725  1.00  0.00     0.049 C 
ATOM     13  C   UNL     1      91.088 104.693  68.249  1.00  0.00     0.011 C 
ATOM     14  C   UNL     1      93.876 103.491  66.684  1.00  0.00     0.122 C 
BRANCH   6  15
ATOM     15  C   UNL     1      91.792 102.028  70.228  1.00  0.00     0.086 C 
ATOM     16  C   UNL     1      92.658 102.111  71.502  1.00  0.00     0.140 CG0
ATOM     17  C   UNL     1      90.476 102.609  70.661  1.00  0.00    -0.010 C 
ATOM     18  C   UNL     1      91.632 102.412  72.574  1.00  0.00     0.190 C 
ATOM     19  G   UNL     1      93.420 100.814  71.768  1.00  0.00     0.000 G0
ATOM     20  C   UNL     1      90.344 102.811  71.976  1.00  0.00    -0.008 C 
ATOM     21  O   UNL     1      91.838 102.385  73.778  1.00  0.00    -0.291 OA
ATOM     22  C   UNL     1      89.180 103.281  72.755  1.00  0.00     0.048 C 
BRANCH  16  23
ATOM     23  O   UNL     1      93.522 103.235  71.536  1.00  0.00    -0.381 OA
ATOM     24  H   UNL     1      92.982 104.035  71.642  1.00  0.00     0.212 HD
ENDBRANCH  16  23
ENDBRANCH   6  15
BRANCH   7  25
ATOM     25  C   UNL     1      91.426 101.119  65.596  1.00  0.00     0.135 C 
BRANCH  25  26
ATOM     26  C   UNL     1      90.162 100.638  66.264  1.00  0.00    -0.040 A 
ATOM     27  C   UNL     1      90.088  99.336  66.761  1.00  0.00     0.004 A 
ATOM     28  C   UNL     1      89.068 101.494  66.385  1.00  0.00     0.004 A 
ATOM     29  C   UNL     1      88.918  98.891  67.379  1.00  0.00     0.000 A 
ATOM     30  C   UNL     1      87.898 101.049  67.002  1.00  0.00     0.000 A 
ATOM     31  C   UNL     1      87.824  99.747  67.499  1.00  0.00     0.000 A 
ENDBRANCH  25  26
ENDBRANCH   7  25
BRANCH  14  32
ATOM     32  C   UNL     1      94.815 103.976  65.628  1.00  0.00    -0.046 C 
ATOM     33  C   UNL     1      96.236 103.508  65.740  1.00  0.00     0.042 C 
ATOM     34  C   UNL     1      94.412 104.783  64.636  1.00  0.00     0.010 C 
ENDBRANCH  14  32
ENDBRANCH   3   4
BRANCH   2  35
ATOM     35  C   UNL     1      93.401 100.805  71.761  1.00  0.00     0.078 CG0
ATOM     36  G   UNL     1      92.659 102.115  71.497  1.00  0.00     0.000 G0
ENDBRANCH   2  35
ENDBRANCH   1   2
BRANCH   1  37
ATOM     37  O   UNL     1      96.018  98.858  71.186  1.00  0.00    -0.461 OA
BRANCH  37  38
ATOM     38  C   UNL     1      96.413  98.342  72.399  1.00  0.00     0.310 C 
ATOM     39  O   UNL     1      97.523  97.888  72.641  1.00  0.00    -0.252 OA
BRANCH  38  40
ATOM     40  C   UNL     1      95.267  98.422  73.379  1.00  0.00     0.158 C 
BRANCH  40  41
ATOM     41  C   UNL     1      95.387  97.430  74.507  1.00  0.00    -0.033 A 
ATOM     42  C   UNL     1      94.620  96.264  74.496  1.00  0.00     0.054 A 
ATOM     43  C   UNL     1      96.265  97.677  75.562  1.00  0.00     0.008 A 
ATOM     44  C   UNL     1      94.732  95.346  75.540  1.00  0.00     0.160 A 
ATOM     45  C   UNL     1      96.377  96.759  76.606  1.00  0.00     0.050 A 
ATOM     46  C   UNL     1      95.611  95.594  76.596  1.00  0.00     0.157 A 
BRANCH  44  47
ATOM     47  O   UNL     1      93.978  94.212  75.518  1.00  0.00    -0.493 OA
ATOM     48  C   UNL     1      92.588  94.352  75.810  1.00  0.00     0.278 C 
ENDBRANCH  44  47
BRANCH  46  49
ATOM     49  O   UNL     1      95.729  94.704  77.620  1.00  0.00    -0.504 OA
ATOM     50  H   UNL     1      94.863  94.293  77.784  1.00  0.00     0.293 HD
ENDBRANCH  46  49
ENDBRANCH  40  41
ENDBRANCH  38  40
ENDBRANCH  37  38
ENDBRANCH   1  37
TORSDOF 11
ENDMDL
MODEL 9
REMARK VINA RESULT:    -5.703     16.698     21.595
REMARK INTER + INTRA:         -10.643
REMARK INTER:                  -9.241
REMARK INTRA:                  -1.402
REMARK UNBOUND:                -0.605
REMARK SMILES C=C(C)[C@]12C[C@@H](C)[C@@]34O[C@](Cc5ccccc5)(O[C@@H]1[C@@H]3C=C(COC(=O)Cc1ccc(O)c(OC)c1)C[C@]1(O)C(=O)C(C)=C[C@@H]41)O2
REMARK SMILES IDX 23 1 22 2 21 3 20 4 9 5 8 6 10 7 6 8 18 9 46 10 19 11 5 12
REMARK SMILES IDX 7 13 4 14 45 15 38 16 44 17 40 18 42 20 41 21 43 22 39 23
REMARK SMILES IDX 11 25 12 26 13 27 17 28 14 29 16 30 15 31 2 32 3 33 1 34
REMARK SMILES IDX 37 35 24 37 25 38 26 39 27 40 28 41 36 42 29 43 33 44 30 45
REMARK SMILES IDX 31 46 34 47 35 48 32 49
REMARK H PARENT 39 24 32 50
REMARK Flexibility Score: 90.00
ROOT
ATOM      1  C   UNL     1      97.480  77.426  75.982  1.00  0.00     0.264 C 
ENDROOT
BRANCH   1   2
ATOM      2  C   UNL     1      98.084  78.788  75.737  1.00  0.00    -0.033 C 
ATOM      3  C   UNL     1      99.094  78.913  74.852  1.00  0.00    -0.015 C 
BRANCH   3   4
ATOM      4  C   UNL     1      99.912  80.141  74.488  1.00  0.00     0.078 C 
ATOM      5  O   UNL     1      98.796  81.203  72.553  1.00  0.00    -0.319 OA
ATOM      6  C   UNL     1      99.155  81.413  73.954  1.00  0.00     0.095 C 
ATOM      7  C   UNL     1      99.818  80.598  71.739  1.00  0.00     0.289 C 
ATOM      8  C   UNL     1     100.150  82.643  74.060  1.00  0.00     0.023 C 
ATOM      9  O   UNL     1     100.221  79.337  72.267  1.00  0.00    -0.320 OA
ATOM     10  O   UNL     1     101.003  81.388  71.681  1.00  0.00    -0.313 OA
ATOM     11  C   UNL     1     100.966  79.772  73.415  1.00  0.00     0.170 C 
ATOM     12  C   UNL     1     101.628  82.203  73.827  1.00  0.00     0.049 C 
ATOM     13  C   UNL     1      99.822  83.837  73.150  1.00  0.00     0.011 C 
ATOM     14  C   UNL     1     101.721  81.011  72.874  1.00  0.00     0.122 C 
BRANCH   6  15
ATOM     15  C   UNL     1      97.792  81.591  74.682  1.00  0.00     0.086 C 
ATOM     16  C   UNL     1      97.798  81.347  76.206  1.00  0.00     0.140 CG0
ATOM     17  C   UNL     1      97.044  82.887  74.539  1.00  0.00    -0.010 C 
ATOM     18  C   UNL     1      96.774  82.346  76.700  1.00  0.00     0.190 C 
ATOM     19  G   UNL     1      97.431  79.908  76.561  1.00  0.00     0.000 G0
ATOM     20  C   UNL     1      96.438  83.324  75.648  1.00  0.00    -0.008 C 
ATOM     21  O   UNL     1      96.312  82.387  77.831  1.00  0.00    -0.291 OA
ATOM     22  C   UNL     1      95.560  84.495  75.855  1.00  0.00     0.048 C 
BRANCH  16  23
ATOM     23  O   UNL     1      98.998  81.748  76.846  1.00  0.00    -0.381 OA
ATOM     24  H   UNL     1      98.771  82.344  77.579  1.00  0.00     0.212 HD
ENDBRANCH  16  23
ENDBRANCH   6  15
BRANCH   7  25
ATOM     25  C   UNL     1      99.264  80.414  70.340  1.00  0.00     0.135 C 
BRANCH  25  26
ATOM     26  C   UNL     1      99.313  78.973  69.898  1.00  0.00    -0.040 A 
ATOM     27  C   UNL     1      98.193  78.156  70.057  1.00  0.00     0.004 A 
ATOM     28  C   UNL     1     100.477  78.457  69.329  1.00  0.00     0.004 A 
ATOM     29  C   UNL     1      98.238  76.823  69.648  1.00  0.00     0.000 A 
ATOM     30  C   UNL     1     100.522  77.123  68.920  1.00  0.00     0.000 A 
ATOM     31  C   UNL     1      99.403  76.307  69.080  1.00  0.00     0.000 A 
ENDBRANCH  25  26
ENDBRANCH   7  25
BRANCH  14  32
ATOM     32  C   UNL     1     103.129  80.689  72.493  1.00  0.00    -0.046 C 
ATOM     33  C   UNL     1     104.107  80.558  73.622  1.00  0.00     0.042 C 
ATOM     34  C   UNL     1     103.498  80.526  71.214  1.00  0.00     0.010 C 
ENDBRANCH  14  32
ENDBRANCH   3   4
BRANCH   2  35
ATOM     35  C   UNL     1      97.433  79.885  76.559  1.00  0.00     0.078 CG0
ATOM     36  G   UNL     1      97.794  81.328  76.211  1.00  0.00     0.000 G0
ENDBRANCH   2  35
ENDBRANCH   1   2
BRANCH   1  37
ATOM     37  O   UNL     1      96.815  77.426  77.227  1.00  0.00    -0.461 OA
BRANCH  37  38
ATOM     38  C   UNL     1      96.761  76.221  77.889  1.00  0.00     0.310 C 
ATOM     39  O   UNL     1      95.734  75.610  78.151  1.00  0.00    -0.252 OA
BRANCH  38  40
ATOM     40  C   UNL     1      98.160  75.774  78.239  1.00  0.00     0.158 C 
BRANCH  40  41
ATOM     41  C   UNL     1      98.852  76.705  79.201  1.00  0.00    -0.033 A 
ATOM     42  C   UNL     1     100.110  77.221  78.890  1.00  0.00     0.054 A 
ATOM     43  C   UNL     1      98.233  77.052  80.402  1.00  0.00     0.008 A 
ATOM     44  C   UNL     1     100.750  78.083  79.781  1.00  0.00     0.160 A 
ATOM     45  C   UNL     1      98.873  77.914  81.293  1.00  0.00     0.050 A 
ATOM     46  C   UNL     1     100.131  78.430  80.983  1.00  0.00     0.157 A 
BRANCH  44  47
ATOM     47  O   UNL     1     101.979  78.580  79.467  1.00  0.00    -0.493 OA
ATOM     48  C   UNL     1     103.107  77.763  79.776  1.00  0.00     0.278 C 
ENDBRANCH  44  47
BRANCH  46  49
ATOM     49  O   UNL     1     100.746  79.271  81.860  1.00  0.00    -0.504 OA
ATOM     50  H   UNL     1     100.457  80.182  81.680  1.00  0.00     0.293 HD
ENDBRANCH  46  49
ENDBRANCH  40  41
ENDBRANCH  38  40
ENDBRANCH  37  38
ENDBRANCH   1  37
TORSDOF 11
ENDMDL
MODEL 10
REMARK VINA RESULT:    -5.665     29.495     33.950
REMARK INTER + INTRA:         -10.576
REMARK INTER:                  -9.967
REMARK INTRA:                  -0.609
REMARK UNBOUND:                -0.605
REMARK SMILES C=C(C)[C@]12C[C@@H](C)[C@@]34O[C@](Cc5ccccc5)(O[C@@H]1[C@@H]3C=C(COC(=O)Cc1ccc(O)c(OC)c1)C[C@]1(O)C(=O)C(C)=C[C@@H]41)O2
REMARK SMILES IDX 23 1 22 2 21 3 20 4 9 5 8 6 10 7 6 8 18 9 46 10 19 11 5 12
REMARK SMILES IDX 7 13 4 14 45 15 38 16 44 17 40 18 42 20 41 21 43 22 39 23
REMARK SMILES IDX 11 25 12 26 13 27 17 28 14 29 16 30 15 31 2 32 3 33 1 34
REMARK SMILES IDX 37 35 24 37 25 38 26 39 27 40 28 41 36 42 29 43 33 44 30 45
REMARK SMILES IDX 31 46 34 47 35 48 32 49
REMARK H PARENT 39 24 32 50
REMARK Flexibility Score: 90.00
ROOT
ATOM      1  C   UNL     1      64.474  86.785  69.467  1.00  0.00     0.264 C 
ENDROOT
BRANCH   1   2
ATOM      2  C   UNL     1      63.827  87.097  70.796  1.00  0.00    -0.033 C 
ATOM      3  C   UNL     1      62.508  86.869  70.957  1.00  0.00    -0.015 C 
BRANCH   3   4
ATOM      4  C   UNL     1      61.616  87.165  72.151  1.00  0.00     0.078 C 
ATOM      5  O   UNL     1      61.603  85.133  73.562  1.00  0.00    -0.319 OA
ATOM      6  C   UNL     1      61.998  86.540  73.544  1.00  0.00     0.095 C 
ATOM      7  C   UNL     1      60.310  84.849  72.994  1.00  0.00     0.289 C 
ATOM      8  C   UNL     1      61.191  87.324  74.660  1.00  0.00     0.023 C 
ATOM      9  O   UNL     1      60.230  85.295  71.642  1.00  0.00    -0.320 OA
ATOM     10  O   UNL     1      59.257  85.517  73.683  1.00  0.00    -0.313 OA
ATOM     11  C   UNL     1      60.165  86.715  71.849  1.00  0.00     0.170 C 
ATOM     12  C   UNL     1      59.798  87.790  74.136  1.00  0.00     0.049 C 
ATOM     13  C   UNL     1      61.013  86.579  75.993  1.00  0.00     0.011 C 
ATOM     14  C   UNL     1      59.239  86.830  73.085  1.00  0.00     0.122 C 
BRANCH   6  15
ATOM     15  C   UNL     1      63.542  86.512  73.732  1.00  0.00     0.086 C 
ATOM     16  C   UNL     1      64.306  87.773  73.276  1.00  0.00     0.140 CG0
ATOM     17  C   UNL     1      64.114  86.229  75.093  1.00  0.00    -0.010 C 
ATOM     18  C   UNL     1      65.439  87.848  74.278  1.00  0.00     0.190 C 
ATOM     19  G   UNL     1      64.804  87.657  71.836  1.00  0.00     0.000 G0
ATOM     20  C   UNL     1      65.197  86.944  75.418  1.00  0.00    -0.008 C 
ATOM     21  O   UNL     1      66.407  88.588  74.198  1.00  0.00    -0.291 OA
ATOM     22  C   UNL     1      66.057  86.875  76.618  1.00  0.00     0.048 C 
BRANCH  16  23
ATOM     23  O   UNL     1      63.592  88.981  73.481  1.00  0.00    -0.381 OA
ATOM     24  H   UNL     1      64.231  89.710  73.534  1.00  0.00     0.212 HD
ENDBRANCH  16  23
ENDBRANCH   6  15
BRANCH   7  25
ATOM     25  C   UNL     1      60.084  83.352  73.053  1.00  0.00     0.135 C 
BRANCH  25  26
ATOM     26  C   UNL     1      61.347  82.577  72.773  1.00  0.00    -0.040 A 
ATOM     27  C   UNL     1      62.025  82.761  71.567  1.00  0.00     0.004 A 
ATOM     28  C   UNL     1      61.839  81.678  73.719  1.00  0.00     0.004 A 
ATOM     29  C   UNL     1      63.194  82.045  71.308  1.00  0.00     0.000 A 
ATOM     30  C   UNL     1      63.008  80.962  73.460  1.00  0.00     0.000 A 
ATOM     31  C   UNL     1      63.685  81.146  72.254  1.00  0.00     0.000 A 
ENDBRANCH  25  26
ENDBRANCH   7  25
BRANCH  14  32
ATOM     32  C   UNL     1      57.831  87.153  72.703  1.00  0.00    -0.046 C 
ATOM     33  C   UNL     1      56.868  87.360  73.834  1.00  0.00     0.042 C 
ATOM     34  C   UNL     1      57.449  87.254  71.421  1.00  0.00     0.010 C 
ENDBRANCH  14  32
ENDBRANCH   3   4
BRANCH   2  35
ATOM     35  C   UNL     1      64.803  87.646  71.819  1.00  0.00     0.078 CG0
ATOM     36  G   UNL     1      64.311  87.765  73.261  1.00  0.00     0.000 G0
ENDBRANCH   2  35
ENDBRANCH   1   2
BRANCH   1  37
ATOM     37  O   UNL     1      64.648  85.390  69.349  1.00  0.00    -0.461 OA
BRANCH  37  38
ATOM     38  C   UNL     1      64.812  84.903  68.073  1.00  0.00     0.310 C 
ATOM     39  O   UNL     1      64.170  83.985  67.583  1.00  0.00    -0.252 OA
BRANCH  38  40
ATOM     40  C   UNL     1      65.905  85.677  67.374  1.00  0.00     0.158 C 
BRANCH  40  41
ATOM     41  C   UNL     1      66.795  84.804  66.527  1.00  0.00    -0.033 A 
ATOM     42  C   UNL     1      68.143  84.657  66.853  1.00  0.00     0.054 A 
ATOM     43  C   UNL     1      66.270  84.142  65.417  1.00  0.00     0.008 A 
ATOM     44  C   UNL     1      68.967  83.849  66.069  1.00  0.00     0.160 A 
ATOM     45  C   UNL     1      67.093  83.334  64.633  1.00  0.00     0.050 A 
ATOM     46  C   UNL     1      68.441  83.188  64.958  1.00  0.00     0.157 A 
BRANCH  44  47
ATOM     47  O   UNL     1      70.282  83.714  66.397  1.00  0.00    -0.493 OA
ATOM     48  C   UNL     1      71.102  84.876  66.282  1.00  0.00     0.278 C 
ENDBRANCH  44  47
BRANCH  46  49
ATOM     49  O   UNL     1      69.235  82.395  64.186  1.00  0.00    -0.504 OA
ATOM     50  H   UNL     1      69.559  81.652  64.723  1.00  0.00     0.293 HD
ENDBRANCH  46  49
ENDBRANCH  40  41
ENDBRANCH  38  40
ENDBRANCH  37  38
ENDBRANCH   1  37
TORSDOF 11
ENDMDL
