MODEL 1
REMARK VINA RESULT:    -6.089      0.000      0.000
REMARK INTER + INTRA:         -10.759
REMARK INTER:                  -9.827
REMARK INTRA:                  -0.932
REMARK UNBOUND:                -0.932
REMARK SMILES COc1cc(CNC(=O)CCCCCCC(C)C)ccc1O
REMARK SMILES IDX 11 1 10 2 8 3 7 4 9 6 6 7 5 8 3 9 21 10 4 11 20 12 19 13
REMARK SMILES IDX 2 14 1 15 22 16 12 18 13 19 14 20 15 21 16 22 17 23 18 24
REMARK H PARENT 7 5 22 17
REMARK Flexibility Score: inf
ROOT
ATOM      1  C   UNL     1      76.990  85.731  68.311  1.00  0.00     0.010 C 
ENDROOT
BRANCH   1   2
ATOM      2  C   UNL     1      78.100  85.299  67.313  1.00  0.00     0.100 C 
BRANCH   2   3
ATOM      3  C   UNL     1      78.066  83.855  66.990  1.00  0.00     0.220 C 
ATOM      4  N   UNL     1      77.081  83.350  66.193  1.00  0.00    -0.352 N 
ATOM      5  H   UNL     1      76.388  84.023  65.902  1.00  0.00     0.163 HD
ATOM      6  O   UNL     1      78.974  83.116  67.444  1.00  0.00    -0.275 OA
BRANCH   4   7
ATOM      7  C   UNL     1      76.980  81.986  65.768  1.00  0.00     0.151 C 
BRANCH   7   8
ATOM      8  C   UNL     1      75.631  81.632  65.248  1.00  0.00    -0.025 A 
ATOM      9  C   UNL     1      73.191  81.550  65.539  1.00  0.00     0.160 A 
ATOM     10  C   UNL     1      73.052  81.001  64.246  1.00  0.00     0.157 A 
ATOM     11  C   UNL     1      74.478  81.843  66.037  1.00  0.00     0.056 A 
ATOM     12  C   UNL     1      74.196  80.750  63.466  1.00  0.00     0.050 A 
ATOM     13  C   UNL     1      75.476  81.073  63.957  1.00  0.00     0.009 A 
BRANCH   9  14
ATOM     14  O   UNL     1      72.088  81.761  66.321  1.00  0.00    -0.493 OA
ATOM     15  C   UNL     1      71.649  83.132  66.348  1.00  0.00     0.278 C 
ENDBRANCH   9  14
BRANCH  10  16
ATOM     16  O   UNL     1      71.825  80.707  63.741  1.00  0.00    -0.504 OA
ATOM     17  H   UNL     1      71.197  81.378  64.019  1.00  0.00     0.293 HD
ENDBRANCH  10  16
ENDBRANCH   7   8
ENDBRANCH   4   7
ENDBRANCH   2   3
ENDBRANCH   1   2
BRANCH   1  18
ATOM     18  C   UNL     1      76.913  84.790  69.547  1.00  0.00     0.001 C 
BRANCH  18  19
ATOM     19  C   UNL     1      75.749  85.128  70.520  1.00  0.00     0.000 C 
BRANCH  19  20
ATOM     20  C   UNL     1      74.873  86.293  69.981  1.00  0.00     0.000 C 
BRANCH  20  21
ATOM     21  C   UNL     1      74.972  87.602  70.813  1.00  0.00     0.003 C 
BRANCH  21  22
ATOM     22  C   UNL     1      75.657  88.795  70.069  1.00  0.00    -0.017 C 
ATOM     23  C   UNL     1      75.360  90.134  70.800  1.00  0.00     0.007 C 
ATOM     24  C   UNL     1      75.270  88.898  68.564  1.00  0.00     0.007 C 
ENDBRANCH  21  22
ENDBRANCH  20  21
ENDBRANCH  19  20
ENDBRANCH  18  19
ENDBRANCH   1  18
TORSDOF 11
ENDMDL
MODEL 2
REMARK VINA RESULT:    -5.690      3.613      5.607
REMARK INTER + INTRA:         -10.114
REMARK INTER:                  -9.465
REMARK INTRA:                  -0.649
REMARK UNBOUND:                -0.932
REMARK SMILES COc1cc(CNC(=O)CCCCCCC(C)C)ccc1O
REMARK SMILES IDX 11 1 10 2 8 3 7 4 9 6 6 7 5 8 3 9 21 10 4 11 20 12 19 13
REMARK SMILES IDX 2 14 1 15 22 16 12 18 13 19 14 20 15 21 16 22 17 23 18 24
REMARK H PARENT 7 5 22 17
REMARK Flexibility Score: inf
ROOT
ATOM      1  C   UNL     1      75.312  88.844  70.832  1.00  0.00     0.010 C 
ENDROOT
BRANCH   1   2
ATOM      2  C   UNL     1      74.761  87.402  70.651  1.00  0.00     0.100 C 
BRANCH   2   3
ATOM      3  C   UNL     1      75.799  86.426  70.249  1.00  0.00     0.220 C 
ATOM      4  N   UNL     1      76.938  86.847  69.628  1.00  0.00    -0.352 N 
ATOM      5  H   UNL     1      76.974  87.838  69.440  1.00  0.00     0.163 HD
ATOM      6  O   UNL     1      75.617  85.212  70.514  1.00  0.00    -0.275 OA
BRANCH   4   7
ATOM      7  C   UNL     1      78.031  86.005  69.247  1.00  0.00     0.151 C 
BRANCH   7   8
ATOM      8  C   UNL     1      77.832  85.347  67.926  1.00  0.00    -0.025 A 
ATOM      9  C   UNL     1      77.134  85.466  65.571  1.00  0.00     0.160 A 
ATOM     10  C   UNL     1      77.492  84.111  65.395  1.00  0.00     0.157 A 
ATOM     11  C   UNL     1      77.289  86.067  66.838  1.00  0.00     0.056 A 
ATOM     12  C   UNL     1      77.997  83.373  66.480  1.00  0.00     0.050 A 
ATOM     13  C   UNL     1      78.177  83.988  67.735  1.00  0.00     0.009 A 
BRANCH   9  14
ATOM     14  O   UNL     1      76.605  86.181  64.532  1.00  0.00    -0.493 OA
ATOM     15  C   UNL     1      76.129  87.486  64.910  1.00  0.00     0.278 C 
ENDBRANCH   9  14
BRANCH  10  16
ATOM     16  O   UNL     1      77.352  83.506  64.186  1.00  0.00    -0.504 OA
ATOM     17  H   UNL     1      78.119  82.955  64.014  1.00  0.00     0.293 HD
ENDBRANCH  10  16
ENDBRANCH   7   8
ENDBRANCH   4   7
ENDBRANCH   2   3
ENDBRANCH   1   2
BRANCH   1  18
ATOM     18  C   UNL     1      74.205  89.844  71.272  1.00  0.00     0.001 C 
BRANCH  18  19
ATOM     19  C   UNL     1      74.666  91.329  71.269  1.00  0.00     0.000 C 
BRANCH  19  20
ATOM     20  C   UNL     1      76.199  91.453  71.494  1.00  0.00     0.000 C 
BRANCH  20  21
ATOM     21  C   UNL     1      76.665  92.864  71.947  1.00  0.00     0.003 C 
BRANCH  21  22
ATOM     22  C   UNL     1      77.974  92.875  72.801  1.00  0.00    -0.017 C 
ATOM     23  C   UNL     1      77.634  92.918  74.317  1.00  0.00     0.007 C 
ATOM     24  C   UNL     1      78.955  94.026  72.429  1.00  0.00     0.007 C 
ENDBRANCH  21  22
ENDBRANCH  20  21
ENDBRANCH  19  20
ENDBRANCH  18  19
ENDBRANCH   1  18
TORSDOF 11
ENDMDL
MODEL 3
REMARK VINA RESULT:    -5.661      1.035      2.177
REMARK INTER + INTRA:         -10.067
REMARK INTER:                  -8.592
REMARK INTRA:                  -1.476
REMARK UNBOUND:                -0.932
REMARK SMILES COc1cc(CNC(=O)CCCCCCC(C)C)ccc1O
REMARK SMILES IDX 11 1 10 2 8 3 7 4 9 6 6 7 5 8 3 9 21 10 4 11 20 12 19 13
REMARK SMILES IDX 2 14 1 15 22 16 12 18 13 19 14 20 15 21 16 22 17 23 18 24
REMARK H PARENT 7 5 22 17
REMARK Flexibility Score: inf
ROOT
ATOM      1  C   UNL     1      77.266  86.111  68.967  1.00  0.00     0.010 C 
ENDROOT
BRANCH   1   2
ATOM      2  C   UNL     1      78.352  85.657  67.953  1.00  0.00     0.100 C 
BRANCH   2   3
ATOM      3  C   UNL     1      77.975  84.442  67.197  1.00  0.00     0.220 C 
ATOM      4  N   UNL     1      76.769  84.372  66.561  1.00  0.00    -0.352 N 
ATOM      5  H   UNL     1      76.176  85.177  66.694  1.00  0.00     0.163 HD
ATOM      6  O   UNL     1      78.795  83.493  67.134  1.00  0.00    -0.275 OA
BRANCH   4   7
ATOM      7  C   UNL     1      76.322  83.276  65.756  1.00  0.00     0.151 C 
BRANCH   7   8
ATOM      8  C   UNL     1      74.878  82.966  65.937  1.00  0.00    -0.025 A 
ATOM      9  C   UNL     1      72.952  81.486  65.547  1.00  0.00     0.160 A 
ATOM     10  C   UNL     1      72.135  82.344  66.315  1.00  0.00     0.157 A 
ATOM     11  C   UNL     1      74.310  81.813  65.349  1.00  0.00     0.056 A 
ATOM     12  C   UNL     1      72.678  83.516  66.872  1.00  0.00     0.050 A 
ATOM     13  C   UNL     1      74.042  83.820  66.695  1.00  0.00     0.009 A 
BRANCH   9  14
ATOM     14  O   UNL     1      72.424  80.365  64.967  1.00  0.00    -0.493 OA
ATOM     15  C   UNL     1      73.040  80.015  63.714  1.00  0.00     0.278 C 
ENDBRANCH   9  14
BRANCH  10  16
ATOM     16  O   UNL     1      70.823  82.056  66.521  1.00  0.00    -0.504 OA
ATOM     17  H   UNL     1      70.718  81.108  66.634  1.00  0.00     0.293 HD
ENDBRANCH  10  16
ENDBRANCH   7   8
ENDBRANCH   4   7
ENDBRANCH   2   3
ENDBRANCH   1   2
BRANCH   1  18
ATOM     18  C   UNL     1      76.978  85.026  70.043  1.00  0.00     0.001 C 
BRANCH  18  19
ATOM     19  C   UNL     1      75.580  85.162  70.711  1.00  0.00     0.000 C 
BRANCH  19  20
ATOM     20  C   UNL     1      74.590  85.953  69.811  1.00  0.00     0.000 C 
BRANCH  20  21
ATOM     21  C   UNL     1      73.976  87.209  70.490  1.00  0.00     0.003 C 
BRANCH  21  22
ATOM     22  C   UNL     1      74.438  88.571  69.877  1.00  0.00    -0.017 C 
ATOM     23  C   UNL     1      74.572  88.454  68.332  1.00  0.00     0.007 C 
ATOM     24  C   UNL     1      75.754  89.123  70.499  1.00  0.00     0.007 C 
ENDBRANCH  21  22
ENDBRANCH  20  21
ENDBRANCH  19  20
ENDBRANCH  18  19
ENDBRANCH   1  18
TORSDOF 11
ENDMDL
MODEL 4
REMARK VINA RESULT:    -5.593     24.964     27.746
REMARK INTER + INTRA:          -9.957
REMARK INTER:                  -8.275
REMARK INTRA:                  -1.683
REMARK UNBOUND:                -0.932
REMARK SMILES COc1cc(CNC(=O)CCCCCCC(C)C)ccc1O
REMARK SMILES IDX 11 1 10 2 8 3 7 4 9 6 6 7 5 8 3 9 21 10 4 11 20 12 19 13
REMARK SMILES IDX 2 14 1 15 22 16 12 18 13 19 14 20 15 21 16 22 17 23 18 24
REMARK H PARENT 7 5 22 17
REMARK Flexibility Score: inf
ROOT
ATOM      1  C   UNL     1     103.526  80.803  79.346  1.00  0.00     0.010 C 
ENDROOT
BRANCH   1   2
ATOM      2  C   UNL     1     103.151  81.368  80.744  1.00  0.00     0.100 C 
BRANCH   2   3
ATOM      3  C   UNL     1     101.699  81.608  80.907  1.00  0.00     0.220 C 
ATOM      4  N   UNL     1     100.794  80.849  80.224  1.00  0.00    -0.352 N 
ATOM      5  H   UNL     1     101.201  80.174  79.594  1.00  0.00     0.163 HD
ATOM      6  O   UNL     1     101.324  82.504  81.702  1.00  0.00    -0.275 OA
BRANCH   4   7
ATOM      7  C   UNL     1      99.372  80.952  80.346  1.00  0.00     0.151 C 
BRANCH   7   8
ATOM      8  C   UNL     1      98.763  81.878  79.351  1.00  0.00    -0.025 A 
ATOM      9  C   UNL     1      98.282  82.477  77.015  1.00  0.00     0.160 A 
ATOM     10  C   UNL     1      97.568  83.614  77.452  1.00  0.00     0.157 A 
ATOM     11  C   UNL     1      98.889  81.629  77.966  1.00  0.00     0.056 A 
ATOM     12  C   UNL     1      97.468  83.893  78.827  1.00  0.00     0.050 A 
ATOM     13  C   UNL     1      98.052  83.026  79.771  1.00  0.00     0.009 A 
BRANCH   9  14
ATOM     14  O   UNL     1      98.419  82.218  75.679  1.00  0.00    -0.493 OA
ATOM     15  C   UNL     1      98.734  80.845  75.383  1.00  0.00     0.278 C 
ENDBRANCH   9  14
BRANCH  10  16
ATOM     16  O   UNL     1      96.974  84.449  76.558  1.00  0.00    -0.504 OA
ATOM     17  H   UNL     1      96.027  84.288  76.551  1.00  0.00     0.293 HD
ENDBRANCH  10  16
ENDBRANCH   7   8
ENDBRANCH   4   7
ENDBRANCH   2   3
ENDBRANCH   1   2
BRANCH   1  18
ATOM     18  C   UNL     1     103.335  81.855  78.217  1.00  0.00     0.001 C 
BRANCH  18  19
ATOM     19  C   UNL     1     102.472  81.347  77.027  1.00  0.00     0.000 C 
BRANCH  19  20
ATOM     20  C   UNL     1     102.046  82.513  76.091  1.00  0.00     0.000 C 
BRANCH  20  21
ATOM     21  C   UNL     1     101.750  83.848  76.829  1.00  0.00     0.003 C 
BRANCH  21  22
ATOM     22  C   UNL     1     101.667  85.102  75.899  1.00  0.00    -0.017 C 
ATOM     23  C   UNL     1     100.607  84.882  74.783  1.00  0.00     0.007 C 
ATOM     24  C   UNL     1     103.035  85.510  75.277  1.00  0.00     0.007 C 
ENDBRANCH  21  22
ENDBRANCH  20  21
ENDBRANCH  19  20
ENDBRANCH  18  19
ENDBRANCH   1  18
TORSDOF 11
ENDMDL
MODEL 5
REMARK VINA RESULT:    -5.562      1.781      2.875
REMARK INTER + INTRA:          -9.907
REMARK INTER:                  -8.936
REMARK INTRA:                  -0.971
REMARK UNBOUND:                -0.932
REMARK SMILES COc1cc(CNC(=O)CCCCCCC(C)C)ccc1O
REMARK SMILES IDX 11 1 10 2 8 3 7 4 9 6 6 7 5 8 3 9 21 10 4 11 20 12 19 13
REMARK SMILES IDX 2 14 1 15 22 16 12 18 13 19 14 20 15 21 16 22 17 23 18 24
REMARK H PARENT 7 5 22 17
REMARK Flexibility Score: inf
ROOT
ATOM      1  C   UNL     1      76.651  85.332  65.615  1.00  0.00     0.010 C 
ENDROOT
BRANCH   1   2
ATOM      2  C   UNL     1      77.409  84.190  66.347  1.00  0.00     0.100 C 
BRANCH   2   3
ATOM      3  C   UNL     1      76.815  82.854  66.120  1.00  0.00     0.220 C 
ATOM      4  N   UNL     1      75.487  82.641  66.353  1.00  0.00    -0.352 N 
ATOM      5  H   UNL     1      74.991  83.439  66.722  1.00  0.00     0.163 HD
ATOM      6  O   UNL     1      77.551  81.934  65.687  1.00  0.00    -0.275 OA
BRANCH   4   7
ATOM      7  C   UNL     1      74.793  81.412  66.115  1.00  0.00     0.151 C 
BRANCH   7   8
ATOM      8  C   UNL     1      73.474  81.602  65.451  1.00  0.00    -0.025 A 
ATOM      9  C   UNL     1      71.178  82.482  65.491  1.00  0.00     0.160 A 
ATOM     10  C   UNL     1      70.971  82.008  64.177  1.00  0.00     0.157 A 
ATOM     11  C   UNL     1      72.419  82.260  66.123  1.00  0.00     0.056 A 
ATOM     12  C   UNL     1      72.001  81.318  63.511  1.00  0.00     0.050 A 
ATOM     13  C   UNL     1      73.247  81.125  64.138  1.00  0.00     0.009 A 
BRANCH   9  14
ATOM     14  O   UNL     1      70.170  83.120  66.161  1.00  0.00    -0.493 OA
ATOM     15  C   UNL     1      70.046  82.720  67.538  1.00  0.00     0.278 C 
ENDBRANCH   9  14
BRANCH  10  16
ATOM     16  O   UNL     1      69.786  82.207  63.543  1.00  0.00    -0.504 OA
ATOM     17  H   UNL     1      69.095  82.350  64.195  1.00  0.00     0.293 HD
ENDBRANCH  10  16
ENDBRANCH   7   8
ENDBRANCH   4   7
ENDBRANCH   2   3
ENDBRANCH   1   2
BRANCH   1  18
ATOM     18  C   UNL     1      77.286  86.726  65.886  1.00  0.00     0.001 C 
BRANCH  18  19
ATOM     19  C   UNL     1      76.978  87.289  67.302  1.00  0.00     0.000 C 
BRANCH  19  20
ATOM     20  C   UNL     1      78.130  86.986  68.301  1.00  0.00     0.000 C 
BRANCH  20  21
ATOM     21  C   UNL     1      77.652  86.638  69.738  1.00  0.00     0.003 C 
BRANCH  21  22
ATOM     22  C   UNL     1      76.411  85.689  69.799  1.00  0.00    -0.017 C 
ATOM     23  C   UNL     1      75.199  86.419  70.444  1.00  0.00     0.007 C 
ATOM     24  C   UNL     1      76.688  84.343  70.531  1.00  0.00     0.007 C 
ENDBRANCH  21  22
ENDBRANCH  20  21
ENDBRANCH  19  20
ENDBRANCH  18  19
ENDBRANCH   1  18
TORSDOF 11
ENDMDL
MODEL 6
REMARK VINA RESULT:    -5.424      2.516      7.290
REMARK INTER + INTRA:          -9.685
REMARK INTER:                  -7.840
REMARK INTRA:                  -1.845
REMARK UNBOUND:                -0.932
REMARK SMILES COc1cc(CNC(=O)CCCCCCC(C)C)ccc1O
REMARK SMILES IDX 11 1 10 2 8 3 7 4 9 6 6 7 5 8 3 9 21 10 4 11 20 12 19 13
REMARK SMILES IDX 2 14 1 15 22 16 12 18 13 19 14 20 15 21 16 22 17 23 18 24
REMARK H PARENT 7 5 22 17
REMARK Flexibility Score: inf
ROOT
ATOM      1  C   UNL     1      71.214  82.808  64.867  1.00  0.00     0.010 C 
ENDROOT
BRANCH   1   2
ATOM      2  C   UNL     1      71.760  82.816  66.321  1.00  0.00     0.100 C 
BRANCH   2   3
ATOM      3  C   UNL     1      72.246  84.145  66.756  1.00  0.00     0.220 C 
ATOM      4  N   UNL     1      72.540  84.375  68.069  1.00  0.00    -0.352 N 
ATOM      5  H   UNL     1      72.355  83.597  68.685  1.00  0.00     0.163 HD
ATOM      6  O   UNL     1      72.405  85.040  65.891  1.00  0.00    -0.275 OA
BRANCH   4   7
ATOM      7  C   UNL     1      73.070  85.597  68.594  1.00  0.00     0.151 C 
BRANCH   7   8
ATOM      8  C   UNL     1      74.547  85.565  68.776  1.00  0.00    -0.025 A 
ATOM      9  C   UNL     1      76.811  85.879  67.869  1.00  0.00     0.160 A 
ATOM     10  C   UNL     1      77.363  85.551  69.126  1.00  0.00     0.157 A 
ATOM     11  C   UNL     1      75.411  85.865  67.698  1.00  0.00     0.056 A 
ATOM     12  C   UNL     1      76.515  85.212  70.196  1.00  0.00     0.050 A 
ATOM     13  C   UNL     1      75.117  85.229  70.027  1.00  0.00     0.009 A 
BRANCH   9  14
ATOM     14  O   UNL     1      77.629  86.171  66.811  1.00  0.00    -0.493 OA
ATOM     15  C   UNL     1      77.527  87.533  66.359  1.00  0.00     0.278 C 
ENDBRANCH   9  14
BRANCH  10  16
ATOM     16  O   UNL     1      78.708  85.554  69.319  1.00  0.00    -0.504 OA
ATOM     17  H   UNL     1      78.993  84.680  69.596  1.00  0.00     0.293 HD
ENDBRANCH  10  16
ENDBRANCH   7   8
ENDBRANCH   4   7
ENDBRANCH   2   3
ENDBRANCH   1   2
BRANCH   1  18
ATOM     18  C   UNL     1      71.755  81.605  64.043  1.00  0.00     0.001 C 
BRANCH  18  19
ATOM     19  C   UNL     1      72.696  80.666  64.850  1.00  0.00     0.000 C 
BRANCH  19  20
ATOM     20  C   UNL     1      74.190  80.917  64.502  1.00  0.00     0.000 C 
BRANCH  20  21
ATOM     21  C   UNL     1      75.108  81.119  65.739  1.00  0.00     0.003 C 
BRANCH  21  22
ATOM     22  C   UNL     1      75.659  82.573  65.910  1.00  0.00    -0.017 C 
ATOM     23  C   UNL     1      75.351  83.423  64.646  1.00  0.00     0.007 C 
ATOM     24  C   UNL     1      77.178  82.630  66.249  1.00  0.00     0.007 C 
ENDBRANCH  21  22
ENDBRANCH  20  21
ENDBRANCH  19  20
ENDBRANCH  18  19
ENDBRANCH   1  18
TORSDOF 11
ENDMDL
MODEL 7
REMARK VINA RESULT:    -5.409     20.518     24.339
REMARK INTER + INTRA:          -9.661
REMARK INTER:                  -8.437
REMARK INTRA:                  -1.225
REMARK UNBOUND:                -0.932
REMARK SMILES COc1cc(CNC(=O)CCCCCCC(C)C)ccc1O
REMARK SMILES IDX 11 1 10 2 8 3 7 4 9 6 6 7 5 8 3 9 21 10 4 11 20 12 19 13
REMARK SMILES IDX 2 14 1 15 22 16 12 18 13 19 14 20 15 21 16 22 17 23 18 24
REMARK H PARENT 7 5 22 17
REMARK Flexibility Score: inf
ROOT
ATOM      1  C   UNL     1      89.339  98.588  71.016  1.00  0.00     0.010 C 
ENDROOT
BRANCH   1   2
ATOM      2  C   UNL     1      90.685  99.315  71.290  1.00  0.00     0.100 C 
BRANCH   2   3
ATOM      3  C   UNL     1      90.555 100.789  71.335  1.00  0.00     0.220 C 
ATOM      4  N   UNL     1      89.368 101.366  71.681  1.00  0.00    -0.352 N 
ATOM      5  H   UNL     1      88.616 100.714  71.850  1.00  0.00     0.163 HD
ATOM      6  O   UNL     1      91.563 101.490  71.072  1.00  0.00    -0.275 OA
BRANCH   4   7
ATOM      7  C   UNL     1      89.142 102.773  71.814  1.00  0.00     0.151 C 
BRANCH   7   8
ATOM      8  C   UNL     1      89.144 103.236  73.229  1.00  0.00    -0.025 A 
ATOM      9  C   UNL     1      90.375 103.952  75.234  1.00  0.00     0.160 A 
ATOM     10  C   UNL     1      89.155 104.162  75.912  1.00  0.00     0.157 A 
ATOM     11  C   UNL     1      90.361 103.474  73.907  1.00  0.00     0.056 A 
ATOM     12  C   UNL     1      87.937 103.891  75.261  1.00  0.00     0.050 A 
ATOM     13  C   UNL     1      87.930 103.442  73.926  1.00  0.00     0.009 A 
BRANCH   9  14
ATOM     14  O   UNL     1      91.566 104.174  75.871  1.00  0.00    -0.493 OA
ATOM     15  C   UNL     1      92.120 103.000  76.491  1.00  0.00     0.278 C 
ENDBRANCH   9  14
BRANCH  10  16
ATOM     16  O   UNL     1      89.138 104.620  77.191  1.00  0.00    -0.504 OA
ATOM     17  H   UNL     1      89.634 104.018  77.752  1.00  0.00     0.293 HD
ENDBRANCH  10  16
ENDBRANCH   7   8
ENDBRANCH   4   7
ENDBRANCH   2   3
ENDBRANCH   1   2
BRANCH   1  18
ATOM     18  C   UNL     1      89.549  97.183  70.385  1.00  0.00     0.001 C 
BRANCH  18  19
ATOM     19  C   UNL     1      89.011  97.063  68.931  1.00  0.00     0.000 C 
BRANCH  19  20
ATOM     20  C   UNL     1      88.444  98.416  68.417  1.00  0.00     0.000 C 
BRANCH  20  21
ATOM     21  C   UNL     1      89.374  99.160  67.420  1.00  0.00     0.003 C 
BRANCH  21  22
ATOM     22  C   UNL     1      89.713 100.633  67.821  1.00  0.00    -0.017 C 
ATOM     23  C   UNL     1      88.410 101.461  68.001  1.00  0.00     0.007 C 
ATOM     24  C   UNL     1      90.679 101.345  66.829  1.00  0.00     0.007 C 
ENDBRANCH  21  22
ENDBRANCH  20  21
ENDBRANCH  19  20
ENDBRANCH  18  19
ENDBRANCH   1  18
TORSDOF 11
ENDMDL
MODEL 8
REMARK VINA RESULT:    -5.397      2.230      5.391
REMARK INTER + INTRA:          -9.642
REMARK INTER:                  -7.755
REMARK INTRA:                  -1.887
REMARK UNBOUND:                -0.932
REMARK SMILES COc1cc(CNC(=O)CCCCCCC(C)C)ccc1O
REMARK SMILES IDX 11 1 10 2 8 3 7 4 9 6 6 7 5 8 3 9 21 10 4 11 20 12 19 13
REMARK SMILES IDX 2 14 1 15 22 16 12 18 13 19 14 20 15 21 16 22 17 23 18 24
REMARK H PARENT 7 5 22 17
REMARK Flexibility Score: inf
ROOT
ATOM      1  C   UNL     1      72.874  81.704  65.983  1.00  0.00     0.010 C 
ENDROOT
BRANCH   1   2
ATOM      2  C   UNL     1      73.617  81.042  64.789  1.00  0.00     0.100 C 
BRANCH   2   3
ATOM      3  C   UNL     1      75.040  81.438  64.694  1.00  0.00     0.220 C 
ATOM      4  N   UNL     1      75.751  81.728  65.822  1.00  0.00    -0.352 N 
ATOM      5  H   UNL     1      75.217  81.690  66.678  1.00  0.00     0.163 HD
ATOM      6  O   UNL     1      75.579  81.476  63.561  1.00  0.00    -0.275 OA
BRANCH   4   7
ATOM      7  C   UNL     1      77.142  82.064  65.857  1.00  0.00     0.151 C 
BRANCH   7   8
ATOM      8  C   UNL     1      77.397  83.463  66.299  1.00  0.00    -0.025 A 
ATOM      9  C   UNL     1      77.153  85.884  65.948  1.00  0.00     0.160 A 
ATOM     10  C   UNL     1      77.839  86.131  67.157  1.00  0.00     0.157 A 
ATOM     11  C   UNL     1      76.954  84.555  65.520  1.00  0.00     0.056 A 
ATOM     12  C   UNL     1      78.319  85.053  67.922  1.00  0.00     0.050 A 
ATOM     13  C   UNL     1      78.091  83.727  67.503  1.00  0.00     0.009 A 
BRANCH   9  14
ATOM     14  O   UNL     1      76.717  86.927  65.176  1.00  0.00    -0.493 OA
ATOM     15  C   UNL     1      76.403  86.554  63.822  1.00  0.00     0.278 C 
ENDBRANCH   9  14
BRANCH  10  16
ATOM     16  O   UNL     1      78.047  87.401  67.593  1.00  0.00    -0.504 OA
ATOM     17  H   UNL     1      77.841  88.019  66.887  1.00  0.00     0.293 HD
ENDBRANCH  10  16
ENDBRANCH   7   8
ENDBRANCH   4   7
ENDBRANCH   2   3
ENDBRANCH   1   2
BRANCH   1  18
ATOM     18  C   UNL     1      72.608  83.217  65.743  1.00  0.00     0.001 C 
BRANCH  18  19
ATOM     19  C   UNL     1      72.583  84.063  67.047  1.00  0.00     0.000 C 
BRANCH  19  20
ATOM     20  C   UNL     1      74.020  84.395  67.541  1.00  0.00     0.000 C 
BRANCH  20  21
ATOM     21  C   UNL     1      74.191  85.843  68.078  1.00  0.00     0.003 C 
BRANCH  21  22
ATOM     22  C   UNL     1      74.574  85.934  69.591  1.00  0.00    -0.017 C 
ATOM     23  C   UNL     1      75.243  87.303  69.901  1.00  0.00     0.007 C 
ATOM     24  C   UNL     1      75.478  84.763  70.079  1.00  0.00     0.007 C 
ENDBRANCH  21  22
ENDBRANCH  20  21
ENDBRANCH  19  20
ENDBRANCH  18  19
ENDBRANCH   1  18
TORSDOF 11
ENDMDL
MODEL 9
REMARK VINA RESULT:    -5.246      2.677      6.503
REMARK INTER + INTRA:          -9.397
REMARK INTER:                  -8.574
REMARK INTRA:                  -0.823
REMARK UNBOUND:                -0.932
REMARK SMILES COc1cc(CNC(=O)CCCCCCC(C)C)ccc1O
REMARK SMILES IDX 11 1 10 2 8 3 7 4 9 6 6 7 5 8 3 9 21 10 4 11 20 12 19 13
REMARK SMILES IDX 2 14 1 15 22 16 12 18 13 19 14 20 15 21 16 22 17 23 18 24
REMARK H PARENT 7 5 22 17
REMARK Flexibility Score: inf
ROOT
ATOM      1  C   UNL     1      71.805  81.730  66.159  1.00  0.00     0.010 C 
ENDROOT
BRANCH   1   2
ATOM      2  C   UNL     1      72.413  81.416  64.764  1.00  0.00     0.100 C 
BRANCH   2   3
ATOM      3  C   UNL     1      73.887  81.283  64.785  1.00  0.00     0.220 C 
ATOM      4  N   UNL     1      74.615  81.843  65.794  1.00  0.00    -0.352 N 
ATOM      5  H   UNL     1      74.073  82.369  66.463  1.00  0.00     0.163 HD
ATOM      6  O   UNL     1      74.445  80.626  63.872  1.00  0.00    -0.275 OA
BRANCH   4   7
ATOM      7  C   UNL     1      76.034  81.731  65.949  1.00  0.00     0.151 C 
BRANCH   7   8
ATOM      8  C   UNL     1      76.634  82.869  66.698  1.00  0.00    -0.025 A 
ATOM      9  C   UNL     1      76.592  84.421  68.605  1.00  0.00     0.160 A 
ATOM     10  C   UNL     1      77.794  85.009  68.156  1.00  0.00     0.157 A 
ATOM     11  C   UNL     1      76.012  83.370  67.864  1.00  0.00     0.056 A 
ATOM     12  C   UNL     1      78.403  84.544  66.976  1.00  0.00     0.050 A 
ATOM     13  C   UNL     1      77.833  83.475  66.257  1.00  0.00     0.009 A 
BRANCH   9  14
ATOM     14  O   UNL     1      75.971  84.892  69.730  1.00  0.00    -0.493 OA
ATOM     15  C   UNL     1      76.318  84.173  70.928  1.00  0.00     0.278 C 
ENDBRANCH   9  14
BRANCH  10  16
ATOM     16  O   UNL     1      78.375  86.024  68.849  1.00  0.00    -0.504 OA
ATOM     17  H   UNL     1      77.826  86.809  68.785  1.00  0.00     0.293 HD
ENDBRANCH  10  16
ENDBRANCH   7   8
ENDBRANCH   4   7
ENDBRANCH   2   3
ENDBRANCH   1   2
BRANCH   1  18
ATOM     18  C   UNL     1      71.103  83.117  66.194  1.00  0.00     0.001 C 
BRANCH  18  19
ATOM     19  C   UNL     1      69.580  83.041  66.499  1.00  0.00     0.000 C 
BRANCH  19  20
ATOM     20  C   UNL     1      69.180  83.997  67.658  1.00  0.00     0.000 C 
BRANCH  20  21
ATOM     21  C   UNL     1      70.174  84.002  68.852  1.00  0.00     0.003 C 
BRANCH  21  22
ATOM     22  C   UNL     1      69.611  83.376  70.169  1.00  0.00    -0.017 C 
ATOM     23  C   UNL     1      68.079  83.139  70.047  1.00  0.00     0.007 C 
ATOM     24  C   UNL     1      69.933  84.208  71.445  1.00  0.00     0.007 C 
ENDBRANCH  21  22
ENDBRANCH  20  21
ENDBRANCH  19  20
ENDBRANCH  18  19
ENDBRANCH   1  18
TORSDOF 11
ENDMDL
MODEL 10
REMARK VINA RESULT:    -5.084      2.576      3.971
REMARK INTER + INTRA:          -9.137
REMARK INTER:                  -7.849
REMARK INTRA:                  -1.288
REMARK UNBOUND:                -0.932
REMARK SMILES COc1cc(CNC(=O)CCCCCCC(C)C)ccc1O
REMARK SMILES IDX 11 1 10 2 8 3 7 4 9 6 6 7 5 8 3 9 21 10 4 11 20 12 19 13
REMARK SMILES IDX 2 14 1 15 22 16 12 18 13 19 14 20 15 21 16 22 17 23 18 24
REMARK H PARENT 7 5 22 17
REMARK Flexibility Score: inf
ROOT
ATOM      1  C   UNL     1      76.530  83.104  66.667  1.00  0.00     0.010 C 
ENDROOT
BRANCH   1   2
ATOM      2  C   UNL     1      76.770  81.777  65.895  1.00  0.00     0.100 C 
BRANCH   2   3
ATOM      3  C   UNL     1      75.571  81.293  65.175  1.00  0.00     0.220 C 
ATOM      4  N   UNL     1      74.358  81.265  65.799  1.00  0.00    -0.352 N 
ATOM      5  H   UNL     1      74.375  81.550  66.767  1.00  0.00     0.163 HD
ATOM      6  O   UNL     1      75.691  80.936  63.978  1.00  0.00    -0.275 OA
BRANCH   4   7
ATOM      7  C   UNL     1      73.124  80.874  65.188  1.00  0.00     0.151 C 
BRANCH   7   8
ATOM      8  C   UNL     1      72.344  82.023  64.652  1.00  0.00    -0.025 A 
ATOM      9  C   UNL     1      72.065  84.447  64.341  1.00  0.00     0.160 A 
ATOM     10  C   UNL     1      70.887  84.218  63.597  1.00  0.00     0.157 A 
ATOM     11  C   UNL     1      72.773  83.351  64.878  1.00  0.00     0.056 A 
ATOM     12  C   UNL     1      70.429  82.903  63.398  1.00  0.00     0.050 A 
ATOM     13  C   UNL     1      71.156  81.812  63.912  1.00  0.00     0.009 A 
BRANCH   9  14
ATOM     14  O   UNL     1      72.498  85.724  64.573  1.00  0.00    -0.493 OA
ATOM     15  C   UNL     1      73.550  86.149  63.688  1.00  0.00     0.278 C 
ENDBRANCH   9  14
BRANCH  10  16
ATOM     16  O   UNL     1      70.185  85.255  63.069  1.00  0.00    -0.504 OA
ATOM     17  H   UNL     1      69.244  85.088  63.172  1.00  0.00     0.293 HD
ENDBRANCH  10  16
ENDBRANCH   7   8
ENDBRANCH   4   7
ENDBRANCH   2   3
ENDBRANCH   1   2
BRANCH   1  18
ATOM     18  C   UNL     1      76.607  84.347  65.736  1.00  0.00     0.001 C 
BRANCH  18  19
ATOM     19  C   UNL     1      76.148  85.668  66.415  1.00  0.00     0.000 C 
BRANCH  19  20
ATOM     20  C   UNL     1      77.294  86.718  66.456  1.00  0.00     0.000 C 
BRANCH  20  21
ATOM     21  C   UNL     1      77.913  86.930  67.866  1.00  0.00     0.003 C 
BRANCH  21  22
ATOM     22  C   UNL     1      76.989  86.503  69.053  1.00  0.00    -0.017 C 
ATOM     23  C   UNL     1      76.546  87.748  69.872  1.00  0.00     0.007 C 
ATOM     24  C   UNL     1      77.627  85.434  69.988  1.00  0.00     0.007 C 
ENDBRANCH  21  22
ENDBRANCH  20  21
ENDBRANCH  19  20
ENDBRANCH  18  19
ENDBRANCH   1  18
TORSDOF 11
ENDMDL
