MODEL 1
REMARK VINA RESULT:    -6.214      0.000      0.000
REMARK INTER + INTRA:         -11.158
REMARK INTER:                 -10.392
REMARK INTRA:                  -0.765
REMARK UNBOUND:                -0.765
REMARK SMILES COc1cc(CNC(=O)CCCCCCCC(C)C)ccc1O
REMARK SMILES IDX 11 1 10 2 8 3 9 4 7 5 6 7 5 8 4 9 20 10 3 11 21 12 22 13
REMARK SMILES IDX 2 14 1 15 23 16 12 18 13 19 14 20 15 21 16 22 17 23 18 24
REMARK SMILES IDX 19 25
REMARK H PARENT 7 6 23 17
REMARK Flexibility Score: inf
ROOT
ATOM      1  C   UNL     1      96.041  80.834  82.541  1.00  0.00     0.010 C 
ENDROOT
BRANCH   1   2
ATOM      2  C   UNL     1      95.914  80.833  84.063  1.00  0.00     0.100 C 
BRANCH   2   3
ATOM      3  C   UNL     1      94.722  81.644  84.545  1.00  0.00     0.220 C 
ATOM      4  O   UNL     1      94.784  82.842  84.806  1.00  0.00    -0.275 OA
ATOM      5  N   UNL     1      93.583  80.860  84.654  1.00  0.00    -0.352 N 
ATOM      6  H   UNL     1      93.631  79.871  84.426  1.00  0.00     0.163 HD
BRANCH   5   7
ATOM      7  C   UNL     1      92.313  81.383  85.100  1.00  0.00     0.151 C 
BRANCH   7   8
ATOM      8  C   UNL     1      91.181  80.444  84.797  1.00  0.00    -0.025 A 
ATOM      9  C   UNL     1      89.912  80.953  84.552  1.00  0.00     0.056 A 
ATOM     10  C   UNL     1      91.416  79.075  84.765  1.00  0.00     0.009 A 
ATOM     11  C   UNL     1      88.861  80.081  84.270  1.00  0.00     0.160 A 
ATOM     12  C   UNL     1      90.364  78.202  84.484  1.00  0.00     0.050 A 
ATOM     13  C   UNL     1      89.087  78.704  84.237  1.00  0.00     0.157 A 
BRANCH  11  14
ATOM     14  O   UNL     1      87.617  80.584  84.031  1.00  0.00    -0.493 OA
ATOM     15  C   UNL     1      86.876  81.041  85.161  1.00  0.00     0.278 C 
ENDBRANCH  11  14
BRANCH  13  16
ATOM     16  O   UNL     1      88.069  77.842  83.962  1.00  0.00    -0.504 OA
ATOM     17  H   UNL     1      87.703  78.052  83.086  1.00  0.00     0.293 HD
ENDBRANCH  13  16
ENDBRANCH   7   8
ENDBRANCH   5   7
ENDBRANCH   2   3
ENDBRANCH   1   2
BRANCH   1  18
ATOM     18  C   UNL     1      96.637  82.128  81.979  1.00  0.00     0.001 C 
BRANCH  18  19
ATOM     19  C   UNL     1      96.980  82.108  80.486  1.00  0.00     0.000 C 
BRANCH  19  20
ATOM     20  C   UNL     1      97.726  80.843  80.053  1.00  0.00     0.000 C 
BRANCH  20  21
ATOM     21  C   UNL     1      97.559  80.515  78.565  1.00  0.00     0.000 C 
BRANCH  21  22
ATOM     22  C   UNL     1      97.890  81.694  77.644  1.00  0.00     0.003 C 
BRANCH  22  23
ATOM     23  C   UNL     1      96.802  81.972  76.588  1.00  0.00    -0.017 C 
ATOM     24  C   UNL     1      97.429  82.643  75.363  1.00  0.00     0.007 C 
ATOM     25  C   UNL     1      95.670  82.845  77.129  1.00  0.00     0.007 C 
ENDBRANCH  22  23
ENDBRANCH  21  22
ENDBRANCH  20  21
ENDBRANCH  19  20
ENDBRANCH  18  19
ENDBRANCH   1  18
TORSDOF 12
ENDMDL
MODEL 2
REMARK VINA RESULT:    -6.212     17.440     20.806
REMARK INTER + INTRA:         -11.153
REMARK INTER:                 -10.401
REMARK INTRA:                  -0.752
REMARK UNBOUND:                -0.765
REMARK SMILES COc1cc(CNC(=O)CCCCCCCC(C)C)ccc1O
REMARK SMILES IDX 11 1 10 2 8 3 9 4 7 5 6 7 5 8 4 9 20 10 3 11 21 12 22 13
REMARK SMILES IDX 2 14 1 15 23 16 12 18 13 19 14 20 15 21 16 22 17 23 18 24
REMARK SMILES IDX 19 25
REMARK H PARENT 7 6 23 17
REMARK Flexibility Score: inf
ROOT
ATOM      1  C   UNL     1      95.210  96.891  73.984  1.00  0.00     0.010 C 
ENDROOT
BRANCH   1   2
ATOM      2  C   UNL     1      94.120  97.958  74.059  1.00  0.00     0.100 C 
BRANCH   2   3
ATOM      3  C   UNL     1      94.232  98.978  72.938  1.00  0.00     0.220 C 
ATOM      4  O   UNL     1      95.259  99.606  72.698  1.00  0.00    -0.275 OA
ATOM      5  N   UNL     1      93.038  99.105  72.243  1.00  0.00    -0.352 N 
ATOM      6  H   UNL     1      92.233  98.549  72.522  1.00  0.00     0.163 HD
BRANCH   5   7
ATOM      7  C   UNL     1      92.870 100.015  71.133  1.00  0.00     0.151 C 
BRANCH   7   8
ATOM      8  C   UNL     1      91.617  99.729  70.358  1.00  0.00    -0.025 A 
ATOM      9  C   UNL     1      91.392 100.381  69.151  1.00  0.00     0.056 A 
ATOM     10  C   UNL     1      90.695  98.815  70.854  1.00  0.00     0.009 A 
ATOM     11  C   UNL     1      90.227 100.115  68.430  1.00  0.00     0.160 A 
ATOM     12  C   UNL     1      89.530  98.550  70.133  1.00  0.00     0.050 A 
ATOM     13  C   UNL     1      89.296  99.200  68.921  1.00  0.00     0.157 A 
BRANCH  11  14
ATOM     14  O   UNL     1      90.010 100.756  67.248  1.00  0.00    -0.493 OA
ATOM     15  C   UNL     1      89.463 102.072  67.316  1.00  0.00     0.278 C 
ENDBRANCH  11  14
BRANCH  13  16
ATOM     16  O   UNL     1      88.156  98.931  68.227  1.00  0.00    -0.504 OA
ATOM     17  H   UNL     1      87.576  99.712  68.256  1.00  0.00     0.293 HD
ENDBRANCH  13  16
ENDBRANCH   7   8
ENDBRANCH   5   7
ENDBRANCH   2   3
ENDBRANCH   1   2
BRANCH   1  18
ATOM     18  C   UNL     1      94.733  95.501  74.416  1.00  0.00     0.001 C 
BRANCH  18  19
ATOM     19  C   UNL     1      94.711  95.245  75.926  1.00  0.00     0.000 C 
BRANCH  19  20
ATOM     20  C   UNL     1      94.037  93.925  76.307  1.00  0.00     0.000 C 
BRANCH  20  21
ATOM     21  C   UNL     1      93.614  93.857  77.778  1.00  0.00     0.000 C 
BRANCH  21  22
ATOM     22  C   UNL     1      92.199  93.303  77.978  1.00  0.00     0.003 C 
BRANCH  22  23
ATOM     23  C   UNL     1      91.308  93.429  76.727  1.00  0.00    -0.017 C 
ATOM     24  C   UNL     1      90.396  94.651  76.862  1.00  0.00     0.007 C 
ATOM     25  C   UNL     1      90.461  92.180  76.483  1.00  0.00     0.007 C 
ENDBRANCH  22  23
ENDBRANCH  21  22
ENDBRANCH  20  21
ENDBRANCH  19  20
ENDBRANCH  18  19
ENDBRANCH   1  18
TORSDOF 12
ENDMDL
MODEL 3
REMARK VINA RESULT:    -6.148      5.116      9.645
REMARK INTER + INTRA:         -11.046
REMARK INTER:                  -9.669
REMARK INTRA:                  -1.377
REMARK UNBOUND:                -0.765
REMARK SMILES COc1cc(CNC(=O)CCCCCCCC(C)C)ccc1O
REMARK SMILES IDX 11 1 10 2 8 3 9 4 7 5 6 7 5 8 4 9 20 10 3 11 21 12 22 13
REMARK SMILES IDX 2 14 1 15 23 16 12 18 13 19 14 20 15 21 16 22 17 23 18 24
REMARK SMILES IDX 19 25
REMARK H PARENT 7 6 23 17
REMARK Flexibility Score: inf
ROOT
ATOM      1  C   UNL     1      97.516  79.346  80.937  1.00  0.00     0.010 C 
ENDROOT
BRANCH   1   2
ATOM      2  C   UNL     1      99.020  79.540  81.119  1.00  0.00     0.100 C 
BRANCH   2   3
ATOM      3  C   UNL     1      99.709  79.961  79.831  1.00  0.00     0.220 C 
ATOM      4  O   UNL     1     100.912  80.194  79.756  1.00  0.00    -0.275 OA
ATOM      5  N   UNL     1      98.810  80.052  78.779  1.00  0.00    -0.352 N 
ATOM      6  H   UNL     1      97.827  79.851  78.940  1.00  0.00     0.163 HD
BRANCH   5   7
ATOM      7  C   UNL     1      99.203  80.441  77.444  1.00  0.00     0.151 C 
BRANCH   7   8
ATOM      8  C   UNL     1      98.222  81.394  76.825  1.00  0.00    -0.025 A 
ATOM      9  C   UNL     1      98.543  82.034  75.634  1.00  0.00     0.056 A 
ATOM     10  C   UNL     1      97.003  81.626  77.450  1.00  0.00     0.009 A 
ATOM     11  C   UNL     1      97.632  82.919  75.059  1.00  0.00     0.160 A 
ATOM     12  C   UNL     1      96.091  82.512  76.875  1.00  0.00     0.050 A 
ATOM     13  C   UNL     1      96.405  83.159  75.680  1.00  0.00     0.157 A 
BRANCH  11  14
ATOM     14  O   UNL     1      97.950  83.545  73.892  1.00  0.00    -0.493 OA
ATOM     15  C   UNL     1      98.921  82.911  73.060  1.00  0.00     0.278 C 
ENDBRANCH  11  14
BRANCH  13  16
ATOM     16  O   UNL     1      95.507  84.021  75.128  1.00  0.00    -0.504 OA
ATOM     17  H   UNL     1      95.728  84.151  74.189  1.00  0.00     0.293 HD
ENDBRANCH  13  16
ENDBRANCH   7   8
ENDBRANCH   5   7
ENDBRANCH   2   3
ENDBRANCH   1   2
BRANCH   1  18
ATOM     18  C   UNL     1      96.670  80.306  81.778  1.00  0.00     0.001 C 
BRANCH  18  19
ATOM     19  C   UNL     1      96.707  81.776  81.347  1.00  0.00     0.000 C 
BRANCH  19  20
ATOM     20  C   UNL     1      96.272  82.742  82.453  1.00  0.00     0.000 C 
BRANCH  20  21
ATOM     21  C   UNL     1      96.734  82.316  83.851  1.00  0.00     0.000 C 
BRANCH  21  22
ATOM     22  C   UNL     1      95.581  82.154  84.847  1.00  0.00     0.003 C 
BRANCH  22  23
ATOM     23  C   UNL     1      94.498  81.163  84.377  1.00  0.00    -0.017 C 
ATOM     24  C   UNL     1      93.130  81.604  84.903  1.00  0.00     0.007 C 
ATOM     25  C   UNL     1      94.783  79.729  84.826  1.00  0.00     0.007 C 
ENDBRANCH  22  23
ENDBRANCH  21  22
ENDBRANCH  20  21
ENDBRANCH  19  20
ENDBRANCH  18  19
ENDBRANCH   1  18
TORSDOF 12
ENDMDL
MODEL 4
REMARK VINA RESULT:    -6.061     16.004     19.454
REMARK INTER + INTRA:         -10.901
REMARK INTER:                 -10.123
REMARK INTRA:                  -0.777
REMARK UNBOUND:                -0.765
REMARK SMILES COc1cc(CNC(=O)CCCCCCCC(C)C)ccc1O
REMARK SMILES IDX 11 1 10 2 8 3 9 4 7 5 6 7 5 8 4 9 20 10 3 11 21 12 22 13
REMARK SMILES IDX 2 14 1 15 23 16 12 18 13 19 14 20 15 21 16 22 17 23 18 24
REMARK SMILES IDX 19 25
REMARK H PARENT 7 6 23 17
REMARK Flexibility Score: inf
ROOT
ATOM      1  C   UNL     1      94.282  94.485  76.126  1.00  0.00     0.010 C 
ENDROOT
BRANCH   1   2
ATOM      2  C   UNL     1      93.503  95.638  75.497  1.00  0.00     0.100 C 
BRANCH   2   3
ATOM      3  C   UNL     1      94.274  96.314  74.375  1.00  0.00     0.220 C 
ATOM      4  O   UNL     1      95.179  95.764  73.753  1.00  0.00    -0.275 OA
ATOM      5  N   UNL     1      93.832  97.611  74.162  1.00  0.00    -0.352 N 
ATOM      6  H   UNL     1      93.082  97.986  74.736  1.00  0.00     0.163 HD
BRANCH   5   7
ATOM      7  C   UNL     1      94.403  98.479  73.158  1.00  0.00     0.151 C 
BRANCH   7   8
ATOM      8  C   UNL     1      93.446  99.554  72.734  1.00  0.00    -0.025 A 
ATOM      9  C   UNL     1      92.557  99.313  71.694  1.00  0.00     0.056 A 
ATOM     10  C   UNL     1      93.458 100.781  73.388  1.00  0.00     0.009 A 
ATOM     11  C   UNL     1      91.667 100.313  71.300  1.00  0.00     0.160 A 
ATOM     12  C   UNL     1      92.568 101.781  72.993  1.00  0.00     0.050 A 
ATOM     13  C   UNL     1      91.673 101.547  71.950  1.00  0.00     0.157 A 
BRANCH  11  14
ATOM     14  O   UNL     1      90.798 100.073  70.279  1.00  0.00    -0.493 OA
ATOM     15  C   UNL     1      89.724  99.170  70.541  1.00  0.00     0.278 C 
ENDBRANCH  11  14
BRANCH  13  16
ATOM     16  O   UNL     1      90.809 102.531  71.576  1.00  0.00    -0.504 OA
ATOM     17  H   UNL     1      90.304 102.231  70.800  1.00  0.00     0.293 HD
ENDBRANCH  13  16
ENDBRANCH   7   8
ENDBRANCH   5   7
ENDBRANCH   2   3
ENDBRANCH   1   2
BRANCH   1  18
ATOM     18  C   UNL     1      93.385  93.390  76.711  1.00  0.00     0.001 C 
BRANCH  18  19
ATOM     19  C   UNL     1      92.428  93.838  77.820  1.00  0.00     0.000 C 
BRANCH  19  20
ATOM     20  C   UNL     1      90.960  93.526  77.516  1.00  0.00     0.000 C 
BRANCH  20  21
ATOM     21  C   UNL     1      90.725  93.044  76.080  1.00  0.00     0.000 C 
BRANCH  21  22
ATOM     22  C   UNL     1      90.427  91.544  75.985  1.00  0.00     0.003 C 
BRANCH  22  23
ATOM     23  C   UNL     1      90.569  90.979  74.558  1.00  0.00    -0.017 C 
ATOM     24  C   UNL     1      89.287  91.246  73.766  1.00  0.00     0.007 C 
ATOM     25  C   UNL     1      90.877  89.481  74.548  1.00  0.00     0.007 C 
ENDBRANCH  22  23
ENDBRANCH  21  22
ENDBRANCH  20  21
ENDBRANCH  19  20
ENDBRANCH  18  19
ENDBRANCH   1  18
TORSDOF 12
ENDMDL
MODEL 5
REMARK VINA RESULT:    -5.808     22.482     25.962
REMARK INTER + INTRA:         -10.477
REMARK INTER:                  -8.967
REMARK INTRA:                  -1.510
REMARK UNBOUND:                -0.765
REMARK SMILES COc1cc(CNC(=O)CCCCCCCC(C)C)ccc1O
REMARK SMILES IDX 11 1 10 2 8 3 9 4 7 5 6 7 5 8 4 9 20 10 3 11 21 12 22 13
REMARK SMILES IDX 2 14 1 15 23 16 12 18 13 19 14 20 15 21 16 22 17 23 18 24
REMARK SMILES IDX 19 25
REMARK H PARENT 7 6 23 17
REMARK Flexibility Score: inf
ROOT
ATOM      1  C   UNL     1      89.874  99.223  70.705  1.00  0.00     0.010 C 
ENDROOT
BRANCH   1   2
ATOM      2  C   UNL     1      89.745  97.917  69.924  1.00  0.00     0.100 C 
BRANCH   2   3
ATOM      3  C   UNL     1      89.570  98.150  68.432  1.00  0.00     0.220 C 
ATOM      4  O   UNL     1      90.367  97.749  67.589  1.00  0.00    -0.275 OA
ATOM      5  N   UNL     1      88.416  98.870  68.161  1.00  0.00    -0.352 N 
ATOM      6  H   UNL     1      87.820  99.171  68.928  1.00  0.00     0.163 HD
BRANCH   5   7
ATOM      7  C   UNL     1      88.017  99.235  66.821  1.00  0.00     0.151 C 
BRANCH   7   8
ATOM      8  C   UNL     1      88.032 100.721  66.616  1.00  0.00    -0.025 A 
ATOM      9  C   UNL     1      89.235 101.413  66.689  1.00  0.00     0.056 A 
ATOM     10  C   UNL     1      86.843 101.391  66.355  1.00  0.00     0.009 A 
ATOM     11  C   UNL     1      89.249 102.795  66.499  1.00  0.00     0.160 A 
ATOM     12  C   UNL     1      86.857 102.774  66.165  1.00  0.00     0.050 A 
ATOM     13  C   UNL     1      88.060 103.476  66.237  1.00  0.00     0.157 A 
BRANCH  11  14
ATOM     14  O   UNL     1      90.431 103.470  66.572  1.00  0.00    -0.493 OA
ATOM     15  C   UNL     1      91.320 103.342  65.464  1.00  0.00     0.278 C 
ENDBRANCH  11  14
BRANCH  13  16
ATOM     16  O   UNL     1      88.061 104.825  66.049  1.00  0.00    -0.504 OA
ATOM     17  H   UNL     1      88.950 105.105  65.770  1.00  0.00     0.293 HD
ENDBRANCH  13  16
ENDBRANCH   7   8
ENDBRANCH   5   7
ENDBRANCH   2   3
ENDBRANCH   1   2
BRANCH   1  18
ATOM     18  C   UNL     1      91.325  99.653  70.941  1.00  0.00     0.001 C 
BRANCH  18  19
ATOM     19  C   UNL     1      91.627 101.134  70.692  1.00  0.00     0.000 C 
BRANCH  19  20
ATOM     20  C   UNL     1      90.387 101.951  70.319  1.00  0.00     0.000 C 
BRANCH  20  21
ATOM     21  C   UNL     1      90.067 103.066  71.321  1.00  0.00     0.000 C 
BRANCH  21  22
ATOM     22  C   UNL     1      89.220 102.591  72.507  1.00  0.00     0.003 C 
BRANCH  22  23
ATOM     23  C   UNL     1      89.643 103.214  73.852  1.00  0.00    -0.017 C 
ATOM     24  C   UNL     1      89.060 104.624  73.974  1.00  0.00     0.007 C 
ATOM     25  C   UNL     1      91.162 103.269  74.021  1.00  0.00     0.007 C 
ENDBRANCH  22  23
ENDBRANCH  21  22
ENDBRANCH  20  21
ENDBRANCH  19  20
ENDBRANCH  18  19
ENDBRANCH   1  18
TORSDOF 12
ENDMDL
MODEL 6
REMARK VINA RESULT:    -5.733      7.175     10.896
REMARK INTER + INTRA:         -10.353
REMARK INTER:                  -8.771
REMARK INTRA:                  -1.581
REMARK UNBOUND:                -0.765
REMARK SMILES COc1cc(CNC(=O)CCCCCCCC(C)C)ccc1O
REMARK SMILES IDX 11 1 10 2 8 3 9 4 7 5 6 7 5 8 4 9 20 10 3 11 21 12 22 13
REMARK SMILES IDX 2 14 1 15 23 16 12 18 13 19 14 20 15 21 16 22 17 23 18 24
REMARK SMILES IDX 19 25
REMARK H PARENT 7 6 23 17
REMARK Flexibility Score: inf
ROOT
ATOM      1  C   UNL     1      96.866  82.080  77.160  1.00  0.00     0.010 C 
ENDROOT
BRANCH   1   2
ATOM      2  C   UNL     1      96.870  82.079  78.687  1.00  0.00     0.100 C 
BRANCH   2   3
ATOM      3  C   UNL     1      97.935  81.159  79.262  1.00  0.00     0.220 C 
ATOM      4  O   UNL     1      98.299  81.200  80.433  1.00  0.00    -0.275 OA
ATOM      5  N   UNL     1      98.433  80.293  78.300  1.00  0.00    -0.352 N 
ATOM      6  H   UNL     1      98.077  80.340  77.349  1.00  0.00     0.163 HD
BRANCH   5   7
ATOM      7  C   UNL     1      99.462  79.319  78.581  1.00  0.00     0.151 C 
BRANCH   7   8
ATOM      8  C   UNL     1     100.688  79.539  77.743  1.00  0.00    -0.025 A 
ATOM      9  C   UNL     1     101.933  79.165  78.234  1.00  0.00     0.056 A 
ATOM     10  C   UNL     1     100.565  80.116  76.485  1.00  0.00     0.009 A 
ATOM     11  C   UNL     1     103.072  79.371  77.455  1.00  0.00     0.160 A 
ATOM     12  C   UNL     1     101.705  80.322  75.706  1.00  0.00     0.050 A 
ATOM     13  C   UNL     1     102.958  79.950  76.191  1.00  0.00     0.157 A 
BRANCH  11  14
ATOM     14  O   UNL     1     104.291  79.003  77.940  1.00  0.00    -0.493 OA
ATOM     15  C   UNL     1     104.532  79.232  79.328  1.00  0.00     0.278 C 
ENDBRANCH  11  14
BRANCH  13  16
ATOM     16  O   UNL     1     104.062  80.155  75.421  1.00  0.00    -0.504 OA
ATOM     17  H   UNL     1     104.005  81.036  75.014  1.00  0.00     0.293 HD
ENDBRANCH  13  16
ENDBRANCH   7   8
ENDBRANCH   5   7
ENDBRANCH   2   3
ENDBRANCH   1   2
BRANCH   1  18
ATOM     18  C   UNL     1      95.947  83.145  76.553  1.00  0.00     0.001 C 
BRANCH  18  19
ATOM     19  C   UNL     1      96.282  83.573  75.120  1.00  0.00     0.000 C 
BRANCH  19  20
ATOM     20  C   UNL     1      96.651  82.399  74.209  1.00  0.00     0.000 C 
BRANCH  20  21
ATOM     21  C   UNL     1      97.936  82.632  73.406  1.00  0.00     0.000 C 
BRANCH  21  22
ATOM     22  C   UNL     1      99.192  82.705  74.280  1.00  0.00     0.003 C 
BRANCH  22  23
ATOM     23  C   UNL     1     100.224  83.738  73.787  1.00  0.00    -0.017 C 
ATOM     24  C   UNL     1      99.625  84.563  72.645  1.00  0.00     0.007 C 
ATOM     25  C   UNL     1     101.528  83.089  73.322  1.00  0.00     0.007 C 
ENDBRANCH  22  23
ENDBRANCH  21  22
ENDBRANCH  20  21
ENDBRANCH  19  20
ENDBRANCH  18  19
ENDBRANCH   1  18
TORSDOF 12
ENDMDL
MODEL 7
REMARK VINA RESULT:    -5.729     17.729     21.235
REMARK INTER + INTRA:         -10.347
REMARK INTER:                  -9.288
REMARK INTRA:                  -1.059
REMARK UNBOUND:                -0.765
REMARK SMILES COc1cc(CNC(=O)CCCCCCCC(C)C)ccc1O
REMARK SMILES IDX 11 1 10 2 8 3 9 4 7 5 6 7 5 8 4 9 20 10 3 11 21 12 22 13
REMARK SMILES IDX 2 14 1 15 23 16 12 18 13 19 14 20 15 21 16 22 17 23 18 24
REMARK SMILES IDX 19 25
REMARK H PARENT 7 6 23 17
REMARK Flexibility Score: inf
ROOT
ATOM      1  C   UNL     1      93.862  97.167  74.218  1.00  0.00     0.010 C 
ENDROOT
BRANCH   1   2
ATOM      2  C   UNL     1      94.472  98.204  73.278  1.00  0.00     0.100 C 
BRANCH   2   3
ATOM      3  C   UNL     1      93.606  99.446  73.146  1.00  0.00     0.220 C 
ATOM      4  O   UNL     1      93.741 100.440  73.854  1.00  0.00    -0.275 OA
ATOM      5  N   UNL     1      92.658  99.302  72.143  1.00  0.00    -0.352 N 
ATOM      6  H   UNL     1      92.614  98.435  71.614  1.00  0.00     0.163 HD
BRANCH   5   7
ATOM      7  C   UNL     1      91.702 100.334  71.816  1.00  0.00     0.151 C 
BRANCH   7   8
ATOM      8  C   UNL     1      91.394 100.369  70.347  1.00  0.00    -0.025 A 
ATOM      9  C   UNL     1      90.754  99.288  69.752  1.00  0.00     0.056 A 
ATOM     10  C   UNL     1      91.755 101.481  69.596  1.00  0.00     0.009 A 
ATOM     11  C   UNL     1      90.468  99.321  68.387  1.00  0.00     0.160 A 
ATOM     12  C   UNL     1      91.470 101.513  68.230  1.00  0.00     0.050 A 
ATOM     13  C   UNL     1      90.827 100.434  67.626  1.00  0.00     0.157 A 
BRANCH  11  14
ATOM     14  O   UNL     1      89.841  98.260  67.808  1.00  0.00    -0.493 OA
ATOM     15  C   UNL     1      89.797  97.045  68.556  1.00  0.00     0.278 C 
ENDBRANCH  11  14
BRANCH  13  16
ATOM     16  O   UNL     1      90.553 100.477  66.292  1.00  0.00    -0.504 OA
ATOM     17  H   UNL     1      89.923  99.769  66.075  1.00  0.00     0.293 HD
ENDBRANCH  13  16
ENDBRANCH   7   8
ENDBRANCH   5   7
ENDBRANCH   2   3
ENDBRANCH   1   2
BRANCH   1  18
ATOM     18  C   UNL     1      94.489  95.776  74.082  1.00  0.00     0.001 C 
BRANCH  18  19
ATOM     19  C   UNL     1      94.517  94.933  75.361  1.00  0.00     0.000 C 
BRANCH  19  20
ATOM     20  C   UNL     1      94.349  95.763  76.637  1.00  0.00     0.000 C 
BRANCH  20  21
ATOM     21  C   UNL     1      93.286  95.206  77.590  1.00  0.00     0.000 C 
BRANCH  21  22
ATOM     22  C   UNL     1      91.865  95.673  77.255  1.00  0.00     0.003 C 
BRANCH  22  23
ATOM     23  C   UNL     1      90.857  94.516  77.108  1.00  0.00    -0.017 C 
ATOM     24  C   UNL     1      91.304  93.329  77.964  1.00  0.00     0.007 C 
ATOM     25  C   UNL     1      90.687  94.068  75.656  1.00  0.00     0.007 C 
ENDBRANCH  22  23
ENDBRANCH  21  22
ENDBRANCH  20  21
ENDBRANCH  19  20
ENDBRANCH  18  19
ENDBRANCH   1  18
TORSDOF 12
ENDMDL
MODEL 8
REMARK VINA RESULT:    -5.691     19.454     23.228
REMARK INTER + INTRA:         -10.283
REMARK INTER:                  -9.019
REMARK INTRA:                  -1.263
REMARK UNBOUND:                -0.765
REMARK SMILES COc1cc(CNC(=O)CCCCCCCC(C)C)ccc1O
REMARK SMILES IDX 11 1 10 2 8 3 9 4 7 5 6 7 5 8 4 9 20 10 3 11 21 12 22 13
REMARK SMILES IDX 2 14 1 15 23 16 12 18 13 19 14 20 15 21 16 22 17 23 18 24
REMARK SMILES IDX 19 25
REMARK H PARENT 7 6 23 17
REMARK Flexibility Score: inf
ROOT
ATOM      1  C   UNL     1      90.207  98.575  68.664  1.00  0.00     0.010 C 
ENDROOT
BRANCH   1   2
ATOM      2  C   UNL     1      89.570  99.063  69.963  1.00  0.00     0.100 C 
BRANCH   2   3
ATOM      3  C   UNL     1      90.474 100.013  70.730  1.00  0.00     0.220 C 
ATOM      4  O   UNL     1      90.208 101.199  70.908  1.00  0.00    -0.275 OA
ATOM      5  N   UNL     1      91.618  99.374  71.183  1.00  0.00    -0.352 N 
ATOM      6  H   UNL     1      91.758  98.389  70.977  1.00  0.00     0.163 HD
BRANCH   5   7
ATOM      7  C   UNL     1      92.649 100.053  71.934  1.00  0.00     0.151 C 
BRANCH   7   8
ATOM      8  C   UNL     1      93.654  99.093  72.503  1.00  0.00    -0.025 A 
ATOM      9  C   UNL     1      94.772  98.744  71.755  1.00  0.00     0.056 A 
ATOM     10  C   UNL     1      93.455  98.564  73.772  1.00  0.00     0.009 A 
ATOM     11  C   UNL     1      95.704  97.852  72.284  1.00  0.00     0.160 A 
ATOM     12  C   UNL     1      94.388  97.671  74.300  1.00  0.00     0.050 A 
ATOM     13  C   UNL     1      95.513  97.315  73.557  1.00  0.00     0.157 A 
BRANCH  11  14
ATOM     14  O   UNL     1      96.799  97.511  71.547  1.00  0.00    -0.493 OA
ATOM     15  C   UNL     1      96.605  96.561  70.501  1.00  0.00     0.278 C 
ENDBRANCH  11  14
BRANCH  13  16
ATOM     16  O   UNL     1      96.417  96.443  74.084  1.00  0.00    -0.504 OA
ATOM     17  H   UNL     1      97.260  96.907  74.222  1.00  0.00     0.293 HD
ENDBRANCH  13  16
ENDBRANCH   7   8
ENDBRANCH   5   7
ENDBRANCH   2   3
ENDBRANCH   1   2
BRANCH   1  18
ATOM     18  C   UNL     1      89.217  97.887  67.719  1.00  0.00     0.001 C 
BRANCH  18  19
ATOM     19  C   UNL     1      88.801  98.699  66.488  1.00  0.00     0.000 C 
BRANCH  19  20
ATOM     20  C   UNL     1      87.748  99.768  66.795  1.00  0.00     0.000 C 
BRANCH  20  21
ATOM     21  C   UNL     1      88.186 101.184  66.405  1.00  0.00     0.000 C 
BRANCH  21  22
ATOM     22  C   UNL     1      89.117 101.836  67.433  1.00  0.00     0.003 C 
BRANCH  22  23
ATOM     23  C   UNL     1      90.460 102.300  66.837  1.00  0.00    -0.017 C 
ATOM     24  C   UNL     1      90.252 103.584  66.030  1.00  0.00     0.007 C 
ATOM     25  C   UNL     1      91.108 101.235  65.951  1.00  0.00     0.007 C 
ENDBRANCH  22  23
ENDBRANCH  21  22
ENDBRANCH  20  21
ENDBRANCH  19  20
ENDBRANCH  18  19
ENDBRANCH   1  18
TORSDOF 12
ENDMDL
MODEL 9
REMARK VINA RESULT:    -5.643     16.675     20.163
REMARK INTER + INTRA:         -10.202
REMARK INTER:                  -9.062
REMARK INTRA:                  -1.140
REMARK UNBOUND:                -0.765
REMARK SMILES COc1cc(CNC(=O)CCCCCCCC(C)C)ccc1O
REMARK SMILES IDX 11 1 10 2 8 3 9 4 7 5 6 7 5 8 4 9 20 10 3 11 21 12 22 13
REMARK SMILES IDX 2 14 1 15 23 16 12 18 13 19 14 20 15 21 16 22 17 23 18 24
REMARK SMILES IDX 19 25
REMARK H PARENT 7 6 23 17
REMARK Flexibility Score: inf
ROOT
ATOM      1  C   UNL     1      94.069  96.332  74.552  1.00  0.00     0.010 C 
ENDROOT
BRANCH   1   2
ATOM      2  C   UNL     1      95.461  96.140  73.954  1.00  0.00     0.100 C 
BRANCH   2   3
ATOM      3  C   UNL     1      95.863  97.287  73.041  1.00  0.00     0.220 C 
ATOM      4  O   UNL     1      97.024  97.512  72.713  1.00  0.00    -0.275 OA
ATOM      5  N   UNL     1      94.762  98.033  72.646  1.00  0.00    -0.352 N 
ATOM      6  H   UNL     1      93.836  97.777  72.979  1.00  0.00     0.163 HD
BRANCH   5   7
ATOM      7  C   UNL     1      94.867  99.186  71.782  1.00  0.00     0.151 C 
BRANCH   7   8
ATOM      8  C   UNL     1      93.560  99.915  71.658  1.00  0.00    -0.025 A 
ATOM      9  C   UNL     1      92.626  99.496  70.719  1.00  0.00     0.056 A 
ATOM     10  C   UNL     1      93.298 101.001  72.485  1.00  0.00     0.009 A 
ATOM     11  C   UNL     1      91.412 100.174  70.603  1.00  0.00     0.160 A 
ATOM     12  C   UNL     1      92.084 101.679  72.369  1.00  0.00     0.050 A 
ATOM     13  C   UNL     1      91.141 101.266  71.428  1.00  0.00     0.157 A 
BRANCH  11  14
ATOM     14  O   UNL     1      90.499  99.761  69.680  1.00  0.00    -0.493 OA
ATOM     15  C   UNL     1      89.746  98.590  69.993  1.00  0.00     0.278 C 
ENDBRANCH  11  14
BRANCH  13  16
ATOM     16  O   UNL     1      89.959 101.935  71.326  1.00  0.00    -0.504 OA
ATOM     17  H   UNL     1      90.063 102.821  71.713  1.00  0.00     0.293 HD
ENDBRANCH  13  16
ENDBRANCH   7   8
ENDBRANCH   5   7
ENDBRANCH   2   3
ENDBRANCH   1   2
BRANCH   1  18
ATOM     18  C   UNL     1      93.868  95.595  75.879  1.00  0.00     0.001 C 
BRANCH  18  19
ATOM     19  C   UNL     1      92.515  95.817  76.563  1.00  0.00     0.000 C 
BRANCH  19  20
ATOM     20  C   UNL     1      92.059  94.621  77.404  1.00  0.00     0.000 C 
BRANCH  20  21
ATOM     21  C   UNL     1      93.089  93.488  77.462  1.00  0.00     0.000 C 
BRANCH  21  22
ATOM     22  C   UNL     1      93.565  93.172  78.883  1.00  0.00     0.003 C 
BRANCH  22  23
ATOM     23  C   UNL     1      95.057  93.481  79.115  1.00  0.00    -0.017 C 
ATOM     24  C   UNL     1      95.254  94.991  79.271  1.00  0.00     0.007 C 
ATOM     25  C   UNL     1      95.945  92.961  77.984  1.00  0.00     0.007 C 
ENDBRANCH  22  23
ENDBRANCH  21  22
ENDBRANCH  20  21
ENDBRANCH  19  20
ENDBRANCH  18  19
ENDBRANCH   1  18
TORSDOF 12
ENDMDL
MODEL 10
REMARK VINA RESULT:    -5.509      6.241     11.927
REMARK INTER + INTRA:          -9.978
REMARK INTER:                  -8.854
REMARK INTRA:                  -1.125
REMARK UNBOUND:                -0.765
REMARK SMILES COc1cc(CNC(=O)CCCCCCCC(C)C)ccc1O
REMARK SMILES IDX 11 1 10 2 8 3 9 4 7 5 6 7 5 8 4 9 20 10 3 11 21 12 22 13
REMARK SMILES IDX 2 14 1 15 23 16 12 18 13 19 14 20 15 21 16 22 17 23 18 24
REMARK SMILES IDX 19 25
REMARK H PARENT 7 6 23 17
REMARK Flexibility Score: inf
ROOT
ATOM      1  C   UNL     1      97.653  81.648  77.787  1.00  0.00     0.010 C 
ENDROOT
BRANCH   1   2
ATOM      2  C   UNL     1      96.329  82.367  77.536  1.00  0.00     0.100 C 
BRANCH   2   3
ATOM      3  C   UNL     1      96.321  83.121  76.216  1.00  0.00     0.220 C 
ATOM      4  O   UNL     1      95.534  84.029  75.964  1.00  0.00    -0.275 OA
ATOM      5  N   UNL     1      97.296  82.646  75.353  1.00  0.00    -0.352 N 
ATOM      6  H   UNL     1      97.896  81.879  75.646  1.00  0.00     0.163 HD
BRANCH   5   7
ATOM      7  C   UNL     1      97.498  83.184  74.027  1.00  0.00     0.151 C 
BRANCH   7   8
ATOM      8  C   UNL     1      98.899  82.960  73.537  1.00  0.00    -0.025 A 
ATOM      9  C   UNL     1      99.163  81.913  72.662  1.00  0.00     0.056 A 
ATOM     10  C   UNL     1      99.918  83.803  73.964  1.00  0.00     0.009 A 
ATOM     11  C   UNL     1     100.465  81.706  72.208  1.00  0.00     0.160 A 
ATOM     12  C   UNL     1     101.221  83.595  73.510  1.00  0.00     0.050 A 
ATOM     13  C   UNL     1     101.495  82.547  72.632  1.00  0.00     0.157 A 
BRANCH  11  14
ATOM     14  O   UNL     1     100.721  80.678  71.350  1.00  0.00    -0.493 OA
ATOM     15  C   UNL     1     100.299  80.844  69.997  1.00  0.00     0.278 C 
ENDBRANCH  11  14
BRANCH  13  16
ATOM     16  O   UNL     1     102.770  82.355  72.195  1.00  0.00    -0.504 OA
ATOM     17  H   UNL     1     102.781  82.392  71.223  1.00  0.00     0.293 HD
ENDBRANCH  13  16
ENDBRANCH   7   8
ENDBRANCH   5   7
ENDBRANCH   2   3
ENDBRANCH   1   2
BRANCH   1  18
ATOM     18  C   UNL     1      97.493  80.146  78.039  1.00  0.00     0.001 C 
BRANCH  18  19
ATOM     19  C   UNL     1      98.392  79.557  79.131  1.00  0.00     0.000 C 
BRANCH  19  20
ATOM     20  C   UNL     1      97.611  78.840  80.236  1.00  0.00     0.000 C 
BRANCH  20  21
ATOM     21  C   UNL     1      97.727  79.520  81.604  1.00  0.00     0.000 C 
BRANCH  21  22
ATOM     22  C   UNL     1      96.379  79.983  82.167  1.00  0.00     0.003 C 
BRANCH  22  23
ATOM     23  C   UNL     1      96.340  81.485  82.509  1.00  0.00    -0.017 C 
ATOM     24  C   UNL     1      96.627  82.309  81.251  1.00  0.00     0.007 C 
ATOM     25  C   UNL     1      97.334  81.862  83.608  1.00  0.00     0.007 C 
ENDBRANCH  22  23
ENDBRANCH  21  22
ENDBRANCH  20  21
ENDBRANCH  19  20
ENDBRANCH  18  19
ENDBRANCH   1  18
TORSDOF 12
ENDMDL
