MODEL 1
REMARK VINA RESULT:    -5.602      0.000      0.000
REMARK INTER + INTRA:         -10.871
REMARK INTER:                  -8.714
REMARK INTRA:                  -2.157
REMARK UNBOUND:                -2.157
REMARK SMILES COc1cc(CNC(=O)CCCC/C=C/C(C)C)ccc1O
REMARK SMILES IDX 10 1 8 2 7 3 9 5 6 6 5 7 3 8 21 9 4 10 20 11 19 12 2 13 1 14
REMARK SMILES IDX 22 15 11 17 12 18 13 19 14 20 15 21 16 22 17 23 18 24
REMARK H PARENT 7 4 22 16
REMARK Flexibility Score: inf
ROOT
ATOM      1  C   UNL     1      80.656  86.315  84.078  1.00  0.00     0.100 C 
ENDROOT
BRANCH   1   2
ATOM      2  C   UNL     1      81.305  86.319  85.403  1.00  0.00     0.220 C 
ATOM      3  N   UNL     1      80.558  86.247  86.540  1.00  0.00    -0.352 N 
ATOM      4  H   UNL     1      79.558  86.216  86.392  1.00  0.00     0.163 HD
ATOM      5  O   UNL     1      82.558  86.368  85.448  1.00  0.00    -0.275 OA
BRANCH   3   6
ATOM      6  C   UNL     1      81.089  86.213  87.865  1.00  0.00     0.151 C 
BRANCH   6   7
ATOM      7  C   UNL     1      81.065  87.559  88.499  1.00  0.00    -0.025 A 
ATOM      8  C   UNL     1      82.142  89.271  89.903  1.00  0.00     0.160 A 
ATOM      9  C   UNL     1      81.043  90.131  89.699  1.00  0.00     0.157 A 
ATOM     10  C   UNL     1      82.142  87.994  89.304  1.00  0.00     0.056 A 
ATOM     11  C   UNL     1      79.953  89.704  88.915  1.00  0.00     0.050 A 
ATOM     12  C   UNL     1      79.967  88.431  88.311  1.00  0.00     0.009 A 
BRANCH   8  13
ATOM     13  O   UNL     1      83.175  89.657  90.718  1.00  0.00    -0.493 OA
ATOM     14  C   UNL     1      83.040  89.220  92.083  1.00  0.00     0.278 C 
ENDBRANCH   8  13
BRANCH   9  15
ATOM     15  O   UNL     1      81.018  91.372  90.250  1.00  0.00    -0.504 OA
ATOM     16  H   UNL     1      80.252  91.453  90.823  1.00  0.00     0.293 HD
ENDBRANCH   9  15
ENDBRANCH   6   7
ENDBRANCH   3   6
ENDBRANCH   1   2
BRANCH   1  17
ATOM     17  C   UNL     1      80.404  87.756  83.559  1.00  0.00     0.010 C 
BRANCH  17  18
ATOM     18  C   UNL     1      79.464  88.577  84.486  1.00  0.00     0.005 C 
BRANCH  18  19
ATOM     19  C   UNL     1      80.100  89.923  84.929  1.00  0.00     0.027 C 
BRANCH  19  20
ATOM     20  C   UNL     1      81.553  89.891  84.858  1.00  0.00    -0.031 C 
ATOM     21  C   UNL     1      82.360  89.780  85.929  1.00  0.00    -0.028 C 
BRANCH  21  22
ATOM     22  C   UNL     1      83.819  89.730  85.832  1.00  0.00     0.005 C 
ATOM     23  C   UNL     1      84.360  90.564  84.638  1.00  0.00     0.012 C 
ATOM     24  C   UNL     1      84.461  90.194  87.166  1.00  0.00     0.012 C 
ENDBRANCH  21  22
ENDBRANCH  19  20
ENDBRANCH  18  19
ENDBRANCH  17  18
ENDBRANCH   1  17
TORSDOF 10
ENDMDL
MODEL 2
REMARK VINA RESULT:    -5.558     14.231     16.803
REMARK INTER + INTRA:         -10.802
REMARK INTER:                  -9.931
REMARK INTRA:                  -0.871
REMARK UNBOUND:                -2.157
REMARK SMILES COc1cc(CNC(=O)CCCC/C=C/C(C)C)ccc1O
REMARK SMILES IDX 10 1 8 2 7 3 9 5 6 6 5 7 3 8 21 9 4 10 20 11 19 12 2 13 1 14
REMARK SMILES IDX 22 15 11 17 12 18 13 19 14 20 15 21 16 22 17 23 18 24
REMARK H PARENT 7 4 22 16
REMARK Flexibility Score: inf
ROOT
ATOM      1  C   UNL     1      92.178  94.436  74.773  1.00  0.00     0.100 C 
ENDROOT
BRANCH   1   2
ATOM      2  C   UNL     1      93.354  93.843  75.439  1.00  0.00     0.220 C 
ATOM      3  N   UNL     1      94.554  94.488  75.425  1.00  0.00    -0.352 N 
ATOM      4  H   UNL     1      94.564  95.361  74.916  1.00  0.00     0.163 HD
ATOM      5  O   UNL     1      93.209  92.748  76.033  1.00  0.00    -0.275 OA
BRANCH   3   6
ATOM      6  C   UNL     1      95.741  94.016  76.064  1.00  0.00     0.151 C 
BRANCH   6   7
ATOM      7  C   UNL     1      96.030  94.777  77.311  1.00  0.00    -0.025 A 
ATOM      8  C   UNL     1      95.694  95.110  79.727  1.00  0.00     0.160 A 
ATOM      9  C   UNL     1      96.585  96.204  79.700  1.00  0.00     0.157 A 
ATOM     10  C   UNL     1      95.424  94.409  78.533  1.00  0.00     0.056 A 
ATOM     11  C   UNL     1      97.182  96.594  78.485  1.00  0.00     0.050 A 
ATOM     12  C   UNL     1      96.914  95.880  77.301  1.00  0.00     0.009 A 
BRANCH   8  13
ATOM     13  O   UNL     1      95.060  94.768  80.894  1.00  0.00    -0.493 OA
ATOM     14  C   UNL     1      95.747  93.763  81.662  1.00  0.00     0.278 C 
ENDBRANCH   8  13
BRANCH   9  15
ATOM     15  O   UNL     1      96.877  96.892  80.834  1.00  0.00    -0.504 OA
ATOM     16  H   UNL     1      97.726  96.602  81.175  1.00  0.00     0.293 HD
ENDBRANCH   9  15
ENDBRANCH   6   7
ENDBRANCH   3   6
ENDBRANCH   1   2
BRANCH   1  17
ATOM     17  C   UNL     1      90.878  93.657  75.106  1.00  0.00     0.010 C 
BRANCH  17  18
ATOM     18  C   UNL     1      90.219  94.120  76.436  1.00  0.00     0.005 C 
BRANCH  18  19
ATOM     19  C   UNL     1      89.570  92.944  77.215  1.00  0.00     0.027 C 
BRANCH  19  20
ATOM     20  C   UNL     1      89.846  91.658  76.594  1.00  0.00    -0.031 C 
ATOM     21  C   UNL     1      88.898  90.818  76.140  1.00  0.00    -0.028 C 
BRANCH  21  22
ATOM     22  C   UNL     1      89.199  89.538  75.500  1.00  0.00     0.005 C 
ATOM     23  C   UNL     1      89.124  89.621  73.951  1.00  0.00     0.012 C 
ATOM     24  C   UNL     1      90.588  89.023  75.960  1.00  0.00     0.012 C 
ENDBRANCH  21  22
ENDBRANCH  19  20
ENDBRANCH  18  19
ENDBRANCH  17  18
ENDBRANCH   1  17
TORSDOF 10
ENDMDL
MODEL 3
REMARK VINA RESULT:    -5.135     22.783     25.781
REMARK INTER + INTRA:         -10.143
REMARK INTER:                  -9.465
REMARK INTRA:                  -0.679
REMARK UNBOUND:                -2.157
REMARK SMILES COc1cc(CNC(=O)CCCC/C=C/C(C)C)ccc1O
REMARK SMILES IDX 10 1 8 2 7 3 9 5 6 6 5 7 3 8 21 9 4 10 20 11 19 12 2 13 1 14
REMARK SMILES IDX 22 15 11 17 12 18 13 19 14 20 15 21 16 22 17 23 18 24
REMARK H PARENT 7 4 22 16
REMARK Flexibility Score: inf
ROOT
ATOM      1  C   UNL     1      83.049  65.617  76.256  1.00  0.00     0.100 C 
ENDROOT
BRANCH   1   2
ATOM      2  C   UNL     1      84.002  64.775  77.004  1.00  0.00     0.220 C 
ATOM      3  N   UNL     1      85.246  65.241  77.307  1.00  0.00    -0.352 N 
ATOM      4  H   UNL     1      85.451  66.169  76.961  1.00  0.00     0.163 HD
ATOM      5  O   UNL     1      83.625  63.636  77.371  1.00  0.00    -0.275 OA
BRANCH   3   6
ATOM      6  C   UNL     1      86.228  64.520  78.052  1.00  0.00     0.151 C 
BRANCH   6   7
ATOM      7  C   UNL     1      86.086  64.756  79.515  1.00  0.00    -0.025 A 
ATOM      8  C   UNL     1      86.551  66.132  81.504  1.00  0.00     0.160 A 
ATOM      9  C   UNL     1      85.809  65.233  82.299  1.00  0.00     0.157 A 
ATOM     10  C   UNL     1      86.684  65.884  80.121  1.00  0.00     0.056 A 
ATOM     11  C   UNL     1      85.224  64.094  81.712  1.00  0.00     0.050 A 
ATOM     12  C   UNL     1      85.353  63.862  80.328  1.00  0.00     0.009 A 
BRANCH   8  13
ATOM     13  O   UNL     1      87.177  67.206  82.082  1.00  0.00    -0.493 OA
ATOM     14  C   UNL     1      87.615  68.205  81.143  1.00  0.00     0.278 C 
ENDBRANCH   8  13
BRANCH   9  15
ATOM     15  O   UNL     1      85.651  65.450  83.630  1.00  0.00    -0.504 OA
ATOM     16  H   UNL     1      85.382  64.633  84.058  1.00  0.00     0.293 HD
ENDBRANCH   9  15
ENDBRANCH   6   7
ENDBRANCH   3   6
ENDBRANCH   1   2
BRANCH   1  17
ATOM     17  C   UNL     1      81.726  64.861  75.961  1.00  0.00     0.010 C 
BRANCH  17  18
ATOM     18  C   UNL     1      81.728  64.156  74.575  1.00  0.00     0.005 C 
BRANCH  18  19
ATOM     19  C   UNL     1      80.293  63.878  74.052  1.00  0.00     0.027 C 
BRANCH  19  20
ATOM     20  C   UNL     1      79.867  64.866  73.072  1.00  0.00    -0.031 C 
ATOM     21  C   UNL     1      80.701  65.711  72.439  1.00  0.00    -0.028 C 
BRANCH  21  22
ATOM     22  C   UNL     1      80.253  66.684  71.442  1.00  0.00     0.005 C 
ATOM     23  C   UNL     1      81.325  67.771  71.156  1.00  0.00     0.012 C 
ATOM     24  C   UNL     1      79.837  65.959  70.136  1.00  0.00     0.012 C 
ENDBRANCH  21  22
ENDBRANCH  19  20
ENDBRANCH  18  19
ENDBRANCH  17  18
ENDBRANCH   1  17
TORSDOF 10
ENDMDL
MODEL 4
REMARK VINA RESULT:    -4.974      2.190      6.082
REMARK INTER + INTRA:          -9.893
REMARK INTER:                  -8.161
REMARK INTRA:                  -1.732
REMARK UNBOUND:                -2.157
REMARK SMILES COc1cc(CNC(=O)CCCC/C=C/C(C)C)ccc1O
REMARK SMILES IDX 10 1 8 2 7 3 9 5 6 6 5 7 3 8 21 9 4 10 20 11 19 12 2 13 1 14
REMARK SMILES IDX 22 15 11 17 12 18 13 19 14 20 15 21 16 22 17 23 18 24
REMARK H PARENT 7 4 22 16
REMARK Flexibility Score: inf
ROOT
ATOM      1  C   UNL     1      82.466  92.712  88.626  1.00  0.00     0.100 C 
ENDROOT
BRANCH   1   2
ATOM      2  C   UNL     1      83.123  92.039  87.488  1.00  0.00     0.220 C 
ATOM      3  N   UNL     1      82.610  90.884  86.980  1.00  0.00    -0.352 N 
ATOM      4  H   UNL     1      81.788  90.537  87.453  1.00  0.00     0.163 HD
ATOM      5  O   UNL     1      84.145  92.573  86.994  1.00  0.00    -0.275 OA
BRANCH   3   6
ATOM      6  C   UNL     1      83.150  90.174  85.864  1.00  0.00     0.151 C 
BRANCH   6   7
ATOM      7  C   UNL     1      82.198  89.148  85.356  1.00  0.00    -0.025 A 
ATOM      8  C   UNL     1      81.374  86.828  85.348  1.00  0.00     0.160 A 
ATOM      9  C   UNL     1      80.379  87.184  84.414  1.00  0.00     0.157 A 
ATOM     10  C   UNL     1      82.274  87.811  85.809  1.00  0.00     0.056 A 
ATOM     11  C   UNL     1      80.304  88.508  83.939  1.00  0.00     0.050 A 
ATOM     12  C   UNL     1      81.200  89.486  84.413  1.00  0.00     0.009 A 
BRANCH   8  13
ATOM     13  O   UNL     1      81.493  85.526  85.764  1.00  0.00    -0.493 OA
ATOM     14  C   UNL     1      82.725  85.240  86.452  1.00  0.00     0.278 C 
ENDBRANCH   8  13
BRANCH   9  15
ATOM     15  O   UNL     1      79.489  86.264  83.960  1.00  0.00    -0.504 OA
ATOM     16  H   UNL     1      79.361  86.380  83.016  1.00  0.00     0.293 HD
ENDBRANCH   9  15
ENDBRANCH   6   7
ENDBRANCH   3   6
ENDBRANCH   1   2
BRANCH   1  17
ATOM     17  C   UNL     1      82.176  91.723  89.787  1.00  0.00     0.010 C 
BRANCH  17  18
ATOM     18  C   UNL     1      83.470  91.153  90.433  1.00  0.00     0.005 C 
BRANCH  18  19
ATOM     19  C   UNL     1      83.438  89.605  90.553  1.00  0.00     0.027 C 
BRANCH  19  20
ATOM     20  C   UNL     1      82.133  89.057  90.216  1.00  0.00    -0.031 C 
ATOM     21  C   UNL     1      81.942  88.013  89.389  1.00  0.00    -0.028 C 
BRANCH  21  22
ATOM     22  C   UNL     1      80.621  87.465  89.080  1.00  0.00     0.005 C 
ATOM     23  C   UNL     1      79.848  87.033  90.357  1.00  0.00     0.012 C 
ATOM     24  C   UNL     1      79.797  88.487  88.255  1.00  0.00     0.012 C 
ENDBRANCH  21  22
ENDBRANCH  19  20
ENDBRANCH  18  19
ENDBRANCH  17  18
ENDBRANCH   1  17
TORSDOF 10
ENDMDL
MODEL 5
REMARK VINA RESULT:    -4.942     22.840     25.531
REMARK INTER + INTRA:          -9.843
REMARK INTER:                  -8.344
REMARK INTRA:                  -1.499
REMARK UNBOUND:                -2.157
REMARK SMILES COc1cc(CNC(=O)CCCC/C=C/C(C)C)ccc1O
REMARK SMILES IDX 10 1 8 2 7 3 9 5 6 6 5 7 3 8 21 9 4 10 20 11 19 12 2 13 1 14
REMARK SMILES IDX 22 15 11 17 12 18 13 19 14 20 15 21 16 22 17 23 18 24
REMARK H PARENT 7 4 22 16
REMARK Flexibility Score: inf
ROOT
ATOM      1  C   UNL     1      80.579  67.434  71.881  1.00  0.00     0.100 C 
ENDROOT
BRANCH   1   2
ATOM      2  C   UNL     1      82.008  67.800  71.846  1.00  0.00     0.220 C 
ATOM      3  N   UNL     1      82.864  67.334  72.798  1.00  0.00    -0.352 N 
ATOM      4  H   UNL     1      82.437  66.759  73.511  1.00  0.00     0.163 HD
ATOM      5  O   UNL     1      82.410  68.528  70.907  1.00  0.00    -0.275 OA
BRANCH   3   6
ATOM      6  C   UNL     1      84.266  67.602  72.835  1.00  0.00     0.151 C 
BRANCH   6   7
ATOM      7  C   UNL     1      84.695  68.081  74.178  1.00  0.00    -0.025 A 
ATOM      8  C   UNL     1      86.244  69.388  75.577  1.00  0.00     0.160 A 
ATOM      9  C   UNL     1      85.516  69.019  76.727  1.00  0.00     0.157 A 
ATOM     10  C   UNL     1      85.829  68.914  74.315  1.00  0.00     0.056 A 
ATOM     11  C   UNL     1      84.395  68.174  76.609  1.00  0.00     0.050 A 
ATOM     12  C   UNL     1      83.981  67.715  75.343  1.00  0.00     0.009 A 
BRANCH   8  13
ATOM     13  O   UNL     1      87.373  70.157  75.694  1.00  0.00    -0.493 OA
ATOM     14  C   UNL     1      87.963  70.530  74.435  1.00  0.00     0.278 C 
ENDBRANCH   8  13
BRANCH   9  15
ATOM     15  O   UNL     1      85.881  69.469  77.956  1.00  0.00    -0.504 OA
ATOM     16  H   UNL     1      85.148  69.942  78.355  1.00  0.00     0.293 HD
ENDBRANCH   9  15
ENDBRANCH   6   7
ENDBRANCH   3   6
ENDBRANCH   1   2
BRANCH   1  17
ATOM     17  C   UNL     1      80.383  65.911  72.105  1.00  0.00     0.010 C 
BRANCH  17  18
ATOM     18  C   UNL     1      80.002  65.559  73.571  1.00  0.00     0.005 C 
BRANCH  18  19
ATOM     19  C   UNL     1      80.000  64.028  73.830  1.00  0.00     0.027 C 
BRANCH  19  20
ATOM     20  C   UNL     1      81.292  63.551  74.299  1.00  0.00    -0.031 C 
ATOM     21  C   UNL     1      82.190  64.315  74.947  1.00  0.00    -0.028 C 
BRANCH  21  22
ATOM     22  C   UNL     1      83.476  63.809  75.427  1.00  0.00     0.005 C 
ATOM     23  C   UNL     1      84.655  64.224  74.504  1.00  0.00     0.012 C 
ATOM     24  C   UNL     1      83.725  64.275  76.885  1.00  0.00     0.012 C 
ENDBRANCH  21  22
ENDBRANCH  19  20
ENDBRANCH  18  19
ENDBRANCH  17  18
ENDBRANCH   1  17
TORSDOF 10
ENDMDL
MODEL 6
REMARK VINA RESULT:    -4.909     15.925     17.789
REMARK INTER + INTRA:          -9.792
REMARK INTER:                  -8.735
REMARK INTRA:                  -1.057
REMARK UNBOUND:                -2.157
REMARK SMILES COc1cc(CNC(=O)CCCC/C=C/C(C)C)ccc1O
REMARK SMILES IDX 10 1 8 2 7 3 9 5 6 6 5 7 3 8 21 9 4 10 20 11 19 12 2 13 1 14
REMARK SMILES IDX 22 15 11 17 12 18 13 19 14 20 15 21 16 22 17 23 18 24
REMARK H PARENT 7 4 22 16
REMARK Flexibility Score: inf
ROOT
ATOM      1  C   UNL     1      98.401  80.216  80.139  1.00  0.00     0.100 C 
ENDROOT
BRANCH   1   2
ATOM      2  C   UNL     1      98.185  80.353  81.592  1.00  0.00     0.220 C 
ATOM      3  N   UNL     1      96.948  80.646  82.083  1.00  0.00    -0.352 N 
ATOM      4  H   UNL     1      96.231  80.778  81.382  1.00  0.00     0.163 HD
ATOM      5  O   UNL     1      99.163  80.169  82.356  1.00  0.00    -0.275 OA
BRANCH   3   6
ATOM      6  C   UNL     1      96.628  80.767  83.469  1.00  0.00     0.151 C 
BRANCH   6   7
ATOM      7  C   UNL     1      96.394  82.186  83.854  1.00  0.00    -0.025 A 
ATOM      8  C   UNL     1      95.432  83.841  85.402  1.00  0.00     0.160 A 
ATOM      9  C   UNL     1      95.955  84.886  84.612  1.00  0.00     0.157 A 
ATOM     10  C   UNL     1      95.654  82.503  85.015  1.00  0.00     0.056 A 
ATOM     11  C   UNL     1      96.678  84.585  83.441  1.00  0.00     0.050 A 
ATOM     12  C   UNL     1      96.905  83.246  83.069  1.00  0.00     0.009 A 
BRANCH   8  13
ATOM     13  O   UNL     1      94.671  84.129  86.507  1.00  0.00    -0.493 OA
ATOM     14  C   UNL     1      95.372  83.985  87.756  1.00  0.00     0.278 C 
ENDBRANCH   8  13
BRANCH   9  15
ATOM     15  O   UNL     1      95.770  86.184  84.964  1.00  0.00    -0.504 OA
ATOM     16  H   UNL     1      96.421  86.732  84.520  1.00  0.00     0.293 HD
ENDBRANCH   9  15
ENDBRANCH   6   7
ENDBRANCH   3   6
ENDBRANCH   1   2
BRANCH   1  17
ATOM     17  C   UNL     1      99.081  81.476  79.540  1.00  0.00     0.010 C 
BRANCH  17  18
ATOM     18  C   UNL     1      98.224  82.763  79.705  1.00  0.00     0.005 C 
BRANCH  18  19
ATOM     19  C   UNL     1      96.839  82.642  79.013  1.00  0.00     0.027 C 
BRANCH  19  20
ATOM     20  C   UNL     1      96.953  82.602  77.563  1.00  0.00    -0.031 C 
ATOM     21  C   UNL     1      97.720  83.441  76.842  1.00  0.00    -0.028 C 
BRANCH  21  22
ATOM     22  C   UNL     1      97.835  83.370  75.385  1.00  0.00     0.005 C 
ATOM     23  C   UNL     1      99.298  83.567  74.900  1.00  0.00     0.012 C 
ATOM     24  C   UNL     1      97.256  82.028  74.866  1.00  0.00     0.012 C 
ENDBRANCH  21  22
ENDBRANCH  19  20
ENDBRANCH  18  19
ENDBRANCH  17  18
ENDBRANCH   1  17
TORSDOF 10
ENDMDL
MODEL 7
REMARK VINA RESULT:    -4.865     22.497     25.281
REMARK INTER + INTRA:          -9.723
REMARK INTER:                  -8.422
REMARK INTRA:                  -1.301
REMARK UNBOUND:                -2.157
REMARK SMILES COc1cc(CNC(=O)CCCC/C=C/C(C)C)ccc1O
REMARK SMILES IDX 10 1 8 2 7 3 9 5 6 6 5 7 3 8 21 9 4 10 20 11 19 12 2 13 1 14
REMARK SMILES IDX 22 15 11 17 12 18 13 19 14 20 15 21 16 22 17 23 18 24
REMARK H PARENT 7 4 22 16
REMARK Flexibility Score: inf
ROOT
ATOM      1  C   UNL     1      82.263  68.640  70.827  1.00  0.00     0.100 C 
ENDROOT
BRANCH   1   2
ATOM      2  C   UNL     1      83.604  69.085  71.252  1.00  0.00     0.220 C 
ATOM      3  N   UNL     1      84.453  68.222  71.878  1.00  0.00    -0.352 N 
ATOM      4  H   UNL     1      84.079  67.296  72.037  1.00  0.00     0.163 HD
ATOM      5  O   UNL     1      83.945  70.266  71.000  1.00  0.00    -0.275 OA
BRANCH   3   6
ATOM      6  C   UNL     1      85.779  68.543  72.299  1.00  0.00     0.151 C 
BRANCH   6   7
ATOM      7  C   UNL     1      85.822  68.904  73.742  1.00  0.00    -0.025 A 
ATOM      8  C   UNL     1      85.181  68.438  76.073  1.00  0.00     0.160 A 
ATOM      9  C   UNL     1      85.909  69.567  76.501  1.00  0.00     0.157 A 
ATOM     10  C   UNL     1      85.142  68.118  74.700  1.00  0.00     0.056 A 
ATOM     11  C   UNL     1      86.575  70.372  75.555  1.00  0.00     0.050 A 
ATOM     12  C   UNL     1      86.541  70.038  74.187  1.00  0.00     0.009 A 
BRANCH   8  13
ATOM     13  O   UNL     1      84.476  67.690  76.982  1.00  0.00    -0.493 OA
ATOM     14  C   UNL     1      85.157  66.497  77.414  1.00  0.00     0.278 C 
ENDBRANCH   8  13
BRANCH   9  15
ATOM     15  O   UNL     1      85.977  69.895  77.817  1.00  0.00    -0.504 OA
ATOM     16  H   UNL     1      85.521  69.230  78.337  1.00  0.00     0.293 HD
ENDBRANCH   9  15
ENDBRANCH   6   7
ENDBRANCH   3   6
ENDBRANCH   1   2
BRANCH   1  17
ATOM     17  C   UNL     1      82.020  67.146  71.168  1.00  0.00     0.010 C 
BRANCH  17  18
ATOM     18  C   UNL     1      80.539  66.715  70.978  1.00  0.00     0.005 C 
BRANCH  18  19
ATOM     19  C   UNL     1      80.129  65.568  71.941  1.00  0.00     0.027 C 
BRANCH  19  20
ATOM     20  C   UNL     1      81.154  65.298  72.939  1.00  0.00    -0.031 C 
ATOM     21  C   UNL     1      80.905  64.791  74.160  1.00  0.00    -0.028 C 
BRANCH  21  22
ATOM     22  C   UNL     1      81.954  64.509  75.140  1.00  0.00     0.005 C 
ATOM     23  C   UNL     1      83.377  64.757  74.567  1.00  0.00     0.012 C 
ATOM     24  C   UNL     1      81.723  65.343  76.427  1.00  0.00     0.012 C 
ENDBRANCH  21  22
ENDBRANCH  19  20
ENDBRANCH  18  19
ENDBRANCH  17  18
ENDBRANCH   1  17
TORSDOF 10
ENDMDL
MODEL 8
REMARK VINA RESULT:    -4.784     23.992     26.504
REMARK INTER + INTRA:          -9.598
REMARK INTER:                  -8.142
REMARK INTRA:                  -1.456
REMARK UNBOUND:                -2.157
REMARK SMILES COc1cc(CNC(=O)CCCC/C=C/C(C)C)ccc1O
REMARK SMILES IDX 10 1 8 2 7 3 9 5 6 6 5 7 3 8 21 9 4 10 20 11 19 12 2 13 1 14
REMARK SMILES IDX 22 15 11 17 12 18 13 19 14 20 15 21 16 22 17 23 18 24
REMARK H PARENT 7 4 22 16
REMARK Flexibility Score: inf
ROOT
ATOM      1  C   UNL     1      82.076  64.877  76.224  1.00  0.00     0.100 C 
ENDROOT
BRANCH   1   2
ATOM      2  C   UNL     1      82.546  66.275  76.164  1.00  0.00     0.220 C 
ATOM      3  N   UNL     1      83.859  66.553  75.929  1.00  0.00    -0.352 N 
ATOM      4  H   UNL     1      84.456  65.743  75.830  1.00  0.00     0.163 HD
ATOM      5  O   UNL     1      81.701  67.190  76.311  1.00  0.00    -0.275 OA
BRANCH   3   6
ATOM      6  C   UNL     1      84.408  67.867  75.821  1.00  0.00     0.151 C 
BRANCH   6   7
ATOM      7  C   UNL     1      84.887  68.147  74.440  1.00  0.00    -0.025 A 
ATOM      8  C   UNL     1      85.088  67.477  72.079  1.00  0.00     0.160 A 
ATOM      9  C   UNL     1      85.778  68.674  71.797  1.00  0.00     0.157 A 
ATOM     10  C   UNL     1      84.651  67.224  73.397  1.00  0.00     0.056 A 
ATOM     11  C   UNL     1      86.038  69.595  72.832  1.00  0.00     0.050 A 
ATOM     12  C   UNL     1      85.588  69.339  74.142  1.00  0.00     0.009 A 
BRANCH   8  13
ATOM     13  O   UNL     1      84.890  66.548  71.090  1.00  0.00    -0.493 OA
ATOM     14  C   UNL     1      85.765  65.408  71.172  1.00  0.00     0.278 C 
ENDBRANCH   8  13
BRANCH   9  15
ATOM     15  O   UNL     1      86.200  68.954  70.537  1.00  0.00    -0.504 OA
ATOM     16  H   UNL     1      86.734  68.227  70.209  1.00  0.00     0.293 HD
ENDBRANCH   9  15
ENDBRANCH   6   7
ENDBRANCH   3   6
ENDBRANCH   1   2
BRANCH   1  17
ATOM     17  C   UNL     1      82.705  64.013  75.098  1.00  0.00     0.010 C 
BRANCH  17  18
ATOM     18  C   UNL     1      81.645  63.424  74.124  1.00  0.00     0.005 C 
BRANCH  18  19
ATOM     19  C   UNL     1      80.309  64.213  74.157  1.00  0.00     0.027 C 
BRANCH  19  20
ATOM     20  C   UNL     1      80.122  65.023  72.963  1.00  0.00    -0.031 C 
ATOM     21  C   UNL     1      80.505  66.308  72.854  1.00  0.00    -0.028 C 
BRANCH  21  22
ATOM     22  C   UNL     1      80.325  67.098  71.635  1.00  0.00     0.005 C 
ATOM     23  C   UNL     1      81.605  67.890  71.252  1.00  0.00     0.012 C 
ATOM     24  C   UNL     1      79.868  66.186  70.468  1.00  0.00     0.012 C 
ENDBRANCH  21  22
ENDBRANCH  19  20
ENDBRANCH  18  19
ENDBRANCH  17  18
ENDBRANCH   1  17
TORSDOF 10
ENDMDL
MODEL 9
REMARK VINA RESULT:    -4.770     15.016     17.462
REMARK INTER + INTRA:          -9.576
REMARK INTER:                  -8.871
REMARK INTRA:                  -0.705
REMARK UNBOUND:                -2.157
REMARK SMILES COc1cc(CNC(=O)CCCC/C=C/C(C)C)ccc1O
REMARK SMILES IDX 10 1 8 2 7 3 9 5 6 6 5 7 3 8 21 9 4 10 20 11 19 12 2 13 1 14
REMARK SMILES IDX 22 15 11 17 12 18 13 19 14 20 15 21 16 22 17 23 18 24
REMARK H PARENT 7 4 22 16
REMARK Flexibility Score: inf
ROOT
ATOM      1  C   UNL     1      94.777  93.705  76.866  1.00  0.00     0.100 C 
ENDROOT
BRANCH   1   2
ATOM      2  C   UNL     1      93.395  93.935  76.403  1.00  0.00     0.220 C 
ATOM      3  N   UNL     1      92.870  93.184  75.395  1.00  0.00    -0.352 N 
ATOM      4  H   UNL     1      93.501  92.502  74.998  1.00  0.00     0.163 HD
ATOM      5  O   UNL     1      92.717  94.820  76.979  1.00  0.00    -0.275 OA
BRANCH   3   6
ATOM      6  C   UNL     1      91.537  93.305  74.897  1.00  0.00     0.151 C 
BRANCH   6   7
ATOM      7  C   UNL     1      90.843  91.988  74.867  1.00  0.00    -0.025 A 
ATOM      8  C   UNL     1      89.162  90.491  73.870  1.00  0.00     0.160 A 
ATOM      9  C   UNL     1      89.523  89.477  74.781  1.00  0.00     0.157 A 
ATOM     10  C   UNL     1      89.822  91.736  73.923  1.00  0.00     0.056 A 
ATOM     11  C   UNL     1      90.526  89.721  75.741  1.00  0.00     0.050 A 
ATOM     12  C   UNL     1      91.188  90.963  75.778  1.00  0.00     0.009 A 
BRANCH   8  13
ATOM     13  O   UNL     1      88.141  90.282  72.977  1.00  0.00    -0.493 OA
ATOM     14  C   UNL     1      88.481  90.593  71.613  1.00  0.00     0.278 C 
ENDBRANCH   8  13
BRANCH   9  15
ATOM     15  O   UNL     1      88.916  88.263  74.748  1.00  0.00    -0.504 OA
ATOM     16  H   UNL     1      88.710  87.983  75.643  1.00  0.00     0.293 HD
ENDBRANCH   9  15
ENDBRANCH   6   7
ENDBRANCH   3   6
ENDBRANCH   1   2
BRANCH   1  17
ATOM     17  C   UNL     1      95.202  94.744  77.939  1.00  0.00     0.010 C 
BRANCH  17  18
ATOM     18  C   UNL     1      95.372  94.118  79.352  1.00  0.00     0.005 C 
BRANCH  18  19
ATOM     19  C   UNL     1      95.224  95.169  80.485  1.00  0.00     0.027 C 
BRANCH  19  20
ATOM     20  C   UNL     1      96.457  95.910  80.709  1.00  0.00    -0.031 C 
ATOM     21  C   UNL     1      97.678  95.348  80.756  1.00  0.00    -0.028 C 
BRANCH  21  22
ATOM     22  C   UNL     1      98.907  96.115  80.963  1.00  0.00     0.005 C 
ATOM     23  C   UNL     1      99.888  95.990  79.765  1.00  0.00     0.012 C 
ATOM     24  C   UNL     1      98.569  97.601  81.248  1.00  0.00     0.012 C 
ENDBRANCH  21  22
ENDBRANCH  19  20
ENDBRANCH  18  19
ENDBRANCH  17  18
ENDBRANCH   1  17
TORSDOF 10
ENDMDL
MODEL 10
REMARK VINA RESULT:    -4.627     23.162     25.839
REMARK INTER + INTRA:          -9.353
REMARK INTER:                  -8.128
REMARK INTRA:                  -1.225
REMARK UNBOUND:                -2.157
REMARK SMILES COc1cc(CNC(=O)CCCC/C=C/C(C)C)ccc1O
REMARK SMILES IDX 10 1 8 2 7 3 9 5 6 6 5 7 3 8 21 9 4 10 20 11 19 12 2 13 1 14
REMARK SMILES IDX 22 15 11 17 12 18 13 19 14 20 15 21 16 22 17 23 18 24
REMARK H PARENT 7 4 22 16
REMARK Flexibility Score: inf
ROOT
ATOM      1  C   UNL     1      80.206  65.213  72.711  1.00  0.00     0.100 C 
ENDROOT
BRANCH   1   2
ATOM      2  C   UNL     1      80.588  64.888  74.099  1.00  0.00     0.220 C 
ATOM      3  N   UNL     1      81.002  65.869  74.950  1.00  0.00    -0.352 N 
ATOM      4  H   UNL     1      81.042  66.795  74.546  1.00  0.00     0.163 HD
ATOM      5  O   UNL     1      80.499  63.694  74.474  1.00  0.00    -0.275 OA
BRANCH   3   6
ATOM      6  C   UNL     1      81.362  65.664  76.316  1.00  0.00     0.151 C 
BRANCH   6   7
ATOM      7  C   UNL     1      82.834  65.518  76.477  1.00  0.00    -0.025 A 
ATOM      8  C   UNL     1      85.064  66.540  76.697  1.00  0.00     0.160 A 
ATOM      9  C   UNL     1      85.642  65.258  76.804  1.00  0.00     0.157 A 
ATOM     10  C   UNL     1      83.668  66.658  76.533  1.00  0.00     0.056 A 
ATOM     11  C   UNL     1      84.826  64.111  76.730  1.00  0.00     0.050 A 
ATOM     12  C   UNL     1      83.431  64.240  76.578  1.00  0.00     0.009 A 
BRANCH   8  13
ATOM     13  O   UNL     1      85.861  67.656  76.702  1.00  0.00    -0.493 OA
ATOM     14  C   UNL     1      85.135  68.895  76.804  1.00  0.00     0.278 C 
ENDBRANCH   8  13
BRANCH   9  15
ATOM     15  O   UNL     1      86.981  65.110  76.976  1.00  0.00    -0.504 OA
ATOM     16  H   UNL     1      87.440  65.413  76.190  1.00  0.00     0.293 HD
ENDBRANCH   9  15
ENDBRANCH   6   7
ENDBRANCH   3   6
ENDBRANCH   1   2
BRANCH   1  17
ATOM     17  C   UNL     1      80.309  66.737  72.431  1.00  0.00     0.010 C 
BRANCH  17  18
ATOM     18  C   UNL     1      80.682  67.056  70.955  1.00  0.00     0.005 C 
BRANCH  18  19
ATOM     19  C   UNL     1      82.111  66.571  70.589  1.00  0.00     0.027 C 
BRANCH  19  20
ATOM     20  C   UNL     1      83.142  67.358  71.248  1.00  0.00    -0.031 C 
ATOM     21  C   UNL     1      83.213  68.701  71.203  1.00  0.00    -0.028 C 
BRANCH  21  22
ATOM     22  C   UNL     1      84.248  69.473  71.890  1.00  0.00     0.005 C 
ATOM     23  C   UNL     1      84.857  68.702  73.094  1.00  0.00     0.012 C 
ATOM     24  C   UNL     1      85.353  69.897  70.889  1.00  0.00     0.012 C 
ENDBRANCH  21  22
ENDBRANCH  19  20
ENDBRANCH  18  19
ENDBRANCH  17  18
ENDBRANCH   1  17
TORSDOF 10
ENDMDL
