MODEL 1
REMARK VINA RESULT:    -6.428      0.000      0.000
REMARK INTER + INTRA:         -10.915
REMARK INTER:                  -9.998
REMARK INTRA:                  -0.917
REMARK UNBOUND:                -0.917
REMARK SMILES CCCCC/C=C/C(=O)CCc1ccc(O)c(OC)c1
REMARK SMILES IDX 6 1 7 2 8 3 9 4 10 5 11 6 12 7 17 8 20 9 15 10 14 11 13 12
REMARK SMILES IDX 18 13 19 14 16 15 5 17 4 18 3 19 2 20 1 21
REMARK H PARENT 16 16
REMARK Flexibility Score: inf
ROOT
ATOM      1  C   UNL     1      93.519  94.811  75.149  1.00  0.00    -0.023 C 
ATOM      2  C   UNL     1      94.643  94.091  75.243  1.00  0.00     0.043 C 
ENDROOT
BRANCH   2   3
ATOM      3  C   UNL     1      95.966  94.771  75.198  1.00  0.00     0.155 C 
ATOM      4  O   UNL     1      96.297  95.484  74.253  1.00  0.00    -0.295 OA
BRANCH   3   5
ATOM      5  C   UNL     1      96.907  94.497  76.355  1.00  0.00     0.085 C 
BRANCH   5   6
ATOM      6  C   UNL     1      97.003  95.703  77.291  1.00  0.00     0.044 C 
BRANCH   6   7
ATOM      7  C   UNL     1      96.462  95.419  78.672  1.00  0.00    -0.044 A 
ATOM      8  C   UNL     1      96.343  95.965  81.005  1.00  0.00     0.160 A 
ATOM      9  C   UNL     1      96.844  96.227  79.730  1.00  0.00     0.054 A 
ATOM     10  C   UNL     1      95.467  94.898  81.206  1.00  0.00     0.157 A 
ATOM     11  C   UNL     1      95.092  94.093  80.129  1.00  0.00     0.050 A 
ATOM     12  C   UNL     1      95.593  94.355  78.854  1.00  0.00     0.008 A 
BRANCH   8  13
ATOM     13  O   UNL     1      96.717  96.758  82.048  1.00  0.00    -0.493 OA
ATOM     14  C   UNL     1      96.303  98.123  82.006  1.00  0.00     0.278 C 
ENDBRANCH   8  13
BRANCH  10  15
ATOM     15  O   UNL     1      94.971  94.632  82.446  1.00  0.00    -0.504 OA
ATOM     16  H   UNL     1      94.070  94.280  82.345  1.00  0.00     0.293 HD
ENDBRANCH  10  15
ENDBRANCH   6   7
ENDBRANCH   5   6
ENDBRANCH   3   5
ENDBRANCH   2   3
BRANCH   1  17
ATOM     17  C   UNL     1      92.148  94.201  75.186  1.00  0.00     0.027 C 
BRANCH  17  18
ATOM     18  C   UNL     1      91.410  94.457  76.504  1.00  0.00     0.004 C 
BRANCH  18  19
ATOM     19  C   UNL     1      89.925  94.081  76.460  1.00  0.00     0.000 C 
BRANCH  19  20
ATOM     20  C   UNL     1      89.714  92.622  76.864  1.00  0.00    -0.003 C 
ATOM     21  C   UNL     1      90.798  92.145  77.818  1.00  0.00     0.004 C 
ENDBRANCH  19  20
ENDBRANCH  18  19
ENDBRANCH  17  18
ENDBRANCH   1  17
TORSDOF 10
ENDMDL
MODEL 2
REMARK VINA RESULT:    -6.112     15.057     18.186
REMARK INTER + INTRA:         -10.424
REMARK INTER:                  -8.214
REMARK INTRA:                  -2.210
REMARK UNBOUND:                -0.917
REMARK SMILES CCCCC/C=C/C(=O)CCc1ccc(O)c(OC)c1
REMARK SMILES IDX 6 1 7 2 8 3 9 4 10 5 11 6 12 7 17 8 20 9 15 10 14 11 13 12
REMARK SMILES IDX 18 13 19 14 16 15 5 17 4 18 3 19 2 20 1 21
REMARK H PARENT 16 16
REMARK Flexibility Score: inf
ROOT
ATOM      1  C   UNL     1      82.885  89.597  88.590  1.00  0.00    -0.023 C 
ATOM      2  C   UNL     1      81.797  90.223  89.054  1.00  0.00     0.043 C 
ENDROOT
BRANCH   2   3
ATOM      3  C   UNL     1      80.617  89.431  89.496  1.00  0.00     0.155 C 
ATOM      4  O   UNL     1      80.443  89.129  90.675  1.00  0.00    -0.295 OA
BRANCH   3   5
ATOM      5  C   UNL     1      79.667  88.970  88.409  1.00  0.00     0.085 C 
BRANCH   5   6
ATOM      6  C   UNL     1      79.489  87.451  88.435  1.00  0.00     0.044 C 
BRANCH   6   7
ATOM      7  C   UNL     1      80.483  86.727  87.558  1.00  0.00    -0.044 A 
ATOM      8  C   UNL     1      81.176  85.984  85.384  1.00  0.00     0.160 A 
ATOM      9  C   UNL     1      80.257  86.652  86.193  1.00  0.00     0.054 A 
ATOM     10  C   UNL     1      82.309  85.400  85.949  1.00  0.00     0.157 A 
ATOM     11  C   UNL     1      82.523  85.484  87.326  1.00  0.00     0.050 A 
ATOM     12  C   UNL     1      81.604  86.152  88.135  1.00  0.00     0.008 A 
BRANCH   8  13
ATOM     13  O   UNL     1      80.955  85.909  84.041  1.00  0.00    -0.493 OA
ATOM     14  C   UNL     1      80.199  86.963  83.448  1.00  0.00     0.278 C 
ENDBRANCH   8  13
BRANCH  10  15
ATOM     15  O   UNL     1      83.214  84.746  85.170  1.00  0.00    -0.504 OA
ATOM     16  H   UNL     1      83.137  85.086  84.262  1.00  0.00     0.293 HD
ENDBRANCH  10  15
ENDBRANCH   6   7
ENDBRANCH   5   6
ENDBRANCH   3   5
ENDBRANCH   2   3
BRANCH   1  17
ATOM     17  C   UNL     1      84.114  90.323  88.124  1.00  0.00     0.027 C 
BRANCH  17  18
ATOM     18  C   UNL     1      84.365  90.178  86.620  1.00  0.00     0.004 C 
BRANCH  18  19
ATOM     19  C   UNL     1      83.824  88.872  86.030  1.00  0.00     0.000 C 
BRANCH  19  20
ATOM     20  C   UNL     1      82.956  89.139  84.800  1.00  0.00    -0.003 C 
ATOM     21  C   UNL     1      81.697  89.911  85.163  1.00  0.00     0.004 C 
ENDBRANCH  19  20
ENDBRANCH  18  19
ENDBRANCH  17  18
ENDBRANCH   1  17
TORSDOF 10
ENDMDL
MODEL 3
REMARK VINA RESULT:    -6.087     13.812     17.229
REMARK INTER + INTRA:         -10.384
REMARK INTER:                  -8.762
REMARK INTRA:                  -1.622
REMARK UNBOUND:                -0.917
REMARK SMILES CCCCC/C=C/C(=O)CCc1ccc(O)c(OC)c1
REMARK SMILES IDX 6 1 7 2 8 3 9 4 10 5 11 6 12 7 17 8 20 9 15 10 14 11 13 12
REMARK SMILES IDX 18 13 19 14 16 15 5 17 4 18 3 19 2 20 1 21
REMARK H PARENT 16 16
REMARK Flexibility Score: inf
ROOT
ATOM      1  C   UNL     1      80.654  86.667  87.051  1.00  0.00    -0.023 C 
ATOM      2  C   UNL     1      81.131  86.124  85.924  1.00  0.00     0.043 C 
ENDROOT
BRANCH   2   3
ATOM      3  C   UNL     1      80.704  86.660  84.603  1.00  0.00     0.155 C 
ATOM      4  O   UNL     1      81.011  86.108  83.549  1.00  0.00    -0.295 OA
BRANCH   3   5
ATOM      5  C   UNL     1      79.914  87.954  84.622  1.00  0.00     0.085 C 
BRANCH   5   6
ATOM      6  C   UNL     1      80.787  89.144  84.221  1.00  0.00     0.044 C 
BRANCH   6   7
ATOM      7  C   UNL     1      81.679  89.622  85.342  1.00  0.00    -0.044 A 
ATOM      8  C   UNL     1      83.877  89.938  86.251  1.00  0.00     0.160 A 
ATOM      9  C   UNL     1      83.054  89.496  85.216  1.00  0.00     0.054 A 
ATOM     10  C   UNL     1      83.317  90.500  87.398  1.00  0.00     0.157 A 
ATOM     11  C   UNL     1      81.931  90.620  87.510  1.00  0.00     0.050 A 
ATOM     12  C   UNL     1      81.107  90.177  86.474  1.00  0.00     0.008 A 
BRANCH   8  13
ATOM     13  O   UNL     1      85.229  89.816  86.130  1.00  0.00    -0.493 OA
ATOM     14  C   UNL     1      85.842  90.463  85.017  1.00  0.00     0.278 C 
ENDBRANCH   8  13
BRANCH  10  15
ATOM     15  O   UNL     1      84.111  90.936  88.415  1.00  0.00    -0.504 OA
ATOM     16  H   UNL     1      83.763  91.788  88.730  1.00  0.00     0.293 HD
ENDBRANCH  10  15
ENDBRANCH   6   7
ENDBRANCH   5   6
ENDBRANCH   3   5
ENDBRANCH   2   3
BRANCH   1  17
ATOM     17  C   UNL     1      81.035  86.184  88.420  1.00  0.00     0.027 C 
BRANCH  17  18
ATOM     18  C   UNL     1      80.044  86.612  89.507  1.00  0.00     0.004 C 
BRANCH  18  19
ATOM     19  C   UNL     1      79.364  87.956  89.222  1.00  0.00     0.000 C 
BRANCH  19  20
ATOM     20  C   UNL     1      79.896  89.050  90.149  1.00  0.00    -0.003 C 
ATOM     21  C   UNL     1      81.065  88.554  90.984  1.00  0.00     0.004 C 
ENDBRANCH  19  20
ENDBRANCH  18  19
ENDBRANCH  17  18
ENDBRANCH   1  17
TORSDOF 10
ENDMDL
MODEL 4
REMARK VINA RESULT:    -5.962      4.063      8.646
REMARK INTER + INTRA:         -10.190
REMARK INTER:                  -9.329
REMARK INTRA:                  -0.861
REMARK UNBOUND:                -0.917
REMARK SMILES CCCCC/C=C/C(=O)CCc1ccc(O)c(OC)c1
REMARK SMILES IDX 6 1 7 2 8 3 9 4 10 5 11 6 12 7 17 8 20 9 15 10 14 11 13 12
REMARK SMILES IDX 18 13 19 14 16 15 5 17 4 18 3 19 2 20 1 21
REMARK H PARENT 16 16
REMARK Flexibility Score: inf
ROOT
ATOM      1  C   UNL     1      93.734  94.845  75.800  1.00  0.00    -0.023 C 
ATOM      2  C   UNL     1      93.528  93.772  76.574  1.00  0.00     0.043 C 
ENDROOT
BRANCH   2   3
ATOM      3  C   UNL     1      92.155  93.458  77.055  1.00  0.00     0.155 C 
ATOM      4  O   UNL     1      91.950  92.616  77.927  1.00  0.00    -0.295 OA
BRANCH   3   5
ATOM      5  C   UNL     1      91.016  94.192  76.375  1.00  0.00     0.085 C 
BRANCH   5   6
ATOM      6  C   UNL     1      89.849  93.250  76.075  1.00  0.00     0.044 C 
BRANCH   6   7
ATOM      7  C   UNL     1      89.965  92.581  74.726  1.00  0.00    -0.044 A 
ATOM      8  C   UNL     1      90.249  90.592  73.414  1.00  0.00     0.160 A 
ATOM      9  C   UNL     1      90.142  91.209  74.661  1.00  0.00     0.054 A 
ATOM     10  C   UNL     1      90.177  91.356  72.249  1.00  0.00     0.157 A 
ATOM     11  C   UNL     1      89.999  92.738  72.331  1.00  0.00     0.050 A 
ATOM     12  C   UNL     1      89.892  93.354  73.578  1.00  0.00     0.008 A 
BRANCH   8  13
ATOM     13  O   UNL     1      90.423  89.243  73.347  1.00  0.00    -0.493 OA
ATOM     14  C   UNL     1      90.328  88.515  74.570  1.00  0.00     0.278 C 
ENDBRANCH   8  13
BRANCH  10  15
ATOM     15  O   UNL     1      90.280  90.766  71.026  1.00  0.00    -0.504 OA
ATOM     16  H   UNL     1      89.391  90.488  70.745  1.00  0.00     0.293 HD
ENDBRANCH  10  15
ENDBRANCH   6   7
ENDBRANCH   5   6
ENDBRANCH   3   5
ENDBRANCH   2   3
BRANCH   1  17
ATOM     17  C   UNL     1      95.087  95.230  75.275  1.00  0.00     0.027 C 
BRANCH  17  18
ATOM     18  C   UNL     1      95.202  96.723  74.948  1.00  0.00     0.004 C 
BRANCH  18  19
ATOM     19  C   UNL     1      96.012  97.012  73.680  1.00  0.00     0.000 C 
BRANCH  19  20
ATOM     20  C   UNL     1      97.177  96.033  73.534  1.00  0.00    -0.003 C 
ATOM     21  C   UNL     1      97.740  96.042  72.121  1.00  0.00     0.004 C 
ENDBRANCH  19  20
ENDBRANCH  18  19
ENDBRANCH  17  18
ENDBRANCH   1  17
TORSDOF 10
ENDMDL
MODEL 5
REMARK VINA RESULT:    -5.922      4.664      8.202
REMARK INTER + INTRA:         -10.128
REMARK INTER:                  -9.524
REMARK INTRA:                  -0.604
REMARK UNBOUND:                -0.917
REMARK SMILES CCCCC/C=C/C(=O)CCc1ccc(O)c(OC)c1
REMARK SMILES IDX 6 1 7 2 8 3 9 4 10 5 11 6 12 7 17 8 20 9 15 10 14 11 13 12
REMARK SMILES IDX 18 13 19 14 16 15 5 17 4 18 3 19 2 20 1 21
REMARK H PARENT 16 16
REMARK Flexibility Score: inf
ROOT
ATOM      1  C   UNL     1      93.522  95.480  74.897  1.00  0.00    -0.023 C 
ATOM      2  C   UNL     1      93.714  94.457  75.738  1.00  0.00     0.043 C 
ENDROOT
BRANCH   2   3
ATOM      3  C   UNL     1      92.601  93.510  76.021  1.00  0.00     0.155 C 
ATOM      4  O   UNL     1      92.400  93.062  77.148  1.00  0.00    -0.295 OA
BRANCH   3   5
ATOM      5  C   UNL     1      91.758  93.084  74.835  1.00  0.00     0.085 C 
BRANCH   5   6
ATOM      6  C   UNL     1      90.482  92.371  75.288  1.00  0.00     0.044 C 
BRANCH   6   7
ATOM      7  C   UNL     1      90.576  90.868  75.169  1.00  0.00    -0.044 A 
ATOM      8  C   UNL     1      90.555  88.701  76.200  1.00  0.00     0.160 A 
ATOM      9  C   UNL     1      90.470  90.089  76.310  1.00  0.00     0.054 A 
ATOM     10  C   UNL     1      90.747  88.111  74.951  1.00  0.00     0.157 A 
ATOM     11  C   UNL     1      90.852  88.909  73.811  1.00  0.00     0.050 A 
ATOM     12  C   UNL     1      90.766  90.297  73.922  1.00  0.00     0.008 A 
BRANCH   8  13
ATOM     13  O   UNL     1      90.451  87.933  77.320  1.00  0.00    -0.493 OA
ATOM     14  C   UNL     1      89.709  88.475  78.411  1.00  0.00     0.278 C 
ENDBRANCH   8  13
BRANCH  10  15
ATOM     15  O   UNL     1      90.832  86.757  74.830  1.00  0.00    -0.504 OA
ATOM     16  H   UNL     1      91.196  86.551  73.953  1.00  0.00     0.293 HD
ENDBRANCH  10  15
ENDBRANCH   6   7
ENDBRANCH   5   6
ENDBRANCH   3   5
ENDBRANCH   2   3
BRANCH   1  17
ATOM     17  C   UNL     1      94.592  96.478  74.560  1.00  0.00     0.027 C 
BRANCH  17  18
ATOM     18  C   UNL     1      94.038  97.776  73.964  1.00  0.00     0.004 C 
BRANCH  18  19
ATOM     19  C   UNL     1      94.681  98.160  72.627  1.00  0.00     0.000 C 
BRANCH  19  20
ATOM     20  C   UNL     1      93.652  98.144  71.495  1.00  0.00    -0.003 C 
ATOM     21  C   UNL     1      92.864  99.443  71.440  1.00  0.00     0.004 C 
ENDBRANCH  19  20
ENDBRANCH  18  19
ENDBRANCH  17  18
ENDBRANCH   1  17
TORSDOF 10
ENDMDL
MODEL 6
REMARK VINA RESULT:    -5.891     30.520     33.893
REMARK INTER + INTRA:         -10.080
REMARK INTER:                  -8.470
REMARK INTRA:                  -1.611
REMARK UNBOUND:                -0.917
REMARK SMILES CCCCC/C=C/C(=O)CCc1ccc(O)c(OC)c1
REMARK SMILES IDX 6 1 7 2 8 3 9 4 10 5 11 6 12 7 17 8 20 9 15 10 14 11 13 12
REMARK SMILES IDX 18 13 19 14 16 15 5 17 4 18 3 19 2 20 1 21
REMARK H PARENT 16 16
REMARK Flexibility Score: inf
ROOT
ATOM      1  C   UNL     1      63.612  81.318  72.041  1.00  0.00    -0.023 C 
ATOM      2  C   UNL     1      63.824  80.489  73.070  1.00  0.00     0.043 C 
ENDROOT
BRANCH   2   3
ATOM      3  C   UNL     1      65.186  80.368  73.658  1.00  0.00     0.155 C 
ATOM      4  O   UNL     1      66.043  79.638  73.165  1.00  0.00    -0.295 OA
BRANCH   3   5
ATOM      5  C   UNL     1      65.446  81.154  74.928  1.00  0.00     0.085 C 
BRANCH   5   6
ATOM      6  C   UNL     1      64.172  81.298  75.763  1.00  0.00     0.044 C 
BRANCH   6   7
ATOM      7  C   UNL     1      63.594  82.692  75.717  1.00  0.00    -0.044 A 
ATOM      8  C   UNL     1      63.855  85.031  75.245  1.00  0.00     0.160 A 
ATOM      9  C   UNL     1      64.389  83.743  75.288  1.00  0.00     0.054 A 
ATOM     10  C   UNL     1      62.534  85.252  75.633  1.00  0.00     0.157 A 
ATOM     11  C   UNL     1      61.746  84.183  76.063  1.00  0.00     0.050 A 
ATOM     12  C   UNL     1      62.280  82.895  76.105  1.00  0.00     0.008 A 
BRANCH   8  13
ATOM     13  O   UNL     1      64.635  86.066  74.824  1.00  0.00    -0.493 OA
ATOM     14  C   UNL     1      65.997  86.064  75.245  1.00  0.00     0.278 C 
ENDBRANCH   8  13
BRANCH  10  15
ATOM     15  O   UNL     1      62.001  86.504  75.595  1.00  0.00    -0.504 OA
ATOM     16  H   UNL     1      61.111  86.446  75.207  1.00  0.00     0.293 HD
ENDBRANCH  10  15
ENDBRANCH   6   7
ENDBRANCH   5   6
ENDBRANCH   3   5
ENDBRANCH   2   3
BRANCH   1  17
ATOM     17  C   UNL     1      62.270  81.496  71.393  1.00  0.00     0.027 C 
BRANCH  17  18
ATOM     18  C   UNL     1      61.205  82.039  72.352  1.00  0.00     0.004 C 
BRANCH  18  19
ATOM     19  C   UNL     1      61.229  83.564  72.495  1.00  0.00     0.000 C 
BRANCH  19  20
ATOM     20  C   UNL     1      60.138  84.215  71.644  1.00  0.00    -0.003 C 
ATOM     21  C   UNL     1      60.709  84.813  70.368  1.00  0.00     0.004 C 
ENDBRANCH  19  20
ENDBRANCH  18  19
ENDBRANCH  17  18
ENDBRANCH   1  17
TORSDOF 10
ENDMDL
MODEL 7
REMARK VINA RESULT:    -5.562     12.977     14.442
REMARK INTER + INTRA:          -9.568
REMARK INTER:                  -8.330
REMARK INTRA:                  -1.238
REMARK UNBOUND:                -0.917
REMARK SMILES CCCCC/C=C/C(=O)CCc1ccc(O)c(OC)c1
REMARK SMILES IDX 6 1 7 2 8 3 9 4 10 5 11 6 12 7 17 8 20 9 15 10 14 11 13 12
REMARK SMILES IDX 18 13 19 14 16 15 5 17 4 18 3 19 2 20 1 21
REMARK H PARENT 16 16
REMARK Flexibility Score: inf
ROOT
ATOM      1  C   UNL     1      99.702  82.109  76.268  1.00  0.00    -0.023 C 
ATOM      2  C   UNL     1      98.709  82.850  76.775  1.00  0.00     0.043 C 
ENDROOT
BRANCH   2   3
ATOM      3  C   UNL     1      97.294  82.439  76.563  1.00  0.00     0.155 C 
ATOM      4  O   UNL     1      96.655  82.799  75.577  1.00  0.00    -0.295 OA
BRANCH   3   5
ATOM      5  C   UNL     1      96.664  81.596  77.654  1.00  0.00     0.085 C 
BRANCH   5   6
ATOM      6  C   UNL     1      96.295  82.446  78.870  1.00  0.00     0.044 C 
BRANCH   6   7
ATOM      7  C   UNL     1      97.191  82.190  80.059  1.00  0.00    -0.044 A 
ATOM      8  C   UNL     1      97.853  82.709  82.307  1.00  0.00     0.160 A 
ATOM      9  C   UNL     1      97.026  82.946  81.209  1.00  0.00     0.054 A 
ATOM     10  C   UNL     1      98.835  81.720  82.241  1.00  0.00     0.157 A 
ATOM     11  C   UNL     1      98.989  80.968  81.076  1.00  0.00     0.050 A 
ATOM     12  C   UNL     1      98.162  81.205  79.978  1.00  0.00     0.008 A 
BRANCH   8  13
ATOM     13  O   UNL     1      97.693  83.450  83.439  1.00  0.00    -0.493 OA
ATOM     14  C   UNL     1      96.536  83.184  84.230  1.00  0.00     0.278 C 
ENDBRANCH   8  13
BRANCH  10  15
ATOM     15  O   UNL     1      99.648  81.479  83.306  1.00  0.00    -0.504 OA
ATOM     16  H   UNL     1     100.541  81.796  83.086  1.00  0.00     0.293 HD
ENDBRANCH  10  15
ENDBRANCH   6   7
ENDBRANCH   5   6
ENDBRANCH   3   5
ENDBRANCH   2   3
BRANCH   1  17
ATOM     17  C   UNL     1     101.153  82.455  76.437  1.00  0.00     0.027 C 
BRANCH  17  18
ATOM     18  C   UNL     1     101.992  81.289  76.970  1.00  0.00     0.004 C 
BRANCH  18  19
ATOM     19  C   UNL     1     101.572  80.818  78.366  1.00  0.00     0.000 C 
BRANCH  19  20
ATOM     20  C   UNL     1     102.788  80.405  79.197  1.00  0.00    -0.003 C 
ATOM     21  C   UNL     1     104.009  80.175  78.322  1.00  0.00     0.004 C 
ENDBRANCH  19  20
ENDBRANCH  18  19
ENDBRANCH  17  18
ENDBRANCH   1  17
TORSDOF 10
ENDMDL
MODEL 8
REMARK VINA RESULT:    -5.542      4.229      7.422
REMARK INTER + INTRA:          -9.537
REMARK INTER:                  -8.898
REMARK INTRA:                  -0.640
REMARK UNBOUND:                -0.917
REMARK SMILES CCCCC/C=C/C(=O)CCc1ccc(O)c(OC)c1
REMARK SMILES IDX 6 1 7 2 8 3 9 4 10 5 11 6 12 7 17 8 20 9 15 10 14 11 13 12
REMARK SMILES IDX 18 13 19 14 16 15 5 17 4 18 3 19 2 20 1 21
REMARK H PARENT 16 16
REMARK Flexibility Score: inf
ROOT
ATOM      1  C   UNL     1      94.286  97.014  74.006  1.00  0.00    -0.023 C 
ATOM      2  C   UNL     1      95.187  96.492  74.848  1.00  0.00     0.043 C 
ENDROOT
BRANCH   2   3
ATOM      3  C   UNL     1      94.835  95.300  75.666  1.00  0.00     0.155 C 
ATOM      4  O   UNL     1      95.692  94.624  76.231  1.00  0.00    -0.295 OA
BRANCH   3   5
ATOM      5  C   UNL     1      93.365  94.930  75.724  1.00  0.00     0.085 C 
BRANCH   5   6
ATOM      6  C   UNL     1      93.090  93.924  76.842  1.00  0.00     0.044 C 
BRANCH   6   7
ATOM      7  C   UNL     1      91.841  93.108  76.604  1.00  0.00    -0.044 A 
ATOM      8  C   UNL     1      90.251  92.144  75.087  1.00  0.00     0.160 A 
ATOM      9  C   UNL     1      91.405  92.898  75.306  1.00  0.00     0.054 A 
ATOM     10  C   UNL     1      89.549  91.612  76.168  1.00  0.00     0.157 A 
ATOM     11  C   UNL     1      90.001  91.833  77.470  1.00  0.00     0.050 A 
ATOM     12  C   UNL     1      91.155  92.587  77.689  1.00  0.00     0.008 A 
BRANCH   8  13
ATOM     13  O   UNL     1      89.820  91.935  73.811  1.00  0.00    -0.493 OA
ATOM     14  C   UNL     1      90.574  91.025  73.013  1.00  0.00     0.278 C 
ENDBRANCH   8  13
BRANCH  10  15
ATOM     15  O   UNL     1      88.422  90.874  75.967  1.00  0.00    -0.504 OA
ATOM     16  H   UNL     1      87.872  91.330  75.307  1.00  0.00     0.293 HD
ENDBRANCH  10  15
ENDBRANCH   6   7
ENDBRANCH   5   6
ENDBRANCH   3   5
ENDBRANCH   2   3
BRANCH   1  17
ATOM     17  C   UNL     1      94.563  98.214  73.148  1.00  0.00     0.027 C 
BRANCH  17  18
ATOM     18  C   UNL     1      94.376  99.541  73.891  1.00  0.00     0.004 C 
BRANCH  18  19
ATOM     19  C   UNL     1      92.949 100.094  73.809  1.00  0.00     0.000 C 
BRANCH  19  20
ATOM     20  C   UNL     1      92.851 101.217  72.776  1.00  0.00    -0.003 C 
ATOM     21  C   UNL     1      92.440 100.686  71.412  1.00  0.00     0.004 C 
ENDBRANCH  19  20
ENDBRANCH  18  19
ENDBRANCH  17  18
ENDBRANCH   1  17
TORSDOF 10
ENDMDL
MODEL 9
REMARK VINA RESULT:    -5.192     29.934     32.703
REMARK INTER + INTRA:          -8.993
REMARK INTER:                  -8.386
REMARK INTRA:                  -0.606
REMARK UNBOUND:                -0.917
REMARK SMILES CCCCC/C=C/C(=O)CCc1ccc(O)c(OC)c1
REMARK SMILES IDX 6 1 7 2 8 3 9 4 10 5 11 6 12 7 17 8 20 9 15 10 14 11 13 12
REMARK SMILES IDX 18 13 19 14 16 15 5 17 4 18 3 19 2 20 1 21
REMARK H PARENT 16 16
REMARK Flexibility Score: inf
ROOT
ATOM      1  C   UNL     1      85.293  63.764  79.196  1.00  0.00    -0.023 C 
ATOM      2  C   UNL     1      84.606  63.381  78.114  1.00  0.00     0.043 C 
ENDROOT
BRANCH   2   3
ATOM      3  C   UNL     1      84.936  63.957  76.782  1.00  0.00     0.155 C 
ATOM      4  O   UNL     1      85.937  64.649  76.605  1.00  0.00    -0.295 OA
BRANCH   3   5
ATOM      5  C   UNL     1      83.946  63.691  75.665  1.00  0.00     0.085 C 
BRANCH   5   6
ATOM      6  C   UNL     1      82.614  64.395  75.925  1.00  0.00     0.044 C 
BRANCH   6   7
ATOM      7  C   UNL     1      81.912  64.812  74.654  1.00  0.00    -0.044 A 
ATOM      8  C   UNL     1      81.893  66.073  72.613  1.00  0.00     0.160 A 
ATOM      9  C   UNL     1      82.542  65.690  73.787  1.00  0.00     0.054 A 
ATOM     10  C   UNL     1      80.624  65.575  72.321  1.00  0.00     0.157 A 
ATOM     11  C   UNL     1      80.002  64.691  73.205  1.00  0.00     0.050 A 
ATOM     12  C   UNL     1      80.651  64.308  74.379  1.00  0.00     0.008 A 
BRANCH   8  13
ATOM     13  O   UNL     1      82.510  66.937  71.758  1.00  0.00    -0.493 OA
ATOM     14  C   UNL     1      82.630  68.294  72.182  1.00  0.00     0.278 C 
ENDBRANCH   8  13
BRANCH  10  15
ATOM     15  O   UNL     1      79.981  65.942  71.178  1.00  0.00    -0.504 OA
ATOM     16  H   UNL     1      80.209  66.867  70.983  1.00  0.00     0.293 HD
ENDBRANCH  10  15
ENDBRANCH   6   7
ENDBRANCH   5   6
ENDBRANCH   3   5
ENDBRANCH   2   3
BRANCH   1  17
ATOM     17  C   UNL     1      85.021  63.231  80.573  1.00  0.00     0.027 C 
BRANCH  17  18
ATOM     18  C   UNL     1      85.386  64.220  81.684  1.00  0.00     0.004 C 
BRANCH  18  19
ATOM     19  C   UNL     1      86.148  65.452  81.185  1.00  0.00     0.000 C 
BRANCH  19  20
ATOM     20  C   UNL     1      86.649  66.303  82.353  1.00  0.00    -0.003 C 
ATOM     21  C   UNL     1      85.871  66.012  83.627  1.00  0.00     0.004 C 
ENDBRANCH  19  20
ENDBRANCH  18  19
ENDBRANCH  17  18
ENDBRANCH   1  17
TORSDOF 10
ENDMDL
MODEL 10
REMARK VINA RESULT:    -5.183     28.691     31.275
REMARK INTER + INTRA:          -8.978
REMARK INTER:                  -8.182
REMARK INTRA:                  -0.796
REMARK UNBOUND:                -0.917
REMARK SMILES CCCCC/C=C/C(=O)CCc1ccc(O)c(OC)c1
REMARK SMILES IDX 6 1 7 2 8 3 9 4 10 5 11 6 12 7 17 8 20 9 15 10 14 11 13 12
REMARK SMILES IDX 18 13 19 14 16 15 5 17 4 18 3 19 2 20 1 21
REMARK H PARENT 16 16
REMARK Flexibility Score: inf
ROOT
ATOM      1  C   UNL     1      64.319  82.801  75.199  1.00  0.00    -0.023 C 
ATOM      2  C   UNL     1      64.010  84.078  74.940  1.00  0.00     0.043 C 
ENDROOT
BRANCH   2   3
ATOM      3  C   UNL     1      65.046  85.136  75.085  1.00  0.00     0.155 C 
ATOM      4  O   UNL     1      66.167  85.019  74.593  1.00  0.00    -0.295 OA
BRANCH   3   5
ATOM      5  C   UNL     1      64.665  86.346  75.916  1.00  0.00     0.085 C 
BRANCH   5   6
ATOM      6  C   UNL     1      64.338  85.949  77.356  1.00  0.00     0.044 C 
BRANCH   6   7
ATOM      7  C   UNL     1      65.281  86.561  78.364  1.00  0.00    -0.044 A 
ATOM      8  C   UNL     1      66.931  86.300  80.086  1.00  0.00     0.160 A 
ATOM      9  C   UNL     1      66.060  85.733  79.157  1.00  0.00     0.054 A 
ATOM     10  C   UNL     1      67.014  87.686  80.212  1.00  0.00     0.157 A 
ATOM     11  C   UNL     1      66.223  88.507  79.406  1.00  0.00     0.050 A 
ATOM     12  C   UNL     1      65.351  87.941  78.477  1.00  0.00     0.008 A 
BRANCH   8  13
ATOM     13  O   UNL     1      67.698  85.488  80.867  1.00  0.00    -0.493 OA
ATOM     14  C   UNL     1      67.016  84.657  81.805  1.00  0.00     0.278 C 
ENDBRANCH   8  13
BRANCH  10  15
ATOM     15  O   UNL     1      67.861  88.252  81.116  1.00  0.00    -0.504 OA
ATOM     16  H   UNL     1      68.621  87.656  81.236  1.00  0.00     0.293 HD
ENDBRANCH  10  15
ENDBRANCH   6   7
ENDBRANCH   5   6
ENDBRANCH   3   5
ENDBRANCH   2   3
BRANCH   1  17
ATOM     17  C   UNL     1      63.332  81.677  75.077  1.00  0.00     0.027 C 
BRANCH  17  18
ATOM     18  C   UNL     1      63.818  80.545  74.165  1.00  0.00     0.004 C 
BRANCH  18  19
ATOM     19  C   UNL     1      63.910  80.943  72.689  1.00  0.00     0.000 C 
BRANCH  19  20
ATOM     20  C   UNL     1      62.562  81.446  72.168  1.00  0.00    -0.003 C 
ATOM     21  C   UNL     1      62.583  81.634  70.660  1.00  0.00     0.004 C 
ENDBRANCH  19  20
ENDBRANCH  18  19
ENDBRANCH  17  18
ENDBRANCH   1  17
TORSDOF 10
ENDMDL
