MODEL 1
REMARK VINA RESULT:    -6.188      0.000      0.000
REMARK INTER + INTRA:         -10.702
REMARK INTER:                  -9.624
REMARK INTRA:                  -1.077
REMARK UNBOUND:                -1.077
REMARK SMILES COc1cc(CNC(=O)CCCCCC(C)C)ccc1O
REMARK SMILES IDX 10 1 8 2 7 3 9 5 6 6 5 7 3 8 20 9 4 10 19 11 18 12 2 13 1 14
REMARK SMILES IDX 21 15 11 17 12 18 13 19 14 20 15 21 16 22 17 23
REMARK H PARENT 7 4 21 16
REMARK Flexibility Score: inf
ROOT
ATOM      1  C   UNL     1      95.441  97.317  74.538  1.00  0.00     0.100 C 
ENDROOT
BRANCH   1   2
ATOM      2  C   UNL     1      96.582  97.010  75.425  1.00  0.00     0.220 C 
ATOM      3  N   UNL     1      96.346  96.660  76.721  1.00  0.00    -0.352 N 
ATOM      4  H   UNL     1      95.388  96.766  77.023  1.00  0.00     0.163 HD
ATOM      5  O   UNL     1      97.745  97.037  74.953  1.00  0.00    -0.275 OA
BRANCH   3   6
ATOM      6  C   UNL     1      97.332  96.174  77.633  1.00  0.00     0.151 C 
BRANCH   6   7
ATOM      7  C   UNL     1      96.786  95.208  78.624  1.00  0.00    -0.025 A 
ATOM      8  C   UNL     1      95.913  94.722  80.871  1.00  0.00     0.160 A 
ATOM      9  C   UNL     1      95.683  93.383  80.490  1.00  0.00     0.157 A 
ATOM     10  C   UNL     1      96.480  95.621  79.942  1.00  0.00     0.056 A 
ATOM     11  C   UNL     1      96.008  92.955  79.189  1.00  0.00     0.050 A 
ATOM     12  C   UNL     1      96.550  93.861  78.262  1.00  0.00     0.009 A 
BRANCH   8  13
ATOM     13  O   UNL     1      95.622  95.154  82.138  1.00  0.00    -0.493 OA
ATOM     14  C   UNL     1      96.083  96.490  82.418  1.00  0.00     0.278 C 
ENDBRANCH   8  13
BRANCH   9  15
ATOM     15  O   UNL     1      95.140  92.511  81.375  1.00  0.00    -0.504 OA
ATOM     16  H   UNL     1      94.529  91.929  80.918  1.00  0.00     0.293 HD
ENDBRANCH   9  15
ENDBRANCH   6   7
ENDBRANCH   3   6
ENDBRANCH   1   2
BRANCH   1  17
ATOM     17  C   UNL     1      94.798  96.071  73.870  1.00  0.00     0.010 C 
BRANCH  17  18
ATOM     18  C   UNL     1      93.830  95.338  74.839  1.00  0.00     0.001 C 
BRANCH  18  19
ATOM     19  C   UNL     1      92.987  96.302  75.715  1.00  0.00     0.000 C 
BRANCH  19  20
ATOM     20  C   UNL     1      92.183  95.547  76.813  1.00  0.00     0.003 C 
BRANCH  20  21
ATOM     21  C   UNL     1      92.326  93.991  76.784  1.00  0.00    -0.017 C 
ATOM     22  C   UNL     1      91.109  93.335  76.068  1.00  0.00     0.007 C 
ATOM     23  C   UNL     1      92.508  93.374  78.201  1.00  0.00     0.007 C 
ENDBRANCH  20  21
ENDBRANCH  19  20
ENDBRANCH  18  19
ENDBRANCH  17  18
ENDBRANCH   1  17
TORSDOF 10
ENDMDL
MODEL 2
REMARK VINA RESULT:    -5.740      1.134      2.260
REMARK INTER + INTRA:         -10.006
REMARK INTER:                  -9.104
REMARK INTRA:                  -0.902
REMARK UNBOUND:                -1.077
REMARK SMILES COc1cc(CNC(=O)CCCCCC(C)C)ccc1O
REMARK SMILES IDX 10 1 8 2 7 3 9 5 6 6 5 7 3 8 20 9 4 10 19 11 18 12 2 13 1 14
REMARK SMILES IDX 21 15 11 17 12 18 13 19 14 20 15 21 16 22 17 23
REMARK H PARENT 7 4 21 16
REMARK Flexibility Score: inf
ROOT
ATOM      1  C   UNL     1      95.186  96.482  74.124  1.00  0.00     0.100 C 
ENDROOT
BRANCH   1   2
ATOM      2  C   UNL     1      96.322  96.817  75.009  1.00  0.00     0.220 C 
ATOM      3  N   UNL     1      96.120  96.901  76.354  1.00  0.00    -0.352 N 
ATOM      4  H   UNL     1      95.153  96.855  76.642  1.00  0.00     0.163 HD
ATOM      5  O   UNL     1      97.460  96.975  74.505  1.00  0.00    -0.275 OA
BRANCH   3   6
ATOM      6  C   UNL     1      97.150  97.044  77.332  1.00  0.00     0.151 C 
BRANCH   6   7
ATOM      7  C   UNL     1      96.724  96.627  78.695  1.00  0.00    -0.025 A 
ATOM      8  C   UNL     1      95.570  95.037  80.175  1.00  0.00     0.160 A 
ATOM      9  C   UNL     1      95.969  95.795  81.296  1.00  0.00     0.157 A 
ATOM     10  C   UNL     1      95.934  95.467  78.881  1.00  0.00     0.056 A 
ATOM     11  C   UNL     1      96.732  96.965  81.121  1.00  0.00     0.050 A 
ATOM     12  C   UNL     1      97.111  97.374  79.831  1.00  0.00     0.009 A 
BRANCH   8  13
ATOM     13  O   UNL     1      94.811  93.906  80.323  1.00  0.00    -0.493 OA
ATOM     14  C   UNL     1      95.570  92.684  80.271  1.00  0.00     0.278 C 
ENDBRANCH   8  13
BRANCH   9  15
ATOM     15  O   UNL     1      95.623  95.392  82.544  1.00  0.00    -0.504 OA
ATOM     16  H   UNL     1      96.416  95.204  83.052  1.00  0.00     0.293 HD
ENDBRANCH   9  15
ENDBRANCH   6   7
ENDBRANCH   3   6
ENDBRANCH   1   2
BRANCH   1  17
ATOM     17  C   UNL     1      94.585  95.071  74.363  1.00  0.00     0.010 C 
BRANCH  17  18
ATOM     18  C   UNL     1      93.489  95.094  75.464  1.00  0.00     0.001 C 
BRANCH  18  19
ATOM     19  C   UNL     1      93.761  94.101  76.624  1.00  0.00     0.000 C 
BRANCH  19  20
ATOM     20  C   UNL     1      92.488  93.832  77.478  1.00  0.00     0.003 C 
BRANCH  20  21
ATOM     21  C   UNL     1      91.171  93.636  76.658  1.00  0.00    -0.017 C 
ATOM     22  C   UNL     1      90.203  94.838  76.866  1.00  0.00     0.007 C 
ATOM     23  C   UNL     1      90.445  92.301  76.991  1.00  0.00     0.007 C 
ENDBRANCH  20  21
ENDBRANCH  19  20
ENDBRANCH  18  19
ENDBRANCH  17  18
ENDBRANCH   1  17
TORSDOF 10
ENDMDL
MODEL 3
REMARK VINA RESULT:    -5.537     10.982     14.699
REMARK INTER + INTRA:          -9.690
REMARK INTER:                  -8.308
REMARK INTRA:                  -1.382
REMARK UNBOUND:                -1.077
REMARK SMILES COc1cc(CNC(=O)CCCCCC(C)C)ccc1O
REMARK SMILES IDX 10 1 8 2 7 3 9 5 6 6 5 7 3 8 20 9 4 10 19 11 18 12 2 13 1 14
REMARK SMILES IDX 21 15 11 17 12 18 13 19 14 20 15 21 16 22 17 23
REMARK H PARENT 7 4 21 16
REMARK Flexibility Score: inf
ROOT
ATOM      1  C   UNL     1      89.619  98.054  69.365  1.00  0.00     0.100 C 
ENDROOT
BRANCH   1   2
ATOM      2  C   UNL     1      89.208  98.398  67.988  1.00  0.00     0.220 C 
ATOM      3  N   UNL     1      88.062  99.109  67.790  1.00  0.00    -0.352 N 
ATOM      4  H   UNL     1      87.495  99.240  68.615  1.00  0.00     0.163 HD
ATOM      5  O   UNL     1      89.948  98.064  67.031  1.00  0.00    -0.275 OA
BRANCH   3   6
ATOM      6  C   UNL     1      87.640  99.654  66.539  1.00  0.00     0.151 C 
BRANCH   6   7
ATOM      7  C   UNL     1      87.880 101.119  66.430  1.00  0.00    -0.025 A 
ATOM      8  C   UNL     1      87.017 103.409  66.195  1.00  0.00     0.160 A 
ATOM      9  C   UNL     1      88.332 103.912  66.288  1.00  0.00     0.157 A 
ATOM     10  C   UNL     1      86.801 102.016  66.247  1.00  0.00     0.056 A 
ATOM     11  C   UNL     1      89.415 103.027  66.442  1.00  0.00     0.050 A 
ATOM     12  C   UNL     1      89.191 101.642  66.518  1.00  0.00     0.009 A 
BRANCH   8  13
ATOM     13  O   UNL     1      85.950 104.253  66.024  1.00  0.00    -0.493 OA
ATOM     14  C   UNL     1      84.737 103.584  65.630  1.00  0.00     0.278 C 
ENDBRANCH   8  13
BRANCH   9  15
ATOM     15  O   UNL     1      88.551 105.250  66.236  1.00  0.00    -0.504 OA
ATOM     16  H   UNL     1      88.293 105.649  67.070  1.00  0.00     0.293 HD
ENDBRANCH   9  15
ENDBRANCH   6   7
ENDBRANCH   3   6
ENDBRANCH   1   2
BRANCH   1  17
ATOM     17  C   UNL     1      89.607  99.252  70.353  1.00  0.00     0.010 C 
BRANCH  17  18
ATOM     18  C   UNL     1      90.985  99.435  71.048  1.00  0.00     0.001 C 
BRANCH  18  19
ATOM     19  C   UNL     1      91.633 100.818  70.775  1.00  0.00     0.000 C 
BRANCH  19  20
ATOM     20  C   UNL     1      90.777 101.689  69.810  1.00  0.00     0.003 C 
BRANCH  20  21
ATOM     21  C   UNL     1      90.087 102.926  70.473  1.00  0.00    -0.017 C 
ATOM     22  C   UNL     1      90.566 104.251  69.809  1.00  0.00     0.007 C 
ATOM     23  C   UNL     1      90.310 102.989  72.012  1.00  0.00     0.007 C 
ENDBRANCH  20  21
ENDBRANCH  19  20
ENDBRANCH  18  19
ENDBRANCH  17  18
ENDBRANCH   1  17
TORSDOF 10
ENDMDL
MODEL 4
REMARK VINA RESULT:    -5.513     24.200     27.968
REMARK INTER + INTRA:          -9.653
REMARK INTER:                  -8.644
REMARK INTRA:                  -1.009
REMARK UNBOUND:                -1.077
REMARK SMILES COc1cc(CNC(=O)CCCCCC(C)C)ccc1O
REMARK SMILES IDX 10 1 8 2 7 3 9 5 6 6 5 7 3 8 20 9 4 10 19 11 18 12 2 13 1 14
REMARK SMILES IDX 21 15 11 17 12 18 13 19 14 20 15 21 16 22 17 23
REMARK H PARENT 7 4 21 16
REMARK Flexibility Score: inf
ROOT
ATOM      1  C   UNL     1      76.521  84.037  65.694  1.00  0.00     0.100 C 
ENDROOT
BRANCH   1   2
ATOM      2  C   UNL     1      75.959  82.681  65.532  1.00  0.00     0.220 C 
ATOM      3  N   UNL     1      74.635  82.470  65.783  1.00  0.00    -0.352 N 
ATOM      4  H   UNL     1      74.152  83.254  66.198  1.00  0.00     0.163 HD
ATOM      5  O   UNL     1      76.704  81.757  65.125  1.00  0.00    -0.275 OA
BRANCH   3   6
ATOM      6  C   UNL     1      73.928  81.262  65.503  1.00  0.00     0.151 C 
BRANCH   6   7
ATOM      7  C   UNL     1      72.611  81.493  64.852  1.00  0.00    -0.025 A 
ATOM      8  C   UNL     1      70.529  82.785  64.651  1.00  0.00     0.160 A 
ATOM      9  C   UNL     1      70.132  81.975  63.566  1.00  0.00     0.157 A 
ATOM     10  C   UNL     1      71.756  82.528  65.298  1.00  0.00     0.056 A 
ATOM     11  C   UNL     1      70.963  80.926  63.131  1.00  0.00     0.050 A 
ATOM     12  C   UNL     1      72.195  80.690  63.764  1.00  0.00     0.009 A 
BRANCH   8  13
ATOM     13  O   UNL     1      69.726  83.799  65.103  1.00  0.00    -0.493 OA
ATOM     14  C   UNL     1      69.499  83.772  66.526  1.00  0.00     0.278 C 
ENDBRANCH   8  13
BRANCH   9  15
ATOM     15  O   UNL     1      68.954  82.212  62.938  1.00  0.00    -0.504 OA
ATOM     16  H   UNL     1      68.427  81.410  62.931  1.00  0.00     0.293 HD
ENDBRANCH   9  15
ENDBRANCH   6   7
ENDBRANCH   3   6
ENDBRANCH   1   2
BRANCH   1  17
ATOM     17  C   UNL     1      77.155  84.304  67.086  1.00  0.00     0.010 C 
BRANCH  17  18
ATOM     18  C   UNL     1      77.471  85.811  67.292  1.00  0.00     0.001 C 
BRANCH  18  19
ATOM     19  C   UNL     1      76.372  86.569  68.082  1.00  0.00     0.000 C 
BRANCH  19  20
ATOM     20  C   UNL     1      75.431  85.601  68.857  1.00  0.00     0.003 C 
BRANCH  20  21
ATOM     21  C   UNL     1      73.921  86.007  68.858  1.00  0.00    -0.017 C 
ATOM     22  C   UNL     1      73.198  85.461  67.591  1.00  0.00     0.007 C 
ATOM     23  C   UNL     1      73.709  87.545  68.973  1.00  0.00     0.007 C 
ENDBRANCH  20  21
ENDBRANCH  19  20
ENDBRANCH  18  19
ENDBRANCH  17  18
ENDBRANCH   1  17
TORSDOF 10
ENDMDL
MODEL 5
REMARK VINA RESULT:    -5.475     22.392     25.992
REMARK INTER + INTRA:          -9.593
REMARK INTER:                  -8.875
REMARK INTRA:                  -0.719
REMARK UNBOUND:                -1.077
REMARK SMILES COc1cc(CNC(=O)CCCCCC(C)C)ccc1O
REMARK SMILES IDX 10 1 8 2 7 3 9 5 6 6 5 7 3 8 20 9 4 10 19 11 18 12 2 13 1 14
REMARK SMILES IDX 21 15 11 17 12 18 13 19 14 20 15 21 16 22 17 23
REMARK H PARENT 7 4 21 16
REMARK Flexibility Score: inf
ROOT
ATOM      1  C   UNL     1      77.610  85.754  67.398  1.00  0.00     0.100 C 
ENDROOT
BRANCH   1   2
ATOM      2  C   UNL     1      77.275  84.538  66.627  1.00  0.00     0.220 C 
ATOM      3  N   UNL     1      76.193  84.548  65.798  1.00  0.00    -0.352 N 
ATOM      4  H   UNL     1      75.607  85.368  65.874  1.00  0.00     0.163 HD
ATOM      5  O   UNL     1      78.021  83.533  66.720  1.00  0.00    -0.275 OA
BRANCH   3   6
ATOM      6  C   UNL     1      75.857  83.514  64.873  1.00  0.00     0.151 C 
BRANCH   6   7
ATOM      7  C   UNL     1      74.486  82.971  65.076  1.00  0.00    -0.025 A 
ATOM      8  C   UNL     1      72.151  83.283  65.781  1.00  0.00     0.160 A 
ATOM      9  C   UNL     1      71.861  81.956  65.400  1.00  0.00     0.157 A 
ATOM     10  C   UNL     1      73.466  83.776  65.634  1.00  0.00     0.056 A 
ATOM     11  C   UNL     1      72.875  81.138  64.869  1.00  0.00     0.050 A 
ATOM     12  C   UNL     1      74.176  81.642  64.703  1.00  0.00     0.009 A 
BRANCH   8  13
ATOM     13  O   UNL     1      71.183  84.090  66.319  1.00  0.00    -0.493 OA
ATOM     14  C   UNL     1      71.600  85.457  66.501  1.00  0.00     0.278 C 
ENDBRANCH   8  13
BRANCH   9  15
ATOM     15  O   UNL     1      70.602  81.472  65.539  1.00  0.00    -0.504 OA
ATOM     16  H   UNL     1      70.371  80.953  64.766  1.00  0.00     0.293 HD
ENDBRANCH   9  15
ENDBRANCH   6   7
ENDBRANCH   3   6
ENDBRANCH   1   2
BRANCH   1  17
ATOM     17  C   UNL     1      76.936  87.050  66.871  1.00  0.00     0.010 C 
BRANCH  17  18
ATOM     18  C   UNL     1      77.145  88.240  67.847  1.00  0.00     0.001 C 
BRANCH  18  19
ATOM     19  C   UNL     1      76.256  89.469  67.519  1.00  0.00     0.000 C 
BRANCH  19  20
ATOM     20  C   UNL     1      75.705  90.157  68.802  1.00  0.00     0.003 C 
BRANCH  20  21
ATOM     21  C   UNL     1      74.157  90.053  68.993  1.00  0.00    -0.017 C 
ATOM     22  C   UNL     1      73.694  90.879  70.229  1.00  0.00     0.007 C 
ATOM     23  C   UNL     1      73.661  88.583  69.117  1.00  0.00     0.007 C 
ENDBRANCH  20  21
ENDBRANCH  19  20
ENDBRANCH  18  19
ENDBRANCH  17  18
ENDBRANCH   1  17
TORSDOF 10
ENDMDL
MODEL 6
REMARK VINA RESULT:    -5.441     22.180     25.819
REMARK INTER + INTRA:          -9.541
REMARK INTER:                  -8.077
REMARK INTRA:                  -1.464
REMARK UNBOUND:                -1.077
REMARK SMILES COc1cc(CNC(=O)CCCCCC(C)C)ccc1O
REMARK SMILES IDX 10 1 8 2 7 3 9 5 6 6 5 7 3 8 20 9 4 10 19 11 18 12 2 13 1 14
REMARK SMILES IDX 21 15 11 17 12 18 13 19 14 20 15 21 16 22 17 23
REMARK H PARENT 7 4 21 16
REMARK Flexibility Score: inf
ROOT
ATOM      1  C   UNL     1      76.797  87.946  66.303  1.00  0.00     0.100 C 
ENDROOT
BRANCH   1   2
ATOM      2  C   UNL     1      76.906  86.484  66.494  1.00  0.00     0.220 C 
ATOM      3  N   UNL     1      76.412  85.646  65.540  1.00  0.00    -0.352 N 
ATOM      4  H   UNL     1      75.876  86.098  64.813  1.00  0.00     0.163 HD
ATOM      5  O   UNL     1      77.492  86.046  67.514  1.00  0.00    -0.275 OA
BRANCH   3   6
ATOM      6  C   UNL     1      76.602  84.231  65.512  1.00  0.00     0.151 C 
BRANCH   6   7
ATOM      7  C   UNL     1      75.324  83.469  65.533  1.00  0.00    -0.025 A 
ATOM      8  C   UNL     1      72.866  83.430  65.572  1.00  0.00     0.160 A 
ATOM      9  C   UNL     1      72.889  82.021  65.507  1.00  0.00     0.157 A 
ATOM     10  C   UNL     1      74.082  84.144  65.603  1.00  0.00     0.056 A 
ATOM     11  C   UNL     1      74.119  81.338  65.464  1.00  0.00     0.050 A 
ATOM     12  C   UNL     1      75.327  82.056  65.472  1.00  0.00     0.009 A 
BRANCH   8  13
ATOM     13  O   UNL     1      71.679  84.113  65.634  1.00  0.00    -0.493 OA
ATOM     14  C   UNL     1      71.188  84.544  64.351  1.00  0.00     0.278 C 
ENDBRANCH   8  13
BRANCH   9  15
ATOM     15  O   UNL     1      71.725  81.324  65.479  1.00  0.00    -0.504 OA
ATOM     16  H   UNL     1      71.258  81.448  66.308  1.00  0.00     0.293 HD
ENDBRANCH   9  15
ENDBRANCH   6   7
ENDBRANCH   3   6
ENDBRANCH   1   2
BRANCH   1  17
ATOM     17  C   UNL     1      77.129  88.782  67.568  1.00  0.00     0.010 C 
BRANCH  17  18
ATOM     18  C   UNL     1      76.054  89.872  67.832  1.00  0.00     0.001 C 
BRANCH  18  19
ATOM     19  C   UNL     1      75.107  89.531  69.012  1.00  0.00     0.000 C 
BRANCH  19  20
ATOM     20  C   UNL     1      73.633  89.347  68.549  1.00  0.00     0.003 C 
BRANCH  20  21
ATOM     21  C   UNL     1      73.212  87.869  68.259  1.00  0.00    -0.017 C 
ATOM     22  C   UNL     1      74.165  86.869  68.977  1.00  0.00     0.007 C 
ATOM     23  C   UNL     1      73.148  87.546  66.737  1.00  0.00     0.007 C 
ENDBRANCH  20  21
ENDBRANCH  19  20
ENDBRANCH  18  19
ENDBRANCH  17  18
ENDBRANCH   1  17
TORSDOF 10
ENDMDL
MODEL 7
REMARK VINA RESULT:    -5.414      1.984      2.451
REMARK INTER + INTRA:          -9.498
REMARK INTER:                  -8.883
REMARK INTRA:                  -0.615
REMARK UNBOUND:                -1.077
REMARK SMILES COc1cc(CNC(=O)CCCCCC(C)C)ccc1O
REMARK SMILES IDX 10 1 8 2 7 3 9 5 6 6 5 7 3 8 20 9 4 10 19 11 18 12 2 13 1 14
REMARK SMILES IDX 21 15 11 17 12 18 13 19 14 20 15 21 16 22 17 23
REMARK H PARENT 7 4 21 16
REMARK Flexibility Score: inf
ROOT
ATOM      1  C   UNL     1      94.526  95.518  75.135  1.00  0.00     0.100 C 
ENDROOT
BRANCH   1   2
ATOM      2  C   UNL     1      95.721  96.141  75.740  1.00  0.00     0.220 C 
ATOM      3  N   UNL     1      96.000  95.917  77.055  1.00  0.00    -0.352 N 
ATOM      4  H   UNL     1      95.276  95.432  77.566  1.00  0.00     0.163 HD
ATOM      5  O   UNL     1      96.479  96.833  75.017  1.00  0.00    -0.275 OA
BRANCH   3   6
ATOM      6  C   UNL     1      97.201  96.310  77.719  1.00  0.00     0.151 C 
BRANCH   6   7
ATOM      7  C   UNL     1      97.471  95.524  78.953  1.00  0.00    -0.025 A 
ATOM      8  C   UNL     1      98.887  95.036  80.904  1.00  0.00     0.160 A 
ATOM      9  C   UNL     1      97.953  94.073  81.338  1.00  0.00     0.157 A 
ATOM     10  C   UNL     1      98.650  95.742  79.705  1.00  0.00     0.056 A 
ATOM     11  C   UNL     1      96.790  93.828  80.584  1.00  0.00     0.050 A 
ATOM     12  C   UNL     1      96.548  94.552  79.404  1.00  0.00     0.009 A 
BRANCH   8  13
ATOM     13  O   UNL     1     100.035  95.275  81.613  1.00  0.00    -0.493 OA
ATOM     14  C   UNL     1     100.669  96.528  81.289  1.00  0.00     0.278 C 
ENDBRANCH   8  13
BRANCH   9  15
ATOM     15  O   UNL     1      98.172  93.387  82.488  1.00  0.00    -0.504 OA
ATOM     16  H   UNL     1      98.033  92.450  82.334  1.00  0.00     0.293 HD
ENDBRANCH   9  15
ENDBRANCH   6   7
ENDBRANCH   3   6
ENDBRANCH   1   2
BRANCH   1  17
ATOM     17  C   UNL     1      93.181  96.156  75.575  1.00  0.00     0.010 C 
BRANCH  17  18
ATOM     18  C   UNL     1      92.697  95.589  76.938  1.00  0.00     0.001 C 
BRANCH  18  19
ATOM     19  C   UNL     1      93.142  94.124  77.189  1.00  0.00     0.000 C 
BRANCH  19  20
ATOM     20  C   UNL     1      92.163  93.366  78.132  1.00  0.00     0.003 C 
BRANCH  20  21
ATOM     21  C   UNL     1      90.877  92.810  77.439  1.00  0.00    -0.017 C 
ATOM     22  C   UNL     1      91.213  92.214  76.040  1.00  0.00     0.007 C 
ATOM     23  C   UNL     1      89.751  93.877  77.309  1.00  0.00     0.007 C 
ENDBRANCH  20  21
ENDBRANCH  19  20
ENDBRANCH  18  19
ENDBRANCH  17  18
ENDBRANCH   1  17
TORSDOF 10
ENDMDL
MODEL 8
REMARK VINA RESULT:    -5.394      4.196      5.702
REMARK INTER + INTRA:          -9.467
REMARK INTER:                  -8.948
REMARK INTRA:                  -0.519
REMARK UNBOUND:                -1.077
REMARK SMILES COc1cc(CNC(=O)CCCCCC(C)C)ccc1O
REMARK SMILES IDX 10 1 8 2 7 3 9 5 6 6 5 7 3 8 20 9 4 10 19 11 18 12 2 13 1 14
REMARK SMILES IDX 21 15 11 17 12 18 13 19 14 20 15 21 16 22 17 23
REMARK H PARENT 7 4 21 16
REMARK Flexibility Score: inf
ROOT
ATOM      1  C   UNL     1      93.983  99.395  73.355  1.00  0.00     0.100 C 
ENDROOT
BRANCH   1   2
ATOM      2  C   UNL     1      94.700  98.115  73.529  1.00  0.00     0.220 C 
ATOM      3  N   UNL     1      94.160  97.148  74.323  1.00  0.00    -0.352 N 
ATOM      4  H   UNL     1      93.350  97.436  74.853  1.00  0.00     0.163 HD
ATOM      5  O   UNL     1      95.773  97.928  72.906  1.00  0.00    -0.275 OA
BRANCH   3   6
ATOM      6  C   UNL     1      94.652  95.812  74.442  1.00  0.00     0.151 C 
BRANCH   6   7
ATOM      7  C   UNL     1      93.967  95.030  75.506  1.00  0.00    -0.025 A 
ATOM      8  C   UNL     1      94.072  93.600  77.504  1.00  0.00     0.160 A 
ATOM      9  C   UNL     1      92.662  93.594  77.571  1.00  0.00     0.157 A 
ATOM     10  C   UNL     1      94.714  94.301  76.461  1.00  0.00     0.056 A 
ATOM     11  C   UNL     1      91.908  94.293  76.610  1.00  0.00     0.050 A 
ATOM     12  C   UNL     1      92.555  95.010  75.589  1.00  0.00     0.009 A 
BRANCH   8  13
ATOM     13  O   UNL     1      94.824  92.910  78.418  1.00  0.00    -0.493 OA
ATOM     14  C   UNL     1      95.305  93.720  79.507  1.00  0.00     0.278 C 
ENDBRANCH   8  13
BRANCH   9  15
ATOM     15  O   UNL     1      92.035  92.921  78.568  1.00  0.00    -0.504 OA
ATOM     16  H   UNL     1      91.932  93.498  79.328  1.00  0.00     0.293 HD
ENDBRANCH   9  15
ENDBRANCH   6   7
ENDBRANCH   3   6
ENDBRANCH   1   2
BRANCH   1  17
ATOM     17  C   UNL     1      92.605  99.265  72.651  1.00  0.00     0.010 C 
BRANCH  17  18
ATOM     18  C   UNL     1      92.572 100.046  71.309  1.00  0.00     0.001 C 
BRANCH  18  19
ATOM     19  C   UNL     1      91.790  99.312  70.188  1.00  0.00     0.000 C 
BRANCH  19  20
ATOM     20  C   UNL     1      90.267  99.219  70.496  1.00  0.00     0.003 C 
BRANCH  20  21
ATOM     21  C   UNL     1      89.409  98.536  69.382  1.00  0.00    -0.017 C 
ATOM     22  C   UNL     1      90.262  97.518  68.569  1.00  0.00     0.007 C 
ATOM     23  C   UNL     1      88.741  99.561  68.420  1.00  0.00     0.007 C 
ENDBRANCH  20  21
ENDBRANCH  19  20
ENDBRANCH  18  19
ENDBRANCH  17  18
ENDBRANCH   1  17
TORSDOF 10
ENDMDL
MODEL 9
REMARK VINA RESULT:    -5.364     10.463     14.424
REMARK INTER + INTRA:          -9.420
REMARK INTER:                  -8.217
REMARK INTRA:                  -1.203
REMARK UNBOUND:                -1.077
REMARK SMILES COc1cc(CNC(=O)CCCCCC(C)C)ccc1O
REMARK SMILES IDX 10 1 8 2 7 3 9 5 6 6 5 7 3 8 20 9 4 10 19 11 18 12 2 13 1 14
REMARK SMILES IDX 21 15 11 17 12 18 13 19 14 20 15 21 16 22 17 23
REMARK H PARENT 7 4 21 16
REMARK Flexibility Score: inf
ROOT
ATOM      1  C   UNL     1      89.612  98.109  69.320  1.00  0.00     0.100 C 
ENDROOT
BRANCH   1   2
ATOM      2  C   UNL     1      89.240  98.457  67.933  1.00  0.00     0.220 C 
ATOM      3  N   UNL     1      88.077  99.128  67.700  1.00  0.00    -0.352 N 
ATOM      4  H   UNL     1      87.474  99.227  68.505  1.00  0.00     0.163 HD
ATOM      5  O   UNL     1      90.026  98.163  67.000  1.00  0.00    -0.275 OA
BRANCH   3   6
ATOM      6  C   UNL     1      87.682  99.676  66.442  1.00  0.00     0.151 C 
BRANCH   6   7
ATOM      7  C   UNL     1      87.741 101.162  66.406  1.00  0.00    -0.025 A 
ATOM      8  C   UNL     1      89.046 103.246  66.464  1.00  0.00     0.160 A 
ATOM      9  C   UNL     1      87.863 103.989  66.271  1.00  0.00     0.157 A 
ATOM     10  C   UNL     1      88.976 101.839  66.549  1.00  0.00     0.056 A 
ATOM     11  C   UNL     1      86.626 103.328  66.155  1.00  0.00     0.050 A 
ATOM     12  C   UNL     1      86.566 101.925  66.216  1.00  0.00     0.009 A 
BRANCH   8  13
ATOM     13  O   UNL     1      90.258 103.871  66.599  1.00  0.00    -0.493 OA
ATOM     14  C   UNL     1      91.117 103.730  65.452  1.00  0.00     0.278 C 
ENDBRANCH   8  13
BRANCH   9  15
ATOM     15  O   UNL     1      87.919 105.342  66.190  1.00  0.00    -0.504 OA
ATOM     16  H   UNL     1      87.037 105.706  66.294  1.00  0.00     0.293 HD
ENDBRANCH   9  15
ENDBRANCH   6   7
ENDBRANCH   3   6
ENDBRANCH   1   2
BRANCH   1  17
ATOM     17  C   UNL     1      89.588  99.307  70.307  1.00  0.00     0.010 C 
BRANCH  17  18
ATOM     18  C   UNL     1      90.882  99.367  71.165  1.00  0.00     0.001 C 
BRANCH  18  19
ATOM     19  C   UNL     1      91.733 100.639  70.908  1.00  0.00     0.000 C 
BRANCH  19  20
ATOM     20  C   UNL     1      93.156 100.298  70.379  1.00  0.00     0.003 C 
BRANCH  20  21
ATOM     21  C   UNL     1      93.467 100.818  68.938  1.00  0.00    -0.017 C 
ATOM     22  C   UNL     1      94.584 101.903  68.967  1.00  0.00     0.007 C 
ATOM     23  C   UNL     1      92.207 101.368  68.209  1.00  0.00     0.007 C 
ENDBRANCH  20  21
ENDBRANCH  19  20
ENDBRANCH  18  19
ENDBRANCH  17  18
ENDBRANCH   1  17
TORSDOF 10
ENDMDL
MODEL 10
REMARK VINA RESULT:    -5.330      6.534     10.294
REMARK INTER + INTRA:          -9.368
REMARK INTER:                  -8.865
REMARK INTRA:                  -0.504
REMARK UNBOUND:                -1.077
REMARK SMILES COc1cc(CNC(=O)CCCCCC(C)C)ccc1O
REMARK SMILES IDX 10 1 8 2 7 3 9 5 6 6 5 7 3 8 20 9 4 10 19 11 18 12 2 13 1 14
REMARK SMILES IDX 21 15 11 17 12 18 13 19 14 20 15 21 16 22 17 23
REMARK H PARENT 7 4 21 16
REMARK Flexibility Score: inf
ROOT
ATOM      1  C   UNL     1      94.542  99.203  72.876  1.00  0.00     0.100 C 
ENDROOT
BRANCH   1   2
ATOM      2  C   UNL     1      93.291  99.919  72.550  1.00  0.00     0.220 C 
ATOM      3  N   UNL     1      92.445  99.397  71.618  1.00  0.00    -0.352 N 
ATOM      4  H   UNL     1      92.809  98.604  71.110  1.00  0.00     0.163 HD
ATOM      5  O   UNL     1      93.014 100.973  73.172  1.00  0.00    -0.275 OA
BRANCH   3   6
ATOM      6  C   UNL     1      91.134  99.886  71.333  1.00  0.00     0.151 C 
BRANCH   6   7
ATOM      7  C   UNL     1      90.623  99.450  70.006  1.00  0.00    -0.025 A 
ATOM      8  C   UNL     1      90.241  99.893  67.617  1.00  0.00     0.160 A 
ATOM      9  C   UNL     1      89.710  98.594  67.464  1.00  0.00     0.157 A 
ATOM     10  C   UNL     1      90.676 100.319  68.890  1.00  0.00     0.056 A 
ATOM     11  C   UNL     1      89.628  97.731  68.572  1.00  0.00     0.050 A 
ATOM     12  C   UNL     1      90.085  98.153  69.832  1.00  0.00     0.009 A 
BRANCH   8  13
ATOM     13  O   UNL     1      90.312 100.756  66.555  1.00  0.00    -0.493 OA
ATOM     14  C   UNL     1      91.658 101.060  66.141  1.00  0.00     0.278 C 
ENDBRANCH   8  13
BRANCH   9  15
ATOM     15  O   UNL     1      89.287  98.176  66.245  1.00  0.00    -0.504 OA
ATOM     16  H   UNL     1      90.002  98.263  65.610  1.00  0.00     0.293 HD
ENDBRANCH   9  15
ENDBRANCH   6   7
ENDBRANCH   3   6
ENDBRANCH   1   2
BRANCH   1  17
ATOM     17  C   UNL     1      94.352  97.693  73.185  1.00  0.00     0.010 C 
BRANCH  17  18
ATOM     18  C   UNL     1      93.660  97.473  74.559  1.00  0.00     0.001 C 
BRANCH  18  19
ATOM     19  C   UNL     1      93.514  95.977  74.943  1.00  0.00     0.000 C 
BRANCH  19  20
ATOM     20  C   UNL     1      92.796  95.788  76.310  1.00  0.00     0.003 C 
BRANCH  20  21
ATOM     21  C   UNL     1      93.379  94.651  77.211  1.00  0.00    -0.017 C 
ATOM     22  C   UNL     1      92.237  93.863  77.919  1.00  0.00     0.007 C 
ATOM     23  C   UNL     1      94.398  95.175  78.263  1.00  0.00     0.007 C 
ENDBRANCH  20  21
ENDBRANCH  19  20
ENDBRANCH  18  19
ENDBRANCH  17  18
ENDBRANCH   1  17
TORSDOF 10
ENDMDL
