MODEL 1
REMARK VINA RESULT:    -6.912      0.000      0.000
REMARK INTER + INTRA:         -13.028
REMARK INTER:                 -12.165
REMARK INTRA:                  -0.863
REMARK UNBOUND:                -0.863
REMARK SMILES C=C(C)[C@]12C[C@@H](C)[C@@]34O[C@](Cc5ccccc5)(O[C@@H]1[C@@H]3C=C(COC(=O)Cc1ccc(O)c(OC)c1)C[C@]1(O)C(=O)C(C)=C[C@@H]41)O2
REMARK SMILES IDX 23 1 22 2 21 3 20 4 9 5 8 6 10 7 6 8 18 9 46 10 19 11 5 12
REMARK SMILES IDX 7 13 4 14 45 15 38 16 44 17 40 18 42 20 41 21 43 22 39 23
REMARK SMILES IDX 11 25 12 26 13 27 17 28 14 29 16 30 15 31 2 32 3 33 1 34
REMARK SMILES IDX 37 35 24 37 25 38 26 39 27 40 28 41 36 42 29 43 33 44 30 45
REMARK SMILES IDX 31 46 34 47 35 48 32 49
REMARK H PARENT 39 24 32 50
REMARK Flexibility Score: 90.00
ROOT
ATOM      1  C   UNL     1      87.251  66.607  71.296  1.00  0.00     0.264 C 
ENDROOT
BRANCH   1   2
ATOM      2  C   UNL     1      86.097  66.221  72.192  1.00  0.00    -0.033 C 
ATOM      3  C   UNL     1      86.295  66.137  73.523  1.00  0.00    -0.015 C 
BRANCH   3   4
ATOM      4  C   UNL     1      85.332  65.701  74.615  1.00  0.00     0.078 C 
ATOM      5  O   UNL     1      84.229  67.747  75.461  1.00  0.00    -0.319 OA
ATOM      6  C   UNL     1      83.975  66.483  74.773  1.00  0.00     0.095 C 
ATOM      7  C   UNL     1      85.131  67.669  76.581  1.00  0.00     0.289 C 
ATOM      8  C   UNL     1      83.007  65.591  75.656  1.00  0.00     0.023 C 
ATOM      9  O   UNL     1      86.394  67.137  76.192  1.00  0.00    -0.320 OA
ATOM     10  O   UNL     1      84.648  66.803  77.605  1.00  0.00    -0.313 OA
ATOM     11  C   UNL     1      86.038  65.760  75.992  1.00  0.00     0.170 C 
ATOM     12  C   UNL     1      83.800  64.766  76.716  1.00  0.00     0.049 C 
ATOM     13  C   UNL     1      81.862  66.347  76.349  1.00  0.00     0.011 C 
ATOM     14  C   UNL     1      85.066  65.493  77.169  1.00  0.00     0.122 C 
BRANCH   6  15
ATOM     15  C   UNL     1      83.415  66.903  73.383  1.00  0.00     0.086 C 
ATOM     16  C   UNL     1      83.502  65.842  72.267  1.00  0.00     0.140 CG0
ATOM     17  C   UNL     1      82.002  67.404  73.280  1.00  0.00    -0.010 C 
ATOM     18  C   UNL     1      82.249  66.113  71.461  1.00  0.00     0.190 C 
ATOM     19  G   UNL     1      84.776  65.984  71.434  1.00  0.00     0.000 G0
ATOM     20  C   UNL     1      81.329  67.001  72.197  1.00  0.00    -0.008 C 
ATOM     21  O   UNL     1      81.992  65.630  70.369  1.00  0.00    -0.291 OA
ATOM     22  C   UNL     1      79.973  67.356  71.732  1.00  0.00     0.048 C 
BRANCH  16  23
ATOM     23  O   UNL     1      83.329  64.511  72.724  1.00  0.00    -0.381 OA
ATOM     24  H   UNL     1      83.801  64.413  73.568  1.00  0.00     0.212 HD
ENDBRANCH  16  23
ENDBRANCH   6  15
BRANCH   7  25
ATOM     25  C   UNL     1      85.313  69.064  77.143  1.00  0.00     0.135 C 
BRANCH  25  26
ATOM     26  C   UNL     1      86.603  69.695  76.681  1.00  0.00    -0.040 A 
ATOM     27  C   UNL     1      87.712  69.717  77.528  1.00  0.00     0.004 A 
ATOM     28  C   UNL     1      86.689  70.256  75.407  1.00  0.00     0.004 A 
ATOM     29  C   UNL     1      88.905  70.300  77.100  1.00  0.00     0.000 A 
ATOM     30  C   UNL     1      87.882  70.839  74.979  1.00  0.00     0.000 A 
ATOM     31  C   UNL     1      88.990  70.861  75.827  1.00  0.00     0.000 A 
ENDBRANCH  25  26
ENDBRANCH   7  25
BRANCH  14  32
ATOM     32  C   UNL     1      85.743  64.810  78.312  1.00  0.00    -0.046 C 
ATOM     33  C   UNL     1      85.081  63.567  78.827  1.00  0.00     0.042 C 
ATOM     34  C   UNL     1      86.879  65.282  78.848  1.00  0.00     0.010 C 
ENDBRANCH  14  32
ENDBRANCH   3   4
BRANCH   2  35
ATOM     35  C   UNL     1      84.808  65.978  71.429  1.00  0.00     0.078 CG0
ATOM     36  G   UNL     1      83.525  65.853  72.249  1.00  0.00     0.000 G0
ENDBRANCH   2  35
ENDBRANCH   1   2
BRANCH   1  37
ATOM     37  O   UNL     1      87.323  68.013  71.207  1.00  0.00    -0.461 OA
BRANCH  37  38
ATOM     38  C   UNL     1      87.323  68.543  69.937  1.00  0.00     0.310 C 
ATOM     39  O   UNL     1      87.757  67.981  68.941  1.00  0.00    -0.252 OA
BRANCH  38  40
ATOM     40  C   UNL     1      86.705  69.921  69.966  1.00  0.00     0.158 C 
BRANCH  40  41
ATOM     41  C   UNL     1      87.561  70.963  69.293  1.00  0.00    -0.033 A 
ATOM     42  C   UNL     1      88.762  71.365  69.880  1.00  0.00     0.054 A 
ATOM     43  C   UNL     1      87.155  71.525  68.083  1.00  0.00     0.008 A 
ATOM     44  C   UNL     1      89.554  72.329  69.257  1.00  0.00     0.160 A 
ATOM     45  C   UNL     1      87.947  72.489  67.460  1.00  0.00     0.050 A 
ATOM     46  C   UNL     1      89.146  72.892  68.046  1.00  0.00     0.157 A 
BRANCH  44  47
ATOM     47  O   UNL     1      90.723  72.714  69.840  1.00  0.00    -0.493 OA
ATOM     48  C   UNL     1      91.931  72.242  69.244  1.00  0.00     0.278 C 
ENDBRANCH  44  47
BRANCH  46  49
ATOM     49  O   UNL     1      89.912  73.833  67.428  1.00  0.00    -0.504 OA
ATOM     50  H   UNL     1      89.799  74.683  67.885  1.00  0.00     0.293 HD
ENDBRANCH  46  49
ENDBRANCH  40  41
ENDBRANCH  38  40
ENDBRANCH  37  38
ENDBRANCH   1  37
TORSDOF 11
ENDMDL
MODEL 2
REMARK VINA RESULT:    -6.579      2.931     10.400
REMARK INTER + INTRA:         -12.441
REMARK INTER:                 -11.695
REMARK INTRA:                  -0.747
REMARK UNBOUND:                -0.863
REMARK SMILES C=C(C)[C@]12C[C@@H](C)[C@@]34O[C@](Cc5ccccc5)(O[C@@H]1[C@@H]3C=C(COC(=O)Cc1ccc(O)c(OC)c1)C[C@]1(O)C(=O)C(C)=C[C@@H]41)O2
REMARK SMILES IDX 23 1 22 2 21 3 20 4 9 5 8 6 10 7 6 8 18 9 46 10 19 11 5 12
REMARK SMILES IDX 7 13 4 14 45 15 38 16 44 17 40 18 42 20 41 21 43 22 39 23
REMARK SMILES IDX 11 25 12 26 13 27 17 28 14 29 16 30 15 31 2 32 3 33 1 34
REMARK SMILES IDX 37 35 24 37 25 38 26 39 27 40 28 41 36 42 29 43 33 44 30 45
REMARK SMILES IDX 31 46 34 47 35 48 32 49
REMARK H PARENT 39 24 32 50
REMARK Flexibility Score: 90.00
ROOT
ATOM      1  C   UNL     1      84.607  69.653  71.162  1.00  0.00     0.264 C 
ENDROOT
BRANCH   1   2
ATOM      2  C   UNL     1      86.040  69.632  70.684  1.00  0.00    -0.033 C 
ATOM      3  C   UNL     1      86.301  69.799  69.372  1.00  0.00    -0.015 C 
BRANCH   3   4
ATOM      4  C   UNL     1      87.630  69.743  68.637  1.00  0.00     0.078 C 
ATOM      5  O   UNL     1      88.505  72.055  68.555  1.00  0.00    -0.319 OA
ATOM      6  C   UNL     1      88.777  70.722  69.089  1.00  0.00     0.095 C 
ATOM      7  C   UNL     1      88.046  72.091  67.191  1.00  0.00     0.289 C 
ATOM      8  C   UNL     1      90.137  70.182  68.481  1.00  0.00     0.023 C 
ATOM      9  O   UNL     1      86.861  71.317  67.024  1.00  0.00    -0.320 OA
ATOM     10  O   UNL     1      88.997  71.537  66.285  1.00  0.00    -0.313 OA
ATOM     11  C   UNL     1      87.407  69.993  67.126  1.00  0.00     0.170 C 
ATOM     12  C   UNL     1      89.912  69.497  67.098  1.00  0.00     0.049 C 
ATOM     13  C   UNL     1      91.264  71.220  68.361  1.00  0.00     0.011 C 
ATOM     14  C   UNL     1      88.737  70.120  66.342  1.00  0.00     0.122 C 
BRANCH   6  15
ATOM     15  C   UNL     1      88.764  70.913  70.634  1.00  0.00     0.086 C 
ATOM     16  C   UNL     1      88.534  69.639  71.473  1.00  0.00     0.140 CG0
ATOM     17  C   UNL     1      89.938  71.567  71.305  1.00  0.00    -0.010 C 
ATOM     18  C   UNL     1      89.380  69.901  72.701  1.00  0.00     0.190 C 
ATOM     19  G   UNL     1      87.059  69.429  71.813  1.00  0.00     0.000 G0
ATOM     20  C   UNL     1      90.292  71.040  72.482  1.00  0.00    -0.008 C 
ATOM     21  O   UNL     1      89.363  69.239  73.728  1.00  0.00    -0.291 OA
ATOM     22  C   UNL     1      91.327  71.470  73.444  1.00  0.00     0.048 C 
BRANCH  16  23
ATOM     23  O   UNL     1      89.107  68.470  70.911  1.00  0.00    -0.381 OA
ATOM     24  H   UNL     1      89.723  68.737  70.209  1.00  0.00     0.212 HD
ENDBRANCH  16  23
ENDBRANCH   6  15
BRANCH   7  25
ATOM     25  C   UNL     1      87.773  73.534  66.818  1.00  0.00     0.135 C 
BRANCH  25  26
ATOM     26  C   UNL     1      88.964  74.182  66.157  1.00  0.00    -0.040 A 
ATOM     27  C   UNL     1      90.065  74.564  66.925  1.00  0.00     0.004 A 
ATOM     28  C   UNL     1      88.965  74.399  64.780  1.00  0.00     0.004 A 
ATOM     29  C   UNL     1      91.166  75.164  66.314  1.00  0.00     0.000 A 
ATOM     30  C   UNL     1      90.067  74.999  64.169  1.00  0.00     0.000 A 
ATOM     31  C   UNL     1      91.167  75.381  64.937  1.00  0.00     0.000 A 
ENDBRANCH  25  26
ENDBRANCH   7  25
BRANCH  14  32
ATOM     32  C   UNL     1      88.617  69.606  64.945  1.00  0.00    -0.046 C 
ATOM     33  C   UNL     1      89.546  68.491  64.566  1.00  0.00     0.042 C 
ATOM     34  C   UNL     1      87.729  70.114  64.077  1.00  0.00     0.010 C 
ENDBRANCH  14  32
ENDBRANCH   3   4
BRANCH   2  35
ATOM     35  C   UNL     1      87.038  69.424  71.808  1.00  0.00     0.078 CG0
ATOM     36  G   UNL     1      88.517  69.611  71.472  1.00  0.00     0.000 G0
ENDBRANCH   2  35
ENDBRANCH   1   2
BRANCH   1  37
ATOM     37  O   UNL     1      84.555  69.217  72.503  1.00  0.00    -0.461 OA
BRANCH  37  38
ATOM     38  C   UNL     1      83.960  67.997  72.724  1.00  0.00     0.310 C 
ATOM     39  O   UNL     1      84.527  66.915  72.652  1.00  0.00    -0.252 OA
BRANCH  38  40
ATOM     40  C   UNL     1      82.504  68.201  73.069  1.00  0.00     0.158 C 
BRANCH  40  41
ATOM     41  C   UNL     1      81.801  66.919  73.435  1.00  0.00    -0.033 A 
ATOM     42  C   UNL     1      81.963  66.374  74.709  1.00  0.00     0.054 A 
ATOM     43  C   UNL     1      80.988  66.278  72.500  1.00  0.00     0.008 A 
ATOM     44  C   UNL     1      81.312  65.187  75.047  1.00  0.00     0.160 A 
ATOM     45  C   UNL     1      80.337  65.091  72.839  1.00  0.00     0.050 A 
ATOM     46  C   UNL     1      80.500  64.546  74.112  1.00  0.00     0.157 A 
BRANCH  44  47
ATOM     47  O   UNL     1      81.479  64.664  76.294  1.00  0.00    -0.493 OA
ATOM     48  C   UNL     1      82.818  64.425  76.724  1.00  0.00     0.278 C 
ENDBRANCH  44  47
BRANCH  46  49
ATOM     49  O   UNL     1      79.858  63.387  74.431  1.00  0.00    -0.504 OA
ATOM     50  H   UNL     1      80.520  62.707  74.643  1.00  0.00     0.293 HD
ENDBRANCH  46  49
ENDBRANCH  40  41
ENDBRANCH  38  40
ENDBRANCH  37  38
ENDBRANCH   1  37
TORSDOF 11
ENDMDL
MODEL 3
REMARK VINA RESULT:    -6.345     17.969     21.489
REMARK INTER + INTRA:         -12.030
REMARK INTER:                 -10.200
REMARK INTRA:                  -1.830
REMARK UNBOUND:                -0.863
REMARK SMILES C=C(C)[C@]12C[C@@H](C)[C@@]34O[C@](Cc5ccccc5)(O[C@@H]1[C@@H]3C=C(COC(=O)Cc1ccc(O)c(OC)c1)C[C@]1(O)C(=O)C(C)=C[C@@H]41)O2
REMARK SMILES IDX 23 1 22 2 21 3 20 4 9 5 8 6 10 7 6 8 18 9 46 10 19 11 5 12
REMARK SMILES IDX 7 13 4 14 45 15 38 16 44 17 40 18 42 20 41 21 43 22 39 23
REMARK SMILES IDX 11 25 12 26 13 27 17 28 14 29 16 30 15 31 2 32 3 33 1 34
REMARK SMILES IDX 37 35 24 37 25 38 26 39 27 40 28 41 36 42 29 43 33 44 30 45
REMARK SMILES IDX 31 46 34 47 35 48 32 49
REMARK H PARENT 39 24 32 50
REMARK Flexibility Score: 90.00
ROOT
ATOM      1  C   UNL     1      95.084  78.101  88.054  1.00  0.00     0.264 C 
ENDROOT
BRANCH   1   2
ATOM      2  C   UNL     1      95.752  79.379  87.602  1.00  0.00    -0.033 C 
ATOM      3  C   UNL     1      96.823  79.311  86.786  1.00  0.00    -0.015 C 
BRANCH   3   4
ATOM      4  C   UNL     1      97.707  80.430  86.260  1.00  0.00     0.078 C 
ATOM      5  O   UNL     1      96.757  81.137  84.088  1.00  0.00    -0.319 OA
ATOM      6  C   UNL     1      97.033  81.597  85.447  1.00  0.00     0.095 C 
ATOM      7  C   UNL     1      97.807  80.366  83.473  1.00  0.00     0.289 C 
ATOM      8  C   UNL     1      98.063  82.801  85.393  1.00  0.00     0.023 C 
ATOM      9  O   UNL     1      98.129  79.217  84.253  1.00  0.00    -0.320 OA
ATOM     10  O   UNL     1      99.021  81.103  83.354  1.00  0.00    -0.313 OA
ATOM     11  C   UNL     1      98.814  79.841  85.350  1.00  0.00     0.170 C 
ATOM     12  C   UNL     1      99.536  82.291  85.350  1.00  0.00     0.049 C 
ATOM     13  C   UNL     1      97.838  83.811  84.257  1.00  0.00     0.011 C 
ATOM     14  C   UNL     1      99.647  80.939  84.643  1.00  0.00     0.122 C 
BRANCH   6  15
ATOM     15  C   UNL     1      95.633  81.941  86.033  1.00  0.00     0.086 C 
ATOM     16  C   UNL     1      95.534  81.992  87.572  1.00  0.00     0.140 CG0
ATOM     17  C   UNL     1      94.941  83.201  85.595  1.00  0.00    -0.010 C 
ATOM     18  C   UNL     1      94.515  83.089  87.796  1.00  0.00     0.190 C 
ATOM     19  G   UNL     1      95.095  80.655  88.167  1.00  0.00     0.000 G0
ATOM     20  C   UNL     1      94.280  83.855  86.557  1.00  0.00    -0.008 C 
ATOM     21  O   UNL     1      93.984  83.356  88.864  1.00  0.00    -0.291 OA
ATOM     22  C   UNL     1      93.432  85.062  86.477  1.00  0.00     0.048 C 
BRANCH  16  23
ATOM     23  O   UNL     1      96.704  82.482  88.206  1.00  0.00    -0.381 OA
ATOM     24  H   UNL     1      96.820  83.415  87.959  1.00  0.00     0.212 HD
ENDBRANCH  16  23
ENDBRANCH   6  15
BRANCH   7  25
ATOM     25  C   UNL     1      97.338  79.936  82.098  1.00  0.00     0.135 C 
BRANCH  25  26
ATOM     26  C   UNL     1      97.892  80.823  81.010  1.00  0.00    -0.040 A 
ATOM     27  C   UNL     1      98.984  80.398  80.253  1.00  0.00     0.004 A 
ATOM     28  C   UNL     1      97.311  82.065  80.759  1.00  0.00     0.004 A 
ATOM     29  C   UNL     1      99.497  81.217  79.247  1.00  0.00     0.000 A 
ATOM     30  C   UNL     1      97.823  82.885  79.752  1.00  0.00     0.000 A 
ATOM     31  C   UNL     1      98.916  82.460  78.997  1.00  0.00     0.000 A 
ENDBRANCH  25  26
ENDBRANCH   7  25
BRANCH  14  32
ATOM     32  C   UNL     1     101.064  80.518  84.428  1.00  0.00    -0.046 C 
ATOM     33  C   UNL     1     101.534  80.478  83.005  1.00  0.00     0.042 C 
ATOM     34  C   UNL     1     101.870  80.194  85.450  1.00  0.00     0.010 C 
ENDBRANCH  14  32
ENDBRANCH   3   4
BRANCH   2  35
ATOM     35  C   UNL     1      95.085  80.625  88.153  1.00  0.00     0.078 CG0
ATOM     36  G   UNL     1      95.535  81.969  87.583  1.00  0.00     0.000 G0
ENDBRANCH   2  35
ENDBRANCH   1   2
BRANCH   1  37
ATOM     37  O   UNL     1      95.020  77.200  86.969  1.00  0.00    -0.461 OA
BRANCH  37  38
ATOM     38  C   UNL     1      93.789  77.053  86.373  1.00  0.00     0.310 C 
ATOM     39  O   UNL     1      93.570  76.393  85.367  1.00  0.00    -0.252 OA
BRANCH  38  40
ATOM     40  C   UNL     1      92.755  77.832  87.151  1.00  0.00     0.158 C 
BRANCH  40  41
ATOM     41  C   UNL     1      92.010  78.831  86.304  1.00  0.00    -0.033 A 
ATOM     42  C   UNL     1      90.616  78.801  86.253  1.00  0.00     0.054 A 
ATOM     43  C   UNL     1      92.714  79.786  85.571  1.00  0.00     0.008 A 
ATOM     44  C   UNL     1      89.927  79.726  85.468  1.00  0.00     0.160 A 
ATOM     45  C   UNL     1      92.025  80.711  84.786  1.00  0.00     0.050 A 
ATOM     46  C   UNL     1      90.632  80.681  84.734  1.00  0.00     0.157 A 
BRANCH  44  47
ATOM     47  O   UNL     1      88.566  79.686  85.426  1.00  0.00    -0.493 OA
ATOM     48  C   UNL     1      87.867  80.797  85.986  1.00  0.00     0.278 C 
ENDBRANCH  44  47
BRANCH  46  49
ATOM     49  O   UNL     1      89.970  81.589  83.966  1.00  0.00    -0.504 OA
ATOM     50  H   UNL     1      90.391  81.631  83.091  1.00  0.00     0.293 HD
ENDBRANCH  46  49
ENDBRANCH  40  41
ENDBRANCH  38  40
ENDBRANCH  37  38
ENDBRANCH   1  37
TORSDOF 11
ENDMDL
MODEL 4
REMARK VINA RESULT:    -6.266      3.192      9.915
REMARK INTER + INTRA:         -11.892
REMARK INTER:                 -10.352
REMARK INTRA:                  -1.540
REMARK UNBOUND:                -0.863
REMARK SMILES C=C(C)[C@]12C[C@@H](C)[C@@]34O[C@](Cc5ccccc5)(O[C@@H]1[C@@H]3C=C(COC(=O)Cc1ccc(O)c(OC)c1)C[C@]1(O)C(=O)C(C)=C[C@@H]41)O2
REMARK SMILES IDX 23 1 22 2 21 3 20 4 9 5 8 6 10 7 6 8 18 9 46 10 19 11 5 12
REMARK SMILES IDX 7 13 4 14 45 15 38 16 44 17 40 18 42 20 41 21 43 22 39 23
REMARK SMILES IDX 11 25 12 26 13 27 17 28 14 29 16 30 15 31 2 32 3 33 1 34
REMARK SMILES IDX 37 35 24 37 25 38 26 39 27 40 28 41 36 42 29 43 33 44 30 45
REMARK SMILES IDX 31 46 34 47 35 48 32 49
REMARK H PARENT 39 24 32 50
REMARK Flexibility Score: 90.00
ROOT
ATOM      1  C   UNL     1      85.867  70.072  72.648  1.00  0.00     0.264 C 
ENDROOT
BRANCH   1   2
ATOM      2  C   UNL     1      87.044  69.925  71.712  1.00  0.00    -0.033 C 
ATOM      3  C   UNL     1      86.835  69.952  70.380  1.00  0.00    -0.015 C 
BRANCH   3   4
ATOM      4  C   UNL     1      87.824  69.751  69.244  1.00  0.00     0.078 C 
ATOM      5  O   UNL     1      88.645  71.994  68.600  1.00  0.00    -0.319 OA
ATOM      6  C   UNL     1      89.069  70.711  69.157  1.00  0.00     0.095 C 
ATOM      7  C   UNL     1      87.740  71.912  67.483  1.00  0.00     0.289 C 
ATOM      8  C   UNL     1      90.124  70.041  68.184  1.00  0.00     0.023 C 
ATOM      9  O   UNL     1      86.561  71.188  67.825  1.00  0.00    -0.320 OA
ATOM     10  O   UNL     1      88.309  71.219  66.375  1.00  0.00    -0.313 OA
ATOM     11  C   UNL     1      87.091  69.855  67.884  1.00  0.00     0.170 C 
ATOM     12  C   UNL     1      89.423  69.229  67.052  1.00  0.00     0.049 C 
ATOM     13  C   UNL     1      91.153  71.001  67.563  1.00  0.00     0.011 C 
ATOM     14  C   UNL     1      88.067  69.831  66.681  1.00  0.00     0.122 C 
BRANCH   6  15
ATOM     15  C   UNL     1      89.597  71.061  70.578  1.00  0.00     0.086 C 
ATOM     16  C   UNL     1      89.675  69.891  71.581  1.00  0.00     0.140 CG0
ATOM     17  C   UNL     1      90.932  71.735  70.723  1.00  0.00    -0.010 C 
ATOM     18  C   UNL     1      90.897  70.245  72.401  1.00  0.00     0.190 C 
ATOM     19  G   UNL     1      88.412  69.776  72.433  1.00  0.00     0.000 G0
ATOM     20  C   UNL     1      91.675  71.319  71.754  1.00  0.00    -0.008 C 
ATOM     21  O   UNL     1      91.240  69.694  73.436  1.00  0.00    -0.291 OA
ATOM     22  C   UNL     1      92.982  71.805  72.243  1.00  0.00     0.048 C 
BRANCH  16  23
ATOM     23  O   UNL     1      90.014  68.648  70.988  1.00  0.00    -0.381 OA
ATOM     24  H   UNL     1      89.736  67.936  71.587  1.00  0.00     0.212 HD
ENDBRANCH  16  23
ENDBRANCH   6  15
BRANCH   7  25
ATOM     25  C   UNL     1      87.372  73.321  67.064  1.00  0.00     0.135 C 
BRANCH  25  26
ATOM     26  C   UNL     1      88.525  74.032  66.400  1.00  0.00    -0.040 A 
ATOM     27  C   UNL     1      88.481  74.304  65.032  1.00  0.00     0.004 A 
ATOM     28  C   UNL     1      89.633  74.419  67.152  1.00  0.00     0.004 A 
ATOM     29  C   UNL     1      89.547  74.962  64.417  1.00  0.00     0.000 A 
ATOM     30  C   UNL     1      90.699  75.077  66.537  1.00  0.00     0.000 A 
ATOM     31  C   UNL     1      90.655  75.348  65.169  1.00  0.00     0.000 A 
ENDBRANCH  25  26
ENDBRANCH   7  25
BRANCH  14  32
ATOM     32  C   UNL     1      87.461  69.183  65.479  1.00  0.00    -0.046 C 
ATOM     33  C   UNL     1      87.329  70.043  64.258  1.00  0.00     0.042 C 
ATOM     34  C   UNL     1      87.056  67.903  65.492  1.00  0.00     0.010 C 
ENDBRANCH  14  32
ENDBRANCH   3   4
BRANCH   2  35
ATOM     35  C   UNL     1      88.366  69.768  72.439  1.00  0.00     0.078 CG0
ATOM     36  G   UNL     1      89.641  69.903  71.608  1.00  0.00     0.000 G0
ENDBRANCH   2  35
ENDBRANCH   1   2
BRANCH   1  37
ATOM     37  O   UNL     1      86.050  69.229  73.765  1.00  0.00    -0.461 OA
BRANCH  37  38
ATOM     38  C   UNL     1      85.267  68.099  73.809  1.00  0.00     0.310 C 
ATOM     39  O   UNL     1      85.586  67.044  74.340  1.00  0.00    -0.252 OA
BRANCH  38  40
ATOM     40  C   UNL     1      83.958  68.364  73.104  1.00  0.00     0.158 C 
BRANCH  40  41
ATOM     41  C   UNL     1      83.689  67.397  71.980  1.00  0.00    -0.033 A 
ATOM     42  C   UNL     1      82.393  66.932  71.756  1.00  0.00     0.054 A 
ATOM     43  C   UNL     1      84.735  66.967  71.165  1.00  0.00     0.008 A 
ATOM     44  C   UNL     1      82.144  66.036  70.716  1.00  0.00     0.160 A 
ATOM     45  C   UNL     1      84.486  66.071  70.124  1.00  0.00     0.050 A 
ATOM     46  C   UNL     1      83.191  65.605  69.900  1.00  0.00     0.157 A 
BRANCH  44  47
ATOM     47  O   UNL     1      80.874  65.588  70.507  1.00  0.00    -0.493 OA
ATOM     48  C   UNL     1      79.813  66.511  70.751  1.00  0.00     0.278 C 
ENDBRANCH  44  47
BRANCH  46  49
ATOM     49  O   UNL     1      82.960  64.732  68.881  1.00  0.00    -0.504 OA
ATOM     50  H   UNL     1      83.795  64.297  68.641  1.00  0.00     0.293 HD
ENDBRANCH  46  49
ENDBRANCH  40  41
ENDBRANCH  38  40
ENDBRANCH  37  38
ENDBRANCH   1  37
TORSDOF 11
ENDMDL
MODEL 5
REMARK VINA RESULT:    -6.054     23.532     26.706
REMARK INTER + INTRA:         -11.519
REMARK INTER:                 -10.578
REMARK INTRA:                  -0.940
REMARK UNBOUND:                -0.863
REMARK SMILES C=C(C)[C@]12C[C@@H](C)[C@@]34O[C@](Cc5ccccc5)(O[C@@H]1[C@@H]3C=C(COC(=O)Cc1ccc(O)c(OC)c1)C[C@]1(O)C(=O)C(C)=C[C@@H]41)O2
REMARK SMILES IDX 23 1 22 2 21 3 20 4 9 5 8 6 10 7 6 8 18 9 46 10 19 11 5 12
REMARK SMILES IDX 7 13 4 14 45 15 38 16 44 17 40 18 42 20 41 21 43 22 39 23
REMARK SMILES IDX 11 25 12 26 13 27 17 28 14 29 16 30 15 31 2 32 3 33 1 34
REMARK SMILES IDX 37 35 24 37 25 38 26 39 27 40 28 41 36 42 29 43 33 44 30 45
REMARK SMILES IDX 31 46 34 47 35 48 32 49
REMARK H PARENT 39 24 32 50
REMARK Flexibility Score: 90.00
ROOT
ATOM      1  C   UNL     1      74.390  88.877  68.119  1.00  0.00     0.264 C 
ENDROOT
BRANCH   1   2
ATOM      2  C   UNL     1      73.930  89.928  69.102  1.00  0.00    -0.033 C 
ATOM      3  C   UNL     1      74.793  90.888  69.492  1.00  0.00    -0.015 C 
BRANCH   3   4
ATOM      4  C   UNL     1      74.605  91.998  70.513  1.00  0.00     0.078 C 
ATOM      5  O   UNL     1      73.815  93.989  69.275  1.00  0.00    -0.319 OA
ATOM      6  C   UNL     1      73.427  93.021  70.299  1.00  0.00     0.095 C 
ATOM      7  C   UNL     1      75.165  94.480  69.372  1.00  0.00     0.289 C 
ATOM      8  C   UNL     1      73.192  93.776  71.672  1.00  0.00     0.023 C 
ATOM      9  O   UNL     1      76.108  93.413  69.325  1.00  0.00    -0.320 OA
ATOM     10  O   UNL     1      75.409  95.155  70.603  1.00  0.00    -0.313 OA
ATOM     11  C   UNL     1      75.902  92.837  70.624  1.00  0.00     0.170 C 
ATOM     12  C   UNL     1      74.525  93.958  72.460  1.00  0.00     0.049 C 
ATOM     13  C   UNL     1      72.472  95.130  71.565  1.00  0.00     0.011 C 
ATOM     14  C   UNL     1      75.725  94.088  71.520  1.00  0.00     0.122 C 
BRANCH   6  15
ATOM     15  C   UNL     1      72.178  92.307  69.705  1.00  0.00     0.086 C 
ATOM     16  C   UNL     1      71.824  90.936  70.317  1.00  0.00     0.140 CG0
ATOM     17  C   UNL     1      70.860  93.029  69.679  1.00  0.00    -0.010 C 
ATOM     18  C   UNL     1      70.311  90.929  70.247  1.00  0.00     0.190 C 
ATOM     19  G   UNL     1      72.450  89.778  69.540  1.00  0.00     0.000 G0
ATOM     20  C   UNL     1      69.789  92.277  69.952  1.00  0.00    -0.008 C 
ATOM     21  O   UNL     1      69.597  89.960  70.456  1.00  0.00    -0.291 OA
ATOM     22  C   UNL     1      68.353  92.624  69.937  1.00  0.00     0.048 C 
BRANCH  16  23
ATOM     23  O   UNL     1      72.099  90.838  71.704  1.00  0.00    -0.381 OA
ATOM     24  H   UNL     1      71.669  91.582  72.156  1.00  0.00     0.212 HD
ENDBRANCH  16  23
ENDBRANCH   6  15
BRANCH   7  25
ATOM     25  C   UNL     1      75.409  95.431  68.217  1.00  0.00     0.135 C 
BRANCH  25  26
ATOM     26  C   UNL     1      76.855  95.439  67.788  1.00  0.00    -0.040 A 
ATOM     27  C   UNL     1      77.805  96.115  68.554  1.00  0.00     0.004 A 
ATOM     28  C   UNL     1      77.242  94.771  66.627  1.00  0.00     0.004 A 
ATOM     29  C   UNL     1      79.143  96.123  68.157  1.00  0.00     0.000 A 
ATOM     30  C   UNL     1      78.580  94.779  66.230  1.00  0.00     0.000 A 
ATOM     31  C   UNL     1      79.530  95.456  66.996  1.00  0.00     0.000 A 
ENDBRANCH  25  26
ENDBRANCH   7  25
BRANCH  14  32
ATOM     32  C   UNL     1      76.983  94.444  72.241  1.00  0.00    -0.046 C 
ATOM     33  C   UNL     1      77.209  93.761  73.557  1.00  0.00     0.042 C 
ATOM     34  C   UNL     1      77.863  95.325  71.741  1.00  0.00     0.010 C 
ENDBRANCH  14  32
ENDBRANCH   3   4
BRANCH   2  35
ATOM     35  C   UNL     1      72.485  89.752  69.529  1.00  0.00     0.078 CG0
ATOM     36  G   UNL     1      71.837  90.906  70.293  1.00  0.00     0.000 G0
ENDBRANCH   2  35
ENDBRANCH   1   2
BRANCH   1  37
ATOM     37  O   UNL     1      75.544  89.336  67.449  1.00  0.00    -0.461 OA
BRANCH  37  38
ATOM     38  C   UNL     1      75.712  88.897  66.157  1.00  0.00     0.310 C 
ATOM     39  O   UNL     1      74.838  88.879  65.301  1.00  0.00    -0.252 OA
BRANCH  38  40
ATOM     40  C   UNL     1      77.140  88.444  65.959  1.00  0.00     0.158 C 
BRANCH  40  41
ATOM     41  C   UNL     1      77.273  86.945  65.872  1.00  0.00    -0.033 A 
ATOM     42  C   UNL     1      76.448  86.125  66.643  1.00  0.00     0.054 A 
ATOM     43  C   UNL     1      78.221  86.378  65.020  1.00  0.00     0.008 A 
ATOM     44  C   UNL     1      76.572  84.738  66.561  1.00  0.00     0.160 A 
ATOM     45  C   UNL     1      78.345  84.991  64.939  1.00  0.00     0.050 A 
ATOM     46  C   UNL     1      77.521  84.171  65.709  1.00  0.00     0.157 A 
BRANCH  44  47
ATOM     47  O   UNL     1      75.762  83.948  67.319  1.00  0.00    -0.493 OA
ATOM     48  C   UNL     1      75.510  84.372  68.658  1.00  0.00     0.278 C 
ENDBRANCH  44  47
BRANCH  46  49
ATOM     49  O   UNL     1      77.650  82.818  65.621  1.00  0.00    -0.504 OA
ATOM     50  H   UNL     1      77.072  82.401  66.282  1.00  0.00     0.293 HD
ENDBRANCH  46  49
ENDBRANCH  40  41
ENDBRANCH  38  40
ENDBRANCH  37  38
ENDBRANCH   1  37
TORSDOF 11
ENDMDL
MODEL 6
REMARK VINA RESULT:    -6.034     15.397     20.428
REMARK INTER + INTRA:         -11.482
REMARK INTER:                  -9.768
REMARK INTRA:                  -1.715
REMARK UNBOUND:                -0.863
REMARK SMILES C=C(C)[C@]12C[C@@H](C)[C@@]34O[C@](Cc5ccccc5)(O[C@@H]1[C@@H]3C=C(COC(=O)Cc1ccc(O)c(OC)c1)C[C@]1(O)C(=O)C(C)=C[C@@H]41)O2
REMARK SMILES IDX 23 1 22 2 21 3 20 4 9 5 8 6 10 7 6 8 18 9 46 10 19 11 5 12
REMARK SMILES IDX 7 13 4 14 45 15 38 16 44 17 40 18 42 20 41 21 43 22 39 23
REMARK SMILES IDX 11 25 12 26 13 27 17 28 14 29 16 30 15 31 2 32 3 33 1 34
REMARK SMILES IDX 37 35 24 37 25 38 26 39 27 40 28 41 36 42 29 43 33 44 30 45
REMARK SMILES IDX 31 46 34 47 35 48 32 49
REMARK H PARENT 39 24 32 50
REMARK Flexibility Score: 90.00
ROOT
ATOM      1  C   UNL     1      91.094  80.898  84.501  1.00  0.00     0.264 C 
ENDROOT
BRANCH   1   2
ATOM      2  C   UNL     1      92.441  81.145  85.141  1.00  0.00    -0.033 C 
ATOM      3  C   UNL     1      93.365  80.163  85.131  1.00  0.00    -0.015 C 
BRANCH   3   4
ATOM      4  C   UNL     1      94.747  80.133  85.764  1.00  0.00     0.078 C 
ATOM      5  O   UNL     1      96.347  80.899  84.040  1.00  0.00    -0.319 OA
ATOM      6  C   UNL     1      95.786  81.239  85.346  1.00  0.00     0.095 C 
ATOM      7  C   UNL     1      96.683  79.510  83.856  1.00  0.00     0.289 C 
ATOM      8  C   UNL     1      96.945  81.242  86.427  1.00  0.00     0.023 C 
ATOM      9  O   UNL     1      95.549  78.672  84.062  1.00  0.00    -0.320 OA
ATOM     10  O   UNL     1      97.666  79.064  84.786  1.00  0.00    -0.313 OA
ATOM     11  C   UNL     1      95.422  78.767  85.489  1.00  0.00     0.170 C 
ATOM     12  C   UNL     1      97.200  79.812  86.996  1.00  0.00     0.049 C 
ATOM     13  C   UNL     1      98.277  81.854  85.965  1.00  0.00     0.011 C 
ATOM     14  C   UNL     1      96.897  78.729  85.959  1.00  0.00     0.122 C 
BRANCH   6  15
ATOM     15  C   UNL     1      95.078  82.606  85.121  1.00  0.00     0.086 C 
ATOM     16  C   UNL     1      94.001  82.992  86.156  1.00  0.00     0.140 CG0
ATOM     17  C   UNL     1      95.907  83.853  84.997  1.00  0.00    -0.010 C 
ATOM     18  C   UNL     1      94.149  84.497  86.234  1.00  0.00     0.190 C 
ATOM     19  G   UNL     1      92.601  82.563  85.719  1.00  0.00     0.000 G0
ATOM     20  C   UNL     1      95.399  84.940  85.588  1.00  0.00    -0.008 C 
ATOM     21  O   UNL     1      93.375  85.256  86.797  1.00  0.00    -0.291 OA
ATOM     22  C   UNL     1      95.889  86.333  85.600  1.00  0.00     0.048 C 
BRANCH  16  23
ATOM     23  O   UNL     1      94.289  82.555  87.474  1.00  0.00    -0.381 OA
ATOM     24  H   UNL     1      93.585  81.948  87.757  1.00  0.00     0.212 HD
ENDBRANCH  16  23
ENDBRANCH   6  15
BRANCH   7  25
ATOM     25  C   UNL     1      97.203  79.330  82.444  1.00  0.00     0.135 C 
BRANCH  25  26
ATOM     26  C   UNL     1      97.825  80.594  81.905  1.00  0.00    -0.040 A 
ATOM     27  C   UNL     1      97.063  81.472  81.132  1.00  0.00     0.004 A 
ATOM     28  C   UNL     1      99.160  80.887  82.180  1.00  0.00     0.004 A 
ATOM     29  C   UNL     1      97.638  82.641  80.633  1.00  0.00     0.000 A 
ATOM     30  C   UNL     1      99.735  82.057  81.681  1.00  0.00     0.000 A 
ATOM     31  C   UNL     1      98.973  82.933  80.908  1.00  0.00     0.000 A 
ENDBRANCH  25  26
ENDBRANCH   7  25
BRANCH  14  32
ATOM     32  C   UNL     1      97.306  77.367  86.417  1.00  0.00    -0.046 C 
ATOM     33  C   UNL     1      96.201  76.466  86.883  1.00  0.00     0.042 C 
ATOM     34  C   UNL     1      98.588  76.971  86.411  1.00  0.00     0.010 C 
ENDBRANCH  14  32
ENDBRANCH   3   4
BRANCH   2  35
ATOM     35  C   UNL     1      92.574  82.537  85.728  1.00  0.00     0.078 CG0
ATOM     36  G   UNL     1      93.971  82.986  86.154  1.00  0.00     0.000 G0
ENDBRANCH   2  35
ENDBRANCH   1   2
BRANCH   1  37
ATOM     37  O   UNL     1      90.312  80.092  85.356  1.00  0.00    -0.461 OA
BRANCH  37  38
ATOM     38  C   UNL     1      89.332  79.339  84.754  1.00  0.00     0.310 C 
ATOM     39  O   UNL     1      88.129  79.527  84.872  1.00  0.00    -0.252 OA
BRANCH  38  40
ATOM     40  C   UNL     1      89.971  78.247  83.928  1.00  0.00     0.158 C 
BRANCH  40  41
ATOM     41  C   UNL     1      90.353  77.039  84.744  1.00  0.00    -0.033 A 
ATOM     42  C   UNL     1      89.390  76.082  85.067  1.00  0.00     0.054 A 
ATOM     43  C   UNL     1      91.669  76.878  85.177  1.00  0.00     0.008 A 
ATOM     44  C   UNL     1      89.744  74.964  85.822  1.00  0.00     0.160 A 
ATOM     45  C   UNL     1      92.023  75.760  85.933  1.00  0.00     0.050 A 
ATOM     46  C   UNL     1      91.061  74.804  86.256  1.00  0.00     0.157 A 
BRANCH  44  47
ATOM     47  O   UNL     1      88.795  74.037  86.131  1.00  0.00    -0.493 OA
ATOM     48  C   UNL     1      88.222  73.309  85.046  1.00  0.00     0.278 C 
ENDBRANCH  44  47
BRANCH  46  49
ATOM     49  O   UNL     1      91.418  73.716  86.993  1.00  0.00    -0.504 OA
ATOM     50  H   UNL     1      91.412  72.930  86.422  1.00  0.00     0.293 HD
ENDBRANCH  46  49
ENDBRANCH  40  41
ENDBRANCH  38  40
ENDBRANCH  37  38
ENDBRANCH   1  37
TORSDOF 11
ENDMDL
MODEL 7
REMARK VINA RESULT:    -6.001     17.659     21.241
REMARK INTER + INTRA:         -11.426
REMARK INTER:                 -10.361
REMARK INTRA:                  -1.065
REMARK UNBOUND:                -0.863
REMARK SMILES C=C(C)[C@]12C[C@@H](C)[C@@]34O[C@](Cc5ccccc5)(O[C@@H]1[C@@H]3C=C(COC(=O)Cc1ccc(O)c(OC)c1)C[C@]1(O)C(=O)C(C)=C[C@@H]41)O2
REMARK SMILES IDX 23 1 22 2 21 3 20 4 9 5 8 6 10 7 6 8 18 9 46 10 19 11 5 12
REMARK SMILES IDX 7 13 4 14 45 15 38 16 44 17 40 18 42 20 41 21 43 22 39 23
REMARK SMILES IDX 11 25 12 26 13 27 17 28 14 29 16 30 15 31 2 32 3 33 1 34
REMARK SMILES IDX 37 35 24 37 25 38 26 39 27 40 28 41 36 42 29 43 33 44 30 45
REMARK SMILES IDX 31 46 34 47 35 48 32 49
REMARK H PARENT 39 24 32 50
REMARK Flexibility Score: 90.00
ROOT
ATOM      1  C   UNL     1      97.875  82.892  82.414  1.00  0.00     0.264 C 
ENDROOT
BRANCH   1   2
ATOM      2  C   UNL     1      97.569  82.882  83.894  1.00  0.00    -0.033 C 
ATOM      3  C   UNL     1      96.300  82.683  84.303  1.00  0.00    -0.015 C 
BRANCH   3   4
ATOM      4  C   UNL     1      95.726  82.703  85.710  1.00  0.00     0.078 C 
ATOM      5  O   UNL     1      95.801  80.379  86.553  1.00  0.00    -0.319 OA
ATOM      6  C   UNL     1      96.332  81.721  86.781  1.00  0.00     0.095 C 
ATOM      7  C   UNL     1      94.393  80.315  86.256  1.00  0.00     0.289 C 
ATOM      8  C   UNL     1      95.875  82.229  88.211  1.00  0.00     0.023 C 
ATOM      9  O   UNL     1      94.070  81.098  85.110  1.00  0.00    -0.320 OA
ATOM     10  O   UNL     1      93.593  80.833  87.315  1.00  0.00    -0.313 OA
ATOM     11  C   UNL     1      94.204  82.418  85.661  1.00  0.00     0.170 C 
ATOM     12  C   UNL     1      94.459  82.882  88.160  1.00  0.00     0.049 C 
ATOM     13  C   UNL     1      95.912  81.175  89.329  1.00  0.00     0.011 C 
ATOM     14  C   UNL     1      93.586  82.255  87.072  1.00  0.00     0.122 C 
BRANCH   6  15
ATOM     15  C   UNL     1      97.868  81.571  86.584  1.00  0.00     0.086 C 
ATOM     16  C   UNL     1      98.645  82.868  86.280  1.00  0.00     0.140 CG0
ATOM     17  C   UNL     1      98.687  80.916  87.661  1.00  0.00    -0.010 C 
ATOM     18  C   UNL     1      99.970  82.625  86.973  1.00  0.00     0.190 C 
ATOM     19  G   UNL     1      98.805  83.107  84.780  1.00  0.00     0.000 G0
ATOM     20  C   UNL     1      99.885  81.468  87.884  1.00  0.00    -0.008 C 
ATOM     21  O   UNL     1     100.971  83.312  86.847  1.00  0.00    -0.291 OA
ATOM     22  C   UNL     1     100.972  81.047  88.791  1.00  0.00     0.048 C 
BRANCH  16  23
ATOM     23  O   UNL     1      98.127  84.014  86.935  1.00  0.00    -0.381 OA
ATOM     24  H   UNL     1      97.371  84.345  86.422  1.00  0.00     0.212 HD
ENDBRANCH  16  23
ENDBRANCH   6  15
BRANCH   7  25
ATOM     25  C   UNL     1      94.026  78.866  86.006  1.00  0.00     0.135 C 
BRANCH  25  26
ATOM     26  C   UNL     1      92.558  78.607  86.239  1.00  0.00    -0.040 A 
ATOM     27  C   UNL     1      92.128  78.077  87.456  1.00  0.00     0.004 A 
ATOM     28  C   UNL     1      91.631  78.898  85.239  1.00  0.00     0.004 A 
ATOM     29  C   UNL     1      90.770  77.838  87.672  1.00  0.00     0.000 A 
ATOM     30  C   UNL     1      90.273  78.659  85.455  1.00  0.00     0.000 A 
ATOM     31  C   UNL     1      89.844  78.128  86.671  1.00  0.00     0.000 A 
ENDBRANCH  25  26
ENDBRANCH   7  25
BRANCH  14  32
ATOM     32  C   UNL     1      92.172  82.734  87.124  1.00  0.00    -0.046 C 
ATOM     33  C   UNL     1      91.130  81.694  87.410  1.00  0.00     0.042 C 
ATOM     34  C   UNL     1      91.852  84.022  86.926  1.00  0.00     0.010 C 
ENDBRANCH  14  32
ENDBRANCH   3   4
BRANCH   2  35
ATOM     35  C   UNL     1      98.797  83.101  84.757  1.00  0.00     0.078 CG0
ATOM     36  G   UNL     1      98.642  82.884  86.261  1.00  0.00     0.000 G0
ENDBRANCH   2  35
ENDBRANCH   1   2
BRANCH   1  37
ATOM     37  O   UNL     1      97.435  81.682  81.838  1.00  0.00    -0.461 OA
BRANCH  37  38
ATOM     38  C   UNL     1      97.663  81.532  80.490  1.00  0.00     0.310 C 
ATOM     39  O   UNL     1      97.381  80.537  79.836  1.00  0.00    -0.252 OA
BRANCH  38  40
ATOM     40  C   UNL     1      98.313  82.782  79.945  1.00  0.00     0.158 C 
BRANCH  40  41
ATOM     41  C   UNL     1      98.440  82.773  78.444  1.00  0.00    -0.033 A 
ATOM     42  C   UNL     1      99.660  82.447  77.850  1.00  0.00     0.054 A 
ATOM     43  C   UNL     1      97.340  83.089  77.648  1.00  0.00     0.008 A 
ATOM     44  C   UNL     1      99.778  82.438  76.460  1.00  0.00     0.160 A 
ATOM     45  C   UNL     1      97.458  83.080  76.258  1.00  0.00     0.050 A 
ATOM     46  C   UNL     1      98.677  82.755  75.664  1.00  0.00     0.157 A 
BRANCH  44  47
ATOM     47  O   UNL     1     100.974  82.119  75.891  1.00  0.00    -0.493 OA
ATOM     48  C   UNL     1     101.310  80.734  75.822  1.00  0.00     0.278 C 
ENDBRANCH  44  47
BRANCH  46  49
ATOM     49  O   UNL     1      98.780  82.749  74.306  1.00  0.00    -0.504 OA
ATOM     50  H   UNL     1      98.389  83.567  73.955  1.00  0.00     0.293 HD
ENDBRANCH  46  49
ENDBRANCH  40  41
ENDBRANCH  38  40
ENDBRANCH  37  38
ENDBRANCH   1  37
TORSDOF 11
ENDMDL
MODEL 8
REMARK VINA RESULT:    -5.747      3.242      8.293
REMARK INTER + INTRA:         -10.979
REMARK INTER:                  -9.945
REMARK INTRA:                  -1.034
REMARK UNBOUND:                -0.863
REMARK SMILES C=C(C)[C@]12C[C@@H](C)[C@@]34O[C@](Cc5ccccc5)(O[C@@H]1[C@@H]3C=C(COC(=O)Cc1ccc(O)c(OC)c1)C[C@]1(O)C(=O)C(C)=C[C@@H]41)O2
REMARK SMILES IDX 23 1 22 2 21 3 20 4 9 5 8 6 10 7 6 8 18 9 46 10 19 11 5 12
REMARK SMILES IDX 7 13 4 14 45 15 38 16 44 17 40 18 42 20 41 21 43 22 39 23
REMARK SMILES IDX 11 25 12 26 13 27 17 28 14 29 16 30 15 31 2 32 3 33 1 34
REMARK SMILES IDX 37 35 24 37 25 38 26 39 27 40 28 41 36 42 29 43 33 44 30 45
REMARK SMILES IDX 31 46 34 47 35 48 32 49
REMARK H PARENT 39 24 32 50
REMARK Flexibility Score: 90.00
ROOT
ATOM      1  C   UNL     1      86.558  66.715  78.449  1.00  0.00     0.264 C 
ENDROOT
BRANCH   1   2
ATOM      2  C   UNL     1      86.232  65.966  77.178  1.00  0.00    -0.033 C 
ATOM      3  C   UNL     1      85.089  66.250  76.520  1.00  0.00    -0.015 C 
BRANCH   3   4
ATOM      4  C   UNL     1      84.501  65.596  75.281  1.00  0.00     0.078 C 
ATOM      5  O   UNL     1      85.314  66.885  73.332  1.00  0.00    -0.319 OA
ATOM      6  C   UNL     1      85.367  65.570  73.966  1.00  0.00     0.095 C 
ATOM      7  C   UNL     1      84.014  67.505  73.307  1.00  0.00     0.289 C 
ATOM      8  C   UNL     1      84.729  64.493  72.993  1.00  0.00     0.023 C 
ATOM      9  O   UNL     1      83.483  67.646  74.622  1.00  0.00    -0.320 OA
ATOM     10  O   UNL     1      83.059  66.730  72.587  1.00  0.00    -0.313 OA
ATOM     11  C   UNL     1      83.161  66.278  74.912  1.00  0.00     0.170 C 
ATOM     12  C   UNL     1      83.180  64.423  73.156  1.00  0.00     0.049 C 
ATOM     13  C   UNL     1      85.081  64.658  71.506  1.00  0.00     0.011 C 
ATOM     14  C   UNL     1      82.592  65.775  73.561  1.00  0.00     0.122 C 
BRANCH   6  15
ATOM     15  C   UNL     1      86.872  65.360  74.301  1.00  0.00     0.086 C 
ATOM     16  C   UNL     1      87.188  64.307  75.383  1.00  0.00     0.140 CG0
ATOM     17  C   UNL     1      87.833  65.023  73.195  1.00  0.00    -0.010 C 
ATOM     18  C   UNL     1      88.500  63.726  74.900  1.00  0.00     0.190 C 
ATOM     19  G   UNL     1      87.299  64.926  76.775  1.00  0.00     0.000 G0
ATOM     20  C   UNL     1      88.776  64.129  73.508  1.00  0.00    -0.008 C 
ATOM     21  O   UNL     1      89.223  62.979  75.542  1.00  0.00    -0.291 OA
ATOM     22  C   UNL     1      89.917  63.631  72.712  1.00  0.00     0.048 C 
BRANCH  16  23
ATOM     23  O   UNL     1      86.305  63.197  75.379  1.00  0.00    -0.381 OA
ATOM     24  H   UNL     1      86.515  62.640  74.611  1.00  0.00     0.212 HD
ENDBRANCH  16  23
ENDBRANCH   6  15
BRANCH   7  25
ATOM     25  C   UNL     1      84.151  68.869  72.660  1.00  0.00     0.135 C 
BRANCH  25  26
ATOM     26  C   UNL     1      85.581  69.349  72.650  1.00  0.00    -0.040 A 
ATOM     27  C   UNL     1      86.191  69.746  73.840  1.00  0.00     0.004 A 
ATOM     28  C   UNL     1      86.293  69.396  71.452  1.00  0.00     0.004 A 
ATOM     29  C   UNL     1      87.514  70.190  73.832  1.00  0.00     0.000 A 
ATOM     30  C   UNL     1      87.616  69.840  71.443  1.00  0.00     0.000 A 
ATOM     31  C   UNL     1      88.225  70.237  72.634  1.00  0.00     0.000 A 
ENDBRANCH  25  26
ENDBRANCH   7  25
BRANCH  14  32
ATOM     32  C   UNL     1      81.098  65.779  73.545  1.00  0.00    -0.046 C 
ATOM     33  C   UNL     1      80.429  64.454  73.761  1.00  0.00     0.042 C 
ATOM     34  C   UNL     1      80.394  66.904  73.349  1.00  0.00     0.010 C 
ENDBRANCH  14  32
ENDBRANCH   3   4
BRANCH   2  35
ATOM     35  C   UNL     1      87.294  64.953  76.794  1.00  0.00     0.078 CG0
ATOM     36  G   UNL     1      87.187  64.320  75.408  1.00  0.00     0.000 G0
ENDBRANCH   2  35
ENDBRANCH   1   2
BRANCH   1  37
ATOM     37  O   UNL     1      85.861  67.942  78.460  1.00  0.00    -0.461 OA
BRANCH  37  38
ATOM     38  C   UNL     1      86.622  69.075  78.287  1.00  0.00     0.310 C 
ATOM     39  O   UNL     1      86.381  69.966  77.484  1.00  0.00    -0.252 OA
BRANCH  38  40
ATOM     40  C   UNL     1      87.794  69.046  79.238  1.00  0.00     0.158 C 
BRANCH  40  41
ATOM     41  C   UNL     1      87.381  69.149  80.684  1.00  0.00    -0.033 A 
ATOM     42  C   UNL     1      87.422  68.020  81.503  1.00  0.00     0.054 A 
ATOM     43  C   UNL     1      86.958  70.373  81.203  1.00  0.00     0.008 A 
ATOM     44  C   UNL     1      87.040  68.116  82.841  1.00  0.00     0.160 A 
ATOM     45  C   UNL     1      86.576  70.468  82.541  1.00  0.00     0.050 A 
ATOM     46  C   UNL     1      86.616  69.340  83.360  1.00  0.00     0.157 A 
BRANCH  44  47
ATOM     47  O   UNL     1      87.084  67.007  83.631  1.00  0.00    -0.493 OA
ATOM     48  C   UNL     1      88.357  66.387  83.808  1.00  0.00     0.278 C 
ENDBRANCH  44  47
BRANCH  46  49
ATOM     49  O   UNL     1      86.241  69.445  84.665  1.00  0.00    -0.504 OA
ATOM     50  H   UNL     1      87.037  69.452  85.224  1.00  0.00     0.293 HD
ENDBRANCH  46  49
ENDBRANCH  40  41
ENDBRANCH  38  40
ENDBRANCH  37  38
ENDBRANCH   1  37
TORSDOF 11
ENDMDL
MODEL 9
REMARK VINA RESULT:    -5.643     16.109     19.830
REMARK INTER + INTRA:         -10.794
REMARK INTER:                  -9.564
REMARK INTRA:                  -1.230
REMARK UNBOUND:                -0.863
REMARK SMILES C=C(C)[C@]12C[C@@H](C)[C@@]34O[C@](Cc5ccccc5)(O[C@@H]1[C@@H]3C=C(COC(=O)Cc1ccc(O)c(OC)c1)C[C@]1(O)C(=O)C(C)=C[C@@H]41)O2
REMARK SMILES IDX 23 1 22 2 21 3 20 4 9 5 8 6 10 7 6 8 18 9 46 10 19 11 5 12
REMARK SMILES IDX 7 13 4 14 45 15 38 16 44 17 40 18 42 20 41 21 43 22 39 23
REMARK SMILES IDX 11 25 12 26 13 27 17 28 14 29 16 30 15 31 2 32 3 33 1 34
REMARK SMILES IDX 37 35 24 37 25 38 26 39 27 40 28 41 36 42 29 43 33 44 30 45
REMARK SMILES IDX 31 46 34 47 35 48 32 49
REMARK H PARENT 39 24 32 50
REMARK Flexibility Score: 90.00
ROOT
ATOM      1  C   UNL     1      73.899  69.144  84.370  1.00  0.00     0.264 C 
ENDROOT
BRANCH   1   2
ATOM      2  C   UNL     1      72.561  69.123  85.071  1.00  0.00    -0.033 C 
ATOM      3  C   UNL     1      72.466  69.610  86.325  1.00  0.00    -0.015 C 
BRANCH   3   4
ATOM      4  C   UNL     1      71.269  69.633  87.262  1.00  0.00     0.078 C 
ATOM      5  O   UNL     1      70.122  71.797  86.914  1.00  0.00    -0.319 OA
ATOM      6  C   UNL     1      69.954  70.352  86.781  1.00  0.00     0.095 C 
ATOM      7  C   UNL     1      70.758  72.234  88.130  1.00  0.00     0.289 C 
ATOM      8  C   UNL     1      68.773  69.873  87.723  1.00  0.00     0.023 C 
ATOM      9  O   UNL     1      72.046  71.642  88.282  1.00  0.00    -0.320 OA
ATOM     10  O   UNL     1      70.022  71.859  89.291  1.00  0.00    -0.313 OA
ATOM     11  C   UNL     1      71.666  70.295  88.605  1.00  0.00     0.170 C 
ATOM     12  C   UNL     1      69.275  69.603  89.175  1.00  0.00     0.049 C 
ATOM     13  C   UNL     1      67.549  70.801  87.769  1.00  0.00     0.011 C 
ATOM     14  C   UNL     1      70.452  70.506  89.544  1.00  0.00     0.122 C 
BRANCH   6  15
ATOM     15  C   UNL     1      69.728  70.126  85.258  1.00  0.00     0.086 C 
ATOM     16  C   UNL     1      70.007  68.702  84.733  1.00  0.00     0.140 CG0
ATOM     17  C   UNL     1      68.395  70.466  84.653  1.00  0.00    -0.010 C 
ATOM     18  C   UNL     1      68.972  68.549  83.639  1.00  0.00     0.190 C 
ATOM     19  G   UNL     1      71.435  68.548  84.213  1.00  0.00     0.000 G0
ATOM     20  C   UNL     1      67.955  69.615  83.720  1.00  0.00    -0.008 C 
ATOM     21  O   UNL     1      68.935  67.643  82.820  1.00  0.00    -0.291 OA
ATOM     22  C   UNL     1      66.749  69.676  82.869  1.00  0.00     0.048 C 
BRANCH  16  23
ATOM     23  O   UNL     1      69.679  67.676  85.655  1.00  0.00    -0.381 OA
ATOM     24  H   UNL     1      70.237  67.781  86.443  1.00  0.00     0.212 HD
ENDBRANCH  16  23
ENDBRANCH   6  15
BRANCH   7  25
ATOM     25  C   UNL     1      70.892  73.743  88.081  1.00  0.00     0.135 C 
BRANCH  25  26
ATOM     26  C   UNL     1      69.549  74.427  88.011  1.00  0.00    -0.040 A 
ATOM     27  C   UNL     1      68.977  74.959  89.167  1.00  0.00     0.004 A 
ATOM     28  C   UNL     1      68.880  74.529  86.792  1.00  0.00     0.004 A 
ATOM     29  C   UNL     1      67.735  75.592  89.103  1.00  0.00     0.000 A 
ATOM     30  C   UNL     1      67.639  75.162  86.728  1.00  0.00     0.000 A 
ATOM     31  C   UNL     1      67.067  75.693  87.884  1.00  0.00     0.000 A 
ENDBRANCH  25  26
ENDBRANCH   7  25
BRANCH  14  32
ATOM     32  C   UNL     1      70.831  70.394  90.985  1.00  0.00    -0.046 C 
ATOM     33  C   UNL     1      70.795  69.016  91.575  1.00  0.00     0.042 C 
ATOM     34  C   UNL     1      71.184  71.466  91.711  1.00  0.00     0.010 C 
ENDBRANCH  14  32
ENDBRANCH   3   4
BRANCH   2  35
ATOM     35  C   UNL     1      71.453  68.532  84.220  1.00  0.00     0.078 CG0
ATOM     36  G   UNL     1      70.019  68.710  84.717  1.00  0.00     0.000 G0
ENDBRANCH   2  35
ENDBRANCH   1   2
BRANCH   1  37
ATOM     37  O   UNL     1      74.927  69.262  85.330  1.00  0.00    -0.461 OA
BRANCH  37  38
ATOM     38  C   UNL     1      76.138  69.725  84.871  1.00  0.00     0.310 C 
ATOM     39  O   UNL     1      77.212  69.160  85.028  1.00  0.00    -0.252 OA
BRANCH  38  40
ATOM     40  C   UNL     1      75.935  71.034  84.146  1.00  0.00     0.158 C 
BRANCH  40  41
ATOM     41  C   UNL     1      76.503  72.214  84.892  1.00  0.00    -0.033 A 
ATOM     42  C   UNL     1      77.301  73.144  84.223  1.00  0.00     0.054 A 
ATOM     43  C   UNL     1      76.232  72.377  86.250  1.00  0.00     0.008 A 
ATOM     44  C   UNL     1      77.827  74.236  84.914  1.00  0.00     0.160 A 
ATOM     45  C   UNL     1      76.758  73.469  86.940  1.00  0.00     0.050 A 
ATOM     46  C   UNL     1      77.555  74.398  86.273  1.00  0.00     0.157 A 
BRANCH  44  47
ATOM     47  O   UNL     1      78.604  75.136  84.251  1.00  0.00    -0.493 OA
ATOM     48  C   UNL     1      79.029  74.782  82.935  1.00  0.00     0.278 C 
ENDBRANCH  44  47
BRANCH  46  49
ATOM     49  O   UNL     1      78.062  75.461  86.957  1.00  0.00    -0.504 OA
ATOM     50  H   UNL     1      77.335  75.926  87.404  1.00  0.00     0.293 HD
ENDBRANCH  46  49
ENDBRANCH  40  41
ENDBRANCH  38  40
ENDBRANCH  37  38
ENDBRANCH   1  37
TORSDOF 11
ENDMDL
MODEL 10
REMARK VINA RESULT:    -5.418      2.988      6.767
REMARK INTER + INTRA:         -10.399
REMARK INTER:                  -8.417
REMARK INTRA:                  -1.982
REMARK UNBOUND:                -0.863
REMARK SMILES C=C(C)[C@]12C[C@@H](C)[C@@]34O[C@](Cc5ccccc5)(O[C@@H]1[C@@H]3C=C(COC(=O)Cc1ccc(O)c(OC)c1)C[C@]1(O)C(=O)C(C)=C[C@@H]41)O2
REMARK SMILES IDX 23 1 22 2 21 3 20 4 9 5 8 6 10 7 6 8 18 9 46 10 19 11 5 12
REMARK SMILES IDX 7 13 4 14 45 15 38 16 44 17 40 18 42 20 41 21 43 22 39 23
REMARK SMILES IDX 11 25 12 26 13 27 17 28 14 29 16 30 15 31 2 32 3 33 1 34
REMARK SMILES IDX 37 35 24 37 25 38 26 39 27 40 28 41 36 42 29 43 33 44 30 45
REMARK SMILES IDX 31 46 34 47 35 48 32 49
REMARK H PARENT 39 24 32 50
REMARK Flexibility Score: 90.00
ROOT
ATOM      1  C   UNL     1      85.685  67.062  78.347  1.00  0.00     0.264 C 
ENDROOT
BRANCH   1   2
ATOM      2  C   UNL     1      85.467  66.277  77.074  1.00  0.00    -0.033 C 
ATOM      3  C   UNL     1      84.465  66.631  76.244  1.00  0.00    -0.015 C 
BRANCH   3   4
ATOM      4  C   UNL     1      83.995  65.967  74.961  1.00  0.00     0.078 C 
ATOM      5  O   UNL     1      85.206  67.058  73.100  1.00  0.00    -0.319 OA
ATOM      6  C   UNL     1      85.032  65.782  73.790  1.00  0.00     0.095 C 
ATOM      7  C   UNL     1      83.995  67.798  72.857  1.00  0.00     0.289 C 
ATOM      8  C   UNL     1      84.431  64.718  72.781  1.00  0.00     0.023 C 
ATOM      9  O   UNL     1      83.299  68.065  74.072  1.00  0.00    -0.320 OA
ATOM     10  O   UNL     1      83.077  67.079  72.038  1.00  0.00    -0.313 OA
ATOM     11  C   UNL     1      82.799  66.752  74.369  1.00  0.00     0.170 C 
ATOM     12  C   UNL     1      82.876  64.807  72.716  1.00  0.00     0.049 C 
ATOM     13  C   UNL     1      85.006  64.763  71.356  1.00  0.00     0.011 C 
ATOM     14  C   UNL     1      82.379  66.230  72.972  1.00  0.00     0.122 C 
BRANCH   6  15
ATOM     15  C   UNL     1      86.444  65.448  74.352  1.00  0.00     0.086 C 
ATOM     16  C   UNL     1      86.490  64.446  75.525  1.00  0.00     0.140 CG0
ATOM     17  C   UNL     1      87.507  64.942  73.418  1.00  0.00    -0.010 C 
ATOM     18  C   UNL     1      87.786  63.706  75.270  1.00  0.00     0.190 C 
ATOM     19  G   UNL     1      86.472  65.146  76.883  1.00  0.00     0.000 G0
ATOM     20  C   UNL     1      88.296  63.983  73.914  1.00  0.00    -0.008 C 
ATOM     21  O   UNL     1      88.328  62.938  76.051  1.00  0.00    -0.291 OA
ATOM     22  C   UNL     1      89.476  63.320  73.321  1.00  0.00     0.048 C 
BRANCH  16  23
ATOM     23  O   UNL     1      85.502  63.432  75.452  1.00  0.00    -0.381 OA
ATOM     24  H   UNL     1      85.485  63.084  74.545  1.00  0.00     0.212 HD
ENDBRANCH  16  23
ENDBRANCH   6  15
BRANCH   7  25
ATOM     25  C   UNL     1      84.363  69.103  72.180  1.00  0.00     0.135 C 
BRANCH  25  26
ATOM     26  C   UNL     1      85.778  69.521  72.490  1.00  0.00    -0.040 A 
ATOM     27  C   UNL     1      86.098  70.018  73.754  1.00  0.00     0.004 A 
ATOM     28  C   UNL     1      86.768  69.410  71.514  1.00  0.00     0.004 A 
ATOM     29  C   UNL     1      87.407  70.405  74.041  1.00  0.00     0.000 A 
ATOM     30  C   UNL     1      88.078  69.797  71.801  1.00  0.00     0.000 A 
ATOM     31  C   UNL     1      88.396  70.294  73.065  1.00  0.00     0.000 A 
ENDBRANCH  25  26
ENDBRANCH   7  25
BRANCH  14  32
ATOM     32  C   UNL     1      80.911  66.378  72.736  1.00  0.00    -0.046 C 
ATOM     33  C   UNL     1      80.026  66.190  73.932  1.00  0.00     0.042 C 
ATOM     34  C   UNL     1      80.413  66.662  71.523  1.00  0.00     0.010 C 
ENDBRANCH  14  32
ENDBRANCH   3   4
BRANCH   2  35
ATOM     35  C   UNL     1      86.463  65.147  76.895  1.00  0.00     0.078 CG0
ATOM     36  G   UNL     1      86.488  64.447  75.537  1.00  0.00     0.000 G0
ENDBRANCH   2  35
ENDBRANCH   1   2
BRANCH   1  37
ATOM     37  O   UNL     1      86.972  67.642  78.323  1.00  0.00    -0.461 OA
BRANCH  37  38
ATOM     38  C   UNL     1      87.708  67.535  79.480  1.00  0.00     0.310 C 
ATOM     39  O   UNL     1      87.676  66.583  80.248  1.00  0.00    -0.252 OA
BRANCH  38  40
ATOM     40  C   UNL     1      88.558  68.771  79.654  1.00  0.00     0.158 C 
BRANCH  40  41
ATOM     41  C   UNL     1      89.437  69.052  78.462  1.00  0.00    -0.033 A 
ATOM     42  C   UNL     1      90.452  68.158  78.118  1.00  0.00     0.054 A 
ATOM     43  C   UNL     1      89.236  70.205  77.703  1.00  0.00     0.008 A 
ATOM     44  C   UNL     1      91.265  68.418  77.015  1.00  0.00     0.160 A 
ATOM     45  C   UNL     1      90.049  70.464  76.600  1.00  0.00     0.050 A 
ATOM     46  C   UNL     1      91.064  69.572  76.256  1.00  0.00     0.157 A 
BRANCH  44  47
ATOM     47  O   UNL     1      92.253  67.538  76.689  1.00  0.00    -0.493 OA
ATOM     48  C   UNL     1      91.873  66.175  76.507  1.00  0.00     0.278 C 
ENDBRANCH  44  47
BRANCH  46  49
ATOM     49  O   UNL     1      91.851  69.835  75.176  1.00  0.00    -0.504 OA
ATOM     50  H   UNL     1      92.771  69.938  75.473  1.00  0.00     0.293 HD
ENDBRANCH  46  49
ENDBRANCH  40  41
ENDBRANCH  38  40
ENDBRANCH  37  38
ENDBRANCH   1  37
TORSDOF 11
ENDMDL
