MODEL 1
REMARK VINA RESULT:    -6.308      0.000      0.000
REMARK INTER + INTRA:         -10.980
REMARK INTER:                 -10.180
REMARK INTRA:                  -0.800
REMARK UNBOUND:                -0.800
REMARK SMILES COc1cc(CNC(=O)CCCCC/C=C/C(C)C)ccc1O
REMARK SMILES IDX 11 1 10 2 8 3 7 4 9 6 6 7 5 8 3 9 22 10 4 11 21 12 20 13
REMARK SMILES IDX 2 14 1 15 23 16 12 18 13 19 14 20 15 21 16 22 17 23 18 24
REMARK SMILES IDX 19 25
REMARK H PARENT 7 5 23 17
REMARK Flexibility Score: inf
ROOT
ATOM      1  C   UNL     1      95.080  94.617  79.051  1.00  0.00     0.010 C 
ENDROOT
BRANCH   1   2
ATOM      2  C   UNL     1      96.116  94.304  77.941  1.00  0.00     0.100 C 
BRANCH   2   3
ATOM      3  C   UNL     1      95.517  93.874  76.664  1.00  0.00     0.220 C 
ATOM      4  N   UNL     1      94.162  93.824  76.534  1.00  0.00    -0.352 N 
ATOM      5  H   UNL     1      93.650  94.025  77.382  1.00  0.00     0.163 HD
ATOM      6  O   UNL     1      96.281  93.603  75.708  1.00  0.00    -0.275 OA
BRANCH   4   7
ATOM      7  C   UNL     1      93.454  93.521  75.333  1.00  0.00     0.151 C 
BRANCH   7   8
ATOM      8  C   UNL     1      92.167  92.824  75.587  1.00  0.00    -0.025 A 
ATOM      9  C   UNL     1      90.203  91.595  74.761  1.00  0.00     0.160 A 
ATOM     10  C   UNL     1      89.685  91.542  76.074  1.00  0.00     0.157 A 
ATOM     11  C   UNL     1      91.434  92.242  74.527  1.00  0.00     0.056 A 
ATOM     12  C   UNL     1      90.414  92.103  77.139  1.00  0.00     0.050 A 
ATOM     13  C   UNL     1      91.651  92.729  76.899  1.00  0.00     0.009 A 
BRANCH   9  14
ATOM     14  O   UNL     1      89.545  90.977  73.731  1.00  0.00    -0.493 OA
ATOM     15  C   UNL     1      89.975  89.628  73.485  1.00  0.00     0.278 C 
ENDBRANCH   9  14
BRANCH  10  16
ATOM     16  O   UNL     1      88.492  90.954  76.337  1.00  0.00    -0.504 OA
ATOM     17  H   UNL     1      88.004  90.840  75.518  1.00  0.00     0.293 HD
ENDBRANCH  10  16
ENDBRANCH   7   8
ENDBRANCH   4   7
ENDBRANCH   2   3
ENDBRANCH   1   2
BRANCH   1  18
ATOM     18  C   UNL     1      95.548  94.069  80.423  1.00  0.00     0.001 C 
BRANCH  18  19
ATOM     19  C   UNL     1      95.520  95.124  81.558  1.00  0.00     0.004 C 
BRANCH  19  20
ATOM     20  C   UNL     1      96.186  96.456  81.110  1.00  0.00     0.027 C 
BRANCH  20  21
ATOM     21  C   UNL     1      96.307  97.436  82.176  1.00  0.00    -0.031 C 
ATOM     22  C   UNL     1      96.222  97.099  83.475  1.00  0.00    -0.028 C 
BRANCH  22  23
ATOM     23  C   UNL     1      96.344  98.059  84.570  1.00  0.00     0.005 C 
ATOM     24  C   UNL     1      97.141  97.434  85.746  1.00  0.00     0.012 C 
ATOM     25  C   UNL     1      96.985  99.377  84.058  1.00  0.00     0.012 C 
ENDBRANCH  22  23
ENDBRANCH  20  21
ENDBRANCH  19  20
ENDBRANCH  18  19
ENDBRANCH   1  18
TORSDOF 11
ENDMDL
MODEL 2
REMARK VINA RESULT:    -5.960     11.607     14.580
REMARK INTER + INTRA:         -10.418
REMARK INTER:                  -9.686
REMARK INTRA:                  -0.732
REMARK UNBOUND:                -0.800
REMARK SMILES COc1cc(CNC(=O)CCCCC/C=C/C(C)C)ccc1O
REMARK SMILES IDX 11 1 10 2 8 3 7 4 9 6 6 7 5 8 3 9 22 10 4 11 21 12 20 13
REMARK SMILES IDX 2 14 1 15 23 16 12 18 13 19 14 20 15 21 16 22 17 23 18 24
REMARK SMILES IDX 19 25
REMARK H PARENT 7 5 23 17
REMARK Flexibility Score: inf
ROOT
ATOM      1  C   UNL     1      97.614  81.288  82.811  1.00  0.00     0.010 C 
ENDROOT
BRANCH   1   2
ATOM      2  C   UNL     1      96.347  81.980  83.376  1.00  0.00     0.100 C 
BRANCH   2   3
ATOM      3  C   UNL     1      96.571  83.364  83.831  1.00  0.00     0.220 C 
ATOM      4  N   UNL     1      95.508  84.163  84.122  1.00  0.00    -0.352 N 
ATOM      5  H   UNL     1      94.606  83.752  83.927  1.00  0.00     0.163 HD
ATOM      6  O   UNL     1      97.752  83.759  83.977  1.00  0.00    -0.275 OA
BRANCH   4   7
ATOM      7  C   UNL     1      95.584  85.482  84.661  1.00  0.00     0.151 C 
BRANCH   7   8
ATOM      8  C   UNL     1      94.771  85.645  85.894  1.00  0.00    -0.025 A 
ATOM      9  C   UNL     1      94.355  86.758  88.047  1.00  0.00     0.160 A 
ATOM     10  C   UNL     1      93.247  85.912  88.269  1.00  0.00     0.157 A 
ATOM     11  C   UNL     1      95.112  86.613  86.867  1.00  0.00     0.056 A 
ATOM     12  C   UNL     1      92.888  84.957  87.301  1.00  0.00     0.050 A 
ATOM     13  C   UNL     1      93.638  84.831  86.116  1.00  0.00     0.009 A 
BRANCH   9  14
ATOM     14  O   UNL     1      94.660  87.749  88.942  1.00  0.00    -0.493 OA
ATOM     15  C   UNL     1      95.098  88.976  88.334  1.00  0.00     0.278 C 
ENDBRANCH   9  14
BRANCH  10  16
ATOM     16  O   UNL     1      92.509  86.001  89.404  1.00  0.00    -0.504 OA
ATOM     17  H   UNL     1      93.095  86.062  90.162  1.00  0.00     0.293 HD
ENDBRANCH  10  16
ENDBRANCH   7   8
ENDBRANCH   4   7
ENDBRANCH   2   3
ENDBRANCH   1   2
BRANCH   1  18
ATOM     18  C   UNL     1      97.485  81.044  81.286  1.00  0.00     0.001 C 
BRANCH  18  19
ATOM     19  C   UNL     1      97.624  82.332  80.435  1.00  0.00     0.004 C 
BRANCH  19  20
ATOM     20  C   UNL     1      96.440  82.484  79.439  1.00  0.00     0.027 C 
BRANCH  20  21
ATOM     21  C   UNL     1      96.851  82.859  78.097  1.00  0.00    -0.031 C 
ATOM     22  C   UNL     1      96.810  81.997  77.065  1.00  0.00    -0.028 C 
BRANCH  22  23
ATOM     23  C   UNL     1      97.210  82.345  75.704  1.00  0.00     0.005 C 
ATOM     24  C   UNL     1      97.699  83.816  75.646  1.00  0.00     0.012 C 
ATOM     25  C   UNL     1      98.281  81.346  75.188  1.00  0.00     0.012 C 
ENDBRANCH  22  23
ENDBRANCH  20  21
ENDBRANCH  19  20
ENDBRANCH  18  19
ENDBRANCH   1  18
TORSDOF 11
ENDMDL
MODEL 3
REMARK VINA RESULT:    -5.945     26.634     29.887
REMARK INTER + INTRA:         -10.395
REMARK INTER:                  -8.730
REMARK INTRA:                  -1.665
REMARK UNBOUND:                -0.800
REMARK SMILES COc1cc(CNC(=O)CCCCC/C=C/C(C)C)ccc1O
REMARK SMILES IDX 11 1 10 2 8 3 7 4 9 6 6 7 5 8 3 9 22 10 4 11 21 12 20 13
REMARK SMILES IDX 2 14 1 15 23 16 12 18 13 19 14 20 15 21 16 22 17 23 18 24
REMARK SMILES IDX 19 25
REMARK H PARENT 7 5 23 17
REMARK Flexibility Score: inf
ROOT
ATOM      1  C   UNL     1      80.189  65.112  74.054  1.00  0.00     0.010 C 
ENDROOT
BRANCH   1   2
ATOM      2  C   UNL     1      80.876  66.191  74.929  1.00  0.00     0.100 C 
BRANCH   2   3
ATOM      3  C   UNL     1      82.119  65.735  75.579  1.00  0.00     0.220 C 
ATOM      4  N   UNL     1      83.324  66.020  75.012  1.00  0.00    -0.352 N 
ATOM      5  H   UNL     1      83.269  66.480  74.113  1.00  0.00     0.163 HD
ATOM      6  O   UNL     1      82.032  65.125  76.670  1.00  0.00    -0.275 OA
BRANCH   4   7
ATOM      7  C   UNL     1      84.599  65.725  75.580  1.00  0.00     0.151 C 
BRANCH   7   8
ATOM      8  C   UNL     1      85.134  66.845  76.397  1.00  0.00    -0.025 A 
ATOM      9  C   UNL     1      86.273  67.660  78.419  1.00  0.00     0.160 A 
ATOM     10  C   UNL     1      86.105  68.990  77.976  1.00  0.00     0.157 A 
ATOM     11  C   UNL     1      85.779  66.600  77.632  1.00  0.00     0.056 A 
ATOM     12  C   UNL     1      85.480  69.245  76.741  1.00  0.00     0.050 A 
ATOM     13  C   UNL     1      85.007  68.180  75.952  1.00  0.00     0.009 A 
BRANCH   9  14
ATOM     14  O   UNL     1      86.957  67.397  79.576  1.00  0.00    -0.493 OA
ATOM     15  C   UNL     1      87.544  66.086  79.625  1.00  0.00     0.278 C 
ENDBRANCH   9  14
BRANCH  10  16
ATOM     16  O   UNL     1      86.540  70.040  78.717  1.00  0.00    -0.504 OA
ATOM     17  H   UNL     1      86.395  70.856  78.230  1.00  0.00     0.293 HD
ENDBRANCH  10  16
ENDBRANCH   7   8
ENDBRANCH   4   7
ENDBRANCH   2   3
ENDBRANCH   1   2
BRANCH   1  18
ATOM     18  C   UNL     1      80.287  65.467  72.548  1.00  0.00     0.001 C 
BRANCH  18  19
ATOM     19  C   UNL     1      80.188  66.986  72.259  1.00  0.00     0.004 C 
BRANCH  19  20
ATOM     20  C   UNL     1      80.877  67.353  70.915  1.00  0.00     0.027 C 
BRANCH  20  21
ATOM     21  C   UNL     1      82.215  67.898  71.074  1.00  0.00    -0.031 C 
ATOM     22  C   UNL     1      82.677  68.334  72.259  1.00  0.00    -0.028 C 
BRANCH  22  23
ATOM     23  C   UNL     1      84.017  68.882  72.453  1.00  0.00     0.005 C 
ATOM     24  C   UNL     1      85.086  67.778  72.237  1.00  0.00     0.012 C 
ATOM     25  C   UNL     1      84.236  70.106  71.523  1.00  0.00     0.012 C 
ENDBRANCH  22  23
ENDBRANCH  20  21
ENDBRANCH  19  20
ENDBRANCH  18  19
ENDBRANCH   1  18
TORSDOF 11
ENDMDL
MODEL 4
REMARK VINA RESULT:    -5.897     27.924     31.004
REMARK INTER + INTRA:         -10.316
REMARK INTER:                  -9.109
REMARK INTRA:                  -1.207
REMARK UNBOUND:                -0.800
REMARK SMILES COc1cc(CNC(=O)CCCCC/C=C/C(C)C)ccc1O
REMARK SMILES IDX 11 1 10 2 8 3 7 4 9 6 6 7 5 8 3 9 22 10 4 11 21 12 20 13
REMARK SMILES IDX 2 14 1 15 23 16 12 18 13 19 14 20 15 21 16 22 17 23 18 24
REMARK SMILES IDX 19 25
REMARK H PARENT 7 5 23 17
REMARK Flexibility Score: inf
ROOT
ATOM      1  C   UNL     1      81.286  65.413  74.936  1.00  0.00     0.010 C 
ENDROOT
BRANCH   1   2
ATOM      2  C   UNL     1      81.663  66.446  76.030  1.00  0.00     0.100 C 
BRANCH   2   3
ATOM      3  C   UNL     1      83.069  66.371  76.466  1.00  0.00     0.220 C 
ATOM      4  N   UNL     1      83.719  65.174  76.460  1.00  0.00    -0.352 N 
ATOM      5  H   UNL     1      83.141  64.382  76.214  1.00  0.00     0.163 HD
ATOM      6  O   UNL     1      83.647  67.434  76.797  1.00  0.00    -0.275 OA
BRANCH   4   7
ATOM      7  C   UNL     1      85.099  64.978  76.763  1.00  0.00     0.151 C 
BRANCH   7   8
ATOM      8  C   UNL     1      85.344  64.788  78.216  1.00  0.00    -0.025 A 
ATOM      9  C   UNL     1      86.297  65.577  80.342  1.00  0.00     0.160 A 
ATOM     10  C   UNL     1      85.856  64.395  80.977  1.00  0.00     0.157 A 
ATOM     11  C   UNL     1      86.046  65.760  78.967  1.00  0.00     0.056 A 
ATOM     12  C   UNL     1      85.142  63.429  80.244  1.00  0.00     0.050 A 
ATOM     13  C   UNL     1      84.879  63.629  78.876  1.00  0.00     0.009 A 
BRANCH   9  14
ATOM     14  O   UNL     1      86.915  66.562  81.066  1.00  0.00    -0.493 OA
ATOM     15  C   UNL     1      88.255  66.854  80.635  1.00  0.00     0.278 C 
ENDBRANCH   9  14
BRANCH  10  16
ATOM     16  O   UNL     1      86.101  64.167  82.292  1.00  0.00    -0.504 OA
ATOM     17  H   UNL     1      87.045  64.049  82.424  1.00  0.00     0.293 HD
ENDBRANCH  10  16
ENDBRANCH   7   8
ENDBRANCH   4   7
ENDBRANCH   2   3
ENDBRANCH   1   2
BRANCH   1  18
ATOM     18  C   UNL     1      80.155  65.953  74.023  1.00  0.00     0.001 C 
BRANCH  18  19
ATOM     19  C   UNL     1      80.155  65.337  72.601  1.00  0.00     0.004 C 
BRANCH  19  20
ATOM     20  C   UNL     1      80.180  66.439  71.506  1.00  0.00     0.027 C 
BRANCH  20  21
ATOM     21  C   UNL     1      81.224  67.431  71.698  1.00  0.00    -0.031 C 
ATOM     22  C   UNL     1      82.530  67.129  71.600  1.00  0.00    -0.028 C 
BRANCH  22  23
ATOM     23  C   UNL     1      83.603  68.103  71.783  1.00  0.00     0.005 C 
ATOM     24  C   UNL     1      83.183  69.480  71.201  1.00  0.00     0.012 C 
ATOM     25  C   UNL     1      83.998  68.192  73.282  1.00  0.00     0.012 C 
ENDBRANCH  22  23
ENDBRANCH  20  21
ENDBRANCH  19  20
ENDBRANCH  18  19
ENDBRANCH   1  18
TORSDOF 11
ENDMDL
MODEL 5
REMARK VINA RESULT:    -5.877      2.384      3.986
REMARK INTER + INTRA:         -10.284
REMARK INTER:                  -9.043
REMARK INTRA:                  -1.240
REMARK UNBOUND:                -0.800
REMARK SMILES COc1cc(CNC(=O)CCCCC/C=C/C(C)C)ccc1O
REMARK SMILES IDX 11 1 10 2 8 3 7 4 9 6 6 7 5 8 3 9 22 10 4 11 21 12 20 13
REMARK SMILES IDX 2 14 1 15 23 16 12 18 13 19 14 20 15 21 16 22 17 23 18 24
REMARK SMILES IDX 19 25
REMARK H PARENT 7 5 23 17
REMARK Flexibility Score: inf
ROOT
ATOM      1  C   UNL     1      94.452  93.979  78.545  1.00  0.00     0.010 C 
ENDROOT
BRANCH   1   2
ATOM      2  C   UNL     1      94.807  94.788  77.270  1.00  0.00     0.100 C 
BRANCH   2   3
ATOM      3  C   UNL     1      94.253  94.223  76.026  1.00  0.00     0.220 C 
ATOM      4  N   UNL     1      92.913  94.291  75.789  1.00  0.00    -0.352 N 
ATOM      5  H   UNL     1      92.370  94.676  76.548  1.00  0.00     0.163 HD
ATOM      6  O   UNL     1      95.046  93.724  75.193  1.00  0.00    -0.275 OA
BRANCH   4   7
ATOM      7  C   UNL     1      92.261  93.873  74.590  1.00  0.00     0.151 C 
BRANCH   7   8
ATOM      8  C   UNL     1      91.707  92.498  74.691  1.00  0.00    -0.025 A 
ATOM      9  C   UNL     1      90.802  90.653  76.042  1.00  0.00     0.160 A 
ATOM     10  C   UNL     1      90.701  89.854  74.882  1.00  0.00     0.157 A 
ATOM     11  C   UNL     1      91.312  91.963  75.939  1.00  0.00     0.056 A 
ATOM     12  C   UNL     1      91.075  90.381  73.632  1.00  0.00     0.050 A 
ATOM     13  C   UNL     1      91.564  91.697  73.535  1.00  0.00     0.009 A 
BRANCH   9  14
ATOM     14  O   UNL     1      90.359  90.180  77.249  1.00  0.00    -0.493 OA
ATOM     15  C   UNL     1      90.372  91.157  78.303  1.00  0.00     0.278 C 
ENDBRANCH   9  14
BRANCH  10  16
ATOM     16  O   UNL     1      90.242  88.579  74.942  1.00  0.00    -0.504 OA
ATOM     17  H   UNL     1      89.711  88.393  74.163  1.00  0.00     0.293 HD
ENDBRANCH  10  16
ENDBRANCH   7   8
ENDBRANCH   4   7
ENDBRANCH   2   3
ENDBRANCH   1   2
BRANCH   1  18
ATOM     18  C   UNL     1      95.538  94.153  79.638  1.00  0.00     0.001 C 
BRANCH  18  19
ATOM     19  C   UNL     1      95.544  95.557  80.292  1.00  0.00     0.004 C 
BRANCH  19  20
ATOM     20  C   UNL     1      96.986  96.125  80.402  1.00  0.00     0.027 C 
BRANCH  20  21
ATOM     21  C   UNL     1      97.668  96.240  79.124  1.00  0.00    -0.031 C 
ATOM     22  C   UNL     1      97.389  97.221  78.247  1.00  0.00    -0.028 C 
BRANCH  22  23
ATOM     23  C   UNL     1      98.060  97.367  76.957  1.00  0.00     0.005 C 
ATOM     24  C   UNL     1      99.230  96.354  76.841  1.00  0.00     0.012 C 
ATOM     25  C   UNL     1      97.035  97.220  75.800  1.00  0.00     0.012 C 
ENDBRANCH  22  23
ENDBRANCH  20  21
ENDBRANCH  19  20
ENDBRANCH  18  19
ENDBRANCH   1  18
TORSDOF 11
ENDMDL
MODEL 6
REMARK VINA RESULT:    -5.852      2.781      4.205
REMARK INTER + INTRA:         -10.244
REMARK INTER:                  -9.216
REMARK INTRA:                  -1.027
REMARK UNBOUND:                -0.800
REMARK SMILES COc1cc(CNC(=O)CCCCC/C=C/C(C)C)ccc1O
REMARK SMILES IDX 11 1 10 2 8 3 7 4 9 6 6 7 5 8 3 9 22 10 4 11 21 12 20 13
REMARK SMILES IDX 2 14 1 15 23 16 12 18 13 19 14 20 15 21 16 22 17 23 18 24
REMARK SMILES IDX 19 25
REMARK H PARENT 7 5 23 17
REMARK Flexibility Score: inf
ROOT
ATOM      1  C   UNL     1      94.116  93.699  78.192  1.00  0.00     0.010 C 
ENDROOT
BRANCH   1   2
ATOM      2  C   UNL     1      93.828  94.736  77.076  1.00  0.00     0.100 C 
BRANCH   2   3
ATOM      3  C   UNL     1      93.517  94.136  75.765  1.00  0.00     0.220 C 
ATOM      4  N   UNL     1      92.220  93.987  75.378  1.00  0.00    -0.352 N 
ATOM      5  H   UNL     1      91.539  94.244  76.078  1.00  0.00     0.163 HD
ATOM      6  O   UNL     1      94.470  93.812  75.017  1.00  0.00    -0.275 OA
BRANCH   4   7
ATOM      7  C   UNL     1      91.784  93.514  74.104  1.00  0.00     0.151 C 
BRANCH   7   8
ATOM      8  C   UNL     1      91.123  92.185  74.183  1.00  0.00    -0.025 A 
ATOM      9  C   UNL     1      89.088  90.805  74.126  1.00  0.00     0.160 A 
ATOM     10  C   UNL     1      89.863  89.654  74.389  1.00  0.00     0.157 A 
ATOM     11  C   UNL     1      89.722  92.061  74.034  1.00  0.00     0.056 A 
ATOM     12  C   UNL     1      91.259  89.763  74.522  1.00  0.00     0.050 A 
ATOM     13  C   UNL     1      91.886  91.018  74.410  1.00  0.00     0.009 A 
BRANCH   9  14
ATOM     14  O   UNL     1      87.740  90.697  73.908  1.00  0.00    -0.493 OA
ATOM     15  C   UNL     1      87.368  90.700  72.520  1.00  0.00     0.278 C 
ENDBRANCH   9  14
BRANCH  10  16
ATOM     16  O   UNL     1      89.289  88.431  74.513  1.00  0.00    -0.504 OA
ATOM     17  H   UNL     1      89.863  87.768  74.122  1.00  0.00     0.293 HD
ENDBRANCH  10  16
ENDBRANCH   7   8
ENDBRANCH   4   7
ENDBRANCH   2   3
ENDBRANCH   1   2
BRANCH   1  18
ATOM     18  C   UNL     1      95.443  94.020  78.926  1.00  0.00     0.001 C 
BRANCH  18  19
ATOM     19  C   UNL     1      95.357  95.259  79.853  1.00  0.00     0.004 C 
BRANCH  19  20
ATOM     20  C   UNL     1      96.564  96.214  79.635  1.00  0.00     0.027 C 
BRANCH  20  21
ATOM     21  C   UNL     1      96.857  96.476  78.236  1.00  0.00    -0.031 C 
ATOM     22  C   UNL     1      97.956  95.992  77.630  1.00  0.00    -0.028 C 
BRANCH  22  23
ATOM     23  C   UNL     1      98.276  96.231  76.225  1.00  0.00     0.005 C 
ATOM     24  C   UNL     1      97.038  96.798  75.480  1.00  0.00     0.012 C 
ATOM     25  C   UNL     1      99.512  97.164  76.108  1.00  0.00     0.012 C 
ENDBRANCH  22  23
ENDBRANCH  20  21
ENDBRANCH  19  20
ENDBRANCH  18  19
ENDBRANCH   1  18
TORSDOF 11
ENDMDL
MODEL 7
REMARK VINA RESULT:    -5.792     13.468     15.652
REMARK INTER + INTRA:         -10.147
REMARK INTER:                  -7.881
REMARK INTRA:                  -2.266
REMARK UNBOUND:                -0.800
REMARK SMILES COc1cc(CNC(=O)CCCCC/C=C/C(C)C)ccc1O
REMARK SMILES IDX 11 1 10 2 8 3 7 4 9 6 6 7 5 8 3 9 22 10 4 11 21 12 20 13
REMARK SMILES IDX 2 14 1 15 23 16 12 18 13 19 14 20 15 21 16 22 17 23 18 24
REMARK SMILES IDX 19 25
REMARK H PARENT 7 5 23 17
REMARK Flexibility Score: inf
ROOT
ATOM      1  C   UNL     1     102.871  80.101  80.965  1.00  0.00     0.010 C 
ENDROOT
BRANCH   1   2
ATOM      2  C   UNL     1     102.299  81.254  81.830  1.00  0.00     0.100 C 
BRANCH   2   3
ATOM      3  C   UNL     1     100.828  81.259  81.927  1.00  0.00     0.220 C 
ATOM      4  N   UNL     1     100.111  82.234  81.304  1.00  0.00    -0.352 N 
ATOM      5  H   UNL     1     100.670  82.952  80.863  1.00  0.00     0.163 HD
ATOM      6  O   UNL     1     100.269  80.329  82.556  1.00  0.00    -0.275 OA
BRANCH   4   7
ATOM      7  C   UNL     1      98.687  82.303  81.236  1.00  0.00     0.151 C 
BRANCH   7   8
ATOM      8  C   UNL     1      98.187  82.436  79.843  1.00  0.00    -0.025 A 
ATOM      9  C   UNL     1      98.598  82.868  77.457  1.00  0.00     0.160 A 
ATOM     10  C   UNL     1      97.216  82.742  77.197  1.00  0.00     0.157 A 
ATOM     11  C   UNL     1      99.071  82.723  78.778  1.00  0.00     0.056 A 
ATOM     12  C   UNL     1      96.330  82.439  78.246  1.00  0.00     0.050 A 
ATOM     13  C   UNL     1      96.812  82.277  79.558  1.00  0.00     0.009 A 
BRANCH   9  14
ATOM     14  O   UNL     1      99.481  83.076  76.430  1.00  0.00    -0.493 OA
ATOM     15  C   UNL     1     100.725  82.372  76.574  1.00  0.00     0.278 C 
ENDBRANCH   9  14
BRANCH  10  16
ATOM     16  O   UNL     1      96.717  82.902  75.946  1.00  0.00    -0.504 OA
ATOM     17  H   UNL     1      97.345  83.395  75.412  1.00  0.00     0.293 HD
ENDBRANCH  10  16
ENDBRANCH   7   8
ENDBRANCH   4   7
ENDBRANCH   2   3
ENDBRANCH   1   2
BRANCH   1  18
ATOM     18  C   UNL     1     102.880  80.480  79.462  1.00  0.00     0.001 C 
BRANCH  18  19
ATOM     19  C   UNL     1     102.056  79.517  78.571  1.00  0.00     0.004 C 
BRANCH  19  20
ATOM     20  C   UNL     1     100.925  78.823  79.380  1.00  0.00     0.027 C 
BRANCH  20  21
ATOM     21  C   UNL     1      99.738  78.533  78.595  1.00  0.00    -0.031 C 
ATOM     22  C   UNL     1      99.498  79.122  77.410  1.00  0.00    -0.028 C 
BRANCH  22  23
ATOM     23  C   UNL     1      98.318  78.849  76.594  1.00  0.00     0.005 C 
ATOM     24  C   UNL     1      97.028  79.021  77.440  1.00  0.00     0.012 C 
ATOM     25  C   UNL     1      98.319  79.750  75.329  1.00  0.00     0.012 C 
ENDBRANCH  22  23
ENDBRANCH  20  21
ENDBRANCH  19  20
ENDBRANCH  18  19
ENDBRANCH   1  18
TORSDOF 11
ENDMDL
MODEL 8
REMARK VINA RESULT:    -5.745      4.448      6.100
REMARK INTER + INTRA:         -10.072
REMARK INTER:                  -9.318
REMARK INTRA:                  -0.754
REMARK UNBOUND:                -0.800
REMARK SMILES COc1cc(CNC(=O)CCCCC/C=C/C(C)C)ccc1O
REMARK SMILES IDX 11 1 10 2 8 3 7 4 9 6 6 7 5 8 3 9 22 10 4 11 21 12 20 13
REMARK SMILES IDX 2 14 1 15 23 16 12 18 13 19 14 20 15 21 16 22 17 23 18 24
REMARK SMILES IDX 19 25
REMARK H PARENT 7 5 23 17
REMARK Flexibility Score: inf
ROOT
ATOM      1  C   UNL     1      92.856  93.733  77.181  1.00  0.00     0.010 C 
ENDROOT
BRANCH   1   2
ATOM      2  C   UNL     1      92.251  94.370  75.904  1.00  0.00     0.100 C 
BRANCH   2   3
ATOM      3  C   UNL     1      92.008  93.410  74.811  1.00  0.00     0.220 C 
ATOM      4  N   UNL     1      90.770  93.320  74.250  1.00  0.00    -0.352 N 
ATOM      5  H   UNL     1      90.065  93.893  74.693  1.00  0.00     0.163 HD
ATOM      6  O   UNL     1      92.971  92.723  74.397  1.00  0.00    -0.275 OA
BRANCH   4   7
ATOM      7  C   UNL     1      90.425  92.508  73.129  1.00  0.00     0.151 C 
BRANCH   7   8
ATOM      8  C   UNL     1      89.922  91.168  73.527  1.00  0.00    -0.025 A 
ATOM      9  C   UNL     1      90.341  88.879  74.322  1.00  0.00     0.160 A 
ATOM     10  C   UNL     1      88.960  88.596  74.232  1.00  0.00     0.157 A 
ATOM     11  C   UNL     1      90.812  90.157  73.960  1.00  0.00     0.056 A 
ATOM     12  C   UNL     1      88.064  89.599  73.819  1.00  0.00     0.050 A 
ATOM     13  C   UNL     1      88.540  90.879  73.479  1.00  0.00     0.009 A 
BRANCH   9  14
ATOM     14  O   UNL     1      91.210  87.938  74.806  1.00  0.00    -0.493 OA
ATOM     15  C   UNL     1      91.203  87.813  76.238  1.00  0.00     0.278 C 
ENDBRANCH   9  14
BRANCH  10  16
ATOM     16  O   UNL     1      88.470  87.370  74.544  1.00  0.00    -0.504 OA
ATOM     17  H   UNL     1      88.938  87.023  75.307  1.00  0.00     0.293 HD
ENDBRANCH  10  16
ENDBRANCH   7   8
ENDBRANCH   4   7
ENDBRANCH   2   3
ENDBRANCH   1   2
BRANCH   1  18
ATOM     18  C   UNL     1      94.231  94.363  77.523  1.00  0.00     0.001 C 
BRANCH  18  19
ATOM     19  C   UNL     1      94.838  95.198  76.368  1.00  0.00     0.004 C 
BRANCH  19  20
ATOM     20  C   UNL     1      95.796  94.342  75.492  1.00  0.00     0.027 C 
BRANCH  20  21
ATOM     21  C   UNL     1      96.454  95.096  74.439  1.00  0.00    -0.031 C 
ATOM     22  C   UNL     1      97.006  96.303  74.655  1.00  0.00    -0.028 C 
BRANCH  22  23
ATOM     23  C   UNL     1      97.679  97.083  73.619  1.00  0.00     0.005 C 
ATOM     24  C   UNL     1      97.992  96.188  72.391  1.00  0.00     0.012 C 
ATOM     25  C   UNL     1      96.826  98.324  73.243  1.00  0.00     0.012 C 
ENDBRANCH  22  23
ENDBRANCH  20  21
ENDBRANCH  19  20
ENDBRANCH  18  19
ENDBRANCH   1  18
TORSDOF 11
ENDMDL
MODEL 9
REMARK VINA RESULT:    -5.674     26.201     30.404
REMARK INTER + INTRA:          -9.957
REMARK INTER:                  -7.829
REMARK INTRA:                  -2.127
REMARK UNBOUND:                -0.800
REMARK SMILES COc1cc(CNC(=O)CCCCC/C=C/C(C)C)ccc1O
REMARK SMILES IDX 11 1 10 2 8 3 7 4 9 6 6 7 5 8 3 9 22 10 4 11 21 12 20 13
REMARK SMILES IDX 2 14 1 15 23 16 12 18 13 19 14 20 15 21 16 22 17 23 18 24
REMARK SMILES IDX 19 25
REMARK H PARENT 7 5 23 17
REMARK Flexibility Score: inf
ROOT
ATOM      1  C   UNL     1      80.917  64.365  74.533  1.00  0.00     0.010 C 
ENDROOT
BRANCH   1   2
ATOM      2  C   UNL     1      82.429  64.193  74.237  1.00  0.00     0.100 C 
BRANCH   2   3
ATOM      3  C   UNL     1      83.260  65.330  74.677  1.00  0.00     0.220 C 
ATOM      4  N   UNL     1      83.286  66.475  73.941  1.00  0.00    -0.352 N 
ATOM      5  H   UNL     1      82.768  66.431  73.074  1.00  0.00     0.163 HD
ATOM      6  O   UNL     1      83.895  65.222  75.753  1.00  0.00    -0.275 OA
BRANCH   4   7
ATOM      7  C   UNL     1      83.966  67.677  74.301  1.00  0.00     0.151 C 
BRANCH   7   8
ATOM      8  C   UNL     1      84.535  68.386  73.125  1.00  0.00    -0.025 A 
ATOM      9  C   UNL     1      86.476  69.085  71.786  1.00  0.00     0.160 A 
ATOM     10  C   UNL     1      85.618  69.786  70.911  1.00  0.00     0.157 A 
ATOM     11  C   UNL     1      85.930  68.399  72.890  1.00  0.00     0.056 A 
ATOM     12  C   UNL     1      84.228  69.766  71.125  1.00  0.00     0.050 A 
ATOM     13  C   UNL     1      83.689  69.062  72.218  1.00  0.00     0.009 A 
BRANCH   9  14
ATOM     14  O   UNL     1      87.822  69.025  71.538  1.00  0.00    -0.493 OA
ATOM     15  C   UNL     1      88.612  69.891  72.369  1.00  0.00     0.278 C 
ENDBRANCH   9  14
BRANCH  10  16
ATOM     16  O   UNL     1      86.106  70.482  69.853  1.00  0.00    -0.504 OA
ATOM     17  H   UNL     1      85.962  69.980  69.047  1.00  0.00     0.293 HD
ENDBRANCH  10  16
ENDBRANCH   7   8
ENDBRANCH   4   7
ENDBRANCH   2   3
ENDBRANCH   1   2
BRANCH   1  18
ATOM     18  C   UNL     1      80.122  64.653  73.234  1.00  0.00     0.001 C 
BRANCH  18  19
ATOM     19  C   UNL     1      80.170  66.137  72.791  1.00  0.00     0.004 C 
BRANCH  19  20
ATOM     20  C   UNL     1      80.335  66.264  71.251  1.00  0.00     0.027 C 
BRANCH  20  21
ATOM     21  C   UNL     1      81.484  65.547  70.726  1.00  0.00    -0.031 C 
ATOM     22  C   UNL     1      82.692  66.124  70.590  1.00  0.00    -0.028 C 
BRANCH  22  23
ATOM     23  C   UNL     1      83.867  65.429  70.071  1.00  0.00     0.005 C 
ATOM     24  C   UNL     1      84.817  66.433  69.366  1.00  0.00     0.012 C 
ATOM     25  C   UNL     1      84.576  64.647  71.211  1.00  0.00     0.012 C 
ENDBRANCH  22  23
ENDBRANCH  20  21
ENDBRANCH  19  20
ENDBRANCH  18  19
ENDBRANCH   1  18
TORSDOF 11
ENDMDL
MODEL 10
REMARK VINA RESULT:    -5.641     18.461     21.230
REMARK INTER + INTRA:          -9.903
REMARK INTER:                  -9.185
REMARK INTRA:                  -0.719
REMARK UNBOUND:                -0.800
REMARK SMILES COc1cc(CNC(=O)CCCCC/C=C/C(C)C)ccc1O
REMARK SMILES IDX 11 1 10 2 8 3 7 4 9 6 6 7 5 8 3 9 22 10 4 11 21 12 20 13
REMARK SMILES IDX 2 14 1 15 23 16 12 18 13 19 14 20 15 21 16 22 17 23 18 24
REMARK SMILES IDX 19 25
REMARK H PARENT 7 5 23 17
REMARK Flexibility Score: inf
ROOT
ATOM      1  C   UNL     1      75.992  92.344  64.024  1.00  0.00     0.010 C 
ENDROOT
BRANCH   1   2
ATOM      2  C   UNL     1      76.720  91.007  63.728  1.00  0.00     0.100 C 
BRANCH   2   3
ATOM      3  C   UNL     1      76.921  90.157  64.916  1.00  0.00     0.220 C 
ATOM      4  N   UNL     1      77.923  89.235  64.928  1.00  0.00    -0.352 N 
ATOM      5  H   UNL     1      78.428  89.150  64.057  1.00  0.00     0.163 HD
ATOM      6  O   UNL     1      76.180  90.339  65.911  1.00  0.00    -0.275 OA
BRANCH   4   7
ATOM      7  C   UNL     1      78.287  88.420  66.041  1.00  0.00     0.151 C 
BRANCH   7   8
ATOM      8  C   UNL     1      77.940  86.989  65.841  1.00  0.00    -0.025 A 
ATOM      9  C   UNL     1      77.391  84.775  66.761  1.00  0.00     0.160 A 
ATOM     10  C   UNL     1      77.330  84.248  65.453  1.00  0.00     0.157 A 
ATOM     11  C   UNL     1      77.703  86.138  66.946  1.00  0.00     0.056 A 
ATOM     12  C   UNL     1      77.547  85.089  64.346  1.00  0.00     0.050 A 
ATOM     13  C   UNL     1      77.839  86.452  64.538  1.00  0.00     0.009 A 
BRANCH   9  14
ATOM     14  O   UNL     1      77.095  83.986  67.841  1.00  0.00    -0.493 OA
ATOM     15  C   UNL     1      75.720  84.047  68.255  1.00  0.00     0.278 C 
ENDBRANCH   9  14
BRANCH  10  16
ATOM     16  O   UNL     1      77.061  82.936  65.233  1.00  0.00    -0.504 OA
ATOM     17  H   UNL     1      77.724  82.396  65.671  1.00  0.00     0.293 HD
ENDBRANCH  10  16
ENDBRANCH   7   8
ENDBRANCH   4   7
ENDBRANCH   2   3
ENDBRANCH   1   2
BRANCH   1  18
ATOM     18  C   UNL     1      76.931  93.555  63.792  1.00  0.00     0.001 C 
BRANCH  18  19
ATOM     19  C   UNL     1      78.345  93.373  64.400  1.00  0.00     0.004 C 
BRANCH  19  20
ATOM     20  C   UNL     1      78.920  94.724  64.911  1.00  0.00     0.027 C 
BRANCH  20  21
ATOM     21  C   UNL     1      78.753  94.927  66.340  1.00  0.00    -0.031 C 
ATOM     22  C   UNL     1      79.625  95.643  67.071  1.00  0.00    -0.028 C 
BRANCH  22  23
ATOM     23  C   UNL     1      79.483  95.870  68.507  1.00  0.00     0.005 C 
ATOM     24  C   UNL     1      79.833  97.341  68.857  1.00  0.00     0.012 C 
ATOM     25  C   UNL     1      78.055  95.477  68.974  1.00  0.00     0.012 C 
ENDBRANCH  22  23
ENDBRANCH  20  21
ENDBRANCH  19  20
ENDBRANCH  18  19
ENDBRANCH   1  18
TORSDOF 11
ENDMDL
