MODEL 1
REMARK VINA RESULT:    -6.316      0.000      0.000
REMARK INTER + INTRA:         -10.886
REMARK INTER:                 -10.194
REMARK INTRA:                  -0.693
REMARK UNBOUND:                -0.693
REMARK SMILES COc1cc(CNC(=O)CCCCC/C=C/C(C)C)ccc1O
REMARK SMILES IDX 11 1 10 2 8 3 7 4 9 6 6 7 5 8 3 9 22 10 4 11 21 12 20 13
REMARK SMILES IDX 2 14 1 15 23 16 12 18 13 19 14 20 15 21 16 22 17 23 18 24
REMARK SMILES IDX 19 25
REMARK H PARENT 7 5 23 17
REMARK Flexibility Score: inf
ROOT
ATOM      1  C   UNL     1      92.710  99.554  74.017  1.00  0.00     0.010 C 
ENDROOT
BRANCH   1   2
ATOM      2  C   UNL     1      92.973 100.906  73.305  1.00  0.00     0.100 C 
BRANCH   2   3
ATOM      3  C   UNL     1      91.787 101.473  72.636  1.00  0.00     0.220 C 
ATOM      4  N   UNL     1      91.279 100.866  71.528  1.00  0.00    -0.352 N 
ATOM      5  H   UNL     1      91.820 100.080  71.192  1.00  0.00     0.163 HD
ATOM      6  O   UNL     1      91.248 102.488  73.137  1.00  0.00    -0.275 OA
BRANCH   4   7
ATOM      7  C   UNL     1      90.088 101.250  70.844  1.00  0.00     0.151 C 
BRANCH   7   8
ATOM      8  C   UNL     1      89.594 100.197  69.919  1.00  0.00    -0.025 A 
ATOM      9  C   UNL     1      89.537  97.848  69.192  1.00  0.00     0.160 A 
ATOM     10  C   UNL     1      88.691  98.202  68.118  1.00  0.00     0.157 A 
ATOM     11  C   UNL     1      89.989  98.848  70.077  1.00  0.00     0.056 A 
ATOM     12  C   UNL     1      88.278  99.537  67.961  1.00  0.00     0.050 A 
ATOM     13  C   UNL     1      88.718 100.526  68.861  1.00  0.00     0.009 A 
BRANCH   9  14
ATOM     14  O   UNL     1      89.875  96.538  69.405  1.00  0.00    -0.493 OA
ATOM     15  C   UNL     1      89.766  96.118  70.776  1.00  0.00     0.278 C 
ENDBRANCH   9  14
BRANCH  10  16
ATOM     16  O   UNL     1      88.257  97.275  67.228  1.00  0.00    -0.504 OA
ATOM     17  H   UNL     1      87.359  97.484  66.961  1.00  0.00     0.293 HD
ENDBRANCH  10  16
ENDBRANCH   7   8
ENDBRANCH   4   7
ENDBRANCH   2   3
ENDBRANCH   1   2
BRANCH   1  18
ATOM     18  C   UNL     1      94.025  98.951  74.575  1.00  0.00     0.001 C 
BRANCH  18  19
ATOM     19  C   UNL     1      93.825  98.094  75.850  1.00  0.00     0.004 C 
BRANCH  19  20
ATOM     20  C   UNL     1      92.567  97.189  75.734  1.00  0.00     0.027 C 
BRANCH  20  21
ATOM     21  C   UNL     1      92.189  96.551  76.983  1.00  0.00    -0.031 C 
ATOM     22  C   UNL     1      91.535  95.376  77.021  1.00  0.00    -0.028 C 
BRANCH  22  23
ATOM     23  C   UNL     1      91.145  94.706  78.259  1.00  0.00     0.005 C 
ATOM     24  C   UNL     1      90.062  93.633  77.973  1.00  0.00     0.012 C 
ATOM     25  C   UNL     1      92.395  94.110  78.963  1.00  0.00     0.012 C 
ENDBRANCH  22  23
ENDBRANCH  20  21
ENDBRANCH  19  20
ENDBRANCH  18  19
ENDBRANCH   1  18
TORSDOF 11
ENDMDL
MODEL 2
REMARK VINA RESULT:    -6.256     17.539     20.698
REMARK INTER + INTRA:         -10.789
REMARK INTER:                  -9.538
REMARK INTRA:                  -1.252
REMARK UNBOUND:                -0.693
REMARK SMILES COc1cc(CNC(=O)CCCCC/C=C/C(C)C)ccc1O
REMARK SMILES IDX 11 1 10 2 8 3 7 4 9 6 6 7 5 8 3 9 22 10 4 11 21 12 20 13
REMARK SMILES IDX 2 14 1 15 23 16 12 18 13 19 14 20 15 21 16 22 17 23 18 24
REMARK SMILES IDX 19 25
REMARK H PARENT 7 5 23 17
REMARK Flexibility Score: inf
ROOT
ATOM      1  C   UNL     1      97.968  84.209  77.237  1.00  0.00     0.010 C 
ENDROOT
BRANCH   1   2
ATOM      2  C   UNL     1      97.189  83.639  78.451  1.00  0.00     0.100 C 
BRANCH   2   3
ATOM      3  C   UNL     1      97.989  82.750  79.314  1.00  0.00     0.220 C 
ATOM      4  N   UNL     1      98.502  83.223  80.484  1.00  0.00    -0.352 N 
ATOM      5  H   UNL     1      98.348  84.209  80.643  1.00  0.00     0.163 HD
ATOM      6  O   UNL     1      98.143  81.557  78.961  1.00  0.00    -0.275 OA
BRANCH   4   7
ATOM      7  C   UNL     1      99.208  82.450  81.453  1.00  0.00     0.151 C 
BRANCH   7   8
ATOM      8  C   UNL     1      98.465  82.322  82.734  1.00  0.00    -0.025 A 
ATOM      9  C   UNL     1      97.063  83.308  84.497  1.00  0.00     0.160 A 
ATOM     10  C   UNL     1      97.096  82.087  85.205  1.00  0.00     0.157 A 
ATOM     11  C   UNL     1      97.754  83.419  83.273  1.00  0.00     0.056 A 
ATOM     12  C   UNL     1      97.786  80.984  84.669  1.00  0.00     0.050 A 
ATOM     13  C   UNL     1      98.457  81.097  83.438  1.00  0.00     0.009 A 
BRANCH   9  14
ATOM     14  O   UNL     1      96.322  84.360  84.966  1.00  0.00    -0.493 OA
ATOM     15  C   UNL     1      97.107  85.470  85.433  1.00  0.00     0.278 C 
ENDBRANCH   9  14
BRANCH  10  16
ATOM     16  O   UNL     1      96.468  81.947  86.399  1.00  0.00    -0.504 OA
ATOM     17  H   UNL     1      96.289  82.815  86.770  1.00  0.00     0.293 HD
ENDBRANCH  10  16
ENDBRANCH   7   8
ENDBRANCH   4   7
ENDBRANCH   2   3
ENDBRANCH   1   2
BRANCH   1  18
ATOM     18  C   UNL     1      98.112  83.148  76.116  1.00  0.00     0.001 C 
BRANCH  18  19
ATOM     19  C   UNL     1      99.579  82.740  75.829  1.00  0.00     0.004 C 
BRANCH  19  20
ATOM     20  C   UNL     1     100.581  83.683  76.552  1.00  0.00     0.027 C 
BRANCH  20  21
ATOM     21  C   UNL     1     101.675  82.983  77.204  1.00  0.00    -0.031 C 
ATOM     22  C   UNL     1     101.525  82.353  78.382  1.00  0.00    -0.028 C 
BRANCH  22  23
ATOM     23  C   UNL     1     102.603  81.636  79.060  1.00  0.00     0.005 C 
ATOM     24  C   UNL     1     102.032  80.428  79.849  1.00  0.00     0.012 C 
ATOM     25  C   UNL     1     103.691  81.212  78.037  1.00  0.00     0.012 C 
ENDBRANCH  22  23
ENDBRANCH  20  21
ENDBRANCH  19  20
ENDBRANCH  18  19
ENDBRANCH   1  18
TORSDOF 11
ENDMDL
MODEL 3
REMARK VINA RESULT:    -6.094     19.562     22.865
REMARK INTER + INTRA:         -10.527
REMARK INTER:                  -8.695
REMARK INTRA:                  -1.832
REMARK UNBOUND:                -0.693
REMARK SMILES COc1cc(CNC(=O)CCCCC/C=C/C(C)C)ccc1O
REMARK SMILES IDX 11 1 10 2 8 3 7 4 9 6 6 7 5 8 3 9 22 10 4 11 21 12 20 13
REMARK SMILES IDX 2 14 1 15 23 16 12 18 13 19 14 20 15 21 16 22 17 23 18 24
REMARK SMILES IDX 19 25
REMARK H PARENT 7 5 23 17
REMARK Flexibility Score: inf
ROOT
ATOM      1  C   UNL     1      75.256  80.941  64.272  1.00  0.00     0.010 C 
ENDROOT
BRANCH   1   2
ATOM      2  C   UNL     1      75.976  82.289  64.532  1.00  0.00     0.100 C 
BRANCH   2   3
ATOM      3  C   UNL     1      76.558  82.408  65.882  1.00  0.00     0.220 C 
ATOM      4  N   UNL     1      77.741  83.059  66.056  1.00  0.00    -0.352 N 
ATOM      5  H   UNL     1      78.185  83.362  65.200  1.00  0.00     0.163 HD
ATOM      6  O   UNL     1      75.917  81.935  66.850  1.00  0.00    -0.275 OA
BRANCH   4   7
ATOM      7  C   UNL     1      78.363  83.329  67.311  1.00  0.00     0.151 C 
BRANCH   7   8
ATOM      8  C   UNL     1      77.853  84.572  67.946  1.00  0.00    -0.025 A 
ATOM      9  C   UNL     1      77.243  86.950  67.801  1.00  0.00     0.160 A 
ATOM     10  C   UNL     1      76.931  86.953  69.179  1.00  0.00     0.157 A 
ATOM     11  C   UNL     1      77.709  85.764  67.199  1.00  0.00     0.056 A 
ATOM     12  C   UNL     1      77.054  85.769  69.928  1.00  0.00     0.050 A 
ATOM     13  C   UNL     1      77.502  84.584  69.315  1.00  0.00     0.009 A 
BRANCH   9  14
ATOM     14  O   UNL     1      77.043  88.073  67.044  1.00  0.00    -0.493 OA
ATOM     15  C   UNL     1      75.816  88.067  66.296  1.00  0.00     0.278 C 
ENDBRANCH   9  14
BRANCH  10  16
ATOM     16  O   UNL     1      76.506  88.080  69.803  1.00  0.00    -0.504 OA
ATOM     17  H   UNL     1      76.445  88.795  69.164  1.00  0.00     0.293 HD
ENDBRANCH  10  16
ENDBRANCH   7   8
ENDBRANCH   4   7
ENDBRANCH   2   3
ENDBRANCH   1   2
BRANCH   1  18
ATOM     18  C   UNL     1      74.233  81.068  63.114  1.00  0.00     0.001 C 
BRANCH  18  19
ATOM     19  C   UNL     1      72.835  81.559  63.567  1.00  0.00     0.004 C 
BRANCH  19  20
ATOM     20  C   UNL     1      72.482  81.031  64.986  1.00  0.00     0.027 C 
BRANCH  20  21
ATOM     21  C   UNL     1      72.215  82.084  65.951  1.00  0.00    -0.031 C 
ATOM     22  C   UNL     1      72.811  83.288  65.885  1.00  0.00    -0.028 C 
BRANCH  22  23
ATOM     23  C   UNL     1      72.560  84.368  66.836  1.00  0.00     0.005 C 
ATOM     24  C   UNL     1      71.484  83.937  67.868  1.00  0.00     0.012 C 
ATOM     25  C   UNL     1      73.886  84.805  67.514  1.00  0.00     0.012 C 
ENDBRANCH  22  23
ENDBRANCH  20  21
ENDBRANCH  19  20
ENDBRANCH  18  19
ENDBRANCH   1  18
TORSDOF 11
ENDMDL
MODEL 4
REMARK VINA RESULT:    -6.071      3.669      8.560
REMARK INTER + INTRA:         -10.490
REMARK INTER:                  -9.611
REMARK INTRA:                  -0.879
REMARK UNBOUND:                -0.693
REMARK SMILES COc1cc(CNC(=O)CCCCC/C=C/C(C)C)ccc1O
REMARK SMILES IDX 11 1 10 2 8 3 7 4 9 6 6 7 5 8 3 9 22 10 4 11 21 12 20 13
REMARK SMILES IDX 2 14 1 15 23 16 12 18 13 19 14 20 15 21 16 22 17 23 18 24
REMARK SMILES IDX 19 25
REMARK H PARENT 7 5 23 17
REMARK Flexibility Score: inf
ROOT
ATOM      1  C   UNL     1      92.896 100.887  73.351  1.00  0.00     0.010 C 
ENDROOT
BRANCH   1   2
ATOM      2  C   UNL     1      92.193 100.010  74.419  1.00  0.00     0.100 C 
BRANCH   2   3
ATOM      3  C   UNL     1      93.122  99.268  75.292  1.00  0.00     0.220 C 
ATOM      4  N   UNL     1      92.940  97.934  75.496  1.00  0.00    -0.352 N 
ATOM      5  H   UNL     1      92.106  97.553  75.073  1.00  0.00     0.163 HD
ATOM      6  O   UNL     1      94.089  99.887  75.796  1.00  0.00    -0.275 OA
BRANCH   4   7
ATOM      7  C   UNL     1      93.815  97.081  76.234  1.00  0.00     0.151 C 
BRANCH   7   8
ATOM      8  C   UNL     1      93.081  96.098  77.072  1.00  0.00    -0.025 A 
ATOM      9  C   UNL     1      93.027  94.515  78.954  1.00  0.00     0.160 A 
ATOM     10  C   UNL     1      91.693  94.182  78.634  1.00  0.00     0.157 A 
ATOM     11  C   UNL     1      93.713  95.462  78.167  1.00  0.00     0.056 A 
ATOM     12  C   UNL     1      91.049  94.820  77.558  1.00  0.00     0.050 A 
ATOM     13  C   UNL     1      91.735  95.779  76.789  1.00  0.00     0.009 A 
BRANCH   9  14
ATOM     14  O   UNL     1      93.634  93.965  80.052  1.00  0.00    -0.493 OA
ATOM     15  C   UNL     1      95.068  94.058  80.039  1.00  0.00     0.278 C 
ENDBRANCH   9  14
BRANCH  10  16
ATOM     16  O   UNL     1      91.007  93.255  79.349  1.00  0.00    -0.504 OA
ATOM     17  H   UNL     1      90.519  93.691  80.052  1.00  0.00     0.293 HD
ENDBRANCH  10  16
ENDBRANCH   7   8
ENDBRANCH   4   7
ENDBRANCH   2   3
ENDBRANCH   1   2
BRANCH   1  18
ATOM     18  C   UNL     1      91.924 101.945  72.769  1.00  0.00     0.001 C 
BRANCH  18  19
ATOM     19  C   UNL     1      91.302 101.538  71.409  1.00  0.00     0.004 C 
BRANCH  19  20
ATOM     20  C   UNL     1      89.805 101.149  71.565  1.00  0.00     0.027 C 
BRANCH  20  21
ATOM     21  C   UNL     1      89.400 100.037  70.722  1.00  0.00    -0.031 C 
ATOM     22  C   UNL     1      90.185  98.964  70.521  1.00  0.00    -0.028 C 
BRANCH  22  23
ATOM     23  C   UNL     1      89.805  97.828  69.684  1.00  0.00     0.005 C 
ATOM     24  C   UNL     1      89.683  96.543  70.544  1.00  0.00     0.012 C 
ATOM     25  C   UNL     1      88.496  98.146  68.910  1.00  0.00     0.012 C 
ENDBRANCH  22  23
ENDBRANCH  20  21
ENDBRANCH  19  20
ENDBRANCH  18  19
ENDBRANCH   1  18
TORSDOF 11
ENDMDL
MODEL 5
REMARK VINA RESULT:    -6.023     16.833     19.487
REMARK INTER + INTRA:         -10.414
REMARK INTER:                  -9.584
REMARK INTRA:                  -0.830
REMARK UNBOUND:                -0.693
REMARK SMILES COc1cc(CNC(=O)CCCCC/C=C/C(C)C)ccc1O
REMARK SMILES IDX 11 1 10 2 8 3 7 4 9 6 6 7 5 8 3 9 22 10 4 11 21 12 20 13
REMARK SMILES IDX 2 14 1 15 23 16 12 18 13 19 14 20 15 21 16 22 17 23 18 24
REMARK SMILES IDX 19 25
REMARK H PARENT 7 5 23 17
REMARK Flexibility Score: inf
ROOT
ATOM      1  C   UNL     1      75.082  88.040  70.849  1.00  0.00     0.010 C 
ENDROOT
BRANCH   1   2
ATOM      2  C   UNL     1      76.299  88.205  69.903  1.00  0.00     0.100 C 
BRANCH   2   3
ATOM      3  C   UNL     1      77.061  86.961  69.682  1.00  0.00     0.220 C 
ATOM      4  N   UNL     1      76.500  85.759  69.989  1.00  0.00    -0.352 N 
ATOM      5  H   UNL     1      75.593  85.818  70.431  1.00  0.00     0.163 HD
ATOM      6  O   UNL     1      78.204  87.045  69.174  1.00  0.00    -0.275 OA
BRANCH   4   7
ATOM      7  C   UNL     1      77.085  84.482  69.738  1.00  0.00     0.151 C 
BRANCH   7   8
ATOM      8  C   UNL     1      76.994  84.083  68.309  1.00  0.00    -0.025 A 
ATOM      9  C   UNL     1      75.667  83.320  66.385  1.00  0.00     0.160 A 
ATOM     10  C   UNL     1      76.838  83.271  65.597  1.00  0.00     0.157 A 
ATOM     11  C   UNL     1      75.755  83.716  67.735  1.00  0.00     0.056 A 
ATOM     12  C   UNL     1      78.074  83.650  66.154  1.00  0.00     0.050 A 
ATOM     13  C   UNL     1      78.150  84.063  67.497  1.00  0.00     0.009 A 
BRANCH   9  14
ATOM     14  O   UNL     1      74.447  83.037  65.829  1.00  0.00    -0.493 OA
ATOM     15  C   UNL     1      73.670  84.199  65.497  1.00  0.00     0.278 C 
ENDBRANCH   9  14
BRANCH  10  16
ATOM     16  O   UNL     1      76.801  82.868  64.303  1.00  0.00    -0.504 OA
ATOM     17  H   UNL     1      75.916  82.564  64.088  1.00  0.00     0.293 HD
ENDBRANCH  10  16
ENDBRANCH   7   8
ENDBRANCH   4   7
ENDBRANCH   2   3
ENDBRANCH   1   2
BRANCH   1  18
ATOM     18  C   UNL     1      74.115  89.245  70.732  1.00  0.00     0.001 C 
BRANCH  18  19
ATOM     19  C   UNL     1      74.787  90.533  70.191  1.00  0.00     0.004 C 
BRANCH  19  20
ATOM     20  C   UNL     1      74.911  91.616  71.299  1.00  0.00     0.027 C 
BRANCH  20  21
ATOM     21  C   UNL     1      76.284  91.973  71.616  1.00  0.00    -0.031 C 
ATOM     22  C   UNL     1      76.590  92.907  72.533  1.00  0.00    -0.028 C 
BRANCH  22  23
ATOM     23  C   UNL     1      77.958  93.285  72.878  1.00  0.00     0.005 C 
ATOM     24  C   UNL     1      78.931  92.113  72.582  1.00  0.00     0.012 C 
ATOM     25  C   UNL     1      78.359  94.587  72.133  1.00  0.00     0.012 C 
ENDBRANCH  22  23
ENDBRANCH  20  21
ENDBRANCH  19  20
ENDBRANCH  18  19
ENDBRANCH   1  18
TORSDOF 11
ENDMDL
MODEL 6
REMARK VINA RESULT:    -5.998     19.834     22.959
REMARK INTER + INTRA:         -10.372
REMARK INTER:                  -9.484
REMARK INTRA:                  -0.887
REMARK UNBOUND:                -0.693
REMARK SMILES COc1cc(CNC(=O)CCCCC/C=C/C(C)C)ccc1O
REMARK SMILES IDX 11 1 10 2 8 3 7 4 9 6 6 7 5 8 3 9 22 10 4 11 21 12 20 13
REMARK SMILES IDX 2 14 1 15 23 16 12 18 13 19 14 20 15 21 16 22 17 23 18 24
REMARK SMILES IDX 19 25
REMARK H PARENT 7 5 23 17
REMARK Flexibility Score: inf
ROOT
ATOM      1  C   UNL     1      77.399  83.843  65.755  1.00  0.00     0.010 C 
ENDROOT
BRANCH   1   2
ATOM      2  C   UNL     1      78.292  83.583  66.996  1.00  0.00     0.100 C 
BRANCH   2   3
ATOM      3  C   UNL     1      77.968  84.433  68.157  1.00  0.00     0.220 C 
ATOM      4  N   UNL     1      77.036  84.021  69.060  1.00  0.00    -0.352 N 
ATOM      5  H   UNL     1      76.565  83.160  68.817  1.00  0.00     0.163 HD
ATOM      6  O   UNL     1      78.598  85.507  68.303  1.00  0.00    -0.275 OA
BRANCH   4   7
ATOM      7  C   UNL     1      76.699  84.695  70.272  1.00  0.00     0.151 C 
BRANCH   7   8
ATOM      8  C   UNL     1      75.704  85.779  70.065  1.00  0.00    -0.025 A 
ATOM      9  C   UNL     1      73.474  86.522  69.341  1.00  0.00     0.160 A 
ATOM     10  C   UNL     1      73.829  87.859  69.623  1.00  0.00     0.157 A 
ATOM     11  C   UNL     1      74.415  85.495  69.555  1.00  0.00     0.056 A 
ATOM     12  C   UNL     1      75.102  88.152  70.146  1.00  0.00     0.050 A 
ATOM     13  C   UNL     1      76.029  87.119  70.376  1.00  0.00     0.009 A 
BRANCH   9  14
ATOM     14  O   UNL     1      72.209  86.217  68.914  1.00  0.00    -0.493 OA
ATOM     15  C   UNL     1      71.483  85.348  69.800  1.00  0.00     0.278 C 
ENDBRANCH   9  14
BRANCH  10  16
ATOM     16  O   UNL     1      72.962  88.880  69.404  1.00  0.00    -0.504 OA
ATOM     17  H   UNL     1      73.400  89.568  68.896  1.00  0.00     0.293 HD
ENDBRANCH  10  16
ENDBRANCH   7   8
ENDBRANCH   4   7
ENDBRANCH   2   3
ENDBRANCH   1   2
BRANCH   1  18
ATOM     18  C   UNL     1      76.177  82.890  65.736  1.00  0.00     0.001 C 
BRANCH  18  19
ATOM     19  C   UNL     1      76.504  81.469  65.212  1.00  0.00     0.004 C 
BRANCH  19  20
ATOM     20  C   UNL     1      76.208  81.343  63.691  1.00  0.00     0.027 C 
BRANCH  20  21
ATOM     21  C   UNL     1      74.878  80.837  63.394  1.00  0.00    -0.031 C 
ATOM     22  C   UNL     1      73.793  81.631  63.381  1.00  0.00    -0.028 C 
BRANCH  22  23
ATOM     23  C   UNL     1      72.445  81.154  63.082  1.00  0.00     0.005 C 
ATOM     24  C   UNL     1      72.313  79.651  63.444  1.00  0.00     0.012 C 
ATOM     25  C   UNL     1      71.391  82.032  63.810  1.00  0.00     0.012 C 
ENDBRANCH  22  23
ENDBRANCH  20  21
ENDBRANCH  19  20
ENDBRANCH  18  19
ENDBRANCH   1  18
TORSDOF 11
ENDMDL
MODEL 7
REMARK VINA RESULT:    -5.947      6.774     10.018
REMARK INTER + INTRA:         -10.290
REMARK INTER:                  -9.319
REMARK INTRA:                  -0.971
REMARK UNBOUND:                -0.693
REMARK SMILES COc1cc(CNC(=O)CCCCC/C=C/C(C)C)ccc1O
REMARK SMILES IDX 11 1 10 2 8 3 7 4 9 6 6 7 5 8 3 9 22 10 4 11 21 12 20 13
REMARK SMILES IDX 2 14 1 15 23 16 12 18 13 19 14 20 15 21 16 22 17 23 18 24
REMARK SMILES IDX 19 25
REMARK H PARENT 7 5 23 17
REMARK Flexibility Score: inf
ROOT
ATOM      1  C   UNL     1      94.770  99.381  76.442  1.00  0.00     0.010 C 
ENDROOT
BRANCH   1   2
ATOM      2  C   UNL     1      96.231  99.890  76.338  1.00  0.00     0.100 C 
BRANCH   2   3
ATOM      3  C   UNL     1      97.041  99.641  77.545  1.00  0.00     0.220 C 
ATOM      4  N   UNL     1      96.941  98.449  78.195  1.00  0.00    -0.352 N 
ATOM      5  H   UNL     1      96.235  97.826  77.826  1.00  0.00     0.163 HD
ATOM      6  O   UNL     1      97.841 100.531  77.919  1.00  0.00    -0.275 OA
BRANCH   4   7
ATOM      7  C   UNL     1      97.732  98.043  79.311  1.00  0.00     0.151 C 
BRANCH   7   8
ATOM      8  C   UNL     1      96.913  97.500  80.425  1.00  0.00    -0.025 A 
ATOM      9  C   UNL     1      96.007  95.584  81.673  1.00  0.00     0.160 A 
ATOM     10  C   UNL     1      95.306  96.469  82.521  1.00  0.00     0.157 A 
ATOM     11  C   UNL     1      96.797  96.105  80.628  1.00  0.00     0.056 A 
ATOM     12  C   UNL     1      95.428  97.859  82.340  1.00  0.00     0.050 A 
ATOM     13  C   UNL     1      96.234  98.371  81.306  1.00  0.00     0.009 A 
BRANCH   9  14
ATOM     14  O   UNL     1      95.966  94.233  81.896  1.00  0.00    -0.493 OA
ATOM     15  C   UNL     1      95.111  93.515  80.991  1.00  0.00     0.278 C 
ENDBRANCH   9  14
BRANCH  10  16
ATOM     16  O   UNL     1      94.513  96.008  83.521  1.00  0.00    -0.504 OA
ATOM     17  H   UNL     1      93.647  96.417  83.456  1.00  0.00     0.293 HD
ENDBRANCH  10  16
ENDBRANCH   7   8
ENDBRANCH   4   7
ENDBRANCH   2   3
ENDBRANCH   1   2
BRANCH   1  18
ATOM     18  C   UNL     1      94.486  98.276  75.393  1.00  0.00     0.001 C 
BRANCH  18  19
ATOM     19  C   UNL     1      93.209  97.450  75.688  1.00  0.00     0.004 C 
BRANCH  19  20
ATOM     20  C   UNL     1      93.511  96.261  76.642  1.00  0.00     0.027 C 
BRANCH  20  21
ATOM     21  C   UNL     1      92.384  95.363  76.831  1.00  0.00    -0.031 C 
ATOM     22  C   UNL     1      91.315  95.697  77.574  1.00  0.00    -0.028 C 
BRANCH  22  23
ATOM     23  C   UNL     1      90.165  94.819  77.779  1.00  0.00     0.005 C 
ATOM     24  C   UNL     1      89.547  94.416  76.414  1.00  0.00     0.012 C 
ATOM     25  C   UNL     1      90.576  93.586  78.628  1.00  0.00     0.012 C 
ENDBRANCH  22  23
ENDBRANCH  20  21
ENDBRANCH  19  20
ENDBRANCH  18  19
ENDBRANCH   1  18
TORSDOF 11
ENDMDL
MODEL 8
REMARK VINA RESULT:    -5.891     17.562     20.535
REMARK INTER + INTRA:         -10.200
REMARK INTER:                  -9.304
REMARK INTRA:                  -0.896
REMARK UNBOUND:                -0.693
REMARK SMILES COc1cc(CNC(=O)CCCCC/C=C/C(C)C)ccc1O
REMARK SMILES IDX 11 1 10 2 8 3 7 4 9 6 6 7 5 8 3 9 22 10 4 11 21 12 20 13
REMARK SMILES IDX 2 14 1 15 23 16 12 18 13 19 14 20 15 21 16 22 17 23 18 24
REMARK SMILES IDX 19 25
REMARK H PARENT 7 5 23 17
REMARK Flexibility Score: inf
ROOT
ATOM      1  C   UNL     1      97.799  84.298  77.946  1.00  0.00     0.010 C 
ENDROOT
BRANCH   1   2
ATOM      2  C   UNL     1      97.220  83.155  78.820  1.00  0.00     0.100 C 
BRANCH   2   3
ATOM      3  C   UNL     1      98.158  82.641  79.834  1.00  0.00     0.220 C 
ATOM      4  N   UNL     1      98.198  83.209  81.072  1.00  0.00    -0.352 N 
ATOM      5  H   UNL     1      97.606  84.020  81.182  1.00  0.00     0.163 HD
ATOM      6  O   UNL     1      98.875  81.655  79.538  1.00  0.00    -0.275 OA
BRANCH   4   7
ATOM      7  C   UNL     1      98.984  82.750  82.170  1.00  0.00     0.151 C 
BRANCH   7   8
ATOM      8  C   UNL     1      98.173  82.504  83.391  1.00  0.00    -0.025 A 
ATOM      9  C   UNL     1      96.696  83.328  85.176  1.00  0.00     0.160 A 
ATOM     10  C   UNL     1      96.671  82.038  85.750  1.00  0.00     0.157 A 
ATOM     11  C   UNL     1      97.453  83.553  84.008  1.00  0.00     0.056 A 
ATOM     12  C   UNL     1      97.370  80.983  85.134  1.00  0.00     0.050 A 
ATOM     13  C   UNL     1      98.107  81.211  83.958  1.00  0.00     0.009 A 
BRANCH   9  14
ATOM     14  O   UNL     1      95.950  84.341  85.717  1.00  0.00    -0.493 OA
ATOM     15  C   UNL     1      96.647  85.125  86.700  1.00  0.00     0.278 C 
ENDBRANCH   9  14
BRANCH  10  16
ATOM     16  O   UNL     1      95.979  81.786  86.889  1.00  0.00    -0.504 OA
ATOM     17  H   UNL     1      95.049  81.669  86.678  1.00  0.00     0.293 HD
ENDBRANCH  10  16
ENDBRANCH   7   8
ENDBRANCH   4   7
ENDBRANCH   2   3
ENDBRANCH   1   2
BRANCH   1  18
ATOM     18  C   UNL     1      97.905  83.867  76.461  1.00  0.00     0.001 C 
BRANCH  18  19
ATOM     19  C   UNL     1      99.189  83.062  76.136  1.00  0.00     0.004 C 
BRANCH  19  20
ATOM     20  C   UNL     1     100.388  83.530  77.008  1.00  0.00     0.027 C 
BRANCH  20  21
ATOM     21  C   UNL     1     101.496  84.068  76.237  1.00  0.00    -0.031 C 
ATOM     22  C   UNL     1     101.317  84.956  75.243  1.00  0.00    -0.028 C 
BRANCH  22  23
ATOM     23  C   UNL     1     102.409  85.519  74.454  1.00  0.00     0.005 C 
ATOM     24  C   UNL     1     103.715  84.715  74.693  1.00  0.00     0.012 C 
ATOM     25  C   UNL     1     102.015  85.571  72.952  1.00  0.00     0.012 C 
ENDBRANCH  22  23
ENDBRANCH  20  21
ENDBRANCH  19  20
ENDBRANCH  18  19
ENDBRANCH   1  18
TORSDOF 11
ENDMDL
MODEL 9
REMARK VINA RESULT:    -5.886     29.773     32.566
REMARK INTER + INTRA:         -10.193
REMARK INTER:                  -9.434
REMARK INTRA:                  -0.759
REMARK UNBOUND:                -0.693
REMARK SMILES COc1cc(CNC(=O)CCCCC/C=C/C(C)C)ccc1O
REMARK SMILES IDX 11 1 10 2 8 3 7 4 9 6 6 7 5 8 3 9 22 10 4 11 21 12 20 13
REMARK SMILES IDX 2 14 1 15 23 16 12 18 13 19 14 20 15 21 16 22 17 23 18 24
REMARK SMILES IDX 19 25
REMARK H PARENT 7 5 23 17
REMARK Flexibility Score: inf
ROOT
ATOM      1  C   UNL     1      64.428  83.927  76.142  1.00  0.00     0.010 C 
ENDROOT
BRANCH   1   2
ATOM      2  C   UNL     1      63.580  84.006  77.438  1.00  0.00     0.100 C 
BRANCH   2   3
ATOM      3  C   UNL     1      64.363  84.313  78.649  1.00  0.00     0.220 C 
ATOM      4  N   UNL     1      63.762  84.284  79.871  1.00  0.00    -0.352 N 
ATOM      5  H   UNL     1      62.765  84.117  79.846  1.00  0.00     0.163 HD
ATOM      6  O   UNL     1      65.587  84.556  78.522  1.00  0.00    -0.275 OA
BRANCH   4   7
ATOM      7  C   UNL     1      64.420  84.464  81.124  1.00  0.00     0.151 C 
BRANCH   7   8
ATOM      8  C   UNL     1      64.868  83.181  81.724  1.00  0.00    -0.025 A 
ATOM      9  C   UNL     1      64.372  81.111  82.956  1.00  0.00     0.160 A 
ATOM     10  C   UNL     1      65.739  80.759  82.914  1.00  0.00     0.157 A 
ATOM     11  C   UNL     1      63.949  82.321  82.370  1.00  0.00     0.056 A 
ATOM     12  C   UNL     1      66.659  81.599  82.260  1.00  0.00     0.050 A 
ATOM     13  C   UNL     1      66.225  82.795  81.660  1.00  0.00     0.009 A 
BRANCH   9  14
ATOM     14  O   UNL     1      63.455  80.259  83.514  1.00  0.00    -0.493 OA
ATOM     15  C   UNL     1      62.117  80.782  83.555  1.00  0.00     0.278 C 
ENDBRANCH   9  14
BRANCH  10  16
ATOM     16  O   UNL     1      66.192  79.618  83.491  1.00  0.00    -0.504 OA
ATOM     17  H   UNL     1      67.146  79.665  83.587  1.00  0.00     0.293 HD
ENDBRANCH  10  16
ENDBRANCH   7   8
ENDBRANCH   4   7
ENDBRANCH   2   3
ENDBRANCH   1   2
BRANCH   1  18
ATOM     18  C   UNL     1      64.157  82.607  75.376  1.00  0.00     0.001 C 
BRANCH  18  19
ATOM     19  C   UNL     1      62.690  82.454  74.899  1.00  0.00     0.004 C 
BRANCH  19  20
ATOM     20  C   UNL     1      62.559  81.345  73.817  1.00  0.00     0.027 C 
BRANCH  20  21
ATOM     21  C   UNL     1      63.097  81.725  72.522  1.00  0.00    -0.031 C 
ATOM     22  C   UNL     1      64.313  81.331  72.105  1.00  0.00    -0.028 C 
BRANCH  22  23
ATOM     23  C   UNL     1      64.880  81.691  70.808  1.00  0.00     0.005 C 
ATOM     24  C   UNL     1      63.752  82.087  69.819  1.00  0.00     0.012 C 
ATOM     25  C   UNL     1      65.937  82.816  70.978  1.00  0.00     0.012 C 
ENDBRANCH  22  23
ENDBRANCH  20  21
ENDBRANCH  19  20
ENDBRANCH  18  19
ENDBRANCH   1  18
TORSDOF 11
ENDMDL
MODEL 10
REMARK VINA RESULT:    -5.865     27.206     29.707
REMARK INTER + INTRA:         -10.157
REMARK INTER:                  -9.108
REMARK INTRA:                  -1.050
REMARK UNBOUND:                -0.693
REMARK SMILES COc1cc(CNC(=O)CCCCC/C=C/C(C)C)ccc1O
REMARK SMILES IDX 11 1 10 2 8 3 7 4 9 6 6 7 5 8 3 9 22 10 4 11 21 12 20 13
REMARK SMILES IDX 2 14 1 15 23 16 12 18 13 19 14 20 15 21 16 22 17 23 18 24
REMARK SMILES IDX 19 25
REMARK H PARENT 7 5 23 17
REMARK Flexibility Score: inf
ROOT
ATOM      1  C   UNL     1      63.129  82.091  71.138  1.00  0.00     0.010 C 
ENDROOT
BRANCH   1   2
ATOM      2  C   UNL     1      63.369  81.732  69.649  1.00  0.00     0.100 C 
BRANCH   2   3
ATOM      3  C   UNL     1      64.312  82.632  68.959  1.00  0.00     0.220 C 
ATOM      4  N   UNL     1      64.737  83.770  69.574  1.00  0.00    -0.352 N 
ATOM      5  H   UNL     1      64.299  83.955  70.466  1.00  0.00     0.163 HD
ATOM      6  O   UNL     1      64.733  82.298  67.826  1.00  0.00    -0.275 OA
BRANCH   4   7
ATOM      7  C   UNL     1      65.716  84.673  69.064  1.00  0.00     0.151 C 
BRANCH   7   8
ATOM      8  C   UNL     1      67.079  84.394  69.586  1.00  0.00    -0.025 A 
ATOM      9  C   UNL     1      69.354  83.517  69.261  1.00  0.00     0.160 A 
ATOM     10  C   UNL     1      69.661  83.817  70.606  1.00  0.00     0.157 A 
ATOM     11  C   UNL     1      68.065  83.799  68.764  1.00  0.00     0.056 A 
ATOM     12  C   UNL     1      68.694  84.424  71.428  1.00  0.00     0.050 A 
ATOM     13  C   UNL     1      67.416  84.721  70.919  1.00  0.00     0.009 A 
BRANCH   9  14
ATOM     14  O   UNL     1      70.314  83.006  68.428  1.00  0.00    -0.493 OA
ATOM     15  C   UNL     1      69.961  83.036  67.035  1.00  0.00     0.278 C 
ENDBRANCH   9  14
BRANCH  10  16
ATOM     16  O   UNL     1      70.880  83.535  71.130  1.00  0.00    -0.504 OA
ATOM     17  H   UNL     1      71.396  84.342  71.190  1.00  0.00     0.293 HD
ENDBRANCH  10  16
ENDBRANCH   7   8
ENDBRANCH   4   7
ENDBRANCH   2   3
ENDBRANCH   1   2
BRANCH   1  18
ATOM     18  C   UNL     1      64.231  81.484  72.044  1.00  0.00     0.001 C 
BRANCH  18  19
ATOM     19  C   UNL     1      63.699  80.944  73.396  1.00  0.00     0.004 C 
BRANCH  19  20
ATOM     20  C   UNL     1      62.437  81.725  73.860  1.00  0.00     0.027 C 
BRANCH  20  21
ATOM     21  C   UNL     1      62.661  82.551  75.034  1.00  0.00    -0.031 C 
ATOM     22  C   UNL     1      63.791  83.260  75.209  1.00  0.00    -0.028 C 
BRANCH  22  23
ATOM     23  C   UNL     1      64.044  84.104  76.375  1.00  0.00     0.005 C 
ATOM     24  C   UNL     1      62.788  84.156  77.284  1.00  0.00     0.012 C 
ATOM     25  C   UNL     1      65.302  83.605  77.135  1.00  0.00     0.012 C 
ENDBRANCH  22  23
ENDBRANCH  20  21
ENDBRANCH  19  20
ENDBRANCH  18  19
ENDBRANCH   1  18
TORSDOF 11
ENDMDL
