MODEL 1
REMARK VINA RESULT:    -6.079      0.000      0.000
REMARK INTER + INTRA:         -10.481
REMARK INTER:                  -9.456
REMARK INTRA:                  -1.025
REMARK UNBOUND:                -1.025
REMARK SMILES COc1cc(CNC(=O)CCCC/C=C/C(C)C)ccc1O
REMARK SMILES IDX 10 1 8 2 7 3 9 5 6 6 5 7 3 8 21 9 4 10 20 11 19 12 2 13 1 14
REMARK SMILES IDX 22 15 11 17 12 18 13 19 14 20 15 21 16 22 17 23 18 24
REMARK H PARENT 7 4 22 16
REMARK Flexibility Score: inf
ROOT
ATOM      1  C   UNL     1      98.151  80.155  80.873  1.00  0.00     0.100 C 
ENDROOT
BRANCH   1   2
ATOM      2  C   UNL     1      97.793  80.538  82.252  1.00  0.00     0.220 C 
ATOM      3  N   UNL     1      96.491  80.742  82.598  1.00  0.00    -0.352 N 
ATOM      4  H   UNL     1      95.828  80.634  81.843  1.00  0.00     0.163 HD
ATOM      5  O   UNL     1      98.716  80.645  83.095  1.00  0.00    -0.275 OA
BRANCH   3   6
ATOM      6  C   UNL     1      96.039  81.083  83.909  1.00  0.00     0.151 C 
BRANCH   6   7
ATOM      7  C   UNL     1      95.835  82.550  84.052  1.00  0.00    -0.025 A 
ATOM      8  C   UNL     1      95.117  84.477  85.406  1.00  0.00     0.160 A 
ATOM      9  C   UNL     1      95.458  85.347  84.350  1.00  0.00     0.157 A 
ATOM     10  C   UNL     1      95.306  83.088  85.247  1.00  0.00     0.056 A 
ATOM     11  C   UNL     1      95.968  84.823  83.146  1.00  0.00     0.050 A 
ATOM     12  C   UNL     1      96.164  83.436  83.000  1.00  0.00     0.009 A 
BRANCH   8  13
ATOM     13  O   UNL     1      94.559  84.976  86.556  1.00  0.00    -0.493 OA
ATOM     14  C   UNL     1      93.120  84.974  86.559  1.00  0.00     0.278 C 
ENDBRANCH   8  13
BRANCH   9  15
ATOM     15  O   UNL     1      95.300  86.690  84.476  1.00  0.00    -0.504 OA
ATOM     16  H   UNL     1      94.749  87.017  83.761  1.00  0.00     0.293 HD
ENDBRANCH   9  15
ENDBRANCH   6   7
ENDBRANCH   3   6
ENDBRANCH   1   2
BRANCH   1  17
ATOM     17  C   UNL     1      97.438  81.053  79.826  1.00  0.00     0.010 C 
BRANCH  17  18
ATOM     18  C   UNL     1      97.857  82.547  79.926  1.00  0.00     0.005 C 
BRANCH  18  19
ATOM     19  C   UNL     1      96.758  83.506  79.394  1.00  0.00     0.027 C 
BRANCH  19  20
ATOM     20  C   UNL     1      96.781  83.613  77.943  1.00  0.00    -0.031 C 
ATOM     21  C   UNL     1      97.900  83.547  77.198  1.00  0.00    -0.028 C 
BRANCH  21  22
ATOM     22  C   UNL     1      97.898  83.638  75.738  1.00  0.00     0.005 C 
ATOM     23  C   UNL     1      96.827  84.633  75.211  1.00  0.00     0.012 C 
ATOM     24  C   UNL     1      99.310  84.021  75.223  1.00  0.00     0.012 C 
ENDBRANCH  21  22
ENDBRANCH  19  20
ENDBRANCH  18  19
ENDBRANCH  17  18
ENDBRANCH   1  17
TORSDOF 10
ENDMDL
MODEL 2
REMARK VINA RESULT:    -5.801     14.725     17.931
REMARK INTER + INTRA:         -10.049
REMARK INTER:                  -9.212
REMARK INTRA:                  -0.837
REMARK UNBOUND:                -1.025
REMARK SMILES COc1cc(CNC(=O)CCCC/C=C/C(C)C)ccc1O
REMARK SMILES IDX 10 1 8 2 7 3 9 5 6 6 5 7 3 8 21 9 4 10 20 11 19 12 2 13 1 14
REMARK SMILES IDX 22 15 11 17 12 18 13 19 14 20 15 21 16 22 17 23 18 24
REMARK H PARENT 7 4 22 16
REMARK Flexibility Score: inf
ROOT
ATOM      1  C   UNL     1      95.561  98.458  76.466  1.00  0.00     0.100 C 
ENDROOT
BRANCH   1   2
ATOM      2  C   UNL     1      95.883  98.009  75.098  1.00  0.00     0.220 C 
ATOM      3  N   UNL     1      94.939  97.397  74.331  1.00  0.00    -0.352 N 
ATOM      4  H   UNL     1      94.043  97.265  74.781  1.00  0.00     0.163 HD
ATOM      5  O   UNL     1      97.038  98.228  74.659  1.00  0.00    -0.275 OA
BRANCH   3   6
ATOM      6  C   UNL     1      95.140  96.955  72.988  1.00  0.00     0.151 C 
BRANCH   6   7
ATOM      7  C   UNL     1      94.652  97.959  72.003  1.00  0.00    -0.025 A 
ATOM      8  C   UNL     1      93.006  99.666  71.341  1.00  0.00     0.160 A 
ATOM      9  C   UNL     1      93.720  99.892  70.146  1.00  0.00     0.157 A 
ATOM     10  C   UNL     1      93.477  98.701  72.256  1.00  0.00     0.056 A 
ATOM     11  C   UNL     1      94.883  99.146  69.871  1.00  0.00     0.050 A 
ATOM     12  C   UNL     1      95.352  98.193  70.796  1.00  0.00     0.009 A 
BRANCH   8  13
ATOM     13  O   UNL     1      91.838 100.343  71.583  1.00  0.00    -0.493 OA
ATOM     14  C   UNL     1      91.987 101.477  72.458  1.00  0.00     0.278 C 
ENDBRANCH   8  13
BRANCH   9  15
ATOM     15  O   UNL     1      93.301 100.823  69.250  1.00  0.00    -0.504 OA
ATOM     16  H   UNL     1      93.947 100.902  68.545  1.00  0.00     0.293 HD
ENDBRANCH   9  15
ENDBRANCH   6   7
ENDBRANCH   3   6
ENDBRANCH   1   2
BRANCH   1  17
ATOM     17  C   UNL     1      95.474  97.264  77.455  1.00  0.00     0.010 C 
BRANCH  17  18
ATOM     18  C   UNL     1      94.014  96.933  77.875  1.00  0.00     0.005 C 
BRANCH  18  19
ATOM     19  C   UNL     1      93.822  95.428  78.206  1.00  0.00     0.027 C 
BRANCH  19  20
ATOM     20  C   UNL     1      92.448  94.994  78.003  1.00  0.00    -0.031 C 
ATOM     21  C   UNL     1      91.751  95.196  76.870  1.00  0.00    -0.028 C 
BRANCH  21  22
ATOM     22  C   UNL     1      90.376  94.733  76.680  1.00  0.00     0.005 C 
ATOM     23  C   UNL     1      90.090  94.325  75.209  1.00  0.00     0.012 C 
ATOM     24  C   UNL     1      90.066  93.563  77.649  1.00  0.00     0.012 C 
ENDBRANCH  21  22
ENDBRANCH  19  20
ENDBRANCH  18  19
ENDBRANCH  17  18
ENDBRANCH   1  17
TORSDOF 10
ENDMDL
MODEL 3
REMARK VINA RESULT:    -5.798      3.893      4.512
REMARK INTER + INTRA:         -10.044
REMARK INTER:                  -9.426
REMARK INTRA:                  -0.618
REMARK UNBOUND:                -1.025
REMARK SMILES COc1cc(CNC(=O)CCCC/C=C/C(C)C)ccc1O
REMARK SMILES IDX 10 1 8 2 7 3 9 5 6 6 5 7 3 8 21 9 4 10 20 11 19 12 2 13 1 14
REMARK SMILES IDX 22 15 11 17 12 18 13 19 14 20 15 21 16 22 17 23 18 24
REMARK H PARENT 7 4 22 16
REMARK Flexibility Score: inf
ROOT
ATOM      1  C   UNL     1      96.704  81.281  82.186  1.00  0.00     0.100 C 
ENDROOT
BRANCH   1   2
ATOM      2  C   UNL     1      95.753  81.680  83.241  1.00  0.00     0.220 C 
ATOM      3  N   UNL     1      95.195  80.744  84.059  1.00  0.00    -0.352 N 
ATOM      4  H   UNL     1      95.465  79.790  83.863  1.00  0.00     0.163 HD
ATOM      5  O   UNL     1      95.497  82.901  83.376  1.00  0.00    -0.275 OA
BRANCH   3   6
ATOM      6  C   UNL     1      94.292  81.030  85.128  1.00  0.00     0.151 C 
BRANCH   6   7
ATOM      7  C   UNL     1      92.874  80.935  84.685  1.00  0.00    -0.025 A 
ATOM      8  C   UNL     1      90.964  79.572  83.938  1.00  0.00     0.160 A 
ATOM      9  C   UNL     1      90.166  80.732  83.859  1.00  0.00     0.157 A 
ATOM     10  C   UNL     1      92.309  79.684  84.348  1.00  0.00     0.056 A 
ATOM     11  C   UNL     1      90.721  81.989  84.173  1.00  0.00     0.050 A 
ATOM     12  C   UNL     1      92.062  82.089  84.593  1.00  0.00     0.009 A 
BRANCH   8  13
ATOM     13  O   UNL     1      90.447  78.356  83.570  1.00  0.00    -0.493 OA
ATOM     14  C   UNL     1      90.047  77.529  84.678  1.00  0.00     0.278 C 
ENDBRANCH   8  13
BRANCH   9  15
ATOM     15  O   UNL     1      88.864  80.658  83.480  1.00  0.00    -0.504 OA
ATOM     16  H   UNL     1      88.607  79.737  83.396  1.00  0.00     0.293 HD
ENDBRANCH   9  15
ENDBRANCH   6   7
ENDBRANCH   3   6
ENDBRANCH   1   2
BRANCH   1  17
ATOM     17  C   UNL     1      97.511  82.495  81.653  1.00  0.00     0.010 C 
BRANCH  17  18
ATOM     18  C   UNL     1      97.037  82.968  80.250  1.00  0.00     0.005 C 
BRANCH  18  19
ATOM     19  C   UNL     1      98.072  82.647  79.137  1.00  0.00     0.027 C 
BRANCH  19  20
ATOM     20  C   UNL     1      97.835  83.424  77.930  1.00  0.00    -0.031 C 
ATOM     21  C   UNL     1      97.825  82.906  76.688  1.00  0.00    -0.028 C 
BRANCH  21  22
ATOM     22  C   UNL     1      97.565  83.702  75.489  1.00  0.00     0.005 C 
ATOM     23  C   UNL     1      96.620  84.902  75.772  1.00  0.00     0.012 C 
ATOM     24  C   UNL     1      98.901  84.184  74.866  1.00  0.00     0.012 C 
ENDBRANCH  21  22
ENDBRANCH  19  20
ENDBRANCH  18  19
ENDBRANCH  17  18
ENDBRANCH   1  17
TORSDOF 10
ENDMDL
MODEL 4
REMARK VINA RESULT:    -5.796      2.986      3.978
REMARK INTER + INTRA:         -10.041
REMARK INTER:                  -8.937
REMARK INTRA:                  -1.104
REMARK UNBOUND:                -1.025
REMARK SMILES COc1cc(CNC(=O)CCCC/C=C/C(C)C)ccc1O
REMARK SMILES IDX 10 1 8 2 7 3 9 5 6 6 5 7 3 8 21 9 4 10 20 11 19 12 2 13 1 14
REMARK SMILES IDX 22 15 11 17 12 18 13 19 14 20 15 21 16 22 17 23 18 24
REMARK H PARENT 7 4 22 16
REMARK Flexibility Score: inf
ROOT
ATOM      1  C   UNL     1      97.589  79.361  83.492  1.00  0.00     0.100 C 
ENDROOT
BRANCH   1   2
ATOM      2  C   UNL     1      96.249  78.763  83.650  1.00  0.00     0.220 C 
ATOM      3  N   UNL     1      95.474  79.077  84.726  1.00  0.00    -0.352 N 
ATOM      4  H   UNL     1      95.899  79.713  85.386  1.00  0.00     0.163 HD
ATOM      5  O   UNL     1      95.841  77.980  82.758  1.00  0.00    -0.275 OA
BRANCH   3   6
ATOM      6  C   UNL     1      94.156  78.579  84.954  1.00  0.00     0.151 C 
BRANCH   6   7
ATOM      7  C   UNL     1      93.126  79.624  84.705  1.00  0.00    -0.025 A 
ATOM      8  C   UNL     1      92.450  81.992  84.712  1.00  0.00     0.160 A 
ATOM      9  C   UNL     1      91.180  81.632  84.215  1.00  0.00     0.157 A 
ATOM     10  C   UNL     1      93.409  80.986  84.954  1.00  0.00     0.056 A 
ATOM     11  C   UNL     1      90.876  80.276  83.980  1.00  0.00     0.050 A 
ATOM     12  C   UNL     1      91.845  79.280  84.214  1.00  0.00     0.009 A 
BRANCH   8  13
ATOM     13  O   UNL     1      92.727  83.303  85.005  1.00  0.00    -0.493 OA
ATOM     14  C   UNL     1      94.115  83.655  84.860  1.00  0.00     0.278 C 
ENDBRANCH   8  13
BRANCH   9  15
ATOM     15  O   UNL     1      90.239  82.576  83.960  1.00  0.00    -0.504 OA
ATOM     16  H   UNL     1      90.617  83.449  84.087  1.00  0.00     0.293 HD
ENDBRANCH   9  15
ENDBRANCH   6   7
ENDBRANCH   3   6
ENDBRANCH   1   2
BRANCH   1  17
ATOM     17  C   UNL     1      97.523  80.912  83.457  1.00  0.00     0.010 C 
BRANCH  17  18
ATOM     18  C   UNL     1      96.517  81.451  82.401  1.00  0.00     0.005 C 
BRANCH  18  19
ATOM     19  C   UNL     1      96.721  82.962  82.109  1.00  0.00     0.027 C 
BRANCH  19  20
ATOM     20  C   UNL     1      96.862  83.230  80.686  1.00  0.00    -0.031 C 
ATOM     21  C   UNL     1      97.491  82.414  79.822  1.00  0.00    -0.028 C 
BRANCH  21  22
ATOM     22  C   UNL     1      97.604  82.694  78.390  1.00  0.00     0.005 C 
ATOM     23  C   UNL     1      97.605  81.397  77.534  1.00  0.00     0.012 C 
ATOM     24  C   UNL     1      96.471  83.653  77.941  1.00  0.00     0.012 C 
ENDBRANCH  21  22
ENDBRANCH  19  20
ENDBRANCH  18  19
ENDBRANCH  17  18
ENDBRANCH   1  17
TORSDOF 10
ENDMDL
MODEL 5
REMARK VINA RESULT:    -5.763      3.473      8.669
REMARK INTER + INTRA:          -9.989
REMARK INTER:                  -9.291
REMARK INTRA:                  -0.698
REMARK UNBOUND:                -1.025
REMARK SMILES COc1cc(CNC(=O)CCCC/C=C/C(C)C)ccc1O
REMARK SMILES IDX 10 1 8 2 7 3 9 5 6 6 5 7 3 8 21 9 4 10 20 11 19 12 2 13 1 14
REMARK SMILES IDX 22 15 11 17 12 18 13 19 14 20 15 21 16 22 17 23 18 24
REMARK H PARENT 7 4 22 16
REMARK Flexibility Score: inf
ROOT
ATOM      1  C   UNL     1      96.863  81.176  82.006  1.00  0.00     0.100 C 
ENDROOT
BRANCH   1   2
ATOM      2  C   UNL     1      97.544  81.070  80.701  1.00  0.00     0.220 C 
ATOM      3  N   UNL     1      98.201  82.141  80.174  1.00  0.00    -0.352 N 
ATOM      4  H   UNL     1      98.156  82.984  80.730  1.00  0.00     0.163 HD
ATOM      5  O   UNL     1      97.519  79.964  80.109  1.00  0.00    -0.275 OA
BRANCH   3   6
ATOM      6  C   UNL     1      98.915  82.132  78.938  1.00  0.00     0.151 C 
BRANCH   6   7
ATOM      7  C   UNL     1      98.192  82.893  77.883  1.00  0.00    -0.025 A 
ATOM      8  C   UNL     1      98.054  83.711  75.565  1.00  0.00     0.160 A 
ATOM      9  C   UNL     1      96.818  84.325  75.855  1.00  0.00     0.157 A 
ATOM     10  C   UNL     1      98.730  83.004  76.581  1.00  0.00     0.056 A 
ATOM     11  C   UNL     1      96.279  84.240  77.154  1.00  0.00     0.050 A 
ATOM     12  C   UNL     1      96.955  83.522  78.159  1.00  0.00     0.009 A 
BRANCH   8  13
ATOM     13  O   UNL     1      98.614  83.846  74.320  1.00  0.00    -0.493 OA
ATOM     14  C   UNL     1      99.597  84.894  74.230  1.00  0.00     0.278 C 
ENDBRANCH   8  13
BRANCH   9  15
ATOM     15  O   UNL     1      96.135  85.002  74.896  1.00  0.00    -0.504 OA
ATOM     16  H   UNL     1      95.528  85.620  75.310  1.00  0.00     0.293 HD
ENDBRANCH   9  15
ENDBRANCH   6   7
ENDBRANCH   3   6
ENDBRANCH   1   2
BRANCH   1  17
ATOM     17  C   UNL     1      96.856  82.637  82.530  1.00  0.00     0.010 C 
BRANCH  17  18
ATOM     18  C   UNL     1      95.553  82.999  83.298  1.00  0.00     0.005 C 
BRANCH  18  19
ATOM     19  C   UNL     1      94.840  81.745  83.873  1.00  0.00     0.027 C 
BRANCH  19  20
ATOM     20  C   UNL     1      94.338  81.971  85.220  1.00  0.00    -0.031 C 
ATOM     21  C   UNL     1      93.208  81.428  85.707  1.00  0.00    -0.028 C 
BRANCH  21  22
ATOM     22  C   UNL     1      92.733  81.653  87.072  1.00  0.00     0.005 C 
ATOM     23  C   UNL     1      92.658  80.336  87.894  1.00  0.00     0.012 C 
ATOM     24  C   UNL     1      93.627  82.700  87.785  1.00  0.00     0.012 C 
ENDBRANCH  21  22
ENDBRANCH  19  20
ENDBRANCH  18  19
ENDBRANCH  17  18
ENDBRANCH   1  17
TORSDOF 10
ENDMDL
MODEL 6
REMARK VINA RESULT:    -5.762     14.072     16.800
REMARK INTER + INTRA:          -9.987
REMARK INTER:                  -9.384
REMARK INTRA:                  -0.603
REMARK UNBOUND:                -1.025
REMARK SMILES COc1cc(CNC(=O)CCCC/C=C/C(C)C)ccc1O
REMARK SMILES IDX 10 1 8 2 7 3 9 5 6 6 5 7 3 8 21 9 4 10 20 11 19 12 2 13 1 14
REMARK SMILES IDX 22 15 11 17 12 18 13 19 14 20 15 21 16 22 17 23 18 24
REMARK H PARENT 7 4 22 16
REMARK Flexibility Score: inf
ROOT
ATOM      1  C   UNL     1      95.911  97.520  73.837  1.00  0.00     0.100 C 
ENDROOT
BRANCH   1   2
ATOM      2  C   UNL     1      95.000  97.651  74.991  1.00  0.00     0.220 C 
ATOM      3  N   UNL     1      94.444  96.547  75.562  1.00  0.00    -0.352 N 
ATOM      4  H   UNL     1      94.687  95.670  75.121  1.00  0.00     0.163 HD
ATOM      5  O   UNL     1      94.775  98.801  75.440  1.00  0.00    -0.275 OA
BRANCH   3   6
ATOM      6  C   UNL     1      93.578  96.564  76.698  1.00  0.00     0.151 C 
BRANCH   6   7
ATOM      7  C   UNL     1      92.579  95.462  76.640  1.00  0.00    -0.025 A 
ATOM      8  C   UNL     1      91.261  93.851  75.325  1.00  0.00     0.160 A 
ATOM      9  C   UNL     1      90.689  93.349  76.512  1.00  0.00     0.157 A 
ATOM     10  C   UNL     1      92.198  94.903  75.399  1.00  0.00     0.056 A 
ATOM     11  C   UNL     1      91.044  93.910  77.755  1.00  0.00     0.050 A 
ATOM     12  C   UNL     1      91.989  94.953  77.820  1.00  0.00     0.009 A 
BRANCH   8  13
ATOM     13  O   UNL     1      90.869  93.352  74.109  1.00  0.00    -0.493 OA
ATOM     14  C   UNL     1      89.557  93.775  73.696  1.00  0.00     0.278 C 
ENDBRANCH   8  13
BRANCH   9  15
ATOM     15  O   UNL     1      89.794  92.328  76.477  1.00  0.00    -0.504 OA
ATOM     16  H   UNL     1      89.637  92.070  75.565  1.00  0.00     0.293 HD
ENDBRANCH   9  15
ENDBRANCH   6   7
ENDBRANCH   3   6
ENDBRANCH   1   2
BRANCH   1  17
ATOM     17  C   UNL     1      95.135  97.223  72.526  1.00  0.00     0.010 C 
BRANCH  17  18
ATOM     18  C   UNL     1      94.010  98.258  72.241  1.00  0.00     0.005 C 
BRANCH  18  19
ATOM     19  C   UNL     1      94.412  99.278  71.141  1.00  0.00     0.027 C 
BRANCH  19  20
ATOM     20  C   UNL     1      93.276 100.065  70.684  1.00  0.00    -0.031 C 
ATOM     21  C   UNL     1      92.117 100.180  71.357  1.00  0.00    -0.028 C 
BRANCH  21  22
ATOM     22  C   UNL     1      90.995 100.994  70.888  1.00  0.00     0.005 C 
ATOM     23  C   UNL     1      90.174 100.281  69.778  1.00  0.00     0.012 C 
ATOM     24  C   UNL     1      90.086 101.390  72.080  1.00  0.00     0.012 C 
ENDBRANCH  21  22
ENDBRANCH  19  20
ENDBRANCH  18  19
ENDBRANCH  17  18
ENDBRANCH   1  17
TORSDOF 10
ENDMDL
MODEL 7
REMARK VINA RESULT:    -5.708      7.035      7.846
REMARK INTER + INTRA:          -9.903
REMARK INTER:                  -9.353
REMARK INTRA:                  -0.550
REMARK UNBOUND:                -1.025
REMARK SMILES COc1cc(CNC(=O)CCCC/C=C/C(C)C)ccc1O
REMARK SMILES IDX 10 1 8 2 7 3 9 5 6 6 5 7 3 8 21 9 4 10 20 11 19 12 2 13 1 14
REMARK SMILES IDX 22 15 11 17 12 18 13 19 14 20 15 21 16 22 17 23 18 24
REMARK H PARENT 7 4 22 16
REMARK Flexibility Score: inf
ROOT
ATOM      1  C   UNL     1      91.945  75.140  81.771  1.00  0.00     0.100 C 
ENDROOT
BRANCH   1   2
ATOM      2  C   UNL     1      91.181  75.734  82.884  1.00  0.00     0.220 C 
ATOM      3  N   UNL     1      91.385  77.032  83.248  1.00  0.00    -0.352 N 
ATOM      4  H   UNL     1      92.096  77.516  82.718  1.00  0.00     0.163 HD
ATOM      5  O   UNL     1      90.329  75.020  83.466  1.00  0.00    -0.275 OA
BRANCH   3   6
ATOM      6  C   UNL     1      90.677  77.708  84.287  1.00  0.00     0.151 C 
BRANCH   6   7
ATOM      7  C   UNL     1      91.075  79.139  84.378  1.00  0.00    -0.025 A 
ATOM      8  C   UNL     1      92.752  80.851  84.946  1.00  0.00     0.160 A 
ATOM      9  C   UNL     1      91.858  81.863  84.539  1.00  0.00     0.157 A 
ATOM     10  C   UNL     1      92.352  79.500  84.864  1.00  0.00     0.056 A 
ATOM     11  C   UNL     1      90.575  81.519  84.070  1.00  0.00     0.050 A 
ATOM     12  C   UNL     1      90.188  80.167  83.981  1.00  0.00     0.009 A 
BRANCH   8  13
ATOM     13  O   UNL     1      93.977  81.183  85.465  1.00  0.00    -0.493 OA
ATOM     14  C   UNL     1      95.069  81.021  84.541  1.00  0.00     0.278 C 
ENDBRANCH   8  13
BRANCH   9  15
ATOM     15  O   UNL     1      92.217  83.171  84.593  1.00  0.00    -0.504 OA
ATOM     16  H   UNL     1      91.515  83.680  85.006  1.00  0.00     0.293 HD
ENDBRANCH   9  15
ENDBRANCH   6   7
ENDBRANCH   3   6
ENDBRANCH   1   2
BRANCH   1  17
ATOM     17  C   UNL     1      91.457  75.670  80.395  1.00  0.00     0.010 C 
BRANCH  17  18
ATOM     18  C   UNL     1      91.419  74.566  79.301  1.00  0.00     0.005 C 
BRANCH  18  19
ATOM     19  C   UNL     1      90.295  74.808  78.257  1.00  0.00     0.027 C 
BRANCH  19  20
ATOM     20  C   UNL     1      90.773  75.549  77.100  1.00  0.00    -0.031 C 
ATOM     21  C   UNL     1      90.036  76.444  76.418  1.00  0.00    -0.028 C 
BRANCH  21  22
ATOM     22  C   UNL     1      90.543  77.192  75.268  1.00  0.00     0.005 C 
ATOM     23  C   UNL     1      91.251  78.510  75.689  1.00  0.00     0.012 C 
ATOM     24  C   UNL     1      91.491  76.301  74.424  1.00  0.00     0.012 C 
ENDBRANCH  21  22
ENDBRANCH  19  20
ENDBRANCH  18  19
ENDBRANCH  17  18
ENDBRANCH   1  17
TORSDOF 10
ENDMDL
MODEL 8
REMARK VINA RESULT:    -5.677      4.222      8.043
REMARK INTER + INTRA:          -9.855
REMARK INTER:                  -9.050
REMARK INTRA:                  -0.805
REMARK UNBOUND:                -1.025
REMARK SMILES COc1cc(CNC(=O)CCCC/C=C/C(C)C)ccc1O
REMARK SMILES IDX 10 1 8 2 7 3 9 5 6 6 5 7 3 8 21 9 4 10 20 11 19 12 2 13 1 14
REMARK SMILES IDX 22 15 11 17 12 18 13 19 14 20 15 21 16 22 17 23 18 24
REMARK H PARENT 7 4 22 16
REMARK Flexibility Score: inf
ROOT
ATOM      1  C   UNL     1      93.637  79.247  85.844  1.00  0.00     0.100 C 
ENDROOT
BRANCH   1   2
ATOM      2  C   UNL     1      94.374  78.839  84.633  1.00  0.00     0.220 C 
ATOM      3  N   UNL     1      95.469  79.538  84.222  1.00  0.00    -0.352 N 
ATOM      4  H   UNL     1      95.701  80.341  84.790  1.00  0.00     0.163 HD
ATOM      5  O   UNL     1      93.977  77.823  84.012  1.00  0.00    -0.275 OA
BRANCH   3   6
ATOM      6  C   UNL     1      96.268  79.207  83.086  1.00  0.00     0.151 C 
BRANCH   6   7
ATOM      7  C   UNL     1      96.626  80.418  82.298  1.00  0.00    -0.025 A 
ATOM      8  C   UNL     1      97.474  81.433  80.221  1.00  0.00     0.160 A 
ATOM      9  C   UNL     1      97.296  82.717  80.775  1.00  0.00     0.157 A 
ATOM     10  C   UNL     1      97.140  80.297  80.987  1.00  0.00     0.056 A 
ATOM     11  C   UNL     1      96.803  82.854  82.088  1.00  0.00     0.050 A 
ATOM     12  C   UNL     1      96.462  81.714  82.841  1.00  0.00     0.009 A 
BRANCH   8  13
ATOM     13  O   UNL     1      98.014  81.293  78.968  1.00  0.00    -0.493 OA
ATOM     14  C   UNL     1      98.187  79.926  78.552  1.00  0.00     0.278 C 
ENDBRANCH   8  13
BRANCH   9  15
ATOM     15  O   UNL     1      97.595  83.832  80.059  1.00  0.00    -0.504 OA
ATOM     16  H   UNL     1      97.912  83.579  79.189  1.00  0.00     0.293 HD
ENDBRANCH   9  15
ENDBRANCH   6   7
ENDBRANCH   3   6
ENDBRANCH   1   2
BRANCH   1  17
ATOM     17  C   UNL     1      92.989  80.648  85.676  1.00  0.00     0.010 C 
BRANCH  17  18
ATOM     18  C   UNL     1      92.005  80.719  84.475  1.00  0.00     0.005 C 
BRANCH  18  19
ATOM     19  C   UNL     1      91.315  82.105  84.357  1.00  0.00     0.027 C 
BRANCH  19  20
ATOM     20  C   UNL     1      89.864  81.999  84.396  1.00  0.00    -0.031 C 
ATOM     21  C   UNL     1      89.172  80.929  83.965  1.00  0.00    -0.028 C 
BRANCH  21  22
ATOM     22  C   UNL     1      87.714  80.836  84.031  1.00  0.00     0.005 C 
ATOM     23  C   UNL     1      87.058  82.174  84.471  1.00  0.00     0.012 C 
ATOM     24  C   UNL     1      87.145  80.362  82.669  1.00  0.00     0.012 C 
ENDBRANCH  21  22
ENDBRANCH  19  20
ENDBRANCH  18  19
ENDBRANCH  17  18
ENDBRANCH   1  17
TORSDOF 10
ENDMDL
MODEL 9
REMARK VINA RESULT:    -5.597     14.698     18.107
REMARK INTER + INTRA:          -9.731
REMARK INTER:                  -8.908
REMARK INTRA:                  -0.823
REMARK UNBOUND:                -1.025
REMARK SMILES COc1cc(CNC(=O)CCCC/C=C/C(C)C)ccc1O
REMARK SMILES IDX 10 1 8 2 7 3 9 5 6 6 5 7 3 8 21 9 4 10 20 11 19 12 2 13 1 14
REMARK SMILES IDX 22 15 11 17 12 18 13 19 14 20 15 21 16 22 17 23 18 24
REMARK H PARENT 7 4 22 16
REMARK Flexibility Score: inf
ROOT
ATOM      1  C   UNL     1      95.579  98.401  76.588  1.00  0.00     0.100 C 
ENDROOT
BRANCH   1   2
ATOM      2  C   UNL     1      95.897  98.029  75.196  1.00  0.00     0.220 C 
ATOM      3  N   UNL     1      94.980  97.375  74.429  1.00  0.00    -0.352 N 
ATOM      4  H   UNL     1      94.111  97.158  74.895  1.00  0.00     0.163 HD
ATOM      5  O   UNL     1      97.019  98.354  74.737  1.00  0.00    -0.275 OA
BRANCH   3   6
ATOM      6  C   UNL     1      95.177  97.000  73.065  1.00  0.00     0.151 C 
BRANCH   6   7
ATOM      7  C   UNL     1      94.618  98.017  72.133  1.00  0.00    -0.025 A 
ATOM      8  C   UNL     1      94.816  99.358  70.077  1.00  0.00     0.160 A 
ATOM      9  C   UNL     1      93.558  99.940  70.334  1.00  0.00     0.157 A 
ATOM     10  C   UNL     1      95.335  98.405  70.978  1.00  0.00     0.056 A 
ATOM     11  C   UNL     1      92.840  99.578  71.491  1.00  0.00     0.050 A 
ATOM     12  C   UNL     1      93.360  98.616  72.379  1.00  0.00     0.009 A 
BRANCH   8  13
ATOM     13  O   UNL     1      95.548  99.756  68.987  1.00  0.00    -0.493 OA
ATOM     14  C   UNL     1      95.393  98.908  67.835  1.00  0.00     0.278 C 
ENDBRANCH   8  13
BRANCH   9  15
ATOM     15  O   UNL     1      93.024 100.851  69.480  1.00  0.00    -0.504 OA
ATOM     16  H   UNL     1      93.314 100.660  68.585  1.00  0.00     0.293 HD
ENDBRANCH   9  15
ENDBRANCH   6   7
ENDBRANCH   3   6
ENDBRANCH   1   2
BRANCH   1  17
ATOM     17  C   UNL     1      95.312  97.150  77.468  1.00  0.00     0.010 C 
BRANCH  17  18
ATOM     18  C   UNL     1      93.802  96.929  77.762  1.00  0.00     0.005 C 
BRANCH  18  19
ATOM     19  C   UNL     1      93.462  95.435  78.015  1.00  0.00     0.027 C 
BRANCH  19  20
ATOM     20  C   UNL     1      92.152  95.076  77.492  1.00  0.00    -0.031 C 
ATOM     21  C   UNL     1      91.828  95.097  76.187  1.00  0.00    -0.028 C 
BRANCH  21  22
ATOM     22  C   UNL     1      90.510  94.713  75.681  1.00  0.00     0.005 C 
ATOM     23  C   UNL     1      90.573  93.463  74.760  1.00  0.00     0.012 C 
ATOM     24  C   UNL     1      89.530  94.481  76.861  1.00  0.00     0.012 C 
ENDBRANCH  21  22
ENDBRANCH  19  20
ENDBRANCH  18  19
ENDBRANCH  17  18
ENDBRANCH   1  17
TORSDOF 10
ENDMDL
MODEL 10
REMARK VINA RESULT:    -5.470      3.246      7.944
REMARK INTER + INTRA:          -9.533
REMARK INTER:                  -8.797
REMARK INTRA:                  -0.736
REMARK UNBOUND:                -1.025
REMARK SMILES COc1cc(CNC(=O)CCCC/C=C/C(C)C)ccc1O
REMARK SMILES IDX 10 1 8 2 7 3 9 5 6 6 5 7 3 8 21 9 4 10 20 11 19 12 2 13 1 14
REMARK SMILES IDX 22 15 11 17 12 18 13 19 14 20 15 21 16 22 17 23 18 24
REMARK H PARENT 7 4 22 16
REMARK Flexibility Score: inf
ROOT
ATOM      1  C   UNL     1      97.092  80.030  81.369  1.00  0.00     0.100 C 
ENDROOT
BRANCH   1   2
ATOM      2  C   UNL     1      97.820  80.355  80.127  1.00  0.00     0.220 C 
ATOM      3  N   UNL     1      98.483  81.538  80.003  1.00  0.00    -0.352 N 
ATOM      4  H   UNL     1      98.409  82.154  80.801  1.00  0.00     0.163 HD
ATOM      5  O   UNL     1      97.828  79.503  79.205  1.00  0.00    -0.275 OA
BRANCH   3   6
ATOM      6  C   UNL     1      99.241  81.933  78.859  1.00  0.00     0.151 C 
BRANCH   6   7
ATOM      7  C   UNL     1      98.420  82.732  77.908  1.00  0.00    -0.025 A 
ATOM      8  C   UNL     1      98.120  83.743  75.683  1.00  0.00     0.160 A 
ATOM      9  C   UNL     1      96.859  84.238  76.077  1.00  0.00     0.157 A 
ATOM     10  C   UNL     1      98.888  82.997  76.602  1.00  0.00     0.056 A 
ATOM     11  C   UNL     1      96.388  83.998  77.383  1.00  0.00     0.050 A 
ATOM     12  C   UNL     1      97.157  83.242  78.289  1.00  0.00     0.009 A 
BRANCH   8  13
ATOM     13  O   UNL     1      98.612  84.029  74.435  1.00  0.00    -0.493 OA
ATOM     14  C   UNL     1      98.353  83.008  73.454  1.00  0.00     0.278 C 
ENDBRANCH   8  13
BRANCH   9  15
ATOM     15  O   UNL     1      96.089  84.947  75.213  1.00  0.00    -0.504 OA
ATOM     16  H   UNL     1      95.495  84.352  74.750  1.00  0.00     0.293 HD
ENDBRANCH   9  15
ENDBRANCH   6   7
ENDBRANCH   3   6
ENDBRANCH   1   2
BRANCH   1  17
ATOM     17  C   UNL     1      96.690  81.311  82.148  1.00  0.00     0.010 C 
BRANCH  17  18
ATOM     18  C   UNL     1      96.918  81.184  83.681  1.00  0.00     0.005 C 
BRANCH  18  19
ATOM     19  C   UNL     1      95.591  80.983  84.460  1.00  0.00     0.027 C 
BRANCH  19  20
ATOM     20  C   UNL     1      95.047  82.241  84.948  1.00  0.00    -0.031 C 
ATOM     21  C   UNL     1      95.613  83.443  84.735  1.00  0.00    -0.028 C 
BRANCH  21  22
ATOM     22  C   UNL     1      95.038  84.698  85.218  1.00  0.00     0.005 C 
ATOM     23  C   UNL     1      95.335  85.888  84.264  1.00  0.00     0.012 C 
ATOM     24  C   UNL     1      93.513  84.537  85.444  1.00  0.00     0.012 C 
ENDBRANCH  21  22
ENDBRANCH  19  20
ENDBRANCH  18  19
ENDBRANCH  17  18
ENDBRANCH   1  17
TORSDOF 10
ENDMDL
