MODEL 1
REMARK VINA RESULT:    -8.096      0.000      0.000
REMARK INTER + INTRA:          -9.895
REMARK INTER:                  -9.516
REMARK INTRA:                  -0.379
REMARK UNBOUND:                -0.379
REMARK SMILES O=C(/C=C/C=C/c1ccc2c(c1)OCO2)N1CCCCC1
REMARK SMILES IDX 3 1 4 2 2 3 1 4 16 5 17 6 21 7 18 8 20 9 19 10 5 11 6 12
REMARK SMILES IDX 7 13 12 14 8 15 11 16 9 17 13 18 10 19 14 20 15 21
REMARK H PARENT
REMARK Flexibility Score: inf
ROOT
ATOM      1  C   UNL     1      90.979  91.809  75.925  1.00  0.00     0.071 C 
ATOM      2  C   UNL     1      91.010  92.514  77.054  1.00  0.00     0.006 C 
ENDROOT
BRANCH   1   3
ATOM      3  C   UNL     1      89.695  91.203  75.519  1.00  0.00     0.246 C 
ATOM      4  O   UNL     1      88.795  91.162  76.359  1.00  0.00    -0.270 OA
ATOM      5  N   UNL     1      89.590  90.714  74.218  1.00  0.00    -0.339 N 
ATOM      6  C   UNL     1      88.329  90.102  73.788  1.00  0.00     0.120 C 
ATOM      7  C   UNL     1      90.656  90.704  73.205  1.00  0.00     0.120 C 
ATOM      8  C   UNL     1      87.816  90.733  72.498  1.00  0.00     0.022 C 
ATOM      9  C   UNL     1      90.177  91.326  71.893  1.00  0.00     0.022 C 
ATOM     10  C   UNL     1      88.880  90.688  71.406  1.00  0.00     0.004 C 
ENDBRANCH   1   3
BRANCH   2  11
ATOM     11  C   UNL     1      92.221  93.145  77.535  1.00  0.00     0.001 C 
ATOM     12  C   UNL     1      93.165  93.628  76.710  1.00  0.00     0.008 C 
BRANCH  12  13
ATOM     13  C   UNL     1      94.416  94.270  77.145  1.00  0.00    -0.022 A 
ATOM     14  C   UNL     1      94.679  94.389  78.502  1.00  0.00     0.058 A 
ATOM     15  C   UNL     1      95.306  94.744  76.177  1.00  0.00     0.012 A 
ATOM     16  C   UNL     1      95.865  94.998  78.860  1.00  0.00     0.166 A 
ATOM     17  C   UNL     1      96.499  95.356  76.567  1.00  0.00     0.051 A 
ATOM     18  O   UNL     1      96.302  95.209  80.132  1.00  0.00    -0.454 OA
ATOM     19  C   UNL     1      96.751  95.469  77.918  1.00  0.00     0.165 A 
ATOM     20  C   UNL     1      97.562  95.866  79.884  1.00  0.00     0.468 C 
ATOM     21  O   UNL     1      97.853  96.034  78.482  1.00  0.00    -0.454 OA
ENDBRANCH  12  13
ENDBRANCH   2  11
TORSDOF 3
ENDMDL
MODEL 2
REMARK VINA RESULT:    -7.661      2.600      8.852
REMARK INTER + INTRA:          -9.384
REMARK INTER:                  -8.996
REMARK INTRA:                  -0.388
REMARK UNBOUND:                -0.379
REMARK SMILES O=C(/C=C/C=C/c1ccc2c(c1)OCO2)N1CCCCC1
REMARK SMILES IDX 3 1 4 2 2 3 1 4 16 5 17 6 21 7 18 8 20 9 19 10 5 11 6 12
REMARK SMILES IDX 7 13 12 14 8 15 11 16 9 17 13 18 10 19 14 20 15 21
REMARK H PARENT
REMARK Flexibility Score: inf
ROOT
ATOM      1  C   UNL     1      93.716  94.249  76.778  1.00  0.00     0.071 C 
ATOM      2  C   UNL     1      92.887  93.300  77.208  1.00  0.00     0.006 C 
ENDROOT
BRANCH   1   3
ATOM      3  C   UNL     1      94.793  94.694  77.684  1.00  0.00     0.246 C 
ATOM      4  O   UNL     1      94.788  94.251  78.834  1.00  0.00    -0.270 OA
ATOM      5  N   UNL     1      95.738  95.586  77.182  1.00  0.00    -0.339 N 
ATOM      6  C   UNL     1      96.816  96.050  78.060  1.00  0.00     0.120 C 
ATOM      7  C   UNL     1      95.750  96.170  75.832  1.00  0.00     0.120 C 
ATOM      8  C   UNL     1      98.185  95.837  77.422  1.00  0.00     0.022 C 
ATOM      9  C   UNL     1      97.110  95.980  75.160  1.00  0.00     0.022 C 
ATOM     10  C   UNL     1      98.250  96.481  76.041  1.00  0.00     0.004 C 
ENDBRANCH   1   3
BRANCH   2  11
ATOM     11  C   UNL     1      91.801  92.799  76.392  1.00  0.00     0.001 C 
ATOM     12  C   UNL     1      91.622  93.168  75.114  1.00  0.00     0.008 C 
BRANCH  12  13
ATOM     13  C   UNL     1      90.533  92.697  74.243  1.00  0.00    -0.022 A 
ATOM     14  C   UNL     1      89.907  91.493  74.535  1.00  0.00     0.058 A 
ATOM     15  C   UNL     1      90.158  93.476  73.145  1.00  0.00     0.012 A 
ATOM     16  C   UNL     1      88.892  91.093  73.690  1.00  0.00     0.166 A 
ATOM     17  C   UNL     1      89.126  93.047  72.306  1.00  0.00     0.051 A 
ATOM     18  O   UNL     1      88.161  89.950  73.805  1.00  0.00    -0.454 OA
ATOM     19  C   UNL     1      88.511  91.850  72.606  1.00  0.00     0.165 A 
ATOM     20  C   UNL     1      87.278  90.073  72.672  1.00  0.00     0.468 C 
ATOM     21  O   UNL     1      87.495  91.276  71.906  1.00  0.00    -0.454 OA
ENDBRANCH  12  13
ENDBRANCH   2  11
TORSDOF 3
ENDMDL
MODEL 3
REMARK VINA RESULT:    -7.577      2.759      9.210
REMARK INTER + INTRA:          -9.285
REMARK INTER:                  -8.965
REMARK INTRA:                  -0.321
REMARK UNBOUND:                -0.379
REMARK SMILES O=C(/C=C/C=C/c1ccc2c(c1)OCO2)N1CCCCC1
REMARK SMILES IDX 3 1 4 2 2 3 1 4 16 5 17 6 21 7 18 8 20 9 19 10 5 11 6 12
REMARK SMILES IDX 7 13 12 14 8 15 11 16 9 17 13 18 10 19 14 20 15 21
REMARK H PARENT
REMARK Flexibility Score: inf
ROOT
ATOM      1  C   UNL     1      95.282  94.097  77.242  1.00  0.00     0.071 C 
ATOM      2  C   UNL     1      93.994  94.430  77.183  1.00  0.00     0.006 C 
ENDROOT
BRANCH   1   3
ATOM      3  C   UNL     1      96.232  95.090  77.783  1.00  0.00     0.246 C 
ATOM      4  O   UNL     1      96.789  95.841  76.981  1.00  0.00    -0.270 OA
ATOM      5  N   UNL     1      96.438  95.108  79.162  1.00  0.00    -0.339 N 
ATOM      6  C   UNL     1      97.380  96.079  79.727  1.00  0.00     0.120 C 
ATOM      7  C   UNL     1      95.828  94.200  80.144  1.00  0.00     0.120 C 
ATOM      8  C   UNL     1      96.737  96.892  80.846  1.00  0.00     0.022 C 
ATOM      9  C   UNL     1      95.174  94.978  81.285  1.00  0.00     0.022 C 
ATOM     10  C   UNL     1      96.142  95.978  81.913  1.00  0.00     0.004 C 
ENDBRANCH   1   3
BRANCH   2  11
ATOM     11  C   UNL     1      92.989  93.525  76.668  1.00  0.00     0.001 C 
ATOM     12  C   UNL     1      92.257  93.797  75.576  1.00  0.00     0.008 C 
BRANCH  12  13
ATOM     13  C   UNL     1      91.217  92.917  75.015  1.00  0.00    -0.022 A 
ATOM     14  C   UNL     1      90.569  93.296  73.848  1.00  0.00     0.058 A 
ATOM     15  C   UNL     1      90.912  91.724  75.675  1.00  0.00     0.012 A 
ATOM     16  C   UNL     1      89.603  92.439  73.361  1.00  0.00     0.166 A 
ATOM     17  C   UNL     1      89.930  90.875  75.160  1.00  0.00     0.051 A 
ATOM     18  O   UNL     1      88.859  92.631  72.238  1.00  0.00    -0.454 OA
ATOM     19  C   UNL     1      89.292  91.261  74.000  1.00  0.00     0.165 A 
ATOM     20  C   UNL     1      88.045  91.441  72.241  1.00  0.00     0.468 C 
ATOM     21  O   UNL     1      88.314  90.566  73.356  1.00  0.00    -0.454 OA
ENDBRANCH  12  13
ENDBRANCH   2  11
TORSDOF 3
ENDMDL
MODEL 4
REMARK VINA RESULT:    -7.173      3.513      8.701
REMARK INTER + INTRA:          -8.811
REMARK INTER:                  -8.448
REMARK INTRA:                  -0.363
REMARK UNBOUND:                -0.379
REMARK SMILES O=C(/C=C/C=C/c1ccc2c(c1)OCO2)N1CCCCC1
REMARK SMILES IDX 3 1 4 2 2 3 1 4 16 5 17 6 21 7 18 8 20 9 19 10 5 11 6 12
REMARK SMILES IDX 7 13 12 14 8 15 11 16 9 17 13 18 10 19 14 20 15 21
REMARK H PARENT
REMARK Flexibility Score: inf
ROOT
ATOM      1  C   UNL     1      95.103  96.619  74.843  1.00  0.00     0.071 C 
ATOM      2  C   UNL     1      94.972  95.401  75.366  1.00  0.00     0.006 C 
ENDROOT
BRANCH   1   3
ATOM      3  C   UNL     1      96.416  97.285  74.957  1.00  0.00     0.246 C 
ATOM      4  O   UNL     1      96.732  97.735  76.059  1.00  0.00    -0.270 OA
ATOM      5  N   UNL     1      97.205  97.366  73.810  1.00  0.00    -0.339 N 
ATOM      6  C   UNL     1      98.511  98.027  73.891  1.00  0.00     0.120 C 
ATOM      7  C   UNL     1      96.842  96.882  72.470  1.00  0.00     0.120 C 
ATOM      8  C   UNL     1      99.622  97.132  73.351  1.00  0.00     0.022 C 
ATOM      9  C   UNL     1      97.935  95.983  71.892  1.00  0.00     0.022 C 
ATOM     10  C   UNL     1      99.302  96.658  71.937  1.00  0.00     0.004 C 
ENDBRANCH   1   3
BRANCH   2  11
ATOM     11  C   UNL     1      93.725  94.668  75.305  1.00  0.00     0.001 C 
ATOM     12  C   UNL     1      93.294  93.883  76.305  1.00  0.00     0.008 C 
BRANCH  12  13
ATOM     13  C   UNL     1      92.040  93.110  76.292  1.00  0.00    -0.022 A 
ATOM     14  C   UNL     1      91.572  92.603  75.088  1.00  0.00     0.058 A 
ATOM     15  C   UNL     1      91.356  92.909  77.494  1.00  0.00     0.012 A 
ATOM     16  C   UNL     1      90.394  91.886  75.127  1.00  0.00     0.166 A 
ATOM     17  C   UNL     1      90.166  92.179  77.504  1.00  0.00     0.051 A 
ATOM     18  O   UNL     1      89.774  91.311  74.060  1.00  0.00    -0.454 OA
ATOM     19  C   UNL     1      89.709  91.679  76.303  1.00  0.00     0.165 A 
ATOM     20  C   UNL     1      88.622  90.720  74.696  1.00  0.00     0.468 C 
ATOM     21  O   UNL     1      88.575  90.950  76.119  1.00  0.00    -0.454 OA
ENDBRANCH  12  13
ENDBRANCH   2  11
TORSDOF 3
ENDMDL
MODEL 5
REMARK VINA RESULT:    -6.923      6.397      7.401
REMARK INTER + INTRA:          -8.516
REMARK INTER:                  -8.154
REMARK INTRA:                  -0.362
REMARK UNBOUND:                -0.379
REMARK SMILES O=C(/C=C/C=C/c1ccc2c(c1)OCO2)N1CCCCC1
REMARK SMILES IDX 3 1 4 2 2 3 1 4 16 5 17 6 21 7 18 8 20 9 19 10 5 11 6 12
REMARK SMILES IDX 7 13 12 14 8 15 11 16 9 17 13 18 10 19 14 20 15 21
REMARK H PARENT
REMARK Flexibility Score: inf
ROOT
ATOM      1  C   UNL     1      92.922  98.552  70.150  1.00  0.00     0.071 C 
ATOM      2  C   UNL     1      93.448  99.161  71.211  1.00  0.00     0.006 C 
ENDROOT
BRANCH   1   3
ATOM      3  C   UNL     1      92.153  99.369  69.191  1.00  0.00     0.246 C 
ATOM      4  O   UNL     1      92.533 100.524  68.993  1.00  0.00    -0.270 OA
ATOM      5  N   UNL     1      91.046  98.783  68.579  1.00  0.00    -0.339 N 
ATOM      6  C   UNL     1      90.259  99.571  67.626  1.00  0.00     0.120 C 
ATOM      7  C   UNL     1      90.535  97.426  68.824  1.00  0.00     0.120 C 
ATOM      8  C   UNL     1      90.095  98.838  66.299  1.00  0.00     0.022 C 
ATOM      9  C   UNL     1      90.353  96.659  67.514  1.00  0.00     0.022 C 
ATOM     10  C   UNL     1      89.513  97.445  66.512  1.00  0.00     0.004 C 
ENDBRANCH   1   3
BRANCH   2  11
ATOM     11  C   UNL     1      94.218  98.446  72.206  1.00  0.00     0.001 C 
ATOM     12  C   UNL     1      93.648  97.732  73.191  1.00  0.00     0.008 C 
BRANCH  12  13
ATOM     13  C   UNL     1      94.382  96.993  74.232  1.00  0.00    -0.022 A 
ATOM     14  C   UNL     1      93.821  95.840  74.764  1.00  0.00     0.058 A 
ATOM     15  C   UNL     1      95.624  97.473  74.655  1.00  0.00     0.012 A 
ATOM     16  C   UNL     1      94.546  95.183  75.736  1.00  0.00     0.166 A 
ATOM     17  C   UNL     1      96.336  96.787  75.641  1.00  0.00     0.051 A 
ATOM     18  O   UNL     1      94.170  94.043  76.378  1.00  0.00    -0.454 OA
ATOM     19  C   UNL     1      95.771  95.643  76.163  1.00  0.00     0.165 A 
ATOM     20  C   UNL     1      95.295  93.838  77.257  1.00  0.00     0.468 C 
ATOM     21  O   UNL     1      96.315  94.850  77.126  1.00  0.00    -0.454 OA
ENDBRANCH  12  13
ENDBRANCH   2  11
TORSDOF 3
ENDMDL
MODEL 6
REMARK VINA RESULT:    -6.889     21.752     25.360
REMARK INTER + INTRA:          -8.476
REMARK INTER:                  -8.142
REMARK INTRA:                  -0.334
REMARK UNBOUND:                -0.379
REMARK SMILES O=C(/C=C/C=C/c1ccc2c(c1)OCO2)N1CCCCC1
REMARK SMILES IDX 3 1 4 2 2 3 1 4 16 5 17 6 21 7 18 8 20 9 19 10 5 11 6 12
REMARK SMILES IDX 7 13 12 14 8 15 11 16 9 17 13 18 10 19 14 20 15 21
REMARK H PARENT
REMARK Flexibility Score: inf
ROOT
ATOM      1  C   UNL     1      84.021  69.043  71.845  1.00  0.00     0.071 C 
ATOM      2  C   UNL     1      85.287  69.098  71.436  1.00  0.00     0.006 C 
ENDROOT
BRANCH   1   3
ATOM      3  C   UNL     1      83.658  68.020  72.846  1.00  0.00     0.246 C 
ATOM      4  O   UNL     1      84.211  68.077  73.945  1.00  0.00    -0.270 OA
ATOM      5  N   UNL     1      82.721  67.056  72.478  1.00  0.00    -0.339 N 
ATOM      6  C   UNL     1      82.345  66.023  73.448  1.00  0.00     0.120 C 
ATOM      7  C   UNL     1      82.076  66.928  71.163  1.00  0.00     0.120 C 
ATOM      8  C   UNL     1      80.832  65.950  73.625  1.00  0.00     0.022 C 
ATOM      9  C   UNL     1      80.555  66.848  71.298  1.00  0.00     0.022 C 
ATOM     10  C   UNL     1      80.133  65.760  72.282  1.00  0.00     0.004 C 
ENDBRANCH   1   3
BRANCH   2  11
ATOM     11  C   UNL     1      85.739  70.065  70.458  1.00  0.00     0.001 C 
ATOM     12  C   UNL     1      87.037  70.268  70.183  1.00  0.00     0.008 C 
BRANCH  12  13
ATOM     13  C   UNL     1      87.551  71.243  69.206  1.00  0.00    -0.022 A 
ATOM     14  C   UNL     1      88.766  71.868  69.451  1.00  0.00     0.058 A 
ATOM     15  C   UNL     1      86.801  71.512  68.059  1.00  0.00     0.012 A 
ATOM     16  C   UNL     1      89.206  72.774  68.507  1.00  0.00     0.166 A 
ATOM     17  C   UNL     1      87.270  72.433  67.120  1.00  0.00     0.051 A 
ATOM     18  O   UNL     1      90.364  73.487  68.564  1.00  0.00    -0.454 OA
ATOM     19  C   UNL     1      88.478  73.049  67.372  1.00  0.00     0.165 A 
ATOM     20  C   UNL     1      90.282  74.242  67.338  1.00  0.00     0.468 C 
ATOM     21  O   UNL     1      89.088  73.969  66.577  1.00  0.00    -0.454 OA
ENDBRANCH  12  13
ENDBRANCH   2  11
TORSDOF 3
ENDMDL
MODEL 7
REMARK VINA RESULT:    -6.737     12.371     13.218
REMARK INTER + INTRA:          -8.298
REMARK INTER:                  -7.868
REMARK INTRA:                  -0.430
REMARK UNBOUND:                -0.379
REMARK SMILES O=C(/C=C/C=C/c1ccc2c(c1)OCO2)N1CCCCC1
REMARK SMILES IDX 3 1 4 2 2 3 1 4 16 5 17 6 21 7 18 8 20 9 19 10 5 11 6 12
REMARK SMILES IDX 7 13 12 14 8 15 11 16 9 17 13 18 10 19 14 20 15 21
REMARK H PARENT
REMARK Flexibility Score: inf
ROOT
ATOM      1  C   UNL     1      98.674  82.455  79.922  1.00  0.00     0.071 C 
ATOM      2  C   UNL     1      97.924  81.543  80.537  1.00  0.00     0.006 C 
ENDROOT
BRANCH   1   3
ATOM      3  C   UNL     1      99.490  82.022  78.770  1.00  0.00     0.246 C 
ATOM      4  O   UNL     1     100.502  81.362  79.006  1.00  0.00    -0.270 OA
ATOM      5  N   UNL     1      99.063  82.392  77.496  1.00  0.00    -0.339 N 
ATOM      6  C   UNL     1      99.855  81.981  76.333  1.00  0.00     0.120 C 
ATOM      7  C   UNL     1      97.886  83.215  77.178  1.00  0.00     0.120 C 
ATOM      8  C   UNL     1      98.994  81.267  75.296  1.00  0.00     0.022 C 
ATOM      9  C   UNL     1      96.998  82.533  76.138  1.00  0.00     0.022 C 
ATOM     10  C   UNL     1      97.793  82.120  74.902  1.00  0.00     0.004 C 
ENDBRANCH   1   3
BRANCH   2  11
ATOM     11  C   UNL     1      97.092  81.871  81.675  1.00  0.00     0.001 C 
ATOM     12  C   UNL     1      97.180  83.042  82.326  1.00  0.00     0.008 C 
BRANCH  12  13
ATOM     13  C   UNL     1      96.365  83.424  83.492  1.00  0.00    -0.022 A 
ATOM     14  C   UNL     1      96.249  84.767  83.824  1.00  0.00     0.058 A 
ATOM     15  C   UNL     1      95.730  82.423  84.231  1.00  0.00     0.012 A 
ATOM     16  C   UNL     1      95.474  85.075  84.924  1.00  0.00     0.166 A 
ATOM     17  C   UNL     1      94.952  82.763  85.340  1.00  0.00     0.051 A 
ATOM     18  O   UNL     1      95.239  86.324  85.410  1.00  0.00    -0.454 OA
ATOM     19  C   UNL     1      94.843  84.100  85.662  1.00  0.00     0.165 A 
ATOM     20  C   UNL     1      94.389  86.026  86.536  1.00  0.00     0.468 C 
ATOM     21  O   UNL     1      94.133  84.616  86.702  1.00  0.00    -0.454 OA
ENDBRANCH  12  13
ENDBRANCH   2  11
TORSDOF 3
ENDMDL
MODEL 8
REMARK VINA RESULT:    -6.620     14.864     15.882
REMARK INTER + INTRA:          -8.160
REMARK INTER:                  -7.772
REMARK INTRA:                  -0.388
REMARK UNBOUND:                -0.379
REMARK SMILES O=C(/C=C/C=C/c1ccc2c(c1)OCO2)N1CCCCC1
REMARK SMILES IDX 3 1 4 2 2 3 1 4 16 5 17 6 21 7 18 8 20 9 19 10 5 11 6 12
REMARK SMILES IDX 7 13 12 14 8 15 11 16 9 17 13 18 10 19 14 20 15 21
REMARK H PARENT
REMARK Flexibility Score: inf
ROOT
ATOM      1  C   UNL     1      81.892  89.986  87.196  1.00  0.00     0.071 C 
ATOM      2  C   UNL     1      83.040  90.518  87.612  1.00  0.00     0.006 C 
ENDROOT
BRANCH   1   3
ATOM      3  C   UNL     1      81.771  88.515  87.188  1.00  0.00     0.246 C 
ATOM      4  O   UNL     1      81.757  87.939  88.277  1.00  0.00    -0.270 OA
ATOM      5  N   UNL     1      81.686  87.877  85.952  1.00  0.00    -0.339 N 
ATOM      6  C   UNL     1      81.571  86.416  85.912  1.00  0.00     0.120 C 
ATOM      7  C   UNL     1      81.745  88.525  84.633  1.00  0.00     0.120 C 
ATOM      8  C   UNL     1      80.378  85.974  85.070  1.00  0.00     0.022 C 
ATOM      9  C   UNL     1      80.566  88.104  83.757  1.00  0.00     0.022 C 
ATOM     10  C   UNL     1      80.438  86.586  83.674  1.00  0.00     0.004 C 
ENDBRANCH   1   3
BRANCH   2  11
ATOM     11  C   UNL     1      83.254  91.949  87.655  1.00  0.00     0.001 C 
ATOM     12  C   UNL     1      82.486  92.777  88.382  1.00  0.00     0.008 C 
BRANCH  12  13
ATOM     13  C   UNL     1      82.654  94.238  88.455  1.00  0.00    -0.022 A 
ATOM     14  C   UNL     1      81.870  94.965  89.341  1.00  0.00     0.058 A 
ATOM     15  C   UNL     1      83.600  94.854  87.631  1.00  0.00     0.012 A 
ATOM     16  C   UNL     1      82.064  96.330  89.374  1.00  0.00     0.166 A 
ATOM     17  C   UNL     1      83.775  96.238  87.685  1.00  0.00     0.051 A 
ATOM     18  O   UNL     1      81.397  97.212  90.168  1.00  0.00    -0.454 OA
ATOM     19  C   UNL     1      82.991  96.950  88.568  1.00  0.00     0.165 A 
ATOM     20  C   UNL     1      82.009  98.456  89.771  1.00  0.00     0.468 C 
ATOM     21  O   UNL     1      83.021  98.298  88.757  1.00  0.00    -0.454 OA
ENDBRANCH  12  13
ENDBRANCH   2  11
TORSDOF 3
ENDMDL
MODEL 9
REMARK VINA RESULT:    -6.360     13.178     14.183
REMARK INTER + INTRA:          -7.855
REMARK INTER:                  -7.582
REMARK INTRA:                  -0.273
REMARK UNBOUND:                -0.379
REMARK SMILES O=C(/C=C/C=C/c1ccc2c(c1)OCO2)N1CCCCC1
REMARK SMILES IDX 3 1 4 2 2 3 1 4 16 5 17 6 21 7 18 8 20 9 19 10 5 11 6 12
REMARK SMILES IDX 7 13 12 14 8 15 11 16 9 17 13 18 10 19 14 20 15 21
REMARK H PARENT
REMARK Flexibility Score: inf
ROOT
ATOM      1  C   UNL     1      97.320  83.123  82.637  1.00  0.00     0.071 C 
ATOM      2  C   UNL     1      96.839  82.758  81.451  1.00  0.00     0.006 C 
ENDROOT
BRANCH   1   3
ATOM      3  C   UNL     1      96.414  83.068  83.802  1.00  0.00     0.246 C 
ATOM      4  O   UNL     1      95.864  84.115  84.145  1.00  0.00    -0.270 OA
ATOM      5  N   UNL     1      96.247  81.838  84.437  1.00  0.00    -0.339 N 
ATOM      6  C   UNL     1      95.358  81.753  85.600  1.00  0.00     0.120 C 
ATOM      7  C   UNL     1      96.921  80.580  84.085  1.00  0.00     0.120 C 
ATOM      8  C   UNL     1      94.322  80.648  85.428  1.00  0.00     0.022 C 
ATOM      9  C   UNL     1      95.914  79.444  83.908  1.00  0.00     0.022 C 
ATOM     10  C   UNL     1      94.993  79.313  85.117  1.00  0.00     0.004 C 
ENDBRANCH   1   3
BRANCH   2  11
ATOM     11  C   UNL     1      97.649  82.779  80.252  1.00  0.00     0.001 C 
ATOM     12  C   UNL     1      97.121  82.783  79.017  1.00  0.00     0.008 C 
BRANCH  12  13
ATOM     13  C   UNL     1      97.898  82.795  77.766  1.00  0.00    -0.022 A 
ATOM     14  C   UNL     1      99.274  82.624  77.824  1.00  0.00     0.058 A 
ATOM     15  C   UNL     1      97.227  82.980  76.555  1.00  0.00     0.012 A 
ATOM     16  C   UNL     1      99.958  82.643  76.626  1.00  0.00     0.166 A 
ATOM     17  C   UNL     1      97.944  82.995  75.356  1.00  0.00     0.051 A 
ATOM     18  O   UNL     1     101.302  82.494  76.472  1.00  0.00    -0.454 OA
ATOM     19  C   UNL     1      99.311  82.823  75.424  1.00  0.00     0.165 A 
ATOM     20  C   UNL     1     101.428  82.602  75.039  1.00  0.00     0.468 C 
ATOM     21  O   UNL     1     100.169  82.810  74.368  1.00  0.00    -0.454 OA
ENDBRANCH  12  13
ENDBRANCH   2  11
TORSDOF 3
ENDMDL
MODEL 10
REMARK VINA RESULT:    -6.301      3.212      9.181
REMARK INTER + INTRA:          -7.786
REMARK INTER:                  -7.438
REMARK INTRA:                  -0.348
REMARK UNBOUND:                -0.379
REMARK SMILES O=C(/C=C/C=C/c1ccc2c(c1)OCO2)N1CCCCC1
REMARK SMILES IDX 3 1 4 2 2 3 1 4 16 5 17 6 21 7 18 8 20 9 19 10 5 11 6 12
REMARK SMILES IDX 7 13 12 14 8 15 11 16 9 17 13 18 10 19 14 20 15 21
REMARK H PARENT
REMARK Flexibility Score: inf
ROOT
ATOM      1  C   UNL     1      96.017  95.578  77.376  1.00  0.00     0.071 C 
ATOM      2  C   UNL     1      95.632  94.358  77.745  1.00  0.00     0.006 C 
ENDROOT
BRANCH   1   3
ATOM      3  C   UNL     1      97.137  96.204  78.107  1.00  0.00     0.246 C 
ATOM      4  O   UNL     1      97.206  96.005  79.321  1.00  0.00    -0.270 OA
ATOM      5  N   UNL     1      98.035  96.981  77.378  1.00  0.00    -0.339 N 
ATOM      6  C   UNL     1      99.154  97.620  78.078  1.00  0.00     0.120 C 
ATOM      7  C   UNL     1      97.960  97.278  75.940  1.00  0.00     0.120 C 
ATOM      8  C   UNL     1     100.487  97.289  77.417  1.00  0.00     0.022 C 
ATOM      9  C   UNL     1      99.282  96.962  75.240  1.00  0.00     0.022 C 
ATOM     10  C   UNL     1     100.462  97.639  75.932  1.00  0.00     0.004 C 
ENDBRANCH   1   3
BRANCH   2  11
ATOM     11  C   UNL     1      94.545  93.663  77.089  1.00  0.00     0.001 C 
ATOM     12  C   UNL     1      93.254  93.914  77.358  1.00  0.00     0.008 C 
BRANCH  12  13
ATOM     13  C   UNL     1      92.111  93.232  76.728  1.00  0.00    -0.022 A 
ATOM     14  C   UNL     1      92.061  93.138  75.344  1.00  0.00     0.058 A 
ATOM     15  C   UNL     1      91.108  92.699  77.540  1.00  0.00     0.012 A 
ATOM     16  C   UNL     1      90.972  92.489  74.799  1.00  0.00     0.166 A 
ATOM     17  C   UNL     1      90.016  92.048  76.963  1.00  0.00     0.051 A 
ATOM     18  O   UNL     1      90.739  92.295  73.472  1.00  0.00    -0.454 OA
ATOM     19  C   UNL     1      89.976  91.959  75.587  1.00  0.00     0.165 A 
ATOM     20  C   UNL     1      89.486  91.583  73.513  1.00  0.00     0.468 C 
ATOM     21  O   UNL     1      88.996  91.366  74.852  1.00  0.00    -0.454 OA
ENDBRANCH  12  13
ENDBRANCH   2  11
TORSDOF 3
ENDMDL
