MODEL 1
REMARK VINA RESULT:    -5.666      0.000      0.000
REMARK INTER + INTRA:         -10.833
REMARK INTER:                  -9.476
REMARK INTRA:                  -1.358
REMARK UNBOUND:                -1.358
REMARK SMILES COc1cc(CNC(=O)CCCCCCCC(C)C)ccc1O
REMARK SMILES IDX 11 1 10 2 8 3 9 4 7 5 6 7 5 8 4 9 20 10 3 11 21 12 22 13
REMARK SMILES IDX 2 14 1 15 23 16 12 18 13 19 14 20 15 21 16 22 17 23 18 24
REMARK SMILES IDX 19 25
REMARK H PARENT 7 6 23 17
REMARK Flexibility Score: inf
ROOT
ATOM      1  C   UNL     1      76.452  86.535  67.506  1.00  0.00     0.010 C 
ENDROOT
BRANCH   1   2
ATOM      2  C   UNL     1      77.574  85.500  67.536  1.00  0.00     0.100 C 
BRANCH   2   3
ATOM      3  C   UNL     1      77.336  84.360  66.559  1.00  0.00     0.220 C 
ATOM      4  O   UNL     1      77.850  83.251  66.679  1.00  0.00    -0.275 OA
ATOM      5  N   UNL     1      76.485  84.739  65.532  1.00  0.00    -0.352 N 
ATOM      6  H   UNL     1      76.116  85.686  65.509  1.00  0.00     0.163 HD
BRANCH   5   7
ATOM      7  C   UNL     1      76.100  83.845  64.463  1.00  0.00     0.151 C 
BRANCH   7   8
ATOM      8  C   UNL     1      74.804  83.147  64.755  1.00  0.00    -0.025 A 
ATOM      9  C   UNL     1      73.696  83.889  65.147  1.00  0.00     0.056 A 
ATOM     10  C   UNL     1      74.725  81.766  64.630  1.00  0.00     0.009 A 
ATOM     11  C   UNL     1      72.492  83.240  65.418  1.00  0.00     0.160 A 
ATOM     12  C   UNL     1      73.520  81.116  64.901  1.00  0.00     0.050 A 
ATOM     13  C   UNL     1      72.403  81.853  65.296  1.00  0.00     0.157 A 
BRANCH  11  14
ATOM     14  O   UNL     1      71.408  83.971  65.803  1.00  0.00    -0.493 OA
ATOM     15  C   UNL     1      70.672  84.630  64.773  1.00  0.00     0.278 C 
ENDBRANCH  11  14
BRANCH  13  16
ATOM     16  O   UNL     1      71.232  81.208  65.557  1.00  0.00    -0.504 OA
ATOM     17  H   UNL     1      71.156  80.440  64.966  1.00  0.00     0.293 HD
ENDBRANCH  13  16
ENDBRANCH   7   8
ENDBRANCH   5   7
ENDBRANCH   2   3
ENDBRANCH   1   2
BRANCH   1  18
ATOM     18  C   UNL     1      76.915  87.925  67.062  1.00  0.00     0.001 C 
BRANCH  18  19
ATOM     19  C   UNL     1      76.400  88.392  65.697  1.00  0.00     0.000 C 
BRANCH  19  20
ATOM     20  C   UNL     1      76.052  89.883  65.659  1.00  0.00     0.000 C 
BRANCH  20  21
ATOM     21  C   UNL     1      74.874  90.258  66.564  1.00  0.00     0.000 C 
BRANCH  21  22
ATOM     22  C   UNL     1      75.243  91.277  67.648  1.00  0.00     0.003 C 
BRANCH  22  23
ATOM     23  C   UNL     1      75.276  90.679  69.068  1.00  0.00    -0.017 C 
ATOM     24  C   UNL     1      74.294  89.509  69.159  1.00  0.00     0.007 C 
ATOM     25  C   UNL     1      74.946  91.712  70.146  1.00  0.00     0.007 C 
ENDBRANCH  22  23
ENDBRANCH  21  22
ENDBRANCH  20  21
ENDBRANCH  19  20
ENDBRANCH  18  19
ENDBRANCH   1  18
TORSDOF 12
ENDMDL
MODEL 2
REMARK VINA RESULT:    -5.648     20.221     22.786
REMARK INTER + INTRA:         -10.802
REMARK INTER:                 -10.282
REMARK INTRA:                  -0.520
REMARK UNBOUND:                -1.358
REMARK SMILES COc1cc(CNC(=O)CCCCCCCC(C)C)ccc1O
REMARK SMILES IDX 11 1 10 2 8 3 9 4 7 5 6 7 5 8 4 9 20 10 3 11 21 12 22 13
REMARK SMILES IDX 2 14 1 15 23 16 12 18 13 19 14 20 15 21 16 22 17 23 18 24
REMARK SMILES IDX 19 25
REMARK H PARENT 7 6 23 17
REMARK Flexibility Score: inf
ROOT
ATOM      1  C   UNL     1      95.056  97.665  73.995  1.00  0.00     0.010 C 
ENDROOT
BRANCH   1   2
ATOM      2  C   UNL     1      95.535  98.183  72.641  1.00  0.00     0.100 C 
BRANCH   2   3
ATOM      3  C   UNL     1      94.860  99.486  72.247  1.00  0.00     0.220 C 
ATOM      4  O   UNL     1      95.246 100.587  72.630  1.00  0.00    -0.275 OA
ATOM      5  N   UNL     1      93.768  99.266  71.422  1.00  0.00    -0.352 N 
ATOM      6  H   UNL     1      93.516  98.315  71.165  1.00  0.00     0.163 HD
BRANCH   5   7
ATOM      7  C   UNL     1      92.944 100.336  70.909  1.00  0.00     0.151 C 
BRANCH   7   8
ATOM      8  C   UNL     1      91.714  99.819  70.223  1.00  0.00    -0.025 A 
ATOM      9  C   UNL     1      91.462 100.173  68.903  1.00  0.00     0.056 A 
ATOM     10  C   UNL     1      90.838  98.991  70.916  1.00  0.00     0.009 A 
ATOM     11  C   UNL     1      90.319  99.692  68.266  1.00  0.00     0.160 A 
ATOM     12  C   UNL     1      89.694  98.511  70.278  1.00  0.00     0.050 A 
ATOM     13  C   UNL     1      89.433  98.861  68.953  1.00  0.00     0.157 A 
BRANCH  11  14
ATOM     14  O   UNL     1      90.075 100.041  66.971  1.00  0.00    -0.493 OA
ATOM     15  C   UNL     1      89.154 101.108  66.751  1.00  0.00     0.278 C 
ENDBRANCH  11  14
BRANCH  13  16
ATOM     16  O   UNL     1      88.314  98.384  68.341  1.00  0.00    -0.504 OA
ATOM     17  H   UNL     1      87.709  98.034  69.018  1.00  0.00     0.293 HD
ENDBRANCH  13  16
ENDBRANCH   7   8
ENDBRANCH   5   7
ENDBRANCH   2   3
ENDBRANCH   1   2
BRANCH   1  18
ATOM     18  C   UNL     1      94.943  96.140  74.060  1.00  0.00     0.001 C 
BRANCH  18  19
ATOM     19  C   UNL     1      93.799  95.595  74.922  1.00  0.00     0.000 C 
BRANCH  19  20
ATOM     20  C   UNL     1      94.210  94.402  75.789  1.00  0.00     0.000 C 
BRANCH  20  21
ATOM     21  C   UNL     1      93.590  94.423  77.190  1.00  0.00     0.000 C 
BRANCH  21  22
ATOM     22  C   UNL     1      92.594  93.284  77.430  1.00  0.00     0.003 C 
BRANCH  22  23
ATOM     23  C   UNL     1      91.150  93.769  77.664  1.00  0.00    -0.017 C 
ATOM     24  C   UNL     1      90.204  92.568  77.729  1.00  0.00     0.007 C 
ATOM     25  C   UNL     1      90.675  94.739  76.582  1.00  0.00     0.007 C 
ENDBRANCH  22  23
ENDBRANCH  21  22
ENDBRANCH  20  21
ENDBRANCH  19  20
ENDBRANCH  18  19
ENDBRANCH   1  18
TORSDOF 12
ENDMDL
MODEL 3
REMARK VINA RESULT:    -5.482     19.488     22.349
REMARK INTER + INTRA:         -10.525
REMARK INTER:                  -9.750
REMARK INTRA:                  -0.775
REMARK UNBOUND:                -1.358
REMARK SMILES COc1cc(CNC(=O)CCCCCCCC(C)C)ccc1O
REMARK SMILES IDX 11 1 10 2 8 3 9 4 7 5 6 7 5 8 4 9 20 10 3 11 21 12 22 13
REMARK SMILES IDX 2 14 1 15 23 16 12 18 13 19 14 20 15 21 16 22 17 23 18 24
REMARK SMILES IDX 19 25
REMARK H PARENT 7 6 23 17
REMARK Flexibility Score: inf
ROOT
ATOM      1  C   UNL     1      92.115 100.053  71.533  1.00  0.00     0.010 C 
ENDROOT
BRANCH   1   2
ATOM      2  C   UNL     1      92.158  99.483  70.117  1.00  0.00     0.100 C 
BRANCH   2   3
ATOM      3  C   UNL     1      90.799  98.986  69.651  1.00  0.00     0.220 C 
ATOM      4  O   UNL     1      89.953  98.526  70.412  1.00  0.00    -0.275 OA
ATOM      5  N   UNL     1      90.653  99.114  68.278  1.00  0.00    -0.352 N 
ATOM      6  H   UNL     1      91.416  99.498  67.726  1.00  0.00     0.163 HD
BRANCH   5   7
ATOM      7  C   UNL     1      89.457  98.708  67.576  1.00  0.00     0.151 C 
BRANCH   7   8
ATOM      8  C   UNL     1      88.650  99.887  67.115  1.00  0.00    -0.025 A 
ATOM      9  C   UNL     1      89.226 101.151  67.098  1.00  0.00     0.056 A 
ATOM     10  C   UNL     1      87.334  99.701  66.711  1.00  0.00     0.009 A 
ATOM     11  C   UNL     1      88.476 102.246  66.670  1.00  0.00     0.160 A 
ATOM     12  C   UNL     1      86.583 100.797  66.283  1.00  0.00     0.050 A 
ATOM     13  C   UNL     1      87.153 102.069  66.263  1.00  0.00     0.157 A 
BRANCH  11  14
ATOM     14  O   UNL     1      89.044 103.484  66.655  1.00  0.00    -0.493 OA
ATOM     15  C   UNL     1      90.462 103.544  66.506  1.00  0.00     0.278 C 
ENDBRANCH  11  14
BRANCH  13  16
ATOM     16  O   UNL     1      86.410 103.131  65.843  1.00  0.00    -0.504 OA
ATOM     17  H   UNL     1      85.467 102.907  65.919  1.00  0.00     0.293 HD
ENDBRANCH  13  16
ENDBRANCH   7   8
ENDBRANCH   5   7
ENDBRANCH   2   3
ENDBRANCH   1   2
BRANCH   1  18
ATOM     18  C   UNL     1      93.486 100.485  72.059  1.00  0.00     0.001 C 
BRANCH  18  19
ATOM     19  C   UNL     1      93.925  99.840  73.378  1.00  0.00     0.000 C 
BRANCH  19  20
ATOM     20  C   UNL     1      93.310  98.457  73.610  1.00  0.00     0.000 C 
BRANCH  20  21
ATOM     21  C   UNL     1      94.351  97.342  73.753  1.00  0.00     0.000 C 
BRANCH  21  22
ATOM     22  C   UNL     1      94.383  96.717  75.151  1.00  0.00     0.003 C 
BRANCH  22  23
ATOM     23  C   UNL     1      93.365  95.575  75.337  1.00  0.00    -0.017 C 
ATOM     24  C   UNL     1      92.542  95.816  76.604  1.00  0.00     0.007 C 
ATOM     25  C   UNL     1      94.033  94.201  75.411  1.00  0.00     0.007 C 
ENDBRANCH  22  23
ENDBRANCH  21  22
ENDBRANCH  20  21
ENDBRANCH  19  20
ENDBRANCH  18  19
ENDBRANCH   1  18
TORSDOF 12
ENDMDL
MODEL 4
REMARK VINA RESULT:    -5.439     19.348     22.235
REMARK INTER + INTRA:         -10.453
REMARK INTER:                  -9.432
REMARK INTRA:                  -1.021
REMARK UNBOUND:                -1.358
REMARK SMILES COc1cc(CNC(=O)CCCCCCCC(C)C)ccc1O
REMARK SMILES IDX 11 1 10 2 8 3 9 4 7 5 6 7 5 8 4 9 20 10 3 11 21 12 22 13
REMARK SMILES IDX 2 14 1 15 23 16 12 18 13 19 14 20 15 21 16 22 17 23 18 24
REMARK SMILES IDX 19 25
REMARK H PARENT 7 6 23 17
REMARK Flexibility Score: inf
ROOT
ATOM      1  C   UNL     1      90.029  99.218  70.832  1.00  0.00     0.010 C 
ENDROOT
BRANCH   1   2
ATOM      2  C   UNL     1      89.761  97.849  70.211  1.00  0.00     0.100 C 
BRANCH   2   3
ATOM      3  C   UNL     1      89.718  97.900  68.693  1.00  0.00     0.220 C 
ATOM      4  O   UNL     1      90.515  97.303  67.975  1.00  0.00    -0.275 OA
ATOM      5  N   UNL     1      88.683  98.704  68.239  1.00  0.00    -0.352 N 
ATOM      6  H   UNL     1      88.078  99.170  68.910  1.00  0.00     0.163 HD
BRANCH   5   7
ATOM      7  C   UNL     1      88.424  98.931  66.836  1.00  0.00     0.151 C 
BRANCH   7   8
ATOM      8  C   UNL     1      87.927 100.323  66.575  1.00  0.00    -0.025 A 
ATOM      9  C   UNL     1      88.823 101.385  66.580  1.00  0.00     0.056 A 
ATOM     10  C   UNL     1      86.575 100.535  66.331  1.00  0.00     0.009 A 
ATOM     11  C   UNL     1      88.360 102.679  66.337  1.00  0.00     0.160 A 
ATOM     12  C   UNL     1      86.113 101.829  66.089  1.00  0.00     0.050 A 
ATOM     13  C   UNL     1      87.005 102.901  66.092  1.00  0.00     0.157 A 
BRANCH  11  14
ATOM     14  O   UNL     1      89.241 103.718  66.343  1.00  0.00    -0.493 OA
ATOM     15  C   UNL     1      90.205 103.744  67.396  1.00  0.00     0.278 C 
ENDBRANCH  11  14
BRANCH  13  16
ATOM     16  O   UNL     1      86.541 104.159  65.853  1.00  0.00    -0.504 OA
ATOM     17  H   UNL     1      87.284 104.786  65.907  1.00  0.00     0.293 HD
ENDBRANCH  13  16
ENDBRANCH   7   8
ENDBRANCH   5   7
ENDBRANCH   2   3
ENDBRANCH   1   2
BRANCH   1  18
ATOM     18  C   UNL     1      91.499  99.448  71.190  1.00  0.00     0.001 C 
BRANCH  18  19
ATOM     19  C   UNL     1      92.204 100.568  70.416  1.00  0.00     0.000 C 
BRANCH  19  20
ATOM     20  C   UNL     1      93.720 100.374  70.319  1.00  0.00     0.000 C 
BRANCH  20  21
ATOM     21  C   UNL     1      94.280  99.406  71.367  1.00  0.00     0.000 C 
BRANCH  21  22
ATOM     22  C   UNL     1      94.905 100.114  72.574  1.00  0.00     0.003 C 
BRANCH  22  23
ATOM     23  C   UNL     1      94.653  99.388  73.910  1.00  0.00    -0.017 C 
ATOM     24  C   UNL     1      95.981  98.897  74.490  1.00  0.00     0.007 C 
ATOM     25  C   UNL     1      93.688  98.210  73.764  1.00  0.00     0.007 C 
ENDBRANCH  22  23
ENDBRANCH  21  22
ENDBRANCH  20  21
ENDBRANCH  19  20
ENDBRANCH  18  19
ENDBRANCH   1  18
TORSDOF 12
ENDMDL
MODEL 5
REMARK VINA RESULT:    -5.309     14.491     17.837
REMARK INTER + INTRA:         -10.235
REMARK INTER:                  -9.208
REMARK INTRA:                  -1.027
REMARK UNBOUND:                -1.358
REMARK SMILES COc1cc(CNC(=O)CCCCCCCC(C)C)ccc1O
REMARK SMILES IDX 11 1 10 2 8 3 9 4 7 5 6 7 5 8 4 9 20 10 3 11 21 12 22 13
REMARK SMILES IDX 2 14 1 15 23 16 12 18 13 19 14 20 15 21 16 22 17 23 18 24
REMARK SMILES IDX 19 25
REMARK H PARENT 7 6 23 17
REMARK Flexibility Score: inf
ROOT
ATOM      1  C   UNL     1      58.121  87.264  70.422  1.00  0.00     0.010 C 
ENDROOT
BRANCH   1   2
ATOM      2  C   UNL     1      57.309  85.971  70.414  1.00  0.00     0.100 C 
BRANCH   2   3
ATOM      3  C   UNL     1      57.675  85.051  71.567  1.00  0.00     0.220 C 
ATOM      4  O   UNL     1      56.869  84.305  72.116  1.00  0.00    -0.275 OA
ATOM      5  N   UNL     1      59.013  85.173  71.911  1.00  0.00    -0.352 N 
ATOM      6  H   UNL     1      59.604  85.827  71.405  1.00  0.00     0.163 HD
BRANCH   5   7
ATOM      7  C   UNL     1      59.619  84.415  72.982  1.00  0.00     0.151 C 
BRANCH   7   8
ATOM      8  C   UNL     1      60.802  83.621  72.509  1.00  0.00    -0.025 A 
ATOM      9  C   UNL     1      61.327  83.858  71.244  1.00  0.00     0.056 A 
ATOM     10  C   UNL     1      61.360  82.658  73.340  1.00  0.00     0.009 A 
ATOM     11  C   UNL     1      62.426  83.120  70.804  1.00  0.00     0.160 A 
ATOM     12  C   UNL     1      62.459  81.920  72.900  1.00  0.00     0.050 A 
ATOM     13  C   UNL     1      62.992  82.150  71.632  1.00  0.00     0.157 A 
BRANCH  11  14
ATOM     14  O   UNL     1      62.938  83.354  69.563  1.00  0.00    -0.493 OA
ATOM     15  C   UNL     1      62.215  82.822  68.454  1.00  0.00     0.278 C 
ENDBRANCH  11  14
BRANCH  13  16
ATOM     16  O   UNL     1      64.066  81.424  71.214  1.00  0.00    -0.504 OA
ATOM     17  H   UNL     1      63.797  80.496  71.105  1.00  0.00     0.293 HD
ENDBRANCH  13  16
ENDBRANCH   7   8
ENDBRANCH   5   7
ENDBRANCH   2   3
ENDBRANCH   1   2
BRANCH   1  18
ATOM     18  C   UNL     1      57.359  88.466  69.857  1.00  0.00     0.001 C 
BRANCH  18  19
ATOM     19  C   UNL     1      55.857  88.258  69.637  1.00  0.00     0.000 C 
BRANCH  19  20
ATOM     20  C   UNL     1      55.027  89.517  69.900  1.00  0.00     0.000 C 
BRANCH  20  21
ATOM     21  C   UNL     1      53.688  89.531  69.153  1.00  0.00     0.000 C 
BRANCH  21  22
ATOM     22  C   UNL     1      53.620  88.512  68.010  1.00  0.00     0.003 C 
BRANCH  22  23
ATOM     23  C   UNL     1      53.563  89.160  66.613  1.00  0.00    -0.017 C 
ATOM     24  C   UNL     1      54.928  89.039  65.931  1.00  0.00     0.007 C 
ATOM     25  C   UNL     1      53.142  90.629  66.664  1.00  0.00     0.007 C 
ENDBRANCH  22  23
ENDBRANCH  21  22
ENDBRANCH  20  21
ENDBRANCH  19  20
ENDBRANCH  18  19
ENDBRANCH   1  18
TORSDOF 12
ENDMDL
MODEL 6
REMARK VINA RESULT:    -5.289     23.866     26.429
REMARK INTER + INTRA:         -10.203
REMARK INTER:                  -9.039
REMARK INTRA:                  -1.164
REMARK UNBOUND:                -1.358
REMARK SMILES COc1cc(CNC(=O)CCCCCCCC(C)C)ccc1O
REMARK SMILES IDX 11 1 10 2 8 3 9 4 7 5 6 7 5 8 4 9 20 10 3 11 21 12 22 13
REMARK SMILES IDX 2 14 1 15 23 16 12 18 13 19 14 20 15 21 16 22 17 23 18 24
REMARK SMILES IDX 19 25
REMARK H PARENT 7 6 23 17
REMARK Flexibility Score: inf
ROOT
ATOM      1  C   UNL     1      97.049  81.701  82.056  1.00  0.00     0.010 C 
ENDROOT
BRANCH   1   2
ATOM      2  C   UNL     1      97.144  80.176  82.077  1.00  0.00     0.100 C 
BRANCH   2   3
ATOM      3  C   UNL     1      97.353  79.590  80.690  1.00  0.00     0.220 C 
ATOM      4  O   UNL     1      97.230  78.395  80.438  1.00  0.00    -0.275 OA
ATOM      5  N   UNL     1      97.702  80.569  79.771  1.00  0.00    -0.352 N 
ATOM      6  H   UNL     1      97.792  81.534  80.075  1.00  0.00     0.163 HD
BRANCH   5   7
ATOM      7  C   UNL     1      97.966  80.278  78.381  1.00  0.00     0.151 C 
BRANCH   7   8
ATOM      8  C   UNL     1      97.312  81.272  77.466  1.00  0.00    -0.025 A 
ATOM      9  C   UNL     1      97.693  81.333  76.131  1.00  0.00     0.056 A 
ATOM     10  C   UNL     1      96.332  82.122  77.963  1.00  0.00     0.009 A 
ATOM     11  C   UNL     1      97.085  82.256  75.281  1.00  0.00     0.160 A 
ATOM     12  C   UNL     1      95.725  83.047  77.113  1.00  0.00     0.050 A 
ATOM     13  C   UNL     1      96.101  83.114  75.772  1.00  0.00     0.157 A 
BRANCH  11  14
ATOM     14  O   UNL     1      97.462  82.313  73.972  1.00  0.00    -0.493 OA
ATOM     15  C   UNL     1      98.857  82.444  73.705  1.00  0.00     0.278 C 
ENDBRANCH  11  14
BRANCH  13  16
ATOM     16  O   UNL     1      95.500  84.020  74.952  1.00  0.00    -0.504 OA
ATOM     17  H   UNL     1      94.938  83.546  74.314  1.00  0.00     0.293 HD
ENDBRANCH  13  16
ENDBRANCH   7   8
ENDBRANCH   5   7
ENDBRANCH   2   3
ENDBRANCH   1   2
BRANCH   1  18
ATOM     18  C   UNL     1      95.755  82.240  82.673  1.00  0.00     0.001 C 
BRANCH  18  19
ATOM     19  C   UNL     1      95.893  83.538  83.476  1.00  0.00     0.000 C 
BRANCH  19  20
ATOM     20  C   UNL     1      95.507  83.383  84.949  1.00  0.00     0.000 C 
BRANCH  20  21
ATOM     21  C   UNL     1      95.511  81.927  85.430  1.00  0.00     0.000 C 
BRANCH  21  22
ATOM     22  C   UNL     1      94.324  81.586  86.337  1.00  0.00     0.003 C 
BRANCH  22  23
ATOM     23  C   UNL     1      93.327  80.599  85.699  1.00  0.00    -0.017 C 
ATOM     24  C   UNL     1      92.468  81.329  84.663  1.00  0.00     0.007 C 
ATOM     25  C   UNL     1      92.424  79.927  86.733  1.00  0.00     0.007 C 
ENDBRANCH  22  23
ENDBRANCH  21  22
ENDBRANCH  20  21
ENDBRANCH  19  20
ENDBRANCH  18  19
ENDBRANCH   1  18
TORSDOF 12
ENDMDL
MODEL 7
REMARK VINA RESULT:    -5.080     21.212     23.277
REMARK INTER + INTRA:          -9.854
REMARK INTER:                  -7.591
REMARK INTRA:                  -2.263
REMARK UNBOUND:                -1.358
REMARK SMILES COc1cc(CNC(=O)CCCCCCCC(C)C)ccc1O
REMARK SMILES IDX 11 1 10 2 8 3 9 4 7 5 6 7 5 8 4 9 20 10 3 11 21 12 22 13
REMARK SMILES IDX 2 14 1 15 23 16 12 18 13 19 14 20 15 21 16 22 17 23 18 24
REMARK SMILES IDX 19 25
REMARK H PARENT 7 6 23 17
REMARK Flexibility Score: inf
ROOT
ATOM      1  C   UNL     1      80.948  64.663  68.702  1.00  0.00     0.010 C 
ENDROOT
BRANCH   1   2
ATOM      2  C   UNL     1      82.104  64.112  67.870  1.00  0.00     0.100 C 
BRANCH   2   3
ATOM      3  C   UNL     1      83.445  64.268  68.568  1.00  0.00     0.220 C 
ATOM      4  O   UNL     1      84.457  64.669  68.000  1.00  0.00    -0.275 OA
ATOM      5  N   UNL     1      83.371  63.896  69.902  1.00  0.00    -0.352 N 
ATOM      6  H   UNL     1      82.489  63.565  70.283  1.00  0.00     0.163 HD
BRANCH   5   7
ATOM      7  C   UNL     1      84.509  63.941  70.791  1.00  0.00     0.151 C 
BRANCH   7   8
ATOM      8  C   UNL     1      84.378  65.031  71.815  1.00  0.00    -0.025 A 
ATOM      9  C   UNL     1      84.220  64.700  73.156  1.00  0.00     0.056 A 
ATOM     10  C   UNL     1      84.416  66.360  71.412  1.00  0.00     0.009 A 
ATOM     11  C   UNL     1      84.099  65.712  74.107  1.00  0.00     0.160 A 
ATOM     12  C   UNL     1      84.294  67.373  72.364  1.00  0.00     0.050 A 
ATOM     13  C   UNL     1      84.135  67.050  73.711  1.00  0.00     0.157 A 
BRANCH  11  14
ATOM     14  O   UNL     1      83.943  65.384  75.420  1.00  0.00    -0.493 OA
ATOM     15  C   UNL     1      83.814  63.997  75.730  1.00  0.00     0.278 C 
ENDBRANCH  11  14
BRANCH  13  16
ATOM     16  O   UNL     1      84.018  68.047  74.631  1.00  0.00    -0.504 OA
ATOM     17  H   UNL     1      83.779  68.872  74.174  1.00  0.00     0.293 HD
ENDBRANCH  13  16
ENDBRANCH   7   8
ENDBRANCH   5   7
ENDBRANCH   2   3
ENDBRANCH   1   2
BRANCH   1  18
ATOM     18  C   UNL     1      81.027  66.175  68.932  1.00  0.00     0.001 C 
BRANCH  18  19
ATOM     19  C   UNL     1      80.749  66.645  70.363  1.00  0.00     0.000 C 
BRANCH  19  20
ATOM     20  C   UNL     1      80.884  65.529  71.403  1.00  0.00     0.000 C 
BRANCH  20  21
ATOM     21  C   UNL     1      80.650  66.005  72.841  1.00  0.00     0.000 C 
BRANCH  21  22
ATOM     22  C   UNL     1      80.454  64.856  73.836  1.00  0.00     0.003 C 
BRANCH  22  23
ATOM     23  C   UNL     1      79.934  65.316  75.212  1.00  0.00    -0.017 C 
ATOM     24  C   UNL     1      80.686  66.573  75.655  1.00  0.00     0.007 C 
ATOM     25  C   UNL     1      80.068  64.232  76.282  1.00  0.00     0.007 C 
ENDBRANCH  22  23
ENDBRANCH  21  22
ENDBRANCH  20  21
ENDBRANCH  19  20
ENDBRANCH  18  19
ENDBRANCH   1  18
TORSDOF 12
ENDMDL
MODEL 8
REMARK VINA RESULT:    -5.048     24.120     27.141
REMARK INTER + INTRA:          -9.799
REMARK INTER:                  -8.085
REMARK INTRA:                  -1.714
REMARK UNBOUND:                -1.358
REMARK SMILES COc1cc(CNC(=O)CCCCCCCC(C)C)ccc1O
REMARK SMILES IDX 11 1 10 2 8 3 9 4 7 5 6 7 5 8 4 9 20 10 3 11 21 12 22 13
REMARK SMILES IDX 2 14 1 15 23 16 12 18 13 19 14 20 15 21 16 22 17 23 18 24
REMARK SMILES IDX 19 25
REMARK H PARENT 7 6 23 17
REMARK Flexibility Score: inf
ROOT
ATOM      1  C   UNL     1     101.488  79.732  77.658  1.00  0.00     0.010 C 
ENDROOT
BRANCH   1   2
ATOM      2  C   UNL     1     101.288  78.708  76.543  1.00  0.00     0.100 C 
BRANCH   2   3
ATOM      3  C   UNL     1      99.841  78.624  76.088  1.00  0.00     0.220 C 
ATOM      4  O   UNL     1      99.484  78.011  75.085  1.00  0.00    -0.275 OA
ATOM      5  N   UNL     1      98.998  79.326  76.937  1.00  0.00    -0.352 N 
ATOM      6  H   UNL     1      99.386  79.814  77.739  1.00  0.00     0.163 HD
BRANCH   5   7
ATOM      7  C   UNL     1      97.571  79.414  76.727  1.00  0.00     0.151 C 
BRANCH   7   8
ATOM      8  C   UNL     1      97.132  80.819  76.434  1.00  0.00    -0.025 A 
ATOM      9  C   UNL     1      97.492  81.415  75.231  1.00  0.00     0.056 A 
ATOM     10  C   UNL     1      96.371  81.510  77.369  1.00  0.00     0.009 A 
ATOM     11  C   UNL     1      97.084  82.721  74.959  1.00  0.00     0.160 A 
ATOM     12  C   UNL     1      95.964  82.816  77.097  1.00  0.00     0.050 A 
ATOM     13  C   UNL     1      96.320  83.422  75.892  1.00  0.00     0.157 A 
BRANCH  11  14
ATOM     14  O   UNL     1      97.439  83.302  73.779  1.00  0.00    -0.493 OA
ATOM     15  C   UNL     1      98.828  83.560  73.576  1.00  0.00     0.278 C 
ENDBRANCH  11  14
BRANCH  13  16
ATOM     16  O   UNL     1      95.916  84.698  75.638  1.00  0.00    -0.504 OA
ATOM     17  H   UNL     1      95.121  84.889  76.166  1.00  0.00     0.293 HD
ENDBRANCH  13  16
ENDBRANCH   7   8
ENDBRANCH   5   7
ENDBRANCH   2   3
ENDBRANCH   1   2
BRANCH   1  18
ATOM     18  C   UNL     1     102.009  79.121  78.962  1.00  0.00     0.001 C 
BRANCH  18  19
ATOM     19  C   UNL     1     101.538  79.804  80.250  1.00  0.00     0.000 C 
BRANCH  19  20
ATOM     20  C   UNL     1     100.458  79.013  80.995  1.00  0.00     0.000 C 
BRANCH  20  21
ATOM     21  C   UNL     1      99.057  79.184  80.398  1.00  0.00     0.000 C 
BRANCH  21  22
ATOM     22  C   UNL     1      98.568  80.636  80.404  1.00  0.00     0.003 C 
BRANCH  22  23
ATOM     23  C   UNL     1      97.379  80.880  81.353  1.00  0.00    -0.017 C 
ATOM     24  C   UNL     1      96.688  82.196  80.989  1.00  0.00     0.007 C 
ATOM     25  C   UNL     1      97.798  80.909  82.823  1.00  0.00     0.007 C 
ENDBRANCH  22  23
ENDBRANCH  21  22
ENDBRANCH  20  21
ENDBRANCH  19  20
ENDBRANCH  18  19
ENDBRANCH   1  18
TORSDOF 12
ENDMDL
MODEL 9
REMARK VINA RESULT:    -5.041     24.036     26.649
REMARK INTER + INTRA:          -9.787
REMARK INTER:                  -8.099
REMARK INTRA:                  -1.688
REMARK UNBOUND:                -1.358
REMARK SMILES COc1cc(CNC(=O)CCCCCCCC(C)C)ccc1O
REMARK SMILES IDX 11 1 10 2 8 3 9 4 7 5 6 7 5 8 4 9 20 10 3 11 21 12 22 13
REMARK SMILES IDX 2 14 1 15 23 16 12 18 13 19 14 20 15 21 16 22 17 23 18 24
REMARK SMILES IDX 19 25
REMARK H PARENT 7 6 23 17
REMARK Flexibility Score: inf
ROOT
ATOM      1  C   UNL     1     102.885  79.190  74.538  1.00  0.00     0.010 C 
ENDROOT
BRANCH   1   2
ATOM      2  C   UNL     1     103.497  79.836  73.297  1.00  0.00     0.100 C 
BRANCH   2   3
ATOM      3  C   UNL     1     102.445  80.242  72.278  1.00  0.00     0.220 C 
ATOM      4  O   UNL     1     102.637  81.094  71.415  1.00  0.00    -0.275 OA
ATOM      5  N   UNL     1     101.263  79.540  72.459  1.00  0.00    -0.352 N 
ATOM      6  H   UNL     1     101.193  78.859  73.210  1.00  0.00     0.163 HD
BRANCH   5   7
ATOM      7  C   UNL     1     100.098  79.741  71.628  1.00  0.00     0.151 C 
BRANCH   7   8
ATOM      8  C   UNL     1      99.060  80.584  72.311  1.00  0.00    -0.025 A 
ATOM      9  C   UNL     1      99.333  81.917  72.593  1.00  0.00     0.056 A 
ATOM     10  C   UNL     1      97.837  80.022  72.655  1.00  0.00     0.009 A 
ATOM     11  C   UNL     1      98.369  82.699  73.228  1.00  0.00     0.160 A 
ATOM     12  C   UNL     1      96.872  80.805  73.291  1.00  0.00     0.050 A 
ATOM     13  C   UNL     1      97.138  82.143  73.578  1.00  0.00     0.157 A 
BRANCH  11  14
ATOM     14  O   UNL     1      98.640  84.006  73.504  1.00  0.00    -0.493 OA
ATOM     15  C   UNL     1      99.907  84.508  73.079  1.00  0.00     0.278 C 
ENDBRANCH  11  14
BRANCH  13  16
ATOM     16  O   UNL     1      96.188  82.897  74.197  1.00  0.00    -0.504 OA
ATOM     17  H   UNL     1      95.854  83.562  73.571  1.00  0.00     0.293 HD
ENDBRANCH  13  16
ENDBRANCH   7   8
ENDBRANCH   5   7
ENDBRANCH   2   3
ENDBRANCH   1   2
BRANCH   1  18
ATOM     18  C   UNL     1     102.502  80.198  75.625  1.00  0.00     0.001 C 
BRANCH  18  19
ATOM     19  C   UNL     1     101.263  79.843  76.454  1.00  0.00     0.000 C 
BRANCH  19  20
ATOM     20  C   UNL     1      99.983  80.514  75.945  1.00  0.00     0.000 C 
BRANCH  20  21
ATOM     21  C   UNL     1      98.833  80.478  76.957  1.00  0.00     0.000 C 
BRANCH  21  22
ATOM     22  C   UNL     1      98.048  81.792  77.031  1.00  0.00     0.003 C 
BRANCH  22  23
ATOM     23  C   UNL     1      96.844  81.736  77.990  1.00  0.00    -0.017 C 
ATOM     24  C   UNL     1      95.789  82.758  77.558  1.00  0.00     0.007 C 
ATOM     25  C   UNL     1      97.241  81.992  79.445  1.00  0.00     0.007 C 
ENDBRANCH  22  23
ENDBRANCH  21  22
ENDBRANCH  20  21
ENDBRANCH  19  20
ENDBRANCH  18  19
ENDBRANCH   1  18
TORSDOF 12
ENDMDL
MODEL 10
REMARK VINA RESULT:    -4.896     11.551     14.675
REMARK INTER + INTRA:          -9.545
REMARK INTER:                  -7.529
REMARK INTRA:                  -2.016
REMARK UNBOUND:                -1.358
REMARK SMILES COc1cc(CNC(=O)CCCCCCCC(C)C)ccc1O
REMARK SMILES IDX 11 1 10 2 8 3 9 4 7 5 6 7 5 8 4 9 20 10 3 11 21 12 22 13
REMARK SMILES IDX 2 14 1 15 23 16 12 18 13 19 14 20 15 21 16 22 17 23 18 24
REMARK SMILES IDX 19 25
REMARK H PARENT 7 6 23 17
REMARK Flexibility Score: inf
ROOT
ATOM      1  C   UNL     1      64.816  81.685  70.518  1.00  0.00     0.010 C 
ENDROOT
BRANCH   1   2
ATOM      2  C   UNL     1      65.191  83.022  69.883  1.00  0.00     0.100 C 
BRANCH   2   3
ATOM      3  C   UNL     1      64.177  83.475  68.845  1.00  0.00     0.220 C 
ATOM      4  O   UNL     1      63.895  82.818  67.847  1.00  0.00    -0.275 OA
ATOM      5  N   UNL     1      63.631  84.708  69.171  1.00  0.00    -0.352 N 
ATOM      6  H   UNL     1      63.935  85.184  70.016  1.00  0.00     0.163 HD
BRANCH   5   7
ATOM      7  C   UNL     1      62.646  85.370  68.347  1.00  0.00     0.151 C 
BRANCH   7   8
ATOM      8  C   UNL     1      61.387  85.669  69.108  1.00  0.00    -0.025 A 
ATOM      9  C   UNL     1      60.803  86.926  69.004  1.00  0.00     0.056 A 
ATOM     10  C   UNL     1      60.819  84.686  69.909  1.00  0.00     0.009 A 
ATOM     11  C   UNL     1      59.633  87.203  69.712  1.00  0.00     0.160 A 
ATOM     12  C   UNL     1      59.649  84.964  70.617  1.00  0.00     0.050 A 
ATOM     13  C   UNL     1      59.056  86.222  70.519  1.00  0.00     0.157 A 
BRANCH  11  14
ATOM     14  O   UNL     1      59.063  88.437  69.608  1.00  0.00    -0.493 OA
ATOM     15  C   UNL     1      59.369  89.195  68.439  1.00  0.00     0.278 C 
ENDBRANCH  11  14
BRANCH  13  16
ATOM     16  O   UNL     1      57.914  86.481  71.214  1.00  0.00    -0.504 OA
ATOM     17  H   UNL     1      57.155  86.424  70.608  1.00  0.00     0.293 HD
ENDBRANCH  13  16
ENDBRANCH   7   8
ENDBRANCH   5   7
ENDBRANCH   2   3
ENDBRANCH   1   2
BRANCH   1  18
ATOM     18  C   UNL     1      63.422  81.680  71.151  1.00  0.00     0.001 C 
BRANCH  18  19
ATOM     19  C   UNL     1      63.365  81.285  72.630  1.00  0.00     0.000 C 
BRANCH  19  20
ATOM     20  C   UNL     1      61.946  81.294  73.205  1.00  0.00     0.000 C 
BRANCH  20  21
ATOM     21  C   UNL     1      61.721  82.386  74.257  1.00  0.00     0.000 C 
BRANCH  21  22
ATOM     22  C   UNL     1      61.493  83.774  73.652  1.00  0.00     0.003 C 
BRANCH  22  23
ATOM     23  C   UNL     1      62.605  84.784  73.995  1.00  0.00    -0.017 C 
ATOM     24  C   UNL     1      63.473  85.038  72.760  1.00  0.00     0.007 C 
ATOM     25  C   UNL     1      63.486  84.315  75.154  1.00  0.00     0.007 C 
ENDBRANCH  22  23
ENDBRANCH  21  22
ENDBRANCH  20  21
ENDBRANCH  19  20
ENDBRANCH  18  19
ENDBRANCH   1  18
TORSDOF 12
ENDMDL
