MODEL 1
REMARK VINA RESULT:    -6.657      0.000      0.000
REMARK INTER + INTRA:         -11.390
REMARK INTER:                 -10.353
REMARK INTRA:                  -1.036
REMARK UNBOUND:                -1.036
REMARK SMILES COc1cc(CNC(=O)CCCC/C=C/C(C)C)ccc1O
REMARK SMILES IDX 10 1 8 2 7 3 9 5 6 6 5 7 3 8 21 9 4 10 20 11 19 12 2 13 1 14
REMARK SMILES IDX 22 15 11 17 12 18 13 19 14 20 15 21 16 22 17 23 18 24
REMARK H PARENT 7 4 22 16
REMARK Flexibility Score: inf
ROOT
ATOM      1  C   UNL     1      92.278  93.226  78.336  1.00  0.00     0.100 C 
ENDROOT
BRANCH   1   2
ATOM      2  C   UNL     1      93.742  93.168  78.513  1.00  0.00     0.220 C 
ATOM      3  N   UNL     1      94.281  92.924  79.740  1.00  0.00    -0.352 N 
ATOM      4  H   UNL     1      93.609  92.817  80.488  1.00  0.00     0.163 HD
ATOM      5  O   UNL     1      94.467  93.325  77.501  1.00  0.00    -0.275 OA
BRANCH   3   6
ATOM      6  C   UNL     1      95.679  92.816  80.010  1.00  0.00     0.151 C 
BRANCH   6   7
ATOM      7  C   UNL     1      96.328  94.154  80.073  1.00  0.00    -0.025 A 
ATOM      8  C   UNL     1      96.564  96.358  81.146  1.00  0.00     0.160 A 
ATOM      9  C   UNL     1      97.569  96.703  80.219  1.00  0.00     0.157 A 
ATOM     10  C   UNL     1      95.952  95.090  81.063  1.00  0.00     0.056 A 
ATOM     11  C   UNL     1      97.940  95.788  79.213  1.00  0.00     0.050 A 
ATOM     12  C   UNL     1      97.332  94.519  79.146  1.00  0.00     0.009 A 
BRANCH   8  13
ATOM     13  O   UNL     1      96.152  97.269  82.085  1.00  0.00    -0.493 OA
ATOM     14  C   UNL     1      96.778  97.109  83.372  1.00  0.00     0.278 C 
ENDBRANCH   8  13
BRANCH   9  15
ATOM     15  O   UNL     1      98.187  97.910  80.279  1.00  0.00    -0.504 OA
ATOM     16  H   UNL     1      98.164  98.326  79.414  1.00  0.00     0.293 HD
ENDBRANCH   9  15
ENDBRANCH   6   7
ENDBRANCH   3   6
ENDBRANCH   1   2
BRANCH   1  17
ATOM     17  C   UNL     1      91.864  92.899  76.876  1.00  0.00     0.010 C 
BRANCH  17  18
ATOM     18  C   UNL     1      91.149  94.085  76.170  1.00  0.00     0.005 C 
BRANCH  18  19
ATOM     19  C   UNL     1      91.341  95.426  76.928  1.00  0.00     0.027 C 
BRANCH  19  20
ATOM     20  C   UNL     1      92.487  96.175  76.435  1.00  0.00    -0.031 C 
ATOM     21  C   UNL     1      93.098  95.936  75.260  1.00  0.00    -0.028 C 
BRANCH  21  22
ATOM     22  C   UNL     1      94.237  96.715  74.775  1.00  0.00     0.005 C 
ATOM     23  C   UNL     1      95.221  95.857  73.932  1.00  0.00     0.012 C 
ATOM     24  C   UNL     1      93.743  97.943  73.968  1.00  0.00     0.012 C 
ENDBRANCH  21  22
ENDBRANCH  19  20
ENDBRANCH  18  19
ENDBRANCH  17  18
ENDBRANCH   1  17
TORSDOF 10
ENDMDL
MODEL 2
REMARK VINA RESULT:    -6.149     12.907     15.322
REMARK INTER + INTRA:         -10.600
REMARK INTER:                  -9.768
REMARK INTRA:                  -0.832
REMARK UNBOUND:                -1.036
REMARK SMILES COc1cc(CNC(=O)CCCC/C=C/C(C)C)ccc1O
REMARK SMILES IDX 10 1 8 2 7 3 9 5 6 6 5 7 3 8 21 9 4 10 20 11 19 12 2 13 1 14
REMARK SMILES IDX 22 15 11 17 12 18 13 19 14 20 15 21 16 22 17 23 18 24
REMARK H PARENT 7 4 22 16
REMARK Flexibility Score: inf
ROOT
ATOM      1  C   UNL     1      97.176  80.901  82.323  1.00  0.00     0.100 C 
ENDROOT
BRANCH   1   2
ATOM      2  C   UNL     1      97.545  80.511  80.948  1.00  0.00     0.220 C 
ATOM      3  N   UNL     1      98.220  81.377  80.141  1.00  0.00    -0.352 N 
ATOM      4  H   UNL     1      98.411  82.281  80.551  1.00  0.00     0.163 HD
ATOM      5  O   UNL     1      97.242  79.357  80.559  1.00  0.00    -0.275 OA
BRANCH   3   6
ATOM      6  C   UNL     1      98.651  81.085  78.811  1.00  0.00     0.151 C 
BRANCH   6   7
ATOM      7  C   UNL     1      97.791  81.757  77.799  1.00  0.00    -0.025 A 
ATOM      8  C   UNL     1      97.454  82.582  75.504  1.00  0.00     0.160 A 
ATOM      9  C   UNL     1      96.159  83.020  75.850  1.00  0.00     0.157 A 
ATOM     10  C   UNL     1      98.258  81.958  76.480  1.00  0.00     0.056 A 
ATOM     11  C   UNL     1      95.687  82.844  77.166  1.00  0.00     0.050 A 
ATOM     12  C   UNL     1      96.493  82.209  78.132  1.00  0.00     0.009 A 
BRANCH   8  13
ATOM     13  O   UNL     1      97.942  82.810  74.242  1.00  0.00    -0.493 OA
ATOM     14  C   UNL     1      99.271  82.302  74.026  1.00  0.00     0.278 C 
ENDBRANCH   8  13
BRANCH   9  15
ATOM     15  O   UNL     1      95.354  83.612  74.931  1.00  0.00    -0.504 OA
ATOM     16  H   UNL     1      95.861  83.806  74.139  1.00  0.00     0.293 HD
ENDBRANCH   9  15
ENDBRANCH   6   7
ENDBRANCH   3   6
ENDBRANCH   1   2
BRANCH   1  17
ATOM     17  C   UNL     1      97.087  82.444  82.475  1.00  0.00     0.010 C 
BRANCH  17  18
ATOM     18  C   UNL     1      95.728  82.916  83.064  1.00  0.00     0.005 C 
BRANCH  18  19
ATOM     19  C   UNL     1      95.736  82.947  84.616  1.00  0.00     0.027 C 
BRANCH  19  20
ATOM     20  C   UNL     1      94.705  82.093  85.186  1.00  0.00    -0.031 C 
ATOM     21  C   UNL     1      93.683  81.570  84.483  1.00  0.00    -0.028 C 
BRANCH  21  22
ATOM     22  C   UNL     1      92.668  80.697  85.073  1.00  0.00     0.005 C 
ATOM     23  C   UNL     1      92.859  80.523  86.605  1.00  0.00     0.012 C 
ATOM     24  C   UNL     1      91.249  81.231  84.749  1.00  0.00     0.012 C 
ENDBRANCH  21  22
ENDBRANCH  19  20
ENDBRANCH  18  19
ENDBRANCH  17  18
ENDBRANCH   1  17
TORSDOF 10
ENDMDL
MODEL 3
REMARK VINA RESULT:    -6.129      6.274     11.007
REMARK INTER + INTRA:         -10.569
REMARK INTER:                  -9.903
REMARK INTRA:                  -0.665
REMARK UNBOUND:                -1.036
REMARK SMILES COc1cc(CNC(=O)CCCC/C=C/C(C)C)ccc1O
REMARK SMILES IDX 10 1 8 2 7 3 9 5 6 6 5 7 3 8 21 9 4 10 20 11 19 12 2 13 1 14
REMARK SMILES IDX 22 15 11 17 12 18 13 19 14 20 15 21 16 22 17 23 18 24
REMARK H PARENT 7 4 22 16
REMARK Flexibility Score: inf
ROOT
ATOM      1  C   UNL     1      93.760  98.595  73.494  1.00  0.00     0.100 C 
ENDROOT
BRANCH   1   2
ATOM      2  C   UNL     1      93.454  99.271  72.218  1.00  0.00     0.220 C 
ATOM      3  N   UNL     1      92.268  99.919  72.047  1.00  0.00    -0.352 N 
ATOM      4  H   UNL     1      91.637  99.871  72.836  1.00  0.00     0.163 HD
ATOM      5  O   UNL     1      94.323  99.251  71.314  1.00  0.00    -0.275 OA
BRANCH   3   6
ATOM      6  C   UNL     1      91.889 100.629  70.867  1.00  0.00     0.151 C 
BRANCH   6   7
ATOM      7  C   UNL     1      91.077  99.779  69.955  1.00  0.00    -0.025 A 
ATOM      8  C   UNL     1      90.271  99.256  67.688  1.00  0.00     0.160 A 
ATOM      9  C   UNL     1      89.549  98.157  68.197  1.00  0.00     0.157 A 
ATOM     10  C   UNL     1      91.025 100.057  68.570  1.00  0.00     0.056 A 
ATOM     11  C   UNL     1      89.576  97.879  69.578  1.00  0.00     0.050 A 
ATOM     12  C   UNL     1      90.341  98.677  70.450  1.00  0.00     0.009 A 
BRANCH   8  13
ATOM     13  O   UNL     1      90.195  99.570  66.355  1.00  0.00    -0.493 OA
ATOM     14  C   UNL     1      91.007 100.694  65.969  1.00  0.00     0.278 C 
ENDBRANCH   8  13
BRANCH   9  15
ATOM     15  O   UNL     1      88.823  97.358  67.373  1.00  0.00    -0.504 OA
ATOM     16  H   UNL     1      88.719  96.492  67.776  1.00  0.00     0.293 HD
ENDBRANCH   9  15
ENDBRANCH   6   7
ENDBRANCH   3   6
ENDBRANCH   1   2
BRANCH   1  17
ATOM     17  C   UNL     1      95.059  97.750  73.396  1.00  0.00     0.010 C 
BRANCH  17  18
ATOM     18  C   UNL     1      95.341  96.923  74.682  1.00  0.00     0.005 C 
BRANCH  18  19
ATOM     19  C   UNL     1      94.742  95.492  74.607  1.00  0.00     0.027 C 
BRANCH  19  20
ATOM     20  C   UNL     1      93.701  95.282  75.601  1.00  0.00    -0.031 C 
ATOM     21  C   UNL     1      93.062  94.113  75.791  1.00  0.00    -0.028 C 
BRANCH  21  22
ATOM     22  C   UNL     1      92.031  93.918  76.810  1.00  0.00     0.005 C 
ATOM     23  C   UNL     1      91.084  95.144  76.932  1.00  0.00     0.012 C 
ATOM     24  C   UNL     1      91.227  92.625  76.518  1.00  0.00     0.012 C 
ENDBRANCH  21  22
ENDBRANCH  19  20
ENDBRANCH  18  19
ENDBRANCH  17  18
ENDBRANCH   1  17
TORSDOF 10
ENDMDL
MODEL 4
REMARK VINA RESULT:    -5.937     22.893     26.557
REMARK INTER + INTRA:         -10.270
REMARK INTER:                  -9.058
REMARK INTRA:                  -1.212
REMARK UNBOUND:                -1.036
REMARK SMILES COc1cc(CNC(=O)CCCC/C=C/C(C)C)ccc1O
REMARK SMILES IDX 10 1 8 2 7 3 9 5 6 6 5 7 3 8 21 9 4 10 20 11 19 12 2 13 1 14
REMARK SMILES IDX 22 15 11 17 12 18 13 19 14 20 15 21 16 22 17 23 18 24
REMARK H PARENT 7 4 22 16
REMARK Flexibility Score: inf
ROOT
ATOM      1  C   UNL     1      69.823  84.194  66.744  1.00  0.00     0.100 C 
ENDROOT
BRANCH   1   2
ATOM      2  C   UNL     1      70.498  84.918  67.838  1.00  0.00     0.220 C 
ATOM      3  N   UNL     1      71.645  85.614  67.601  1.00  0.00    -0.352 N 
ATOM      4  H   UNL     1      71.985  85.566  66.651  1.00  0.00     0.163 HD
ATOM      5  O   UNL     1      69.973  84.892  68.977  1.00  0.00    -0.275 OA
BRANCH   3   6
ATOM      6  C   UNL     1      72.356  86.372  68.581  1.00  0.00     0.151 C 
BRANCH   6   7
ATOM      7  C   UNL     1      73.827  86.184  68.456  1.00  0.00    -0.025 A 
ATOM      8  C   UNL     1      75.959  86.744  67.359  1.00  0.00     0.160 A 
ATOM      9  C   UNL     1      76.636  85.852  68.216  1.00  0.00     0.157 A 
ATOM     10  C   UNL     1      74.563  86.900  67.485  1.00  0.00     0.056 A 
ATOM     11  C   UNL     1      75.913  85.116  69.176  1.00  0.00     0.050 A 
ATOM     12  C   UNL     1      74.520  85.287  69.302  1.00  0.00     0.009 A 
BRANCH   8  13
ATOM     13  O   UNL     1      76.649  87.413  66.380  1.00  0.00    -0.493 OA
ATOM     14  C   UNL     1      76.842  88.814  66.651  1.00  0.00     0.278 C 
ENDBRANCH   8  13
BRANCH   9  15
ATOM     15  O   UNL     1      77.981  85.689  68.130  1.00  0.00    -0.504 OA
ATOM     16  H   UNL     1      78.181  84.768  67.945  1.00  0.00     0.293 HD
ENDBRANCH   9  15
ENDBRANCH   6   7
ENDBRANCH   3   6
ENDBRANCH   1   2
BRANCH   1  17
ATOM     17  C   UNL     1      70.843  83.569  65.755  1.00  0.00     0.010 C 
BRANCH  17  18
ATOM     18  C   UNL     1      70.321  82.264  65.091  1.00  0.00     0.005 C 
BRANCH  18  19
ATOM     19  C   UNL     1      71.369  81.118  65.136  1.00  0.00     0.027 C 
BRANCH  19  20
ATOM     20  C   UNL     1      72.707  81.587  64.808  1.00  0.00    -0.031 C 
ATOM     21  C   UNL     1      73.796  81.353  65.562  1.00  0.00    -0.028 C 
BRANCH  21  22
ATOM     22  C   UNL     1      75.136  81.818  65.202  1.00  0.00     0.005 C 
ATOM     23  C   UNL     1      75.331  81.918  63.664  1.00  0.00     0.012 C 
ATOM     24  C   UNL     1      75.434  83.176  65.887  1.00  0.00     0.012 C 
ENDBRANCH  21  22
ENDBRANCH  19  20
ENDBRANCH  18  19
ENDBRANCH  17  18
ENDBRANCH   1  17
TORSDOF 10
ENDMDL
MODEL 5
REMARK VINA RESULT:    -5.918     13.074     16.373
REMARK INTER + INTRA:         -10.240
REMARK INTER:                  -9.589
REMARK INTRA:                  -0.652
REMARK UNBOUND:                -1.036
REMARK SMILES COc1cc(CNC(=O)CCCC/C=C/C(C)C)ccc1O
REMARK SMILES IDX 10 1 8 2 7 3 9 5 6 6 5 7 3 8 21 9 4 10 20 11 19 12 2 13 1 14
REMARK SMILES IDX 22 15 11 17 12 18 13 19 14 20 15 21 16 22 17 23 18 24
REMARK H PARENT 7 4 22 16
REMARK Flexibility Score: inf
ROOT
ATOM      1  C   UNL     1      95.915  82.545  77.466  1.00  0.00     0.100 C 
ENDROOT
BRANCH   1   2
ATOM      2  C   UNL     1      96.329  83.009  76.128  1.00  0.00     0.220 C 
ATOM      3  N   UNL     1      97.470  82.534  75.554  1.00  0.00    -0.352 N 
ATOM      4  H   UNL     1      97.992  81.880  76.121  1.00  0.00     0.163 HD
ATOM      5  O   UNL     1      95.592  83.831  75.532  1.00  0.00    -0.275 OA
BRANCH   3   6
ATOM      6  C   UNL     1      97.941  82.895  74.255  1.00  0.00     0.151 C 
BRANCH   6   7
ATOM      7  C   UNL     1      97.882  81.744  73.314  1.00  0.00    -0.025 A 
ATOM      8  C   UNL     1      98.980  80.291  71.656  1.00  0.00     0.160 A 
ATOM      9  C   UNL     1      97.794  79.539  71.528  1.00  0.00     0.157 A 
ATOM     10  C   UNL     1      99.013  81.386  72.545  1.00  0.00     0.056 A 
ATOM     11  C   UNL     1      96.653  79.896  72.273  1.00  0.00     0.050 A 
ATOM     12  C   UNL     1      96.698  80.984  73.167  1.00  0.00     0.009 A 
BRANCH   8  13
ATOM     13  O   UNL     1     100.073  79.988  70.885  1.00  0.00    -0.493 OA
ATOM     14  C   UNL     1     100.239  80.846  69.740  1.00  0.00     0.278 C 
ENDBRANCH   8  13
BRANCH   9  15
ATOM     15  O   UNL     1      97.733  78.472  70.691  1.00  0.00    -0.504 OA
ATOM     16  H   UNL     1      98.577  78.014  70.694  1.00  0.00     0.293 HD
ENDBRANCH   9  15
ENDBRANCH   6   7
ENDBRANCH   3   6
ENDBRANCH   1   2
BRANCH   1  17
ATOM     17  C   UNL     1      97.098  81.907  78.243  1.00  0.00     0.010 C 
BRANCH  17  18
ATOM     18  C   UNL     1      97.021  82.159  79.775  1.00  0.00     0.005 C 
BRANCH  18  19
ATOM     19  C   UNL     1      97.508  80.937  80.600  1.00  0.00     0.027 C 
BRANCH  19  20
ATOM     20  C   UNL     1      96.665  80.689  81.760  1.00  0.00    -0.031 C 
ATOM     21  C   UNL     1      96.148  81.656  82.539  1.00  0.00    -0.028 C 
BRANCH  21  22
ATOM     22  C   UNL     1      95.286  81.383  83.690  1.00  0.00     0.005 C 
ATOM     23  C   UNL     1      95.259  79.875  84.062  1.00  0.00     0.012 C 
ATOM     24  C   UNL     1      95.724  82.245  84.903  1.00  0.00     0.012 C 
ENDBRANCH  21  22
ENDBRANCH  19  20
ENDBRANCH  18  19
ENDBRANCH  17  18
ENDBRANCH   1  17
TORSDOF 10
ENDMDL
MODEL 6
REMARK VINA RESULT:    -5.835     22.511     24.651
REMARK INTER + INTRA:         -10.113
REMARK INTER:                  -8.363
REMARK INTRA:                  -1.750
REMARK UNBOUND:                -1.036
REMARK SMILES COc1cc(CNC(=O)CCCC/C=C/C(C)C)ccc1O
REMARK SMILES IDX 10 1 8 2 7 3 9 5 6 6 5 7 3 8 21 9 4 10 20 11 19 12 2 13 1 14
REMARK SMILES IDX 22 15 11 17 12 18 13 19 14 20 15 21 16 22 17 23 18 24
REMARK H PARENT 7 4 22 16
REMARK Flexibility Score: inf
ROOT
ATOM      1  C   UNL     1      73.093  89.480  69.483  1.00  0.00     0.100 C 
ENDROOT
BRANCH   1   2
ATOM      2  C   UNL     1      72.781  88.147  68.932  1.00  0.00     0.220 C 
ATOM      3  N   UNL     1      73.696  87.140  68.998  1.00  0.00    -0.352 N 
ATOM      4  H   UNL     1      74.578  87.392  69.421  1.00  0.00     0.163 HD
ATOM      5  O   UNL     1      71.647  87.966  68.425  1.00  0.00    -0.275 OA
BRANCH   3   6
ATOM      6  C   UNL     1      73.481  85.810  68.524  1.00  0.00     0.151 C 
BRANCH   6   7
ATOM      7  C   UNL     1      74.730  85.217  67.975  1.00  0.00    -0.025 A 
ATOM      8  C   UNL     1      75.852  83.727  66.367  1.00  0.00     0.160 A 
ATOM      9  C   UNL     1      77.105  84.090  66.903  1.00  0.00     0.157 A 
ATOM     10  C   UNL     1      74.678  84.291  66.909  1.00  0.00     0.056 A 
ATOM     11  C   UNL     1      77.172  84.997  67.979  1.00  0.00     0.050 A 
ATOM     12  C   UNL     1      75.995  85.564  68.506  1.00  0.00     0.009 A 
BRANCH   8  13
ATOM     13  O   UNL     1      75.777  82.795  65.363  1.00  0.00    -0.493 OA
ATOM     14  C   UNL     1      75.496  83.351  64.065  1.00  0.00     0.278 C 
ENDBRANCH   8  13
BRANCH   9  15
ATOM     15  O   UNL     1      78.255  83.576  66.395  1.00  0.00    -0.504 OA
ATOM     16  H   UNL     1      78.958  83.664  67.042  1.00  0.00     0.293 HD
ENDBRANCH   9  15
ENDBRANCH   6   7
ENDBRANCH   3   6
ENDBRANCH   1   2
BRANCH   1  17
ATOM     17  C   UNL     1      73.976  90.309  68.512  1.00  0.00     0.010 C 
BRANCH  17  18
ATOM     18  C   UNL     1      75.444  90.455  69.005  1.00  0.00     0.005 C 
BRANCH  18  19
ATOM     19  C   UNL     1      76.370  89.344  68.439  1.00  0.00     0.027 C 
BRANCH  19  20
ATOM     20  C   UNL     1      76.463  89.396  66.988  1.00  0.00    -0.031 C 
ATOM     21  C   UNL     1      76.098  88.392  66.171  1.00  0.00    -0.028 C 
BRANCH  21  22
ATOM     22  C   UNL     1      76.182  88.474  64.713  1.00  0.00     0.005 C 
ATOM     23  C   UNL     1      75.671  87.180  64.020  1.00  0.00     0.012 C 
ATOM     24  C   UNL     1      75.410  89.717  64.200  1.00  0.00     0.012 C 
ENDBRANCH  21  22
ENDBRANCH  19  20
ENDBRANCH  18  19
ENDBRANCH  17  18
ENDBRANCH   1  17
TORSDOF 10
ENDMDL
MODEL 7
REMARK VINA RESULT:    -5.721     22.226     24.368
REMARK INTER + INTRA:          -9.935
REMARK INTER:                  -9.086
REMARK INTRA:                  -0.849
REMARK UNBOUND:                -1.036
REMARK SMILES COc1cc(CNC(=O)CCCC/C=C/C(C)C)ccc1O
REMARK SMILES IDX 10 1 8 2 7 3 9 5 6 6 5 7 3 8 21 9 4 10 20 11 19 12 2 13 1 14
REMARK SMILES IDX 22 15 11 17 12 18 13 19 14 20 15 21 16 22 17 23 18 24
REMARK H PARENT 7 4 22 16
REMARK Flexibility Score: inf
ROOT
ATOM      1  C   UNL     1      76.041  84.700  68.996  1.00  0.00     0.100 C 
ENDROOT
BRANCH   1   2
ATOM      2  C   UNL     1      74.872  85.520  69.368  1.00  0.00     0.220 C 
ATOM      3  N   UNL     1      74.557  86.638  68.656  1.00  0.00    -0.352 N 
ATOM      4  H   UNL     1      75.190  86.854  67.898  1.00  0.00     0.163 HD
ATOM      5  O   UNL     1      74.170  85.145  70.337  1.00  0.00    -0.275 OA
BRANCH   3   6
ATOM      6  C   UNL     1      73.432  87.479  68.914  1.00  0.00     0.151 C 
BRANCH   6   7
ATOM      7  C   UNL     1      73.852  88.868  69.244  1.00  0.00    -0.025 A 
ATOM      8  C   UNL     1      73.362  91.055  70.265  1.00  0.00     0.160 A 
ATOM      9  C   UNL     1      74.645  91.514  69.899  1.00  0.00     0.157 A 
ATOM     10  C   UNL     1      72.978  89.739  69.932  1.00  0.00     0.056 A 
ATOM     11  C   UNL     1      75.521  90.664  69.196  1.00  0.00     0.050 A 
ATOM     12  C   UNL     1      75.132  89.347  68.878  1.00  0.00     0.009 A 
BRANCH   8  13
ATOM     13  O   UNL     1      72.482  91.900  70.891  1.00  0.00    -0.493 OA
ATOM     14  C   UNL     1      72.429  91.737  72.321  1.00  0.00     0.278 C 
ENDBRANCH   8  13
BRANCH   9  15
ATOM     15  O   UNL     1      75.051  92.770  70.216  1.00  0.00    -0.504 OA
ATOM     16  H   UNL     1      75.868  92.726  70.718  1.00  0.00     0.293 HD
ENDBRANCH   9  15
ENDBRANCH   6   7
ENDBRANCH   3   6
ENDBRANCH   1   2
BRANCH   1  17
ATOM     17  C   UNL     1      77.185  85.569  68.405  1.00  0.00     0.010 C 
BRANCH  17  18
ATOM     18  C   UNL     1      77.187  85.590  66.851  1.00  0.00     0.005 C 
BRANCH  18  19
ATOM     19  C   UNL     1      77.608  84.225  66.242  1.00  0.00     0.027 C 
BRANCH  19  20
ATOM     20  C   UNL     1      76.600  83.696  65.335  1.00  0.00    -0.031 C 
ATOM     21  C   UNL     1      75.610  82.864  65.707  1.00  0.00    -0.028 C 
BRANCH  21  22
ATOM     22  C   UNL     1      74.596  82.360  64.782  1.00  0.00     0.005 C 
ATOM     23  C   UNL     1      73.615  81.368  65.466  1.00  0.00     0.012 C 
ATOM     24  C   UNL     1      73.827  83.541  64.134  1.00  0.00     0.012 C 
ENDBRANCH  21  22
ENDBRANCH  19  20
ENDBRANCH  18  19
ENDBRANCH  17  18
ENDBRANCH   1  17
TORSDOF 10
ENDMDL
MODEL 8
REMARK VINA RESULT:    -5.618     22.500     25.777
REMARK INTER + INTRA:          -9.775
REMARK INTER:                  -8.907
REMARK INTRA:                  -0.868
REMARK UNBOUND:                -1.036
REMARK SMILES COc1cc(CNC(=O)CCCC/C=C/C(C)C)ccc1O
REMARK SMILES IDX 10 1 8 2 7 3 9 5 6 6 5 7 3 8 21 9 4 10 20 11 19 12 2 13 1 14
REMARK SMILES IDX 22 15 11 17 12 18 13 19 14 20 15 21 16 22 17 23 18 24
REMARK H PARENT 7 4 22 16
REMARK Flexibility Score: inf
ROOT
ATOM      1  C   UNL     1      77.151  87.212  66.996  1.00  0.00     0.100 C 
ENDROOT
BRANCH   1   2
ATOM      2  C   UNL     1      77.234  85.763  66.730  1.00  0.00     0.220 C 
ATOM      3  N   UNL     1      76.647  85.230  65.622  1.00  0.00    -0.352 N 
ATOM      4  H   UNL     1      76.151  85.891  65.041  1.00  0.00     0.163 HD
ATOM      5  O   UNL     1      77.877  85.049  67.536  1.00  0.00    -0.275 OA
BRANCH   3   6
ATOM      6  C   UNL     1      76.696  83.850  65.258  1.00  0.00     0.151 C 
BRANCH   6   7
ATOM      7  C   UNL     1      75.357  83.209  65.360  1.00  0.00    -0.025 A 
ATOM      8  C   UNL     1      72.915  83.408  65.602  1.00  0.00     0.160 A 
ATOM      9  C   UNL     1      72.793  82.005  65.537  1.00  0.00     0.157 A 
ATOM     10  C   UNL     1      74.194  83.996  65.516  1.00  0.00     0.056 A 
ATOM     11  C   UNL     1      73.945  81.206  65.402  1.00  0.00     0.050 A 
ATOM     12  C   UNL     1      75.217  81.803  65.304  1.00  0.00     0.009 A 
BRANCH   8  13
ATOM     13  O   UNL     1      71.803  84.187  65.800  1.00  0.00    -0.493 OA
ATOM     14  C   UNL     1      71.231  84.712  64.588  1.00  0.00     0.278 C 
ENDBRANCH   8  13
BRANCH   9  15
ATOM     15  O   UNL     1      71.575  81.408  65.604  1.00  0.00    -0.504 OA
ATOM     16  H   UNL     1      71.524  80.709  64.948  1.00  0.00     0.293 HD
ENDBRANCH   9  15
ENDBRANCH   6   7
ENDBRANCH   3   6
ENDBRANCH   1   2
BRANCH   1  17
ATOM     17  C   UNL     1      76.519  87.504  68.384  1.00  0.00     0.010 C 
BRANCH  17  18
ATOM     18  C   UNL     1      75.034  87.054  68.480  1.00  0.00     0.005 C 
BRANCH  18  19
ATOM     19  C   UNL     1      74.064  88.254  68.652  1.00  0.00     0.027 C 
BRANCH  19  20
ATOM     20  C   UNL     1      74.749  89.450  69.116  1.00  0.00    -0.031 C 
ATOM     21  C   UNL     1      74.142  90.629  69.343  1.00  0.00    -0.028 C 
BRANCH  21  22
ATOM     22  C   UNL     1      74.848  91.815  69.828  1.00  0.00     0.005 C 
ATOM     23  C   UNL     1      74.940  92.929  68.749  1.00  0.00     0.012 C 
ATOM     24  C   UNL     1      74.175  92.349  71.119  1.00  0.00     0.012 C 
ENDBRANCH  21  22
ENDBRANCH  19  20
ENDBRANCH  18  19
ENDBRANCH  17  18
ENDBRANCH   1  17
TORSDOF 10
ENDMDL
MODEL 9
REMARK VINA RESULT:    -5.463     22.301     25.761
REMARK INTER + INTRA:          -9.533
REMARK INTER:                  -8.872
REMARK INTRA:                  -0.661
REMARK UNBOUND:                -1.036
REMARK SMILES COc1cc(CNC(=O)CCCC/C=C/C(C)C)ccc1O
REMARK SMILES IDX 10 1 8 2 7 3 9 5 6 6 5 7 3 8 21 9 4 10 20 11 19 12 2 13 1 14
REMARK SMILES IDX 22 15 11 17 12 18 13 19 14 20 15 21 16 22 17 23 18 24
REMARK H PARENT 7 4 22 16
REMARK Flexibility Score: inf
ROOT
ATOM      1  C   UNL     1      75.837  83.082  65.705  1.00  0.00     0.100 C 
ENDROOT
BRANCH   1   2
ATOM      2  C   UNL     1      76.686  83.940  66.554  1.00  0.00     0.220 C 
ATOM      3  N   UNL     1      76.128  84.736  67.509  1.00  0.00    -0.352 N 
ATOM      4  H   UNL     1      75.119  84.701  67.558  1.00  0.00     0.163 HD
ATOM      5  O   UNL     1      77.928  83.894  66.387  1.00  0.00    -0.275 OA
BRANCH   3   6
ATOM      6  C   UNL     1      76.862  85.576  68.401  1.00  0.00     0.151 C 
BRANCH   6   7
ATOM      7  C   UNL     1      76.553  87.015  68.176  1.00  0.00    -0.025 A 
ATOM      8  C   UNL     1      75.094  88.962  68.551  1.00  0.00     0.160 A 
ATOM      9  C   UNL     1      75.959  89.761  67.773  1.00  0.00     0.157 A 
ATOM     10  C   UNL     1      75.398  87.598  68.743  1.00  0.00     0.056 A 
ATOM     11  C   UNL     1      77.104  89.188  67.185  1.00  0.00     0.050 A 
ATOM     12  C   UNL     1      77.405  87.828  67.393  1.00  0.00     0.009 A 
BRANCH   8  13
ATOM     13  O   UNL     1      73.944  89.499  69.070  1.00  0.00    -0.493 OA
ATOM     14  C   UNL     1      72.744  89.088  68.388  1.00  0.00     0.278 C 
ENDBRANCH   8  13
BRANCH   9  15
ATOM     15  O   UNL     1      75.702  91.080  67.580  1.00  0.00    -0.504 OA
ATOM     16  H   UNL     1      76.515  91.533  67.343  1.00  0.00     0.293 HD
ENDBRANCH   9  15
ENDBRANCH   6   7
ENDBRANCH   3   6
ENDBRANCH   1   2
BRANCH   1  17
ATOM     17  C   UNL     1      75.171  83.891  64.560  1.00  0.00     0.010 C 
BRANCH  17  18
ATOM     18  C   UNL     1      75.401  83.257  63.159  1.00  0.00     0.005 C 
BRANCH  18  19
ATOM     19  C   UNL     1      75.170  81.722  63.160  1.00  0.00     0.027 C 
BRANCH  19  20
ATOM     20  C   UNL     1      73.761  81.380  63.033  1.00  0.00    -0.031 C 
ATOM     21  C   UNL     1      72.841  81.599  63.989  1.00  0.00    -0.028 C 
BRANCH  21  22
ATOM     22  C   UNL     1      71.425  81.265  63.832  1.00  0.00     0.005 C 
ATOM     23  C   UNL     1      70.674  82.290  62.938  1.00  0.00     0.012 C 
ATOM     24  C   UNL     1      71.273  79.826  63.272  1.00  0.00     0.012 C 
ENDBRANCH  21  22
ENDBRANCH  19  20
ENDBRANCH  18  19
ENDBRANCH  17  18
ENDBRANCH   1  17
TORSDOF 10
ENDMDL
MODEL 10
REMARK VINA RESULT:    -5.423     13.626     16.258
REMARK INTER + INTRA:          -9.471
REMARK INTER:                  -7.921
REMARK INTRA:                  -1.550
REMARK UNBOUND:                -1.036
REMARK SMILES COc1cc(CNC(=O)CCCC/C=C/C(C)C)ccc1O
REMARK SMILES IDX 10 1 8 2 7 3 9 5 6 6 5 7 3 8 21 9 4 10 20 11 19 12 2 13 1 14
REMARK SMILES IDX 22 15 11 17 12 18 13 19 14 20 15 21 16 22 17 23 18 24
REMARK H PARENT 7 4 22 16
REMARK Flexibility Score: inf
ROOT
ATOM      1  C   UNL     1     101.670  78.816  77.925  1.00  0.00     0.100 C 
ENDROOT
BRANCH   1   2
ATOM      2  C   UNL     1     100.780  79.756  78.633  1.00  0.00     0.220 C 
ATOM      3  N   UNL     1      99.499  79.949  78.210  1.00  0.00    -0.352 N 
ATOM      4  H   UNL     1      99.239  79.425  77.385  1.00  0.00     0.163 HD
ATOM      5  O   UNL     1     101.230  80.350  79.643  1.00  0.00    -0.275 OA
BRANCH   3   6
ATOM      6  C   UNL     1      98.552  80.810  78.843  1.00  0.00     0.151 C 
BRANCH   6   7
ATOM      7  C   UNL     1      97.762  81.580  77.844  1.00  0.00    -0.025 A 
ATOM      8  C   UNL     1      97.554  82.571  75.600  1.00  0.00     0.160 A 
ATOM      9  C   UNL     1      96.261  83.032  75.922  1.00  0.00     0.157 A 
ATOM     10  C   UNL     1      98.293  81.853  76.563  1.00  0.00     0.056 A 
ATOM     11  C   UNL     1      95.726  82.784  77.201  1.00  0.00     0.050 A 
ATOM     12  C   UNL     1      96.466  82.056  78.153  1.00  0.00     0.009 A 
BRANCH   8  13
ATOM     13  O   UNL     1      98.105  82.866  74.379  1.00  0.00    -0.493 OA
ATOM     14  C   UNL     1      97.992  81.806  73.412  1.00  0.00     0.278 C 
ENDBRANCH   8  13
BRANCH   9  15
ATOM     15  O   UNL     1      95.519  83.715  75.012  1.00  0.00    -0.504 OA
ATOM     16  H   UNL     1      95.360  84.606  75.332  1.00  0.00     0.293 HD
ENDBRANCH   9  15
ENDBRANCH   6   7
ENDBRANCH   3   6
ENDBRANCH   1   2
BRANCH   1  17
ATOM     17  C   UNL     1     102.570  79.546  76.892  1.00  0.00     0.010 C 
BRANCH  17  18
ATOM     18  C   UNL     1     101.760  80.188  75.730  1.00  0.00     0.005 C 
BRANCH  18  19
ATOM     19  C   UNL     1     101.230  79.129  74.726  1.00  0.00     0.027 C 
BRANCH  19  20
ATOM     20  C   UNL     1      99.784  78.983  74.797  1.00  0.00    -0.031 C 
ATOM     21  C   UNL     1      99.096  77.982  74.218  1.00  0.00    -0.028 C 
BRANCH  21  22
ATOM     22  C   UNL     1      97.643  77.844  74.319  1.00  0.00     0.005 C 
ATOM     23  C   UNL     1      97.051  78.685  75.484  1.00  0.00     0.012 C 
ATOM     24  C   UNL     1      96.974  78.218  72.971  1.00  0.00     0.012 C 
ENDBRANCH  21  22
ENDBRANCH  19  20
ENDBRANCH  18  19
ENDBRANCH  17  18
ENDBRANCH   1  17
TORSDOF 10
ENDMDL
