MODEL 1
REMARK VINA RESULT:    -7.960      0.000      0.000
REMARK INTER + INTRA:          -9.646
REMARK INTER:                  -9.356
REMARK INTRA:                  -0.290
REMARK UNBOUND:                -0.290
REMARK SMILES O=C(/C=C/C=C/c1ccc2c(c1)OCO2)N1CCCCC1
REMARK SMILES IDX 3 1 4 2 2 3 1 4 16 5 17 6 21 7 18 8 20 9 19 10 5 11 6 12
REMARK SMILES IDX 7 13 12 14 8 15 11 16 9 17 13 18 10 19 14 20 15 21
REMARK H PARENT
REMARK Flexibility Score: inf
ROOT
ATOM      1  C   UNL     1      96.192  83.586  82.781  1.00  0.00     0.071 C 
ATOM      2  C   UNL     1      97.017  82.637  82.342  1.00  0.00     0.006 C 
ENDROOT
BRANCH   1   3
ATOM      3  C   UNL     1      95.958  83.684  84.236  1.00  0.00     0.246 C 
ATOM      4  O   UNL     1      96.645  84.485  84.870  1.00  0.00    -0.270 OA
ATOM      5  N   UNL     1      94.981  82.860  84.794  1.00  0.00    -0.339 N 
ATOM      6  C   UNL     1      94.730  82.931  86.237  1.00  0.00     0.120 C 
ATOM      7  C   UNL     1      94.175  81.861  84.078  1.00  0.00     0.120 C 
ATOM      8  C   UNL     1      93.252  83.157  86.534  1.00  0.00     0.022 C 
ATOM      9  C   UNL     1      92.683  82.053  84.354  1.00  0.00     0.022 C 
ATOM     10  C   UNL     1      92.389  82.102  85.851  1.00  0.00     0.004 C 
ENDBRANCH   1   3
BRANCH   2  11
ATOM     11  C   UNL     1      97.308  82.463  80.935  1.00  0.00     0.001 C 
ATOM     12  C   UNL     1      97.114  83.433  80.027  1.00  0.00     0.008 C 
BRANCH  12  13
ATOM     13  C   UNL     1      97.386  83.307  78.585  1.00  0.00    -0.022 A 
ATOM     14  C   UNL     1      96.660  84.082  77.690  1.00  0.00     0.058 A 
ATOM     15  C   UNL     1      98.367  82.409  78.156  1.00  0.00     0.012 A 
ATOM     16  C   UNL     1      96.951  83.928  76.350  1.00  0.00     0.166 A 
ATOM     17  C   UNL     1      98.640  82.273  76.794  1.00  0.00     0.051 A 
ATOM     18  O   UNL     1      96.353  84.592  75.323  1.00  0.00    -0.454 OA
ATOM     19  C   UNL     1      97.914  83.048  75.913  1.00  0.00     0.165 A 
ATOM     20  C   UNL     1      97.049  84.031  74.191  1.00  0.00     0.468 C 
ATOM     21  O   UNL     1      98.041  83.051  74.558  1.00  0.00    -0.454 OA
ENDBRANCH  12  13
ENDBRANCH   2  11
TORSDOF 3
ENDMDL
MODEL 2
REMARK VINA RESULT:    -7.626      3.329      9.346
REMARK INTER + INTRA:          -9.254
REMARK INTER:                  -8.860
REMARK INTRA:                  -0.394
REMARK UNBOUND:                -0.290
REMARK SMILES O=C(/C=C/C=C/c1ccc2c(c1)OCO2)N1CCCCC1
REMARK SMILES IDX 3 1 4 2 2 3 1 4 16 5 17 6 21 7 18 8 20 9 19 10 5 11 6 12
REMARK SMILES IDX 7 13 12 14 8 15 11 16 9 17 13 18 10 19 14 20 15 21
REMARK H PARENT
REMARK Flexibility Score: inf
ROOT
ATOM      1  C   UNL     1      97.512  83.907  76.795  1.00  0.00     0.071 C 
ATOM      2  C   UNL     1      96.384  83.942  77.502  1.00  0.00     0.006 C 
ENDROOT
BRANCH   1   3
ATOM      3  C   UNL     1      97.469  84.368  75.393  1.00  0.00     0.246 C 
ATOM      4  O   UNL     1      96.376  84.713  74.942  1.00  0.00    -0.270 OA
ATOM      5  N   UNL     1      98.663  84.376  74.675  1.00  0.00    -0.339 N 
ATOM      6  C   UNL     1      98.650  84.823  73.279  1.00  0.00     0.120 C 
ATOM      7  C   UNL     1      99.975  83.929  75.165  1.00  0.00     0.120 C 
ATOM      8  C   UNL     1      99.687  85.914  73.034  1.00  0.00     0.022 C 
ATOM      9  C   UNL     1     101.045  84.996  74.934  1.00  0.00     0.022 C 
ATOM     10  C   UNL     1     101.073  85.460  73.480  1.00  0.00     0.004 C 
ENDBRANCH   1   3
BRANCH   2  11
ATOM     11  C   UNL     1      96.327  83.511  78.882  1.00  0.00     0.001 C 
ATOM     12  C   UNL     1      97.426  83.243  79.606  1.00  0.00     0.008 C 
BRANCH  12  13
ATOM     13  C   UNL     1      97.425  82.794  81.008  1.00  0.00    -0.022 A 
ATOM     14  C   UNL     1      98.322  81.811  81.404  1.00  0.00     0.058 A 
ATOM     15  C   UNL     1      96.520  83.370  81.903  1.00  0.00     0.012 A 
ATOM     16  C   UNL     1      98.284  81.425  82.728  1.00  0.00     0.166 A 
ATOM     17  C   UNL     1      96.502  82.959  83.238  1.00  0.00     0.051 A 
ATOM     18  O   UNL     1      99.076  80.481  83.307  1.00  0.00    -0.454 OA
ATOM     19  C   UNL     1      97.398  81.983  83.621  1.00  0.00     0.165 A 
ATOM     20  C   UNL     1      98.590  80.509  84.665  1.00  0.00     0.468 C 
ATOM     21  O   UNL     1      97.524  81.460  84.871  1.00  0.00    -0.454 OA
ENDBRANCH  12  13
ENDBRANCH   2  11
TORSDOF 3
ENDMDL
MODEL 3
REMARK VINA RESULT:    -7.555      3.003      9.371
REMARK INTER + INTRA:          -9.170
REMARK INTER:                  -8.813
REMARK INTRA:                  -0.357
REMARK UNBOUND:                -0.290
REMARK SMILES O=C(/C=C/C=C/c1ccc2c(c1)OCO2)N1CCCCC1
REMARK SMILES IDX 3 1 4 2 2 3 1 4 16 5 17 6 21 7 18 8 20 9 19 10 5 11 6 12
REMARK SMILES IDX 7 13 12 14 8 15 11 16 9 17 13 18 10 19 14 20 15 21
REMARK H PARENT
REMARK Flexibility Score: inf
ROOT
ATOM      1  C   UNL     1      97.713  83.904  77.053  1.00  0.00     0.071 C 
ATOM      2  C   UNL     1      96.757  83.211  77.669  1.00  0.00     0.006 C 
ENDROOT
BRANCH   1   3
ATOM      3  C   UNL     1      97.481  84.315  75.654  1.00  0.00     0.246 C 
ATOM      4  O   UNL     1      96.334  84.632  75.337  1.00  0.00    -0.270 OA
ATOM      5  N   UNL     1      98.572  84.312  74.787  1.00  0.00    -0.339 N 
ATOM      6  C   UNL     1      98.371  84.710  73.390  1.00  0.00     0.120 C 
ATOM      7  C   UNL     1      99.944  83.897  75.117  1.00  0.00     0.120 C 
ATOM      8  C   UNL     1      99.350  85.803  72.977  1.00  0.00     0.022 C 
ATOM      9  C   UNL     1     100.957  84.968  74.714  1.00  0.00     0.022 C 
ATOM     10  C   UNL     1     100.790  85.382  73.254  1.00  0.00     0.004 C 
ENDBRANCH   1   3
BRANCH   2  11
ATOM     11  C   UNL     1      96.893  82.763  79.039  1.00  0.00     0.001 C 
ATOM     12  C   UNL     1      96.701  83.575  80.091  1.00  0.00     0.008 C 
BRANCH  12  13
ATOM     13  C   UNL     1      96.833  83.175  81.502  1.00  0.00    -0.022 A 
ATOM     14  C   UNL     1      96.162  83.902  82.476  1.00  0.00     0.058 A 
ATOM     15  C   UNL     1      97.631  82.074  81.822  1.00  0.00     0.012 A 
ATOM     16  C   UNL     1      96.317  83.488  83.784  1.00  0.00     0.166 A 
ATOM     17  C   UNL     1      97.770  81.677  83.154  1.00  0.00     0.051 A 
ATOM     18  O   UNL     1      95.746  84.066  84.876  1.00  0.00    -0.454 OA
ATOM     19  C   UNL     1      97.099  82.405  84.114  1.00  0.00     0.165 A 
ATOM     20  C   UNL     1      96.257  83.225  85.930  1.00  0.00     0.468 C 
ATOM     21  O   UNL     1      97.117  82.169  85.454  1.00  0.00    -0.454 OA
ENDBRANCH  12  13
ENDBRANCH   2  11
TORSDOF 3
ENDMDL
MODEL 4
REMARK VINA RESULT:    -6.995     13.163     14.246
REMARK INTER + INTRA:          -8.511
REMARK INTER:                  -8.157
REMARK INTRA:                  -0.354
REMARK UNBOUND:                -0.290
REMARK SMILES O=C(/C=C/C=C/c1ccc2c(c1)OCO2)N1CCCCC1
REMARK SMILES IDX 3 1 4 2 2 3 1 4 16 5 17 6 21 7 18 8 20 9 19 10 5 11 6 12
REMARK SMILES IDX 7 13 12 14 8 15 11 16 9 17 13 18 10 19 14 20 15 21
REMARK H PARENT
REMARK Flexibility Score: inf
ROOT
ATOM      1  C   UNL     1      96.989  98.283  79.521  1.00  0.00     0.071 C 
ATOM      2  C   UNL     1      95.719  97.921  79.687  1.00  0.00     0.006 C 
ENDROOT
BRANCH   1   3
ATOM      3  C   UNL     1      97.726  98.792  80.695  1.00  0.00     0.246 C 
ATOM      4  O   UNL     1      97.668 100.001  80.923  1.00  0.00    -0.270 OA
ATOM      5  N   UNL     1      98.439  97.873  81.463  1.00  0.00    -0.339 N 
ATOM      6  C   UNL     1      99.185  98.349  82.632  1.00  0.00     0.120 C 
ATOM      7  C   UNL     1      98.569  96.432  81.196  1.00  0.00     0.120 C 
ATOM      8  C   UNL     1      98.818  97.562  83.885  1.00  0.00     0.022 C 
ATOM      9  C   UNL     1      98.212  95.607  82.433  1.00  0.00     0.022 C 
ATOM     10  C   UNL     1      98.996  96.063  83.660  1.00  0.00     0.004 C 
ENDBRANCH   1   3
BRANCH   2  11
ATOM     11  C   UNL     1      94.915  97.411  78.596  1.00  0.00     0.001 C 
ATOM     12  C   UNL     1      94.431  96.159  78.574  1.00  0.00     0.008 C 
BRANCH  12  13
ATOM     13  C   UNL     1      93.617  95.587  77.488  1.00  0.00    -0.022 A 
ATOM     14  C   UNL     1      92.477  94.863  77.807  1.00  0.00     0.058 A 
ATOM     15  C   UNL     1      94.016  95.790  76.164  1.00  0.00     0.012 A 
ATOM     16  C   UNL     1      91.747  94.348  76.756  1.00  0.00     0.166 A 
ATOM     17  C   UNL     1      93.258  95.256  75.119  1.00  0.00     0.051 A 
ATOM     18  O   UNL     1      90.606  93.613  76.861  1.00  0.00    -0.454 OA
ATOM     19  C   UNL     1      92.127  94.539  75.447  1.00  0.00     0.165 A 
ATOM     20  C   UNL     1      90.311  93.364  75.471  1.00  0.00     0.468 C 
ATOM     21  O   UNL     1      91.272  93.948  74.569  1.00  0.00    -0.454 OA
ENDBRANCH  12  13
ENDBRANCH   2  11
TORSDOF 3
ENDMDL
MODEL 5
REMARK VINA RESULT:    -6.972      1.658      2.240
REMARK INTER + INTRA:          -8.485
REMARK INTER:                  -8.086
REMARK INTRA:                  -0.399
REMARK UNBOUND:                -0.290
REMARK SMILES O=C(/C=C/C=C/c1ccc2c(c1)OCO2)N1CCCCC1
REMARK SMILES IDX 3 1 4 2 2 3 1 4 16 5 17 6 21 7 18 8 20 9 19 10 5 11 6 12
REMARK SMILES IDX 7 13 12 14 8 15 11 16 9 17 13 18 10 19 14 20 15 21
REMARK H PARENT
REMARK Flexibility Score: inf
ROOT
ATOM      1  C   UNL     1      96.263  82.347  84.480  1.00  0.00     0.071 C 
ATOM      2  C   UNL     1      95.967  81.435  83.556  1.00  0.00     0.006 C 
ENDROOT
BRANCH   1   3
ATOM      3  C   UNL     1      95.619  82.229  85.803  1.00  0.00     0.246 C 
ATOM      4  O   UNL     1      96.056  81.374  86.575  1.00  0.00    -0.270 OA
ATOM      5  N   UNL     1      94.558  83.087  86.088  1.00  0.00    -0.339 N 
ATOM      6  C   UNL     1      93.895  82.990  87.392  1.00  0.00     0.120 C 
ATOM      7  C   UNL     1      93.980  84.087  85.177  1.00  0.00     0.120 C 
ATOM      8  C   UNL     1      93.836  84.345  88.089  1.00  0.00     0.022 C 
ATOM      9  C   UNL     1      93.901  85.461  85.843  1.00  0.00     0.022 C 
ATOM     10  C   UNL     1      93.189  85.394  87.191  1.00  0.00     0.004 C 
ENDBRANCH   1   3
BRANCH   2  11
ATOM     11  C   UNL     1      96.547  81.467  82.230  1.00  0.00     0.001 C 
ATOM     12  C   UNL     1      96.761  82.610  81.558  1.00  0.00     0.008 C 
BRANCH  12  13
ATOM     13  C   UNL     1      97.340  82.699  80.207  1.00  0.00    -0.022 A 
ATOM     14  C   UNL     1      96.705  83.478  79.249  1.00  0.00     0.058 A 
ATOM     15  C   UNL     1      98.514  81.995  79.925  1.00  0.00     0.012 A 
ATOM     16  C   UNL     1      97.285  83.530  77.999  1.00  0.00     0.166 A 
ATOM     17  C   UNL     1      99.080  82.066  78.650  1.00  0.00     0.051 A 
ATOM     18  O   UNL     1      96.817  84.233  76.931  1.00  0.00    -0.454 OA
ATOM     19  C   UNL     1      98.441  82.843  77.706  1.00  0.00     0.165 A 
ATOM     20  C   UNL     1      97.808  83.911  75.934  1.00  0.00     0.468 C 
ATOM     21  O   UNL     1      98.842  83.030  76.419  1.00  0.00    -0.454 OA
ENDBRANCH  12  13
ENDBRANCH   2  11
TORSDOF 3
ENDMDL
MODEL 6
REMARK VINA RESULT:    -6.929      5.692      8.874
REMARK INTER + INTRA:          -8.434
REMARK INTER:                  -8.071
REMARK INTRA:                  -0.364
REMARK UNBOUND:                -0.290
REMARK SMILES O=C(/C=C/C=C/c1ccc2c(c1)OCO2)N1CCCCC1
REMARK SMILES IDX 3 1 4 2 2 3 1 4 16 5 17 6 21 7 18 8 20 9 19 10 5 11 6 12
REMARK SMILES IDX 7 13 12 14 8 15 11 16 9 17 13 18 10 19 14 20 15 21
REMARK H PARENT
REMARK Flexibility Score: inf
ROOT
ATOM      1  C   UNL     1      93.129  87.862  88.429  1.00  0.00     0.071 C 
ATOM      2  C   UNL     1      92.859  86.574  88.632  1.00  0.00     0.006 C 
ENDROOT
BRANCH   1   3
ATOM      3  C   UNL     1      92.493  88.854  89.319  1.00  0.00     0.246 C 
ATOM      4  O   UNL     1      91.737  88.431  90.194  1.00  0.00    -0.270 OA
ATOM      5  N   UNL     1      92.787  90.200  89.107  1.00  0.00    -0.339 N 
ATOM      6  C   UNL     1      92.167  91.208  89.972  1.00  0.00     0.120 C 
ATOM      7  C   UNL     1      93.648  90.745  88.047  1.00  0.00     0.120 C 
ATOM      8  C   UNL     1      93.212  92.134  90.586  1.00  0.00     0.022 C 
ATOM      9  C   UNL     1      94.709  91.683  88.623  1.00  0.00     0.022 C 
ATOM     10  C   UNL     1      94.088  92.762  89.506  1.00  0.00     0.004 C 
ENDBRANCH   1   3
BRANCH   2  11
ATOM     11  C   UNL     1      93.433  85.529  87.811  1.00  0.00     0.001 C 
ATOM     12  C   UNL     1      93.334  85.520  86.472  1.00  0.00     0.008 C 
BRANCH  12  13
ATOM     13  C   UNL     1      93.891  84.479  85.592  1.00  0.00    -0.022 A 
ATOM     14  C   UNL     1      95.173  84.639  85.084  1.00  0.00     0.058 A 
ATOM     15  C   UNL     1      93.112  83.359  85.290  1.00  0.00     0.012 A 
ATOM     16  C   UNL     1      95.651  83.637  84.265  1.00  0.00     0.166 A 
ATOM     17  C   UNL     1      93.622  82.360  84.457  1.00  0.00     0.051 A 
ATOM     18  O   UNL     1      96.876  83.608  83.671  1.00  0.00    -0.454 OA
ATOM     19  C   UNL     1      94.897  82.528  83.959  1.00  0.00     0.165 A 
ATOM     20  C   UNL     1      96.807  82.357  82.958  1.00  0.00     0.468 C 
ATOM     21  O   UNL     1      95.554  81.666  83.137  1.00  0.00    -0.454 OA
ENDBRANCH  12  13
ENDBRANCH   2  11
TORSDOF 3
ENDMDL
MODEL 7
REMARK VINA RESULT:    -6.914     17.780     18.655
REMARK INTER + INTRA:          -8.416
REMARK INTER:                  -8.073
REMARK INTRA:                  -0.343
REMARK UNBOUND:                -0.290
REMARK SMILES O=C(/C=C/C=C/c1ccc2c(c1)OCO2)N1CCCCC1
REMARK SMILES IDX 3 1 4 2 2 3 1 4 16 5 17 6 21 7 18 8 20 9 19 10 5 11 6 12
REMARK SMILES IDX 7 13 12 14 8 15 11 16 9 17 13 18 10 19 14 20 15 21
REMARK H PARENT
REMARK Flexibility Score: inf
ROOT
ATOM      1  C   UNL     1      86.612  70.076  71.736  1.00  0.00     0.071 C 
ATOM      2  C   UNL     1      87.719  70.276  71.024  1.00  0.00     0.006 C 
ENDROOT
BRANCH   1   3
ATOM      3  C   UNL     1      86.734  69.372  73.028  1.00  0.00     0.246 C 
ATOM      4  O   UNL     1      87.615  69.752  73.801  1.00  0.00    -0.270 OA
ATOM      5  N   UNL     1      85.852  68.324  73.284  1.00  0.00    -0.339 N 
ATOM      6  C   UNL     1      85.953  67.603  74.556  1.00  0.00     0.120 C 
ATOM      7  C   UNL     1      84.820  67.815  72.368  1.00  0.00     0.120 C 
ATOM      8  C   UNL     1      84.609  67.552  75.276  1.00  0.00     0.022 C 
ATOM      9  C   UNL     1      83.456  67.745  73.056  1.00  0.00     0.022 C 
ATOM     10  C   UNL     1      83.526  66.974  74.371  1.00  0.00     0.004 C 
ENDBRANCH   1   3
BRANCH   2  11
ATOM     11  C   UNL     1      87.699  70.955  69.746  1.00  0.00     0.001 C 
ATOM     12  C   UNL     1      88.658  71.815  69.366  1.00  0.00     0.008 C 
BRANCH  12  13
ATOM     13  C   UNL     1      88.683  72.539  68.083  1.00  0.00    -0.022 A 
ATOM     14  C   UNL     1      89.861  73.150  67.675  1.00  0.00     0.058 A 
ATOM     15  C   UNL     1      87.520  72.590  67.311  1.00  0.00     0.012 A 
ATOM     16  C   UNL     1      89.835  73.815  66.466  1.00  0.00     0.166 A 
ATOM     17  C   UNL     1      87.522  73.270  66.091  1.00  0.00     0.051 A 
ATOM     18  O   UNL     1      90.881  74.475  65.896  1.00  0.00    -0.454 OA
ATOM     19  C   UNL     1      88.697  73.873  65.695  1.00  0.00     0.165 A 
ATOM     20  C   UNL     1      90.272  74.955  64.680  1.00  0.00     0.468 C 
ATOM     21  O   UNL     1      88.887  74.577  64.546  1.00  0.00    -0.454 OA
ENDBRANCH  12  13
ENDBRANCH   2  11
TORSDOF 3
ENDMDL
MODEL 8
REMARK VINA RESULT:    -6.907      3.240      9.295
REMARK INTER + INTRA:          -8.409
REMARK INTER:                  -8.031
REMARK INTRA:                  -0.378
REMARK UNBOUND:                -0.290
REMARK SMILES O=C(/C=C/C=C/c1ccc2c(c1)OCO2)N1CCCCC1
REMARK SMILES IDX 3 1 4 2 2 3 1 4 16 5 17 6 21 7 18 8 20 9 19 10 5 11 6 12
REMARK SMILES IDX 7 13 12 14 8 15 11 16 9 17 13 18 10 19 14 20 15 21
REMARK H PARENT
REMARK Flexibility Score: inf
ROOT
ATOM      1  C   UNL     1      98.776  82.313  77.838  1.00  0.00     0.071 C 
ATOM      2  C   UNL     1      97.523  82.420  78.275  1.00  0.00     0.006 C 
ENDROOT
BRANCH   1   3
ATOM      3  C   UNL     1      98.997  81.742  76.494  1.00  0.00     0.246 C 
ATOM      4  O   UNL     1      99.017  80.515  76.393  1.00  0.00    -0.270 OA
ATOM      5  N   UNL     1      99.172  82.629  75.432  1.00  0.00    -0.339 N 
ATOM      6  C   UNL     1      99.398  82.092  74.087  1.00  0.00     0.120 C 
ATOM      7  C   UNL     1      99.199  84.096  75.521  1.00  0.00     0.120 C 
ATOM      8  C   UNL     1      98.420  82.684  73.079  1.00  0.00     0.022 C 
ATOM      9  C   UNL     1      98.232  84.729  74.521  1.00  0.00     0.022 C 
ATOM     10  C   UNL     1      98.464  84.209  73.105  1.00  0.00     0.004 C 
ENDBRANCH   1   3
BRANCH   2  11
ATOM     11  C   UNL     1      97.206  82.966  79.577  1.00  0.00     0.001 C 
ATOM     12  C   UNL     1      97.250  82.234  80.702  1.00  0.00     0.008 C 
BRANCH  12  13
ATOM     13  C   UNL     1      96.930  82.736  82.049  1.00  0.00    -0.022 A 
ATOM     14  C   UNL     1      97.376  82.028  83.157  1.00  0.00     0.058 A 
ATOM     15  C   UNL     1      96.187  83.912  82.175  1.00  0.00     0.012 A 
ATOM     16  C   UNL     1      97.052  82.538  84.398  1.00  0.00     0.166 A 
ATOM     17  C   UNL     1      95.874  84.406  83.444  1.00  0.00     0.051 A 
ATOM     18  O   UNL     1      97.393  81.993  85.598  1.00  0.00    -0.454 OA
ATOM     19  C   UNL     1      96.321  83.695  84.538  1.00  0.00     0.165 A 
ATOM     20  C   UNL     1      96.794  82.938  86.508  1.00  0.00     0.468 C 
ATOM     21  O   UNL     1      96.112  84.020  85.842  1.00  0.00    -0.454 OA
ENDBRANCH  12  13
ENDBRANCH   2  11
TORSDOF 3
ENDMDL
MODEL 9
REMARK VINA RESULT:    -6.670      2.844      8.898
REMARK INTER + INTRA:          -8.130
REMARK INTER:                  -7.735
REMARK INTRA:                  -0.395
REMARK UNBOUND:                -0.290
REMARK SMILES O=C(/C=C/C=C/c1ccc2c(c1)OCO2)N1CCCCC1
REMARK SMILES IDX 3 1 4 2 2 3 1 4 16 5 17 6 21 7 18 8 20 9 19 10 5 11 6 12
REMARK SMILES IDX 7 13 12 14 8 15 11 16 9 17 13 18 10 19 14 20 15 21
REMARK H PARENT
REMARK Flexibility Score: inf
ROOT
ATOM      1  C   UNL     1      97.903  82.177  78.421  1.00  0.00     0.071 C 
ATOM      2  C   UNL     1      97.555  83.341  78.965  1.00  0.00     0.006 C 
ENDROOT
BRANCH   1   3
ATOM      3  C   UNL     1      98.721  82.201  77.192  1.00  0.00     0.246 C 
ATOM      4  O   UNL     1      98.248  82.768  76.206  1.00  0.00    -0.270 OA
ATOM      5  N   UNL     1      99.967  81.578  77.228  1.00  0.00    -0.339 N 
ATOM      6  C   UNL     1     100.799  81.582  76.021  1.00  0.00     0.120 C 
ATOM      7  C   UNL     1     100.544  80.854  78.370  1.00  0.00     0.120 C 
ATOM      8  C   UNL     1     102.199  82.113  76.311  1.00  0.00     0.022 C 
ATOM      9  C   UNL     1     101.951  81.357  78.690  1.00  0.00     0.022 C 
ATOM     10  C   UNL     1     102.849  81.344  77.456  1.00  0.00     0.004 C 
ENDBRANCH   1   3
BRANCH   2  11
ATOM     11  C   UNL     1      96.755  83.420  80.169  1.00  0.00     0.001 C 
ATOM     12  C   UNL     1      97.084  82.780  81.303  1.00  0.00     0.008 C 
BRANCH  12  13
ATOM     13  C   UNL     1      96.304  82.818  82.551  1.00  0.00    -0.022 A 
ATOM     14  C   UNL     1      96.036  84.045  83.143  1.00  0.00     0.058 A 
ATOM     15  C   UNL     1      95.855  81.618  83.107  1.00  0.00     0.012 A 
ATOM     16  C   UNL     1      95.301  84.030  84.311  1.00  0.00     0.166 A 
ATOM     17  C   UNL     1      95.113  81.631  84.290  1.00  0.00     0.051 A 
ATOM     18  O   UNL     1      94.937  85.121  85.039  1.00  0.00    -0.454 OA
ATOM     19  C   UNL     1      94.852  82.855  84.869  1.00  0.00     0.165 A 
ATOM     20  C   UNL     1      94.208  84.501  86.118  1.00  0.00     0.468 C 
ATOM     21  O   UNL     1      94.150  83.064  86.017  1.00  0.00    -0.454 OA
ENDBRANCH  12  13
ENDBRANCH   2  11
TORSDOF 3
ENDMDL
MODEL 10
REMARK VINA RESULT:    -6.507      5.733      8.856
REMARK INTER + INTRA:          -7.938
REMARK INTER:                  -7.562
REMARK INTRA:                  -0.376
REMARK UNBOUND:                -0.290
REMARK SMILES O=C(/C=C/C=C/c1ccc2c(c1)OCO2)N1CCCCC1
REMARK SMILES IDX 3 1 4 2 2 3 1 4 16 5 17 6 21 7 18 8 20 9 19 10 5 11 6 12
REMARK SMILES IDX 7 13 12 14 8 15 11 16 9 17 13 18 10 19 14 20 15 21
REMARK H PARENT
REMARK Flexibility Score: inf
ROOT
ATOM      1  C   UNL     1      91.198  78.075  84.003  1.00  0.00     0.071 C 
ATOM      2  C   UNL     1      90.526  79.203  84.221  1.00  0.00     0.006 C 
ENDROOT
BRANCH   1   3
ATOM      3  C   UNL     1      90.439  76.809  83.967  1.00  0.00     0.246 C 
ATOM      4  O   UNL     1      89.322  76.801  84.486  1.00  0.00    -0.270 OA
ATOM      5  N   UNL     1      91.037  75.710  83.354  1.00  0.00    -0.339 N 
ATOM      6  C   UNL     1      90.309  74.438  83.307  1.00  0.00     0.120 C 
ATOM      7  C   UNL     1      92.384  75.669  82.764  1.00  0.00     0.120 C 
ATOM      8  C   UNL     1      90.230  73.893  81.885  1.00  0.00     0.022 C 
ATOM      9  C   UNL     1      92.347  75.124  81.337  1.00  0.00     0.022 C 
ATOM     10  C   UNL     1      91.619  73.785  81.263  1.00  0.00     0.004 C 
ENDBRANCH   1   3
BRANCH   2  11
ATOM     11  C   UNL     1      91.182  80.492  84.275  1.00  0.00     0.001 C 
ATOM     12  C   UNL     1      92.422  80.656  84.764  1.00  0.00     0.008 C 
BRANCH  12  13
ATOM     13  C   UNL     1      93.132  81.943  84.850  1.00  0.00    -0.022 A 
ATOM     14  C   UNL     1      94.206  82.180  84.001  1.00  0.00     0.058 A 
ATOM     15  C   UNL     1      92.706  82.892  85.783  1.00  0.00     0.012 A 
ATOM     16  C   UNL     1      94.839  83.400  84.119  1.00  0.00     0.166 A 
ATOM     17  C   UNL     1      93.366  84.119  85.880  1.00  0.00     0.051 A 
ATOM     18  O   UNL     1      95.905  83.820  83.383  1.00  0.00    -0.454 OA
ATOM     19  C   UNL     1      94.431  84.344  85.033  1.00  0.00     0.165 A 
ATOM     20  C   UNL     1      96.121  85.134  83.938  1.00  0.00     0.468 C 
ATOM     21  O   UNL     1      95.189  85.473  84.985  1.00  0.00    -0.454 OA
ENDBRANCH  12  13
ENDBRANCH   2  11
TORSDOF 3
ENDMDL
