MODEL 1
REMARK VINA RESULT:    -6.196      0.000      0.000
REMARK INTER + INTRA:         -10.731
REMARK INTER:                 -10.000
REMARK INTRA:                  -0.732
REMARK UNBOUND:                -0.732
REMARK SMILES COc1cc(CNC(=O)CCCCCCC(C)C)ccc1O
REMARK SMILES IDX 11 1 10 2 8 3 7 4 9 6 6 7 5 8 3 9 21 10 4 11 20 12 19 13
REMARK SMILES IDX 2 14 1 15 22 16 12 18 13 19 14 20 15 21 16 22 17 23 18 24
REMARK H PARENT 7 5 22 17
REMARK Flexibility Score: inf
ROOT
ATOM      1  C   UNL     1      92.135  95.058  77.289  1.00  0.00     0.010 C 
ENDROOT
BRANCH   1   2
ATOM      2  C   UNL     1      92.381  95.124  75.756  1.00  0.00     0.100 C 
BRANCH   2   3
ATOM      3  C   UNL     1      93.721  95.642  75.401  1.00  0.00     0.220 C 
ATOM      4  N   UNL     1      93.849  96.837  74.755  1.00  0.00    -0.352 N 
ATOM      5  H   UNL     1      92.975  97.283  74.518  1.00  0.00     0.163 HD
ATOM      6  O   UNL     1      94.731  94.972  75.727  1.00  0.00    -0.275 OA
BRANCH   4   7
ATOM      7  C   UNL     1      95.090  97.463  74.413  1.00  0.00     0.151 C 
BRANCH   7   8
ATOM      8  C   UNL     1      95.365  97.461  72.950  1.00  0.00    -0.025 A 
ATOM      9  C   UNL     1      95.371  98.623  70.783  1.00  0.00     0.160 A 
ATOM     10  C   UNL     1      95.927  97.480  70.168  1.00  0.00     0.157 A 
ATOM     11  C   UNL     1      95.077  98.599  72.162  1.00  0.00     0.056 A 
ATOM     12  C   UNL     1      96.181  96.328  70.934  1.00  0.00     0.050 A 
ATOM     13  C   UNL     1      95.913  96.320  72.317  1.00  0.00     0.009 A 
BRANCH   9  14
ATOM     14  O   UNL     1      95.083  99.735  70.039  1.00  0.00    -0.493 OA
ATOM     15  C   UNL     1      93.691 100.100  70.057  1.00  0.00     0.278 C 
ENDBRANCH   9  14
BRANCH  10  16
ATOM     16  O   UNL     1      96.219  97.474  68.841  1.00  0.00    -0.504 OA
ATOM     17  H   UNL     1      95.601  98.044  68.376  1.00  0.00     0.293 HD
ENDBRANCH  10  16
ENDBRANCH   7   8
ENDBRANCH   4   7
ENDBRANCH   2   3
ENDBRANCH   1   2
BRANCH   1  18
ATOM     18  C   UNL     1      91.874  93.605  77.780  1.00  0.00     0.001 C 
BRANCH  18  19
ATOM     19  C   UNL     1      90.419  93.114  77.539  1.00  0.00     0.000 C 
BRANCH  19  20
ATOM     20  C   UNL     1      90.389  91.795  76.717  1.00  0.00     0.000 C 
BRANCH  20  21
ATOM     21  C   UNL     1      91.127  91.878  75.352  1.00  0.00     0.003 C 
BRANCH  21  22
ATOM     22  C   UNL     1      90.632  90.850  74.282  1.00  0.00    -0.017 C 
ATOM     23  C   UNL     1      89.142  91.112  73.925  1.00  0.00     0.007 C 
ATOM     24  C   UNL     1      90.840  89.364  74.699  1.00  0.00     0.007 C 
ENDBRANCH  21  22
ENDBRANCH  20  21
ENDBRANCH  19  20
ENDBRANCH  18  19
ENDBRANCH   1  18
TORSDOF 11
ENDMDL
MODEL 2
REMARK VINA RESULT:    -6.186     19.720     23.604
REMARK INTER + INTRA:         -10.715
REMARK INTER:                  -9.937
REMARK INTRA:                  -0.778
REMARK UNBOUND:                -0.732
REMARK SMILES COc1cc(CNC(=O)CCCCCCC(C)C)ccc1O
REMARK SMILES IDX 11 1 10 2 8 3 7 4 9 6 6 7 5 8 3 9 21 10 4 11 20 12 19 13
REMARK SMILES IDX 2 14 1 15 22 16 12 18 13 19 14 20 15 21 16 22 17 23 18 24
REMARK H PARENT 7 5 22 17
REMARK Flexibility Score: inf
ROOT
ATOM      1  C   UNL     1      76.493  86.834  67.440  1.00  0.00     0.010 C 
ENDROOT
BRANCH   1   2
ATOM      2  C   UNL     1      77.457  85.624  67.576  1.00  0.00     0.100 C 
BRANCH   2   3
ATOM      3  C   UNL     1      77.284  84.615  66.507  1.00  0.00     0.220 C 
ATOM      4  N   UNL     1      76.419  84.844  65.476  1.00  0.00    -0.352 N 
ATOM      5  H   UNL     1      75.904  85.710  65.543  1.00  0.00     0.163 HD
ATOM      6  O   UNL     1      77.965  83.561  66.558  1.00  0.00    -0.275 OA
BRANCH   4   7
ATOM      7  C   UNL     1      76.213  83.970  64.361  1.00  0.00     0.151 C 
BRANCH   7   8
ATOM      8  C   UNL     1      75.034  83.076  64.527  1.00  0.00    -0.025 A 
ATOM      9  C   UNL     1      72.814  82.321  63.787  1.00  0.00     0.160 A 
ATOM     10  C   UNL     1      72.803  81.346  64.808  1.00  0.00     0.157 A 
ATOM     11  C   UNL     1      73.919  83.190  63.666  1.00  0.00     0.056 A 
ATOM     12  C   UNL     1      73.890  81.249  65.696  1.00  0.00     0.050 A 
ATOM     13  C   UNL     1      75.003  82.100  65.551  1.00  0.00     0.009 A 
BRANCH   9  14
ATOM     14  O   UNL     1      71.744  82.450  62.944  1.00  0.00    -0.493 OA
ATOM     15  C   UNL     1      70.857  83.528  63.293  1.00  0.00     0.278 C 
ENDBRANCH   9  14
BRANCH  10  16
ATOM     16  O   UNL     1      71.751  80.497  64.950  1.00  0.00    -0.504 OA
ATOM     17  H   UNL     1      71.624  80.298  65.880  1.00  0.00     0.293 HD
ENDBRANCH  10  16
ENDBRANCH   7   8
ENDBRANCH   4   7
ENDBRANCH   2   3
ENDBRANCH   1   2
BRANCH   1  18
ATOM     18  C   UNL     1      77.191  88.182  67.777  1.00  0.00     0.001 C 
BRANCH  18  19
ATOM     19  C   UNL     1      76.875  89.321  66.767  1.00  0.00     0.000 C 
BRANCH  19  20
ATOM     20  C   UNL     1      75.759  90.264  67.298  1.00  0.00     0.000 C 
BRANCH  20  21
ATOM     21  C   UNL     1      75.411  90.058  68.799  1.00  0.00     0.003 C 
BRANCH  21  22
ATOM     22  C   UNL     1      73.885  90.138  69.129  1.00  0.00    -0.017 C 
ATOM     23  C   UNL     1      73.648  91.012  70.393  1.00  0.00     0.007 C 
ATOM     24  C   UNL     1      73.206  88.747  69.293  1.00  0.00     0.007 C 
ENDBRANCH  21  22
ENDBRANCH  20  21
ENDBRANCH  19  20
ENDBRANCH  18  19
ENDBRANCH   1  18
TORSDOF 11
ENDMDL
MODEL 3
REMARK VINA RESULT:    -6.151      3.085      5.064
REMARK INTER + INTRA:         -10.658
REMARK INTER:                  -9.587
REMARK INTRA:                  -1.072
REMARK UNBOUND:                -0.732
REMARK SMILES COc1cc(CNC(=O)CCCCCCC(C)C)ccc1O
REMARK SMILES IDX 11 1 10 2 8 3 7 4 9 6 6 7 5 8 3 9 21 10 4 11 20 12 19 13
REMARK SMILES IDX 2 14 1 15 22 16 12 18 13 19 14 20 15 21 16 22 17 23 18 24
REMARK H PARENT 7 5 22 17
REMARK Flexibility Score: inf
ROOT
ATOM      1  C   UNL     1      94.982  96.266  74.431  1.00  0.00     0.010 C 
ENDROOT
BRANCH   1   2
ATOM      2  C   UNL     1      93.915  97.393  74.352  1.00  0.00     0.100 C 
BRANCH   2   3
ATOM      3  C   UNL     1      93.963  98.155  73.083  1.00  0.00     0.220 C 
ATOM      4  N   UNL     1      92.993  99.070  72.792  1.00  0.00    -0.352 N 
ATOM      5  H   UNL     1      92.255  99.133  73.478  1.00  0.00     0.163 HD
ATOM      6  O   UNL     1      94.923  97.958  72.299  1.00  0.00    -0.275 OA
BRANCH   4   7
ATOM      7  C   UNL     1      92.966  99.903  71.629  1.00  0.00     0.151 C 
BRANCH   7   8
ATOM      8  C   UNL     1      91.752  99.702  70.791  1.00  0.00    -0.025 A 
ATOM      9  C   UNL     1      90.386 100.314  68.840  1.00  0.00     0.160 A 
ATOM     10  C   UNL     1      89.462  99.297  69.164  1.00  0.00     0.157 A 
ATOM     11  C   UNL     1      91.512 100.521  69.664  1.00  0.00     0.056 A 
ATOM     12  C   UNL     1      89.670  98.501  70.306  1.00  0.00     0.050 A 
ATOM     13  C   UNL     1      90.811  98.694  71.108  1.00  0.00     0.009 A 
BRANCH   9  14
ATOM     14  O   UNL     1      90.173 101.119  67.754  1.00  0.00    -0.493 OA
ATOM     15  C   UNL     1      91.259 101.120  66.810  1.00  0.00     0.278 C 
ENDBRANCH   9  14
BRANCH  10  16
ATOM     16  O   UNL     1      88.368  99.076  68.389  1.00  0.00    -0.504 OA
ATOM     17  H   UNL     1      87.997  98.215  68.598  1.00  0.00     0.293 HD
ENDBRANCH  10  16
ENDBRANCH   7   8
ENDBRANCH   4   7
ENDBRANCH   2   3
ENDBRANCH   1   2
BRANCH   1  18
ATOM     18  C   UNL     1      94.355  94.888  74.784  1.00  0.00     0.001 C 
BRANCH  18  19
ATOM     19  C   UNL     1      94.654  94.415  76.234  1.00  0.00     0.000 C 
BRANCH  19  20
ATOM     20  C   UNL     1      93.556  93.448  76.759  1.00  0.00     0.000 C 
BRANCH  20  21
ATOM     21  C   UNL     1      92.618  94.070  77.831  1.00  0.00     0.003 C 
BRANCH  21  22
ATOM     22  C   UNL     1      91.372  94.815  77.251  1.00  0.00    -0.017 C 
ATOM     23  C   UNL     1      90.894  94.135  75.937  1.00  0.00     0.007 C 
ATOM     24  C   UNL     1      91.604  96.338  77.023  1.00  0.00     0.007 C 
ENDBRANCH  21  22
ENDBRANCH  20  21
ENDBRANCH  19  20
ENDBRANCH  18  19
ENDBRANCH   1  18
TORSDOF 11
ENDMDL
MODEL 4
REMARK VINA RESULT:    -5.990      6.005      9.159
REMARK INTER + INTRA:         -10.399
REMARK INTER:                  -9.720
REMARK INTRA:                  -0.679
REMARK UNBOUND:                -0.732
REMARK SMILES COc1cc(CNC(=O)CCCCCCC(C)C)ccc1O
REMARK SMILES IDX 11 1 10 2 8 3 7 4 9 6 6 7 5 8 3 9 21 10 4 11 20 12 19 13
REMARK SMILES IDX 2 14 1 15 22 16 12 18 13 19 14 20 15 21 16 22 17 23 18 24
REMARK H PARENT 7 5 22 17
REMARK Flexibility Score: inf
ROOT
ATOM      1  C   UNL     1      90.999  99.927  71.070  1.00  0.00     0.010 C 
ENDROOT
BRANCH   1   2
ATOM      2  C   UNL     1      90.098  98.717  70.697  1.00  0.00     0.100 C 
BRANCH   2   3
ATOM      3  C   UNL     1      89.682  98.713  69.276  1.00  0.00     0.220 C 
ATOM      4  N   UNL     1      90.178  99.644  68.411  1.00  0.00    -0.352 N 
ATOM      5  H   UNL     1      90.791 100.326  68.832  1.00  0.00     0.163 HD
ATOM      6  O   UNL     1      88.886  97.825  68.885  1.00  0.00    -0.275 OA
BRANCH   4   7
ATOM      7  C   UNL     1      89.894  99.703  67.009  1.00  0.00     0.151 C 
BRANCH   7   8
ATOM      8  C   UNL     1      88.679 100.501  66.690  1.00  0.00    -0.025 A 
ATOM      9  C   UNL     1      87.594 102.679  66.335  1.00  0.00     0.160 A 
ATOM     10  C   UNL     1      86.377 102.028  66.039  1.00  0.00     0.157 A 
ATOM     11  C   UNL     1      88.729 101.913  66.676  1.00  0.00     0.056 A 
ATOM     12  C   UNL     1      86.304 100.624  66.088  1.00  0.00     0.050 A 
ATOM     13  C   UNL     1      87.449  99.864  66.400  1.00  0.00     0.009 A 
BRANCH   9  14
ATOM     14  O   UNL     1      87.665 104.046  66.329  1.00  0.00    -0.493 OA
ATOM     15  C   UNL     1      87.612 104.635  67.641  1.00  0.00     0.278 C 
ENDBRANCH   9  14
BRANCH  10  16
ATOM     16  O   UNL     1      85.268 102.740  65.709  1.00  0.00    -0.504 OA
ATOM     17  H   UNL     1      84.647 102.723  66.442  1.00  0.00     0.293 HD
ENDBRANCH  10  16
ENDBRANCH   7   8
ENDBRANCH   4   7
ENDBRANCH   2   3
ENDBRANCH   1   2
BRANCH   1  18
ATOM     18  C   UNL     1      92.504  99.539  71.137  1.00  0.00     0.001 C 
BRANCH  18  19
ATOM     19  C   UNL     1      93.197  99.946  72.468  1.00  0.00     0.000 C 
BRANCH  19  20
ATOM     20  C   UNL     1      93.359  98.730  73.423  1.00  0.00     0.000 C 
BRANCH  20  21
ATOM     21  C   UNL     1      94.783  98.109  73.427  1.00  0.00     0.003 C 
BRANCH  21  22
ATOM     22  C   UNL     1      94.919  96.800  74.272  1.00  0.00    -0.017 C 
ATOM     23  C   UNL     1      93.566  96.448  74.951  1.00  0.00     0.007 C 
ATOM     24  C   UNL     1      96.061  96.855  75.330  1.00  0.00     0.007 C 
ENDBRANCH  21  22
ENDBRANCH  20  21
ENDBRANCH  19  20
ENDBRANCH  18  19
ENDBRANCH   1  18
TORSDOF 11
ENDMDL
MODEL 5
REMARK VINA RESULT:    -5.922     13.082     14.554
REMARK INTER + INTRA:         -10.289
REMARK INTER:                  -9.649
REMARK INTRA:                  -0.640
REMARK UNBOUND:                -0.732
REMARK SMILES COc1cc(CNC(=O)CCCCCCC(C)C)ccc1O
REMARK SMILES IDX 11 1 10 2 8 3 7 4 9 6 6 7 5 8 3 9 21 10 4 11 20 12 19 13
REMARK SMILES IDX 2 14 1 15 22 16 12 18 13 19 14 20 15 21 16 22 17 23 18 24
REMARK H PARENT 7 5 22 17
REMARK Flexibility Score: inf
ROOT
ATOM      1  C   UNL     1      97.337  82.048  78.245  1.00  0.00     0.010 C 
ENDROOT
BRANCH   1   2
ATOM      2  C   UNL     1      96.077  82.211  77.351  1.00  0.00     0.100 C 
BRANCH   2   3
ATOM      3  C   UNL     1      96.330  82.992  76.120  1.00  0.00     0.220 C 
ATOM      4  N   UNL     1      97.318  82.618  75.257  1.00  0.00    -0.352 N 
ATOM      5  H   UNL     1      97.859  81.820  75.557  1.00  0.00     0.163 HD
ATOM      6  O   UNL     1      95.603  83.987  75.879  1.00  0.00    -0.275 OA
BRANCH   4   7
ATOM      7  C   UNL     1      97.615  83.260  74.013  1.00  0.00     0.151 C 
BRANCH   7   8
ATOM      8  C   UNL     1      99.063  83.226  73.666  1.00  0.00    -0.025 A 
ATOM      9  C   UNL     1     100.955  84.066  72.339  1.00  0.00     0.160 A 
ATOM     10  C   UNL     1     101.828  83.198  73.029  1.00  0.00     0.157 A 
ATOM     11  C   UNL     1      99.578  84.060  72.648  1.00  0.00     0.056 A 
ATOM     12  C   UNL     1     101.320  82.334  74.016  1.00  0.00     0.050 A 
ATOM     13  C   UNL     1      99.950  82.354  74.341  1.00  0.00     0.009 A 
BRANCH   9  14
ATOM     14  O   UNL     1     101.432  84.882  71.349  1.00  0.00    -0.493 OA
ATOM     15  C   UNL     1     101.380  84.293  70.037  1.00  0.00     0.278 C 
ENDBRANCH   9  14
BRANCH  10  16
ATOM     16  O   UNL     1     103.158  83.181  72.750  1.00  0.00    -0.504 OA
ATOM     17  H   UNL     1     103.312  82.657  71.961  1.00  0.00     0.293 HD
ENDBRANCH  10  16
ENDBRANCH   7   8
ENDBRANCH   4   7
ENDBRANCH   2   3
ENDBRANCH   1   2
BRANCH   1  18
ATOM     18  C   UNL     1      96.980  81.979  79.757  1.00  0.00     0.001 C 
BRANCH  18  19
ATOM     19  C   UNL     1      97.413  80.654  80.444  1.00  0.00     0.000 C 
BRANCH  19  20
ATOM     20  C   UNL     1      97.510  80.814  81.988  1.00  0.00     0.000 C 
BRANCH  20  21
ATOM     21  C   UNL     1      96.158  80.638  82.733  1.00  0.00     0.003 C 
BRANCH  21  22
ATOM     22  C   UNL     1      95.803  81.798  83.719  1.00  0.00    -0.017 C 
ATOM     23  C   UNL     1      94.384  81.588  84.318  1.00  0.00     0.007 C 
ATOM     24  C   UNL     1      95.923  83.216  83.086  1.00  0.00     0.007 C 
ENDBRANCH  21  22
ENDBRANCH  20  21
ENDBRANCH  19  20
ENDBRANCH  18  19
ENDBRANCH   1  18
TORSDOF 11
ENDMDL
MODEL 6
REMARK VINA RESULT:    -5.861      3.619      6.332
REMARK INTER + INTRA:         -10.190
REMARK INTER:                  -9.450
REMARK INTRA:                  -0.740
REMARK UNBOUND:                -0.732
REMARK SMILES COc1cc(CNC(=O)CCCCCCC(C)C)ccc1O
REMARK SMILES IDX 11 1 10 2 8 3 7 4 9 6 6 7 5 8 3 9 21 10 4 11 20 12 19 13
REMARK SMILES IDX 2 14 1 15 22 16 12 18 13 19 14 20 15 21 16 22 17 23 18 24
REMARK H PARENT 7 5 22 17
REMARK Flexibility Score: inf
ROOT
ATOM      1  C   UNL     1      93.741  98.593  72.923  1.00  0.00     0.010 C 
ENDROOT
BRANCH   1   2
ATOM      2  C   UNL     1      93.859 100.142  72.877  1.00  0.00     0.100 C 
BRANCH   2   3
ATOM      3  C   UNL     1      93.150 100.748  71.728  1.00  0.00     0.220 C 
ATOM      4  N   UNL     1      91.793 100.647  71.624  1.00  0.00    -0.352 N 
ATOM      5  H   UNL     1      91.354 100.103  72.352  1.00  0.00     0.163 HD
ATOM      6  O   UNL     1      93.820 101.375  70.871  1.00  0.00    -0.275 OA
BRANCH   4   7
ATOM      7  C   UNL     1      90.998 101.240  70.592  1.00  0.00     0.151 C 
BRANCH   7   8
ATOM      8  C   UNL     1      90.467 100.248  69.617  1.00  0.00    -0.025 A 
ATOM      9  C   UNL     1      90.122  99.522  67.293  1.00  0.00     0.160 A 
ATOM     10  C   UNL     1      89.498  98.341  67.752  1.00  0.00     0.157 A 
ATOM     11  C   UNL     1      90.584 100.473  68.226  1.00  0.00     0.056 A 
ATOM     12  C   UNL     1      89.341  98.124  69.133  1.00  0.00     0.050 A 
ATOM     13  C   UNL     1      89.831  99.065  70.060  1.00  0.00     0.009 A 
BRANCH   9  14
ATOM     14  O   UNL     1      90.244  99.761  65.951  1.00  0.00    -0.493 OA
ATOM     15  C   UNL     1      91.265 100.721  65.624  1.00  0.00     0.278 C 
ENDBRANCH   9  14
BRANCH  10  16
ATOM     16  O   UNL     1      89.042  97.408  66.876  1.00  0.00    -0.504 OA
ATOM     17  H   UNL     1      88.190  97.080  67.173  1.00  0.00     0.293 HD
ENDBRANCH  10  16
ENDBRANCH   7   8
ENDBRANCH   4   7
ENDBRANCH   2   3
ENDBRANCH   1   2
BRANCH   1  18
ATOM     18  C   UNL     1      93.672  98.053  74.380  1.00  0.00     0.001 C 
BRANCH  18  19
ATOM     19  C   UNL     1      94.580  96.817  74.634  1.00  0.00     0.000 C 
BRANCH  19  20
ATOM     20  C   UNL     1      93.751  95.581  75.083  1.00  0.00     0.000 C 
BRANCH  20  21
ATOM     21  C   UNL     1      93.939  95.195  76.576  1.00  0.00     0.003 C 
BRANCH  21  22
ATOM     22  C   UNL     1      92.626  95.227  77.426  1.00  0.00    -0.017 C 
ATOM     23  C   UNL     1      91.911  93.848  77.372  1.00  0.00     0.007 C 
ATOM     24  C   UNL     1      91.646  96.366  77.021  1.00  0.00     0.007 C 
ENDBRANCH  21  22
ENDBRANCH  20  21
ENDBRANCH  19  20
ENDBRANCH  18  19
ENDBRANCH   1  18
TORSDOF 11
ENDMDL
MODEL 7
REMARK VINA RESULT:    -5.634      2.847      3.850
REMARK INTER + INTRA:          -9.823
REMARK INTER:                  -8.698
REMARK INTRA:                  -1.126
REMARK UNBOUND:                -0.732
REMARK SMILES COc1cc(CNC(=O)CCCCCCC(C)C)ccc1O
REMARK SMILES IDX 11 1 10 2 8 3 7 4 9 6 6 7 5 8 3 9 21 10 4 11 20 12 19 13
REMARK SMILES IDX 2 14 1 15 22 16 12 18 13 19 14 20 15 21 16 22 17 23 18 24
REMARK H PARENT 7 5 22 17
REMARK Flexibility Score: inf
ROOT
ATOM      1  C   UNL     1      96.512  94.847  78.311  1.00  0.00     0.010 C 
ENDROOT
BRANCH   1   2
ATOM      2  C   UNL     1      97.217  96.193  78.637  1.00  0.00     0.100 C 
BRANCH   2   3
ATOM      3  C   UNL     1      97.775  96.865  77.442  1.00  0.00     0.220 C 
ATOM      4  N   UNL     1      96.960  97.567  76.602  1.00  0.00    -0.352 N 
ATOM      5  H   UNL     1      95.980  97.540  76.846  1.00  0.00     0.163 HD
ATOM      6  O   UNL     1      99.011  96.796  77.235  1.00  0.00    -0.275 OA
BRANCH   4   7
ATOM      7  C   UNL     1      97.393  98.303  75.454  1.00  0.00     0.151 C 
BRANCH   7   8
ATOM      8  C   UNL     1      96.969  97.686  74.167  1.00  0.00    -0.025 A 
ATOM      9  C   UNL     1      97.196  97.481  71.727  1.00  0.00     0.160 A 
ATOM     10  C   UNL     1      96.198  96.483  71.715  1.00  0.00     0.157 A 
ATOM     11  C   UNL     1      97.561  98.087  72.948  1.00  0.00     0.056 A 
ATOM     12  C   UNL     1      95.574  96.103  72.917  1.00  0.00     0.050 A 
ATOM     13  C   UNL     1      95.964  96.691  74.137  1.00  0.00     0.009 A 
BRANCH   9  14
ATOM     14  O   UNL     1      97.781  97.887  70.558  1.00  0.00    -0.493 OA
ATOM     15  C   UNL     1      97.161  99.045  69.970  1.00  0.00     0.278 C 
ENDBRANCH   9  14
BRANCH  10  16
ATOM     16  O   UNL     1      95.826  95.883  70.554  1.00  0.00    -0.504 OA
ATOM     17  H   UNL     1      96.595  95.486  70.139  1.00  0.00     0.293 HD
ENDBRANCH  10  16
ENDBRANCH   7   8
ENDBRANCH   4   7
ENDBRANCH   2   3
ENDBRANCH   1   2
BRANCH   1  18
ATOM     18  C   UNL     1      95.168  94.687  79.077  1.00  0.00     0.001 C 
BRANCH  18  19
ATOM     19  C   UNL     1      94.503  93.294  78.892  1.00  0.00     0.000 C 
BRANCH  19  20
ATOM     20  C   UNL     1      93.051  93.420  78.352  1.00  0.00     0.000 C 
BRANCH  20  21
ATOM     21  C   UNL     1      92.953  93.502  76.803  1.00  0.00     0.003 C 
BRANCH  21  22
ATOM     22  C   UNL     1      92.008  94.629  76.270  1.00  0.00    -0.017 C 
ATOM     23  C   UNL     1      92.686  96.020  76.415  1.00  0.00     0.007 C 
ATOM     24  C   UNL     1      90.602  94.635  76.940  1.00  0.00     0.007 C 
ENDBRANCH  21  22
ENDBRANCH  20  21
ENDBRANCH  19  20
ENDBRANCH  18  19
ENDBRANCH   1  18
TORSDOF 11
ENDMDL
MODEL 8
REMARK VINA RESULT:    -5.460      7.400     10.114
REMARK INTER + INTRA:          -9.544
REMARK INTER:                  -7.624
REMARK INTRA:                  -1.919
REMARK UNBOUND:                -0.732
REMARK SMILES COc1cc(CNC(=O)CCCCCCC(C)C)ccc1O
REMARK SMILES IDX 11 1 10 2 8 3 7 4 9 6 6 7 5 8 3 9 21 10 4 11 20 12 19 13
REMARK SMILES IDX 2 14 1 15 22 16 12 18 13 19 14 20 15 21 16 22 17 23 18 24
REMARK H PARENT 7 5 22 17
REMARK Flexibility Score: inf
ROOT
ATOM      1  C   UNL     1      92.866 102.896  69.996  1.00  0.00     0.010 C 
ENDROOT
BRANCH   1   2
ATOM      2  C   UNL     1      92.972 103.823  68.753  1.00  0.00     0.100 C 
BRANCH   2   3
ATOM      3  C   UNL     1      92.639 103.139  67.483  1.00  0.00     0.220 C 
ATOM      4  N   UNL     1      92.102 101.884  67.496  1.00  0.00    -0.352 N 
ATOM      5  H   UNL     1      92.005 101.477  68.415  1.00  0.00     0.163 HD
ATOM      6  O   UNL     1      92.838 103.746  66.403  1.00  0.00    -0.275 OA
BRANCH   4   7
ATOM      7  C   UNL     1      91.689 101.151  66.339  1.00  0.00     0.151 C 
BRANCH   7   8
ATOM      8  C   UNL     1      90.259 100.738  66.385  1.00  0.00    -0.025 A 
ATOM      9  C   UNL     1      87.872 101.329  66.392  1.00  0.00     0.160 A 
ATOM     10  C   UNL     1      87.531  99.959  66.429  1.00  0.00     0.157 A 
ATOM     11  C   UNL     1      89.230 101.708  66.390  1.00  0.00     0.056 A 
ATOM     12  C   UNL     1      88.546  98.986  66.465  1.00  0.00     0.050 A 
ATOM     13  C   UNL     1      89.900  99.370  66.433  1.00  0.00     0.009 A 
BRANCH   9  14
ATOM     14  O   UNL     1      86.892 102.284  66.397  1.00  0.00    -0.493 OA
ATOM     15  C   UNL     1      87.385 103.620  66.186  1.00  0.00     0.278 C 
ENDBRANCH   9  14
BRANCH  10  16
ATOM     16  O   UNL     1      86.230  99.565  66.435  1.00  0.00    -0.504 OA
ATOM     17  H   UNL     1      85.708 100.181  65.916  1.00  0.00     0.293 HD
ENDBRANCH  10  16
ENDBRANCH   7   8
ENDBRANCH   4   7
ENDBRANCH   2   3
ENDBRANCH   1   2
BRANCH   1  18
ATOM     18  C   UNL     1      92.140 103.589  71.184  1.00  0.00     0.001 C 
BRANCH  18  19
ATOM     19  C   UNL     1      90.882 102.823  71.682  1.00  0.00     0.000 C 
BRANCH  19  20
ATOM     20  C   UNL     1      90.201 102.031  70.531  1.00  0.00     0.000 C 
BRANCH  20  21
ATOM     21  C   UNL     1      89.862 100.557  70.885  1.00  0.00     0.003 C 
BRANCH  21  22
ATOM     22  C   UNL     1      90.525  99.494  69.949  1.00  0.00    -0.017 C 
ATOM     23  C   UNL     1      89.808  98.122  70.091  1.00  0.00     0.007 C 
ATOM     24  C   UNL     1      92.058  99.334  70.172  1.00  0.00     0.007 C 
ENDBRANCH  21  22
ENDBRANCH  20  21
ENDBRANCH  19  20
ENDBRANCH  18  19
ENDBRANCH   1  18
TORSDOF 11
ENDMDL
MODEL 9
REMARK VINA RESULT:    -5.368      7.497     10.372
REMARK INTER + INTRA:          -9.394
REMARK INTER:                  -8.453
REMARK INTRA:                  -0.941
REMARK UNBOUND:                -0.732
REMARK SMILES COc1cc(CNC(=O)CCCCCCC(C)C)ccc1O
REMARK SMILES IDX 11 1 10 2 8 3 7 4 9 6 6 7 5 8 3 9 21 10 4 11 20 12 19 13
REMARK SMILES IDX 2 14 1 15 22 16 12 18 13 19 14 20 15 21 16 22 17 23 18 24
REMARK H PARENT 7 5 22 17
REMARK Flexibility Score: inf
ROOT
ATOM      1  C   UNL     1      96.606  93.897  78.737  1.00  0.00     0.010 C 
ENDROOT
BRANCH   1   2
ATOM      2  C   UNL     1      96.857  93.758  80.264  1.00  0.00     0.100 C 
BRANCH   2   3
ATOM      3  C   UNL     1      96.591  95.004  81.016  1.00  0.00     0.220 C 
ATOM      4  N   UNL     1      97.509  96.013  81.026  1.00  0.00    -0.352 N 
ATOM      5  H   UNL     1      98.364  95.809  80.529  1.00  0.00     0.163 HD
ATOM      6  O   UNL     1      95.496  95.120  81.621  1.00  0.00    -0.275 OA
BRANCH   4   7
ATOM      7  C   UNL     1      97.338  97.280  81.668  1.00  0.00     0.151 C 
BRANCH   7   8
ATOM      8  C   UNL     1      97.652  97.249  83.123  1.00  0.00    -0.025 A 
ATOM      9  C   UNL     1      99.113  96.542  84.971  1.00  0.00     0.160 A 
ATOM     10  C   UNL     1      98.282  97.220  85.890  1.00  0.00     0.157 A 
ATOM     11  C   UNL     1      98.782  96.546  83.600  1.00  0.00     0.056 A 
ATOM     12  C   UNL     1      97.134  97.891  85.432  1.00  0.00     0.050 A 
ATOM     13  C   UNL     1      96.825  97.915  84.058  1.00  0.00     0.009 A 
BRANCH   9  14
ATOM     14  O   UNL     1     100.211  95.854  85.410  1.00  0.00    -0.493 OA
ATOM     15  C   UNL     1     101.457  96.527  85.157  1.00  0.00     0.278 C 
ENDBRANCH   9  14
BRANCH  10  16
ATOM     16  O   UNL     1      98.576  97.233  87.217  1.00  0.00    -0.504 OA
ATOM     17  H   UNL     1      99.528  97.183  87.334  1.00  0.00     0.293 HD
ENDBRANCH  10  16
ENDBRANCH   7   8
ENDBRANCH   4   7
ENDBRANCH   2   3
ENDBRANCH   1   2
BRANCH   1  18
ATOM     18  C   UNL     1      95.483  92.945  78.236  1.00  0.00     0.001 C 
BRANCH  18  19
ATOM     19  C   UNL     1      94.073  93.295  78.789  1.00  0.00     0.000 C 
BRANCH  19  20
ATOM     20  C   UNL     1      93.528  94.614  78.173  1.00  0.00     0.000 C 
BRANCH  20  21
ATOM     21  C   UNL     1      92.333  94.418  77.199  1.00  0.00     0.003 C 
BRANCH  21  22
ATOM     22  C   UNL     1      91.750  92.967  77.170  1.00  0.00    -0.017 C 
ATOM     23  C   UNL     1      91.724  92.420  75.715  1.00  0.00     0.007 C 
ATOM     24  C   UNL     1      90.342  92.846  77.823  1.00  0.00     0.007 C 
ENDBRANCH  21  22
ENDBRANCH  20  21
ENDBRANCH  19  20
ENDBRANCH  18  19
ENDBRANCH   1  18
TORSDOF 11
ENDMDL
MODEL 10
REMARK VINA RESULT:    -5.350     13.517     16.300
REMARK INTER + INTRA:          -9.366
REMARK INTER:                  -7.624
REMARK INTRA:                  -1.741
REMARK UNBOUND:                -0.732
REMARK SMILES COc1cc(CNC(=O)CCCCCCC(C)C)ccc1O
REMARK SMILES IDX 11 1 10 2 8 3 7 4 9 6 6 7 5 8 3 9 21 10 4 11 20 12 19 13
REMARK SMILES IDX 2 14 1 15 22 16 12 18 13 19 14 20 15 21 16 22 17 23 18 24
REMARK H PARENT 7 5 22 17
REMARK Flexibility Score: inf
ROOT
ATOM      1  C   UNL     1      98.643  79.206  70.778  1.00  0.00     0.010 C 
ENDROOT
BRANCH   1   2
ATOM      2  C   UNL     1      99.757  80.290  70.782  1.00  0.00     0.100 C 
BRANCH   2   3
ATOM      3  C   UNL     1     100.128  80.741  72.142  1.00  0.00     0.220 C 
ATOM      4  N   UNL     1      99.666  81.931  72.623  1.00  0.00    -0.352 N 
ATOM      5  H   UNL     1      99.110  82.463  71.969  1.00  0.00     0.163 HD
ATOM      6  O   UNL     1     100.854  79.997  72.845  1.00  0.00    -0.275 OA
BRANCH   4   7
ATOM      7  C   UNL     1      99.911  82.441  73.938  1.00  0.00     0.151 C 
BRANCH   7   8
ATOM      8  C   UNL     1      98.672  82.587  74.751  1.00  0.00    -0.025 A 
ATOM      9  C   UNL     1      97.462  82.256  76.867  1.00  0.00     0.160 A 
ATOM     10  C   UNL     1      96.329  82.899  76.322  1.00  0.00     0.157 A 
ATOM     11  C   UNL     1      98.616  82.089  76.073  1.00  0.00     0.056 A 
ATOM     12  C   UNL     1      96.359  83.364  74.995  1.00  0.00     0.050 A 
ATOM     13  C   UNL     1      97.524  83.219  74.217  1.00  0.00     0.009 A 
BRANCH   9  14
ATOM     14  O   UNL     1      97.431  81.765  78.143  1.00  0.00    -0.493 OA
ATOM     15  C   UNL     1      98.600  81.008  78.503  1.00  0.00     0.278 C 
ENDBRANCH   9  14
BRANCH  10  16
ATOM     16  O   UNL     1      95.204  83.073  77.063  1.00  0.00    -0.504 OA
ATOM     17  H   UNL     1      95.082  84.008  77.244  1.00  0.00     0.293 HD
ENDBRANCH  10  16
ENDBRANCH   7   8
ENDBRANCH   4   7
ENDBRANCH   2   3
ENDBRANCH   1   2
BRANCH   1  18
ATOM     18  C   UNL     1      97.219  79.828  70.707  1.00  0.00     0.001 C 
BRANCH  18  19
ATOM     19  C   UNL     1      96.308  79.447  71.908  1.00  0.00     0.000 C 
BRANCH  19  20
ATOM     20  C   UNL     1      97.016  79.707  73.267  1.00  0.00     0.000 C 
BRANCH  20  21
ATOM     21  C   UNL     1      97.155  78.446  74.165  1.00  0.00     0.003 C 
BRANCH  21  22
ATOM     22  C   UNL     1      97.562  78.743  75.645  1.00  0.00    -0.017 C 
ATOM     23  C   UNL     1      99.048  78.357  75.889  1.00  0.00     0.007 C 
ATOM     24  C   UNL     1      96.641  78.057  76.696  1.00  0.00     0.007 C 
ENDBRANCH  21  22
ENDBRANCH  20  21
ENDBRANCH  19  20
ENDBRANCH  18  19
ENDBRANCH   1  18
TORSDOF 11
ENDMDL
