MODEL 1
REMARK VINA RESULT:    -7.191      0.000      0.000
REMARK INTER + INTRA:         -12.842
REMARK INTER:                 -12.235
REMARK INTRA:                  -0.607
REMARK UNBOUND:                -0.607
REMARK SMILES C=C(C)[C@]12C[C@@H](C)[C@@]34O[C@](Cc5ccccc5)(O[C@@H]1[C@@H]3C=C(COC(=O)Cc1ccc(O)cc1)C[C@]1(O)C(=O)C(C)=C[C@@H]41)O2
REMARK SMILES IDX 23 1 22 2 21 3 20 4 9 5 8 6 10 7 6 8 18 10 44 11 19 12 5 13
REMARK SMILES IDX 7 14 4 15 11 16 12 17 13 18 17 19 14 20 16 21 15 22 2 23
REMARK SMILES IDX 3 24 1 25 35 26 36 27 43 28 38 29 42 30 39 32 40 33 41 34
REMARK SMILES IDX 37 35 24 37 25 38 26 39 27 40 28 41 29 42 34 43 30 44 33 45
REMARK SMILES IDX 31 46 32 47
REMARK H PARENT 37 36 32 48
REMARK Flexibility Score: 90.00
ROOT
ATOM      1  C   UNL     1      98.092  82.598  86.220  1.00  0.00     0.264 C 
ENDROOT
BRANCH   1   2
ATOM      2  C   UNL     1      96.719  83.140  86.546  1.00  0.00    -0.033 C 
ATOM      3  C   UNL     1      95.686  82.283  86.680  1.00  0.00    -0.015 C 
BRANCH   3   4
ATOM      4  C   UNL     1      94.215  82.575  86.928  1.00  0.00     0.078 C 
ATOM      5  O   UNL     1      93.867  82.499  89.375  1.00  0.00    -0.319 OA
ATOM      6  C   UNL     1      93.820  83.388  88.215  1.00  0.00     0.095 CG0
ATOM      7  C   UNL     1      93.306  81.188  89.168  1.00  0.00     0.289 C 
ATOM      8  C   UNL     1      92.337  83.911  88.016  1.00  0.00     0.023 C 
ATOM      9  G   UNL     1      94.880  84.485  88.525  1.00  0.00     0.000 G0
ATOM     10  O   UNL     1      93.950  80.514  88.091  1.00  0.00    -0.320 OA
ATOM     11  O   UNL     1      91.925  81.237  88.821  1.00  0.00    -0.313 OA
ATOM     12  C   UNL     1      93.417  81.250  86.979  1.00  0.00     0.170 C 
ATOM     13  C   UNL     1      91.484  82.906  87.183  1.00  0.00     0.049 C 
ATOM     14  C   UNL     1      91.584  84.271  89.308  1.00  0.00     0.011 C 
ATOM     15  C   UNL     1      91.941  81.462  87.396  1.00  0.00     0.122 C 
BRANCH   7  16
ATOM     16  C   UNL     1      93.477  80.392  90.447  1.00  0.00     0.135 C 
BRANCH  16  17
ATOM     17  C   UNL     1      92.424  80.734  91.472  1.00  0.00    -0.040 A 
ATOM     18  C   UNL     1      91.400  79.829  91.749  1.00  0.00     0.004 A 
ATOM     19  C   UNL     1      92.476  81.956  92.142  1.00  0.00     0.004 A 
ATOM     20  C   UNL     1      90.427  80.146  92.697  1.00  0.00     0.000 A 
ATOM     21  C   UNL     1      91.503  82.272  93.090  1.00  0.00     0.000 A 
ATOM     22  C   UNL     1      90.479  81.368  93.367  1.00  0.00     0.000 A 
ENDBRANCH  16  17
ENDBRANCH   7  16
BRANCH  15  23
ATOM     23  C   UNL     1      91.027  80.471  86.753  1.00  0.00    -0.046 C 
ATOM     24  C   UNL     1      90.068  81.016  85.737  1.00  0.00     0.042 C 
ATOM     25  C   UNL     1      91.062  79.167  87.066  1.00  0.00     0.010 C 
ENDBRANCH  15  23
ENDBRANCH   3   4
BRANCH   2  26
ATOM     26  C   UNL     1      96.695  84.650  86.693  1.00  0.00     0.078 C 
BRANCH  26  27
ATOM     27  C   UNL     1      95.438  85.273  87.296  1.00  0.00     0.140 C 
ATOM     28  C   UNL     1      94.911  84.470  88.504  1.00  0.00     0.086 CG0
ATOM     29  C   UNL     1      95.698  86.636  87.900  1.00  0.00     0.190 C 
ATOM     30  C   UNL     1      94.624  85.531  89.530  1.00  0.00    -0.010 C 
ATOM     31  G   UNL     1      93.829  83.395  88.194  1.00  0.00     0.000 G0
ATOM     32  O   UNL     1      96.296  87.551  87.353  1.00  0.00    -0.291 OA
ATOM     33  C   UNL     1      95.078  86.752  89.234  1.00  0.00    -0.008 C 
ATOM     34  C   UNL     1      95.050  87.997  90.029  1.00  0.00     0.048 C 
BRANCH  27  35
ATOM     35  O   UNL     1      94.456  85.524  86.304  1.00  0.00    -0.381 OA
ATOM     36  H   UNL     1      93.604  85.180  86.622  1.00  0.00     0.212 HD
ENDBRANCH  27  35
ENDBRANCH  26  27
ENDBRANCH   2  26
ENDBRANCH   1   2
BRANCH   1  37
ATOM     37  O   UNL     1      98.524  83.133  84.987  1.00  0.00    -0.461 OA
BRANCH  37  38
ATOM     38  C   UNL     1      98.044  82.516  83.855  1.00  0.00     0.310 C 
ATOM     39  O   UNL     1      97.929  81.307  83.709  1.00  0.00    -0.252 OA
BRANCH  38  40
ATOM     40  C   UNL     1      97.683  83.560  82.827  1.00  0.00     0.158 C 
BRANCH  40  41
ATOM     41  C   UNL     1      98.249  83.262  81.463  1.00  0.00    -0.037 A 
ATOM     42  C   UNL     1      99.562  82.810  81.336  1.00  0.00     0.008 A 
ATOM     43  C   UNL     1      97.461  83.439  80.326  1.00  0.00     0.008 A 
ATOM     44  C   UNL     1     100.087  82.535  80.073  1.00  0.00     0.046 A 
ATOM     45  C   UNL     1      97.985  83.163  79.062  1.00  0.00     0.046 A 
ATOM     46  C   UNL     1      99.298  82.712  78.936  1.00  0.00     0.115 A 
BRANCH  46  47
ATOM     47  O   UNL     1      99.810  82.443  77.704  1.00  0.00    -0.508 OA
ATOM     48  H   UNL     1     100.765  82.634  77.711  1.00  0.00     0.293 HD
ENDBRANCH  46  47
ENDBRANCH  40  41
ENDBRANCH  38  40
ENDBRANCH  37  38
ENDBRANCH   1  37
TORSDOF 10
ENDMDL
MODEL 2
REMARK VINA RESULT:    -7.189      3.057      8.963
REMARK INTER + INTRA:         -12.839
REMARK INTER:                 -12.111
REMARK INTRA:                  -0.728
REMARK UNBOUND:                -0.607
REMARK SMILES C=C(C)[C@]12C[C@@H](C)[C@@]34O[C@](Cc5ccccc5)(O[C@@H]1[C@@H]3C=C(COC(=O)Cc1ccc(O)cc1)C[C@]1(O)C(=O)C(C)=C[C@@H]41)O2
REMARK SMILES IDX 23 1 22 2 21 3 20 4 9 5 8 6 10 7 6 8 18 10 44 11 19 12 5 13
REMARK SMILES IDX 7 14 4 15 11 16 12 17 13 18 17 19 14 20 16 21 15 22 2 23
REMARK SMILES IDX 3 24 1 25 35 26 36 27 43 28 38 29 42 30 39 32 40 33 41 34
REMARK SMILES IDX 37 35 24 37 25 38 26 39 27 40 28 41 29 42 34 43 30 44 33 45
REMARK SMILES IDX 31 46 32 47
REMARK H PARENT 37 36 32 48
REMARK Flexibility Score: 90.00
ROOT
ATOM      1  C   UNL     1      94.572  87.509  90.195  1.00  0.00     0.264 C 
ENDROOT
BRANCH   1   2
ATOM      2  C   UNL     1      94.364  86.242  89.398  1.00  0.00    -0.033 C 
ATOM      3  C   UNL     1      95.377  85.763  88.645  1.00  0.00    -0.015 C 
BRANCH   3   4
ATOM      4  C   UNL     1      95.400  84.568  87.706  1.00  0.00     0.078 C 
ATOM      5  O   UNL     1      96.218  82.637  89.017  1.00  0.00    -0.319 OA
ATOM      6  C   UNL     1      95.057  83.149  88.292  1.00  0.00     0.095 CG0
ATOM      7  C   UNL     1      97.488  82.845  88.370  1.00  0.00     0.289 C 
ATOM      8  C   UNL     1      94.738  82.191  87.071  1.00  0.00     0.023 C 
ATOM      9  G   UNL     1      93.940  83.251  89.371  1.00  0.00     0.000 G0
ATOM     10  O   UNL     1      97.721  84.227  88.118  1.00  0.00    -0.320 OA
ATOM     11  O   UNL     1      97.560  82.204  87.098  1.00  0.00    -0.313 OA
ATOM     12  C   UNL     1      96.794  84.447  87.043  1.00  0.00     0.170 C 
ATOM     13  C   UNL     1      95.587  82.560  85.816  1.00  0.00     0.049 C 
ATOM     14  C   UNL     1      94.879  80.686  87.357  1.00  0.00     0.011 C 
ATOM     15  C   UNL     1      96.942  83.154  86.204  1.00  0.00     0.122 C 
BRANCH   7  16
ATOM     16  C   UNL     1      98.576  82.297  89.272  1.00  0.00     0.135 C 
BRANCH  16  17
ATOM     17  C   UNL     1      99.901  82.188  88.560  1.00  0.00    -0.040 A 
ATOM     18  C   UNL     1     100.287  80.978  87.985  1.00  0.00     0.004 A 
ATOM     19  C   UNL     1     100.740  83.299  88.477  1.00  0.00     0.004 A 
ATOM     20  C   UNL     1     101.513  80.878  87.326  1.00  0.00     0.000 A 
ATOM     21  C   UNL     1     101.966  83.199  87.818  1.00  0.00     0.000 A 
ATOM     22  C   UNL     1     102.352  81.989  87.243  1.00  0.00     0.000 A 
ENDBRANCH  16  17
ENDBRANCH   7  16
BRANCH  15  23
ATOM     23  C   UNL     1      97.842  83.347  85.028  1.00  0.00    -0.046 C 
ATOM     24  C   UNL     1      99.197  82.711  85.120  1.00  0.00     0.042 C 
ATOM     25  C   UNL     1      97.461  84.049  83.951  1.00  0.00     0.010 C 
ENDBRANCH  15  23
ENDBRANCH   3   4
BRANCH   2  26
ATOM     26  C   UNL     1      92.978  85.650  89.570  1.00  0.00     0.078 C 
BRANCH  26  27
ATOM     27  C   UNL     1      92.752  84.236  89.037  1.00  0.00     0.140 C 
ATOM     28  C   UNL     1      93.923  83.291  89.375  1.00  0.00     0.086 CG0
ATOM     29  C   UNL     1      91.577  83.548  89.699  1.00  0.00     0.190 C 
ATOM     30  C   UNL     1      93.237  82.051  89.878  1.00  0.00    -0.010 C 
ATOM     31  G   UNL     1      95.035  83.163  88.294  1.00  0.00     0.000 G0
ATOM     32  O   UNL     1      90.465  84.033  89.849  1.00  0.00    -0.291 OA
ATOM     33  C   UNL     1      91.925  82.171  90.097  1.00  0.00    -0.008 C 
ATOM     34  C   UNL     1      90.961  81.202  90.658  1.00  0.00     0.048 C 
BRANCH  27  35
ATOM     35  O   UNL     1      92.405  84.250  87.662  1.00  0.00    -0.381 OA
ATOM     36  H   UNL     1      92.880  84.981  87.233  1.00  0.00     0.212 HD
ENDBRANCH  27  35
ENDBRANCH  26  27
ENDBRANCH   2  26
ENDBRANCH   1   2
BRANCH   1  37
ATOM     37  O   UNL     1      95.719  88.178  89.717  1.00  0.00    -0.461 OA
BRANCH  37  38
ATOM     38  C   UNL     1      95.860  89.492  90.099  1.00  0.00     0.310 C 
ATOM     39  O   UNL     1      96.646  89.898  90.943  1.00  0.00    -0.252 OA
BRANCH  38  40
ATOM     40  C   UNL     1      94.895  90.350  89.316  1.00  0.00     0.158 C 
BRANCH  40  41
ATOM     41  C   UNL     1      94.068  91.255  90.192  1.00  0.00    -0.037 A 
ATOM     42  C   UNL     1      94.418  92.597  90.336  1.00  0.00     0.008 A 
ATOM     43  C   UNL     1      92.953  90.750  90.860  1.00  0.00     0.008 A 
ATOM     44  C   UNL     1      93.653  93.435  91.148  1.00  0.00     0.046 A 
ATOM     45  C   UNL     1      92.187  91.588  91.672  1.00  0.00     0.046 A 
ATOM     46  C   UNL     1      92.537  92.930  91.816  1.00  0.00     0.115 A 
BRANCH  46  47
ATOM     47  O   UNL     1      91.791  93.747  92.609  1.00  0.00    -0.508 OA
ATOM     48  H   UNL     1      91.291  93.202  93.241  1.00  0.00     0.293 HD
ENDBRANCH  46  47
ENDBRANCH  40  41
ENDBRANCH  38  40
ENDBRANCH  37  38
ENDBRANCH   1  37
TORSDOF 10
ENDMDL
MODEL 3
REMARK VINA RESULT:    -7.133      2.332      4.283
REMARK INTER + INTRA:         -12.745
REMARK INTER:                 -12.051
REMARK INTRA:                  -0.694
REMARK UNBOUND:                -0.607
REMARK SMILES C=C(C)[C@]12C[C@@H](C)[C@@]34O[C@](Cc5ccccc5)(O[C@@H]1[C@@H]3C=C(COC(=O)Cc1ccc(O)cc1)C[C@]1(O)C(=O)C(C)=C[C@@H]41)O2
REMARK SMILES IDX 23 1 22 2 21 3 20 4 9 5 8 6 10 7 6 8 18 10 44 11 19 12 5 13
REMARK SMILES IDX 7 14 4 15 11 16 12 17 13 18 17 19 14 20 16 21 15 22 2 23
REMARK SMILES IDX 3 24 1 25 35 26 36 27 43 28 38 29 42 30 39 32 40 33 41 34
REMARK SMILES IDX 37 35 24 37 25 38 26 39 27 40 28 41 29 42 34 43 30 44 33 45
REMARK SMILES IDX 31 46 32 47
REMARK H PARENT 37 36 32 48
REMARK Flexibility Score: 90.00
ROOT
ATOM      1  C   UNL     1      95.550  85.932  87.633  1.00  0.00     0.264 C 
ENDROOT
BRANCH   1   2
ATOM      2  C   UNL     1      94.340  85.351  88.327  1.00  0.00    -0.033 C 
ATOM      3  C   UNL     1      93.673  84.331  87.747  1.00  0.00    -0.015 C 
BRANCH   3   4
ATOM      4  C   UNL     1      92.400  83.631  88.196  1.00  0.00     0.078 C 
ATOM      5  O   UNL     1      93.089  81.711  89.595  1.00  0.00    -0.319 OA
ATOM      6  C   UNL     1      92.368  82.982  89.629  1.00  0.00     0.095 CG0
ATOM      7  C   UNL     1      92.830  80.888  88.442  1.00  0.00     0.289 C 
ATOM      8  C   UNL     1      90.852  82.714  90.000  1.00  0.00     0.023 C 
ATOM      9  G   UNL     1      93.162  83.852  90.648  1.00  0.00     0.000 G0
ATOM     10  O   UNL     1      93.132  81.579  87.234  1.00  0.00    -0.320 OA
ATOM     11  O   UNL     1      91.458  80.514  88.340  1.00  0.00    -0.313 OA
ATOM     12  C   UNL     1      92.037  82.507  87.195  1.00  0.00     0.170 C 
ATOM     13  C   UNL     1      90.008  82.358  88.738  1.00  0.00     0.049 C 
ATOM     14  C   UNL     1      90.615  81.652  91.088  1.00  0.00     0.011 C 
ATOM     15  C   UNL     1      90.848  81.643  87.679  1.00  0.00     0.122 C 
BRANCH   7  16
ATOM     16  C   UNL     1      93.686  79.641  88.548  1.00  0.00     0.135 C 
BRANCH  16  17
ATOM     17  C   UNL     1      93.063  78.465  87.837  1.00  0.00    -0.040 A 
ATOM     18  C   UNL     1      93.324  78.250  86.484  1.00  0.00     0.004 A 
ATOM     19  C   UNL     1      92.227  77.593  88.534  1.00  0.00     0.004 A 
ATOM     20  C   UNL     1      92.748  77.161  85.827  1.00  0.00     0.000 A 
ATOM     21  C   UNL     1      91.651  76.505  87.877  1.00  0.00     0.000 A 
ATOM     22  C   UNL     1      91.912  76.290  86.524  1.00  0.00     0.000 A 
ENDBRANCH  16  17
ENDBRANCH   7  16
BRANCH  15  23
ATOM     23  C   UNL     1      90.024  81.132  86.542  1.00  0.00    -0.046 C 
ATOM     24  C   UNL     1      88.592  81.577  86.511  1.00  0.00     0.042 C 
ATOM     25  C   UNL     1      90.535  80.323  85.603  1.00  0.00     0.010 C 
ENDBRANCH  15  23
ENDBRANCH   3   4
BRANCH   2  26
ATOM     26  C   UNL     1      94.032  86.024  89.652  1.00  0.00     0.078 C 
BRANCH  26  27
ATOM     27  C   UNL     1      92.964  85.378  90.532  1.00  0.00     0.140 C 
ATOM     28  C   UNL     1      93.155  83.852  90.656  1.00  0.00     0.086 CG0
ATOM     29  C   UNL     1      93.047  85.834  91.974  1.00  0.00     0.190 C 
ATOM     30  C   UNL     1      92.987  83.597  92.128  1.00  0.00    -0.010 C 
ATOM     31  G   UNL     1      92.370  82.978  89.635  1.00  0.00     0.000 G0
ATOM     32  O   UNL     1      93.132  86.995  92.345  1.00  0.00    -0.291 OA
ATOM     33  C   UNL     1      92.952  84.689  92.898  1.00  0.00    -0.008 C 
ATOM     34  C   UNL     1      92.881  84.814  94.368  1.00  0.00     0.048 C 
BRANCH  27  35
ATOM     35  O   UNL     1      91.660  85.762  90.131  1.00  0.00    -0.381 OA
ATOM     36  H   UNL     1      91.028  85.445  90.799  1.00  0.00     0.212 HD
ENDBRANCH  27  35
ENDBRANCH  26  27
ENDBRANCH   2  26
ENDBRANCH   1   2
BRANCH   1  37
ATOM     37  O   UNL     1      95.403  85.781  86.237  1.00  0.00    -0.461 OA
BRANCH  37  38
ATOM     38  C   UNL     1      96.491  85.277  85.563  1.00  0.00     0.310 C 
ATOM     39  O   UNL     1      97.423  85.943  85.134  1.00  0.00    -0.252 OA
BRANCH  38  40
ATOM     40  C   UNL     1      96.355  83.778  85.436  1.00  0.00     0.158 C 
BRANCH  40  41
ATOM     41  C   UNL     1      97.668  83.090  85.165  1.00  0.00    -0.037 A 
ATOM     42  C   UNL     1      98.628  82.997  86.172  1.00  0.00     0.008 A 
ATOM     43  C   UNL     1      97.923  82.546  83.906  1.00  0.00     0.008 A 
ATOM     44  C   UNL     1      99.844  82.361  85.920  1.00  0.00     0.046 A 
ATOM     45  C   UNL     1      99.138  81.908  83.654  1.00  0.00     0.046 A 
ATOM     46  C   UNL     1     100.099  81.816  84.661  1.00  0.00     0.115 A 
BRANCH  46  47
ATOM     47  O   UNL     1     101.285  81.196  84.416  1.00  0.00    -0.508 OA
ATOM     48  H   UNL     1     101.961  81.870  84.230  1.00  0.00     0.293 HD
ENDBRANCH  46  47
ENDBRANCH  40  41
ENDBRANCH  38  40
ENDBRANCH  37  38
ENDBRANCH   1  37
TORSDOF 10
ENDMDL
MODEL 4
REMARK VINA RESULT:    -6.873     30.553     34.025
REMARK INTER + INTRA:         -12.303
REMARK INTER:                  -9.634
REMARK INTRA:                  -2.669
REMARK UNBOUND:                -0.607
REMARK SMILES C=C(C)[C@]12C[C@@H](C)[C@@]34O[C@](Cc5ccccc5)(O[C@@H]1[C@@H]3C=C(COC(=O)Cc1ccc(O)cc1)C[C@]1(O)C(=O)C(C)=C[C@@H]41)O2
REMARK SMILES IDX 23 1 22 2 21 3 20 4 9 5 8 6 10 7 6 8 18 10 44 11 19 12 5 13
REMARK SMILES IDX 7 14 4 15 11 16 12 17 13 18 17 19 14 20 16 21 15 22 2 23
REMARK SMILES IDX 3 24 1 25 35 26 36 27 43 28 38 29 42 30 39 32 40 33 41 34
REMARK SMILES IDX 37 35 24 37 25 38 26 39 27 40 28 41 29 42 34 43 30 44 33 45
REMARK SMILES IDX 31 46 32 47
REMARK H PARENT 37 36 32 48
REMARK Flexibility Score: 90.00
ROOT
ATOM      1  C   UNL     1      61.632  88.239  72.214  1.00  0.00     0.264 C 
ENDROOT
BRANCH   1   2
ATOM      2  C   UNL     1      62.875  88.033  73.048  1.00  0.00    -0.033 C 
ATOM      3  C   UNL     1      62.748  87.728  74.356  1.00  0.00    -0.015 C 
BRANCH   3   4
ATOM      4  C   UNL     1      63.824  87.548  75.415  1.00  0.00     0.078 C 
ATOM      5  O   UNL     1      64.390  85.141  75.465  1.00  0.00    -0.319 OA
ATOM      6  C   UNL     1      64.938  86.464  75.172  1.00  0.00     0.095 CG0
ATOM      7  C   UNL     1      63.574  85.062  76.650  1.00  0.00     0.289 C 
ATOM      8  C   UNL     1      66.130  86.769  76.171  1.00  0.00     0.023 C 
ATOM      9  G   UNL     1      65.327  86.397  73.667  1.00  0.00     0.000 G0
ATOM     10  O   UNL     1      62.478  85.970  76.586  1.00  0.00    -0.320 OA
ATOM     11  O   UNL     1      64.295  85.411  77.829  1.00  0.00    -0.313 OA
ATOM     12  C   UNL     1      63.171  87.214  76.778  1.00  0.00     0.170 C 
ATOM     13  C   UNL     1      65.612  87.367  77.514  1.00  0.00     0.049 C 
ATOM     14  C   UNL     1      67.064  85.584  76.467  1.00  0.00     0.011 C 
ATOM     15  C   UNL     1      64.215  86.851  77.862  1.00  0.00     0.122 C 
BRANCH   7  16
ATOM     16  C   UNL     1      63.057  83.642  76.776  1.00  0.00     0.135 C 
BRANCH  16  17
ATOM     17  C   UNL     1      62.880  82.982  75.432  1.00  0.00    -0.040 A 
ATOM     18  C   UNL     1      63.899  82.189  74.905  1.00  0.00     0.004 A 
ATOM     19  C   UNL     1      61.698  83.166  74.716  1.00  0.00     0.004 A 
ATOM     20  C   UNL     1      63.735  81.578  73.661  1.00  0.00     0.000 A 
ATOM     21  C   UNL     1      61.534  82.555  73.472  1.00  0.00     0.000 A 
ATOM     22  C   UNL     1      62.553  81.761  72.945  1.00  0.00     0.000 A 
ENDBRANCH  16  17
ENDBRANCH   7  16
BRANCH  15  23
ATOM     23  C   UNL     1      63.774  87.266  79.228  1.00  0.00    -0.046 C 
ATOM     24  C   UNL     1      64.509  86.645  80.379  1.00  0.00     0.042 C 
ATOM     25  C   UNL     1      62.776  88.143  79.415  1.00  0.00     0.010 C 
ENDBRANCH  15  23
ENDBRANCH   3   4
BRANCH   2  26
ATOM     26  C   UNL     1      64.158  88.198  72.256  1.00  0.00     0.078 C 
BRANCH  26  27
ATOM     27  C   UNL     1      65.458  87.773  72.936  1.00  0.00     0.140 C 
ATOM     28  C   UNL     1      65.323  86.415  73.656  1.00  0.00     0.086 CG0
ATOM     29  C   UNL     1      66.571  87.507  71.945  1.00  0.00     0.190 C 
ATOM     30  C   UNL     1      66.562  85.673  73.237  1.00  0.00    -0.010 C 
ATOM     31  G   UNL     1      64.941  86.473  75.164  1.00  0.00     0.000 G0
ATOM     32  O   UNL     1      66.897  88.249  71.031  1.00  0.00    -0.291 OA
ATOM     33  C   UNL     1      67.269  86.246  72.259  1.00  0.00    -0.008 C 
ATOM     34  C   UNL     1      68.475  85.768  71.552  1.00  0.00     0.048 C 
BRANCH  27  35
ATOM     35  O   UNL     1      65.976  88.807  73.757  1.00  0.00    -0.381 OA
ATOM     36  H   UNL     1      65.253  89.151  74.310  1.00  0.00     0.212 HD
ENDBRANCH  27  35
ENDBRANCH  26  27
ENDBRANCH   2  26
ENDBRANCH   1   2
BRANCH   1  37
ATOM     37  O   UNL     1      60.874  87.048  72.203  1.00  0.00    -0.461 OA
BRANCH  37  38
ATOM     38  C   UNL     1      60.538  86.554  70.963  1.00  0.00     0.310 C 
ATOM     39  O   UNL     1      60.257  87.236  69.988  1.00  0.00    -0.252 OA
BRANCH  38  40
ATOM     40  C   UNL     1      60.572  85.044  70.997  1.00  0.00     0.158 C 
BRANCH  40  41
ATOM     41  C   UNL     1      61.872  84.474  70.494  1.00  0.00    -0.037 A 
ATOM     42  C   UNL     1      63.082  84.913  71.033  1.00  0.00     0.008 A 
ATOM     43  C   UNL     1      61.868  83.508  69.488  1.00  0.00     0.008 A 
ATOM     44  C   UNL     1      64.286  84.386  70.566  1.00  0.00     0.046 A 
ATOM     45  C   UNL     1      63.072  82.979  69.022  1.00  0.00     0.046 A 
ATOM     46  C   UNL     1      64.281  83.419  69.561  1.00  0.00     0.115 A 
BRANCH  46  47
ATOM     47  O   UNL     1      65.456  82.905  69.105  1.00  0.00    -0.508 OA
ATOM     48  H   UNL     1      66.128  82.988  69.804  1.00  0.00     0.293 HD
ENDBRANCH  46  47
ENDBRANCH  40  41
ENDBRANCH  38  40
ENDBRANCH  37  38
ENDBRANCH   1  37
TORSDOF 10
ENDMDL
MODEL 5
REMARK VINA RESULT:    -6.780     31.379     34.935
REMARK INTER + INTRA:         -12.144
REMARK INTER:                 -10.580
REMARK INTRA:                  -1.564
REMARK UNBOUND:                -0.607
REMARK SMILES C=C(C)[C@]12C[C@@H](C)[C@@]34O[C@](Cc5ccccc5)(O[C@@H]1[C@@H]3C=C(COC(=O)Cc1ccc(O)cc1)C[C@]1(O)C(=O)C(C)=C[C@@H]41)O2
REMARK SMILES IDX 23 1 22 2 21 3 20 4 9 5 8 6 10 7 6 8 18 10 44 11 19 12 5 13
REMARK SMILES IDX 7 14 4 15 11 16 12 17 13 18 17 19 14 20 16 21 15 22 2 23
REMARK SMILES IDX 3 24 1 25 35 26 36 27 43 28 38 29 42 30 39 32 40 33 41 34
REMARK SMILES IDX 37 35 24 37 25 38 26 39 27 40 28 41 29 42 34 43 30 44 33 45
REMARK SMILES IDX 31 46 32 47
REMARK H PARENT 37 36 32 48
REMARK Flexibility Score: 90.00
ROOT
ATOM      1  C   UNL     1      65.494  86.907  77.925  1.00  0.00     0.264 C 
ENDROOT
BRANCH   1   2
ATOM      2  C   UNL     1      65.406  86.711  76.429  1.00  0.00    -0.033 C 
ATOM      3  C   UNL     1      64.757  85.633  75.942  1.00  0.00    -0.015 C 
BRANCH   3   4
ATOM      4  C   UNL     1      64.595  85.174  74.502  1.00  0.00     0.078 C 
ATOM      5  O   UNL     1      62.492  86.168  73.661  1.00  0.00    -0.319 OA
ATOM      6  C   UNL     1      63.941  86.164  73.470  1.00  0.00     0.095 CG0
ATOM      7  C   UNL     1      61.896  84.873  73.871  1.00  0.00     0.289 C 
ATOM      8  C   UNL     1      64.276  85.631  72.016  1.00  0.00     0.023 C 
ATOM      9  G   UNL     1      64.374  87.631  73.760  1.00  0.00     0.000 G0
ATOM     10  O   UNL     1      62.471  84.215  74.997  1.00  0.00    -0.320 OA
ATOM     11  O   UNL     1      62.101  83.996  72.766  1.00  0.00    -0.313 OA
ATOM     12  C   UNL     1      63.757  83.872  74.457  1.00  0.00     0.170 C 
ATOM     13  C   UNL     1      64.345  84.073  71.980  1.00  0.00     0.049 C 
ATOM     14  C   UNL     1      63.341  86.125  70.899  1.00  0.00     0.011 C 
ATOM     15  C   UNL     1      63.410  83.441  73.011  1.00  0.00     0.122 C 
BRANCH   7  16
ATOM     16  C   UNL     1      60.409  85.065  74.094  1.00  0.00     0.135 C 
BRANCH  16  17
ATOM     17  C   UNL     1      59.715  85.589  72.861  1.00  0.00    -0.040 A 
ATOM     18  C   UNL     1      59.302  84.706  71.865  1.00  0.00     0.004 A 
ATOM     19  C   UNL     1      59.486  86.957  72.720  1.00  0.00     0.004 A 
ATOM     20  C   UNL     1      58.660  85.190  70.725  1.00  0.00     0.000 A 
ATOM     21  C   UNL     1      58.844  87.442  71.580  1.00  0.00     0.000 A 
ATOM     22  C   UNL     1      58.431  86.559  70.583  1.00  0.00     0.000 A 
ENDBRANCH  16  17
ENDBRANCH   7  16
BRANCH  15  23
ATOM     23  C   UNL     1      63.324  81.956  72.873  1.00  0.00    -0.046 C 
ATOM     24  C   UNL     1      64.351  81.313  71.989  1.00  0.00     0.042 C 
ATOM     25  C   UNL     1      62.382  81.238  73.503  1.00  0.00     0.010 C 
ENDBRANCH  15  23
ENDBRANCH   3   4
BRANCH   2  26
ATOM     26  C   UNL     1      66.089  87.815  75.644  1.00  0.00     0.078 C 
BRANCH  26  27
ATOM     27  C   UNL     1      65.887  87.821  74.130  1.00  0.00     0.140 C 
ATOM     28  C   UNL     1      64.407  87.625  73.738  1.00  0.00     0.086 CG0
ATOM     29  C   UNL     1      66.212  89.163  73.507  1.00  0.00     0.190 C 
ATOM     30  C   UNL     1      64.180  88.678  72.689  1.00  0.00    -0.010 C 
ATOM     31  G   UNL     1      63.961  86.160  73.458  1.00  0.00     0.000 G0
ATOM     32  O   UNL     1      67.228  89.811  73.713  1.00  0.00    -0.291 OA
ATOM     33  C   UNL     1      65.163  89.574  72.555  1.00  0.00    -0.008 C 
ATOM     34  C   UNL     1      65.246  90.774  71.697  1.00  0.00     0.048 C 
BRANCH  27  35
ATOM     35  O   UNL     1      66.774  86.924  73.484  1.00  0.00    -0.381 OA
ATOM     36  H   UNL     1      67.674  87.286  73.545  1.00  0.00     0.212 HD
ENDBRANCH  27  35
ENDBRANCH  26  27
ENDBRANCH   2  26
ENDBRANCH   1   2
BRANCH   1  37
ATOM     37  O   UNL     1      64.224  87.271  78.424  1.00  0.00    -0.461 OA
BRANCH  37  38
ATOM     38  C   UNL     1      64.054  88.599  78.740  1.00  0.00     0.310 C 
ATOM     39  O   UNL     1      64.959  89.381  78.996  1.00  0.00    -0.252 OA
BRANCH  38  40
ATOM     40  C   UNL     1      62.583  88.937  78.722  1.00  0.00     0.158 C 
BRANCH  40  41
ATOM     41  C   UNL     1      62.188  89.782  77.539  1.00  0.00    -0.037 A 
ATOM     42  C   UNL     1      62.209  89.238  76.255  1.00  0.00     0.008 A 
ATOM     43  C   UNL     1      61.802  91.109  77.727  1.00  0.00     0.008 A 
ATOM     44  C   UNL     1      61.845  90.021  75.159  1.00  0.00     0.046 A 
ATOM     45  C   UNL     1      61.437  91.892  76.632  1.00  0.00     0.046 A 
ATOM     46  C   UNL     1      61.459  91.349  75.348  1.00  0.00     0.115 A 
BRANCH  46  47
ATOM     47  O   UNL     1      61.104  92.112  74.279  1.00  0.00    -0.508 OA
ATOM     48  H   UNL     1      61.557  92.971  74.341  1.00  0.00     0.293 HD
ENDBRANCH  46  47
ENDBRANCH  40  41
ENDBRANCH  38  40
ENDBRANCH  37  38
ENDBRANCH   1  37
TORSDOF 10
ENDMDL
MODEL 6
REMARK VINA RESULT:    -6.722      3.174      8.186
REMARK INTER + INTRA:         -12.044
REMARK INTER:                 -10.993
REMARK INTRA:                  -1.051
REMARK UNBOUND:                -0.607
REMARK SMILES C=C(C)[C@]12C[C@@H](C)[C@@]34O[C@](Cc5ccccc5)(O[C@@H]1[C@@H]3C=C(COC(=O)Cc1ccc(O)cc1)C[C@]1(O)C(=O)C(C)=C[C@@H]41)O2
REMARK SMILES IDX 23 1 22 2 21 3 20 4 9 5 8 6 10 7 6 8 18 10 44 11 19 12 5 13
REMARK SMILES IDX 7 14 4 15 11 16 12 17 13 18 17 19 14 20 16 21 15 22 2 23
REMARK SMILES IDX 3 24 1 25 35 26 36 27 43 28 38 29 42 30 39 32 40 33 41 34
REMARK SMILES IDX 37 35 24 37 25 38 26 39 27 40 28 41 29 42 34 43 30 44 33 45
REMARK SMILES IDX 31 46 32 47
REMARK H PARENT 37 36 32 48
REMARK Flexibility Score: 90.00
ROOT
ATOM      1  C   UNL     1      92.558  86.205  90.524  1.00  0.00     0.264 C 
ENDROOT
BRANCH   1   2
ATOM      2  C   UNL     1      92.822  85.124  89.501  1.00  0.00    -0.033 C 
ATOM      3  C   UNL     1      94.071  84.970  89.013  1.00  0.00    -0.015 C 
BRANCH   3   4
ATOM      4  C   UNL     1      94.576  84.023  87.936  1.00  0.00     0.078 C 
ATOM      5  O   UNL     1      95.372  81.984  89.086  1.00  0.00    -0.319 OA
ATOM      6  C   UNL     1      94.371  82.478  88.143  1.00  0.00     0.095 CG0
ATOM      7  C   UNL     1      96.703  82.499  88.896  1.00  0.00     0.289 C 
ATOM      8  C   UNL     1      94.582  81.774  86.739  1.00  0.00     0.023 C 
ATOM      9  G   UNL     1      93.008  82.188  88.837  1.00  0.00     0.000 G0
ATOM     10  O   UNL     1      96.722  83.922  88.964  1.00  0.00    -0.320 OA
ATOM     11  O   UNL     1      97.236  82.168  87.616  1.00  0.00    -0.313 OA
ATOM     12  C   UNL     1      96.093  84.242  87.713  1.00  0.00     0.170 C 
ATOM     13  C   UNL     1      95.647  82.521  85.879  1.00  0.00     0.049 C 
ATOM     14  C   UNL     1      94.931  80.277  86.795  1.00  0.00     0.011 C 
ATOM     15  C   UNL     1      96.707  83.195  86.752  1.00  0.00     0.122 C 
BRANCH   7  16
ATOM     16  C   UNL     1      97.595  81.922  89.978  1.00  0.00     0.135 C 
BRANCH  16  17
ATOM     17  C   UNL     1      99.035  81.836  89.539  1.00  0.00    -0.040 A 
ATOM     18  C   UNL     1      99.451  80.795  88.709  1.00  0.00     0.004 A 
ATOM     19  C   UNL     1      99.951  82.799  89.963  1.00  0.00     0.004 A 
ATOM     20  C   UNL     1     100.783  80.716  88.303  1.00  0.00     0.000 A 
ATOM     21  C   UNL     1     101.283  82.720  89.556  1.00  0.00     0.000 A 
ATOM     22  C   UNL     1     101.699  81.679  88.727  1.00  0.00     0.000 A 
ENDBRANCH  16  17
ENDBRANCH   7  16
BRANCH  15  23
ATOM     23  C   UNL     1      97.834  83.762  85.951  1.00  0.00    -0.046 C 
ATOM     24  C   UNL     1      99.116  84.005  86.692  1.00  0.00     0.042 C 
ATOM     25  C   UNL     1      97.708  84.037  84.645  1.00  0.00     0.010 C 
ENDBRANCH  15  23
ENDBRANCH   3   4
BRANCH   2  26
ATOM     26  C   UNL     1      91.586  84.317  89.154  1.00  0.00     0.078 C 
BRANCH  26  27
ATOM     27  C   UNL     1      91.792  83.038  88.344  1.00  0.00     0.140 C 
ATOM     28  C   UNL     1      93.001  82.220  88.841  1.00  0.00     0.086 CG0
ATOM     29  C   UNL     1      90.648  82.059  88.505  1.00  0.00     0.190 C 
ATOM     30  C   UNL     1      92.473  80.814  88.900  1.00  0.00    -0.010 C 
ATOM     31  G   UNL     1      94.357  82.497  88.127  1.00  0.00     0.000 G0
ATOM     32  O   UNL     1      89.462  82.333  88.405  1.00  0.00    -0.291 OA
ATOM     33  C   UNL     1      91.151  80.693  88.744  1.00  0.00    -0.008 C 
ATOM     34  C   UNL     1      90.290  79.495  88.823  1.00  0.00     0.048 C 
BRANCH  27  35
ATOM     35  O   UNL     1      91.814  83.305  86.951  1.00  0.00    -0.381 OA
ATOM     36  H   UNL     1      92.723  83.178  86.630  1.00  0.00     0.212 HD
ENDBRANCH  27  35
ENDBRANCH  26  27
ENDBRANCH   2  26
ENDBRANCH   1   2
BRANCH   1  37
ATOM     37  O   UNL     1      92.974  85.755  91.796  1.00  0.00    -0.461 OA
BRANCH  37  38
ATOM     38  C   UNL     1      94.228  86.152  92.200  1.00  0.00     0.310 C 
ATOM     39  O   UNL     1      95.188  85.408  92.344  1.00  0.00    -0.252 OA
BRANCH  38  40
ATOM     40  C   UNL     1      94.233  87.644  92.436  1.00  0.00     0.158 C 
BRANCH  40  41
ATOM     41  C   UNL     1      95.396  88.339  91.778  1.00  0.00    -0.037 A 
ATOM     42  C   UNL     1      95.400  88.538  90.397  1.00  0.00     0.008 A 
ATOM     43  C   UNL     1      96.470  88.784  92.549  1.00  0.00     0.008 A 
ATOM     44  C   UNL     1      96.478  89.181  89.788  1.00  0.00     0.046 A 
ATOM     45  C   UNL     1      97.548  89.428  91.940  1.00  0.00     0.046 A 
ATOM     46  C   UNL     1      97.552  89.626  90.560  1.00  0.00     0.115 A 
BRANCH  46  47
ATOM     47  O   UNL     1      98.603  90.253  89.965  1.00  0.00    -0.508 OA
ATOM     48  H   UNL     1      99.431  89.882  90.317  1.00  0.00     0.293 HD
ENDBRANCH  46  47
ENDBRANCH  40  41
ENDBRANCH  38  40
ENDBRANCH  37  38
ENDBRANCH   1  37
TORSDOF 10
ENDMDL
MODEL 7
REMARK VINA RESULT:    -6.685      1.227      2.061
REMARK INTER + INTRA:         -11.982
REMARK INTER:                 -11.543
REMARK INTRA:                  -0.439
REMARK UNBOUND:                -0.607
REMARK SMILES C=C(C)[C@]12C[C@@H](C)[C@@]34O[C@](Cc5ccccc5)(O[C@@H]1[C@@H]3C=C(COC(=O)Cc1ccc(O)cc1)C[C@]1(O)C(=O)C(C)=C[C@@H]41)O2
REMARK SMILES IDX 23 1 22 2 21 3 20 4 9 5 8 6 10 7 6 8 18 10 44 11 19 12 5 13
REMARK SMILES IDX 7 14 4 15 11 16 12 17 13 18 17 19 14 20 16 21 15 22 2 23
REMARK SMILES IDX 3 24 1 25 35 26 36 27 43 28 38 29 42 30 39 32 40 33 41 34
REMARK SMILES IDX 37 35 24 37 25 38 26 39 27 40 28 41 29 42 34 43 30 44 33 45
REMARK SMILES IDX 31 46 32 47
REMARK H PARENT 37 36 32 48
REMARK Flexibility Score: 90.00
ROOT
ATOM      1  C   UNL     1      98.067  82.534  86.226  1.00  0.00     0.264 C 
ENDROOT
BRANCH   1   2
ATOM      2  C   UNL     1      96.707  83.081  86.595  1.00  0.00    -0.033 C 
ATOM      3  C   UNL     1      95.678  82.226  86.771  1.00  0.00    -0.015 C 
BRANCH   3   4
ATOM      4  C   UNL     1      94.217  82.522  87.066  1.00  0.00     0.078 C 
ATOM      5  O   UNL     1      93.952  82.461  89.524  1.00  0.00    -0.319 OA
ATOM      6  C   UNL     1      93.866  83.343  88.361  1.00  0.00     0.095 CG0
ATOM      7  C   UNL     1      93.383  81.150  89.345  1.00  0.00     0.289 C 
ATOM      8  C   UNL     1      92.379  83.866  88.209  1.00  0.00     0.023 C 
ATOM      9  G   UNL     1      94.937  84.440  88.628  1.00  0.00     0.000 G0
ATOM     10  O   UNL     1      93.989  80.468  88.251  1.00  0.00    -0.320 OA
ATOM     11  O   UNL     1      91.990  81.199  89.044  1.00  0.00    -0.313 OA
ATOM     12  C   UNL     1      93.419  81.198  87.153  1.00  0.00     0.170 C 
ATOM     13  C   UNL     1      91.496  82.858  87.412  1.00  0.00     0.049 C 
ATOM     14  C   UNL     1      91.670  84.236  89.524  1.00  0.00     0.011 C 
ATOM     15  C   UNL     1      91.958  81.415  87.618  1.00  0.00     0.122 C 
BRANCH   7  16
ATOM     16  C   UNL     1      93.596  80.361  90.622  1.00  0.00     0.135 C 
BRANCH  16  17
ATOM     17  C   UNL     1      95.054  80.284  91.003  1.00  0.00    -0.040 A 
ATOM     18  C   UNL     1      95.522  80.982  92.115  1.00  0.00     0.004 A 
ATOM     19  C   UNL     1      95.932  79.512  90.242  1.00  0.00     0.004 A 
ATOM     20  C   UNL     1      96.870  80.910  92.468  1.00  0.00     0.000 A 
ATOM     21  C   UNL     1      97.280  79.440  90.595  1.00  0.00     0.000 A 
ATOM     22  C   UNL     1      97.749  80.138  91.707  1.00  0.00     0.000 A 
ENDBRANCH  16  17
ENDBRANCH   7  16
BRANCH  15  23
ATOM     23  C   UNL     1      91.022  80.420  87.013  1.00  0.00    -0.046 C 
ATOM     24  C   UNL     1      90.107  80.939  85.944  1.00  0.00     0.042 C 
ATOM     25  C   UNL     1      91.000  79.138  87.403  1.00  0.00     0.010 C 
ENDBRANCH  15  23
ENDBRANCH   3   4
BRANCH   2  26
ATOM     26  C   UNL     1      96.689  84.592  86.731  1.00  0.00     0.078 C 
BRANCH  26  27
ATOM     27  C   UNL     1      95.450  85.221  87.364  1.00  0.00     0.140 C 
ATOM     28  C   UNL     1      94.965  84.437  88.602  1.00  0.00     0.086 CG0
ATOM     29  C   UNL     1      95.726  86.595  87.938  1.00  0.00     0.190 C 
ATOM     30  C   UNL     1      94.709  85.514  89.619  1.00  0.00    -0.010 C 
ATOM     31  G   UNL     1      93.877  83.355  88.344  1.00  0.00     0.000 G0
ATOM     32  O   UNL     1      96.303  87.502  87.356  1.00  0.00    -0.291 OA
ATOM     33  C   UNL     1      95.149  86.731  89.288  1.00  0.00    -0.008 C 
ATOM     34  C   UNL     1      95.144  87.988  90.064  1.00  0.00     0.048 C 
BRANCH  27  35
ATOM     35  O   UNL     1      94.436  85.454  86.401  1.00  0.00    -0.381 OA
ATOM     36  H   UNL     1      93.596  85.114  86.752  1.00  0.00     0.212 HD
ENDBRANCH  27  35
ENDBRANCH  26  27
ENDBRANCH   2  26
ENDBRANCH   1   2
BRANCH   1  37
ATOM     37  O   UNL     1      98.479  83.099  85.000  1.00  0.00    -0.461 OA
BRANCH  37  38
ATOM     38  C   UNL     1      97.988  82.505  83.861  1.00  0.00     0.310 C 
ATOM     39  O   UNL     1      97.865  81.299  83.694  1.00  0.00    -0.252 OA
BRANCH  38  40
ATOM     40  C   UNL     1      97.625  83.569  82.853  1.00  0.00     0.158 C 
BRANCH  40  41
ATOM     41  C   UNL     1      98.134  83.265  81.468  1.00  0.00    -0.037 A 
ATOM     42  C   UNL     1      99.435  82.792  81.291  1.00  0.00     0.008 A 
ATOM     43  C   UNL     1      97.307  83.457  80.362  1.00  0.00     0.008 A 
ATOM     44  C   UNL     1      99.907  82.511  80.008  1.00  0.00     0.046 A 
ATOM     45  C   UNL     1      97.778  83.176  79.079  1.00  0.00     0.046 A 
ATOM     46  C   UNL     1      99.078  82.703  78.902  1.00  0.00     0.115 A 
BRANCH  46  47
ATOM     47  O   UNL     1      99.538  82.430  77.652  1.00  0.00    -0.508 OA
ATOM     48  H   UNL     1     100.495  82.604  77.622  1.00  0.00     0.293 HD
ENDBRANCH  46  47
ENDBRANCH  40  41
ENDBRANCH  38  40
ENDBRANCH  37  38
ENDBRANCH   1  37
TORSDOF 10
ENDMDL
MODEL 8
REMARK VINA RESULT:    -6.365     30.484     34.166
REMARK INTER + INTRA:         -11.438
REMARK INTER:                 -10.430
REMARK INTRA:                  -1.008
REMARK UNBOUND:                -0.607
REMARK SMILES C=C(C)[C@]12C[C@@H](C)[C@@]34O[C@](Cc5ccccc5)(O[C@@H]1[C@@H]3C=C(COC(=O)Cc1ccc(O)cc1)C[C@]1(O)C(=O)C(C)=C[C@@H]41)O2
REMARK SMILES IDX 23 1 22 2 21 3 20 4 9 5 8 6 10 7 6 8 18 10 44 11 19 12 5 13
REMARK SMILES IDX 7 14 4 15 11 16 12 17 13 18 17 19 14 20 16 21 15 22 2 23
REMARK SMILES IDX 3 24 1 25 35 26 36 27 43 28 38 29 42 30 39 32 40 33 41 34
REMARK SMILES IDX 37 35 24 37 25 38 26 39 27 40 28 41 29 42 34 43 30 44 33 45
REMARK SMILES IDX 31 46 32 47
REMARK H PARENT 37 36 32 48
REMARK Flexibility Score: 90.00
ROOT
ATOM      1  C   UNL     1      64.975  83.895  79.522  1.00  0.00     0.264 C 
ENDROOT
BRANCH   1   2
ATOM      2  C   UNL     1      65.170  84.481  78.143  1.00  0.00    -0.033 C 
ATOM      3  C   UNL     1      64.577  83.889  77.086  1.00  0.00    -0.015 C 
BRANCH   3   4
ATOM      4  C   UNL     1      64.676  84.232  75.607  1.00  0.00     0.078 C 
ATOM      5  O   UNL     1      62.792  85.748  75.091  1.00  0.00    -0.319 OA
ATOM      6  C   UNL     1      64.251  85.673  75.143  1.00  0.00     0.095 CG0
ATOM      7  C   UNL     1      62.137  84.600  74.518  1.00  0.00     0.289 C 
ATOM      8  C   UNL     1      64.839  85.901  73.689  1.00  0.00     0.023 C 
ATOM      9  G   UNL     1      64.657  86.738  76.203  1.00  0.00     0.000 G0
ATOM     10  O   UNL     1      62.476  83.407  75.220  1.00  0.00    -0.320 OA
ATOM     11  O   UNL     1      62.524  84.374  73.165  1.00  0.00    -0.313 OA
ATOM     12  C   UNL     1      63.832  83.233  74.779  1.00  0.00     0.170 C 
ATOM     13  C   UNL     1      64.877  84.573  72.873  1.00  0.00     0.049 C 
ATOM     14  C   UNL     1      64.141  86.991  72.857  1.00  0.00     0.011 C 
ATOM     15  C   UNL     1      63.750  83.623  73.283  1.00  0.00     0.122 C 
BRANCH   7  16
ATOM     16  C   UNL     1      60.639  84.826  74.584  1.00  0.00     0.135 C 
BRANCH  16  17
ATOM     17  C   UNL     1      60.110  85.478  73.331  1.00  0.00    -0.040 A 
ATOM     18  C   UNL     1      60.171  86.864  73.187  1.00  0.00     0.004 A 
ATOM     19  C   UNL     1      59.559  84.695  72.318  1.00  0.00     0.004 A 
ATOM     20  C   UNL     1      59.682  87.467  72.028  1.00  0.00     0.000 A 
ATOM     21  C   UNL     1      59.069  85.298  71.159  1.00  0.00     0.000 A 
ATOM     22  C   UNL     1      59.131  86.683  71.014  1.00  0.00     0.000 A 
ENDBRANCH  16  17
ENDBRANCH   7  16
BRANCH  15  23
ATOM     23  C   UNL     1      63.656  82.426  72.394  1.00  0.00    -0.046 C 
ATOM     24  C   UNL     1      63.661  81.092  73.079  1.00  0.00     0.042 C 
ATOM     25  C   UNL     1      63.573  82.538  71.060  1.00  0.00     0.010 C 
ENDBRANCH  15  23
ENDBRANCH   3   4
BRANCH   2  26
ATOM     26  C   UNL     1      66.044  85.722  78.141  1.00  0.00     0.078 C 
BRANCH  26  27
ATOM     27  C   UNL     1      66.074  86.552  76.860  1.00  0.00     0.140 C 
ATOM     28  C   UNL     1      64.671  86.719  76.239  1.00  0.00     0.086 CG0
ATOM     29  C   UNL     1      66.493  87.986  77.107  1.00  0.00     0.190 C 
ATOM     30  C   UNL     1      64.608  88.184  75.907  1.00  0.00    -0.010 C 
ATOM     31  G   UNL     1      64.271  85.673  75.159  1.00  0.00     0.000 G0
ATOM     32  O   UNL     1      67.466  88.337  77.758  1.00  0.00    -0.291 OA
ATOM     33  C   UNL     1      65.602  88.927  76.404  1.00  0.00    -0.008 C 
ATOM     34  C   UNL     1      65.816  90.388  76.349  1.00  0.00     0.048 C 
BRANCH  27  35
ATOM     35  O   UNL     1      67.048  86.067  75.951  1.00  0.00    -0.381 OA
ATOM     36  H   UNL     1      67.811  86.669  75.969  1.00  0.00     0.212 HD
ENDBRANCH  27  35
ENDBRANCH  26  27
ENDBRANCH   2  26
ENDBRANCH   1   2
BRANCH   1  37
ATOM     37  O   UNL     1      63.618  84.020  79.894  1.00  0.00    -0.461 OA
BRANCH  37  38
ATOM     38  C   UNL     1      63.034  85.243  79.661  1.00  0.00     0.310 C 
ATOM     39  O   UNL     1      62.306  85.505  78.713  1.00  0.00    -0.252 OA
BRANCH  38  40
ATOM     40  C   UNL     1      63.431  86.207  80.753  1.00  0.00     0.158 C 
BRANCH  40  41
ATOM     41  C   UNL     1      62.884  87.595  80.540  1.00  0.00    -0.037 A 
ATOM     42  C   UNL     1      61.660  87.957  81.104  1.00  0.00     0.008 A 
ATOM     43  C   UNL     1      63.599  88.518  79.778  1.00  0.00     0.008 A 
ATOM     44  C   UNL     1      61.153  89.241  80.905  1.00  0.00     0.046 A 
ATOM     45  C   UNL     1      63.093  89.803  79.579  1.00  0.00     0.046 A 
ATOM     46  C   UNL     1      61.870  90.164  80.143  1.00  0.00     0.115 A 
BRANCH  46  47
ATOM     47  O   UNL     1      61.374  91.417  79.949  1.00  0.00    -0.508 OA
ATOM     48  H   UNL     1      60.474  91.348  79.587  1.00  0.00     0.293 HD
ENDBRANCH  46  47
ENDBRANCH  40  41
ENDBRANCH  38  40
ENDBRANCH  37  38
ENDBRANCH   1  37
TORSDOF 10
ENDMDL
MODEL 9
REMARK VINA RESULT:    -6.365      3.961      7.406
REMARK INTER + INTRA:         -11.438
REMARK INTER:                 -10.232
REMARK INTRA:                  -1.206
REMARK UNBOUND:                -0.607
REMARK SMILES C=C(C)[C@]12C[C@@H](C)[C@@]34O[C@](Cc5ccccc5)(O[C@@H]1[C@@H]3C=C(COC(=O)Cc1ccc(O)cc1)C[C@]1(O)C(=O)C(C)=C[C@@H]41)O2
REMARK SMILES IDX 23 1 22 2 21 3 20 4 9 5 8 6 10 7 6 8 18 10 44 11 19 12 5 13
REMARK SMILES IDX 7 14 4 15 11 16 12 17 13 18 17 19 14 20 16 21 15 22 2 23
REMARK SMILES IDX 3 24 1 25 35 26 36 27 43 28 38 29 42 30 39 32 40 33 41 34
REMARK SMILES IDX 37 35 24 37 25 38 26 39 27 40 28 41 29 42 34 43 30 44 33 45
REMARK SMILES IDX 31 46 32 47
REMARK H PARENT 37 36 32 48
REMARK Flexibility Score: 90.00
ROOT
ATOM      1  C   UNL     1      91.168  86.031  91.342  1.00  0.00     0.264 C 
ENDROOT
BRANCH   1   2
ATOM      2  C   UNL     1      91.353  84.546  91.133  1.00  0.00    -0.033 C 
ATOM      3  C   UNL     1      91.200  84.030  89.896  1.00  0.00    -0.015 C 
BRANCH   3   4
ATOM      4  C   UNL     1      91.255  82.580  89.441  1.00  0.00     0.078 C 
ATOM      5  O   UNL     1      93.593  82.124  88.774  1.00  0.00    -0.319 OA
ATOM      6  C   UNL     1      92.559  81.752  89.739  1.00  0.00     0.095 CG0
ATOM      7  C   UNL     1      93.142  82.265  87.413  1.00  0.00     0.289 C 
ATOM      8  C   UNL     1      92.205  80.218  89.561  1.00  0.00     0.023 C 
ATOM      9  G   UNL     1      93.160  82.143  91.121  1.00  0.00     0.000 G0
ATOM     10  O   UNL     1      92.099  83.231  87.311  1.00  0.00    -0.320 OA
ATOM     11  O   UNL     1      92.598  81.054  86.894  1.00  0.00    -0.313 OA
ATOM     12  C   UNL     1      91.020  82.499  87.913  1.00  0.00     0.170 C 
ATOM     13  C   UNL     1      91.133  80.004  88.448  1.00  0.00     0.049 C 
ATOM     14  C   UNL     1      93.402  79.288  89.301  1.00  0.00     0.011 C 
ATOM     15  C   UNL     1      91.231  81.070  87.356  1.00  0.00     0.122 C 
BRANCH   7  16
ATOM     16  C   UNL     1      94.322  82.693  86.564  1.00  0.00     0.135 C 
BRANCH  16  17
ATOM     17  C   UNL     1      95.626  82.148  87.092  1.00  0.00    -0.040 A 
ATOM     18  C   UNL     1      96.522  82.994  87.744  1.00  0.00     0.004 A 
ATOM     19  C   UNL     1      95.935  80.798  86.926  1.00  0.00     0.004 A 
ATOM     20  C   UNL     1      97.729  82.490  88.233  1.00  0.00     0.000 A 
ATOM     21  C   UNL     1      97.141  80.294  87.415  1.00  0.00     0.000 A 
ATOM     22  C   UNL     1      98.037  81.140  88.067  1.00  0.00     0.000 A 
ENDBRANCH  16  17
ENDBRANCH   7  16
BRANCH  15  23
ATOM     23  C   UNL     1      90.339  80.783  86.192  1.00  0.00    -0.046 C 
ATOM     24  C   UNL     1      90.860  79.803  85.184  1.00  0.00     0.042 C 
ATOM     25  C   UNL     1      89.140  81.369  86.057  1.00  0.00     0.010 C 
ENDBRANCH  15  23
ENDBRANCH   3   4
BRANCH   2  26
ATOM     26  C   UNL     1      91.712  83.805  92.408  1.00  0.00     0.078 C 
BRANCH  26  27
ATOM     27  C   UNL     1      92.119  82.339  92.272  1.00  0.00     0.140 C 
ATOM     28  C   UNL     1      93.140  82.119  91.137  1.00  0.00     0.086 CG0
ATOM     29  C   UNL     1      92.867  81.830  93.486  1.00  0.00     0.190 C 
ATOM     30  C   UNL     1      94.176  81.229  91.766  1.00  0.00    -0.010 C 
ATOM     31  G   UNL     1      92.549  81.740  89.748  1.00  0.00     0.000 G0
ATOM     32  O   UNL     1      92.516  81.975  94.647  1.00  0.00    -0.291 OA
ATOM     33  C   UNL     1      94.067  81.070  93.088  1.00  0.00    -0.008 C 
ATOM     34  C   UNL     1      94.940  80.345  94.034  1.00  0.00     0.048 C 
BRANCH  27  35
ATOM     35  O   UNL     1      90.984  81.492  92.195  1.00  0.00    -0.381 OA
ATOM     36  H   UNL     1      90.248  81.922  92.662  1.00  0.00     0.212 HD
ENDBRANCH  27  35
ENDBRANCH  26  27
ENDBRANCH   2  26
ENDBRANCH   1   2
BRANCH   1  37
ATOM     37  O   UNL     1      92.375  86.698  91.039  1.00  0.00    -0.461 OA
BRANCH  37  38
ATOM     38  C   UNL     1      93.313  86.745  92.044  1.00  0.00     0.310 C 
ATOM     39  O   UNL     1      93.095  87.111  93.191  1.00  0.00    -0.252 OA
BRANCH  38  40
ATOM     40  C   UNL     1      94.646  86.276  91.512  1.00  0.00     0.158 C 
BRANCH  40  41
ATOM     41  C   UNL     1      95.234  87.214  90.490  1.00  0.00    -0.037 A 
ATOM     42  C   UNL     1      95.533  86.751  89.209  1.00  0.00     0.008 A 
ATOM     43  C   UNL     1      95.479  88.546  90.825  1.00  0.00     0.008 A 
ATOM     44  C   UNL     1      96.079  87.620  88.263  1.00  0.00     0.046 A 
ATOM     45  C   UNL     1      96.024  89.415  89.879  1.00  0.00     0.046 A 
ATOM     46  C   UNL     1      96.324  88.952  88.599  1.00  0.00     0.115 A 
BRANCH  46  47
ATOM     47  O   UNL     1      96.856  89.798  87.676  1.00  0.00    -0.508 OA
ATOM     48  H   UNL     1      96.429  90.668  87.762  1.00  0.00     0.293 HD
ENDBRANCH  46  47
ENDBRANCH  40  41
ENDBRANCH  38  40
ENDBRANCH  37  38
ENDBRANCH   1  37
TORSDOF 10
ENDMDL
MODEL 10
REMARK VINA RESULT:    -6.111     23.275     27.114
REMARK INTER + INTRA:         -11.005
REMARK INTER:                 -10.795
REMARK INTRA:                  -0.211
REMARK UNBOUND:                -0.607
REMARK SMILES C=C(C)[C@]12C[C@@H](C)[C@@]34O[C@](Cc5ccccc5)(O[C@@H]1[C@@H]3C=C(COC(=O)Cc1ccc(O)cc1)C[C@]1(O)C(=O)C(C)=C[C@@H]41)O2
REMARK SMILES IDX 23 1 22 2 21 3 20 4 9 5 8 6 10 7 6 8 18 10 44 11 19 12 5 13
REMARK SMILES IDX 7 14 4 15 11 16 12 17 13 18 17 19 14 20 16 21 15 22 2 23
REMARK SMILES IDX 3 24 1 25 35 26 36 27 43 28 38 29 42 30 39 32 40 33 41 34
REMARK SMILES IDX 37 35 24 37 25 38 26 39 27 40 28 41 29 42 34 43 30 44 33 45
REMARK SMILES IDX 31 46 32 47
REMARK H PARENT 37 36 32 48
REMARK Flexibility Score: 90.00
ROOT
ATOM      1  C   UNL     1      89.572 106.293  73.398  1.00  0.00     0.264 C 
ENDROOT
BRANCH   1   2
ATOM      2  C   UNL     1      89.848 105.661  72.054  1.00  0.00    -0.033 C 
ATOM      3  C   UNL     1      90.636 104.567  71.990  1.00  0.00    -0.015 C 
BRANCH   3   4
ATOM      4  C   UNL     1      91.122 103.798  70.771  1.00  0.00     0.078 C 
ATOM      5  O   UNL     1      89.474 102.005  70.346  1.00  0.00    -0.319 OA
ATOM      6  C   UNL     1      90.052 103.220  69.775  1.00  0.00     0.095 CG0
ATOM      7  C   UNL     1      90.416 101.109  70.967  1.00  0.00     0.289 C 
ATOM      8  C   UNL     1      90.798 102.860  68.425  1.00  0.00     0.023 C 
ATOM      9  G   UNL     1      88.845 104.193  69.633  1.00  0.00     0.000 G0
ATOM     10  O   UNL     1      91.143 101.761  72.005  1.00  0.00    -0.320 OA
ATOM     11  O   UNL     1      91.398 100.632  70.050  1.00  0.00    -0.313 OA
ATOM     12  C   UNL     1      92.000 102.604  71.219  1.00  0.00     0.170 C 
ATOM     13  C   UNL     1      92.259 102.383  68.688  1.00  0.00     0.049 C 
ATOM     14  C   UNL     1      90.083 101.838  67.525  1.00  0.00     0.011 C 
ATOM     15  C   UNL     1      92.390 101.680  70.040  1.00  0.00     0.122 C 
BRANCH   7  16
ATOM     16  C   UNL     1      89.647  99.934  71.539  1.00  0.00     0.135 C 
BRANCH  16  17
ATOM     17  C   UNL     1      89.353  98.887  70.494  1.00  0.00    -0.040 A 
ATOM     18  C   UNL     1      88.558  99.204  69.394  1.00  0.00     0.004 A 
ATOM     19  C   UNL     1      89.877  97.602  70.630  1.00  0.00     0.004 A 
ATOM     20  C   UNL     1      88.286  98.236  68.427  1.00  0.00     0.000 A 
ATOM     21  C   UNL     1      89.605  96.633  69.663  1.00  0.00     0.000 A 
ATOM     22  C   UNL     1      88.810  96.950  68.562  1.00  0.00     0.000 A 
ENDBRANCH  16  17
ENDBRANCH   7  16
BRANCH  15  23
ATOM     23  C   UNL     1      93.733 101.056  70.235  1.00  0.00    -0.046 C 
ATOM     24  C   UNL     1      93.898 100.208  71.462  1.00  0.00     0.042 C 
ATOM     25  C   UNL     1      94.736 101.243  69.364  1.00  0.00     0.010 C 
ENDBRANCH  15  23
ENDBRANCH   3   4
BRANCH   2  26
ATOM     26  C   UNL     1      89.160 106.376  70.906  1.00  0.00     0.078 C 
BRANCH  26  27
ATOM     27  C   UNL     1      89.203 105.700  69.537  1.00  0.00     0.140 C 
ATOM     28  C   UNL     1      88.849 104.200  69.615  1.00  0.00     0.086 CG0
ATOM     29  C   UNL     1      88.147 106.235  68.594  1.00  0.00     0.190 C 
ATOM     30  C   UNL     1      87.881 104.010  68.481  1.00  0.00    -0.010 C 
ATOM     31  G   UNL     1      90.049 103.220  69.768  1.00  0.00     0.000 G0
ATOM     32  O   UNL     1      87.922 107.417  68.378  1.00  0.00    -0.291 OA
ATOM     33  C   UNL     1      87.446 105.135  67.905  1.00  0.00    -0.008 C 
ATOM     34  C   UNL     1      86.445 105.330  66.835  1.00  0.00     0.048 C 
BRANCH  27  35
ATOM     35  O   UNL     1      90.423 105.966  68.865  1.00  0.00    -0.381 OA
ATOM     36  H   UNL     1      90.218 106.234  67.953  1.00  0.00     0.212 HD
ENDBRANCH  27  35
ENDBRANCH  26  27
ENDBRANCH   2  26
ENDBRANCH   1   2
BRANCH   1  37
ATOM     37  O   UNL     1      89.998 105.419  74.422  1.00  0.00    -0.461 OA
BRANCH  37  38
ATOM     38  C   UNL     1      89.975 105.924  75.701  1.00  0.00     0.310 C 
ATOM     39  O   UNL     1      89.777 107.096  75.990  1.00  0.00    -0.252 OA
BRANCH  38  40
ATOM     40  C   UNL     1      90.231 104.810  76.688  1.00  0.00     0.158 C 
BRANCH  40  41
ATOM     41  C   UNL     1      89.056 104.544  77.592  1.00  0.00    -0.037 A 
ATOM     42  C   UNL     1      89.009 105.118  78.863  1.00  0.00     0.008 A 
ATOM     43  C   UNL     1      88.014 103.724  77.159  1.00  0.00     0.008 A 
ATOM     44  C   UNL     1      87.922 104.871  79.701  1.00  0.00     0.046 A 
ATOM     45  C   UNL     1      86.926 103.477  77.997  1.00  0.00     0.046 A 
ATOM     46  C   UNL     1      86.880 104.050  79.267  1.00  0.00     0.115 A 
BRANCH  46  47
ATOM     47  O   UNL     1      85.819 103.809  80.085  1.00  0.00    -0.508 OA
ATOM     48  H   UNL     1      85.325 104.637  80.213  1.00  0.00     0.293 HD
ENDBRANCH  46  47
ENDBRANCH  40  41
ENDBRANCH  38  40
ENDBRANCH  37  38
ENDBRANCH   1  37
TORSDOF 10
ENDMDL
