MODEL 1
REMARK VINA RESULT:    -6.504      0.000      0.000
REMARK INTER + INTRA:         -12.413
REMARK INTER:                 -11.447
REMARK INTRA:                  -0.966
REMARK UNBOUND:                -0.966
REMARK SMILES C=C(C)[C@]12C[C@@H](C)[C@@]34O[C@](Cc5ccccc5)(O[C@@H]1[C@@H]3C=C(COC(=O)Cc1ccc(O)c(OC)c1)C[C@]1(O)C(=O)C(C)=C[C@@H]41)O2
REMARK SMILES IDX 23 1 22 2 21 3 20 4 9 5 8 6 10 7 6 8 18 9 46 10 19 11 5 12
REMARK SMILES IDX 7 13 4 14 45 15 38 16 44 17 40 18 42 20 41 21 43 22 39 23
REMARK SMILES IDX 11 25 12 26 13 27 17 28 14 29 16 30 15 31 2 32 3 33 1 34
REMARK SMILES IDX 37 35 24 37 25 38 26 39 27 40 28 41 36 42 29 43 33 44 30 45
REMARK SMILES IDX 31 46 34 47 35 48 32 49
REMARK H PARENT 39 24 32 50
REMARK Flexibility Score: 90.00
ROOT
ATOM      1  C   UNL     1      92.020  94.589  90.231  1.00  0.00     0.264 C 
ENDROOT
BRANCH   1   2
ATOM      2  C   UNL     1      91.655  96.003  90.616  1.00  0.00    -0.033 C 
ATOM      3  C   UNL     1      92.618  96.946  90.656  1.00  0.00    -0.015 C 
BRANCH   3   4
ATOM      4  C   UNL     1      92.526  98.402  91.081  1.00  0.00     0.078 C 
ATOM      5  O   UNL     1      92.079  99.723  89.038  1.00  0.00    -0.319 OA
ATOM      6  C   UNL     1      91.510  99.339  90.328  1.00  0.00     0.095 C 
ATOM      7  C   UNL     1      93.476 100.072  89.059  1.00  0.00     0.289 C 
ATOM      8  C   UNL     1      91.305 100.636  91.216  1.00  0.00     0.023 C 
ATOM      9  O   UNL     1      94.268  99.004  89.572  1.00  0.00    -0.320 OA
ATOM     10  O   UNL     1      93.742 101.188  89.905  1.00  0.00    -0.313 OA
ATOM     11  C   UNL     1      93.916  99.074  90.962  1.00  0.00     0.170 C 
ATOM     12  C   UNL     1      92.607 101.011  91.989  1.00  0.00     0.049 C 
ATOM     13  C   UNL     1      90.781 101.872  90.467  1.00  0.00     0.011 C 
ATOM     14  C   UNL     1      93.861 100.601  91.217  1.00  0.00     0.122 C 
BRANCH   6  15
ATOM     15  C   UNL     1      90.210  98.565  89.965  1.00  0.00     0.086 C 
ATOM     16  C   UNL     1      89.648  97.631  91.056  1.00  0.00     0.140 CG0
ATOM     17  C   UNL     1      89.002  99.330  89.503  1.00  0.00    -0.010 C 
ATOM     18  C   UNL     1      88.153  97.742  90.842  1.00  0.00     0.190 C 
ATOM     19  G   UNL     1      90.156  96.197  90.906  1.00  0.00     0.000 G0
ATOM     20  C   UNL     1      87.829  98.876  89.956  1.00  0.00    -0.008 C 
ATOM     21  O   UNL     1      87.308  97.030  91.364  1.00  0.00    -0.291 OA
ATOM     22  C   UNL     1      86.453  99.320  89.650  1.00  0.00     0.048 C 
BRANCH  16  23
ATOM     23  O   UNL     1      89.837  98.112  92.377  1.00  0.00    -0.381 OA
ATOM     24  H   UNL     1      90.213  97.394  92.914  1.00  0.00     0.212 HD
ENDBRANCH  16  23
ENDBRANCH   6  15
BRANCH   7  25
ATOM     25  C   UNL     1      93.907 100.396  87.643  1.00  0.00     0.135 C 
BRANCH  25  26
ATOM     26  C   UNL     1      93.631 101.834  87.283  1.00  0.00    -0.040 A 
ATOM     27  C   UNL     1      94.626 102.798  87.448  1.00  0.00     0.004 A 
ATOM     28  C   UNL     1      92.381 102.201  86.784  1.00  0.00     0.004 A 
ATOM     29  C   UNL     1      94.371 104.129  87.115  1.00  0.00     0.000 A 
ATOM     30  C   UNL     1      92.126 103.532  86.451  1.00  0.00     0.000 A 
ATOM     31  C   UNL     1      93.121 104.495  86.617  1.00  0.00     0.000 A 
ENDBRANCH  25  26
ENDBRANCH   7  25
BRANCH  14  32
ATOM     32  C   UNL     1      95.116 101.110  91.848  1.00  0.00    -0.046 C 
ATOM     33  C   UNL     1      95.196 102.593  92.061  1.00  0.00     0.042 C 
ATOM     34  C   UNL     1      96.115 100.289  92.204  1.00  0.00     0.010 C 
ENDBRANCH  14  32
ENDBRANCH   3   4
BRANCH   2  35
ATOM     35  C   UNL     1      90.177  96.176  90.913  1.00  0.00     0.078 CG0
ATOM     36  G   UNL     1      89.652  97.605  91.038  1.00  0.00     0.000 G0
ENDBRANCH   2  35
ENDBRANCH   1   2
BRANCH   1  37
ATOM     37  O   UNL     1      93.398  94.528  89.932  1.00  0.00    -0.461 OA
BRANCH  37  38
ATOM     38  C   UNL     1      94.013  93.314  90.138  1.00  0.00     0.310 C 
ATOM     39  O   UNL     1      95.184  93.165  90.456  1.00  0.00    -0.252 OA
BRANCH  38  40
ATOM     40  C   UNL     1      93.018  92.200  89.912  1.00  0.00     0.158 C 
BRANCH  40  41
ATOM     41  C   UNL     1      93.558  91.099  89.037  1.00  0.00    -0.033 A 
ATOM     42  C   UNL     1      93.555  89.780  89.494  1.00  0.00     0.054 A 
ATOM     43  C   UNL     1      94.059  91.397  87.770  1.00  0.00     0.008 A 
ATOM     44  C   UNL     1      94.055  88.760  88.684  1.00  0.00     0.160 A 
ATOM     45  C   UNL     1      94.559  90.377  86.960  1.00  0.00     0.050 A 
ATOM     46  C   UNL     1      94.557  89.059  87.417  1.00  0.00     0.157 A 
BRANCH  44  47
ATOM     47  O   UNL     1      94.047  87.478  89.141  1.00  0.00    -0.493 OA
ATOM     48  C   UNL     1      92.817  86.984  89.669  1.00  0.00     0.278 C 
ENDBRANCH  44  47
BRANCH  46  49
ATOM     49  O   UNL     1      95.046  88.072  86.617  1.00  0.00    -0.504 OA
ATOM     50  H   UNL     1      95.838  87.691  87.032  1.00  0.00     0.293 HD
ENDBRANCH  46  49
ENDBRANCH  40  41
ENDBRANCH  38  40
ENDBRANCH  37  38
ENDBRANCH   1  37
TORSDOF 11
ENDMDL
MODEL 2
REMARK VINA RESULT:    -5.783     24.166     29.559
REMARK INTER + INTRA:         -11.143
REMARK INTER:                  -8.333
REMARK INTRA:                  -2.810
REMARK UNBOUND:                -0.966
REMARK SMILES C=C(C)[C@]12C[C@@H](C)[C@@]34O[C@](Cc5ccccc5)(O[C@@H]1[C@@H]3C=C(COC(=O)Cc1ccc(O)c(OC)c1)C[C@]1(O)C(=O)C(C)=C[C@@H]41)O2
REMARK SMILES IDX 23 1 22 2 21 3 20 4 9 5 8 6 10 7 6 8 18 9 46 10 19 11 5 12
REMARK SMILES IDX 7 13 4 14 45 15 38 16 44 17 40 18 42 20 41 21 43 22 39 23
REMARK SMILES IDX 11 25 12 26 13 27 17 28 14 29 16 30 15 31 2 32 3 33 1 34
REMARK SMILES IDX 37 35 24 37 25 38 26 39 27 40 28 41 36 42 29 43 33 44 30 45
REMARK SMILES IDX 31 46 34 47 35 48 32 49
REMARK H PARENT 39 24 32 50
REMARK Flexibility Score: 90.00
ROOT
ATOM      1  C   UNL     1      76.739  72.683  91.069  1.00  0.00     0.264 C 
ENDROOT
BRANCH   1   2
ATOM      2  C   UNL     1      76.465  72.281  89.639  1.00  0.00    -0.033 C 
ATOM      3  C   UNL     1      77.390  72.539  88.693  1.00  0.00    -0.015 C 
BRANCH   3   4
ATOM      4  C   UNL     1      77.326  72.309  87.192  1.00  0.00     0.078 C 
ATOM      5  O   UNL     1      78.301  70.076  86.764  1.00  0.00    -0.319 OA
ATOM      6  C   UNL     1      77.064  70.847  86.670  1.00  0.00     0.095 C 
ATOM      7  C   UNL     1      79.493  70.769  86.347  1.00  0.00     0.289 C 
ATOM      8  C   UNL     1      76.626  70.951  85.150  1.00  0.00     0.023 C 
ATOM      9  O   UNL     1      79.682  71.968  87.094  1.00  0.00    -0.320 OA
ATOM     10  O   UNL     1      79.434  71.172  84.981  1.00  0.00    -0.313 OA
ATOM     11  C   UNL     1      78.643  72.783  86.530  1.00  0.00     0.170 C 
ATOM     12  C   UNL     1      77.332  72.143  84.434  1.00  0.00     0.049 C 
ATOM     13  C   UNL     1      76.815  69.671  84.320  1.00  0.00     0.011 C 
ATOM     14  C   UNL     1      78.714  72.421  85.025  1.00  0.00     0.122 C 
BRANCH   6  15
ATOM     15  C   UNL     1      76.068  70.098  87.602  1.00  0.00     0.086 C 
ATOM     16  C   UNL     1      74.844  70.907  88.079  1.00  0.00     0.140 CG0
ATOM     17  C   UNL     1      75.471  68.796  87.148  1.00  0.00    -0.010 C 
ATOM     18  C   UNL     1      73.762  69.850  88.151  1.00  0.00     0.190 C 
ATOM     19  G   UNL     1      75.089  71.585  89.426  1.00  0.00     0.000 G0
ATOM     20  C   UNL     1      74.185  68.614  87.465  1.00  0.00    -0.008 C 
ATOM     21  O   UNL     1      72.661  69.997  88.658  1.00  0.00    -0.291 OA
ATOM     22  C   UNL     1      73.310  67.442  87.257  1.00  0.00     0.048 C 
BRANCH  16  23
ATOM     23  O   UNL     1      74.354  71.827  87.118  1.00  0.00    -0.381 OA
ATOM     24  H   UNL     1      73.532  71.471  86.743  1.00  0.00     0.212 HD
ENDBRANCH  16  23
ENDBRANCH   6  15
BRANCH   7  25
ATOM     25  C   UNL     1      80.677  69.846  86.552  1.00  0.00     0.135 C 
BRANCH  25  26
ATOM     26  C   UNL     1      81.724  70.460  87.446  1.00  0.00    -0.040 A 
ATOM     27  C   UNL     1      82.469  71.553  87.000  1.00  0.00     0.004 A 
ATOM     28  C   UNL     1      81.948  69.938  88.720  1.00  0.00     0.004 A 
ATOM     29  C   UNL     1      83.438  72.121  87.827  1.00  0.00     0.000 A 
ATOM     30  C   UNL     1      82.917  70.507  89.547  1.00  0.00     0.000 A 
ATOM     31  C   UNL     1      83.662  71.598  89.100  1.00  0.00     0.000 A 
ENDBRANCH  25  26
ENDBRANCH   7  25
BRANCH  14  32
ATOM     32  C   UNL     1      79.482  73.435  84.240  1.00  0.00    -0.046 C 
ATOM     33  C   UNL     1      78.670  74.490  83.549  1.00  0.00     0.042 C 
ATOM     34  C   UNL     1      80.820  73.403  84.158  1.00  0.00     0.010 C 
ENDBRANCH  14  32
ENDBRANCH   3   4
BRANCH   2  35
ATOM     35  C   UNL     1      75.122  71.600  89.459  1.00  0.00     0.078 CG0
ATOM     36  G   UNL     1      74.859  70.915  88.119  1.00  0.00     0.000 G0
ENDBRANCH   2  35
ENDBRANCH   1   2
BRANCH   1  37
ATOM     37  O   UNL     1      77.868  73.530  91.109  1.00  0.00    -0.461 OA
BRANCH  37  38
ATOM     38  C   UNL     1      78.994  73.014  91.707  1.00  0.00     0.310 C 
ATOM     39  O   UNL     1      79.146  72.872  92.913  1.00  0.00    -0.252 OA
BRANCH  38  40
ATOM     40  C   UNL     1      80.008  72.654  90.648  1.00  0.00     0.158 C 
BRANCH  40  41
ATOM     41  C   UNL     1      80.878  73.818  90.246  1.00  0.00    -0.033 A 
ATOM     42  C   UNL     1      80.468  74.673  89.222  1.00  0.00     0.054 A 
ATOM     43  C   UNL     1      82.090  74.040  90.898  1.00  0.00     0.008 A 
ATOM     44  C   UNL     1      81.273  75.751  88.851  1.00  0.00     0.160 A 
ATOM     45  C   UNL     1      82.895  75.117  90.526  1.00  0.00     0.050 A 
ATOM     46  C   UNL     1      82.487  75.972  89.503  1.00  0.00     0.157 A 
BRANCH  44  47
ATOM     47  O   UNL     1      80.863  76.578  87.850  1.00  0.00    -0.493 OA
ATOM     48  C   UNL     1      80.191  75.976  86.745  1.00  0.00     0.278 C 
ENDBRANCH  44  47
BRANCH  46  49
ATOM     49  O   UNL     1      83.280  77.021  89.149  1.00  0.00    -0.504 OA
ATOM     50  H   UNL     1      82.971  77.380  88.300  1.00  0.00     0.293 HD
ENDBRANCH  46  49
ENDBRANCH  40  41
ENDBRANCH  38  40
ENDBRANCH  37  38
ENDBRANCH   1  37
TORSDOF 11
ENDMDL
MODEL 3
REMARK VINA RESULT:    -5.769      2.658      5.732
REMARK INTER + INTRA:         -11.119
REMARK INTER:                  -9.993
REMARK INTRA:                  -1.127
REMARK UNBOUND:                -0.966
REMARK SMILES C=C(C)[C@]12C[C@@H](C)[C@@]34O[C@](Cc5ccccc5)(O[C@@H]1[C@@H]3C=C(COC(=O)Cc1ccc(O)c(OC)c1)C[C@]1(O)C(=O)C(C)=C[C@@H]41)O2
REMARK SMILES IDX 23 1 22 2 21 3 20 4 9 5 8 6 10 7 6 8 18 9 46 10 19 11 5 12
REMARK SMILES IDX 7 13 4 14 45 15 38 16 44 17 40 18 42 20 41 21 43 22 39 23
REMARK SMILES IDX 11 25 12 26 13 27 17 28 14 29 16 30 15 31 2 32 3 33 1 34
REMARK SMILES IDX 37 35 24 37 25 38 26 39 27 40 28 41 36 42 29 43 33 44 30 45
REMARK SMILES IDX 31 46 34 47 35 48 32 49
REMARK H PARENT 39 24 32 50
REMARK Flexibility Score: 90.00
ROOT
ATOM      1  C   UNL     1      94.310  92.635  89.185  1.00  0.00     0.264 C 
ENDROOT
BRANCH   1   2
ATOM      2  C   UNL     1      94.572  93.903  89.964  1.00  0.00    -0.033 C 
ATOM      3  C   UNL     1      93.861  95.012  89.676  1.00  0.00    -0.015 C 
BRANCH   3   4
ATOM      4  C   UNL     1      93.985  96.413  90.252  1.00  0.00     0.078 C 
ATOM      5  O   UNL     1      92.403  96.556  92.148  1.00  0.00    -0.319 OA
ATOM      6  C   UNL     1      93.823  96.601  91.807  1.00  0.00     0.095 C 
ATOM      7  C   UNL     1      91.531  97.277  91.257  1.00  0.00     0.289 C 
ATOM      8  C   UNL     1      94.406  98.026  92.181  1.00  0.00     0.023 C 
ATOM      9  O   UNL     1      91.660  96.809  89.917  1.00  0.00    -0.320 OA
ATOM     10  O   UNL     1      91.836  98.668  91.210  1.00  0.00    -0.313 OA
ATOM     11  C   UNL     1      92.948  97.350  89.584  1.00  0.00     0.170 C 
ATOM     12  C   UNL     1      94.176  99.057  91.033  1.00  0.00     0.049 C 
ATOM     13  C   UNL     1      93.902  98.617  93.508  1.00  0.00     0.011 C 
ATOM     14  C   UNL     1      92.903  98.751  90.244  1.00  0.00     0.122 C 
BRANCH   6  15
ATOM     15  C   UNL     1      94.446  95.400  92.576  1.00  0.00     0.086 C 
ATOM     16  C   UNL     1      95.814  94.902  92.065  1.00  0.00     0.140 CG0
ATOM     17  C   UNL     1      94.643  95.500  94.062  1.00  0.00    -0.010 C 
ATOM     18  C   UNL     1      96.499  94.464  93.343  1.00  0.00     0.190 C 
ATOM     19  G   UNL     1      95.673  93.763  91.056  1.00  0.00     0.000 G0
ATOM     20  C   UNL     1      95.773  94.959  94.528  1.00  0.00    -0.008 C 
ATOM     21  O   UNL     1      97.541  93.830  93.406  1.00  0.00    -0.291 OA
ATOM     22  C   UNL     1      96.252  94.802  95.917  1.00  0.00     0.048 C 
BRANCH  16  23
ATOM     23  O   UNL     1      96.651  95.933  91.569  1.00  0.00    -0.381 OA
ATOM     24  H   UNL     1      97.563  95.600  91.539  1.00  0.00     0.212 HD
ENDBRANCH  16  23
ENDBRANCH   6  15
BRANCH   7  25
ATOM     25  C   UNL     1      90.104  97.087  91.730  1.00  0.00     0.135 C 
BRANCH  25  26
ATOM     26  C   UNL     1      89.235  98.274  91.397  1.00  0.00    -0.040 A 
ATOM     27  C   UNL     1      88.358  98.214  90.314  1.00  0.00     0.004 A 
ATOM     28  C   UNL     1      89.307  99.431  92.172  1.00  0.00     0.004 A 
ATOM     29  C   UNL     1      87.554  99.311  90.005  1.00  0.00     0.000 A 
ATOM     30  C   UNL     1      88.503 100.529  91.863  1.00  0.00     0.000 A 
ATOM     31  C   UNL     1      87.627 100.468  90.780  1.00  0.00     0.000 A 
ENDBRANCH  25  26
ENDBRANCH   7  25
BRANCH  14  32
ATOM     32  C   UNL     1      92.566  99.823  89.260  1.00  0.00    -0.046 C 
ATOM     33  C   UNL     1      93.703 100.347  88.435  1.00  0.00     0.042 C 
ATOM     34  C   UNL     1      91.316 100.292  89.123  1.00  0.00     0.010 C 
ENDBRANCH  14  32
ENDBRANCH   3   4
BRANCH   2  35
ATOM     35  C   UNL     1      95.649  93.740  91.020  1.00  0.00     0.078 CG0
ATOM     36  G   UNL     1      95.797  94.863  92.045  1.00  0.00     0.000 G0
ENDBRANCH   2  35
ENDBRANCH   1   2
BRANCH   1  37
ATOM     37  O   UNL     1      93.850  91.633  90.066  1.00  0.00    -0.461 OA
BRANCH  37  38
ATOM     38  C   UNL     1      92.498  91.379  90.046  1.00  0.00     0.310 C 
ATOM     39  O   UNL     1      91.676  91.892  90.792  1.00  0.00    -0.252 OA
BRANCH  38  40
ATOM     40  C   UNL     1      92.190  90.371  88.964  1.00  0.00     0.158 C 
BRANCH  40  41
ATOM     41  C   UNL     1      92.543  88.960  89.356  1.00  0.00    -0.033 A 
ATOM     42  C   UNL     1      93.150  88.109  88.431  1.00  0.00     0.054 A 
ATOM     43  C   UNL     1      92.265  88.503  90.645  1.00  0.00     0.008 A 
ATOM     44  C   UNL     1      93.476  86.803  88.795  1.00  0.00     0.160 A 
ATOM     45  C   UNL     1      92.591  87.197  91.008  1.00  0.00     0.050 A 
ATOM     46  C   UNL     1      93.197  86.346  90.084  1.00  0.00     0.157 A 
BRANCH  44  47
ATOM     47  O   UNL     1      94.067  85.982  87.883  1.00  0.00    -0.493 OA
ATOM     48  C   UNL     1      93.217  85.085  87.170  1.00  0.00     0.278 C 
ENDBRANCH  44  47
BRANCH  46  49
ATOM     49  O   UNL     1      93.513  85.073  90.450  1.00  0.00    -0.504 OA
ATOM     50  H   UNL     1      94.380  84.842  90.077  1.00  0.00     0.293 HD
ENDBRANCH  46  49
ENDBRANCH  40  41
ENDBRANCH  38  40
ENDBRANCH  37  38
ENDBRANCH   1  37
TORSDOF 11
ENDMDL
MODEL 4
REMARK VINA RESULT:    -5.556     25.864     33.696
REMARK INTER + INTRA:         -10.745
REMARK INTER:                  -9.660
REMARK INTRA:                  -1.084
REMARK UNBOUND:                -0.966
REMARK SMILES C=C(C)[C@]12C[C@@H](C)[C@@]34O[C@](Cc5ccccc5)(O[C@@H]1[C@@H]3C=C(COC(=O)Cc1ccc(O)c(OC)c1)C[C@]1(O)C(=O)C(C)=C[C@@H]41)O2
REMARK SMILES IDX 23 1 22 2 21 3 20 4 9 5 8 6 10 7 6 8 18 9 46 10 19 11 5 12
REMARK SMILES IDX 7 13 4 14 45 15 38 16 44 17 40 18 42 20 41 21 43 22 39 23
REMARK SMILES IDX 11 25 12 26 13 27 17 28 14 29 16 30 15 31 2 32 3 33 1 34
REMARK SMILES IDX 37 35 24 37 25 38 26 39 27 40 28 41 36 42 29 43 33 44 30 45
REMARK SMILES IDX 31 46 34 47 35 48 32 49
REMARK H PARENT 39 24 32 50
REMARK Flexibility Score: 90.00
ROOT
ATOM      1  C   UNL     1      77.102  70.371  84.893  1.00  0.00     0.264 C 
ENDROOT
BRANCH   1   2
ATOM      2  C   UNL     1      75.727  70.312  85.516  1.00  0.00    -0.033 C 
ATOM      3  C   UNL     1      74.678  69.926  84.762  1.00  0.00    -0.015 C 
BRANCH   3   4
ATOM      4  C   UNL     1      73.203  69.859  85.123  1.00  0.00     0.078 C 
ATOM      5  O   UNL     1      72.766  67.565  85.940  1.00  0.00    -0.319 OA
ATOM      6  C   UNL     1      72.772  68.968  86.348  1.00  0.00     0.095 C 
ATOM      7  C   UNL     1      72.196  67.302  84.643  1.00  0.00     0.289 C 
ATOM      8  C   UNL     1      71.305  69.399  86.762  1.00  0.00     0.023 C 
ATOM      9  O   UNL     1      72.869  68.037  83.624  1.00  0.00    -0.320 OA
ATOM     10  O   UNL     1      70.829  67.697  84.563  1.00  0.00    -0.313 OA
ATOM     11  C   UNL     1      72.386  69.360  83.906  1.00  0.00     0.170 C 
ATOM     12  C   UNL     1      70.469  69.844  85.523  1.00  0.00     0.049 C 
ATOM     13  C   UNL     1      70.513  68.356  87.566  1.00  0.00     0.011 C 
ATOM     14  C   UNL     1      70.898  69.104  84.255  1.00  0.00     0.122 C 
BRANCH   6  15
ATOM     15  C   UNL     1      73.835  69.038  87.482  1.00  0.00     0.086 C 
ATOM     16  C   UNL     1      74.417  70.435  87.783  1.00  0.00     0.140 CG0
ATOM     17  C   UNL     1      73.496  68.500  88.844  1.00  0.00    -0.010 C 
ATOM     18  C   UNL     1      74.645  70.377  89.279  1.00  0.00     0.190 C 
ATOM     19  G   UNL     1      75.704  70.704  87.005  1.00  0.00     0.000 G0
ATOM     20  C   UNL     1      73.960  69.214  89.874  1.00  0.00    -0.008 C 
ATOM     21  O   UNL     1      75.267  71.201  89.933  1.00  0.00    -0.291 OA
ATOM     22  C   UNL     1      73.892  68.947  91.325  1.00  0.00     0.048 C 
BRANCH  16  23
ATOM     23  O   UNL     1      73.485  71.491  87.623  1.00  0.00    -0.381 OA
ATOM     24  H   UNL     1      73.080  71.676  88.487  1.00  0.00     0.212 HD
ENDBRANCH  16  23
ENDBRANCH   6  15
BRANCH   7  25
ATOM     25  C   UNL     1      72.312  65.817  84.365  1.00  0.00     0.135 C 
BRANCH  25  26
ATOM     26  C   UNL     1      73.679  65.282  84.712  1.00  0.00    -0.040 A 
ATOM     27  C   UNL     1      73.872  64.579  85.901  1.00  0.00     0.004 A 
ATOM     28  C   UNL     1      74.750  65.488  83.843  1.00  0.00     0.004 A 
ATOM     29  C   UNL     1      75.136  64.084  86.222  1.00  0.00     0.000 A 
ATOM     30  C   UNL     1      76.014  64.992  84.163  1.00  0.00     0.000 A 
ATOM     31  C   UNL     1      76.206  64.290  85.353  1.00  0.00     0.000 A 
ENDBRANCH  25  26
ENDBRANCH   7  25
BRANCH  14  32
ATOM     32  C   UNL     1      69.995  69.377  83.097  1.00  0.00    -0.046 C 
ATOM     33  C   UNL     1      69.787  70.820  82.745  1.00  0.00     0.042 C 
ATOM     34  C   UNL     1      69.403  68.388  82.410  1.00  0.00     0.010 C 
ENDBRANCH  14  32
ENDBRANCH   3   4
BRANCH   2  35
ATOM     35  C   UNL     1      75.719  70.709  86.980  1.00  0.00     0.078 CG0
ATOM     36  G   UNL     1      74.443  70.432  87.772  1.00  0.00     0.000 G0
ENDBRANCH   2  35
ENDBRANCH   1   2
BRANCH   1  37
ATOM     37  O   UNL     1      77.009  70.950  83.609  1.00  0.00    -0.461 OA
BRANCH  37  38
ATOM     38  C   UNL     1      77.812  72.042  83.374  1.00  0.00     0.310 C 
ATOM     39  O   UNL     1      78.603  72.145  82.447  1.00  0.00    -0.252 OA
BRANCH  38  40
ATOM     40  C   UNL     1      77.566  73.087  84.436  1.00  0.00     0.158 C 
BRANCH  40  41
ATOM     41  C   UNL     1      78.836  73.720  84.945  1.00  0.00    -0.033 A 
ATOM     42  C   UNL     1      79.513  73.153  86.025  1.00  0.00     0.054 A 
ATOM     43  C   UNL     1      79.335  74.870  84.335  1.00  0.00     0.008 A 
ATOM     44  C   UNL     1      80.688  73.739  86.496  1.00  0.00     0.160 A 
ATOM     45  C   UNL     1      80.510  75.456  84.806  1.00  0.00     0.050 A 
ATOM     46  C   UNL     1      81.187  74.891  85.886  1.00  0.00     0.157 A 
BRANCH  44  47
ATOM     47  O   UNL     1      81.340  73.177  87.552  1.00  0.00    -0.493 OA
ATOM     48  C   UNL     1      80.888  73.534  88.857  1.00  0.00     0.278 C 
ENDBRANCH  44  47
BRANCH  46  49
ATOM     49  O   UNL     1      82.334  75.470  86.336  1.00  0.00    -0.504 OA
ATOM     50  H   UNL     1      82.985  75.488  85.614  1.00  0.00     0.293 HD
ENDBRANCH  46  49
ENDBRANCH  40  41
ENDBRANCH  38  40
ENDBRANCH  37  38
ENDBRANCH   1  37
TORSDOF 11
ENDMDL
MODEL 5
REMARK VINA RESULT:    -5.546     35.554     37.997
REMARK INTER + INTRA:         -10.727
REMARK INTER:                  -8.112
REMARK INTRA:                  -2.616
REMARK UNBOUND:                -0.966
REMARK SMILES C=C(C)[C@]12C[C@@H](C)[C@@]34O[C@](Cc5ccccc5)(O[C@@H]1[C@@H]3C=C(COC(=O)Cc1ccc(O)c(OC)c1)C[C@]1(O)C(=O)C(C)=C[C@@H]41)O2
REMARK SMILES IDX 23 1 22 2 21 3 20 4 9 5 8 6 10 7 6 8 18 9 46 10 19 11 5 12
REMARK SMILES IDX 7 13 4 14 45 15 38 16 44 17 40 18 42 20 41 21 43 22 39 23
REMARK SMILES IDX 11 25 12 26 13 27 17 28 14 29 16 30 15 31 2 32 3 33 1 34
REMARK SMILES IDX 37 35 24 37 25 38 26 39 27 40 28 41 36 42 29 43 33 44 30 45
REMARK SMILES IDX 31 46 34 47 35 48 32 49
REMARK H PARENT 39 24 32 50
REMARK Flexibility Score: 90.00
ROOT
ATOM      1  C   UNL     1      61.093  75.774  89.823  1.00  0.00     0.264 C 
ENDROOT
BRANCH   1   2
ATOM      2  C   UNL     1      60.295  76.118  88.587  1.00  0.00    -0.033 C 
ATOM      3  C   UNL     1      60.130  77.412  88.247  1.00  0.00    -0.015 C 
BRANCH   3   4
ATOM      4  C   UNL     1      59.320  78.016  87.112  1.00  0.00     0.078 C 
ATOM      5  O   UNL     1      60.850  78.258  85.184  1.00  0.00    -0.319 OA
ATOM      6  C   UNL     1      59.645  77.568  85.639  1.00  0.00     0.095 C 
ATOM      7  C   UNL     1      60.927  79.654  85.528  1.00  0.00     0.289 C 
ATOM      8  C   UNL     1      58.422  77.994  84.726  1.00  0.00     0.023 C 
ATOM      9  O   UNL     1      60.836  79.845  86.938  1.00  0.00    -0.320 OA
ATOM     10  O   UNL     1      59.857  80.410  84.967  1.00  0.00    -0.313 OA
ATOM     11  C   UNL     1      59.443  79.559  87.141  1.00  0.00     0.170 C 
ATOM     12  C   UNL     1      57.763  79.313  85.234  1.00  0.00     0.049 C 
ATOM     13  C   UNL     1      58.730  78.120  83.226  1.00  0.00     0.011 C 
ATOM     14  C   UNL     1      58.782  80.230  85.911  1.00  0.00     0.122 C 
BRANCH   6  15
ATOM     15  C   UNL     1      60.021  76.058  85.591  1.00  0.00     0.086 C 
ATOM     16  C   UNL     1      59.158  75.115  86.454  1.00  0.00     0.140 CG0
ATOM     17  C   UNL     1      60.086  75.357  84.264  1.00  0.00    -0.010 C 
ATOM     18  C   UNL     1      59.124  73.851  85.622  1.00  0.00     0.190 C 
ATOM     19  G   UNL     1      59.759  74.888  87.840  1.00  0.00     0.000 G0
ATOM     20  C   UNL     1      59.615  74.105  84.254  1.00  0.00    -0.008 C 
ATOM     21  O   UNL     1      58.704  72.767  85.996  1.00  0.00    -0.291 OA
ATOM     22  C   UNL     1      59.596  73.104  83.168  1.00  0.00     0.048 C 
BRANCH  16  23
ATOM     23  O   UNL     1      57.796  75.501  86.538  1.00  0.00    -0.381 OA
ATOM     24  H   UNL     1      57.419  75.497  85.643  1.00  0.00     0.212 HD
ENDBRANCH  16  23
ENDBRANCH   6  15
BRANCH   7  25
ATOM     25  C   UNL     1      62.249  80.196  85.023  1.00  0.00     0.135 C 
BRANCH  25  26
ATOM     26  C   UNL     1      62.855  79.310  83.963  1.00  0.00    -0.040 A 
ATOM     27  C   UNL     1      62.451  79.437  82.634  1.00  0.00     0.004 A 
ATOM     28  C   UNL     1      63.820  78.366  84.311  1.00  0.00     0.004 A 
ATOM     29  C   UNL     1      63.011  78.618  81.653  1.00  0.00     0.000 A 
ATOM     30  C   UNL     1      64.381  77.547  83.330  1.00  0.00     0.000 A 
ATOM     31  C   UNL     1      63.975  77.673  82.001  1.00  0.00     0.000 A 
ENDBRANCH  25  26
ENDBRANCH   7  25
BRANCH  14  32
ATOM     32  C   UNL     1      58.216  81.573  86.241  1.00  0.00    -0.046 C 
ATOM     33  C   UNL     1      56.739  81.738  86.035  1.00  0.00     0.042 C 
ATOM     34  C   UNL     1      58.984  82.574  86.697  1.00  0.00     0.010 C 
ENDBRANCH  14  32
ENDBRANCH   3   4
BRANCH   2  35
ATOM     35  C   UNL     1      59.770  74.895  87.859  1.00  0.00     0.078 CG0
ATOM     36  G   UNL     1      59.147  75.116  86.481  1.00  0.00     0.000 G0
ENDBRANCH   2  35
ENDBRANCH   1   2
BRANCH   1  37
ATOM     37  O   UNL     1      62.458  76.040  89.587  1.00  0.00    -0.461 OA
BRANCH  37  38
ATOM     38  C   UNL     1      63.358  75.226  90.235  1.00  0.00     0.310 C 
ATOM     39  O   UNL     1      63.226  74.800  91.374  1.00  0.00    -0.252 OA
BRANCH  38  40
ATOM     40  C   UNL     1      64.529  74.942  89.324  1.00  0.00     0.158 C 
BRANCH  40  41
ATOM     41  C   UNL     1      64.108  74.489  87.950  1.00  0.00    -0.033 A 
ATOM     42  C   UNL     1      63.316  73.349  87.804  1.00  0.00     0.054 A 
ATOM     43  C   UNL     1      64.509  75.208  86.824  1.00  0.00     0.008 A 
ATOM     44  C   UNL     1      62.926  72.929  86.532  1.00  0.00     0.160 A 
ATOM     45  C   UNL     1      64.119  74.789  85.552  1.00  0.00     0.050 A 
ATOM     46  C   UNL     1      63.328  73.649  85.406  1.00  0.00     0.157 A 
BRANCH  44  47
ATOM     47  O   UNL     1      62.154  71.815  86.401  1.00  0.00    -0.493 OA
ATOM     48  C   UNL     1      61.392  71.417  87.540  1.00  0.00     0.278 C 
ENDBRANCH  44  47
BRANCH  46  49
ATOM     49  O   UNL     1      62.953  73.250  84.159  1.00  0.00    -0.504 OA
ATOM     50  H   UNL     1      63.678  72.741  83.758  1.00  0.00     0.293 HD
ENDBRANCH  46  49
ENDBRANCH  40  41
ENDBRANCH  38  40
ENDBRANCH  37  38
ENDBRANCH   1  37
TORSDOF 11
ENDMDL
MODEL 6
REMARK VINA RESULT:    -5.235     21.741     25.883
REMARK INTER + INTRA:         -10.180
REMARK INTER:                  -7.900
REMARK INTRA:                  -2.280
REMARK UNBOUND:                -0.966
REMARK SMILES C=C(C)[C@]12C[C@@H](C)[C@@]34O[C@](Cc5ccccc5)(O[C@@H]1[C@@H]3C=C(COC(=O)Cc1ccc(O)c(OC)c1)C[C@]1(O)C(=O)C(C)=C[C@@H]41)O2
REMARK SMILES IDX 23 1 22 2 21 3 20 4 9 5 8 6 10 7 6 8 18 9 46 10 19 11 5 12
REMARK SMILES IDX 7 13 4 14 45 15 38 16 44 17 40 18 42 20 41 21 43 22 39 23
REMARK SMILES IDX 11 25 12 26 13 27 17 28 14 29 16 30 15 31 2 32 3 33 1 34
REMARK SMILES IDX 37 35 24 37 25 38 26 39 27 40 28 41 36 42 29 43 33 44 30 45
REMARK SMILES IDX 31 46 34 47 35 48 32 49
REMARK H PARENT 39 24 32 50
REMARK Flexibility Score: 90.00
ROOT
ATOM      1  C   UNL     1      73.312  98.421  71.271  1.00  0.00     0.264 C 
ENDROOT
BRANCH   1   2
ATOM      2  C   UNL     1      73.421  97.491  72.457  1.00  0.00    -0.033 C 
ATOM      3  C   UNL     1      72.837  96.277  72.398  1.00  0.00    -0.015 C 
BRANCH   3   4
ATOM      4  C   UNL     1      72.736  95.203  73.469  1.00  0.00     0.078 C 
ATOM      5  O   UNL     1      74.680  93.703  73.168  1.00  0.00    -0.319 OA
ATOM      6  C   UNL     1      74.067  94.647  74.099  1.00  0.00     0.095 C 
ATOM      7  C   UNL     1      73.769  92.789  72.528  1.00  0.00     0.289 C 
ATOM      8  C   UNL     1      73.684  93.889  75.437  1.00  0.00     0.023 C 
ATOM      9  O   UNL     1      72.751  93.487  71.816  1.00  0.00    -0.320 OA
ATOM     10  O   UNL     1      73.085  91.962  73.466  1.00  0.00    -0.313 OA
ATOM     11  C   UNL     1      71.967  93.978  72.914  1.00  0.00     0.170 C 
ATOM     12  C   UNL     1      72.285  93.209  75.328  1.00  0.00     0.049 C 
ATOM     13  C   UNL     1      74.715  92.862  75.932  1.00  0.00     0.011 C 
ATOM     14  C   UNL     1      71.975  92.779  73.894  1.00  0.00     0.122 C 
BRANCH   6  15
ATOM     15  C   UNL     1      75.121  95.782  74.252  1.00  0.00     0.086 C 
ATOM     16  C   UNL     1      74.593  97.135  74.772  1.00  0.00     0.140 CG0
ATOM     17  C   UNL     1      76.347  95.541  75.086  1.00  0.00    -0.010 C 
ATOM     18  C   UNL     1      75.760  97.647  75.591  1.00  0.00     0.190 C 
ATOM     19  G   UNL     1      74.215  98.083  73.635  1.00  0.00     0.000 G0
ATOM     20  C   UNL     1      76.748  96.578  75.829  1.00  0.00    -0.008 C 
ATOM     21  O   UNL     1      75.864  98.776  76.046  1.00  0.00    -0.291 OA
ATOM     22  C   UNL     1      77.937  96.728  76.692  1.00  0.00     0.048 C 
BRANCH  16  23
ATOM     23  O   UNL     1      73.543  97.016  75.718  1.00  0.00    -0.381 OA
ATOM     24  H   UNL     1      73.505  96.093  76.020  1.00  0.00     0.212 HD
ENDBRANCH  16  23
ENDBRANCH   6  15
BRANCH   7  25
ATOM     25  C   UNL     1      74.560  91.920  71.571  1.00  0.00     0.135 C 
BRANCH  25  26
ATOM     26  C   UNL     1      73.666  91.179  70.609  1.00  0.00    -0.040 A 
ATOM     27  C   UNL     1      73.476  91.669  69.316  1.00  0.00     0.004 A 
ATOM     28  C   UNL     1      73.031  90.005  71.010  1.00  0.00     0.004 A 
ATOM     29  C   UNL     1      72.648  90.984  68.426  1.00  0.00     0.000 A 
ATOM     30  C   UNL     1      72.203  89.319  70.119  1.00  0.00     0.000 A 
ATOM     31  C   UNL     1      72.013  89.810  68.827  1.00  0.00     0.000 A 
ENDBRANCH  25  26
ENDBRANCH   7  25
BRANCH  14  32
ATOM     32  C   UNL     1      70.726  91.965  73.795  1.00  0.00    -0.046 C 
ATOM     33  C   UNL     1      70.338  91.196  75.023  1.00  0.00     0.042 C 
ATOM     34  C   UNL     1      69.993  91.923  72.673  1.00  0.00     0.010 C 
ENDBRANCH  14  32
ENDBRANCH   3   4
BRANCH   2  35
ATOM     35  C   UNL     1      74.221  98.080  73.603  1.00  0.00     0.078 CG0
ATOM     36  G   UNL     1      74.571  97.148  74.762  1.00  0.00     0.000 G0
ENDBRANCH   2  35
ENDBRANCH   1   2
BRANCH   1  37
ATOM     37  O   UNL     1      74.461  99.239  71.212  1.00  0.00    -0.461 OA
BRANCH  37  38
ATOM     38  C   UNL     1      75.178  99.196  70.039  1.00  0.00     0.310 C 
ATOM     39  O   UNL     1      74.724  98.874  68.949  1.00  0.00    -0.252 OA
BRANCH  38  40
ATOM     40  C   UNL     1      76.606  99.608  70.305  1.00  0.00     0.158 C 
BRANCH  40  41
ATOM     41  C   UNL     1      77.353  98.620  71.164  1.00  0.00    -0.033 A 
ATOM     42  C   UNL     1      78.007  99.054  72.317  1.00  0.00     0.054 A 
ATOM     43  C   UNL     1      77.389  97.273  70.807  1.00  0.00     0.008 A 
ATOM     44  C   UNL     1      78.698  98.140  73.113  1.00  0.00     0.160 A 
ATOM     45  C   UNL     1      78.080  96.358  71.602  1.00  0.00     0.050 A 
ATOM     46  C   UNL     1      78.735  96.791  72.754  1.00  0.00     0.157 A 
BRANCH  44  47
ATOM     47  O   UNL     1      79.334  98.575  74.236  1.00  0.00    -0.493 OA
ATOM     48  C   UNL     1      80.120  99.760  74.118  1.00  0.00     0.278 C 
ENDBRANCH  44  47
BRANCH  46  49
ATOM     49  O   UNL     1      79.405  95.889  73.524  1.00  0.00    -0.504 OA
ATOM     50  H   UNL     1      79.609  95.105  72.987  1.00  0.00     0.293 HD
ENDBRANCH  46  49
ENDBRANCH  40  41
ENDBRANCH  38  40
ENDBRANCH  37  38
ENDBRANCH   1  37
TORSDOF 11
ENDMDL
MODEL 7
REMARK VINA RESULT:    -5.212     24.488     27.310
REMARK INTER + INTRA:         -10.139
REMARK INTER:                  -8.473
REMARK INTRA:                  -1.666
REMARK UNBOUND:                -0.966
REMARK SMILES C=C(C)[C@]12C[C@@H](C)[C@@]34O[C@](Cc5ccccc5)(O[C@@H]1[C@@H]3C=C(COC(=O)Cc1ccc(O)c(OC)c1)C[C@]1(O)C(=O)C(C)=C[C@@H]41)O2
REMARK SMILES IDX 23 1 22 2 21 3 20 4 9 5 8 6 10 7 6 8 18 9 46 10 19 11 5 12
REMARK SMILES IDX 7 13 4 14 45 15 38 16 44 17 40 18 42 20 41 21 43 22 39 23
REMARK SMILES IDX 11 25 12 26 13 27 17 28 14 29 16 30 15 31 2 32 3 33 1 34
REMARK SMILES IDX 37 35 24 37 25 38 26 39 27 40 28 41 36 42 29 43 33 44 30 45
REMARK SMILES IDX 31 46 34 47 35 48 32 49
REMARK H PARENT 39 24 32 50
REMARK Flexibility Score: 90.00
ROOT
ATOM      1  C   UNL     1      81.448  75.503  85.701  1.00  0.00     0.264 C 
ENDROOT
BRANCH   1   2
ATOM      2  C   UNL     1      81.625  74.681  86.957  1.00  0.00    -0.033 C 
ATOM      3  C   UNL     1      82.452  73.617  86.937  1.00  0.00    -0.015 C 
BRANCH   3   4
ATOM      4  C   UNL     1      82.739  72.598  88.027  1.00  0.00     0.078 C 
ATOM      5  O   UNL     1      84.692  73.433  89.296  1.00  0.00    -0.319 OA
ATOM      6  C   UNL     1      83.271  73.117  89.415  1.00  0.00     0.095 C 
ATOM      7  C   UNL     1      85.476  72.479  88.555  1.00  0.00     0.289 C 
ATOM      8  C   UNL     1      83.081  71.949  90.469  1.00  0.00     0.023 C 
ATOM      9  O   UNL     1      84.967  72.306  87.235  1.00  0.00    -0.320 OA
ATOM     10  O   UNL     1      85.453  71.183  89.148  1.00  0.00    -0.313 OA
ATOM     11  C   UNL     1      83.772  71.562  87.520  1.00  0.00     0.170 C 
ATOM     12  C   UNL     1      83.257  70.548  89.806  1.00  0.00     0.049 C 
ATOM     13  C   UNL     1      83.969  72.038  91.720  1.00  0.00     0.011 C 
ATOM     14  C   UNL     1      84.240  70.595  88.636  1.00  0.00     0.122 C 
BRANCH   6  15
ATOM     15  C   UNL     1      82.602  74.471  89.791  1.00  0.00     0.086 C 
ATOM     16  C   UNL     1      81.086  74.577  89.526  1.00  0.00     0.140 CG0
ATOM     17  C   UNL     1      82.750  75.004  91.188  1.00  0.00    -0.010 C 
ATOM     18  C   UNL     1      80.616  75.459  90.663  1.00  0.00     0.190 C 
ATOM     19  G   UNL     1      80.780  75.179  88.154  1.00  0.00     0.000 G0
ATOM     20  C   UNL     1      81.661  75.589  91.697  1.00  0.00    -0.008 C 
ATOM     21  O   UNL     1      79.508  75.964  90.757  1.00  0.00    -0.291 OA
ATOM     22  C   UNL     1      81.469  76.285  92.986  1.00  0.00     0.048 C 
BRANCH  16  23
ATOM     23  O   UNL     1      80.381  73.363  89.726  1.00  0.00    -0.381 OA
ATOM     24  H   UNL     1      79.451  73.574  89.911  1.00  0.00     0.212 HD
ENDBRANCH  16  23
ENDBRANCH   6  15
BRANCH   7  25
ATOM     25  C   UNL     1      86.903  72.982  88.492  1.00  0.00     0.135 C 
BRANCH  25  26
ATOM     26  C   UNL     1      87.721  72.511  89.669  1.00  0.00    -0.040 A 
ATOM     27  C   UNL     1      88.466  71.335  89.574  1.00  0.00     0.004 A 
ATOM     28  C   UNL     1      87.734  73.252  90.850  1.00  0.00     0.004 A 
ATOM     29  C   UNL     1      89.223  70.900  90.663  1.00  0.00     0.000 A 
ATOM     30  C   UNL     1      88.491  72.816  91.939  1.00  0.00     0.000 A 
ATOM     31  C   UNL     1      89.235  71.640  91.844  1.00  0.00     0.000 A 
ENDBRANCH  25  26
ENDBRANCH   7  25
BRANCH  14  32
ATOM     32  C   UNL     1      84.564  69.237  88.103  1.00  0.00    -0.046 C 
ATOM     33  C   UNL     1      85.411  68.366  88.982  1.00  0.00     0.042 C 
ATOM     34  C   UNL     1      84.122  68.821  86.907  1.00  0.00     0.010 C 
ENDBRANCH  14  32
ENDBRANCH   3   4
BRANCH   2  35
ATOM     35  C   UNL     1      80.811  75.200  88.127  1.00  0.00     0.078 CG0
ATOM     36  G   UNL     1      81.092  74.590  89.499  1.00  0.00     0.000 G0
ENDBRANCH   2  35
ENDBRANCH   1   2
BRANCH   1  37
ATOM     37  O   UNL     1      81.697  74.692  84.573  1.00  0.00    -0.461 OA
BRANCH  37  38
ATOM     38  C   UNL     1      80.590  74.236  83.895  1.00  0.00     0.310 C 
ATOM     39  O   UNL     1      80.620  73.585  82.860  1.00  0.00    -0.252 OA
BRANCH  38  40
ATOM     40  C   UNL     1      79.339  74.665  84.626  1.00  0.00     0.158 C 
BRANCH  40  41
ATOM     41  C   UNL     1      78.431  73.510  84.963  1.00  0.00    -0.033 A 
ATOM     42  C   UNL     1      78.518  72.897  86.214  1.00  0.00     0.054 A 
ATOM     43  C   UNL     1      77.504  73.054  84.027  1.00  0.00     0.008 A 
ATOM     44  C   UNL     1      77.678  71.829  86.527  1.00  0.00     0.160 A 
ATOM     45  C   UNL     1      76.664  71.986  84.339  1.00  0.00     0.050 A 
ATOM     46  C   UNL     1      76.751  71.373  85.589  1.00  0.00     0.157 A 
BRANCH  44  47
ATOM     47  O   UNL     1      77.772  71.238  87.751  1.00  0.00    -0.493 OA
ATOM     48  C   UNL     1      78.865  70.344  87.956  1.00  0.00     0.278 C 
ENDBRANCH  44  47
BRANCH  46  49
ATOM     49  O   UNL     1      75.924  70.331  85.883  1.00  0.00    -0.504 OA
ATOM     50  H   UNL     1      76.304  69.513  85.520  1.00  0.00     0.293 HD
ENDBRANCH  46  49
ENDBRANCH  40  41
ENDBRANCH  38  40
ENDBRANCH  37  38
ENDBRANCH   1  37
TORSDOF 11
ENDMDL
MODEL 8
REMARK VINA RESULT:    -5.197     33.151     37.436
REMARK INTER + INTRA:         -10.113
REMARK INTER:                  -8.277
REMARK INTRA:                  -1.836
REMARK UNBOUND:                -0.966
REMARK SMILES C=C(C)[C@]12C[C@@H](C)[C@@]34O[C@](Cc5ccccc5)(O[C@@H]1[C@@H]3C=C(COC(=O)Cc1ccc(O)c(OC)c1)C[C@]1(O)C(=O)C(C)=C[C@@H]41)O2
REMARK SMILES IDX 23 1 22 2 21 3 20 4 9 5 8 6 10 7 6 8 18 9 46 10 19 11 5 12
REMARK SMILES IDX 7 13 4 14 45 15 38 16 44 17 40 18 42 20 41 21 43 22 39 23
REMARK SMILES IDX 11 25 12 26 13 27 17 28 14 29 16 30 15 31 2 32 3 33 1 34
REMARK SMILES IDX 37 35 24 37 25 38 26 39 27 40 28 41 36 42 29 43 33 44 30 45
REMARK SMILES IDX 31 46 34 47 35 48 32 49
REMARK H PARENT 39 24 32 50
REMARK Flexibility Score: 90.00
ROOT
ATOM      1  C   UNL     1      61.157  75.717  89.959  1.00  0.00     0.264 C 
ENDROOT
BRANCH   1   2
ATOM      2  C   UNL     1      60.329  75.989  88.725  1.00  0.00    -0.033 C 
ATOM      3  C   UNL     1      60.081  77.264  88.365  1.00  0.00    -0.015 C 
BRANCH   3   4
ATOM      4  C   UNL     1      59.224  77.797  87.229  1.00  0.00     0.078 C 
ATOM      5  O   UNL     1      60.723  78.126  85.289  1.00  0.00    -0.319 OA
ATOM      6  C   UNL     1      59.573  77.357  85.758  1.00  0.00     0.095 C 
ATOM      7  C   UNL     1      60.704  79.528  85.618  1.00  0.00     0.289 C 
ATOM      8  C   UNL     1      58.318  77.685  84.848  1.00  0.00     0.023 C 
ATOM      9  O   UNL     1      60.606  79.727  87.026  1.00  0.00    -0.320 OA
ATOM     10  O   UNL     1      59.580  80.200  85.055  1.00  0.00    -0.313 OA
ATOM     11  C   UNL     1      59.238  79.345  87.240  1.00  0.00     0.170 C 
ATOM     12  C   UNL     1      57.570  78.960  85.345  1.00  0.00     0.049 C 
ATOM     13  C   UNL     1      58.609  77.816  83.344  1.00  0.00     0.011 C 
ATOM     14  C   UNL     1      58.524  79.954  86.007  1.00  0.00     0.122 C 
BRANCH   6  15
ATOM     15  C   UNL     1      60.055  75.877  85.724  1.00  0.00     0.086 C 
ATOM     16  C   UNL     1      59.257  74.882  86.592  1.00  0.00     0.140 CG0
ATOM     17  C   UNL     1      60.173  75.171  84.403  1.00  0.00    -0.010 C 
ATOM     18  C   UNL     1      59.316  73.612  85.770  1.00  0.00     0.190 C 
ATOM     19  G   UNL     1      59.869  74.709  87.982  1.00  0.00     0.000 G0
ATOM     20  C   UNL     1      59.792  73.890  84.402  1.00  0.00    -0.008 C 
ATOM     21  O   UNL     1      58.972  72.504  86.153  1.00  0.00    -0.291 OA
ATOM     22  C   UNL     1      59.847  72.881  83.324  1.00  0.00     0.048 C 
BRANCH  16  23
ATOM     23  O   UNL     1      57.871  75.171  86.670  1.00  0.00    -0.381 OA
ATOM     24  H   UNL     1      57.385  74.332  86.726  1.00  0.00     0.212 HD
ENDBRANCH  16  23
ENDBRANCH   6  15
BRANCH   7  25
ATOM     25  C   UNL     1      61.981  80.156  85.099  1.00  0.00     0.135 C 
BRANCH  25  26
ATOM     26  C   UNL     1      62.687  79.266  84.107  1.00  0.00    -0.040 A 
ATOM     27  C   UNL     1      62.366  79.342  82.751  1.00  0.00     0.004 A 
ATOM     28  C   UNL     1      63.661  78.369  84.544  1.00  0.00     0.004 A 
ATOM     29  C   UNL     1      63.018  78.518  81.833  1.00  0.00     0.000 A 
ATOM     30  C   UNL     1      64.313  77.546  83.626  1.00  0.00     0.000 A 
ATOM     31  C   UNL     1      63.992  77.621  82.270  1.00  0.00     0.000 A 
ENDBRANCH  25  26
ENDBRANCH   7  25
BRANCH  14  32
ATOM     32  C   UNL     1      57.866  81.257  86.327  1.00  0.00    -0.046 C 
ATOM     33  C   UNL     1      56.373  81.228  86.465  1.00  0.00     0.042 C 
ATOM     34  C   UNL     1      58.570  82.388  86.481  1.00  0.00     0.010 C 
ENDBRANCH  14  32
ENDBRANCH   3   4
BRANCH   2  35
ATOM     35  C   UNL     1      59.874  74.723  88.023  1.00  0.00     0.078 CG0
ATOM     36  G   UNL     1      59.281  74.875  86.623  1.00  0.00     0.000 G0
ENDBRANCH   2  35
ENDBRANCH   1   2
BRANCH   1  37
ATOM     37  O   UNL     1      62.525  75.873  89.646  1.00  0.00    -0.461 OA
BRANCH  37  38
ATOM     38  C   UNL     1      63.295  74.734  89.697  1.00  0.00     0.310 C 
ATOM     39  O   UNL     1      62.920  73.618  89.365  1.00  0.00    -0.252 OA
BRANCH  38  40
ATOM     40  C   UNL     1      64.668  75.076  90.224  1.00  0.00     0.158 C 
BRANCH  40  41
ATOM     41  C   UNL     1      65.407  76.055  89.347  1.00  0.00    -0.033 A 
ATOM     42  C   UNL     1      65.941  75.634  88.128  1.00  0.00     0.054 A 
ATOM     43  C   UNL     1      65.557  77.381  89.754  1.00  0.00     0.008 A 
ATOM     44  C   UNL     1      66.625  76.540  87.317  1.00  0.00     0.160 A 
ATOM     45  C   UNL     1      66.240  78.286  88.942  1.00  0.00     0.050 A 
ATOM     46  C   UNL     1      66.775  77.866  87.724  1.00  0.00     0.157 A 
BRANCH  44  47
ATOM     47  O   UNL     1      67.142  76.118  86.130  1.00  0.00    -0.493 OA
ATOM     48  C   UNL     1      66.413  75.113  85.426  1.00  0.00     0.278 C 
ENDBRANCH  44  47
BRANCH  46  49
ATOM     49  O   UNL     1      67.439  78.760  86.940  1.00  0.00    -0.504 OA
ATOM     50  H   UNL     1      68.354  78.842  87.259  1.00  0.00     0.293 HD
ENDBRANCH  46  49
ENDBRANCH  40  41
ENDBRANCH  38  40
ENDBRANCH  37  38
ENDBRANCH   1  37
TORSDOF 11
ENDMDL
MODEL 9
REMARK VINA RESULT:    -5.182      3.230      6.961
REMARK INTER + INTRA:         -10.087
REMARK INTER:                  -9.083
REMARK INTRA:                  -1.004
REMARK UNBOUND:                -0.966
REMARK SMILES C=C(C)[C@]12C[C@@H](C)[C@@]34O[C@](Cc5ccccc5)(O[C@@H]1[C@@H]3C=C(COC(=O)Cc1ccc(O)c(OC)c1)C[C@]1(O)C(=O)C(C)=C[C@@H]41)O2
REMARK SMILES IDX 23 1 22 2 21 3 20 4 9 5 8 6 10 7 6 8 18 9 46 10 19 11 5 12
REMARK SMILES IDX 7 13 4 14 45 15 38 16 44 17 40 18 42 20 41 21 43 22 39 23
REMARK SMILES IDX 11 25 12 26 13 27 17 28 14 29 16 30 15 31 2 32 3 33 1 34
REMARK SMILES IDX 37 35 24 37 25 38 26 39 27 40 28 41 36 42 29 43 33 44 30 45
REMARK SMILES IDX 31 46 34 47 35 48 32 49
REMARK H PARENT 39 24 32 50
REMARK Flexibility Score: 90.00
ROOT
ATOM      1  C   UNL     1      93.463  93.580  92.748  1.00  0.00     0.264 C 
ENDROOT
BRANCH   1   2
ATOM      2  C   UNL     1      92.500  94.616  92.215  1.00  0.00    -0.033 C 
ATOM      3  C   UNL     1      91.280  94.731  92.776  1.00  0.00    -0.015 C 
BRANCH   3   4
ATOM      4  C   UNL     1      90.117  95.627  92.381  1.00  0.00     0.078 C 
ATOM      5  O   UNL     1      90.331  97.709  93.700  1.00  0.00    -0.319 OA
ATOM      6  C   UNL     1      90.352  97.183  92.337  1.00  0.00     0.095 C 
ATOM      7  C   UNL     1      89.298  97.177  94.550  1.00  0.00     0.289 C 
ATOM      8  C   UNL     1      89.162  97.825  91.510  1.00  0.00     0.023 C 
ATOM      9  O   UNL     1      89.385  95.758  94.644  1.00  0.00    -0.320 OA
ATOM     10  O   UNL     1      87.991  97.450  94.049  1.00  0.00    -0.313 OA
ATOM     11  C   UNL     1      88.921  95.389  93.336  1.00  0.00     0.170 C 
ATOM     12  C   UNL     1      87.834  97.033  91.712  1.00  0.00     0.049 C 
ATOM     13  C   UNL     1      88.911  99.319  91.766  1.00  0.00     0.011 C 
ATOM     14  C   UNL     1      87.763  96.390  93.097  1.00  0.00     0.122 C 
BRANCH   6  15
ATOM     15  C   UNL     1      91.781  97.510  91.816  1.00  0.00     0.086 C 
ATOM     16  C   UNL     1      92.288  96.655  90.636  1.00  0.00     0.140 CG0
ATOM     17  C   UNL     1      92.108  98.916  91.394  1.00  0.00    -0.010 C 
ATOM     18  C   UNL     1      93.131  97.642  89.856  1.00  0.00     0.190 C 
ATOM     19  G   UNL     1      93.089  95.442  91.105  1.00  0.00     0.000 G0
ATOM     20  C   UNL     1      92.887  99.023  90.313  1.00  0.00    -0.008 C 
ATOM     21  O   UNL     1      93.882  97.359  88.935  1.00  0.00    -0.291 OA
ATOM     22  C   UNL     1      93.467 100.221  89.673  1.00  0.00     0.048 C 
BRANCH  16  23
ATOM     23  O   UNL     1      91.271  96.282  89.720  1.00  0.00    -0.381 OA
ATOM     24  H   UNL     1      91.321  96.870  88.949  1.00  0.00     0.212 HD
ENDBRANCH  16  23
ENDBRANCH   6  15
BRANCH   7  25
ATOM     25  C   UNL     1      89.450  97.793  95.926  1.00  0.00     0.135 C 
BRANCH  25  26
ATOM     26  C   UNL     1      88.146  97.812  96.684  1.00  0.00    -0.040 A 
ATOM     27  C   UNL     1      87.741  96.687  97.403  1.00  0.00     0.004 A 
ATOM     28  C   UNL     1      87.348  98.955  96.669  1.00  0.00     0.004 A 
ATOM     29  C   UNL     1      86.535  96.705  98.104  1.00  0.00     0.000 A 
ATOM     30  C   UNL     1      86.142  98.973  97.371  1.00  0.00     0.000 A 
ATOM     31  C   UNL     1      85.736  97.848  98.088  1.00  0.00     0.000 A 
ENDBRANCH  25  26
ENDBRANCH   7  25
BRANCH  14  32
ATOM     32  C   UNL     1      86.429  95.782  93.381  1.00  0.00    -0.046 C 
ATOM     33  C   UNL     1      85.632  95.346  92.188  1.00  0.00     0.042 C 
ATOM     34  C   UNL     1      85.968  95.634  94.633  1.00  0.00     0.010 C 
ENDBRANCH  14  32
ENDBRANCH   3   4
BRANCH   2  35
ATOM     35  C   UNL     1      93.073  95.427  91.069  1.00  0.00     0.078 CG0
ATOM     36  G   UNL     1      92.294  96.666  90.631  1.00  0.00     0.000 G0
ENDBRANCH   2  35
ENDBRANCH   1   2
BRANCH   1  37
ATOM     37  O   UNL     1      93.607  92.545  91.799  1.00  0.00    -0.461 OA
BRANCH  37  38
ATOM     38  C   UNL     1      92.516  91.728  91.620  1.00  0.00     0.310 C 
ATOM     39  O   UNL     1      91.909  91.159  92.517  1.00  0.00    -0.252 OA
BRANCH  38  40
ATOM     40  C   UNL     1      92.185  91.643  90.148  1.00  0.00     0.158 C 
BRANCH  40  41
ATOM     41  C   UNL     1      92.701  90.383  89.502  1.00  0.00    -0.033 A 
ATOM     42  C   UNL     1      93.718  90.453  88.549  1.00  0.00     0.054 A 
ATOM     43  C   UNL     1      92.161  89.146  89.856  1.00  0.00     0.008 A 
ATOM     44  C   UNL     1      94.195  89.287  87.951  1.00  0.00     0.160 A 
ATOM     45  C   UNL     1      92.638  87.980  89.257  1.00  0.00     0.050 A 
ATOM     46  C   UNL     1      93.654  88.050  88.305  1.00  0.00     0.157 A 
BRANCH  44  47
ATOM     47  O   UNL     1      95.188  89.368  87.022  1.00  0.00    -0.493 OA
ATOM     48  C   UNL     1      95.012  90.311  85.966  1.00  0.00     0.278 C 
ENDBRANCH  44  47
BRANCH  46  49
ATOM     49  O   UNL     1      94.113  86.904  87.728  1.00  0.00    -0.504 OA
ATOM     50  H   UNL     1      93.394  86.498  87.216  1.00  0.00     0.293 HD
ENDBRANCH  46  49
ENDBRANCH  40  41
ENDBRANCH  38  40
ENDBRANCH  37  38
ENDBRANCH   1  37
TORSDOF 11
ENDMDL
MODEL 10
REMARK VINA RESULT:    -5.006      1.368      2.090
REMARK INTER + INTRA:          -9.776
REMARK INTER:                  -8.925
REMARK INTRA:                  -0.851
REMARK UNBOUND:                -0.966
REMARK SMILES C=C(C)[C@]12C[C@@H](C)[C@@]34O[C@](Cc5ccccc5)(O[C@@H]1[C@@H]3C=C(COC(=O)Cc1ccc(O)c(OC)c1)C[C@]1(O)C(=O)C(C)=C[C@@H]41)O2
REMARK SMILES IDX 23 1 22 2 21 3 20 4 9 5 8 6 10 7 6 8 18 9 46 10 19 11 5 12
REMARK SMILES IDX 7 13 4 14 45 15 38 16 44 17 40 18 42 20 41 21 43 22 39 23
REMARK SMILES IDX 11 25 12 26 13 27 17 28 14 29 16 30 15 31 2 32 3 33 1 34
REMARK SMILES IDX 37 35 24 37 25 38 26 39 27 40 28 41 36 42 29 43 33 44 30 45
REMARK SMILES IDX 31 46 34 47 35 48 32 49
REMARK H PARENT 39 24 32 50
REMARK Flexibility Score: 90.00
ROOT
ATOM      1  C   UNL     1      91.626  94.819  90.290  1.00  0.00     0.264 C 
ENDROOT
BRANCH   1   2
ATOM      2  C   UNL     1      91.070  96.071  90.929  1.00  0.00    -0.033 C 
ATOM      3  C   UNL     1      91.799  97.204  90.903  1.00  0.00    -0.015 C 
BRANCH   3   4
ATOM      4  C   UNL     1      91.504  98.556  91.532  1.00  0.00     0.078 C 
ATOM      5  O   UNL     1      90.323  99.902  89.825  1.00  0.00    -0.319 OA
ATOM      6  C   UNL     1      90.166  99.287  91.141  1.00  0.00     0.095 C 
ATOM      7  C   UNL     1      91.581 100.568  89.602  1.00  0.00     0.289 C 
ATOM      8  C   UNL     1      89.904 100.419  92.219  1.00  0.00     0.023 C 
ATOM      9  O   UNL     1      92.678  99.678  89.789  1.00  0.00    -0.320 OA
ATOM     10  O   UNL     1      91.794 101.640  90.517  1.00  0.00    -0.313 OA
ATOM     11  C   UNL     1      92.654  99.544  91.219  1.00  0.00     0.170 C 
ATOM     12  C   UNL     1      91.241 101.024  92.748  1.00  0.00     0.049 C 
ATOM     13  C   UNL     1      88.971 101.555  91.770  1.00  0.00     0.011 C 
ATOM     14  C   UNL     1      92.338 100.988  91.684  1.00  0.00     0.122 C 
BRANCH   6  15
ATOM     15  C   UNL     1      89.010  98.261  90.954  1.00  0.00     0.086 C 
ATOM     16  C   UNL     1      88.929  97.131  92.002  1.00  0.00     0.140 CG0
ATOM     17  C   UNL     1      87.594  98.756  90.863  1.00  0.00    -0.010 C 
ATOM     18  C   UNL     1      87.437  96.903  92.121  1.00  0.00     0.190 C 
ATOM     19  G   UNL     1      89.679  95.877  91.556  1.00  0.00     0.000 G0
ATOM     20  C   UNL     1      86.683  98.000  91.485  1.00  0.00    -0.008 C 
ATOM     21  O   UNL     1      86.907  95.971  92.705  1.00  0.00    -0.291 OA
ATOM     22  C   UNL     1      85.212  98.131  91.535  1.00  0.00     0.048 C 
BRANCH  16  23
ATOM     23  O   UNL     1      89.316  97.529  93.306  1.00  0.00    -0.381 OA
ATOM     24  H   UNL     1      90.260  97.756  93.291  1.00  0.00     0.212 HD
ENDBRANCH  16  23
ENDBRANCH   6  15
BRANCH   7  25
ATOM     25  C   UNL     1      91.591 101.103  88.185  1.00  0.00     0.135 C 
BRANCH  25  26
ATOM     26  C   UNL     1      92.992 101.238  87.642  1.00  0.00    -0.040 A 
ATOM     27  C   UNL     1      93.732 102.392  87.902  1.00  0.00     0.004 A 
ATOM     28  C   UNL     1      93.547 100.210  86.881  1.00  0.00     0.004 A 
ATOM     29  C   UNL     1      95.028 102.517  87.400  1.00  0.00     0.000 A 
ATOM     30  C   UNL     1      94.843 100.335  86.379  1.00  0.00     0.000 A 
ATOM     31  C   UNL     1      95.583 101.489  86.639  1.00  0.00     0.000 A 
ENDBRANCH  25  26
ENDBRANCH   7  25
BRANCH  14  32
ATOM     32  C   UNL     1      93.569 101.724  92.103  1.00  0.00    -0.046 C 
ATOM     33  C   UNL     1      94.742 100.880  92.502  1.00  0.00     0.042 C 
ATOM     34  C   UNL     1      93.622 103.065  92.121  1.00  0.00     0.010 C 
ENDBRANCH  14  32
ENDBRANCH   3   4
BRANCH   2  35
ATOM     35  C   UNL     1      89.694  95.868  91.534  1.00  0.00     0.078 CG0
ATOM     36  G   UNL     1      88.947  97.115  92.007  1.00  0.00     0.000 G0
ENDBRANCH   2  35
ENDBRANCH   1   2
BRANCH   1  37
ATOM     37  O   UNL     1      92.095  93.949  91.298  1.00  0.00    -0.461 OA
BRANCH  37  38
ATOM     38  C   UNL     1      93.216  93.214  90.993  1.00  0.00     0.310 C 
ATOM     39  O   UNL     1      94.143  92.994  91.761  1.00  0.00    -0.252 OA
BRANCH  38  40
ATOM     40  C   UNL     1      93.125  92.722  89.568  1.00  0.00     0.158 C 
BRANCH  40  41
ATOM     41  C   UNL     1      93.128  91.219  89.463  1.00  0.00    -0.033 A 
ATOM     42  C   UNL     1      94.104  90.575  88.701  1.00  0.00     0.054 A 
ATOM     43  C   UNL     1      92.157  90.471  90.128  1.00  0.00     0.008 A 
ATOM     44  C   UNL     1      94.106  89.183  88.604  1.00  0.00     0.160 A 
ATOM     45  C   UNL     1      92.159  89.080  90.031  1.00  0.00     0.050 A 
ATOM     46  C   UNL     1      93.133  88.435  89.269  1.00  0.00     0.157 A 
BRANCH  44  47
ATOM     47  O   UNL     1      95.063  88.566  87.856  1.00  0.00    -0.493 OA
ATOM     48  C   UNL     1      94.812  88.440  86.457  1.00  0.00     0.278 C 
ENDBRANCH  44  47
BRANCH  46  49
ATOM     49  O   UNL     1      93.127  87.076  89.182  1.00  0.00    -0.504 OA
ATOM     50  H   UNL     1      93.860  86.792  88.611  1.00  0.00     0.293 HD
ENDBRANCH  46  49
ENDBRANCH  40  41
ENDBRANCH  38  40
ENDBRANCH  37  38
ENDBRANCH   1  37
TORSDOF 11
ENDMDL
