MODEL 1
REMARK VINA RESULT:    -5.272      0.000      0.000
REMARK INTER + INTRA:         -11.638
REMARK INTER:                  -9.279
REMARK INTRA:                  -2.358
REMARK UNBOUND:                -2.358
REMARK SMILES C=C(C)[C@]12C[C@@H](C)[C@@]34O[C@](Cc5ccccc5)(O[C@@H]1[C@@H]3C=C(COC(=O)Cc1ccc(O)c(OC)c1)C[C@]1(O)C(=O)C(C)=C[C@@H]41)O2
REMARK SMILES IDX 23 1 22 2 21 3 20 4 9 5 8 6 10 7 6 8 18 9 46 10 19 11 5 12
REMARK SMILES IDX 7 13 4 14 45 15 38 16 44 17 40 18 42 20 41 21 43 22 39 23
REMARK SMILES IDX 11 25 12 26 13 27 17 28 14 29 16 30 15 31 2 32 3 33 1 34
REMARK SMILES IDX 37 35 24 37 25 38 26 39 27 40 28 41 36 42 29 43 33 44 30 45
REMARK SMILES IDX 31 46 34 47 35 48 32 49
REMARK H PARENT 39 24 32 50
REMARK Flexibility Score: 90.00
ROOT
ATOM      1  C   UNL     1      59.329  76.239  89.148  1.00  0.00     0.264 C 
ENDROOT
BRANCH   1   2
ATOM      2  C   UNL     1      58.107  76.170  90.033  1.00  0.00    -0.033 C 
ATOM      3  C   UNL     1      57.710  77.274  90.697  1.00  0.00    -0.015 C 
BRANCH   3   4
ATOM      4  C   UNL     1      56.576  77.445  91.695  1.00  0.00     0.078 C 
ATOM      5  O   UNL     1      54.580  78.134  90.407  1.00  0.00    -0.319 OA
ATOM      6  C   UNL     1      55.117  77.064  91.243  1.00  0.00     0.095 C 
ATOM      7  C   UNL     1      54.846  79.472  90.871  1.00  0.00     0.289 C 
ATOM      8  C   UNL     1      54.231  76.925  92.549  1.00  0.00     0.023 C 
ATOM      9  O   UNL     1      56.246  79.702  91.008  1.00  0.00    -0.320 OA
ATOM     10  O   UNL     1      54.287  79.718  92.158  1.00  0.00    -0.313 OA
ATOM     11  C   UNL     1      56.517  78.915  92.178  1.00  0.00     0.170 C 
ATOM     12  C   UNL     1      54.692  77.918  93.660  1.00  0.00     0.049 C 
ATOM     13  C   UNL     1      52.715  77.064  92.336  1.00  0.00     0.011 C 
ATOM     14  C   UNL     1      55.280  79.198  93.066  1.00  0.00     0.122 C 
BRANCH   6  15
ATOM     15  C   UNL     1      55.136  75.816  90.312  1.00  0.00     0.086 C 
ATOM     16  C   UNL     1      56.073  74.666  90.736  1.00  0.00     0.140 CG0
ATOM     17  C   UNL     1      53.845  75.116  89.993  1.00  0.00    -0.010 C 
ATOM     18  C   UNL     1      55.308  73.440  90.284  1.00  0.00     0.190 C 
ATOM     19  G   UNL     1      57.449  74.772  90.080  1.00  0.00     0.000 G0
ATOM     20  C   UNL     1      53.914  73.782  89.942  1.00  0.00    -0.008 C 
ATOM     21  O   UNL     1      55.751  72.302  90.249  1.00  0.00    -0.291 OA
ATOM     22  C   UNL     1      52.882  72.788  89.582  1.00  0.00     0.048 C 
BRANCH  16  23
ATOM     23  O   UNL     1      56.179  74.500  92.140  1.00  0.00    -0.381 OA
ATOM     24  H   UNL     1      55.505  73.862  92.426  1.00  0.00     0.212 HD
ENDBRANCH  16  23
ENDBRANCH   6  15
BRANCH   7  25
ATOM     25  C   UNL     1      54.262  80.448  89.870  1.00  0.00     0.135 C 
BRANCH  25  26
ATOM     26  C   UNL     1      55.063  81.723  89.791  1.00  0.00    -0.040 A 
ATOM     27  C   UNL     1      55.781  82.025  88.633  1.00  0.00     0.004 A 
ATOM     28  C   UNL     1      55.086  82.601  90.874  1.00  0.00     0.004 A 
ATOM     29  C   UNL     1      56.522  83.205  88.559  1.00  0.00     0.000 A 
ATOM     30  C   UNL     1      55.828  83.781  90.800  1.00  0.00     0.000 A 
ATOM     31  C   UNL     1      56.545  84.082  89.642  1.00  0.00     0.000 A 
ENDBRANCH  25  26
ENDBRANCH   7  25
BRANCH  14  32
ATOM     32  C   UNL     1      55.560  80.237  94.103  1.00  0.00    -0.046 C 
ATOM     33  C   UNL     1      56.990  80.375  94.534  1.00  0.00     0.042 C 
ATOM     34  C   UNL     1      54.587  81.003  94.620  1.00  0.00     0.010 C 
ENDBRANCH  14  32
ENDBRANCH   3   4
BRANCH   2  35
ATOM     35  C   UNL     1      57.459  74.798  90.046  1.00  0.00     0.078 CG0
ATOM     36  G   UNL     1      56.102  74.673  90.737  1.00  0.00     0.000 G0
ENDBRANCH   2  35
ENDBRANCH   1   2
BRANCH   1  37
ATOM     37  O   UNL     1      59.245  77.383  88.324  1.00  0.00    -0.461 OA
BRANCH  37  38
ATOM     38  C   UNL     1      59.086  77.152  86.978  1.00  0.00     0.310 C 
ATOM     39  O   UNL     1      59.063  76.048  86.452  1.00  0.00    -0.252 OA
BRANCH  38  40
ATOM     40  C   UNL     1      58.946  78.470  86.253  1.00  0.00     0.158 C 
BRANCH  40  41
ATOM     41  C   UNL     1      57.515  78.929  86.140  1.00  0.00    -0.033 A 
ATOM     42  C   UNL     1      57.156  79.855  85.159  1.00  0.00     0.054 A 
ATOM     43  C   UNL     1      56.551  78.430  87.014  1.00  0.00     0.008 A 
ATOM     44  C   UNL     1      55.831  80.280  85.054  1.00  0.00     0.160 A 
ATOM     45  C   UNL     1      55.226  78.855  86.909  1.00  0.00     0.050 A 
ATOM     46  C   UNL     1      54.866  79.780  85.929  1.00  0.00     0.157 A 
BRANCH  44  47
ATOM     47  O   UNL     1      55.493  81.184  84.093  1.00  0.00    -0.493 OA
ATOM     48  C   UNL     1      56.050  80.989  82.794  1.00  0.00     0.278 C 
ENDBRANCH  44  47
BRANCH  46  49
ATOM     49  O   UNL     1      53.570  80.187  85.836  1.00  0.00    -0.504 OA
ATOM     50  H   UNL     1      52.989  79.412  85.915  1.00  0.00     0.293 HD
ENDBRANCH  46  49
ENDBRANCH  40  41
ENDBRANCH  38  40
ENDBRANCH  37  38
ENDBRANCH   1  37
TORSDOF 11
ENDMDL
MODEL 2
REMARK VINA RESULT:    -5.146     25.186     30.247
REMARK INTER + INTRA:         -11.415
REMARK INTER:                 -10.487
REMARK INTRA:                  -0.928
REMARK UNBOUND:                -2.358
REMARK SMILES C=C(C)[C@]12C[C@@H](C)[C@@]34O[C@](Cc5ccccc5)(O[C@@H]1[C@@H]3C=C(COC(=O)Cc1ccc(O)c(OC)c1)C[C@]1(O)C(=O)C(C)=C[C@@H]41)O2
REMARK SMILES IDX 23 1 22 2 21 3 20 4 9 5 8 6 10 7 6 8 18 9 46 10 19 11 5 12
REMARK SMILES IDX 7 13 4 14 45 15 38 16 44 17 40 18 42 20 41 21 43 22 39 23
REMARK SMILES IDX 11 25 12 26 13 27 17 28 14 29 16 30 15 31 2 32 3 33 1 34
REMARK SMILES IDX 37 35 24 37 25 38 26 39 27 40 28 41 36 42 29 43 33 44 30 45
REMARK SMILES IDX 31 46 34 47 35 48 32 49
REMARK H PARENT 39 24 32 50
REMARK Flexibility Score: 90.00
ROOT
ATOM      1  C   UNL     1      73.840  89.803  70.741  1.00  0.00     0.264 C 
ENDROOT
BRANCH   1   2
ATOM      2  C   UNL     1      74.316  89.519  69.336  1.00  0.00    -0.033 C 
ATOM      3  C   UNL     1      74.475  88.241  68.939  1.00  0.00    -0.015 C 
BRANCH   3   4
ATOM      4  C   UNL     1      75.007  87.699  67.622  1.00  0.00     0.078 C 
ATOM      5  O   UNL     1      73.054  87.347  66.146  1.00  0.00    -0.319 OA
ATOM      6  C   UNL     1      74.283  88.123  66.290  1.00  0.00     0.095 C 
ATOM      7  C   UNL     1      73.166  85.948  66.471  1.00  0.00     0.289 C 
ATOM      8  C   UNL     1      75.259  87.788  65.087  1.00  0.00     0.023 C 
ATOM      9  O   UNL     1      73.629  85.764  67.806  1.00  0.00    -0.320 OA
ATOM     10  O   UNL     1      74.106  85.273  65.640  1.00  0.00    -0.313 OA
ATOM     11  C   UNL     1      75.004  86.150  67.651  1.00  0.00     0.170 C 
ATOM     12  C   UNL     1      76.116  86.520  65.383  1.00  0.00     0.049 C 
ATOM     13  C   UNL     1      74.585  87.641  63.713  1.00  0.00     0.011 C 
ATOM     14  C   UNL     1      75.373  85.530  66.281  1.00  0.00     0.122 C 
BRANCH   6  15
ATOM     15  C   UNL     1      73.803  89.601  66.370  1.00  0.00     0.086 C 
ATOM     16  C   UNL     1      74.795  90.606  66.993  1.00  0.00     0.140 CG0
ATOM     17  C   UNL     1      73.342  90.294  65.119  1.00  0.00    -0.010 C 
ATOM     18  C   UNL     1      74.519  91.868  66.204  1.00  0.00     0.190 C 
ATOM     19  G   UNL     1      74.564  90.790  68.492  1.00  0.00     0.000 G0
ATOM     20  C   UNL     1      73.705  91.577  65.008  1.00  0.00    -0.008 C 
ATOM     21  O   UNL     1      74.946  92.980  66.474  1.00  0.00    -0.291 OA
ATOM     22  C   UNL     1      73.367  92.575  63.973  1.00  0.00     0.048 C 
BRANCH  16  23
ATOM     23  O   UNL     1      76.154  90.320  66.710  1.00  0.00    -0.381 OA
ATOM     24  H   UNL     1      76.480  89.689  67.373  1.00  0.00     0.212 HD
ENDBRANCH  16  23
ENDBRANCH   6  15
BRANCH   7  25
ATOM     25  C   UNL     1      71.800  85.312  66.311  1.00  0.00     0.135 C 
BRANCH  25  26
ATOM     26  C   UNL     1      71.057  85.230  67.621  1.00  0.00    -0.040 A 
ATOM     27  C   UNL     1      70.752  83.985  68.173  1.00  0.00     0.004 A 
ATOM     28  C   UNL     1      70.676  86.398  68.281  1.00  0.00     0.004 A 
ATOM     29  C   UNL     1      70.065  83.909  69.385  1.00  0.00     0.000 A 
ATOM     30  C   UNL     1      69.989  86.321  69.493  1.00  0.00     0.000 A 
ATOM     31  C   UNL     1      69.684  85.077  70.044  1.00  0.00     0.000 A 
ENDBRANCH  25  26
ENDBRANCH   7  25
BRANCH  14  32
ATOM     32  C   UNL     1      76.098  84.232  66.429  1.00  0.00    -0.046 C 
ATOM     33  C   UNL     1      77.558  84.323  66.759  1.00  0.00     0.042 C 
ATOM     34  C   UNL     1      75.478  83.052  66.274  1.00  0.00     0.010 C 
ENDBRANCH  14  32
ENDBRANCH   3   4
BRANCH   2  35
ATOM     35  C   UNL     1      74.554  90.778  68.523  1.00  0.00     0.078 CG0
ATOM     36  G   UNL     1      74.793  90.607  67.024  1.00  0.00     0.000 G0
ENDBRANCH   2  35
ENDBRANCH   1   2
BRANCH   1  37
ATOM     37  O   UNL     1      72.450  89.568  70.820  1.00  0.00    -0.461 OA
BRANCH  37  38
ATOM     38  C   UNL     1      71.664  90.658  71.113  1.00  0.00     0.310 C 
ATOM     39  O   UNL     1      70.473  90.755  70.853  1.00  0.00    -0.252 OA
BRANCH  38  40
ATOM     40  C   UNL     1      72.499  91.712  71.801  1.00  0.00     0.158 C 
BRANCH  40  41
ATOM     41  C   UNL     1      72.116  91.916  73.244  1.00  0.00    -0.033 A 
ATOM     42  C   UNL     1      73.057  91.704  74.253  1.00  0.00     0.054 A 
ATOM     43  C   UNL     1      70.821  92.317  73.572  1.00  0.00     0.008 A 
ATOM     44  C   UNL     1      72.702  91.892  75.589  1.00  0.00     0.160 A 
ATOM     45  C   UNL     1      70.466  92.505  74.908  1.00  0.00     0.050 A 
ATOM     46  C   UNL     1      71.405  92.293  75.916  1.00  0.00     0.157 A 
BRANCH  44  47
ATOM     47  O   UNL     1      73.628  91.682  76.564  1.00  0.00    -0.493 OA
ATOM     48  C   UNL     1      74.612  92.698  76.754  1.00  0.00     0.278 C 
ENDBRANCH  44  47
BRANCH  46  49
ATOM     49  O   UNL     1      71.048  92.482  77.216  1.00  0.00    -0.504 OA
ATOM     50  H   UNL     1      70.663  91.659  77.561  1.00  0.00     0.293 HD
ENDBRANCH  46  49
ENDBRANCH  40  41
ENDBRANCH  38  40
ENDBRANCH  37  38
ENDBRANCH   1  37
TORSDOF 11
ENDMDL
MODEL 3
REMARK VINA RESULT:    -4.939     17.981     22.359
REMARK INTER + INTRA:         -11.051
REMARK INTER:                  -9.585
REMARK INTRA:                  -1.465
REMARK UNBOUND:                -2.358
REMARK SMILES C=C(C)[C@]12C[C@@H](C)[C@@]34O[C@](Cc5ccccc5)(O[C@@H]1[C@@H]3C=C(COC(=O)Cc1ccc(O)c(OC)c1)C[C@]1(O)C(=O)C(C)=C[C@@H]41)O2
REMARK SMILES IDX 23 1 22 2 21 3 20 4 9 5 8 6 10 7 6 8 18 9 46 10 19 11 5 12
REMARK SMILES IDX 7 13 4 14 45 15 38 16 44 17 40 18 42 20 41 21 43 22 39 23
REMARK SMILES IDX 11 25 12 26 13 27 17 28 14 29 16 30 15 31 2 32 3 33 1 34
REMARK SMILES IDX 37 35 24 37 25 38 26 39 27 40 28 41 36 42 29 43 33 44 30 45
REMARK SMILES IDX 31 46 34 47 35 48 32 49
REMARK H PARENT 39 24 32 50
REMARK Flexibility Score: 90.00
ROOT
ATOM      1  C   UNL     1      54.678  93.602  70.806  1.00  0.00     0.264 C 
ENDROOT
BRANCH   1   2
ATOM      2  C   UNL     1      53.758  93.903  71.966  1.00  0.00    -0.033 C 
ATOM      3  C   UNL     1      53.650  93.010  72.970  1.00  0.00    -0.015 C 
BRANCH   3   4
ATOM      4  C   UNL     1      52.750  93.039  74.195  1.00  0.00     0.078 C 
ATOM      5  O   UNL     1      54.027  94.146  76.001  1.00  0.00    -0.319 OA
ATOM      6  C   UNL     1      52.839  94.279  75.160  1.00  0.00     0.095 C 
ATOM      7  C   UNL     1      54.266  92.827  76.526  1.00  0.00     0.289 C 
ATOM      8  C   UNL     1      51.546  94.268  76.076  1.00  0.00     0.023 C 
ATOM      9  O   UNL     1      54.378  91.866  75.480  1.00  0.00    -0.320 OA
ATOM     10  O   UNL     1      53.198  92.372  77.354  1.00  0.00    -0.313 OA
ATOM     11  C   UNL     1      53.006  91.784  75.065  1.00  0.00     0.170 C 
ATOM     12  C   UNL     1      51.073  92.813  76.379  1.00  0.00     0.049 C 
ATOM     13  C   UNL     1      51.662  95.053  77.392  1.00  0.00     0.011 C 
ATOM     14  C   UNL     1      52.246  91.833  76.414  1.00  0.00     0.122 C 
BRANCH   6  15
ATOM     15  C   UNL     1      53.078  95.589  74.355  1.00  0.00     0.086 C 
ATOM     16  C   UNL     1      52.271  95.741  73.049  1.00  0.00     0.140 CG0
ATOM     17  C   UNL     1      52.893  96.916  75.036  1.00  0.00    -0.010 C 
ATOM     18  C   UNL     1      52.014  97.232  72.995  1.00  0.00     0.190 C 
ATOM     19  G   UNL     1      53.044  95.236  71.831  1.00  0.00     0.000 G0
ATOM     20  C   UNL     1      52.323  97.868  74.290  1.00  0.00    -0.008 C 
ATOM     21  O   UNL     1      51.562  97.839  72.036  1.00  0.00    -0.291 OA
ATOM     22  C   UNL     1      52.065  99.290  74.596  1.00  0.00     0.048 C 
BRANCH  16  23
ATOM     23  O   UNL     1      50.972  95.175  73.108  1.00  0.00    -0.381 OA
ATOM     24  H   UNL     1      50.980  94.335  72.620  1.00  0.00     0.212 HD
ENDBRANCH  16  23
ENDBRANCH   6  15
BRANCH   7  25
ATOM     25  C   UNL     1      55.550  92.861  77.330  1.00  0.00     0.135 C 
BRANCH  25  26
ATOM     26  C   UNL     1      56.527  93.876  76.792  1.00  0.00    -0.040 A 
ATOM     27  C   UNL     1      56.702  95.093  77.451  1.00  0.00     0.004 A 
ATOM     28  C   UNL     1      57.258  93.597  75.637  1.00  0.00     0.004 A 
ATOM     29  C   UNL     1      57.606  96.032  76.953  1.00  0.00     0.000 A 
ATOM     30  C   UNL     1      58.162  94.536  75.139  1.00  0.00     0.000 A 
ATOM     31  C   UNL     1      58.335  95.753  75.798  1.00  0.00     0.000 A 
ENDBRANCH  25  26
ENDBRANCH   7  25
BRANCH  14  32
ATOM     32  C   UNL     1      51.843  90.472  76.881  1.00  0.00    -0.046 C 
ATOM     33  C   UNL     1      52.508  89.977  78.131  1.00  0.00     0.042 C 
ATOM     34  C   UNL     1      50.938  89.734  76.221  1.00  0.00     0.010 C 
ENDBRANCH  14  32
ENDBRANCH   3   4
BRANCH   2  35
ATOM     35  C   UNL     1      53.054  95.240  71.836  1.00  0.00     0.078 CG0
ATOM     36  G   UNL     1      52.272  95.739  73.050  1.00  0.00     0.000 G0
ENDBRANCH   2  35
ENDBRANCH   1   2
BRANCH   1  37
ATOM     37  O   UNL     1      55.574  92.575  71.173  1.00  0.00    -0.461 OA
BRANCH  37  38
ATOM     38  C   UNL     1      55.961  91.718  70.170  1.00  0.00     0.310 C 
ATOM     39  O   UNL     1      55.216  91.245  69.324  1.00  0.00    -0.252 OA
BRANCH  38  40
ATOM     40  C   UNL     1      57.444  91.453  70.278  1.00  0.00     0.158 C 
BRANCH  40  41
ATOM     41  C   UNL     1      57.800  90.561  71.439  1.00  0.00    -0.033 A 
ATOM     42  C   UNL     1      58.220  89.251  71.209  1.00  0.00     0.054 A 
ATOM     43  C   UNL     1      57.709  91.045  72.744  1.00  0.00     0.008 A 
ATOM     44  C   UNL     1      58.549  88.425  72.284  1.00  0.00     0.160 A 
ATOM     45  C   UNL     1      58.038  90.219  73.819  1.00  0.00     0.050 A 
ATOM     46  C   UNL     1      58.458  88.909  73.590  1.00  0.00     0.157 A 
BRANCH  44  47
ATOM     47  O   UNL     1      58.958  87.147  72.047  1.00  0.00    -0.493 OA
ATOM     48  C   UNL     1      58.373  86.476  70.933  1.00  0.00     0.278 C 
ENDBRANCH  44  47
BRANCH  46  49
ATOM     49  O   UNL     1      58.777  88.113  74.647  1.00  0.00    -0.504 OA
ATOM     50  H   UNL     1      58.336  87.253  74.541  1.00  0.00     0.293 HD
ENDBRANCH  46  49
ENDBRANCH  40  41
ENDBRANCH  38  40
ENDBRANCH  37  38
ENDBRANCH   1  37
TORSDOF 11
ENDMDL
MODEL 4
REMARK VINA RESULT:    -4.744     17.497     22.127
REMARK INTER + INTRA:         -10.708
REMARK INTER:                  -9.722
REMARK INTRA:                  -0.986
REMARK UNBOUND:                -2.358
REMARK SMILES C=C(C)[C@]12C[C@@H](C)[C@@]34O[C@](Cc5ccccc5)(O[C@@H]1[C@@H]3C=C(COC(=O)Cc1ccc(O)c(OC)c1)C[C@]1(O)C(=O)C(C)=C[C@@H]41)O2
REMARK SMILES IDX 23 1 22 2 21 3 20 4 9 5 8 6 10 7 6 8 18 9 46 10 19 11 5 12
REMARK SMILES IDX 7 13 4 14 45 15 38 16 44 17 40 18 42 20 41 21 43 22 39 23
REMARK SMILES IDX 11 25 12 26 13 27 17 28 14 29 16 30 15 31 2 32 3 33 1 34
REMARK SMILES IDX 37 35 24 37 25 38 26 39 27 40 28 41 36 42 29 43 33 44 30 45
REMARK SMILES IDX 31 46 34 47 35 48 32 49
REMARK H PARENT 39 24 32 50
REMARK Flexibility Score: 90.00
ROOT
ATOM      1  C   UNL     1      54.345  93.562  70.709  1.00  0.00     0.264 C 
ENDROOT
BRANCH   1   2
ATOM      2  C   UNL     1      53.550  93.898  71.949  1.00  0.00    -0.033 C 
ATOM      3  C   UNL     1      53.504  93.011  72.963  1.00  0.00    -0.015 C 
BRANCH   3   4
ATOM      4  C   UNL     1      52.725  93.075  74.266  1.00  0.00     0.078 C 
ATOM      5  O   UNL     1      54.219  94.100  75.950  1.00  0.00    -0.319 OA
ATOM      6  C   UNL     1      52.967  94.300  75.224  1.00  0.00     0.095 C 
ATOM      7  C   UNL     1      54.438  92.766  76.446  1.00  0.00     0.289 C 
ATOM      8  C   UNL     1      51.765  94.347  76.256  1.00  0.00     0.023 C 
ATOM      9  O   UNL     1      54.403  91.810  75.389  1.00  0.00    -0.320 OA
ATOM     10  O   UNL     1      53.430  92.358  77.367  1.00  0.00    -0.313 OA
ATOM     11  C   UNL     1      52.995  91.801  75.104  1.00  0.00     0.170 C 
ATOM     12  C   UNL     1      51.248  92.915  76.597  1.00  0.00     0.049 C 
ATOM     13  C   UNL     1      52.044  95.113  77.559  1.00  0.00     0.011 C 
ATOM     14  C   UNL     1      52.368  91.876  76.518  1.00  0.00     0.122 C 
BRANCH   6  15
ATOM     15  C   UNL     1      53.196  95.604  74.406  1.00  0.00     0.086 C 
ATOM     16  C   UNL     1      52.267  95.817  73.192  1.00  0.00     0.140 CG0
ATOM     17  C   UNL     1      53.162  96.931  75.110  1.00  0.00    -0.010 C 
ATOM     18  C   UNL     1      52.094  97.321  73.175  1.00  0.00     0.190 C 
ATOM     19  G   UNL     1      52.878  95.283  71.898  1.00  0.00     0.000 G0
ATOM     20  C   UNL     1      52.574  97.923  74.433  1.00  0.00    -0.008 C 
ATOM     21  O   UNL     1      51.581  97.964  72.271  1.00  0.00    -0.291 OA
ATOM     22  C   UNL     1      52.433  99.354  74.772  1.00  0.00     0.048 C 
BRANCH  16  23
ATOM     23  O   UNL     1      50.951  95.327  73.384  1.00  0.00    -0.381 OA
ATOM     24  H   UNL     1      50.891  94.442  72.987  1.00  0.00     0.212 HD
ENDBRANCH  16  23
ENDBRANCH   6  15
BRANCH   7  25
ATOM     25  C   UNL     1      55.791  92.727  77.126  1.00  0.00     0.135 C 
BRANCH  25  26
ATOM     26  C   UNL     1      55.667  92.683  78.629  1.00  0.00    -0.040 A 
ATOM     27  C   UNL     1      55.521  91.457  79.280  1.00  0.00     0.004 A 
ATOM     28  C   UNL     1      55.699  93.865  79.367  1.00  0.00     0.004 A 
ATOM     29  C   UNL     1      55.406  91.416  80.670  1.00  0.00     0.000 A 
ATOM     30  C   UNL     1      55.584  93.823  80.757  1.00  0.00     0.000 A 
ATOM     31  C   UNL     1      55.438  92.598  81.408  1.00  0.00     0.000 A 
ENDBRANCH  25  26
ENDBRANCH   7  25
BRANCH  14  32
ATOM     32  C   UNL     1      51.941  90.534  77.016  1.00  0.00    -0.046 C 
ATOM     33  C   UNL     1      52.697  89.991  78.191  1.00  0.00     0.042 C 
ATOM     34  C   UNL     1      50.938  89.851  76.443  1.00  0.00     0.010 C 
ENDBRANCH  14  32
ENDBRANCH   3   4
BRANCH   2  35
ATOM     35  C   UNL     1      52.885  95.260  71.879  1.00  0.00     0.078 CG0
ATOM     36  G   UNL     1      52.268  95.803  73.166  1.00  0.00     0.000 G0
ENDBRANCH   2  35
ENDBRANCH   1   2
BRANCH   1  37
ATOM     37  O   UNL     1      55.101  92.393  70.941  1.00  0.00    -0.461 OA
BRANCH  37  38
ATOM     38  C   UNL     1      56.405  92.415  70.505  1.00  0.00     0.310 C 
ATOM     39  O   UNL     1      57.217  93.295  70.760  1.00  0.00    -0.252 OA
BRANCH  38  40
ATOM     40  C   UNL     1      56.677  91.189  69.665  1.00  0.00     0.158 C 
BRANCH  40  41
ATOM     41  C   UNL     1      57.687  90.261  70.290  1.00  0.00    -0.033 A 
ATOM     42  C   UNL     1      57.682  90.052  71.670  1.00  0.00     0.054 A 
ATOM     43  C   UNL     1      58.625  89.610  69.489  1.00  0.00     0.008 A 
ATOM     44  C   UNL     1      58.616  89.193  72.248  1.00  0.00     0.160 A 
ATOM     45  C   UNL     1      59.559  88.751  70.068  1.00  0.00     0.050 A 
ATOM     46  C   UNL     1      59.556  88.542  71.446  1.00  0.00     0.157 A 
BRANCH  44  47
ATOM     47  O   UNL     1      58.602  88.998  73.596  1.00  0.00    -0.493 OA
ATOM     48  C   UNL     1      59.537  89.748  74.369  1.00  0.00     0.278 C 
ENDBRANCH  44  47
BRANCH  46  49
ATOM     49  O   UNL     1      60.472  87.700  72.000  1.00  0.00    -0.504 OA
ATOM     50  H   UNL     1      60.013  87.074  72.585  1.00  0.00     0.293 HD
ENDBRANCH  46  49
ENDBRANCH  40  41
ENDBRANCH  38  40
ENDBRANCH  37  38
ENDBRANCH   1  37
TORSDOF 11
ENDMDL
MODEL 5
REMARK VINA RESULT:    -4.607      5.892      9.642
REMARK INTER + INTRA:         -10.467
REMARK INTER:                  -8.898
REMARK INTRA:                  -1.568
REMARK UNBOUND:                -2.358
REMARK SMILES C=C(C)[C@]12C[C@@H](C)[C@@]34O[C@](Cc5ccccc5)(O[C@@H]1[C@@H]3C=C(COC(=O)Cc1ccc(O)c(OC)c1)C[C@]1(O)C(=O)C(C)=C[C@@H]41)O2
REMARK SMILES IDX 23 1 22 2 21 3 20 4 9 5 8 6 10 7 6 8 18 9 46 10 19 11 5 12
REMARK SMILES IDX 7 13 4 14 45 15 38 16 44 17 40 18 42 20 41 21 43 22 39 23
REMARK SMILES IDX 11 25 12 26 13 27 17 28 14 29 16 30 15 31 2 32 3 33 1 34
REMARK SMILES IDX 37 35 24 37 25 38 26 39 27 40 28 41 36 42 29 43 33 44 30 45
REMARK SMILES IDX 31 46 34 47 35 48 32 49
REMARK H PARENT 39 24 32 50
REMARK Flexibility Score: 90.00
ROOT
ATOM      1  C   UNL     1      64.150  74.302  87.647  1.00  0.00     0.264 C 
ENDROOT
BRANCH   1   2
ATOM      2  C   UNL     1      63.894  75.741  87.261  1.00  0.00    -0.033 C 
ATOM      3  C   UNL     1      63.574  76.034  85.985  1.00  0.00    -0.015 C 
BRANCH   3   4
ATOM      4  C   UNL     1      63.347  77.388  85.334  1.00  0.00     0.078 C 
ATOM      5  O   UNL     1      60.924  77.864  85.487  1.00  0.00    -0.319 OA
ATOM      6  C   UNL     1      62.236  78.330  85.932  1.00  0.00     0.095 C 
ATOM      7  C   UNL     1      60.845  77.474  84.103  1.00  0.00     0.289 C 
ATOM      8  C   UNL     1      62.491  79.790  85.371  1.00  0.00     0.023 C 
ATOM      9  O   UNL     1      61.785  76.445  83.802  1.00  0.00    -0.320 OA
ATOM     10  O   UNL     1      61.155  78.548  83.219  1.00  0.00    -0.313 OA
ATOM     11  C   UNL     1      63.006  77.201  83.835  1.00  0.00     0.170 C 
ATOM     12  C   UNL     1      63.080  79.752  83.927  1.00  0.00     0.049 C 
ATOM     13  C   UNL     1      61.276  80.731  85.403  1.00  0.00     0.011 C 
ATOM     14  C   UNL     1      62.595  78.528  83.149  1.00  0.00     0.122 C 
BRANCH   6  15
ATOM     15  C   UNL     1      62.185  78.208  87.482  1.00  0.00     0.086 C 
ATOM     16  C   UNL     1      63.547  78.173  88.206  1.00  0.00     0.140 CG0
ATOM     17  C   UNL     1      61.395  79.212  88.274  1.00  0.00    -0.010 C 
ATOM     18  C   UNL     1      63.248  78.897  89.501  1.00  0.00     0.190 C 
ATOM     19  G   UNL     1      64.042  76.745  88.435  1.00  0.00     0.000 G0
ATOM     20  C   UNL     1      61.951  79.598  89.427  1.00  0.00    -0.008 C 
ATOM     21  O   UNL     1      63.989  78.951  90.471  1.00  0.00    -0.291 OA
ATOM     22  C   UNL     1      61.431  80.491  90.483  1.00  0.00     0.048 C 
BRANCH  16  23
ATOM     23  O   UNL     1      64.544  78.974  87.593  1.00  0.00    -0.381 OA
ATOM     24  H   UNL     1      65.303  79.034  88.196  1.00  0.00     0.212 HD
ENDBRANCH  16  23
ENDBRANCH   6  15
BRANCH   7  25
ATOM     25  C   UNL     1      59.440  76.980  83.827  1.00  0.00     0.135 C 
BRANCH  25  26
ATOM     26  C   UNL     1      58.394  77.971  84.274  1.00  0.00    -0.040 A 
ATOM     27  C   UNL     1      57.909  78.925  83.379  1.00  0.00     0.004 A 
ATOM     28  C   UNL     1      57.912  77.934  85.582  1.00  0.00     0.004 A 
ATOM     29  C   UNL     1      56.942  79.842  83.792  1.00  0.00     0.000 A 
ATOM     30  C   UNL     1      56.945  78.851  85.996  1.00  0.00     0.000 A 
ATOM     31  C   UNL     1      56.461  79.804  85.100  1.00  0.00     0.000 A 
ENDBRANCH  25  26
ENDBRANCH   7  25
BRANCH  14  32
ATOM     32  C   UNL     1      62.998  78.565  81.711  1.00  0.00    -0.046 C 
ATOM     33  C   UNL     1      64.338  77.977  81.383  1.00  0.00     0.042 C 
ATOM     34  C   UNL     1      62.206  79.095  80.766  1.00  0.00     0.010 C 
ENDBRANCH  14  32
ENDBRANCH   3   4
BRANCH   2  35
ATOM     35  C   UNL     1      64.033  76.703  88.426  1.00  0.00     0.078 CG0
ATOM     36  G   UNL     1      63.551  78.136  88.209  1.00  0.00     0.000 G0
ENDBRANCH   2  35
ENDBRANCH   1   2
BRANCH   1  37
ATOM     37  O   UNL     1      64.536  73.573  86.501  1.00  0.00    -0.461 OA
BRANCH  37  38
ATOM     38  C   UNL     1      64.642  72.210  86.655  1.00  0.00     0.310 C 
ATOM     39  O   UNL     1      64.850  71.637  87.715  1.00  0.00    -0.252 OA
BRANCH  38  40
ATOM     40  C   UNL     1      64.462  71.536  85.315  1.00  0.00     0.158 C 
BRANCH  40  41
ATOM     41  C   UNL     1      63.015  71.337  84.947  1.00  0.00    -0.033 A 
ATOM     42  C   UNL     1      62.185  72.442  84.757  1.00  0.00     0.054 A 
ATOM     43  C   UNL     1      62.505  70.048  84.795  1.00  0.00     0.008 A 
ATOM     44  C   UNL     1      60.845  72.258  84.415  1.00  0.00     0.160 A 
ATOM     45  C   UNL     1      61.165  69.863  84.454  1.00  0.00     0.050 A 
ATOM     46  C   UNL     1      60.335  70.967  84.264  1.00  0.00     0.157 A 
BRANCH  44  47
ATOM     47  O   UNL     1      60.044  73.344  84.233  1.00  0.00    -0.493 OA
ATOM     48  C   UNL     1      59.478  73.936  85.402  1.00  0.00     0.278 C 
ENDBRANCH  44  47
BRANCH  46  49
ATOM     49  O   UNL     1      59.029  70.775  83.930  1.00  0.00    -0.504 OA
ATOM     50  H   UNL     1      58.757  71.466  83.303  1.00  0.00     0.293 HD
ENDBRANCH  46  49
ENDBRANCH  40  41
ENDBRANCH  38  40
ENDBRANCH  37  38
ENDBRANCH   1  37
TORSDOF 11
ENDMDL
MODEL 6
REMARK VINA RESULT:    -4.590     18.340     23.281
REMARK INTER + INTRA:         -10.436
REMARK INTER:                  -9.507
REMARK INTRA:                  -0.929
REMARK UNBOUND:                -2.358
REMARK SMILES C=C(C)[C@]12C[C@@H](C)[C@@]34O[C@](Cc5ccccc5)(O[C@@H]1[C@@H]3C=C(COC(=O)Cc1ccc(O)c(OC)c1)C[C@]1(O)C(=O)C(C)=C[C@@H]41)O2
REMARK SMILES IDX 23 1 22 2 21 3 20 4 9 5 8 6 10 7 6 8 18 9 46 10 19 11 5 12
REMARK SMILES IDX 7 13 4 14 45 15 38 16 44 17 40 18 42 20 41 21 43 22 39 23
REMARK SMILES IDX 11 25 12 26 13 27 17 28 14 29 16 30 15 31 2 32 3 33 1 34
REMARK SMILES IDX 37 35 24 37 25 38 26 39 27 40 28 41 36 42 29 43 33 44 30 45
REMARK SMILES IDX 31 46 34 47 35 48 32 49
REMARK H PARENT 39 24 32 50
REMARK Flexibility Score: 90.00
ROOT
ATOM      1  C   UNL     1      54.472  93.921  70.701  1.00  0.00     0.264 C 
ENDROOT
BRANCH   1   2
ATOM      2  C   UNL     1      53.624  94.206  71.918  1.00  0.00    -0.033 C 
ATOM      3  C   UNL     1      53.538  93.280  72.894  1.00  0.00    -0.015 C 
BRANCH   3   4
ATOM      4  C   UNL     1      52.704  93.291  74.164  1.00  0.00     0.078 C 
ATOM      5  O   UNL     1      54.112  94.278  75.943  1.00  0.00    -0.319 OA
ATOM      6  C   UNL     1      52.889  94.487  75.171  1.00  0.00     0.095 C 
ATOM      7  C   UNL     1      54.327  92.930  76.403  1.00  0.00     0.289 C 
ATOM      8  C   UNL     1      51.644  94.486  76.152  1.00  0.00     0.023 C 
ATOM      9  O   UNL     1      54.349  92.010  75.315  1.00  0.00    -0.320 OA
ATOM     10  O   UNL     1      53.287  92.481  77.267  1.00  0.00    -0.313 OA
ATOM     11  C   UNL     1      52.955  91.993  74.970  1.00  0.00     0.170 C 
ATOM     12  C   UNL     1      51.133  93.037  76.423  1.00  0.00     0.049 C 
ATOM     13  C   UNL     1      51.858  95.211  77.490  1.00  0.00     0.011 C 
ATOM     14  C   UNL     1      52.268  92.015  76.358  1.00  0.00     0.122 C 
BRANCH   6  15
ATOM     15  C   UNL     1      53.136  95.820  74.406  1.00  0.00     0.086 C 
ATOM     16  C   UNL     1      52.256  96.063  73.162  1.00  0.00     0.140 CG0
ATOM     17  C   UNL     1      53.055  97.123  75.151  1.00  0.00    -0.010 C 
ATOM     18  C   UNL     1      52.064  97.564  73.187  1.00  0.00     0.190 C 
ATOM     19  G   UNL     1      52.927  95.579  71.878  1.00  0.00     0.000 G0
ATOM     20  C   UNL     1      52.483  98.130  74.483  1.00  0.00    -0.008 C 
ATOM     21  O   UNL     1      51.581  98.231  72.284  1.00  0.00    -0.291 OA
ATOM     22  C   UNL     1      52.310  99.547  74.863  1.00  0.00     0.048 C 
BRANCH  16  23
ATOM     23  O   UNL     1      50.938  95.551  73.283  1.00  0.00    -0.381 OA
ATOM     24  H   UNL     1      50.988  94.664  73.676  1.00  0.00     0.212 HD
ENDBRANCH  16  23
ENDBRANCH   6  15
BRANCH   7  25
ATOM     25  C   UNL     1      55.651  92.885  77.139  1.00  0.00     0.135 C 
BRANCH  25  26
ATOM     26  C   UNL     1      55.666  93.807  78.332  1.00  0.00    -0.040 A 
ATOM     27  C   UNL     1      56.561  94.877  78.375  1.00  0.00     0.004 A 
ATOM     28  C   UNL     1      54.785  93.593  79.391  1.00  0.00     0.004 A 
ATOM     29  C   UNL     1      56.576  95.730  79.479  1.00  0.00     0.000 A 
ATOM     30  C   UNL     1      54.799  94.446  80.495  1.00  0.00     0.000 A 
ATOM     31  C   UNL     1      55.695  95.515  80.538  1.00  0.00     0.000 A 
ENDBRANCH  25  26
ENDBRANCH   7  25
BRANCH  14  32
ATOM     32  C   UNL     1      51.838  90.651  76.793  1.00  0.00    -0.046 C 
ATOM     33  C   UNL     1      52.468  90.127  78.049  1.00  0.00     0.042 C 
ATOM     34  C   UNL     1      50.939  89.936  76.099  1.00  0.00     0.010 C 
ENDBRANCH  14  32
ENDBRANCH   3   4
BRANCH   2  35
ATOM     35  C   UNL     1      52.958  95.569  71.873  1.00  0.00     0.078 CG0
ATOM     36  G   UNL     1      52.272  96.054  73.149  1.00  0.00     0.000 G0
ENDBRANCH   2  35
ENDBRANCH   1   2
BRANCH   1  37
ATOM     37  O   UNL     1      54.878  92.569  70.721  1.00  0.00    -0.461 OA
BRANCH  37  38
ATOM     38  C   UNL     1      55.990  92.257  69.974  1.00  0.00     0.310 C 
ATOM     39  O   UNL     1      56.920  93.019  69.746  1.00  0.00    -0.252 OA
BRANCH  38  40
ATOM     40  C   UNL     1      55.884  90.833  69.482  1.00  0.00     0.158 C 
BRANCH  40  41
ATOM     41  C   UNL     1      55.716  90.738  67.987  1.00  0.00    -0.033 A 
ATOM     42  C   UNL     1      54.864  91.622  67.324  1.00  0.00     0.054 A 
ATOM     43  C   UNL     1      56.413  89.769  67.267  1.00  0.00     0.008 A 
ATOM     44  C   UNL     1      54.709  91.535  65.940  1.00  0.00     0.160 A 
ATOM     45  C   UNL     1      56.258  89.681  65.883  1.00  0.00     0.050 A 
ATOM     46  C   UNL     1      55.406  90.563  65.220  1.00  0.00     0.157 A 
BRANCH  44  47
ATOM     47  O   UNL     1      53.874  92.402  65.304  1.00  0.00    -0.493 OA
ATOM     48  C   UNL     1      52.518  92.440  65.747  1.00  0.00     0.278 C 
ENDBRANCH  44  47
BRANCH  46  49
ATOM     49  O   UNL     1      55.263  90.469  63.869  1.00  0.00    -0.504 OA
ATOM     50  H   UNL     1      55.985  89.925  63.511  1.00  0.00     0.293 HD
ENDBRANCH  46  49
ENDBRANCH  40  41
ENDBRANCH  38  40
ENDBRANCH  37  38
ENDBRANCH   1  37
TORSDOF 11
ENDMDL
MODEL 7
REMARK VINA RESULT:    -4.474     44.764     47.825
REMARK INTER + INTRA:         -10.232
REMARK INTER:                  -9.946
REMARK INTRA:                  -0.286
REMARK UNBOUND:                -2.358
REMARK SMILES C=C(C)[C@]12C[C@@H](C)[C@@]34O[C@](Cc5ccccc5)(O[C@@H]1[C@@H]3C=C(COC(=O)Cc1ccc(O)c(OC)c1)C[C@]1(O)C(=O)C(C)=C[C@@H]41)O2
REMARK SMILES IDX 23 1 22 2 21 3 20 4 9 5 8 6 10 7 6 8 18 9 46 10 19 11 5 12
REMARK SMILES IDX 7 13 4 14 45 15 38 16 44 17 40 18 42 20 41 21 43 22 39 23
REMARK SMILES IDX 11 25 12 26 13 27 17 28 14 29 16 30 15 31 2 32 3 33 1 34
REMARK SMILES IDX 37 35 24 37 25 38 26 39 27 40 28 41 36 42 29 43 33 44 30 45
REMARK SMILES IDX 31 46 34 47 35 48 32 49
REMARK H PARENT 39 24 32 50
REMARK Flexibility Score: 90.00
ROOT
ATOM      1  C   UNL     1      98.872  99.497  75.471  1.00  0.00     0.264 C 
ENDROOT
BRANCH   1   2
ATOM      2  C   UNL     1      99.252  99.070  76.870  1.00  0.00    -0.033 C 
ATOM      3  C   UNL     1      98.324  99.115  77.847  1.00  0.00    -0.015 C 
BRANCH   3   4
ATOM      4  C   UNL     1      98.471  98.817  79.331  1.00  0.00     0.078 C 
ATOM      5  O   UNL     1      97.932  96.423  79.643  1.00  0.00    -0.319 OA
ATOM      6  C   UNL     1      99.010  97.402  79.761  1.00  0.00     0.095 C 
ATOM      7  C   UNL     1      96.646  96.862  80.120  1.00  0.00     0.289 C 
ATOM      8  C   UNL     1      99.462  97.502  81.276  1.00  0.00     0.023 C 
ATOM      9  O   UNL     1      96.221  98.045  79.448  1.00  0.00    -0.320 OA
ATOM     10  O   UNL     1      96.668  97.193  81.506  1.00  0.00    -0.313 OA
ATOM     11  C   UNL     1      97.108  99.005  80.042  1.00  0.00     0.170 C 
ATOM     12  C   UNL     1      98.571  98.503  82.074  1.00  0.00     0.049 C 
ATOM     13  C   UNL     1      99.534  96.166  82.033  1.00  0.00     0.011 C 
ATOM     14  C   UNL     1      97.145  98.554  81.523  1.00  0.00     0.122 C 
BRANCH   6  15
ATOM     15  C   UNL     1     100.100  96.902  78.769  1.00  0.00     0.086 C 
ATOM     16  C   UNL     1     101.124  97.954  78.297  1.00  0.00     0.140 CG0
ATOM     17  C   UNL     1     100.956  95.726  79.148  1.00  0.00    -0.010 C 
ATOM     18  C   UNL     1     102.389  97.135  78.149  1.00  0.00     0.190 C 
ATOM     19  G   UNL     1     100.703  98.623  76.989  1.00  0.00     0.000 G0
ATOM     20  C   UNL     1     102.241  95.814  78.789  1.00  0.00    -0.008 C 
ATOM     21  O   UNL     1     103.422  97.516  77.619  1.00  0.00    -0.291 OA
ATOM     22  C   UNL     1     103.335  94.831  78.920  1.00  0.00     0.048 C 
BRANCH  16  23
ATOM     23  O   UNL     1     101.457  98.915  79.285  1.00  0.00    -0.381 OA
ATOM     24  H   UNL     1     102.126  99.516  78.917  1.00  0.00     0.212 HD
ENDBRANCH  16  23
ENDBRANCH   6  15
BRANCH   7  25
ATOM     25  C   UNL     1      95.645  95.749  79.881  1.00  0.00     0.135 C 
BRANCH  25  26
ATOM     26  C   UNL     1      94.976  95.870  78.535  1.00  0.00    -0.040 A 
ATOM     27  C   UNL     1      94.980  94.788  77.654  1.00  0.00     0.004 A 
ATOM     28  C   UNL     1      94.352  97.063  78.170  1.00  0.00     0.004 A 
ATOM     29  C   UNL     1      94.362  94.899  76.409  1.00  0.00     0.000 A 
ATOM     30  C   UNL     1      93.733  97.174  76.925  1.00  0.00     0.000 A 
ATOM     31  C   UNL     1      93.738  96.092  76.044  1.00  0.00     0.000 A 
ENDBRANCH  25  26
ENDBRANCH   7  25
BRANCH  14  32
ATOM     32  C   UNL     1      96.228  99.364  82.380  1.00  0.00    -0.046 C 
ATOM     33  C   UNL     1      96.743  99.733  83.739  1.00  0.00     0.042 C 
ATOM     34  C   UNL     1      95.011  99.741  81.958  1.00  0.00     0.010 C 
ENDBRANCH  14  32
ENDBRANCH   3   4
BRANCH   2  35
ATOM     35  C   UNL     1     100.697  98.622  76.983  1.00  0.00     0.078 CG0
ATOM     36  G   UNL     1     101.124  97.968  78.296  1.00  0.00     0.000 G0
ENDBRANCH   2  35
ENDBRANCH   1   2
BRANCH   1  37
ATOM     37  O   UNL     1      97.831  98.670  74.997  1.00  0.00    -0.461 OA
BRANCH  37  38
ATOM     38  C   UNL     1      96.704  99.312  74.539  1.00  0.00     0.310 C 
ATOM     39  O   UNL     1      96.497 100.515  74.626  1.00  0.00    -0.252 OA
BRANCH  38  40
ATOM     40  C   UNL     1      95.768  98.305  73.914  1.00  0.00     0.158 C 
BRANCH  40  41
ATOM     41  C   UNL     1      95.178  98.780  72.611  1.00  0.00    -0.033 A 
ATOM     42  C   UNL     1      94.233  99.807  72.607  1.00  0.00     0.054 A 
ATOM     43  C   UNL     1      95.576  98.193  71.410  1.00  0.00     0.008 A 
ATOM     44  C   UNL     1      93.687 100.246  71.401  1.00  0.00     0.160 A 
ATOM     45  C   UNL     1      95.030  98.632  70.204  1.00  0.00     0.050 A 
ATOM     46  C   UNL     1      94.086  99.658  70.199  1.00  0.00     0.157 A 
BRANCH  44  47
ATOM     47  O   UNL     1      92.766 101.249  71.409  1.00  0.00    -0.493 OA
ATOM     48  C   UNL     1      91.413 100.885  71.680  1.00  0.00     0.278 C 
ENDBRANCH  44  47
BRANCH  46  49
ATOM     49  O   UNL     1      93.560 100.080  69.015  1.00  0.00    -0.504 OA
ATOM     50  H   UNL     1      93.600  99.351  68.374  1.00  0.00     0.293 HD
ENDBRANCH  46  49
ENDBRANCH  40  41
ENDBRANCH  38  40
ENDBRANCH  37  38
ENDBRANCH   1  37
TORSDOF 11
ENDMDL
MODEL 8
REMARK VINA RESULT:    -4.438     38.353     41.110
REMARK INTER + INTRA:         -10.170
REMARK INTER:                  -7.997
REMARK INTRA:                  -2.172
REMARK UNBOUND:                -2.358
REMARK SMILES C=C(C)[C@]12C[C@@H](C)[C@@]34O[C@](Cc5ccccc5)(O[C@@H]1[C@@H]3C=C(COC(=O)Cc1ccc(O)c(OC)c1)C[C@]1(O)C(=O)C(C)=C[C@@H]41)O2
REMARK SMILES IDX 23 1 22 2 21 3 20 4 9 5 8 6 10 7 6 8 18 9 46 10 19 11 5 12
REMARK SMILES IDX 7 13 4 14 45 15 38 16 44 17 40 18 42 20 41 21 43 22 39 23
REMARK SMILES IDX 11 25 12 26 13 27 17 28 14 29 16 30 15 31 2 32 3 33 1 34
REMARK SMILES IDX 37 35 24 37 25 38 26 39 27 40 28 41 36 42 29 43 33 44 30 45
REMARK SMILES IDX 31 46 34 47 35 48 32 49
REMARK H PARENT 39 24 32 50
REMARK Flexibility Score: 90.00
ROOT
ATOM      1  C   UNL     1      88.713  96.386  92.249  1.00  0.00     0.264 C 
ENDROOT
BRANCH   1   2
ATOM      2  C   UNL     1      89.667  95.341  92.777  1.00  0.00    -0.033 C 
ATOM      3  C   UNL     1      90.337  94.559  91.906  1.00  0.00    -0.015 C 
BRANCH   3   4
ATOM      4  C   UNL     1      91.283  93.401  92.179  1.00  0.00     0.078 C 
ATOM      5  O   UNL     1      93.569  94.342  92.270  1.00  0.00    -0.319 OA
ATOM      6  C   UNL     1      92.552  93.665  93.072  1.00  0.00     0.095 C 
ATOM      7  C   UNL     1      93.741  93.832  90.934  1.00  0.00     0.289 C 
ATOM      8  C   UNL     1      93.109  92.257  93.542  1.00  0.00     0.023 C 
ATOM      9  O   UNL     1      92.520  93.880  90.200  1.00  0.00    -0.320 OA
ATOM     10  O   UNL     1      94.141  92.464  90.925  1.00  0.00    -0.313 OA
ATOM     11  C   UNL     1      91.799  92.816  90.841  1.00  0.00     0.170 C 
ATOM     12  C   UNL     1      92.875  91.159  92.459  1.00  0.00     0.049 C 
ATOM     13  C   UNL     1      94.584  92.242  93.975  1.00  0.00     0.011 C 
ATOM     14  C   UNL     1      92.897  91.744  91.046  1.00  0.00     0.122 C 
BRANCH   6  15
ATOM     15  C   UNL     1      92.225  94.670  94.213  1.00  0.00     0.086 C 
ATOM     16  C   UNL     1      90.874  94.468  94.930  1.00  0.00     0.140 CG0
ATOM     17  C   UNL     1      93.199  94.842  95.345  1.00  0.00    -0.010 C 
ATOM     18  C   UNL     1      91.193  94.884  96.351  1.00  0.00     0.190 C 
ATOM     19  G   UNL     1      89.760  95.311  94.310  1.00  0.00     0.000 G0
ATOM     20  C   UNL     1      92.650  94.992  96.555  1.00  0.00    -0.008 C 
ATOM     21  O   UNL     1      90.372  95.060  97.238  1.00  0.00    -0.291 OA
ATOM     22  C   UNL     1      93.285  95.262  97.861  1.00  0.00     0.048 C 
BRANCH  16  23
ATOM     23  O   UNL     1      90.487  93.109  95.054  1.00  0.00    -0.381 OA
ATOM     24  H   UNL     1      90.902  92.743  95.852  1.00  0.00     0.212 HD
ENDBRANCH  16  23
ENDBRANCH   6  15
BRANCH   7  25
ATOM     25  C   UNL     1      94.791  94.671  90.236  1.00  0.00     0.135 C 
BRANCH  25  26
ATOM     26  C   UNL     1      95.535  95.563  91.199  1.00  0.00    -0.040 A 
ATOM     27  C   UNL     1      96.601  95.052  91.941  1.00  0.00     0.004 A 
ATOM     28  C   UNL     1      95.157  96.897  91.348  1.00  0.00     0.004 A 
ATOM     29  C   UNL     1      97.288  95.877  92.832  1.00  0.00     0.000 A 
ATOM     30  C   UNL     1      95.845  97.721  92.240  1.00  0.00     0.000 A 
ATOM     31  C   UNL     1      96.911  97.210  92.981  1.00  0.00     0.000 A 
ENDBRANCH  25  26
ENDBRANCH   7  25
BRANCH  14  32
ATOM     32  C   UNL     1      92.858  90.690  89.988  1.00  0.00    -0.046 C 
ATOM     33  C   UNL     1      92.046  89.469  90.300  1.00  0.00     0.042 C 
ATOM     34  C   UNL     1      93.512  90.828  88.825  1.00  0.00     0.010 C 
ENDBRANCH  14  32
ENDBRANCH   3   4
BRANCH   2  35
ATOM     35  C   UNL     1      89.749  95.321  94.292  1.00  0.00     0.078 CG0
ATOM     36  G   UNL     1      90.835  94.450  94.922  1.00  0.00     0.000 G0
ENDBRANCH   2  35
ENDBRANCH   1   2
BRANCH   1  37
ATOM     37  O   UNL     1      89.324  97.082  91.184  1.00  0.00    -0.461 OA
BRANCH  37  38
ATOM     38  C   UNL     1      89.945  98.266  91.509  1.00  0.00     0.310 C 
ATOM     39  O   UNL     1      89.383  99.348  91.614  1.00  0.00    -0.252 OA
BRANCH  38  40
ATOM     40  C   UNL     1      91.421  98.022  91.715  1.00  0.00     0.158 C 
BRANCH  40  41
ATOM     41  C   UNL     1      92.284  99.116  91.139  1.00  0.00    -0.033 A 
ATOM     42  C   UNL     1      92.407  99.250  89.755  1.00  0.00     0.054 A 
ATOM     43  C   UNL     1      92.957  99.993  91.988  1.00  0.00     0.008 A 
ATOM     44  C   UNL     1      93.206 100.263  89.222  1.00  0.00     0.160 A 
ATOM     45  C   UNL     1      93.756 101.005  91.454  1.00  0.00     0.050 A 
ATOM     46  C   UNL     1      93.880 101.140  90.072  1.00  0.00     0.157 A 
BRANCH  44  47
ATOM     47  O   UNL     1      93.319 100.384  87.870  1.00  0.00    -0.493 OA
ATOM     48  C   UNL     1      92.468 101.333  87.230  1.00  0.00     0.278 C 
ENDBRANCH  44  47
BRANCH  46  49
ATOM     49  O   UNL     1      94.661 102.133  89.563  1.00  0.00    -0.504 OA
ATOM     50  H   UNL     1      94.417 102.283  88.634  1.00  0.00     0.293 HD
ENDBRANCH  46  49
ENDBRANCH  40  41
ENDBRANCH  38  40
ENDBRANCH  37  38
ENDBRANCH   1  37
TORSDOF 11
ENDMDL
MODEL 9
REMARK VINA RESULT:    -4.335      4.036      8.313
REMARK INTER + INTRA:          -9.987
REMARK INTER:                  -8.800
REMARK INTRA:                  -1.187
REMARK UNBOUND:                -2.358
REMARK SMILES C=C(C)[C@]12C[C@@H](C)[C@@]34O[C@](Cc5ccccc5)(O[C@@H]1[C@@H]3C=C(COC(=O)Cc1ccc(O)c(OC)c1)C[C@]1(O)C(=O)C(C)=C[C@@H]41)O2
REMARK SMILES IDX 23 1 22 2 21 3 20 4 9 5 8 6 10 7 6 8 18 9 46 10 19 11 5 12
REMARK SMILES IDX 7 13 4 14 45 15 38 16 44 17 40 18 42 20 41 21 43 22 39 23
REMARK SMILES IDX 11 25 12 26 13 27 17 28 14 29 16 30 15 31 2 32 3 33 1 34
REMARK SMILES IDX 37 35 24 37 25 38 26 39 27 40 28 41 36 42 29 43 33 44 30 45
REMARK SMILES IDX 31 46 34 47 35 48 32 49
REMARK H PARENT 39 24 32 50
REMARK Flexibility Score: 90.00
ROOT
ATOM      1  C   UNL     1      57.790  85.104  89.577  1.00  0.00     0.264 C 
ENDROOT
BRANCH   1   2
ATOM      2  C   UNL     1      57.084  83.811  89.243  1.00  0.00    -0.033 C 
ATOM      3  C   UNL     1      57.050  83.389  87.963  1.00  0.00    -0.015 C 
BRANCH   3   4
ATOM      4  C   UNL     1      56.349  82.182  87.363  1.00  0.00     0.078 C 
ATOM      5  O   UNL     1      57.982  80.324  87.369  1.00  0.00    -0.319 OA
ATOM      6  C   UNL     1      56.702  80.755  87.926  1.00  0.00     0.095 C 
ATOM      7  C   UNL     1      58.166  80.592  85.966  1.00  0.00     0.289 C 
ATOM      8  C   UNL     1      55.564  79.758  87.454  1.00  0.00     0.023 C 
ATOM      9  O   UNL     1      58.026  81.982  85.683  1.00  0.00    -0.320 OA
ATOM     10  O   UNL     1      57.193  79.935  85.158  1.00  0.00    -0.313 OA
ATOM     11  C   UNL     1      56.606  82.129  85.836  1.00  0.00     0.170 C 
ATOM     12  C   UNL     1      55.001  80.155  86.055  1.00  0.00     0.049 C 
ATOM     13  C   UNL     1      55.952  78.270  87.446  1.00  0.00     0.011 C 
ATOM     14  C   UNL     1      56.064  80.831  85.188  1.00  0.00     0.122 C 
BRANCH   6  15
ATOM     15  C   UNL     1      56.946  80.812  89.462  1.00  0.00     0.086 C 
ATOM     16  C   UNL     1      55.973  81.693  90.272  1.00  0.00     0.140 CG0
ATOM     17  C   UNL     1      56.997  79.532  90.248  1.00  0.00    -0.010 C 
ATOM     18  C   UNL     1      55.859  80.936  91.579  1.00  0.00     0.190 C 
ATOM     19  G   UNL     1      56.502  83.114  90.463  1.00  0.00     0.000 G0
ATOM     20  C   UNL     1      56.419  79.577  91.453  1.00  0.00    -0.008 C 
ATOM     21  O   UNL     1      55.332  81.357  92.597  1.00  0.00    -0.291 OA
ATOM     22  C   UNL     1      56.351  78.552  92.515  1.00  0.00     0.048 C 
BRANCH  16  23
ATOM     23  O   UNL     1      54.648  81.698  89.768  1.00  0.00    -0.381 OA
ATOM     24  H   UNL     1      54.554  80.960  89.143  1.00  0.00     0.212 HD
ENDBRANCH  16  23
ENDBRANCH   6  15
BRANCH   7  25
ATOM     25  C   UNL     1      59.552  80.125  85.570  1.00  0.00     0.135 C 
BRANCH  25  26
ATOM     26  C   UNL     1      59.576  78.658  85.220  1.00  0.00    -0.040 A 
ATOM     27  C   UNL     1      59.694  78.261  83.888  1.00  0.00     0.004 A 
ATOM     28  C   UNL     1      59.482  77.699  86.228  1.00  0.00     0.004 A 
ATOM     29  C   UNL     1      59.717  76.904  83.564  1.00  0.00     0.000 A 
ATOM     30  C   UNL     1      59.505  76.342  85.904  1.00  0.00     0.000 A 
ATOM     31  C   UNL     1      59.622  75.945  84.572  1.00  0.00     0.000 A 
ENDBRANCH  25  26
ENDBRANCH   7  25
BRANCH  14  32
ATOM     32  C   UNL     1      55.603  81.055  83.785  1.00  0.00    -0.046 C 
ATOM     33  C   UNL     1      54.179  81.494  83.617  1.00  0.00     0.042 C 
ATOM     34  C   UNL     1      56.416  80.874  82.733  1.00  0.00     0.010 C 
ENDBRANCH  14  32
ENDBRANCH   3   4
BRANCH   2  35
ATOM     35  C   UNL     1      56.486  83.128  90.459  1.00  0.00     0.078 CG0
ATOM     36  G   UNL     1      55.973  81.701  90.277  1.00  0.00     0.000 G0
ENDBRANCH   2  35
ENDBRANCH   1   2
BRANCH   1  37
ATOM     37  O   UNL     1      58.511  85.548  88.448  1.00  0.00    -0.461 OA
BRANCH  37  38
ATOM     38  C   UNL     1      59.372  86.601  88.651  1.00  0.00     0.310 C 
ATOM     39  O   UNL     1      60.577  86.573  88.441  1.00  0.00    -0.252 OA
BRANCH  38  40
ATOM     40  C   UNL     1      58.601  87.790  89.172  1.00  0.00     0.158 C 
BRANCH  40  41
ATOM     41  C   UNL     1      57.600  88.323  88.180  1.00  0.00    -0.033 A 
ATOM     42  C   UNL     1      58.005  88.640  86.882  1.00  0.00     0.054 A 
ATOM     43  C   UNL     1      56.269  88.498  88.557  1.00  0.00     0.008 A 
ATOM     44  C   UNL     1      57.078  89.133  85.963  1.00  0.00     0.160 A 
ATOM     45  C   UNL     1      55.342  88.990  87.638  1.00  0.00     0.050 A 
ATOM     46  C   UNL     1      55.746  89.308  86.342  1.00  0.00     0.157 A 
BRANCH  44  47
ATOM     47  O   UNL     1      57.485  89.440  84.701  1.00  0.00    -0.493 OA
ATOM     48  C   UNL     1      58.261  90.627  84.540  1.00  0.00     0.278 C 
ENDBRANCH  44  47
BRANCH  46  49
ATOM     49  O   UNL     1      54.832  89.788  85.453  1.00  0.00    -0.504 OA
ATOM     50  H   UNL     1      54.855  90.759  85.469  1.00  0.00     0.293 HD
ENDBRANCH  46  49
ENDBRANCH  40  41
ENDBRANCH  38  40
ENDBRANCH  37  38
ENDBRANCH   1  37
TORSDOF 11
ENDMDL
MODEL 10
REMARK VINA RESULT:    -4.191      5.147      9.787
REMARK INTER + INTRA:          -9.735
REMARK INTER:                  -8.143
REMARK INTRA:                  -1.592
REMARK UNBOUND:                -2.358
REMARK SMILES C=C(C)[C@]12C[C@@H](C)[C@@]34O[C@](Cc5ccccc5)(O[C@@H]1[C@@H]3C=C(COC(=O)Cc1ccc(O)c(OC)c1)C[C@]1(O)C(=O)C(C)=C[C@@H]41)O2
REMARK SMILES IDX 23 1 22 2 21 3 20 4 9 5 8 6 10 7 6 8 18 9 46 10 19 11 5 12
REMARK SMILES IDX 7 13 4 14 45 15 38 16 44 17 40 18 42 20 41 21 43 22 39 23
REMARK SMILES IDX 11 25 12 26 13 27 17 28 14 29 16 30 15 31 2 32 3 33 1 34
REMARK SMILES IDX 37 35 24 37 25 38 26 39 27 40 28 41 36 42 29 43 33 44 30 45
REMARK SMILES IDX 31 46 34 47 35 48 32 49
REMARK H PARENT 39 24 32 50
REMARK Flexibility Score: 90.00
ROOT
ATOM      1  C   UNL     1      61.225  80.208  89.593  1.00  0.00     0.264 C 
ENDROOT
BRANCH   1   2
ATOM      2  C   UNL     1      60.653  80.009  88.209  1.00  0.00    -0.033 C 
ATOM      3  C   UNL     1      61.340  79.274  87.311  1.00  0.00    -0.015 C 
BRANCH   3   4
ATOM      4  C   UNL     1      61.024  78.993  85.851  1.00  0.00     0.078 C 
ATOM      5  O   UNL     1      59.707  76.899  85.790  1.00  0.00    -0.319 OA
ATOM      6  C   UNL     1      59.640  78.330  85.499  1.00  0.00     0.095 C 
ATOM      7  C   UNL     1      60.925  76.245  85.386  1.00  0.00     0.289 C 
ATOM      8  C   UNL     1      59.390  78.537  83.948  1.00  0.00     0.023 C 
ATOM      9  O   UNL     1      62.064  76.854  85.988  1.00  0.00    -0.320 OA
ATOM     10  O   UNL     1      61.142  76.327  83.980  1.00  0.00    -0.313 OA
ATOM     11  C   UNL     1      62.117  78.080  85.243  1.00  0.00     0.170 C 
ATOM     12  C   UNL     1      60.727  78.516  83.146  1.00  0.00     0.049 C 
ATOM     13  C   UNL     1      58.391  77.562  83.305  1.00  0.00     0.011 C 
ATOM     14  C   UNL     1      61.770  77.614  83.807  1.00  0.00     0.122 C 
BRANCH   6  15
ATOM     15  C   UNL     1      58.518  78.864  86.435  1.00  0.00     0.086 C 
ATOM     16  C   UNL     1      58.543  80.378  86.731  1.00  0.00     0.140 CG0
ATOM     17  C   UNL     1      57.080  78.600  86.087  1.00  0.00    -0.010 C 
ATOM     18  C   UNL     1      57.070  80.713  86.842  1.00  0.00     0.190 C 
ATOM     19  G   UNL     1      59.315  80.704  88.009  1.00  0.00     0.000 G0
ATOM     20  C   UNL     1      56.237  79.609  86.329  1.00  0.00    -0.008 C 
ATOM     21  O   UNL     1      56.613  81.770  87.250  1.00  0.00    -0.291 OA
ATOM     22  C   UNL     1      54.768  79.676  86.191  1.00  0.00     0.048 C 
BRANCH  16  23
ATOM     23  O   UNL     1      58.989  81.169  85.641  1.00  0.00    -0.381 OA
ATOM     24  H   UNL     1      59.732  80.712  85.215  1.00  0.00     0.212 HD
ENDBRANCH  16  23
ENDBRANCH   6  15
BRANCH   7  25
ATOM     25  C   UNL     1      60.843  74.790  85.801  1.00  0.00     0.135 C 
BRANCH  25  26
ATOM     26  C   UNL     1      60.567  73.882  84.628  1.00  0.00    -0.040 A 
ATOM     27  C   UNL     1      61.557  73.011  84.173  1.00  0.00     0.004 A 
ATOM     28  C   UNL     1      59.323  73.912  83.999  1.00  0.00     0.004 A 
ATOM     29  C   UNL     1      61.303  72.171  83.088  1.00  0.00     0.000 A 
ATOM     30  C   UNL     1      59.068  73.072  82.915  1.00  0.00     0.000 A 
ATOM     31  C   UNL     1      60.059  72.202  82.460  1.00  0.00     0.000 A 
ENDBRANCH  25  26
ENDBRANCH   7  25
BRANCH  14  32
ATOM     32  C   UNL     1      62.990  77.434  82.965  1.00  0.00    -0.046 C 
ATOM     33  C   UNL     1      63.741  76.150  83.153  1.00  0.00     0.042 C 
ATOM     34  C   UNL     1      63.392  78.368  82.089  1.00  0.00     0.010 C 
ENDBRANCH  14  32
ENDBRANCH   3   4
BRANCH   2  35
ATOM     35  C   UNL     1      59.313  80.694  88.015  1.00  0.00     0.078 CG0
ATOM     36  G   UNL     1      58.534  80.357  86.745  1.00  0.00     0.000 G0
ENDBRANCH   2  35
ENDBRANCH   1   2
BRANCH   1  37
ATOM     37  O   UNL     1      60.978  79.056  90.371  1.00  0.00    -0.461 OA
BRANCH  37  38
ATOM     38  C   UNL     1      62.077  78.465  90.949  1.00  0.00     0.310 C 
ATOM     39  O   UNL     1      62.626  78.852  91.972  1.00  0.00    -0.252 OA
BRANCH  38  40
ATOM     40  C   UNL     1      62.497  77.269  90.129  1.00  0.00     0.158 C 
BRANCH  40  41
ATOM     41  C   UNL     1      63.792  77.489  89.390  1.00  0.00    -0.033 A 
ATOM     42  C   UNL     1      64.623  78.554  89.741  1.00  0.00     0.054 A 
ATOM     43  C   UNL     1      64.161  76.628  88.356  1.00  0.00     0.008 A 
ATOM     44  C   UNL     1      65.822  78.757  89.057  1.00  0.00     0.160 A 
ATOM     45  C   UNL     1      65.359  76.832  87.672  1.00  0.00     0.050 A 
ATOM     46  C   UNL     1      66.190  77.896  88.022  1.00  0.00     0.157 A 
BRANCH  44  47
ATOM     47  O   UNL     1      66.625  79.800  89.408  1.00  0.00    -0.493 OA
ATOM     48  C   UNL     1      66.686  80.133  90.794  1.00  0.00     0.278 C 
ENDBRANCH  44  47
BRANCH  46  49
ATOM     49  O   UNL     1      67.358  78.084  87.348  1.00  0.00    -0.504 OA
ATOM     50  H   UNL     1      67.492  79.037  87.207  1.00  0.00     0.293 HD
ENDBRANCH  46  49
ENDBRANCH  40  41
ENDBRANCH  38  40
ENDBRANCH  37  38
ENDBRANCH   1  37
TORSDOF 11
ENDMDL
