MODEL 1
REMARK VINA RESULT:    -6.298      0.000      0.000
REMARK INTER + INTRA:         -10.872
REMARK INTER:                 -10.164
REMARK INTRA:                  -0.708
REMARK UNBOUND:                -0.708
REMARK SMILES CCCCCCCCC(=O)NCc1ccc(O)c(OC)c1
REMARK SMILES IDX 7 1 6 2 5 3 4 4 3 5 2 6 1 7 8 8 9 9 10 10 11 11 12 13 13 14
REMARK SMILES IDX 21 15 14 16 18 17 15 18 16 19 19 20 20 21 17 22
REMARK H PARENT 11 12 17 23
REMARK Flexibility Score: inf
ROOT
ATOM      1  C   UNL     1      79.564  63.534  69.589  1.00  0.00     0.010 C 
ENDROOT
BRANCH   1   2
ATOM      2  C   UNL     1      78.094  63.549  69.081  1.00  0.00     0.001 C 
BRANCH   2   3
ATOM      3  C   UNL     1      77.933  64.368  67.766  1.00  0.00     0.000 C 
BRANCH   3   4
ATOM      4  C   UNL     1      77.071  63.657  66.685  1.00  0.00    -0.000 C 
BRANCH   4   5
ATOM      5  C   UNL     1      75.636  63.325  67.185  1.00  0.00    -0.000 C 
BRANCH   5   6
ATOM      6  C   UNL     1      74.709  64.570  67.206  1.00  0.00    -0.003 C 
ATOM      7  C   UNL     1      74.506  65.144  68.626  1.00  0.00     0.004 C 
ENDBRANCH   5   6
ENDBRANCH   4   5
ENDBRANCH   3   4
ENDBRANCH   2   3
ENDBRANCH   1   2
BRANCH   1   8
ATOM      8  C   UNL     1      80.284  64.907  69.471  1.00  0.00     0.100 C 
BRANCH   8   9
ATOM      9  C   UNL     1      80.147  65.698  70.718  1.00  0.00     0.220 C 
ATOM     10  O   UNL     1      79.101  66.369  70.884  1.00  0.00    -0.275 OA
ATOM     11  N   UNL     1      81.126  65.668  71.670  1.00  0.00    -0.352 N 
ATOM     12  H   UNL     1      81.959  65.167  71.397  1.00  0.00     0.163 HD
BRANCH  11  13
ATOM     13  C   UNL     1      81.049  66.269  72.966  1.00  0.00     0.151 C 
BRANCH  13  14
ATOM     14  C   UNL     1      82.339  66.835  73.443  1.00  0.00    -0.025 A 
ATOM     15  C   UNL     1      83.069  67.731  72.627  1.00  0.00     0.056 A 
ATOM     16  C   UNL     1      82.860  66.488  74.711  1.00  0.00     0.009 A 
ATOM     17  C   UNL     1      84.288  68.291  73.074  1.00  0.00     0.160 A 
ATOM     18  C   UNL     1      84.071  67.042  75.163  1.00  0.00     0.050 A 
ATOM     19  C   UNL     1      84.791  67.936  74.346  1.00  0.00     0.157 A 
BRANCH  17  20
ATOM     20  O   UNL     1      85.015  69.127  72.264  1.00  0.00    -0.493 OA
ATOM     21  C   UNL     1      84.450  70.441  72.116  1.00  0.00     0.278 C 
ENDBRANCH  17  20
BRANCH  19  22
ATOM     22  O   UNL     1      85.973  68.444  74.780  1.00  0.00    -0.504 OA
ATOM     23  H   UNL     1      86.329  69.037  74.114  1.00  0.00     0.293 HD
ENDBRANCH  19  22
ENDBRANCH  13  14
ENDBRANCH  11  13
ENDBRANCH   8   9
ENDBRANCH   1   8
TORSDOF 11
ENDMDL
MODEL 2
REMARK VINA RESULT:    -5.915      1.275      2.420
REMARK INTER + INTRA:         -10.253
REMARK INTER:                  -9.588
REMARK INTRA:                  -0.665
REMARK UNBOUND:                -0.708
REMARK SMILES CCCCCCCCC(=O)NCc1ccc(O)c(OC)c1
REMARK SMILES IDX 7 1 6 2 5 3 4 4 3 5 2 6 1 7 8 8 9 9 10 10 11 11 12 13 13 14
REMARK SMILES IDX 21 15 14 16 18 17 15 18 16 19 19 20 20 21 17 22
REMARK H PARENT 11 12 17 23
REMARK Flexibility Score: inf
ROOT
ATOM      1  C   UNL     1      80.118  65.534  70.048  1.00  0.00     0.010 C 
ENDROOT
BRANCH   1   2
ATOM      2  C   UNL     1      79.927  64.082  69.521  1.00  0.00     0.001 C 
BRANCH   2   3
ATOM      3  C   UNL     1      78.424  63.704  69.367  1.00  0.00     0.000 C 
BRANCH   3   4
ATOM      4  C   UNL     1      77.760  64.282  68.086  1.00  0.00    -0.000 C 
BRANCH   4   5
ATOM      5  C   UNL     1      76.486  65.119  68.394  1.00  0.00    -0.000 C 
BRANCH   5   6
ATOM      6  C   UNL     1      75.181  64.292  68.250  1.00  0.00    -0.003 C 
ATOM      7  C   UNL     1      75.296  63.168  67.197  1.00  0.00     0.004 C 
ENDBRANCH   5   6
ENDBRANCH   4   5
ENDBRANCH   3   4
ENDBRANCH   2   3
ENDBRANCH   1   2
BRANCH   1   8
ATOM      8  C   UNL     1      79.459  65.793  71.431  1.00  0.00     0.100 C 
BRANCH   8   9
ATOM      9  C   UNL     1      80.479  66.046  72.477  1.00  0.00     0.220 C 
ATOM     10  O   UNL     1      80.189  66.825  73.416  1.00  0.00    -0.275 OA
ATOM     11  N   UNL     1      81.692  65.421  72.428  1.00  0.00    -0.352 N 
ATOM     12  H   UNL     1      81.852  64.886  71.587  1.00  0.00     0.163 HD
BRANCH  11  13
ATOM     13  C   UNL     1      82.700  65.471  73.442  1.00  0.00     0.151 C 
BRANCH  13  14
ATOM     14  C   UNL     1      83.551  66.690  73.384  1.00  0.00    -0.025 A 
ATOM     15  C   UNL     1      84.251  67.125  74.535  1.00  0.00     0.056 A 
ATOM     16  C   UNL     1      83.673  67.435  72.189  1.00  0.00     0.009 A 
ATOM     17  C   UNL     1      85.078  68.271  74.490  1.00  0.00     0.160 A 
ATOM     18  C   UNL     1      84.494  68.575  72.138  1.00  0.00     0.050 A 
ATOM     19  C   UNL     1      85.191  69.001  73.285  1.00  0.00     0.157 A 
BRANCH  17  20
ATOM     20  O   UNL     1      85.722  68.715  75.617  1.00  0.00    -0.493 OA
ATOM     21  C   UNL     1      87.031  68.150  75.808  1.00  0.00     0.278 C 
ENDBRANCH  17  20
BRANCH  19  22
ATOM     22  O   UNL     1      85.959  70.119  73.233  1.00  0.00    -0.504 OA
ATOM     23  H   UNL     1      86.763  69.932  72.742  1.00  0.00     0.293 HD
ENDBRANCH  19  22
ENDBRANCH  13  14
ENDBRANCH  11  13
ENDBRANCH   8   9
ENDBRANCH   1   8
TORSDOF 11
ENDMDL
MODEL 3
REMARK VINA RESULT:    -5.894     22.096     24.468
REMARK INTER + INTRA:         -10.220
REMARK INTER:                  -9.688
REMARK INTRA:                  -0.532
REMARK UNBOUND:                -0.708
REMARK SMILES CCCCCCCCC(=O)NCc1ccc(O)c(OC)c1
REMARK SMILES IDX 7 1 6 2 5 3 4 4 3 5 2 6 1 7 8 8 9 9 10 10 11 11 12 13 13 14
REMARK SMILES IDX 21 15 14 16 18 17 15 18 16 19 19 20 20 21 17 22
REMARK H PARENT 11 12 17 23
REMARK Flexibility Score: inf
ROOT
ATOM      1  C   UNL     1      96.732  81.441  81.478  1.00  0.00     0.010 C 
ENDROOT
BRANCH   1   2
ATOM      2  C   UNL     1      97.640  81.141  80.251  1.00  0.00     0.001 C 
BRANCH   2   3
ATOM      3  C   UNL     1      97.595  82.282  79.192  1.00  0.00     0.000 C 
BRANCH   3   4
ATOM      4  C   UNL     1      97.528  81.772  77.724  1.00  0.00    -0.000 C 
BRANCH   4   5
ATOM      5  C   UNL     1      97.874  82.879  76.688  1.00  0.00    -0.000 C 
BRANCH   5   6
ATOM      6  C   UNL     1      97.013  84.158  76.873  1.00  0.00    -0.003 C 
ATOM      7  C   UNL     1      96.588  84.795  75.531  1.00  0.00     0.004 C 
ENDBRANCH   5   6
ENDBRANCH   4   5
ENDBRANCH   3   4
ENDBRANCH   2   3
ENDBRANCH   1   2
BRANCH   1   8
ATOM      8  C   UNL     1      97.116  82.738  82.243  1.00  0.00     0.100 C 
BRANCH   8   9
ATOM      9  C   UNL     1      95.992  83.225  83.079  1.00  0.00     0.220 C 
ATOM     10  O   UNL     1      95.801  84.462  83.157  1.00  0.00    -0.275 OA
ATOM     11  N   UNL     1      95.171  82.342  83.720  1.00  0.00    -0.352 N 
ATOM     12  H   UNL     1      95.466  81.379  83.660  1.00  0.00     0.163 HD
BRANCH  11  13
ATOM     13  C   UNL     1      93.978  82.678  84.435  1.00  0.00     0.151 C 
BRANCH  13  14
ATOM     14  C   UNL     1      92.973  81.582  84.477  1.00  0.00    -0.025 A 
ATOM     15  C   UNL     1      91.602  81.865  84.269  1.00  0.00     0.056 A 
ATOM     16  C   UNL     1      93.365  80.247  84.727  1.00  0.00     0.009 A 
ATOM     17  C   UNL     1      90.638  80.831  84.289  1.00  0.00     0.160 A 
ATOM     18  C   UNL     1      92.411  79.214  84.747  1.00  0.00     0.050 A 
ATOM     19  C   UNL     1      91.048  79.502  84.537  1.00  0.00     0.157 A 
BRANCH  17  20
ATOM     20  O   UNL     1      89.304  81.112  84.129  1.00  0.00    -0.493 OA
ATOM     21  C   UNL     1      88.886  82.346  84.740  1.00  0.00     0.278 C 
ENDBRANCH  17  20
BRANCH  19  22
ATOM     22  O   UNL     1      90.132  78.501  84.585  1.00  0.00    -0.504 OA
ATOM     23  H   UNL     1      89.299  78.846  84.918  1.00  0.00     0.293 HD
ENDBRANCH  19  22
ENDBRANCH  13  14
ENDBRANCH  11  13
ENDBRANCH   8   9
ENDBRANCH   1   8
TORSDOF 11
ENDMDL
MODEL 4
REMARK VINA RESULT:    -5.641     30.825     34.884
REMARK INTER + INTRA:          -9.812
REMARK INTER:                  -8.956
REMARK INTRA:                  -0.856
REMARK UNBOUND:                -0.708
REMARK SMILES CCCCCCCCC(=O)NCc1ccc(O)c(OC)c1
REMARK SMILES IDX 7 1 6 2 5 3 4 4 3 5 2 6 1 7 8 8 9 9 10 10 11 11 12 13 13 14
REMARK SMILES IDX 21 15 14 16 18 17 15 18 16 19 19 20 20 21 17 22
REMARK H PARENT 11 12 17 23
REMARK Flexibility Score: inf
ROOT
ATOM      1  C   UNL     1      94.459  97.239  75.552  1.00  0.00     0.010 C 
ENDROOT
BRANCH   1   2
ATOM      2  C   UNL     1      93.421  96.220  76.103  1.00  0.00     0.001 C 
BRANCH   2   3
ATOM      3  C   UNL     1      92.993  95.176  75.031  1.00  0.00     0.000 C 
BRANCH   3   4
ATOM      4  C   UNL     1      91.497  94.763  75.119  1.00  0.00    -0.000 C 
BRANCH   4   5
ATOM      5  C   UNL     1      90.811  95.266  76.421  1.00  0.00    -0.000 C 
BRANCH   5   6
ATOM      6  C   UNL     1      89.598  94.390  76.833  1.00  0.00    -0.003 C 
ATOM      7  C   UNL     1      90.014  93.097  77.569  1.00  0.00     0.004 C 
ENDBRANCH   5   6
ENDBRANCH   4   5
ENDBRANCH   3   4
ENDBRANCH   2   3
ENDBRANCH   1   2
BRANCH   1   8
ATOM      8  C   UNL     1      94.538  97.280  74.000  1.00  0.00     0.100 C 
BRANCH   8   9
ATOM      9  C   UNL     1      94.111  98.598  73.472  1.00  0.00     0.220 C 
ATOM     10  O   UNL     1      94.056  99.567  74.265  1.00  0.00    -0.275 OA
ATOM     11  N   UNL     1      93.814  98.751  72.148  1.00  0.00    -0.352 N 
ATOM     12  H   UNL     1      93.807  97.892  71.619  1.00  0.00     0.163 HD
BRANCH  11  13
ATOM     13  C   UNL     1      93.529  99.992  71.494  1.00  0.00     0.151 C 
BRANCH  13  14
ATOM     14  C   UNL     1      92.076 100.281  71.359  1.00  0.00    -0.025 A 
ATOM     15  C   UNL     1      91.475 101.290  72.148  1.00  0.00     0.056 A 
ATOM     16  C   UNL     1      91.272  99.555  70.450  1.00  0.00     0.009 A 
ATOM     17  C   UNL     1      90.098 101.588  72.019  1.00  0.00     0.160 A 
ATOM     18  C   UNL     1      89.903  99.847  70.316  1.00  0.00     0.050 A 
ATOM     19  C   UNL     1      89.312 100.855  71.102  1.00  0.00     0.157 A 
BRANCH  17  20
ATOM     20  O   UNL     1      89.508 102.537  72.814  1.00  0.00    -0.493 OA
ATOM     21  C   UNL     1      89.440 102.180  74.206  1.00  0.00     0.278 C 
ENDBRANCH  17  20
BRANCH  19  22
ATOM     22  O   UNL     1      87.983 101.110  70.985  1.00  0.00    -0.504 OA
ATOM     23  H   UNL     1      87.573 100.431  70.444  1.00  0.00     0.293 HD
ENDBRANCH  19  22
ENDBRANCH  13  14
ENDBRANCH  11  13
ENDBRANCH   8   9
ENDBRANCH   1   8
TORSDOF 11
ENDMDL
MODEL 5
REMARK VINA RESULT:    -5.606     30.203     34.647
REMARK INTER + INTRA:          -9.756
REMARK INTER:                  -9.031
REMARK INTRA:                  -0.725
REMARK UNBOUND:                -0.708
REMARK SMILES CCCCCCCCC(=O)NCc1ccc(O)c(OC)c1
REMARK SMILES IDX 7 1 6 2 5 3 4 4 3 5 2 6 1 7 8 8 9 9 10 10 11 11 12 13 13 14
REMARK SMILES IDX 21 15 14 16 18 17 15 18 16 19 19 20 20 21 17 22
REMARK H PARENT 11 12 17 23
REMARK Flexibility Score: inf
ROOT
ATOM      1  C   UNL     1      94.126  96.329  74.590  1.00  0.00     0.010 C 
ENDROOT
BRANCH   1   2
ATOM      2  C   UNL     1      93.451  95.162  75.367  1.00  0.00     0.001 C 
BRANCH   2   3
ATOM      3  C   UNL     1      91.918  95.088  75.102  1.00  0.00     0.000 C 
BRANCH   3   4
ATOM      4  C   UNL     1      91.050  95.461  76.337  1.00  0.00    -0.000 C 
BRANCH   4   5
ATOM      5  C   UNL     1      91.262  94.492  77.535  1.00  0.00    -0.000 C 
BRANCH   5   6
ATOM      6  C   UNL     1      90.015  93.610  77.815  1.00  0.00    -0.003 C 
ATOM      7  C   UNL     1      89.867  92.445  76.812  1.00  0.00     0.004 C 
ENDBRANCH   5   6
ENDBRANCH   4   5
ENDBRANCH   3   4
ENDBRANCH   2   3
ENDBRANCH   1   2
BRANCH   1   8
ATOM      8  C   UNL     1      94.253  97.642  75.411  1.00  0.00     0.100 C 
BRANCH   8   9
ATOM      9  C   UNL     1      95.586  97.750  76.053  1.00  0.00     0.220 C 
ATOM     10  O   UNL     1      96.474  98.420  75.473  1.00  0.00    -0.275 OA
ATOM     11  N   UNL     1      95.824  97.158  77.260  1.00  0.00    -0.352 N 
ATOM     12  H   UNL     1      95.072  96.574  77.595  1.00  0.00     0.163 HD
BRANCH  11  13
ATOM     13  C   UNL     1      97.013  97.306  78.043  1.00  0.00     0.151 C 
BRANCH  13  14
ATOM     14  C   UNL     1      96.760  97.723  79.448  1.00  0.00    -0.025 A 
ATOM     15  C   UNL     1      97.516  97.163  80.505  1.00  0.00     0.056 A 
ATOM     16  C   UNL     1      95.763  98.679  79.754  1.00  0.00     0.009 A 
ATOM     17  C   UNL     1      97.298  97.563  81.844  1.00  0.00     0.160 A 
ATOM     18  C   UNL     1      95.542  99.081  81.083  1.00  0.00     0.050 A 
ATOM     19  C   UNL     1      96.300  98.522  82.130  1.00  0.00     0.157 A 
BRANCH  17  20
ATOM     20  O   UNL     1      98.003  96.988  82.871  1.00  0.00    -0.493 OA
ATOM     21  C   UNL     1      99.164  96.252  82.448  1.00  0.00     0.278 C 
ENDBRANCH  17  20
BRANCH  19  22
ATOM     22  O   UNL     1      96.061  98.897  83.412  1.00  0.00    -0.504 OA
ATOM     23  H   UNL     1      95.668  99.773  83.421  1.00  0.00     0.293 HD
ENDBRANCH  19  22
ENDBRANCH  13  14
ENDBRANCH  11  13
ENDBRANCH   8   9
ENDBRANCH   1   8
TORSDOF 11
ENDMDL
MODEL 6
REMARK VINA RESULT:    -5.552     24.842     26.065
REMARK INTER + INTRA:          -9.668
REMARK INTER:                  -8.647
REMARK INTRA:                  -1.021
REMARK UNBOUND:                -0.708
REMARK SMILES CCCCCCCCC(=O)NCc1ccc(O)c(OC)c1
REMARK SMILES IDX 7 1 6 2 5 3 4 4 3 5 2 6 1 7 8 8 9 9 10 10 11 11 12 13 13 14
REMARK SMILES IDX 21 15 14 16 18 17 15 18 16 19 19 20 20 21 17 22
REMARK H PARENT 11 12 17 23
REMARK Flexibility Score: inf
ROOT
ATOM      1  C   UNL     1      97.668  83.558  73.482  1.00  0.00     0.010 C 
ENDROOT
BRANCH   1   2
ATOM      2  C   UNL     1      98.931  82.907  72.849  1.00  0.00     0.001 C 
BRANCH   2   3
ATOM      3  C   UNL     1      99.545  81.804  73.761  1.00  0.00     0.000 C 
BRANCH   3   4
ATOM      4  C   UNL     1     100.725  82.304  74.641  1.00  0.00    -0.000 C 
BRANCH   4   5
ATOM      5  C   UNL     1     101.581  83.394  73.935  1.00  0.00    -0.000 C 
BRANCH   5   6
ATOM      6  C   UNL     1     102.226  84.388  74.938  1.00  0.00    -0.003 C 
ATOM      7  C   UNL     1     101.609  85.802  74.862  1.00  0.00     0.004 C 
ENDBRANCH   5   6
ENDBRANCH   4   5
ENDBRANCH   3   4
ENDBRANCH   2   3
ENDBRANCH   1   2
BRANCH   1   8
ATOM      8  C   UNL     1      97.982  84.747  74.433  1.00  0.00     0.100 C 
BRANCH   8   9
ATOM      9  C   UNL     1      97.122  84.713  75.641  1.00  0.00     0.220 C 
ATOM     10  O   UNL     1      96.141  85.493  75.695  1.00  0.00    -0.275 OA
ATOM     11  N   UNL     1      97.379  83.832  76.652  1.00  0.00    -0.352 N 
ATOM     12  H   UNL     1      98.239  83.314  76.545  1.00  0.00     0.163 HD
BRANCH  11  13
ATOM     13  C   UNL     1      96.549  83.606  77.795  1.00  0.00     0.151 C 
BRANCH  13  14
ATOM     14  C   UNL     1      97.269  83.013  78.953  1.00  0.00    -0.025 A 
ATOM     15  C   UNL     1      96.767  83.181  80.266  1.00  0.00     0.056 A 
ATOM     16  C   UNL     1      98.462  82.277  78.768  1.00  0.00     0.009 A 
ATOM     17  C   UNL     1      97.431  82.608  81.375  1.00  0.00     0.160 A 
ATOM     18  C   UNL     1      99.126  81.703  79.866  1.00  0.00     0.050 A 
ATOM     19  C   UNL     1      98.620  81.872  81.170  1.00  0.00     0.157 A 
BRANCH  17  20
ATOM     20  O   UNL     1      96.967  82.807  82.651  1.00  0.00    -0.493 OA
ATOM     21  C   UNL     1      96.165  83.992  82.807  1.00  0.00     0.278 C 
ENDBRANCH  17  20
BRANCH  19  22
ATOM     22  O   UNL     1      99.284  81.338  82.226  1.00  0.00    -0.504 OA
ATOM     23  H   UNL     1      98.969  81.742  83.039  1.00  0.00     0.293 HD
ENDBRANCH  19  22
ENDBRANCH  13  14
ENDBRANCH  11  13
ENDBRANCH   8   9
ENDBRANCH   1   8
TORSDOF 11
ENDMDL
MODEL 7
REMARK VINA RESULT:    -5.544     30.185     34.515
REMARK INTER + INTRA:          -9.655
REMARK INTER:                  -8.857
REMARK INTRA:                  -0.797
REMARK UNBOUND:                -0.708
REMARK SMILES CCCCCCCCC(=O)NCc1ccc(O)c(OC)c1
REMARK SMILES IDX 7 1 6 2 5 3 4 4 3 5 2 6 1 7 8 8 9 9 10 10 11 11 12 13 13 14
REMARK SMILES IDX 21 15 14 16 18 17 15 18 16 19 19 20 20 21 17 22
REMARK H PARENT 11 12 17 23
REMARK Flexibility Score: inf
ROOT
ATOM      1  C   UNL     1      94.654  96.913  76.831  1.00  0.00     0.010 C 
ENDROOT
BRANCH   1   2
ATOM      2  C   UNL     1      93.304  96.730  77.581  1.00  0.00     0.001 C 
BRANCH   2   3
ATOM      3  C   UNL     1      93.000  95.234  77.889  1.00  0.00     0.000 C 
BRANCH   3   4
ATOM      4  C   UNL     1      92.118  94.539  76.813  1.00  0.00    -0.000 C 
BRANCH   4   5
ATOM      5  C   UNL     1      90.788  95.299  76.544  1.00  0.00    -0.000 C 
BRANCH   5   6
ATOM      6  C   UNL     1      89.535  94.424  76.819  1.00  0.00    -0.003 C 
ATOM      7  C   UNL     1      89.892  92.981  77.240  1.00  0.00     0.004 C 
ENDBRANCH   5   6
ENDBRANCH   4   5
ENDBRANCH   3   4
ENDBRANCH   2   3
ENDBRANCH   1   2
BRANCH   1   8
ATOM      8  C   UNL     1      94.565  97.848  75.592  1.00  0.00     0.100 C 
BRANCH   8   9
ATOM      9  C   UNL     1      94.787  97.097  74.333  1.00  0.00     0.220 C 
ATOM     10  O   UNL     1      94.163  96.022  74.162  1.00  0.00    -0.275 OA
ATOM     11  N   UNL     1      95.629  97.584  73.374  1.00  0.00    -0.352 N 
ATOM     12  H   UNL     1      96.144  98.408  73.650  1.00  0.00     0.163 HD
BRANCH  11  13
ATOM     13  C   UNL     1      95.818  97.030  72.069  1.00  0.00     0.151 C 
BRANCH  13  14
ATOM     14  C   UNL     1      95.349  97.913  70.967  1.00  0.00    -0.025 A 
ATOM     15  C   UNL     1      94.468  98.986  71.241  1.00  0.00     0.056 A 
ATOM     16  C   UNL     1      95.769  97.698  69.634  1.00  0.00     0.009 A 
ATOM     17  C   UNL     1      94.027  99.845  70.207  1.00  0.00     0.160 A 
ATOM     18  C   UNL     1      95.335  98.549  68.602  1.00  0.00     0.050 A 
ATOM     19  C   UNL     1      94.460  99.616  68.882  1.00  0.00     0.157 A 
BRANCH  17  20
ATOM     20  O   UNL     1      93.139 100.858  70.468  1.00  0.00    -0.493 OA
ATOM     21  C   UNL     1      91.782 100.419  70.654  1.00  0.00     0.278 C 
ENDBRANCH  17  20
BRANCH  19  22
ATOM     22  O   UNL     1      94.025 100.415  67.874  1.00  0.00    -0.504 OA
ATOM     23  H   UNL     1      93.428 101.079  68.227  1.00  0.00     0.293 HD
ENDBRANCH  19  22
ENDBRANCH  13  14
ENDBRANCH  11  13
ENDBRANCH   8   9
ENDBRANCH   1   8
TORSDOF 11
ENDMDL
MODEL 8
REMARK VINA RESULT:    -5.499     24.802     25.805
REMARK INTER + INTRA:          -9.582
REMARK INTER:                  -8.832
REMARK INTRA:                  -0.750
REMARK UNBOUND:                -0.708
REMARK SMILES CCCCCCCCC(=O)NCc1ccc(O)c(OC)c1
REMARK SMILES IDX 7 1 6 2 5 3 4 4 3 5 2 6 1 7 8 8 9 9 10 10 11 11 12 13 13 14
REMARK SMILES IDX 21 15 14 16 18 17 15 18 16 19 19 20 20 21 17 22
REMARK H PARENT 11 12 17 23
REMARK Flexibility Score: inf
ROOT
ATOM      1  C   UNL     1      97.224  80.843  81.744  1.00  0.00     0.010 C 
ENDROOT
BRANCH   1   2
ATOM      2  C   UNL     1      96.635  82.252  82.042  1.00  0.00     0.001 C 
BRANCH   2   3
ATOM      3  C   UNL     1      96.449  82.502  83.567  1.00  0.00     0.000 C 
BRANCH   3   4
ATOM      4  C   UNL     1      95.056  83.084  83.941  1.00  0.00    -0.000 C 
BRANCH   4   5
ATOM      5  C   UNL     1      93.972  81.982  84.114  1.00  0.00    -0.000 C 
BRANCH   5   6
ATOM      6  C   UNL     1      92.653  82.533  84.721  1.00  0.00    -0.003 C 
ATOM      7  C   UNL     1      92.886  83.708  85.696  1.00  0.00     0.004 C 
ENDBRANCH   5   6
ENDBRANCH   4   5
ENDBRANCH   3   4
ENDBRANCH   2   3
ENDBRANCH   1   2
BRANCH   1   8
ATOM      8  C   UNL     1      98.774  80.774  81.851  1.00  0.00     0.100 C 
BRANCH   8   9
ATOM      9  C   UNL     1      99.425  81.404  80.678  1.00  0.00     0.220 C 
ATOM     10  O   UNL     1     100.509  82.010  80.853  1.00  0.00    -0.275 OA
ATOM     11  N   UNL     1      98.868  81.300  79.436  1.00  0.00    -0.352 N 
ATOM     12  H   UNL     1      97.955  80.869  79.422  1.00  0.00     0.163 HD
BRANCH  11  13
ATOM     13  C   UNL     1      99.466  81.739  78.212  1.00  0.00     0.151 C 
BRANCH  13  14
ATOM     14  C   UNL     1      98.587  82.618  77.395  1.00  0.00    -0.025 A 
ATOM     15  C   UNL     1      98.946  82.946  76.065  1.00  0.00     0.056 A 
ATOM     16  C   UNL     1      97.386  83.141  77.926  1.00  0.00     0.009 A 
ATOM     17  C   UNL     1      98.111  83.766  75.271  1.00  0.00     0.160 A 
ATOM     18  C   UNL     1      96.551  83.956  77.141  1.00  0.00     0.050 A 
ATOM     19  C   UNL     1      96.913  84.276  75.818  1.00  0.00     0.157 A 
BRANCH  17  20
ATOM     20  O   UNL     1      98.482  84.117  73.997  1.00  0.00    -0.493 OA
ATOM     21  C   UNL     1      99.468  85.162  73.938  1.00  0.00     0.278 C 
ENDBRANCH  17  20
BRANCH  19  22
ATOM     22  O   UNL     1      96.114  85.086  75.077  1.00  0.00    -0.504 OA
ATOM     23  H   UNL     1      96.224  85.995  75.366  1.00  0.00     0.293 HD
ENDBRANCH  19  22
ENDBRANCH  13  14
ENDBRANCH  11  13
ENDBRANCH   8   9
ENDBRANCH   1   8
TORSDOF 11
ENDMDL
MODEL 9
REMARK VINA RESULT:    -5.280     20.877     23.572
REMARK INTER + INTRA:          -9.229
REMARK INTER:                  -8.080
REMARK INTRA:                  -1.149
REMARK UNBOUND:                -0.708
REMARK SMILES CCCCCCCCC(=O)NCc1ccc(O)c(OC)c1
REMARK SMILES IDX 7 1 6 2 5 3 4 4 3 5 2 6 1 7 8 8 9 9 10 10 11 11 12 13 13 14
REMARK SMILES IDX 21 15 14 16 18 17 15 18 16 19 19 20 20 21 17 22
REMARK H PARENT 11 12 17 23
REMARK Flexibility Score: inf
ROOT
ATOM      1  C   UNL     1      93.464  76.074  83.215  1.00  0.00     0.010 C 
ENDROOT
BRANCH   1   2
ATOM      2  C   UNL     1      92.569  77.173  83.858  1.00  0.00     0.001 C 
BRANCH   2   3
ATOM      3  C   UNL     1      93.364  78.074  84.849  1.00  0.00     0.000 C 
BRANCH   3   4
ATOM      4  C   UNL     1      93.137  79.597  84.630  1.00  0.00    -0.000 C 
BRANCH   4   5
ATOM      5  C   UNL     1      91.630  79.982  84.604  1.00  0.00    -0.000 C 
BRANCH   5   6
ATOM      6  C   UNL     1      91.390  81.414  84.055  1.00  0.00    -0.003 C 
ATOM      7  C   UNL     1      92.404  82.444  84.600  1.00  0.00     0.004 C 
ENDBRANCH   5   6
ENDBRANCH   4   5
ENDBRANCH   3   4
ENDBRANCH   2   3
ENDBRANCH   1   2
BRANCH   1   8
ATOM      8  C   UNL     1      94.967  76.182  83.599  1.00  0.00     0.100 C 
BRANCH   8   9
ATOM      9  C   UNL     1      95.756  76.817  82.517  1.00  0.00     0.220 C 
ATOM     10  O   UNL     1      95.823  76.235  81.408  1.00  0.00    -0.275 OA
ATOM     11  N   UNL     1      96.370  78.020  82.721  1.00  0.00    -0.352 N 
ATOM     12  H   UNL     1      96.325  78.356  83.672  1.00  0.00     0.163 HD
BRANCH  11  13
ATOM     13  C   UNL     1      97.037  78.798  81.722  1.00  0.00     0.151 C 
BRANCH  13  14
ATOM     14  C   UNL     1      96.861  80.266  81.885  1.00  0.00    -0.025 A 
ATOM     15  C   UNL     1      97.317  81.154  80.882  1.00  0.00     0.056 A 
ATOM     16  C   UNL     1      96.243  80.799  83.040  1.00  0.00     0.009 A 
ATOM     17  C   UNL     1      97.141  82.551  81.016  1.00  0.00     0.160 A 
ATOM     18  C   UNL     1      96.064  82.187  83.178  1.00  0.00     0.050 A 
ATOM     19  C   UNL     1      96.518  83.065  82.175  1.00  0.00     0.157 A 
BRANCH  17  20
ATOM     20  O   UNL     1      97.622  83.412  80.062  1.00  0.00    -0.493 OA
ATOM     21  C   UNL     1      96.813  83.487  78.875  1.00  0.00     0.278 C 
ENDBRANCH  17  20
BRANCH  19  22
ATOM     22  O   UNL     1      96.365  84.405  82.330  1.00  0.00    -0.504 OA
ATOM     23  H   UNL     1      96.754  84.861  81.580  1.00  0.00     0.293 HD
ENDBRANCH  19  22
ENDBRANCH  13  14
ENDBRANCH  11  13
ENDBRANCH   8   9
ENDBRANCH   1   8
TORSDOF 11
ENDMDL
MODEL 10
REMARK VINA RESULT:    -5.229     24.754     25.992
REMARK INTER + INTRA:          -9.147
REMARK INTER:                  -7.971
REMARK INTRA:                  -1.176
REMARK UNBOUND:                -0.708
REMARK SMILES CCCCCCCCC(=O)NCc1ccc(O)c(OC)c1
REMARK SMILES IDX 7 1 6 2 5 3 4 4 3 5 2 6 1 7 8 8 9 9 10 10 11 11 12 13 13 14
REMARK SMILES IDX 21 15 14 16 18 17 15 18 16 19 19 20 20 21 17 22
REMARK H PARENT 11 12 17 23
REMARK Flexibility Score: inf
ROOT
ATOM      1  C   UNL     1      97.747  83.242  73.673  1.00  0.00     0.010 C 
ENDROOT
BRANCH   1   2
ATOM      2  C   UNL     1      99.151  82.741  73.226  1.00  0.00     0.001 C 
BRANCH   2   3
ATOM      3  C   UNL     1     100.077  83.909  72.776  1.00  0.00     0.000 C 
BRANCH   3   4
ATOM      4  C   UNL     1     101.355  84.068  73.648  1.00  0.00    -0.000 C 
BRANCH   4   5
ATOM      5  C   UNL     1     101.091  83.790  75.155  1.00  0.00    -0.000 C 
BRANCH   5   6
ATOM      6  C   UNL     1     102.114  82.794  75.765  1.00  0.00    -0.003 C 
ATOM      7  C   UNL     1     101.511  81.395  76.019  1.00  0.00     0.004 C 
ENDBRANCH   5   6
ENDBRANCH   4   5
ENDBRANCH   3   4
ENDBRANCH   2   3
ENDBRANCH   1   2
BRANCH   1   8
ATOM      8  C   UNL     1      97.767  84.633  74.366  1.00  0.00     0.100 C 
BRANCH   8   9
ATOM      9  C   UNL     1      97.004  84.612  75.638  1.00  0.00     0.220 C 
ATOM     10  O   UNL     1      96.005  85.363  75.745  1.00  0.00    -0.275 OA
ATOM     11  N   UNL     1      97.368  83.773  76.652  1.00  0.00    -0.352 N 
ATOM     12  H   UNL     1      98.234  83.279  76.494  1.00  0.00     0.163 HD
BRANCH  11  13
ATOM     13  C   UNL     1      96.637  83.559  77.863  1.00  0.00     0.151 C 
BRANCH  13  14
ATOM     14  C   UNL     1      97.449  82.967  78.959  1.00  0.00    -0.025 A 
ATOM     15  C   UNL     1      98.623  82.234  78.660  1.00  0.00     0.056 A 
ATOM     16  C   UNL     1      97.066  83.118  80.312  1.00  0.00     0.009 A 
ATOM     17  C   UNL     1      99.414  81.679  79.692  1.00  0.00     0.160 A 
ATOM     18  C   UNL     1      97.849  82.570  81.343  1.00  0.00     0.050 A 
ATOM     19  C   UNL     1      99.017  81.845  81.038  1.00  0.00     0.157 A 
BRANCH  17  20
ATOM     20  O   UNL     1     100.528  80.934  79.398  1.00  0.00    -0.493 OA
ATOM     21  C   UNL     1     100.245  79.574  79.027  1.00  0.00     0.278 C 
ENDBRANCH  17  20
BRANCH  19  22
ATOM     22  O   UNL     1      99.751  81.296  82.039  1.00  0.00    -0.504 OA
ATOM     23  H   UNL     1     100.686  81.380  81.834  1.00  0.00     0.293 HD
ENDBRANCH  19  22
ENDBRANCH  13  14
ENDBRANCH  11  13
ENDBRANCH   8   9
ENDBRANCH   1   8
TORSDOF 11
ENDMDL
