MODEL 1
REMARK VINA RESULT:    -5.872      0.000      0.000
REMARK INTER + INTRA:         -10.228
REMARK INTER:                  -9.133
REMARK INTRA:                  -1.095
REMARK UNBOUND:                -1.095
REMARK SMILES COc1cc(CNC(=O)CCCCCC(C)C)ccc1O
REMARK SMILES IDX 10 1 8 2 7 3 9 5 6 6 5 7 3 8 20 9 4 10 19 11 18 12 2 13 1 14
REMARK SMILES IDX 21 15 11 17 12 18 13 19 14 20 15 21 16 22 17 23
REMARK H PARENT 7 4 21 16
REMARK Flexibility Score: inf
ROOT
ATOM      1  C   UNL     1      94.058  93.116  78.868  1.00  0.00     0.100 C 
ENDROOT
BRANCH   1   2
ATOM      2  C   UNL     1      95.138  93.112  79.877  1.00  0.00     0.220 C 
ATOM      3  N   UNL     1      96.248  93.876  79.673  1.00  0.00    -0.352 N 
ATOM      4  H   UNL     1      96.309  94.300  78.758  1.00  0.00     0.163 HD
ATOM      5  O   UNL     1      94.990  92.437  80.925  1.00  0.00    -0.275 OA
BRANCH   3   6
ATOM      6  C   UNL     1      97.279  94.101  80.635  1.00  0.00     0.151 C 
BRANCH   6   7
ATOM      7  C   UNL     1      97.125  95.388  81.366  1.00  0.00    -0.025 A 
ATOM      8  C   UNL     1      97.962  97.027  82.997  1.00  0.00     0.160 A 
ATOM      9  C   UNL     1      96.868  97.870  82.709  1.00  0.00     0.157 A 
ATOM     10  C   UNL     1      98.074  95.784  82.338  1.00  0.00     0.056 A 
ATOM     11  C   UNL     1      95.905  97.474  81.763  1.00  0.00     0.050 A 
ATOM     12  C   UNL     1      96.035  96.246  81.092  1.00  0.00     0.009 A 
BRANCH   8  13
ATOM     13  O   UNL     1      98.901  97.384  83.929  1.00  0.00    -0.493 OA
ATOM     14  C   UNL     1      98.767  96.691  85.185  1.00  0.00     0.278 C 
ENDBRANCH   8  13
BRANCH   9  15
ATOM     15  O   UNL     1      96.750  99.065  83.338  1.00  0.00    -0.504 OA
ATOM     16  H   UNL     1      97.242  99.044  84.162  1.00  0.00     0.293 HD
ENDBRANCH   9  15
ENDBRANCH   6   7
ENDBRANCH   3   6
ENDBRANCH   1   2
BRANCH   1  17
ATOM     17  C   UNL     1      94.370  93.960  77.603  1.00  0.00     0.010 C 
BRANCH  17  18
ATOM     18  C   UNL     1      93.579  95.297  77.598  1.00  0.00     0.001 C 
BRANCH  18  19
ATOM     19  C   UNL     1      92.053  95.110  77.390  1.00  0.00     0.000 C 
BRANCH  19  20
ATOM     20  C   UNL     1      91.727  94.360  76.066  1.00  0.00     0.003 C 
BRANCH  20  21
ATOM     21  C   UNL     1      90.776  93.129  76.220  1.00  0.00    -0.017 C 
ATOM     22  C   UNL     1      90.436  92.874  77.718  1.00  0.00     0.007 C 
ATOM     23  C   UNL     1      91.353  91.835  75.576  1.00  0.00     0.007 C 
ENDBRANCH  20  21
ENDBRANCH  19  20
ENDBRANCH  18  19
ENDBRANCH  17  18
ENDBRANCH   1  17
TORSDOF 10
ENDMDL
MODEL 2
REMARK VINA RESULT:    -5.702      8.489     11.957
REMARK INTER + INTRA:          -9.964
REMARK INTER:                  -9.400
REMARK INTRA:                  -0.564
REMARK UNBOUND:                -1.095
REMARK SMILES COc1cc(CNC(=O)CCCCCC(C)C)ccc1O
REMARK SMILES IDX 10 1 8 2 7 3 9 5 6 6 5 7 3 8 20 9 4 10 19 11 18 12 2 13 1 14
REMARK SMILES IDX 21 15 11 17 12 18 13 19 14 20 15 21 16 22 17 23
REMARK H PARENT 7 4 21 16
REMARK Flexibility Score: inf
ROOT
ATOM      1  C   UNL     1      94.990  98.298  73.213  1.00  0.00     0.100 C 
ENDROOT
BRANCH   1   2
ATOM      2  C   UNL     1      94.579  98.896  71.926  1.00  0.00     0.220 C 
ATOM      3  N   UNL     1      93.454  99.664  71.874  1.00  0.00    -0.352 N 
ATOM      4  H   UNL     1      92.897  99.660  72.717  1.00  0.00     0.163 HD
ATOM      5  O   UNL     1      95.300  98.719  70.914  1.00  0.00    -0.275 OA
BRANCH   3   6
ATOM      6  C   UNL     1      93.038 100.437  70.748  1.00  0.00     0.151 C 
BRANCH   6   7
ATOM      7  C   UNL     1      91.761  99.961  70.151  1.00  0.00    -0.025 A 
ATOM      8  C   UNL     1      90.124  99.990  68.317  1.00  0.00     0.160 A 
ATOM      9  C   UNL     1      89.364  99.005  68.983  1.00  0.00     0.157 A 
ATOM     10  C   UNL     1      91.307 100.475  68.913  1.00  0.00     0.056 A 
ATOM     11  C   UNL     1      89.793  98.506  70.227  1.00  0.00     0.050 A 
ATOM     12  C   UNL     1      90.985  98.976  70.804  1.00  0.00     0.009 A 
BRANCH   8  13
ATOM     13  O   UNL     1      89.713 100.503  67.115  1.00  0.00    -0.493 OA
ATOM     14  C   UNL     1      90.449  99.998  65.984  1.00  0.00     0.278 C 
ENDBRANCH   8  13
BRANCH   9  15
ATOM     15  O   UNL     1      88.224  98.533  68.419  1.00  0.00    -0.504 OA
ATOM     16  H   UNL     1      87.696  99.269  68.101  1.00  0.00     0.293 HD
ENDBRANCH   9  15
ENDBRANCH   6   7
ENDBRANCH   3   6
ENDBRANCH   1   2
BRANCH   1  17
ATOM     17  C   UNL     1      93.813  97.774  74.079  1.00  0.00     0.010 C 
BRANCH  17  18
ATOM     18  C   UNL     1      94.286  96.703  75.100  1.00  0.00     0.001 C 
BRANCH  18  19
ATOM     19  C   UNL     1      93.312  95.502  75.228  1.00  0.00     0.000 C 
BRANCH  19  20
ATOM     20  C   UNL     1      92.773  95.333  76.678  1.00  0.00     0.003 C 
BRANCH  20  21
ATOM     21  C   UNL     1      91.707  94.204  76.859  1.00  0.00    -0.017 C 
ATOM     22  C   UNL     1      90.267  94.795  76.869  1.00  0.00     0.007 C 
ATOM     23  C   UNL     1      91.943  93.350  78.140  1.00  0.00     0.007 C 
ENDBRANCH  20  21
ENDBRANCH  19  20
ENDBRANCH  18  19
ENDBRANCH  17  18
ENDBRANCH   1  17
TORSDOF 10
ENDMDL
MODEL 3
REMARK VINA RESULT:    -5.596     10.962     13.730
REMARK INTER + INTRA:          -9.799
REMARK INTER:                  -7.933
REMARK INTRA:                  -1.865
REMARK UNBOUND:                -1.095
REMARK SMILES COc1cc(CNC(=O)CCCCCC(C)C)ccc1O
REMARK SMILES IDX 10 1 8 2 7 3 9 5 6 6 5 7 3 8 20 9 4 10 19 11 18 12 2 13 1 14
REMARK SMILES IDX 21 15 11 17 12 18 13 19 14 20 15 21 16 22 17 23
REMARK H PARENT 7 4 21 16
REMARK Flexibility Score: inf
ROOT
ATOM      1  C   UNL     1      88.071  99.306  66.249  1.00  0.00     0.100 C 
ENDROOT
BRANCH   1   2
ATOM      2  C   UNL     1      89.078  98.894  67.250  1.00  0.00     0.220 C 
ATOM      3  N   UNL     1      88.736  98.857  68.568  1.00  0.00    -0.352 N 
ATOM      4  H   UNL     1      87.831  99.251  68.784  1.00  0.00     0.163 HD
ATOM      5  O   UNL     1      90.218  98.545  66.858  1.00  0.00    -0.275 OA
BRANCH   3   6
ATOM      6  C   UNL     1      89.546  98.318  69.613  1.00  0.00     0.151 C 
BRANCH   6   7
ATOM      7  C   UNL     1      90.279  99.361  70.381  1.00  0.00    -0.025 A 
ATOM      8  C   UNL     1      92.392 100.305  71.213  1.00  0.00     0.160 A 
ATOM      9  C   UNL     1      91.682 101.382  71.786  1.00  0.00     0.157 A 
ATOM     10  C   UNL     1      91.685  99.292  70.530  1.00  0.00     0.056 A 
ATOM     11  C   UNL     1      90.282 101.446  71.666  1.00  0.00     0.050 A 
ATOM     12  C   UNL     1      89.586 100.447  70.964  1.00  0.00     0.009 A 
BRANCH   8  13
ATOM     13  O   UNL     1      93.754 100.214  71.335  1.00  0.00    -0.493 OA
ATOM     14  C   UNL     1      94.187  99.251  72.315  1.00  0.00     0.278 C 
ENDBRANCH   8  13
BRANCH   9  15
ATOM     15  O   UNL     1      92.352 102.360  72.446  1.00  0.00    -0.504 OA
ATOM     16  H   UNL     1      93.288 102.299  72.243  1.00  0.00     0.293 HD
ENDBRANCH   9  15
ENDBRANCH   6   7
ENDBRANCH   3   6
ENDBRANCH   1   2
BRANCH   1  17
ATOM     17  C   UNL     1      86.963 100.240  66.807  1.00  0.00     0.010 C 
BRANCH  17  18
ATOM     18  C   UNL     1      87.132 101.697  66.295  1.00  0.00     0.001 C 
BRANCH  18  19
ATOM     19  C   UNL     1      88.604 102.188  66.306  1.00  0.00     0.000 C 
BRANCH  19  20
ATOM     20  C   UNL     1      89.116 102.481  67.747  1.00  0.00     0.003 C 
BRANCH  20  21
ATOM     21  C   UNL     1      90.640 102.216  67.972  1.00  0.00    -0.017 C 
ATOM     22  C   UNL     1      91.321 103.438  68.656  1.00  0.00     0.007 C 
ATOM     23  C   UNL     1      91.391 101.852  66.659  1.00  0.00     0.007 C 
ENDBRANCH  20  21
ENDBRANCH  19  20
ENDBRANCH  18  19
ENDBRANCH  17  18
ENDBRANCH   1  17
TORSDOF 10
ENDMDL
MODEL 4
REMARK VINA RESULT:    -5.557     13.294     15.708
REMARK INTER + INTRA:          -9.739
REMARK INTER:                  -9.111
REMARK INTRA:                  -0.628
REMARK UNBOUND:                -1.095
REMARK SMILES COc1cc(CNC(=O)CCCCCC(C)C)ccc1O
REMARK SMILES IDX 10 1 8 2 7 3 9 5 6 6 5 7 3 8 20 9 4 10 19 11 18 12 2 13 1 14
REMARK SMILES IDX 21 15 11 17 12 18 13 19 14 20 15 21 16 22 17 23
REMARK H PARENT 7 4 21 16
REMARK Flexibility Score: inf
ROOT
ATOM      1  C   UNL     1      95.937  82.560  77.577  1.00  0.00     0.100 C 
ENDROOT
BRANCH   1   2
ATOM      2  C   UNL     1      96.081  82.852  76.136  1.00  0.00     0.220 C 
ATOM      3  N   UNL     1      96.708  81.950  75.329  1.00  0.00    -0.352 N 
ATOM      4  H   UNL     1      97.156  81.185  75.814  1.00  0.00     0.163 HD
ATOM      5  O   UNL     1      95.583  83.909  75.676  1.00  0.00    -0.275 OA
BRANCH   3   6
ATOM      6  C   UNL     1      96.764  82.021  73.904  1.00  0.00     0.151 C 
BRANCH   6   7
ATOM      7  C   UNL     1      98.109  82.396  73.390  1.00  0.00    -0.025 A 
ATOM      8  C   UNL     1     100.192  81.795  72.230  1.00  0.00     0.160 A 
ATOM      9  C   UNL     1     100.642  83.127  72.352  1.00  0.00     0.157 A 
ATOM     10  C   UNL     1      98.937  81.434  72.766  1.00  0.00     0.056 A 
ATOM     11  C   UNL     1      99.837  84.086  72.995  1.00  0.00     0.050 A 
ATOM     12  C   UNL     1      98.579  83.725  73.505  1.00  0.00     0.009 A 
BRANCH   8  13
ATOM     13  O   UNL     1     100.968  80.842  71.625  1.00  0.00    -0.493 OA
ATOM     14  C   UNL     1     100.283  79.596  71.392  1.00  0.00     0.278 C 
ENDBRANCH   8  13
BRANCH   9  15
ATOM     15  O   UNL     1     101.847  83.484  71.842  1.00  0.00    -0.504 OA
ATOM     16  H   UNL     1     101.857  83.319  70.897  1.00  0.00     0.293 HD
ENDBRANCH   9  15
ENDBRANCH   6   7
ENDBRANCH   3   6
ENDBRANCH   1   2
BRANCH   1  17
ATOM     17  C   UNL     1      97.129  81.777  78.192  1.00  0.00     0.010 C 
BRANCH  17  18
ATOM     18  C   UNL     1      97.244  82.019  79.722  1.00  0.00     0.001 C 
BRANCH  18  19
ATOM     19  C   UNL     1      97.685  80.759  80.513  1.00  0.00     0.000 C 
BRANCH  19  20
ATOM     20  C   UNL     1      96.687  80.401  81.653  1.00  0.00     0.003 C 
BRANCH  20  21
ATOM     21  C   UNL     1      96.456  81.532  82.707  1.00  0.00    -0.017 C 
ATOM     22  C   UNL     1      97.735  81.761  83.565  1.00  0.00     0.007 C 
ATOM     23  C   UNL     1      95.235  81.255  83.633  1.00  0.00     0.007 C 
ENDBRANCH  20  21
ENDBRANCH  19  20
ENDBRANCH  18  19
ENDBRANCH  17  18
ENDBRANCH   1  17
TORSDOF 10
ENDMDL
MODEL 5
REMARK VINA RESULT:    -5.531     23.468     26.567
REMARK INTER + INTRA:          -9.698
REMARK INTER:                  -8.856
REMARK INTRA:                  -0.841
REMARK UNBOUND:                -1.095
REMARK SMILES COc1cc(CNC(=O)CCCCCC(C)C)ccc1O
REMARK SMILES IDX 10 1 8 2 7 3 9 5 6 6 5 7 3 8 20 9 4 10 19 11 18 12 2 13 1 14
REMARK SMILES IDX 21 15 11 17 12 18 13 19 14 20 15 21 16 22 17 23
REMARK H PARENT 7 4 21 16
REMARK Flexibility Score: inf
ROOT
ATOM      1  C   UNL     1      76.078  82.784  65.569  1.00  0.00     0.100 C 
ENDROOT
BRANCH   1   2
ATOM      2  C   UNL     1      76.722  83.781  66.449  1.00  0.00     0.220 C 
ATOM      3  N   UNL     1      75.976  84.424  67.391  1.00  0.00    -0.352 N 
ATOM      4  H   UNL     1      74.981  84.260  67.329  1.00  0.00     0.163 HD
ATOM      5  O   UNL     1      77.956  83.986  66.338  1.00  0.00    -0.275 OA
BRANCH   3   6
ATOM      6  C   UNL     1      76.497  85.275  68.412  1.00  0.00     0.151 C 
BRANCH   6   7
ATOM      7  C   UNL     1      76.352  86.722  68.097  1.00  0.00    -0.025 A 
ATOM      8  C   UNL     1      75.017  88.787  68.120  1.00  0.00     0.160 A 
ATOM      9  C   UNL     1      76.102  89.492  67.558  1.00  0.00     0.157 A 
ATOM     10  C   UNL     1      75.142  87.403  68.369  1.00  0.00     0.056 A 
ATOM     11  C   UNL     1      77.301  88.819  67.260  1.00  0.00     0.050 A 
ATOM     12  C   UNL     1      77.428  87.447  67.532  1.00  0.00     0.009 A 
BRANCH   8  13
ATOM     13  O   UNL     1      73.834  89.419  68.400  1.00  0.00    -0.493 OA
ATOM     14  C   UNL     1      73.002  88.709  69.338  1.00  0.00     0.278 C 
ENDBRANCH   8  13
BRANCH   9  15
ATOM     15  O   UNL     1      75.991  90.822  67.314  1.00  0.00    -0.504 OA
ATOM     16  H   UNL     1      76.076  90.982  66.371  1.00  0.00     0.293 HD
ENDBRANCH   9  15
ENDBRANCH   6   7
ENDBRANCH   3   6
ENDBRANCH   1   2
BRANCH   1  17
ATOM     17  C   UNL     1      74.526  82.809  65.604  1.00  0.00     0.010 C 
BRANCH  17  18
ATOM     18  C   UNL     1      73.929  81.377  65.518  1.00  0.00     0.001 C 
BRANCH  18  19
ATOM     19  C   UNL     1      72.959  81.185  64.323  1.00  0.00     0.000 C 
BRANCH  19  20
ATOM     20  C   UNL     1      71.498  80.916  64.787  1.00  0.00     0.003 C 
BRANCH  20  21
ATOM     21  C   UNL     1      70.507  82.106  64.573  1.00  0.00    -0.017 C 
ATOM     22  C   UNL     1      71.097  83.146  63.575  1.00  0.00     0.007 C 
ATOM     23  C   UNL     1      70.110  82.809  65.903  1.00  0.00     0.007 C 
ENDBRANCH  20  21
ENDBRANCH  19  20
ENDBRANCH  18  19
ENDBRANCH  17  18
ENDBRANCH   1  17
TORSDOF 10
ENDMDL
MODEL 6
REMARK VINA RESULT:    -5.400     13.171     15.547
REMARK INTER + INTRA:          -9.495
REMARK INTER:                  -8.470
REMARK INTRA:                  -1.024
REMARK UNBOUND:                -1.095
REMARK SMILES COc1cc(CNC(=O)CCCCCC(C)C)ccc1O
REMARK SMILES IDX 10 1 8 2 7 3 9 5 6 6 5 7 3 8 20 9 4 10 19 11 18 12 2 13 1 14
REMARK SMILES IDX 21 15 11 17 12 18 13 19 14 20 15 21 16 22 17 23
REMARK H PARENT 7 4 21 16
REMARK Flexibility Score: inf
ROOT
ATOM      1  C   UNL     1      97.930  78.227  81.062  1.00  0.00     0.100 C 
ENDROOT
BRANCH   1   2
ATOM      2  C   UNL     1      98.709  78.847  79.971  1.00  0.00     0.220 C 
ATOM      3  N   UNL     1      98.174  79.889  79.274  1.00  0.00    -0.352 N 
ATOM      4  H   UNL     1      97.203  80.082  79.476  1.00  0.00     0.163 HD
ATOM      5  O   UNL     1      99.868  78.427  79.735  1.00  0.00    -0.275 OA
BRANCH   3   6
ATOM      6  C   UNL     1      98.876  80.687  78.321  1.00  0.00     0.151 C 
BRANCH   6   7
ATOM      7  C   UNL     1      97.972  81.476  77.440  1.00  0.00    -0.025 A 
ATOM      8  C   UNL     1      97.401  82.365  75.220  1.00  0.00     0.160 A 
ATOM      9  C   UNL     1      96.217  82.921  75.749  1.00  0.00     0.157 A 
ATOM     10  C   UNL     1      98.280  81.662  76.071  1.00  0.00     0.056 A 
ATOM     11  C   UNL     1      95.915  82.764  77.115  1.00  0.00     0.050 A 
ATOM     12  C   UNL     1      96.782  82.043  77.952  1.00  0.00     0.009 A 
BRANCH   8  13
ATOM     13  O   UNL     1      97.724  82.523  73.897  1.00  0.00    -0.493 OA
ATOM     14  C   UNL     1      98.660  83.589  73.650  1.00  0.00     0.278 C 
ENDBRANCH   8  13
BRANCH   9  15
ATOM     15  O   UNL     1      95.367  83.600  74.940  1.00  0.00    -0.504 OA
ATOM     16  H   UNL     1      94.562  83.806  75.421  1.00  0.00     0.293 HD
ENDBRANCH   9  15
ENDBRANCH   6   7
ENDBRANCH   3   6
ENDBRANCH   1   2
BRANCH   1  17
ATOM     17  C   UNL     1      96.709  79.065  81.531  1.00  0.00     0.010 C 
BRANCH  17  18
ATOM     18  C   UNL     1      96.319  78.737  82.998  1.00  0.00     0.001 C 
BRANCH  18  19
ATOM     19  C   UNL     1      96.335  79.976  83.932  1.00  0.00     0.000 C 
BRANCH  19  20
ATOM     20  C   UNL     1      97.387  81.033  83.489  1.00  0.00     0.003 C 
BRANCH  20  21
ATOM     21  C   UNL     1      96.805  82.445  83.154  1.00  0.00    -0.017 C 
ATOM     22  C   UNL     1      95.489  82.704  83.946  1.00  0.00     0.007 C 
ATOM     23  C   UNL     1      96.561  82.652  81.631  1.00  0.00     0.007 C 
ENDBRANCH  20  21
ENDBRANCH  19  20
ENDBRANCH  18  19
ENDBRANCH  17  18
ENDBRANCH   1  17
TORSDOF 10
ENDMDL
MODEL 7
REMARK VINA RESULT:    -5.385     13.369     15.516
REMARK INTER + INTRA:          -9.471
REMARK INTER:                  -8.819
REMARK INTRA:                  -0.652
REMARK UNBOUND:                -1.095
REMARK SMILES COc1cc(CNC(=O)CCCCCC(C)C)ccc1O
REMARK SMILES IDX 10 1 8 2 7 3 9 5 6 6 5 7 3 8 20 9 4 10 19 11 18 12 2 13 1 14
REMARK SMILES IDX 21 15 11 17 12 18 13 19 14 20 15 21 16 22 17 23
REMARK H PARENT 7 4 21 16
REMARK Flexibility Score: inf
ROOT
ATOM      1  C   UNL     1      97.077  79.152  81.603  1.00  0.00     0.100 C 
ENDROOT
BRANCH   1   2
ATOM      2  C   UNL     1      97.520  79.257  80.197  1.00  0.00     0.220 C 
ATOM      3  N   UNL     1      97.965  80.455  79.723  1.00  0.00    -0.352 N 
ATOM      4  H   UNL     1      97.833  81.236  80.350  1.00  0.00     0.163 HD
ATOM      5  O   UNL     1      97.516  78.228  79.479  1.00  0.00    -0.275 OA
BRANCH   3   6
ATOM      6  C   UNL     1      98.579  80.658  78.450  1.00  0.00     0.151 C 
BRANCH   6   7
ATOM      7  C   UNL     1      97.769  81.513  77.540  1.00  0.00    -0.025 A 
ATOM      8  C   UNL     1      97.407  82.531  75.331  1.00  0.00     0.160 A 
ATOM      9  C   UNL     1      96.194  83.088  75.789  1.00  0.00     0.157 A 
ATOM     10  C   UNL     1      98.196  81.764  76.215  1.00  0.00     0.056 A 
ATOM     11  C   UNL     1      95.773  82.867  77.114  1.00  0.00     0.050 A 
ATOM     12  C   UNL     1      96.552  82.082  77.981  1.00  0.00     0.009 A 
BRANCH   8  13
ATOM     13  O   UNL     1      97.844  82.750  74.051  1.00  0.00    -0.493 OA
ATOM     14  C   UNL     1      99.192  83.255  73.975  1.00  0.00     0.278 C 
ENDBRANCH   8  13
BRANCH   9  15
ATOM     15  O   UNL     1      95.429  83.829  74.949  1.00  0.00    -0.504 OA
ATOM     16  H   UNL     1      95.049  83.260  74.276  1.00  0.00     0.293 HD
ENDBRANCH   9  15
ENDBRANCH   6   7
ENDBRANCH   3   6
ENDBRANCH   1   2
BRANCH   1  17
ATOM     17  C   UNL     1      96.292  80.388  82.119  1.00  0.00     0.010 C 
BRANCH  17  18
ATOM     18  C   UNL     1      96.100  80.342  83.660  1.00  0.00     0.001 C 
BRANCH  18  19
ATOM     19  C   UNL     1      94.884  81.169  84.154  1.00  0.00     0.000 C 
BRANCH  19  20
ATOM     20  C   UNL     1      94.358  80.675  85.534  1.00  0.00     0.003 C 
BRANCH  20  21
ATOM     21  C   UNL     1      92.852  80.255  85.554  1.00  0.00    -0.017 C 
ATOM     22  C   UNL     1      92.680  78.782  85.081  1.00  0.00     0.007 C 
ATOM     23  C   UNL     1      91.950  81.197  84.706  1.00  0.00     0.007 C 
ENDBRANCH  20  21
ENDBRANCH  19  20
ENDBRANCH  18  19
ENDBRANCH  17  18
ENDBRANCH   1  17
TORSDOF 10
ENDMDL
MODEL 8
REMARK VINA RESULT:    -5.296      1.669      2.480
REMARK INTER + INTRA:          -9.332
REMARK INTER:                  -8.505
REMARK INTRA:                  -0.827
REMARK UNBOUND:                -1.095
REMARK SMILES COc1cc(CNC(=O)CCCCCC(C)C)ccc1O
REMARK SMILES IDX 10 1 8 2 7 3 9 5 6 6 5 7 3 8 20 9 4 10 19 11 18 12 2 13 1 14
REMARK SMILES IDX 21 15 11 17 12 18 13 19 14 20 15 21 16 22 17 23
REMARK H PARENT 7 4 21 16
REMARK Flexibility Score: inf
ROOT
ATOM      1  C   UNL     1      93.818  93.019  79.107  1.00  0.00     0.100 C 
ENDROOT
BRANCH   1   2
ATOM      2  C   UNL     1      95.018  93.197  79.951  1.00  0.00     0.220 C 
ATOM      3  N   UNL     1      95.879  94.219  79.683  1.00  0.00    -0.352 N 
ATOM      4  H   UNL     1      95.696  94.714  78.822  1.00  0.00     0.163 HD
ATOM      5  O   UNL     1      95.197  92.427  80.926  1.00  0.00    -0.275 OA
BRANCH   3   6
ATOM      6  C   UNL     1      96.974  94.610  80.512  1.00  0.00     0.151 C 
BRANCH   6   7
ATOM      7  C   UNL     1      97.000  96.070  80.795  1.00  0.00    -0.025 A 
ATOM      8  C   UNL     1      96.858  97.937  82.389  1.00  0.00     0.160 A 
ATOM      9  C   UNL     1      97.118  98.848  81.343  1.00  0.00     0.157 A 
ATOM     10  C   UNL     1      96.782  96.557  82.106  1.00  0.00     0.056 A 
ATOM     11  C   UNL     1      97.309  98.377  80.031  1.00  0.00     0.050 A 
ATOM     12  C   UNL     1      97.257  97.000  79.759  1.00  0.00     0.009 A 
BRANCH   8  13
ATOM     13  O   UNL     1      96.649  98.376  83.671  1.00  0.00    -0.493 OA
ATOM     14  C   UNL     1      97.082  97.446  84.682  1.00  0.00     0.278 C 
ENDBRANCH   8  13
BRANCH   9  15
ATOM     15  O   UNL     1      97.190 100.177  81.605  1.00  0.00    -0.504 OA
ATOM     16  H   UNL     1      96.712 100.370  82.415  1.00  0.00     0.293 HD
ENDBRANCH   9  15
ENDBRANCH   6   7
ENDBRANCH   3   6
ENDBRANCH   1   2
BRANCH   1  17
ATOM     17  C   UNL     1      93.479  94.242  78.213  1.00  0.00     0.010 C 
BRANCH  17  18
ATOM     18  C   UNL     1      92.008  94.198  77.716  1.00  0.00     0.001 C 
BRANCH  18  19
ATOM     19  C   UNL     1      91.787  94.950  76.377  1.00  0.00     0.000 C 
BRANCH  19  20
ATOM     20  C   UNL     1      92.780  96.135  76.196  1.00  0.00     0.003 C 
BRANCH  20  21
ATOM     21  C   UNL     1      93.678  96.055  74.919  1.00  0.00    -0.017 C 
ATOM     22  C   UNL     1      94.293  94.633  74.761  1.00  0.00     0.007 C 
ATOM     23  C   UNL     1      94.804  97.129  74.903  1.00  0.00     0.007 C 
ENDBRANCH  20  21
ENDBRANCH  19  20
ENDBRANCH  18  19
ENDBRANCH  17  18
ENDBRANCH   1  17
TORSDOF 10
ENDMDL
MODEL 9
REMARK VINA RESULT:    -5.150     13.282     15.946
REMARK INTER + INTRA:          -9.105
REMARK INTER:                  -8.360
REMARK INTRA:                  -0.745
REMARK UNBOUND:                -1.095
REMARK SMILES COc1cc(CNC(=O)CCCCCC(C)C)ccc1O
REMARK SMILES IDX 10 1 8 2 7 3 9 5 6 6 5 7 3 8 20 9 4 10 19 11 18 12 2 13 1 14
REMARK SMILES IDX 21 15 11 17 12 18 13 19 14 20 15 21 16 22 17 23
REMARK H PARENT 7 4 21 16
REMARK Flexibility Score: inf
ROOT
ATOM      1  C   UNL     1      95.926  82.657  77.508  1.00  0.00     0.100 C 
ENDROOT
BRANCH   1   2
ATOM      2  C   UNL     1      96.093  82.965  76.073  1.00  0.00     0.220 C 
ATOM      3  N   UNL     1      96.756  82.083  75.272  1.00  0.00    -0.352 N 
ATOM      4  H   UNL     1      97.211  81.325  75.760  1.00  0.00     0.163 HD
ATOM      5  O   UNL     1      95.582  84.014  75.611  1.00  0.00    -0.275 OA
BRANCH   3   6
ATOM      6  C   UNL     1      96.840  82.168  73.849  1.00  0.00     0.151 C 
BRANCH   6   7
ATOM      7  C   UNL     1      98.196  82.540  73.365  1.00  0.00    -0.025 A 
ATOM      8  C   UNL     1     100.302  81.937  72.247  1.00  0.00     0.160 A 
ATOM      9  C   UNL     1     100.752  83.267  72.382  1.00  0.00     0.157 A 
ATOM     10  C   UNL     1      99.035  81.578  72.756  1.00  0.00     0.056 A 
ATOM     11  C   UNL     1      99.937  84.227  73.010  1.00  0.00     0.050 A 
ATOM     12  C   UNL     1      98.667  83.868  73.493  1.00  0.00     0.009 A 
BRANCH   8  13
ATOM     13  O   UNL     1     101.088  80.983  71.657  1.00  0.00    -0.493 OA
ATOM     14  C   UNL     1     100.417  79.727  71.441  1.00  0.00     0.278 C 
ENDBRANCH   8  13
BRANCH   9  15
ATOM     15  O   UNL     1     101.969  83.623  71.899  1.00  0.00    -0.504 OA
ATOM     16  H   UNL     1     101.998  83.459  70.953  1.00  0.00     0.293 HD
ENDBRANCH   9  15
ENDBRANCH   6   7
ENDBRANCH   3   6
ENDBRANCH   1   2
BRANCH   1  17
ATOM     17  C   UNL     1      97.000  81.695  78.084  1.00  0.00     0.010 C 
BRANCH  17  18
ATOM     18  C   UNL     1      97.286  81.988  79.583  1.00  0.00     0.001 C 
BRANCH  18  19
ATOM     19  C   UNL     1      97.349  80.709  80.460  1.00  0.00     0.000 C 
BRANCH  19  20
ATOM     20  C   UNL     1      98.810  80.228  80.694  1.00  0.00     0.003 C 
BRANCH  20  21
ATOM     21  C   UNL     1      99.640  79.978  79.393  1.00  0.00    -0.017 C 
ATOM     22  C   UNL     1      99.256  78.616  78.743  1.00  0.00     0.007 C 
ATOM     23  C   UNL     1     101.176  80.039  79.634  1.00  0.00     0.007 C 
ENDBRANCH  20  21
ENDBRANCH  19  20
ENDBRANCH  18  19
ENDBRANCH  17  18
ENDBRANCH   1  17
TORSDOF 10
ENDMDL
MODEL 10
REMARK VINA RESULT:    -5.017      3.515      5.358
REMARK INTER + INTRA:          -8.898
REMARK INTER:                  -7.871
REMARK INTRA:                  -1.027
REMARK UNBOUND:                -1.095
REMARK SMILES COc1cc(CNC(=O)CCCCCC(C)C)ccc1O
REMARK SMILES IDX 10 1 8 2 7 3 9 5 6 6 5 7 3 8 20 9 4 10 19 11 18 12 2 13 1 14
REMARK SMILES IDX 21 15 11 17 12 18 13 19 14 20 15 21 16 22 17 23
REMARK H PARENT 7 4 21 16
REMARK Flexibility Score: inf
ROOT
ATOM      1  C   UNL     1      93.775  95.013  74.940  1.00  0.00     0.100 C 
ENDROOT
BRANCH   1   2
ATOM      2  C   UNL     1      93.328  94.331  76.172  1.00  0.00     0.220 C 
ATOM      3  N   UNL     1      94.257  93.843  77.042  1.00  0.00    -0.352 N 
ATOM      4  H   UNL     1      95.210  93.871  76.706  1.00  0.00     0.163 HD
ATOM      5  O   UNL     1      92.099  94.251  76.413  1.00  0.00    -0.275 OA
BRANCH   3   6
ATOM      6  C   UNL     1      93.973  93.321  78.341  1.00  0.00     0.151 C 
BRANCH   6   7
ATOM      7  C   UNL     1      95.081  93.534  79.311  1.00  0.00    -0.025 A 
ATOM      8  C   UNL     1      96.996  94.856  80.105  1.00  0.00     0.160 A 
ATOM      9  C   UNL     1      97.149  93.975  81.196  1.00  0.00     0.157 A 
ATOM     10  C   UNL     1      95.976  94.619  79.159  1.00  0.00     0.056 A 
ATOM     11  C   UNL     1      96.282  92.877  81.342  1.00  0.00     0.050 A 
ATOM     12  C   UNL     1      95.253  92.661  80.411  1.00  0.00     0.009 A 
BRANCH   8  13
ATOM     13  O   UNL     1      97.842  95.920  79.934  1.00  0.00    -0.493 OA
ATOM     14  C   UNL     1      97.364  97.145  80.522  1.00  0.00     0.278 C 
ENDBRANCH   8  13
BRANCH   9  15
ATOM     15  O   UNL     1      98.128  94.193  82.110  1.00  0.00    -0.504 OA
ATOM     16  H   UNL     1      98.290  95.136  82.188  1.00  0.00     0.293 HD
ENDBRANCH   9  15
ENDBRANCH   6   7
ENDBRANCH   3   6
ENDBRANCH   1   2
BRANCH   1  17
ATOM     17  C   UNL     1      93.519  96.544  74.930  1.00  0.00     0.010 C 
BRANCH  17  18
ATOM     18  C   UNL     1      94.523  97.286  74.005  1.00  0.00     0.001 C 
BRANCH  18  19
ATOM     19  C   UNL     1      95.941  96.655  74.002  1.00  0.00     0.000 C 
BRANCH  19  20
ATOM     20  C   UNL     1      97.063  97.728  74.108  1.00  0.00     0.003 C 
BRANCH  20  21
ATOM     21  C   UNL     1      97.881  97.697  75.440  1.00  0.00    -0.017 C 
ATOM     22  C   UNL     1      99.312  97.132  75.199  1.00  0.00     0.007 C 
ATOM     23  C   UNL     1      97.172  96.892  76.567  1.00  0.00     0.007 C 
ENDBRANCH  20  21
ENDBRANCH  19  20
ENDBRANCH  18  19
ENDBRANCH  17  18
ENDBRANCH   1  17
TORSDOF 10
ENDMDL
