MODEL 1
REMARK VINA RESULT:    -6.241      0.000      0.000
REMARK INTER + INTRA:         -10.816
REMARK INTER:                 -10.071
REMARK INTRA:                  -0.745
REMARK UNBOUND:                -0.745
REMARK SMILES COc1cc(CNC(=O)CCCCCCC(C)C)ccc1O
REMARK SMILES IDX 11 1 10 2 8 3 7 4 9 6 6 7 5 8 3 9 21 10 4 11 20 12 19 13
REMARK SMILES IDX 2 14 1 15 22 16 12 18 13 19 14 20 15 21 16 22 17 23 18 24
REMARK H PARENT 7 5 22 17
REMARK Flexibility Score: inf
ROOT
ATOM      1  C   UNL     1      93.456  97.998  74.129  1.00  0.00     0.010 C 
ENDROOT
BRANCH   1   2
ATOM      2  C   UNL     1      94.673  98.176  73.180  1.00  0.00     0.100 C 
BRANCH   2   3
ATOM      3  C   UNL     1      94.319  98.802  71.886  1.00  0.00     0.220 C 
ATOM      4  N   UNL     1      93.367  99.778  71.830  1.00  0.00    -0.352 N 
ATOM      5  H   UNL     1      92.922  99.983  72.713  1.00  0.00     0.163 HD
ATOM      6  O   UNL     1      94.929  98.433  70.853  1.00  0.00    -0.275 OA
BRANCH   4   7
ATOM      7  C   UNL     1      92.985 100.493  70.650  1.00  0.00     0.151 C 
BRANCH   7   8
ATOM      8  C   UNL     1      91.732  99.978  70.033  1.00  0.00    -0.025 A 
ATOM      9  C   UNL     1      90.319  99.639  68.049  1.00  0.00     0.160 A 
ATOM     10  C   UNL     1      89.365  98.963  68.841  1.00  0.00     0.157 A 
ATOM     11  C   UNL     1      91.484 100.157  68.653  1.00  0.00     0.056 A 
ATOM     12  C   UNL     1      89.582  98.813  70.223  1.00  0.00     0.050 A 
ATOM     13  C   UNL     1      90.761  99.308  70.814  1.00  0.00     0.009 A 
BRANCH   9  14
ATOM     14  O   UNL     1      90.100  99.824  66.711  1.00  0.00    -0.493 OA
ATOM     15  C   UNL     1      90.963 100.807  66.112  1.00  0.00     0.278 C 
ENDBRANCH   9  14
BRANCH  10  16
ATOM     16  O   UNL     1      88.234  98.455  68.286  1.00  0.00    -0.504 OA
ATOM     17  H   UNL     1      87.613  98.224  68.981  1.00  0.00     0.293 HD
ENDBRANCH  10  16
ENDBRANCH   7   8
ENDBRANCH   4   7
ENDBRANCH   2   3
ENDBRANCH   1   2
BRANCH   1  18
ATOM     18  C   UNL     1      93.655  96.821  75.125  1.00  0.00     0.001 C 
BRANCH  18  19
ATOM     19  C   UNL     1      94.395  95.599  74.511  1.00  0.00     0.000 C 
BRANCH  19  20
ATOM     20  C   UNL     1      94.424  94.395  75.494  1.00  0.00     0.000 C 
BRANCH  20  21
ATOM     21  C   UNL     1      93.023  93.811  75.828  1.00  0.00     0.003 C 
BRANCH  21  22
ATOM     22  C   UNL     1      92.448  94.252  77.214  1.00  0.00    -0.017 C 
ATOM     23  C   UNL     1      92.975  93.322  78.342  1.00  0.00     0.007 C 
ATOM     24  C   UNL     1      90.893  94.327  77.250  1.00  0.00     0.007 C 
ENDBRANCH  21  22
ENDBRANCH  20  21
ENDBRANCH  19  20
ENDBRANCH  18  19
ENDBRANCH   1  18
TORSDOF 11
ENDMDL
MODEL 2
REMARK VINA RESULT:    -5.887      3.022      8.100
REMARK INTER + INTRA:         -10.246
REMARK INTER:                  -9.222
REMARK INTRA:                  -1.024
REMARK UNBOUND:                -0.745
REMARK SMILES COc1cc(CNC(=O)CCCCCCC(C)C)ccc1O
REMARK SMILES IDX 11 1 10 2 8 3 7 4 9 6 6 7 5 8 3 9 21 10 4 11 20 12 19 13
REMARK SMILES IDX 2 14 1 15 22 16 12 18 13 19 14 20 15 21 16 22 17 23 18 24
REMARK H PARENT 7 5 22 17
REMARK Flexibility Score: inf
ROOT
ATOM      1  C   UNL     1      89.490  99.668  70.756  1.00  0.00     0.010 C 
ENDROOT
BRANCH   1   2
ATOM      2  C   UNL     1      90.199 100.865  70.063  1.00  0.00     0.100 C 
BRANCH   2   3
ATOM      3  C   UNL     1      91.527 101.172  70.641  1.00  0.00     0.220 C 
ATOM      4  N   UNL     1      92.015 100.432  71.677  1.00  0.00    -0.352 N 
ATOM      5  H   UNL     1      91.387  99.720  72.019  1.00  0.00     0.163 HD
ATOM      6  O   UNL     1      92.198 102.108  70.141  1.00  0.00    -0.275 OA
BRANCH   4   7
ATOM      7  C   UNL     1      93.304 100.599  72.276  1.00  0.00     0.151 C 
BRANCH   7   8
ATOM      8  C   UNL     1      93.924  99.314  72.703  1.00  0.00    -0.025 A 
ATOM      9  C   UNL     1      95.632  97.571  72.401  1.00  0.00     0.160 A 
ATOM     10  C   UNL     1      95.139  96.889  73.536  1.00  0.00     0.157 A 
ATOM     11  C   UNL     1      95.010  98.766  71.983  1.00  0.00     0.056 A 
ATOM     12  C   UNL     1      94.034  97.404  74.237  1.00  0.00     0.050 A 
ATOM     13  C   UNL     1      93.437  98.614  73.831  1.00  0.00     0.009 A 
BRANCH   9  14
ATOM     14  O   UNL     1      96.681  97.057  71.689  1.00  0.00    -0.493 OA
ATOM     15  C   UNL     1      96.292  96.435  70.451  1.00  0.00     0.278 C 
ENDBRANCH   9  14
BRANCH  10  16
ATOM     16  O   UNL     1      95.718  95.735  73.960  1.00  0.00    -0.504 OA
ATOM     17  H   UNL     1      96.642  95.896  74.163  1.00  0.00     0.293 HD
ENDBRANCH  10  16
ENDBRANCH   7   8
ENDBRANCH   4   7
ENDBRANCH   2   3
ENDBRANCH   1   2
BRANCH   1  18
ATOM     18  C   UNL     1      89.911  98.302  70.144  1.00  0.00     0.001 C 
BRANCH  18  19
ATOM     19  C   UNL     1      90.324  98.386  68.648  1.00  0.00     0.000 C 
BRANCH  19  20
ATOM     20  C   UNL     1      89.148  97.998  67.708  1.00  0.00     0.000 C 
BRANCH  20  21
ATOM     21  C   UNL     1      88.882  99.019  66.567  1.00  0.00     0.003 C 
BRANCH  21  22
ATOM     22  C   UNL     1      87.989 100.235  66.978  1.00  0.00    -0.017 C 
ATOM     23  C   UNL     1      86.569 100.102  66.358  1.00  0.00     0.007 C 
ATOM     24  C   UNL     1      88.612 101.617  66.620  1.00  0.00     0.007 C 
ENDBRANCH  21  22
ENDBRANCH  20  21
ENDBRANCH  19  20
ENDBRANCH  18  19
ENDBRANCH   1  18
TORSDOF 11
ENDMDL
MODEL 3
REMARK VINA RESULT:    -5.847     15.860     17.951
REMARK INTER + INTRA:         -10.181
REMARK INTER:                  -9.357
REMARK INTRA:                  -0.824
REMARK UNBOUND:                -0.745
REMARK SMILES COc1cc(CNC(=O)CCCCCCC(C)C)ccc1O
REMARK SMILES IDX 11 1 10 2 8 3 7 4 9 6 6 7 5 8 3 9 21 10 4 11 20 12 19 13
REMARK SMILES IDX 2 14 1 15 22 16 12 18 13 19 14 20 15 21 16 22 17 23 18 24
REMARK H PARENT 7 5 22 17
REMARK Flexibility Score: inf
ROOT
ATOM      1  C   UNL     1      96.524  80.900  77.009  1.00  0.00     0.010 C 
ENDROOT
BRANCH   1   2
ATOM      2  C   UNL     1      96.027  82.365  77.161  1.00  0.00     0.100 C 
BRANCH   2   3
ATOM      3  C   UNL     1      96.316  83.206  75.977  1.00  0.00     0.220 C 
ATOM      4  N   UNL     1      97.324  82.869  75.122  1.00  0.00    -0.352 N 
ATOM      5  H   UNL     1      97.854  82.054  75.395  1.00  0.00     0.163 HD
ATOM      6  O   UNL     1      95.599  84.215  75.767  1.00  0.00    -0.275 OA
BRANCH   4   7
ATOM      7  C   UNL     1      97.657  83.571  73.920  1.00  0.00     0.151 C 
BRANCH   7   8
ATOM      8  C   UNL     1      99.098  83.471  73.561  1.00  0.00    -0.025 A 
ATOM      9  C   UNL     1     101.277  82.353  73.789  1.00  0.00     0.160 A 
ATOM     10  C   UNL     1     101.836  83.247  72.851  1.00  0.00     0.157 A 
ATOM     11  C   UNL     1      99.919  82.484  74.151  1.00  0.00     0.056 A 
ATOM     12  C   UNL     1     101.039  84.259  72.286  1.00  0.00     0.050 A 
ATOM     13  C   UNL     1      99.677  84.365  72.630  1.00  0.00     0.009 A 
BRANCH   9  14
ATOM     14  O   UNL     1     102.053  81.390  74.374  1.00  0.00    -0.493 OA
ATOM     15  C   UNL     1     101.347  80.575  75.327  1.00  0.00     0.278 C 
ENDBRANCH   9  14
BRANCH  10  16
ATOM     16  O   UNL     1     103.141  83.146  72.485  1.00  0.00    -0.504 OA
ATOM     17  H   UNL     1     103.677  83.702  73.055  1.00  0.00     0.293 HD
ENDBRANCH  10  16
ENDBRANCH   7   8
ENDBRANCH   4   7
ENDBRANCH   2   3
ENDBRANCH   1   2
BRANCH   1  18
ATOM     18  C   UNL     1      97.468  80.477  78.171  1.00  0.00     0.001 C 
BRANCH  18  19
ATOM     19  C   UNL     1      97.928  81.662  79.067  1.00  0.00     0.000 C 
BRANCH  19  20
ATOM     20  C   UNL     1      97.739  81.343  80.577  1.00  0.00     0.000 C 
BRANCH  20  21
ATOM     21  C   UNL     1      96.650  82.201  81.278  1.00  0.00     0.003 C 
BRANCH  21  22
ATOM     22  C   UNL     1      96.830  82.343  82.825  1.00  0.00    -0.017 C 
ATOM     23  C   UNL     1      97.760  81.223  83.369  1.00  0.00     0.007 C 
ATOM     24  C   UNL     1      95.486  82.366  83.611  1.00  0.00     0.007 C 
ENDBRANCH  21  22
ENDBRANCH  20  21
ENDBRANCH  19  20
ENDBRANCH  18  19
ENDBRANCH   1  18
TORSDOF 11
ENDMDL
MODEL 4
REMARK VINA RESULT:    -5.646      2.669      9.101
REMARK INTER + INTRA:          -9.857
REMARK INTER:                  -9.109
REMARK INTRA:                  -0.748
REMARK UNBOUND:                -0.745
REMARK SMILES COc1cc(CNC(=O)CCCCCCC(C)C)ccc1O
REMARK SMILES IDX 11 1 10 2 8 3 7 4 9 6 6 7 5 8 3 9 21 10 4 11 20 12 19 13
REMARK SMILES IDX 2 14 1 15 22 16 12 18 13 19 14 20 15 21 16 22 17 23 18 24
REMARK H PARENT 7 5 22 17
REMARK Flexibility Score: inf
ROOT
ATOM      1  C   UNL     1      90.030  98.268  70.249  1.00  0.00     0.010 C 
ENDROOT
BRANCH   1   2
ATOM      2  C   UNL     1      90.584  99.546  70.938  1.00  0.00     0.100 C 
BRANCH   2   3
ATOM      3  C   UNL     1      92.053  99.524  71.117  1.00  0.00     0.220 C 
ATOM      4  N   UNL     1      92.599  99.705  72.354  1.00  0.00    -0.352 N 
ATOM      5  H   UNL     1      91.930  99.891  73.086  1.00  0.00     0.163 HD
ATOM      6  O   UNL     1      92.778  99.312  70.114  1.00  0.00    -0.275 OA
BRANCH   4   7
ATOM      7  C   UNL     1      93.997  99.646  72.656  1.00  0.00     0.151 C 
BRANCH   7   8
ATOM      8  C   UNL     1      94.354  98.523  73.566  1.00  0.00    -0.025 A 
ATOM      9  C   UNL     1      96.051  97.235  74.796  1.00  0.00     0.160 A 
ATOM     10  C   UNL     1      95.038  96.412  75.335  1.00  0.00     0.157 A 
ATOM     11  C   UNL     1      95.704  98.270  73.902  1.00  0.00     0.056 A 
ATOM     12  C   UNL     1      93.695  96.629  74.978  1.00  0.00     0.050 A 
ATOM     13  C   UNL     1      93.353  97.683  74.108  1.00  0.00     0.009 A 
BRANCH   9  14
ATOM     14  O   UNL     1      97.364  97.008  75.106  1.00  0.00    -0.493 OA
ATOM     15  C   UNL     1      98.237  98.103  74.772  1.00  0.00     0.278 C 
ENDBRANCH   9  14
BRANCH  10  16
ATOM     16  O   UNL     1      95.344  95.407  76.197  1.00  0.00    -0.504 OA
ATOM     17  H   UNL     1      94.938  95.582  77.049  1.00  0.00     0.293 HD
ENDBRANCH  10  16
ENDBRANCH   7   8
ENDBRANCH   4   7
ENDBRANCH   2   3
ENDBRANCH   1   2
BRANCH   1  18
ATOM     18  C   UNL     1      89.159  98.603  69.005  1.00  0.00     0.001 C 
BRANCH  18  19
ATOM     19  C   UNL     1      89.195 100.104  68.600  1.00  0.00     0.000 C 
BRANCH  19  20
ATOM     20  C   UNL     1      89.743 100.294  67.158  1.00  0.00     0.000 C 
BRANCH  20  21
ATOM     21  C   UNL     1      88.924 101.289  66.290  1.00  0.00     0.003 C 
BRANCH  21  22
ATOM     22  C   UNL     1      87.418 101.415  66.692  1.00  0.00    -0.017 C 
ATOM     23  C   UNL     1      86.631 100.148  66.252  1.00  0.00     0.007 C 
ATOM     24  C   UNL     1      86.730 102.700  66.145  1.00  0.00     0.007 C 
ENDBRANCH  21  22
ENDBRANCH  20  21
ENDBRANCH  19  20
ENDBRANCH  18  19
ENDBRANCH   1  18
TORSDOF 11
ENDMDL
MODEL 5
REMARK VINA RESULT:    -5.572     16.316     19.369
REMARK INTER + INTRA:          -9.738
REMARK INTER:                  -8.998
REMARK INTRA:                  -0.739
REMARK UNBOUND:                -0.745
REMARK SMILES COc1cc(CNC(=O)CCCCCCC(C)C)ccc1O
REMARK SMILES IDX 11 1 10 2 8 3 7 4 9 6 6 7 5 8 3 9 21 10 4 11 20 12 19 13
REMARK SMILES IDX 2 14 1 15 22 16 12 18 13 19 14 20 15 21 16 22 17 23 18 24
REMARK H PARENT 7 5 22 17
REMARK Flexibility Score: inf
ROOT
ATOM      1  C   UNL     1      95.731  80.102  83.467  1.00  0.00     0.010 C 
ENDROOT
BRANCH   1   2
ATOM      2  C   UNL     1      96.646  81.118  82.729  1.00  0.00     0.100 C 
BRANCH   2   3
ATOM      3  C   UNL     1      97.097  80.642  81.402  1.00  0.00     0.220 C 
ATOM      4  N   UNL     1      97.610  81.520  80.492  1.00  0.00    -0.352 N 
ATOM      5  H   UNL     1      97.605  82.485  80.789  1.00  0.00     0.163 HD
ATOM      6  O   UNL     1      97.019  79.416  81.144  1.00  0.00    -0.275 OA
BRANCH   4   7
ATOM      7  C   UNL     1      98.129  81.168  79.205  1.00  0.00     0.151 C 
BRANCH   7   8
ATOM      8  C   UNL     1      97.456  81.882  78.086  1.00  0.00    -0.025 A 
ATOM      9  C   UNL     1      97.460  82.677  75.758  1.00  0.00     0.160 A 
ATOM     10  C   UNL     1      96.162  83.203  75.933  1.00  0.00     0.157 A 
ATOM     11  C   UNL     1      98.104  82.038  76.839  1.00  0.00     0.056 A 
ATOM     12  C   UNL     1      95.522  83.089  77.181  1.00  0.00     0.050 A 
ATOM     13  C   UNL     1      96.158  82.424  78.247  1.00  0.00     0.009 A 
BRANCH   9  14
ATOM     14  O   UNL     1      98.107  82.818  74.561  1.00  0.00    -0.493 OA
ATOM     15  C   UNL     1      97.864  81.739  73.640  1.00  0.00     0.278 C 
ENDBRANCH   9  14
BRANCH  10  16
ATOM     16  O   UNL     1      95.519  83.825  74.910  1.00  0.00    -0.504 OA
ATOM     17  H   UNL     1      94.572  83.802  75.067  1.00  0.00     0.293 HD
ENDBRANCH  10  16
ENDBRANCH   7   8
ENDBRANCH   4   7
ENDBRANCH   2   3
ENDBRANCH   1   2
BRANCH   1  18
ATOM     18  C   UNL     1      95.652  80.386  84.994  1.00  0.00     0.001 C 
BRANCH  18  19
ATOM     19  C   UNL     1      94.886  79.296  85.795  1.00  0.00     0.000 C 
BRANCH  19  20
ATOM     20  C   UNL     1      93.638  78.788  85.019  1.00  0.00     0.000 C 
BRANCH  20  21
ATOM     21  C   UNL     1      92.305  78.905  85.810  1.00  0.00     0.003 C 
BRANCH  21  22
ATOM     22  C   UNL     1      91.307  79.968  85.247  1.00  0.00    -0.017 C 
ATOM     23  C   UNL     1      90.456  79.361  84.096  1.00  0.00     0.007 C 
ATOM     24  C   UNL     1      91.994  81.285  84.780  1.00  0.00     0.007 C 
ENDBRANCH  21  22
ENDBRANCH  20  21
ENDBRANCH  19  20
ENDBRANCH  18  19
ENDBRANCH   1  18
TORSDOF 11
ENDMDL
MODEL 6
REMARK VINA RESULT:    -5.485     29.956     32.948
REMARK INTER + INTRA:          -9.597
REMARK INTER:                  -8.487
REMARK INTRA:                  -1.109
REMARK UNBOUND:                -0.745
REMARK SMILES COc1cc(CNC(=O)CCCCCCC(C)C)ccc1O
REMARK SMILES IDX 11 1 10 2 8 3 7 4 9 6 6 7 5 8 3 9 21 10 4 11 20 12 19 13
REMARK SMILES IDX 2 14 1 15 22 16 12 18 13 19 14 20 15 21 16 22 17 23 18 24
REMARK H PARENT 7 5 22 17
REMARK Flexibility Score: inf
ROOT
ATOM      1  C   UNL     1      80.553  65.479  73.698  1.00  0.00     0.010 C 
ENDROOT
BRANCH   1   2
ATOM      2  C   UNL     1      80.053  65.545  75.167  1.00  0.00     0.100 C 
BRANCH   2   3
ATOM      3  C   UNL     1      81.130  65.840  76.139  1.00  0.00     0.220 C 
ATOM      4  N   UNL     1      82.363  65.273  75.994  1.00  0.00    -0.352 N 
ATOM      5  H   UNL     1      82.442  64.630  75.220  1.00  0.00     0.163 HD
ATOM      6  O   UNL     1      80.891  66.637  77.079  1.00  0.00    -0.275 OA
BRANCH   4   7
ATOM      7  C   UNL     1      83.493  65.528  76.835  1.00  0.00     0.151 C 
BRANCH   7   8
ATOM      8  C   UNL     1      84.115  66.859  76.594  1.00  0.00    -0.025 A 
ATOM      9  C   UNL     1      85.088  68.508  75.050  1.00  0.00     0.160 A 
ATOM     10  C   UNL     1      85.260  69.412  76.120  1.00  0.00     0.157 A 
ATOM     11  C   UNL     1      84.535  67.234  75.298  1.00  0.00     0.056 A 
ATOM     12  C   UNL     1      84.882  69.037  77.422  1.00  0.00     0.050 A 
ATOM     13  C   UNL     1      84.303  67.774  77.657  1.00  0.00     0.009 A 
BRANCH   9  14
ATOM     14  O   UNL     1      85.489  68.848  73.786  1.00  0.00    -0.493 OA
ATOM     15  C   UNL     1      86.817  68.401  73.459  1.00  0.00     0.278 C 
ENDBRANCH   9  14
BRANCH  10  16
ATOM     16  O   UNL     1      85.791  70.646  75.911  1.00  0.00    -0.504 OA
ATOM     17  H   UNL     1      85.688  71.176  76.705  1.00  0.00     0.293 HD
ENDBRANCH  10  16
ENDBRANCH   7   8
ENDBRANCH   4   7
ENDBRANCH   2   3
ENDBRANCH   1   2
BRANCH   1  18
ATOM     18  C   UNL     1      81.106  66.847  73.204  1.00  0.00     0.001 C 
BRANCH  18  19
ATOM     19  C   UNL     1      82.491  66.748  72.506  1.00  0.00     0.000 C 
BRANCH  19  20
ATOM     20  C   UNL     1      82.395  65.994  71.149  1.00  0.00     0.000 C 
BRANCH  20  21
ATOM     21  C   UNL     1      82.572  66.904  69.901  1.00  0.00     0.003 C 
BRANCH  21  22
ATOM     22  C   UNL     1      81.432  66.777  68.838  1.00  0.00    -0.017 C 
ATOM     23  C   UNL     1      80.479  65.603  69.199  1.00  0.00     0.007 C 
ATOM     24  C   UNL     1      81.953  66.627  67.378  1.00  0.00     0.007 C 
ENDBRANCH  21  22
ENDBRANCH  20  21
ENDBRANCH  19  20
ENDBRANCH  18  19
ENDBRANCH   1  18
TORSDOF 11
ENDMDL
MODEL 7
REMARK VINA RESULT:    -5.429      7.921     12.166
REMARK INTER + INTRA:          -9.506
REMARK INTER:                  -8.567
REMARK INTRA:                  -0.939
REMARK UNBOUND:                -0.745
REMARK SMILES COc1cc(CNC(=O)CCCCCCC(C)C)ccc1O
REMARK SMILES IDX 11 1 10 2 8 3 7 4 9 6 6 7 5 8 3 9 21 10 4 11 20 12 19 13
REMARK SMILES IDX 2 14 1 15 22 16 12 18 13 19 14 20 15 21 16 22 17 23 18 24
REMARK H PARENT 7 5 22 17
REMARK Flexibility Score: inf
ROOT
ATOM      1  C   UNL     1      96.546  93.834  79.050  1.00  0.00     0.010 C 
ENDROOT
BRANCH   1   2
ATOM      2  C   UNL     1      95.998  95.160  79.648  1.00  0.00     0.100 C 
BRANCH   2   3
ATOM      3  C   UNL     1      96.892  95.756  80.665  1.00  0.00     0.220 C 
ATOM      4  N   UNL     1      96.642  97.004  81.157  1.00  0.00    -0.352 N 
ATOM      5  H   UNL     1      95.849  97.469  80.740  1.00  0.00     0.163 HD
ATOM      6  O   UNL     1      97.866  95.081  81.080  1.00  0.00    -0.275 OA
BRANCH   4   7
ATOM      7  C   UNL     1      97.400  97.656  82.180  1.00  0.00     0.151 C 
BRANCH   7   8
ATOM      8  C   UNL     1      96.676  98.792  82.814  1.00  0.00    -0.025 A 
ATOM      9  C   UNL     1      96.048 100.062  84.824  1.00  0.00     0.160 A 
ATOM     10  C   UNL     1      95.334 100.980  84.024  1.00  0.00     0.157 A 
ATOM     11  C   UNL     1      96.696  98.966  84.216  1.00  0.00     0.056 A 
ATOM     12  C   UNL     1      95.274 100.796  82.631  1.00  0.00     0.050 A 
ATOM     13  C   UNL     1      95.948  99.716  82.027  1.00  0.00     0.009 A 
BRANCH   9  14
ATOM     14  O   UNL     1      96.080 100.210  86.184  1.00  0.00    -0.493 OA
ATOM     15  C   UNL     1      95.251  99.268  86.889  1.00  0.00     0.278 C 
ENDBRANCH   9  14
BRANCH  10  16
ATOM     16  O   UNL     1      94.699 102.044  84.583  1.00  0.00    -0.504 OA
ATOM     17  H   UNL     1      93.984 102.327  84.008  1.00  0.00     0.293 HD
ENDBRANCH  10  16
ENDBRANCH   7   8
ENDBRANCH   4   7
ENDBRANCH   2   3
ENDBRANCH   1   2
BRANCH   1  18
ATOM     18  C   UNL     1      95.413  92.938  78.474  1.00  0.00     0.001 C 
BRANCH  18  19
ATOM     19  C   UNL     1      93.997  93.297  79.007  1.00  0.00     0.000 C 
BRANCH  19  20
ATOM     20  C   UNL     1      92.933  93.261  77.874  1.00  0.00     0.000 C 
BRANCH  20  21
ATOM     21  C   UNL     1      93.360  93.998  76.575  1.00  0.00     0.003 C 
BRANCH  21  22
ATOM     22  C   UNL     1      93.295  95.558  76.661  1.00  0.00    -0.017 C 
ATOM     23  C   UNL     1      91.865  96.022  77.060  1.00  0.00     0.007 C 
ATOM     24  C   UNL     1      93.757  96.277  75.359  1.00  0.00     0.007 C 
ENDBRANCH  21  22
ENDBRANCH  20  21
ENDBRANCH  19  20
ENDBRANCH  18  19
ENDBRANCH   1  18
TORSDOF 11
ENDMDL
MODEL 8
REMARK VINA RESULT:    -5.393      2.780      9.417
REMARK INTER + INTRA:          -9.449
REMARK INTER:                  -8.891
REMARK INTRA:                  -0.558
REMARK UNBOUND:                -0.745
REMARK SMILES COc1cc(CNC(=O)CCCCCCC(C)C)ccc1O
REMARK SMILES IDX 11 1 10 2 8 3 7 4 9 6 6 7 5 8 3 9 21 10 4 11 20 12 19 13
REMARK SMILES IDX 2 14 1 15 22 16 12 18 13 19 14 20 15 21 16 22 17 23 18 24
REMARK H PARENT 7 5 22 17
REMARK Flexibility Score: inf
ROOT
ATOM      1  C   UNL     1      90.251  98.932  68.057  1.00  0.00     0.010 C 
ENDROOT
BRANCH   1   2
ATOM      2  C   UNL     1      89.476  98.790  69.395  1.00  0.00     0.100 C 
BRANCH   2   3
ATOM      3  C   UNL     1      90.117  99.505  70.522  1.00  0.00     0.220 C 
ATOM      4  N   UNL     1      91.430  99.285  70.820  1.00  0.00    -0.352 N 
ATOM      5  H   UNL     1      91.880  98.585  70.248  1.00  0.00     0.163 HD
ATOM      6  O   UNL     1      89.434 100.331  71.176  1.00  0.00    -0.275 OA
BRANCH   4   7
ATOM      7  C   UNL     1      92.168  99.958  71.844  1.00  0.00     0.151 C 
BRANCH   7   8
ATOM      8  C   UNL     1      93.406  99.235  72.247  1.00  0.00    -0.025 A 
ATOM      9  C   UNL     1      94.596  97.761  73.815  1.00  0.00     0.160 A 
ATOM     10  C   UNL     1      95.747  97.818  72.999  1.00  0.00     0.157 A 
ATOM     11  C   UNL     1      93.443  98.483  73.443  1.00  0.00     0.056 A 
ATOM     12  C   UNL     1      95.735  98.595  71.826  1.00  0.00     0.050 A 
ATOM     13  C   UNL     1      94.571  99.290  71.446  1.00  0.00     0.009 A 
BRANCH   9  14
ATOM     14  O   UNL     1      94.609  97.040  74.978  1.00  0.00    -0.493 OA
ATOM     15  C   UNL     1      93.958  95.761  74.875  1.00  0.00     0.278 C 
ENDBRANCH   9  14
BRANCH  10  16
ATOM     16  O   UNL     1      96.873  97.134  73.333  1.00  0.00    -0.504 OA
ATOM     17  H   UNL     1      97.018  97.201  74.279  1.00  0.00     0.293 HD
ENDBRANCH  10  16
ENDBRANCH   7   8
ENDBRANCH   4   7
ENDBRANCH   2   3
ENDBRANCH   1   2
BRANCH   1  18
ATOM     18  C   UNL     1      89.381  98.538  66.829  1.00  0.00     0.001 C 
BRANCH  18  19
ATOM     19  C   UNL     1      88.025  99.295  66.754  1.00  0.00     0.000 C 
BRANCH  19  20
ATOM     20  C   UNL     1      88.233 100.825  66.574  1.00  0.00     0.000 C 
BRANCH  20  21
ATOM     21  C   UNL     1      86.933 101.610  66.242  1.00  0.00     0.003 C 
BRANCH  21  22
ATOM     22  C   UNL     1      87.117 103.159  66.142  1.00  0.00    -0.017 C 
ATOM     23  C   UNL     1      87.917 103.692  67.364  1.00  0.00     0.007 C 
ATOM     24  C   UNL     1      85.778 103.939  65.986  1.00  0.00     0.007 C 
ENDBRANCH  21  22
ENDBRANCH  20  21
ENDBRANCH  19  20
ENDBRANCH  18  19
ENDBRANCH   1  18
TORSDOF 11
ENDMDL
MODEL 9
REMARK VINA RESULT:    -5.331     29.049     32.225
REMARK INTER + INTRA:          -9.349
REMARK INTER:                  -7.941
REMARK INTRA:                  -1.407
REMARK UNBOUND:                -0.745
REMARK SMILES COc1cc(CNC(=O)CCCCCCC(C)C)ccc1O
REMARK SMILES IDX 11 1 10 2 8 3 7 4 9 6 6 7 5 8 3 9 21 10 4 11 20 12 19 13
REMARK SMILES IDX 2 14 1 15 22 16 12 18 13 19 14 20 15 21 16 22 17 23 18 24
REMARK H PARENT 7 5 22 17
REMARK Flexibility Score: inf
ROOT
ATOM      1  C   UNL     1      81.385  64.508  74.636  1.00  0.00     0.010 C 
ENDROOT
BRANCH   1   2
ATOM      2  C   UNL     1      81.713  64.821  76.122  1.00  0.00     0.100 C 
BRANCH   2   3
ATOM      3  C   UNL     1      83.000  65.529  76.301  1.00  0.00     0.220 C 
ATOM      4  N   UNL     1      83.160  66.799  75.828  1.00  0.00    -0.352 N 
ATOM      5  H   UNL     1      82.363  67.166  75.329  1.00  0.00     0.163 HD
ATOM      6  O   UNL     1      83.927  64.946  76.915  1.00  0.00    -0.275 OA
BRANCH   4   7
ATOM      7  C   UNL     1      84.335  67.600  75.993  1.00  0.00     0.151 C 
BRANCH   7   8
ATOM      8  C   UNL     1      84.620  68.470  74.819  1.00  0.00    -0.025 A 
ATOM      9  C   UNL     1      85.817  70.372  73.819  1.00  0.00     0.160 A 
ATOM     10  C   UNL     1      85.204  70.107  72.575  1.00  0.00     0.157 A 
ATOM     11  C   UNL     1      85.507  69.565  74.934  1.00  0.00     0.056 A 
ATOM     12  C   UNL     1      84.289  69.045  72.458  1.00  0.00     0.050 A 
ATOM     13  C   UNL     1      84.006  68.225  73.568  1.00  0.00     0.009 A 
BRANCH   9  14
ATOM     14  O   UNL     1      86.678  71.426  73.953  1.00  0.00    -0.493 OA
ATOM     15  C   UNL     1      86.115  72.549  74.657  1.00  0.00     0.278 C 
ENDBRANCH   9  14
BRANCH  10  16
ATOM     16  O   UNL     1      85.482  70.869  71.485  1.00  0.00    -0.504 OA
ATOM     17  H   UNL     1      84.689  70.967  70.953  1.00  0.00     0.293 HD
ENDBRANCH  10  16
ENDBRANCH   7   8
ENDBRANCH   4   7
ENDBRANCH   2   3
ENDBRANCH   1   2
BRANCH   1  18
ATOM     18  C   UNL     1      80.344  65.499  74.044  1.00  0.00     0.001 C 
BRANCH  18  19
ATOM     19  C   UNL     1      80.816  66.199  72.738  1.00  0.00     0.000 C 
BRANCH  19  20
ATOM     20  C   UNL     1      82.045  65.478  72.115  1.00  0.00     0.000 C 
BRANCH  20  21
ATOM     21  C   UNL     1      82.405  65.956  70.682  1.00  0.00     0.003 C 
BRANCH  21  22
ATOM     22  C   UNL     1      81.173  66.279  69.775  1.00  0.00    -0.017 C 
ATOM     23  C   UNL     1      80.557  64.970  69.207  1.00  0.00     0.007 C 
ATOM     24  C   UNL     1      81.489  67.278  68.623  1.00  0.00     0.007 C 
ENDBRANCH  21  22
ENDBRANCH  20  21
ENDBRANCH  19  20
ENDBRANCH  18  19
ENDBRANCH   1  18
TORSDOF 11
ENDMDL
MODEL 10
REMARK VINA RESULT:    -5.274     31.977     34.245
REMARK INTER + INTRA:          -9.257
REMARK INTER:                  -7.783
REMARK INTRA:                  -1.474
REMARK UNBOUND:                -0.745
REMARK SMILES COc1cc(CNC(=O)CCCCCCC(C)C)ccc1O
REMARK SMILES IDX 11 1 10 2 8 3 7 4 9 6 6 7 5 8 3 9 21 10 4 11 20 12 19 13
REMARK SMILES IDX 2 14 1 15 22 16 12 18 13 19 14 20 15 21 16 22 17 23 18 24
REMARK H PARENT 7 5 22 17
REMARK Flexibility Score: inf
ROOT
ATOM      1  C   UNL     1      63.642  81.698  71.159  1.00  0.00     0.010 C 
ENDROOT
BRANCH   1   2
ATOM      2  C   UNL     1      63.243  82.106  69.714  1.00  0.00     0.100 C 
BRANCH   2   3
ATOM      3  C   UNL     1      62.797  83.513  69.605  1.00  0.00     0.220 C 
ATOM      4  N   UNL     1      61.482  83.805  69.391  1.00  0.00    -0.352 N 
ATOM      5  H   UNL     1      60.885  82.999  69.275  1.00  0.00     0.163 HD
ATOM      6  O   UNL     1      63.649  84.426  69.738  1.00  0.00    -0.275 OA
BRANCH   4   7
ATOM      7  C   UNL     1      60.928  85.124  69.327  1.00  0.00     0.151 C 
BRANCH   7   8
ATOM      8  C   UNL     1      59.753  85.311  70.222  1.00  0.00    -0.025 A 
ATOM      9  C   UNL     1      58.774  86.217  72.288  1.00  0.00     0.160 A 
ATOM     10  C   UNL     1      57.510  85.710  71.913  1.00  0.00     0.157 A 
ATOM     11  C   UNL     1      59.887  85.997  71.450  1.00  0.00     0.056 A 
ATOM     12  C   UNL     1      57.372  84.991  70.712  1.00  0.00     0.050 A 
ATOM     13  C   UNL     1      58.482  84.801  69.867  1.00  0.00     0.009 A 
BRANCH   9  14
ATOM     14  O   UNL     1      58.927  86.883  73.473  1.00  0.00    -0.493 OA
ATOM     15  C   UNL     1      59.547  86.096  74.505  1.00  0.00     0.278 C 
ENDBRANCH   9  14
BRANCH  10  16
ATOM     16  O   UNL     1      56.420  85.905  72.701  1.00  0.00    -0.504 OA
ATOM     17  H   UNL     1      56.705  86.100  73.598  1.00  0.00     0.293 HD
ENDBRANCH  10  16
ENDBRANCH   7   8
ENDBRANCH   4   7
ENDBRANCH   2   3
ENDBRANCH   1   2
BRANCH   1  18
ATOM     18  C   UNL     1      62.407  81.322  72.025  1.00  0.00     0.001 C 
BRANCH  18  19
ATOM     19  C   UNL     1      62.751  81.031  73.513  1.00  0.00     0.000 C 
BRANCH  19  20
ATOM     20  C   UNL     1      62.191  82.133  74.456  1.00  0.00     0.000 C 
BRANCH  20  21
ATOM     21  C   UNL     1      62.031  83.525  73.784  1.00  0.00     0.003 C 
BRANCH  21  22
ATOM     22  C   UNL     1      63.308  84.425  73.841  1.00  0.00    -0.017 C 
ATOM     23  C   UNL     1      63.666  84.768  75.314  1.00  0.00     0.007 C 
ATOM     24  C   UNL     1      63.196  85.725  72.991  1.00  0.00     0.007 C 
ENDBRANCH  21  22
ENDBRANCH  20  21
ENDBRANCH  19  20
ENDBRANCH  18  19
ENDBRANCH   1  18
TORSDOF 11
ENDMDL
