MODEL 1
REMARK VINA RESULT:    -7.081      0.000      0.000
REMARK INTER + INTRA:          -8.739
REMARK INTER:                  -8.323
REMARK INTRA:                  -0.415
REMARK UNBOUND:                -0.415
REMARK SMILES O=C(/C=C/C=C/c1ccc2c(c1)OCO2)N1CCCCC1
REMARK SMILES IDX 3 1 4 2 2 3 1 4 16 5 17 6 21 7 18 8 20 9 19 10 5 11 6 12
REMARK SMILES IDX 7 13 12 14 8 15 11 16 9 17 13 18 10 19 14 20 15 21
REMARK H PARENT
REMARK Flexibility Score: inf
ROOT
ATOM      1  C   UNL     1      75.836  91.629  71.342  1.00  0.00     0.071 C 
ATOM      2  C   UNL     1      74.797  90.797  71.317  1.00  0.00     0.006 C 
ENDROOT
BRANCH   1   3
ATOM      3  C   UNL     1      75.605  93.016  71.793  1.00  0.00     0.246 C 
ATOM      4  O   UNL     1      74.659  93.626  71.294  1.00  0.00    -0.270 OA
ATOM      5  N   UNL     1      76.474  93.542  72.748  1.00  0.00    -0.339 N 
ATOM      6  C   UNL     1      76.272  94.918  73.211  1.00  0.00     0.120 C 
ATOM      7  C   UNL     1      77.639  92.861  73.332  1.00  0.00     0.120 C 
ATOM      8  C   UNL     1      76.197  94.989  74.733  1.00  0.00     0.022 C 
ATOM      9  C   UNL     1      77.602  92.913  74.859  1.00  0.00     0.022 C 
ATOM     10  C   UNL     1      77.421  94.339  75.371  1.00  0.00     0.004 C 
ENDBRANCH   1   3
BRANCH   2  11
ATOM     11  C   UNL     1      74.925  89.420  70.890  1.00  0.00     0.001 C 
ATOM     12  C   UNL     1      76.074  88.909  70.419  1.00  0.00     0.008 C 
BRANCH  12  13
ATOM     13  C   UNL     1      76.256  87.520  69.964  1.00  0.00    -0.022 A 
ATOM     14  C   UNL     1      77.378  87.197  69.213  1.00  0.00     0.058 A 
ATOM     15  C   UNL     1      75.294  86.564  70.302  1.00  0.00     0.012 A 
ATOM     16  C   UNL     1      77.505  85.883  68.811  1.00  0.00     0.166 A 
ATOM     17  C   UNL     1      75.448  85.242  69.881  1.00  0.00     0.051 A 
ATOM     18  O   UNL     1      78.527  85.371  68.071  1.00  0.00    -0.454 OA
ATOM     19  C   UNL     1      76.566  84.931  69.135  1.00  0.00     0.165 A 
ATOM     20  C   UNL     1      78.125  83.990  67.967  1.00  0.00     0.468 C 
ATOM     21  O   UNL     1      76.882  83.704  68.640  1.00  0.00    -0.454 OA
ENDBRANCH  12  13
ENDBRANCH   2  11
TORSDOF 3
ENDMDL
MODEL 2
REMARK VINA RESULT:    -6.956      1.364      1.722
REMARK INTER + INTRA:          -8.591
REMARK INTER:                  -8.202
REMARK INTRA:                  -0.389
REMARK UNBOUND:                -0.415
REMARK SMILES O=C(/C=C/C=C/c1ccc2c(c1)OCO2)N1CCCCC1
REMARK SMILES IDX 3 1 4 2 2 3 1 4 16 5 17 6 21 7 18 8 20 9 19 10 5 11 6 12
REMARK SMILES IDX 7 13 12 14 8 15 11 16 9 17 13 18 10 19 14 20 15 21
REMARK H PARENT
REMARK Flexibility Score: inf
ROOT
ATOM      1  C   UNL     1      75.491  90.528  70.984  1.00  0.00     0.071 C 
ATOM      2  C   UNL     1      74.863  89.362  71.119  1.00  0.00     0.006 C 
ENDROOT
BRANCH   1   3
ATOM      3  C   UNL     1      74.899  91.716  71.631  1.00  0.00     0.246 C 
ATOM      4  O   UNL     1      73.670  91.779  71.689  1.00  0.00    -0.270 OA
ATOM      5  N   UNL     1      75.767  92.686  72.128  1.00  0.00    -0.339 N 
ATOM      6  C   UNL     1      75.208  93.879  72.771  1.00  0.00     0.120 C 
ATOM      7  C   UNL     1      77.235  92.667  72.037  1.00  0.00     0.120 C 
ATOM      8  C   UNL     1      75.809  94.100  74.154  1.00  0.00     0.022 C 
ATOM      9  C   UNL     1      77.876  92.889  73.407  1.00  0.00     0.022 C 
ATOM     10  C   UNL     1      77.333  94.142  74.088  1.00  0.00     0.004 C 
ENDBRANCH   1   3
BRANCH   2  11
ATOM     11  C   UNL     1      75.365  88.143  70.521  1.00  0.00     0.001 C 
ATOM     12  C   UNL     1      76.522  88.091  69.842  1.00  0.00     0.008 C 
BRANCH  12  13
ATOM     13  C   UNL     1      77.075  86.882  69.208  1.00  0.00    -0.022 A 
ATOM     14  C   UNL     1      77.018  86.757  67.827  1.00  0.00     0.058 A 
ATOM     15  C   UNL     1      77.644  85.894  70.016  1.00  0.00     0.012 A 
ATOM     16  C   UNL     1      77.549  85.607  67.280  1.00  0.00     0.166 A 
ATOM     17  C   UNL     1      78.174  84.739  69.436  1.00  0.00     0.051 A 
ATOM     18  O   UNL     1      77.587  85.297  65.955  1.00  0.00    -0.454 OA
ATOM     19  C   UNL     1      78.112  84.625  68.063  1.00  0.00     0.165 A 
ATOM     20  C   UNL     1      78.238  84.011  65.992  1.00  0.00     0.468 C 
ATOM     21  O   UNL     1      78.574  83.578  67.326  1.00  0.00    -0.454 OA
ENDBRANCH  12  13
ENDBRANCH   2  11
TORSDOF 3
ENDMDL
MODEL 3
REMARK VINA RESULT:    -6.908     25.026     26.478
REMARK INTER + INTRA:          -8.535
REMARK INTER:                  -8.137
REMARK INTRA:                  -0.398
REMARK UNBOUND:                -0.415
REMARK SMILES O=C(/C=C/C=C/c1ccc2c(c1)OCO2)N1CCCCC1
REMARK SMILES IDX 3 1 4 2 2 3 1 4 16 5 17 6 21 7 18 8 20 9 19 10 5 11 6 12
REMARK SMILES IDX 7 13 12 14 8 15 11 16 9 17 13 18 10 19 14 20 15 21
REMARK H PARENT
REMARK Flexibility Score: inf
ROOT
ATOM      1  C   UNL     1      97.919  82.584  85.057  1.00  0.00     0.071 C 
ATOM      2  C   UNL     1      97.241  83.457  84.313  1.00  0.00     0.006 C 
ENDROOT
BRANCH   1   3
ATOM      3  C   UNL     1      97.640  82.543  86.506  1.00  0.00     0.246 C 
ATOM      4  O   UNL     1      96.600  81.993  86.870  1.00  0.00    -0.270 OA
ATOM      5  N   UNL     1      98.569  83.131  87.363  1.00  0.00    -0.339 N 
ATOM      6  C   UNL     1      98.317  83.110  88.807  1.00  0.00     0.120 C 
ATOM      7  C   UNL     1      99.797  83.834  86.963  1.00  0.00     0.120 C 
ATOM      8  C   UNL     1      99.507  82.539  89.572  1.00  0.00     0.022 C 
ATOM      9  C   UNL     1     101.014  83.291  87.712  1.00  0.00     0.022 C 
ATOM     10  C   UNL     1     100.791  83.285  89.222  1.00  0.00     0.004 C 
ENDBRANCH   1   3
BRANCH   2  11
ATOM     11  C   UNL     1      97.444  83.572  82.885  1.00  0.00     0.001 C 
ATOM     12  C   UNL     1      98.416  82.913  82.234  1.00  0.00     0.008 C 
BRANCH  12  13
ATOM     13  C   UNL     1      98.672  83.000  80.786  1.00  0.00    -0.022 A 
ATOM     14  C   UNL     1      97.657  83.435  79.946  1.00  0.00     0.058 A 
ATOM     15  C   UNL     1      99.931  82.641  80.298  1.00  0.00     0.012 A 
ATOM     16  C   UNL     1      97.945  83.500  78.598  1.00  0.00     0.166 A 
ATOM     17  C   UNL     1     100.195  82.717  78.928  1.00  0.00     0.051 A 
ATOM     18  O   UNL     1      97.088  83.899  77.617  1.00  0.00    -0.454 OA
ATOM     19  C   UNL     1      99.180  83.151  78.102  1.00  0.00     0.165 A 
ATOM     20  C   UNL     1      97.923  83.760  76.450  1.00  0.00     0.468 C 
ATOM     21  O   UNL     1      99.252  83.286  76.750  1.00  0.00    -0.454 OA
ENDBRANCH  12  13
ENDBRANCH   2  11
TORSDOF 3
ENDMDL
MODEL 4
REMARK VINA RESULT:    -6.886      3.285      9.493
REMARK INTER + INTRA:          -8.509
REMARK INTER:                  -8.122
REMARK INTRA:                  -0.386
REMARK UNBOUND:                -0.415
REMARK SMILES O=C(/C=C/C=C/c1ccc2c(c1)OCO2)N1CCCCC1
REMARK SMILES IDX 3 1 4 2 2 3 1 4 16 5 17 6 21 7 18 8 20 9 19 10 5 11 6 12
REMARK SMILES IDX 7 13 12 14 8 15 11 16 9 17 13 18 10 19 14 20 15 21
REMARK H PARENT
REMARK Flexibility Score: inf
ROOT
ATOM      1  C   UNL     1      76.715  85.622  68.364  1.00  0.00     0.071 C 
ATOM      2  C   UNL     1      77.458  86.563  68.942  1.00  0.00     0.006 C 
ENDROOT
BRANCH   1   3
ATOM      3  C   UNL     1      77.405  84.562  67.601  1.00  0.00     0.246 C 
ATOM      4  O   UNL     1      78.589  84.349  67.867  1.00  0.00    -0.270 OA
ATOM      5  N   UNL     1      76.675  83.880  66.630  1.00  0.00    -0.339 N 
ATOM      6  C   UNL     1      77.335  82.826  65.853  1.00  0.00     0.120 C 
ATOM      7  C   UNL     1      75.277  84.136  66.254  1.00  0.00     0.120 C 
ATOM      8  C   UNL     1      76.545  81.523  65.898  1.00  0.00     0.022 C 
ATOM      9  C   UNL     1      74.451  82.850  66.284  1.00  0.00     0.022 C 
ATOM     10  C   UNL     1      75.101  81.744  65.459  1.00  0.00     0.004 C 
ENDBRANCH   1   3
BRANCH   2  11
ATOM     11  C   UNL     1      76.873  87.642  69.709  1.00  0.00     0.001 C 
ATOM     12  C   UNL     1      75.577  87.667  70.057  1.00  0.00     0.008 C 
BRANCH  12  13
ATOM     13  C   UNL     1      74.929  88.741  70.828  1.00  0.00    -0.022 A 
ATOM     14  C   UNL     1      75.492  90.010  70.823  1.00  0.00     0.058 A 
ATOM     15  C   UNL     1      73.765  88.454  71.545  1.00  0.00     0.012 A 
ATOM     16  C   UNL     1      74.849  90.983  71.560  1.00  0.00     0.166 A 
ATOM     17  C   UNL     1      73.135  89.458  72.283  1.00  0.00     0.051 A 
ATOM     18  O   UNL     1      75.242  92.281  71.682  1.00  0.00    -0.454 OA
ATOM     19  C   UNL     1      73.702  90.715  72.270  1.00  0.00     0.165 A 
ATOM     20  C   UNL     1      74.212  92.799  72.550  1.00  0.00     0.468 C 
ATOM     21  O   UNL     1      73.232  91.811  72.927  1.00  0.00    -0.454 OA
ENDBRANCH  12  13
ENDBRANCH   2  11
TORSDOF 3
ENDMDL
MODEL 5
REMARK VINA RESULT:    -6.882     24.161     26.370
REMARK INTER + INTRA:          -8.504
REMARK INTER:                  -8.103
REMARK INTRA:                  -0.402
REMARK UNBOUND:                -0.415
REMARK SMILES O=C(/C=C/C=C/c1ccc2c(c1)OCO2)N1CCCCC1
REMARK SMILES IDX 3 1 4 2 2 3 1 4 16 5 17 6 21 7 18 8 20 9 19 10 5 11 6 12
REMARK SMILES IDX 7 13 12 14 8 15 11 16 9 17 13 18 10 19 14 20 15 21
REMARK H PARENT
REMARK Flexibility Score: inf
ROOT
ATOM      1  C   UNL     1      99.177  82.168  80.983  1.00  0.00     0.071 C 
ATOM      2  C   UNL     1      98.984  81.313  81.986  1.00  0.00     0.006 C 
ENDROOT
BRANCH   1   3
ATOM      3  C   UNL     1      99.736  81.643  79.721  1.00  0.00     0.246 C 
ATOM      4  O   UNL     1     100.422  80.622  79.784  1.00  0.00    -0.270 OA
ATOM      5  N   UNL     1      99.454  82.339  78.547  1.00  0.00    -0.339 N 
ATOM      6  C   UNL     1     100.000  81.845  77.279  1.00  0.00     0.120 C 
ATOM      7  C   UNL     1      98.678  83.584  78.439  1.00  0.00     0.120 C 
ATOM      8  C   UNL     1      98.906  81.678  76.230  1.00  0.00     0.022 C 
ATOM      9  C   UNL     1      97.572  83.457  77.392  1.00  0.00     0.022 C 
ATOM     10  C   UNL     1      98.116  82.971  76.052  1.00  0.00     0.004 C 
ENDBRANCH   1   3
BRANCH   2  11
ATOM     11  C   UNL     1      98.442  81.733  83.261  1.00  0.00     0.001 C 
ATOM     12  C   UNL     1      97.807  82.904  83.430  1.00  0.00     0.008 C 
BRANCH  12  13
ATOM     13  C   UNL     1      97.245  83.383  84.704  1.00  0.00    -0.022 A 
ATOM     14  C   UNL     1      96.964  84.734  84.853  1.00  0.00     0.058 A 
ATOM     15  C   UNL     1      97.009  82.463  85.729  1.00  0.00     0.012 A 
ATOM     16  C   UNL     1      96.438  85.135  86.064  1.00  0.00     0.166 A 
ATOM     17  C   UNL     1      96.476  82.896  86.945  1.00  0.00     0.051 A 
ATOM     18  O   UNL     1      96.098  86.408  86.405  1.00  0.00    -0.454 OA
ATOM     19  C   UNL     1      96.200  84.240  87.083  1.00  0.00     0.165 A 
ATOM     20  C   UNL     1      95.620  86.215  87.751  1.00  0.00     0.468 C 
ATOM     21  O   UNL     1      95.682  84.841  88.188  1.00  0.00    -0.454 OA
ENDBRANCH  12  13
ENDBRANCH   2  11
TORSDOF 3
ENDMDL
MODEL 6
REMARK VINA RESULT:    -6.651     16.383     19.139
REMARK INTER + INTRA:          -8.232
REMARK INTER:                  -7.831
REMARK INTRA:                  -0.401
REMARK UNBOUND:                -0.415
REMARK SMILES O=C(/C=C/C=C/c1ccc2c(c1)OCO2)N1CCCCC1
REMARK SMILES IDX 3 1 4 2 2 3 1 4 16 5 17 6 21 7 18 8 20 9 19 10 5 11 6 12
REMARK SMILES IDX 7 13 12 14 8 15 11 16 9 17 13 18 10 19 14 20 15 21
REMARK H PARENT
REMARK Flexibility Score: inf
ROOT
ATOM      1  C   UNL     1      93.427  99.110  74.701  1.00  0.00     0.071 C 
ATOM      2  C   UNL     1      92.922 100.303  74.396  1.00  0.00     0.006 C 
ENDROOT
BRANCH   1   3
ATOM      3  C   UNL     1      94.243  98.993  75.926  1.00  0.00     0.246 C 
ATOM      4  O   UNL     1      94.486 100.028  76.548  1.00  0.00    -0.270 OA
ATOM      5  N   UNL     1      94.685  97.724  76.294  1.00  0.00    -0.339 N 
ATOM      6  C   UNL     1      95.501  97.577  77.503  1.00  0.00     0.120 C 
ATOM      7  C   UNL     1      94.453  96.474  75.554  1.00  0.00     0.120 C 
ATOM      8  C   UNL     1      94.921  96.526  78.443  1.00  0.00     0.022 C 
ATOM      9  C   UNL     1      93.874  95.392  76.465  1.00  0.00     0.022 C 
ATOM     10  C   UNL     1      94.720  95.198  77.720  1.00  0.00     0.004 C 
ENDBRANCH   1   3
BRANCH   2  11
ATOM     11  C   UNL     1      92.111 100.517  73.216  1.00  0.00     0.001 C 
ATOM     12  C   UNL     1      91.672  99.510  72.444  1.00  0.00     0.008 C 
BRANCH  12  13
ATOM     13  C   UNL     1      90.853  99.670  71.231  1.00  0.00    -0.022 A 
ATOM     14  C   UNL     1      89.975  98.658  70.870  1.00  0.00     0.058 A 
ATOM     15  C   UNL     1      90.983 100.839  70.476  1.00  0.00     0.012 A 
ATOM     16  C   UNL     1      89.228  98.855  69.726  1.00  0.00     0.166 A 
ATOM     17  C   UNL     1      90.215 101.012  69.322  1.00  0.00     0.051 A 
ATOM     18  O   UNL     1      88.318  97.986  69.207  1.00  0.00    -0.454 OA
ATOM     19  C   UNL     1      89.345 100.001  68.972  1.00  0.00     0.165 A 
ATOM     20  C   UNL     1      87.876  98.713  68.043  1.00  0.00     0.468 C 
ATOM     21  O   UNL     1      88.523  99.992  67.888  1.00  0.00    -0.454 OA
ENDBRANCH  12  13
ENDBRANCH   2  11
TORSDOF 3
ENDMDL
MODEL 7
REMARK VINA RESULT:    -6.643     23.903     25.368
REMARK INTER + INTRA:          -8.224
REMARK INTER:                  -7.838
REMARK INTRA:                  -0.386
REMARK UNBOUND:                -0.415
REMARK SMILES O=C(/C=C/C=C/c1ccc2c(c1)OCO2)N1CCCCC1
REMARK SMILES IDX 3 1 4 2 2 3 1 4 16 5 17 6 21 7 18 8 20 9 19 10 5 11 6 12
REMARK SMILES IDX 7 13 12 14 8 15 11 16 9 17 13 18 10 19 14 20 15 21
REMARK H PARENT
REMARK Flexibility Score: inf
ROOT
ATOM      1  C   UNL     1      95.677  83.228  86.184  1.00  0.00     0.071 C 
ATOM      2  C   UNL     1      96.301  84.194  85.512  1.00  0.00     0.006 C 
ENDROOT
BRANCH   1   3
ATOM      3  C   UNL     1      94.932  83.601  87.403  1.00  0.00     0.246 C 
ATOM      4  O   UNL     1      95.414  84.479  88.119  1.00  0.00    -0.270 OA
ATOM      5  N   UNL     1      93.737  82.931  87.664  1.00  0.00    -0.339 N 
ATOM      6  C   UNL     1      92.977  83.275  88.870  1.00  0.00     0.120 C 
ATOM      7  C   UNL     1      93.155  81.847  86.859  1.00  0.00     0.120 C 
ATOM      8  C   UNL     1      91.527  83.607  88.538  1.00  0.00     0.022 C 
ATOM      9  C   UNL     1      91.696  82.142  86.508  1.00  0.00     0.022 C 
ATOM     10  C   UNL     1      90.874  82.476  87.749  1.00  0.00     0.004 C 
ENDBRANCH   1   3
BRANCH   2  11
ATOM     11  C   UNL     1      97.057  83.927  84.306  1.00  0.00     0.001 C 
ATOM     12  C   UNL     1      97.560  82.716  84.017  1.00  0.00     0.008 C 
BRANCH  12  13
ATOM     13  C   UNL     1      98.342  82.392  82.812  1.00  0.00    -0.022 A 
ATOM     14  C   UNL     1      98.278  83.243  81.717  1.00  0.00     0.058 A 
ATOM     15  C   UNL     1      99.128  81.237  82.804  1.00  0.00     0.012 A 
ATOM     16  C   UNL     1      99.028  82.897  80.611  1.00  0.00     0.166 A 
ATOM     17  C   UNL     1      99.877  80.912  81.672  1.00  0.00     0.051 A 
ATOM     18  O   UNL     1      99.098  83.596  79.445  1.00  0.00    -0.454 OA
ATOM     19  C   UNL     1      99.807  81.763  80.589  1.00  0.00     0.165 A 
ATOM     20  C   UNL     1     100.008  82.773  78.687  1.00  0.00     0.468 C 
ATOM     21  O   UNL     1     100.462  81.609  79.407  1.00  0.00    -0.454 OA
ENDBRANCH  12  13
ENDBRANCH   2  11
TORSDOF 3
ENDMDL
MODEL 8
REMARK VINA RESULT:    -6.524     24.005     24.835
REMARK INTER + INTRA:          -8.084
REMARK INTER:                  -7.726
REMARK INTRA:                  -0.358
REMARK UNBOUND:                -0.415
REMARK SMILES O=C(/C=C/C=C/c1ccc2c(c1)OCO2)N1CCCCC1
REMARK SMILES IDX 3 1 4 2 2 3 1 4 16 5 17 6 21 7 18 8 20 9 19 10 5 11 6 12
REMARK SMILES IDX 7 13 12 14 8 15 11 16 9 17 13 18 10 19 14 20 15 21
REMARK H PARENT
REMARK Flexibility Score: inf
ROOT
ATOM      1  C   UNL     1      96.467  84.116  84.510  1.00  0.00     0.071 C 
ATOM      2  C   UNL     1      97.698  83.727  84.181  1.00  0.00     0.006 C 
ENDROOT
BRANCH   1   3
ATOM      3  C   UNL     1      96.296  84.912  85.741  1.00  0.00     0.246 C 
ATOM      4  O   UNL     1      96.801  86.035  85.768  1.00  0.00    -0.270 OA
ATOM      5  N   UNL     1      95.580  84.339  86.791  1.00  0.00    -0.339 N 
ATOM      6  C   UNL     1      95.398  85.103  88.029  1.00  0.00     0.120 C 
ATOM      7  C   UNL     1      95.002  82.987  86.813  1.00  0.00     0.120 C 
ATOM      8  C   UNL     1      93.927  85.181  88.424  1.00  0.00     0.022 C 
ATOM      9  C   UNL     1      93.526  83.022  87.210  1.00  0.00     0.022 C 
ATOM     10  C   UNL     1      93.310  83.789  88.511  1.00  0.00     0.004 C 
ENDBRANCH   1   3
BRANCH   2  11
ATOM     11  C   UNL     1      97.966  82.944  82.994  1.00  0.00     0.001 C 
ATOM     12  C   UNL     1      98.146  83.497  81.784  1.00  0.00     0.008 C 
BRANCH  12  13
ATOM     13  C   UNL     1      98.413  82.748  80.544  1.00  0.00    -0.022 A 
ATOM     14  C   UNL     1      98.023  83.293  79.329  1.00  0.00     0.058 A 
ATOM     15  C   UNL     1      99.052  81.508  80.626  1.00  0.00     0.012 A 
ATOM     16  C   UNL     1      98.295  82.554  78.195  1.00  0.00     0.166 A 
ATOM     17  C   UNL     1      99.315  80.782  79.463  1.00  0.00     0.051 A 
ATOM     18  O   UNL     1      97.993  82.913  76.917  1.00  0.00    -0.454 OA
ATOM     19  C   UNL     1      98.924  81.332  78.260  1.00  0.00     0.165 A 
ATOM     20  C   UNL     1      98.502  81.779  76.186  1.00  0.00     0.468 C 
ATOM     21  O   UNL     1      99.095  80.772  77.032  1.00  0.00    -0.454 OA
ENDBRANCH  12  13
ENDBRANCH   2  11
TORSDOF 3
ENDMDL
MODEL 9
REMARK VINA RESULT:    -6.512      2.616      8.901
REMARK INTER + INTRA:          -8.070
REMARK INTER:                  -7.683
REMARK INTRA:                  -0.387
REMARK UNBOUND:                -0.415
REMARK SMILES O=C(/C=C/C=C/c1ccc2c(c1)OCO2)N1CCCCC1
REMARK SMILES IDX 3 1 4 2 2 3 1 4 16 5 17 6 21 7 18 8 20 9 19 10 5 11 6 12
REMARK SMILES IDX 7 13 12 14 8 15 11 16 9 17 13 18 10 19 14 20 15 21
REMARK H PARENT
REMARK Flexibility Score: inf
ROOT
ATOM      1  C   UNL     1      75.618  88.375  70.519  1.00  0.00     0.071 C 
ATOM      2  C   UNL     1      74.669  89.207  70.946  1.00  0.00     0.006 C 
ENDROOT
BRANCH   1   3
ATOM      3  C   UNL     1      75.213  87.023  70.087  1.00  0.00     0.246 C 
ATOM      4  O   UNL     1      74.012  86.750  70.121  1.00  0.00    -0.270 OA
ATOM      5  N   UNL     1      76.214  86.144  69.677  1.00  0.00    -0.339 N 
ATOM      6  C   UNL     1      75.844  84.792  69.248  1.00  0.00     0.120 C 
ATOM      7  C   UNL     1      77.659  86.418  69.667  1.00  0.00     0.120 C 
ATOM      8  C   UNL     1      76.417  84.467  67.873  1.00  0.00     0.022 C 
ATOM      9  C   UNL     1      78.273  86.100  68.304  1.00  0.00     0.022 C 
ATOM     10  C   UNL     1      77.926  84.687  67.845  1.00  0.00     0.004 C 
ENDBRANCH   1   3
BRANCH   2  11
ATOM     11  C   UNL     1      74.968  90.552  71.389  1.00  0.00     0.001 C 
ATOM     12  C   UNL     1      76.205  91.074  71.346  1.00  0.00     0.008 C 
BRANCH  12  13
ATOM     13  C   UNL     1      76.565  92.430  71.791  1.00  0.00    -0.022 A 
ATOM     14  C   UNL     1      75.650  93.461  71.624  1.00  0.00     0.058 A 
ATOM     15  C   UNL     1      77.819  92.643  72.369  1.00  0.00     0.012 A 
ATOM     16  C   UNL     1      76.033  94.714  72.057  1.00  0.00     0.166 A 
ATOM     17  C   UNL     1      78.181  93.922  72.798  1.00  0.00     0.051 A 
ATOM     18  O   UNL     1      75.283  95.848  71.982  1.00  0.00    -0.454 OA
ATOM     19  C   UNL     1      77.265  94.939  72.628  1.00  0.00     0.165 A 
ATOM     20  C   UNL     1      76.182  96.811  72.570  1.00  0.00     0.468 C 
ATOM     21  O   UNL     1      77.441  96.241  72.982  1.00  0.00    -0.454 OA
ENDBRANCH  12  13
ENDBRANCH   2  11
TORSDOF 3
ENDMDL
MODEL 10
REMARK VINA RESULT:    -6.442     18.111     20.660
REMARK INTER + INTRA:          -7.988
REMARK INTER:                  -7.594
REMARK INTRA:                  -0.394
REMARK UNBOUND:                -0.415
REMARK SMILES O=C(/C=C/C=C/c1ccc2c(c1)OCO2)N1CCCCC1
REMARK SMILES IDX 3 1 4 2 2 3 1 4 16 5 17 6 21 7 18 8 20 9 19 10 5 11 6 12
REMARK SMILES IDX 7 13 12 14 8 15 11 16 9 17 13 18 10 19 14 20 15 21
REMARK H PARENT
REMARK Flexibility Score: inf
ROOT
ATOM      1  C   UNL     1      96.238  97.745  74.724  1.00  0.00     0.071 C 
ATOM      2  C   UNL     1      95.971  97.950  76.012  1.00  0.00     0.006 C 
ENDROOT
BRANCH   1   3
ATOM      3  C   UNL     1      97.139  98.696  74.042  1.00  0.00     0.246 C 
ATOM      4  O   UNL     1      98.144  99.064  74.650  1.00  0.00    -0.270 OA
ATOM      5  N   UNL     1      96.789  99.115  72.759  1.00  0.00    -0.339 N 
ATOM      6  C   UNL     1      97.661 100.063  72.058  1.00  0.00     0.120 C 
ATOM      7  C   UNL     1      95.577  98.733  72.020  1.00  0.00     0.120 C 
ATOM      8  C   UNL     1      98.045  99.549  70.675  1.00  0.00     0.022 C 
ATOM      9  C   UNL     1      95.921  98.214  70.624  1.00  0.00     0.022 C 
ATOM     10  C   UNL     1      96.805  99.195  69.860  1.00  0.00     0.004 C 
ENDBRANCH   1   3
BRANCH   2  11
ATOM     11  C   UNL     1      95.100  97.074  76.766  1.00  0.00     0.001 C 
ATOM     12  C   UNL     1      93.906  96.666  76.308  1.00  0.00     0.008 C 
BRANCH  12  13
ATOM     13  C   UNL     1      92.978  95.783  77.035  1.00  0.00    -0.022 A 
ATOM     14  C   UNL     1      91.640  95.759  76.668  1.00  0.00     0.058 A 
ATOM     15  C   UNL     1      93.472  94.993  78.077  1.00  0.00     0.012 A 
ATOM     16  C   UNL     1      90.811  94.916  77.379  1.00  0.00     0.166 A 
ATOM     17  C   UNL     1      92.610  94.148  78.780  1.00  0.00     0.051 A 
ATOM     18  O   UNL     1      89.475  94.751  77.174  1.00  0.00    -0.454 OA
ATOM     19  C   UNL     1      91.282  94.132  78.406  1.00  0.00     0.165 A 
ATOM     20  C   UNL     1      89.159  93.776  78.188  1.00  0.00     0.468 C 
ATOM     21  O   UNL     1      90.301  93.378  78.974  1.00  0.00    -0.454 OA
ENDBRANCH  12  13
ENDBRANCH   2  11
TORSDOF 3
ENDMDL
