MODEL 1
REMARK VINA RESULT:    -6.684      0.000      0.000
REMARK INTER + INTRA:         -11.344
REMARK INTER:                 -10.396
REMARK INTRA:                  -0.948
REMARK UNBOUND:                -0.948
REMARK SMILES COc1cc(CNC(=O)CCCC/C=C/C(C)C)ccc1O
REMARK SMILES IDX 10 1 8 2 7 3 9 5 6 6 5 7 3 8 21 9 4 10 20 11 19 12 2 13 1 14
REMARK SMILES IDX 22 15 11 17 12 18 13 19 14 20 15 21 16 22 17 23 18 24
REMARK H PARENT 7 4 22 16
REMARK Flexibility Score: inf
ROOT
ATOM      1  C   UNL     1      93.012  94.284  74.948  1.00  0.00     0.100 C 
ENDROOT
BRANCH   1   2
ATOM      2  C   UNL     1      92.125  93.899  76.063  1.00  0.00     0.220 C 
ATOM      3  N   UNL     1      90.786  93.752  75.862  1.00  0.00    -0.352 N 
ATOM      4  H   UNL     1      90.471  93.949  74.921  1.00  0.00     0.163 HD
ATOM      5  O   UNL     1      92.643  93.690  77.186  1.00  0.00    -0.275 OA
BRANCH   3   6
ATOM      6  C   UNL     1      89.850  93.353  76.863  1.00  0.00     0.151 C 
BRANCH   6   7
ATOM      7  C   UNL     1      89.875  91.880  77.079  1.00  0.00    -0.025 A 
ATOM      8  C   UNL     1      89.804  89.594  76.168  1.00  0.00     0.160 A 
ATOM      9  C   UNL     1      89.941  89.070  77.470  1.00  0.00     0.157 A 
ATOM     10  C   UNL     1      89.770  90.992  75.985  1.00  0.00     0.056 A 
ATOM     11  C   UNL     1      90.028  89.943  78.573  1.00  0.00     0.050 A 
ATOM     12  C   UNL     1      90.005  91.338  78.379  1.00  0.00     0.009 A 
BRANCH   8  13
ATOM     13  O   UNL     1      89.653  88.748  75.099  1.00  0.00    -0.493 OA
ATOM     14  C   UNL     1      90.130  89.287  73.852  1.00  0.00     0.278 C 
ENDBRANCH   8  13
BRANCH   9  15
ATOM     15  O   UNL     1      89.991  87.729  77.680  1.00  0.00    -0.504 OA
ATOM     16  H   UNL     1      89.600  87.273  76.931  1.00  0.00     0.293 HD
ENDBRANCH   9  15
ENDBRANCH   6   7
ENDBRANCH   3   6
ENDBRANCH   1   2
BRANCH   1  17
ATOM     17  C   UNL     1      94.200  95.157  75.436  1.00  0.00     0.010 C 
BRANCH  17  18
ATOM     18  C   UNL     1      95.581  94.482  75.205  1.00  0.00     0.005 C 
BRANCH  18  19
ATOM     19  C   UNL     1      96.055  93.667  76.438  1.00  0.00     0.027 C 
BRANCH  19  20
ATOM     20  C   UNL     1      96.409  94.526  77.558  1.00  0.00    -0.031 C 
ATOM     21  C   UNL     1      95.980  94.338  78.820  1.00  0.00    -0.028 C 
BRANCH  21  22
ATOM     22  C   UNL     1      96.364  95.203  79.935  1.00  0.00     0.005 C 
ATOM     23  C   UNL     1      96.976  96.548  79.454  1.00  0.00     0.012 C 
ATOM     24  C   UNL     1      95.149  95.450  80.866  1.00  0.00     0.012 C 
ENDBRANCH  21  22
ENDBRANCH  19  20
ENDBRANCH  18  19
ENDBRANCH  17  18
ENDBRANCH   1  17
TORSDOF 10
ENDMDL
MODEL 2
REMARK VINA RESULT:    -6.090     26.764     29.653
REMARK INTER + INTRA:         -10.421
REMARK INTER:                  -9.720
REMARK INTRA:                  -0.701
REMARK UNBOUND:                -0.948
REMARK SMILES COc1cc(CNC(=O)CCCC/C=C/C(C)C)ccc1O
REMARK SMILES IDX 10 1 8 2 7 3 9 5 6 6 5 7 3 8 21 9 4 10 20 11 19 12 2 13 1 14
REMARK SMILES IDX 22 15 11 17 12 18 13 19 14 20 15 21 16 22 17 23 18 24
REMARK H PARENT 7 4 22 16
REMARK Flexibility Score: inf
ROOT
ATOM      1  C   UNL     1      64.697  86.130  75.977  1.00  0.00     0.100 C 
ENDROOT
BRANCH   1   2
ATOM      2  C   UNL     1      65.835  86.384  76.881  1.00  0.00     0.220 C 
ATOM      3  N   UNL     1      65.927  85.734  78.076  1.00  0.00    -0.352 N 
ATOM      4  H   UNL     1      65.161  85.108  78.281  1.00  0.00     0.163 HD
ATOM      5  O   UNL     1      66.718  87.193  76.508  1.00  0.00    -0.275 OA
BRANCH   3   6
ATOM      6  C   UNL     1      67.001  85.885  79.005  1.00  0.00     0.151 C 
BRANCH   6   7
ATOM      7  C   UNL     1      66.554  85.633  80.402  1.00  0.00    -0.025 A 
ATOM      8  C   UNL     1      64.911  85.967  82.204  1.00  0.00     0.160 A 
ATOM      9  C   UNL     1      65.678  85.146  83.057  1.00  0.00     0.157 A 
ATOM     10  C   UNL     1      65.356  86.204  80.887  1.00  0.00     0.056 A 
ATOM     11  C   UNL     1      66.884  84.586  82.593  1.00  0.00     0.050 A 
ATOM     12  C   UNL     1      67.316  84.819  81.273  1.00  0.00     0.009 A 
BRANCH   8  13
ATOM     13  O   UNL     1      63.769  86.567  82.672  1.00  0.00    -0.493 OA
ATOM     14  C   UNL     1      63.175  87.497  81.747  1.00  0.00     0.278 C 
ENDBRANCH   8  13
BRANCH   9  15
ATOM     15  O   UNL     1      65.270  84.887  84.326  1.00  0.00    -0.504 OA
ATOM     16  H   UNL     1      64.495  84.321  84.305  1.00  0.00     0.293 HD
ENDBRANCH   9  15
ENDBRANCH   6   7
ENDBRANCH   3   6
ENDBRANCH   1   2
BRANCH   1  17
ATOM     17  C   UNL     1      64.265  84.639  76.005  1.00  0.00     0.010 C 
BRANCH  17  18
ATOM     18  C   UNL     1      62.731  84.450  75.837  1.00  0.00     0.005 C 
BRANCH  18  19
ATOM     19  C   UNL     1      62.292  82.975  76.042  1.00  0.00     0.027 C 
BRANCH  19  20
ATOM     20  C   UNL     1      62.584  82.150  74.880  1.00  0.00    -0.031 C 
ATOM     21  C   UNL     1      63.650  81.334  74.781  1.00  0.00    -0.028 C 
BRANCH  21  22
ATOM     22  C   UNL     1      63.914  80.498  73.610  1.00  0.00     0.005 C 
ATOM     23  C   UNL     1      63.491  81.190  72.284  1.00  0.00     0.012 C 
ATOM     24  C   UNL     1      65.410  80.091  73.568  1.00  0.00     0.012 C 
ENDBRANCH  21  22
ENDBRANCH  19  20
ENDBRANCH  18  19
ENDBRANCH  17  18
ENDBRANCH   1  17
TORSDOF 10
ENDMDL
MODEL 3
REMARK VINA RESULT:    -5.859     26.658     29.465
REMARK INTER + INTRA:         -10.060
REMARK INTER:                  -9.264
REMARK INTRA:                  -0.796
REMARK UNBOUND:                -0.948
REMARK SMILES COc1cc(CNC(=O)CCCC/C=C/C(C)C)ccc1O
REMARK SMILES IDX 10 1 8 2 7 3 9 5 6 6 5 7 3 8 21 9 4 10 20 11 19 12 2 13 1 14
REMARK SMILES IDX 22 15 11 17 12 18 13 19 14 20 15 21 16 22 17 23 18 24
REMARK H PARENT 7 4 22 16
REMARK Flexibility Score: inf
ROOT
ATOM      1  C   UNL     1      82.723  66.337  75.894  1.00  0.00     0.100 C 
ENDROOT
BRANCH   1   2
ATOM      2  C   UNL     1      84.066  65.913  76.334  1.00  0.00     0.220 C 
ATOM      3  N   UNL     1      84.215  64.849  77.172  1.00  0.00    -0.352 N 
ATOM      4  H   UNL     1      83.351  64.415  77.469  1.00  0.00     0.163 HD
ATOM      5  O   UNL     1      85.059  66.542  75.896  1.00  0.00    -0.275 OA
BRANCH   3   6
ATOM      6  C   UNL     1      85.468  64.340  77.629  1.00  0.00     0.151 C 
BRANCH   6   7
ATOM      7  C   UNL     1      85.647  64.559  79.090  1.00  0.00    -0.025 A 
ATOM      8  C   UNL     1      86.491  65.936  80.949  1.00  0.00     0.160 A 
ATOM      9  C   UNL     1      85.980  65.002  81.874  1.00  0.00     0.157 A 
ATOM     10  C   UNL     1      86.322  65.705  79.568  1.00  0.00     0.056 A 
ATOM     11  C   UNL     1      85.322  63.845  81.412  1.00  0.00     0.050 A 
ATOM     12  C   UNL     1      85.148  63.628  80.031  1.00  0.00     0.009 A 
BRANCH   8  13
ATOM     13  O   UNL     1      87.190  67.030  81.391  1.00  0.00    -0.493 OA
ATOM     14  C   UNL     1      88.599  66.983  81.102  1.00  0.00     0.278 C 
ENDBRANCH   8  13
BRANCH   9  15
ATOM     15  O   UNL     1      86.114  65.201  83.210  1.00  0.00    -0.504 OA
ATOM     16  H   UNL     1      87.008  64.977  83.480  1.00  0.00     0.293 HD
ENDBRANCH   9  15
ENDBRANCH   6   7
ENDBRANCH   3   6
ENDBRANCH   1   2
BRANCH   1  17
ATOM     17  C   UNL     1      81.713  65.159  75.920  1.00  0.00     0.010 C 
BRANCH  17  18
ATOM     18  C   UNL     1      81.804  64.256  74.657  1.00  0.00     0.005 C 
BRANCH  18  19
ATOM     19  C   UNL     1      80.406  63.886  74.093  1.00  0.00     0.027 C 
BRANCH  19  20
ATOM     20  C   UNL     1      79.966  64.817  73.065  1.00  0.00    -0.031 C 
ATOM     21  C   UNL     1      80.729  65.805  72.564  1.00  0.00    -0.028 C 
BRANCH  21  22
ATOM     22  C   UNL     1      80.273  66.719  71.516  1.00  0.00     0.005 C 
ATOM     23  C   UNL     1      81.346  67.782  71.153  1.00  0.00     0.012 C 
ATOM     24  C   UNL     1      79.838  65.919  70.260  1.00  0.00     0.012 C 
ENDBRANCH  21  22
ENDBRANCH  19  20
ENDBRANCH  18  19
ENDBRANCH  17  18
ENDBRANCH   1  17
TORSDOF 10
ENDMDL
MODEL 4
REMARK VINA RESULT:    -5.836      3.904      5.827
REMARK INTER + INTRA:         -10.026
REMARK INTER:                  -9.334
REMARK INTRA:                  -0.691
REMARK UNBOUND:                -0.948
REMARK SMILES COc1cc(CNC(=O)CCCC/C=C/C(C)C)ccc1O
REMARK SMILES IDX 10 1 8 2 7 3 9 5 6 6 5 7 3 8 21 9 4 10 20 11 19 12 2 13 1 14
REMARK SMILES IDX 22 15 11 17 12 18 13 19 14 20 15 21 16 22 17 23 18 24
REMARK H PARENT 7 4 22 16
REMARK Flexibility Score: inf
ROOT
ATOM      1  C   UNL     1      94.150  97.393  74.209  1.00  0.00     0.100 C 
ENDROOT
BRANCH   1   2
ATOM      2  C   UNL     1      94.471  96.065  74.768  1.00  0.00     0.220 C 
ATOM      3  N   UNL     1      93.480  95.168  75.032  1.00  0.00    -0.352 N 
ATOM      4  H   UNL     1      92.544  95.497  74.838  1.00  0.00     0.163 HD
ATOM      5  O   UNL     1      95.677  95.783  74.968  1.00  0.00    -0.275 OA
BRANCH   3   6
ATOM      6  C   UNL     1      93.688  93.850  75.541  1.00  0.00     0.151 C 
BRANCH   6   7
ATOM      7  C   UNL     1      92.399  93.134  75.748  1.00  0.00    -0.025 A 
ATOM      8  C   UNL     1      90.458  91.935  74.823  1.00  0.00     0.160 A 
ATOM      9  C   UNL     1      89.950  91.751  76.126  1.00  0.00     0.157 A 
ATOM     10  C   UNL     1      91.675  92.626  74.646  1.00  0.00     0.056 A 
ATOM     11  C   UNL     1      90.651  92.269  77.232  1.00  0.00     0.050 A 
ATOM     12  C   UNL     1      91.872  92.948  77.047  1.00  0.00     0.009 A 
BRANCH   8  13
ATOM     13  O   UNL     1      89.747  91.489  73.738  1.00  0.00    -0.493 OA
ATOM     14  C   UNL     1      90.175  90.208  73.241  1.00  0.00     0.278 C 
ENDBRANCH   8  13
BRANCH   9  15
ATOM     15  O   UNL     1      88.788  91.079  76.332  1.00  0.00    -0.504 OA
ATOM     16  H   UNL     1      88.797  90.262  75.828  1.00  0.00     0.293 HD
ENDBRANCH   9  15
ENDBRANCH   6   7
ENDBRANCH   3   6
ENDBRANCH   1   2
BRANCH   1  17
ATOM     17  C   UNL     1      94.825  97.612  72.829  1.00  0.00     0.010 C 
BRANCH  17  18
ATOM     18  C   UNL     1      93.920  98.386  71.829  1.00  0.00     0.005 C 
BRANCH  18  19
ATOM     19  C   UNL     1      94.313  98.122  70.350  1.00  0.00     0.027 C 
BRANCH  19  20
ATOM     20  C   UNL     1      95.676  97.628  70.226  1.00  0.00    -0.031 C 
ATOM     21  C   UNL     1      96.028  96.555  69.495  1.00  0.00    -0.028 C 
BRANCH  21  22
ATOM     22  C   UNL     1      97.408  96.088  69.368  1.00  0.00     0.005 C 
ATOM     23  C   UNL     1      98.286  97.063  68.536  1.00  0.00     0.012 C 
ATOM     24  C   UNL     1      98.024  95.849  70.771  1.00  0.00     0.012 C 
ENDBRANCH  21  22
ENDBRANCH  19  20
ENDBRANCH  18  19
ENDBRANCH  17  18
ENDBRANCH   1  17
TORSDOF 10
ENDMDL
MODEL 5
REMARK VINA RESULT:    -5.693     13.384     15.636
REMARK INTER + INTRA:          -9.803
REMARK INTER:                  -8.669
REMARK INTRA:                  -1.134
REMARK UNBOUND:                -0.948
REMARK SMILES COc1cc(CNC(=O)CCCC/C=C/C(C)C)ccc1O
REMARK SMILES IDX 10 1 8 2 7 3 9 5 6 6 5 7 3 8 21 9 4 10 20 11 19 12 2 13 1 14
REMARK SMILES IDX 22 15 11 17 12 18 13 19 14 20 15 21 16 22 17 23 18 24
REMARK H PARENT 7 4 22 16
REMARK Flexibility Score: inf
ROOT
ATOM      1  C   UNL     1      83.201  89.120  90.827  1.00  0.00     0.100 C 
ENDROOT
BRANCH   1   2
ATOM      2  C   UNL     1      82.002  88.527  90.204  1.00  0.00     0.220 C 
ATOM      3  N   UNL     1      82.101  87.393  89.455  1.00  0.00    -0.352 N 
ATOM      4  H   UNL     1      83.039  87.030  89.352  1.00  0.00     0.163 HD
ATOM      5  O   UNL     1      80.894  89.081  90.405  1.00  0.00    -0.275 OA
BRANCH   3   6
ATOM      6  C   UNL     1      81.000  86.725  88.837  1.00  0.00     0.151 C 
BRANCH   6   7
ATOM      7  C   UNL     1      81.061  86.828  87.354  1.00  0.00    -0.025 A 
ATOM      8  C   UNL     1      82.178  87.653  85.321  1.00  0.00     0.160 A 
ATOM      9  C   UNL     1      81.201  87.019  84.526  1.00  0.00     0.157 A 
ATOM     10  C   UNL     1      82.098  87.554  86.726  1.00  0.00     0.056 A 
ATOM     11  C   UNL     1      80.150  86.309  85.138  1.00  0.00     0.050 A 
ATOM     12  C   UNL     1      80.085  86.205  86.541  1.00  0.00     0.009 A 
BRANCH   8  13
ATOM     13  O   UNL     1      83.166  88.401  84.731  1.00  0.00    -0.493 OA
ATOM     14  C   UNL     1      84.246  88.749  85.617  1.00  0.00     0.278 C 
ENDBRANCH   8  13
BRANCH   9  15
ATOM     15  O   UNL     1      81.257  87.084  83.170  1.00  0.00    -0.504 OA
ATOM     16  H   UNL     1      80.370  87.027  82.809  1.00  0.00     0.293 HD
ENDBRANCH   9  15
ENDBRANCH   6   7
ENDBRANCH   3   6
ENDBRANCH   1   2
BRANCH   1  17
ATOM     17  C   UNL     1      83.498  90.535  90.263  1.00  0.00     0.010 C 
BRANCH  17  18
ATOM     18  C   UNL     1      83.887  90.517  88.758  1.00  0.00     0.005 C 
BRANCH  18  19
ATOM     19  C   UNL     1      82.892  91.324  87.882  1.00  0.00     0.027 C 
BRANCH  19  20
ATOM     20  C   UNL     1      82.639  92.652  88.422  1.00  0.00    -0.031 C 
ATOM     21  C   UNL     1      83.176  93.783  87.930  1.00  0.00    -0.028 C 
BRANCH  21  22
ATOM     22  C   UNL     1      82.892  95.110  88.477  1.00  0.00     0.005 C 
ATOM     23  C   UNL     1      82.515  96.134  87.371  1.00  0.00     0.012 C 
ATOM     24  C   UNL     1      81.778  95.019  89.551  1.00  0.00     0.012 C 
ENDBRANCH  21  22
ENDBRANCH  19  20
ENDBRANCH  18  19
ENDBRANCH  17  18
ENDBRANCH   1  17
TORSDOF 10
ENDMDL
MODEL 6
REMARK VINA RESULT:    -5.672     12.895     16.072
REMARK INTER + INTRA:          -9.770
REMARK INTER:                  -8.092
REMARK INTRA:                  -1.678
REMARK UNBOUND:                -0.948
REMARK SMILES COc1cc(CNC(=O)CCCC/C=C/C(C)C)ccc1O
REMARK SMILES IDX 10 1 8 2 7 3 9 5 6 6 5 7 3 8 21 9 4 10 20 11 19 12 2 13 1 14
REMARK SMILES IDX 22 15 11 17 12 18 13 19 14 20 15 21 16 22 17 23 18 24
REMARK H PARENT 7 4 22 16
REMARK Flexibility Score: inf
ROOT
ATOM      1  C   UNL     1      82.116  90.040  90.999  1.00  0.00     0.100 C 
ENDROOT
BRANCH   1   2
ATOM      2  C   UNL     1      81.593  88.697  90.685  1.00  0.00     0.220 C 
ATOM      3  N   UNL     1      81.712  88.185  89.428  1.00  0.00    -0.352 N 
ATOM      4  H   UNL     1      82.153  88.799  88.757  1.00  0.00     0.163 HD
ATOM      5  O   UNL     1      81.060  88.038  91.610  1.00  0.00    -0.275 OA
BRANCH   3   6
ATOM      6  C   UNL     1      81.269  86.887  89.030  1.00  0.00     0.151 C 
BRANCH   6   7
ATOM      7  C   UNL     1      81.160  86.776  87.550  1.00  0.00    -0.025 A 
ATOM      8  C   UNL     1      80.312  87.642  85.407  1.00  0.00     0.160 A 
ATOM      9  C   UNL     1      80.959  86.591  84.725  1.00  0.00     0.157 A 
ATOM     10  C   UNL     1      80.416  87.724  86.811  1.00  0.00     0.056 A 
ATOM     11  C   UNL     1      81.688  85.628  85.450  1.00  0.00     0.050 A 
ATOM     12  C   UNL     1      81.797  85.724  86.851  1.00  0.00     0.009 A 
BRANCH   8  13
ATOM     13  O   UNL     1      79.547  88.544  84.712  1.00  0.00    -0.493 OA
ATOM     14  C   UNL     1      79.789  89.917  85.070  1.00  0.00     0.278 C 
ENDBRANCH   8  13
BRANCH   9  15
ATOM     15  O   UNL     1      80.889  86.491  83.373  1.00  0.00    -0.504 OA
ATOM     16  H   UNL     1      81.610  85.942  83.054  1.00  0.00     0.293 HD
ENDBRANCH   9  15
ENDBRANCH   6   7
ENDBRANCH   3   6
ENDBRANCH   1   2
BRANCH   1  17
ATOM     17  C   UNL     1      80.998  91.116  90.956  1.00  0.00     0.010 C 
BRANCH  17  18
ATOM     18  C   UNL     1      80.878  91.807  89.568  1.00  0.00     0.005 C 
BRANCH  18  19
ATOM     19  C   UNL     1      82.247  91.922  88.845  1.00  0.00     0.027 C 
BRANCH  19  20
ATOM     20  C   UNL     1      82.259  91.204  87.580  1.00  0.00    -0.031 C 
ATOM     21  C   UNL     1      83.378  90.850  86.922  1.00  0.00    -0.028 C 
BRANCH  21  22
ATOM     22  C   UNL     1      83.367  90.111  85.660  1.00  0.00     0.005 C 
ATOM     23  C   UNL     1      84.196  90.821  84.554  1.00  0.00     0.012 C 
ATOM     24  C   UNL     1      83.870  88.661  85.883  1.00  0.00     0.012 C 
ENDBRANCH  21  22
ENDBRANCH  19  20
ENDBRANCH  18  19
ENDBRANCH  17  18
ENDBRANCH   1  17
TORSDOF 10
ENDMDL
MODEL 7
REMARK VINA RESULT:    -5.627     12.691     16.056
REMARK INTER + INTRA:          -9.700
REMARK INTER:                  -7.817
REMARK INTRA:                  -1.883
REMARK UNBOUND:                -0.948
REMARK SMILES COc1cc(CNC(=O)CCCC/C=C/C(C)C)ccc1O
REMARK SMILES IDX 10 1 8 2 7 3 9 5 6 6 5 7 3 8 21 9 4 10 20 11 19 12 2 13 1 14
REMARK SMILES IDX 22 15 11 17 12 18 13 19 14 20 15 21 16 22 17 23 18 24
REMARK H PARENT 7 4 22 16
REMARK Flexibility Score: inf
ROOT
ATOM      1  C   UNL     1      80.289  87.315  87.142  1.00  0.00     0.100 C 
ENDROOT
BRANCH   1   2
ATOM      2  C   UNL     1      81.118  87.694  88.302  1.00  0.00     0.220 C 
ATOM      3  N   UNL     1      81.982  88.744  88.221  1.00  0.00    -0.352 N 
ATOM      4  H   UNL     1      82.015  89.200  87.320  1.00  0.00     0.163 HD
ATOM      5  O   UNL     1      80.985  87.039  89.364  1.00  0.00    -0.275 OA
BRANCH   3   6
ATOM      6  C   UNL     1      82.803  89.210  89.293  1.00  0.00     0.151 C 
BRANCH   6   7
ATOM      7  C   UNL     1      82.933  90.692  89.277  1.00  0.00    -0.025 A 
ATOM      8  C   UNL     1      83.535  92.789  90.420  1.00  0.00     0.160 A 
ATOM      9  C   UNL     1      83.206  93.517  89.258  1.00  0.00     0.157 A 
ATOM     10  C   UNL     1      83.394  91.385  90.419  1.00  0.00     0.056 A 
ATOM     11  C   UNL     1      82.726  92.842  88.118  1.00  0.00     0.050 A 
ATOM     12  C   UNL     1      82.600  91.439  88.123  1.00  0.00     0.009 A 
BRANCH   8  13
ATOM     13  O   UNL     1      83.940  93.447  91.553  1.00  0.00    -0.493 OA
ATOM     14  C   UNL     1      82.881  93.695  92.497  1.00  0.00     0.278 C 
ENDBRANCH   8  13
BRANCH   9  15
ATOM     15  O   UNL     1      83.343  94.868  89.221  1.00  0.00    -0.504 OA
ATOM     16  H   UNL     1      84.023  95.138  89.842  1.00  0.00     0.293 HD
ENDBRANCH   9  15
ENDBRANCH   6   7
ENDBRANCH   3   6
ENDBRANCH   1   2
BRANCH   1  17
ATOM     17  C   UNL     1      80.938  87.761  85.804  1.00  0.00     0.010 C 
BRANCH  17  18
ATOM     18  C   UNL     1      80.186  88.944  85.132  1.00  0.00     0.005 C 
BRANCH  18  19
ATOM     19  C   UNL     1      81.144  89.886  84.354  1.00  0.00     0.027 C 
BRANCH  19  20
ATOM     20  C   UNL     1      82.528  89.730  84.776  1.00  0.00    -0.031 C 
ATOM     21  C   UNL     1      83.477  90.671  84.618  1.00  0.00    -0.028 C 
BRANCH  21  22
ATOM     22  C   UNL     1      84.858  90.501  85.068  1.00  0.00     0.005 C 
ATOM     23  C   UNL     1      85.465  91.821  85.619  1.00  0.00     0.012 C 
ATOM     24  C   UNL     1      84.941  89.370  86.126  1.00  0.00     0.012 C 
ENDBRANCH  21  22
ENDBRANCH  19  20
ENDBRANCH  18  19
ENDBRANCH  17  18
ENDBRANCH   1  17
TORSDOF 10
ENDMDL
MODEL 8
REMARK VINA RESULT:    -5.597     11.147     12.873
REMARK INTER + INTRA:          -9.653
REMARK INTER:                  -8.904
REMARK INTRA:                  -0.750
REMARK UNBOUND:                -0.948
REMARK SMILES COc1cc(CNC(=O)CCCC/C=C/C(C)C)ccc1O
REMARK SMILES IDX 10 1 8 2 7 3 9 5 6 6 5 7 3 8 21 9 4 10 20 11 19 12 2 13 1 14
REMARK SMILES IDX 22 15 11 17 12 18 13 19 14 20 15 21 16 22 17 23 18 24
REMARK H PARENT 7 4 22 16
REMARK Flexibility Score: inf
ROOT
ATOM      1  C   UNL     1      98.107  81.989  78.725  1.00  0.00     0.100 C 
ENDROOT
BRANCH   1   2
ATOM      2  C   UNL     1      97.854  81.418  80.062  1.00  0.00     0.220 C 
ATOM      3  N   UNL     1      97.113  82.103  80.977  1.00  0.00    -0.352 N 
ATOM      4  H   UNL     1      96.791  83.011  80.672  1.00  0.00     0.163 HD
ATOM      5  O   UNL     1      98.318  80.281  80.317  1.00  0.00    -0.275 OA
BRANCH   3   6
ATOM      6  C   UNL     1      96.785  81.626  82.283  1.00  0.00     0.151 C 
BRANCH   6   7
ATOM      7  C   UNL     1      96.480  82.746  83.214  1.00  0.00    -0.025 A 
ATOM      8  C   UNL     1      95.384  83.579  85.255  1.00  0.00     0.160 A 
ATOM      9  C   UNL     1      95.905  84.867  85.010  1.00  0.00     0.157 A 
ATOM     10  C   UNL     1      95.674  82.533  84.355  1.00  0.00     0.056 A 
ATOM     11  C   UNL     1      96.694  85.099  83.866  1.00  0.00     0.050 A 
ATOM     12  C   UNL     1      96.988  84.045  82.979  1.00  0.00     0.009 A 
BRANCH   8  13
ATOM     13  O   UNL     1      94.562  83.363  86.332  1.00  0.00    -0.493 OA
ATOM     14  C   UNL     1      93.163  83.301  85.998  1.00  0.00     0.278 C 
ENDBRANCH   8  13
BRANCH   9  15
ATOM     15  O   UNL     1      95.655  85.893  85.864  1.00  0.00    -0.504 OA
ATOM     16  H   UNL     1      95.880  86.724  85.441  1.00  0.00     0.293 HD
ENDBRANCH   9  15
ENDBRANCH   6   7
ENDBRANCH   3   6
ENDBRANCH   1   2
BRANCH   1  17
ATOM     17  C   UNL     1      96.872  82.761  78.188  1.00  0.00     0.010 C 
BRANCH  17  18
ATOM     18  C   UNL     1      97.166  83.535  76.873  1.00  0.00     0.005 C 
BRANCH  18  19
ATOM     19  C   UNL     1      97.127  82.614  75.624  1.00  0.00     0.027 C 
BRANCH  19  20
ATOM     20  C   UNL     1      98.412  82.560  74.943  1.00  0.00    -0.031 C 
ATOM     21  C   UNL     1      99.338  83.534  74.998  1.00  0.00    -0.028 C 
BRANCH  21  22
ATOM     22  C   UNL     1     100.632  83.449  74.321  1.00  0.00     0.005 C 
ATOM     23  C   UNL     1     100.816  84.569  73.259  1.00  0.00     0.012 C 
ATOM     24  C   UNL     1     101.783  83.478  75.360  1.00  0.00     0.012 C 
ENDBRANCH  21  22
ENDBRANCH  19  20
ENDBRANCH  18  19
ENDBRANCH  17  18
ENDBRANCH   1  17
TORSDOF 10
ENDMDL
MODEL 9
REMARK VINA RESULT:    -5.525     26.049     29.064
REMARK INTER + INTRA:          -9.541
REMARK INTER:                  -8.686
REMARK INTRA:                  -0.855
REMARK UNBOUND:                -0.948
REMARK SMILES COc1cc(CNC(=O)CCCC/C=C/C(C)C)ccc1O
REMARK SMILES IDX 10 1 8 2 7 3 9 5 6 6 5 7 3 8 21 9 4 10 20 11 19 12 2 13 1 14
REMARK SMILES IDX 22 15 11 17 12 18 13 19 14 20 15 21 16 22 17 23 18 24
REMARK H PARENT 7 4 22 16
REMARK Flexibility Score: inf
ROOT
ATOM      1  C   UNL     1      81.426  66.585  74.955  1.00  0.00     0.100 C 
ENDROOT
BRANCH   1   2
ATOM      2  C   UNL     1      82.036  65.395  75.580  1.00  0.00     0.220 C 
ATOM      3  N   UNL     1      83.214  64.895  75.111  1.00  0.00    -0.352 N 
ATOM      4  H   UNL     1      83.597  65.384  74.313  1.00  0.00     0.163 HD
ATOM      5  O   UNL     1      81.453  64.877  76.562  1.00  0.00    -0.275 OA
BRANCH   3   6
ATOM      6  C   UNL     1      83.901  63.772  75.663  1.00  0.00     0.151 C 
BRANCH   6   7
ATOM      7  C   UNL     1      84.538  64.107  76.966  1.00  0.00    -0.025 A 
ATOM      8  C   UNL     1      85.802  65.682  78.374  1.00  0.00     0.160 A 
ATOM      9  C   UNL     1      85.741  64.771  79.449  1.00  0.00     0.157 A 
ATOM     10  C   UNL     1      85.203  65.341  77.143  1.00  0.00     0.056 A 
ATOM     11  C   UNL     1      85.098  63.528  79.280  1.00  0.00     0.050 A 
ATOM     12  C   UNL     1      84.492  63.202  78.051  1.00  0.00     0.009 A 
BRANCH   8  13
ATOM     13  O   UNL     1      86.483  66.864  78.513  1.00  0.00    -0.493 OA
ATOM     14  C   UNL     1      86.921  67.439  77.268  1.00  0.00     0.278 C 
ENDBRANCH   8  13
BRANCH   9  15
ATOM     15  O   UNL     1      86.296  65.073  80.651  1.00  0.00    -0.504 OA
ATOM     16  H   UNL     1      86.244  64.309  81.229  1.00  0.00     0.293 HD
ENDBRANCH   9  15
ENDBRANCH   6   7
ENDBRANCH   3   6
ENDBRANCH   1   2
BRANCH   1  17
ATOM     17  C   UNL     1      80.077  66.242  74.267  1.00  0.00     0.010 C 
BRANCH  17  18
ATOM     18  C   UNL     1      80.220  65.161  73.159  1.00  0.00     0.005 C 
BRANCH  18  19
ATOM     19  C   UNL     1      80.073  65.754  71.732  1.00  0.00     0.027 C 
BRANCH  19  20
ATOM     20  C   UNL     1      81.308  66.362  71.262  1.00  0.00    -0.031 C 
ATOM     21  C   UNL     1      81.529  67.689  71.217  1.00  0.00    -0.028 C 
BRANCH  21  22
ATOM     22  C   UNL     1      82.787  68.277  70.758  1.00  0.00     0.005 C 
ATOM     23  C   UNL     1      83.329  69.350  71.743  1.00  0.00     0.012 C 
ATOM     24  C   UNL     1      83.842  67.167  70.515  1.00  0.00     0.012 C 
ENDBRANCH  21  22
ENDBRANCH  19  20
ENDBRANCH  18  19
ENDBRANCH  17  18
ENDBRANCH   1  17
TORSDOF 10
ENDMDL
MODEL 10
REMARK VINA RESULT:    -5.479     24.423     27.878
REMARK INTER + INTRA:          -9.470
REMARK INTER:                  -7.946
REMARK INTRA:                  -1.524
REMARK UNBOUND:                -0.948
REMARK SMILES COc1cc(CNC(=O)CCCC/C=C/C(C)C)ccc1O
REMARK SMILES IDX 10 1 8 2 7 3 9 5 6 6 5 7 3 8 21 9 4 10 20 11 19 12 2 13 1 14
REMARK SMILES IDX 22 15 11 17 12 18 13 19 14 20 15 21 16 22 17 23 18 24
REMARK H PARENT 7 4 22 16
REMARK Flexibility Score: inf
ROOT
ATOM      1  C   UNL     1      81.961  63.976  74.337  1.00  0.00     0.100 C 
ENDROOT
BRANCH   1   2
ATOM      2  C   UNL     1      82.437  64.681  75.542  1.00  0.00     0.220 C 
ATOM      3  N   UNL     1      83.768  64.909  75.730  1.00  0.00    -0.352 N 
ATOM      4  H   UNL     1      84.369  64.541  75.006  1.00  0.00     0.163 HD
ATOM      5  O   UNL     1      81.584  65.082  76.370  1.00  0.00    -0.275 OA
BRANCH   3   6
ATOM      6  C   UNL     1      84.327  65.608  76.842  1.00  0.00     0.151 C 
BRANCH   6   7
ATOM      7  C   UNL     1      84.895  66.922  76.433  1.00  0.00    -0.025 A 
ATOM      8  C   UNL     1      86.000  69.040  77.026  1.00  0.00     0.160 A 
ATOM      9  C   UNL     1      86.000  69.421  75.668  1.00  0.00     0.157 A 
ATOM     10  C   UNL     1      85.447  67.797  77.395  1.00  0.00     0.056 A 
ATOM     11  C   UNL     1      85.435  68.568  74.699  1.00  0.00     0.050 A 
ATOM     12  C   UNL     1      84.895  67.323  75.077  1.00  0.00     0.009 A 
BRANCH   8  13
ATOM     13  O   UNL     1      86.489  69.896  77.980  1.00  0.00    -0.493 OA
ATOM     14  C   UNL     1      86.969  69.239  79.167  1.00  0.00     0.278 C 
ENDBRANCH   8  13
BRANCH   9  15
ATOM     15  O   UNL     1      86.537  70.606  75.277  1.00  0.00    -0.504 OA
ATOM     16  H   UNL     1      86.671  70.599  74.326  1.00  0.00     0.293 HD
ENDBRANCH   9  15
ENDBRANCH   6   7
ENDBRANCH   3   6
ENDBRANCH   1   2
BRANCH   1  17
ATOM     17  C   UNL     1      80.450  64.226  74.087  1.00  0.00     0.010 C 
BRANCH  17  18
ATOM     18  C   UNL     1      80.187  65.256  72.952  1.00  0.00     0.005 C 
BRANCH  18  19
ATOM     19  C   UNL     1      80.273  66.723  73.455  1.00  0.00     0.027 C 
BRANCH  19  20
ATOM     20  C   UNL     1      81.394  67.439  72.864  1.00  0.00    -0.031 C 
ATOM     21  C   UNL     1      81.891  67.186  71.639  1.00  0.00    -0.028 C 
BRANCH  21  22
ATOM     22  C   UNL     1      83.007  67.932  71.057  1.00  0.00     0.005 C 
ATOM     23  C   UNL     1      83.219  69.309  71.747  1.00  0.00     0.012 C 
ATOM     24  C   UNL     1      84.303  67.083  71.107  1.00  0.00     0.012 C 
ENDBRANCH  21  22
ENDBRANCH  19  20
ENDBRANCH  18  19
ENDBRANCH  17  18
ENDBRANCH   1  17
TORSDOF 10
ENDMDL
