MODEL 1
REMARK VINA RESULT:    -7.961      0.000      0.000
REMARK INTER + INTRA:         -13.751
REMARK INTER:                 -13.546
REMARK INTRA:                  -0.205
REMARK UNBOUND:                -0.205
REMARK SMILES C=C(C)[C@]12C[C@@H](C)[C@@]34O[C@](Cc5ccccc5)(O[C@@H]1[C@@H]3C=C(COC(=O)Cc1ccc(O)cc1)C[C@]1(O)C(=O)C(C)=C[C@@H]41)O2
REMARK SMILES IDX 23 1 22 2 21 3 20 4 9 5 8 6 10 7 6 8 18 10 44 11 19 12 5 13
REMARK SMILES IDX 7 14 4 15 11 16 12 17 13 18 17 19 14 20 16 21 15 22 2 23
REMARK SMILES IDX 3 24 1 25 35 26 36 27 43 28 38 29 42 30 39 32 40 33 41 34
REMARK SMILES IDX 37 35 24 37 25 38 26 39 27 40 28 41 29 42 34 43 30 44 33 45
REMARK SMILES IDX 31 46 32 47
REMARK H PARENT 37 36 32 48
REMARK Flexibility Score: 90.00
ROOT
ATOM      1  C   UNL     1      92.996  98.757  71.101  1.00  0.00     0.264 C 
ENDROOT
BRANCH   1   2
ATOM      2  C   UNL     1      94.436  98.661  71.549  1.00  0.00    -0.033 C 
ATOM      3  C   UNL     1      94.707  98.396  72.844  1.00  0.00    -0.015 C 
BRANCH   3   4
ATOM      4  C   UNL     1      96.049  98.323  73.554  1.00  0.00     0.078 C 
ATOM      5  O   UNL     1      96.779  95.962  73.477  1.00  0.00    -0.319 OA
ATOM      6  C   UNL     1      97.124  97.307  73.020  1.00  0.00     0.095 CG0
ATOM      7  C   UNL     1      96.340  95.871  74.846  1.00  0.00     0.289 C 
ATOM      8  C   UNL     1      98.524  97.724  73.633  1.00  0.00     0.023 C 
ATOM      9  G   UNL     1      97.075  97.214  71.467  1.00  0.00     0.000 G0
ATOM     10  O   UNL     1      95.208  96.702  75.083  1.00  0.00    -0.320 OA
ATOM     11  O   UNL     1      97.338  96.307  75.766  1.00  0.00    -0.313 OA
ATOM     12  C   UNL     1      95.835  97.994  75.052  1.00  0.00     0.170 C 
ATOM     13  C   UNL     1      98.366  98.333  75.060  1.00  0.00     0.049 C 
ATOM     14  C   UNL     1      99.588  96.613  73.668  1.00  0.00     0.011 C 
ATOM     15  C   UNL     1      97.167  97.739  75.799  1.00  0.00     0.122 C 
BRANCH   7  16
ATOM     16  C   UNL     1      95.984  94.426  75.135  1.00  0.00     0.135 C 
BRANCH  16  17
ATOM     17  C   UNL     1      94.611  94.291  75.745  1.00  0.00    -0.040 A 
ATOM     18  C   UNL     1      94.475  94.085  77.118  1.00  0.00     0.004 A 
ATOM     19  C   UNL     1      93.479  94.374  74.936  1.00  0.00     0.004 A 
ATOM     20  C   UNL     1      93.205  93.962  77.682  1.00  0.00     0.000 A 
ATOM     21  C   UNL     1      92.209  94.250  75.500  1.00  0.00     0.000 A 
ATOM     22  C   UNL     1      92.072  94.044  76.872  1.00  0.00     0.000 A 
ENDBRANCH  16  17
ENDBRANCH   7  16
BRANCH  15  23
ATOM     23  C   UNL     1      97.101  98.171  77.228  1.00  0.00    -0.046 C 
ATOM     24  C   UNL     1      97.011  97.075  78.247  1.00  0.00     0.042 C 
ATOM     25  C   UNL     1      97.122  99.465  77.579  1.00  0.00     0.010 C 
ENDBRANCH  15  23
ENDBRANCH   3   4
BRANCH   2  26
ATOM     26  C   UNL     1      95.426  98.879  70.421  1.00  0.00     0.078 C 
BRANCH  26  27
ATOM     27  C   UNL     1      96.891  98.552  70.706  1.00  0.00     0.140 C 
ATOM     28  C   UNL     1      97.055  97.221  71.469  1.00  0.00     0.086 CG0
ATOM     29  C   UNL     1      97.686  98.302  69.442  1.00  0.00     0.190 C 
ATOM     30  C   UNL     1      98.164  96.527  70.728  1.00  0.00    -0.010 C 
ATOM     31  G   UNL     1      97.120  97.324  73.021  1.00  0.00     0.000 G0
ATOM     32  O   UNL     1      97.688  99.020  68.453  1.00  0.00    -0.291 OA
ATOM     33  C   UNL     1      98.522  97.093  69.572  1.00  0.00    -0.008 C 
ATOM     34  C   UNL     1      99.500  96.649  68.558  1.00  0.00     0.048 C 
BRANCH  27  35
ATOM     35  O   UNL     1      97.558  99.646  71.313  1.00  0.00    -0.381 OA
ATOM     36  H   UNL     1      98.187  99.297  71.968  1.00  0.00     0.212 HD
ENDBRANCH  27  35
ENDBRANCH  26  27
ENDBRANCH   2  26
ENDBRANCH   1   2
BRANCH   1  37
ATOM     37  O   UNL     1      92.487 100.030  71.436  1.00  0.00    -0.461 OA
BRANCH  37  38
ATOM     38  C   UNL     1      91.809 100.695  70.440  1.00  0.00     0.310 C 
ATOM     39  O   UNL     1      90.907 101.500  70.621  1.00  0.00    -0.252 OA
BRANCH  38  40
ATOM     40  C   UNL     1      92.351 100.275  69.095  1.00  0.00     0.158 C 
BRANCH  40  41
ATOM     41  C   UNL     1      91.326  99.579  68.239  1.00  0.00    -0.037 A 
ATOM     42  C   UNL     1      90.905  98.290  68.564  1.00  0.00     0.008 A 
ATOM     43  C   UNL     1      90.796 100.224  67.121  1.00  0.00     0.008 A 
ATOM     44  C   UNL     1      89.956  97.644  67.770  1.00  0.00     0.046 A 
ATOM     45  C   UNL     1      89.847  99.579  66.327  1.00  0.00     0.046 A 
ATOM     46  C   UNL     1      89.427  98.290  66.652  1.00  0.00     0.115 A 
BRANCH  46  47
ATOM     47  O   UNL     1      88.501  97.661  65.878  1.00  0.00    -0.508 OA
ATOM     48  H   UNL     1      88.542  96.704  66.052  1.00  0.00     0.293 HD
ENDBRANCH  46  47
ENDBRANCH  40  41
ENDBRANCH  38  40
ENDBRANCH  37  38
ENDBRANCH   1  37
TORSDOF 10
ENDMDL
MODEL 2
REMARK VINA RESULT:    -7.591     16.949     21.624
REMARK INTER + INTRA:         -13.121
REMARK INTER:                 -12.875
REMARK INTRA:                  -0.247
REMARK UNBOUND:                -0.205
REMARK SMILES C=C(C)[C@]12C[C@@H](C)[C@@]34O[C@](Cc5ccccc5)(O[C@@H]1[C@@H]3C=C(COC(=O)Cc1ccc(O)cc1)C[C@]1(O)C(=O)C(C)=C[C@@H]41)O2
REMARK SMILES IDX 23 1 22 2 21 3 20 4 9 5 8 6 10 7 6 8 18 10 44 11 19 12 5 13
REMARK SMILES IDX 7 14 4 15 11 16 12 17 13 18 17 19 14 20 16 21 15 22 2 23
REMARK SMILES IDX 3 24 1 25 35 26 36 27 43 28 38 29 42 30 39 32 40 33 41 34
REMARK SMILES IDX 37 35 24 37 25 38 26 39 27 40 28 41 29 42 34 43 30 44 33 45
REMARK SMILES IDX 31 46 32 47
REMARK H PARENT 37 36 32 48
REMARK Flexibility Score: 90.00
ROOT
ATOM      1  C   UNL     1      96.178  81.621  83.973  1.00  0.00     0.264 C 
ENDROOT
BRANCH   1   2
ATOM      2  C   UNL     1      94.988  82.072  84.787  1.00  0.00    -0.033 C 
ATOM      3  C   UNL     1      93.832  81.381  84.703  1.00  0.00    -0.015 C 
BRANCH   3   4
ATOM      4  C   UNL     1      92.486  81.668  85.350  1.00  0.00     0.078 C 
ATOM      5  O   UNL     1      92.445  80.443  87.498  1.00  0.00    -0.319 OA
ATOM      6  C   UNL     1      92.420  81.784  86.918  1.00  0.00     0.095 CG0
ATOM      7  C   UNL     1      91.624  79.467  86.827  1.00  0.00     0.289 C 
ATOM      8  C   UNL     1      91.051  82.490  87.289  1.00  0.00     0.023 C 
ATOM      9  G   UNL     1      93.699  82.472  87.477  1.00  0.00     0.000 G0
ATOM     10  O   UNL     1      91.986  79.342  85.455  1.00  0.00    -0.320 OA
ATOM     11  O   UNL     1      90.244  79.824  86.831  1.00  0.00    -0.313 OA
ATOM     12  C   UNL     1      91.464  80.579  84.944  1.00  0.00     0.170 C 
ATOM     13  C   UNL     1      89.923  82.116  86.279  1.00  0.00     0.049 C 
ATOM     14  C   UNL     1      90.550  82.250  88.723  1.00  0.00     0.011 C 
ATOM     15  C   UNL     1      90.121  80.714  85.702  1.00  0.00     0.122 C 
BRANCH   7  16
ATOM     16  C   UNL     1      91.802  78.135  87.528  1.00  0.00     0.135 C 
BRANCH  16  17
ATOM     17  C   UNL     1      91.859  76.985  86.554  1.00  0.00    -0.040 A 
ATOM     18  C   UNL     1      93.092  76.483  86.138  1.00  0.00     0.004 A 
ATOM     19  C   UNL     1      90.678  76.424  86.068  1.00  0.00     0.004 A 
ATOM     20  C   UNL     1      93.145  75.419  85.237  1.00  0.00     0.000 A 
ATOM     21  C   UNL     1      90.731  75.360  85.167  1.00  0.00     0.000 A 
ATOM     22  C   UNL     1      91.963  74.859  84.752  1.00  0.00     0.000 A 
ENDBRANCH  16  17
ENDBRANCH   7  16
BRANCH  15  23
ATOM     23  C   UNL     1      88.961  80.265  84.874  1.00  0.00    -0.046 C 
ATOM     24  C   UNL     1      89.140  78.976  84.128  1.00  0.00     0.042 C 
ATOM     25  C   UNL     1      87.825  80.973  84.801  1.00  0.00     0.010 C 
ENDBRANCH  15  23
ENDBRANCH   3   4
BRANCH   2  26
ATOM     26  C   UNL     1      95.275  83.297  85.635  1.00  0.00     0.078 C 
BRANCH  26  27
ATOM     27  C   UNL     1      94.222  83.694  86.668  1.00  0.00     0.140 C 
ATOM     28  C   UNL     1      93.708  82.483  87.473  1.00  0.00     0.086 CG0
ATOM     29  C   UNL     1      94.781  84.591  87.751  1.00  0.00     0.190 C 
ATOM     30  C   UNL     1      93.728  82.973  88.894  1.00  0.00    -0.010 C 
ATOM     31  G   UNL     1      92.429  81.787  86.924  1.00  0.00     0.000 G0
ATOM     32  O   UNL     1      95.460  85.589  87.563  1.00  0.00    -0.291 OA
ATOM     33  C   UNL     1      94.349  84.141  89.088  1.00  0.00    -0.008 C 
ATOM     34  C   UNL     1      94.628  84.874  90.340  1.00  0.00     0.048 C 
BRANCH  27  35
ATOM     35  O   UNL     1      93.190  84.472  86.083  1.00  0.00    -0.381 OA
ATOM     36  H   UNL     1      92.951  84.072  85.230  1.00  0.00     0.212 HD
ENDBRANCH  27  35
ENDBRANCH  26  27
ENDBRANCH   2  26
ENDBRANCH   1   2
BRANCH   1  37
ATOM     37  O   UNL     1      97.261  82.498  84.205  1.00  0.00    -0.461 OA
BRANCH  37  38
ATOM     38  C   UNL     1      97.682  83.241  83.126  1.00  0.00     0.310 C 
ATOM     39  O   UNL     1      97.452  84.430  82.960  1.00  0.00    -0.252 OA
BRANCH  38  40
ATOM     40  C   UNL     1      98.470  82.361  82.185  1.00  0.00     0.158 C 
BRANCH  40  41
ATOM     41  C   UNL     1      98.036  82.501  80.749  1.00  0.00    -0.037 A 
ATOM     42  C   UNL     1      96.682  82.445  80.420  1.00  0.00     0.008 A 
ATOM     43  C   UNL     1      98.989  82.686  79.748  1.00  0.00     0.008 A 
ATOM     44  C   UNL     1      96.280  82.573  79.090  1.00  0.00     0.046 A 
ATOM     45  C   UNL     1      98.588  82.815  78.417  1.00  0.00     0.046 A 
ATOM     46  C   UNL     1      97.234  82.758  78.089  1.00  0.00     0.115 A 
BRANCH  46  47
ATOM     47  O   UNL     1      96.843  82.883  76.792  1.00  0.00    -0.508 OA
ATOM     48  H   UNL     1      96.256  82.140  76.566  1.00  0.00     0.293 HD
ENDBRANCH  46  47
ENDBRANCH  40  41
ENDBRANCH  38  40
ENDBRANCH  37  38
ENDBRANCH   1  37
TORSDOF 10
ENDMDL
MODEL 3
REMARK VINA RESULT:    -7.171     19.041     22.964
REMARK INTER + INTRA:         -12.406
REMARK INTER:                  -9.725
REMARK INTRA:                  -2.681
REMARK UNBOUND:                -0.205
REMARK SMILES C=C(C)[C@]12C[C@@H](C)[C@@]34O[C@](Cc5ccccc5)(O[C@@H]1[C@@H]3C=C(COC(=O)Cc1ccc(O)cc1)C[C@]1(O)C(=O)C(C)=C[C@@H]41)O2
REMARK SMILES IDX 23 1 22 2 21 3 20 4 9 5 8 6 10 7 6 8 18 10 44 11 19 12 5 13
REMARK SMILES IDX 7 14 4 15 11 16 12 17 13 18 17 19 14 20 16 21 15 22 2 23
REMARK SMILES IDX 3 24 1 25 35 26 36 27 43 28 38 29 42 30 39 32 40 33 41 34
REMARK SMILES IDX 37 35 24 37 25 38 26 39 27 40 28 41 29 42 34 43 30 44 33 45
REMARK SMILES IDX 31 46 32 47
REMARK H PARENT 37 36 32 48
REMARK Flexibility Score: 90.00
ROOT
ATOM      1  C   UNL     1      84.185  92.771  86.326  1.00  0.00     0.264 C 
ENDROOT
BRANCH   1   2
ATOM      2  C   UNL     1      83.566  91.474  86.794  1.00  0.00    -0.033 C 
ATOM      3  C   UNL     1      83.165  91.361  88.078  1.00  0.00    -0.015 C 
BRANCH   3   4
ATOM      4  C   UNL     1      82.591  90.157  88.807  1.00  0.00     0.078 C 
ATOM      5  O   UNL     1      80.129  90.332  88.660  1.00  0.00    -0.319 OA
ATOM      6  C   UNL     1      81.268  89.509  88.256  1.00  0.00     0.095 CG0
ATOM      7  C   UNL     1      80.167  90.812  90.017  1.00  0.00     0.289 C 
ATOM      8  C   UNL     1      81.131  88.071  88.906  1.00  0.00     0.023 C 
ATOM      9  G   UNL     1      81.240  89.545  86.700  1.00  0.00     0.000 G0
ATOM     10  O   UNL     1      81.347  91.571  90.265  1.00  0.00    -0.320 OA
ATOM     11  O   UNL     1      80.186  89.750  90.968  1.00  0.00    -0.313 OA
ATOM     12  C   UNL     1      82.323  90.518  90.289  1.00  0.00     0.170 C 
ATOM     13  C   UNL     1      81.718  88.037  90.350  1.00  0.00     0.049 C 
ATOM     14  C   UNL     1      79.709  87.484  88.920  1.00  0.00     0.011 C 
ATOM     15  C   UNL     1      81.581  89.391  91.048  1.00  0.00     0.122 C 
BRANCH   7  16
ATOM     16  C   UNL     1      78.944  91.676  90.250  1.00  0.00     0.135 C 
BRANCH  16  17
ATOM     17  C   UNL     1      79.290  92.978  90.928  1.00  0.00    -0.040 A 
ATOM     18  C   UNL     1      79.735  92.980  92.249  1.00  0.00     0.004 A 
ATOM     19  C   UNL     1      79.165  94.180  90.231  1.00  0.00     0.004 A 
ATOM     20  C   UNL     1      80.056  94.185  92.876  1.00  0.00     0.000 A 
ATOM     21  C   UNL     1      79.486  95.385  90.858  1.00  0.00     0.000 A 
ATOM     22  C   UNL     1      79.931  95.387  92.179  1.00  0.00     0.000 A 
ENDBRANCH  16  17
ENDBRANCH   7  16
BRANCH  15  23
ATOM     23  C   UNL     1      81.970  89.335  92.490  1.00  0.00    -0.046 C 
ATOM     24  C   UNL     1      81.959  87.977  93.126  1.00  0.00     0.042 C 
ATOM     25  C   UNL     1      82.309  90.436  93.176  1.00  0.00     0.010 C 
ENDBRANCH  15  23
ENDBRANCH   3   4
BRANCH   2  26
ATOM     26  C   UNL     1      83.468  90.430  85.698  1.00  0.00     0.078 C 
BRANCH  26  27
ATOM     27  C   UNL     1      82.593  89.209  85.973  1.00  0.00     0.140 C 
ATOM     28  C   UNL     1      81.276  89.583  86.685  1.00  0.00     0.086 CG0
ATOM     29  C   UNL     1      82.099  88.551  84.701  1.00  0.00     0.190 C 
ATOM     30  C   UNL     1      80.234  88.814  85.921  1.00  0.00    -0.010 C 
ATOM     31  G   UNL     1      81.292  89.508  88.239  1.00  0.00     0.000 G0
ATOM     32  O   UNL     1      82.795  88.257  83.741  1.00  0.00    -0.291 OA
ATOM     33  C   UNL     1      80.658  88.247  84.787  1.00  0.00    -0.008 C 
ATOM     34  C   UNL     1      79.907  87.498  83.759  1.00  0.00     0.048 C 
BRANCH  27  35
ATOM     35  O   UNL     1      83.324  88.183  86.623  1.00  0.00    -0.381 OA
ATOM     36  H   UNL     1      83.794  88.574  87.379  1.00  0.00     0.212 HD
ENDBRANCH  27  35
ENDBRANCH  26  27
ENDBRANCH   2  26
ENDBRANCH   1   2
BRANCH   1  37
ATOM     37  O   UNL     1      84.292  93.658  87.419  1.00  0.00    -0.461 OA
BRANCH  37  38
ATOM     38  C   UNL     1      83.570  94.826  87.326  1.00  0.00     0.310 C 
ATOM     39  O   UNL     1      83.801  95.734  86.540  1.00  0.00    -0.252 OA
BRANCH  38  40
ATOM     40  C   UNL     1      82.453  94.809  88.342  1.00  0.00     0.158 C 
BRANCH  40  41
ATOM     41  C   UNL     1      82.893  95.267  89.708  1.00  0.00    -0.037 A 
ATOM     42  C   UNL     1      82.906  96.627  90.017  1.00  0.00     0.008 A 
ATOM     43  C   UNL     1      83.289  94.332  90.663  1.00  0.00     0.008 A 
ATOM     44  C   UNL     1      83.315  97.052  91.281  1.00  0.00     0.046 A 
ATOM     45  C   UNL     1      83.697  94.756  91.928  1.00  0.00     0.046 A 
ATOM     46  C   UNL     1      83.711  96.115  92.237  1.00  0.00     0.115 A 
BRANCH  46  47
ATOM     47  O   UNL     1      84.110  96.529  93.470  1.00  0.00    -0.508 OA
ATOM     48  H   UNL     1      83.373  96.999  93.899  1.00  0.00     0.293 HD
ENDBRANCH  46  47
ENDBRANCH  40  41
ENDBRANCH  38  40
ENDBRANCH  37  38
ENDBRANCH   1  37
TORSDOF 10
ENDMDL
MODEL 4
REMARK VINA RESULT:    -6.966     20.054     24.384
REMARK INTER + INTRA:         -12.058
REMARK INTER:                 -10.423
REMARK INTRA:                  -1.635
REMARK UNBOUND:                -0.205
REMARK SMILES C=C(C)[C@]12C[C@@H](C)[C@@]34O[C@](Cc5ccccc5)(O[C@@H]1[C@@H]3C=C(COC(=O)Cc1ccc(O)cc1)C[C@]1(O)C(=O)C(C)=C[C@@H]41)O2
REMARK SMILES IDX 23 1 22 2 21 3 20 4 9 5 8 6 10 7 6 8 18 10 44 11 19 12 5 13
REMARK SMILES IDX 7 14 4 15 11 16 12 17 13 18 17 19 14 20 16 21 15 22 2 23
REMARK SMILES IDX 3 24 1 25 35 26 36 27 43 28 38 29 42 30 39 32 40 33 41 34
REMARK SMILES IDX 37 35 24 37 25 38 26 39 27 40 28 41 29 42 34 43 30 44 33 45
REMARK SMILES IDX 31 46 32 47
REMARK H PARENT 37 36 32 48
REMARK Flexibility Score: 90.00
ROOT
ATOM      1  C   UNL     1      77.844  92.551  90.867  1.00  0.00     0.264 C 
ENDROOT
BRANCH   1   2
ATOM      2  C   UNL     1      78.187  91.188  90.311  1.00  0.00    -0.033 C 
ATOM      3  C   UNL     1      79.086  91.092  89.310  1.00  0.00    -0.015 C 
BRANCH   3   4
ATOM      4  C   UNL     1      79.541  89.865  88.536  1.00  0.00     0.078 C 
ATOM      5  O   UNL     1      81.560  89.002  89.675  1.00  0.00    -0.319 OA
ATOM      6  C   UNL     1      80.177  88.669  89.336  1.00  0.00     0.095 CG0
ATOM      7  C   UNL     1      82.317  89.629  88.622  1.00  0.00     0.289 C 
ATOM      8  C   UNL     1      80.162  87.398  88.391  1.00  0.00     0.023 C 
ATOM      9  G   UNL     1      79.474  88.487  90.712  1.00  0.00     0.000 G0
ATOM     10  O   UNL     1      81.689  90.828  88.176  1.00  0.00    -0.320 OA
ATOM     11  O   UNL     1      82.430  88.801  87.467  1.00  0.00    -0.313 OA
ATOM     12  C   UNL     1      80.574  90.275  87.459  1.00  0.00     0.170 C 
ATOM     13  C   UNL     1      80.351  87.795  86.895  1.00  0.00     0.049 C 
ATOM     14  C   UNL     1      81.166  86.290  88.755  1.00  0.00     0.011 C 
ATOM     15  C   UNL     1      81.206  89.054  86.747  1.00  0.00     0.122 C 
BRANCH   7  16
ATOM     16  C   UNL     1      83.701  89.943  89.155  1.00  0.00     0.135 C 
BRANCH  16  17
ATOM     17  C   UNL     1      83.675  90.309  90.618  1.00  0.00    -0.040 A 
ATOM     18  C   UNL     1      83.466  91.632  91.003  1.00  0.00     0.004 A 
ATOM     19  C   UNL     1      83.860  89.321  91.586  1.00  0.00     0.004 A 
ATOM     20  C   UNL     1      83.441  91.970  92.357  1.00  0.00     0.000 A 
ATOM     21  C   UNL     1      83.836  89.659  92.940  1.00  0.00     0.000 A 
ATOM     22  C   UNL     1      83.626  90.983  93.324  1.00  0.00     0.000 A 
ENDBRANCH  16  17
ENDBRANCH   7  16
BRANCH  15  23
ATOM     23  C   UNL     1      81.551  89.350  85.324  1.00  0.00    -0.046 C 
ATOM     24  C   UNL     1      82.688  88.563  84.741  1.00  0.00     0.042 C 
ATOM     25  C   UNL     1      80.883  90.266  84.608  1.00  0.00     0.010 C 
ENDBRANCH  15  23
ENDBRANCH   3   4
BRANCH   2  26
ATOM     26  C   UNL     1      77.439  90.060  90.997  1.00  0.00     0.078 C 
BRANCH  26  27
ATOM     27  C   UNL     1      77.912  88.636  90.714  1.00  0.00     0.140 C 
ATOM     28  C   UNL     1      79.451  88.521  90.711  1.00  0.00     0.086 CG0
ATOM     29  C   UNL     1      77.516  87.665  91.806  1.00  0.00     0.190 C 
ATOM     30  C   UNL     1      79.712  87.292  91.537  1.00  0.00    -0.010 C 
ATOM     31  G   UNL     1      80.148  88.674  89.328  1.00  0.00     0.000 G0
ATOM     32  O   UNL     1      76.397  87.558  92.286  1.00  0.00    -0.291 OA
ATOM     33  C   UNL     1      78.651  86.804  92.186  1.00  0.00    -0.008 C 
ATOM     34  C   UNL     1      78.554  85.677  93.137  1.00  0.00     0.048 C 
BRANCH  27  35
ATOM     35  O   UNL     1      77.297  88.107  89.551  1.00  0.00    -0.381 OA
ATOM     36  H   UNL     1      76.363  87.930  89.752  1.00  0.00     0.212 HD
ENDBRANCH  27  35
ENDBRANCH  26  27
ENDBRANCH   2  26
ENDBRANCH   1   2
BRANCH   1  37
ATOM     37  O   UNL     1      78.306  93.547  89.978  1.00  0.00    -0.461 OA
BRANCH  37  38
ATOM     38  C   UNL     1      78.635  94.758  90.541  1.00  0.00     0.310 C 
ATOM     39  O   UNL     1      77.863  95.694  90.696  1.00  0.00    -0.252 OA
BRANCH  38  40
ATOM     40  C   UNL     1      80.093  94.751  90.935  1.00  0.00     0.158 C 
BRANCH  40  41
ATOM     41  C   UNL     1      81.014  95.063  89.785  1.00  0.00    -0.037 A 
ATOM     42  C   UNL     1      81.906  94.094  89.324  1.00  0.00     0.008 A 
ATOM     43  C   UNL     1      80.976  96.319  89.181  1.00  0.00     0.008 A 
ATOM     44  C   UNL     1      82.761  94.383  88.259  1.00  0.00     0.046 A 
ATOM     45  C   UNL     1      81.830  96.608  88.116  1.00  0.00     0.046 A 
ATOM     46  C   UNL     1      82.722  95.641  87.655  1.00  0.00     0.115 A 
BRANCH  46  47
ATOM     47  O   UNL     1      83.555  95.922  86.617  1.00  0.00    -0.508 OA
ATOM     48  H   UNL     1      84.443  96.111  86.967  1.00  0.00     0.293 HD
ENDBRANCH  46  47
ENDBRANCH  40  41
ENDBRANCH  38  40
ENDBRANCH  37  38
ENDBRANCH   1  37
TORSDOF 10
ENDMDL
MODEL 5
REMARK VINA RESULT:    -6.890     16.721     21.751
REMARK INTER + INTRA:         -11.929
REMARK INTER:                 -10.556
REMARK INTRA:                  -1.373
REMARK UNBOUND:                -0.205
REMARK SMILES C=C(C)[C@]12C[C@@H](C)[C@@]34O[C@](Cc5ccccc5)(O[C@@H]1[C@@H]3C=C(COC(=O)Cc1ccc(O)cc1)C[C@]1(O)C(=O)C(C)=C[C@@H]41)O2
REMARK SMILES IDX 23 1 22 2 21 3 20 4 9 5 8 6 10 7 6 8 18 10 44 11 19 12 5 13
REMARK SMILES IDX 7 14 4 15 11 16 12 17 13 18 17 19 14 20 16 21 15 22 2 23
REMARK SMILES IDX 3 24 1 25 35 26 36 27 43 28 38 29 42 30 39 32 40 33 41 34
REMARK SMILES IDX 37 35 24 37 25 38 26 39 27 40 28 41 29 42 34 43 30 44 33 45
REMARK SMILES IDX 31 46 32 47
REMARK H PARENT 37 36 32 48
REMARK Flexibility Score: 90.00
ROOT
ATOM      1  C   UNL     1      76.979  93.959  65.155  1.00  0.00     0.264 C 
ENDROOT
BRANCH   1   2
ATOM      2  C   UNL     1      76.012  93.087  65.921  1.00  0.00    -0.033 C 
ATOM      3  C   UNL     1      75.888  91.786  65.583  1.00  0.00    -0.015 C 
BRANCH   3   4
ATOM      4  C   UNL     1      74.945  90.731  66.139  1.00  0.00     0.078 C 
ATOM      5  O   UNL     1      76.154  89.570  67.958  1.00  0.00    -0.319 OA
ATOM      6  C   UNL     1      74.996  90.418  67.680  1.00  0.00     0.095 CG0
ATOM      7  C   UNL     1      76.378  88.505  67.014  1.00  0.00     0.289 C 
ATOM      8  C   UNL     1      73.672  89.634  68.054  1.00  0.00     0.023 C 
ATOM      9  G   UNL     1      75.259  91.715  68.499  1.00  0.00     0.000 G0
ATOM     10  O   UNL     1      76.530  89.010  65.690  1.00  0.00    -0.320 OA
ATOM     11  O   UNL     1      75.283  87.594  66.955  1.00  0.00    -0.313 OA
ATOM     12  C   UNL     1      75.173  89.385  65.407  1.00  0.00     0.170 C 
ATOM     13  C   UNL     1      73.192  88.727  66.879  1.00  0.00     0.049 C 
ATOM     14  C   UNL     1      73.739  88.801  69.346  1.00  0.00     0.011 C 
ATOM     15  C   UNL     1      74.366  88.224  66.037  1.00  0.00     0.122 C 
BRANCH   7  16
ATOM     16  C   UNL     1      77.633  87.761  67.426  1.00  0.00     0.135 C 
BRANCH  16  17
ATOM     17  C   UNL     1      77.580  86.304  67.040  1.00  0.00    -0.040 A 
ATOM     18  C   UNL     1      76.880  85.397  67.835  1.00  0.00     0.004 A 
ATOM     19  C   UNL     1      78.230  85.865  65.888  1.00  0.00     0.004 A 
ATOM     20  C   UNL     1      76.831  84.049  67.478  1.00  0.00     0.000 A 
ATOM     21  C   UNL     1      78.181  84.517  65.530  1.00  0.00     0.000 A 
ATOM     22  C   UNL     1      77.482  83.610  66.325  1.00  0.00     0.000 A 
ENDBRANCH  16  17
ENDBRANCH   7  16
BRANCH  15  23
ATOM     23  C   UNL     1      73.950  87.212  65.020  1.00  0.00    -0.046 C 
ATOM     24  C   UNL     1      74.427  85.808  65.249  1.00  0.00     0.042 C 
ATOM     25  C   UNL     1      73.193  87.539  63.962  1.00  0.00     0.010 C 
ENDBRANCH  15  23
ENDBRANCH   3   4
BRANCH   2  26
ATOM     26  C   UNL     1      75.285  93.830  67.025  1.00  0.00     0.078 C 
BRANCH  26  27
ATOM     27  C   UNL     1      74.477  92.994  68.016  1.00  0.00     0.140 C 
ATOM     28  C   UNL     1      75.247  91.743  68.488  1.00  0.00     0.086 CG0
ATOM     29  C   UNL     1      74.216  93.725  69.316  1.00  0.00     0.190 C 
ATOM     30  C   UNL     1      75.039  91.746  69.977  1.00  0.00    -0.010 C 
ATOM     31  G   UNL     1      74.991  90.436  67.684  1.00  0.00     0.000 G0
ATOM     32  O   UNL     1      73.789  94.866  69.413  1.00  0.00    -0.291 OA
ATOM     33  C   UNL     1      74.489  92.857  70.476  1.00  0.00    -0.008 C 
ATOM     34  C   UNL     1      74.217  93.237  71.878  1.00  0.00     0.048 C 
BRANCH  27  35
ATOM     35  O   UNL     1      73.179  92.713  67.520  1.00  0.00    -0.381 OA
ATOM     36  H   UNL     1      73.267  92.320  66.634  1.00  0.00     0.212 HD
ENDBRANCH  27  35
ENDBRANCH  26  27
ENDBRANCH   2  26
ENDBRANCH   1   2
BRANCH   1  37
ATOM     37  O   UNL     1      77.946  94.477  66.043  1.00  0.00    -0.461 OA
BRANCH  37  38
ATOM     38  C   UNL     1      78.552  95.652  65.664  1.00  0.00     0.310 C 
ATOM     39  O   UNL     1      79.335  95.770  64.733  1.00  0.00    -0.252 OA
BRANCH  38  40
ATOM     40  C   UNL     1      78.100  96.769  66.575  1.00  0.00     0.158 C 
BRANCH  40  41
ATOM     41  C   UNL     1      78.240  96.428  68.036  1.00  0.00    -0.037 A 
ATOM     42  C   UNL     1      79.507  96.251  68.593  1.00  0.00     0.008 A 
ATOM     43  C   UNL     1      77.104  96.290  68.833  1.00  0.00     0.008 A 
ATOM     44  C   UNL     1      79.637  95.935  69.946  1.00  0.00     0.046 A 
ATOM     45  C   UNL     1      77.233  95.975  70.186  1.00  0.00     0.046 A 
ATOM     46  C   UNL     1      78.499  95.797  70.742  1.00  0.00     0.115 A 
BRANCH  46  47
ATOM     47  O   UNL     1      78.626  95.488  72.061  1.00  0.00    -0.508 OA
ATOM     48  H   UNL     1      78.956  96.270  72.538  1.00  0.00     0.293 HD
ENDBRANCH  46  47
ENDBRANCH  40  41
ENDBRANCH  38  40
ENDBRANCH  37  38
ENDBRANCH   1  37
TORSDOF 10
ENDMDL
MODEL 6
REMARK VINA RESULT:    -6.592      1.688      2.644
REMARK INTER + INTRA:         -11.421
REMARK INTER:                 -10.975
REMARK INTRA:                  -0.446
REMARK UNBOUND:                -0.205
REMARK SMILES C=C(C)[C@]12C[C@@H](C)[C@@]34O[C@](Cc5ccccc5)(O[C@@H]1[C@@H]3C=C(COC(=O)Cc1ccc(O)cc1)C[C@]1(O)C(=O)C(C)=C[C@@H]41)O2
REMARK SMILES IDX 23 1 22 2 21 3 20 4 9 5 8 6 10 7 6 8 18 10 44 11 19 12 5 13
REMARK SMILES IDX 7 14 4 15 11 16 12 17 13 18 17 19 14 20 16 21 15 22 2 23
REMARK SMILES IDX 3 24 1 25 35 26 36 27 43 28 38 29 42 30 39 32 40 33 41 34
REMARK SMILES IDX 37 35 24 37 25 38 26 39 27 40 28 41 29 42 34 43 30 44 33 45
REMARK SMILES IDX 31 46 32 47
REMARK H PARENT 37 36 32 48
REMARK Flexibility Score: 90.00
ROOT
ATOM      1  C   UNL     1      92.526  98.030  70.410  1.00  0.00     0.264 C 
ENDROOT
BRANCH   1   2
ATOM      2  C   UNL     1      93.933  98.347  70.863  1.00  0.00    -0.033 C 
ATOM      3  C   UNL     1      94.213  98.357  72.183  1.00  0.00    -0.015 C 
BRANCH   3   4
ATOM      4  C   UNL     1      95.510  98.714  72.891  1.00  0.00     0.078 C 
ATOM      5  O   UNL     1      96.753  96.603  73.228  1.00  0.00    -0.319 OA
ATOM      6  C   UNL     1      96.805  97.892  72.541  1.00  0.00     0.095 CG0
ATOM      7  C   UNL     1      96.294  96.651  74.593  1.00  0.00     0.289 C 
ATOM      8  C   UNL     1      98.052  98.715  73.067  1.00  0.00     0.023 C 
ATOM      9  G   UNL     1      96.836  97.525  71.029  1.00  0.00     0.000 G0
ATOM     10  O   UNL     1      94.997  97.232  74.683  1.00  0.00    -0.320 OA
ATOM     11  O   UNL     1      97.134  97.453  75.419  1.00  0.00    -0.313 OA
ATOM     12  C   UNL     1      95.319  98.607  74.424  1.00  0.00     0.170 C 
ATOM     13  C   UNL     1      97.708  99.508  74.365  1.00  0.00     0.049 C 
ATOM     14  C   UNL     1      99.336  97.898  73.294  1.00  0.00     0.011 C 
ATOM     15  C   UNL     1      96.645  98.793  75.201  1.00  0.00     0.122 C 
BRANCH   7  16
ATOM     16  C   UNL     1      96.261  95.234  75.132  1.00  0.00     0.135 C 
BRANCH  16  17
ATOM     17  C   UNL     1      96.264  95.202  76.640  1.00  0.00    -0.040 A 
ATOM     18  C   UNL     1      95.118  94.810  77.332  1.00  0.00     0.004 A 
ATOM     19  C   UNL     1      97.413  95.565  77.342  1.00  0.00     0.004 A 
ATOM     20  C   UNL     1      95.121  94.780  78.727  1.00  0.00     0.000 A 
ATOM     21  C   UNL     1      97.416  95.535  78.737  1.00  0.00     0.000 A 
ATOM     22  C   UNL     1      96.271  95.143  79.429  1.00  0.00     0.000 A 
ENDBRANCH  16  17
ENDBRANCH   7  16
BRANCH  15  23
ATOM     23  C   UNL     1      96.432  99.438  76.531  1.00  0.00    -0.046 C 
ATOM     24  C   UNL     1      95.556 100.656  76.543  1.00  0.00     0.042 C 
ATOM     25  C   UNL     1      96.990  98.956  77.651  1.00  0.00     0.010 C 
ENDBRANCH  15  23
ENDBRANCH   3   4
BRANCH   2  26
ATOM     26  C   UNL     1      94.883  98.616  69.712  1.00  0.00     0.078 C 
BRANCH  26  27
ATOM     27  C   UNL     1      96.374  98.679  70.038  1.00  0.00     0.140 C 
ATOM     28  C   UNL     1      96.808  97.558  71.004  1.00  0.00     0.086 CG0
ATOM     29  C   UNL     1      97.244  98.419  68.826  1.00  0.00     0.190 C 
ATOM     30  C   UNL     1      98.068  97.025  70.379  1.00  0.00    -0.010 C 
ATOM     31  G   UNL     1      96.800  97.917  72.519  1.00  0.00     0.000 G0
ATOM     32  O   UNL     1      97.116  98.953  67.734  1.00  0.00    -0.291 OA
ATOM     33  C   UNL     1      98.326  97.468  69.145  1.00  0.00    -0.008 C 
ATOM     34  C   UNL     1      99.411  97.103  68.211  1.00  0.00     0.048 C 
BRANCH  27  35
ATOM     35  O   UNL     1      96.758  99.978  70.458  1.00  0.00    -0.381 OA
ATOM     36  H   UNL     1      96.741 100.003  71.429  1.00  0.00     0.212 HD
ENDBRANCH  27  35
ENDBRANCH  26  27
ENDBRANCH   2  26
ENDBRANCH   1   2
BRANCH   1  37
ATOM     37  O   UNL     1      92.225  98.788  69.258  1.00  0.00    -0.461 OA
BRANCH  37  38
ATOM     38  C   UNL     1      90.961  98.630  68.739  1.00  0.00     0.310 C 
ATOM     39  O   UNL     1      89.964  98.352  69.391  1.00  0.00    -0.252 OA
BRANCH  38  40
ATOM     40  C   UNL     1      90.997  98.853  67.246  1.00  0.00     0.158 C 
BRANCH  40  41
ATOM     41  C   UNL     1      91.428 100.247  66.871  1.00  0.00    -0.037 A 
ATOM     42  C   UNL     1      92.554 100.437  66.069  1.00  0.00     0.008 A 
ATOM     43  C   UNL     1      90.701 101.348  67.323  1.00  0.00     0.008 A 
ATOM     44  C   UNL     1      92.954 101.727  65.722  1.00  0.00     0.046 A 
ATOM     45  C   UNL     1      91.100 102.639  66.976  1.00  0.00     0.046 A 
ATOM     46  C   UNL     1      92.226 102.829  66.176  1.00  0.00     0.115 A 
BRANCH  46  47
ATOM     47  O   UNL     1      92.617 104.087  65.837  1.00  0.00    -0.508 OA
ATOM     48  H   UNL     1      92.024 104.728  66.267  1.00  0.00     0.293 HD
ENDBRANCH  46  47
ENDBRANCH  40  41
ENDBRANCH  38  40
ENDBRANCH  37  38
ENDBRANCH   1  37
TORSDOF 10
ENDMDL
MODEL 7
REMARK VINA RESULT:    -6.574     33.708     38.560
REMARK INTER + INTRA:         -11.391
REMARK INTER:                 -11.141
REMARK INTRA:                  -0.250
REMARK UNBOUND:                -0.205
REMARK SMILES C=C(C)[C@]12C[C@@H](C)[C@@]34O[C@](Cc5ccccc5)(O[C@@H]1[C@@H]3C=C(COC(=O)Cc1ccc(O)cc1)C[C@]1(O)C(=O)C(C)=C[C@@H]41)O2
REMARK SMILES IDX 23 1 22 2 21 3 20 4 9 5 8 6 10 7 6 8 18 10 44 11 19 12 5 13
REMARK SMILES IDX 7 14 4 15 11 16 12 17 13 18 17 19 14 20 16 21 15 22 2 23
REMARK SMILES IDX 3 24 1 25 35 26 36 27 43 28 38 29 42 30 39 32 40 33 41 34
REMARK SMILES IDX 37 35 24 37 25 38 26 39 27 40 28 41 29 42 34 43 30 44 33 45
REMARK SMILES IDX 31 46 32 47
REMARK H PARENT 37 36 32 48
REMARK Flexibility Score: 90.00
ROOT
ATOM      1  C   UNL     1      76.282  69.820  84.692  1.00  0.00     0.264 C 
ENDROOT
BRANCH   1   2
ATOM      2  C   UNL     1      75.470  68.547  84.619  1.00  0.00    -0.033 C 
ATOM      3  C   UNL     1      74.194  68.554  85.059  1.00  0.00    -0.015 C 
BRANCH   3   4
ATOM      4  C   UNL     1      73.204  67.404  85.164  1.00  0.00     0.078 C 
ATOM      5  O   UNL     1      71.931  67.354  83.045  1.00  0.00    -0.319 OA
ATOM      6  C   UNL     1      72.866  66.586  83.864  1.00  0.00     0.095 CG0
ATOM      7  C   UNL     1      70.866  68.000  83.769  1.00  0.00     0.289 C 
ATOM      8  C   UNL     1      72.178  65.232  84.315  1.00  0.00     0.023 C 
ATOM      9  G   UNL     1      74.128  66.428  82.966  1.00  0.00     0.000 G0
ATOM     10  O   UNL     1      71.376  68.879  84.767  1.00  0.00    -0.320 OA
ATOM     11  O   UNL     1      70.039  67.068  84.463  1.00  0.00    -0.313 OA
ATOM     12  C   UNL     1      71.856  67.921  85.724  1.00  0.00     0.170 C 
ATOM     13  C   UNL     1      71.327  65.426  85.607  1.00  0.00     0.049 C 
ATOM     14  C   UNL     1      71.324  64.535  83.242  1.00  0.00     0.011 C 
ATOM     15  C   UNL     1      70.749  66.839  85.698  1.00  0.00     0.122 C 
BRANCH   7  16
ATOM     16  C   UNL     1      70.024  68.780  82.779  1.00  0.00     0.135 C 
BRANCH  16  17
ATOM     17  C   UNL     1      68.879  69.498  83.451  1.00  0.00    -0.040 A 
ATOM     18  C   UNL     1      69.095  70.727  84.072  1.00  0.00     0.004 A 
ATOM     19  C   UNL     1      67.606  68.930  83.450  1.00  0.00     0.004 A 
ATOM     20  C   UNL     1      68.036  71.391  84.693  1.00  0.00     0.000 A 
ATOM     21  C   UNL     1      66.547  69.594  84.070  1.00  0.00     0.000 A 
ATOM     22  C   UNL     1      66.762  70.823  84.692  1.00  0.00     0.000 A 
ENDBRANCH  16  17
ENDBRANCH   7  16
BRANCH  15  23
ATOM     23  C   UNL     1      69.786  66.993  86.830  1.00  0.00    -0.046 C 
ATOM     24  C   UNL     1      68.389  67.395  86.459  1.00  0.00     0.042 C 
ATOM     25  C   UNL     1      70.149  66.785  88.104  1.00  0.00     0.010 C 
ENDBRANCH  15  23
ENDBRANCH   3   4
BRANCH   2  26
ATOM     26  C   UNL     1      76.239  67.383  84.025  1.00  0.00     0.078 C 
BRANCH  26  27
ATOM     27  C   UNL     1      75.453  66.109  83.721  1.00  0.00     0.140 C 
ATOM     28  C   UNL     1      74.127  66.402  82.988  1.00  0.00     0.086 CG0
ATOM     29  C   UNL     1      76.171  65.204  82.743  1.00  0.00     0.190 C 
ATOM     30  C   UNL     1      74.110  65.390  81.877  1.00  0.00    -0.010 C 
ATOM     31  G   UNL     1      72.869  66.569  83.889  1.00  0.00     0.000 G0
ATOM     32  O   UNL     1      77.343  64.865  82.821  1.00  0.00    -0.291 OA
ATOM     33  C   UNL     1      75.252  64.720  81.695  1.00  0.00    -0.008 C 
ATOM     34  C   UNL     1      75.619  63.727  80.665  1.00  0.00     0.048 C 
BRANCH  27  35
ATOM     35  O   UNL     1      75.301  65.305  84.879  1.00  0.00    -0.381 OA
ATOM     36  H   UNL     1      74.400  65.429  85.222  1.00  0.00     0.212 HD
ENDBRANCH  27  35
ENDBRANCH  26  27
ENDBRANCH   2  26
ENDBRANCH   1   2
BRANCH   1  37
ATOM     37  O   UNL     1      76.349  70.255  86.033  1.00  0.00    -0.461 OA
BRANCH  37  38
ATOM     38  C   UNL     1      76.448  71.613  86.228  1.00  0.00     0.310 C 
ATOM     39  O   UNL     1      76.810  72.149  87.266  1.00  0.00    -0.252 OA
BRANCH  38  40
ATOM     40  C   UNL     1      76.043  72.334  84.964  1.00  0.00     0.158 C 
BRANCH  40  41
ATOM     41  C   UNL     1      77.126  73.234  84.428  1.00  0.00    -0.037 A 
ATOM     42  C   UNL     1      77.683  72.983  83.174  1.00  0.00     0.008 A 
ATOM     43  C   UNL     1      77.571  74.317  85.185  1.00  0.00     0.008 A 
ATOM     44  C   UNL     1      78.686  73.816  82.677  1.00  0.00     0.046 A 
ATOM     45  C   UNL     1      78.574  75.150  84.688  1.00  0.00     0.046 A 
ATOM     46  C   UNL     1      79.132  74.900  83.435  1.00  0.00     0.115 A 
BRANCH  46  47
ATOM     47  O   UNL     1      80.110  75.712  82.951  1.00  0.00    -0.508 OA
ATOM     48  H   UNL     1      80.862  75.164  82.663  1.00  0.00     0.293 HD
ENDBRANCH  46  47
ENDBRANCH  40  41
ENDBRANCH  38  40
ENDBRANCH  37  38
ENDBRANCH   1  37
TORSDOF 10
ENDMDL
MODEL 8
REMARK VINA RESULT:    -6.447     31.524     36.292
REMARK INTER + INTRA:         -11.175
REMARK INTER:                 -11.017
REMARK INTRA:                  -0.158
REMARK UNBOUND:                -0.205
REMARK SMILES C=C(C)[C@]12C[C@@H](C)[C@@]34O[C@](Cc5ccccc5)(O[C@@H]1[C@@H]3C=C(COC(=O)Cc1ccc(O)cc1)C[C@]1(O)C(=O)C(C)=C[C@@H]41)O2
REMARK SMILES IDX 23 1 22 2 21 3 20 4 9 5 8 6 10 7 6 8 18 10 44 11 19 12 5 13
REMARK SMILES IDX 7 14 4 15 11 16 12 17 13 18 17 19 14 20 16 21 15 22 2 23
REMARK SMILES IDX 3 24 1 25 35 26 36 27 43 28 38 29 42 30 39 32 40 33 41 34
REMARK SMILES IDX 37 35 24 37 25 38 26 39 27 40 28 41 29 42 34 43 30 44 33 45
REMARK SMILES IDX 31 46 32 47
REMARK H PARENT 37 36 32 48
REMARK Flexibility Score: 90.00
ROOT
ATOM      1  C   UNL     1      78.874  71.210  86.329  1.00  0.00     0.264 C 
ENDROOT
BRANCH   1   2
ATOM      2  C   UNL     1      79.537  69.955  86.847  1.00  0.00    -0.033 C 
ATOM      3  C   UNL     1      78.805  68.828  86.977  1.00  0.00    -0.015 C 
BRANCH   3   4
ATOM      4  C   UNL     1      79.210  67.474  87.538  1.00  0.00     0.078 C 
ATOM      5  O   UNL     1      79.970  66.101  85.626  1.00  0.00    -0.319 OA
ATOM      6  C   UNL     1      80.419  66.720  86.872  1.00  0.00     0.095 CG0
ATOM      7  C   UNL     1      78.684  65.455  85.689  1.00  0.00     0.289 C 
ATOM      8  C   UNL     1      80.891  65.590  87.878  1.00  0.00     0.023 C 
ATOM      9  G   UNL     1      81.523  67.725  86.430  1.00  0.00     0.000 G0
ATOM     10  O   UNL     1      77.667  66.365  86.102  1.00  0.00    -0.320 OA
ATOM     11  O   UNL     1      78.657  64.391  86.638  1.00  0.00    -0.313 OA
ATOM     12  C   UNL     1      78.004  66.504  87.491  1.00  0.00     0.170 C 
ATOM     13  C   UNL     1      79.693  65.009  88.689  1.00  0.00     0.049 C 
ATOM     14  C   UNL     1      81.687  64.434  87.247  1.00  0.00     0.011 C 
ATOM     15  C   UNL     1      78.390  65.059  87.889  1.00  0.00     0.122 C 
BRANCH   7  16
ATOM     16  C   UNL     1      78.358  64.912  84.312  1.00  0.00     0.135 C 
BRANCH  16  17
ATOM     17  C   UNL     1      77.235  65.674  83.653  1.00  0.00    -0.040 A 
ATOM     18  C   UNL     1      77.521  66.660  82.710  1.00  0.00     0.004 A 
ATOM     19  C   UNL     1      75.912  65.391  83.989  1.00  0.00     0.004 A 
ATOM     20  C   UNL     1      76.482  67.365  82.100  1.00  0.00     0.000 A 
ATOM     21  C   UNL     1      74.873  66.096  83.379  1.00  0.00     0.000 A 
ATOM     22  C   UNL     1      75.158  67.082  82.436  1.00  0.00     0.000 A 
ENDBRANCH  16  17
ENDBRANCH   7  16
BRANCH  15  23
ATOM     23  C   UNL     1      77.269  64.345  88.572  1.00  0.00    -0.046 C 
ATOM     24  C   UNL     1      76.264  63.683  87.678  1.00  0.00     0.042 C 
ATOM     25  C   UNL     1      77.167  64.300  89.909  1.00  0.00     0.010 C 
ENDBRANCH  15  23
ENDBRANCH   3   4
BRANCH   2  26
ATOM     26  C   UNL     1      81.010  70.144  87.157  1.00  0.00     0.078 C 
BRANCH  26  27
ATOM     27  C   UNL     1      81.831  68.887  87.437  1.00  0.00     0.140 C 
ATOM     28  C   UNL     1      81.510  67.747  86.448  1.00  0.00     0.086 CG0
ATOM     29  C   UNL     1      83.313  69.101  87.216  1.00  0.00     0.190 C 
ATOM     30  C   UNL     1      82.867  67.239  86.047  1.00  0.00    -0.010 C 
ATOM     31  G   UNL     1      80.418  66.734  86.900  1.00  0.00     0.000 G0
ATOM     32  O   UNL     1      83.967  70.034  87.657  1.00  0.00    -0.291 OA
ATOM     33  C   UNL     1      83.899  67.992  86.439  1.00  0.00    -0.008 C 
ATOM     34  C   UNL     1      85.343  67.847  86.160  1.00  0.00     0.048 C 
BRANCH  27  35
ATOM     35  O   UNL     1      81.744  68.504  88.800  1.00  0.00    -0.381 OA
ATOM     36  H   UNL     1      81.682  69.309  89.341  1.00  0.00     0.212 HD
ENDBRANCH  27  35
ENDBRANCH  26  27
ENDBRANCH   2  26
ENDBRANCH   1   2
BRANCH   1  37
ATOM     37  O   UNL     1      77.773  71.529  87.153  1.00  0.00    -0.461 OA
BRANCH  37  38
ATOM     38  C   UNL     1      76.537  71.516  86.548  1.00  0.00     0.310 C 
ATOM     39  O   UNL     1      75.854  70.517  86.369  1.00  0.00    -0.252 OA
BRANCH  38  40
ATOM     40  C   UNL     1      76.159  72.920  86.143  1.00  0.00     0.158 C 
BRANCH  40  41
ATOM     41  C   UNL     1      77.143  73.541  85.187  1.00  0.00    -0.037 A 
ATOM     42  C   UNL     1      77.329  72.987  83.920  1.00  0.00     0.008 A 
ATOM     43  C   UNL     1      77.868  74.670  85.566  1.00  0.00     0.008 A 
ATOM     44  C   UNL     1      78.241  73.561  83.034  1.00  0.00     0.046 A 
ATOM     45  C   UNL     1      78.780  75.245  84.681  1.00  0.00     0.046 A 
ATOM     46  C   UNL     1      78.967  74.691  83.415  1.00  0.00     0.115 A 
BRANCH  46  47
ATOM     47  O   UNL     1      79.856  75.251  82.551  1.00  0.00    -0.508 OA
ATOM     48  H   UNL     1      80.739  75.247  82.960  1.00  0.00     0.293 HD
ENDBRANCH  46  47
ENDBRANCH  40  41
ENDBRANCH  38  40
ENDBRANCH  37  38
ENDBRANCH   1  37
TORSDOF 10
ENDMDL
MODEL 9
REMARK VINA RESULT:    -6.300     18.460     22.983
REMARK INTER + INTRA:         -10.925
REMARK INTER:                  -8.954
REMARK INTRA:                  -1.971
REMARK UNBOUND:                -0.205
REMARK SMILES C=C(C)[C@]12C[C@@H](C)[C@@]34O[C@](Cc5ccccc5)(O[C@@H]1[C@@H]3C=C(COC(=O)Cc1ccc(O)cc1)C[C@]1(O)C(=O)C(C)=C[C@@H]41)O2
REMARK SMILES IDX 23 1 22 2 21 3 20 4 9 5 8 6 10 7 6 8 18 10 44 11 19 12 5 13
REMARK SMILES IDX 7 14 4 15 11 16 12 17 13 18 17 19 14 20 16 21 15 22 2 23
REMARK SMILES IDX 3 24 1 25 35 26 36 27 43 28 38 29 42 30 39 32 40 33 41 34
REMARK SMILES IDX 37 35 24 37 25 38 26 39 27 40 28 41 29 42 34 43 30 44 33 45
REMARK SMILES IDX 31 46 32 47
REMARK H PARENT 37 36 32 48
REMARK Flexibility Score: 90.00
ROOT
ATOM      1  C   UNL     1      79.986  89.608  89.227  1.00  0.00     0.264 C 
ENDROOT
BRANCH   1   2
ATOM      2  C   UNL     1      81.138  90.462  89.704  1.00  0.00    -0.033 C 
ATOM      3  C   UNL     1      81.197  91.757  89.330  1.00  0.00    -0.015 C 
BRANCH   3   4
ATOM      4  C   UNL     1      82.275  92.793  89.608  1.00  0.00     0.078 C 
ATOM      5  O   UNL     1      81.613  93.987  91.670  1.00  0.00    -0.319 OA
ATOM      6  C   UNL     1      82.638  93.113  91.104  1.00  0.00     0.095 CG0
ATOM      7  C   UNL     1      81.170  95.053  90.808  1.00  0.00     0.289 C 
ATOM      8  C   UNL     1      84.031  93.868  91.108  1.00  0.00     0.023 C 
ATOM      9  G   UNL     1      82.574  91.825  91.976  1.00  0.00     0.000 G0
ATOM     10  O   UNL     1      80.664  94.547  89.576  1.00  0.00    -0.320 OA
ATOM     11  O   UNL     1      82.229  95.940  90.454  1.00  0.00    -0.313 OA
ATOM     12  C   UNL     1      81.890  94.141  88.949  1.00  0.00     0.170 C 
ATOM     13  C   UNL     1      84.202  94.760  89.840  1.00  0.00     0.049 C 
ATOM     14  C   UNL     1      84.324  94.707  92.364  1.00  0.00     0.011 C 
ATOM     15  C   UNL     1      82.859  95.286  89.333  1.00  0.00     0.122 C 
BRANCH   7  16
ATOM     16  C   UNL     1      80.084  95.827  91.530  1.00  0.00     0.135 C 
BRANCH  16  17
ATOM     17  C   UNL     1      79.902  97.212  90.960  1.00  0.00    -0.040 A 
ATOM     18  C   UNL     1      80.476  98.310  91.600  1.00  0.00     0.004 A 
ATOM     19  C   UNL     1      79.159  97.393  89.794  1.00  0.00     0.004 A 
ATOM     20  C   UNL     1      80.308  99.591  91.073  1.00  0.00     0.000 A 
ATOM     21  C   UNL     1      78.991  98.674  89.267  1.00  0.00     0.000 A 
ATOM     22  C   UNL     1      79.565  99.772  89.906  1.00  0.00     0.000 A 
ENDBRANCH  16  17
ENDBRANCH   7  16
BRANCH  15  23
ATOM     23  C   UNL     1      83.012  96.284  88.232  1.00  0.00    -0.046 C 
ATOM     24  C   UNL     1      82.697  97.709  88.582  1.00  0.00     0.042 C 
ATOM     25  C   UNL     1      83.409  95.928  87.001  1.00  0.00     0.010 C 
ENDBRANCH  15  23
ENDBRANCH   3   4
BRANCH   2  26
ATOM     26  C   UNL     1      82.114  89.707  90.587  1.00  0.00     0.078 C 
BRANCH  26  27
ATOM     27  C   UNL     1      83.162  90.531  91.332  1.00  0.00     0.140 C 
ATOM     28  C   UNL     1      82.563  91.808  91.958  1.00  0.00     0.086 CG0
ATOM     29  C   UNL     1      83.717  89.806  92.541  1.00  0.00     0.190 C 
ATOM     30  C   UNL     1      83.132  91.816  93.349  1.00  0.00    -0.010 C 
ATOM     31  G   UNL     1      82.646  93.099  91.091  1.00  0.00     0.000 G0
ATOM     32  O   UNL     1      84.126  88.655  92.550  1.00  0.00    -0.291 OA
ATOM     33  C   UNL     1      83.761  90.695  93.717  1.00  0.00    -0.008 C 
ATOM     34  C   UNL     1      84.360  90.323  95.015  1.00  0.00     0.048 C 
BRANCH  27  35
ATOM     35  O   UNL     1      84.304  90.769  90.527  1.00  0.00    -0.381 OA
ATOM     36  H   UNL     1      84.231  91.661  90.147  1.00  0.00     0.212 HD
ENDBRANCH  27  35
ENDBRANCH  26  27
ENDBRANCH   2  26
ENDBRANCH   1   2
BRANCH   1  37
ATOM     37  O   UNL     1      80.485  88.550  88.436  1.00  0.00    -0.461 OA
BRANCH  37  38
ATOM     38  C   UNL     1      80.668  88.825  87.100  1.00  0.00     0.310 C 
ATOM     39  O   UNL     1      79.917  89.503  86.413  1.00  0.00    -0.252 OA
BRANCH  38  40
ATOM     40  C   UNL     1      81.936  88.161  86.618  1.00  0.00     0.158 C 
BRANCH  40  41
ATOM     41  C   UNL     1      83.007  89.149  86.236  1.00  0.00    -0.037 A 
ATOM     42  C   UNL     1      83.891  89.629  87.202  1.00  0.00     0.008 A 
ATOM     43  C   UNL     1      83.117  89.583  84.915  1.00  0.00     0.008 A 
ATOM     44  C   UNL     1      84.883  90.544  86.848  1.00  0.00     0.046 A 
ATOM     45  C   UNL     1      84.109  90.498  84.560  1.00  0.00     0.046 A 
ATOM     46  C   UNL     1      84.991  90.978  85.526  1.00  0.00     0.115 A 
BRANCH  46  47
ATOM     47  O   UNL     1      85.958  91.871  85.181  1.00  0.00    -0.508 OA
ATOM     48  H   UNL     1      86.562  91.990  85.936  1.00  0.00     0.293 HD
ENDBRANCH  46  47
ENDBRANCH  40  41
ENDBRANCH  38  40
ENDBRANCH  37  38
ENDBRANCH   1  37
TORSDOF 10
ENDMDL
MODEL 10
REMARK VINA RESULT:    -6.277     16.921     22.262
REMARK INTER + INTRA:         -10.885
REMARK INTER:                 -10.016
REMARK INTRA:                  -0.868
REMARK UNBOUND:                -0.205
REMARK SMILES C=C(C)[C@]12C[C@@H](C)[C@@]34O[C@](Cc5ccccc5)(O[C@@H]1[C@@H]3C=C(COC(=O)Cc1ccc(O)cc1)C[C@]1(O)C(=O)C(C)=C[C@@H]41)O2
REMARK SMILES IDX 23 1 22 2 21 3 20 4 9 5 8 6 10 7 6 8 18 10 44 11 19 12 5 13
REMARK SMILES IDX 7 14 4 15 11 16 12 17 13 18 17 19 14 20 16 21 15 22 2 23
REMARK SMILES IDX 3 24 1 25 35 26 36 27 43 28 38 29 42 30 39 32 40 33 41 34
REMARK SMILES IDX 37 35 24 37 25 38 26 39 27 40 28 41 29 42 34 43 30 44 33 45
REMARK SMILES IDX 31 46 32 47
REMARK H PARENT 37 36 32 48
REMARK Flexibility Score: 90.00
ROOT
ATOM      1  C   UNL     1      74.343  94.700  64.807  1.00  0.00     0.264 C 
ENDROOT
BRANCH   1   2
ATOM      2  C   UNL     1      74.003  93.514  65.679  1.00  0.00    -0.033 C 
ATOM      3  C   UNL     1      74.090  92.270  65.163  1.00  0.00    -0.015 C 
BRANCH   3   4
ATOM      4  C   UNL     1      73.735  90.935  65.799  1.00  0.00     0.078 C 
ATOM      5  O   UNL     1      75.799  90.066  66.848  1.00  0.00    -0.319 OA
ATOM      6  C   UNL     1      74.445  90.533  67.143  1.00  0.00     0.095 CG0
ATOM      7  C   UNL     1      75.914  89.199  65.704  1.00  0.00     0.289 C 
ATOM      8  C   UNL     1      73.613  89.352  67.792  1.00  0.00     0.023 C 
ATOM      9  G   UNL     1      74.656  91.780  68.051  1.00  0.00     0.000 G0
ATOM     10  O   UNL     1      75.417  89.828  64.526  1.00  0.00    -0.320 OA
ATOM     11  O   UNL     1      75.154  88.001  65.851  1.00  0.00    -0.313 OA
ATOM     12  C   UNL     1      74.006  89.787  64.795  1.00  0.00     0.170 C 
ATOM     13  C   UNL     1      72.975  88.436  66.702  1.00  0.00     0.049 C 
ATOM     14  C   UNL     1      74.377  88.482  68.805  1.00  0.00     0.011 C 
ATOM     15  C   UNL     1      73.828  88.387  65.434  1.00  0.00     0.122 C 
BRANCH   7  16
ATOM     16  C   UNL     1      77.377  88.848  65.519  1.00  0.00     0.135 C 
BRANCH  16  17
ATOM     17  C   UNL     1      77.655  87.398  65.827  1.00  0.00    -0.040 A 
ATOM     18  C   UNL     1      77.651  86.952  67.148  1.00  0.00     0.004 A 
ATOM     19  C   UNL     1      77.916  86.504  64.789  1.00  0.00     0.004 A 
ATOM     20  C   UNL     1      77.907  85.610  67.432  1.00  0.00     0.000 A 
ATOM     21  C   UNL     1      78.173  85.162  65.073  1.00  0.00     0.000 A 
ATOM     22  C   UNL     1      78.168  84.716  66.394  1.00  0.00     0.000 A 
ENDBRANCH  16  17
ENDBRANCH   7  16
BRANCH  15  23
ATOM     23  C   UNL     1      73.333  87.379  64.448  1.00  0.00    -0.046 C 
ATOM     24  C   UNL     1      71.880  87.019  64.543  1.00  0.00     0.042 C 
ATOM     25  C   UNL     1      74.142  86.828  63.531  1.00  0.00     0.010 C 
ENDBRANCH  15  23
ENDBRANCH   3   4
BRANCH   2  26
ATOM     26  C   UNL     1      73.598  93.906  67.088  1.00  0.00     0.078 C 
BRANCH  26  27
ATOM     27  C   UNL     1      73.456  92.782  68.112  1.00  0.00     0.140 C 
ATOM     28  C   UNL     1      74.633  91.787  68.053  1.00  0.00     0.086 CG0
ATOM     29  C   UNL     1      73.527  93.285  69.538  1.00  0.00     0.190 C 
ATOM     30  C   UNL     1      75.004  91.597  69.498  1.00  0.00    -0.010 C 
ATOM     31  G   UNL     1      74.430  90.538  67.147  1.00  0.00     0.000 G0
ATOM     32  O   UNL     1      72.897  94.231  69.988  1.00  0.00    -0.291 OA
ATOM     33  C   UNL     1      74.421  92.442  70.354  1.00  0.00    -0.008 C 
ATOM     34  C   UNL     1      74.608  92.599  71.811  1.00  0.00     0.048 C 
BRANCH  27  35
ATOM     35  O   UNL     1      72.181  92.167  68.033  1.00  0.00    -0.381 OA
ATOM     36  H   UNL     1      71.818  92.326  67.145  1.00  0.00     0.212 HD
ENDBRANCH  27  35
ENDBRANCH  26  27
ENDBRANCH   2  26
ENDBRANCH   1   2
BRANCH   1  37
ATOM     37  O   UNL     1      75.607  95.206  65.180  1.00  0.00    -0.461 OA
BRANCH  37  38
ATOM     38  C   UNL     1      76.675  94.801  64.412  1.00  0.00     0.310 C 
ATOM     39  O   UNL     1      76.714  94.837  63.190  1.00  0.00    -0.252 OA
BRANCH  38  40
ATOM     40  C   UNL     1      77.783  94.307  65.310  1.00  0.00     0.158 C 
BRANCH  40  41
ATOM     41  C   UNL     1      78.424  95.410  66.113  1.00  0.00    -0.037 A 
ATOM     42  C   UNL     1      78.780  95.188  67.443  1.00  0.00     0.008 A 
ATOM     43  C   UNL     1      78.661  96.653  65.527  1.00  0.00     0.008 A 
ATOM     44  C   UNL     1      79.372  96.209  68.187  1.00  0.00     0.046 A 
ATOM     45  C   UNL     1      79.254  97.674  66.270  1.00  0.00     0.046 A 
ATOM     46  C   UNL     1      79.609  97.452  67.600  1.00  0.00     0.115 A 
BRANCH  46  47
ATOM     47  O   UNL     1      80.187  98.447  68.326  1.00  0.00    -0.508 OA
ATOM     48  H   UNL     1      79.530  98.806  68.949  1.00  0.00     0.293 HD
ENDBRANCH  46  47
ENDBRANCH  40  41
ENDBRANCH  38  40
ENDBRANCH  37  38
ENDBRANCH   1  37
TORSDOF 10
ENDMDL
