MODEL 1
REMARK VINA RESULT:    -7.394      0.000      0.000
REMARK INTER + INTRA:          -9.034
REMARK INTER:                  -8.690
REMARK INTRA:                  -0.344
REMARK UNBOUND:                -0.344
REMARK SMILES O=C(/C=C/C=C/c1ccc2c(c1)OCO2)N1CCCCC1
REMARK SMILES IDX 3 1 4 2 2 3 1 4 16 5 17 6 21 7 18 8 20 9 19 10 5 11 6 12
REMARK SMILES IDX 7 13 12 14 8 15 11 16 9 17 13 18 10 19 14 20 15 21
REMARK H PARENT
REMARK Flexibility Score: inf
ROOT
ATOM      1  C   UNL     1      96.387  82.348  82.605  1.00  0.00     0.071 C 
ATOM      2  C   UNL     1      96.955  81.710  81.583  1.00  0.00     0.006 C 
ENDROOT
BRANCH   1   3
ATOM      3  C   UNL     1      96.732  81.914  83.973  1.00  0.00     0.246 C 
ATOM      4  O   UNL     1      97.909  82.016  84.322  1.00  0.00    -0.270 OA
ATOM      5  N   UNL     1      95.707  81.415  84.775  1.00  0.00    -0.339 N 
ATOM      6  C   UNL     1      96.021  80.972  86.136  1.00  0.00     0.120 C 
ATOM      7  C   UNL     1      94.302  81.237  84.378  1.00  0.00     0.120 C 
ATOM      8  C   UNL     1      95.110  81.637  87.163  1.00  0.00     0.022 C 
ATOM      9  C   UNL     1      93.356  81.889  85.386  1.00  0.00     0.022 C 
ATOM     10  C   UNL     1      93.642  81.423  86.811  1.00  0.00     0.004 C 
ENDBRANCH   1   3
BRANCH   2  11
ATOM     11  C   UNL     1      96.678  82.062  80.206  1.00  0.00     0.001 C 
ATOM     12  C   UNL     1      97.499  81.738  79.195  1.00  0.00     0.008 C 
BRANCH  12  13
ATOM     13  C   UNL     1      97.271  82.077  77.780  1.00  0.00    -0.022 A 
ATOM     14  C   UNL     1      98.253  81.776  76.846  1.00  0.00     0.058 A 
ATOM     15  C   UNL     1      96.072  82.695  77.416  1.00  0.00     0.012 A 
ATOM     16  C   UNL     1      97.993  82.113  75.534  1.00  0.00     0.166 A 
ATOM     17  C   UNL     1      95.835  83.025  76.080  1.00  0.00     0.051 A 
ATOM     18  O   UNL     1      98.825  81.903  74.476  1.00  0.00    -0.454 OA
ATOM     19  C   UNL     1      96.817  82.721  75.160  1.00  0.00     0.165 A 
ATOM     20  C   UNL     1      98.039  82.447  73.396  1.00  0.00     0.468 C 
ATOM     21  O   UNL     1      96.763  82.968  73.823  1.00  0.00    -0.454 OA
ENDBRANCH  12  13
ENDBRANCH   2  11
TORSDOF 3
ENDMDL
MODEL 2
REMARK VINA RESULT:    -7.315      2.785      9.133
REMARK INTER + INTRA:          -8.942
REMARK INTER:                  -8.557
REMARK INTRA:                  -0.385
REMARK UNBOUND:                -0.344
REMARK SMILES O=C(/C=C/C=C/c1ccc2c(c1)OCO2)N1CCCCC1
REMARK SMILES IDX 3 1 4 2 2 3 1 4 16 5 17 6 21 7 18 8 20 9 19 10 5 11 6 12
REMARK SMILES IDX 7 13 12 14 8 15 11 16 9 17 13 18 10 19 14 20 15 21
REMARK H PARENT
REMARK Flexibility Score: inf
ROOT
ATOM      1  C   UNL     1      97.472  81.546  78.955  1.00  0.00     0.071 C 
ATOM      2  C   UNL     1      97.800  80.880  80.061  1.00  0.00     0.006 C 
ENDROOT
BRANCH   1   3
ATOM      3  C   UNL     1      98.247  81.276  77.727  1.00  0.00     0.246 C 
ATOM      4  O   UNL     1      99.158  80.451  77.798  1.00  0.00    -0.270 OA
ATOM      5  N   UNL     1      97.899  81.977  76.573  1.00  0.00    -0.339 N 
ATOM      6  C   UNL     1      98.654  81.735  75.340  1.00  0.00     0.120 C 
ATOM      7  C   UNL     1      96.850  83.001  76.461  1.00  0.00     0.120 C 
ATOM      8  C   UNL     1      97.727  81.394  74.178  1.00  0.00     0.022 C 
ATOM      9  C   UNL     1      95.900  82.695  75.303  1.00  0.00     0.022 C 
ATOM     10  C   UNL     1      96.658  82.467  73.998  1.00  0.00     0.004 C 
ENDBRANCH   1   3
BRANCH   2  11
ATOM     11  C   UNL     1      97.100  81.076  81.313  1.00  0.00     0.001 C 
ATOM     12  C   UNL     1      96.647  82.275  81.712  1.00  0.00     0.008 C 
BRANCH  12  13
ATOM     13  C   UNL     1      95.937  82.531  82.977  1.00  0.00    -0.022 A 
ATOM     14  C   UNL     1      95.927  83.818  83.497  1.00  0.00     0.058 A 
ATOM     15  C   UNL     1      95.293  81.471  83.619  1.00  0.00     0.012 A 
ATOM     16  C   UNL     1      95.249  84.009  84.683  1.00  0.00     0.166 A 
ATOM     17  C   UNL     1      94.614  81.692  84.819  1.00  0.00     0.051 A 
ATOM     18  O   UNL     1      95.125  85.189  85.351  1.00  0.00    -0.454 OA
ATOM     19  C   UNL     1      94.609  82.974  85.327  1.00  0.00     0.165 A 
ATOM     20  C   UNL     1      94.335  84.780  86.487  1.00  0.00     0.468 C 
ATOM     21  O   UNL     1      94.005  83.376  86.478  1.00  0.00    -0.454 OA
ENDBRANCH  12  13
ENDBRANCH   2  11
TORSDOF 3
ENDMDL
MODEL 3
REMARK VINA RESULT:    -7.119      1.938      2.626
REMARK INTER + INTRA:          -8.711
REMARK INTER:                  -8.405
REMARK INTRA:                  -0.305
REMARK UNBOUND:                -0.344
REMARK SMILES O=C(/C=C/C=C/c1ccc2c(c1)OCO2)N1CCCCC1
REMARK SMILES IDX 3 1 4 2 2 3 1 4 16 5 17 6 21 7 18 8 20 9 19 10 5 11 6 12
REMARK SMILES IDX 7 13 12 14 8 15 11 16 9 17 13 18 10 19 14 20 15 21
REMARK H PARENT
REMARK Flexibility Score: inf
ROOT
ATOM      1  C   UNL     1      95.843  82.841  83.638  1.00  0.00     0.071 C 
ATOM      2  C   UNL     1      96.412  82.004  82.773  1.00  0.00     0.006 C 
ENDROOT
BRANCH   1   3
ATOM      3  C   UNL     1      95.669  82.388  85.032  1.00  0.00     0.246 C 
ATOM      4  O   UNL     1      95.927  81.210  85.284  1.00  0.00    -0.270 OA
ATOM      5  N   UNL     1      95.220  83.319  85.967  1.00  0.00    -0.339 N 
ATOM      6  C   UNL     1      95.032  82.897  87.358  1.00  0.00     0.120 C 
ATOM      7  C   UNL     1      94.860  84.719  85.695  1.00  0.00     0.120 C 
ATOM      8  C   UNL     1      95.774  83.814  88.324  1.00  0.00     0.022 C 
ATOM      9  C   UNL     1      95.583  85.671  86.647  1.00  0.00     0.022 C 
ATOM     10  C   UNL     1      95.380  85.271  88.106  1.00  0.00     0.004 C 
ENDBRANCH   1   3
BRANCH   2  11
ATOM     11  C   UNL     1      96.626  82.358  81.386  1.00  0.00     0.001 C 
ATOM     12  C   UNL     1      96.894  81.446  80.436  1.00  0.00     0.008 C 
BRANCH  12  13
ATOM     13  C   UNL     1      97.127  81.752  79.015  1.00  0.00    -0.022 A 
ATOM     14  C   UNL     1      96.130  82.388  78.288  1.00  0.00     0.058 A 
ATOM     15  C   UNL     1      98.347  81.393  78.436  1.00  0.00     0.012 A 
ATOM     16  C   UNL     1      96.395  82.653  76.960  1.00  0.00     0.166 A 
ATOM     17  C   UNL     1      98.589  81.673  77.089  1.00  0.00     0.051 A 
ATOM     18  O   UNL     1      95.551  83.264  76.084  1.00  0.00    -0.454 OA
ATOM     19  C   UNL     1      97.592  82.305  76.376  1.00  0.00     0.165 A 
ATOM     20  C   UNL     1      96.351  83.262  74.884  1.00  0.00     0.468 C 
ATOM     21  O   UNL     1      97.647  82.655  75.062  1.00  0.00    -0.454 OA
ENDBRANCH  12  13
ENDBRANCH   2  11
TORSDOF 3
ENDMDL
MODEL 4
REMARK VINA RESULT:    -7.109      1.259      2.048
REMARK INTER + INTRA:          -8.700
REMARK INTER:                  -8.373
REMARK INTRA:                  -0.327
REMARK UNBOUND:                -0.344
REMARK SMILES O=C(/C=C/C=C/c1ccc2c(c1)OCO2)N1CCCCC1
REMARK SMILES IDX 3 1 4 2 2 3 1 4 16 5 17 6 21 7 18 8 20 9 19 10 5 11 6 12
REMARK SMILES IDX 7 13 12 14 8 15 11 16 9 17 13 18 10 19 14 20 15 21
REMARK H PARENT
REMARK Flexibility Score: inf
ROOT
ATOM      1  C   UNL     1      95.516  82.291  83.461  1.00  0.00     0.071 C 
ATOM      2  C   UNL     1      96.627  82.029  82.775  1.00  0.00     0.006 C 
ENDROOT
BRANCH   1   3
ATOM      3  C   UNL     1      95.481  81.928  84.892  1.00  0.00     0.246 C 
ATOM      4  O   UNL     1      96.510  82.098  85.548  1.00  0.00    -0.270 OA
ATOM      5  N   UNL     1      94.291  81.413  85.403  1.00  0.00    -0.339 N 
ATOM      6  C   UNL     1      94.228  81.038  86.819  1.00  0.00     0.120 C 
ATOM      7  C   UNL     1      93.059  81.153  84.643  1.00  0.00     0.120 C 
ATOM      8  C   UNL     1      93.045  81.700  87.518  1.00  0.00     0.022 C 
ATOM      9  C   UNL     1      91.848  81.799  85.315  1.00  0.00     0.022 C 
ATOM     10  C   UNL     1      91.741  81.403  86.785  1.00  0.00     0.004 C 
ENDBRANCH   1   3
BRANCH   2  11
ATOM     11  C   UNL     1      96.756  82.348  81.369  1.00  0.00     0.001 C 
ATOM     12  C   UNL     1      97.086  81.433  80.444  1.00  0.00     0.008 C 
BRANCH  12  13
ATOM     13  C   UNL     1      97.238  81.704  79.005  1.00  0.00    -0.022 A 
ATOM     14  C   UNL     1      96.240  82.403  78.339  1.00  0.00     0.058 A 
ATOM     15  C   UNL     1      98.385  81.250  78.348  1.00  0.00     0.012 A 
ATOM     16  C   UNL     1      96.429  82.633  76.992  1.00  0.00     0.166 A 
ATOM     17  C   UNL     1      98.550  81.496  76.983  1.00  0.00     0.051 A 
ATOM     18  O   UNL     1      95.571  83.294  76.168  1.00  0.00    -0.454 OA
ATOM     19  C   UNL     1      97.553  82.192  76.331  1.00  0.00     0.165 A 
ATOM     20  C   UNL     1      96.281  83.220  74.915  1.00  0.00     0.468 C 
ATOM     21  O   UNL     1      97.539  82.522  75.011  1.00  0.00    -0.454 OA
ENDBRANCH  12  13
ENDBRANCH   2  11
TORSDOF 3
ENDMDL
MODEL 5
REMARK VINA RESULT:    -6.957     15.743     18.920
REMARK INTER + INTRA:          -8.521
REMARK INTER:                  -8.131
REMARK INTRA:                  -0.390
REMARK UNBOUND:                -0.344
REMARK SMILES O=C(/C=C/C=C/c1ccc2c(c1)OCO2)N1CCCCC1
REMARK SMILES IDX 3 1 4 2 2 3 1 4 16 5 17 6 21 7 18 8 20 9 19 10 5 11 6 12
REMARK SMILES IDX 7 13 12 14 8 15 11 16 9 17 13 18 10 19 14 20 15 21
REMARK H PARENT
REMARK Flexibility Score: inf
ROOT
ATOM      1  C   UNL     1      92.978  98.952  72.718  1.00  0.00     0.071 C 
ATOM      2  C   UNL     1      94.168  98.531  73.143  1.00  0.00     0.006 C 
ENDROOT
BRANCH   1   3
ATOM      3  C   UNL     1      92.943  99.955  71.635  1.00  0.00     0.246 C 
ATOM      4  O   UNL     1      93.956 100.631  71.452  1.00  0.00    -0.270 OA
ATOM      5  N   UNL     1      91.766 100.073  70.897  1.00  0.00    -0.339 N 
ATOM      6  C   UNL     1      91.699 101.064  69.818  1.00  0.00     0.120 C 
ATOM      7  C   UNL     1      90.524  99.316  71.115  1.00  0.00     0.120 C 
ATOM      8  C   UNL     1      91.248 100.430  68.507  1.00  0.00     0.022 C 
ATOM      9  C   UNL     1      90.037  98.667  69.819  1.00  0.00     0.022 C 
ATOM     10  C   UNL     1      89.930  99.682  68.685  1.00  0.00     0.004 C 
ENDBRANCH   1   3
BRANCH   2  11
ATOM     11  C   UNL     1      94.305  97.551  74.199  1.00  0.00     0.001 C 
ATOM     12  C   UNL     1      93.250  96.956  74.780  1.00  0.00     0.008 C 
BRANCH  12  13
ATOM     13  C   UNL     1      93.332  95.961  75.862  1.00  0.00    -0.022 A 
ATOM     14  C   UNL     1      94.568  95.421  76.191  1.00  0.00     0.058 A 
ATOM     15  C   UNL     1      92.163  95.587  76.528  1.00  0.00     0.012 A 
ATOM     16  C   UNL     1      94.594  94.493  77.212  1.00  0.00     0.166 A 
ATOM     17  C   UNL     1      92.218  94.644  77.558  1.00  0.00     0.051 A 
ATOM     18  O   UNL     1      95.700  93.851  77.679  1.00  0.00    -0.454 OA
ATOM     19  C   UNL     1      93.450  94.114  77.877  1.00  0.00     0.165 A 
ATOM     20  C   UNL     1      95.124  93.027  78.713  1.00  0.00     0.468 C 
ATOM     21  O   UNL     1      93.697  93.189  78.844  1.00  0.00    -0.454 OA
ENDBRANCH  12  13
ENDBRANCH   2  11
TORSDOF 3
ENDMDL
MODEL 6
REMARK VINA RESULT:    -6.953      2.118      3.492
REMARK INTER + INTRA:          -8.516
REMARK INTER:                  -8.138
REMARK INTRA:                  -0.378
REMARK UNBOUND:                -0.344
REMARK SMILES O=C(/C=C/C=C/c1ccc2c(c1)OCO2)N1CCCCC1
REMARK SMILES IDX 3 1 4 2 2 3 1 4 16 5 17 6 21 7 18 8 20 9 19 10 5 11 6 12
REMARK SMILES IDX 7 13 12 14 8 15 11 16 9 17 13 18 10 19 14 20 15 21
REMARK H PARENT
REMARK Flexibility Score: inf
ROOT
ATOM      1  C   UNL     1      94.745  82.057  84.260  1.00  0.00     0.071 C 
ATOM      2  C   UNL     1      95.622  82.961  83.829  1.00  0.00     0.006 C 
ENDROOT
BRANCH   1   3
ATOM      3  C   UNL     1      94.115  82.273  85.578  1.00  0.00     0.246 C 
ATOM      4  O   UNL     1      94.758  82.901  86.419  1.00  0.00    -0.270 OA
ATOM      5  N   UNL     1      92.840  81.749  85.782  1.00  0.00    -0.339 N 
ATOM      6  C   UNL     1      92.191  81.942  87.083  1.00  0.00     0.120 C 
ATOM      7  C   UNL     1      92.061  80.956  84.819  1.00  0.00     0.120 C 
ATOM      8  C   UNL     1      90.801  82.548  86.927  1.00  0.00     0.022 C 
ATOM      9  C   UNL     1      90.656  81.531  84.638  1.00  0.00     0.022 C 
ATOM     10  C   UNL     1      89.946  81.717  85.975  1.00  0.00     0.004 C 
ENDBRANCH   1   3
BRANCH   2  11
ATOM     11  C   UNL     1      96.291  82.837  82.551  1.00  0.00     0.001 C 
ATOM     12  C   UNL     1      96.564  81.649  81.987  1.00  0.00     0.008 C 
BRANCH  12  13
ATOM     13  C   UNL     1      97.248  81.465  80.696  1.00  0.00    -0.022 A 
ATOM     14  C   UNL     1      96.825  82.199  79.597  1.00  0.00     0.058 A 
ATOM     15  C   UNL     1      98.305  80.554  80.613  1.00  0.00     0.012 A 
ATOM     16  C   UNL     1      97.498  81.992  78.410  1.00  0.00     0.166 A 
ATOM     17  C   UNL     1      98.967  80.364  79.398  1.00  0.00     0.051 A 
ATOM     18  O   UNL     1      97.235  82.611  77.225  1.00  0.00    -0.454 OA
ATOM     19  C   UNL     1      98.540  81.099  78.313  1.00  0.00     0.165 A 
ATOM     20  C   UNL     1      98.230  82.007  76.373  1.00  0.00     0.468 C 
ATOM     21  O   UNL     1      99.061  81.047  77.057  1.00  0.00    -0.454 OA
ENDBRANCH  12  13
ENDBRANCH   2  11
TORSDOF 3
ENDMDL
MODEL 7
REMARK VINA RESULT:    -6.832     24.276     26.469
REMARK INTER + INTRA:          -8.374
REMARK INTER:                  -7.996
REMARK INTRA:                  -0.378
REMARK UNBOUND:                -0.344
REMARK SMILES O=C(/C=C/C=C/c1ccc2c(c1)OCO2)N1CCCCC1
REMARK SMILES IDX 3 1 4 2 2 3 1 4 16 5 17 6 21 7 18 8 20 9 19 10 5 11 6 12
REMARK SMILES IDX 7 13 12 14 8 15 11 16 9 17 13 18 10 19 14 20 15 21
REMARK H PARENT
REMARK Flexibility Score: inf
ROOT
ATOM      1  C   UNL     1      76.500  86.023  66.265  1.00  0.00     0.071 C 
ATOM      2  C   UNL     1      77.224  86.585  67.230  1.00  0.00     0.006 C 
ENDROOT
BRANCH   1   3
ATOM      3  C   UNL     1      76.781  84.616  65.915  1.00  0.00     0.246 C 
ATOM      4  O   UNL     1      77.909  84.184  66.155  1.00  0.00    -0.270 OA
ATOM      5  N   UNL     1      75.754  83.874  65.333  1.00  0.00    -0.339 N 
ATOM      6  C   UNL     1      76.005  82.475  64.970  1.00  0.00     0.120 C 
ATOM      7  C   UNL     1      74.411  84.366  64.991  1.00  0.00     0.120 C 
ATOM      8  C   UNL     1      74.951  81.548  65.566  1.00  0.00     0.022 C 
ATOM      9  C   UNL     1      73.325  83.459  65.568  1.00  0.00     0.022 C 
ATOM     10  C   UNL     1      73.545  81.999  65.182  1.00  0.00     0.004 C 
ENDBRANCH   1   3
BRANCH   2  11
ATOM     11  C   UNL     1      77.023  87.958  67.643  1.00  0.00     0.001 C 
ATOM     12  C   UNL     1      75.816  88.545  67.650  1.00  0.00     0.008 C 
BRANCH  12  13
ATOM     13  C   UNL     1      75.556  89.938  68.051  1.00  0.00    -0.022 A 
ATOM     14  C   UNL     1      75.645  90.943  67.098  1.00  0.00     0.058 A 
ATOM     15  C   UNL     1      75.227  90.209  69.382  1.00  0.00     0.012 A 
ATOM     16  C   UNL     1      75.393  92.232  67.523  1.00  0.00     0.166 A 
ATOM     17  C   UNL     1      74.977  91.523  69.784  1.00  0.00     0.051 A 
ATOM     18  O   UNL     1      75.430  93.349  66.746  1.00  0.00    -0.454 OA
ATOM     19  C   UNL     1      75.068  92.514  68.830  1.00  0.00     0.165 A 
ATOM     20  C   UNL     1      75.092  94.366  67.711  1.00  0.00     0.468 C 
ATOM     21  O   UNL     1      74.861  93.843  69.035  1.00  0.00    -0.454 OA
ENDBRANCH  12  13
ENDBRANCH   2  11
TORSDOF 3
ENDMDL
MODEL 8
REMARK VINA RESULT:    -6.795     24.486     26.710
REMARK INTER + INTRA:          -8.330
REMARK INTER:                  -7.926
REMARK INTRA:                  -0.404
REMARK UNBOUND:                -0.344
REMARK SMILES O=C(/C=C/C=C/c1ccc2c(c1)OCO2)N1CCCCC1
REMARK SMILES IDX 3 1 4 2 2 3 1 4 16 5 17 6 21 7 18 8 20 9 19 10 5 11 6 12
REMARK SMILES IDX 7 13 12 14 8 15 11 16 9 17 13 18 10 19 14 20 15 21
REMARK H PARENT
REMARK Flexibility Score: inf
ROOT
ATOM      1  C   UNL     1      76.144  85.703  67.550  1.00  0.00     0.071 C 
ATOM      2  C   UNL     1      76.753  86.880  67.417  1.00  0.00     0.006 C 
ENDROOT
BRANCH   1   3
ATOM      3  C   UNL     1      76.637  84.571  66.742  1.00  0.00     0.246 C 
ATOM      4  O   UNL     1      77.806  84.220  66.907  1.00  0.00    -0.270 OA
ATOM      5  N   UNL     1      75.750  83.979  65.844  1.00  0.00    -0.339 N 
ATOM      6  C   UNL     1      76.213  82.855  65.023  1.00  0.00     0.120 C 
ATOM      7  C   UNL     1      74.364  84.398  65.587  1.00  0.00     0.120 C 
ATOM      8  C   UNL     1      75.283  81.654  65.149  1.00  0.00     0.022 C 
ATOM      9  C   UNL     1      73.400  83.218  65.700  1.00  0.00     0.022 C 
ATOM     10  C   UNL     1      73.842  82.042  64.833  1.00  0.00     0.004 C 
ENDBRANCH   1   3
BRANCH   2  11
ATOM     11  C   UNL     1      76.341  88.049  68.166  1.00  0.00     0.001 C 
ATOM     12  C   UNL     1      75.053  88.343  68.404  1.00  0.00     0.008 C 
BRANCH  12  13
ATOM     13  C   UNL     1      74.580  89.520  69.151  1.00  0.00    -0.022 A 
ATOM     14  C   UNL     1      73.304  89.505  69.698  1.00  0.00     0.058 A 
ATOM     15  C   UNL     1      75.429  90.621  69.290  1.00  0.00     0.012 A 
ATOM     16  C   UNL     1      72.906  90.630  70.390  1.00  0.00     0.166 A 
ATOM     17  C   UNL     1      75.000  91.747  69.995  1.00  0.00     0.051 A 
ATOM     18  O   UNL     1      71.699  90.810  70.995  1.00  0.00    -0.454 OA
ATOM     19  C   UNL     1      73.731  91.722  70.535  1.00  0.00     0.165 A 
ATOM     20  C   UNL     1      71.859  92.137  71.536  1.00  0.00     0.468 C 
ATOM     21  O   UNL     1      73.145  92.722  71.248  1.00  0.00    -0.454 OA
ENDBRANCH  12  13
ENDBRANCH   2  11
TORSDOF 3
ENDMDL
MODEL 9
REMARK VINA RESULT:    -6.416      4.639      6.861
REMARK INTER + INTRA:          -7.885
REMARK INTER:                  -7.555
REMARK INTRA:                  -0.330
REMARK UNBOUND:                -0.344
REMARK SMILES O=C(/C=C/C=C/c1ccc2c(c1)OCO2)N1CCCCC1
REMARK SMILES IDX 3 1 4 2 2 3 1 4 16 5 17 6 21 7 18 8 20 9 19 10 5 11 6 12
REMARK SMILES IDX 7 13 12 14 8 15 11 16 9 17 13 18 10 19 14 20 15 21
REMARK H PARENT
REMARK Flexibility Score: inf
ROOT
ATOM      1  C   UNL     1      95.259  85.013  87.277  1.00  0.00     0.071 C 
ATOM      2  C   UNL     1      94.610  84.667  86.167  1.00  0.00     0.006 C 
ENDROOT
BRANCH   1   3
ATOM      3  C   UNL     1      94.511  85.740  88.322  1.00  0.00     0.246 C 
ATOM      4  O   UNL     1      93.540  85.173  88.824  1.00  0.00    -0.270 OA
ATOM      5  N   UNL     1      94.948  87.018  88.665  1.00  0.00    -0.339 N 
ATOM      6  C   UNL     1      94.221  87.767  89.695  1.00  0.00     0.120 C 
ATOM      7  C   UNL     1      96.073  87.744  88.056  1.00  0.00     0.120 C 
ATOM      8  C   UNL     1      95.160  88.266  90.787  1.00  0.00     0.022 C 
ATOM      9  C   UNL     1      97.037  88.265  89.122  1.00  0.00     0.022 C 
ATOM     10  C   UNL     1      96.311  89.073  90.193  1.00  0.00     0.004 C 
ENDBRANCH   1   3
BRANCH   2  11
ATOM     11  C   UNL     1      95.259  83.953  85.088  1.00  0.00     0.001 C 
ATOM     12  C   UNL     1      94.912  82.706  84.730  1.00  0.00     0.008 C 
BRANCH  12  13
ATOM     13  C   UNL     1      95.543  81.932  83.647  1.00  0.00    -0.022 A 
ATOM     14  C   UNL     1      96.058  82.605  82.547  1.00  0.00     0.058 A 
ATOM     15  C   UNL     1      95.606  80.541  83.756  1.00  0.00     0.012 A 
ATOM     16  C   UNL     1      96.639  81.837  81.559  1.00  0.00     0.166 A 
ATOM     17  C   UNL     1      96.200  79.788  82.741  1.00  0.00     0.051 A 
ATOM     18  O   UNL     1      97.196  82.306  80.409  1.00  0.00    -0.454 OA
ATOM     19  C   UNL     1      96.708  80.466  81.653  1.00  0.00     0.165 A 
ATOM     20  C   UNL     1      97.624  81.075  79.790  1.00  0.00     0.468 C 
ATOM     21  O   UNL     1      97.317  79.904  80.574  1.00  0.00    -0.454 OA
ENDBRANCH  12  13
ENDBRANCH   2  11
TORSDOF 3
ENDMDL
MODEL 10
REMARK VINA RESULT:    -6.366      8.343      9.814
REMARK INTER + INTRA:          -7.826
REMARK INTER:                  -7.505
REMARK INTRA:                  -0.321
REMARK UNBOUND:                -0.344
REMARK SMILES O=C(/C=C/C=C/c1ccc2c(c1)OCO2)N1CCCCC1
REMARK SMILES IDX 3 1 4 2 2 3 1 4 16 5 17 6 21 7 18 8 20 9 19 10 5 11 6 12
REMARK SMILES IDX 7 13 12 14 8 15 11 16 9 17 13 18 10 19 14 20 15 21
REMARK H PARENT
REMARK Flexibility Score: inf
ROOT
ATOM      1  C   UNL     1      94.070  85.030  87.820  1.00  0.00     0.071 C 
ATOM      2  C   UNL     1      93.976  84.305  86.707  1.00  0.00     0.006 C 
ENDROOT
BRANCH   1   3
ATOM      3  C   UNL     1      95.379  85.626  88.153  1.00  0.00     0.246 C 
ATOM      4  O   UNL     1      96.380  85.121  87.644  1.00  0.00    -0.270 OA
ATOM      5  N   UNL     1      95.395  86.715  89.023  1.00  0.00    -0.339 N 
ATOM      6  C   UNL     1      96.680  87.325  89.376  1.00  0.00     0.120 C 
ATOM      7  C   UNL     1      94.227  87.316  89.685  1.00  0.00     0.120 C 
ATOM      8  C   UNL     1      96.669  88.829  89.130  1.00  0.00     0.022 C 
ATOM      9  C   UNL     1      94.183  88.827  89.464  1.00  0.00     0.022 C 
ATOM     10  C   UNL     1      95.500  89.493  89.850  1.00  0.00     0.004 C 
ENDBRANCH   1   3
BRANCH   2  11
ATOM     11  C   UNL     1      92.736  83.681  86.298  1.00  0.00     0.001 C 
ATOM     12  C   UNL     1      92.528  82.357  86.377  1.00  0.00     0.008 C 
BRANCH  12  13
ATOM     13  C   UNL     1      91.292  81.670  85.968  1.00  0.00    -0.022 A 
ATOM     14  C   UNL     1      91.324  80.816  84.874  1.00  0.00     0.058 A 
ATOM     15  C   UNL     1      90.119  81.897  86.693  1.00  0.00     0.012 A 
ATOM     16  C   UNL     1      90.140  80.195  84.529  1.00  0.00     0.166 A 
ATOM     17  C   UNL     1      88.935  81.255  86.321  1.00  0.00     0.051 A 
ATOM     18  O   UNL     1      89.966  79.328  83.494  1.00  0.00    -0.454 OA
ATOM     19  C   UNL     1      88.978  80.409  85.233  1.00  0.00     0.165 A 
ATOM     20  C   UNL     1      88.563  79.021  83.626  1.00  0.00     0.468 C 
ATOM     21  O   UNL     1      87.930  79.703  84.728  1.00  0.00    -0.454 OA
ENDBRANCH  12  13
ENDBRANCH   2  11
TORSDOF 3
ENDMDL
