MODEL 1
REMARK VINA RESULT:    -6.216      0.000      0.000
REMARK INTER + INTRA:         -10.330
REMARK INTER:                  -9.668
REMARK INTRA:                  -0.662
REMARK UNBOUND:                -0.662
REMARK SMILES CCCCC/C=C/C(=O)CCc1ccc(O)c(OC)c1
REMARK SMILES IDX 6 1 7 2 8 3 9 4 10 5 11 6 12 7 17 8 20 9 15 10 14 11 13 12
REMARK SMILES IDX 18 13 19 14 16 15 5 17 4 18 3 19 2 20 1 21
REMARK H PARENT 16 16
REMARK Flexibility Score: inf
ROOT
ATOM      1  C   UNL     1      91.326  92.954  77.331  1.00  0.00    -0.023 C 
ATOM      2  C   UNL     1      91.497  94.282  77.369  1.00  0.00     0.043 C 
ENDROOT
BRANCH   2   3
ATOM      3  C   UNL     1      92.872  94.850  77.421  1.00  0.00     0.155 C 
ATOM      4  O   UNL     1      93.676  94.525  78.291  1.00  0.00    -0.295 OA
BRANCH   3   5
ATOM      5  C   UNL     1      93.212  95.894  76.375  1.00  0.00     0.085 C 
BRANCH   5   6
ATOM      6  C   UNL     1      93.859  95.257  75.144  1.00  0.00     0.044 C 
BRANCH   6   7
ATOM      7  C   UNL     1      94.425  96.276  74.184  1.00  0.00    -0.044 A 
ATOM      8  C   UNL     1      94.325  98.447  73.166  1.00  0.00     0.160 A 
ATOM      9  C   UNL     1      93.801  97.506  74.053  1.00  0.00     0.054 A 
ATOM     10  C   UNL     1      95.465  98.146  72.423  1.00  0.00     0.157 A 
ATOM     11  C   UNL     1      96.083  96.902  72.566  1.00  0.00     0.050 A 
ATOM     12  C   UNL     1      95.559  95.961  73.452  1.00  0.00     0.008 A 
BRANCH   8  13
ATOM     13  O   UNL     1      93.713  99.657  73.036  1.00  0.00    -0.493 OA
ATOM     14  C   UNL     1      92.600  99.728  72.146  1.00  0.00     0.278 C 
ENDBRANCH   8  13
BRANCH  10  15
ATOM     15  O   UNL     1      95.987  99.056  71.554  1.00  0.00    -0.504 OA
ATOM     16  H   UNL     1      95.254  99.575  71.180  1.00  0.00     0.293 HD
ENDBRANCH  10  15
ENDBRANCH   6   7
ENDBRANCH   5   6
ENDBRANCH   3   5
ENDBRANCH   2   3
BRANCH   1  17
ATOM     17  C   UNL     1      89.974  92.303  77.278  1.00  0.00     0.027 C 
BRANCH  17  18
ATOM     18  C   UNL     1      89.921  91.104  76.326  1.00  0.00     0.004 C 
BRANCH  18  19
ATOM     19  C   UNL     1      89.559  91.479  74.886  1.00  0.00     0.000 C 
BRANCH  19  20
ATOM     20  C   UNL     1      90.301  90.595  73.882  1.00  0.00    -0.003 C 
ATOM     21  C   UNL     1      90.909  89.376  74.556  1.00  0.00     0.004 C 
ENDBRANCH  19  20
ENDBRANCH  18  19
ENDBRANCH  17  18
ENDBRANCH   1  17
TORSDOF 10
ENDMDL
MODEL 2
REMARK VINA RESULT:    -6.160      2.662      3.270
REMARK INTER + INTRA:         -10.243
REMARK INTER:                  -9.221
REMARK INTRA:                  -1.022
REMARK UNBOUND:                -0.662
REMARK SMILES CCCCC/C=C/C(=O)CCc1ccc(O)c(OC)c1
REMARK SMILES IDX 6 1 7 2 8 3 9 4 10 5 11 6 12 7 17 8 20 9 15 10 14 11 13 12
REMARK SMILES IDX 18 13 19 14 16 15 5 17 4 18 3 19 2 20 1 21
REMARK H PARENT 16 16
REMARK Flexibility Score: inf
ROOT
ATOM      1  C   UNL     1      93.001  93.824  77.476  1.00  0.00    -0.023 C 
ATOM      2  C   UNL     1      93.209  93.186  78.635  1.00  0.00     0.043 C 
ENDROOT
BRANCH   2   3
ATOM      3  C   UNL     1      94.573  93.152  79.228  1.00  0.00     0.155 C 
ATOM      4  O   UNL     1      94.765  92.819  80.396  1.00  0.00    -0.295 OA
BRANCH   3   5
ATOM      5  C   UNL     1      95.712  93.599  78.332  1.00  0.00     0.085 C 
BRANCH   5   6
ATOM      6  C   UNL     1      96.221  94.985  78.732  1.00  0.00     0.044 C 
BRANCH   6   7
ATOM      7  C   UNL     1      96.548  95.856  77.542  1.00  0.00    -0.044 A 
ATOM      8  C   UNL     1      95.926  96.789  75.421  1.00  0.00     0.160 A 
ATOM      9  C   UNL     1      95.623  95.984  76.519  1.00  0.00     0.054 A 
ATOM     10  C   UNL     1      97.149  97.456  75.360  1.00  0.00     0.157 A 
ATOM     11  C   UNL     1      98.071  97.317  76.399  1.00  0.00     0.050 A 
ATOM     12  C   UNL     1      97.768  96.512  77.497  1.00  0.00     0.008 A 
BRANCH   8  13
ATOM     13  O   UNL     1      95.017  96.916  74.413  1.00  0.00    -0.493 OA
ATOM     14  C   UNL     1      93.674  96.530  74.698  1.00  0.00     0.278 C 
ENDBRANCH   8  13
BRANCH  10  15
ATOM     15  O   UNL     1      97.456  98.245  74.293  1.00  0.00    -0.504 OA
ATOM     16  H   UNL     1      96.643  98.394  73.780  1.00  0.00     0.293 HD
ENDBRANCH  10  15
ENDBRANCH   6   7
ENDBRANCH   5   6
ENDBRANCH   3   5
ENDBRANCH   2   3
BRANCH   1  17
ATOM     17  C   UNL     1      91.657  93.904  76.813  1.00  0.00     0.027 C 
BRANCH  17  18
ATOM     18  C   UNL     1      90.574  93.107  77.549  1.00  0.00     0.004 C 
BRANCH  18  19
ATOM     19  C   UNL     1      90.107  91.861  76.790  1.00  0.00     0.000 C 
BRANCH  19  20
ATOM     20  C   UNL     1      90.862  91.704  75.469  1.00  0.00    -0.003 C 
ATOM     21  C   UNL     1      89.988  91.069  74.400  1.00  0.00     0.004 C 
ENDBRANCH  19  20
ENDBRANCH  18  19
ENDBRANCH  17  18
ENDBRANCH   1  17
TORSDOF 10
ENDMDL
MODEL 3
REMARK VINA RESULT:    -6.123      5.069      6.965
REMARK INTER + INTRA:         -10.185
REMARK INTER:                  -9.472
REMARK INTRA:                  -0.713
REMARK UNBOUND:                -0.662
REMARK SMILES CCCCC/C=C/C(=O)CCc1ccc(O)c(OC)c1
REMARK SMILES IDX 6 1 7 2 8 3 9 4 10 5 11 6 12 7 17 8 20 9 15 10 14 11 13 12
REMARK SMILES IDX 18 13 19 14 16 15 5 17 4 18 3 19 2 20 1 21
REMARK H PARENT 16 16
REMARK Flexibility Score: inf
ROOT
ATOM      1  C   UNL     1      92.164  94.111  77.780  1.00  0.00    -0.023 C 
ATOM      2  C   UNL     1      92.902  93.165  78.375  1.00  0.00     0.043 C 
ENDROOT
BRANCH   2   3
ATOM      3  C   UNL     1      94.159  93.540  79.079  1.00  0.00     0.155 C 
ATOM      4  O   UNL     1      94.588  92.890  80.030  1.00  0.00    -0.295 OA
BRANCH   3   5
ATOM      5  C   UNL     1      94.857  94.796  78.595  1.00  0.00     0.085 C 
BRANCH   5   6
ATOM      6  C   UNL     1      96.369  94.707  78.806  1.00  0.00     0.044 C 
BRANCH   6   7
ATOM      7  C   UNL     1      96.824  95.373  80.083  1.00  0.00    -0.044 A 
ATOM      8  C   UNL     1      98.558  95.836  81.676  1.00  0.00     0.160 A 
ATOM      9  C   UNL     1      98.138  95.221  80.497  1.00  0.00     0.054 A 
ATOM     10  C   UNL     1      97.660  96.594  82.426  1.00  0.00     0.157 A 
ATOM     11  C   UNL     1      96.340  96.737  81.997  1.00  0.00     0.050 A 
ATOM     12  C   UNL     1      95.920  96.122  80.817  1.00  0.00     0.008 A 
BRANCH   8  13
ATOM     13  O   UNL     1      99.849  95.688  82.086  1.00  0.00    -0.493 OA
ATOM     14  C   UNL     1     100.855  96.331  81.305  1.00  0.00     0.278 C 
ENDBRANCH   8  13
BRANCH  10  15
ATOM     15  O   UNL     1      98.058  97.200  83.579  1.00  0.00    -0.504 OA
ATOM     16  H   UNL     1      98.417  96.519  84.174  1.00  0.00     0.293 HD
ENDBRANCH  10  15
ENDBRANCH   6   7
ENDBRANCH   5   6
ENDBRANCH   3   5
ENDBRANCH   2   3
BRANCH   1  17
ATOM     17  C   UNL     1      90.886  93.815  77.050  1.00  0.00     0.027 C 
BRANCH  17  18
ATOM     18  C   UNL     1      90.109  92.638  77.650  1.00  0.00     0.004 C 
BRANCH  18  19
ATOM     19  C   UNL     1      89.891  91.483  76.668  1.00  0.00     0.000 C 
BRANCH  19  20
ATOM     20  C   UNL     1      90.981  91.457  75.595  1.00  0.00    -0.003 C 
ATOM     21  C   UNL     1      90.581  90.584  74.417  1.00  0.00     0.004 C 
ENDBRANCH  19  20
ENDBRANCH  18  19
ENDBRANCH  17  18
ENDBRANCH   1  17
TORSDOF 10
ENDMDL
MODEL 4
REMARK VINA RESULT:    -5.972      3.299      5.758
REMARK INTER + INTRA:          -9.951
REMARK INTER:                  -8.999
REMARK INTRA:                  -0.952
REMARK UNBOUND:                -0.662
REMARK SMILES CCCCC/C=C/C(=O)CCc1ccc(O)c(OC)c1
REMARK SMILES IDX 6 1 7 2 8 3 9 4 10 5 11 6 12 7 17 8 20 9 15 10 14 11 13 12
REMARK SMILES IDX 18 13 19 14 16 15 5 17 4 18 3 19 2 20 1 21
REMARK H PARENT 16 16
REMARK Flexibility Score: inf
ROOT
ATOM      1  C   UNL     1      93.032  93.735  77.218  1.00  0.00    -0.023 C 
ATOM      2  C   UNL     1      92.921  94.639  76.236  1.00  0.00     0.043 C 
ENDROOT
BRANCH   2   3
ATOM      3  C   UNL     1      94.130  95.066  75.481  1.00  0.00     0.155 C 
ATOM      4  O   UNL     1      94.579  94.405  74.547  1.00  0.00    -0.295 OA
BRANCH   3   5
ATOM      5  C   UNL     1      94.812  96.334  75.957  1.00  0.00     0.085 C 
BRANCH   5   6
ATOM      6  C   UNL     1      96.245  96.057  76.412  1.00  0.00     0.044 C 
BRANCH   6   7
ATOM      7  C   UNL     1      96.421  96.178  77.907  1.00  0.00    -0.044 A 
ATOM      8  C   UNL     1      95.990  95.356  80.120  1.00  0.00     0.160 A 
ATOM      9  C   UNL     1      95.826  95.243  78.739  1.00  0.00     0.054 A 
ATOM     10  C   UNL     1      96.744  96.402  80.651  1.00  0.00     0.157 A 
ATOM     11  C   UNL     1      97.336  97.336  79.800  1.00  0.00     0.050 A 
ATOM     12  C   UNL     1      97.173  97.223  78.419  1.00  0.00     0.008 A 
BRANCH   8  13
ATOM     13  O   UNL     1      95.406  94.438  80.940  1.00  0.00    -0.493 OA
ATOM     14  C   UNL     1      95.977  93.131  80.961  1.00  0.00     0.278 C 
ENDBRANCH   8  13
BRANCH  10  15
ATOM     15  O   UNL     1      96.911  96.522  81.997  1.00  0.00    -0.504 OA
ATOM     16  H   UNL     1      96.062  96.790  82.387  1.00  0.00     0.293 HD
ENDBRANCH  10  15
ENDBRANCH   6   7
ENDBRANCH   5   6
ENDBRANCH   3   5
ENDBRANCH   2   3
BRANCH   1  17
ATOM     17  C   UNL     1      91.863  93.253  78.026  1.00  0.00     0.027 C 
BRANCH  17  18
ATOM     18  C   UNL     1      90.559  93.195  77.222  1.00  0.00     0.004 C 
BRANCH  18  19
ATOM     19  C   UNL     1      90.259  91.811  76.638  1.00  0.00     0.000 C 
BRANCH  19  20
ATOM     20  C   UNL     1      90.862  91.659  75.240  1.00  0.00    -0.003 C 
ATOM     21  C   UNL     1      90.756  90.227  74.740  1.00  0.00     0.004 C 
ENDBRANCH  19  20
ENDBRANCH  18  19
ENDBRANCH  17  18
ENDBRANCH   1  17
TORSDOF 10
ENDMDL
MODEL 5
REMARK VINA RESULT:    -5.756      4.272      5.936
REMARK INTER + INTRA:          -9.614
REMARK INTER:                  -7.991
REMARK INTRA:                  -1.623
REMARK UNBOUND:                -0.662
REMARK SMILES CCCCC/C=C/C(=O)CCc1ccc(O)c(OC)c1
REMARK SMILES IDX 6 1 7 2 8 3 9 4 10 5 11 6 12 7 17 8 20 9 15 10 14 11 13 12
REMARK SMILES IDX 18 13 19 14 16 15 5 17 4 18 3 19 2 20 1 21
REMARK H PARENT 16 16
REMARK Flexibility Score: inf
ROOT
ATOM      1  C   UNL     1      93.765  94.149  78.426  1.00  0.00    -0.023 C 
ATOM      2  C   UNL     1      94.599  93.164  78.781  1.00  0.00     0.043 C 
ENDROOT
BRANCH   2   3
ATOM      3  C   UNL     1      95.148  93.120  80.164  1.00  0.00     0.155 C 
ATOM      4  O   UNL     1      94.821  92.246  80.964  1.00  0.00    -0.295 OA
BRANCH   3   5
ATOM      5  C   UNL     1      96.093  94.240  80.552  1.00  0.00     0.085 C 
BRANCH   5   6
ATOM      6  C   UNL     1      97.254  94.356  79.563  1.00  0.00     0.044 C 
BRANCH   6   7
ATOM      7  C   UNL     1      97.335  95.715  78.910  1.00  0.00    -0.044 A 
ATOM      8  C   UNL     1      97.804  98.064  79.060  1.00  0.00     0.160 A 
ATOM      9  C   UNL     1      97.728  96.809  79.664  1.00  0.00     0.054 A 
ATOM     10  C   UNL     1      97.485  98.209  77.710  1.00  0.00     0.157 A 
ATOM     11  C   UNL     1      97.090  97.098  76.963  1.00  0.00     0.050 A 
ATOM     12  C   UNL     1      97.015  95.843  77.568  1.00  0.00     0.008 A 
BRANCH   8  13
ATOM     13  O   UNL     1      98.191  99.141  79.799  1.00  0.00    -0.493 OA
ATOM     14  C   UNL     1      98.265  98.964  81.213  1.00  0.00     0.278 C 
ENDBRANCH   8  13
BRANCH  10  15
ATOM     15  O   UNL     1      97.555  99.429  77.108  1.00  0.00    -0.504 OA
ATOM     16  H   UNL     1      96.772  99.943  77.369  1.00  0.00     0.293 HD
ENDBRANCH  10  15
ENDBRANCH   6   7
ENDBRANCH   5   6
ENDBRANCH   3   5
ENDBRANCH   2   3
BRANCH   1  17
ATOM     17  C   UNL     1      93.169  94.265  77.053  1.00  0.00     0.027 C 
BRANCH  17  18
ATOM     18  C   UNL     1      92.787  95.701  76.682  1.00  0.00     0.004 C 
BRANCH  18  19
ATOM     19  C   UNL     1      93.331  96.150  75.322  1.00  0.00     0.000 C 
BRANCH  19  20
ATOM     20  C   UNL     1      94.457  95.230  74.848  1.00  0.00    -0.003 C 
ATOM     21  C   UNL     1      95.329  95.909  73.805  1.00  0.00     0.004 C 
ENDBRANCH  19  20
ENDBRANCH  18  19
ENDBRANCH  17  18
ENDBRANCH   1  17
TORSDOF 10
ENDMDL
MODEL 6
REMARK VINA RESULT:    -5.755     20.134     24.009
REMARK INTER + INTRA:          -9.613
REMARK INTER:                  -8.646
REMARK INTRA:                  -0.967
REMARK UNBOUND:                -0.662
REMARK SMILES CCCCC/C=C/C(=O)CCc1ccc(O)c(OC)c1
REMARK SMILES IDX 6 1 7 2 8 3 9 4 10 5 11 6 12 7 17 8 20 9 15 10 14 11 13 12
REMARK SMILES IDX 18 13 19 14 16 15 5 17 4 18 3 19 2 20 1 21
REMARK H PARENT 16 16
REMARK Flexibility Score: inf
ROOT
ATOM      1  C   UNL     1      77.066  86.901  67.853  1.00  0.00    -0.023 C 
ATOM      2  C   UNL     1      77.192  86.184  66.730  1.00  0.00     0.043 C 
ENDROOT
BRANCH   2   3
ATOM      3  C   UNL     1      77.082  84.701  66.780  1.00  0.00     0.155 C 
ATOM      4  O   UNL     1      77.981  83.969  66.370  1.00  0.00    -0.295 OA
BRANCH   3   5
ATOM      5  C   UNL     1      75.780  84.137  67.314  1.00  0.00     0.085 C 
BRANCH   5   6
ATOM      6  C   UNL     1      74.588  84.604  66.477  1.00  0.00     0.044 C 
BRANCH   6   7
ATOM      7  C   UNL     1      73.769  83.459  65.931  1.00  0.00    -0.044 A 
ATOM      8  C   UNL     1      71.658  82.582  65.200  1.00  0.00     0.160 A 
ATOM      9  C   UNL     1      72.414  83.640  65.705  1.00  0.00     0.054 A 
ATOM     10  C   UNL     1      72.266  81.357  64.928  1.00  0.00     0.157 A 
ATOM     11  C   UNL     1      73.632  81.190  65.161  1.00  0.00     0.050 A 
ATOM     12  C   UNL     1      74.388  82.248  65.666  1.00  0.00     0.008 A 
BRANCH   8  13
ATOM     13  O   UNL     1      70.325  82.758  64.977  1.00  0.00    -0.493 OA
ATOM     14  C   UNL     1      69.530  83.167  66.088  1.00  0.00     0.278 C 
ENDBRANCH   8  13
BRANCH  10  15
ATOM     15  O   UNL     1      71.539  80.317  64.434  1.00  0.00    -0.504 OA
ATOM     16  H   UNL     1      71.766  79.518  64.941  1.00  0.00     0.293 HD
ENDBRANCH  10  15
ENDBRANCH   6   7
ENDBRANCH   5   6
ENDBRANCH   3   5
ENDBRANCH   2   3
BRANCH   1  17
ATOM     17  C   UNL     1      77.165  88.398  67.887  1.00  0.00     0.027 C 
BRANCH  17  18
ATOM     18  C   UNL     1      77.086  89.038  66.497  1.00  0.00     0.004 C 
BRANCH  18  19
ATOM     19  C   UNL     1      75.834  89.896  66.287  1.00  0.00     0.000 C 
BRANCH  19  20
ATOM     20  C   UNL     1      75.171  89.585  64.944  1.00  0.00    -0.003 C 
ATOM     21  C   UNL     1      76.042  88.678  64.089  1.00  0.00     0.004 C 
ENDBRANCH  19  20
ENDBRANCH  18  19
ENDBRANCH  17  18
ENDBRANCH   1  17
TORSDOF 10
ENDMDL
MODEL 7
REMARK VINA RESULT:    -5.643      4.910      7.642
REMARK INTER + INTRA:          -9.439
REMARK INTER:                  -8.252
REMARK INTRA:                  -1.188
REMARK UNBOUND:                -0.662
REMARK SMILES CCCCC/C=C/C(=O)CCc1ccc(O)c(OC)c1
REMARK SMILES IDX 6 1 7 2 8 3 9 4 10 5 11 6 12 7 17 8 20 9 15 10 14 11 13 12
REMARK SMILES IDX 18 13 19 14 16 15 5 17 4 18 3 19 2 20 1 21
REMARK H PARENT 16 16
REMARK Flexibility Score: inf
ROOT
ATOM      1  C   UNL     1      94.324  95.517  75.383  1.00  0.00    -0.023 C 
ATOM      2  C   UNL     1      94.885  96.112  76.443  1.00  0.00     0.043 C 
ENDROOT
BRANCH   2   3
ATOM      3  C   UNL     1      96.321  96.503  76.401  1.00  0.00     0.155 C 
ATOM      4  O   UNL     1      96.801  97.106  75.444  1.00  0.00    -0.295 OA
BRANCH   3   5
ATOM      5  C   UNL     1      97.174  96.070  77.577  1.00  0.00     0.085 C 
BRANCH   5   6
ATOM      6  C   UNL     1      96.626  94.796  78.222  1.00  0.00     0.044 C 
BRANCH   6   7
ATOM      7  C   UNL     1      97.247  94.505  79.568  1.00  0.00    -0.044 A 
ATOM      8  C   UNL     1      99.020  94.840  81.150  1.00  0.00     0.160 A 
ATOM      9  C   UNL     1      98.447  95.108  79.907  1.00  0.00     0.054 A 
ATOM     10  C   UNL     1      98.385  93.971  82.038  1.00  0.00     0.157 A 
ATOM     11  C   UNL     1      97.176  93.371  81.682  1.00  0.00     0.050 A 
ATOM     12  C   UNL     1      96.604  93.640  80.439  1.00  0.00     0.008 A 
BRANCH   8  13
ATOM     13  O   UNL     1     100.200  95.432  81.486  1.00  0.00    -0.493 OA
ATOM     14  C   UNL     1     100.147  96.796  81.898  1.00  0.00     0.278 C 
ENDBRANCH   8  13
BRANCH  10  15
ATOM     15  O   UNL     1      98.934  93.701  83.255  1.00  0.00    -0.504 OA
ATOM     16  H   UNL     1      99.679  94.311  83.396  1.00  0.00     0.293 HD
ENDBRANCH  10  15
ENDBRANCH   6   7
ENDBRANCH   5   6
ENDBRANCH   3   5
ENDBRANCH   2   3
BRANCH   1  17
ATOM     17  C   UNL     1      92.885  95.093  75.347  1.00  0.00     0.027 C 
BRANCH  17  18
ATOM     18  C   UNL     1      92.082  95.586  76.555  1.00  0.00     0.004 C 
BRANCH  18  19
ATOM     19  C   UNL     1      91.295  94.478  77.263  1.00  0.00     0.000 C 
BRANCH  19  20
ATOM     20  C   UNL     1      92.130  93.204  77.392  1.00  0.00    -0.003 C 
ATOM     21  C   UNL     1      93.160  93.323  78.503  1.00  0.00     0.004 C 
ENDBRANCH  19  20
ENDBRANCH  18  19
ENDBRANCH  17  18
ENDBRANCH   1  17
TORSDOF 10
ENDMDL
MODEL 8
REMARK VINA RESULT:    -5.591     13.140     15.804
REMARK INTER + INTRA:          -9.358
REMARK INTER:                  -7.464
REMARK INTRA:                  -1.894
REMARK UNBOUND:                -0.662
REMARK SMILES CCCCC/C=C/C(=O)CCc1ccc(O)c(OC)c1
REMARK SMILES IDX 6 1 7 2 8 3 9 4 10 5 11 6 12 7 17 8 20 9 15 10 14 11 13 12
REMARK SMILES IDX 18 13 19 14 16 15 5 17 4 18 3 19 2 20 1 21
REMARK H PARENT 16 16
REMARK Flexibility Score: inf
ROOT
ATOM      1  C   UNL     1      97.465  80.822  77.180  1.00  0.00    -0.023 C 
ATOM      2  C   UNL     1      97.348  82.153  77.256  1.00  0.00     0.043 C 
ENDROOT
BRANCH   2   3
ATOM      3  C   UNL     1      96.089  82.814  76.815  1.00  0.00     0.155 C 
ATOM      4  O   UNL     1      95.228  83.170  77.617  1.00  0.00    -0.295 OA
BRANCH   3   5
ATOM      5  C   UNL     1      95.900  82.978  75.320  1.00  0.00     0.085 C 
BRANCH   5   6
ATOM      6  C   UNL     1      97.191  83.441  74.644  1.00  0.00     0.044 C 
BRANCH   6   7
ATOM      7  C   UNL     1      97.763  82.409  73.701  1.00  0.00    -0.044 A 
ATOM      8  C   UNL     1      97.561  80.314  72.549  1.00  0.00     0.160 A 
ATOM      9  C   UNL     1      97.032  81.266  73.421  1.00  0.00     0.054 A 
ATOM     10  C   UNL     1      98.814  80.517  71.970  1.00  0.00     0.157 A 
ATOM     11  C   UNL     1      99.538  81.673  72.263  1.00  0.00     0.050 A 
ATOM     12  C   UNL     1      99.009  82.625  73.134  1.00  0.00     0.008 A 
BRANCH   8  13
ATOM     13  O   UNL     1      96.845  79.188  72.272  1.00  0.00    -0.493 OA
ATOM     14  C   UNL     1      96.893  78.136  73.233  1.00  0.00     0.278 C 
ENDBRANCH   8  13
BRANCH  10  15
ATOM     15  O   UNL     1      99.341  79.594  71.118  1.00  0.00    -0.504 OA
ATOM     16  H   UNL     1      98.837  79.624  70.286  1.00  0.00     0.293 HD
ENDBRANCH  10  15
ENDBRANCH   6   7
ENDBRANCH   5   6
ENDBRANCH   3   5
ENDBRANCH   2   3
BRANCH   1  17
ATOM     17  C   UNL     1      98.700  80.081  77.603  1.00  0.00     0.027 C 
BRANCH  17  18
ATOM     18  C   UNL     1      99.120  78.994  76.608  1.00  0.00     0.004 C 
BRANCH  18  19
ATOM     19  C   UNL     1      99.755  79.547  75.328  1.00  0.00     0.000 C 
BRANCH  19  20
ATOM     20  C   UNL     1     100.846  80.569  75.650  1.00  0.00    -0.003 C 
ATOM     21  C   UNL     1     102.120  79.892  76.129  1.00  0.00     0.004 C 
ENDBRANCH  19  20
ENDBRANCH  18  19
ENDBRANCH  17  18
ENDBRANCH   1  17
TORSDOF 10
ENDMDL
MODEL 9
REMARK VINA RESULT:    -5.517      6.157     10.205
REMARK INTER + INTRA:          -9.244
REMARK INTER:                  -8.205
REMARK INTRA:                  -1.039
REMARK UNBOUND:                -0.662
REMARK SMILES CCCCC/C=C/C(=O)CCc1ccc(O)c(OC)c1
REMARK SMILES IDX 6 1 7 2 8 3 9 4 10 5 11 6 12 7 17 8 20 9 15 10 14 11 13 12
REMARK SMILES IDX 18 13 19 14 16 15 5 17 4 18 3 19 2 20 1 21
REMARK H PARENT 16 16
REMARK Flexibility Score: inf
ROOT
ATOM      1  C   UNL     1      90.097  99.986  70.141  1.00  0.00    -0.023 C 
ATOM      2  C   UNL     1      90.705  98.875  69.709  1.00  0.00     0.043 C 
ENDROOT
BRANCH   2   3
ATOM      3  C   UNL     1      90.034  98.005  68.705  1.00  0.00     0.155 C 
ATOM      4  O   UNL     1      90.571  96.991  68.263  1.00  0.00    -0.295 OA
BRANCH   3   5
ATOM      5  C   UNL     1      88.674  98.462  68.216  1.00  0.00     0.085 C 
BRANCH   5   6
ATOM      6  C   UNL     1      88.731  98.908  66.754  1.00  0.00     0.044 C 
BRANCH   6   7
ATOM      7  C   UNL     1      88.454 100.382  66.578  1.00  0.00    -0.044 A 
ATOM      8  C   UNL     1      89.250 102.644  66.471  1.00  0.00     0.160 A 
ATOM      9  C   UNL     1      89.506 101.282  66.634  1.00  0.00     0.054 A 
ATOM     10  C   UNL     1      87.945 103.088  66.256  1.00  0.00     0.157 A 
ATOM     11  C   UNL     1      86.896 102.169  66.204  1.00  0.00     0.050 A 
ATOM     12  C   UNL     1      87.153 100.807  66.366  1.00  0.00     0.008 A 
BRANCH   8  13
ATOM     13  O   UNL     1      90.283 103.531  66.525  1.00  0.00    -0.493 OA
ATOM     14  C   UNL     1      91.171 103.560  65.410  1.00  0.00     0.278 C 
ENDBRANCH   8  13
BRANCH  10  15
ATOM     15  O   UNL     1      87.682 104.414  66.096  1.00  0.00    -0.504 OA
ATOM     16  H   UNL     1      88.498 104.854  65.801  1.00  0.00     0.293 HD
ENDBRANCH  10  15
ENDBRANCH   6   7
ENDBRANCH   5   6
ENDBRANCH   3   5
ENDBRANCH   2   3
BRANCH   1  17
ATOM     17  C   UNL     1      90.705 100.915  71.151  1.00  0.00     0.027 C 
BRANCH  17  18
ATOM     18  C   UNL     1      92.218 100.727  71.306  1.00  0.00     0.004 C 
BRANCH  18  19
ATOM     19  C   UNL     1      92.689 100.715  72.764  1.00  0.00     0.000 C 
BRANCH  19  20
ATOM     20  C   UNL     1      93.905  99.806  72.944  1.00  0.00    -0.003 C 
ATOM     21  C   UNL     1      93.531  98.504  73.634  1.00  0.00     0.004 C 
ENDBRANCH  19  20
ENDBRANCH  18  19
ENDBRANCH  17  18
ENDBRANCH   1  17
TORSDOF 10
ENDMDL
MODEL 10
REMARK VINA RESULT:    -5.437      5.580      9.925
REMARK INTER + INTRA:          -9.119
REMARK INTER:                  -8.258
REMARK INTRA:                  -0.861
REMARK UNBOUND:                -0.662
REMARK SMILES CCCCC/C=C/C(=O)CCc1ccc(O)c(OC)c1
REMARK SMILES IDX 6 1 7 2 8 3 9 4 10 5 11 6 12 7 17 8 20 9 15 10 14 11 13 12
REMARK SMILES IDX 18 13 19 14 16 15 5 17 4 18 3 19 2 20 1 21
REMARK H PARENT 16 16
REMARK Flexibility Score: inf
ROOT
ATOM      1  C   UNL     1      89.101  99.755  66.887  1.00  0.00    -0.023 C 
ATOM      2  C   UNL     1      88.822  99.255  68.098  1.00  0.00     0.043 C 
ENDROOT
BRANCH   2   3
ATOM      3  C   UNL     1      89.528  98.037  68.578  1.00  0.00     0.155 C 
ATOM      4  O   UNL     1      89.773  97.092  67.831  1.00  0.00    -0.295 OA
BRANCH   3   5
ATOM      5  C   UNL     1      89.884  97.998  70.051  1.00  0.00     0.085 C 
BRANCH   5   6
ATOM      6  C   UNL     1      89.578  99.333  70.732  1.00  0.00     0.044 C 
BRANCH   6   7
ATOM      7  C   UNL     1      90.819 100.043  71.218  1.00  0.00    -0.044 A 
ATOM      8  C   UNL     1      93.083  99.955  72.008  1.00  0.00     0.160 A 
ATOM      9  C   UNL     1      91.937  99.299  71.560  1.00  0.00     0.054 A 
ATOM     10  C   UNL     1      93.097 101.345  72.111  1.00  0.00     0.157 A 
ATOM     11  C   UNL     1      91.963 102.081  71.764  1.00  0.00     0.050 A 
ATOM     12  C   UNL     1      90.816 101.425  71.315  1.00  0.00     0.008 A 
BRANCH   8  13
ATOM     13  O   UNL     1      94.184  99.225  72.345  1.00  0.00    -0.493 OA
ATOM     14  C   UNL     1      94.154  98.546  73.598  1.00  0.00     0.278 C 
ENDBRANCH   8  13
BRANCH  10  15
ATOM     15  O   UNL     1      94.210 101.997  72.547  1.00  0.00    -0.504 OA
ATOM     16  H   UNL     1      94.077 102.238  73.480  1.00  0.00     0.293 HD
ENDBRANCH  10  15
ENDBRANCH   6   7
ENDBRANCH   5   6
ENDBRANCH   3   5
ENDBRANCH   2   3
BRANCH   1  17
ATOM     17  C   UNL     1      88.432 100.979  66.331  1.00  0.00     0.027 C 
BRANCH  17  18
ATOM     18  C   UNL     1      86.903 100.879  66.325  1.00  0.00     0.004 C 
BRANCH  18  19
ATOM     19  C   UNL     1      86.202 102.217  66.073  1.00  0.00     0.000 C 
BRANCH  19  20
ATOM     20  C   UNL     1      87.026 103.384  66.619  1.00  0.00    -0.003 C 
ATOM     21  C   UNL     1      86.718 104.677  65.882  1.00  0.00     0.004 C 
ENDBRANCH  19  20
ENDBRANCH  18  19
ENDBRANCH  17  18
ENDBRANCH   1  17
TORSDOF 10
ENDMDL
