MODEL 1
REMARK VINA RESULT:    -5.833      0.000      0.000
REMARK INTER + INTRA:         -10.086
REMARK INTER:                  -9.414
REMARK INTRA:                  -0.672
REMARK UNBOUND:                -0.672
REMARK SMILES CCCCCCCCC(=O)NCc1ccc(O)c(OC)c1
REMARK SMILES IDX 7 1 6 2 5 3 4 4 3 5 2 6 1 7 8 8 9 9 10 10 11 11 12 13 13 14
REMARK SMILES IDX 21 15 14 16 18 17 15 18 16 19 19 20 20 21 17 22
REMARK H PARENT 11 12 17 23
REMARK Flexibility Score: inf
ROOT
ATOM      1  C   UNL     1      78.166  86.869  68.072  1.00  0.00     0.010 C 
ENDROOT
BRANCH   1   2
ATOM      2  C   UNL     1      77.349  87.199  69.355  1.00  0.00     0.001 C 
BRANCH   2   3
ATOM      3  C   UNL     1      76.916  85.915  70.123  1.00  0.00     0.000 C 
BRANCH   3   4
ATOM      4  C   UNL     1      75.380  85.799  70.334  1.00  0.00    -0.000 C 
BRANCH   4   5
ATOM      5  C   UNL     1      74.626  87.117  69.996  1.00  0.00    -0.000 C 
BRANCH   5   6
ATOM      6  C   UNL     1      74.654  88.136  71.167  1.00  0.00    -0.003 C 
ATOM      7  C   UNL     1      74.439  89.593  70.700  1.00  0.00     0.004 C 
ENDBRANCH   5   6
ENDBRANCH   4   5
ENDBRANCH   3   4
ENDBRANCH   2   3
ENDBRANCH   1   2
BRANCH   1   8
ATOM      8  C   UNL     1      77.328  86.203  66.946  1.00  0.00     0.100 C 
BRANCH   8   9
ATOM      9  C   UNL     1      77.675  84.770  66.789  1.00  0.00     0.220 C 
ATOM     10  O   UNL     1      78.685  84.334  67.391  1.00  0.00    -0.275 OA
ATOM     11  N   UNL     1      76.895  83.946  66.030  1.00  0.00    -0.352 N 
ATOM     12  H   UNL     1      76.161  84.417  65.522  1.00  0.00     0.163 HD
BRANCH  11  13
ATOM     13  C   UNL     1      77.043  82.527  65.916  1.00  0.00     0.151 C 
BRANCH  13  14
ATOM     14  C   UNL     1      75.946  81.867  65.158  1.00  0.00    -0.025 A 
ATOM     15  C   UNL     1      74.670  81.704  65.748  1.00  0.00     0.056 A 
ATOM     16  C   UNL     1      76.156  81.390  63.843  1.00  0.00     0.009 A 
ATOM     17  C   UNL     1      73.613  81.095  65.033  1.00  0.00     0.160 A 
ATOM     18  C   UNL     1      75.109  80.784  63.127  1.00  0.00     0.050 A 
ATOM     19  C   UNL     1      73.841  80.628  63.719  1.00  0.00     0.157 A 
BRANCH  17  20
ATOM     20  O   UNL     1      72.389  80.900  65.622  1.00  0.00    -0.493 OA
ATOM     21  C   UNL     1      71.805  82.092  66.176  1.00  0.00     0.278 C 
ENDBRANCH  17  20
BRANCH  19  22
ATOM     22  O   UNL     1      72.844  80.016  63.029  1.00  0.00    -0.504 OA
ATOM     23  H   UNL     1      72.410  79.374  63.596  1.00  0.00     0.293 HD
ENDBRANCH  19  22
ENDBRANCH  13  14
ENDBRANCH  11  13
ENDBRANCH   8   9
ENDBRANCH   1   8
TORSDOF 11
ENDMDL
MODEL 2
REMARK VINA RESULT:    -5.645     21.149     23.983
REMARK INTER + INTRA:          -9.782
REMARK INTER:                  -9.168
REMARK INTRA:                  -0.614
REMARK UNBOUND:                -0.672
REMARK SMILES CCCCCCCCC(=O)NCc1ccc(O)c(OC)c1
REMARK SMILES IDX 7 1 6 2 5 3 4 4 3 5 2 6 1 7 8 8 9 9 10 10 11 11 12 13 13 14
REMARK SMILES IDX 21 15 14 16 18 17 15 18 16 19 19 20 20 21 17 22
REMARK H PARENT 11 12 17 23
REMARK Flexibility Score: inf
ROOT
ATOM      1  C   UNL     1      92.062  99.867  73.321  1.00  0.00     0.010 C 
ENDROOT
BRANCH   1   2
ATOM      2  C   UNL     1      92.494 100.240  71.873  1.00  0.00     0.001 C 
BRANCH   2   3
ATOM      3  C   UNL     1      91.347 100.022  70.842  1.00  0.00     0.000 C 
BRANCH   3   4
ATOM      4  C   UNL     1      90.282  98.985  71.299  1.00  0.00    -0.000 C 
BRANCH   4   5
ATOM      5  C   UNL     1      88.904  99.197  70.610  1.00  0.00    -0.000 C 
BRANCH   5   6
ATOM      6  C   UNL     1      88.909  98.759  69.120  1.00  0.00    -0.003 C 
ATOM      7  C   UNL     1      88.327  99.834  68.176  1.00  0.00     0.004 C 
ENDBRANCH   5   6
ENDBRANCH   4   5
ENDBRANCH   3   4
ENDBRANCH   2   3
ENDBRANCH   1   2
BRANCH   1   8
ATOM      8  C   UNL     1      93.011 100.419  74.422  1.00  0.00     0.100 C 
BRANCH   8   9
ATOM      9  C   UNL     1      93.974  99.386  74.872  1.00  0.00     0.220 C 
ATOM     10  O   UNL     1      95.188  99.696  74.946  1.00  0.00    -0.275 OA
ATOM     11  N   UNL     1      93.541  98.140  75.224  1.00  0.00    -0.352 N 
ATOM     12  H   UNL     1      92.562  97.971  75.045  1.00  0.00     0.163 HD
BRANCH  11  13
ATOM     13  C   UNL     1      94.346  97.108  75.804  1.00  0.00     0.151 C 
BRANCH  13  14
ATOM     14  C   UNL     1      93.597  96.201  76.714  1.00  0.00    -0.025 A 
ATOM     15  C   UNL     1      94.292  95.403  77.654  1.00  0.00     0.056 A 
ATOM     16  C   UNL     1      92.187  96.116  76.656  1.00  0.00     0.009 A 
ATOM     17  C   UNL     1      93.592  94.549  78.538  1.00  0.00     0.160 A 
ATOM     18  C   UNL     1      91.485  95.269  77.533  1.00  0.00     0.050 A 
ATOM     19  C   UNL     1      92.183  94.480  78.468  1.00  0.00     0.157 A 
BRANCH  17  20
ATOM     20  O   UNL     1      94.270  93.745  79.419  1.00  0.00    -0.493 OA
ATOM     21  C   UNL     1      95.688  93.982  79.462  1.00  0.00     0.278 C 
ENDBRANCH  17  20
BRANCH  19  22
ATOM     22  O   UNL     1      91.498  93.645  79.291  1.00  0.00    -0.504 OA
ATOM     23  H   UNL     1      91.887  93.672  80.168  1.00  0.00     0.293 HD
ENDBRANCH  19  22
ENDBRANCH  13  14
ENDBRANCH  11  13
ENDBRANCH   8   9
ENDBRANCH   1   8
TORSDOF 11
ENDMDL
MODEL 3
REMARK VINA RESULT:    -5.564      2.496      6.282
REMARK INTER + INTRA:          -9.651
REMARK INTER:                  -7.887
REMARK INTRA:                  -1.764
REMARK UNBOUND:                -0.672
REMARK SMILES CCCCCCCCC(=O)NCc1ccc(O)c(OC)c1
REMARK SMILES IDX 7 1 6 2 5 3 4 4 3 5 2 6 1 7 8 8 9 9 10 10 11 11 12 13 13 14
REMARK SMILES IDX 21 15 14 16 18 17 15 18 16 19 19 20 20 21 17 22
REMARK H PARENT 11 12 17 23
REMARK Flexibility Score: inf
ROOT
ATOM      1  C   UNL     1      75.287  81.383  66.142  1.00  0.00     0.010 C 
ENDROOT
BRANCH   1   2
ATOM      2  C   UNL     1      73.790  81.492  65.735  1.00  0.00     0.001 C 
BRANCH   2   3
ATOM      3  C   UNL     1      73.517  82.719  64.815  1.00  0.00     0.000 C 
BRANCH   3   4
ATOM      4  C   UNL     1      72.902  83.937  65.561  1.00  0.00    -0.000 C 
BRANCH   4   5
ATOM      5  C   UNL     1      73.873  84.552  66.608  1.00  0.00    -0.000 C 
BRANCH   5   6
ATOM      6  C   UNL     1      74.759  85.678  66.011  1.00  0.00    -0.003 C 
ATOM      7  C   UNL     1      74.246  86.185  64.645  1.00  0.00     0.004 C 
ENDBRANCH   5   6
ENDBRANCH   4   5
ENDBRANCH   3   4
ENDBRANCH   2   3
ENDBRANCH   1   2
BRANCH   1   8
ATOM      8  C   UNL     1      76.278  81.658  64.976  1.00  0.00     0.100 C 
BRANCH   8   9
ATOM      9  C   UNL     1      77.155  82.816  65.275  1.00  0.00     0.220 C 
ATOM     10  O   UNL     1      77.228  83.740  64.430  1.00  0.00    -0.275 OA
ATOM     11  N   UNL     1      77.840  82.882  66.454  1.00  0.00    -0.352 N 
ATOM     12  H   UNL     1      77.778  82.048  67.020  1.00  0.00     0.163 HD
BRANCH  11  13
ATOM     13  C   UNL     1      78.601  84.001  66.918  1.00  0.00     0.151 C 
BRANCH  13  14
ATOM     14  C   UNL     1      77.838  84.923  67.802  1.00  0.00    -0.025 A 
ATOM     15  C   UNL     1      76.929  84.405  68.755  1.00  0.00     0.056 A 
ATOM     16  C   UNL     1      78.001  86.324  67.705  1.00  0.00     0.009 A 
ATOM     17  C   UNL     1      76.210  85.267  69.614  1.00  0.00     0.160 A 
ATOM     18  C   UNL     1      77.289  87.187  68.557  1.00  0.00     0.050 A 
ATOM     19  C   UNL     1      76.389  86.665  69.506  1.00  0.00     0.157 A 
BRANCH  17  20
ATOM     20  O   UNL     1      75.298  84.765  70.509  1.00  0.00    -0.493 OA
ATOM     21  C   UNL     1      75.886  84.048  71.608  1.00  0.00     0.278 C 
ENDBRANCH  17  20
BRANCH  19  22
ATOM     22  O   UNL     1      75.686  87.507  70.305  1.00  0.00    -0.504 OA
ATOM     23  H   UNL     1      76.252  87.824  71.012  1.00  0.00     0.293 HD
ENDBRANCH  19  22
ENDBRANCH  13  14
ENDBRANCH  11  13
ENDBRANCH   8   9
ENDBRANCH   1   8
TORSDOF 11
ENDMDL
MODEL 4
REMARK VINA RESULT:    -5.484     20.511     23.549
REMARK INTER + INTRA:          -9.522
REMARK INTER:                  -9.038
REMARK INTRA:                  -0.483
REMARK UNBOUND:                -0.672
REMARK SMILES CCCCCCCCC(=O)NCc1ccc(O)c(OC)c1
REMARK SMILES IDX 7 1 6 2 5 3 4 4 3 5 2 6 1 7 8 8 9 9 10 10 11 11 12 13 13 14
REMARK SMILES IDX 21 15 14 16 18 17 15 18 16 19 19 20 20 21 17 22
REMARK H PARENT 11 12 17 23
REMARK Flexibility Score: inf
ROOT
ATOM      1  C   UNL     1      92.440 100.285  73.976  1.00  0.00     0.010 C 
ENDROOT
BRANCH   1   2
ATOM      2  C   UNL     1      92.177  99.882  72.496  1.00  0.00     0.001 C 
BRANCH   2   3
ATOM      3  C   UNL     1      90.907 100.570  71.915  1.00  0.00     0.000 C 
BRANCH   3   4
ATOM      4  C   UNL     1      90.419  99.956  70.573  1.00  0.00    -0.000 C 
BRANCH   4   5
ATOM      5  C   UNL     1      89.128  99.105  70.736  1.00  0.00    -0.000 C 
BRANCH   5   6
ATOM      6  C   UNL     1      88.953  98.062  69.600  1.00  0.00    -0.003 C 
ATOM      7  C   UNL     1      88.096  98.590  68.428  1.00  0.00     0.004 C 
ENDBRANCH   5   6
ENDBRANCH   4   5
ENDBRANCH   3   4
ENDBRANCH   2   3
ENDBRANCH   1   2
BRANCH   1   8
ATOM      8  C   UNL     1      93.947 100.413  74.335  1.00  0.00     0.100 C 
BRANCH   8   9
ATOM      9  C   UNL     1      94.582  99.081  74.481  1.00  0.00     0.220 C 
ATOM     10  O   UNL     1      95.643  98.856  73.851  1.00  0.00    -0.275 OA
ATOM     11  N   UNL     1      94.036  98.139  75.305  1.00  0.00    -0.352 N 
ATOM     12  H   UNL     1      93.140  98.392  75.693  1.00  0.00     0.163 HD
BRANCH  11  13
ATOM     13  C   UNL     1      94.626  96.878  75.637  1.00  0.00     0.151 C 
BRANCH  13  14
ATOM     14  C   UNL     1      93.803  96.056  76.565  1.00  0.00    -0.025 A 
ATOM     15  C   UNL     1      92.410  96.279  76.669  1.00  0.00     0.056 A 
ATOM     16  C   UNL     1      94.394  95.046  77.359  1.00  0.00     0.009 A 
ATOM     17  C   UNL     1      91.613  95.494  77.534  1.00  0.00     0.160 A 
ATOM     18  C   UNL     1      93.607  94.261  78.220  1.00  0.00     0.050 A 
ATOM     19  C   UNL     1      92.220  94.486  78.317  1.00  0.00     0.157 A 
BRANCH  17  20
ATOM     20  O   UNL     1      90.269  95.740  77.665  1.00  0.00    -0.493 OA
ATOM     21  C   UNL     1      89.432  94.856  76.899  1.00  0.00     0.278 C 
ENDBRANCH  17  20
BRANCH  19  22
ATOM     22  O   UNL     1      91.473  93.742  79.172  1.00  0.00    -0.504 OA
ATOM     23  H   UNL     1      90.689  94.235  79.424  1.00  0.00     0.293 HD
ENDBRANCH  19  22
ENDBRANCH  13  14
ENDBRANCH  11  13
ENDBRANCH   8   9
ENDBRANCH   1   8
TORSDOF 11
ENDMDL
MODEL 5
REMARK VINA RESULT:    -5.444      2.434      7.007
REMARK INTER + INTRA:          -9.458
REMARK INTER:                  -7.563
REMARK INTRA:                  -1.895
REMARK UNBOUND:                -0.672
REMARK SMILES CCCCCCCCC(=O)NCc1ccc(O)c(OC)c1
REMARK SMILES IDX 7 1 6 2 5 3 4 4 3 5 2 6 1 7 8 8 9 9 10 10 11 11 12 13 13 14
REMARK SMILES IDX 21 15 14 16 18 17 15 18 16 19 19 20 20 21 17 22
REMARK H PARENT 11 12 17 23
REMARK Flexibility Score: inf
ROOT
ATOM      1  C   UNL     1      73.459  82.501  63.264  1.00  0.00     0.010 C 
ENDROOT
BRANCH   1   2
ATOM      2  C   UNL     1      74.281  81.206  63.004  1.00  0.00     0.001 C 
BRANCH   2   3
ATOM      3  C   UNL     1      75.816  81.456  63.087  1.00  0.00     0.000 C 
BRANCH   3   4
ATOM      4  C   UNL     1      76.193  82.885  63.569  1.00  0.00    -0.000 C 
BRANCH   4   5
ATOM      5  C   UNL     1      76.986  82.878  64.907  1.00  0.00    -0.000 C 
BRANCH   5   6
ATOM      6  C   UNL     1      76.767  81.575  65.723  1.00  0.00    -0.003 C 
ATOM      7  C   UNL     1      75.472  81.605  66.565  1.00  0.00     0.004 C 
ENDBRANCH   5   6
ENDBRANCH   4   5
ENDBRANCH   3   4
ENDBRANCH   2   3
ENDBRANCH   1   2
BRANCH   1   8
ATOM      8  C   UNL     1      72.554  82.428  64.526  1.00  0.00     0.100 C 
BRANCH   8   9
ATOM      9  C   UNL     1      72.638  83.675  65.323  1.00  0.00     0.220 C 
ATOM     10  O   UNL     1      71.735  83.908  66.162  1.00  0.00    -0.275 OA
ATOM     11  N   UNL     1      73.690  84.531  65.164  1.00  0.00    -0.352 N 
ATOM     12  H   UNL     1      74.311  84.292  64.405  1.00  0.00     0.163 HD
BRANCH  11  13
ATOM     13  C   UNL     1      73.957  85.685  65.966  1.00  0.00     0.151 C 
BRANCH  13  14
ATOM     14  C   UNL     1      75.244  85.617  66.709  1.00  0.00    -0.025 A 
ATOM     15  C   UNL     1      75.333  84.878  67.914  1.00  0.00     0.056 A 
ATOM     16  C   UNL     1      76.395  86.286  66.233  1.00  0.00     0.009 A 
ATOM     17  C   UNL     1      76.553  84.790  68.622  1.00  0.00     0.160 A 
ATOM     18  C   UNL     1      77.612  86.201  66.932  1.00  0.00     0.050 A 
ATOM     19  C   UNL     1      77.694  85.462  68.128  1.00  0.00     0.157 A 
BRANCH  17  20
ATOM     20  O   UNL     1      76.626  84.109  69.811  1.00  0.00    -0.493 OA
ATOM     21  C   UNL     1      75.849  84.691  70.872  1.00  0.00     0.278 C 
ENDBRANCH  17  20
BRANCH  19  22
ATOM     22  O   UNL     1      78.866  85.409  68.810  1.00  0.00    -0.504 OA
ATOM     23  H   UNL     1      79.309  84.578  68.621  1.00  0.00     0.293 HD
ENDBRANCH  19  22
ENDBRANCH  13  14
ENDBRANCH  11  13
ENDBRANCH   8   9
ENDBRANCH   1   8
TORSDOF 11
ENDMDL
MODEL 6
REMARK VINA RESULT:    -5.179     26.062     29.326
REMARK INTER + INTRA:          -9.031
REMARK INTER:                  -8.148
REMARK INTRA:                  -0.883
REMARK UNBOUND:                -0.672
REMARK SMILES CCCCCCCCC(=O)NCc1ccc(O)c(OC)c1
REMARK SMILES IDX 7 1 6 2 5 3 4 4 3 5 2 6 1 7 8 8 9 9 10 10 11 11 12 13 13 14
REMARK SMILES IDX 21 15 14 16 18 17 15 18 16 19 19 20 20 21 17 22
REMARK H PARENT 11 12 17 23
REMARK Flexibility Score: inf
ROOT
ATOM      1  C   UNL     1     101.969  81.310  80.613  1.00  0.00     0.010 C 
ENDROOT
BRANCH   1   2
ATOM      2  C   UNL     1     101.043  81.251  79.365  1.00  0.00     0.001 C 
BRANCH   2   3
ATOM      3  C   UNL     1     101.261  82.462  78.411  1.00  0.00     0.000 C 
BRANCH   3   4
ATOM      4  C   UNL     1      99.941  83.062  77.848  1.00  0.00    -0.000 C 
BRANCH   4   5
ATOM      5  C   UNL     1      98.839  83.212  78.934  1.00  0.00    -0.000 C 
BRANCH   5   6
ATOM      6  C   UNL     1      97.516  83.791  78.364  1.00  0.00    -0.003 C 
ATOM      7  C   UNL     1      97.679  84.374  76.943  1.00  0.00     0.004 C 
ENDBRANCH   5   6
ENDBRANCH   4   5
ENDBRANCH   3   4
ENDBRANCH   2   3
ENDBRANCH   1   2
BRANCH   1   8
ATOM      8  C   UNL     1     101.493  82.311  81.703  1.00  0.00     0.100 C 
BRANCH   8   9
ATOM      9  C   UNL     1     100.169  81.926  82.247  1.00  0.00     0.220 C 
ATOM     10  O   UNL     1      99.971  80.722  82.537  1.00  0.00    -0.275 OA
ATOM     11  N   UNL     1      99.202  82.869  82.452  1.00  0.00    -0.352 N 
ATOM     12  H   UNL     1      99.435  83.788  82.104  1.00  0.00     0.163 HD
BRANCH  11  13
ATOM     13  C   UNL     1      97.944  82.650  83.097  1.00  0.00     0.151 C 
BRANCH  13  14
ATOM     14  C   UNL     1      97.798  83.369  84.391  1.00  0.00    -0.025 A 
ATOM     15  C   UNL     1      98.706  83.123  85.449  1.00  0.00     0.056 A 
ATOM     16  C   UNL     1      96.756  84.303  84.590  1.00  0.00     0.009 A 
ATOM     17  C   UNL     1      98.590  83.811  86.678  1.00  0.00     0.160 A 
ATOM     18  C   UNL     1      96.636  84.992  85.810  1.00  0.00     0.050 A 
ATOM     19  C   UNL     1      97.544  84.744  86.857  1.00  0.00     0.157 A 
BRANCH  17  20
ATOM     20  O   UNL     1      99.445  83.540  87.717  1.00  0.00    -0.493 OA
ATOM     21  C   UNL     1      99.437  82.167  88.144  1.00  0.00     0.278 C 
ENDBRANCH  17  20
BRANCH  19  22
ATOM     22  O   UNL     1      97.404  85.394  88.041  1.00  0.00    -0.504 OA
ATOM     23  H   UNL     1      97.381  86.342  87.885  1.00  0.00     0.293 HD
ENDBRANCH  19  22
ENDBRANCH  13  14
ENDBRANCH  11  13
ENDBRANCH   8   9
ENDBRANCH   1   8
TORSDOF 11
ENDMDL
MODEL 7
REMARK VINA RESULT:    -5.178     11.546     14.528
REMARK INTER + INTRA:          -9.029
REMARK INTER:                  -7.475
REMARK INTRA:                  -1.554
REMARK UNBOUND:                -0.672
REMARK SMILES CCCCCCCCC(=O)NCc1ccc(O)c(OC)c1
REMARK SMILES IDX 7 1 6 2 5 3 4 4 3 5 2 6 1 7 8 8 9 9 10 10 11 11 12 13 13 14
REMARK SMILES IDX 21 15 14 16 18 17 15 18 16 19 19 20 20 21 17 22
REMARK H PARENT 11 12 17 23
REMARK Flexibility Score: inf
ROOT
ATOM      1  C   UNL     1      64.063  85.804  68.707  1.00  0.00     0.010 C 
ENDROOT
BRANCH   1   2
ATOM      2  C   UNL     1      63.129  85.861  69.950  1.00  0.00     0.001 C 
BRANCH   2   3
ATOM      3  C   UNL     1      61.740  85.216  69.673  1.00  0.00     0.000 C 
BRANCH   3   4
ATOM      4  C   UNL     1      61.196  84.365  70.856  1.00  0.00    -0.000 C 
BRANCH   4   5
ATOM      5  C   UNL     1      60.487  85.228  71.939  1.00  0.00    -0.000 C 
BRANCH   5   6
ATOM      6  C   UNL     1      58.985  85.463  71.624  1.00  0.00    -0.003 C 
ATOM      7  C   UNL     1      58.427  84.468  70.583  1.00  0.00     0.004 C 
ENDBRANCH   5   6
ENDBRANCH   4   5
ENDBRANCH   3   4
ENDBRANCH   2   3
ENDBRANCH   1   2
BRANCH   1   8
ATOM      8  C   UNL     1      64.536  84.370  68.340  1.00  0.00     0.100 C 
BRANCH   8   9
ATOM      9  C   UNL     1      65.105  83.672  69.518  1.00  0.00     0.220 C 
ATOM     10  O   UNL     1      66.157  84.125  70.029  1.00  0.00    -0.275 OA
ATOM     11  N   UNL     1      64.478  82.580  70.047  1.00  0.00    -0.352 N 
ATOM     12  H   UNL     1      63.690  82.249  69.509  1.00  0.00     0.163 HD
BRANCH  11  13
ATOM     13  C   UNL     1      64.845  81.909  71.256  1.00  0.00     0.151 C 
BRANCH  13  14
ATOM     14  C   UNL     1      63.958  82.218  72.409  1.00  0.00    -0.025 A 
ATOM     15  C   UNL     1      64.053  83.468  73.066  1.00  0.00     0.056 A 
ATOM     16  C   UNL     1      63.011  81.275  72.871  1.00  0.00     0.009 A 
ATOM     17  C   UNL     1      63.204  83.783  74.152  1.00  0.00     0.160 A 
ATOM     18  C   UNL     1      62.163  81.582  73.950  1.00  0.00     0.050 A 
ATOM     19  C   UNL     1      62.261  82.829  74.597  1.00  0.00     0.157 A 
BRANCH  17  20
ATOM     20  O   UNL     1      63.327  84.979  74.814  1.00  0.00    -0.493 OA
ATOM     21  C   UNL     1      64.346  84.988  75.829  1.00  0.00     0.278 C 
ENDBRANCH  17  20
BRANCH  19  22
ATOM     22  O   UNL     1      61.457  83.106  75.655  1.00  0.00    -0.504 OA
ATOM     23  H   UNL     1      60.541  83.111  75.369  1.00  0.00     0.293 HD
ENDBRANCH  19  22
ENDBRANCH  13  14
ENDBRANCH  11  13
ENDBRANCH   8   9
ENDBRANCH   1   8
TORSDOF 11
ENDMDL
MODEL 8
REMARK VINA RESULT:    -5.134      2.543      7.191
REMARK INTER + INTRA:          -8.957
REMARK INTER:                  -7.486
REMARK INTRA:                  -1.472
REMARK UNBOUND:                -0.672
REMARK SMILES CCCCCCCCC(=O)NCc1ccc(O)c(OC)c1
REMARK SMILES IDX 7 1 6 2 5 3 4 4 3 5 2 6 1 7 8 8 9 9 10 10 11 11 12 13 13 14
REMARK SMILES IDX 21 15 14 16 18 17 15 18 16 19 19 20 20 21 17 22
REMARK H PARENT 11 12 17 23
REMARK Flexibility Score: inf
ROOT
ATOM      1  C   UNL     1      73.418  82.957  65.120  1.00  0.00     0.010 C 
ENDROOT
BRANCH   1   2
ATOM      2  C   UNL     1      73.687  81.736  66.047  1.00  0.00     0.001 C 
BRANCH   2   3
ATOM      3  C   UNL     1      75.208  81.464  66.235  1.00  0.00     0.000 C 
BRANCH   3   4
ATOM      4  C   UNL     1      76.047  81.673  64.942  1.00  0.00    -0.000 C 
BRANCH   4   5
ATOM      5  C   UNL     1      76.998  82.900  65.036  1.00  0.00    -0.000 C 
BRANCH   5   6
ATOM      6  C   UNL     1      76.983  83.560  66.441  1.00  0.00    -0.003 C 
ATOM      7  C   UNL     1      78.368  83.547  67.124  1.00  0.00     0.004 C 
ENDBRANCH   5   6
ENDBRANCH   4   5
ENDBRANCH   3   4
ENDBRANCH   2   3
ENDBRANCH   1   2
BRANCH   1   8
ATOM      8  C   UNL     1      72.091  83.704  65.434  1.00  0.00     0.100 C 
BRANCH   8   9
ATOM      9  C   UNL     1      72.090  84.246  66.814  1.00  0.00     0.220 C 
ATOM     10  O   UNL     1      71.405  83.657  67.684  1.00  0.00    -0.275 OA
ATOM     11  N   UNL     1      72.842  85.342  67.130  1.00  0.00    -0.352 N 
ATOM     12  H   UNL     1      73.284  85.787  66.340  1.00  0.00     0.163 HD
BRANCH  11  13
ATOM     13  C   UNL     1      73.035  85.871  68.445  1.00  0.00     0.151 C 
BRANCH  13  14
ATOM     14  C   UNL     1      74.448  85.834  68.907  1.00  0.00    -0.025 A 
ATOM     15  C   UNL     1      75.456  86.500  68.171  1.00  0.00     0.056 A 
ATOM     16  C   UNL     1      74.811  85.133  70.081  1.00  0.00     0.009 A 
ATOM     17  C   UNL     1      76.801  86.488  68.607  1.00  0.00     0.160 A 
ATOM     18  C   UNL     1      76.146  85.118  70.521  1.00  0.00     0.050 A 
ATOM     19  C   UNL     1      77.144  85.786  69.784  1.00  0.00     0.157 A 
BRANCH  17  20
ATOM     20  O   UNL     1      77.784  87.099  67.869  1.00  0.00    -0.493 OA
ATOM     21  C   UNL     1      77.387  87.440  66.529  1.00  0.00     0.278 C 
ENDBRANCH  17  20
BRANCH  19  22
ATOM     22  O   UNL     1      78.435  85.742  70.202  1.00  0.00    -0.504 OA
ATOM     23  H   UNL     1      79.019  85.769  69.440  1.00  0.00     0.293 HD
ENDBRANCH  19  22
ENDBRANCH  13  14
ENDBRANCH  11  13
ENDBRANCH   8   9
ENDBRANCH   1   8
TORSDOF 11
ENDMDL
MODEL 9
REMARK VINA RESULT:    -5.093     20.942     24.803
REMARK INTER + INTRA:          -8.891
REMARK INTER:                  -8.220
REMARK INTRA:                  -0.671
REMARK UNBOUND:                -0.672
REMARK SMILES CCCCCCCCC(=O)NCc1ccc(O)c(OC)c1
REMARK SMILES IDX 7 1 6 2 5 3 4 4 3 5 2 6 1 7 8 8 9 9 10 10 11 11 12 13 13 14
REMARK SMILES IDX 21 15 14 16 18 17 15 18 16 19 19 20 20 21 17 22
REMARK H PARENT 11 12 17 23
REMARK Flexibility Score: inf
ROOT
ATOM      1  C   UNL     1      92.332 100.610  71.736  1.00  0.00     0.010 C 
ENDROOT
BRANCH   1   2
ATOM      2  C   UNL     1      91.278  99.495  71.477  1.00  0.00     0.001 C 
BRANCH   2   3
ATOM      3  C   UNL     1      89.870 100.078  71.155  1.00  0.00     0.000 C 
BRANCH   3   4
ATOM      4  C   UNL     1      88.811  98.997  70.798  1.00  0.00    -0.000 C 
BRANCH   4   5
ATOM      5  C   UNL     1      89.448  97.695  70.236  1.00  0.00    -0.000 C 
BRANCH   5   6
ATOM      6  C   UNL     1      89.145  97.486  68.728  1.00  0.00    -0.003 C 
ATOM      7  C   UNL     1      88.189  98.554  68.154  1.00  0.00     0.004 C 
ENDBRANCH   5   6
ENDBRANCH   4   5
ENDBRANCH   3   4
ENDBRANCH   2   3
ENDBRANCH   1   2
BRANCH   1   8
ATOM      8  C   UNL     1      93.802 100.105  71.708  1.00  0.00     0.100 C 
BRANCH   8   9
ATOM      9  C   UNL     1      94.402 100.117  73.063  1.00  0.00     0.220 C 
ATOM     10  O   UNL     1      95.438 100.801  73.250  1.00  0.00    -0.275 OA
ATOM     11  N   UNL     1      93.822  99.423  74.086  1.00  0.00    -0.352 N 
ATOM     12  H   UNL     1      93.046  98.840  73.807  1.00  0.00     0.163 HD
BRANCH  11  13
ATOM     13  C   UNL     1      94.221  99.468  75.459  1.00  0.00     0.151 C 
BRANCH  13  14
ATOM     14  C   UNL     1      94.391  98.127  76.080  1.00  0.00    -0.025 A 
ATOM     15  C   UNL     1      95.103  97.990  77.296  1.00  0.00     0.056 A 
ATOM     16  C   UNL     1      93.852  96.971  75.471  1.00  0.00     0.009 A 
ATOM     17  C   UNL     1      95.258  96.725  77.907  1.00  0.00     0.160 A 
ATOM     18  C   UNL     1      94.001  95.709  76.075  1.00  0.00     0.050 A 
ATOM     19  C   UNL     1      94.708  95.581  77.286  1.00  0.00     0.157 A 
BRANCH  17  20
ATOM     20  O   UNL     1      95.984  96.588  79.063  1.00  0.00    -0.493 OA
ATOM     21  C   UNL     1      96.912  97.661  79.306  1.00  0.00     0.278 C 
ENDBRANCH  17  20
BRANCH  19  22
ATOM     22  O   UNL     1      94.871  94.355  77.846  1.00  0.00    -0.504 OA
ATOM     23  H   UNL     1      95.699  93.973  77.545  1.00  0.00     0.293 HD
ENDBRANCH  19  22
ENDBRANCH  13  14
ENDBRANCH  11  13
ENDBRANCH   8   9
ENDBRANCH   1   8
TORSDOF 11
ENDMDL
MODEL 10
REMARK VINA RESULT:    -5.075      5.761     11.180
REMARK INTER + INTRA:          -8.862
REMARK INTER:                  -7.963
REMARK INTRA:                  -0.899
REMARK UNBOUND:                -0.672
REMARK SMILES CCCCCCCCC(=O)NCc1ccc(O)c(OC)c1
REMARK SMILES IDX 7 1 6 2 5 3 4 4 3 5 2 6 1 7 8 8 9 9 10 10 11 11 12 13 13 14
REMARK SMILES IDX 21 15 14 16 18 17 15 18 16 19 19 20 20 21 17 22
REMARK H PARENT 11 12 17 23
REMARK Flexibility Score: inf
ROOT
ATOM      1  C   UNL     1      75.855  87.779  70.039  1.00  0.00     0.010 C 
ENDROOT
BRANCH   1   2
ATOM      2  C   UNL     1      74.769  86.898  70.721  1.00  0.00     0.001 C 
BRANCH   2   3
ATOM      3  C   UNL     1      74.849  85.409  70.271  1.00  0.00     0.000 C 
BRANCH   3   4
ATOM      4  C   UNL     1      75.739  84.524  71.190  1.00  0.00    -0.000 C 
BRANCH   4   5
ATOM      5  C   UNL     1      77.164  84.299  70.608  1.00  0.00    -0.000 C 
BRANCH   5   6
ATOM      6  C   UNL     1      77.190  84.359  69.057  1.00  0.00    -0.003 C 
ATOM      7  C   UNL     1      78.251  85.341  68.513  1.00  0.00     0.004 C 
ENDBRANCH   5   6
ENDBRANCH   4   5
ENDBRANCH   3   4
ENDBRANCH   2   3
ENDBRANCH   1   2
BRANCH   1   8
ATOM      8  C   UNL     1      75.289  88.773  68.987  1.00  0.00     0.100 C 
BRANCH   8   9
ATOM      9  C   UNL     1      74.932  90.071  69.609  1.00  0.00     0.220 C 
ATOM     10  O   UNL     1      73.920  90.677  69.182  1.00  0.00    -0.275 OA
ATOM     11  N   UNL     1      75.674  90.574  70.639  1.00  0.00    -0.352 N 
ATOM     12  H   UNL     1      76.513  90.052  70.844  1.00  0.00     0.163 HD
BRANCH  11  13
ATOM     13  C   UNL     1      75.353  91.736  71.410  1.00  0.00     0.151 C 
BRANCH  13  14
ATOM     14  C   UNL     1      76.519  92.617  71.684  1.00  0.00    -0.025 A 
ATOM     15  C   UNL     1      76.492  93.978  71.296  1.00  0.00     0.056 A 
ATOM     16  C   UNL     1      77.673  92.115  72.330  1.00  0.00     0.009 A 
ATOM     17  C   UNL     1      77.586  94.831  71.566  1.00  0.00     0.160 A 
ATOM     18  C   UNL     1      78.764  92.959  72.602  1.00  0.00     0.050 A 
ATOM     19  C   UNL     1      78.729  94.313  72.216  1.00  0.00     0.157 A 
BRANCH  17  20
ATOM     20  O   UNL     1      77.574  96.139  71.151  1.00  0.00    -0.493 OA
ATOM     21  C   UNL     1      76.893  96.355  69.903  1.00  0.00     0.278 C 
ENDBRANCH  17  20
BRANCH  19  22
ATOM     22  O   UNL     1      79.798  95.112  72.459  1.00  0.00    -0.504 OA
ATOM     23  H   UNL     1      79.546  96.031  72.335  1.00  0.00     0.293 HD
ENDBRANCH  19  22
ENDBRANCH  13  14
ENDBRANCH  11  13
ENDBRANCH   8   9
ENDBRANCH   1   8
TORSDOF 11
ENDMDL
