MODEL 1
REMARK VINA RESULT:    -6.432      0.000      0.000
REMARK INTER + INTRA:         -10.720
REMARK INTER:                 -10.004
REMARK INTRA:                  -0.716
REMARK UNBOUND:                -0.716
REMARK SMILES CCCCC/C=C/C(=O)CCc1ccc(O)c(OC)c1
REMARK SMILES IDX 6 1 7 2 8 3 9 4 10 5 11 6 12 7 17 8 20 9 15 10 14 11 13 12
REMARK SMILES IDX 18 13 19 14 16 15 5 17 4 18 3 19 2 20 1 21
REMARK H PARENT 16 16
REMARK Flexibility Score: inf
ROOT
ATOM      1  C   UNL     1      78.068  63.549  67.787  1.00  0.00    -0.023 C 
ATOM      2  C   UNL     1      78.056  63.989  69.052  1.00  0.00     0.043 C 
ENDROOT
BRANCH   2   3
ATOM      3  C   UNL     1      79.337  64.328  69.730  1.00  0.00     0.155 C 
ATOM      4  O   UNL     1      80.303  63.568  69.711  1.00  0.00    -0.295 OA
BRANCH   3   5
ATOM      5  C   UNL     1      79.371  65.638  70.493  1.00  0.00     0.085 C 
BRANCH   5   6
ATOM      6  C   UNL     1      79.987  65.457  71.881  1.00  0.00     0.044 C 
BRANCH   6   7
ATOM      7  C   UNL     1      81.360  66.077  72.000  1.00  0.00    -0.044 A 
ATOM      8  C   UNL     1      83.088  67.046  73.354  1.00  0.00     0.160 A 
ATOM      9  C   UNL     1      81.820  66.474  73.245  1.00  0.00     0.054 A 
ATOM     10  C   UNL     1      83.878  67.213  72.217  1.00  0.00     0.157 A 
ATOM     11  C   UNL     1      83.401  66.808  70.970  1.00  0.00     0.050 A 
ATOM     12  C   UNL     1      82.133  66.236  70.861  1.00  0.00     0.008 A 
BRANCH   8  13
ATOM     13  O   UNL     1      83.543  67.437  74.577  1.00  0.00    -0.493 OA
ATOM     14  C   UNL     1      83.802  66.410  75.532  1.00  0.00     0.278 C 
ENDBRANCH   8  13
BRANCH  10  15
ATOM     15  O   UNL     1      85.118  67.769  72.311  1.00  0.00    -0.504 OA
ATOM     16  H   UNL     1      85.076  68.671  71.948  1.00  0.00     0.293 HD
ENDBRANCH  10  15
ENDBRANCH   6   7
ENDBRANCH   5   6
ENDBRANCH   3   5
ENDBRANCH   2   3
BRANCH   1  17
ATOM     17  C   UNL     1      76.821  63.186  67.034  1.00  0.00     0.027 C 
BRANCH  17  18
ATOM     18  C   UNL     1      76.423  64.233  65.988  1.00  0.00     0.004 C 
BRANCH  18  19
ATOM     19  C   UNL     1      75.733  65.464  66.584  1.00  0.00     0.000 C 
BRANCH  19  20
ATOM     20  C   UNL     1      74.395  65.091  67.224  1.00  0.00    -0.003 C 
ATOM     21  C   UNL     1      74.468  65.148  68.741  1.00  0.00     0.004 C 
ENDBRANCH  19  20
ENDBRANCH  18  19
ENDBRANCH  17  18
ENDBRANCH   1  17
TORSDOF 10
ENDMDL
MODEL 2
REMARK VINA RESULT:    -6.421      1.103      2.013
REMARK INTER + INTRA:         -10.703
REMARK INTER:                  -9.817
REMARK INTRA:                  -0.885
REMARK UNBOUND:                -0.716
REMARK SMILES CCCCC/C=C/C(=O)CCc1ccc(O)c(OC)c1
REMARK SMILES IDX 6 1 7 2 8 3 9 4 10 5 11 6 12 7 17 8 20 9 15 10 14 11 13 12
REMARK SMILES IDX 18 13 19 14 16 15 5 17 4 18 3 19 2 20 1 21
REMARK H PARENT 16 16
REMARK Flexibility Score: inf
ROOT
ATOM      1  C   UNL     1      78.287  64.312  67.907  1.00  0.00    -0.023 C 
ATOM      2  C   UNL     1      78.288  64.203  69.241  1.00  0.00     0.043 C 
ENDROOT
BRANCH   2   3
ATOM      3  C   UNL     1      79.143  65.106  70.059  1.00  0.00     0.155 C 
ATOM      4  O   UNL     1      78.718  66.167  70.511  1.00  0.00    -0.295 OA
BRANCH   3   5
ATOM      5  C   UNL     1      80.582  64.674  70.261  1.00  0.00     0.085 C 
BRANCH   5   6
ATOM      6  C   UNL     1      81.543  65.852  70.100  1.00  0.00     0.044 C 
BRANCH   6   7
ATOM      7  C   UNL     1      82.221  66.238  71.393  1.00  0.00    -0.044 A 
ATOM      8  C   UNL     1      83.990  67.377  72.549  1.00  0.00     0.160 A 
ATOM      9  C   UNL     1      83.364  67.021  71.354  1.00  0.00     0.054 A 
ATOM     10  C   UNL     1      83.465  66.946  73.767  1.00  0.00     0.157 A 
ATOM     11  C   UNL     1      82.314  66.158  73.790  1.00  0.00     0.050 A 
ATOM     12  C   UNL     1      81.688  65.802  72.595  1.00  0.00     0.008 A 
BRANCH   8  13
ATOM     13  O   UNL     1      85.114  68.146  72.512  1.00  0.00    -0.493 OA
ATOM     14  C   UNL     1      84.931  69.559  72.446  1.00  0.00     0.278 C 
ENDBRANCH   8  13
BRANCH  10  15
ATOM     15  O   UNL     1      84.067  67.288  74.940  1.00  0.00    -0.504 OA
ATOM     16  H   UNL     1      84.233  66.474  75.446  1.00  0.00     0.293 HD
ENDBRANCH  10  15
ENDBRANCH   6   7
ENDBRANCH   5   6
ENDBRANCH   3   5
ENDBRANCH   2   3
BRANCH   1  17
ATOM     17  C   UNL     1      77.454  63.439  67.013  1.00  0.00     0.027 C 
BRANCH  17  18
ATOM     18  C   UNL     1      76.585  64.237  66.034  1.00  0.00     0.004 C 
BRANCH  18  19
ATOM     19  C   UNL     1      75.988  65.510  66.641  1.00  0.00     0.000 C 
BRANCH  19  20
ATOM     20  C   UNL     1      74.610  65.239  67.247  1.00  0.00    -0.003 C 
ATOM     21  C   UNL     1      74.655  65.267  68.766  1.00  0.00     0.004 C 
ENDBRANCH  19  20
ENDBRANCH  18  19
ENDBRANCH  17  18
ENDBRANCH   1  17
TORSDOF 10
ENDMDL
MODEL 3
REMARK VINA RESULT:    -6.173      1.569      2.961
REMARK INTER + INTRA:         -10.317
REMARK INTER:                  -9.756
REMARK INTRA:                  -0.561
REMARK UNBOUND:                -0.716
REMARK SMILES CCCCC/C=C/C(=O)CCc1ccc(O)c(OC)c1
REMARK SMILES IDX 6 1 7 2 8 3 9 4 10 5 11 6 12 7 17 8 20 9 15 10 14 11 13 12
REMARK SMILES IDX 18 13 19 14 16 15 5 17 4 18 3 19 2 20 1 21
REMARK H PARENT 16 16
REMARK Flexibility Score: inf
ROOT
ATOM      1  C   UNL     1      79.649  64.035  69.454  1.00  0.00    -0.023 C 
ATOM      2  C   UNL     1      79.763  65.074  70.291  1.00  0.00     0.043 C 
ENDROOT
BRANCH   2   3
ATOM      3  C   UNL     1      81.108  65.632  70.601  1.00  0.00     0.155 C 
ATOM      4  O   UNL     1      81.712  66.348  69.805  1.00  0.00    -0.295 OA
BRANCH   3   5
ATOM      5  C   UNL     1      81.717  65.229  71.929  1.00  0.00     0.085 C 
BRANCH   5   6
ATOM      6  C   UNL     1      81.445  66.280  73.007  1.00  0.00     0.044 C 
BRANCH   6   7
ATOM      7  C   UNL     1      82.706  66.939  73.516  1.00  0.00    -0.044 A 
ATOM      8  C   UNL     1      84.601  68.361  73.136  1.00  0.00     0.160 A 
ATOM      9  C   UNL     1      83.438  67.752  72.665  1.00  0.00     0.054 A 
ATOM     10  C   UNL     1      85.018  68.148  74.450  1.00  0.00     0.157 A 
ATOM     11  C   UNL     1      84.270  67.326  75.294  1.00  0.00     0.050 A 
ATOM     12  C   UNL     1      83.106  66.717  74.823  1.00  0.00     0.008 A 
BRANCH   8  13
ATOM     13  O   UNL     1      85.323  69.161  72.302  1.00  0.00    -0.493 OA
ATOM     14  C   UNL     1      84.943  70.534  72.231  1.00  0.00     0.278 C 
ENDBRANCH   8  13
BRANCH  10  15
ATOM     15  O   UNL     1      86.152  68.737  74.921  1.00  0.00    -0.504 OA
ATOM     16  H   UNL     1      86.878  68.537  74.306  1.00  0.00     0.293 HD
ENDBRANCH  10  15
ENDBRANCH   6   7
ENDBRANCH   5   6
ENDBRANCH   3   5
ENDBRANCH   2   3
BRANCH   1  17
ATOM     17  C   UNL     1      78.331  63.415  69.091  1.00  0.00     0.027 C 
BRANCH  17  18
ATOM     18  C   UNL     1      77.487  64.295  68.163  1.00  0.00     0.004 C 
BRANCH  18  19
ATOM     19  C   UNL     1      76.897  63.538  66.969  1.00  0.00     0.000 C 
BRANCH  19  20
ATOM     20  C   UNL     1      76.190  64.493  66.006  1.00  0.00    -0.003 C 
ATOM     21  C   UNL     1      76.081  65.893  66.589  1.00  0.00     0.004 C 
ENDBRANCH  19  20
ENDBRANCH  18  19
ENDBRANCH  17  18
ENDBRANCH   1  17
TORSDOF 10
ENDMDL
MODEL 4
REMARK VINA RESULT:    -6.024     25.219     26.916
REMARK INTER + INTRA:         -10.087
REMARK INTER:                  -9.311
REMARK INTRA:                  -0.775
REMARK UNBOUND:                -0.716
REMARK SMILES CCCCC/C=C/C(=O)CCc1ccc(O)c(OC)c1
REMARK SMILES IDX 6 1 7 2 8 3 9 4 10 5 11 6 12 7 17 8 20 9 15 10 14 11 13 12
REMARK SMILES IDX 18 13 19 14 16 15 5 17 4 18 3 19 2 20 1 21
REMARK H PARENT 16 16
REMARK Flexibility Score: inf
ROOT
ATOM      1  C   UNL     1      97.648  81.878  80.870  1.00  0.00    -0.023 C 
ATOM      2  C   UNL     1      97.240  80.604  80.819  1.00  0.00     0.043 C 
ENDROOT
BRANCH   2   3
ATOM      3  C   UNL     1      96.893  79.886  82.076  1.00  0.00     0.155 C 
ATOM      4  O   UNL     1      96.617  78.688  82.083  1.00  0.00    -0.295 OA
BRANCH   3   5
ATOM      5  C   UNL     1      96.845  80.721  83.341  1.00  0.00     0.085 C 
BRANCH   5   6
ATOM      6  C   UNL     1      95.439  81.267  83.593  1.00  0.00     0.044 C 
BRANCH   6   7
ATOM      7  C   UNL     1      95.429  82.748  83.892  1.00  0.00    -0.044 A 
ATOM      8  C   UNL     1      94.927  84.559  85.384  1.00  0.00     0.160 A 
ATOM      9  C   UNL     1      94.935  83.192  85.108  1.00  0.00     0.054 A 
ATOM     10  C   UNL     1      95.412  85.464  84.440  1.00  0.00     0.157 A 
ATOM     11  C   UNL     1      95.906  85.002  83.220  1.00  0.00     0.050 A 
ATOM     12  C   UNL     1      95.915  83.634  82.944  1.00  0.00     0.008 A 
BRANCH   8  13
ATOM     13  O   UNL     1      94.441  84.998  86.579  1.00  0.00    -0.493 OA
ATOM     14  C   UNL     1      93.023  85.035  86.728  1.00  0.00     0.278 C 
ENDBRANCH   8  13
BRANCH  10  15
ATOM     15  O   UNL     1      95.409  86.802  84.698  1.00  0.00    -0.504 OA
ATOM     16  H   UNL     1      95.938  87.246  84.013  1.00  0.00     0.293 HD
ENDBRANCH  10  15
ENDBRANCH   6   7
ENDBRANCH   5   6
ENDBRANCH   3   5
ENDBRANCH   2   3
BRANCH   1  17
ATOM     17  C   UNL     1      98.017  82.671  79.649  1.00  0.00     0.027 C 
BRANCH  17  18
ATOM     18  C   UNL     1      96.807  83.307  78.957  1.00  0.00     0.004 C 
BRANCH  18  19
ATOM     19  C   UNL     1      96.899  83.297  77.428  1.00  0.00     0.000 C 
BRANCH  19  20
ATOM     20  C   UNL     1      96.429  84.628  76.838  1.00  0.00    -0.003 C 
ATOM     21  C   UNL     1      96.702  84.702  75.345  1.00  0.00     0.004 C 
ENDBRANCH  19  20
ENDBRANCH  18  19
ENDBRANCH  17  18
ENDBRANCH   1  17
TORSDOF 10
ENDMDL
MODEL 5
REMARK VINA RESULT:    -5.968     21.577     26.871
REMARK INTER + INTRA:          -9.998
REMARK INTER:                  -9.322
REMARK INTRA:                  -0.677
REMARK UNBOUND:                -0.716
REMARK SMILES CCCCC/C=C/C(=O)CCc1ccc(O)c(OC)c1
REMARK SMILES IDX 6 1 7 2 8 3 9 4 10 5 11 6 12 7 17 8 20 9 15 10 14 11 13 12
REMARK SMILES IDX 18 13 19 14 16 15 5 17 4 18 3 19 2 20 1 21
REMARK H PARENT 16 16
REMARK Flexibility Score: inf
ROOT
ATOM      1  C   UNL     1      92.960  84.287  86.739  1.00  0.00    -0.023 C 
ATOM      2  C   UNL     1      93.689  83.307  86.191  1.00  0.00     0.043 C 
ENDROOT
BRANCH   2   3
ATOM      3  C   UNL     1      93.076  82.403  85.180  1.00  0.00     0.155 C 
ATOM      4  O   UNL     1      93.592  82.214  84.081  1.00  0.00    -0.295 OA
BRANCH   3   5
ATOM      5  C   UNL     1      91.753  81.766  85.558  1.00  0.00     0.085 C 
BRANCH   5   6
ATOM      6  C   UNL     1      91.214  80.892  84.424  1.00  0.00     0.044 C 
BRANCH   6   7
ATOM      7  C   UNL     1      89.749  81.129  84.146  1.00  0.00    -0.044 A 
ATOM      8  C   UNL     1      87.846  82.592  84.152  1.00  0.00     0.160 A 
ATOM      9  C   UNL     1      89.200  82.374  84.409  1.00  0.00     0.054 A 
ATOM     10  C   UNL     1      87.059  81.563  83.635  1.00  0.00     0.157 A 
ATOM     11  C   UNL     1      87.627  80.315  83.375  1.00  0.00     0.050 A 
ATOM     12  C   UNL     1      88.980  80.097  83.633  1.00  0.00     0.008 A 
BRANCH   8  13
ATOM     13  O   UNL     1      87.304  83.815  84.410  1.00  0.00    -0.493 OA
ATOM     14  C   UNL     1      86.871  84.064  85.746  1.00  0.00     0.278 C 
ENDBRANCH   8  13
BRANCH  10  15
ATOM     15  O   UNL     1      85.737  81.764  83.379  1.00  0.00    -0.504 OA
ATOM     16  H   UNL     1      85.608  81.759  82.415  1.00  0.00     0.293 HD
ENDBRANCH  10  15
ENDBRANCH   6   7
ENDBRANCH   5   6
ENDBRANCH   3   5
ENDBRANCH   2   3
BRANCH   1  17
ATOM     17  C   UNL     1      93.504  85.240  87.763  1.00  0.00     0.027 C 
BRANCH  17  18
ATOM     18  C   UNL     1      93.710  86.657  87.218  1.00  0.00     0.004 C 
BRANCH  18  19
ATOM     19  C   UNL     1      93.460  87.756  88.255  1.00  0.00     0.000 C 
BRANCH  19  20
ATOM     20  C   UNL     1      92.632  87.230  89.428  1.00  0.00    -0.003 C 
ATOM     21  C   UNL     1      92.952  87.974  90.715  1.00  0.00     0.004 C 
ENDBRANCH  19  20
ENDBRANCH  18  19
ENDBRANCH  17  18
ENDBRANCH   1  17
TORSDOF 10
ENDMDL
MODEL 6
REMARK VINA RESULT:    -5.793     22.305     27.922
REMARK INTER + INTRA:          -9.726
REMARK INTER:                  -9.252
REMARK INTRA:                  -0.474
REMARK UNBOUND:                -0.716
REMARK SMILES CCCCC/C=C/C(=O)CCc1ccc(O)c(OC)c1
REMARK SMILES IDX 6 1 7 2 8 3 9 4 10 5 11 6 12 7 17 8 20 9 15 10 14 11 13 12
REMARK SMILES IDX 18 13 19 14 16 15 5 17 4 18 3 19 2 20 1 21
REMARK H PARENT 16 16
REMARK Flexibility Score: inf
ROOT
ATOM      1  C   UNL     1      93.315  85.751  87.372  1.00  0.00    -0.023 C 
ATOM      2  C   UNL     1      93.583  84.449  87.533  1.00  0.00     0.043 C 
ENDROOT
BRANCH   2   3
ATOM      3  C   UNL     1      93.841  83.592  86.344  1.00  0.00     0.155 C 
ATOM      4  O   UNL     1      94.777  83.810  85.578  1.00  0.00    -0.295 OA
BRANCH   3   5
ATOM      5  C   UNL     1      92.857  82.466  86.097  1.00  0.00     0.085 C 
BRANCH   5   6
ATOM      6  C   UNL     1      92.406  82.434  84.635  1.00  0.00     0.044 C 
BRANCH   6   7
ATOM      7  C   UNL     1      91.085  81.728  84.443  1.00  0.00    -0.044 A 
ATOM      8  C   UNL     1      88.686  81.793  84.401  1.00  0.00     0.160 A 
ATOM      9  C   UNL     1      89.906  82.445  84.579  1.00  0.00     0.054 A 
ATOM     10  C   UNL     1      88.659  80.434  84.090  1.00  0.00     0.157 A 
ATOM     11  C   UNL     1      89.855  79.726  83.958  1.00  0.00     0.050 A 
ATOM     12  C   UNL     1      91.075  80.378  84.136  1.00  0.00     0.008 A 
BRANCH   8  13
ATOM     13  O   UNL     1      87.526  82.496  84.533  1.00  0.00    -0.493 OA
ATOM     14  C   UNL     1      87.547  83.623  85.407  1.00  0.00     0.278 C 
ENDBRANCH   8  13
BRANCH  10  15
ATOM     15  O   UNL     1      87.474  79.787  83.914  1.00  0.00    -0.504 OA
ATOM     16  H   UNL     1      86.863  80.388  83.455  1.00  0.00     0.293 HD
ENDBRANCH  10  15
ENDBRANCH   6   7
ENDBRANCH   5   6
ENDBRANCH   3   5
ENDBRANCH   2   3
BRANCH   1  17
ATOM     17  C   UNL     1      93.044  86.681  88.519  1.00  0.00     0.027 C 
BRANCH  17  18
ATOM     18  C   UNL     1      93.933  87.928  88.505  1.00  0.00     0.004 C 
BRANCH  18  19
ATOM     19  C   UNL     1      93.181  89.222  88.832  1.00  0.00     0.000 C 
BRANCH  19  20
ATOM     20  C   UNL     1      94.119  90.430  88.795  1.00  0.00    -0.003 C 
ATOM     21  C   UNL     1      94.173  91.051  87.408  1.00  0.00     0.004 C 
ENDBRANCH  19  20
ENDBRANCH  18  19
ENDBRANCH  17  18
ENDBRANCH   1  17
TORSDOF 10
ENDMDL
MODEL 7
REMARK VINA RESULT:    -5.710     26.083     27.580
REMARK INTER + INTRA:          -9.597
REMARK INTER:                  -8.379
REMARK INTRA:                  -1.218
REMARK UNBOUND:                -0.716
REMARK SMILES CCCCC/C=C/C(=O)CCc1ccc(O)c(OC)c1
REMARK SMILES IDX 6 1 7 2 8 3 9 4 10 5 11 6 12 7 17 8 20 9 15 10 14 11 13 12
REMARK SMILES IDX 18 13 19 14 16 15 5 17 4 18 3 19 2 20 1 21
REMARK H PARENT 16 16
REMARK Flexibility Score: inf
ROOT
ATOM      1  C   UNL     1     100.642  81.107  80.015  1.00  0.00    -0.023 C 
ATOM      2  C   UNL     1     100.047  82.004  80.811  1.00  0.00     0.043 C 
ENDROOT
BRANCH   2   3
ATOM      3  C   UNL     1      98.564  82.121  80.818  1.00  0.00     0.155 C 
ATOM      4  O   UNL     1      97.932  82.306  81.857  1.00  0.00    -0.295 OA
BRANCH   3   5
ATOM      5  C   UNL     1      97.866  81.949  79.483  1.00  0.00     0.085 C 
BRANCH   5   6
ATOM      6  C   UNL     1      97.088  83.208  79.096  1.00  0.00     0.044 C 
BRANCH   6   7
ATOM      7  C   UNL     1      97.307  83.615  77.658  1.00  0.00    -0.044 A 
ATOM      8  C   UNL     1      98.625  83.524  75.655  1.00  0.00     0.160 A 
ATOM      9  C   UNL     1      98.424  83.149  76.983  1.00  0.00     0.054 A 
ATOM     10  C   UNL     1      97.707  84.360  75.019  1.00  0.00     0.157 A 
ATOM     11  C   UNL     1      96.588  84.822  75.713  1.00  0.00     0.050 A 
ATOM     12  C   UNL     1      96.387  84.446  77.041  1.00  0.00     0.008 A 
BRANCH   8  13
ATOM     13  O   UNL     1      99.722  83.067  74.988  1.00  0.00    -0.493 OA
ATOM     14  C   UNL     1      99.614  81.793  74.358  1.00  0.00     0.278 C 
ENDBRANCH   8  13
BRANCH  10  15
ATOM     15  O   UNL     1      97.892  84.734  73.722  1.00  0.00    -0.504 OA
ATOM     16  H   UNL     1      97.559  84.022  73.149  1.00  0.00     0.293 HD
ENDBRANCH  10  15
ENDBRANCH   6   7
ENDBRANCH   5   6
ENDBRANCH   3   5
ENDBRANCH   2   3
BRANCH   1  17
ATOM     17  C   UNL     1     102.131  80.927  79.950  1.00  0.00     0.027 C 
BRANCH  17  18
ATOM     18  C   UNL     1     102.663  80.829  78.516  1.00  0.00     0.004 C 
BRANCH  18  19
ATOM     19  C   UNL     1     101.835  81.621  77.499  1.00  0.00     0.000 C 
BRANCH  19  20
ATOM     20  C   UNL     1     102.714  82.154  76.367  1.00  0.00    -0.003 C 
ATOM     21  C   UNL     1     103.403  81.026  75.617  1.00  0.00     0.004 C 
ENDBRANCH  19  20
ENDBRANCH  18  19
ENDBRANCH  17  18
ENDBRANCH   1  17
TORSDOF 10
ENDMDL
MODEL 8
REMARK VINA RESULT:    -5.676     23.297     25.844
REMARK INTER + INTRA:          -9.544
REMARK INTER:                  -8.369
REMARK INTRA:                  -1.175
REMARK UNBOUND:                -0.716
REMARK SMILES CCCCC/C=C/C(=O)CCc1ccc(O)c(OC)c1
REMARK SMILES IDX 6 1 7 2 8 3 9 4 10 5 11 6 12 7 17 8 20 9 15 10 14 11 13 12
REMARK SMILES IDX 18 13 19 14 16 15 5 17 4 18 3 19 2 20 1 21
REMARK H PARENT 16 16
REMARK Flexibility Score: inf
ROOT
ATOM      1  C   UNL     1      94.527  81.022  84.812  1.00  0.00    -0.023 C 
ATOM      2  C   UNL     1      94.284  82.236  84.302  1.00  0.00     0.043 C 
ENDROOT
BRANCH   2   3
ATOM      3  C   UNL     1      95.177  83.376  84.644  1.00  0.00     0.155 C 
ATOM      4  O   UNL     1      94.871  84.207  85.497  1.00  0.00    -0.295 OA
BRANCH   3   5
ATOM      5  C   UNL     1      96.462  83.491  83.847  1.00  0.00     0.085 C 
BRANCH   5   6
ATOM      6  C   UNL     1      96.176  83.732  82.364  1.00  0.00     0.044 C 
BRANCH   6   7
ATOM      7  C   UNL     1      96.727  82.641  81.475  1.00  0.00    -0.044 A 
ATOM      8  C   UNL     1      97.660  81.951  79.375  1.00  0.00     0.160 A 
ATOM      9  C   UNL     1      97.151  82.959  80.195  1.00  0.00     0.054 A 
ATOM     10  C   UNL     1      97.738  80.641  79.845  1.00  0.00     0.157 A 
ATOM     11  C   UNL     1      97.306  80.337  81.137  1.00  0.00     0.050 A 
ATOM     12  C   UNL     1      96.797  81.345  81.957  1.00  0.00     0.008 A 
BRANCH   8  13
ATOM     13  O   UNL     1      98.078  82.261  78.115  1.00  0.00    -0.493 OA
ATOM     14  C   UNL     1      97.745  83.557  77.622  1.00  0.00     0.278 C 
ENDBRANCH   8  13
BRANCH  10  15
ATOM     15  O   UNL     1      98.233  79.649  79.054  1.00  0.00    -0.504 OA
ATOM     16  H   UNL     1      99.204  79.713  79.056  1.00  0.00     0.293 HD
ENDBRANCH  10  15
ENDBRANCH   6   7
ENDBRANCH   5   6
ENDBRANCH   3   5
ENDBRANCH   2   3
BRANCH   1  17
ATOM     17  C   UNL     1      93.674  79.823  84.516  1.00  0.00     0.027 C 
BRANCH  17  18
ATOM     18  C   UNL     1      92.364  79.806  85.310  1.00  0.00     0.004 C 
BRANCH  18  19
ATOM     19  C   UNL     1      91.125  79.554  84.445  1.00  0.00     0.000 C 
BRANCH  19  20
ATOM     20  C   UNL     1      90.795  80.776  83.585  1.00  0.00    -0.003 C 
ATOM     21  C   UNL     1      90.186  81.893  84.416  1.00  0.00     0.004 C 
ENDBRANCH  19  20
ENDBRANCH  18  19
ENDBRANCH  17  18
ENDBRANCH   1  17
TORSDOF 10
ENDMDL
MODEL 9
REMARK VINA RESULT:    -5.654     24.872     26.357
REMARK INTER + INTRA:          -9.510
REMARK INTER:                  -8.354
REMARK INTRA:                  -1.156
REMARK UNBOUND:                -0.716
REMARK SMILES CCCCC/C=C/C(=O)CCc1ccc(O)c(OC)c1
REMARK SMILES IDX 6 1 7 2 8 3 9 4 10 5 11 6 12 7 17 8 20 9 15 10 14 11 13 12
REMARK SMILES IDX 18 13 19 14 16 15 5 17 4 18 3 19 2 20 1 21
REMARK H PARENT 16 16
REMARK Flexibility Score: inf
ROOT
ATOM      1  C   UNL     1      97.013  82.293  81.419  1.00  0.00    -0.023 C 
ATOM      2  C   UNL     1      97.095  81.019  81.013  1.00  0.00     0.043 C 
ENDROOT
BRANCH   2   3
ATOM      3  C   UNL     1      96.872  79.915  81.985  1.00  0.00     0.155 C 
ATOM      4  O   UNL     1      96.815  78.740  81.630  1.00  0.00    -0.295 OA
BRANCH   3   5
ATOM      5  C   UNL     1      96.664  80.319  83.432  1.00  0.00     0.085 C 
BRANCH   5   6
ATOM      6  C   UNL     1      95.226  80.054  83.882  1.00  0.00     0.044 C 
BRANCH   6   7
ATOM      7  C   UNL     1      94.513  81.305  84.336  1.00  0.00    -0.044 A 
ATOM      8  C   UNL     1      94.565  83.645  84.870  1.00  0.00     0.160 A 
ATOM      9  C   UNL     1      95.224  82.489  84.450  1.00  0.00     0.054 A 
ATOM     10  C   UNL     1      93.204  83.601  85.170  1.00  0.00     0.157 A 
ATOM     11  C   UNL     1      92.501  82.401  85.050  1.00  0.00     0.050 A 
ATOM     12  C   UNL     1      93.161  81.246  84.631  1.00  0.00     0.008 A 
BRANCH   8  13
ATOM     13  O   UNL     1      95.262  84.810  84.983  1.00  0.00    -0.493 OA
ATOM     14  C   UNL     1      95.881  85.312  83.800  1.00  0.00     0.278 C 
ENDBRANCH   8  13
BRANCH  10  15
ATOM     15  O   UNL     1      92.548  84.723  85.580  1.00  0.00    -0.504 OA
ATOM     16  H   UNL     1      93.024  85.092  86.344  1.00  0.00     0.293 HD
ENDBRANCH  10  15
ENDBRANCH   6   7
ENDBRANCH   5   6
ENDBRANCH   3   5
ENDBRANCH   2   3
BRANCH   1  17
ATOM     17  C   UNL     1      97.225  83.462  80.502  1.00  0.00     0.027 C 
BRANCH  17  18
ATOM     18  C   UNL     1      96.750  83.197  79.070  1.00  0.00     0.004 C 
BRANCH  18  19
ATOM     19  C   UNL     1      97.859  83.325  78.021  1.00  0.00     0.000 C 
BRANCH  19  20
ATOM     20  C   UNL     1      97.710  82.266  76.928  1.00  0.00    -0.003 C 
ATOM     21  C   UNL     1      98.069  80.881  77.442  1.00  0.00     0.004 C 
ENDBRANCH  19  20
ENDBRANCH  18  19
ENDBRANCH  17  18
ENDBRANCH   1  17
TORSDOF 10
ENDMDL
MODEL 10
REMARK VINA RESULT:    -5.471     25.891     27.828
REMARK INTER + INTRA:          -9.225
REMARK INTER:                  -8.262
REMARK INTRA:                  -0.963
REMARK UNBOUND:                -0.716
REMARK SMILES CCCCC/C=C/C(=O)CCc1ccc(O)c(OC)c1
REMARK SMILES IDX 6 1 7 2 8 3 9 4 10 5 11 6 12 7 17 8 20 9 15 10 14 11 13 12
REMARK SMILES IDX 18 13 19 14 16 15 5 17 4 18 3 19 2 20 1 21
REMARK H PARENT 16 16
REMARK Flexibility Score: inf
ROOT
ATOM      1  C   UNL     1      99.496  81.800  79.387  1.00  0.00    -0.023 C 
ATOM      2  C   UNL     1      98.892  82.686  80.188  1.00  0.00     0.043 C 
ENDROOT
BRANCH   2   3
ATOM      3  C   UNL     1      97.463  83.038  79.961  1.00  0.00     0.155 C 
ATOM      4  O   UNL     1      96.774  83.550  80.841  1.00  0.00    -0.295 OA
BRANCH   3   5
ATOM      5  C   UNL     1      96.887  82.682  78.605  1.00  0.00     0.085 C 
BRANCH   5   6
ATOM      6  C   UNL     1      96.550  83.937  77.798  1.00  0.00     0.044 C 
BRANCH   6   7
ATOM      7  C   UNL     1      97.288  84.005  76.482  1.00  0.00    -0.044 A 
ATOM      8  C   UNL     1      99.257  83.564  75.183  1.00  0.00     0.160 A 
ATOM      9  C   UNL     1      98.576  83.502  76.399  1.00  0.00     0.054 A 
ATOM     10  C   UNL     1      98.642  84.130  74.067  1.00  0.00     0.157 A 
ATOM     11  C   UNL     1      97.344  84.633  74.167  1.00  0.00     0.050 A 
ATOM     12  C   UNL     1      96.663  84.571  75.383  1.00  0.00     0.008 A 
BRANCH   8  13
ATOM     13  O   UNL     1     100.524  83.070  75.099  1.00  0.00    -0.493 OA
ATOM     14  C   UNL     1     101.594  84.005  75.216  1.00  0.00     0.278 C 
ENDBRANCH   8  13
BRANCH  10  15
ATOM     15  O   UNL     1      99.296  84.197  72.874  1.00  0.00    -0.504 OA
ATOM     16  H   UNL     1      99.453  85.133  72.664  1.00  0.00     0.293 HD
ENDBRANCH  10  15
ENDBRANCH   6   7
ENDBRANCH   5   6
ENDBRANCH   3   5
ENDBRANCH   2   3
BRANCH   1  17
ATOM     17  C   UNL     1     100.932  81.393  79.549  1.00  0.00     0.027 C 
BRANCH  17  18
ATOM     18  C   UNL     1     101.721  81.437  78.236  1.00  0.00     0.004 C 
BRANCH  18  19
ATOM     19  C   UNL     1     103.127  80.839  78.345  1.00  0.00     0.000 C 
BRANCH  19  20
ATOM     20  C   UNL     1     103.486  80.534  79.801  1.00  0.00    -0.003 C 
ATOM     21  C   UNL     1     104.990  80.561  80.021  1.00  0.00     0.004 C 
ENDBRANCH  19  20
ENDBRANCH  18  19
ENDBRANCH  17  18
ENDBRANCH   1  17
TORSDOF 10
ENDMDL
