MODEL 1
REMARK VINA RESULT:    -6.127      0.000      0.000
REMARK INTER + INTRA:         -10.261
REMARK INTER:                  -9.887
REMARK INTRA:                  -0.374
REMARK UNBOUND:                -0.374
REMARK SMILES CCCCCCCCC(=O)NCc1ccc(O)c(OC)c1
REMARK SMILES IDX 7 1 6 2 5 3 4 4 3 5 2 6 1 7 8 8 9 9 10 10 11 11 12 13 13 14
REMARK SMILES IDX 21 15 14 16 18 17 15 18 16 19 19 20 20 21 17 22
REMARK H PARENT 11 12 17 23
REMARK Flexibility Score: inf
ROOT
ATOM      1  C   UNL     1      95.322  82.183  83.940  1.00  0.00     0.010 C 
ENDROOT
BRANCH   1   2
ATOM      2  C   UNL     1      93.955  82.599  84.556  1.00  0.00     0.001 C 
BRANCH   2   3
ATOM      3  C   UNL     1      92.807  81.628  84.151  1.00  0.00     0.000 C 
BRANCH   3   4
ATOM      4  C   UNL     1      91.394  82.115  84.581  1.00  0.00    -0.000 C 
BRANCH   4   5
ATOM      5  C   UNL     1      90.361  80.955  84.672  1.00  0.00    -0.000 C 
BRANCH   5   6
ATOM      6  C   UNL     1      88.897  81.449  84.528  1.00  0.00    -0.003 C 
ATOM      7  C   UNL     1      88.035  80.521  83.643  1.00  0.00     0.004 C 
ENDBRANCH   5   6
ENDBRANCH   4   5
ENDBRANCH   3   4
ENDBRANCH   2   3
ENDBRANCH   1   2
BRANCH   1   8
ATOM      8  C   UNL     1      95.928  83.243  82.980  1.00  0.00     0.100 C 
BRANCH   8   9
ATOM      9  C   UNL     1      96.910  82.633  82.051  1.00  0.00     0.220 C 
ATOM     10  O   UNL     1      97.434  81.540  82.374  1.00  0.00    -0.275 OA
ATOM     11  N   UNL     1      97.209  83.235  80.863  1.00  0.00    -0.352 N 
ATOM     12  H   UNL     1      96.798  84.149  80.743  1.00  0.00     0.163 HD
BRANCH  11  13
ATOM     13  C   UNL     1      98.025  82.680  79.827  1.00  0.00     0.151 C 
BRANCH  13  14
ATOM     14  C   UNL     1      97.702  83.191  78.468  1.00  0.00    -0.025 A 
ATOM     15  C   UNL     1      98.616  83.009  77.402  1.00  0.00     0.056 A 
ATOM     16  C   UNL     1      96.486  83.867  78.216  1.00  0.00     0.009 A 
ATOM     17  C   UNL     1      98.315  83.474  76.102  1.00  0.00     0.160 A 
ATOM     18  C   UNL     1      96.180  84.331  76.924  1.00  0.00     0.050 A 
ATOM     19  C   UNL     1      97.093  84.144  75.868  1.00  0.00     0.157 A 
BRANCH  17  20
ATOM     20  O   UNL     1      99.220  83.333  75.080  1.00  0.00    -0.493 OA
ATOM     21  C   UNL     1     100.210  84.375  75.023  1.00  0.00     0.278 C 
ENDBRANCH  17  20
BRANCH  19  22
ATOM     22  O   UNL     1      96.800  84.620  74.631  1.00  0.00    -0.504 OA
ATOM     23  H   UNL     1      97.370  85.366  74.432  1.00  0.00     0.293 HD
ENDBRANCH  19  22
ENDBRANCH  13  14
ENDBRANCH  11  13
ENDBRANCH   8   9
ENDBRANCH   1   8
TORSDOF 11
ENDMDL
MODEL 2
REMARK VINA RESULT:    -6.050     12.797     14.734
REMARK INTER + INTRA:         -10.137
REMARK INTER:                  -9.502
REMARK INTRA:                  -0.636
REMARK UNBOUND:                -0.374
REMARK SMILES CCCCCCCCC(=O)NCc1ccc(O)c(OC)c1
REMARK SMILES IDX 7 1 6 2 5 3 4 4 3 5 2 6 1 7 8 8 9 9 10 10 11 11 12 13 13 14
REMARK SMILES IDX 21 15 14 16 18 17 15 18 16 19 19 20 20 21 17 22
REMARK H PARENT 11 12 17 23
REMARK Flexibility Score: inf
ROOT
ATOM      1  C   UNL     1      91.349  95.568  76.689  1.00  0.00     0.010 C 
ENDROOT
BRANCH   1   2
ATOM      2  C   UNL     1      90.917  94.138  76.255  1.00  0.00     0.001 C 
BRANCH   2   3
ATOM      3  C   UNL     1      90.093  93.411  77.359  1.00  0.00     0.000 C 
BRANCH   3   4
ATOM      4  C   UNL     1      89.624  91.985  76.954  1.00  0.00    -0.000 C 
BRANCH   4   5
ATOM      5  C   UNL     1      89.897  91.665  75.457  1.00  0.00    -0.000 C 
BRANCH   5   6
ATOM      6  C   UNL     1      89.589  90.187  75.097  1.00  0.00    -0.003 C 
ATOM      7  C   UNL     1      90.659  89.558  74.177  1.00  0.00     0.004 C 
ENDBRANCH   5   6
ENDBRANCH   4   5
ENDBRANCH   3   4
ENDBRANCH   2   3
ENDBRANCH   1   2
BRANCH   1   8
ATOM      8  C   UNL     1      92.622  95.597  77.580  1.00  0.00     0.100 C 
BRANCH   8   9
ATOM      9  C   UNL     1      93.839  95.858  76.774  1.00  0.00     0.220 C 
ATOM     10  O   UNL     1      94.240  94.962  75.994  1.00  0.00    -0.275 OA
ATOM     11  N   UNL     1      94.486  97.058  76.863  1.00  0.00    -0.352 N 
ATOM     12  H   UNL     1      94.131  97.671  77.582  1.00  0.00     0.163 HD
BRANCH  11  13
ATOM     13  C   UNL     1      95.578  97.481  76.041  1.00  0.00     0.151 C 
BRANCH  13  14
ATOM     14  C   UNL     1      95.162  98.016  74.717  1.00  0.00    -0.025 A 
ATOM     15  C   UNL     1      95.491  97.316  73.531  1.00  0.00     0.056 A 
ATOM     16  C   UNL     1      94.439  99.227  74.616  1.00  0.00     0.009 A 
ATOM     17  C   UNL     1      95.087  97.803  72.266  1.00  0.00     0.160 A 
ATOM     18  C   UNL     1      94.034  99.715  73.361  1.00  0.00     0.050 A 
ATOM     19  C   UNL     1      94.362  99.013  72.186  1.00  0.00     0.157 A 
BRANCH  17  20
ATOM     20  O   UNL     1      95.443  97.145  71.116  1.00  0.00    -0.493 OA
ATOM     21  C   UNL     1      96.759  97.470  70.635  1.00  0.00     0.278 C 
ENDBRANCH  17  20
BRANCH  19  22
ATOM     22  O   UNL     1      93.990  99.507  70.978  1.00  0.00    -0.504 OA
ATOM     23  H   UNL     1      94.769  99.791  70.494  1.00  0.00     0.293 HD
ENDBRANCH  19  22
ENDBRANCH  13  14
ENDBRANCH  11  13
ENDBRANCH   8   9
ENDBRANCH   1   8
TORSDOF 11
ENDMDL
MODEL 3
REMARK VINA RESULT:    -5.999      2.922      9.493
REMARK INTER + INTRA:         -10.055
REMARK INTER:                  -9.442
REMARK INTRA:                  -0.613
REMARK UNBOUND:                -0.374
REMARK SMILES CCCCCCCCC(=O)NCc1ccc(O)c(OC)c1
REMARK SMILES IDX 7 1 6 2 5 3 4 4 3 5 2 6 1 7 8 8 9 9 10 10 11 11 12 13 13 14
REMARK SMILES IDX 21 15 14 16 18 17 15 18 16 19 19 20 20 21 17 22
REMARK H PARENT 11 12 17 23
REMARK Flexibility Score: inf
ROOT
ATOM      1  C   UNL     1      97.473  82.539  78.889  1.00  0.00     0.010 C 
ENDROOT
BRANCH   1   2
ATOM      2  C   UNL     1      96.711  82.940  77.593  1.00  0.00     0.001 C 
BRANCH   2   3
ATOM      3  C   UNL     1      97.623  83.698  76.584  1.00  0.00     0.000 C 
BRANCH   3   4
ATOM      4  C   UNL     1      96.859  84.721  75.695  1.00  0.00    -0.000 C 
BRANCH   4   5
ATOM      5  C   UNL     1      97.328  84.695  74.212  1.00  0.00    -0.000 C 
BRANCH   5   6
ATOM      6  C   UNL     1      97.633  83.258  73.709  1.00  0.00    -0.003 C 
ATOM      7  C   UNL     1      98.782  83.214  72.679  1.00  0.00     0.004 C 
ENDBRANCH   5   6
ENDBRANCH   4   5
ENDBRANCH   3   4
ENDBRANCH   2   3
ENDBRANCH   1   2
BRANCH   1   8
ATOM      8  C   UNL     1      97.298  83.546  80.060  1.00  0.00     0.100 C 
BRANCH   8   9
ATOM      9  C   UNL     1      96.964  82.850  81.325  1.00  0.00     0.220 C 
ATOM     10  O   UNL     1      96.836  81.602  81.302  1.00  0.00    -0.275 OA
ATOM     11  N   UNL     1      96.829  83.552  82.489  1.00  0.00    -0.352 N 
ATOM     12  H   UNL     1      96.866  84.554  82.378  1.00  0.00     0.163 HD
BRANCH  11  13
ATOM     13  C   UNL     1      96.650  82.985  83.790  1.00  0.00     0.151 C 
BRANCH  13  14
ATOM     14  C   UNL     1      95.229  82.913  84.224  1.00  0.00    -0.025 A 
ATOM     15  C   UNL     1      94.664  83.961  84.990  1.00  0.00     0.056 A 
ATOM     16  C   UNL     1      94.421  81.803  83.885  1.00  0.00     0.009 A 
ATOM     17  C   UNL     1      93.310  83.914  85.395  1.00  0.00     0.160 A 
ATOM     18  C   UNL     1      93.073  81.751  84.284  1.00  0.00     0.050 A 
ATOM     19  C   UNL     1      92.517  82.798  85.043  1.00  0.00     0.157 A 
BRANCH  17  20
ATOM     20  O   UNL     1      92.776  84.910  86.173  1.00  0.00    -0.493 OA
ATOM     21  C   UNL     1      93.479  85.133  87.408  1.00  0.00     0.278 C 
ENDBRANCH  17  20
BRANCH  19  22
ATOM     22  O   UNL     1      91.222  82.726  85.447  1.00  0.00    -0.504 OA
ATOM     23  H   UNL     1      90.799  83.579  85.318  1.00  0.00     0.293 HD
ENDBRANCH  19  22
ENDBRANCH  13  14
ENDBRANCH  11  13
ENDBRANCH   8   9
ENDBRANCH   1   8
TORSDOF 11
ENDMDL
MODEL 4
REMARK VINA RESULT:    -5.813     13.565     15.942
REMARK INTER + INTRA:          -9.755
REMARK INTER:                  -8.403
REMARK INTRA:                  -1.352
REMARK UNBOUND:                -0.374
REMARK SMILES CCCCCCCCC(=O)NCc1ccc(O)c(OC)c1
REMARK SMILES IDX 7 1 6 2 5 3 4 4 3 5 2 6 1 7 8 8 9 9 10 10 11 11 12 13 13 14
REMARK SMILES IDX 21 15 14 16 18 17 15 18 16 19 19 20 20 21 17 22
REMARK H PARENT 11 12 17 23
REMARK Flexibility Score: inf
ROOT
ATOM      1  C   UNL     1      94.436  96.371  73.947  1.00  0.00     0.010 C 
ENDROOT
BRANCH   1   2
ATOM      2  C   UNL     1      93.361  95.568  74.735  1.00  0.00     0.001 C 
BRANCH   2   3
ATOM      3  C   UNL     1      93.889  95.073  76.114  1.00  0.00     0.000 C 
BRANCH   3   4
ATOM      4  C   UNL     1      92.927  95.373  77.298  1.00  0.00    -0.000 C 
BRANCH   4   5
ATOM      5  C   UNL     1      91.484  95.713  76.827  1.00  0.00    -0.000 C 
BRANCH   5   6
ATOM      6  C   UNL     1      90.463  94.600  77.186  1.00  0.00    -0.003 C 
ATOM      7  C   UNL     1      90.734  93.274  76.442  1.00  0.00     0.004 C 
ENDBRANCH   5   6
ENDBRANCH   4   5
ENDBRANCH   3   4
ENDBRANCH   2   3
ENDBRANCH   1   2
BRANCH   1   8
ATOM      8  C   UNL     1      94.124  97.889  73.827  1.00  0.00     0.100 C 
BRANCH   8   9
ATOM      9  C   UNL     1      95.058  98.699  74.645  1.00  0.00     0.220 C 
ATOM     10  O   UNL     1      94.768  99.900  74.866  1.00  0.00    -0.275 OA
ATOM     11  N   UNL     1      96.189  98.139  75.166  1.00  0.00    -0.352 N 
ATOM     12  H   UNL     1      96.369  97.196  74.855  1.00  0.00     0.163 HD
BRANCH  11  13
ATOM     13  C   UNL     1      97.090  98.771  76.080  1.00  0.00     0.151 C 
BRANCH  13  14
ATOM     14  C   UNL     1      96.650  98.706  77.500  1.00  0.00    -0.025 A 
ATOM     15  C   UNL     1      96.126  97.502  78.028  1.00  0.00     0.056 A 
ATOM     16  C   UNL     1      96.743  99.838  78.342  1.00  0.00     0.009 A 
ATOM     17  C   UNL     1      95.720  97.420  79.380  1.00  0.00     0.160 A 
ATOM     18  C   UNL     1      96.342  99.762  79.688  1.00  0.00     0.050 A 
ATOM     19  C   UNL     1      95.824  98.560  80.208  1.00  0.00     0.157 A 
BRANCH  17  20
ATOM     20  O   UNL     1      95.173  96.265  79.879  1.00  0.00    -0.493 OA
ATOM     21  C   UNL     1      96.141  95.298  80.321  1.00  0.00     0.278 C 
ENDBRANCH  17  20
BRANCH  19  22
ATOM     22  O   UNL     1      95.413  98.505  81.501  1.00  0.00    -0.504 OA
ATOM     23  H   UNL     1      94.876  99.276  81.699  1.00  0.00     0.293 HD
ENDBRANCH  19  22
ENDBRANCH  13  14
ENDBRANCH  11  13
ENDBRANCH   8   9
ENDBRANCH   1   8
TORSDOF 11
ENDMDL
MODEL 5
REMARK VINA RESULT:    -5.645      3.276      9.239
REMARK INTER + INTRA:          -9.483
REMARK INTER:                  -8.888
REMARK INTRA:                  -0.596
REMARK UNBOUND:                -0.374
REMARK SMILES CCCCCCCCC(=O)NCc1ccc(O)c(OC)c1
REMARK SMILES IDX 7 1 6 2 5 3 4 4 3 5 2 6 1 7 8 8 9 9 10 10 11 11 12 13 13 14
REMARK SMILES IDX 21 15 14 16 18 17 15 18 16 19 19 20 20 21 17 22
REMARK H PARENT 11 12 17 23
REMARK Flexibility Score: inf
ROOT
ATOM      1  C   UNL     1      96.988  83.115  80.728  1.00  0.00     0.010 C 
ENDROOT
BRANCH   1   2
ATOM      2  C   UNL     1      97.301  82.947  79.214  1.00  0.00     0.001 C 
BRANCH   2   3
ATOM      3  C   UNL     1      96.281  83.705  78.313  1.00  0.00     0.000 C 
BRANCH   3   4
ATOM      4  C   UNL     1      96.807  83.998  76.880  1.00  0.00    -0.000 C 
BRANCH   4   5
ATOM      5  C   UNL     1      98.207  83.375  76.615  1.00  0.00    -0.000 C 
BRANCH   5   6
ATOM      6  C   UNL     1      98.898  83.974  75.361  1.00  0.00    -0.003 C 
ATOM      7  C   UNL     1      98.600  83.175  74.073  1.00  0.00     0.004 C 
ENDBRANCH   5   6
ENDBRANCH   4   5
ENDBRANCH   3   4
ENDBRANCH   2   3
ENDBRANCH   1   2
BRANCH   1   8
ATOM      8  C   UNL     1      97.703  82.077  81.638  1.00  0.00     0.100 C 
BRANCH   8   9
ATOM      9  C   UNL     1      97.041  81.973  82.961  1.00  0.00     0.220 C 
ATOM     10  O   UNL     1      97.589  81.274  83.847  1.00  0.00    -0.275 OA
ATOM     11  N   UNL     1      95.881  82.647  83.212  1.00  0.00    -0.352 N 
ATOM     12  H   UNL     1      95.483  83.107  82.406  1.00  0.00     0.163 HD
BRANCH  11  13
ATOM     13  C   UNL     1      95.226  82.740  84.481  1.00  0.00     0.151 C 
BRANCH  13  14
ATOM     14  C   UNL     1      93.952  81.976  84.558  1.00  0.00    -0.025 A 
ATOM     15  C   UNL     1      93.972  80.561  84.594  1.00  0.00     0.056 A 
ATOM     16  C   UNL     1      92.706  82.642  84.592  1.00  0.00     0.009 A 
ATOM     17  C   UNL     1      92.771  79.821  84.685  1.00  0.00     0.160 A 
ATOM     18  C   UNL     1      91.507  81.912  84.683  1.00  0.00     0.050 A 
ATOM     19  C   UNL     1      91.534  80.504  84.722  1.00  0.00     0.157 A 
BRANCH  17  20
ATOM     20  O   UNL     1      92.790  78.449  84.678  1.00  0.00    -0.493 OA
ATOM     21  C   UNL     1      94.107  77.878  84.775  1.00  0.00     0.278 C 
ENDBRANCH  17  20
BRANCH  19  22
ATOM     22  O   UNL     1      90.371  79.808  84.783  1.00  0.00    -0.504 OA
ATOM     23  H   UNL     1      90.222  79.510  85.683  1.00  0.00     0.293 HD
ENDBRANCH  19  22
ENDBRANCH  13  14
ENDBRANCH  11  13
ENDBRANCH   8   9
ENDBRANCH   1   8
TORSDOF 11
ENDMDL
MODEL 6
REMARK VINA RESULT:    -5.565      3.069      3.931
REMARK INTER + INTRA:          -9.354
REMARK INTER:                  -8.371
REMARK INTRA:                  -0.984
REMARK UNBOUND:                -0.374
REMARK SMILES CCCCCCCCC(=O)NCc1ccc(O)c(OC)c1
REMARK SMILES IDX 7 1 6 2 5 3 4 4 3 5 2 6 1 7 8 8 9 9 10 10 11 11 12 13 13 14
REMARK SMILES IDX 21 15 14 16 18 17 15 18 16 19 19 20 20 21 17 22
REMARK H PARENT 11 12 17 23
REMARK Flexibility Score: inf
ROOT
ATOM      1  C   UNL     1      98.074  80.470  81.047  1.00  0.00     0.010 C 
ENDROOT
BRANCH   1   2
ATOM      2  C   UNL     1      96.735  80.029  81.706  1.00  0.00     0.001 C 
BRANCH   2   3
ATOM      3  C   UNL     1      96.696  80.346  83.230  1.00  0.00     0.000 C 
BRANCH   3   4
ATOM      4  C   UNL     1      95.578  81.349  83.632  1.00  0.00    -0.000 C 
BRANCH   4   5
ATOM      5  C   UNL     1      95.923  82.145  84.923  1.00  0.00    -0.000 C 
BRANCH   5   6
ATOM      6  C   UNL     1      96.942  83.288  84.664  1.00  0.00    -0.003 C 
ATOM      7  C   UNL     1      96.265  84.662  84.467  1.00  0.00     0.004 C 
ENDBRANCH   5   6
ENDBRANCH   4   5
ENDBRANCH   3   4
ENDBRANCH   2   3
ENDBRANCH   1   2
BRANCH   1   8
ATOM      8  C   UNL     1      98.395  81.980  81.227  1.00  0.00     0.100 C 
BRANCH   8   9
ATOM      9  C   UNL     1      97.412  82.830  80.514  1.00  0.00     0.220 C 
ATOM     10  O   UNL     1      96.672  83.582  81.193  1.00  0.00    -0.275 OA
ATOM     11  N   UNL     1      97.337  82.812  79.151  1.00  0.00    -0.352 N 
ATOM     12  H   UNL     1      97.914  82.110  78.711  1.00  0.00     0.163 HD
BRANCH  11  13
ATOM     13  C   UNL     1      96.535  83.681  78.345  1.00  0.00     0.151 C 
BRANCH  13  14
ATOM     14  C   UNL     1      96.989  83.780  76.932  1.00  0.00    -0.025 A 
ATOM     15  C   UNL     1      97.905  82.836  76.410  1.00  0.00     0.056 A 
ATOM     16  C   UNL     1      96.521  84.814  76.089  1.00  0.00     0.009 A 
ATOM     17  C   UNL     1      98.332  82.907  75.064  1.00  0.00     0.160 A 
ATOM     18  C   UNL     1      96.940  84.890  74.749  1.00  0.00     0.050 A 
ATOM     19  C   UNL     1      97.850  83.945  74.236  1.00  0.00     0.157 A 
BRANCH  17  20
ATOM     20  O   UNL     1      99.252  82.016  74.572  1.00  0.00    -0.493 OA
ATOM     21  C   UNL     1     100.604  82.276  74.988  1.00  0.00     0.278 C 
ENDBRANCH  17  20
BRANCH  19  22
ATOM     22  O   UNL     1      98.270  84.043  72.949  1.00  0.00    -0.504 OA
ATOM     23  H   UNL     1      97.807  84.763  72.515  1.00  0.00     0.293 HD
ENDBRANCH  19  22
ENDBRANCH  13  14
ENDBRANCH  11  13
ENDBRANCH   8   9
ENDBRANCH   1   8
TORSDOF 11
ENDMDL
MODEL 7
REMARK VINA RESULT:    -5.530      4.071      6.091
REMARK INTER + INTRA:          -9.298
REMARK INTER:                  -8.580
REMARK INTRA:                  -0.718
REMARK UNBOUND:                -0.374
REMARK SMILES CCCCCCCCC(=O)NCc1ccc(O)c(OC)c1
REMARK SMILES IDX 7 1 6 2 5 3 4 4 3 5 2 6 1 7 8 8 9 9 10 10 11 11 12 13 13 14
REMARK SMILES IDX 21 15 14 16 18 17 15 18 16 19 19 20 20 21 17 22
REMARK H PARENT 11 12 17 23
REMARK Flexibility Score: inf
ROOT
ATOM      1  C   UNL     1      97.747  82.298  77.895  1.00  0.00     0.010 C 
ENDROOT
BRANCH   1   2
ATOM      2  C   UNL     1      98.422  81.831  79.217  1.00  0.00     0.001 C 
BRANCH   2   3
ATOM      3  C   UNL     1      97.694  80.609  79.850  1.00  0.00     0.000 C 
BRANCH   3   4
ATOM      4  C   UNL     1      97.124  80.885  81.270  1.00  0.00    -0.000 C 
BRANCH   4   5
ATOM      5  C   UNL     1      97.348  82.354  81.731  1.00  0.00    -0.000 C 
BRANCH   5   6
ATOM      6  C   UNL     1      96.457  82.741  82.942  1.00  0.00    -0.003 C 
ATOM      7  C   UNL     1      95.953  84.199  82.875  1.00  0.00     0.004 C 
ENDBRANCH   5   6
ENDBRANCH   4   5
ENDBRANCH   3   4
ENDBRANCH   2   3
ENDBRANCH   1   2
BRANCH   1   8
ATOM      8  C   UNL     1      96.857  83.562  78.056  1.00  0.00     0.100 C 
BRANCH   8   9
ATOM      9  C   UNL     1      96.637  84.237  76.754  1.00  0.00     0.220 C 
ATOM     10  O   UNL     1      95.866  85.225  76.718  1.00  0.00    -0.275 OA
ATOM     11  N   UNL     1      97.285  83.806  75.631  1.00  0.00    -0.352 N 
ATOM     12  H   UNL     1      97.811  82.954  75.754  1.00  0.00     0.163 HD
BRANCH  11  13
ATOM     13  C   UNL     1      97.267  84.454  74.356  1.00  0.00     0.151 C 
BRANCH  13  14
ATOM     14  C   UNL     1      98.329  83.983  73.427  1.00  0.00    -0.025 A 
ATOM     15  C   UNL     1      99.495  84.759  73.225  1.00  0.00     0.056 A 
ATOM     16  C   UNL     1      98.193  82.761  72.728  1.00  0.00     0.009 A 
ATOM     17  C   UNL     1     100.520  84.316  72.358  1.00  0.00     0.160 A 
ATOM     18  C   UNL     1      99.210  82.314  71.866  1.00  0.00     0.050 A 
ATOM     19  C   UNL     1     100.369  83.089  71.672  1.00  0.00     0.157 A 
BRANCH  17  20
ATOM     20  O   UNL     1     101.631  85.089  72.132  1.00  0.00    -0.493 OA
ATOM     21  C   UNL     1     102.625  85.010  73.169  1.00  0.00     0.278 C 
ENDBRANCH  17  20
BRANCH  19  22
ATOM     22  O   UNL     1     101.332  82.662  70.817  1.00  0.00    -0.504 OA
ATOM     23  H   UNL     1     102.180  83.029  71.080  1.00  0.00     0.293 HD
ENDBRANCH  19  22
ENDBRANCH  13  14
ENDBRANCH  11  13
ENDBRANCH   8   9
ENDBRANCH   1   8
TORSDOF 11
ENDMDL
MODEL 8
REMARK VINA RESULT:    -5.351     22.379     24.423
REMARK INTER + INTRA:          -9.010
REMARK INTER:                  -8.336
REMARK INTRA:                  -0.674
REMARK UNBOUND:                -0.374
REMARK SMILES CCCCCCCCC(=O)NCc1ccc(O)c(OC)c1
REMARK SMILES IDX 7 1 6 2 5 3 4 4 3 5 2 6 1 7 8 8 9 9 10 10 11 11 12 13 13 14
REMARK SMILES IDX 21 15 14 16 18 17 15 18 16 19 19 20 20 21 17 22
REMARK H PARENT 11 12 17 23
REMARK Flexibility Score: inf
ROOT
ATOM      1  C   UNL     1      74.368  91.502  71.140  1.00  0.00     0.010 C 
ENDROOT
BRANCH   1   2
ATOM      2  C   UNL     1      74.920  90.443  70.143  1.00  0.00     0.001 C 
BRANCH   2   3
ATOM      3  C   UNL     1      74.007  89.184  70.057  1.00  0.00     0.000 C 
BRANCH   3   4
ATOM      4  C   UNL     1      74.528  88.098  69.073  1.00  0.00    -0.000 C 
BRANCH   4   5
ATOM      5  C   UNL     1      76.075  88.121  68.918  1.00  0.00    -0.000 C 
BRANCH   5   6
ATOM      6  C   UNL     1      76.524  88.403  67.459  1.00  0.00    -0.003 C 
ATOM      7  C   UNL     1      76.837  87.114  66.668  1.00  0.00     0.004 C 
ENDBRANCH   5   6
ENDBRANCH   4   5
ENDBRANCH   3   4
ENDBRANCH   2   3
ENDBRANCH   1   2
BRANCH   1   8
ATOM      8  C   UNL     1      73.082  91.052  71.889  1.00  0.00     0.100 C 
BRANCH   8   9
ATOM      9  C   UNL     1      72.900  91.809  73.151  1.00  0.00     0.220 C 
ATOM     10  O   UNL     1      71.820  91.677  73.774  1.00  0.00    -0.275 OA
ATOM     11  N   UNL     1      73.899  92.606  73.633  1.00  0.00    -0.352 N 
ATOM     12  H   UNL     1      74.688  92.708  73.011  1.00  0.00     0.163 HD
BRANCH  11  13
ATOM     13  C   UNL     1      73.901  93.271  74.900  1.00  0.00     0.151 C 
BRANCH  13  14
ATOM     14  C   UNL     1      75.243  93.750  75.326  1.00  0.00    -0.025 A 
ATOM     15  C   UNL     1      76.271  93.933  74.370  1.00  0.00     0.056 A 
ATOM     16  C   UNL     1      75.517  94.028  76.685  1.00  0.00     0.009 A 
ATOM     17  C   UNL     1      77.546  94.404  74.758  1.00  0.00     0.160 A 
ATOM     18  C   UNL     1      76.783  94.498  77.077  1.00  0.00     0.050 A 
ATOM     19  C   UNL     1      77.801  94.680  76.120  1.00  0.00     0.157 A 
BRANCH  17  20
ATOM     20  O   UNL     1      78.553  94.540  73.836  1.00  0.00    -0.493 OA
ATOM     21  C   UNL     1      78.549  95.799  73.140  1.00  0.00     0.278 C 
ENDBRANCH  17  20
BRANCH  19  22
ATOM     22  O   UNL     1      79.028  95.108  76.512  1.00  0.00    -0.504 OA
ATOM     23  H   UNL     1      79.127  96.038  76.296  1.00  0.00     0.293 HD
ENDBRANCH  19  22
ENDBRANCH  13  14
ENDBRANCH  11  13
ENDBRANCH   8   9
ENDBRANCH   1   8
TORSDOF 11
ENDMDL
MODEL 9
REMARK VINA RESULT:    -5.329      4.216      6.510
REMARK INTER + INTRA:          -8.974
REMARK INTER:                  -8.020
REMARK INTRA:                  -0.954
REMARK UNBOUND:                -0.374
REMARK SMILES CCCCCCCCC(=O)NCc1ccc(O)c(OC)c1
REMARK SMILES IDX 7 1 6 2 5 3 4 4 3 5 2 6 1 7 8 8 9 9 10 10 11 11 12 13 13 14
REMARK SMILES IDX 21 15 14 16 18 17 15 18 16 19 19 20 20 21 17 22
REMARK H PARENT 11 12 17 23
REMARK Flexibility Score: inf
ROOT
ATOM      1  C   UNL     1      98.264  81.793  77.490  1.00  0.00     0.010 C 
ENDROOT
BRANCH   1   2
ATOM      2  C   UNL     1      99.364  81.656  78.581  1.00  0.00     0.001 C 
BRANCH   2   3
ATOM      3  C   UNL     1      99.155  80.399  79.474  1.00  0.00     0.000 C 
BRANCH   3   4
ATOM      4  C   UNL     1      98.830  80.731  80.958  1.00  0.00    -0.000 C 
BRANCH   4   5
ATOM      5  C   UNL     1      97.414  80.251  81.385  1.00  0.00    -0.000 C 
BRANCH   5   6
ATOM      6  C   UNL     1      96.545  81.398  81.967  1.00  0.00    -0.003 C 
ATOM      7  C   UNL     1      97.011  82.797  81.504  1.00  0.00     0.004 C 
ENDBRANCH   5   6
ENDBRANCH   4   5
ENDBRANCH   3   4
ENDBRANCH   2   3
ENDBRANCH   1   2
BRANCH   1   8
ATOM      8  C   UNL     1      97.116  82.769  77.873  1.00  0.00     0.100 C 
BRANCH   8   9
ATOM      9  C   UNL     1      96.845  83.738  76.783  1.00  0.00     0.220 C 
ATOM     10  O   UNL     1      96.048  84.680  77.009  1.00  0.00    -0.275 OA
ATOM     11  N   UNL     1      97.473  83.619  75.577  1.00  0.00    -0.352 N 
ATOM     12  H   UNL     1      98.024  82.779  75.474  1.00  0.00     0.163 HD
BRANCH  11  13
ATOM     13  C   UNL     1      97.405  84.562  74.502  1.00  0.00     0.151 C 
BRANCH  13  14
ATOM     14  C   UNL     1      98.415  84.331  73.435  1.00  0.00    -0.025 A 
ATOM     15  C   UNL     1      98.595  83.036  72.893  1.00  0.00     0.056 A 
ATOM     16  C   UNL     1      99.212  85.392  72.947  1.00  0.00     0.009 A 
ATOM     17  C   UNL     1      99.538  82.804  71.866  1.00  0.00     0.160 A 
ATOM     18  C   UNL     1     100.151  85.168  71.924  1.00  0.00     0.050 A 
ATOM     19  C   UNL     1     100.323  83.878  71.387  1.00  0.00     0.157 A 
BRANCH  17  20
ATOM     20  O   UNL     1      99.741  81.540  71.371  1.00  0.00    -0.493 OA
ATOM     21  C   UNL     1      98.602  80.986  70.688  1.00  0.00     0.278 C 
ENDBRANCH  17  20
BRANCH  19  22
ATOM     22  O   UNL     1     101.252  83.667  70.420  1.00  0.00    -0.504 OA
ATOM     23  H   UNL     1     100.992  82.912  69.886  1.00  0.00     0.293 HD
ENDBRANCH  19  22
ENDBRANCH  13  14
ENDBRANCH  11  13
ENDBRANCH   8   9
ENDBRANCH   1   8
TORSDOF 11
ENDMDL
MODEL 10
REMARK VINA RESULT:    -5.237      2.694      3.984
REMARK INTER + INTRA:          -8.826
REMARK INTER:                  -8.141
REMARK INTRA:                  -0.684
REMARK UNBOUND:                -0.374
REMARK SMILES CCCCCCCCC(=O)NCc1ccc(O)c(OC)c1
REMARK SMILES IDX 7 1 6 2 5 3 4 4 3 5 2 6 1 7 8 8 9 9 10 10 11 11 12 13 13 14
REMARK SMILES IDX 21 15 14 16 18 17 15 18 16 19 19 20 20 21 17 22
REMARK H PARENT 11 12 17 23
REMARK Flexibility Score: inf
ROOT
ATOM      1  C   UNL     1      94.320  83.017  86.554  1.00  0.00     0.010 C 
ENDROOT
BRANCH   1   2
ATOM      2  C   UNL     1      93.161  83.215  85.536  1.00  0.00     0.001 C 
BRANCH   2   3
ATOM      3  C   UNL     1      92.527  81.863  85.095  1.00  0.00     0.000 C 
BRANCH   3   4
ATOM      4  C   UNL     1      91.084  82.001  84.533  1.00  0.00    -0.000 C 
BRANCH   4   5
ATOM      5  C   UNL     1      90.720  80.871  83.529  1.00  0.00    -0.000 C 
BRANCH   5   6
ATOM      6  C   UNL     1      90.451  79.513  84.232  1.00  0.00    -0.003 C 
ATOM      7  C   UNL     1      91.621  78.516  84.078  1.00  0.00     0.004 C 
ENDBRANCH   5   6
ENDBRANCH   4   5
ENDBRANCH   3   4
ENDBRANCH   2   3
ENDBRANCH   1   2
BRANCH   1   8
ATOM      8  C   UNL     1      95.675  82.630  85.898  1.00  0.00     0.100 C 
BRANCH   8   9
ATOM      9  C   UNL     1      95.994  83.518  84.754  1.00  0.00     0.220 C 
ATOM     10  O   UNL     1      96.318  84.706  84.995  1.00  0.00    -0.275 OA
ATOM     11  N   UNL     1      95.963  83.041  83.475  1.00  0.00    -0.352 N 
ATOM     12  H   UNL     1      95.606  82.100  83.389  1.00  0.00     0.163 HD
BRANCH  11  13
ATOM     13  C   UNL     1      96.383  83.752  82.307  1.00  0.00     0.151 C 
BRANCH  13  14
ATOM     14  C   UNL     1      96.865  82.873  81.208  1.00  0.00    -0.025 A 
ATOM     15  C   UNL     1      97.022  81.483  81.425  1.00  0.00     0.056 A 
ATOM     16  C   UNL     1      97.177  83.404  79.936  1.00  0.00     0.009 A 
ATOM     17  C   UNL     1      97.462  80.632  80.386  1.00  0.00     0.160 A 
ATOM     18  C   UNL     1      97.614  82.563  78.897  1.00  0.00     0.050 A 
ATOM     19  C   UNL     1      97.765  81.181  79.119  1.00  0.00     0.157 A 
BRANCH  17  20
ATOM     20  O   UNL     1      97.654  79.292  80.610  1.00  0.00    -0.493 OA
ATOM     21  C   UNL     1      98.800  78.990  81.426  1.00  0.00     0.278 C 
ENDBRANCH  17  20
BRANCH  19  22
ATOM     22  O   UNL     1      98.215  80.381  78.118  1.00  0.00    -0.504 OA
ATOM     23  H   UNL     1      99.164  80.490  78.023  1.00  0.00     0.293 HD
ENDBRANCH  19  22
ENDBRANCH  13  14
ENDBRANCH  11  13
ENDBRANCH   8   9
ENDBRANCH   1   8
TORSDOF 11
ENDMDL
