MODEL 1
REMARK VINA RESULT:    -7.169      0.000      0.000
REMARK INTER + INTRA:          -8.778
REMARK INTER:                  -8.427
REMARK INTRA:                  -0.351
REMARK UNBOUND:                -0.351
REMARK SMILES O=C(/C=C/C=C/c1ccc2c(c1)OCO2)N1CCCCC1
REMARK SMILES IDX 3 1 4 2 2 3 1 4 16 5 17 6 21 7 18 8 20 9 19 10 5 11 6 12
REMARK SMILES IDX 7 13 12 14 8 15 11 16 9 17 13 18 10 19 14 20 15 21
REMARK H PARENT
REMARK Flexibility Score: inf
ROOT
ATOM      1  C   UNL     1      97.427  80.682  78.702  1.00  0.00     0.071 C 
ATOM      2  C   UNL     1      98.003  81.249  79.760  1.00  0.00     0.006 C 
ENDROOT
BRANCH   1   3
ATOM      3  C   UNL     1      98.177  80.662  77.430  1.00  0.00     0.246 C 
ATOM      4  O   UNL     1      99.006  79.765  77.272  1.00  0.00    -0.270 OA
ATOM      5  N   UNL     1      97.901  81.660  76.497  1.00  0.00    -0.339 N 
ATOM      6  C   UNL     1      98.634  81.670  75.227  1.00  0.00     0.120 C 
ATOM      7  C   UNL     1      96.953  82.771  76.668  1.00  0.00     0.120 C 
ATOM      8  C   UNL     1      97.683  81.720  74.036  1.00  0.00     0.022 C 
ATOM      9  C   UNL     1      95.983  82.857  75.489  1.00  0.00     0.022 C 
ATOM     10  C   UNL     1      96.720  82.897  74.154  1.00  0.00     0.004 C 
ENDBRANCH   1   3
BRANCH   2  11
ATOM     11  C   UNL     1      97.347  81.317  81.048  1.00  0.00     0.001 C 
ATOM     12  C   UNL     1      96.704  82.414  81.479  1.00  0.00     0.008 C 
BRANCH  12  13
ATOM     13  C   UNL     1      96.028  82.540  82.781  1.00  0.00    -0.022 A 
ATOM     14  C   UNL     1      95.934  83.792  83.375  1.00  0.00     0.058 A 
ATOM     15  C   UNL     1      95.499  81.396  83.384  1.00  0.00     0.012 A 
ATOM     16  C   UNL     1      95.292  83.859  84.595  1.00  0.00     0.166 A 
ATOM     17  C   UNL     1      94.854  81.493  84.618  1.00  0.00     0.051 A 
ATOM     18  O   UNL     1      95.099  84.986  85.334  1.00  0.00    -0.454 OA
ATOM     19  C   UNL     1      94.766  82.741  85.200  1.00  0.00     0.165 A 
ATOM     20  C   UNL     1      94.393  84.451  86.472  1.00  0.00     0.468 C 
ATOM     21  O   UNL     1      94.178  83.027  86.394  1.00  0.00    -0.454 OA
ENDBRANCH  12  13
ENDBRANCH   2  11
TORSDOF 3
ENDMDL
MODEL 2
REMARK VINA RESULT:    -7.054      2.973      8.988
REMARK INTER + INTRA:          -8.643
REMARK INTER:                  -8.323
REMARK INTRA:                  -0.320
REMARK UNBOUND:                -0.351
REMARK SMILES O=C(/C=C/C=C/c1ccc2c(c1)OCO2)N1CCCCC1
REMARK SMILES IDX 3 1 4 2 2 3 1 4 16 5 17 6 21 7 18 8 20 9 19 10 5 11 6 12
REMARK SMILES IDX 7 13 12 14 8 15 11 16 9 17 13 18 10 19 14 20 15 21
REMARK H PARENT
REMARK Flexibility Score: inf
ROOT
ATOM      1  C   UNL     1      95.757  81.895  83.202  1.00  0.00     0.071 C 
ATOM      2  C   UNL     1      96.784  81.651  82.390  1.00  0.00     0.006 C 
ENDROOT
BRANCH   1   3
ATOM      3  C   UNL     1      95.896  81.536  84.627  1.00  0.00     0.246 C 
ATOM      4  O   UNL     1      97.034  81.511  85.099  1.00  0.00    -0.270 OA
ATOM      5  N   UNL     1      94.735  81.245  85.340  1.00  0.00    -0.339 N 
ATOM      6  C   UNL     1      94.842  80.879  86.756  1.00  0.00     0.120 C 
ATOM      7  C   UNL     1      93.367  81.220  84.801  1.00  0.00     0.120 C 
ATOM      8  C   UNL     1      93.933  81.742  87.625  1.00  0.00     0.022 C 
ATOM      9  C   UNL     1      92.423  82.073  85.649  1.00  0.00     0.022 C 
ATOM     10  C   UNL     1      92.493  81.694  87.125  1.00  0.00     0.004 C 
ENDBRANCH   1   3
BRANCH   2  11
ATOM     11  C   UNL     1      96.742  81.968  80.979  1.00  0.00     0.001 C 
ATOM     12  C   UNL     1      97.528  81.362  80.074  1.00  0.00     0.008 C 
BRANCH  12  13
ATOM     13  C   UNL     1      97.532  81.651  78.630  1.00  0.00    -0.022 A 
ATOM     14  C   UNL     1      96.488  82.386  78.086  1.00  0.00     0.058 A 
ATOM     15  C   UNL     1      98.587  81.176  77.847  1.00  0.00     0.012 A 
ATOM     16  C   UNL     1      96.536  82.632  76.729  1.00  0.00     0.166 A 
ATOM     17  C   UNL     1      98.610  81.439  76.476  1.00  0.00     0.051 A 
ATOM     18  O   UNL     1      95.613  83.328  76.010  1.00  0.00    -0.454 OA
ATOM     19  C   UNL     1      97.569  82.171  75.945  1.00  0.00     0.165 A 
ATOM     20  C   UNL     1      96.181  83.254  74.687  1.00  0.00     0.468 C 
ATOM     21  O   UNL     1      97.422  82.521  74.638  1.00  0.00    -0.454 OA
ENDBRANCH  12  13
ENDBRANCH   2  11
TORSDOF 3
ENDMDL
MODEL 3
REMARK VINA RESULT:    -6.916      3.023      8.808
REMARK INTER + INTRA:          -8.480
REMARK INTER:                  -8.219
REMARK INTRA:                  -0.261
REMARK UNBOUND:                -0.351
REMARK SMILES O=C(/C=C/C=C/c1ccc2c(c1)OCO2)N1CCCCC1
REMARK SMILES IDX 3 1 4 2 2 3 1 4 16 5 17 6 21 7 18 8 20 9 19 10 5 11 6 12
REMARK SMILES IDX 7 13 12 14 8 15 11 16 9 17 13 18 10 19 14 20 15 21
REMARK H PARENT
REMARK Flexibility Score: inf
ROOT
ATOM      1  C   UNL     1      96.807  80.393  82.108  1.00  0.00     0.071 C 
ATOM      2  C   UNL     1      96.908  81.674  81.758  1.00  0.00     0.006 C 
ENDROOT
BRANCH   1   3
ATOM      3  C   UNL     1      97.051  80.037  83.520  1.00  0.00     0.246 C 
ATOM      4  O   UNL     1      98.131  79.515  83.797  1.00  0.00    -0.270 OA
ATOM      5  N   UNL     1      96.042  80.311  84.443  1.00  0.00    -0.339 N 
ATOM      6  C   UNL     1      96.253  79.964  85.851  1.00  0.00     0.120 C 
ATOM      7  C   UNL     1      94.725  80.891  84.143  1.00  0.00     0.120 C 
ATOM      8  C   UNL     1      96.001  81.159  86.763  1.00  0.00     0.022 C 
ATOM      9  C   UNL     1      94.432  82.093  85.042  1.00  0.00     0.022 C 
ATOM     10  C   UNL     1      94.617  81.752  86.518  1.00  0.00     0.004 C 
ENDBRANCH   1   3
BRANCH   2  11
ATOM     11  C   UNL     1      96.688  82.120  80.399  1.00  0.00     0.001 C 
ATOM     12  C   UNL     1      97.377  81.635  79.354  1.00  0.00     0.008 C 
BRANCH  12  13
ATOM     13  C   UNL     1      97.200  82.059  77.955  1.00  0.00    -0.022 A 
ATOM     14  C   UNL     1      98.207  81.796  77.036  1.00  0.00     0.058 A 
ATOM     15  C   UNL     1      96.021  82.715  77.590  1.00  0.00     0.012 A 
ATOM     16  C   UNL     1      97.994  82.211  75.738  1.00  0.00     0.166 A 
ATOM     17  C   UNL     1      95.832  83.125  76.269  1.00  0.00     0.051 A 
ATOM     18  O   UNL     1      98.856  82.049  74.697  1.00  0.00    -0.454 OA
ATOM     19  C   UNL     1      96.838  82.858  75.364  1.00  0.00     0.165 A 
ATOM     20  C   UNL     1      98.112  82.666  73.626  1.00  0.00     0.468 C 
ATOM     21  O   UNL     1      96.831  83.182  74.042  1.00  0.00    -0.454 OA
ENDBRANCH  12  13
ENDBRANCH   2  11
TORSDOF 3
ENDMDL
MODEL 4
REMARK VINA RESULT:    -6.865     13.864     15.375
REMARK INTER + INTRA:          -8.420
REMARK INTER:                  -8.054
REMARK INTRA:                  -0.366
REMARK UNBOUND:                -0.351
REMARK SMILES O=C(/C=C/C=C/c1ccc2c(c1)OCO2)N1CCCCC1
REMARK SMILES IDX 3 1 4 2 2 3 1 4 16 5 17 6 21 7 18 8 20 9 19 10 5 11 6 12
REMARK SMILES IDX 7 13 12 14 8 15 11 16 9 17 13 18 10 19 14 20 15 21
REMARK H PARENT
REMARK Flexibility Score: inf
ROOT
ATOM      1  C   UNL     1      94.816  97.877  73.445  1.00  0.00     0.071 C 
ATOM      2  C   UNL     1      93.709  97.414  74.022  1.00  0.00     0.006 C 
ENDROOT
BRANCH   1   3
ATOM      3  C   UNL     1      94.685  98.570  72.147  1.00  0.00     0.246 C 
ATOM      4  O   UNL     1      94.020  99.606  72.120  1.00  0.00    -0.270 OA
ATOM      5  N   UNL     1      95.318  98.003  71.042  1.00  0.00    -0.339 N 
ATOM      6  C   UNL     1      95.201  98.665  69.739  1.00  0.00     0.120 C 
ATOM      7  C   UNL     1      96.081  96.747  71.027  1.00  0.00     0.120 C 
ATOM      8  C   UNL     1      96.570  98.905  69.111  1.00  0.00     0.022 C 
ATOM      9  C   UNL     1      97.461  96.945  70.400  1.00  0.00     0.022 C 
ATOM     10  C   UNL     1      97.368  97.608  69.029  1.00  0.00     0.004 C 
ENDBRANCH   1   3
BRANCH   2  11
ATOM     11  C   UNL     1      93.736  96.722  75.293  1.00  0.00     0.001 C 
ATOM     12  C   UNL     1      93.952  95.400  75.396  1.00  0.00     0.008 C 
BRANCH  12  13
ATOM     13  C   UNL     1      93.981  94.646  76.661  1.00  0.00    -0.022 A 
ATOM     14  C   UNL     1      95.172  94.561  77.369  1.00  0.00     0.058 A 
ATOM     15  C   UNL     1      92.809  94.035  77.113  1.00  0.00     0.012 A 
ATOM     16  C   UNL     1      95.150  93.844  78.548  1.00  0.00     0.166 A 
ATOM     17  C   UNL     1      92.815  93.315  78.309  1.00  0.00     0.051 A 
ATOM     18  O   UNL     1      96.208  93.645  79.381  1.00  0.00    -0.454 OA
ATOM     19  C   UNL     1      94.003  93.237  79.006  1.00  0.00     0.165 A 
ATOM     20  C   UNL     1      95.598  92.845  80.414  1.00  0.00     0.468 C 
ATOM     21  O   UNL     1      94.199  92.583  80.182  1.00  0.00    -0.454 OA
ENDBRANCH  12  13
ENDBRANCH   2  11
TORSDOF 3
ENDMDL
MODEL 5
REMARK VINA RESULT:    -6.794      3.011      3.447
REMARK INTER + INTRA:          -8.336
REMARK INTER:                  -7.980
REMARK INTRA:                  -0.357
REMARK UNBOUND:                -0.351
REMARK SMILES O=C(/C=C/C=C/c1ccc2c(c1)OCO2)N1CCCCC1
REMARK SMILES IDX 3 1 4 2 2 3 1 4 16 5 17 6 21 7 18 8 20 9 19 10 5 11 6 12
REMARK SMILES IDX 7 13 12 14 8 15 11 16 9 17 13 18 10 19 14 20 15 21
REMARK H PARENT
REMARK Flexibility Score: inf
ROOT
ATOM      1  C   UNL     1      96.631  81.544  77.668  1.00  0.00     0.071 C 
ATOM      2  C   UNL     1      97.262  82.090  78.705  1.00  0.00     0.006 C 
ENDROOT
BRANCH   1   3
ATOM      3  C   UNL     1      96.458  82.361  76.451  1.00  0.00     0.246 C 
ATOM      4  O   UNL     1      95.554  83.197  76.450  1.00  0.00    -0.270 OA
ATOM      5  N   UNL     1      97.325  82.129  75.384  1.00  0.00    -0.339 N 
ATOM      6  C   UNL     1      97.175  82.922  74.160  1.00  0.00     0.120 C 
ATOM      7  C   UNL     1      98.386  81.112  75.331  1.00  0.00     0.120 C 
ATOM      8  C   UNL     1      98.491  83.574  73.753  1.00  0.00     0.022 C 
ATOM      9  C   UNL     1      99.724  81.728  74.923  1.00  0.00     0.022 C 
ATOM     10  C   UNL     1      99.602  82.536  73.634  1.00  0.00     0.004 C 
ENDBRANCH   1   3
BRANCH   2  11
ATOM     11  C   UNL     1      97.479  81.369  79.941  1.00  0.00     0.001 C 
ATOM     12  C   UNL     1      96.794  81.632  81.066  1.00  0.00     0.008 C 
BRANCH  12  13
ATOM     13  C   UNL     1      96.981  80.935  82.350  1.00  0.00    -0.022 A 
ATOM     14  C   UNL     1      98.144  81.154  83.075  1.00  0.00     0.058 A 
ATOM     15  C   UNL     1      95.980  80.073  82.804  1.00  0.00     0.012 A 
ATOM     16  C   UNL     1      98.273  80.479  84.272  1.00  0.00     0.166 A 
ATOM     17  C   UNL     1      96.136  79.403  84.020  1.00  0.00     0.051 A 
ATOM     18  O   UNL     1      99.333  80.558  85.122  1.00  0.00    -0.454 OA
ATOM     19  C   UNL     1      97.295  79.627  84.732  1.00  0.00     0.165 A 
ATOM     20  C   UNL     1      98.913  79.659  86.169  1.00  0.00     0.468 C 
ATOM     21  O   UNL     1      97.620  79.065  85.928  1.00  0.00    -0.454 OA
ENDBRANCH  12  13
ENDBRANCH   2  11
TORSDOF 3
ENDMDL
MODEL 6
REMARK VINA RESULT:    -6.759      2.773      4.280
REMARK INTER + INTRA:          -8.296
REMARK INTER:                  -7.871
REMARK INTRA:                  -0.425
REMARK UNBOUND:                -0.351
REMARK SMILES O=C(/C=C/C=C/c1ccc2c(c1)OCO2)N1CCCCC1
REMARK SMILES IDX 3 1 4 2 2 3 1 4 16 5 17 6 21 7 18 8 20 9 19 10 5 11 6 12
REMARK SMILES IDX 7 13 12 14 8 15 11 16 9 17 13 18 10 19 14 20 15 21
REMARK H PARENT
REMARK Flexibility Score: inf
ROOT
ATOM      1  C   UNL     1      97.695  81.729  75.799  1.00  0.00     0.071 C 
ATOM      2  C   UNL     1      96.888  82.483  76.542  1.00  0.00     0.006 C 
ENDROOT
BRANCH   1   3
ATOM      3  C   UNL     1      97.769  82.009  74.351  1.00  0.00     0.246 C 
ATOM      4  O   UNL     1      96.735  81.885  73.694  1.00  0.00    -0.270 OA
ATOM      5  N   UNL     1      99.002  82.389  73.825  1.00  0.00    -0.339 N 
ATOM      6  C   UNL     1      99.108  82.669  72.390  1.00  0.00     0.120 C 
ATOM      7  C   UNL     1     100.266  82.504  74.569  1.00  0.00     0.120 C 
ATOM      8  C   UNL     1      99.732  84.037  72.133  1.00  0.00     0.022 C 
ATOM      9  C   UNL     1     100.925  83.863  74.334  1.00  0.00     0.022 C 
ATOM     10  C   UNL     1     101.074  84.168  72.846  1.00  0.00     0.004 C 
ENDBRANCH   1   3
BRANCH   2  11
ATOM     11  C   UNL     1      96.747  82.285  77.969  1.00  0.00     0.001 C 
ATOM     12  C   UNL     1      97.677  81.662  78.711  1.00  0.00     0.008 C 
BRANCH  12  13
ATOM     13  C   UNL     1      97.581  81.426  80.162  1.00  0.00    -0.022 A 
ATOM     14  C   UNL     1      98.399  80.469  80.746  1.00  0.00     0.058 A 
ATOM     15  C   UNL     1      96.669  82.174  80.911  1.00  0.00     0.012 A 
ATOM     16  C   UNL     1      98.273  80.285  82.108  1.00  0.00     0.166 A 
ATOM     17  C   UNL     1      96.563  81.967  82.288  1.00  0.00     0.051 A 
ATOM     18  O   UNL     1      98.980  79.398  82.862  1.00  0.00    -0.454 OA
ATOM     19  C   UNL     1      97.380  81.014  82.858  1.00  0.00     0.165 A 
ATOM     20  C   UNL     1      98.431  79.652  84.171  1.00  0.00     0.468 C 
ATOM     21  O   UNL     1      97.415  80.676  84.176  1.00  0.00    -0.454 OA
ENDBRANCH  12  13
ENDBRANCH   2  11
TORSDOF 3
ENDMDL
MODEL 7
REMARK VINA RESULT:    -6.717     24.206     25.954
REMARK INTER + INTRA:          -8.247
REMARK INTER:                  -7.858
REMARK INTRA:                  -0.389
REMARK UNBOUND:                -0.351
REMARK SMILES O=C(/C=C/C=C/c1ccc2c(c1)OCO2)N1CCCCC1
REMARK SMILES IDX 3 1 4 2 2 3 1 4 16 5 17 6 21 7 18 8 20 9 19 10 5 11 6 12
REMARK SMILES IDX 7 13 12 14 8 15 11 16 9 17 13 18 10 19 14 20 15 21
REMARK H PARENT
REMARK Flexibility Score: inf
ROOT
ATOM      1  C   UNL     1      76.443  85.797  66.437  1.00  0.00     0.071 C 
ATOM      2  C   UNL     1      77.096  86.298  67.483  1.00  0.00     0.006 C 
ENDROOT
BRANCH   1   3
ATOM      3  C   UNL     1      76.739  84.409  66.032  1.00  0.00     0.246 C 
ATOM      4  O   UNL     1      77.864  83.972  66.280  1.00  0.00    -0.270 OA
ATOM      5  N   UNL     1      75.732  83.689  65.393  1.00  0.00    -0.339 N 
ATOM      6  C   UNL     1      75.999  82.309  64.974  1.00  0.00     0.120 C 
ATOM      7  C   UNL     1      74.395  84.190  65.040  1.00  0.00     0.120 C 
ATOM      8  C   UNL     1      74.936  81.351  65.502  1.00  0.00     0.022 C 
ATOM      9  C   UNL     1      73.300  83.253  65.549  1.00  0.00     0.022 C 
ATOM     10  C   UNL     1      73.538  81.813  65.104  1.00  0.00     0.004 C 
ENDBRANCH   1   3
BRANCH   2  11
ATOM     11  C   UNL     1      76.874  87.648  67.955  1.00  0.00     0.001 C 
ATOM     12  C   UNL     1      75.861  88.413  67.517  1.00  0.00     0.008 C 
BRANCH  12  13
ATOM     13  C   UNL     1      75.594  89.793  67.956  1.00  0.00    -0.022 A 
ATOM     14  C   UNL     1      75.661  90.823  67.027  1.00  0.00     0.058 A 
ATOM     15  C   UNL     1      75.280  90.029  69.297  1.00  0.00     0.012 A 
ATOM     16  C   UNL     1      75.403  92.098  67.486  1.00  0.00     0.166 A 
ATOM     17  C   UNL     1      75.023  91.330  69.734  1.00  0.00     0.051 A 
ATOM     18  O   UNL     1      75.420  93.235  66.737  1.00  0.00    -0.454 OA
ATOM     19  C   UNL     1      75.092  92.345  68.804  1.00  0.00     0.165 A 
ATOM     20  C   UNL     1      75.085  94.224  67.731  1.00  0.00     0.468 C 
ATOM     21  O   UNL     1      74.875  93.667  69.045  1.00  0.00    -0.454 OA
ENDBRANCH  12  13
ENDBRANCH   2  11
TORSDOF 3
ENDMDL
MODEL 8
REMARK VINA RESULT:    -6.275     18.899     21.030
REMARK INTER + INTRA:          -7.726
REMARK INTER:                  -7.321
REMARK INTRA:                  -0.406
REMARK UNBOUND:                -0.351
REMARK SMILES O=C(/C=C/C=C/c1ccc2c(c1)OCO2)N1CCCCC1
REMARK SMILES IDX 3 1 4 2 2 3 1 4 16 5 17 6 21 7 18 8 20 9 19 10 5 11 6 12
REMARK SMILES IDX 7 13 12 14 8 15 11 16 9 17 13 18 10 19 14 20 15 21
REMARK H PARENT
REMARK Flexibility Score: inf
ROOT
ATOM      1  C   UNL     1      90.673  99.186  69.365  1.00  0.00     0.071 C 
ATOM      2  C   UNL     1      90.416  99.700  70.566  1.00  0.00     0.006 C 
ENDROOT
BRANCH   1   3
ATOM      3  C   UNL     1      89.530  98.844  68.496  1.00  0.00     0.246 C 
ATOM      4  O   UNL     1      88.968  97.766  68.693  1.00  0.00    -0.270 OA
ATOM      5  N   UNL     1      89.167  99.760  67.509  1.00  0.00    -0.339 N 
ATOM      6  C   UNL     1      88.039  99.445  66.628  1.00  0.00     0.120 C 
ATOM      7  C   UNL     1      89.841 101.033  67.215  1.00  0.00     0.120 C 
ATOM      8  C   UNL     1      87.014 100.575  66.609  1.00  0.00     0.022 C 
ATOM      9  C   UNL     1      88.845 102.192  67.184  1.00  0.00     0.022 C 
ATOM     10  C   UNL     1      87.672 101.903  66.251  1.00  0.00     0.004 C 
ENDBRANCH   1   3
BRANCH   2  11
ATOM     11  C   UNL     1      91.470 100.066  71.488  1.00  0.00     0.001 C 
ATOM     12  C   UNL     1      92.449  99.220  71.846  1.00  0.00     0.008 C 
BRANCH  12  13
ATOM     13  C   UNL     1      93.538  99.537  72.785  1.00  0.00    -0.022 A 
ATOM     14  C   UNL     1      94.262  98.499  73.355  1.00  0.00     0.058 A 
ATOM     15  C   UNL     1      93.814 100.876  73.075  1.00  0.00     0.012 A 
ATOM     16  C   UNL     1      95.273  98.847  74.228  1.00  0.00     0.166 A 
ATOM     17  C   UNL     1      94.843 101.199  73.962  1.00  0.00     0.051 A 
ATOM     18  O   UNL     1      96.091  97.981  74.887  1.00  0.00    -0.454 OA
ATOM     19  C   UNL     1      95.556 100.161  74.523  1.00  0.00     0.165 A 
ATOM     20  C   UNL     1      96.920  98.897  75.630  1.00  0.00     0.468 C 
ATOM     21  O   UNL     1      96.586 100.282  75.404  1.00  0.00    -0.454 OA
ENDBRANCH  12  13
ENDBRANCH   2  11
TORSDOF 3
ENDMDL
MODEL 9
REMARK VINA RESULT:    -6.206      2.888      9.154
REMARK INTER + INTRA:          -7.646
REMARK INTER:                  -7.280
REMARK INTRA:                  -0.366
REMARK UNBOUND:                -0.351
REMARK SMILES O=C(/C=C/C=C/c1ccc2c(c1)OCO2)N1CCCCC1
REMARK SMILES IDX 3 1 4 2 2 3 1 4 16 5 17 6 21 7 18 8 20 9 19 10 5 11 6 12
REMARK SMILES IDX 7 13 12 14 8 15 11 16 9 17 13 18 10 19 14 20 15 21
REMARK H PARENT
REMARK Flexibility Score: inf
ROOT
ATOM      1  C   UNL     1      97.601  81.045  80.299  1.00  0.00     0.071 C 
ATOM      2  C   UNL     1      97.537  80.301  79.196  1.00  0.00     0.006 C 
ENDROOT
BRANCH   1   3
ATOM      3  C   UNL     1      97.012  80.502  81.539  1.00  0.00     0.246 C 
ATOM      4  O   UNL     1      97.206  79.312  81.788  1.00  0.00    -0.270 OA
ATOM      5  N   UNL     1      96.271  81.370  82.340  1.00  0.00    -0.339 N 
ATOM      6  C   UNL     1      95.669  80.858  83.575  1.00  0.00     0.120 C 
ATOM      7  C   UNL     1      95.980  82.782  82.053  1.00  0.00     0.120 C 
ATOM      8  C   UNL     1      96.051  81.715  84.777  1.00  0.00     0.022 C 
ATOM      9  C   UNL     1      96.347  83.675  83.239  1.00  0.00     0.022 C 
ATOM     10  C   UNL     1      95.709  83.181  84.535  1.00  0.00     0.004 C 
ENDBRANCH   1   3
BRANCH   2  11
ATOM     11  C   UNL     1      98.086  80.747  77.934  1.00  0.00     0.001 C 
ATOM     12  C   UNL     1      97.518  81.714  77.195  1.00  0.00     0.008 C 
BRANCH  12  13
ATOM     13  C   UNL     1      98.029  82.200  75.903  1.00  0.00    -0.022 A 
ATOM     14  C   UNL     1      99.363  81.987  75.580  1.00  0.00     0.058 A 
ATOM     15  C   UNL     1      97.157  82.862  75.035  1.00  0.00     0.012 A 
ATOM     16  C   UNL     1      99.794  82.459  74.358  1.00  0.00     0.166 A 
ATOM     17  C   UNL     1      97.621  83.331  73.804  1.00  0.00     0.051 A 
ATOM     18  O   UNL     1     101.058  82.352  73.862  1.00  0.00    -0.454 OA
ATOM     19  C   UNL     1      98.947  83.114  73.493  1.00  0.00     0.165 A 
ATOM     20  C   UNL     1     100.909  83.011  72.588  1.00  0.00     0.468 C 
ATOM     21  O   UNL     1      99.573  83.497  72.347  1.00  0.00    -0.454 OA
ENDBRANCH  12  13
ENDBRANCH   2  11
TORSDOF 3
ENDMDL
MODEL 10
REMARK VINA RESULT:    -6.162     17.874     20.810
REMARK INTER + INTRA:          -7.594
REMARK INTER:                  -7.209
REMARK INTRA:                  -0.386
REMARK UNBOUND:                -0.351
REMARK SMILES O=C(/C=C/C=C/c1ccc2c(c1)OCO2)N1CCCCC1
REMARK SMILES IDX 3 1 4 2 2 3 1 4 16 5 17 6 21 7 18 8 20 9 19 10 5 11 6 12
REMARK SMILES IDX 7 13 12 14 8 15 11 16 9 17 13 18 10 19 14 20 15 21
REMARK H PARENT
REMARK Flexibility Score: inf
ROOT
ATOM      1  C   UNL     1      84.885  68.883  71.796  1.00  0.00     0.071 C 
ATOM      2  C   UNL     1      85.020  70.191  72.004  1.00  0.00     0.006 C 
ENDROOT
BRANCH   1   3
ATOM      3  C   UNL     1      83.916  68.144  72.630  1.00  0.00     0.246 C 
ATOM      4  O   UNL     1      83.770  68.514  73.795  1.00  0.00    -0.270 OA
ATOM      5  N   UNL     1      83.238  67.076  72.045  1.00  0.00    -0.339 N 
ATOM      6  C   UNL     1      82.273  66.319  72.850  1.00  0.00     0.120 C 
ATOM      7  C   UNL     1      83.419  66.577  70.673  1.00  0.00     0.120 C 
ATOM      8  C   UNL     1      80.919  66.227  72.155  1.00  0.00     0.022 C 
ATOM      9  C   UNL     1      82.080  66.467  69.944  1.00  0.00     0.022 C 
ATOM     10  C   UNL     1      81.065  65.659  70.747  1.00  0.00     0.004 C 
ENDBRANCH   1   3
BRANCH   2  11
ATOM     11  C   UNL     1      85.944  71.001  71.238  1.00  0.00     0.001 C 
ATOM     12  C   UNL     1      86.844  70.473  70.393  1.00  0.00     0.008 C 
BRANCH  12  13
ATOM     13  C   UNL     1      87.811  71.247  69.597  1.00  0.00    -0.022 A 
ATOM     14  C   UNL     1      87.474  71.622  68.303  1.00  0.00     0.058 A 
ATOM     15  C   UNL     1      89.041  71.585  70.166  1.00  0.00     0.012 A 
ATOM     16  C   UNL     1      88.412  72.347  67.597  1.00  0.00     0.166 A 
ATOM     17  C   UNL     1      89.972  72.320  69.428  1.00  0.00     0.051 A 
ATOM     18  O   UNL     1      88.273  72.804  66.322  1.00  0.00    -0.454 OA
ATOM     19  C   UNL     1      89.628  72.687  68.144  1.00  0.00     0.165 A 
ATOM     20  C   UNL     1      89.538  73.469  66.129  1.00  0.00     0.468 C 
ATOM     21  O   UNL     1      90.403  73.399  67.282  1.00  0.00    -0.454 OA
ENDBRANCH  12  13
ENDBRANCH   2  11
TORSDOF 3
ENDMDL
