MODEL 1
REMARK VINA RESULT:    -6.860      0.000      0.000
REMARK INTER + INTRA:         -11.371
REMARK INTER:                 -10.670
REMARK INTRA:                  -0.702
REMARK UNBOUND:                -0.702
REMARK SMILES COc1cc(CNC(=O)CCCC/C=C/C(C)C)ccc1O
REMARK SMILES IDX 10 1 8 2 7 3 9 5 6 6 5 7 3 8 21 9 4 10 20 11 19 12 2 13 1 14
REMARK SMILES IDX 22 15 11 17 12 18 13 19 14 20 15 21 16 22 17 23 18 24
REMARK H PARENT 7 4 22 16
REMARK Flexibility Score: inf
ROOT
ATOM      1  C   UNL     1      92.357  94.813  77.895  1.00  0.00     0.100 C 
ENDROOT
BRANCH   1   2
ATOM      2  C   UNL     1      93.756  95.283  77.880  1.00  0.00     0.220 C 
ATOM      3  N   UNL     1      94.040  96.611  77.985  1.00  0.00    -0.352 N 
ATOM      4  H   UNL     1      93.233  97.217  78.046  1.00  0.00     0.163 HD
ATOM      5  O   UNL     1      94.668  94.426  77.793  1.00  0.00    -0.275 OA
BRANCH   3   6
ATOM      6  C   UNL     1      95.357  97.164  78.012  1.00  0.00     0.151 C 
BRANCH   6   7
ATOM      7  C   UNL     1      95.788  97.480  79.402  1.00  0.00    -0.025 A 
ATOM      8  C   UNL     1      96.900  96.802  81.491  1.00  0.00     0.160 A 
ATOM      9  C   UNL     1      96.635  98.071  82.045  1.00  0.00     0.157 A 
ATOM     10  C   UNL     1      96.473  96.517  80.177  1.00  0.00     0.056 A 
ATOM     11  C   UNL     1      95.936  99.034  81.291  1.00  0.00     0.050 A 
ATOM     12  C   UNL     1      95.523  98.745  79.975  1.00  0.00     0.009 A 
BRANCH   8  13
ATOM     13  O   UNL     1      97.522  95.839  82.245  1.00  0.00    -0.493 OA
ATOM     14  C   UNL     1      98.935  95.722  81.997  1.00  0.00     0.278 C 
ENDBRANCH   8  13
BRANCH   9  15
ATOM     15  O   UNL     1      97.044  98.382  83.302  1.00  0.00    -0.504 OA
ATOM     16  H   UNL     1      96.296  98.342  83.902  1.00  0.00     0.293 HD
ENDBRANCH   9  15
ENDBRANCH   6   7
ENDBRANCH   3   6
ENDBRANCH   1   2
BRANCH   1  17
ATOM     17  C   UNL     1      91.506  95.515  76.803  1.00  0.00     0.010 C 
BRANCH  17  18
ATOM     18  C   UNL     1      91.360  94.664  75.510  1.00  0.00     0.005 C 
BRANCH  18  19
ATOM     19  C   UNL     1      89.931  94.079  75.346  1.00  0.00     0.027 C 
BRANCH  19  20
ATOM     20  C   UNL     1      89.946  92.767  74.716  1.00  0.00    -0.031 C 
ATOM     21  C   UNL     1      89.612  91.624  75.342  1.00  0.00    -0.028 C 
BRANCH  21  22
ATOM     22  C   UNL     1      89.615  90.318  74.683  1.00  0.00     0.005 C 
ATOM     23  C   UNL     1      90.590  90.271  73.474  1.00  0.00     0.012 C 
ATOM     24  C   UNL     1      89.948  89.202  75.707  1.00  0.00     0.012 C 
ENDBRANCH  21  22
ENDBRANCH  19  20
ENDBRANCH  18  19
ENDBRANCH  17  18
ENDBRANCH   1  17
TORSDOF 10
ENDMDL
MODEL 2
REMARK VINA RESULT:    -6.739      2.653      4.239
REMARK INTER + INTRA:         -11.184
REMARK INTER:                  -9.823
REMARK INTRA:                  -1.361
REMARK UNBOUND:                -0.702
REMARK SMILES COc1cc(CNC(=O)CCCC/C=C/C(C)C)ccc1O
REMARK SMILES IDX 10 1 8 2 7 3 9 5 6 6 5 7 3 8 21 9 4 10 20 11 19 12 2 13 1 14
REMARK SMILES IDX 22 15 11 17 12 18 13 19 14 20 15 21 16 22 17 23 18 24
REMARK H PARENT 7 4 22 16
REMARK Flexibility Score: inf
ROOT
ATOM      1  C   UNL     1      95.862  98.864  74.306  1.00  0.00     0.100 C 
ENDROOT
BRANCH   1   2
ATOM      2  C   UNL     1      96.353  98.930  75.696  1.00  0.00     0.220 C 
ATOM      3  N   UNL     1      96.562  97.789  76.410  1.00  0.00    -0.352 N 
ATOM      4  H   UNL     1      96.335  96.933  75.923  1.00  0.00     0.163 HD
ATOM      5  O   UNL     1      96.591 100.060  76.187  1.00  0.00    -0.275 OA
BRANCH   3   6
ATOM      6  C   UNL     1      97.064  97.744  77.747  1.00  0.00     0.151 C 
BRANCH   6   7
ATOM      7  C   UNL     1      96.383  96.693  78.551  1.00  0.00    -0.025 A 
ATOM      8  C   UNL     1      96.002  95.581  80.714  1.00  0.00     0.160 A 
ATOM      9  C   UNL     1      95.080  94.706  80.103  1.00  0.00     0.157 A 
ATOM     10  C   UNL     1      96.646  96.563  79.933  1.00  0.00     0.056 A 
ATOM     11  C   UNL     1      94.823  94.810  78.722  1.00  0.00     0.050 A 
ATOM     12  C   UNL     1      95.462  95.802  77.952  1.00  0.00     0.009 A 
BRANCH   8  13
ATOM     13  O   UNL     1      96.304  95.441  82.045  1.00  0.00    -0.493 OA
ATOM     14  C   UNL     1      97.716  95.407  82.325  1.00  0.00     0.278 C 
ENDBRANCH   8  13
BRANCH   9  15
ATOM     15  O   UNL     1      94.433  93.758  80.829  1.00  0.00    -0.504 OA
ATOM     16  H   UNL     1      94.459  93.993  81.759  1.00  0.00     0.293 HD
ENDBRANCH   9  15
ENDBRANCH   6   7
ENDBRANCH   3   6
ENDBRANCH   1   2
BRANCH   1  17
ATOM     17  C   UNL     1      94.340  98.562  74.249  1.00  0.00     0.010 C 
BRANCH  17  18
ATOM     18  C   UNL     1      94.022  97.168  73.639  1.00  0.00     0.005 C 
BRANCH  18  19
ATOM     19  C   UNL     1      94.139  96.025  74.683  1.00  0.00     0.027 C 
BRANCH  19  20
ATOM     20  C   UNL     1      92.845  95.445  75.007  1.00  0.00    -0.031 C 
ATOM     21  C   UNL     1      92.170  95.690  76.145  1.00  0.00    -0.028 C 
BRANCH  21  22
ATOM     22  C   UNL     1      90.860  95.112  76.442  1.00  0.00     0.005 C 
ATOM     23  C   UNL     1      90.227  94.421  75.203  1.00  0.00     0.012 C 
ATOM     24  C   UNL     1      90.968  94.123  77.632  1.00  0.00     0.012 C 
ENDBRANCH  21  22
ENDBRANCH  19  20
ENDBRANCH  18  19
ENDBRANCH  17  18
ENDBRANCH   1  17
TORSDOF 10
ENDMDL
MODEL 3
REMARK VINA RESULT:    -6.373      5.160      8.561
REMARK INTER + INTRA:         -10.615
REMARK INTER:                 -10.012
REMARK INTRA:                  -0.603
REMARK UNBOUND:                -0.702
REMARK SMILES COc1cc(CNC(=O)CCCC/C=C/C(C)C)ccc1O
REMARK SMILES IDX 10 1 8 2 7 3 9 5 6 6 5 7 3 8 21 9 4 10 20 11 19 12 2 13 1 14
REMARK SMILES IDX 22 15 11 17 12 18 13 19 14 20 15 21 16 22 17 23 18 24
REMARK H PARENT 7 4 22 16
REMARK Flexibility Score: inf
ROOT
ATOM      1  C   UNL     1      94.945  97.257  73.177  1.00  0.00     0.100 C 
ENDROOT
BRANCH   1   2
ATOM      2  C   UNL     1      94.477  97.234  74.577  1.00  0.00     0.220 C 
ATOM      3  N   UNL     1      93.698  96.211  75.028  1.00  0.00    -0.352 N 
ATOM      4  H   UNL     1      93.463  95.515  74.333  1.00  0.00     0.163 HD
ATOM      5  O   UNL     1      94.836  98.165  75.337  1.00  0.00    -0.275 OA
BRANCH   3   6
ATOM      6  C   UNL     1      93.221  96.079  76.367  1.00  0.00     0.151 C 
BRANCH   6   7
ATOM      7  C   UNL     1      92.149  95.051  76.467  1.00  0.00    -0.025 A 
ATOM      8  C   UNL     1      90.600  93.479  75.377  1.00  0.00     0.160 A 
ATOM      9  C   UNL     1      90.118  93.077  76.640  1.00  0.00     0.157 A 
ATOM     10  C   UNL     1      91.608  94.462  75.302  1.00  0.00     0.056 A 
ATOM     11  C   UNL     1      90.634  93.669  77.809  1.00  0.00     0.050 A 
ATOM     12  C   UNL     1      91.648  94.642  77.725  1.00  0.00     0.009 A 
BRANCH   8  13
ATOM     13  O   UNL     1      90.055  92.953  74.233  1.00  0.00    -0.493 OA
ATOM     14  C   UNL     1      90.607  91.680  73.851  1.00  0.00     0.278 C 
ENDBRANCH   8  13
BRANCH   9  15
ATOM     15  O   UNL     1      89.157  92.123  76.747  1.00  0.00    -0.504 OA
ATOM     16  H   UNL     1      89.069  91.858  77.665  1.00  0.00     0.293 HD
ENDBRANCH   9  15
ENDBRANCH   6   7
ENDBRANCH   3   6
ENDBRANCH   1   2
BRANCH   1  17
ATOM     17  C   UNL     1      94.011  98.108  72.276  1.00  0.00     0.010 C 
BRANCH  17  18
ATOM     18  C   UNL     1      94.524  99.562  72.074  1.00  0.00     0.005 C 
BRANCH  18  19
ATOM     19  C   UNL     1      93.386 100.612  72.188  1.00  0.00     0.027 C 
BRANCH  19  20
ATOM     20  C   UNL     1      92.450 100.526  71.076  1.00  0.00    -0.031 C 
ATOM     21  C   UNL     1      91.195 100.052  71.178  1.00  0.00    -0.028 C 
BRANCH  21  22
ATOM     22  C   UNL     1      90.265  99.994  70.051  1.00  0.00     0.005 C 
ATOM     23  C   UNL     1      88.950 100.772  70.332  1.00  0.00     0.012 C 
ATOM     24  C   UNL     1      90.952 100.517  68.762  1.00  0.00     0.012 C 
ENDBRANCH  21  22
ENDBRANCH  19  20
ENDBRANCH  18  19
ENDBRANCH  17  18
ENDBRANCH   1  17
TORSDOF 10
ENDMDL
MODEL 4
REMARK VINA RESULT:    -5.845     12.616     15.619
REMARK INTER + INTRA:          -9.793
REMARK INTER:                  -7.530
REMARK INTRA:                  -2.263
REMARK UNBOUND:                -0.702
REMARK SMILES COc1cc(CNC(=O)CCCC/C=C/C(C)C)ccc1O
REMARK SMILES IDX 10 1 8 2 7 3 9 5 6 6 5 7 3 8 21 9 4 10 20 11 19 12 2 13 1 14
REMARK SMILES IDX 22 15 11 17 12 18 13 19 14 20 15 21 16 22 17 23 18 24
REMARK H PARENT 7 4 22 16
REMARK Flexibility Score: inf
ROOT
ATOM      1  C   UNL     1      97.429  83.684  77.451  1.00  0.00     0.100 C 
ENDROOT
BRANCH   1   2
ATOM      2  C   UNL     1      97.315  84.304  76.116  1.00  0.00     0.220 C 
ATOM      3  N   UNL     1      98.419  84.469  75.334  1.00  0.00    -0.352 N 
ATOM      4  H   UNL     1      99.287  84.161  75.751  1.00  0.00     0.163 HD
ATOM      5  O   UNL     1      96.176  84.649  75.719  1.00  0.00    -0.275 OA
BRANCH   3   6
ATOM      6  C   UNL     1      98.411  85.026  74.020  1.00  0.00     0.151 C 
BRANCH   6   7
ATOM      7  C   UNL     1      98.875  84.041  73.005  1.00  0.00    -0.025 A 
ATOM      8  C   UNL     1     100.414  83.425  71.185  1.00  0.00     0.160 A 
ATOM      9  C   UNL     1      99.785  82.167  71.079  1.00  0.00     0.157 A 
ATOM     10  C   UNL     1      99.952  84.350  72.144  1.00  0.00     0.056 A 
ATOM     11  C   UNL     1      98.698  81.852  71.917  1.00  0.00     0.050 A 
ATOM     12  C   UNL     1      98.251  82.778  72.880  1.00  0.00     0.009 A 
BRANCH   8  13
ATOM     13  O   UNL     1     101.430  83.761  70.327  1.00  0.00    -0.493 OA
ATOM     14  C   UNL     1     102.323  84.766  70.840  1.00  0.00     0.278 C 
ENDBRANCH   8  13
BRANCH   9  15
ATOM     15  O   UNL     1     100.214  81.248  70.175  1.00  0.00    -0.504 OA
ATOM     16  H   UNL     1     101.057  81.527  69.810  1.00  0.00     0.293 HD
ENDBRANCH   9  15
ENDBRANCH   6   7
ENDBRANCH   3   6
ENDBRANCH   1   2
BRANCH   1  17
ATOM     17  C   UNL     1      97.592  82.143  77.354  1.00  0.00     0.010 C 
BRANCH  17  18
ATOM     18  C   UNL     1      99.079  81.690  77.382  1.00  0.00     0.005 C 
BRANCH  18  19
ATOM     19  C   UNL     1      99.494  80.946  76.083  1.00  0.00     0.027 C 
BRANCH  19  20
ATOM     20  C   UNL     1     100.589  81.614  75.397  1.00  0.00    -0.031 C 
ATOM     21  C   UNL     1     101.302  82.629  75.918  1.00  0.00    -0.028 C 
BRANCH  21  22
ATOM     22  C   UNL     1     102.413  83.272  75.217  1.00  0.00     0.005 C 
ATOM     23  C   UNL     1     102.757  82.561  73.879  1.00  0.00     0.012 C 
ATOM     24  C   UNL     1     102.100  84.773  74.981  1.00  0.00     0.012 C 
ENDBRANCH  21  22
ENDBRANCH  19  20
ENDBRANCH  18  19
ENDBRANCH  17  18
ENDBRANCH   1  17
TORSDOF 10
ENDMDL
MODEL 5
REMARK VINA RESULT:    -5.842      5.306      8.851
REMARK INTER + INTRA:          -9.788
REMARK INTER:                  -9.166
REMARK INTRA:                  -0.621
REMARK UNBOUND:                -0.702
REMARK SMILES COc1cc(CNC(=O)CCCC/C=C/C(C)C)ccc1O
REMARK SMILES IDX 10 1 8 2 7 3 9 5 6 6 5 7 3 8 21 9 4 10 20 11 19 12 2 13 1 14
REMARK SMILES IDX 22 15 11 17 12 18 13 19 14 20 15 21 16 22 17 23 18 24
REMARK H PARENT 7 4 22 16
REMARK Flexibility Score: inf
ROOT
ATOM      1  C   UNL     1      94.359  97.877  72.747  1.00  0.00     0.100 C 
ENDROOT
BRANCH   1   2
ATOM      2  C   UNL     1      94.424  97.468  74.164  1.00  0.00     0.220 C 
ATOM      3  N   UNL     1      93.950  96.253  74.555  1.00  0.00    -0.352 N 
ATOM      4  H   UNL     1      93.544  95.695  73.816  1.00  0.00     0.163 HD
ATOM      5  O   UNL     1      94.948  98.260  74.985  1.00  0.00    -0.275 OA
BRANCH   3   6
ATOM      6  C   UNL     1      93.995  95.751  75.892  1.00  0.00     0.151 C 
BRANCH   6   7
ATOM      7  C   UNL     1      92.765  94.983  76.229  1.00  0.00    -0.025 A 
ATOM      8  C   UNL     1      90.796  93.694  75.508  1.00  0.00     0.160 A 
ATOM      9  C   UNL     1      90.429  93.499  76.855  1.00  0.00     0.157 A 
ATOM     10  C   UNL     1      91.958  94.435  75.207  1.00  0.00     0.056 A 
ATOM     11  C   UNL     1      91.213  94.056  77.884  1.00  0.00     0.050 A 
ATOM     12  C   UNL     1      92.379  94.784  77.575  1.00  0.00     0.009 A 
BRANCH   8  13
ATOM     13  O   UNL     1      90.000  93.209  74.501  1.00  0.00    -0.493 OA
ATOM     14  C   UNL     1      90.445  91.955  73.952  1.00  0.00     0.278 C 
ENDBRANCH   8  13
BRANCH   9  15
ATOM     15  O   UNL     1      89.324  92.779  77.179  1.00  0.00    -0.504 OA
ATOM     16  H   UNL     1      89.579  91.879  77.396  1.00  0.00     0.293 HD
ENDBRANCH   9  15
ENDBRANCH   6   7
ENDBRANCH   3   6
ENDBRANCH   1   2
BRANCH   1  17
ATOM     17  C   UNL     1      93.709  99.277  72.585  1.00  0.00     0.010 C 
BRANCH  17  18
ATOM     18  C   UNL     1      92.589  99.303  71.506  1.00  0.00     0.005 C 
BRANCH  18  19
ATOM     19  C   UNL     1      92.129 100.746  71.167  1.00  0.00     0.027 C 
BRANCH  19  20
ATOM     20  C   UNL     1      91.886 101.538  72.363  1.00  0.00    -0.031 C 
ATOM     21  C   UNL     1      90.720 102.150  72.641  1.00  0.00    -0.028 C 
BRANCH  21  22
ATOM     22  C   UNL     1      90.492 102.926  73.860  1.00  0.00     0.005 C 
ATOM     23  C   UNL     1      90.339 104.445  73.571  1.00  0.00     0.012 C 
ATOM     24  C   UNL     1      89.254 102.380  74.619  1.00  0.00     0.012 C 
ENDBRANCH  21  22
ENDBRANCH  19  20
ENDBRANCH  18  19
ENDBRANCH  17  18
ENDBRANCH   1  17
TORSDOF 10
ENDMDL
MODEL 6
REMARK VINA RESULT:    -5.797     21.663     24.990
REMARK INTER + INTRA:          -9.718
REMARK INTER:                  -7.979
REMARK INTRA:                  -1.739
REMARK UNBOUND:                -0.702
REMARK SMILES COc1cc(CNC(=O)CCCC/C=C/C(C)C)ccc1O
REMARK SMILES IDX 10 1 8 2 7 3 9 5 6 6 5 7 3 8 21 9 4 10 20 11 19 12 2 13 1 14
REMARK SMILES IDX 22 15 11 17 12 18 13 19 14 20 15 21 16 22 17 23 18 24
REMARK H PARENT 7 4 22 16
REMARK Flexibility Score: inf
ROOT
ATOM      1  C   UNL     1      75.084  90.215  67.482  1.00  0.00     0.100 C 
ENDROOT
BRANCH   1   2
ATOM      2  C   UNL     1      74.120  89.411  66.706  1.00  0.00     0.220 C 
ATOM      3  N   UNL     1      73.916  88.097  67.005  1.00  0.00    -0.352 N 
ATOM      4  H   UNL     1      74.484  87.739  67.761  1.00  0.00     0.163 HD
ATOM      5  O   UNL     1      73.483  89.977  65.785  1.00  0.00    -0.275 OA
BRANCH   3   6
ATOM      6  C   UNL     1      72.986  87.244  66.338  1.00  0.00     0.151 C 
BRANCH   6   7
ATOM      7  C   UNL     1      73.676  86.141  65.616  1.00  0.00    -0.025 A 
ATOM      8  C   UNL     1      73.838  83.755  65.028  1.00  0.00     0.160 A 
ATOM      9  C   UNL     1      74.969  84.028  64.231  1.00  0.00     0.157 A 
ATOM     10  C   UNL     1      73.205  84.812  65.714  1.00  0.00     0.056 A 
ATOM     11  C   UNL     1      75.463  85.344  64.140  1.00  0.00     0.050 A 
ATOM     12  C   UNL     1      74.816  86.395  64.819  1.00  0.00     0.009 A 
BRANCH   8  13
ATOM     13  O   UNL     1      73.394  82.466  65.173  1.00  0.00    -0.493 OA
ATOM     14  C   UNL     1      72.288  82.126  64.316  1.00  0.00     0.278 C 
ENDBRANCH   8  13
BRANCH   9  15
ATOM     15  O   UNL     1      75.595  83.035  63.547  1.00  0.00    -0.504 OA
ATOM     16  H   UNL     1      75.641  82.248  64.095  1.00  0.00     0.293 HD
ENDBRANCH   9  15
ENDBRANCH   6   7
ENDBRANCH   3   6
ENDBRANCH   1   2
BRANCH   1  17
ATOM     17  C   UNL     1      75.668  89.413  68.677  1.00  0.00     0.010 C 
BRANCH  17  18
ATOM     18  C   UNL     1      77.198  89.169  68.552  1.00  0.00     0.005 C 
BRANCH  18  19
ATOM     19  C   UNL     1      77.548  88.196  67.394  1.00  0.00     0.027 C 
BRANCH  19  20
ATOM     20  C   UNL     1      77.135  86.831  67.682  1.00  0.00    -0.031 C 
ATOM     21  C   UNL     1      77.267  86.238  68.883  1.00  0.00    -0.028 C 
BRANCH  21  22
ATOM     22  C   UNL     1      76.826  84.871  69.155  1.00  0.00     0.005 C 
ATOM     23  C   UNL     1      75.951  84.778  70.436  1.00  0.00     0.012 C 
ATOM     24  C   UNL     1      76.074  84.295  67.928  1.00  0.00     0.012 C 
ENDBRANCH  21  22
ENDBRANCH  19  20
ENDBRANCH  18  19
ENDBRANCH  17  18
ENDBRANCH   1  17
TORSDOF 10
ENDMDL
MODEL 7
REMARK VINA RESULT:    -5.739     12.625     15.310
REMARK INTER + INTRA:          -9.628
REMARK INTER:                  -8.920
REMARK INTRA:                  -0.708
REMARK UNBOUND:                -0.702
REMARK SMILES COc1cc(CNC(=O)CCCC/C=C/C(C)C)ccc1O
REMARK SMILES IDX 10 1 8 2 7 3 9 5 6 6 5 7 3 8 21 9 4 10 20 11 19 12 2 13 1 14
REMARK SMILES IDX 22 15 11 17 12 18 13 19 14 20 15 21 16 22 17 23 18 24
REMARK H PARENT 7 4 22 16
REMARK Flexibility Score: inf
ROOT
ATOM      1  C   UNL     1      97.646  79.589  80.917  1.00  0.00     0.100 C 
ENDROOT
BRANCH   1   2
ATOM      2  C   UNL     1      98.436  80.742  80.444  1.00  0.00     0.220 C 
ATOM      3  N   UNL     1      98.595  80.970  79.110  1.00  0.00    -0.352 N 
ATOM      4  H   UNL     1      98.158  80.288  78.505  1.00  0.00     0.163 HD
ATOM      5  O   UNL     1      98.932  81.512  81.301  1.00  0.00    -0.275 OA
BRANCH   3   6
ATOM      6  C   UNL     1      99.311  82.072  78.551  1.00  0.00     0.151 C 
BRANCH   6   7
ATOM      7  C   UNL     1      98.466  82.849  77.603  1.00  0.00    -0.025 A 
ATOM      8  C   UNL     1      98.109  83.809  75.364  1.00  0.00     0.160 A 
ATOM      9  C   UNL     1      96.858  84.312  75.778  1.00  0.00     0.157 A 
ATOM     10  C   UNL     1      98.901  83.085  76.280  1.00  0.00     0.056 A 
ATOM     11  C   UNL     1      96.419  84.101  77.100  1.00  0.00     0.050 A 
ATOM     12  C   UNL     1      97.212  83.367  78.004  1.00  0.00     0.009 A 
BRANCH   8  13
ATOM     13  O   UNL     1      98.569  84.068  74.098  1.00  0.00    -0.493 OA
ATOM     14  C   UNL     1      99.645  85.023  74.049  1.00  0.00     0.278 C 
ENDBRANCH   8  13
BRANCH   9  15
ATOM     15  O   UNL     1      96.065  85.001  74.918  1.00  0.00    -0.504 OA
ATOM     16  H   UNL     1      95.277  84.487  74.726  1.00  0.00     0.293 HD
ENDBRANCH   9  15
ENDBRANCH   6   7
ENDBRANCH   3   6
ENDBRANCH   1   2
BRANCH   1  17
ATOM     17  C   UNL     1      96.716  79.978  82.097  1.00  0.00     0.010 C 
BRANCH  17  18
ATOM     18  C   UNL     1      96.362  78.772  83.012  1.00  0.00     0.005 C 
BRANCH  18  19
ATOM     19  C   UNL     1      95.716  79.216  84.352  1.00  0.00     0.027 C 
BRANCH  19  20
ATOM     20  C   UNL     1      95.160  80.558  84.273  1.00  0.00    -0.031 C 
ATOM     21  C   UNL     1      93.849  80.841  84.381  1.00  0.00    -0.028 C 
BRANCH  21  22
ATOM     22  C   UNL     1      93.313  82.200  84.318  1.00  0.00     0.005 C 
ATOM     23  C   UNL     1      91.851  82.282  84.838  1.00  0.00     0.012 C 
ATOM     24  C   UNL     1      94.233  83.175  85.098  1.00  0.00     0.012 C 
ENDBRANCH  21  22
ENDBRANCH  19  20
ENDBRANCH  18  19
ENDBRANCH  17  18
ENDBRANCH   1  17
TORSDOF 10
ENDMDL
MODEL 8
REMARK VINA RESULT:    -5.653     11.787     14.269
REMARK INTER + INTRA:          -9.494
REMARK INTER:                  -8.572
REMARK INTRA:                  -0.922
REMARK UNBOUND:                -0.702
REMARK SMILES COc1cc(CNC(=O)CCCC/C=C/C(C)C)ccc1O
REMARK SMILES IDX 10 1 8 2 7 3 9 5 6 6 5 7 3 8 21 9 4 10 20 11 19 12 2 13 1 14
REMARK SMILES IDX 22 15 11 17 12 18 13 19 14 20 15 21 16 22 17 23 18 24
REMARK H PARENT 7 4 22 16
REMARK Flexibility Score: inf
ROOT
ATOM      1  C   UNL     1      94.780  89.828  88.110  1.00  0.00     0.100 C 
ENDROOT
BRANCH   1   2
ATOM      2  C   UNL     1      94.844  89.208  86.773  1.00  0.00     0.220 C 
ATOM      3  N   UNL     1      94.460  87.913  86.592  1.00  0.00    -0.352 N 
ATOM      4  H   UNL     1      94.165  87.434  87.431  1.00  0.00     0.163 HD
ATOM      5  O   UNL     1      95.236  89.912  85.811  1.00  0.00    -0.275 OA
BRANCH   3   6
ATOM      6  C   UNL     1      94.454  87.232  85.336  1.00  0.00     0.151 C 
BRANCH   6   7
ATOM      7  C   UNL     1      94.328  85.760  85.514  1.00  0.00    -0.025 A 
ATOM      8  C   UNL     1      95.073  83.478  84.965  1.00  0.00     0.160 A 
ATOM      9  C   UNL     1      94.115  82.950  85.855  1.00  0.00     0.157 A 
ATOM     10  C   UNL     1      95.169  84.876  84.801  1.00  0.00     0.056 A 
ATOM     11  C   UNL     1      93.256  83.818  86.558  1.00  0.00     0.050 A 
ATOM     12  C   UNL     1      93.368  85.213  86.397  1.00  0.00     0.009 A 
BRANCH   8  13
ATOM     13  O   UNL     1      95.866  82.635  84.229  1.00  0.00    -0.493 OA
ATOM     14  C   UNL     1      96.297  83.184  82.970  1.00  0.00     0.278 C 
ENDBRANCH   8  13
BRANCH   9  15
ATOM     15  O   UNL     1      94.005  81.610  86.046  1.00  0.00    -0.504 OA
ATOM     16  H   UNL     1      94.872  81.204  85.974  1.00  0.00     0.293 HD
ENDBRANCH   9  15
ENDBRANCH   6   7
ENDBRANCH   3   6
ENDBRANCH   1   2
BRANCH   1  17
ATOM     17  C   UNL     1      94.037  91.190  88.075  1.00  0.00     0.010 C 
BRANCH  17  18
ATOM     18  C   UNL     1      93.808  91.791  89.490  1.00  0.00     0.005 C 
BRANCH  18  19
ATOM     19  C   UNL     1      92.364  91.551  90.007  1.00  0.00     0.027 C 
BRANCH  19  20
ATOM     20  C   UNL     1      92.015  90.138  90.018  1.00  0.00    -0.031 C 
ATOM     21  C   UNL     1      92.513  89.243  90.889  1.00  0.00    -0.028 C 
BRANCH  21  22
ATOM     22  C   UNL     1      92.133  87.830  90.894  1.00  0.00     0.005 C 
ATOM     23  C   UNL     1      92.571  87.098  89.595  1.00  0.00     0.012 C 
ATOM     24  C   UNL     1      92.709  87.124  92.149  1.00  0.00     0.012 C 
ENDBRANCH  21  22
ENDBRANCH  19  20
ENDBRANCH  18  19
ENDBRANCH  17  18
ENDBRANCH   1  17
TORSDOF 10
ENDMDL
MODEL 9
REMARK VINA RESULT:    -5.572     21.685     25.190
REMARK INTER + INTRA:          -9.368
REMARK INTER:                  -8.115
REMARK INTRA:                  -1.252
REMARK UNBOUND:                -0.702
REMARK SMILES COc1cc(CNC(=O)CCCC/C=C/C(C)C)ccc1O
REMARK SMILES IDX 10 1 8 2 7 3 9 5 6 6 5 7 3 8 21 9 4 10 20 11 19 12 2 13 1 14
REMARK SMILES IDX 22 15 11 17 12 18 13 19 14 20 15 21 16 22 17 23 18 24
REMARK H PARENT 7 4 22 16
REMARK Flexibility Score: inf
ROOT
ATOM      1  C   UNL     1      74.895  90.437  68.208  1.00  0.00     0.100 C 
ENDROOT
BRANCH   1   2
ATOM      2  C   UNL     1      73.600  89.968  67.680  1.00  0.00     0.220 C 
ATOM      3  N   UNL     1      72.675  89.413  68.512  1.00  0.00    -0.352 N 
ATOM      4  H   UNL     1      72.962  89.336  69.478  1.00  0.00     0.163 HD
ATOM      5  O   UNL     1      73.370  90.116  66.455  1.00  0.00    -0.275 OA
BRANCH   3   6
ATOM      6  C   UNL     1      71.383  88.958  68.108  1.00  0.00     0.151 C 
BRANCH   6   7
ATOM      7  C   UNL     1      71.175  87.525  68.453  1.00  0.00    -0.025 A 
ATOM      8  C   UNL     1      69.707  85.721  69.261  1.00  0.00     0.160 A 
ATOM      9  C   UNL     1      70.756  84.793  69.098  1.00  0.00     0.157 A 
ATOM     10  C   UNL     1      69.927  87.077  68.940  1.00  0.00     0.056 A 
ATOM     11  C   UNL     1      72.013  85.228  68.632  1.00  0.00     0.050 A 
ATOM     12  C   UNL     1      72.219  86.582  68.302  1.00  0.00     0.009 A 
BRANCH   8  13
ATOM     13  O   UNL     1      68.503  85.314  69.777  1.00  0.00    -0.493 OA
ATOM     14  C   UNL     1      68.394  85.465  71.204  1.00  0.00     0.278 C 
ENDBRANCH   8  13
BRANCH   9  15
ATOM     15  O   UNL     1      70.574  83.478  69.385  1.00  0.00    -0.504 OA
ATOM     16  H   UNL     1      70.054  83.394  70.188  1.00  0.00     0.293 HD
ENDBRANCH   9  15
ENDBRANCH   6   7
ENDBRANCH   3   6
ENDBRANCH   1   2
BRANCH   1  17
ATOM     17  C   UNL     1      75.592  89.349  69.068  1.00  0.00     0.010 C 
BRANCH  17  18
ATOM     18  C   UNL     1      77.060  89.082  68.633  1.00  0.00     0.005 C 
BRANCH  18  19
ATOM     19  C   UNL     1      77.147  88.244  67.329  1.00  0.00     0.027 C 
BRANCH  19  20
ATOM     20  C   UNL     1      76.766  86.856  67.543  1.00  0.00    -0.031 C 
ATOM     21  C   UNL     1      77.140  86.126  68.610  1.00  0.00    -0.028 C 
BRANCH  21  22
ATOM     22  C   UNL     1      76.728  84.737  68.815  1.00  0.00     0.005 C 
ATOM     23  C   UNL     1      75.978  84.538  70.161  1.00  0.00     0.012 C 
ATOM     24  C   UNL     1      75.862  84.253  67.623  1.00  0.00     0.012 C 
ENDBRANCH  21  22
ENDBRANCH  19  20
ENDBRANCH  18  19
ENDBRANCH  17  18
ENDBRANCH   1  17
TORSDOF 10
ENDMDL
MODEL 10
REMARK VINA RESULT:    -5.536      3.200      8.157
REMARK INTER + INTRA:          -9.312
REMARK INTER:                  -7.968
REMARK INTRA:                  -1.344
REMARK UNBOUND:                -0.702
REMARK SMILES COc1cc(CNC(=O)CCCC/C=C/C(C)C)ccc1O
REMARK SMILES IDX 10 1 8 2 7 3 9 5 6 6 5 7 3 8 21 9 4 10 20 11 19 12 2 13 1 14
REMARK SMILES IDX 22 15 11 17 12 18 13 19 14 20 15 21 16 22 17 23 18 24
REMARK H PARENT 7 4 22 16
REMARK Flexibility Score: inf
ROOT
ATOM      1  C   UNL     1      96.984  99.283  74.778  1.00  0.00     0.100 C 
ENDROOT
BRANCH   1   2
ATOM      2  C   UNL     1      96.264  98.136  74.194  1.00  0.00     0.220 C 
ATOM      3  N   UNL     1      95.085  97.713  74.731  1.00  0.00    -0.352 N 
ATOM      4  H   UNL     1      94.780  98.225  75.547  1.00  0.00     0.163 HD
ATOM      5  O   UNL     1      96.755  97.581  73.181  1.00  0.00    -0.275 OA
BRANCH   3   6
ATOM      6  C   UNL     1      94.296  96.637  74.222  1.00  0.00     0.151 C 
BRANCH   6   7
ATOM      7  C   UNL     1      93.549  95.946  75.308  1.00  0.00    -0.025 A 
ATOM      8  C   UNL     1      91.848  94.313  76.016  1.00  0.00     0.160 A 
ATOM      9  C   UNL     1      92.127  94.606  77.367  1.00  0.00     0.157 A 
ATOM     10  C   UNL     1      92.558  94.986  75.001  1.00  0.00     0.056 A 
ATOM     11  C   UNL     1      93.098  95.574  77.689  1.00  0.00     0.050 A 
ATOM     12  C   UNL     1      93.811  96.233  76.668  1.00  0.00     0.009 A 
BRANCH   8  13
ATOM     13  O   UNL     1      90.857  93.419  75.697  1.00  0.00    -0.493 OA
ATOM     14  C   UNL     1      90.563  93.346  74.290  1.00  0.00     0.278 C 
ENDBRANCH   8  13
BRANCH   9  15
ATOM     15  O   UNL     1      91.471  93.966  78.369  1.00  0.00    -0.504 OA
ATOM     16  H   UNL     1      92.087  93.413  78.854  1.00  0.00     0.293 HD
ENDBRANCH   9  15
ENDBRANCH   6   7
ENDBRANCH   3   6
ENDBRANCH   1   2
BRANCH   1  17
ATOM     17  C   UNL     1      96.189  99.922  75.949  1.00  0.00     0.010 C 
BRANCH  17  18
ATOM     18  C   UNL     1      97.071 100.195  77.200  1.00  0.00     0.005 C 
BRANCH  18  19
ATOM     19  C   UNL     1      98.094  99.057  77.462  1.00  0.00     0.027 C 
BRANCH  19  20
ATOM     20  C   UNL     1      97.547  98.016  78.320  1.00  0.00    -0.031 C 
ATOM     21  C   UNL     1      96.739  98.249  79.370  1.00  0.00    -0.028 C 
BRANCH  21  22
ATOM     22  C   UNL     1      96.184  97.185  80.207  1.00  0.00     0.005 C 
ATOM     23  C   UNL     1      96.257  95.795  79.518  1.00  0.00     0.012 C 
ATOM     24  C   UNL     1      96.899  97.159  81.583  1.00  0.00     0.012 C 
ENDBRANCH  21  22
ENDBRANCH  19  20
ENDBRANCH  18  19
ENDBRANCH  17  18
ENDBRANCH   1  17
TORSDOF 10
ENDMDL
