MODEL 1
REMARK VINA RESULT:    -6.673      0.000      0.000
REMARK INTER + INTRA:         -11.303
REMARK INTER:                 -10.769
REMARK INTRA:                  -0.534
REMARK UNBOUND:                -0.534
REMARK SMILES COc1cc(CNC(=O)CCCCCCC(C)C)ccc1O
REMARK SMILES IDX 11 1 10 2 8 3 7 4 9 6 6 7 5 8 3 9 21 10 4 11 20 12 19 13
REMARK SMILES IDX 2 14 1 15 22 16 12 18 13 19 14 20 15 21 16 22 17 23 18 24
REMARK H PARENT 7 5 22 17
REMARK Flexibility Score: inf
ROOT
ATOM      1  C   UNL     1      95.050  83.198  85.364  1.00  0.00     0.010 C 
ENDROOT
BRANCH   1   2
ATOM      2  C   UNL     1      93.565  83.636  85.233  1.00  0.00     0.100 C 
BRANCH   2   3
ATOM      3  C   UNL     1      92.606  82.551  85.537  1.00  0.00     0.220 C 
ATOM      4  N   UNL     1      91.466  82.412  84.799  1.00  0.00    -0.352 N 
ATOM      5  H   UNL     1      91.333  83.120  84.093  1.00  0.00     0.163 HD
ATOM      6  O   UNL     1      92.876  81.752  86.466  1.00  0.00    -0.275 OA
BRANCH   4   7
ATOM      7  C   UNL     1      90.498  81.370  84.963  1.00  0.00     0.151 C 
BRANCH   7   8
ATOM      8  C   UNL     1      89.143  81.746  84.473  1.00  0.00    -0.025 A 
ATOM      9  C   UNL     1      87.272  83.340  84.400  1.00  0.00     0.160 A 
ATOM     10  C   UNL     1      86.580  82.490  83.509  1.00  0.00     0.157 A 
ATOM     11  C   UNL     1      88.537  82.953  84.889  1.00  0.00     0.056 A 
ATOM     12  C   UNL     1      87.156  81.268  83.118  1.00  0.00     0.050 A 
ATOM     13  C   UNL     1      88.433  80.902  83.587  1.00  0.00     0.009 A 
BRANCH   9  14
ATOM     14  O   UNL     1      86.703  84.512  84.817  1.00  0.00    -0.493 OA
ATOM     15  C   UNL     1      86.036  84.413  86.088  1.00  0.00     0.278 C 
ENDBRANCH   9  14
BRANCH  10  16
ATOM     16  O   UNL     1      85.359  82.836  83.023  1.00  0.00    -0.504 OA
ATOM     17  H   UNL     1      84.678  82.358  83.501  1.00  0.00     0.293 HD
ENDBRANCH  10  16
ENDBRANCH   7   8
ENDBRANCH   4   7
ENDBRANCH   2   3
ENDBRANCH   1   2
BRANCH   1  18
ATOM     18  C   UNL     1      95.505  82.304  84.176  1.00  0.00     0.001 C 
BRANCH  18  19
ATOM     19  C   UNL     1      96.528  82.993  83.229  1.00  0.00     0.000 C 
BRANCH  19  20
ATOM     20  C   UNL     1      96.646  82.244  81.872  1.00  0.00     0.000 C 
BRANCH  20  21
ATOM     21  C   UNL     1      98.036  82.375  81.190  1.00  0.00     0.003 C 
BRANCH  21  22
ATOM     22  C   UNL     1      97.992  82.417  79.627  1.00  0.00    -0.017 C 
ATOM     23  C   UNL     1      96.899  83.408  79.140  1.00  0.00     0.007 C 
ATOM     24  C   UNL     1      97.793  81.019  78.970  1.00  0.00     0.007 C 
ENDBRANCH  21  22
ENDBRANCH  20  21
ENDBRANCH  19  20
ENDBRANCH  18  19
ENDBRANCH   1  18
TORSDOF 11
ENDMDL
MODEL 2
REMARK VINA RESULT:    -5.937      3.647      9.567
REMARK INTER + INTRA:         -10.115
REMARK INTER:                  -9.700
REMARK INTRA:                  -0.415
REMARK UNBOUND:                -0.534
REMARK SMILES COc1cc(CNC(=O)CCCCCCC(C)C)ccc1O
REMARK SMILES IDX 11 1 10 2 8 3 7 4 9 6 6 7 5 8 3 9 21 10 4 11 20 12 19 13
REMARK SMILES IDX 2 14 1 15 22 16 12 18 13 19 14 20 15 21 16 22 17 23 18 24
REMARK H PARENT 7 5 22 17
REMARK Flexibility Score: inf
ROOT
ATOM      1  C   UNL     1      93.552  82.015  84.952  1.00  0.00     0.010 C 
ENDROOT
BRANCH   1   2
ATOM      2  C   UNL     1      94.333  83.205  84.329  1.00  0.00     0.100 C 
BRANCH   2   3
ATOM      3  C   UNL     1      95.750  82.889  84.044  1.00  0.00     0.220 C 
ATOM      4  N   UNL     1      96.111  82.371  82.834  1.00  0.00    -0.352 N 
ATOM      5  H   UNL     1      95.341  82.193  82.206  1.00  0.00     0.163 HD
ATOM      6  O   UNL     1      96.610  83.131  84.926  1.00  0.00    -0.275 OA
BRANCH   4   7
ATOM      7  C   UNL     1      97.452  82.082  82.426  1.00  0.00     0.151 C 
BRANCH   7   8
ATOM      8  C   UNL     1      97.587  81.877  80.958  1.00  0.00    -0.025 A 
ATOM      9  C   UNL     1      97.701  82.799  78.680  1.00  0.00     0.160 A 
ATOM     10  C   UNL     1      97.888  81.500  78.161  1.00  0.00     0.157 A 
ATOM     11  C   UNL     1      97.534  82.976  80.070  1.00  0.00     0.056 A 
ATOM     12  C   UNL     1      97.904  80.394  79.031  1.00  0.00     0.050 A 
ATOM     13  C   UNL     1      97.766  80.581  80.420  1.00  0.00     0.009 A 
BRANCH   9  14
ATOM     14  O   UNL     1      97.644  83.877  77.840  1.00  0.00    -0.493 OA
ATOM     15  C   UNL     1      96.314  84.195  77.393  1.00  0.00     0.278 C 
ENDBRANCH   9  14
BRANCH  10  16
ATOM     16  O   UNL     1      98.051  81.300  76.827  1.00  0.00    -0.504 OA
ATOM     17  H   UNL     1      97.247  81.551  76.366  1.00  0.00     0.293 HD
ENDBRANCH  10  16
ENDBRANCH   7   8
ENDBRANCH   4   7
ENDBRANCH   2   3
ENDBRANCH   1   2
BRANCH   1  18
ATOM     18  C   UNL     1      92.220  81.730  84.201  1.00  0.00     0.001 C 
BRANCH  18  19
ATOM     19  C   UNL     1      90.973  81.694  85.129  1.00  0.00     0.000 C 
BRANCH  19  20
ATOM     20  C   UNL     1      89.660  81.511  84.315  1.00  0.00     0.000 C 
BRANCH  20  21
ATOM     21  C   UNL     1      88.378  81.972  85.062  1.00  0.00     0.003 C 
BRANCH  21  22
ATOM     22  C   UNL     1      87.647  83.189  84.407  1.00  0.00    -0.017 C 
ATOM     23  C   UNL     1      86.974  84.071  85.497  1.00  0.00     0.007 C 
ATOM     24  C   UNL     1      86.610  82.783  83.319  1.00  0.00     0.007 C 
ENDBRANCH  21  22
ENDBRANCH  20  21
ENDBRANCH  19  20
ENDBRANCH  18  19
ENDBRANCH   1  18
TORSDOF 11
ENDMDL
MODEL 3
REMARK VINA RESULT:    -5.833      7.546     13.034
REMARK INTER + INTRA:          -9.947
REMARK INTER:                  -9.247
REMARK INTRA:                  -0.700
REMARK UNBOUND:                -0.534
REMARK SMILES COc1cc(CNC(=O)CCCCCCC(C)C)ccc1O
REMARK SMILES IDX 11 1 10 2 8 3 7 4 9 6 6 7 5 8 3 9 21 10 4 11 20 12 19 13
REMARK SMILES IDX 2 14 1 15 22 16 12 18 13 19 14 20 15 21 16 22 17 23 18 24
REMARK H PARENT 7 5 22 17
REMARK Flexibility Score: inf
ROOT
ATOM      1  C   UNL     1      97.402  83.059  78.320  1.00  0.00     0.010 C 
ENDROOT
BRANCH   1   2
ATOM      2  C   UNL     1      96.399  83.946  77.531  1.00  0.00     0.100 C 
BRANCH   2   3
ATOM      3  C   UNL     1      96.928  84.409  76.228  1.00  0.00     0.220 C 
ATOM      4  N   UNL     1      98.227  84.170  75.887  1.00  0.00    -0.352 N 
ATOM      5  H   UNL     1      98.772  83.709  76.601  1.00  0.00     0.163 HD
ATOM      6  O   UNL     1      96.150  85.001  75.439  1.00  0.00    -0.275 OA
BRANCH   4   7
ATOM      7  C   UNL     1      98.830  84.518  74.636  1.00  0.00     0.151 C 
BRANCH   7   8
ATOM      8  C   UNL     1     100.316  84.596  74.703  1.00  0.00    -0.025 A 
ATOM      9  C   UNL     1     102.485  83.538  75.176  1.00  0.00     0.160 A 
ATOM     10  C   UNL     1     103.149  84.723  74.791  1.00  0.00     0.157 A 
ATOM     11  C   UNL     1     101.075  83.490  75.147  1.00  0.00     0.056 A 
ATOM     12  C   UNL     1     102.403  85.844  74.384  1.00  0.00     0.050 A 
ATOM     13  C   UNL     1     100.997  85.779  74.330  1.00  0.00     0.009 A 
BRANCH   9  14
ATOM     14  O   UNL     1     103.200  82.455  75.611  1.00  0.00    -0.493 OA
ATOM     15  C   UNL     1     102.398  81.279  75.823  1.00  0.00     0.278 C 
ENDBRANCH   9  14
BRANCH  10  16
ATOM     16  O   UNL     1     104.506  84.798  74.810  1.00  0.00    -0.504 OA
ATOM     17  H   UNL     1     104.779  85.698  74.617  1.00  0.00     0.293 HD
ENDBRANCH  10  16
ENDBRANCH   7   8
ENDBRANCH   4   7
ENDBRANCH   2   3
ENDBRANCH   1   2
BRANCH   1  18
ATOM     18  C   UNL     1      97.314  83.297  79.854  1.00  0.00     0.001 C 
BRANCH  18  19
ATOM     19  C   UNL     1      98.094  82.248  80.696  1.00  0.00     0.000 C 
BRANCH  19  20
ATOM     20  C   UNL     1      97.141  81.179  81.302  1.00  0.00     0.000 C 
BRANCH  20  21
ATOM     21  C   UNL     1      96.322  81.677  82.526  1.00  0.00     0.003 C 
BRANCH  21  22
ATOM     22  C   UNL     1      96.926  82.924  83.249  1.00  0.00    -0.017 C 
ATOM     23  C   UNL     1      97.337  82.564  84.704  1.00  0.00     0.007 C 
ATOM     24  C   UNL     1      95.989  84.168  83.240  1.00  0.00     0.007 C 
ENDBRANCH  21  22
ENDBRANCH  20  21
ENDBRANCH  19  20
ENDBRANCH  18  19
ENDBRANCH   1  18
TORSDOF 11
ENDMDL
MODEL 4
REMARK VINA RESULT:    -5.746      7.149     10.715
REMARK INTER + INTRA:          -9.807
REMARK INTER:                  -8.892
REMARK INTRA:                  -0.915
REMARK UNBOUND:                -0.534
REMARK SMILES COc1cc(CNC(=O)CCCCCCC(C)C)ccc1O
REMARK SMILES IDX 11 1 10 2 8 3 7 4 9 6 6 7 5 8 3 9 21 10 4 11 20 12 19 13
REMARK SMILES IDX 2 14 1 15 22 16 12 18 13 19 14 20 15 21 16 22 17 23 18 24
REMARK H PARENT 7 5 22 17
REMARK Flexibility Score: inf
ROOT
ATOM      1  C   UNL     1      98.786  83.308  73.888  1.00  0.00     0.010 C 
ENDROOT
BRANCH   1   2
ATOM      2  C   UNL     1      97.366  83.924  74.023  1.00  0.00     0.100 C 
BRANCH   2   3
ATOM      3  C   UNL     1      97.010  84.272  75.417  1.00  0.00     0.220 C 
ATOM      4  N   UNL     1      97.517  83.551  76.458  1.00  0.00    -0.352 N 
ATOM      5  H   UNL     1      98.093  82.768  76.187  1.00  0.00     0.163 HD
ATOM      6  O   UNL     1      96.256  85.256  75.617  1.00  0.00    -0.275 OA
BRANCH   4   7
ATOM      7  C   UNL     1      97.290  83.830  77.844  1.00  0.00     0.151 C 
BRANCH   7   8
ATOM      8  C   UNL     1      97.411  82.626  78.712  1.00  0.00    -0.025 A 
ATOM      9  C   UNL     1      97.164  81.553  80.911  1.00  0.00     0.160 A 
ATOM     10  C   UNL     1      97.598  80.326  80.363  1.00  0.00     0.157 A 
ATOM     11  C   UNL     1      97.092  82.696  80.087  1.00  0.00     0.056 A 
ATOM     12  C   UNL     1      97.955  80.253  79.005  1.00  0.00     0.050 A 
ATOM     13  C   UNL     1      97.853  81.391  78.181  1.00  0.00     0.009 A 
BRANCH   9  14
ATOM     14  O   UNL     1      96.851  81.644  82.240  1.00  0.00    -0.493 OA
ATOM     15  C   UNL     1      96.703  82.996  82.709  1.00  0.00     0.278 C 
ENDBRANCH   9  14
BRANCH  10  16
ATOM     16  O   UNL     1      97.678  79.209  81.133  1.00  0.00    -0.504 OA
ATOM     17  H   UNL     1      96.827  79.044  81.546  1.00  0.00     0.293 HD
ENDBRANCH  10  16
ENDBRANCH   7   8
ENDBRANCH   4   7
ENDBRANCH   2   3
ENDBRANCH   1   2
BRANCH   1  18
ATOM     18  C   UNL     1      99.482  83.724  72.561  1.00  0.00     0.001 C 
BRANCH  18  19
ATOM     19  C   UNL     1      99.413  85.250  72.268  1.00  0.00     0.000 C 
BRANCH  19  20
ATOM     20  C   UNL     1     100.154  86.075  73.358  1.00  0.00     0.000 C 
BRANCH  20  21
ATOM     21  C   UNL     1     101.700  85.922  73.332  1.00  0.00     0.003 C 
BRANCH  21  22
ATOM     22  C   UNL     1     102.341  85.562  74.712  1.00  0.00    -0.017 C 
ATOM     23  C   UNL     1     103.419  86.612  75.101  1.00  0.00     0.007 C 
ATOM     24  C   UNL     1     102.936  84.123  74.769  1.00  0.00     0.007 C 
ENDBRANCH  21  22
ENDBRANCH  20  21
ENDBRANCH  19  20
ENDBRANCH  18  19
ENDBRANCH   1  18
TORSDOF 11
ENDMDL
MODEL 5
REMARK VINA RESULT:    -5.718      7.683     12.922
REMARK INTER + INTRA:          -9.762
REMARK INTER:                  -9.131
REMARK INTRA:                  -0.631
REMARK UNBOUND:                -0.534
REMARK SMILES COc1cc(CNC(=O)CCCCCCC(C)C)ccc1O
REMARK SMILES IDX 11 1 10 2 8 3 7 4 9 6 6 7 5 8 3 9 21 10 4 11 20 12 19 13
REMARK SMILES IDX 2 14 1 15 22 16 12 18 13 19 14 20 15 21 16 22 17 23 18 24
REMARK H PARENT 7 5 22 17
REMARK Flexibility Score: inf
ROOT
ATOM      1  C   UNL     1      98.037  82.528  77.831  1.00  0.00     0.010 C 
ENDROOT
BRANCH   1   2
ATOM      2  C   UNL     1      96.708  83.280  77.545  1.00  0.00     0.100 C 
BRANCH   2   3
ATOM      3  C   UNL     1      96.826  84.287  76.467  1.00  0.00     0.220 C 
ATOM      4  N   UNL     1      97.775  84.150  75.496  1.00  0.00    -0.352 N 
ATOM      5  H   UNL     1      98.385  83.354  75.614  1.00  0.00     0.163 HD
ATOM      6  O   UNL     1      96.021  85.250  76.452  1.00  0.00    -0.275 OA
BRANCH   4   7
ATOM      7  C   UNL     1      97.945  85.025  74.377  1.00  0.00     0.151 C 
BRANCH   7   8
ATOM      8  C   UNL     1      98.800  84.447  73.304  1.00  0.00    -0.025 A 
ATOM      9  C   UNL     1      99.476  82.528  71.923  1.00  0.00     0.160 A 
ATOM     10  C   UNL     1     100.395  83.347  71.230  1.00  0.00     0.157 A 
ATOM     11  C   UNL     1      98.701  83.078  72.965  1.00  0.00     0.056 A 
ATOM     12  C   UNL     1     100.530  84.702  71.585  1.00  0.00     0.050 A 
ATOM     13  C   UNL     1      99.732  85.252  72.607  1.00  0.00     0.009 A 
BRANCH   9  14
ATOM     14  O   UNL     1      99.365  81.200  71.612  1.00  0.00    -0.493 OA
ATOM     15  C   UNL     1      98.261  80.899  70.739  1.00  0.00     0.278 C 
ENDBRANCH   9  14
BRANCH  10  16
ATOM     16  O   UNL     1     101.156  82.844  70.223  1.00  0.00    -0.504 OA
ATOM     17  H   UNL     1     101.111  81.885  70.238  1.00  0.00     0.293 HD
ENDBRANCH  10  16
ENDBRANCH   7   8
ENDBRANCH   4   7
ENDBRANCH   2   3
ENDBRANCH   1   2
BRANCH   1  18
ATOM     18  C   UNL     1      98.393  82.520  79.345  1.00  0.00     0.001 C 
BRANCH  18  19
ATOM     19  C   UNL     1      97.195  82.161  80.268  1.00  0.00     0.000 C 
BRANCH  19  20
ATOM     20  C   UNL     1      96.949  83.259  81.341  1.00  0.00     0.000 C 
BRANCH  20  21
ATOM     21  C   UNL     1      97.068  82.756  82.806  1.00  0.00     0.003 C 
BRANCH  21  22
ATOM     22  C   UNL     1      96.145  83.500  83.826  1.00  0.00    -0.017 C 
ATOM     23  C   UNL     1      94.792  82.750  83.981  1.00  0.00     0.007 C 
ATOM     24  C   UNL     1      95.901  84.996  83.473  1.00  0.00     0.007 C 
ENDBRANCH  21  22
ENDBRANCH  20  21
ENDBRANCH  19  20
ENDBRANCH  18  19
ENDBRANCH   1  18
TORSDOF 11
ENDMDL
MODEL 6
REMARK VINA RESULT:    -5.619     16.852     18.939
REMARK INTER + INTRA:          -9.602
REMARK INTER:                  -9.015
REMARK INTRA:                  -0.587
REMARK UNBOUND:                -0.534
REMARK SMILES COc1cc(CNC(=O)CCCCCCC(C)C)ccc1O
REMARK SMILES IDX 11 1 10 2 8 3 7 4 9 6 6 7 5 8 3 9 21 10 4 11 20 12 19 13
REMARK SMILES IDX 2 14 1 15 22 16 12 18 13 19 14 20 15 21 16 22 17 23 18 24
REMARK H PARENT 7 5 22 17
REMARK Flexibility Score: inf
ROOT
ATOM      1  C   UNL     1      94.388 100.775  73.367  1.00  0.00     0.010 C 
ENDROOT
BRANCH   1   2
ATOM      2  C   UNL     1      94.636  99.735  74.494  1.00  0.00     0.100 C 
BRANCH   2   3
ATOM      3  C   UNL     1      94.445  98.335  74.051  1.00  0.00     0.220 C 
ATOM      4  N   UNL     1      94.311  97.334  74.969  1.00  0.00    -0.352 N 
ATOM      5  H   UNL     1      94.398  97.629  75.930  1.00  0.00     0.163 HD
ATOM      6  O   UNL     1      94.385  98.097  72.820  1.00  0.00    -0.275 OA
BRANCH   4   7
ATOM      7  C   UNL     1      94.065  95.958  74.660  1.00  0.00     0.151 C 
BRANCH   7   8
ATOM      8  C   UNL     1      93.029  95.337  75.531  1.00  0.00    -0.025 A 
ATOM      9  C   UNL     1      90.985  93.994  75.783  1.00  0.00     0.160 A 
ATOM     10  C   UNL     1      91.076  94.114  77.187  1.00  0.00     0.157 A 
ATOM     11  C   UNL     1      91.949  94.622  74.967  1.00  0.00     0.056 A 
ATOM     12  C   UNL     1      92.125  94.857  77.760  1.00  0.00     0.050 A 
ATOM     13  C   UNL     1      93.101  95.456  76.939  1.00  0.00     0.009 A 
BRANCH   9  14
ATOM     14  O   UNL     1      89.946  93.308  75.215  1.00  0.00    -0.493 OA
ATOM     15  C   UNL     1      90.324  92.027  74.678  1.00  0.00     0.278 C 
ENDBRANCH   9  14
BRANCH  10  16
ATOM     16  O   UNL     1      90.161  93.522  77.998  1.00  0.00    -0.504 OA
ATOM     17  H   UNL     1      89.292  93.891  77.822  1.00  0.00     0.293 HD
ENDBRANCH  10  16
ENDBRANCH   7   8
ENDBRANCH   4   7
ENDBRANCH   2   3
ENDBRANCH   1   2
BRANCH   1  18
ATOM     18  C   UNL     1      92.965 101.396  73.445  1.00  0.00     0.001 C 
BRANCH  18  19
ATOM     19  C   UNL     1      92.444 101.940  72.085  1.00  0.00     0.000 C 
BRANCH  19  20
ATOM     20  C   UNL     1      90.905 101.763  71.949  1.00  0.00     0.000 C 
BRANCH  20  21
ATOM     21  C   UNL     1      90.328 102.228  70.583  1.00  0.00     0.003 C 
BRANCH  21  22
ATOM     22  C   UNL     1      89.369 101.200  69.899  1.00  0.00    -0.017 C 
ATOM     23  C   UNL     1      87.890 101.661  70.036  1.00  0.00     0.007 C 
ATOM     24  C   UNL     1      89.536  99.743  70.423  1.00  0.00     0.007 C 
ENDBRANCH  21  22
ENDBRANCH  20  21
ENDBRANCH  19  20
ENDBRANCH  18  19
ENDBRANCH   1  18
TORSDOF 11
ENDMDL
MODEL 7
REMARK VINA RESULT:    -5.579      8.693     12.268
REMARK INTER + INTRA:          -9.537
REMARK INTER:                  -8.329
REMARK INTRA:                  -1.208
REMARK UNBOUND:                -0.534
REMARK SMILES COc1cc(CNC(=O)CCCCCCC(C)C)ccc1O
REMARK SMILES IDX 11 1 10 2 8 3 7 4 9 6 6 7 5 8 3 9 21 10 4 11 20 12 19 13
REMARK SMILES IDX 2 14 1 15 22 16 12 18 13 19 14 20 15 21 16 22 17 23 18 24
REMARK H PARENT 7 5 22 17
REMARK Flexibility Score: inf
ROOT
ATOM      1  C   UNL     1     100.081  85.820  74.048  1.00  0.00     0.010 C 
ENDROOT
BRANCH   1   2
ATOM      2  C   UNL     1      98.970  85.107  73.228  1.00  0.00     0.100 C 
BRANCH   2   3
ATOM      3  C   UNL     1      97.949  84.449  74.074  1.00  0.00     0.220 C 
ATOM      4  N   UNL     1      97.655  84.945  75.311  1.00  0.00    -0.352 N 
ATOM      5  H   UNL     1      98.213  85.739  75.589  1.00  0.00     0.163 HD
ATOM      6  O   UNL     1      97.347  83.446  73.620  1.00  0.00    -0.275 OA
BRANCH   4   7
ATOM      7  C   UNL     1      96.651  84.430  76.190  1.00  0.00     0.151 C 
BRANCH   7   8
ATOM      8  C   UNL     1      97.204  83.578  77.278  1.00  0.00    -0.025 A 
ATOM      9  C   UNL     1      98.833  81.906  78.054  1.00  0.00     0.160 A 
ATOM     10  C   UNL     1      98.295  81.983  79.357  1.00  0.00     0.157 A 
ATOM     11  C   UNL     1      98.273  82.688  77.022  1.00  0.00     0.056 A 
ATOM     12  C   UNL     1      97.206  82.835  79.615  1.00  0.00     0.050 A 
ATOM     13  C   UNL     1      96.670  83.635  78.587  1.00  0.00     0.009 A 
BRANCH   9  14
ATOM     14  O   UNL     1      99.867  81.051  77.783  1.00  0.00    -0.493 OA
ATOM     15  C   UNL     1     101.036  81.704  77.257  1.00  0.00     0.278 C 
ENDBRANCH   9  14
BRANCH  10  16
ATOM     16  O   UNL     1      98.813  81.240  80.370  1.00  0.00    -0.504 OA
ATOM     17  H   UNL     1      98.202  81.239  81.111  1.00  0.00     0.293 HD
ENDBRANCH  10  16
ENDBRANCH   7   8
ENDBRANCH   4   7
ENDBRANCH   2   3
ENDBRANCH   1   2
BRANCH   1  18
ATOM     18  C   UNL     1     101.038  84.810  74.741  1.00  0.00     0.001 C 
BRANCH  18  19
ATOM     19  C   UNL     1     102.467  84.780  74.130  1.00  0.00     0.000 C 
BRANCH  19  20
ATOM     20  C   UNL     1     102.521  83.906  72.845  1.00  0.00     0.000 C 
BRANCH  20  21
ATOM     21  C   UNL     1     102.703  84.716  71.531  1.00  0.00     0.003 C 
BRANCH  21  22
ATOM     22  C   UNL     1     101.433  84.772  70.621  1.00  0.00    -0.017 C 
ATOM     23  C   UNL     1     100.839  83.349  70.428  1.00  0.00     0.007 C 
ATOM     24  C   UNL     1     101.682  85.450  69.241  1.00  0.00     0.007 C 
ENDBRANCH  21  22
ENDBRANCH  20  21
ENDBRANCH  19  20
ENDBRANCH  18  19
ENDBRANCH   1  18
TORSDOF 11
ENDMDL
MODEL 8
REMARK VINA RESULT:    -5.571      6.085     11.490
REMARK INTER + INTRA:          -9.524
REMARK INTER:                  -8.985
REMARK INTRA:                  -0.539
REMARK UNBOUND:                -0.534
REMARK SMILES COc1cc(CNC(=O)CCCCCCC(C)C)ccc1O
REMARK SMILES IDX 11 1 10 2 8 3 7 4 9 6 6 7 5 8 3 9 21 10 4 11 20 12 19 13
REMARK SMILES IDX 2 14 1 15 22 16 12 18 13 19 14 20 15 21 16 22 17 23 18 24
REMARK H PARENT 7 5 22 17
REMARK Flexibility Score: inf
ROOT
ATOM      1  C   UNL     1      97.958  81.841  81.445  1.00  0.00     0.010 C 
ENDROOT
BRANCH   1   2
ATOM      2  C   UNL     1      97.701  81.583  79.935  1.00  0.00     0.100 C 
BRANCH   2   3
ATOM      3  C   UNL     1      97.525  82.826  79.150  1.00  0.00     0.220 C 
ATOM      4  N   UNL     1      97.011  82.777  77.887  1.00  0.00    -0.352 N 
ATOM      5  H   UNL     1      96.818  81.846  77.547  1.00  0.00     0.163 HD
ATOM      6  O   UNL     1      97.835  83.921  79.681  1.00  0.00    -0.275 OA
BRANCH   4   7
ATOM      7  C   UNL     1      96.743  83.914  77.060  1.00  0.00     0.151 C 
BRANCH   7   8
ATOM      8  C   UNL     1      97.604  83.972  75.847  1.00  0.00    -0.025 A 
ATOM      9  C   UNL     1      99.802  83.692  74.780  1.00  0.00     0.160 A 
ATOM     10  C   UNL     1      99.243  84.039  73.531  1.00  0.00     0.157 A 
ATOM     11  C   UNL     1      98.985  83.680  75.929  1.00  0.00     0.056 A 
ATOM     12  C   UNL     1      97.879  84.370  73.443  1.00  0.00     0.050 A 
ATOM     13  C   UNL     1      97.062  84.327  74.589  1.00  0.00     0.009 A 
BRANCH   9  14
ATOM     14  O   UNL     1     101.137  83.407  74.884  1.00  0.00    -0.493 OA
ATOM     15  C   UNL     1     101.968  84.571  75.047  1.00  0.00     0.278 C 
ENDBRANCH   9  14
BRANCH  10  16
ATOM     16  O   UNL     1     100.007  84.061  72.407  1.00  0.00    -0.504 OA
ATOM     17  H   UNL     1     100.712  83.414  72.488  1.00  0.00     0.293 HD
ENDBRANCH  10  16
ENDBRANCH   7   8
ENDBRANCH   4   7
ENDBRANCH   2   3
ENDBRANCH   1   2
BRANCH   1  18
ATOM     18  C   UNL     1      96.678  81.627  82.303  1.00  0.00     0.001 C 
BRANCH  18  19
ATOM     19  C   UNL     1      96.057  82.947  82.842  1.00  0.00     0.000 C 
BRANCH  19  20
ATOM     20  C   UNL     1      94.986  82.670  83.934  1.00  0.00     0.000 C 
BRANCH  20  21
ATOM     21  C   UNL     1      94.789  83.835  84.943  1.00  0.00     0.003 C 
BRANCH  21  22
ATOM     22  C   UNL     1      93.553  83.676  85.887  1.00  0.00    -0.017 C 
ATOM     23  C   UNL     1      92.416  82.898  85.168  1.00  0.00     0.007 C 
ATOM     24  C   UNL     1      93.019  85.026  86.451  1.00  0.00     0.007 C 
ENDBRANCH  21  22
ENDBRANCH  20  21
ENDBRANCH  19  20
ENDBRANCH  18  19
ENDBRANCH   1  18
TORSDOF 11
ENDMDL
MODEL 9
REMARK VINA RESULT:    -5.472      8.729     12.284
REMARK INTER + INTRA:          -9.364
REMARK INTER:                  -8.374
REMARK INTRA:                  -0.990
REMARK UNBOUND:                -0.534
REMARK SMILES COc1cc(CNC(=O)CCCCCCC(C)C)ccc1O
REMARK SMILES IDX 11 1 10 2 8 3 7 4 9 6 6 7 5 8 3 9 21 10 4 11 20 12 19 13
REMARK SMILES IDX 2 14 1 15 22 16 12 18 13 19 14 20 15 21 16 22 17 23 18 24
REMARK H PARENT 7 5 22 17
REMARK Flexibility Score: inf
ROOT
ATOM      1  C   UNL     1     100.254  84.981  73.822  1.00  0.00     0.010 C 
ENDROOT
BRANCH   1   2
ATOM      2  C   UNL     1      98.781  85.224  73.393  1.00  0.00     0.100 C 
BRANCH   2   3
ATOM      3  C   UNL     1      97.798  84.526  74.251  1.00  0.00     0.220 C 
ATOM      4  N   UNL     1      97.622  84.909  75.549  1.00  0.00    -0.352 N 
ATOM      5  H   UNL     1      98.235  85.650  75.856  1.00  0.00     0.163 HD
ATOM      6  O   UNL     1      97.118  83.596  73.754  1.00  0.00    -0.275 OA
BRANCH   4   7
ATOM      7  C   UNL     1      96.664  84.348  76.453  1.00  0.00     0.151 C 
BRANCH   7   8
ATOM      8  C   UNL     1      97.279  83.482  77.496  1.00  0.00    -0.025 A 
ATOM      9  C   UNL     1      98.931  81.781  78.149  1.00  0.00     0.160 A 
ATOM     10  C   UNL     1      98.486  81.859  79.487  1.00  0.00     0.157 A 
ATOM     11  C   UNL     1      98.313  82.578  77.162  1.00  0.00     0.056 A 
ATOM     12  C   UNL     1      97.431  82.726  79.824  1.00  0.00     0.050 A 
ATOM     13  C   UNL     1      96.838  83.540  78.839  1.00  0.00     0.009 A 
BRANCH   9  14
ATOM     14  O   UNL     1      99.929  80.911  77.802  1.00  0.00    -0.493 OA
ATOM     15  C   UNL     1     101.237  81.512  77.773  1.00  0.00     0.278 C 
ENDBRANCH   9  14
BRANCH  10  16
ATOM     16  O   UNL     1      99.062  81.102  80.457  1.00  0.00    -0.504 OA
ATOM     17  H   UNL     1     100.013  81.091  80.331  1.00  0.00     0.293 HD
ENDBRANCH  10  16
ENDBRANCH   7   8
ENDBRANCH   4   7
ENDBRANCH   2   3
ENDBRANCH   1   2
BRANCH   1  18
ATOM     18  C   UNL     1     101.181  84.696  72.606  1.00  0.00     0.001 C 
BRANCH  18  19
ATOM     19  C   UNL     1     100.442  84.077  71.387  1.00  0.00     0.000 C 
BRANCH  19  20
ATOM     20  C   UNL     1     100.458  82.523  71.438  1.00  0.00     0.000 C 
BRANCH  20  21
ATOM     21  C   UNL     1      99.048  81.874  71.520  1.00  0.00     0.003 C 
BRANCH  21  22
ATOM     22  C   UNL     1      98.857  80.616  70.610  1.00  0.00    -0.017 C 
ATOM     23  C   UNL     1     100.120  79.712  70.661  1.00  0.00     0.007 C 
ATOM     24  C   UNL     1      98.492  80.961  69.136  1.00  0.00     0.007 C 
ENDBRANCH  21  22
ENDBRANCH  20  21
ENDBRANCH  19  20
ENDBRANCH  18  19
ENDBRANCH   1  18
TORSDOF 11
ENDMDL
MODEL 10
REMARK VINA RESULT:    -5.372     22.586     27.215
REMARK INTER + INTRA:          -9.203
REMARK INTER:                  -8.483
REMARK INTRA:                  -0.719
REMARK UNBOUND:                -0.534
REMARK SMILES COc1cc(CNC(=O)CCCCCCC(C)C)ccc1O
REMARK SMILES IDX 11 1 10 2 8 3 7 4 9 6 6 7 5 8 3 9 21 10 4 11 20 12 19 13
REMARK SMILES IDX 2 14 1 15 22 16 12 18 13 19 14 20 15 21 16 22 17 23 18 24
REMARK H PARENT 7 5 22 17
REMARK Flexibility Score: inf
ROOT
ATOM      1  C   UNL     1      68.686  85.788  70.232  1.00  0.00     0.010 C 
ENDROOT
BRANCH   1   2
ATOM      2  C   UNL     1      69.679  84.610  70.438  1.00  0.00     0.100 C 
BRANCH   2   3
ATOM      3  C   UNL     1      70.508  84.330  69.244  1.00  0.00     0.220 C 
ATOM      4  N   UNL     1      71.555  85.145  68.924  1.00  0.00    -0.352 N 
ATOM      5  H   UNL     1      71.667  85.944  69.531  1.00  0.00     0.163 HD
ATOM      6  O   UNL     1      70.243  83.316  68.552  1.00  0.00    -0.275 OA
BRANCH   4   7
ATOM      7  C   UNL     1      72.457  84.941  67.832  1.00  0.00     0.151 C 
BRANCH   7   8
ATOM      8  C   UNL     1      73.803  85.534  68.065  1.00  0.00    -0.025 A 
ATOM      9  C   UNL     1      76.254  85.357  67.967  1.00  0.00     0.160 A 
ATOM     10  C   UNL     1      76.371  86.673  68.463  1.00  0.00     0.157 A 
ATOM     11  C   UNL     1      74.974  84.791  67.790  1.00  0.00     0.056 A 
ATOM     12  C   UNL     1      75.214  87.409  68.778  1.00  0.00     0.050 A 
ATOM     13  C   UNL     1      73.938  86.848  68.571  1.00  0.00     0.009 A 
BRANCH   9  14
ATOM     14  O   UNL     1      77.374  84.619  67.695  1.00  0.00    -0.493 OA
ATOM     15  C   UNL     1      77.429  84.126  66.344  1.00  0.00     0.278 C 
ENDBRANCH   9  14
BRANCH  10  16
ATOM     16  O   UNL     1      77.591  87.243  68.646  1.00  0.00    -0.504 OA
ATOM     17  H   UNL     1      77.963  86.942  69.479  1.00  0.00     0.293 HD
ENDBRANCH  10  16
ENDBRANCH   7   8
ENDBRANCH   4   7
ENDBRANCH   2   3
ENDBRANCH   1   2
BRANCH   1  18
ATOM     18  C   UNL     1      67.658  85.498  69.102  1.00  0.00     0.001 C 
BRANCH  18  19
ATOM     19  C   UNL     1      66.180  85.502  69.584  1.00  0.00     0.000 C 
BRANCH  19  20
ATOM     20  C   UNL     1      65.702  84.076  69.977  1.00  0.00     0.000 C 
BRANCH  20  21
ATOM     21  C   UNL     1      66.142  82.962  68.988  1.00  0.00     0.003 C 
BRANCH  21  22
ATOM     22  C   UNL     1      65.276  81.660  69.048  1.00  0.00    -0.017 C 
ATOM     23  C   UNL     1      64.767  81.280  67.629  1.00  0.00     0.007 C 
ATOM     24  C   UNL     1      64.087  81.746  70.049  1.00  0.00     0.007 C 
ENDBRANCH  21  22
ENDBRANCH  20  21
ENDBRANCH  19  20
ENDBRANCH  18  19
ENDBRANCH   1  18
TORSDOF 11
ENDMDL
