MODEL 1
REMARK VINA RESULT:    -5.182      0.000      0.000
REMARK INTER + INTRA:         -10.762
REMARK INTER:                  -8.515
REMARK INTRA:                  -2.247
REMARK UNBOUND:                -2.247
REMARK SMILES CCCCC[C@H](O)CC(=O)CCc1ccc(O)c(OC)c1
REMARK SMILES IDX 8 1 6 2 7 3 5 5 4 6 3 7 2 8 1 9 9 10 10 11 11 12 12 13 13 14
REMARK SMILES IDX 21 15 14 16 18 17 15 18 16 19 19 20 20 21 17 22
REMARK H PARENT 7 4 17 23
REMARK Flexibility Score: inf
ROOT
ATOM      1  C   UNL     1      76.239  81.388  63.796  1.00  0.00     0.107 C 
ENDROOT
BRANCH   1   2
ATOM      2  C   UNL     1      76.066  82.644  62.938  1.00  0.00     0.121 C 
BRANCH   2   3
ATOM      3  O   UNL     1      74.747  83.159  63.095  1.00  0.00    -0.393 OA
ATOM      4  H   UNL     1      74.210  82.474  63.530  1.00  0.00     0.210 HD
ENDBRANCH   2   3
BRANCH   2   5
ATOM      5  C   UNL     1      77.081  83.744  63.272  1.00  0.00     0.032 C 
BRANCH   5   6
ATOM      6  C   UNL     1      76.514  85.147  63.023  1.00  0.00     0.003 C 
BRANCH   6   7
ATOM      7  C   UNL     1      76.939  86.169  64.082  1.00  0.00    -0.000 C 
BRANCH   7   8
ATOM      8  C   UNL     1      75.800  86.610  64.999  1.00  0.00    -0.003 C 
ATOM      9  C   UNL     1      76.283  87.604  66.044  1.00  0.00     0.004 C 
ENDBRANCH   7   8
ENDBRANCH   6   7
ENDBRANCH   5   6
ENDBRANCH   2   5
ENDBRANCH   1   2
BRANCH   1  10
ATOM     10  C   UNL     1      75.013  81.065  64.633  1.00  0.00     0.135 C 
ATOM     11  O   UNL     1      74.021  80.541  64.127  1.00  0.00    -0.300 OA
BRANCH  10  12
ATOM     12  C   UNL     1      75.099  81.381  66.119  1.00  0.00     0.080 C 
BRANCH  12  13
ATOM     13  C   UNL     1      74.721  82.823  66.464  1.00  0.00     0.043 C 
BRANCH  13  14
ATOM     14  C   UNL     1      75.835  83.578  67.150  1.00  0.00    -0.044 A 
ATOM     15  C   UNL     1      75.534  84.550  68.105  1.00  0.00     0.054 A 
ATOM     16  C   UNL     1      77.164  83.304  66.828  1.00  0.00     0.008 A 
ATOM     17  C   UNL     1      76.563  85.246  68.738  1.00  0.00     0.160 A 
ATOM     18  C   UNL     1      78.194  84.001  67.461  1.00  0.00     0.050 A 
ATOM     19  C   UNL     1      77.893  84.972  68.416  1.00  0.00     0.157 A 
BRANCH  17  20
ATOM     20  O   UNL     1      76.257  86.193  69.669  1.00  0.00    -0.493 OA
ATOM     21  C   UNL     1      75.184  85.901  70.562  1.00  0.00     0.278 C 
ENDBRANCH  17  20
BRANCH  19  22
ATOM     22  O   UNL     1      78.906  85.645  69.028  1.00  0.00    -0.504 OA
ATOM     23  H   UNL     1      78.729  86.600  68.976  1.00  0.00     0.293 HD
ENDBRANCH  19  22
ENDBRANCH  13  14
ENDBRANCH  12  13
ENDBRANCH  10  12
ENDBRANCH   1  10
TORSDOF 12
ENDMDL
MODEL 2
REMARK VINA RESULT:    -4.890      2.311      6.322
REMARK INTER + INTRA:         -10.282
REMARK INTER:                  -9.269
REMARK INTRA:                  -1.013
REMARK UNBOUND:                -2.247
REMARK SMILES CCCCC[C@H](O)CC(=O)CCc1ccc(O)c(OC)c1
REMARK SMILES IDX 8 1 6 2 7 3 5 5 4 6 3 7 2 8 1 9 9 10 10 11 11 12 12 13 13 14
REMARK SMILES IDX 21 15 14 16 18 17 15 18 16 19 19 20 20 21 17 22
REMARK H PARENT 7 4 17 23
REMARK Flexibility Score: inf
ROOT
ATOM      1  C   UNL     1      77.035  84.048  68.919  1.00  0.00     0.107 C 
ENDROOT
BRANCH   1   2
ATOM      2  C   UNL     1      77.429  85.458  69.366  1.00  0.00     0.121 C 
BRANCH   2   3
ATOM      3  O   UNL     1      78.838  85.630  69.236  1.00  0.00    -0.393 OA
ATOM      4  H   UNL     1      78.992  86.347  68.597  1.00  0.00     0.210 HD
ENDBRANCH   2   3
BRANCH   2   5
ATOM      5  C   UNL     1      76.711  86.560  68.577  1.00  0.00     0.032 C 
BRANCH   5   6
ATOM      6  C   UNL     1      76.360  87.765  69.458  1.00  0.00     0.003 C 
BRANCH   6   7
ATOM      7  C   UNL     1      75.267  87.465  70.489  1.00  0.00    -0.000 C 
BRANCH   7   8
ATOM      8  C   UNL     1      74.637  88.718  71.094  1.00  0.00    -0.003 C 
ATOM      9  C   UNL     1      75.431  89.965  70.740  1.00  0.00     0.004 C 
ENDBRANCH   7   8
ENDBRANCH   6   7
ENDBRANCH   5   6
ENDBRANCH   2   5
ENDBRANCH   1   2
BRANCH   1  10
ATOM     10  C   UNL     1      77.598  83.675  67.558  1.00  0.00     0.135 C 
ATOM     11  O   UNL     1      78.803  83.478  67.404  1.00  0.00    -0.300 OA
BRANCH  10  12
ATOM     12  C   UNL     1      76.595  83.515  66.425  1.00  0.00     0.080 C 
BRANCH  12  13
ATOM     13  C   UNL     1      75.145  83.404  66.899  1.00  0.00     0.043 C 
BRANCH  13  14
ATOM     14  C   UNL     1      74.320  82.455  66.062  1.00  0.00    -0.044 A 
ATOM     15  C   UNL     1      72.950  82.671  65.908  1.00  0.00     0.054 A 
ATOM     16  C   UNL     1      74.928  81.364  65.442  1.00  0.00     0.008 A 
ATOM     17  C   UNL     1      72.190  81.795  65.134  1.00  0.00     0.160 A 
ATOM     18  C   UNL     1      74.168  80.487  64.668  1.00  0.00     0.050 A 
ATOM     19  C   UNL     1      72.798  80.703  64.514  1.00  0.00     0.157 A 
BRANCH  17  20
ATOM     20  O   UNL     1      70.853  82.015  64.992  1.00  0.00    -0.493 OA
ATOM     21  C   UNL     1      70.456  82.995  64.034  1.00  0.00     0.278 C 
ENDBRANCH  17  20
BRANCH  19  22
ATOM     22  O   UNL     1      72.066  79.841  63.756  1.00  0.00    -0.504 OA
ATOM     23  H   UNL     1      71.267  80.297  63.439  1.00  0.00     0.293 HD
ENDBRANCH  19  22
ENDBRANCH  13  14
ENDBRANCH  12  13
ENDBRANCH  10  12
ENDBRANCH   1  10
TORSDOF 12
ENDMDL
MODEL 3
REMARK VINA RESULT:    -4.685     19.604     22.932
REMARK INTER + INTRA:          -9.946
REMARK INTER:                  -9.129
REMARK INTRA:                  -0.816
REMARK UNBOUND:                -2.247
REMARK SMILES CCCCC[C@H](O)CC(=O)CCc1ccc(O)c(OC)c1
REMARK SMILES IDX 8 1 6 2 7 3 5 5 4 6 3 7 2 8 1 9 9 10 10 11 11 12 12 13 13 14
REMARK SMILES IDX 21 15 14 16 18 17 15 18 16 19 19 20 20 21 17 22
REMARK H PARENT 7 4 17 23
REMARK Flexibility Score: inf
ROOT
ATOM      1  C   UNL     1      92.758  99.700  74.237  1.00  0.00     0.107 C 
ENDROOT
BRANCH   1   2
ATOM      2  C   UNL     1      93.800  98.632  74.575  1.00  0.00     0.121 C 
BRANCH   2   3
ATOM      3  O   UNL     1      95.105  99.113  74.261  1.00  0.00    -0.393 OA
ATOM      4  H   UNL     1      95.350  99.770  74.936  1.00  0.00     0.210 HD
ENDBRANCH   2   3
BRANCH   2   5
ATOM      5  C   UNL     1      93.762  98.200  76.046  1.00  0.00     0.032 C 
BRANCH   5   6
ATOM      6  C   UNL     1      93.088  96.834  76.229  1.00  0.00     0.003 C 
BRANCH   6   7
ATOM      7  C   UNL     1      93.381  96.190  77.587  1.00  0.00    -0.000 C 
BRANCH   7   8
ATOM      8  C   UNL     1      92.146  95.597  78.263  1.00  0.00    -0.003 C 
ATOM      9  C   UNL     1      90.865  96.108  77.623  1.00  0.00     0.004 C 
ENDBRANCH   7   8
ENDBRANCH   6   7
ENDBRANCH   5   6
ENDBRANCH   2   5
ENDBRANCH   1   2
BRANCH   1  10
ATOM     10  C   UNL     1      93.052 100.429  72.936  1.00  0.00     0.135 C 
ATOM     11  O   UNL     1      93.971 101.243  72.861  1.00  0.00    -0.300 OA
BRANCH  10  12
ATOM     12  C   UNL     1      92.186 100.064  71.740  1.00  0.00     0.080 C 
BRANCH  12  13
ATOM     13  C   UNL     1      90.795  99.554  72.120  1.00  0.00     0.043 C 
BRANCH  13  14
ATOM     14  C   UNL     1      90.035  98.978  70.949  1.00  0.00    -0.044 A 
ATOM     15  C   UNL     1      89.392  99.827  70.049  1.00  0.00     0.054 A 
ATOM     16  C   UNL     1      89.976  97.596  70.768  1.00  0.00     0.008 A 
ATOM     17  C   UNL     1      88.691  99.294  68.967  1.00  0.00     0.160 A 
ATOM     18  C   UNL     1      89.276  97.063  69.686  1.00  0.00     0.050 A 
ATOM     19  C   UNL     1      88.632  97.912  68.786  1.00  0.00     0.157 A 
BRANCH  17  20
ATOM     20  O   UNL     1      88.066 100.134  68.095  1.00  0.00    -0.493 OA
ATOM     21  C   UNL     1      88.828 101.229  67.591  1.00  0.00     0.278 C 
ENDBRANCH  17  20
BRANCH  19  22
ATOM     22  O   UNL     1      87.951  97.380  67.733  1.00  0.00    -0.504 OA
ATOM     23  H   UNL     1      87.400  96.645  68.052  1.00  0.00     0.293 HD
ENDBRANCH  19  22
ENDBRANCH  13  14
ENDBRANCH  12  13
ENDBRANCH  10  12
ENDBRANCH   1  10
TORSDOF 12
ENDMDL
MODEL 4
REMARK VINA RESULT:    -4.558     24.219     27.188
REMARK INTER + INTRA:          -9.735
REMARK INTER:                  -7.735
REMARK INTRA:                  -2.000
REMARK UNBOUND:                -2.247
REMARK SMILES CCCCC[C@H](O)CC(=O)CCc1ccc(O)c(OC)c1
REMARK SMILES IDX 8 1 6 2 7 3 5 5 4 6 3 7 2 8 1 9 9 10 10 11 11 12 12 13 13 14
REMARK SMILES IDX 21 15 14 16 18 17 15 18 16 19 19 20 20 21 17 22
REMARK H PARENT 7 4 17 23
REMARK Flexibility Score: inf
ROOT
ATOM      1  C   UNL     1      98.360  82.281  79.313  1.00  0.00     0.107 C 
ENDROOT
BRANCH   1   2
ATOM      2  C   UNL     1      99.546  82.966  79.995  1.00  0.00     0.121 C 
BRANCH   2   3
ATOM      3  O   UNL     1      99.117  83.587  81.204  1.00  0.00    -0.393 OA
ATOM      4  H   UNL     1      99.909  83.797  81.729  1.00  0.00     0.210 HD
ENDBRANCH   2   3
BRANCH   2   5
ATOM      5  C   UNL     1     100.699  82.003  80.305  1.00  0.00     0.032 C 
BRANCH   5   6
ATOM      6  C   UNL     1     101.231  81.316  79.041  1.00  0.00     0.003 C 
BRANCH   6   7
ATOM      7  C   UNL     1     102.205  82.187  78.241  1.00  0.00    -0.000 C 
BRANCH   7   8
ATOM      8  C   UNL     1     103.647  81.684  78.276  1.00  0.00    -0.003 C 
ATOM      9  C   UNL     1     104.243  81.613  76.879  1.00  0.00     0.004 C 
ENDBRANCH   7   8
ENDBRANCH   6   7
ENDBRANCH   5   6
ENDBRANCH   2   5
ENDBRANCH   1   2
BRANCH   1  10
ATOM     10  C   UNL     1      97.352  83.265  78.741  1.00  0.00     0.135 C 
ATOM     11  O   UNL     1      96.618  83.920  79.480  1.00  0.00    -0.300 OA
BRANCH  10  12
ATOM     12  C   UNL     1      97.337  83.423  77.228  1.00  0.00     0.080 C 
BRANCH  12  13
ATOM     13  C   UNL     1      98.483  84.280  76.688  1.00  0.00     0.043 C 
BRANCH  13  14
ATOM     14  C   UNL     1      99.511  83.481  75.923  1.00  0.00    -0.044 A 
ATOM     15  C   UNL     1     100.623  84.119  75.374  1.00  0.00     0.054 A 
ATOM     16  C   UNL     1      99.347  82.105  75.765  1.00  0.00     0.008 A 
ATOM     17  C   UNL     1     101.573  83.380  74.669  1.00  0.00     0.160 A 
ATOM     18  C   UNL     1     100.297  81.365  75.060  1.00  0.00     0.050 A 
ATOM     19  C   UNL     1     101.409  82.003  74.511  1.00  0.00     0.157 A 
BRANCH  17  20
ATOM     20  O   UNL     1     102.655  84.013  74.137  1.00  0.00    -0.493 OA
ATOM     21  C   UNL     1     102.499  84.585  72.839  1.00  0.00     0.278 C 
ENDBRANCH  17  20
BRANCH  19  22
ATOM     22  O   UNL     1     102.329  81.271  73.824  1.00  0.00    -0.504 OA
ATOM     23  H   UNL     1     103.221  81.571  74.071  1.00  0.00     0.293 HD
ENDBRANCH  19  22
ENDBRANCH  13  14
ENDBRANCH  12  13
ENDBRANCH  10  12
ENDBRANCH   1  10
TORSDOF 12
ENDMDL
MODEL 5
REMARK VINA RESULT:    -4.516      2.376      5.650
REMARK INTER + INTRA:          -9.668
REMARK INTER:                  -7.896
REMARK INTRA:                  -1.772
REMARK UNBOUND:                -2.247
REMARK SMILES CCCCC[C@H](O)CC(=O)CCc1ccc(O)c(OC)c1
REMARK SMILES IDX 8 1 6 2 7 3 5 5 4 6 3 7 2 8 1 9 9 10 10 11 11 12 12 13 13 14
REMARK SMILES IDX 21 15 14 16 18 17 15 18 16 19 19 20 20 21 17 22
REMARK H PARENT 7 4 17 23
REMARK Flexibility Score: inf
ROOT
ATOM      1  C   UNL     1      74.579  89.599  68.465  1.00  0.00     0.107 C 
ENDROOT
BRANCH   1   2
ATOM      2  C   UNL     1      74.108  88.485  67.528  1.00  0.00     0.121 C 
BRANCH   2   3
ATOM      3  O   UNL     1      72.770  88.741  67.107  1.00  0.00    -0.393 OA
ATOM      4  H   UNL     1      72.474  89.561  67.539  1.00  0.00     0.210 HD
ENDBRANCH   2   3
BRANCH   2   5
ATOM      5  C   UNL     1      75.003  88.320  66.294  1.00  0.00     0.032 C 
BRANCH   5   6
ATOM      6  C   UNL     1      76.480  88.155  66.671  1.00  0.00     0.003 C 
BRANCH   6   7
ATOM      7  C   UNL     1      77.181  87.032  65.898  1.00  0.00    -0.000 C 
BRANCH   7   8
ATOM      8  C   UNL     1      76.727  86.913  64.445  1.00  0.00    -0.003 C 
ATOM      9  C   UNL     1      76.965  85.512  63.902  1.00  0.00     0.004 C 
ENDBRANCH   7   8
ENDBRANCH   6   7
ENDBRANCH   5   6
ENDBRANCH   2   5
ENDBRANCH   1   2
BRANCH   1  10
ATOM     10  C   UNL     1      74.522  89.208  69.933  1.00  0.00     0.135 C 
ATOM     11  O   UNL     1      73.609  89.603  70.658  1.00  0.00    -0.300 OA
BRANCH  10  12
ATOM     12  C   UNL     1      75.615  88.276  70.433  1.00  0.00     0.080 C 
BRANCH  12  13
ATOM     13  C   UNL     1      75.213  86.800  70.432  1.00  0.00     0.043 C 
BRANCH  13  14
ATOM     14  C   UNL     1      76.150  85.933  69.625  1.00  0.00    -0.044 A 
ATOM     15  C   UNL     1      75.637  84.926  68.807  1.00  0.00     0.054 A 
ATOM     16  C   UNL     1      77.528  86.138  69.699  1.00  0.00     0.008 A 
ATOM     17  C   UNL     1      76.503  84.126  68.061  1.00  0.00     0.160 A 
ATOM     18  C   UNL     1      78.394  85.338  68.953  1.00  0.00     0.050 A 
ATOM     19  C   UNL     1      77.881  84.332  68.135  1.00  0.00     0.157 A 
BRANCH  17  20
ATOM     20  O   UNL     1      75.991  83.146  67.265  1.00  0.00    -0.493 OA
ATOM     21  C   UNL     1      74.718  83.392  66.671  1.00  0.00     0.278 C 
ENDBRANCH  17  20
BRANCH  19  22
ATOM     22  O   UNL     1      78.737  83.557  67.412  1.00  0.00    -0.504 OA
ATOM     23  H   UNL     1      78.221  82.917  66.891  1.00  0.00     0.293 HD
ENDBRANCH  19  22
ENDBRANCH  13  14
ENDBRANCH  12  13
ENDBRANCH  10  12
ENDBRANCH   1  10
TORSDOF 12
ENDMDL
MODEL 6
REMARK VINA RESULT:    -4.508     24.463     27.861
REMARK INTER + INTRA:          -9.655
REMARK INTER:                  -8.952
REMARK INTRA:                  -0.702
REMARK UNBOUND:                -2.247
REMARK SMILES CCCCC[C@H](O)CC(=O)CCc1ccc(O)c(OC)c1
REMARK SMILES IDX 8 1 6 2 7 3 5 5 4 6 3 7 2 8 1 9 9 10 10 11 11 12 12 13 13 14
REMARK SMILES IDX 21 15 14 16 18 17 15 18 16 19 19 20 20 21 17 22
REMARK H PARENT 7 4 17 23
REMARK Flexibility Score: inf
ROOT
ATOM      1  C   UNL     1      92.815  85.327  90.409  1.00  0.00     0.107 C 
ENDROOT
BRANCH   1   2
ATOM      2  C   UNL     1      91.983  86.584  90.676  1.00  0.00     0.121 C 
BRANCH   2   3
ATOM      3  O   UNL     1      90.656  86.215  91.046  1.00  0.00    -0.393 OA
ATOM      4  H   UNL     1      90.360  86.829  91.741  1.00  0.00     0.210 HD
ENDBRANCH   2   3
BRANCH   2   5
ATOM      5  C   UNL     1      92.581  87.478  91.769  1.00  0.00     0.032 C 
BRANCH   5   6
ATOM      6  C   UNL     1      93.357  88.664  91.182  1.00  0.00     0.003 C 
BRANCH   6   7
ATOM      7  C   UNL     1      92.578  89.982  91.232  1.00  0.00    -0.000 C 
BRANCH   7   8
ATOM      8  C   UNL     1      93.150  91.066  90.320  1.00  0.00    -0.003 C 
ATOM      9  C   UNL     1      94.464  90.626  89.693  1.00  0.00     0.004 C 
ENDBRANCH   7   8
ENDBRANCH   6   7
ENDBRANCH   5   6
ENDBRANCH   2   5
ENDBRANCH   1   2
BRANCH   1  10
ATOM     10  C   UNL     1      93.498  85.343  89.051  1.00  0.00     0.135 C 
ATOM     11  O   UNL     1      94.439  86.104  88.825  1.00  0.00    -0.300 OA
BRANCH  10  12
ATOM     12  C   UNL     1      92.990  84.347  88.020  1.00  0.00     0.080 C 
BRANCH  12  13
ATOM     13  C   UNL     1      91.713  83.620  88.445  1.00  0.00     0.043 C 
BRANCH  13  14
ATOM     14  C   UNL     1      91.305  82.529  87.483  1.00  0.00    -0.044 A 
ATOM     15  C   UNL     1      89.967  82.384  87.119  1.00  0.00     0.054 A 
ATOM     16  C   UNL     1      92.269  81.666  86.960  1.00  0.00     0.008 A 
ATOM     17  C   UNL     1      89.592  81.376  86.231  1.00  0.00     0.160 A 
ATOM     18  C   UNL     1      91.894  80.658  86.071  1.00  0.00     0.050 A 
ATOM     19  C   UNL     1      90.555  80.513  85.707  1.00  0.00     0.157 A 
BRANCH  17  20
ATOM     20  O   UNL     1      88.281  81.243  85.883  1.00  0.00    -0.493 OA
ATOM     21  C   UNL     1      87.624  82.404  85.377  1.00  0.00     0.278 C 
ENDBRANCH  17  20
BRANCH  19  22
ATOM     22  O   UNL     1      90.201  79.526  84.838  1.00  0.00    -0.504 OA
ATOM     23  H   UNL     1      90.615  78.692  85.120  1.00  0.00     0.293 HD
ENDBRANCH  19  22
ENDBRANCH  13  14
ENDBRANCH  12  13
ENDBRANCH  10  12
ENDBRANCH   1  10
TORSDOF 12
ENDMDL
MODEL 7
REMARK VINA RESULT:    -4.488      1.562      5.165
REMARK INTER + INTRA:          -9.621
REMARK INTER:                  -7.169
REMARK INTRA:                  -2.452
REMARK UNBOUND:                -2.247
REMARK SMILES CCCCC[C@H](O)CC(=O)CCc1ccc(O)c(OC)c1
REMARK SMILES IDX 8 1 6 2 7 3 5 5 4 6 3 7 2 8 1 9 9 10 10 11 11 12 12 13 13 14
REMARK SMILES IDX 21 15 14 16 18 17 15 18 16 19 19 20 20 21 17 22
REMARK H PARENT 7 4 17 23
REMARK Flexibility Score: inf
ROOT
ATOM      1  C   UNL     1      76.066  86.241  67.799  1.00  0.00     0.107 C 
ENDROOT
BRANCH   1   2
ATOM      2  C   UNL     1      75.373  87.321  66.965  1.00  0.00     0.121 C 
BRANCH   2   3
ATOM      3  O   UNL     1      75.923  88.599  67.278  1.00  0.00    -0.393 OA
ATOM      4  H   UNL     1      75.417  89.269  66.785  1.00  0.00     0.210 HD
ENDBRANCH   2   3
BRANCH   2   5
ATOM      5  C   UNL     1      75.486  87.079  65.455  1.00  0.00     0.032 C 
BRANCH   5   6
ATOM      6  C   UNL     1      74.847  85.749  65.035  1.00  0.00     0.003 C 
BRANCH   6   7
ATOM      7  C   UNL     1      75.439  85.173  63.745  1.00  0.00    -0.000 C 
BRANCH   7   8
ATOM      8  C   UNL     1      76.918  85.499  63.550  1.00  0.00    -0.003 C 
ATOM      9  C   UNL     1      77.686  84.296  63.023  1.00  0.00     0.004 C 
ENDBRANCH   7   8
ENDBRANCH   6   7
ENDBRANCH   5   6
ENDBRANCH   2   5
ENDBRANCH   1   2
BRANCH   1  10
ATOM     10  C   UNL     1      77.544  86.096  67.478  1.00  0.00     0.135 C 
ATOM     11  O   UNL     1      78.322  87.036  67.643  1.00  0.00    -0.300 OA
BRANCH  10  12
ATOM     12  C   UNL     1      78.006  84.731  66.991  1.00  0.00     0.080 C 
BRANCH  12  13
ATOM     13  C   UNL     1      77.277  83.562  67.656  1.00  0.00     0.043 C 
BRANCH  13  14
ATOM     14  C   UNL     1      76.438  82.761  66.688  1.00  0.00    -0.044 A 
ATOM     15  C   UNL     1      75.053  82.708  66.843  1.00  0.00     0.054 A 
ATOM     16  C   UNL     1      77.050  82.074  65.639  1.00  0.00     0.008 A 
ATOM     17  C   UNL     1      74.280  81.968  65.948  1.00  0.00     0.160 A 
ATOM     18  C   UNL     1      76.277  81.335  64.744  1.00  0.00     0.050 A 
ATOM     19  C   UNL     1      74.892  81.281  64.899  1.00  0.00     0.157 A 
BRANCH  17  20
ATOM     20  O   UNL     1      72.928  81.923  66.109  1.00  0.00    -0.493 OA
ATOM     21  C   UNL     1      72.255  83.167  66.293  1.00  0.00     0.278 C 
ENDBRANCH  17  20
BRANCH  19  22
ATOM     22  O   UNL     1      74.148  80.556  64.019  1.00  0.00    -0.504 OA
ATOM     23  H   UNL     1      74.227  80.953  63.134  1.00  0.00     0.293 HD
ENDBRANCH  19  22
ENDBRANCH  13  14
ENDBRANCH  12  13
ENDBRANCH  10  12
ENDBRANCH   1  10
TORSDOF 12
ENDMDL
MODEL 8
REMARK VINA RESULT:    -4.472      2.757      4.090
REMARK INTER + INTRA:          -9.594
REMARK INTER:                  -8.563
REMARK INTRA:                  -1.031
REMARK UNBOUND:                -2.247
REMARK SMILES CCCCC[C@H](O)CC(=O)CCc1ccc(O)c(OC)c1
REMARK SMILES IDX 8 1 6 2 7 3 5 5 4 6 3 7 2 8 1 9 9 10 10 11 11 12 12 13 13 14
REMARK SMILES IDX 21 15 14 16 18 17 15 18 16 19 19 20 20 21 17 22
REMARK H PARENT 7 4 17 23
REMARK Flexibility Score: inf
ROOT
ATOM      1  C   UNL     1      74.664  80.961  64.332  1.00  0.00     0.107 C 
ENDROOT
BRANCH   1   2
ATOM      2  C   UNL     1      73.134  80.917  64.344  1.00  0.00     0.121 C 
BRANCH   2   3
ATOM      3  O   UNL     1      72.680  80.182  65.478  1.00  0.00    -0.393 OA
ATOM      4  H   UNL     1      73.437  80.063  66.077  1.00  0.00     0.210 HD
ENDBRANCH   2   3
BRANCH   2   5
ATOM      5  C   UNL     1      72.494  82.311  64.357  1.00  0.00     0.032 C 
BRANCH   5   6
ATOM      6  C   UNL     1      71.471  82.465  65.489  1.00  0.00     0.003 C 
BRANCH   6   7
ATOM      7  C   UNL     1      70.122  83.018  65.017  1.00  0.00    -0.000 C 
BRANCH   7   8
ATOM      8  C   UNL     1      69.697  82.504  63.643  1.00  0.00    -0.003 C 
ATOM      9  C   UNL     1      68.360  83.092  63.220  1.00  0.00     0.004 C 
ENDBRANCH   7   8
ENDBRANCH   6   7
ENDBRANCH   5   6
ENDBRANCH   2   5
ENDBRANCH   1   2
BRANCH   1  10
ATOM     10  C   UNL     1      75.251  81.611  65.574  1.00  0.00     0.135 C 
ATOM     11  O   UNL     1      74.908  81.249  66.700  1.00  0.00    -0.300 OA
BRANCH  10  12
ATOM     12  C   UNL     1      76.303  82.686  65.349  1.00  0.00     0.080 C 
BRANCH  12  13
ATOM     13  C   UNL     1      77.398  82.708  66.418  1.00  0.00     0.043 C 
BRANCH  13  14
ATOM     14  C   UNL     1      77.310  83.909  67.330  1.00  0.00    -0.044 A 
ATOM     15  C   UNL     1      76.457  83.885  68.434  1.00  0.00     0.054 A 
ATOM     16  C   UNL     1      78.081  85.041  67.068  1.00  0.00     0.008 A 
ATOM     17  C   UNL     1      76.378  84.994  69.276  1.00  0.00     0.160 A 
ATOM     18  C   UNL     1      78.002  86.150  67.910  1.00  0.00     0.050 A 
ATOM     19  C   UNL     1      77.150  86.127  69.014  1.00  0.00     0.157 A 
BRANCH  17  20
ATOM     20  O   UNL     1      75.542  84.960  70.351  1.00  0.00    -0.493 OA
ATOM     21  C   UNL     1      75.897  84.085  71.421  1.00  0.00     0.278 C 
ENDBRANCH  17  20
BRANCH  19  22
ATOM     22  O   UNL     1      77.080  87.215  69.830  1.00  0.00    -0.504 OA
ATOM     23  H   UNL     1      76.384  87.811  69.504  1.00  0.00     0.293 HD
ENDBRANCH  19  22
ENDBRANCH  13  14
ENDBRANCH  12  13
ENDBRANCH  10  12
ENDBRANCH   1  10
TORSDOF 12
ENDMDL
MODEL 9
REMARK VINA RESULT:    -4.360     20.826     23.774
REMARK INTER + INTRA:          -9.411
REMARK INTER:                  -8.553
REMARK INTRA:                  -0.858
REMARK UNBOUND:                -2.247
REMARK SMILES CCCCC[C@H](O)CC(=O)CCc1ccc(O)c(OC)c1
REMARK SMILES IDX 8 1 6 2 7 3 5 5 4 6 3 7 2 8 1 9 9 10 10 11 11 12 12 13 13 14
REMARK SMILES IDX 21 15 14 16 18 17 15 18 16 19 19 20 20 21 17 22
REMARK H PARENT 7 4 17 23
REMARK Flexibility Score: inf
ROOT
ATOM      1  C   UNL     1      93.388 100.058  74.986  1.00  0.00     0.107 C 
ENDROOT
BRANCH   1   2
ATOM      2  C   UNL     1      93.028 100.474  73.558  1.00  0.00     0.121 C 
BRANCH   2   3
ATOM      3  O   UNL     1      94.137 100.245  72.693  1.00  0.00    -0.393 OA
ATOM      4  H   UNL     1      94.941 100.542  73.155  1.00  0.00     0.210 HD
ENDBRANCH   2   3
BRANCH   2   5
ATOM      5  C   UNL     1      91.800  99.737  73.010  1.00  0.00     0.032 C 
BRANCH   5   6
ATOM      6  C   UNL     1      91.531 100.078  71.540  1.00  0.00     0.003 C 
BRANCH   6   7
ATOM      7  C   UNL     1      90.623  99.063  70.837  1.00  0.00    -0.000 C 
BRANCH   7   8
ATOM      8  C   UNL     1      89.223  99.596  70.542  1.00  0.00    -0.003 C 
ATOM      9  C   UNL     1      88.648  98.975  69.278  1.00  0.00     0.004 C 
ENDBRANCH   7   8
ENDBRANCH   6   7
ENDBRANCH   5   6
ENDBRANCH   2   5
ENDBRANCH   1   2
BRANCH   1  10
ATOM     10  C   UNL     1      94.588  99.126  75.050  1.00  0.00     0.135 C 
ATOM     11  O   UNL     1      95.734  99.563  74.952  1.00  0.00    -0.300 OA
BRANCH  10  12
ATOM     12  C   UNL     1      94.295  97.653  75.286  1.00  0.00     0.080 C 
BRANCH  12  13
ATOM     13  C   UNL     1      92.861  97.376  75.743  1.00  0.00     0.043 C 
BRANCH  13  14
ATOM     14  C   UNL     1      92.782  96.369  76.866  1.00  0.00    -0.044 A 
ATOM     15  C   UNL     1      93.883  96.163  77.697  1.00  0.00     0.054 A 
ATOM     16  C   UNL     1      91.607  95.646  77.072  1.00  0.00     0.008 A 
ATOM     17  C   UNL     1      93.809  95.233  78.735  1.00  0.00     0.160 A 
ATOM     18  C   UNL     1      91.533  94.716  78.109  1.00  0.00     0.050 A 
ATOM     19  C   UNL     1      92.634  94.510  78.940  1.00  0.00     0.157 A 
BRANCH  17  20
ATOM     20  O   UNL     1      94.891  95.040  79.540  1.00  0.00    -0.493 OA
ATOM     21  C   UNL     1      95.730  93.926  79.241  1.00  0.00     0.278 C 
ENDBRANCH  17  20
BRANCH  19  22
ATOM     22  O   UNL     1      92.549  93.599  79.950  1.00  0.00    -0.504 OA
ATOM     23  H   UNL     1      93.446  93.387  80.261  1.00  0.00     0.293 HD
ENDBRANCH  19  22
ENDBRANCH  13  14
ENDBRANCH  12  13
ENDBRANCH  10  12
ENDBRANCH   1  10
TORSDOF 12
ENDMDL
MODEL 10
REMARK VINA RESULT:    -4.263      2.279      4.294
REMARK INTER + INTRA:          -9.252
REMARK INTER:                  -8.186
REMARK INTRA:                  -1.066
REMARK UNBOUND:                -2.247
REMARK SMILES CCCCC[C@H](O)CC(=O)CCc1ccc(O)c(OC)c1
REMARK SMILES IDX 8 1 6 2 7 3 5 5 4 6 3 7 2 8 1 9 9 10 10 11 11 12 12 13 13 14
REMARK SMILES IDX 21 15 14 16 18 17 15 18 16 19 19 20 20 21 17 22
REMARK H PARENT 7 4 17 23
REMARK Flexibility Score: inf
ROOT
ATOM      1  C   UNL     1      75.818  82.961  65.393  1.00  0.00     0.107 C 
ENDROOT
BRANCH   1   2
ATOM      2  C   UNL     1      75.501  81.483  65.150  1.00  0.00     0.121 C 
BRANCH   2   3
ATOM      3  O   UNL     1      74.914  80.916  66.318  1.00  0.00    -0.393 OA
ATOM      4  H   UNL     1      74.454  80.100  66.054  1.00  0.00     0.210 HD
ENDBRANCH   2   3
BRANCH   2   5
ATOM      5  C   UNL     1      74.565  81.259  63.955  1.00  0.00     0.032 C 
BRANCH   5   6
ATOM      6  C   UNL     1      73.260  80.567  64.368  1.00  0.00     0.003 C 
BRANCH   6   7
ATOM      7  C   UNL     1      72.006  81.359  63.982  1.00  0.00    -0.000 C 
BRANCH   7   8
ATOM      8  C   UNL     1      71.720  82.541  64.906  1.00  0.00    -0.003 C 
ATOM      9  C   UNL     1      71.573  82.091  66.352  1.00  0.00     0.004 C 
ENDBRANCH   7   8
ENDBRANCH   6   7
ENDBRANCH   5   6
ENDBRANCH   2   5
ENDBRANCH   1   2
BRANCH   1  10
ATOM     10  C   UNL     1      77.192  83.183  66.003  1.00  0.00     0.135 C 
ATOM     11  O   UNL     1      77.914  82.231  66.300  1.00  0.00    -0.300 OA
BRANCH  10  12
ATOM     12  C   UNL     1      77.635  84.627  66.181  1.00  0.00     0.080 C 
BRANCH  12  13
ATOM     13  C   UNL     1      78.245  84.919  67.553  1.00  0.00     0.043 C 
BRANCH  13  14
ATOM     14  C   UNL     1      77.274  85.577  68.504  1.00  0.00    -0.044 A 
ATOM     15  C   UNL     1      77.016  86.944  68.403  1.00  0.00     0.054 A 
ATOM     16  C   UNL     1      76.635  84.817  69.484  1.00  0.00     0.008 A 
ATOM     17  C   UNL     1      76.118  87.551  69.282  1.00  0.00     0.160 A 
ATOM     18  C   UNL     1      75.737  85.423  70.363  1.00  0.00     0.050 A 
ATOM     19  C   UNL     1      75.479  86.790  70.262  1.00  0.00     0.157 A 
BRANCH  17  20
ATOM     20  O   UNL     1      75.874  88.887  69.174  1.00  0.00    -0.493 OA
ATOM     21  C   UNL     1      75.008  89.304  68.120  1.00  0.00     0.278 C 
ENDBRANCH  17  20
BRANCH  19  22
ATOM     22  O   UNL     1      74.601  87.371  71.126  1.00  0.00    -0.504 OA
ATOM     23  H   UNL     1      74.428  88.283  70.836  1.00  0.00     0.293 HD
ENDBRANCH  19  22
ENDBRANCH  13  14
ENDBRANCH  12  13
ENDBRANCH  10  12
ENDBRANCH   1  10
TORSDOF 12
ENDMDL
