MODEL 1
REMARK VINA RESULT:    -6.032      0.000      0.000
REMARK INTER + INTRA:         -10.081
REMARK INTER:                  -9.383
REMARK INTRA:                  -0.698
REMARK UNBOUND:                -0.698
REMARK SMILES COc1cc(CNC(=O)CCCC/C=C/C(C)C)ccc1O
REMARK SMILES IDX 10 1 8 2 7 3 9 5 6 6 5 7 3 8 21 9 4 10 20 11 19 12 2 13 1 14
REMARK SMILES IDX 22 15 11 17 12 18 13 19 14 20 15 21 16 22 17 23 18 24
REMARK H PARENT 7 4 22 16
REMARK Flexibility Score: inf
ROOT
ATOM      1  C   UNL     1      96.596  82.746  85.117  1.00  0.00     0.100 C 
ENDROOT
BRANCH   1   2
ATOM      2  C   UNL     1      95.764  82.234  86.222  1.00  0.00     0.220 C 
ATOM      3  N   UNL     1      94.567  82.817  86.514  1.00  0.00    -0.352 N 
ATOM      4  H   UNL     1      94.330  83.614  85.940  1.00  0.00     0.163 HD
ATOM      5  O   UNL     1      96.179  81.239  86.864  1.00  0.00    -0.275 OA
BRANCH   3   6
ATOM      6  C   UNL     1      93.675  82.379  87.540  1.00  0.00     0.151 C 
BRANCH   6   7
ATOM      7  C   UNL     1      92.383  81.905  86.974  1.00  0.00    -0.025 A 
ATOM      8  C   UNL     1      91.106  80.242  85.683  1.00  0.00     0.160 A 
ATOM      9  C   UNL     1      89.923  80.977  85.905  1.00  0.00     0.157 A 
ATOM     10  C   UNL     1      92.324  80.714  86.217  1.00  0.00     0.056 A 
ATOM     11  C   UNL     1      89.970  82.177  86.642  1.00  0.00     0.050 A 
ATOM     12  C   UNL     1      91.188  82.634  87.181  1.00  0.00     0.009 A 
BRANCH   8  13
ATOM     13  O   UNL     1      91.077  79.109  84.911  1.00  0.00    -0.493 OA
ATOM     14  C   UNL     1      91.896  78.036  85.411  1.00  0.00     0.278 C 
ENDBRANCH   8  13
BRANCH   9  15
ATOM     15  O   UNL     1      88.732  80.544  85.416  1.00  0.00    -0.504 OA
ATOM     16  H   UNL     1      88.239  81.290  85.066  1.00  0.00     0.293 HD
ENDBRANCH   9  15
ENDBRANCH   6   7
ENDBRANCH   3   6
ENDBRANCH   1   2
BRANCH   1  17
ATOM     17  C   UNL     1      97.797  81.807  84.821  1.00  0.00     0.010 C 
BRANCH  17  18
ATOM     18  C   UNL     1      98.481  82.111  83.459  1.00  0.00     0.005 C 
BRANCH  18  19
ATOM     19  C   UNL     1      97.897  83.376  82.773  1.00  0.00     0.027 C 
BRANCH  19  20
ATOM     20  C   UNL     1      97.767  83.207  81.334  1.00  0.00    -0.031 C 
ATOM     21  C   UNL     1      98.805  83.187  80.478  1.00  0.00    -0.028 C 
BRANCH  21  22
ATOM     22  C   UNL     1      98.652  82.997  79.036  1.00  0.00     0.005 C 
ATOM     23  C   UNL     1      98.471  81.501  78.655  1.00  0.00     0.012 C 
ATOM     24  C   UNL     1      97.470  83.849  78.505  1.00  0.00     0.012 C 
ENDBRANCH  21  22
ENDBRANCH  19  20
ENDBRANCH  18  19
ENDBRANCH  17  18
ENDBRANCH   1  17
TORSDOF 10
ENDMDL
MODEL 2
REMARK VINA RESULT:    -5.926     25.557     27.807
REMARK INTER + INTRA:          -9.915
REMARK INTER:                  -9.098
REMARK INTRA:                  -0.817
REMARK UNBOUND:                -0.698
REMARK SMILES COc1cc(CNC(=O)CCCC/C=C/C(C)C)ccc1O
REMARK SMILES IDX 10 1 8 2 7 3 9 5 6 6 5 7 3 8 21 9 4 10 20 11 19 12 2 13 1 14
REMARK SMILES IDX 22 15 11 17 12 18 13 19 14 20 15 21 16 22 17 23 18 24
REMARK H PARENT 7 4 22 16
REMARK Flexibility Score: inf
ROOT
ATOM      1  C   UNL     1      75.646  81.261  65.882  1.00  0.00     0.100 C 
ENDROOT
BRANCH   1   2
ATOM      2  C   UNL     1      74.473  81.281  64.988  1.00  0.00     0.220 C 
ATOM      3  N   UNL     1      73.370  82.014  65.311  1.00  0.00    -0.352 N 
ATOM      4  H   UNL     1      73.425  82.501  66.195  1.00  0.00     0.163 HD
ATOM      5  O   UNL     1      74.531  80.626  63.920  1.00  0.00    -0.275 OA
BRANCH   3   6
ATOM      6  C   UNL     1      72.199  82.125  64.501  1.00  0.00     0.151 C 
BRANCH   6   7
ATOM      7  C   UNL     1      71.003  82.473  65.315  1.00  0.00    -0.025 A 
ATOM      8  C   UNL     1      69.941  82.779  67.516  1.00  0.00     0.160 A 
ATOM      9  C   UNL     1      68.737  83.152  66.883  1.00  0.00     0.157 A 
ATOM     10  C   UNL     1      71.060  82.441  66.727  1.00  0.00     0.056 A 
ATOM     11  C   UNL     1      68.659  83.170  65.477  1.00  0.00     0.050 A 
ATOM     12  C   UNL     1      69.785  82.843  64.698  1.00  0.00     0.009 A 
BRANCH   8  13
ATOM     13  O   UNL     1      70.003  82.696  68.883  1.00  0.00    -0.493 OA
ATOM     14  C   UNL     1      70.573  83.856  69.516  1.00  0.00     0.278 C 
ENDBRANCH   8  13
BRANCH   9  15
ATOM     15  O   UNL     1      67.645  83.496  67.613  1.00  0.00    -0.504 OA
ATOM     16  H   UNL     1      67.908  84.078  68.330  1.00  0.00     0.293 HD
ENDBRANCH   9  15
ENDBRANCH   6   7
ENDBRANCH   3   6
ENDBRANCH   1   2
BRANCH   1  17
ATOM     17  C   UNL     1      75.890  82.647  66.539  1.00  0.00     0.010 C 
BRANCH  17  18
ATOM     18  C   UNL     1      77.001  83.468  65.825  1.00  0.00     0.005 C 
BRANCH  18  19
ATOM     19  C   UNL     1      78.282  83.605  66.692  1.00  0.00     0.027 C 
BRANCH  19  20
ATOM     20  C   UNL     1      77.987  84.091  68.031  1.00  0.00    -0.031 C 
ATOM     21  C   UNL     1      78.166  85.364  68.429  1.00  0.00    -0.028 C 
BRANCH  21  22
ATOM     22  C   UNL     1      77.845  85.836  69.776  1.00  0.00     0.005 C 
ATOM     23  C   UNL     1      77.022  87.154  69.758  1.00  0.00     0.012 C 
ATOM     24  C   UNL     1      77.100  84.730  70.568  1.00  0.00     0.012 C 
ENDBRANCH  21  22
ENDBRANCH  19  20
ENDBRANCH  18  19
ENDBRANCH  17  18
ENDBRANCH   1  17
TORSDOF 10
ENDMDL
MODEL 3
REMARK VINA RESULT:    -5.895     30.048     32.545
REMARK INTER + INTRA:          -9.866
REMARK INTER:                  -8.137
REMARK INTRA:                  -1.729
REMARK UNBOUND:                -0.698
REMARK SMILES COc1cc(CNC(=O)CCCC/C=C/C(C)C)ccc1O
REMARK SMILES IDX 10 1 8 2 7 3 9 5 6 6 5 7 3 8 21 9 4 10 20 11 19 12 2 13 1 14
REMARK SMILES IDX 22 15 11 17 12 18 13 19 14 20 15 21 16 22 17 23 18 24
REMARK H PARENT 7 4 22 16
REMARK Flexibility Score: inf
ROOT
ATOM      1  C   UNL     1      67.792  84.014  70.922  1.00  0.00     0.100 C 
ENDROOT
BRANCH   1   2
ATOM      2  C   UNL     1      66.458  83.456  70.628  1.00  0.00     0.220 C 
ATOM      3  N   UNL     1      66.057  82.285  71.198  1.00  0.00    -0.352 N 
ATOM      4  H   UNL     1      66.743  81.844  71.796  1.00  0.00     0.163 HD
ATOM      5  O   UNL     1      65.702  84.100  69.861  1.00  0.00    -0.275 OA
BRANCH   3   6
ATOM      6  C   UNL     1      64.778  81.679  71.004  1.00  0.00     0.151 C 
BRANCH   6   7
ATOM      7  C   UNL     1      63.840  82.019  72.108  1.00  0.00    -0.025 A 
ATOM      8  C   UNL     1      62.121  83.503  73.060  1.00  0.00     0.160 A 
ATOM      9  C   UNL     1      62.030  82.671  74.195  1.00  0.00     0.157 A 
ATOM     10  C   UNL     1      63.025  83.171  72.029  1.00  0.00     0.056 A 
ATOM     11  C   UNL     1      62.849  81.529  74.296  1.00  0.00     0.050 A 
ATOM     12  C   UNL     1      63.741  81.199  73.257  1.00  0.00     0.009 A 
BRANCH   8  13
ATOM     13  O   UNL     1      61.373  84.650  72.986  1.00  0.00    -0.493 OA
ATOM     14  C   UNL     1      60.160  84.513  72.223  1.00  0.00     0.278 C 
ENDBRANCH   8  13
BRANCH   9  15
ATOM     15  O   UNL     1      61.160  82.955  75.198  1.00  0.00    -0.504 OA
ATOM     16  H   UNL     1      61.469  82.554  76.014  1.00  0.00     0.293 HD
ENDBRANCH   9  15
ENDBRANCH   6   7
ENDBRANCH   3   6
ENDBRANCH   1   2
BRANCH   1  17
ATOM     17  C   UNL     1      67.696  85.308  71.774  1.00  0.00     0.010 C 
BRANCH  17  18
ATOM     18  C   UNL     1      67.355  85.027  73.265  1.00  0.00     0.005 C 
BRANCH  18  19
ATOM     19  C   UNL     1      65.883  85.379  73.610  1.00  0.00     0.027 C 
BRANCH  19  20
ATOM     20  C   UNL     1      65.383  84.599  74.732  1.00  0.00    -0.031 C 
ATOM     21  C   UNL     1      66.000  84.508  75.924  1.00  0.00    -0.028 C 
BRANCH  21  22
ATOM     22  C   UNL     1      65.468  83.733  77.046  1.00  0.00     0.005 C 
ATOM     23  C   UNL     1      66.057  84.190  78.409  1.00  0.00     0.012 C 
ATOM     24  C   UNL     1      63.919  83.805  77.060  1.00  0.00     0.012 C 
ENDBRANCH  21  22
ENDBRANCH  19  20
ENDBRANCH  18  19
ENDBRANCH  17  18
ENDBRANCH   1  17
TORSDOF 10
ENDMDL
MODEL 4
REMARK VINA RESULT:    -5.874     24.929     27.240
REMARK INTER + INTRA:          -9.834
REMARK INTER:                  -7.408
REMARK INTRA:                  -2.426
REMARK UNBOUND:                -0.698
REMARK SMILES COc1cc(CNC(=O)CCCC/C=C/C(C)C)ccc1O
REMARK SMILES IDX 10 1 8 2 7 3 9 5 6 6 5 7 3 8 21 9 4 10 20 11 19 12 2 13 1 14
REMARK SMILES IDX 22 15 11 17 12 18 13 19 14 20 15 21 16 22 17 23 18 24
REMARK H PARENT 7 4 22 16
REMARK Flexibility Score: inf
ROOT
ATOM      1  C   UNL     1      72.355  81.197  65.047  1.00  0.00     0.100 C 
ENDROOT
BRANCH   1   2
ATOM      2  C   UNL     1      73.830  81.189  65.007  1.00  0.00     0.220 C 
ATOM      3  N   UNL     1      74.553  81.513  66.115  1.00  0.00    -0.352 N 
ATOM      4  H   UNL     1      74.004  81.771  66.923  1.00  0.00     0.163 HD
ATOM      5  O   UNL     1      74.391  80.854  63.936  1.00  0.00    -0.275 OA
BRANCH   3   6
ATOM      6  C   UNL     1      75.979  81.505  66.189  1.00  0.00     0.151 C 
BRANCH   6   7
ATOM      7  C   UNL     1      76.503  82.766  66.781  1.00  0.00    -0.025 A 
ATOM      8  C   UNL     1      76.172  84.748  68.204  1.00  0.00     0.160 A 
ATOM      9  C   UNL     1      77.492  85.163  67.934  1.00  0.00     0.157 A 
ATOM     10  C   UNL     1      75.689  83.556  67.624  1.00  0.00     0.056 A 
ATOM     11  C   UNL     1      78.309  84.396  67.080  1.00  0.00     0.050 A 
ATOM     12  C   UNL     1      77.822  83.201  66.515  1.00  0.00     0.009 A 
BRANCH   8  13
ATOM     13  O   UNL     1      75.352  85.525  68.982  1.00  0.00    -0.493 OA
ATOM     14  C   UNL     1      75.325  85.145  70.370  1.00  0.00     0.278 C 
ENDBRANCH   8  13
BRANCH   9  15
ATOM     15  O   UNL     1      77.992  86.298  68.487  1.00  0.00    -0.504 OA
ATOM     16  H   UNL     1      78.932  86.190  68.647  1.00  0.00     0.293 HD
ENDBRANCH   9  15
ENDBRANCH   6   7
ENDBRANCH   3   6
ENDBRANCH   1   2
BRANCH   1  17
ATOM     17  C   UNL     1      71.804  82.547  65.578  1.00  0.00     0.010 C 
BRANCH  17  18
ATOM     18  C   UNL     1      72.200  83.756  64.683  1.00  0.00     0.005 C 
BRANCH  18  19
ATOM     19  C   UNL     1      72.912  84.877  65.487  1.00  0.00     0.027 C 
BRANCH  19  20
ATOM     20  C   UNL     1      74.178  85.265  64.883  1.00  0.00    -0.031 C 
ATOM     21  C   UNL     1      74.813  84.550  63.936  1.00  0.00    -0.028 C 
BRANCH  21  22
ATOM     22  C   UNL     1      76.076  84.969  63.328  1.00  0.00     0.005 C 
ATOM     23  C   UNL     1      76.814  86.040  64.179  1.00  0.00     0.012 C 
ATOM     24  C   UNL     1      76.985  83.738  63.079  1.00  0.00     0.012 C 
ENDBRANCH  21  22
ENDBRANCH  19  20
ENDBRANCH  18  19
ENDBRANCH  17  18
ENDBRANCH   1  17
TORSDOF 10
ENDMDL
MODEL 5
REMARK VINA RESULT:    -5.819     24.856     27.198
REMARK INTER + INTRA:          -9.748
REMARK INTER:                  -8.753
REMARK INTRA:                  -0.995
REMARK UNBOUND:                -0.698
REMARK SMILES COc1cc(CNC(=O)CCCC/C=C/C(C)C)ccc1O
REMARK SMILES IDX 10 1 8 2 7 3 9 5 6 6 5 7 3 8 21 9 4 10 20 11 19 12 2 13 1 14
REMARK SMILES IDX 22 15 11 17 12 18 13 19 14 20 15 21 16 22 17 23 18 24
REMARK H PARENT 7 4 22 16
REMARK Flexibility Score: inf
ROOT
ATOM      1  C   UNL     1      75.715  81.768  64.265  1.00  0.00     0.100 C 
ENDROOT
BRANCH   1   2
ATOM      2  C   UNL     1      74.332  81.316  64.510  1.00  0.00     0.220 C 
ATOM      3  N   UNL     1      73.576  81.900  65.481  1.00  0.00    -0.352 N 
ATOM      4  H   UNL     1      74.044  82.623  66.009  1.00  0.00     0.163 HD
ATOM      5  O   UNL     1      73.871  80.401  63.785  1.00  0.00    -0.275 OA
BRANCH   3   6
ATOM      6  C   UNL     1      72.221  81.558  65.775  1.00  0.00     0.151 C 
BRANCH   6   7
ATOM      7  C   UNL     1      71.598  82.542  66.702  1.00  0.00    -0.025 A 
ATOM      8  C   UNL     1      71.665  84.715  67.859  1.00  0.00     0.160 A 
ATOM      9  C   UNL     1      70.416  84.437  68.453  1.00  0.00     0.157 A 
ATOM     10  C   UNL     1      72.244  83.765  66.992  1.00  0.00     0.056 A 
ATOM     11  C   UNL     1      69.769  83.214  68.189  1.00  0.00     0.050 A 
ATOM     12  C   UNL     1      70.350  82.277  67.313  1.00  0.00     0.009 A 
BRANCH   8  13
ATOM     13  O   UNL     1      72.329  85.875  68.164  1.00  0.00    -0.493 OA
ATOM     14  C   UNL     1      73.371  85.715  69.143  1.00  0.00     0.278 C 
ENDBRANCH   8  13
BRANCH   9  15
ATOM     15  O   UNL     1      69.825  85.336  69.282  1.00  0.00    -0.504 OA
ATOM     16  H   UNL     1      69.998  86.226  68.967  1.00  0.00     0.293 HD
ENDBRANCH   9  15
ENDBRANCH   6   7
ENDBRANCH   3   6
ENDBRANCH   1   2
BRANCH   1  17
ATOM     17  C   UNL     1      76.518  81.898  65.587  1.00  0.00     0.010 C 
BRANCH  17  18
ATOM     18  C   UNL     1      76.790  83.376  65.986  1.00  0.00     0.005 C 
BRANCH  18  19
ATOM     19  C   UNL     1      78.143  83.547  66.728  1.00  0.00     0.027 C 
BRANCH  19  20
ATOM     20  C   UNL     1      78.021  84.402  67.899  1.00  0.00    -0.031 C 
ATOM     21  C   UNL     1      77.375  84.052  69.027  1.00  0.00    -0.028 C 
BRANCH  21  22
ATOM     22  C   UNL     1      77.281  84.920  70.200  1.00  0.00     0.005 C 
ATOM     23  C   UNL     1      77.038  86.406  69.816  1.00  0.00     0.012 C 
ATOM     24  C   UNL     1      76.174  84.408  71.158  1.00  0.00     0.012 C 
ENDBRANCH  21  22
ENDBRANCH  19  20
ENDBRANCH  18  19
ENDBRANCH  17  18
ENDBRANCH   1  17
TORSDOF 10
ENDMDL
MODEL 6
REMARK VINA RESULT:    -5.778     18.511     21.602
REMARK INTER + INTRA:          -9.684
REMARK INTER:                  -9.021
REMARK INTRA:                  -0.664
REMARK UNBOUND:                -0.698
REMARK SMILES COc1cc(CNC(=O)CCCC/C=C/C(C)C)ccc1O
REMARK SMILES IDX 10 1 8 2 7 3 9 5 6 6 5 7 3 8 21 9 4 10 20 11 19 12 2 13 1 14
REMARK SMILES IDX 22 15 11 17 12 18 13 19 14 20 15 21 16 22 17 23 18 24
REMARK H PARENT 7 4 22 16
REMARK Flexibility Score: inf
ROOT
ATOM      1  C   UNL     1      93.606  99.377  74.493  1.00  0.00     0.100 C 
ENDROOT
BRANCH   1   2
ATOM      2  C   UNL     1      92.963 100.282  73.520  1.00  0.00     0.220 C 
ATOM      3  N   UNL     1      91.875  99.872  72.809  1.00  0.00    -0.352 N 
ATOM      4  H   UNL     1      91.581  98.922  72.988  1.00  0.00     0.163 HD
ATOM      5  O   UNL     1      93.432 101.438  73.387  1.00  0.00    -0.275 OA
BRANCH   3   6
ATOM      6  C   UNL     1      91.164 100.680  71.870  1.00  0.00     0.151 C 
BRANCH   6   7
ATOM      7  C   UNL     1      90.287  99.855  70.995  1.00  0.00    -0.025 A 
ATOM      8  C   UNL     1      88.846  99.655  69.008  1.00  0.00     0.160 A 
ATOM      9  C   UNL     1      88.627  98.293  69.303  1.00  0.00     0.157 A 
ATOM     10  C   UNL     1      89.671 100.423  69.857  1.00  0.00     0.056 A 
ATOM     11  C   UNL     1      89.219  97.718  70.446  1.00  0.00     0.050 A 
ATOM     12  C   UNL     1      90.051  98.490  71.280  1.00  0.00     0.009 A 
BRANCH   8  13
ATOM     13  O   UNL     1      88.219 100.235  67.935  1.00  0.00    -0.493 OA
ATOM     14  C   UNL     1      88.499 101.638  67.780  1.00  0.00     0.278 C 
ENDBRANCH   8  13
BRANCH   9  15
ATOM     15  O   UNL     1      87.850  97.522  68.500  1.00  0.00    -0.504 OA
ATOM     16  H   UNL     1      88.396  97.102  67.832  1.00  0.00     0.293 HD
ENDBRANCH   9  15
ENDBRANCH   6   7
ENDBRANCH   3   6
ENDBRANCH   1   2
BRANCH   1  17
ATOM     17  C   UNL     1      94.574 100.143  75.434  1.00  0.00     0.010 C 
BRANCH  17  18
ATOM     18  C   UNL     1      95.732  99.251  75.966  1.00  0.00     0.005 C 
BRANCH  18  19
ATOM     19  C   UNL     1      95.689  97.815  75.378  1.00  0.00     0.027 C 
BRANCH  19  20
ATOM     20  C   UNL     1      95.137  96.854  76.322  1.00  0.00    -0.031 C 
ATOM     21  C   UNL     1      94.237  95.908  75.998  1.00  0.00    -0.028 C 
BRANCH  21  22
ATOM     22  C   UNL     1      93.710  94.939  76.959  1.00  0.00     0.005 C 
ATOM     23  C   UNL     1      94.097  95.291  78.422  1.00  0.00     0.012 C 
ATOM     24  C   UNL     1      92.172  94.816  76.808  1.00  0.00     0.012 C 
ENDBRANCH  21  22
ENDBRANCH  19  20
ENDBRANCH  18  19
ENDBRANCH  17  18
ENDBRANCH   1  17
TORSDOF 10
ENDMDL
MODEL 7
REMARK VINA RESULT:    -5.774      4.541      6.285
REMARK INTER + INTRA:          -9.679
REMARK INTER:                  -8.524
REMARK INTRA:                  -1.155
REMARK UNBOUND:                -0.698
REMARK SMILES COc1cc(CNC(=O)CCCC/C=C/C(C)C)ccc1O
REMARK SMILES IDX 10 1 8 2 7 3 9 5 6 6 5 7 3 8 21 9 4 10 20 11 19 12 2 13 1 14
REMARK SMILES IDX 22 15 11 17 12 18 13 19 14 20 15 21 16 22 17 23 18 24
REMARK H PARENT 7 4 22 16
REMARK Flexibility Score: inf
ROOT
ATOM      1  C   UNL     1     101.639  82.059  81.429  1.00  0.00     0.100 C 
ENDROOT
BRANCH   1   2
ATOM      2  C   UNL     1     100.176  82.027  81.615  1.00  0.00     0.220 C 
ATOM      3  N   UNL     1      99.519  83.111  82.116  1.00  0.00    -0.352 N 
ATOM      4  H   UNL     1     100.111  83.894  82.359  1.00  0.00     0.163 HD
ATOM      5  O   UNL     1      99.558  80.988  81.279  1.00  0.00    -0.275 OA
BRANCH   3   6
ATOM      6  C   UNL     1      98.106  83.193  82.304  1.00  0.00     0.151 C 
BRANCH   6   7
ATOM      7  C   UNL     1      97.730  82.969  83.726  1.00  0.00    -0.025 A 
ATOM      8  C   UNL     1      97.052  83.868  85.916  1.00  0.00     0.160 A 
ATOM      9  C   UNL     1      96.992  82.558  86.436  1.00  0.00     0.157 A 
ATOM     10  C   UNL     1      97.422  84.061  84.569  1.00  0.00     0.056 A 
ATOM     11  C   UNL     1      97.315  81.461  85.614  1.00  0.00     0.050 A 
ATOM     12  C   UNL     1      97.672  81.663  84.266  1.00  0.00     0.009 A 
BRANCH   8  13
ATOM     13  O   UNL     1      96.802  84.943  86.730  1.00  0.00    -0.493 OA
ATOM     14  C   UNL     1      95.759  85.812  86.252  1.00  0.00     0.278 C 
ENDBRANCH   8  13
BRANCH   9  15
ATOM     15  O   UNL     1      96.627  82.337  87.725  1.00  0.00    -0.504 OA
ATOM     16  H   UNL     1      96.470  83.177  88.163  1.00  0.00     0.293 HD
ENDBRANCH   9  15
ENDBRANCH   6   7
ENDBRANCH   3   6
ENDBRANCH   1   2
BRANCH   1  17
ATOM     17  C   UNL     1     102.090  81.121  80.278  1.00  0.00     0.010 C 
BRANCH  17  18
ATOM     18  C   UNL     1     102.026  81.802  78.882  1.00  0.00     0.005 C 
BRANCH  18  19
ATOM     19  C   UNL     1     101.033  81.091  77.923  1.00  0.00     0.027 C 
BRANCH  19  20
ATOM     20  C   UNL     1      99.779  81.820  77.795  1.00  0.00    -0.031 C 
ATOM     21  C   UNL     1      99.608  83.101  78.167  1.00  0.00    -0.028 C 
BRANCH  21  22
ATOM     22  C   UNL     1      98.344  83.820  78.011  1.00  0.00     0.005 C 
ATOM     23  C   UNL     1      97.845  83.820  76.539  1.00  0.00     0.012 C 
ATOM     24  C   UNL     1      97.270  83.229  78.960  1.00  0.00     0.012 C 
ENDBRANCH  21  22
ENDBRANCH  19  20
ENDBRANCH  18  19
ENDBRANCH  17  18
ENDBRANCH   1  17
TORSDOF 10
ENDMDL
MODEL 8
REMARK VINA RESULT:    -5.767      2.234      3.010
REMARK INTER + INTRA:          -9.667
REMARK INTER:                  -8.998
REMARK INTRA:                  -0.669
REMARK UNBOUND:                -0.698
REMARK SMILES COc1cc(CNC(=O)CCCC/C=C/C(C)C)ccc1O
REMARK SMILES IDX 10 1 8 2 7 3 9 5 6 6 5 7 3 8 21 9 4 10 20 11 19 12 2 13 1 14
REMARK SMILES IDX 22 15 11 17 12 18 13 19 14 20 15 21 16 22 17 23 18 24
REMARK H PARENT 7 4 22 16
REMARK Flexibility Score: inf
ROOT
ATOM      1  C   UNL     1      96.902  85.572  85.506  1.00  0.00     0.100 C 
ENDROOT
BRANCH   1   2
ATOM      2  C   UNL     1      95.827  85.828  86.483  1.00  0.00     0.220 C 
ATOM      3  N   UNL     1      94.857  84.897  86.704  1.00  0.00    -0.352 N 
ATOM      4  H   UNL     1      94.931  84.063  86.138  1.00  0.00     0.163 HD
ATOM      5  O   UNL     1      95.848  86.911  87.117  1.00  0.00    -0.275 OA
BRANCH   3   6
ATOM      6  C   UNL     1      93.795  85.034  87.648  1.00  0.00     0.151 C 
BRANCH   6   7
ATOM      7  C   UNL     1      93.149  83.725  87.937  1.00  0.00    -0.025 A 
ATOM      8  C   UNL     1      91.144  82.295  87.940  1.00  0.00     0.160 A 
ATOM      9  C   UNL     1      91.904  81.229  88.464  1.00  0.00     0.157 A 
ATOM     10  C   UNL     1      91.772  83.532  87.684  1.00  0.00     0.056 A 
ATOM     11  C   UNL     1      93.273  81.413  88.740  1.00  0.00     0.050 A 
ATOM     12  C   UNL     1      93.894  82.648  88.470  1.00  0.00     0.009 A 
BRANCH   8  13
ATOM     13  O   UNL     1      89.797  82.142  87.731  1.00  0.00    -0.493 OA
ATOM     14  C   UNL     1      89.440  81.897  86.358  1.00  0.00     0.278 C 
ENDBRANCH   8  13
BRANCH   9  15
ATOM     15  O   UNL     1      91.333  80.022  88.710  1.00  0.00    -0.504 OA
ATOM     16  H   UNL     1      92.011  79.393  88.968  1.00  0.00     0.293 HD
ENDBRANCH   9  15
ENDBRANCH   6   7
ENDBRANCH   3   6
ENDBRANCH   1   2
BRANCH   1  17
ATOM     17  C   UNL     1      97.045  84.058  85.195  1.00  0.00     0.010 C 
BRANCH  17  18
ATOM     18  C   UNL     1      97.305  83.771  83.689  1.00  0.00     0.005 C 
BRANCH  18  19
ATOM     19  C   UNL     1      98.391  82.683  83.473  1.00  0.00     0.027 C 
BRANCH  19  20
ATOM     20  C   UNL     1      98.668  82.457  82.063  1.00  0.00    -0.031 C 
ATOM     21  C   UNL     1      98.377  83.336  81.086  1.00  0.00    -0.028 C 
BRANCH  21  22
ATOM     22  C   UNL     1      98.683  83.096  79.675  1.00  0.00     0.005 C 
ATOM     23  C   UNL     1      99.292  81.687  79.435  1.00  0.00     0.012 C 
ATOM     24  C   UNL     1      97.413  83.305  78.809  1.00  0.00     0.012 C 
ENDBRANCH  21  22
ENDBRANCH  19  20
ENDBRANCH  18  19
ENDBRANCH  17  18
ENDBRANCH   1  17
TORSDOF 10
ENDMDL
MODEL 9
REMARK VINA RESULT:    -5.541      5.441      6.785
REMARK INTER + INTRA:          -9.316
REMARK INTER:                  -8.335
REMARK INTRA:                  -0.980
REMARK UNBOUND:                -0.698
REMARK SMILES COc1cc(CNC(=O)CCCC/C=C/C(C)C)ccc1O
REMARK SMILES IDX 10 1 8 2 7 3 9 5 6 6 5 7 3 8 21 9 4 10 20 11 19 12 2 13 1 14
REMARK SMILES IDX 22 15 11 17 12 18 13 19 14 20 15 21 16 22 17 23 18 24
REMARK H PARENT 7 4 22 16
REMARK Flexibility Score: inf
ROOT
ATOM      1  C   UNL     1     101.737  81.857  81.317  1.00  0.00     0.100 C 
ENDROOT
BRANCH   1   2
ATOM      2  C   UNL     1     100.332  81.681  81.732  1.00  0.00     0.220 C 
ATOM      3  N   UNL     1      99.692  82.655  82.438  1.00  0.00    -0.352 N 
ATOM      4  H   UNL     1     100.258  83.462  82.661  1.00  0.00     0.163 HD
ATOM      5  O   UNL     1      99.742  80.626  81.395  1.00  0.00    -0.275 OA
BRANCH   3   6
ATOM      6  C   UNL     1      98.328  82.596  82.857  1.00  0.00     0.151 C 
BRANCH   6   7
ATOM      7  C   UNL     1      98.139  83.230  84.191  1.00  0.00    -0.025 A 
ATOM      8  C   UNL     1      98.784  83.443  86.558  1.00  0.00     0.160 A 
ATOM      9  C   UNL     1      97.804  84.442  86.735  1.00  0.00     0.157 A 
ATOM     10  C   UNL     1      98.940  82.845  85.289  1.00  0.00     0.056 A 
ATOM     11  C   UNL     1      96.985  84.822  85.654  1.00  0.00     0.050 A 
ATOM     12  C   UNL     1      97.156  84.228  84.389  1.00  0.00     0.009 A 
BRANCH   8  13
ATOM     13  O   UNL     1      99.539  83.023  87.623  1.00  0.00    -0.493 OA
ATOM     14  C   UNL     1     100.899  82.693  87.284  1.00  0.00     0.278 C 
ENDBRANCH   8  13
BRANCH   9  15
ATOM     15  O   UNL     1      97.637  85.046  87.940  1.00  0.00    -0.504 OA
ATOM     16  H   UNL     1      98.488  85.138  88.374  1.00  0.00     0.293 HD
ENDBRANCH   9  15
ENDBRANCH   6   7
ENDBRANCH   3   6
ENDBRANCH   1   2
BRANCH   1  17
ATOM     17  C   UNL     1     102.081  80.989  80.077  1.00  0.00     0.010 C 
BRANCH  17  18
ATOM     18  C   UNL     1     102.349  81.836  78.801  1.00  0.00     0.005 C 
BRANCH  18  19
ATOM     19  C   UNL     1     101.238  81.659  77.731  1.00  0.00     0.027 C 
BRANCH  19  20
ATOM     20  C   UNL     1     100.082  82.502  77.998  1.00  0.00    -0.031 C 
ATOM     21  C   UNL     1      98.827  82.209  77.611  1.00  0.00    -0.028 C 
BRANCH  21  22
ATOM     22  C   UNL     1      97.676  83.061  77.908  1.00  0.00     0.005 C 
ATOM     23  C   UNL     1      97.630  83.490  79.401  1.00  0.00     0.012 C 
ATOM     24  C   UNL     1      97.673  84.301  76.977  1.00  0.00     0.012 C 
ENDBRANCH  21  22
ENDBRANCH  19  20
ENDBRANCH  18  19
ENDBRANCH  17  18
ENDBRANCH   1  17
TORSDOF 10
ENDMDL
MODEL 10
REMARK VINA RESULT:    -5.515     24.895     27.214
REMARK INTER + INTRA:          -9.275
REMARK INTER:                  -7.438
REMARK INTRA:                  -1.837
REMARK UNBOUND:                -0.698
REMARK SMILES COc1cc(CNC(=O)CCCC/C=C/C(C)C)ccc1O
REMARK SMILES IDX 10 1 8 2 7 3 9 5 6 6 5 7 3 8 21 9 4 10 20 11 19 12 2 13 1 14
REMARK SMILES IDX 22 15 11 17 12 18 13 19 14 20 15 21 16 22 17 23 18 24
REMARK H PARENT 7 4 22 16
REMARK Flexibility Score: inf
ROOT
ATOM      1  C   UNL     1      72.058  83.264  64.862  1.00  0.00     0.100 C 
ENDROOT
BRANCH   1   2
ATOM      2  C   UNL     1      72.556  84.651  64.783  1.00  0.00     0.220 C 
ATOM      3  N   UNL     1      73.835  84.948  65.147  1.00  0.00    -0.352 N 
ATOM      4  H   UNL     1      74.376  84.164  65.484  1.00  0.00     0.163 HD
ATOM      5  O   UNL     1      71.777  85.535  64.352  1.00  0.00    -0.275 OA
BRANCH   3   6
ATOM      6  C   UNL     1      74.421  86.249  65.077  1.00  0.00     0.151 C 
BRANCH   6   7
ATOM      7  C   UNL     1      75.430  86.451  66.152  1.00  0.00    -0.025 A 
ATOM      8  C   UNL     1      76.182  86.070  68.465  1.00  0.00     0.160 A 
ATOM      9  C   UNL     1      77.353  86.812  68.207  1.00  0.00     0.157 A 
ATOM     10  C   UNL     1      75.232  85.898  67.437  1.00  0.00     0.056 A 
ATOM     11  C   UNL     1      77.556  87.386  66.937  1.00  0.00     0.050 A 
ATOM     12  C   UNL     1      76.606  87.199  65.913  1.00  0.00     0.009 A 
BRANCH   8  13
ATOM     13  O   UNL     1      75.950  85.565  69.719  1.00  0.00    -0.493 OA
ATOM     14  C   UNL     1      74.672  85.931  70.272  1.00  0.00     0.278 C 
ENDBRANCH   8  13
BRANCH   9  15
ATOM     15  O   UNL     1      78.295  86.984  69.171  1.00  0.00    -0.504 OA
ATOM     16  H   UNL     1      79.032  86.392  69.009  1.00  0.00     0.293 HD
ENDBRANCH   9  15
ENDBRANCH   6   7
ENDBRANCH   3   6
ENDBRANCH   1   2
BRANCH   1  17
ATOM     17  C   UNL     1      72.705  82.361  63.778  1.00  0.00     0.010 C 
BRANCH  17  18
ATOM     18  C   UNL     1      73.308  81.052  64.361  1.00  0.00     0.005 C 
BRANCH  18  19
ATOM     19  C   UNL     1      74.145  81.308  65.643  1.00  0.00     0.027 C 
BRANCH  19  20
ATOM     20  C   UNL     1      75.454  81.867  65.340  1.00  0.00    -0.031 C 
ATOM     21  C   UNL     1      76.312  82.329  66.268  1.00  0.00    -0.028 C 
BRANCH  21  22
ATOM     22  C   UNL     1      77.632  82.869  65.941  1.00  0.00     0.005 C 
ATOM     23  C   UNL     1      77.582  83.865  64.750  1.00  0.00     0.012 C 
ATOM     24  C   UNL     1      78.263  83.534  67.192  1.00  0.00     0.012 C 
ENDBRANCH  21  22
ENDBRANCH  19  20
ENDBRANCH  18  19
ENDBRANCH  17  18
ENDBRANCH   1  17
TORSDOF 10
ENDMDL
