MODEL 1
REMARK VINA RESULT:    -6.196      0.000      0.000
REMARK INTER + INTRA:         -10.164
REMARK INTER:                  -9.637
REMARK INTRA:                  -0.527
REMARK UNBOUND:                -0.527
REMARK SMILES COc1cc(CNC(=O)CCCCCC(C)C)ccc1O
REMARK SMILES IDX 10 1 8 2 7 3 9 5 6 6 5 7 3 8 20 9 4 10 19 11 18 12 2 13 1 14
REMARK SMILES IDX 21 15 11 17 12 18 13 19 14 20 15 21 16 22 17 23
REMARK H PARENT 7 4 21 16
REMARK Flexibility Score: inf
ROOT
ATOM      1  C   UNL     1      93.969  99.413  74.147  1.00  0.00     0.100 C 
ENDROOT
BRANCH   1   2
ATOM      2  C   UNL     1      93.287 100.041  72.996  1.00  0.00     0.220 C 
ATOM      3  N   UNL     1      91.925 100.098  72.974  1.00  0.00    -0.352 N 
ATOM      4  H   UNL     1      91.466  99.576  73.706  1.00  0.00     0.163 HD
ATOM      5  O   UNL     1      93.980 100.548  72.081  1.00  0.00    -0.275 OA
BRANCH   3   6
ATOM      6  C   UNL     1      91.149 100.822  72.019  1.00  0.00     0.151 C 
BRANCH   6   7
ATOM      7  C   UNL     1      90.302  99.944  71.168  1.00  0.00    -0.025 A 
ATOM      8  C   UNL     1      88.834  99.636  69.219  1.00  0.00     0.160 A 
ATOM      9  C   UNL     1      88.743  98.258  69.508  1.00  0.00     0.157 A 
ATOM     10  C   UNL     1      89.597 100.473  70.061  1.00  0.00     0.056 A 
ATOM     11  C   UNL     1      89.419  97.725  70.622  1.00  0.00     0.050 A 
ATOM     12  C   UNL     1      90.197  98.560  71.442  1.00  0.00     0.009 A 
BRANCH   8  13
ATOM     13  O   UNL     1      88.168 100.177  68.151  1.00  0.00    -0.493 OA
ATOM     14  C   UNL     1      88.738 101.412  67.676  1.00  0.00     0.278 C 
ENDBRANCH   8  13
BRANCH   9  15
ATOM     15  O   UNL     1      88.011  97.444  68.707  1.00  0.00    -0.504 OA
ATOM     16  H   UNL     1      88.594  96.829  68.256  1.00  0.00     0.293 HD
ENDBRANCH   9  15
ENDBRANCH   6   7
ENDBRANCH   3   6
ENDBRANCH   1   2
BRANCH   1  17
ATOM     17  C   UNL     1      93.021  98.651  75.112  1.00  0.00     0.010 C 
BRANCH  17  18
ATOM     18  C   UNL     1      93.754  97.487  75.834  1.00  0.00     0.001 C 
BRANCH  18  19
ATOM     19  C   UNL     1      92.790  96.475  76.507  1.00  0.00     0.000 C 
BRANCH  19  20
ATOM     20  C   UNL     1      93.533  95.506  77.472  1.00  0.00     0.003 C 
BRANCH  20  21
ATOM     21  C   UNL     1      92.719  95.081  78.737  1.00  0.00    -0.017 C 
ATOM     22  C   UNL     1      93.566  94.152  79.656  1.00  0.00     0.007 C 
ATOM     23  C   UNL     1      91.368  94.394  78.384  1.00  0.00     0.007 C 
ENDBRANCH  20  21
ENDBRANCH  19  20
ENDBRANCH  18  19
ENDBRANCH  17  18
ENDBRANCH   1  17
TORSDOF 10
ENDMDL
MODEL 2
REMARK VINA RESULT:    -6.109     20.633     23.202
REMARK INTER + INTRA:         -10.029
REMARK INTER:                  -9.195
REMARK INTRA:                  -0.834
REMARK UNBOUND:                -0.527
REMARK SMILES COc1cc(CNC(=O)CCCCCC(C)C)ccc1O
REMARK SMILES IDX 10 1 8 2 7 3 9 5 6 6 5 7 3 8 20 9 4 10 19 11 18 12 2 13 1 14
REMARK SMILES IDX 21 15 11 17 12 18 13 19 14 20 15 21 16 22 17 23
REMARK H PARENT 7 4 21 16
REMARK Flexibility Score: inf
ROOT
ATOM      1  C   UNL     1      77.428  85.447  66.161  1.00  0.00     0.100 C 
ENDROOT
BRANCH   1   2
ATOM      2  C   UNL     1      76.938  84.063  66.331  1.00  0.00     0.220 C 
ATOM      3  N   UNL     1      77.244  83.124  65.391  1.00  0.00    -0.352 N 
ATOM      4  H   UNL     1      77.687  83.485  64.558  1.00  0.00     0.163 HD
ATOM      5  O   UNL     1      76.284  83.771  67.362  1.00  0.00    -0.275 OA
BRANCH   3   6
ATOM      6  C   UNL     1      76.986  81.725  65.514  1.00  0.00     0.151 C 
BRANCH   6   7
ATOM      7  C   UNL     1      75.697  81.313  64.896  1.00  0.00    -0.025 A 
ATOM      8  C   UNL     1      73.274  80.934  65.072  1.00  0.00     0.160 A 
ATOM      9  C   UNL     1      73.230  80.591  63.704  1.00  0.00     0.157 A 
ATOM     10  C   UNL     1      74.509  81.274  65.664  1.00  0.00     0.056 A 
ATOM     11  C   UNL     1      74.410  80.600  62.938  1.00  0.00     0.050 A 
ATOM     12  C   UNL     1      75.633  80.963  63.527  1.00  0.00     0.009 A 
BRANCH   8  13
ATOM     13  O   UNL     1      72.139  80.912  65.841  1.00  0.00    -0.493 OA
ATOM     14  C   UNL     1      71.713  82.214  66.286  1.00  0.00     0.278 C 
ENDBRANCH   8  13
BRANCH   9  15
ATOM     15  O   UNL     1      72.048  80.260  63.126  1.00  0.00    -0.504 OA
ATOM     16  H   UNL     1      72.173  80.154  62.180  1.00  0.00     0.293 HD
ENDBRANCH   9  15
ENDBRANCH   6   7
ENDBRANCH   3   6
ENDBRANCH   1   2
BRANCH   1  17
ATOM     17  C   UNL     1      77.985  86.091  67.459  1.00  0.00     0.010 C 
BRANCH  17  18
ATOM     18  C   UNL     1      77.038  87.198  68.000  1.00  0.00     0.001 C 
BRANCH  18  19
ATOM     19  C   UNL     1      76.956  87.235  69.549  1.00  0.00     0.000 C 
BRANCH  19  20
ATOM     20  C   UNL     1      75.922  86.214  70.108  1.00  0.00     0.003 C 
BRANCH  20  21
ATOM     21  C   UNL     1      76.506  84.805  70.452  1.00  0.00    -0.017 C 
ATOM     22  C   UNL     1      75.695  84.134  71.600  1.00  0.00     0.007 C 
ATOM     23  C   UNL     1      78.017  84.851  70.823  1.00  0.00     0.007 C 
ENDBRANCH  20  21
ENDBRANCH  19  20
ENDBRANCH  18  19
ENDBRANCH  17  18
ENDBRANCH   1  17
TORSDOF 10
ENDMDL
MODEL 3
REMARK VINA RESULT:    -6.042     20.239     22.947
REMARK INTER + INTRA:          -9.924
REMARK INTER:                  -8.987
REMARK INTRA:                  -0.937
REMARK UNBOUND:                -0.527
REMARK SMILES COc1cc(CNC(=O)CCCCCC(C)C)ccc1O
REMARK SMILES IDX 10 1 8 2 7 3 9 5 6 6 5 7 3 8 20 9 4 10 19 11 18 12 2 13 1 14
REMARK SMILES IDX 21 15 11 17 12 18 13 19 14 20 15 21 16 22 17 23
REMARK H PARENT 7 4 21 16
REMARK Flexibility Score: inf
ROOT
ATOM      1  C   UNL     1      76.845  86.864  64.921  1.00  0.00     0.100 C 
ENDROOT
BRANCH   1   2
ATOM      2  C   UNL     1      76.592  85.796  63.932  1.00  0.00     0.220 C 
ATOM      3  N   UNL     1      77.143  84.564  64.121  1.00  0.00    -0.352 N 
ATOM      4  H   UNL     1      77.811  84.509  64.878  1.00  0.00     0.163 HD
ATOM      5  O   UNL     1      75.836  86.034  62.958  1.00  0.00    -0.275 OA
BRANCH   3   6
ATOM      6  C   UNL     1      76.845  83.402  63.347  1.00  0.00     0.151 C 
BRANCH   6   7
ATOM      7  C   UNL     1      75.734  82.591  63.915  1.00  0.00    -0.025 A 
ATOM      8  C   UNL     1      73.516  81.556  63.685  1.00  0.00     0.160 A 
ATOM      9  C   UNL     1      73.648  80.991  64.971  1.00  0.00     0.157 A 
ATOM     10  C   UNL     1      74.551  82.367  63.173  1.00  0.00     0.056 A 
ATOM     11  C   UNL     1      74.810  81.229  65.728  1.00  0.00     0.050 A 
ATOM     12  C   UNL     1      75.847  82.018  65.203  1.00  0.00     0.009 A 
BRANCH   8  13
ATOM     13  O   UNL     1      72.384  81.353  62.939  1.00  0.00    -0.493 OA
ATOM     14  C   UNL     1      71.476  82.471  62.942  1.00  0.00     0.278 C 
ENDBRANCH   8  13
BRANCH   9  15
ATOM     15  O   UNL     1      72.658  80.211  65.473  1.00  0.00    -0.504 OA
ATOM     16  H   UNL     1      71.827  80.436  65.049  1.00  0.00     0.293 HD
ENDBRANCH   9  15
ENDBRANCH   6   7
ENDBRANCH   3   6
ENDBRANCH   1   2
BRANCH   1  17
ATOM     17  C   UNL     1      76.940  86.367  66.388  1.00  0.00     0.010 C 
BRANCH  17  18
ATOM     18  C   UNL     1      77.727  87.365  67.281  1.00  0.00     0.001 C 
BRANCH  18  19
ATOM     19  C   UNL     1      77.262  87.366  68.762  1.00  0.00     0.000 C 
BRANCH  19  20
ATOM     20  C   UNL     1      77.593  86.028  69.483  1.00  0.00     0.003 C 
BRANCH  20  21
ATOM     21  C   UNL     1      76.428  85.434  70.340  1.00  0.00    -0.017 C 
ATOM     22  C   UNL     1      76.754  83.978  70.788  1.00  0.00     0.007 C 
ATOM     23  C   UNL     1      75.057  85.471  69.604  1.00  0.00     0.007 C 
ENDBRANCH  20  21
ENDBRANCH  19  20
ENDBRANCH  18  19
ENDBRANCH  17  18
ENDBRANCH   1  17
TORSDOF 10
ENDMDL
MODEL 4
REMARK VINA RESULT:    -5.875      1.348      2.484
REMARK INTER + INTRA:          -9.665
REMARK INTER:                  -8.784
REMARK INTRA:                  -0.881
REMARK UNBOUND:                -0.527
REMARK SMILES COc1cc(CNC(=O)CCCCCC(C)C)ccc1O
REMARK SMILES IDX 10 1 8 2 7 3 9 5 6 6 5 7 3 8 20 9 4 10 19 11 18 12 2 13 1 14
REMARK SMILES IDX 21 15 11 17 12 18 13 19 14 20 15 21 16 22 17 23
REMARK H PARENT 7 4 21 16
REMARK Flexibility Score: inf
ROOT
ATOM      1  C   UNL     1      93.228  98.708  75.716  1.00  0.00     0.100 C 
ENDROOT
BRANCH   1   2
ATOM      2  C   UNL     1      93.436  99.289  74.373  1.00  0.00     0.220 C 
ATOM      3  N   UNL     1      92.426  99.989  73.783  1.00  0.00    -0.352 N 
ATOM      4  H   UNL     1      91.541  99.946  74.266  1.00  0.00     0.163 HD
ATOM      5  O   UNL     1      94.556  99.161  73.821  1.00  0.00    -0.275 OA
BRANCH   3   6
ATOM      6  C   UNL     1      92.545 100.744  72.577  1.00  0.00     0.151 C 
BRANCH   6   7
ATOM      7  C   UNL     1      91.470 100.446  71.592  1.00  0.00    -0.025 A 
ATOM      8  C   UNL     1      89.722  98.945  70.733  1.00  0.00     0.160 A 
ATOM      9  C   UNL     1      89.378  99.907  69.760  1.00  0.00     0.157 A 
ATOM     10  C   UNL     1      90.778  99.212  71.630  1.00  0.00     0.056 A 
ATOM     11  C   UNL     1      90.077 101.126  69.696  1.00  0.00     0.050 A 
ATOM     12  C   UNL     1      91.111 101.396  70.608  1.00  0.00     0.009 A 
BRANCH   8  13
ATOM     13  O   UNL     1      89.067  97.743  70.799  1.00  0.00    -0.493 OA
ATOM     14  C   UNL     1      89.766  96.662  70.151  1.00  0.00     0.278 C 
ENDBRANCH   8  13
BRANCH   9  15
ATOM     15  O   UNL     1      88.366  99.658  68.891  1.00  0.00    -0.504 OA
ATOM     16  H   UNL     1      87.892 100.473  68.710  1.00  0.00     0.293 HD
ENDBRANCH   9  15
ENDBRANCH   6   7
ENDBRANCH   3   6
ENDBRANCH   1   2
BRANCH   1  17
ATOM     17  C   UNL     1      92.928  97.184  75.712  1.00  0.00     0.010 C 
BRANCH  17  18
ATOM     18  C   UNL     1      94.002  96.388  76.503  1.00  0.00     0.001 C 
BRANCH  18  19
ATOM     19  C   UNL     1      93.411  95.537  77.659  1.00  0.00     0.000 C 
BRANCH  19  20
ATOM     20  C   UNL     1      91.938  95.923  77.980  1.00  0.00     0.003 C 
BRANCH  20  21
ATOM     21  C   UNL     1      90.912  94.746  77.886  1.00  0.00    -0.017 C 
ATOM     22  C   UNL     1      91.517  93.543  77.104  1.00  0.00     0.007 C 
ATOM     23  C   UNL     1      89.559  95.173  77.247  1.00  0.00     0.007 C 
ENDBRANCH  20  21
ENDBRANCH  19  20
ENDBRANCH  18  19
ENDBRANCH  17  18
ENDBRANCH   1  17
TORSDOF 10
ENDMDL
MODEL 5
REMARK VINA RESULT:    -5.737      7.224      9.565
REMARK INTER + INTRA:          -9.450
REMARK INTER:                  -8.056
REMARK INTRA:                  -1.395
REMARK UNBOUND:                -0.527
REMARK SMILES COc1cc(CNC(=O)CCCCCC(C)C)ccc1O
REMARK SMILES IDX 10 1 8 2 7 3 9 5 6 6 5 7 3 8 20 9 4 10 19 11 18 12 2 13 1 14
REMARK SMILES IDX 21 15 11 17 12 18 13 19 14 20 15 21 16 22 17 23
REMARK H PARENT 7 4 21 16
REMARK Flexibility Score: inf
ROOT
ATOM      1  C   UNL     1      95.983  96.207  82.988  1.00  0.00     0.100 C 
ENDROOT
BRANCH   1   2
ATOM      2  C   UNL     1      96.073  95.201  81.909  1.00  0.00     0.220 C 
ATOM      3  N   UNL     1      95.039  94.335  81.713  1.00  0.00    -0.352 N 
ATOM      4  H   UNL     1      94.323  94.361  82.425  1.00  0.00     0.163 HD
ATOM      5  O   UNL     1      97.085  95.194  81.166  1.00  0.00    -0.275 OA
BRANCH   3   6
ATOM      6  C   UNL     1      94.918  93.436  80.611  1.00  0.00     0.151 C 
BRANCH   6   7
ATOM      7  C   UNL     1      94.252  94.048  79.429  1.00  0.00    -0.025 A 
ATOM      8  C   UNL     1      92.208  94.775  78.272  1.00  0.00     0.160 A 
ATOM      9  C   UNL     1      92.989  95.273  77.208  1.00  0.00     0.157 A 
ATOM     10  C   UNL     1      92.842  94.149  79.367  1.00  0.00     0.056 A 
ATOM     11  C   UNL     1      94.391  95.153  77.248  1.00  0.00     0.050 A 
ATOM     12  C   UNL     1      95.018  94.551  78.351  1.00  0.00     0.009 A 
BRANCH   8  13
ATOM     13  O   UNL     1      90.841  94.863  78.244  1.00  0.00    -0.493 OA
ATOM     14  C   UNL     1      90.172  93.595  78.384  1.00  0.00     0.278 C 
ENDBRANCH   8  13
BRANCH   9  15
ATOM     15  O   UNL     1      92.389  95.874  76.151  1.00  0.00    -0.504 OA
ATOM     16  H   UNL     1      92.308  95.247  75.429  1.00  0.00     0.293 HD
ENDBRANCH   9  15
ENDBRANCH   6   7
ENDBRANCH   3   6
ENDBRANCH   1   2
BRANCH   1  17
ATOM     17  C   UNL     1      94.813  97.214  82.826  1.00  0.00     0.010 C 
BRANCH  17  18
ATOM     18  C   UNL     1      95.329  98.670  82.661  1.00  0.00     0.001 C 
BRANCH  18  19
ATOM     19  C   UNL     1      96.843  98.754  82.333  1.00  0.00     0.000 C 
BRANCH  19  20
ATOM     20  C   UNL     1      97.115  99.511  81.001  1.00  0.00     0.003 C 
BRANCH  20  21
ATOM     21  C   UNL     1      96.111  99.194  79.845  1.00  0.00    -0.017 C 
ATOM     22  C   UNL     1      96.524  97.896  79.090  1.00  0.00     0.007 C 
ATOM     23  C   UNL     1      95.957 100.371  78.839  1.00  0.00     0.007 C 
ENDBRANCH  20  21
ENDBRANCH  19  20
ENDBRANCH  18  19
ENDBRANCH  17  18
ENDBRANCH   1  17
TORSDOF 10
ENDMDL
MODEL 6
REMARK VINA RESULT:    -5.734     20.132     22.792
REMARK INTER + INTRA:          -9.445
REMARK INTER:                  -8.409
REMARK INTRA:                  -1.036
REMARK UNBOUND:                -0.527
REMARK SMILES COc1cc(CNC(=O)CCCCCC(C)C)ccc1O
REMARK SMILES IDX 10 1 8 2 7 3 9 5 6 6 5 7 3 8 20 9 4 10 19 11 18 12 2 13 1 14
REMARK SMILES IDX 21 15 11 17 12 18 13 19 14 20 15 21 16 22 17 23
REMARK H PARENT 7 4 21 16
REMARK Flexibility Score: inf
ROOT
ATOM      1  C   UNL     1      78.300  83.977  66.458  1.00  0.00     0.100 C 
ENDROOT
BRANCH   1   2
ATOM      2  C   UNL     1      77.246  83.014  66.076  1.00  0.00     0.220 C 
ATOM      3  N   UNL     1      75.988  83.469  65.813  1.00  0.00    -0.352 N 
ATOM      4  H   UNL     1      75.834  84.443  66.031  1.00  0.00     0.163 HD
ATOM      5  O   UNL     1      77.542  81.800  65.961  1.00  0.00    -0.275 OA
BRANCH   3   6
ATOM      6  C   UNL     1      74.927  82.682  65.270  1.00  0.00     0.151 C 
BRANCH   6   7
ATOM      7  C   UNL     1      73.640  82.857  65.997  1.00  0.00    -0.025 A 
ATOM      8  C   UNL     1      72.219  84.142  67.538  1.00  0.00     0.160 A 
ATOM      9  C   UNL     1      71.166  83.226  67.328  1.00  0.00     0.157 A 
ATOM     10  C   UNL     1      73.454  83.941  66.886  1.00  0.00     0.056 A 
ATOM     11  C   UNL     1      71.349  82.129  66.466  1.00  0.00     0.050 A 
ATOM     12  C   UNL     1      72.574  81.948  65.801  1.00  0.00     0.009 A 
BRANCH   8  13
ATOM     13  O   UNL     1      72.068  85.206  68.388  1.00  0.00    -0.493 OA
ATOM     14  C   UNL     1      72.102  86.487  67.729  1.00  0.00     0.278 C 
ENDBRANCH   8  13
BRANCH   9  15
ATOM     15  O   UNL     1      69.975  83.408  67.951  1.00  0.00    -0.504 OA
ATOM     16  H   UNL     1      70.098  83.973  68.717  1.00  0.00     0.293 HD
ENDBRANCH   9  15
ENDBRANCH   6   7
ENDBRANCH   3   6
ENDBRANCH   1   2
BRANCH   1  17
ATOM     17  C   UNL     1      77.846  85.046  67.487  1.00  0.00     0.010 C 
BRANCH  17  18
ATOM     18  C   UNL     1      77.649  84.433  68.901  1.00  0.00     0.001 C 
BRANCH  18  19
ATOM     19  C   UNL     1      77.671  85.487  70.039  1.00  0.00     0.000 C 
BRANCH  19  20
ATOM     20  C   UNL     1      77.412  86.928  69.511  1.00  0.00     0.003 C 
BRANCH  20  21
ATOM     21  C   UNL     1      75.940  87.432  69.663  1.00  0.00    -0.017 C 
ATOM     22  C   UNL     1      75.899  88.827  70.355  1.00  0.00     0.007 C 
ATOM     23  C   UNL     1      75.034  86.428  70.433  1.00  0.00     0.007 C 
ENDBRANCH  20  21
ENDBRANCH  19  20
ENDBRANCH  18  19
ENDBRANCH  17  18
ENDBRANCH   1  17
TORSDOF 10
ENDMDL
MODEL 7
REMARK VINA RESULT:    -5.664     16.600     19.467
REMARK INTER + INTRA:          -9.337
REMARK INTER:                  -8.683
REMARK INTRA:                  -0.653
REMARK UNBOUND:                -0.527
REMARK SMILES COc1cc(CNC(=O)CCCCCC(C)C)ccc1O
REMARK SMILES IDX 10 1 8 2 7 3 9 5 6 6 5 7 3 8 20 9 4 10 19 11 18 12 2 13 1 14
REMARK SMILES IDX 21 15 11 17 12 18 13 19 14 20 15 21 16 22 17 23
REMARK H PARENT 7 4 21 16
REMARK Flexibility Score: inf
ROOT
ATOM      1  C   UNL     1      74.854  87.886  70.684  1.00  0.00     0.100 C 
ENDROOT
BRANCH   1   2
ATOM      2  C   UNL     1      75.762  86.806  70.244  1.00  0.00     0.220 C 
ATOM      3  N   UNL     1      76.942  87.127  69.643  1.00  0.00    -0.352 N 
ATOM      4  H   UNL     1      77.053  88.105  69.419  1.00  0.00     0.163 HD
ATOM      5  O   UNL     1      75.444  85.613  70.473  1.00  0.00    -0.275 OA
BRANCH   3   6
ATOM      6  C   UNL     1      77.982  86.200  69.328  1.00  0.00     0.151 C 
BRANCH   6   7
ATOM      7  C   UNL     1      77.797  85.541  68.007  1.00  0.00    -0.025 A 
ATOM      8  C   UNL     1      77.203  85.671  65.625  1.00  0.00     0.160 A 
ATOM      9  C   UNL     1      77.509  84.301  65.476  1.00  0.00     0.157 A 
ATOM     10  C   UNL     1      77.331  86.277  66.892  1.00  0.00     0.056 A 
ATOM     11  C   UNL     1      77.948  83.554  66.584  1.00  0.00     0.050 A 
ATOM     12  C   UNL     1      78.097  84.169  67.839  1.00  0.00     0.009 A 
BRANCH   8  13
ATOM     13  O   UNL     1      76.756  86.412  64.563  1.00  0.00    -0.493 OA
ATOM     14  C   UNL     1      75.338  86.666  64.587  1.00  0.00     0.278 C 
ENDBRANCH   8  13
BRANCH   9  15
ATOM     15  O   UNL     1      77.388  83.708  64.262  1.00  0.00    -0.504 OA
ATOM     16  H   UNL     1      78.199  83.239  64.052  1.00  0.00     0.293 HD
ENDBRANCH   9  15
ENDBRANCH   6   7
ENDBRANCH   3   6
ENDBRANCH   1   2
BRANCH   1  17
ATOM     17  C   UNL     1      75.488  89.303  70.659  1.00  0.00     0.010 C 
BRANCH  17  18
ATOM     18  C   UNL     1      74.420  90.413  70.859  1.00  0.00     0.001 C 
BRANCH  18  19
ATOM     19  C   UNL     1      75.027  91.798  71.202  1.00  0.00     0.000 C 
BRANCH  19  20
ATOM     20  C   UNL     1      76.540  91.707  71.554  1.00  0.00     0.003 C 
BRANCH  20  21
ATOM     21  C   UNL     1      77.115  92.940  72.324  1.00  0.00    -0.017 C 
ATOM     22  C   UNL     1      76.868  94.256  71.529  1.00  0.00     0.007 C 
ATOM     23  C   UNL     1      78.628  92.793  72.657  1.00  0.00     0.007 C 
ENDBRANCH  20  21
ENDBRANCH  19  20
ENDBRANCH  18  19
ENDBRANCH  17  18
ENDBRANCH   1  17
TORSDOF 10
ENDMDL
MODEL 8
REMARK VINA RESULT:    -5.544     30.209     32.451
REMARK INTER + INTRA:          -9.150
REMARK INTER:                  -7.985
REMARK INTRA:                  -1.165
REMARK UNBOUND:                -0.527
REMARK SMILES COc1cc(CNC(=O)CCCCCC(C)C)ccc1O
REMARK SMILES IDX 10 1 8 2 7 3 9 5 6 6 5 7 3 8 20 9 4 10 19 11 18 12 2 13 1 14
REMARK SMILES IDX 21 15 11 17 12 18 13 19 14 20 15 21 16 22 17 23
REMARK H PARENT 7 4 21 16
REMARK Flexibility Score: inf
ROOT
ATOM      1  C   UNL     1      62.521  84.575  71.272  1.00  0.00     0.100 C 
ENDROOT
BRANCH   1   2
ATOM      2  C   UNL     1      61.844  84.504  72.583  1.00  0.00     0.220 C 
ATOM      3  N   UNL     1      62.057  83.425  73.389  1.00  0.00    -0.352 N 
ATOM      4  H   UNL     1      62.575  82.671  72.962  1.00  0.00     0.163 HD
ATOM      5  O   UNL     1      61.118  85.461  72.946  1.00  0.00    -0.275 OA
BRANCH   3   6
ATOM      6  C   UNL     1      61.610  83.308  74.740  1.00  0.00     0.151 C 
BRANCH   6   7
ATOM      7  C   UNL     1      62.692  83.536  75.735  1.00  0.00    -0.025 A 
ATOM      8  C   UNL     1      63.449  84.444  77.892  1.00  0.00     0.160 A 
ATOM      9  C   UNL     1      64.735  83.912  77.662  1.00  0.00     0.157 A 
ATOM     10  C   UNL     1      62.441  84.269  76.920  1.00  0.00     0.056 A 
ATOM     11  C   UNL     1      65.003  83.205  76.475  1.00  0.00     0.050 A 
ATOM     12  C   UNL     1      63.989  83.013  75.522  1.00  0.00     0.009 A 
BRANCH   8  13
ATOM     13  O   UNL     1      63.172  85.153  79.032  1.00  0.00    -0.493 OA
ATOM     14  C   UNL     1      63.264  86.581  78.865  1.00  0.00     0.278 C 
ENDBRANCH   8  13
BRANCH   9  15
ATOM     15  O   UNL     1      65.712  84.077  78.589  1.00  0.00    -0.504 OA
ATOM     16  H   UNL     1      65.808  83.270  79.099  1.00  0.00     0.293 HD
ENDBRANCH   9  15
ENDBRANCH   6   7
ENDBRANCH   3   6
ENDBRANCH   1   2
BRANCH   1  17
ATOM     17  C   UNL     1      61.621  84.191  70.067  1.00  0.00     0.010 C 
BRANCH  17  18
ATOM     18  C   UNL     1      62.393  83.334  69.026  1.00  0.00     0.001 C 
BRANCH  18  19
ATOM     19  C   UNL     1      62.944  82.005  69.608  1.00  0.00     0.000 C 
BRANCH  19  20
ATOM     20  C   UNL     1      64.478  81.860  69.392  1.00  0.00     0.003 C 
BRANCH  20  21
ATOM     21  C   UNL     1      65.319  81.719  70.703  1.00  0.00    -0.017 C 
ATOM     22  C   UNL     1      64.402  81.399  71.920  1.00  0.00     0.007 C 
ATOM     23  C   UNL     1      66.185  82.977  71.003  1.00  0.00     0.007 C 
ENDBRANCH  20  21
ENDBRANCH  19  20
ENDBRANCH  18  19
ENDBRANCH  17  18
ENDBRANCH   1  17
TORSDOF 10
ENDMDL
MODEL 9
REMARK VINA RESULT:    -5.526     30.651     32.899
REMARK INTER + INTRA:          -9.122
REMARK INTER:                  -8.532
REMARK INTRA:                  -0.590
REMARK UNBOUND:                -0.527
REMARK SMILES COc1cc(CNC(=O)CCCCCC(C)C)ccc1O
REMARK SMILES IDX 10 1 8 2 7 3 9 5 6 6 5 7 3 8 20 9 4 10 19 11 18 12 2 13 1 14
REMARK SMILES IDX 21 15 11 17 12 18 13 19 14 20 15 21 16 22 17 23
REMARK H PARENT 7 4 21 16
REMARK Flexibility Score: inf
ROOT
ATOM      1  C   UNL     1      62.477  81.239  73.538  1.00  0.00     0.100 C 
ENDROOT
BRANCH   1   2
ATOM      2  C   UNL     1      62.113  82.528  74.162  1.00  0.00     0.220 C 
ATOM      3  N   UNL     1      62.644  82.859  75.373  1.00  0.00    -0.352 N 
ATOM      4  H   UNL     1      63.159  82.119  75.828  1.00  0.00     0.163 HD
ATOM      5  O   UNL     1      61.354  83.312  73.542  1.00  0.00    -0.275 OA
BRANCH   3   6
ATOM      6  C   UNL     1      62.518  84.133  76.005  1.00  0.00     0.151 C 
BRANCH   6   7
ATOM      7  C   UNL     1      63.283  84.233  77.277  1.00  0.00    -0.025 A 
ATOM      8  C   UNL     1      63.341  84.590  79.709  1.00  0.00     0.160 A 
ATOM      9  C   UNL     1      64.732  84.356  79.709  1.00  0.00     0.157 A 
ATOM     10  C   UNL     1      62.628  84.545  78.492  1.00  0.00     0.056 A 
ATOM     11  C   UNL     1      65.398  84.071  78.502  1.00  0.00     0.050 A 
ATOM     12  C   UNL     1      64.679  84.004  77.297  1.00  0.00     0.009 A 
BRANCH   8  13
ATOM     13  O   UNL     1      62.676  84.889  80.870  1.00  0.00    -0.493 OA
ATOM     14  C   UNL     1      62.274  86.268  80.972  1.00  0.00     0.278 C 
ENDBRANCH   8  13
BRANCH   9  15
ATOM     15  O   UNL     1      65.427  84.399  80.873  1.00  0.00    -0.504 OA
ATOM     16  H   UNL     1      66.266  84.842  80.730  1.00  0.00     0.293 HD
ENDBRANCH   9  15
ENDBRANCH   6   7
ENDBRANCH   3   6
ENDBRANCH   1   2
BRANCH   1  17
ATOM     17  C   UNL     1      63.984  81.099  73.193  1.00  0.00     0.010 C 
BRANCH  17  18
ATOM     18  C   UNL     1      64.369  81.955  71.955  1.00  0.00     0.001 C 
BRANCH  18  19
ATOM     19  C   UNL     1      63.321  81.894  70.813  1.00  0.00     0.000 C 
BRANCH  19  20
ATOM     20  C   UNL     1      63.974  82.028  69.406  1.00  0.00     0.003 C 
BRANCH  20  21
ATOM     21  C   UNL     1      63.087  82.737  68.332  1.00  0.00    -0.017 C 
ATOM     22  C   UNL     1      63.943  83.691  67.447  1.00  0.00     0.007 C 
ATOM     23  C   UNL     1      61.891  83.515  68.953  1.00  0.00     0.007 C 
ENDBRANCH  20  21
ENDBRANCH  19  20
ENDBRANCH  18  19
ENDBRANCH  17  18
ENDBRANCH   1  17
TORSDOF 10
ENDMDL
MODEL 10
REMARK VINA RESULT:    -5.512     20.235     22.954
REMARK INTER + INTRA:          -9.099
REMARK INTER:                  -7.643
REMARK INTRA:                  -1.456
REMARK UNBOUND:                -0.527
REMARK SMILES COc1cc(CNC(=O)CCCCCC(C)C)ccc1O
REMARK SMILES IDX 10 1 8 2 7 3 9 5 6 6 5 7 3 8 20 9 4 10 19 11 18 12 2 13 1 14
REMARK SMILES IDX 21 15 11 17 12 18 13 19 14 20 15 21 16 22 17 23
REMARK H PARENT 7 4 21 16
REMARK Flexibility Score: inf
ROOT
ATOM      1  C   UNL     1      77.502  83.338  66.803  1.00  0.00     0.100 C 
ENDROOT
BRANCH   1   2
ATOM      2  C   UNL     1      76.048  83.120  66.659  1.00  0.00     0.220 C 
ATOM      3  N   UNL     1      75.234  84.182  66.399  1.00  0.00    -0.352 N 
ATOM      4  H   UNL     1      75.683  85.085  66.454  1.00  0.00     0.163 HD
ATOM      5  O   UNL     1      75.596  81.951  66.738  1.00  0.00    -0.275 OA
BRANCH   3   6
ATOM      6  C   UNL     1      73.848  84.094  66.067  1.00  0.00     0.151 C 
BRANCH   6   7
ATOM      7  C   UNL     1      72.952  84.343  67.229  1.00  0.00    -0.025 A 
ATOM      8  C   UNL     1      70.869  83.884  68.451  1.00  0.00     0.160 A 
ATOM      9  C   UNL     1      71.277  84.766  69.474  1.00  0.00     0.157 A 
ATOM     10  C   UNL     1      71.700  83.692  67.327  1.00  0.00     0.056 A 
ATOM     11  C   UNL     1      72.509  85.439  69.374  1.00  0.00     0.050 A 
ATOM     12  C   UNL     1      73.343  85.225  68.263  1.00  0.00     0.009 A 
BRANCH   8  13
ATOM     13  O   UNL     1      69.664  83.235  68.520  1.00  0.00    -0.493 OA
ATOM     14  C   UNL     1      68.603  83.899  67.808  1.00  0.00     0.278 C 
ENDBRANCH   8  13
BRANCH   9  15
ATOM     15  O   UNL     1      70.485  84.959  70.558  1.00  0.00    -0.504 OA
ATOM     16  H   UNL     1      70.919  85.559  71.169  1.00  0.00     0.293 HD
ENDBRANCH   9  15
ENDBRANCH   6   7
ENDBRANCH   3   6
ENDBRANCH   1   2
BRANCH   1  17
ATOM     17  C   UNL     1      77.883  84.460  67.806  1.00  0.00     0.010 C 
BRANCH  17  18
ATOM     18  C   UNL     1      77.243  84.221  69.202  1.00  0.00     0.001 C 
BRANCH  18  19
ATOM     19  C   UNL     1      77.433  85.412  70.178  1.00  0.00     0.000 C 
BRANCH  19  20
ATOM     20  C   UNL     1      77.753  86.740  69.431  1.00  0.00     0.003 C 
BRANCH  20  21
ATOM     21  C   UNL     1      76.594  87.789  69.423  1.00  0.00    -0.017 C 
ATOM     22  C   UNL     1      75.475  87.388  70.429  1.00  0.00     0.007 C 
ATOM     23  C   UNL     1      75.986  88.007  68.007  1.00  0.00     0.007 C 
ENDBRANCH  20  21
ENDBRANCH  19  20
ENDBRANCH  18  19
ENDBRANCH  17  18
ENDBRANCH   1  17
TORSDOF 10
ENDMDL
