MODEL 1
REMARK VINA RESULT:    -6.370      0.000      0.000
REMARK INTER + INTRA:         -11.060
REMARK INTER:                 -10.280
REMARK INTRA:                  -0.780
REMARK UNBOUND:                -0.780
REMARK SMILES COc1cc(CNC(=O)CCCCCCC(C)C)ccc1O
REMARK SMILES IDX 11 1 10 2 8 3 7 4 9 6 6 7 5 8 3 9 21 10 4 11 20 12 19 13
REMARK SMILES IDX 2 14 1 15 22 16 12 18 13 19 14 20 15 21 16 22 17 23 18 24
REMARK H PARENT 7 5 22 17
REMARK Flexibility Score: inf
ROOT
ATOM      1  C   UNL     1      92.602  95.391  75.310  1.00  0.00     0.010 C 
ENDROOT
BRANCH   1   2
ATOM      2  C   UNL     1      93.635  96.533  75.104  1.00  0.00     0.100 C 
BRANCH   2   3
ATOM      3  C   UNL     1      94.993  96.187  75.581  1.00  0.00     0.220 C 
ATOM      4  N   UNL     1      95.228  95.999  76.911  1.00  0.00    -0.352 N 
ATOM      5  H   UNL     1      94.430  96.159  77.507  1.00  0.00     0.163 HD
ATOM      6  O   UNL     1      95.910  96.047  74.735  1.00  0.00    -0.275 OA
BRANCH   4   7
ATOM      7  C   UNL     1      96.482  95.606  77.481  1.00  0.00     0.151 C 
BRANCH   7   8
ATOM      8  C   UNL     1      96.334  94.785  78.714  1.00  0.00    -0.025 A 
ATOM      9  C   UNL     1      97.007  94.270  81.023  1.00  0.00     0.160 A 
ATOM     10  C   UNL     1      96.030  93.253  81.083  1.00  0.00     0.157 A 
ATOM     11  C   UNL     1      97.165  95.014  79.835  1.00  0.00     0.056 A 
ATOM     12  C   UNL     1      95.223  92.989  79.961  1.00  0.00     0.050 A 
ATOM     13  C   UNL     1      95.366  93.756  78.788  1.00  0.00     0.009 A 
BRANCH   9  14
ATOM     14  O   UNL     1      97.824  94.508  82.095  1.00  0.00    -0.493 OA
ATOM     15  C   UNL     1      99.193  94.121  81.879  1.00  0.00     0.278 C 
ENDBRANCH   9  14
BRANCH  10  16
ATOM     16  O   UNL     1      95.857  92.519  82.214  1.00  0.00    -0.504 OA
ATOM     17  H   UNL     1      96.615  92.638  82.791  1.00  0.00     0.293 HD
ENDBRANCH  10  16
ENDBRANCH   7   8
ENDBRANCH   4   7
ENDBRANCH   2   3
ENDBRANCH   1   2
BRANCH   1  18
ATOM     18  C   UNL     1      91.878  95.494  76.682  1.00  0.00     0.001 C 
BRANCH  18  19
ATOM     19  C   UNL     1      91.354  94.132  77.219  1.00  0.00     0.000 C 
BRANCH  19  20
ATOM     20  C   UNL     1      90.656  93.308  76.100  1.00  0.00     0.000 C 
BRANCH  20  21
ATOM     21  C   UNL     1      90.965  91.785  76.144  1.00  0.00     0.003 C 
BRANCH  21  22
ATOM     22  C   UNL     1      90.077  90.914  75.197  1.00  0.00    -0.017 C 
ATOM     23  C   UNL     1      90.921  89.779  74.552  1.00  0.00     0.007 C 
ATOM     24  C   UNL     1      89.340  91.736  74.099  1.00  0.00     0.007 C 
ENDBRANCH  21  22
ENDBRANCH  20  21
ENDBRANCH  19  20
ENDBRANCH  18  19
ENDBRANCH   1  18
TORSDOF 11
ENDMDL
MODEL 2
REMARK VINA RESULT:    -6.296      2.502      4.175
REMARK INTER + INTRA:         -10.940
REMARK INTER:                  -9.744
REMARK INTRA:                  -1.196
REMARK UNBOUND:                -0.780
REMARK SMILES COc1cc(CNC(=O)CCCCCCC(C)C)ccc1O
REMARK SMILES IDX 11 1 10 2 8 3 7 4 9 6 6 7 5 8 3 9 21 10 4 11 20 12 19 13
REMARK SMILES IDX 2 14 1 15 22 16 12 18 13 19 14 20 15 21 16 22 17 23 18 24
REMARK H PARENT 7 5 22 17
REMARK Flexibility Score: inf
ROOT
ATOM      1  C   UNL     1      94.877  93.847  77.522  1.00  0.00     0.010 C 
ENDROOT
BRANCH   1   2
ATOM      2  C   UNL     1      94.436  92.990  78.742  1.00  0.00     0.100 C 
BRANCH   2   3
ATOM      3  C   UNL     1      95.355  93.100  79.897  1.00  0.00     0.220 C 
ATOM      4  N   UNL     1      96.519  93.802  79.787  1.00  0.00    -0.352 N 
ATOM      5  H   UNL     1      96.698  94.180  78.868  1.00  0.00     0.163 HD
ATOM      6  O   UNL     1      95.028  92.556  80.980  1.00  0.00    -0.275 OA
BRANCH   4   7
ATOM      7  C   UNL     1      97.454  94.024  80.848  1.00  0.00     0.151 C 
BRANCH   7   8
ATOM      8  C   UNL     1      97.300  95.356  81.497  1.00  0.00    -0.025 A 
ATOM      9  C   UNL     1      98.127  97.078  83.045  1.00  0.00     0.160 A 
ATOM     10  C   UNL     1      97.037  97.910  82.704  1.00  0.00     0.157 A 
ATOM     11  C   UNL     1      98.239  95.803  82.453  1.00  0.00     0.056 A 
ATOM     12  C   UNL     1      96.075  97.460  81.783  1.00  0.00     0.050 A 
ATOM     13  C   UNL     1      96.209  96.197  81.174  1.00  0.00     0.009 A 
BRANCH   9  14
ATOM     14  O   UNL     1      99.047  97.490  83.969  1.00  0.00    -0.493 OA
ATOM     15  C   UNL     1     100.297  97.915  83.395  1.00  0.00     0.278 C 
ENDBRANCH   9  14
BRANCH  10  16
ATOM     16  O   UNL     1      96.903  99.143  83.259  1.00  0.00    -0.504 OA
ATOM     17  H   UNL     1      97.398  99.179  84.081  1.00  0.00     0.293 HD
ENDBRANCH  10  16
ENDBRANCH   7   8
ENDBRANCH   4   7
ENDBRANCH   2   3
ENDBRANCH   1   2
BRANCH   1  18
ATOM     18  C   UNL     1      94.299  95.289  77.579  1.00  0.00     0.001 C 
BRANCH  18  19
ATOM     19  C   UNL     1      93.251  95.588  76.470  1.00  0.00     0.000 C 
BRANCH  19  20
ATOM     20  C   UNL     1      91.831  95.796  77.067  1.00  0.00     0.000 C 
BRANCH  20  21
ATOM     21  C   UNL     1      90.791  94.730  76.623  1.00  0.00     0.003 C 
BRANCH  21  22
ATOM     22  C   UNL     1      91.147  93.264  77.036  1.00  0.00    -0.017 C 
ATOM     23  C   UNL     1      91.578  92.438  75.791  1.00  0.00     0.007 C 
ATOM     24  C   UNL     1      90.004  92.536  77.804  1.00  0.00     0.007 C 
ENDBRANCH  21  22
ENDBRANCH  20  21
ENDBRANCH  19  20
ENDBRANCH  18  19
ENDBRANCH   1  18
TORSDOF 11
ENDMDL
MODEL 3
REMARK VINA RESULT:    -6.214      6.059     10.398
REMARK INTER + INTRA:         -10.808
REMARK INTER:                 -10.157
REMARK INTRA:                  -0.651
REMARK UNBOUND:                -0.780
REMARK SMILES COc1cc(CNC(=O)CCCCCCC(C)C)ccc1O
REMARK SMILES IDX 11 1 10 2 8 3 7 4 9 6 6 7 5 8 3 9 21 10 4 11 20 12 19 13
REMARK SMILES IDX 2 14 1 15 22 16 12 18 13 19 14 20 15 21 16 22 17 23 18 24
REMARK H PARENT 7 5 22 17
REMARK Flexibility Score: inf
ROOT
ATOM      1  C   UNL     1      94.063  98.209  73.971  1.00  0.00     0.010 C 
ENDROOT
BRANCH   1   2
ATOM      2  C   UNL     1      94.840  98.523  72.662  1.00  0.00     0.100 C 
BRANCH   2   3
ATOM      3  C   UNL     1      94.086  99.387  71.727  1.00  0.00     0.220 C 
ATOM      4  N   UNL     1      92.747  99.582  71.897  1.00  0.00    -0.352 N 
ATOM      5  H   UNL     1      92.339  99.064  72.662  1.00  0.00     0.163 HD
ATOM      6  O   UNL     1      94.709  99.951  70.794  1.00  0.00    -0.275 OA
BRANCH   4   7
ATOM      7  C   UNL     1      91.928 100.438  71.093  1.00  0.00     0.151 C 
BRANCH   7   8
ATOM      8  C   UNL     1      91.107  99.698  70.096  1.00  0.00    -0.025 A 
ATOM      9  C   UNL     1      90.334  99.391  67.781  1.00  0.00     0.160 A 
ATOM     10  C   UNL     1      89.581  98.265  68.180  1.00  0.00     0.157 A 
ATOM     11  C   UNL     1      91.075 100.108  68.744  1.00  0.00     0.056 A 
ATOM     12  C   UNL     1      89.574  97.870  69.530  1.00  0.00     0.050 A 
ATOM     13  C   UNL     1      90.339  98.573  70.480  1.00  0.00     0.009 A 
BRANCH   9  14
ATOM     14  O   UNL     1      90.316  99.807  66.478  1.00  0.00    -0.493 OA
ATOM     15  C   UNL     1      91.193 100.917  66.212  1.00  0.00     0.278 C 
ENDBRANCH   9  14
BRANCH  10  16
ATOM     16  O   UNL     1      88.856  97.556  67.275  1.00  0.00    -0.504 OA
ATOM     17  H   UNL     1      88.662  98.111  66.516  1.00  0.00     0.293 HD
ENDBRANCH  10  16
ENDBRANCH   7   8
ENDBRANCH   4   7
ENDBRANCH   2   3
ENDBRANCH   1   2
BRANCH   1  18
ATOM     18  C   UNL     1      94.441  96.820  74.559  1.00  0.00     0.001 C 
BRANCH  18  19
ATOM     19  C   UNL     1      93.215  95.975  75.007  1.00  0.00     0.000 C 
BRANCH  19  20
ATOM     20  C   UNL     1      93.274  95.641  76.524  1.00  0.00     0.000 C 
BRANCH  20  21
ATOM     21  C   UNL     1      91.888  95.362  77.169  1.00  0.00     0.003 C 
BRANCH  21  22
ATOM     22  C   UNL     1      91.706  93.908  77.714  1.00  0.00    -0.017 C 
ATOM     23  C   UNL     1      93.015  93.413  78.390  1.00  0.00     0.007 C 
ATOM     24  C   UNL     1      91.231  92.890  76.636  1.00  0.00     0.007 C 
ENDBRANCH  21  22
ENDBRANCH  20  21
ENDBRANCH  19  20
ENDBRANCH  18  19
ENDBRANCH   1  18
TORSDOF 11
ENDMDL
MODEL 4
REMARK VINA RESULT:    -5.851      2.200      3.298
REMARK INTER + INTRA:         -10.222
REMARK INTER:                  -9.278
REMARK INTRA:                  -0.945
REMARK UNBOUND:                -0.780
REMARK SMILES COc1cc(CNC(=O)CCCCCCC(C)C)ccc1O
REMARK SMILES IDX 11 1 10 2 8 3 7 4 9 6 6 7 5 8 3 9 21 10 4 11 20 12 19 13
REMARK SMILES IDX 2 14 1 15 22 16 12 18 13 19 14 20 15 21 16 22 17 23 18 24
REMARK H PARENT 7 5 22 17
REMARK Flexibility Score: inf
ROOT
ATOM      1  C   UNL     1      91.767  93.131  76.081  1.00  0.00     0.010 C 
ENDROOT
BRANCH   1   2
ATOM      2  C   UNL     1      91.947  93.668  77.528  1.00  0.00     0.100 C 
BRANCH   2   3
ATOM      3  C   UNL     1      93.247  93.299  78.132  1.00  0.00     0.220 C 
ATOM      4  N   UNL     1      94.401  93.429  77.417  1.00  0.00    -0.352 N 
ATOM      5  H   UNL     1      94.274  93.744  76.466  1.00  0.00     0.163 HD
ATOM      6  O   UNL     1      93.264  92.889  79.319  1.00  0.00    -0.275 OA
BRANCH   4   7
ATOM      7  C   UNL     1      95.716  93.159  77.914  1.00  0.00     0.151 C 
BRANCH   7   8
ATOM      8  C   UNL     1      96.303  94.299  78.669  1.00  0.00    -0.025 A 
ATOM      9  C   UNL     1      97.422  95.172  80.678  1.00  0.00     0.160 A 
ATOM     10  C   UNL     1      97.464  96.459  80.098  1.00  0.00     0.157 A 
ATOM     11  C   UNL     1      96.827  94.108  79.968  1.00  0.00     0.056 A 
ATOM     12  C   UNL     1      96.911  96.670  78.822  1.00  0.00     0.050 A 
ATOM     13  C   UNL     1      96.344  95.597  78.107  1.00  0.00     0.009 A 
BRANCH   9  14
ATOM     14  O   UNL     1      97.922  94.964  81.935  1.00  0.00    -0.493 OA
ATOM     15  C   UNL     1      98.855  93.871  82.014  1.00  0.00     0.278 C 
ENDBRANCH   9  14
BRANCH  10  16
ATOM     16  O   UNL     1      98.030  97.502  80.759  1.00  0.00    -0.504 OA
ATOM     17  H   UNL     1      97.606  97.606  81.615  1.00  0.00     0.293 HD
ENDBRANCH  10  16
ENDBRANCH   7   8
ENDBRANCH   4   7
ENDBRANCH   2   3
ENDBRANCH   1   2
BRANCH   1  18
ATOM     18  C   UNL     1      90.674  92.029  75.996  1.00  0.00     0.001 C 
BRANCH  18  19
ATOM     19  C   UNL     1      91.151  90.726  75.294  1.00  0.00     0.000 C 
BRANCH  19  20
ATOM     20  C   UNL     1      90.076  90.178  74.313  1.00  0.00     0.000 C 
BRANCH  20  21
ATOM     21  C   UNL     1      88.791  91.047  74.226  1.00  0.00     0.003 C 
BRANCH  21  22
ATOM     22  C   UNL     1      88.609  91.805  72.870  1.00  0.00    -0.017 C 
ATOM     23  C   UNL     1      89.578  91.237  71.796  1.00  0.00     0.007 C 
ATOM     24  C   UNL     1      88.772  93.349  72.990  1.00  0.00     0.007 C 
ENDBRANCH  21  22
ENDBRANCH  20  21
ENDBRANCH  19  20
ENDBRANCH  18  19
ENDBRANCH   1  18
TORSDOF 11
ENDMDL
MODEL 5
REMARK VINA RESULT:    -5.791     11.897     14.078
REMARK INTER + INTRA:         -10.126
REMARK INTER:                  -9.452
REMARK INTRA:                  -0.674
REMARK UNBOUND:                -0.780
REMARK SMILES COc1cc(CNC(=O)CCCCCCC(C)C)ccc1O
REMARK SMILES IDX 11 1 10 2 8 3 7 4 9 6 6 7 5 8 3 9 21 10 4 11 20 12 19 13
REMARK SMILES IDX 2 14 1 15 22 16 12 18 13 19 14 20 15 21 16 22 17 23 18 24
REMARK H PARENT 7 5 22 17
REMARK Flexibility Score: inf
ROOT
ATOM      1  C   UNL     1      97.251  81.736  77.959  1.00  0.00     0.010 C 
ENDROOT
BRANCH   1   2
ATOM      2  C   UNL     1      96.019  82.478  77.371  1.00  0.00     0.100 C 
BRANCH   2   3
ATOM      3  C   UNL     1      96.261  83.033  76.020  1.00  0.00     0.220 C 
ATOM      4  N   UNL     1      97.171  82.449  75.188  1.00  0.00    -0.352 N 
ATOM      5  H   UNL     1      97.668  81.668  75.589  1.00  0.00     0.163 HD
ATOM      6  O   UNL     1      95.595  84.032  75.652  1.00  0.00    -0.275 OA
BRANCH   4   7
ATOM      7  C   UNL     1      97.446  82.861  73.845  1.00  0.00     0.151 C 
BRANCH   7   8
ATOM      8  C   UNL     1      98.897  83.054  73.575  1.00  0.00    -0.025 A 
ATOM      9  C   UNL     1     101.221  82.273  73.768  1.00  0.00     0.160 A 
ATOM     10  C   UNL     1     101.661  83.392  73.028  1.00  0.00     0.157 A 
ATOM     11  C   UNL     1      99.847  82.123  74.052  1.00  0.00     0.056 A 
ATOM     12  C   UNL     1     100.729  84.347  72.582  1.00  0.00     0.050 A 
ATOM     13  C   UNL     1      99.356  84.175  72.844  1.00  0.00     0.009 A 
BRANCH   9  14
ATOM     14  O   UNL     1     102.123  81.359  74.241  1.00  0.00    -0.493 OA
ATOM     15  C   UNL     1     101.535  80.097  74.602  1.00  0.00     0.278 C 
ENDBRANCH   9  14
BRANCH  10  16
ATOM     16  O   UNL     1     102.978  83.564  72.742  1.00  0.00    -0.504 OA
ATOM     17  H   UNL     1     103.188  84.500  72.752  1.00  0.00     0.293 HD
ENDBRANCH  10  16
ENDBRANCH   7   8
ENDBRANCH   4   7
ENDBRANCH   2   3
ENDBRANCH   1   2
BRANCH   1  18
ATOM     18  C   UNL     1      97.453  82.040  79.471  1.00  0.00     0.001 C 
BRANCH  18  19
ATOM     19  C   UNL     1      97.412  80.776  80.375  1.00  0.00     0.000 C 
BRANCH  19  20
ATOM     20  C   UNL     1      97.340  81.153  81.882  1.00  0.00     0.000 C 
BRANCH  20  21
ATOM     21  C   UNL     1      96.338  82.296  82.206  1.00  0.00     0.003 C 
BRANCH  21  22
ATOM     22  C   UNL     1      95.425  82.028  83.446  1.00  0.00    -0.017 C 
ATOM     23  C   UNL     1      95.846  82.934  84.637  1.00  0.00     0.007 C 
ATOM     24  C   UNL     1      95.387  80.534  83.885  1.00  0.00     0.007 C 
ENDBRANCH  21  22
ENDBRANCH  20  21
ENDBRANCH  19  20
ENDBRANCH  18  19
ENDBRANCH   1  18
TORSDOF 11
ENDMDL
MODEL 6
REMARK VINA RESULT:    -5.598      5.840     10.385
REMARK INTER + INTRA:          -9.814
REMARK INTER:                  -9.180
REMARK INTRA:                  -0.634
REMARK UNBOUND:                -0.780
REMARK SMILES COc1cc(CNC(=O)CCCCCCC(C)C)ccc1O
REMARK SMILES IDX 11 1 10 2 8 3 7 4 9 6 6 7 5 8 3 9 21 10 4 11 20 12 19 13
REMARK SMILES IDX 2 14 1 15 22 16 12 18 13 19 14 20 15 21 16 22 17 23 18 24
REMARK H PARENT 7 5 22 17
REMARK Flexibility Score: inf
ROOT
ATOM      1  C   UNL     1      93.667  97.353  74.555  1.00  0.00     0.010 C 
ENDROOT
BRANCH   1   2
ATOM      2  C   UNL     1      94.658  97.762  73.430  1.00  0.00     0.100 C 
BRANCH   2   3
ATOM      3  C   UNL     1      94.225  98.960  72.676  1.00  0.00     0.220 C 
ATOM      4  N   UNL     1      92.913  99.126  72.340  1.00  0.00    -0.352 N 
ATOM      5  H   UNL     1      92.310  98.362  72.607  1.00  0.00     0.163 HD
ATOM      6  O   UNL     1      95.084  99.825  72.377  1.00  0.00    -0.275 OA
BRANCH   4   7
ATOM      7  C   UNL     1      92.371 100.266  71.666  1.00  0.00     0.151 C 
BRANCH   7   8
ATOM      8  C   UNL     1      91.255  99.926  70.741  1.00  0.00    -0.025 A 
ATOM      9  C   UNL     1      89.782 100.532  68.867  1.00  0.00     0.160 A 
ATOM     10  C   UNL     1      89.159  99.267  68.945  1.00  0.00     0.157 A 
ATOM     11  C   UNL     1      90.810 100.858  69.776  1.00  0.00     0.056 A 
ATOM     12  C   UNL     1      89.567  98.345  69.926  1.00  0.00     0.050 A 
ATOM     13  C   UNL     1      90.614  98.666  70.811  1.00  0.00     0.009 A 
BRANCH   9  14
ATOM     14  O   UNL     1      89.367 101.451  67.942  1.00  0.00    -0.493 OA
ATOM     15  C   UNL     1      89.586 102.816  68.342  1.00  0.00     0.278 C 
ENDBRANCH   9  14
BRANCH  10  16
ATOM     16  O   UNL     1      88.165  98.926  68.083  1.00  0.00    -0.504 OA
ATOM     17  H   UNL     1      88.539  98.755  67.215  1.00  0.00     0.293 HD
ENDBRANCH  10  16
ENDBRANCH   7   8
ENDBRANCH   4   7
ENDBRANCH   2   3
ENDBRANCH   1   2
BRANCH   1  18
ATOM     18  C   UNL     1      94.275  96.291  75.515  1.00  0.00     0.001 C 
BRANCH  18  19
ATOM     19  C   UNL     1      93.308  95.119  75.845  1.00  0.00     0.000 C 
BRANCH  19  20
ATOM     20  C   UNL     1      92.910  95.111  77.347  1.00  0.00     0.000 C 
BRANCH  20  21
ATOM     21  C   UNL     1      93.576  93.979  78.178  1.00  0.00     0.003 C 
BRANCH  21  22
ATOM     22  C   UNL     1      95.110  94.165  78.418  1.00  0.00    -0.017 C 
ATOM     23  C   UNL     1      95.874  92.851  78.095  1.00  0.00     0.007 C 
ATOM     24  C   UNL     1      95.462  94.663  79.851  1.00  0.00     0.007 C 
ENDBRANCH  21  22
ENDBRANCH  20  21
ENDBRANCH  19  20
ENDBRANCH  18  19
ENDBRANCH   1  18
TORSDOF 11
ENDMDL
MODEL 7
REMARK VINA RESULT:    -5.542     22.887     27.633
REMARK INTER + INTRA:          -9.724
REMARK INTER:                  -8.752
REMARK INTRA:                  -0.972
REMARK UNBOUND:                -0.780
REMARK SMILES COc1cc(CNC(=O)CCCCCCC(C)C)ccc1O
REMARK SMILES IDX 11 1 10 2 8 3 7 4 9 6 6 7 5 8 3 9 21 10 4 11 20 12 19 13
REMARK SMILES IDX 2 14 1 15 22 16 12 18 13 19 14 20 15 21 16 22 17 23 18 24
REMARK H PARENT 7 5 22 17
REMARK Flexibility Score: inf
ROOT
ATOM      1  C   UNL     1      74.992  82.836  66.147  1.00  0.00     0.010 C 
ENDROOT
BRANCH   1   2
ATOM      2  C   UNL     1      74.439  81.477  65.634  1.00  0.00     0.100 C 
BRANCH   2   3
ATOM      3  C   UNL     1      73.267  81.622  64.743  1.00  0.00     0.220 C 
ATOM      4  N   UNL     1      72.027  81.239  65.166  1.00  0.00    -0.352 N 
ATOM      5  H   UNL     1      72.006  80.826  66.087  1.00  0.00     0.163 HD
ATOM      6  O   UNL     1      73.434  82.125  63.605  1.00  0.00    -0.275 OA
BRANCH   4   7
ATOM      7  C   UNL     1      70.817  81.385  64.417  1.00  0.00     0.151 C 
BRANCH   7   8
ATOM      8  C   UNL     1      69.858  82.344  65.031  1.00  0.00    -0.025 A 
ATOM      9  C   UNL     1      69.227  83.830  66.887  1.00  0.00     0.160 A 
ATOM     10  C   UNL     1      68.057  84.206  66.190  1.00  0.00     0.157 A 
ATOM     11  C   UNL     1      70.107  82.889  66.311  1.00  0.00     0.056 A 
ATOM     12  C   UNL     1      67.779  83.640  64.933  1.00  0.00     0.050 A 
ATOM     13  C   UNL     1      68.677  82.724  64.351  1.00  0.00     0.009 A 
BRANCH   9  14
ATOM     14  O   UNL     1      69.487  84.344  68.128  1.00  0.00    -0.493 OA
ATOM     15  C   UNL     1      70.450  85.413  68.122  1.00  0.00     0.278 C 
ENDBRANCH   9  14
BRANCH  10  16
ATOM     16  O   UNL     1      67.191  85.108  66.721  1.00  0.00    -0.504 OA
ATOM     17  H   UNL     1      66.753  84.721  67.483  1.00  0.00     0.293 HD
ENDBRANCH  10  16
ENDBRANCH   7   8
ENDBRANCH   4   7
ENDBRANCH   2   3
ENDBRANCH   1   2
BRANCH   1  18
ATOM     18  C   UNL     1      76.439  83.107  65.647  1.00  0.00     0.001 C 
BRANCH  18  19
ATOM     19  C   UNL     1      77.188  84.201  66.459  1.00  0.00     0.000 C 
BRANCH  19  20
ATOM     20  C   UNL     1      76.500  84.468  67.828  1.00  0.00     0.000 C 
BRANCH  20  21
ATOM     21  C   UNL     1      77.115  85.648  68.630  1.00  0.00     0.003 C 
BRANCH  21  22
ATOM     22  C   UNL     1      76.477  87.043  68.328  1.00  0.00    -0.017 C 
ATOM     23  C   UNL     1      74.999  86.878  67.875  1.00  0.00     0.007 C 
ATOM     24  C   UNL     1      77.275  87.884  67.289  1.00  0.00     0.007 C 
ENDBRANCH  21  22
ENDBRANCH  20  21
ENDBRANCH  19  20
ENDBRANCH  18  19
ENDBRANCH   1  18
TORSDOF 11
ENDMDL
MODEL 8
REMARK VINA RESULT:    -5.503     22.364     26.031
REMARK INTER + INTRA:          -9.660
REMARK INTER:                  -8.270
REMARK INTRA:                  -1.390
REMARK UNBOUND:                -0.780
REMARK SMILES COc1cc(CNC(=O)CCCCCCC(C)C)ccc1O
REMARK SMILES IDX 11 1 10 2 8 3 7 4 9 6 6 7 5 8 3 9 21 10 4 11 20 12 19 13
REMARK SMILES IDX 2 14 1 15 22 16 12 18 13 19 14 20 15 21 16 22 17 23 18 24
REMARK H PARENT 7 5 22 17
REMARK Flexibility Score: inf
ROOT
ATOM      1  C   UNL     1      69.571  83.320  65.892  1.00  0.00     0.010 C 
ENDROOT
BRANCH   1   2
ATOM      2  C   UNL     1      70.222  84.575  65.248  1.00  0.00     0.100 C 
BRANCH   2   3
ATOM      3  C   UNL     1      70.810  85.503  66.240  1.00  0.00     0.220 C 
ATOM      4  N   UNL     1      71.624  85.031  67.228  1.00  0.00    -0.352 N 
ATOM      5  H   UNL     1      71.738  84.028  67.236  1.00  0.00     0.163 HD
ATOM      6  O   UNL     1      70.564  86.730  66.136  1.00  0.00    -0.275 OA
BRANCH   4   7
ATOM      7  C   UNL     1      72.293  85.837  68.203  1.00  0.00     0.151 C 
BRANCH   7   8
ATOM      8  C   UNL     1      73.776  85.713  68.150  1.00  0.00    -0.025 A 
ATOM      9  C   UNL     1      75.875  85.792  66.871  1.00  0.00     0.160 A 
ATOM     10  C   UNL     1      76.605  85.521  68.049  1.00  0.00     0.157 A 
ATOM     11  C   UNL     1      74.467  85.867  66.927  1.00  0.00     0.056 A 
ATOM     12  C   UNL     1      75.925  85.328  69.265  1.00  0.00     0.050 A 
ATOM     13  C   UNL     1      74.522  85.433  69.319  1.00  0.00     0.009 A 
BRANCH   9  14
ATOM     14  O   UNL     1      76.523  85.943  65.676  1.00  0.00    -0.493 OA
ATOM     15  C   UNL     1      75.783  85.442  64.547  1.00  0.00     0.278 C 
ENDBRANCH   9  14
BRANCH  10  16
ATOM     16  O   UNL     1      77.962  85.442  68.025  1.00  0.00    -0.504 OA
ATOM     17  H   UNL     1      78.333  86.327  67.992  1.00  0.00     0.293 HD
ENDBRANCH  10  16
ENDBRANCH   7   8
ENDBRANCH   4   7
ENDBRANCH   2   3
ENDBRANCH   1   2
BRANCH   1  18
ATOM     18  C   UNL     1      70.390  82.027  65.616  1.00  0.00     0.001 C 
BRANCH  18  19
ATOM     19  C   UNL     1      70.663  81.769  64.107  1.00  0.00     0.000 C 
BRANCH  19  20
ATOM     20  C   UNL     1      71.876  80.819  63.900  1.00  0.00     0.000 C 
BRANCH  20  21
ATOM     21  C   UNL     1      73.216  81.550  63.612  1.00  0.00     0.003 C 
BRANCH  21  22
ATOM     22  C   UNL     1      74.279  81.434  64.753  1.00  0.00    -0.017 C 
ATOM     23  C   UNL     1      73.955  82.431  65.901  1.00  0.00     0.007 C 
ATOM     24  C   UNL     1      75.745  81.623  64.264  1.00  0.00     0.007 C 
ENDBRANCH  21  22
ENDBRANCH  20  21
ENDBRANCH  19  20
ENDBRANCH  18  19
ENDBRANCH   1  18
TORSDOF 11
ENDMDL
MODEL 9
REMARK VINA RESULT:    -5.466     11.955     13.831
REMARK INTER + INTRA:          -9.601
REMARK INTER:                  -8.698
REMARK INTRA:                  -0.903
REMARK UNBOUND:                -0.780
REMARK SMILES COc1cc(CNC(=O)CCCCCCC(C)C)ccc1O
REMARK SMILES IDX 11 1 10 2 8 3 7 4 9 6 6 7 5 8 3 9 21 10 4 11 20 12 19 13
REMARK SMILES IDX 2 14 1 15 22 16 12 18 13 19 14 20 15 21 16 22 17 23 18 24
REMARK H PARENT 7 5 22 17
REMARK Flexibility Score: inf
ROOT
ATOM      1  C   UNL     1      98.827  82.299  74.261  1.00  0.00     0.010 C 
ENDROOT
BRANCH   1   2
ATOM      2  C   UNL     1      97.580  83.223  74.175  1.00  0.00     0.100 C 
BRANCH   2   3
ATOM      3  C   UNL     1      96.713  83.149  75.372  1.00  0.00     0.220 C 
ATOM      4  N   UNL     1      97.148  82.515  76.499  1.00  0.00    -0.352 N 
ATOM      5  H   UNL     1      98.057  82.085  76.417  1.00  0.00     0.163 HD
ATOM      6  O   UNL     1      95.587  83.701  75.334  1.00  0.00    -0.275 OA
BRANCH   4   7
ATOM      7  C   UNL     1      96.424  82.432  77.731  1.00  0.00     0.151 C 
BRANCH   7   8
ATOM      8  C   UNL     1      97.165  81.708  78.800  1.00  0.00    -0.025 A 
ATOM      9  C   UNL     1      97.652  81.346  81.184  1.00  0.00     0.160 A 
ATOM     10  C   UNL     1      98.542  80.303  80.846  1.00  0.00     0.157 A 
ATOM     11  C   UNL     1      96.986  82.051  80.159  1.00  0.00     0.056 A 
ATOM     12  C   UNL     1      98.760  79.979  79.494  1.00  0.00     0.050 A 
ATOM     13  C   UNL     1      98.069  80.668  78.478  1.00  0.00     0.009 A 
BRANCH   9  14
ATOM     14  O   UNL     1      97.463  81.696  82.493  1.00  0.00    -0.493 OA
ATOM     15  C   UNL     1      96.406  82.652  82.691  1.00  0.00     0.278 C 
ENDBRANCH   9  14
BRANCH  10  16
ATOM     16  O   UNL     1      99.199  79.608  81.811  1.00  0.00    -0.504 OA
ATOM     17  H   UNL     1     100.139  79.797  81.758  1.00  0.00     0.293 HD
ENDBRANCH  10  16
ENDBRANCH   7   8
ENDBRANCH   4   7
ENDBRANCH   2   3
ENDBRANCH   1   2
BRANCH   1  18
ATOM     18  C   UNL     1      99.988  82.794  73.352  1.00  0.00     0.001 C 
BRANCH  18  19
ATOM     19  C   UNL     1     100.018  82.120  71.952  1.00  0.00     0.000 C 
BRANCH  19  20
ATOM     20  C   UNL     1      99.469  80.666  72.005  1.00  0.00     0.000 C 
BRANCH  20  21
ATOM     21  C   UNL     1      98.844  80.172  70.671  1.00  0.00     0.003 C 
BRANCH  21  22
ATOM     22  C   UNL     1      97.591  79.251  70.841  1.00  0.00    -0.017 C 
ATOM     23  C   UNL     1      96.626  79.838  71.909  1.00  0.00     0.007 C 
ATOM     24  C   UNL     1      97.944  77.773  71.179  1.00  0.00     0.007 C 
ENDBRANCH  21  22
ENDBRANCH  20  21
ENDBRANCH  19  20
ENDBRANCH  18  19
ENDBRANCH   1  18
TORSDOF 11
ENDMDL
MODEL 10
REMARK VINA RESULT:    -5.377      5.185      9.806
REMARK INTER + INTRA:          -9.457
REMARK INTER:                  -8.677
REMARK INTRA:                  -0.780
REMARK UNBOUND:                -0.780
REMARK SMILES COc1cc(CNC(=O)CCCCCCC(C)C)ccc1O
REMARK SMILES IDX 11 1 10 2 8 3 7 4 9 6 6 7 5 8 3 9 21 10 4 11 20 12 19 13
REMARK SMILES IDX 2 14 1 15 22 16 12 18 13 19 14 20 15 21 16 22 17 23 18 24
REMARK H PARENT 7 5 22 17
REMARK Flexibility Score: inf
ROOT
ATOM      1  C   UNL     1      93.760  96.749  74.898  1.00  0.00     0.010 C 
ENDROOT
BRANCH   1   2
ATOM      2  C   UNL     1      94.668  96.994  73.661  1.00  0.00     0.100 C 
BRANCH   2   3
ATOM      3  C   UNL     1      94.593  98.380  73.146  1.00  0.00     0.220 C 
ATOM      4  N   UNL     1      93.382  98.973  72.938  1.00  0.00    -0.352 N 
ATOM      5  H   UNL     1      92.586  98.381  73.120  1.00  0.00     0.163 HD
ATOM      6  O   UNL     1      95.663  99.000  72.929  1.00  0.00    -0.275 OA
BRANCH   4   7
ATOM      7  C   UNL     1      93.188 100.322  72.500  1.00  0.00     0.151 C 
BRANCH   7   8
ATOM      8  C   UNL     1      92.125 100.455  71.466  1.00  0.00    -0.025 A 
ATOM      9  C   UNL     1      90.904  99.541  69.537  1.00  0.00     0.160 A 
ATOM     10  C   UNL     1      90.072 100.682  69.520  1.00  0.00     0.157 A 
ATOM     11  C   UNL     1      91.934  99.445  70.496  1.00  0.00     0.056 A 
ATOM     12  C   UNL     1      90.277 101.712  70.456  1.00  0.00     0.050 A 
ATOM     13  C   UNL     1      91.288 101.596  71.429  1.00  0.00     0.009 A 
BRANCH   9  14
ATOM     14  O   UNL     1      90.738  98.552  68.606  1.00  0.00    -0.493 OA
ATOM     15  C   UNL     1      89.890  97.476  69.048  1.00  0.00     0.278 C 
ENDBRANCH   9  14
BRANCH  10  16
ATOM     16  O   UNL     1      89.073 100.802  68.607  1.00  0.00    -0.504 OA
ATOM     17  H   UNL     1      89.407 101.244  67.823  1.00  0.00     0.293 HD
ENDBRANCH  10  16
ENDBRANCH   7   8
ENDBRANCH   4   7
ENDBRANCH   2   3
ENDBRANCH   1   2
BRANCH   1  18
ATOM     18  C   UNL     1      94.278  95.581  75.784  1.00  0.00     0.001 C 
BRANCH  18  19
ATOM     19  C   UNL     1      93.173  94.567  76.193  1.00  0.00     0.000 C 
BRANCH  19  20
ATOM     20  C   UNL     1      92.916  94.588  77.726  1.00  0.00     0.000 C 
BRANCH  20  21
ATOM     21  C   UNL     1      93.404  93.316  78.472  1.00  0.00     0.003 C 
BRANCH  21  22
ATOM     22  C   UNL     1      94.832  93.436  79.097  1.00  0.00    -0.017 C 
ATOM     23  C   UNL     1      95.187  94.927  79.359  1.00  0.00     0.007 C 
ATOM     24  C   UNL     1      95.945  92.751  78.251  1.00  0.00     0.007 C 
ENDBRANCH  21  22
ENDBRANCH  20  21
ENDBRANCH  19  20
ENDBRANCH  18  19
ENDBRANCH   1  18
TORSDOF 11
ENDMDL
