MODEL 1
REMARK VINA RESULT:    -5.407      0.000      0.000
REMARK INTER + INTRA:         -11.199
REMARK INTER:                  -9.043
REMARK INTRA:                  -2.156
REMARK UNBOUND:                -2.156
REMARK SMILES COc1cc(CNC(=O)CCCCCCCC(C)C)ccc1O
REMARK SMILES IDX 11 1 10 2 8 3 9 4 7 5 6 7 5 8 4 9 20 10 3 11 21 12 22 13
REMARK SMILES IDX 2 14 1 15 23 16 12 18 13 19 14 20 15 21 16 22 17 23 18 24
REMARK SMILES IDX 19 25
REMARK H PARENT 7 6 23 17
REMARK Flexibility Score: inf
ROOT
ATOM      1  C   UNL     1      70.873  83.587  66.190  1.00  0.00     0.010 C 
ENDROOT
BRANCH   1   2
ATOM      2  C   UNL     1      69.813  84.106  67.159  1.00  0.00     0.100 C 
BRANCH   2   3
ATOM      3  C   UNL     1      70.376  85.117  68.144  1.00  0.00     0.220 C 
ATOM      4  O   UNL     1      69.751  85.529  69.117  1.00  0.00    -0.275 OA
ATOM      5  N   UNL     1      71.660  85.507  67.797  1.00  0.00    -0.352 N 
ATOM      6  H   UNL     1      72.095  85.119  66.964  1.00  0.00     0.163 HD
BRANCH   5   7
ATOM      7  C   UNL     1      72.422  86.467  68.563  1.00  0.00     0.151 C 
BRANCH   7   8
ATOM      8  C   UNL     1      73.899  86.226  68.455  1.00  0.00    -0.025 A 
ATOM      9  C   UNL     1      74.651  86.958  67.544  1.00  0.00     0.056 A 
ATOM     10  C   UNL     1      74.501  85.272  69.266  1.00  0.00     0.009 A 
ATOM     11  C   UNL     1      76.024  86.734  67.443  1.00  0.00     0.160 A 
ATOM     12  C   UNL     1      75.874  85.047  69.165  1.00  0.00     0.050 A 
ATOM     13  C   UNL     1      76.636  85.778  68.254  1.00  0.00     0.157 A 
BRANCH  11  14
ATOM     14  O   UNL     1      76.757  87.454  66.549  1.00  0.00    -0.493 OA
ATOM     15  C   UNL     1      77.239  88.726  66.981  1.00  0.00     0.278 C 
ENDBRANCH  11  14
BRANCH  13  16
ATOM     16  O   UNL     1      77.976  85.550  68.166  1.00  0.00    -0.504 OA
ATOM     17  H   UNL     1      78.372  86.217  67.579  1.00  0.00     0.293 HD
ENDBRANCH  13  16
ENDBRANCH   7   8
ENDBRANCH   5   7
ENDBRANCH   2   3
ENDBRANCH   1   2
BRANCH   1  18
ATOM     18  C   UNL     1      70.477  82.281  65.495  1.00  0.00     0.001 C 
BRANCH  18  19
ATOM     19  C   UNL     1      71.246  81.952  64.211  1.00  0.00     0.000 C 
BRANCH  19  20
ATOM     20  C   UNL     1      72.339  80.899  64.413  1.00  0.00     0.000 C 
BRANCH  20  21
ATOM     21  C   UNL     1      73.753  81.489  64.463  1.00  0.00     0.000 C 
BRANCH  21  22
ATOM     22  C   UNL     1      74.240  81.775  65.888  1.00  0.00     0.003 C 
BRANCH  22  23
ATOM     23  C   UNL     1      74.911  83.153  66.042  1.00  0.00    -0.017 C 
ATOM     24  C   UNL     1      74.223  84.169  65.128  1.00  0.00     0.007 C 
ATOM     25  C   UNL     1      76.408  83.115  65.733  1.00  0.00     0.007 C 
ENDBRANCH  22  23
ENDBRANCH  21  22
ENDBRANCH  20  21
ENDBRANCH  19  20
ENDBRANCH  18  19
ENDBRANCH   1  18
TORSDOF 12
ENDMDL
MODEL 2
REMARK VINA RESULT:    -5.116     24.859     27.338
REMARK INTER + INTRA:         -10.712
REMARK INTER:                  -9.794
REMARK INTRA:                  -0.918
REMARK UNBOUND:                -2.156
REMARK SMILES COc1cc(CNC(=O)CCCCCCCC(C)C)ccc1O
REMARK SMILES IDX 11 1 10 2 8 3 9 4 7 5 6 7 5 8 4 9 20 10 3 11 21 12 22 13
REMARK SMILES IDX 2 14 1 15 23 16 12 18 13 19 14 20 15 21 16 22 17 23 18 24
REMARK SMILES IDX 19 25
REMARK H PARENT 7 6 23 17
REMARK Flexibility Score: inf
ROOT
ATOM      1  C   UNL     1      96.798  81.542  77.166  1.00  0.00     0.010 C 
ENDROOT
BRANCH   1   2
ATOM      2  C   UNL     1      98.049  81.691  78.030  1.00  0.00     0.100 C 
BRANCH   2   3
ATOM      3  C   UNL     1      98.010  80.803  79.262  1.00  0.00     0.220 C 
ATOM      4  O   UNL     1      98.107  79.580  79.214  1.00  0.00    -0.275 OA
ATOM      5  N   UNL     1      97.847  81.546  80.422  1.00  0.00    -0.352 N 
ATOM      6  H   UNL     1      97.765  82.558  80.362  1.00  0.00     0.163 HD
BRANCH   5   7
ATOM      7  C   UNL     1      97.770  80.945  81.733  1.00  0.00     0.151 C 
BRANCH   7   8
ATOM      8  C   UNL     1      97.033  81.817  82.708  1.00  0.00    -0.025 A 
ATOM      9  C   UNL     1      96.823  81.370  84.007  1.00  0.00     0.056 A 
ATOM     10  C   UNL     1      96.567  83.061  82.301  1.00  0.00     0.009 A 
ATOM     11  C   UNL     1      96.137  82.181  84.913  1.00  0.00     0.160 A 
ATOM     12  C   UNL     1      95.881  83.871  83.207  1.00  0.00     0.050 A 
ATOM     13  C   UNL     1      95.666  83.431  84.513  1.00  0.00     0.157 A 
BRANCH  11  14
ATOM     14  O   UNL     1      95.933  81.740  86.186  1.00  0.00    -0.493 OA
ATOM     15  C   UNL     1      96.334  80.402  86.480  1.00  0.00     0.278 C 
ENDBRANCH  11  14
BRANCH  13  16
ATOM     16  O   UNL     1      94.997  84.232  85.388  1.00  0.00    -0.504 OA
ATOM     17  H   UNL     1      95.506  85.050  85.522  1.00  0.00     0.293 HD
ENDBRANCH  13  16
ENDBRANCH   7   8
ENDBRANCH   5   7
ENDBRANCH   2   3
ENDBRANCH   1   2
BRANCH   1  18
ATOM     18  C   UNL     1      95.919  82.795  77.143  1.00  0.00     0.001 C 
BRANCH  18  19
ATOM     19  C   UNL     1      95.935  83.594  75.835  1.00  0.00     0.000 C 
BRANCH  19  20
ATOM     20  C   UNL     1      96.495  82.802  74.650  1.00  0.00     0.000 C 
BRANCH  20  21
ATOM     21  C   UNL     1      97.650  83.512  73.933  1.00  0.00     0.000 C 
BRANCH  21  22
ATOM     22  C   UNL     1      98.992  82.789  74.085  1.00  0.00     0.003 C 
BRANCH  22  23
ATOM     23  C   UNL     1     100.041  83.217  73.040  1.00  0.00    -0.017 C 
ATOM     24  C   UNL     1      99.706  84.614  72.512  1.00  0.00     0.007 C 
ATOM     25  C   UNL     1     100.138  82.236  71.871  1.00  0.00     0.007 C 
ENDBRANCH  22  23
ENDBRANCH  21  22
ENDBRANCH  20  21
ENDBRANCH  19  20
ENDBRANCH  18  19
ENDBRANCH   1  18
TORSDOF 12
ENDMDL
MODEL 3
REMARK VINA RESULT:    -5.019     21.394     24.336
REMARK INTER + INTRA:         -10.550
REMARK INTER:                  -9.494
REMARK INTRA:                  -1.055
REMARK UNBOUND:                -2.156
REMARK SMILES COc1cc(CNC(=O)CCCCCCCC(C)C)ccc1O
REMARK SMILES IDX 11 1 10 2 8 3 9 4 7 5 6 7 5 8 4 9 20 10 3 11 21 12 22 13
REMARK SMILES IDX 2 14 1 15 23 16 12 18 13 19 14 20 15 21 16 22 17 23 18 24
REMARK SMILES IDX 19 25
REMARK H PARENT 7 6 23 17
REMARK Flexibility Score: inf
ROOT
ATOM      1  C   UNL     1      90.644  99.421  70.488  1.00  0.00     0.010 C 
ENDROOT
BRANCH   1   2
ATOM      2  C   UNL     1      91.887  99.708  69.647  1.00  0.00     0.100 C 
BRANCH   2   3
ATOM      3  C   UNL     1      93.083 100.101  70.498  1.00  0.00     0.220 C 
ATOM      4  O   UNL     1      94.162 100.446  70.025  1.00  0.00    -0.275 OA
ATOM      5  N   UNL     1      92.797 100.011  71.852  1.00  0.00    -0.352 N 
ATOM      6  H   UNL     1      91.875  99.704  72.151  1.00  0.00     0.163 HD
BRANCH   5   7
ATOM      7  C   UNL     1      93.764 100.322  72.880  1.00  0.00     0.151 C 
BRANCH   7   8
ATOM      8  C   UNL     1      94.200  99.097  73.629  1.00  0.00    -0.025 A 
ATOM      9  C   UNL     1      95.493  99.022  74.133  1.00  0.00     0.056 A 
ATOM     10  C   UNL     1      93.305  98.049  73.811  1.00  0.00     0.009 A 
ATOM     11  C   UNL     1      95.897  97.883  74.829  1.00  0.00     0.160 A 
ATOM     12  C   UNL     1      93.711  96.909  74.507  1.00  0.00     0.050 A 
ATOM     13  C   UNL     1      95.006  96.826  75.016  1.00  0.00     0.157 A 
BRANCH  11  14
ATOM     14  O   UNL     1      97.166  97.814  75.321  1.00  0.00    -0.493 OA
ATOM     15  C   UNL     1      98.196  97.444  74.405  1.00  0.00     0.278 C 
ENDBRANCH  11  14
BRANCH  13  16
ATOM     16  O   UNL     1      95.390  95.709  75.695  1.00  0.00    -0.504 OA
ATOM     17  H   UNL     1      94.611  95.146  75.842  1.00  0.00     0.293 HD
ENDBRANCH  13  16
ENDBRANCH   7   8
ENDBRANCH   5   7
ENDBRANCH   2   3
ENDBRANCH   1   2
BRANCH   1  18
ATOM     18  C   UNL     1      89.925  98.129  70.092  1.00  0.00     0.001 C 
BRANCH  18  19
ATOM     19  C   UNL     1      90.172  97.643  68.659  1.00  0.00     0.000 C 
BRANCH  19  20
ATOM     20  C   UNL     1      88.977  97.868  67.729  1.00  0.00     0.000 C 
BRANCH  20  21
ATOM     21  C   UNL     1      89.321  98.691  66.483  1.00  0.00     0.000 C 
BRANCH  21  22
ATOM     22  C   UNL     1      89.344 100.201  66.740  1.00  0.00     0.003 C 
BRANCH  22  23
ATOM     23  C   UNL     1      87.946 100.803  66.986  1.00  0.00    -0.017 C 
ATOM     24  C   UNL     1      86.892  99.988  66.234  1.00  0.00     0.007 C 
ATOM     25  C   UNL     1      87.858 102.270  66.565  1.00  0.00     0.007 C 
ENDBRANCH  22  23
ENDBRANCH  21  22
ENDBRANCH  20  21
ENDBRANCH  19  20
ENDBRANCH  18  19
ENDBRANCH   1  18
TORSDOF 12
ENDMDL
MODEL 4
REMARK VINA RESULT:    -4.970      2.402      5.363
REMARK INTER + INTRA:         -10.467
REMARK INTER:                  -9.120
REMARK INTRA:                  -1.347
REMARK UNBOUND:                -2.156
REMARK SMILES COc1cc(CNC(=O)CCCCCCCC(C)C)ccc1O
REMARK SMILES IDX 11 1 10 2 8 3 9 4 7 5 6 7 5 8 4 9 20 10 3 11 21 12 22 13
REMARK SMILES IDX 2 14 1 15 23 16 12 18 13 19 14 20 15 21 16 22 17 23 18 24
REMARK SMILES IDX 19 25
REMARK H PARENT 7 6 23 17
REMARK Flexibility Score: inf
ROOT
ATOM      1  C   UNL     1      73.539  81.510  63.807  1.00  0.00     0.010 C 
ENDROOT
BRANCH   1   2
ATOM      2  C   UNL     1      72.219  80.745  63.725  1.00  0.00     0.100 C 
BRANCH   2   3
ATOM      3  C   UNL     1      71.018  81.632  64.004  1.00  0.00     0.220 C 
ATOM      4  O   UNL     1      70.296  82.087  63.122  1.00  0.00    -0.275 OA
ATOM      5  N   UNL     1      70.857  81.859  65.363  1.00  0.00    -0.352 N 
ATOM      6  H   UNL     1      71.513  81.448  66.022  1.00  0.00     0.163 HD
BRANCH   5   7
ATOM      7  C   UNL     1      69.795  82.678  65.901  1.00  0.00     0.151 C 
BRANCH   7   8
ATOM      8  C   UNL     1      70.325  83.848  66.676  1.00  0.00    -0.025 A 
ATOM      9  C   UNL     1      69.613  84.330  67.767  1.00  0.00     0.056 A 
ATOM     10  C   UNL     1      71.523  84.439  66.293  1.00  0.00     0.009 A 
ATOM     11  C   UNL     1      70.106  85.418  68.487  1.00  0.00     0.160 A 
ATOM     12  C   UNL     1      72.016  85.528  67.013  1.00  0.00     0.050 A 
ATOM     13  C   UNL     1      71.308  86.018  68.110  1.00  0.00     0.157 A 
BRANCH  11  14
ATOM     14  O   UNL     1      69.405  85.888  69.557  1.00  0.00    -0.493 OA
ATOM     15  C   UNL     1      69.122  84.961  70.604  1.00  0.00     0.278 C 
ENDBRANCH  11  14
BRANCH  13  16
ATOM     16  O   UNL     1      71.800  87.081  68.805  1.00  0.00    -0.504 OA
ATOM     17  H   UNL     1      72.660  86.837  69.189  1.00  0.00     0.293 HD
ENDBRANCH  13  16
ENDBRANCH   7   8
ENDBRANCH   5   7
ENDBRANCH   2   3
ENDBRANCH   1   2
BRANCH   1  18
ATOM     18  C   UNL     1      74.212  81.420  65.179  1.00  0.00     0.001 C 
BRANCH  18  19
ATOM     19  C   UNL     1      75.694  81.807  65.219  1.00  0.00     0.000 C 
BRANCH  19  20
ATOM     20  C   UNL     1      75.930  83.315  65.095  1.00  0.00     0.000 C 
BRANCH  20  21
ATOM     21  C   UNL     1      76.507  83.948  66.365  1.00  0.00     0.000 C 
BRANCH  21  22
ATOM     22  C   UNL     1      75.463  84.158  67.467  1.00  0.00     0.003 C 
BRANCH  22  23
ATOM     23  C   UNL     1      76.072  84.580  68.818  1.00  0.00    -0.017 C 
ATOM     24  C   UNL     1      74.959  85.007  69.777  1.00  0.00     0.007 C 
ATOM     25  C   UNL     1      77.089  85.713  68.674  1.00  0.00     0.007 C 
ENDBRANCH  22  23
ENDBRANCH  21  22
ENDBRANCH  20  21
ENDBRANCH  19  20
ENDBRANCH  18  19
ENDBRANCH   1  18
TORSDOF 12
ENDMDL
MODEL 5
REMARK VINA RESULT:    -4.965     24.764     26.747
REMARK INTER + INTRA:         -10.459
REMARK INTER:                  -9.308
REMARK INTRA:                  -1.151
REMARK UNBOUND:                -2.156
REMARK SMILES COc1cc(CNC(=O)CCCCCCCC(C)C)ccc1O
REMARK SMILES IDX 11 1 10 2 8 3 9 4 7 5 6 7 5 8 4 9 20 10 3 11 21 12 22 13
REMARK SMILES IDX 2 14 1 15 23 16 12 18 13 19 14 20 15 21 16 22 17 23 18 24
REMARK SMILES IDX 19 25
REMARK H PARENT 7 6 23 17
REMARK Flexibility Score: inf
ROOT
ATOM      1  C   UNL     1      97.151  81.679  77.489  1.00  0.00     0.010 C 
ENDROOT
BRANCH   1   2
ATOM      2  C   UNL     1      97.782  82.034  78.834  1.00  0.00     0.100 C 
BRANCH   2   3
ATOM      3  C   UNL     1      97.364  81.077  79.939  1.00  0.00     0.220 C 
ATOM      4  O   UNL     1      97.439  79.856  79.837  1.00  0.00    -0.275 OA
ATOM      5  N   UNL     1      96.889  81.759  81.050  1.00  0.00    -0.352 N 
ATOM      6  H   UNL     1      96.854  82.774  81.039  1.00  0.00     0.163 HD
BRANCH   5   7
ATOM      7  C   UNL     1      96.419  81.086  82.239  1.00  0.00     0.151 C 
BRANCH   7   8
ATOM      8  C   UNL     1      95.849  82.049  83.240  1.00  0.00    -0.025 A 
ATOM      9  C   UNL     1      94.953  81.593  84.199  1.00  0.00     0.056 A 
ATOM     10  C   UNL     1      96.222  83.386  83.196  1.00  0.00     0.009 A 
ATOM     11  C   UNL     1      94.423  82.488  85.129  1.00  0.00     0.160 A 
ATOM     12  C   UNL     1      95.692  84.282  84.126  1.00  0.00     0.050 A 
ATOM     13  C   UNL     1      94.792  83.833  85.092  1.00  0.00     0.157 A 
BRANCH  11  14
ATOM     14  O   UNL     1      93.544  82.037  86.068  1.00  0.00    -0.493 OA
ATOM     15  C   UNL     1      92.208  81.785  85.636  1.00  0.00     0.278 C 
ENDBRANCH  11  14
BRANCH  13  16
ATOM     16  O   UNL     1      94.282  84.716  85.995  1.00  0.00    -0.504 OA
ATOM     17  H   UNL     1      94.794  85.542  85.954  1.00  0.00     0.293 HD
ENDBRANCH  13  16
ENDBRANCH   7   8
ENDBRANCH   5   7
ENDBRANCH   2   3
ENDBRANCH   1   2
BRANCH   1  18
ATOM     18  C   UNL     1      95.847  82.430  77.210  1.00  0.00     0.001 C 
BRANCH  18  19
ATOM     19  C   UNL     1      95.868  83.374  76.003  1.00  0.00     0.000 C 
BRANCH  19  20
ATOM     20  C   UNL     1      97.063  83.141  75.074  1.00  0.00     0.000 C 
BRANCH  20  21
ATOM     21  C   UNL     1      96.754  82.193  73.910  1.00  0.00     0.000 C 
BRANCH  21  22
ATOM     22  C   UNL     1      98.009  81.603  73.259  1.00  0.00     0.003 C 
BRANCH  22  23
ATOM     23  C   UNL     1      98.463  80.273  73.892  1.00  0.00    -0.017 C 
ATOM     24  C   UNL     1      97.257  79.554  74.503  1.00  0.00     0.007 C 
ATOM     25  C   UNL     1      99.539  80.469  74.960  1.00  0.00     0.007 C 
ENDBRANCH  22  23
ENDBRANCH  21  22
ENDBRANCH  20  21
ENDBRANCH  19  20
ENDBRANCH  18  19
ENDBRANCH   1  18
TORSDOF 12
ENDMDL
MODEL 6
REMARK VINA RESULT:    -4.844     12.879     16.680
REMARK INTER + INTRA:         -10.256
REMARK INTER:                  -9.329
REMARK INTRA:                  -0.927
REMARK UNBOUND:                -2.156
REMARK SMILES COc1cc(CNC(=O)CCCCCCCC(C)C)ccc1O
REMARK SMILES IDX 11 1 10 2 8 3 9 4 7 5 6 7 5 8 4 9 20 10 3 11 21 12 22 13
REMARK SMILES IDX 2 14 1 15 23 16 12 18 13 19 14 20 15 21 16 22 17 23 18 24
REMARK SMILES IDX 19 25
REMARK H PARENT 7 6 23 17
REMARK Flexibility Score: inf
ROOT
ATOM      1  C   UNL     1      57.807  87.110  70.431  1.00  0.00     0.010 C 
ENDROOT
BRANCH   1   2
ATOM      2  C   UNL     1      57.179  85.718  70.398  1.00  0.00     0.100 C 
BRANCH   2   3
ATOM      3  C   UNL     1      57.592  84.869  71.590  1.00  0.00     0.220 C 
ATOM      4  O   UNL     1      56.802  84.187  72.236  1.00  0.00    -0.275 OA
ATOM      5  N   UNL     1      58.951  84.976  71.845  1.00  0.00    -0.352 N 
ATOM      6  H   UNL     1      59.526  85.576  71.260  1.00  0.00     0.163 HD
BRANCH   5   7
ATOM      7  C   UNL     1      59.601  84.276  72.929  1.00  0.00     0.151 C 
BRANCH   7   8
ATOM      8  C   UNL     1      60.815  83.525  72.464  1.00  0.00    -0.025 A 
ATOM      9  C   UNL     1      61.466  83.922  71.302  1.00  0.00     0.056 A 
ATOM     10  C   UNL     1      61.276  82.441  73.201  1.00  0.00     0.009 A 
ATOM     11  C   UNL     1      62.594  83.224  70.871  1.00  0.00     0.160 A 
ATOM     12  C   UNL     1      62.404  81.743  72.769  1.00  0.00     0.050 A 
ATOM     13  C   UNL     1      63.063  82.134  71.604  1.00  0.00     0.157 A 
BRANCH  11  14
ATOM     14  O   UNL     1      63.229  83.616  69.730  1.00  0.00    -0.493 OA
ATOM     15  C   UNL     1      62.654  84.704  69.010  1.00  0.00     0.278 C 
ENDBRANCH  11  14
BRANCH  13  16
ATOM     16  O   UNL     1      64.164  81.445  71.193  1.00  0.00    -0.504 OA
ATOM     17  H   UNL     1      64.954  81.991  71.344  1.00  0.00     0.293 HD
ENDBRANCH  13  16
ENDBRANCH   7   8
ENDBRANCH   5   7
ENDBRANCH   2   3
ENDBRANCH   1   2
BRANCH   1  18
ATOM     18  C   UNL     1      56.813  88.220  70.784  1.00  0.00     0.001 C 
BRANCH  18  19
ATOM     19  C   UNL     1      55.949  88.730  69.626  1.00  0.00     0.000 C 
BRANCH  19  20
ATOM     20  C   UNL     1      54.838  89.683  70.075  1.00  0.00     0.000 C 
BRANCH  20  21
ATOM     21  C   UNL     1      53.627  89.694  69.135  1.00  0.00     0.000 C 
BRANCH  21  22
ATOM     22  C   UNL     1      53.610  88.517  68.154  1.00  0.00     0.003 C 
BRANCH  22  23
ATOM     23  C   UNL     1      53.506  88.948  66.679  1.00  0.00    -0.017 C 
ATOM     24  C   UNL     1      54.884  88.869  66.017  1.00  0.00     0.007 C 
ATOM     25  C   UNL     1      52.940  90.360  66.520  1.00  0.00     0.007 C 
ENDBRANCH  22  23
ENDBRANCH  21  22
ENDBRANCH  20  21
ENDBRANCH  19  20
ENDBRANCH  18  19
ENDBRANCH   1  18
TORSDOF 12
ENDMDL
MODEL 7
REMARK VINA RESULT:    -4.761     24.595     27.106
REMARK INTER + INTRA:         -10.117
REMARK INTER:                  -8.886
REMARK INTRA:                  -1.231
REMARK UNBOUND:                -2.156
REMARK SMILES COc1cc(CNC(=O)CCCCCCCC(C)C)ccc1O
REMARK SMILES IDX 11 1 10 2 8 3 9 4 7 5 6 7 5 8 4 9 20 10 3 11 21 12 22 13
REMARK SMILES IDX 2 14 1 15 23 16 12 18 13 19 14 20 15 21 16 22 17 23 18 24
REMARK SMILES IDX 19 25
REMARK H PARENT 7 6 23 17
REMARK Flexibility Score: inf
ROOT
ATOM      1  C   UNL     1      97.213  81.806  78.315  1.00  0.00     0.010 C 
ENDROOT
BRANCH   1   2
ATOM      2  C   UNL     1      96.160  81.717  77.212  1.00  0.00     0.100 C 
BRANCH   2   3
ATOM      3  C   UNL     1      96.235  82.888  76.246  1.00  0.00     0.220 C 
ATOM      4  O   UNL     1      95.490  83.862  76.309  1.00  0.00    -0.275 OA
ATOM      5  N   UNL     1      97.232  82.705  75.299  1.00  0.00    -0.352 N 
ATOM      6  H   UNL     1      97.793  81.858  75.319  1.00  0.00     0.163 HD
BRANCH   5   7
ATOM      7  C   UNL     1      97.509  83.667  74.258  1.00  0.00     0.151 C 
BRANCH   7   8
ATOM      8  C   UNL     1      98.601  83.202  73.340  1.00  0.00    -0.025 A 
ATOM      9  C   UNL     1      98.747  81.845  73.077  1.00  0.00     0.056 A 
ATOM     10  C   UNL     1      99.456  84.133  72.763  1.00  0.00     0.009 A 
ATOM     11  C   UNL     1      99.763  81.413  72.224  1.00  0.00     0.160 A 
ATOM     12  C   UNL     1     100.473  83.700  71.910  1.00  0.00     0.050 A 
ATOM     13  C   UNL     1     100.626  82.340  71.641  1.00  0.00     0.157 A 
BRANCH  11  14
ATOM     14  O   UNL     1      99.903  80.082  71.969  1.00  0.00    -0.493 OA
ATOM     15  C   UNL     1     100.280  79.248  73.064  1.00  0.00     0.278 C 
ENDBRANCH  11  14
BRANCH  13  16
ATOM     16  O   UNL     1     101.621  81.930  70.806  1.00  0.00    -0.504 OA
ATOM     17  H   UNL     1     101.774  80.979  70.938  1.00  0.00     0.293 HD
ENDBRANCH  13  16
ENDBRANCH   7   8
ENDBRANCH   5   7
ENDBRANCH   2   3
ENDBRANCH   1   2
BRANCH   1  18
ATOM     18  C   UNL     1      98.069  80.543  78.444  1.00  0.00     0.001 C 
BRANCH  18  19
ATOM     19  C   UNL     1      99.228  80.625  79.444  1.00  0.00     0.000 C 
BRANCH  19  20
ATOM     20  C   UNL     1      98.880  80.052  80.821  1.00  0.00     0.000 C 
BRANCH  20  21
ATOM     21  C   UNL     1      97.488  79.413  80.881  1.00  0.00     0.000 C 
BRANCH  21  22
ATOM     22  C   UNL     1      96.542  80.112  81.863  1.00  0.00     0.003 C 
BRANCH  22  23
ATOM     23  C   UNL     1      97.066  81.476  82.354  1.00  0.00    -0.017 C 
ATOM     24  C   UNL     1      97.078  81.504  83.885  1.00  0.00     0.007 C 
ATOM     25  C   UNL     1      96.237  82.647  81.825  1.00  0.00     0.007 C 
ENDBRANCH  22  23
ENDBRANCH  21  22
ENDBRANCH  20  21
ENDBRANCH  19  20
ENDBRANCH  18  19
ENDBRANCH   1  18
TORSDOF 12
ENDMDL
MODEL 8
REMARK VINA RESULT:    -4.667      3.464      7.862
REMARK INTER + INTRA:          -9.961
REMARK INTER:                  -8.698
REMARK INTRA:                  -1.263
REMARK UNBOUND:                -2.156
REMARK SMILES COc1cc(CNC(=O)CCCCCCCC(C)C)ccc1O
REMARK SMILES IDX 11 1 10 2 8 3 9 4 7 5 6 7 5 8 4 9 20 10 3 11 21 12 22 13
REMARK SMILES IDX 2 14 1 15 23 16 12 18 13 19 14 20 15 21 16 22 17 23 18 24
REMARK SMILES IDX 19 25
REMARK H PARENT 7 6 23 17
REMARK Flexibility Score: inf
ROOT
ATOM      1  C   UNL     1      73.772  85.529  68.318  1.00  0.00     0.010 C 
ENDROOT
BRANCH   1   2
ATOM      2  C   UNL     1      72.482  86.305  68.576  1.00  0.00     0.100 C 
BRANCH   2   3
ATOM      3  C   UNL     1      71.256  85.581  68.045  1.00  0.00     0.220 C 
ATOM      4  O   UNL     1      71.012  85.459  66.848  1.00  0.00    -0.275 OA
ATOM      5  N   UNL     1      70.464  85.097  69.075  1.00  0.00    -0.352 N 
ATOM      6  H   UNL     1      70.742  85.257  70.040  1.00  0.00     0.163 HD
BRANCH   5   7
ATOM      7  C   UNL     1      69.233  84.376  68.844  1.00  0.00     0.151 C 
BRANCH   7   8
ATOM      8  C   UNL     1      68.215  84.647  69.914  1.00  0.00    -0.025 A 
ATOM      9  C   UNL     1      66.878  84.348  69.682  1.00  0.00     0.056 A 
ATOM     10  C   UNL     1      68.621  85.194  71.125  1.00  0.00     0.009 A 
ATOM     11  C   UNL     1      65.932  84.600  70.676  1.00  0.00     0.160 A 
ATOM     12  C   UNL     1      67.674  85.447  72.119  1.00  0.00     0.050 A 
ATOM     13  C   UNL     1      66.330  85.150  71.895  1.00  0.00     0.157 A 
BRANCH  11  14
ATOM     14  O   UNL     1      64.622  84.306  70.445  1.00  0.00    -0.493 OA
ATOM     15  C   UNL     1      64.312  82.956  70.102  1.00  0.00     0.278 C 
ENDBRANCH  11  14
BRANCH  13  16
ATOM     16  O   UNL     1      65.416  85.400  72.873  1.00  0.00    -0.504 OA
ATOM     17  H   UNL     1      64.588  84.937  72.659  1.00  0.00     0.293 HD
ENDBRANCH  13  16
ENDBRANCH   7   8
ENDBRANCH   5   7
ENDBRANCH   2   3
ENDBRANCH   1   2
BRANCH   1  18
ATOM     18  C   UNL     1      74.630  85.339  69.572  1.00  0.00     0.001 C 
BRANCH  18  19
ATOM     19  C   UNL     1      76.135  85.177  69.329  1.00  0.00     0.000 C 
BRANCH  19  20
ATOM     20  C   UNL     1      76.482  84.867  67.870  1.00  0.00     0.000 C 
BRANCH  20  21
ATOM     21  C   UNL     1      77.179  86.026  67.150  1.00  0.00     0.000 C 
BRANCH  21  22
ATOM     22  C   UNL     1      77.171  87.331  67.952  1.00  0.00     0.003 C 
BRANCH  22  23
ATOM     23  C   UNL     1      76.144  88.360  67.440  1.00  0.00    -0.017 C 
ATOM     24  C   UNL     1      76.866  89.487  66.699  1.00  0.00     0.007 C 
ATOM     25  C   UNL     1      75.293  88.949  68.567  1.00  0.00     0.007 C 
ENDBRANCH  22  23
ENDBRANCH  21  22
ENDBRANCH  20  21
ENDBRANCH  19  20
ENDBRANCH  18  19
ENDBRANCH   1  18
TORSDOF 12
ENDMDL
MODEL 9
REMARK VINA RESULT:    -4.641     24.634     27.280
REMARK INTER + INTRA:          -9.917
REMARK INTER:                  -8.089
REMARK INTRA:                  -1.828
REMARK UNBOUND:                -2.156
REMARK SMILES COc1cc(CNC(=O)CCCCCCCC(C)C)ccc1O
REMARK SMILES IDX 11 1 10 2 8 3 9 4 7 5 6 7 5 8 4 9 20 10 3 11 21 12 22 13
REMARK SMILES IDX 2 14 1 15 23 16 12 18 13 19 14 20 15 21 16 22 17 23 18 24
REMARK SMILES IDX 19 25
REMARK H PARENT 7 6 23 17
REMARK Flexibility Score: inf
ROOT
ATOM      1  C   UNL     1      98.118  81.652  78.216  1.00  0.00     0.010 C 
ENDROOT
BRANCH   1   2
ATOM      2  C   UNL     1      96.673  82.141  78.289  1.00  0.00     0.100 C 
BRANCH   2   3
ATOM      3  C   UNL     1      96.230  82.828  77.008  1.00  0.00     0.220 C 
ATOM      4  O   UNL     1      95.221  83.524  76.931  1.00  0.00    -0.275 OA
ATOM      5  N   UNL     1      97.096  82.559  75.959  1.00  0.00    -0.352 N 
ATOM      6  H   UNL     1      97.903  81.960  76.115  1.00  0.00     0.163 HD
BRANCH   5   7
ATOM      7  C   UNL     1      96.901  83.083  74.627  1.00  0.00     0.151 C 
BRANCH   7   8
ATOM      8  C   UNL     1      97.947  82.589  73.670  1.00  0.00    -0.025 A 
ATOM      9  C   UNL     1      98.973  83.439  73.275  1.00  0.00     0.056 A 
ATOM     10  C   UNL     1      97.878  81.288  73.189  1.00  0.00     0.009 A 
ATOM     11  C   UNL     1      99.945  82.980  72.385  1.00  0.00     0.160 A 
ATOM     12  C   UNL     1      98.850  80.829  72.299  1.00  0.00     0.050 A 
ATOM     13  C   UNL     1      99.883  81.675  71.897  1.00  0.00     0.157 A 
BRANCH  11  14
ATOM     14  O   UNL     1     100.949  83.816  72.000  1.00  0.00    -0.493 OA
ATOM     15  C   UNL     1     101.955  84.110  72.968  1.00  0.00     0.278 C 
ENDBRANCH  11  14
BRANCH  13  16
ATOM     16  O   UNL     1     100.826  81.215  71.029  1.00  0.00    -0.504 OA
ATOM     17  H   UNL     1     100.392  80.672  70.348  1.00  0.00     0.293 HD
ENDBRANCH  13  16
ENDBRANCH   7   8
ENDBRANCH   5   7
ENDBRANCH   2   3
ENDBRANCH   1   2
BRANCH   1  18
ATOM     18  C   UNL     1      98.298  80.206  78.684  1.00  0.00     0.001 C 
BRANCH  18  19
ATOM     19  C   UNL     1      99.128  79.307  77.762  1.00  0.00     0.000 C 
BRANCH  19  20
ATOM     20  C   UNL     1      99.089  79.745  76.295  1.00  0.00     0.000 C 
BRANCH  20  21
ATOM     21  C   UNL     1     100.298  79.268  75.483  1.00  0.00     0.000 C 
BRANCH  21  22
ATOM     22  C   UNL     1     101.320  80.376  75.210  1.00  0.00     0.003 C 
BRANCH  22  23
ATOM     23  C   UNL     1     102.659  80.173  75.947  1.00  0.00    -0.017 C 
ATOM     24  C   UNL     1     103.810  80.175  74.938  1.00  0.00     0.007 C 
ATOM     25  C   UNL     1     102.689  78.878  76.759  1.00  0.00     0.007 C 
ENDBRANCH  22  23
ENDBRANCH  21  22
ENDBRANCH  20  21
ENDBRANCH  19  20
ENDBRANCH  18  19
ENDBRANCH   1  18
TORSDOF 12
ENDMDL
MODEL 10
REMARK VINA RESULT:    -4.598     25.260     28.811
REMARK INTER + INTRA:          -9.845
REMARK INTER:                  -9.094
REMARK INTRA:                  -0.751
REMARK UNBOUND:                -2.156
REMARK SMILES COc1cc(CNC(=O)CCCCCCCC(C)C)ccc1O
REMARK SMILES IDX 11 1 10 2 8 3 9 4 7 5 6 7 5 8 4 9 20 10 3 11 21 12 22 13
REMARK SMILES IDX 2 14 1 15 23 16 12 18 13 19 14 20 15 21 16 22 17 23 18 24
REMARK SMILES IDX 19 25
REMARK H PARENT 7 6 23 17
REMARK Flexibility Score: inf
ROOT
ATOM      1  C   UNL     1      93.994  84.765  88.070  1.00  0.00     0.010 C 
ENDROOT
BRANCH   1   2
ATOM      2  C   UNL     1      94.204  84.712  86.559  1.00  0.00     0.100 C 
BRANCH   2   3
ATOM      3  C   UNL     1      94.087  83.301  86.007  1.00  0.00     0.220 C 
ATOM      4  O   UNL     1      95.030  82.517  85.956  1.00  0.00    -0.275 OA
ATOM      5  N   UNL     1      92.798  83.030  85.570  1.00  0.00    -0.352 N 
ATOM      6  H   UNL     1      92.082  83.748  85.642  1.00  0.00     0.163 HD
BRANCH   5   7
ATOM      7  C   UNL     1      92.418  81.761  84.994  1.00  0.00     0.151 C 
BRANCH   7   8
ATOM      8  C   UNL     1      90.988  81.414  85.294  1.00  0.00    -0.025 A 
ATOM      9  C   UNL     1      90.538  81.433  86.609  1.00  0.00     0.056 A 
ATOM     10  C   UNL     1      90.130  81.078  84.254  1.00  0.00     0.009 A 
ATOM     11  C   UNL     1      89.210  81.110  86.888  1.00  0.00     0.160 A 
ATOM     12  C   UNL     1      88.802  80.754  84.534  1.00  0.00     0.050 A 
ATOM     13  C   UNL     1      88.341  80.770  85.850  1.00  0.00     0.157 A 
BRANCH  11  14
ATOM     14  O   UNL     1      88.772  81.129  88.178  1.00  0.00    -0.493 OA
ATOM     15  C   UNL     1      89.766  81.210  89.198  1.00  0.00     0.278 C 
ENDBRANCH  11  14
BRANCH  13  16
ATOM     16  O   UNL     1      87.042  80.454  86.110  1.00  0.00    -0.504 OA
ATOM     17  H   UNL     1      86.709  81.039  86.812  1.00  0.00     0.293 HD
ENDBRANCH  13  16
ENDBRANCH   7   8
ENDBRANCH   5   7
ENDBRANCH   2   3
ENDBRANCH   1   2
BRANCH   1  18
ATOM     18  C   UNL     1      94.721  85.931  88.747  1.00  0.00     0.001 C 
BRANCH  18  19
ATOM     19  C   UNL     1      96.011  86.396  88.063  1.00  0.00     0.000 C 
BRANCH  19  20
ATOM     20  C   UNL     1      96.075  87.913  87.860  1.00  0.00     0.000 C 
BRANCH  20  21
ATOM     21  C   UNL     1      95.780  88.712  89.134  1.00  0.00     0.000 C 
BRANCH  21  22
ATOM     22  C   UNL     1      94.611  89.689  88.980  1.00  0.00     0.003 C 
BRANCH  22  23
ATOM     23  C   UNL     1      94.943  91.122  89.441  1.00  0.00    -0.017 C 
ATOM     24  C   UNL     1      96.413  91.202  89.862  1.00  0.00     0.007 C 
ATOM     25  C   UNL     1      94.053  91.588  90.594  1.00  0.00     0.007 C 
ENDBRANCH  22  23
ENDBRANCH  21  22
ENDBRANCH  20  21
ENDBRANCH  19  20
ENDBRANCH  18  19
ENDBRANCH   1  18
TORSDOF 12
ENDMDL
