MODEL 1
REMARK VINA RESULT:    -6.045      0.000      0.000
REMARK INTER + INTRA:         -10.886
REMARK INTER:                  -9.933
REMARK INTRA:                  -0.953
REMARK UNBOUND:                -0.953
REMARK SMILES CCCCC[C@H](O)CC(=O)CCc1ccc(O)c(OC)c1
REMARK SMILES IDX 8 1 6 2 7 3 5 5 4 6 3 7 2 8 1 9 9 10 10 11 11 12 12 13 13 14
REMARK SMILES IDX 21 15 14 16 18 17 15 18 16 19 19 20 20 21 17 22
REMARK H PARENT 7 4 17 23
REMARK Flexibility Score: inf
ROOT
ATOM      1  C   UNL     1      95.083  96.739  76.173  1.00  0.00     0.107 C 
ENDROOT
BRANCH   1   2
ATOM      2  C   UNL     1      93.687  96.137  75.997  1.00  0.00     0.121 C 
BRANCH   2   3
ATOM      3  O   UNL     1      93.712  94.751  76.332  1.00  0.00    -0.393 OA
ATOM      4  H   UNL     1      94.292  94.301  75.693  1.00  0.00     0.210 HD
ENDBRANCH   2   3
BRANCH   2   5
ATOM      5  C   UNL     1      92.618  96.841  76.841  1.00  0.00     0.032 C 
BRANCH   5   6
ATOM      6  C   UNL     1      91.875  95.866  77.762  1.00  0.00     0.003 C 
BRANCH   6   7
ATOM      7  C   UNL     1      90.351  95.945  77.626  1.00  0.00    -0.000 C 
BRANCH   7   8
ATOM      8  C   UNL     1      89.672  94.579  77.540  1.00  0.00    -0.003 C 
ATOM      9  C   UNL     1      90.327  93.575  78.475  1.00  0.00     0.004 C 
ENDBRANCH   7   8
ENDBRANCH   6   7
ENDBRANCH   5   6
ENDBRANCH   2   5
ENDBRANCH   1   2
BRANCH   1  10
ATOM     10  C   UNL     1      95.057  98.234  76.446  1.00  0.00     0.135 C 
ATOM     11  O   UNL     1      94.638  99.024  75.601  1.00  0.00    -0.300 OA
BRANCH  10  12
ATOM     12  C   UNL     1      95.528  98.685  77.821  1.00  0.00     0.080 C 
BRANCH  12  13
ATOM     13  C   UNL     1      96.507  97.714  78.484  1.00  0.00     0.043 C 
BRANCH  13  14
ATOM     14  C   UNL     1      96.045  97.243  79.842  1.00  0.00    -0.044 A 
ATOM     15  C   UNL     1      95.987  95.878  80.124  1.00  0.00     0.054 A 
ATOM     16  C   UNL     1      95.676  98.172  80.814  1.00  0.00     0.008 A 
ATOM     17  C   UNL     1      95.561  95.443  81.379  1.00  0.00     0.160 A 
ATOM     18  C   UNL     1      95.249  97.738  82.069  1.00  0.00     0.050 A 
ATOM     19  C   UNL     1      95.192  96.373  82.351  1.00  0.00     0.157 A 
BRANCH  17  20
ATOM     20  O   UNL     1      95.508  94.108  81.643  1.00  0.00    -0.493 OA
ATOM     21  C   UNL     1      95.088  93.253  80.581  1.00  0.00     0.278 C 
ENDBRANCH  17  20
BRANCH  19  22
ATOM     22  O   UNL     1      94.774  95.961  83.580  1.00  0.00    -0.504 OA
ATOM     23  H   UNL     1      93.808  96.061  83.637  1.00  0.00     0.293 HD
ENDBRANCH  19  22
ENDBRANCH  13  14
ENDBRANCH  12  13
ENDBRANCH  10  12
ENDBRANCH   1  10
TORSDOF 12
ENDMDL
MODEL 2
REMARK VINA RESULT:    -5.809      1.900      6.637
REMARK INTER + INTRA:         -10.498
REMARK INTER:                  -9.224
REMARK INTRA:                  -1.275
REMARK UNBOUND:                -0.953
REMARK SMILES CCCCC[C@H](O)CC(=O)CCc1ccc(O)c(OC)c1
REMARK SMILES IDX 8 1 6 2 7 3 5 5 4 6 3 7 2 8 1 9 9 10 10 11 11 12 12 13 13 14
REMARK SMILES IDX 21 15 14 16 18 17 15 18 16 19 19 20 20 21 17 22
REMARK H PARENT 7 4 17 23
REMARK Flexibility Score: inf
ROOT
ATOM      1  C   UNL     1      93.798  93.902  78.731  1.00  0.00     0.107 C 
ENDROOT
BRANCH   1   2
ATOM      2  C   UNL     1      94.356  94.213  80.122  1.00  0.00     0.121 C 
BRANCH   2   3
ATOM      3  O   UNL     1      93.960  93.197  81.040  1.00  0.00    -0.393 OA
ATOM      4  H   UNL     1      93.116  93.470  81.441  1.00  0.00     0.210 HD
ENDBRANCH   2   3
BRANCH   2   5
ATOM      5  C   UNL     1      95.884  94.343  80.141  1.00  0.00     0.032 C 
BRANCH   5   6
ATOM      6  C   UNL     1      96.353  95.709  79.626  1.00  0.00     0.003 C 
BRANCH   6   7
ATOM      7  C   UNL     1      95.356  96.838  79.907  1.00  0.00    -0.000 C 
BRANCH   7   8
ATOM      8  C   UNL     1      95.648  97.607  81.194  1.00  0.00    -0.003 C 
ATOM      9  C   UNL     1      94.669  97.235  82.297  1.00  0.00     0.004 C 
ENDBRANCH   7   8
ENDBRANCH   6   7
ENDBRANCH   5   6
ENDBRANCH   2   5
ENDBRANCH   1   2
BRANCH   1  10
ATOM     10  C   UNL     1      92.401  94.462  78.511  1.00  0.00     0.135 C 
ATOM     11  O   UNL     1      91.409  93.737  78.594  1.00  0.00    -0.300 OA
BRANCH  10  12
ATOM     12  C   UNL     1      92.300  95.954  78.233  1.00  0.00     0.080 C 
BRANCH  12  13
ATOM     13  C   UNL     1      91.947  96.286  76.782  1.00  0.00     0.043 C 
BRANCH  13  14
ATOM     14  C   UNL     1      93.086  96.930  76.028  1.00  0.00    -0.044 A 
ATOM     15  C   UNL     1      92.908  98.176  75.427  1.00  0.00     0.054 A 
ATOM     16  C   UNL     1      94.316  96.279  75.934  1.00  0.00     0.008 A 
ATOM     17  C   UNL     1      93.961  98.771  74.731  1.00  0.00     0.160 A 
ATOM     18  C   UNL     1      95.369  96.873  75.238  1.00  0.00     0.050 A 
ATOM     19  C   UNL     1      95.191  98.119  74.637  1.00  0.00     0.157 A 
BRANCH  17  20
ATOM     20  O   UNL     1      93.776  99.987  74.147  1.00  0.00    -0.493 OA
ATOM     21  C   UNL     1      92.561 100.181  73.425  1.00  0.00     0.278 C 
ENDBRANCH  17  20
BRANCH  19  22
ATOM     22  O   UNL     1      96.227  98.690  73.960  1.00  0.00    -0.504 OA
ATOM     23  H   UNL     1      96.601  98.036  73.345  1.00  0.00     0.293 HD
ENDBRANCH  19  22
ENDBRANCH  13  14
ENDBRANCH  12  13
ENDBRANCH  10  12
ENDBRANCH   1  10
TORSDOF 12
ENDMDL
MODEL 3
REMARK VINA RESULT:    -5.807     22.460     25.272
REMARK INTER + INTRA:         -10.494
REMARK INTER:                  -8.379
REMARK INTRA:                  -2.115
REMARK UNBOUND:                -0.953
REMARK SMILES CCCCC[C@H](O)CC(=O)CCc1ccc(O)c(OC)c1
REMARK SMILES IDX 8 1 6 2 7 3 5 5 4 6 3 7 2 8 1 9 9 10 10 11 11 12 12 13 13 14
REMARK SMILES IDX 21 15 14 16 18 17 15 18 16 19 19 20 20 21 17 22
REMARK H PARENT 7 4 17 23
REMARK Flexibility Score: inf
ROOT
ATOM      1  C   UNL     1      76.282  82.881  63.098  1.00  0.00     0.107 C 
ENDROOT
BRANCH   1   2
ATOM      2  C   UNL     1      75.755  84.319  63.107  1.00  0.00     0.121 C 
BRANCH   2   3
ATOM      3  O   UNL     1      74.712  84.445  64.071  1.00  0.00    -0.393 OA
ATOM      4  H   UNL     1      74.546  85.394  64.207  1.00  0.00     0.210 HD
ENDBRANCH   2   3
BRANCH   2   5
ATOM      5  C   UNL     1      76.845  85.356  63.403  1.00  0.00     0.032 C 
BRANCH   5   6
ATOM      6  C   UNL     1      76.290  86.579  64.144  1.00  0.00     0.003 C 
BRANCH   6   7
ATOM      7  C   UNL     1      76.878  86.755  65.548  1.00  0.00    -0.000 C 
BRANCH   7   8
ATOM      8  C   UNL     1      75.880  87.307  66.564  1.00  0.00    -0.003 C 
ATOM      9  C   UNL     1      76.586  88.052  67.686  1.00  0.00     0.004 C 
ENDBRANCH   7   8
ENDBRANCH   6   7
ENDBRANCH   5   6
ENDBRANCH   2   5
ENDBRANCH   1   2
BRANCH   1  10
ATOM     10  C   UNL     1      75.349  81.901  63.790  1.00  0.00     0.135 C 
ATOM     11  O   UNL     1      74.269  81.593  63.286  1.00  0.00    -0.300 OA
BRANCH  10  12
ATOM     12  C   UNL     1      75.841  81.296  65.096  1.00  0.00     0.080 C 
BRANCH  12  13
ATOM     13  C   UNL     1      75.253  81.962  66.341  1.00  0.00     0.043 C 
BRANCH  13  14
ATOM     14  C   UNL     1      76.219  82.900  67.024  1.00  0.00    -0.044 A 
ATOM     15  C   UNL     1      75.831  83.586  68.174  1.00  0.00     0.054 A 
ATOM     16  C   UNL     1      77.501  83.081  66.503  1.00  0.00     0.008 A 
ATOM     17  C   UNL     1      76.725  84.452  68.804  1.00  0.00     0.160 A 
ATOM     18  C   UNL     1      78.395  83.947  67.133  1.00  0.00     0.050 A 
ATOM     19  C   UNL     1      78.006  84.633  68.283  1.00  0.00     0.157 A 
BRANCH  17  20
ATOM     20  O   UNL     1      76.334  85.118  69.927  1.00  0.00    -0.493 OA
ATOM     21  C   UNL     1      76.182  84.346  71.117  1.00  0.00     0.278 C 
ENDBRANCH  17  20
BRANCH  19  22
ATOM     22  O   UNL     1      78.888  85.476  68.889  1.00  0.00    -0.504 OA
ATOM     23  H   UNL     1      78.475  86.351  68.985  1.00  0.00     0.293 HD
ENDBRANCH  19  22
ENDBRANCH  13  14
ENDBRANCH  12  13
ENDBRANCH  10  12
ENDBRANCH   1  10
TORSDOF 12
ENDMDL
MODEL 4
REMARK VINA RESULT:    -5.774     21.995     26.528
REMARK INTER + INTRA:         -10.441
REMARK INTER:                  -9.373
REMARK INTRA:                  -1.068
REMARK UNBOUND:                -0.953
REMARK SMILES CCCCC[C@H](O)CC(=O)CCc1ccc(O)c(OC)c1
REMARK SMILES IDX 8 1 6 2 7 3 5 5 4 6 3 7 2 8 1 9 9 10 10 11 11 12 12 13 13 14
REMARK SMILES IDX 21 15 14 16 18 17 15 18 16 19 19 20 20 21 17 22
REMARK H PARENT 7 4 17 23
REMARK Flexibility Score: inf
ROOT
ATOM      1  C   UNL     1      76.902  85.159  66.994  1.00  0.00     0.107 C 
ENDROOT
BRANCH   1   2
ATOM      2  C   UNL     1      77.841  86.360  67.132  1.00  0.00     0.121 C 
BRANCH   2   3
ATOM      3  O   UNL     1      77.413  87.410  66.268  1.00  0.00    -0.393 OA
ATOM      4  H   UNL     1      78.166  88.013  66.138  1.00  0.00     0.210 HD
ENDBRANCH   2   3
BRANCH   2   5
ATOM      5  C   UNL     1      77.928  86.892  68.568  1.00  0.00     0.032 C 
BRANCH   5   6
ATOM      6  C   UNL     1      76.981  86.147  69.517  1.00  0.00     0.003 C 
BRANCH   6   7
ATOM      7  C   UNL     1      77.699  85.143  70.425  1.00  0.00    -0.000 C 
BRANCH   7   8
ATOM      8  C   UNL     1      76.853  83.920  70.774  1.00  0.00    -0.003 C 
ATOM      9  C   UNL     1      75.612  84.311  71.561  1.00  0.00     0.004 C 
ENDBRANCH   7   8
ENDBRANCH   6   7
ENDBRANCH   5   6
ENDBRANCH   2   5
ENDBRANCH   1   2
BRANCH   1  10
ATOM     10  C   UNL     1      76.724  84.704  65.555  1.00  0.00     0.135 C 
ATOM     11  O   UNL     1      75.965  85.302  64.792  1.00  0.00    -0.300 OA
BRANCH  10  12
ATOM     12  C   UNL     1      77.559  83.515  65.107  1.00  0.00     0.080 C 
BRANCH  12  13
ATOM     13  C   UNL     1      77.064  82.175  65.656  1.00  0.00     0.043 C 
BRANCH  13  14
ATOM     14  C   UNL     1      75.833  81.663  64.947  1.00  0.00    -0.044 A 
ATOM     15  C   UNL     1      74.633  81.525  65.644  1.00  0.00     0.054 A 
ATOM     16  C   UNL     1      75.897  81.327  63.594  1.00  0.00     0.008 A 
ATOM     17  C   UNL     1      73.496  81.053  64.988  1.00  0.00     0.160 A 
ATOM     18  C   UNL     1      74.760  80.855  62.938  1.00  0.00     0.050 A 
ATOM     19  C   UNL     1      73.560  80.717  63.635  1.00  0.00     0.157 A 
BRANCH  17  20
ATOM     20  O   UNL     1      72.329  80.923  65.679  1.00  0.00    -0.493 OA
ATOM     21  C   UNL     1      71.757  82.114  66.215  1.00  0.00     0.278 C 
ENDBRANCH  17  20
BRANCH  19  22
ATOM     22  O   UNL     1      72.457  80.255  62.984  1.00  0.00    -0.504 OA
ATOM     23  H   UNL     1      72.549  79.297  62.845  1.00  0.00     0.293 HD
ENDBRANCH  19  22
ENDBRANCH  13  14
ENDBRANCH  12  13
ENDBRANCH  10  12
ENDBRANCH   1  10
TORSDOF 12
ENDMDL
MODEL 5
REMARK VINA RESULT:    -5.746      0.925      2.028
REMARK INTER + INTRA:         -10.395
REMARK INTER:                  -9.090
REMARK INTRA:                  -1.305
REMARK UNBOUND:                -0.953
REMARK SMILES CCCCC[C@H](O)CC(=O)CCc1ccc(O)c(OC)c1
REMARK SMILES IDX 8 1 6 2 7 3 5 5 4 6 3 7 2 8 1 9 9 10 10 11 11 12 12 13 13 14
REMARK SMILES IDX 21 15 14 16 18 17 15 18 16 19 19 20 20 21 17 22
REMARK H PARENT 7 4 17 23
REMARK Flexibility Score: inf
ROOT
ATOM      1  C   UNL     1      95.213  96.892  76.284  1.00  0.00     0.107 C 
ENDROOT
BRANCH   1   2
ATOM      2  C   UNL     1      93.831  96.251  76.133  1.00  0.00     0.121 C 
BRANCH   2   3
ATOM      3  O   UNL     1      93.969  94.847  75.930  1.00  0.00    -0.393 OA
ATOM      4  H   UNL     1      94.432  94.712  75.085  1.00  0.00     0.210 HD
ENDBRANCH   2   3
BRANCH   2   5
ATOM      5  C   UNL     1      92.918  96.500  77.340  1.00  0.00     0.032 C 
BRANCH   5   6
ATOM      6  C   UNL     1      92.632  95.212  78.121  1.00  0.00     0.003 C 
BRANCH   6   7
ATOM      7  C   UNL     1      91.141  94.871  78.204  1.00  0.00    -0.000 C 
BRANCH   7   8
ATOM      8  C   UNL     1      90.832  93.403  77.920  1.00  0.00    -0.003 C 
ATOM      9  C   UNL     1      89.541  92.967  78.596  1.00  0.00     0.004 C 
ENDBRANCH   7   8
ENDBRANCH   6   7
ENDBRANCH   5   6
ENDBRANCH   2   5
ENDBRANCH   1   2
BRANCH   1  10
ATOM     10  C   UNL     1      95.161  98.281  76.901  1.00  0.00     0.135 C 
ATOM     11  O   UNL     1      94.782  99.251  76.244  1.00  0.00    -0.300 OA
BRANCH  10  12
ATOM     12  C   UNL     1      95.555  98.391  78.365  1.00  0.00     0.080 C 
BRANCH  12  13
ATOM     13  C   UNL     1      96.658  97.416  78.781  1.00  0.00     0.043 C 
BRANCH  13  14
ATOM     14  C   UNL     1      96.185  96.374  79.767  1.00  0.00    -0.044 A 
ATOM     15  C   UNL     1      95.777  96.756  81.045  1.00  0.00     0.054 A 
ATOM     16  C   UNL     1      96.157  95.028  79.398  1.00  0.00     0.008 A 
ATOM     17  C   UNL     1      95.341  95.792  81.954  1.00  0.00     0.160 A 
ATOM     18  C   UNL     1      95.720  94.065  80.307  1.00  0.00     0.050 A 
ATOM     19  C   UNL     1      95.312  94.447  81.585  1.00  0.00     0.157 A 
BRANCH  17  20
ATOM     20  O   UNL     1      94.945  96.177  83.199  1.00  0.00    -0.493 OA
ATOM     21  C   UNL     1      95.683  97.230  83.817  1.00  0.00     0.278 C 
ENDBRANCH  17  20
BRANCH  19  22
ATOM     22  O   UNL     1      94.888  93.497  82.464  1.00  0.00    -0.504 OA
ATOM     23  H   UNL     1      95.660  93.012  82.804  1.00  0.00     0.293 HD
ENDBRANCH  19  22
ENDBRANCH  13  14
ENDBRANCH  12  13
ENDBRANCH  10  12
ENDBRANCH   1  10
TORSDOF 12
ENDMDL
MODEL 6
REMARK VINA RESULT:    -5.426      2.034      3.123
REMARK INTER + INTRA:          -9.868
REMARK INTER:                  -9.066
REMARK INTRA:                  -0.801
REMARK UNBOUND:                -0.953
REMARK SMILES CCCCC[C@H](O)CC(=O)CCc1ccc(O)c(OC)c1
REMARK SMILES IDX 8 1 6 2 7 3 5 5 4 6 3 7 2 8 1 9 9 10 10 11 11 12 12 13 13 14
REMARK SMILES IDX 21 15 14 16 18 17 15 18 16 19 19 20 20 21 17 22
REMARK H PARENT 7 4 17 23
REMARK Flexibility Score: inf
ROOT
ATOM      1  C   UNL     1      93.989  94.838  77.225  1.00  0.00     0.107 C 
ENDROOT
BRANCH   1   2
ATOM      2  C   UNL     1      93.560  96.256  76.843  1.00  0.00     0.121 C 
BRANCH   2   3
ATOM      3  O   UNL     1      94.140  96.616  75.591  1.00  0.00    -0.393 OA
ATOM      4  H   UNL     1      93.572  96.259  74.887  1.00  0.00     0.210 HD
ENDBRANCH   2   3
BRANCH   2   5
ATOM      5  C   UNL     1      92.038  96.421  76.760  1.00  0.00     0.032 C 
BRANCH   5   6
ATOM      6  C   UNL     1      91.301  95.449  77.690  1.00  0.00     0.003 C 
BRANCH   6   7
ATOM      7  C   UNL     1      89.793  95.384  77.429  1.00  0.00    -0.000 C 
BRANCH   7   8
ATOM      8  C   UNL     1      89.147  94.079  77.889  1.00  0.00    -0.003 C 
ATOM      9  C   UNL     1      90.150  93.187  78.606  1.00  0.00     0.004 C 
ENDBRANCH   7   8
ENDBRANCH   6   7
ENDBRANCH   5   6
ENDBRANCH   2   5
ENDBRANCH   1   2
BRANCH   1  10
ATOM     10  C   UNL     1      94.665  94.765  78.585  1.00  0.00     0.135 C 
ATOM     11  O   UNL     1      94.572  93.757  79.285  1.00  0.00    -0.300 OA
BRANCH  10  12
ATOM     12  C   UNL     1      95.486  95.975  79.004  1.00  0.00     0.080 C 
BRANCH  12  13
ATOM     13  C   UNL     1      96.679  95.630  79.897  1.00  0.00     0.043 C 
BRANCH  13  14
ATOM     14  C   UNL     1      96.523  96.130  81.313  1.00  0.00    -0.044 A 
ATOM     15  C   UNL     1      97.652  96.419  82.080  1.00  0.00     0.054 A 
ATOM     16  C   UNL     1      95.249  96.304  81.855  1.00  0.00     0.008 A 
ATOM     17  C   UNL     1      97.506  96.882  83.388  1.00  0.00     0.160 A 
ATOM     18  C   UNL     1      95.103  96.767  83.162  1.00  0.00     0.050 A 
ATOM     19  C   UNL     1      96.232  97.056  83.929  1.00  0.00     0.157 A 
BRANCH  17  20
ATOM     20  O   UNL     1      98.616  97.160  84.127  1.00  0.00    -0.493 OA
ATOM     21  C   UNL     1      99.261  98.409  83.883  1.00  0.00     0.278 C 
ENDBRANCH  17  20
BRANCH  19  22
ATOM     22  O   UNL     1      96.077  97.508  85.204  1.00  0.00    -0.504 OA
ATOM     23  H   UNL     1      95.758  98.426  85.179  1.00  0.00     0.293 HD
ENDBRANCH  19  22
ENDBRANCH  13  14
ENDBRANCH  12  13
ENDBRANCH  10  12
ENDBRANCH   1  10
TORSDOF 12
ENDMDL
MODEL 7
REMARK VINA RESULT:    -5.404      4.529      5.851
REMARK INTER + INTRA:          -9.832
REMARK INTER:                  -9.053
REMARK INTRA:                  -0.779
REMARK UNBOUND:                -0.953
REMARK SMILES CCCCC[C@H](O)CC(=O)CCc1ccc(O)c(OC)c1
REMARK SMILES IDX 8 1 6 2 7 3 5 5 4 6 3 7 2 8 1 9 9 10 10 11 11 12 12 13 13 14
REMARK SMILES IDX 21 15 14 16 18 17 15 18 16 19 19 20 20 21 17 22
REMARK H PARENT 7 4 17 23
REMARK Flexibility Score: inf
ROOT
ATOM      1  C   UNL     1      92.572 100.783  74.015  1.00  0.00     0.107 C 
ENDROOT
BRANCH   1   2
ATOM      2  C   UNL     1      92.012 100.910  72.596  1.00  0.00     0.121 C 
BRANCH   2   3
ATOM      3  O   UNL     1      93.083 101.014  71.661  1.00  0.00    -0.393 OA
ATOM      4  H   UNL     1      93.866 101.339  72.139  1.00  0.00     0.210 HD
ENDBRANCH   2   3
BRANCH   2   5
ATOM      5  C   UNL     1      91.108  99.737  72.200  1.00  0.00     0.032 C 
BRANCH   5   6
ATOM      6  C   UNL     1      91.036  99.551  70.680  1.00  0.00     0.003 C 
BRANCH   6   7
ATOM      7  C   UNL     1      89.888  98.641  70.233  1.00  0.00    -0.000 C 
BRANCH   7   8
ATOM      8  C   UNL     1      88.752  99.386  69.535  1.00  0.00    -0.003 C 
ATOM      9  C   UNL     1      88.235  98.610  68.334  1.00  0.00     0.004 C 
ENDBRANCH   7   8
ENDBRANCH   6   7
ENDBRANCH   5   6
ENDBRANCH   2   5
ENDBRANCH   1   2
BRANCH   1  10
ATOM     10  C   UNL     1      93.472  99.570  74.193  1.00  0.00     0.135 C 
ATOM     11  O   UNL     1      94.528  99.469  73.570  1.00  0.00    -0.300 OA
BRANCH  10  12
ATOM     12  C   UNL     1      93.020  98.529  75.206  1.00  0.00     0.080 C 
BRANCH  12  13
ATOM     13  C   UNL     1      93.977  97.343  75.337  1.00  0.00     0.043 C 
BRANCH  13  14
ATOM     14  C   UNL     1      93.592  96.391  76.444  1.00  0.00    -0.044 A 
ATOM     15  C   UNL     1      94.573  95.636  77.088  1.00  0.00     0.054 A 
ATOM     16  C   UNL     1      92.255  96.268  76.824  1.00  0.00     0.008 A 
ATOM     17  C   UNL     1      94.216  94.758  78.111  1.00  0.00     0.160 A 
ATOM     18  C   UNL     1      91.898  95.390  77.847  1.00  0.00     0.050 A 
ATOM     19  C   UNL     1      92.879  94.634  78.491  1.00  0.00     0.157 A 
BRANCH  17  20
ATOM     20  O   UNL     1      95.182  94.025  78.732  1.00  0.00    -0.493 OA
ATOM     21  C   UNL     1      95.954  94.686  79.732  1.00  0.00     0.278 C 
ENDBRANCH  17  20
BRANCH  19  22
ATOM     22  O   UNL     1      92.518  93.780  79.488  1.00  0.00    -0.504 OA
ATOM     23  H   UNL     1      92.390  92.892  79.114  1.00  0.00     0.293 HD
ENDBRANCH  19  22
ENDBRANCH  13  14
ENDBRANCH  12  13
ENDBRANCH  10  12
ENDBRANCH   1  10
TORSDOF 12
ENDMDL
MODEL 8
REMARK VINA RESULT:    -5.391     21.942     25.082
REMARK INTER + INTRA:          -9.811
REMARK INTER:                  -8.941
REMARK INTRA:                  -0.871
REMARK UNBOUND:                -0.953
REMARK SMILES CCCCC[C@H](O)CC(=O)CCc1ccc(O)c(OC)c1
REMARK SMILES IDX 8 1 6 2 7 3 5 5 4 6 3 7 2 8 1 9 9 10 10 11 11 12 12 13 13 14
REMARK SMILES IDX 21 15 14 16 18 17 15 18 16 19 19 20 20 21 17 22
REMARK H PARENT 7 4 17 23
REMARK Flexibility Score: inf
ROOT
ATOM      1  C   UNL     1      76.355  83.468  67.173  1.00  0.00     0.107 C 
ENDROOT
BRANCH   1   2
ATOM      2  C   UNL     1      76.688  82.953  65.770  1.00  0.00     0.121 C 
BRANCH   2   3
ATOM      3  O   UNL     1      77.405  81.725  65.863  1.00  0.00    -0.393 OA
ATOM      4  H   UNL     1      78.315  81.888  65.560  1.00  0.00     0.210 HD
ENDBRANCH   2   3
BRANCH   2   5
ATOM      5  C   UNL     1      75.445  82.748  64.895  1.00  0.00     0.032 C 
BRANCH   5   6
ATOM      6  C   UNL     1      75.238  81.274  64.525  1.00  0.00     0.003 C 
BRANCH   6   7
ATOM      7  C   UNL     1      74.789  81.070  63.075  1.00  0.00    -0.000 C 
BRANCH   7   8
ATOM      8  C   UNL     1      73.526  80.222  62.938  1.00  0.00    -0.003 C 
ATOM      9  C   UNL     1      72.661  80.312  64.186  1.00  0.00     0.004 C 
ENDBRANCH   7   8
ENDBRANCH   6   7
ENDBRANCH   5   6
ENDBRANCH   2   5
ENDBRANCH   1   2
BRANCH   1  10
ATOM     10  C   UNL     1      77.570  83.997  67.917  1.00  0.00     0.135 C 
ATOM     11  O   UNL     1      78.694  83.935  67.419  1.00  0.00    -0.300 OA
BRANCH  10  12
ATOM     12  C   UNL     1      77.313  84.640  69.271  1.00  0.00     0.080 C 
BRANCH  12  13
ATOM     13  C   UNL     1      77.554  86.150  69.291  1.00  0.00     0.043 C 
BRANCH  13  14
ATOM     14  C   UNL     1      76.333  86.940  69.699  1.00  0.00    -0.044 A 
ATOM     15  C   UNL     1      75.074  86.339  69.677  1.00  0.00     0.054 A 
ATOM     16  C   UNL     1      76.464  88.270  70.098  1.00  0.00     0.008 A 
ATOM     17  C   UNL     1      73.947  87.069  70.054  1.00  0.00     0.160 A 
ATOM     18  C   UNL     1      75.337  89.000  70.476  1.00  0.00     0.050 A 
ATOM     19  C   UNL     1      74.079  88.399  70.454  1.00  0.00     0.157 A 
BRANCH  17  20
ATOM     20  O   UNL     1      72.723  86.472  70.028  1.00  0.00    -0.493 OA
ATOM     21  C   UNL     1      72.627  85.220  69.350  1.00  0.00     0.278 C 
ENDBRANCH  17  20
BRANCH  19  22
ATOM     22  O   UNL     1      72.985  89.122  70.825  1.00  0.00    -0.504 OA
ATOM     23  H   UNL     1      73.226  90.063  70.864  1.00  0.00     0.293 HD
ENDBRANCH  19  22
ENDBRANCH  13  14
ENDBRANCH  12  13
ENDBRANCH  10  12
ENDBRANCH   1  10
TORSDOF 12
ENDMDL
MODEL 9
REMARK VINA RESULT:    -5.300     13.015     15.219
REMARK INTER + INTRA:          -9.661
REMARK INTER:                  -8.678
REMARK INTRA:                  -0.983
REMARK UNBOUND:                -0.953
REMARK SMILES CCCCC[C@H](O)CC(=O)CCc1ccc(O)c(OC)c1
REMARK SMILES IDX 8 1 6 2 7 3 5 5 4 6 3 7 2 8 1 9 9 10 10 11 11 12 12 13 13 14
REMARK SMILES IDX 21 15 14 16 18 17 15 18 16 19 19 20 20 21 17 22
REMARK H PARENT 7 4 17 23
REMARK Flexibility Score: inf
ROOT
ATOM      1  C   UNL     1      96.653  84.228  86.417  1.00  0.00     0.107 C 
ENDROOT
BRANCH   1   2
ATOM      2  C   UNL     1      95.458  84.906  87.091  1.00  0.00     0.121 C 
BRANCH   2   3
ATOM      3  O   UNL     1      94.842  85.816  86.183  1.00  0.00    -0.393 OA
ATOM      4  H   UNL     1      95.509  86.477  85.926  1.00  0.00     0.210 HD
ENDBRANCH   2   3
BRANCH   2   5
ATOM      5  C   UNL     1      94.408  83.909  87.596  1.00  0.00     0.032 C 
BRANCH   5   6
ATOM      6  C   UNL     1      94.630  82.501  87.029  1.00  0.00     0.003 C 
BRANCH   6   7
ATOM      7  C   UNL     1      93.351  81.858  86.483  1.00  0.00    -0.000 C 
BRANCH   7   8
ATOM      8  C   UNL     1      92.070  82.491  87.022  1.00  0.00    -0.003 C 
ATOM      9  C   UNL     1      91.274  81.504  87.862  1.00  0.00     0.004 C 
ENDBRANCH   7   8
ENDBRANCH   6   7
ENDBRANCH   5   6
ENDBRANCH   2   5
ENDBRANCH   1   2
BRANCH   1  10
ATOM     10  C   UNL     1      97.055  84.892  85.110  1.00  0.00     0.135 C 
ATOM     11  O   UNL     1      97.435  86.062  85.085  1.00  0.00    -0.300 OA
BRANCH  10  12
ATOM     12  C   UNL     1      97.004  84.025  83.861  1.00  0.00     0.080 C 
BRANCH  12  13
ATOM     13  C   UNL     1      97.963  82.834  83.899  1.00  0.00     0.043 C 
BRANCH  13  14
ATOM     14  C   UNL     1      98.772  82.685  82.632  1.00  0.00    -0.044 A 
ATOM     15  C   UNL     1      98.296  83.218  81.434  1.00  0.00     0.054 A 
ATOM     16  C   UNL     1      99.994  82.014  82.660  1.00  0.00     0.008 A 
ATOM     17  C   UNL     1      99.044  83.080  80.264  1.00  0.00     0.160 A 
ATOM     18  C   UNL     1     100.742  81.876  81.491  1.00  0.00     0.050 A 
ATOM     19  C   UNL     1     100.267  82.408  80.293  1.00  0.00     0.157 A 
BRANCH  17  20
ATOM     20  O   UNL     1      98.569  83.604  79.100  1.00  0.00    -0.493 OA
ATOM     21  C   UNL     1      97.157  83.774  78.994  1.00  0.00     0.278 C 
ENDBRANCH  17  20
BRANCH  19  22
ATOM     22  O   UNL     1     101.006  82.267  79.157  1.00  0.00    -0.504 OA
ATOM     23  H   UNL     1     101.041  83.122  78.694  1.00  0.00     0.293 HD
ENDBRANCH  19  22
ENDBRANCH  13  14
ENDBRANCH  12  13
ENDBRANCH  10  12
ENDBRANCH   1  10
TORSDOF 12
ENDMDL
MODEL 10
REMARK VINA RESULT:    -5.266     38.790     41.954
REMARK INTER + INTRA:          -9.605
REMARK INTER:                  -7.782
REMARK INTRA:                  -1.823
REMARK UNBOUND:                -0.953
REMARK SMILES CCCCC[C@H](O)CC(=O)CCc1ccc(O)c(OC)c1
REMARK SMILES IDX 8 1 6 2 7 3 5 5 4 6 3 7 2 8 1 9 9 10 10 11 11 12 12 13 13 14
REMARK SMILES IDX 21 15 14 16 18 17 15 18 16 19 19 20 20 21 17 22
REMARK H PARENT 7 4 17 23
REMARK Flexibility Score: inf
ROOT
ATOM      1  C   UNL     1      69.570  64.040  82.105  1.00  0.00     0.107 C 
ENDROOT
BRANCH   1   2
ATOM      2  C   UNL     1      70.385  65.278  82.488  1.00  0.00     0.121 C 
BRANCH   2   3
ATOM      3  O   UNL     1      71.621  65.282  81.778  1.00  0.00    -0.393 OA
ATOM      4  H   UNL     1      71.867  66.209  81.614  1.00  0.00     0.210 HD
ENDBRANCH   2   3
BRANCH   2   5
ATOM      5  C   UNL     1      69.643  66.592  82.217  1.00  0.00     0.032 C 
BRANCH   5   6
ATOM      6  C   UNL     1      68.436  66.776  83.145  1.00  0.00     0.003 C 
BRANCH   6   7
ATOM      7  C   UNL     1      67.099  66.824  82.399  1.00  0.00    -0.000 C 
BRANCH   7   8
ATOM      8  C   UNL     1      67.218  67.326  80.961  1.00  0.00    -0.003 C 
ATOM      9  C   UNL     1      65.962  68.065  80.526  1.00  0.00     0.004 C 
ENDBRANCH   7   8
ENDBRANCH   6   7
ENDBRANCH   5   6
ENDBRANCH   2   5
ENDBRANCH   1   2
BRANCH   1  10
ATOM     10  C   UNL     1      69.158  64.027  80.641  1.00  0.00     0.135 C 
ATOM     11  O   UNL     1      69.997  64.144  79.747  1.00  0.00    -0.300 OA
BRANCH  10  12
ATOM     12  C   UNL     1      67.680  63.819  80.350  1.00  0.00     0.080 C 
BRANCH  12  13
ATOM     13  C   UNL     1      67.343  63.809  78.858  1.00  0.00     0.043 C 
BRANCH  13  14
ATOM     14  C   UNL     1      65.924  64.240  78.569  1.00  0.00    -0.044 A 
ATOM     15  C   UNL     1      65.054  64.526  79.621  1.00  0.00     0.054 A 
ATOM     16  C   UNL     1      65.485  64.352  77.250  1.00  0.00     0.008 A 
ATOM     17  C   UNL     1      63.744  64.925  79.353  1.00  0.00     0.160 A 
ATOM     18  C   UNL     1      64.175  64.751  76.982  1.00  0.00     0.050 A 
ATOM     19  C   UNL     1      63.305  65.037  78.033  1.00  0.00     0.157 A 
BRANCH  17  20
ATOM     20  O   UNL     1      62.903  65.201  80.388  1.00  0.00    -0.493 OA
ATOM     21  C   UNL     1      63.481  65.278  81.690  1.00  0.00     0.278 C 
ENDBRANCH  17  20
BRANCH  19  22
ATOM     22  O   UNL     1      62.029  65.425  77.759  1.00  0.00    -0.504 OA
ATOM     23  H   UNL     1      62.045  66.321  77.379  1.00  0.00     0.293 HD
ENDBRANCH  19  22
ENDBRANCH  13  14
ENDBRANCH  12  13
ENDBRANCH  10  12
ENDBRANCH   1  10
TORSDOF 12
ENDMDL
