MODEL 1
REMARK VINA RESULT:    -6.511      0.000      0.000
REMARK INTER + INTRA:         -11.054
REMARK INTER:                 -10.508
REMARK INTRA:                  -0.546
REMARK UNBOUND:                -0.546
REMARK SMILES COc1cc(CNC(=O)CCCCC/C=C/C(C)C)ccc1O
REMARK SMILES IDX 11 1 10 2 8 3 7 4 9 6 6 7 5 8 3 9 22 10 4 11 21 12 20 13
REMARK SMILES IDX 2 14 1 15 23 16 12 18 13 19 14 20 15 21 16 22 17 23 18 24
REMARK SMILES IDX 19 25
REMARK H PARENT 7 5 23 17
REMARK Flexibility Score: inf
ROOT
ATOM      1  C   UNL     1      95.189  79.815  84.249  1.00  0.00     0.010 C 
ENDROOT
BRANCH   1   2
ATOM      2  C   UNL     1      93.706  79.376  84.364  1.00  0.00     0.100 C 
BRANCH   2   3
ATOM      3  C   UNL     1      92.858  80.318  85.117  1.00  0.00     0.220 C 
ATOM      4  N   UNL     1      92.149  81.272  84.452  1.00  0.00    -0.352 N 
ATOM      5  H   UNL     1      92.322  81.309  83.457  1.00  0.00     0.163 HD
ATOM      6  O   UNL     1      92.781  80.186  86.362  1.00  0.00    -0.275 OA
BRANCH   4   7
ATOM      7  C   UNL     1      91.221  82.179  85.045  1.00  0.00     0.151 C 
BRANCH   7   8
ATOM      8  C   UNL     1      89.824  81.944  84.595  1.00  0.00    -0.025 A 
ATOM      9  C   UNL     1      88.046  80.411  83.862  1.00  0.00     0.160 A 
ATOM     10  C   UNL     1      87.175  81.508  83.686  1.00  0.00     0.157 A 
ATOM     11  C   UNL     1      89.365  80.638  84.305  1.00  0.00     0.056 A 
ATOM     12  C   UNL     1      87.615  82.810  83.987  1.00  0.00     0.050 A 
ATOM     13  C   UNL     1      88.927  83.025  84.449  1.00  0.00     0.009 A 
BRANCH   9  14
ATOM     14  O   UNL     1      87.601  79.133  83.655  1.00  0.00    -0.493 OA
ATOM     15  C   UNL     1      88.476  78.115  84.169  1.00  0.00     0.278 C 
ENDBRANCH   9  14
BRANCH  10  16
ATOM     16  O   UNL     1      85.907  81.336  83.234  1.00  0.00    -0.504 OA
ATOM     17  H   UNL     1      85.785  80.422  82.966  1.00  0.00     0.293 HD
ENDBRANCH  10  16
ENDBRANCH   7   8
ENDBRANCH   4   7
ENDBRANCH   2   3
ENDBRANCH   1   2
BRANCH   1  18
ATOM     18  C   UNL     1      95.301  81.326  83.922  1.00  0.00     0.001 C 
BRANCH  18  19
ATOM     19  C   UNL     1      96.457  81.669  82.948  1.00  0.00     0.004 C 
BRANCH  19  20
ATOM     20  C   UNL     1      96.411  83.162  82.517  1.00  0.00     0.027 C 
BRANCH  20  21
ATOM     21  C   UNL     1      96.679  83.370  81.104  1.00  0.00    -0.031 C 
ATOM     22  C   UNL     1      97.382  82.491  80.368  1.00  0.00    -0.028 C 
BRANCH  22  23
ATOM     23  C   UNL     1      97.664  82.669  78.946  1.00  0.00     0.005 C 
ATOM     24  C   UNL     1      97.735  81.291  78.236  1.00  0.00     0.012 C 
ATOM     25  C   UNL     1      96.609  83.610  78.304  1.00  0.00     0.012 C 
ENDBRANCH  22  23
ENDBRANCH  20  21
ENDBRANCH  19  20
ENDBRANCH  18  19
ENDBRANCH   1  18
TORSDOF 11
ENDMDL
MODEL 2
REMARK VINA RESULT:    -6.221      7.911     12.931
REMARK INTER + INTRA:         -10.586
REMARK INTER:                  -9.837
REMARK INTRA:                  -0.749
REMARK UNBOUND:                -0.546
REMARK SMILES COc1cc(CNC(=O)CCCCC/C=C/C(C)C)ccc1O
REMARK SMILES IDX 11 1 10 2 8 3 7 4 9 6 6 7 5 8 3 9 22 10 4 11 21 12 20 13
REMARK SMILES IDX 2 14 1 15 23 16 12 18 13 19 14 20 15 21 16 22 17 23 18 24
REMARK SMILES IDX 19 25
REMARK H PARENT 7 5 23 17
REMARK Flexibility Score: inf
ROOT
ATOM      1  C   UNL     1      96.335  83.922  78.038  1.00  0.00     0.010 C 
ENDROOT
BRANCH   1   2
ATOM      2  C   UNL     1      97.538  83.638  77.101  1.00  0.00     0.100 C 
BRANCH   2   3
ATOM      3  C   UNL     1      97.448  84.306  75.790  1.00  0.00     0.220 C 
ATOM      4  N   UNL     1      98.576  84.513  75.055  1.00  0.00    -0.352 N 
ATOM      5  H   UNL     1      99.434  84.246  75.517  1.00  0.00     0.163 HD
ATOM      6  O   UNL     1      96.315  84.632  75.364  1.00  0.00    -0.275 OA
BRANCH   4   7
ATOM      7  C   UNL     1      98.620  85.056  73.737  1.00  0.00     0.151 C 
BRANCH   7   8
ATOM      8  C   UNL     1      99.098  84.075  72.729  1.00  0.00    -0.025 A 
ATOM      9  C   UNL     1     100.592  83.479  70.868  1.00  0.00     0.160 A 
ATOM     10  C   UNL     1      99.969  82.216  70.774  1.00  0.00     0.157 A 
ATOM     11  C   UNL     1     100.147  84.401  71.838  1.00  0.00     0.056 A 
ATOM     12  C   UNL     1      98.937  81.874  71.667  1.00  0.00     0.050 A 
ATOM     13  C   UNL     1      98.512  82.792  72.644  1.00  0.00     0.009 A 
BRANCH   9  14
ATOM     14  O   UNL     1     101.656  83.789  70.063  1.00  0.00    -0.493 OA
ATOM     15  C   UNL     1     101.672  85.153  69.610  1.00  0.00     0.278 C 
ENDBRANCH   9  14
BRANCH  10  16
ATOM     16  O   UNL     1     100.349  81.311  69.837  1.00  0.00    -0.504 OA
ATOM     17  H   UNL     1     100.056  80.435  70.101  1.00  0.00     0.293 HD
ENDBRANCH  10  16
ENDBRANCH   7   8
ENDBRANCH   4   7
ENDBRANCH   2   3
ENDBRANCH   1   2
BRANCH   1  18
ATOM     18  C   UNL     1      96.680  83.583  79.510  1.00  0.00     0.001 C 
BRANCH  18  19
ATOM     19  C   UNL     1      97.532  82.299  79.671  1.00  0.00     0.004 C 
BRANCH  19  20
ATOM     20  C   UNL     1      97.643  81.875  81.162  1.00  0.00     0.027 C 
BRANCH  20  21
ATOM     21  C   UNL     1      96.681  82.534  82.030  1.00  0.00    -0.031 C 
ATOM     22  C   UNL     1      96.996  82.942  83.272  1.00  0.00    -0.028 C 
BRANCH  22  23
ATOM     23  C   UNL     1      96.054  83.612  84.166  1.00  0.00     0.005 C 
ATOM     24  C   UNL     1      95.892  85.100  83.760  1.00  0.00     0.012 C 
ATOM     25  C   UNL     1      94.699  82.854  84.183  1.00  0.00     0.012 C 
ENDBRANCH  22  23
ENDBRANCH  20  21
ENDBRANCH  19  20
ENDBRANCH  18  19
ENDBRANCH   1  18
TORSDOF 11
ENDMDL
MODEL 3
REMARK VINA RESULT:    -6.180     21.350     23.210
REMARK INTER + INTRA:         -10.520
REMARK INTER:                  -9.675
REMARK INTRA:                  -0.844
REMARK UNBOUND:                -0.546
REMARK SMILES COc1cc(CNC(=O)CCCCC/C=C/C(C)C)ccc1O
REMARK SMILES IDX 11 1 10 2 8 3 7 4 9 6 6 7 5 8 3 9 22 10 4 11 21 12 20 13
REMARK SMILES IDX 2 14 1 15 23 16 12 18 13 19 14 20 15 21 16 22 17 23 18 24
REMARK SMILES IDX 19 25
REMARK H PARENT 7 5 23 17
REMARK Flexibility Score: inf
ROOT
ATOM      1  C   UNL     1      74.803  90.563  70.445  1.00  0.00     0.010 C 
ENDROOT
BRANCH   1   2
ATOM      2  C   UNL     1      73.499  90.895  71.216  1.00  0.00     0.100 C 
BRANCH   2   3
ATOM      3  C   UNL     1      73.492  92.234  71.835  1.00  0.00     0.220 C 
ATOM      4  N   UNL     1      73.635  92.358  73.184  1.00  0.00    -0.352 N 
ATOM      5  H   UNL     1      73.664  91.482  73.687  1.00  0.00     0.163 HD
ATOM      6  O   UNL     1      73.395  93.235  71.087  1.00  0.00    -0.275 OA
BRANCH   4   7
ATOM      7  C   UNL     1      73.742  93.589  73.896  1.00  0.00     0.151 C 
BRANCH   7   8
ATOM      8  C   UNL     1      75.087  93.787  74.497  1.00  0.00    -0.025 A 
ATOM      9  C   UNL     1      76.508  94.218  76.458  1.00  0.00     0.160 A 
ATOM     10  C   UNL     1      77.651  94.217  75.628  1.00  0.00     0.157 A 
ATOM     11  C   UNL     1      75.236  94.012  75.886  1.00  0.00     0.056 A 
ATOM     12  C   UNL     1      77.516  93.977  74.248  1.00  0.00     0.050 A 
ATOM     13  C   UNL     1      76.244  93.753  73.688  1.00  0.00     0.009 A 
BRANCH   9  14
ATOM     14  O   UNL     1      76.637  94.363  77.813  1.00  0.00    -0.493 OA
ATOM     15  C   UNL     1      75.460  94.004  78.557  1.00  0.00     0.278 C 
ENDBRANCH   9  14
BRANCH  10  16
ATOM     16  O   UNL     1      78.889  94.440  76.134  1.00  0.00    -0.504 OA
ATOM     17  H   UNL     1      78.972  95.364  76.382  1.00  0.00     0.293 HD
ENDBRANCH  10  16
ENDBRANCH   7   8
ENDBRANCH   4   7
ENDBRANCH   2   3
ENDBRANCH   1   2
BRANCH   1  18
ATOM     18  C   UNL     1      74.562  90.562  68.914  1.00  0.00     0.001 C 
BRANCH  18  19
ATOM     19  C   UNL     1      75.011  89.255  68.213  1.00  0.00     0.004 C 
BRANCH  19  20
ATOM     20  C   UNL     1      76.441  88.837  68.655  1.00  0.00     0.027 C 
BRANCH  20  21
ATOM     21  C   UNL     1      76.667  87.402  68.624  1.00  0.00    -0.031 C 
ATOM     22  C   UNL     1      75.696  86.515  68.907  1.00  0.00    -0.028 C 
BRANCH  22  23
ATOM     23  C   UNL     1      75.889  85.068  68.879  1.00  0.00     0.005 C 
ATOM     24  C   UNL     1      77.119  84.706  68.004  1.00  0.00     0.012 C 
ATOM     25  C   UNL     1      76.011  84.514  70.325  1.00  0.00     0.012 C 
ENDBRANCH  22  23
ENDBRANCH  20  21
ENDBRANCH  19  20
ENDBRANCH  18  19
ENDBRANCH   1  18
TORSDOF 11
ENDMDL
MODEL 4
REMARK VINA RESULT:    -6.091     17.476     20.747
REMARK INTER + INTRA:         -10.376
REMARK INTER:                  -9.231
REMARK INTRA:                  -1.145
REMARK UNBOUND:                -0.546
REMARK SMILES COc1cc(CNC(=O)CCCCC/C=C/C(C)C)ccc1O
REMARK SMILES IDX 11 1 10 2 8 3 7 4 9 6 6 7 5 8 3 9 22 10 4 11 21 12 20 13
REMARK SMILES IDX 2 14 1 15 23 16 12 18 13 19 14 20 15 21 16 22 17 23 18 24
REMARK SMILES IDX 19 25
REMARK H PARENT 7 5 23 17
REMARK Flexibility Score: inf
ROOT
ATOM      1  C   UNL     1      94.367  97.798  75.526  1.00  0.00     0.010 C 
ENDROOT
BRANCH   1   2
ATOM      2  C   UNL     1      94.439  96.808  74.334  1.00  0.00     0.100 C 
BRANCH   2   3
ATOM      3  C   UNL     1      94.711  97.452  73.035  1.00  0.00     0.220 C 
ATOM      4  N   UNL     1      94.413  98.768  72.854  1.00  0.00    -0.352 N 
ATOM      5  H   UNL     1      93.941  99.204  73.635  1.00  0.00     0.163 HD
ATOM      6  O   UNL     1      95.255  96.769  72.135  1.00  0.00    -0.275 OA
BRANCH   4   7
ATOM      7  C   UNL     1      94.712  99.534  71.689  1.00  0.00     0.151 C 
BRANCH   7   8
ATOM      8  C   UNL     1      93.496  99.897  70.915  1.00  0.00    -0.025 A 
ATOM      9  C   UNL     1      92.448 100.893  68.925  1.00  0.00     0.160 A 
ATOM     10  C   UNL     1      91.171 100.634  69.470  1.00  0.00     0.157 A 
ATOM     11  C   UNL     1      93.599 100.531  69.655  1.00  0.00     0.056 A 
ATOM     12  C   UNL     1      91.057  99.989  70.714  1.00  0.00     0.050 A 
ATOM     13  C   UNL     1      92.210  99.613  71.427  1.00  0.00     0.009 A 
BRANCH   9  14
ATOM     14  O   UNL     1      92.571 101.441  67.676  1.00  0.00    -0.493 OA
ATOM     15  C   UNL     1      93.829 101.170  67.036  1.00  0.00     0.278 C 
ENDBRANCH   9  14
BRANCH  10  16
ATOM     16  O   UNL     1      90.039 100.992  68.813  1.00  0.00    -0.504 OA
ATOM     17  H   UNL     1      89.683 100.229  68.351  1.00  0.00     0.293 HD
ENDBRANCH  10  16
ENDBRANCH   7   8
ENDBRANCH   4   7
ENDBRANCH   2   3
ENDBRANCH   1   2
BRANCH   1  18
ATOM     18  C   UNL     1      95.216  97.295  76.721  1.00  0.00     0.001 C 
BRANCH  18  19
ATOM     19  C   UNL     1      94.433  97.231  78.057  1.00  0.00     0.004 C 
BRANCH  19  20
ATOM     20  C   UNL     1      94.436  95.793  78.647  1.00  0.00     0.027 C 
BRANCH  20  21
ATOM     21  C   UNL     1      93.604  94.857  77.910  1.00  0.00    -0.031 C 
ATOM     22  C   UNL     1      92.317  95.116  77.618  1.00  0.00    -0.028 C 
BRANCH  22  23
ATOM     23  C   UNL     1      91.456  94.199  76.874  1.00  0.00     0.005 C 
ATOM     24  C   UNL     1      90.264  93.745  77.758  1.00  0.00     0.012 C 
ATOM     25  C   UNL     1      90.989  94.858  75.548  1.00  0.00     0.012 C 
ENDBRANCH  22  23
ENDBRANCH  20  21
ENDBRANCH  19  20
ENDBRANCH  18  19
ENDBRANCH   1  18
TORSDOF 11
ENDMDL
MODEL 5
REMARK VINA RESULT:    -6.059     17.317     20.402
REMARK INTER + INTRA:         -10.325
REMARK INTER:                  -9.140
REMARK INTRA:                  -1.185
REMARK UNBOUND:                -0.546
REMARK SMILES COc1cc(CNC(=O)CCCCC/C=C/C(C)C)ccc1O
REMARK SMILES IDX 11 1 10 2 8 3 7 4 9 6 6 7 5 8 3 9 22 10 4 11 21 12 20 13
REMARK SMILES IDX 2 14 1 15 23 16 12 18 13 19 14 20 15 21 16 22 17 23 18 24
REMARK SMILES IDX 19 25
REMARK H PARENT 7 5 23 17
REMARK Flexibility Score: inf
ROOT
ATOM      1  C   UNL     1      94.386  98.002  75.654  1.00  0.00     0.010 C 
ENDROOT
BRANCH   1   2
ATOM      2  C   UNL     1      94.449  97.077  74.412  1.00  0.00     0.100 C 
BRANCH   2   3
ATOM      3  C   UNL     1      94.549  97.798  73.130  1.00  0.00     0.220 C 
ATOM      4  N   UNL     1      94.191  99.110  73.061  1.00  0.00    -0.352 N 
ATOM      5  H   UNL     1      93.799  99.486  73.914  1.00  0.00     0.163 HD
ATOM      6  O   UNL     1      95.005  97.186  72.135  1.00  0.00    -0.275 OA
BRANCH   4   7
ATOM      7  C   UNL     1      94.328  99.949  71.914  1.00  0.00     0.151 C 
BRANCH   7   8
ATOM      8  C   UNL     1      93.030 100.219  71.244  1.00  0.00    -0.025 A 
ATOM      9  C   UNL     1      90.657 100.855  71.361  1.00  0.00     0.160 A 
ATOM     10  C   UNL     1      90.542 100.679  69.964  1.00  0.00     0.157 A 
ATOM     11  C   UNL     1      91.895 100.615  71.990  1.00  0.00     0.056 A 
ATOM     12  C   UNL     1      91.668 100.302  69.210  1.00  0.00     0.050 A 
ATOM     13  C   UNL     1      92.906 100.084  69.843  1.00  0.00     0.009 A 
BRANCH   9  14
ATOM     14  O   UNL     1      89.590 101.306  72.092  1.00  0.00    -0.493 OA
ATOM     15  C   UNL     1      89.956 102.033  73.277  1.00  0.00     0.278 C 
ENDBRANCH   9  14
BRANCH  10  16
ATOM     16  O   UNL     1      89.362 100.873  69.324  1.00  0.00    -0.504 OA
ATOM     17  H   UNL     1      89.352 101.748  68.928  1.00  0.00     0.293 HD
ENDBRANCH  10  16
ENDBRANCH   7   8
ENDBRANCH   4   7
ENDBRANCH   2   3
ENDBRANCH   1   2
BRANCH   1  18
ATOM     18  C   UNL     1      95.282  97.464  76.799  1.00  0.00     0.001 C 
BRANCH  18  19
ATOM     19  C   UNL     1      94.535  97.291  78.146  1.00  0.00     0.004 C 
BRANCH  19  20
ATOM     20  C   UNL     1      94.592  95.819  78.641  1.00  0.00     0.027 C 
BRANCH  20  21
ATOM     21  C   UNL     1      93.752  94.913  77.877  1.00  0.00    -0.031 C 
ATOM     22  C   UNL     1      92.458  95.175  77.622  1.00  0.00    -0.028 C 
BRANCH  22  23
ATOM     23  C   UNL     1      91.589  94.288  76.853  1.00  0.00     0.005 C 
ATOM     24  C   UNL     1      90.438  93.755  77.748  1.00  0.00     0.012 C 
ATOM     25  C   UNL     1      91.062  95.016  75.587  1.00  0.00     0.012 C 
ENDBRANCH  22  23
ENDBRANCH  20  21
ENDBRANCH  19  20
ENDBRANCH  18  19
ENDBRANCH   1  18
TORSDOF 11
ENDMDL
MODEL 6
REMARK VINA RESULT:    -5.986      7.069     12.013
REMARK INTER + INTRA:         -10.207
REMARK INTER:                  -9.512
REMARK INTRA:                  -0.694
REMARK UNBOUND:                -0.546
REMARK SMILES COc1cc(CNC(=O)CCCCC/C=C/C(C)C)ccc1O
REMARK SMILES IDX 11 1 10 2 8 3 7 4 9 6 6 7 5 8 3 9 22 10 4 11 21 12 20 13
REMARK SMILES IDX 2 14 1 15 23 16 12 18 13 19 14 20 15 21 16 22 17 23 18 24
REMARK SMILES IDX 19 25
REMARK H PARENT 7 5 23 17
REMARK Flexibility Score: inf
ROOT
ATOM      1  C   UNL     1      97.582  83.533  79.375  1.00  0.00     0.010 C 
ENDROOT
BRANCH   1   2
ATOM      2  C   UNL     1      97.073  82.858  78.075  1.00  0.00     0.100 C 
BRANCH   2   3
ATOM      3  C   UNL     1      96.788  83.803  76.980  1.00  0.00     0.220 C 
ATOM      4  N   UNL     1      97.438  83.677  75.790  1.00  0.00    -0.352 N 
ATOM      5  H   UNL     1      98.149  82.958  75.771  1.00  0.00     0.163 HD
ATOM      6  O   UNL     1      95.915  84.683  77.164  1.00  0.00    -0.275 OA
BRANCH   4   7
ATOM      7  C   UNL     1      97.190  84.458  74.622  1.00  0.00     0.151 C 
BRANCH   7   8
ATOM      8  C   UNL     1      98.255  84.310  73.597  1.00  0.00    -0.025 A 
ATOM      9  C   UNL     1      99.439  82.946  71.928  1.00  0.00     0.160 A 
ATOM     10  C   UNL     1     100.325  84.018  71.682  1.00  0.00     0.157 A 
ATOM     11  C   UNL     1      98.418  83.097  72.888  1.00  0.00     0.056 A 
ATOM     12  C   UNL     1     100.162  85.235  72.369  1.00  0.00     0.050 A 
ATOM     13  C   UNL     1      99.128  85.384  73.312  1.00  0.00     0.009 A 
BRANCH   9  14
ATOM     14  O   UNL     1      99.534  81.788  71.202  1.00  0.00    -0.493 OA
ATOM     15  C   UNL     1      99.558  80.594  72.002  1.00  0.00     0.278 C 
ENDBRANCH   9  14
BRANCH  10  16
ATOM     16  O   UNL     1     101.338  83.903  70.786  1.00  0.00    -0.504 OA
ATOM     17  H   UNL     1     102.082  84.437  71.076  1.00  0.00     0.293 HD
ENDBRANCH  10  16
ENDBRANCH   7   8
ENDBRANCH   4   7
ENDBRANCH   2   3
ENDBRANCH   1   2
BRANCH   1  18
ATOM     18  C   UNL     1      97.376  82.610  80.603  1.00  0.00     0.001 C 
BRANCH  18  19
ATOM     19  C   UNL     1      97.550  81.103  80.286  1.00  0.00     0.004 C 
BRANCH  19  20
ATOM     20  C   UNL     1      97.058  80.215  81.463  1.00  0.00     0.027 C 
BRANCH  20  21
ATOM     21  C   UNL     1      96.384  80.959  82.514  1.00  0.00    -0.031 C 
ATOM     22  C   UNL     1      95.733  80.350  83.521  1.00  0.00    -0.028 C 
BRANCH  22  23
ATOM     23  C   UNL     1      95.050  81.069  84.594  1.00  0.00     0.005 C 
ATOM     24  C   UNL     1      94.484  82.414  84.066  1.00  0.00     0.012 C 
ATOM     25  C   UNL     1      93.950  80.172  85.225  1.00  0.00     0.012 C 
ENDBRANCH  22  23
ENDBRANCH  20  21
ENDBRANCH  19  20
ENDBRANCH  18  19
ENDBRANCH   1  18
TORSDOF 11
ENDMDL
MODEL 7
REMARK VINA RESULT:    -5.972     21.349     23.350
REMARK INTER + INTRA:         -10.184
REMARK INTER:                  -9.402
REMARK INTRA:                  -0.781
REMARK UNBOUND:                -0.546
REMARK SMILES COc1cc(CNC(=O)CCCCC/C=C/C(C)C)ccc1O
REMARK SMILES IDX 11 1 10 2 8 3 7 4 9 6 6 7 5 8 3 9 22 10 4 11 21 12 20 13
REMARK SMILES IDX 2 14 1 15 23 16 12 18 13 19 14 20 15 21 16 22 17 23 18 24
REMARK SMILES IDX 19 25
REMARK H PARENT 7 5 23 17
REMARK Flexibility Score: inf
ROOT
ATOM      1  C   UNL     1      74.952  90.756  70.428  1.00  0.00     0.010 C 
ENDROOT
BRANCH   1   2
ATOM      2  C   UNL     1      73.708  91.215  71.232  1.00  0.00     0.100 C 
BRANCH   2   3
ATOM      3  C   UNL     1      73.805  92.591  71.755  1.00  0.00     0.220 C 
ATOM      4  N   UNL     1      73.721  92.814  73.095  1.00  0.00    -0.352 N 
ATOM      5  H   UNL     1      73.519  91.992  73.648  1.00  0.00     0.163 HD
ATOM      6  O   UNL     1      74.005  93.524  70.942  1.00  0.00    -0.275 OA
BRANCH   4   7
ATOM      7  C   UNL     1      73.896  94.075  73.739  1.00  0.00     0.151 C 
BRANCH   7   8
ATOM      8  C   UNL     1      75.226  94.208  74.387  1.00  0.00    -0.025 A 
ATOM      9  C   UNL     1      77.651  94.588  74.228  1.00  0.00     0.160 A 
ATOM     10  C   UNL     1      77.770  94.407  75.623  1.00  0.00     0.157 A 
ATOM     11  C   UNL     1      76.384  94.479  73.620  1.00  0.00     0.056 A 
ATOM     12  C   UNL     1      76.623  94.155  76.398  1.00  0.00     0.050 A 
ATOM     13  C   UNL     1      75.359  94.067  75.786  1.00  0.00     0.009 A 
BRANCH   9  14
ATOM     14  O   UNL     1      78.747  94.921  73.477  1.00  0.00    -0.493 OA
ATOM     15  C   UNL     1      78.557  96.072  72.638  1.00  0.00     0.278 C 
ENDBRANCH   9  14
BRANCH  10  16
ATOM     16  O   UNL     1      78.974  94.476  76.243  1.00  0.00    -0.504 OA
ATOM     17  H   UNL     1      79.662  94.625  75.589  1.00  0.00     0.293 HD
ENDBRANCH  10  16
ENDBRANCH   7   8
ENDBRANCH   4   7
ENDBRANCH   2   3
ENDBRANCH   1   2
BRANCH   1  18
ATOM     18  C   UNL     1      74.569  90.370  68.977  1.00  0.00     0.001 C 
BRANCH  18  19
ATOM     19  C   UNL     1      74.799  88.873  68.649  1.00  0.00     0.004 C 
BRANCH  19  20
ATOM     20  C   UNL     1      76.314  88.529  68.599  1.00  0.00     0.027 C 
BRANCH  20  21
ATOM     21  C   UNL     1      76.586  87.125  68.344  1.00  0.00    -0.031 C 
ATOM     22  C   UNL     1      75.864  86.139  68.906  1.00  0.00    -0.028 C 
BRANCH  22  23
ATOM     23  C   UNL     1      76.109  84.719  68.667  1.00  0.00     0.005 C 
ATOM     24  C   UNL     1      77.454  84.524  67.917  1.00  0.00     0.012 C 
ATOM     25  C   UNL     1      76.060  83.933  70.005  1.00  0.00     0.012 C 
ENDBRANCH  22  23
ENDBRANCH  20  21
ENDBRANCH  19  20
ENDBRANCH  18  19
ENDBRANCH   1  18
TORSDOF 11
ENDMDL
MODEL 8
REMARK VINA RESULT:    -5.852     17.551     20.407
REMARK INTER + INTRA:          -9.991
REMARK INTER:                  -8.900
REMARK INTRA:                  -1.091
REMARK UNBOUND:                -0.546
REMARK SMILES COc1cc(CNC(=O)CCCCC/C=C/C(C)C)ccc1O
REMARK SMILES IDX 11 1 10 2 8 3 7 4 9 6 6 7 5 8 3 9 22 10 4 11 21 12 20 13
REMARK SMILES IDX 2 14 1 15 23 16 12 18 13 19 14 20 15 21 16 22 17 23 18 24
REMARK SMILES IDX 19 25
REMARK H PARENT 7 5 23 17
REMARK Flexibility Score: inf
ROOT
ATOM      1  C   UNL     1      94.487  98.020  75.995  1.00  0.00     0.010 C 
ENDROOT
BRANCH   1   2
ATOM      2  C   UNL     1      94.462  97.335  74.604  1.00  0.00     0.100 C 
BRANCH   2   3
ATOM      3  C   UNL     1      94.229  98.264  73.482  1.00  0.00     0.220 C 
ATOM      4  N   UNL     1      94.091  99.597  73.723  1.00  0.00    -0.352 N 
ATOM      5  H   UNL     1      94.088  99.850  74.702  1.00  0.00     0.163 HD
ATOM      6  O   UNL     1      94.205  97.798  72.319  1.00  0.00    -0.275 OA
BRANCH   4   7
ATOM      7  C   UNL     1      93.959 100.611  72.728  1.00  0.00     0.151 C 
BRANCH   7   8
ATOM      8  C   UNL     1      92.649 101.308  72.792  1.00  0.00    -0.025 A 
ATOM      9  C   UNL     1      90.365 101.645  71.944  1.00  0.00     0.160 A 
ATOM     10  C   UNL     1      90.170 102.680  72.884  1.00  0.00     0.157 A 
ATOM     11  C   UNL     1      91.604 100.974  71.899  1.00  0.00     0.056 A 
ATOM     12  C   UNL     1      91.196 103.009  73.789  1.00  0.00     0.050 A 
ATOM     13  C   UNL     1      92.423 102.321  73.750  1.00  0.00     0.009 A 
BRANCH   9  14
ATOM     14  O   UNL     1      89.343 101.258  71.118  1.00  0.00    -0.493 OA
ATOM     15  C   UNL     1      89.540  99.974  70.502  1.00  0.00     0.278 C 
ENDBRANCH   9  14
BRANCH  10  16
ATOM     16  O   UNL     1      89.002 103.369  72.942  1.00  0.00    -0.504 OA
ATOM     17  H   UNL     1      88.436 103.100  72.214  1.00  0.00     0.293 HD
ENDBRANCH  10  16
ENDBRANCH   7   8
ENDBRANCH   4   7
ENDBRANCH   2   3
ENDBRANCH   1   2
BRANCH   1  18
ATOM     18  C   UNL     1      95.368  97.226  76.993  1.00  0.00     0.001 C 
BRANCH  18  19
ATOM     19  C   UNL     1      94.745  97.095  78.406  1.00  0.00     0.004 C 
BRANCH  19  20
ATOM     20  C   UNL     1      94.683  95.610  78.863  1.00  0.00     0.027 C 
BRANCH  20  21
ATOM     21  C   UNL     1      93.787  94.791  78.065  1.00  0.00    -0.031 C 
ATOM     22  C   UNL     1      92.525  95.165  77.789  1.00  0.00    -0.028 C 
BRANCH  22  23
ATOM     23  C   UNL     1      91.602  94.367  76.986  1.00  0.00     0.005 C 
ATOM     24  C   UNL     1      90.492  93.760  77.886  1.00  0.00     0.012 C 
ATOM     25  C   UNL     1      91.020  95.223  75.828  1.00  0.00     0.012 C 
ENDBRANCH  22  23
ENDBRANCH  20  21
ENDBRANCH  19  20
ENDBRANCH  18  19
ENDBRANCH   1  18
TORSDOF 11
ENDMDL
MODEL 9
REMARK VINA RESULT:    -5.630     17.195     20.145
REMARK INTER + INTRA:          -9.632
REMARK INTER:                  -8.718
REMARK INTRA:                  -0.914
REMARK UNBOUND:                -0.546
REMARK SMILES COc1cc(CNC(=O)CCCCC/C=C/C(C)C)ccc1O
REMARK SMILES IDX 11 1 10 2 8 3 7 4 9 6 6 7 5 8 3 9 22 10 4 11 21 12 20 13
REMARK SMILES IDX 2 14 1 15 23 16 12 18 13 19 14 20 15 21 16 22 17 23 18 24
REMARK SMILES IDX 19 25
REMARK H PARENT 7 5 23 17
REMARK Flexibility Score: inf
ROOT
ATOM      1  C   UNL     1      94.426 100.846  74.221  1.00  0.00     0.010 C 
ENDROOT
BRANCH   1   2
ATOM      2  C   UNL     1      95.445 100.305  73.184  1.00  0.00     0.100 C 
BRANCH   2   3
ATOM      3  C   UNL     1      95.396  98.843  73.001  1.00  0.00     0.220 C 
ATOM      4  N   UNL     1      94.692  98.073  73.876  1.00  0.00    -0.352 N 
ATOM      5  H   UNL     1      94.299  98.577  74.659  1.00  0.00     0.163 HD
ATOM      6  O   UNL     1      95.978  98.347  72.007  1.00  0.00    -0.275 OA
BRANCH   4   7
ATOM      7  C   UNL     1      94.483  96.666  73.761  1.00  0.00     0.151 C 
BRANCH   7   8
ATOM      8  C   UNL     1      93.925  96.067  75.001  1.00  0.00    -0.025 A 
ATOM      9  C   UNL     1      92.261  94.648  76.127  1.00  0.00     0.160 A 
ATOM     10  C   UNL     1      92.832  94.972  77.377  1.00  0.00     0.157 A 
ATOM     11  C   UNL     1      92.805  95.204  74.951  1.00  0.00     0.056 A 
ATOM     12  C   UNL     1      93.956  95.816  77.437  1.00  0.00     0.050 A 
ATOM     13  C   UNL     1      94.505  96.351  76.257  1.00  0.00     0.009 A 
BRANCH   9  14
ATOM     14  O   UNL     1      91.223  93.758  76.049  1.00  0.00    -0.493 OA
ATOM     15  C   UNL     1      89.930  94.374  75.918  1.00  0.00     0.278 C 
ENDBRANCH   9  14
BRANCH  10  16
ATOM     16  O   UNL     1      92.322  94.480  78.533  1.00  0.00    -0.504 OA
ATOM     17  H   UNL     1      93.032  94.353  79.167  1.00  0.00     0.293 HD
ENDBRANCH  10  16
ENDBRANCH   7   8
ENDBRANCH   4   7
ENDBRANCH   2   3
ENDBRANCH   1   2
BRANCH   1  18
ATOM     18  C   UNL     1      93.095 101.252  73.537  1.00  0.00     0.001 C 
BRANCH  18  19
ATOM     19  C   UNL     1      92.663 102.710  73.833  1.00  0.00     0.004 C 
BRANCH  19  20
ATOM     20  C   UNL     1      91.502 103.158  72.900  1.00  0.00     0.027 C 
BRANCH  20  21
ATOM     21  C   UNL     1      91.061 102.124  71.979  1.00  0.00    -0.031 C 
ATOM     22  C   UNL     1      89.805 101.645  71.984  1.00  0.00    -0.028 C 
BRANCH  22  23
ATOM     23  C   UNL     1      89.329 100.611  71.069  1.00  0.00     0.005 C 
ATOM     24  C   UNL     1      88.375 101.227  70.011  1.00  0.00     0.012 C 
ATOM     25  C   UNL     1      90.532  99.874  70.420  1.00  0.00     0.012 C 
ENDBRANCH  22  23
ENDBRANCH  20  21
ENDBRANCH  19  20
ENDBRANCH  18  19
ENDBRANCH   1  18
TORSDOF 11
ENDMDL
MODEL 10
REMARK VINA RESULT:    -5.577     16.327     20.700
REMARK INTER + INTRA:          -9.546
REMARK INTER:                  -8.733
REMARK INTRA:                  -0.814
REMARK UNBOUND:                -0.546
REMARK SMILES COc1cc(CNC(=O)CCCCC/C=C/C(C)C)ccc1O
REMARK SMILES IDX 11 1 10 2 8 3 7 4 9 6 6 7 5 8 3 9 22 10 4 11 21 12 20 13
REMARK SMILES IDX 2 14 1 15 23 16 12 18 13 19 14 20 15 21 16 22 17 23 18 24
REMARK SMILES IDX 19 25
REMARK H PARENT 7 5 23 17
REMARK Flexibility Score: inf
ROOT
ATOM      1  C   UNL     1      94.420  97.812  74.356  1.00  0.00     0.010 C 
ENDROOT
BRANCH   1   2
ATOM      2  C   UNL     1      94.899  96.913  73.188  1.00  0.00     0.100 C 
BRANCH   2   3
ATOM      3  C   UNL     1      95.834  97.579  72.262  1.00  0.00     0.220 C 
ATOM      4  N   UNL     1      96.221  96.948  71.119  1.00  0.00    -0.352 N 
ATOM      5  H   UNL     1      95.879  96.001  71.024  1.00  0.00     0.163 HD
ATOM      6  O   UNL     1      96.220  98.739  72.538  1.00  0.00    -0.275 OA
BRANCH   4   7
ATOM      7  C   UNL     1      97.039  97.513  70.095  1.00  0.00     0.151 C 
BRANCH   7   8
ATOM      8  C   UNL     1      98.443  97.029  70.152  1.00  0.00    -0.025 A 
ATOM      9  C   UNL     1     100.735  97.220  71.023  1.00  0.00     0.160 A 
ATOM     10  C   UNL     1     101.132  96.133  70.214  1.00  0.00     0.157 A 
ATOM     11  C   UNL     1      99.398  97.665  70.979  1.00  0.00     0.056 A 
ATOM     12  C   UNL     1     100.187  95.482  69.401  1.00  0.00     0.050 A 
ATOM     13  C   UNL     1      98.849  95.920  69.377  1.00  0.00     0.009 A 
BRANCH   9  14
ATOM     14  O   UNL     1     101.625  97.805  71.884  1.00  0.00    -0.493 OA
ATOM     15  C   UNL     1     101.548  97.314  73.233  1.00  0.00     0.278 C 
ENDBRANCH   9  14
BRANCH  10  16
ATOM     16  O   UNL     1     102.415  95.692  70.206  1.00  0.00    -0.504 OA
ATOM     17  H   UNL     1     102.959  96.282  70.734  1.00  0.00     0.293 HD
ENDBRANCH  10  16
ENDBRANCH   7   8
ENDBRANCH   4   7
ENDBRANCH   2   3
ENDBRANCH   1   2
BRANCH   1  18
ATOM     18  C   UNL     1      94.749  97.170  75.728  1.00  0.00     0.001 C 
BRANCH  18  19
ATOM     19  C   UNL     1      93.753  97.554  76.851  1.00  0.00     0.004 C 
BRANCH  19  20
ATOM     20  C   UNL     1      93.695  96.462  77.956  1.00  0.00     0.027 C 
BRANCH  20  21
ATOM     21  C   UNL     1      92.975  95.265  77.557  1.00  0.00    -0.031 C 
ATOM     22  C   UNL     1      91.739  95.313  77.028  1.00  0.00    -0.028 C 
BRANCH  22  23
ATOM     23  C   UNL     1      90.991  94.129  76.612  1.00  0.00     0.005 C 
ATOM     24  C   UNL     1      90.066  93.646  77.761  1.00  0.00     0.012 C 
ATOM     25  C   UNL     1      90.204  94.423  75.306  1.00  0.00     0.012 C 
ENDBRANCH  22  23
ENDBRANCH  20  21
ENDBRANCH  19  20
ENDBRANCH  18  19
ENDBRANCH   1  18
TORSDOF 11
ENDMDL
