MODEL 1
REMARK VINA RESULT:    -5.628      0.000      0.000
REMARK INTER + INTRA:          -9.755
REMARK INTER:                  -8.754
REMARK INTRA:                  -1.001
REMARK UNBOUND:                -1.001
REMARK SMILES COc1cc(CNC(=O)CCCCCC(C)C)ccc1O
REMARK SMILES IDX 10 1 8 2 7 3 9 5 6 6 5 7 3 8 20 9 4 10 19 11 18 12 2 13 1 14
REMARK SMILES IDX 21 15 11 17 12 18 13 19 14 20 15 21 16 22 17 23
REMARK H PARENT 7 4 21 16
REMARK Flexibility Score: inf
ROOT
ATOM      1  C   UNL     1      98.404  82.809  77.952  1.00  0.00     0.100 C 
ENDROOT
BRANCH   1   2
ATOM      2  C   UNL     1      98.433  82.381  79.366  1.00  0.00     0.220 C 
ATOM      3  N   UNL     1      97.267  82.044  79.988  1.00  0.00    -0.352 N 
ATOM      4  H   UNL     1      96.430  82.242  79.458  1.00  0.00     0.163 HD
ATOM      5  O   UNL     1      99.538  82.296  79.955  1.00  0.00    -0.275 OA
BRANCH   3   6
ATOM      6  C   UNL     1      97.168  81.453  81.284  1.00  0.00     0.151 C 
BRANCH   6   7
ATOM      7  C   UNL     1      96.897  82.445  82.359  1.00  0.00    -0.025 A 
ATOM      8  C   UNL     1      97.148  83.184  84.691  1.00  0.00     0.160 A 
ATOM      9  C   UNL     1      96.439  84.366  84.390  1.00  0.00     0.157 A 
ATOM     10  C   UNL     1      97.356  82.223  83.679  1.00  0.00     0.056 A 
ATOM     11  C   UNL     1      95.955  84.585  83.087  1.00  0.00     0.050 A 
ATOM     12  C   UNL     1      96.187  83.636  82.078  1.00  0.00     0.009 A 
BRANCH   8  13
ATOM     13  O   UNL     1      97.610  82.942  85.958  1.00  0.00    -0.493 OA
ATOM     14  C   UNL     1      96.792  82.027  86.712  1.00  0.00     0.278 C 
ENDBRANCH   8  13
BRANCH   9  15
ATOM     15  O   UNL     1      96.231  85.296  85.357  1.00  0.00    -0.504 OA
ATOM     16  H   UNL     1      95.775  86.052  84.981  1.00  0.00     0.293 HD
ENDBRANCH   9  15
ENDBRANCH   6   7
ENDBRANCH   3   6
ENDBRANCH   1   2
BRANCH   1  17
ATOM     17  C   UNL     1      96.985  82.839  77.323  1.00  0.00     0.010 C 
BRANCH  17  18
ATOM     18  C   UNL     1      96.483  84.293  77.110  1.00  0.00     0.001 C 
BRANCH  18  19
ATOM     19  C   UNL     1      96.818  84.861  75.706  1.00  0.00     0.000 C 
BRANCH  19  20
ATOM     20  C   UNL     1      96.993  83.738  74.643  1.00  0.00     0.003 C 
BRANCH  20  21
ATOM     21  C   UNL     1      98.269  83.868  73.749  1.00  0.00    -0.017 C 
ATOM     22  C   UNL     1      99.220  82.653  73.959  1.00  0.00     0.007 C 
ATOM     23  C   UNL     1      99.042  85.198  73.988  1.00  0.00     0.007 C 
ENDBRANCH  20  21
ENDBRANCH  19  20
ENDBRANCH  18  19
ENDBRANCH  17  18
ENDBRANCH   1  17
TORSDOF 10
ENDMDL
MODEL 2
REMARK VINA RESULT:    -5.625      2.211      4.056
REMARK INTER + INTRA:          -9.749
REMARK INTER:                  -8.808
REMARK INTRA:                  -0.941
REMARK UNBOUND:                -1.001
REMARK SMILES COc1cc(CNC(=O)CCCCCC(C)C)ccc1O
REMARK SMILES IDX 10 1 8 2 7 3 9 5 6 6 5 7 3 8 20 9 4 10 19 11 18 12 2 13 1 14
REMARK SMILES IDX 21 15 11 17 12 18 13 19 14 20 15 21 16 22 17 23
REMARK H PARENT 7 4 21 16
REMARK Flexibility Score: inf
ROOT
ATOM      1  C   UNL     1      97.497  84.636  74.942  1.00  0.00     0.100 C 
ENDROOT
BRANCH   1   2
ATOM      2  C   UNL     1      96.742  84.632  76.212  1.00  0.00     0.220 C 
ATOM      3  N   UNL     1      96.982  83.654  77.130  1.00  0.00    -0.352 N 
ATOM      4  H   UNL     1      97.583  82.908  76.810  1.00  0.00     0.163 HD
ATOM      5  O   UNL     1      95.922  85.556  76.436  1.00  0.00    -0.275 OA
BRANCH   3   6
ATOM      6  C   UNL     1      96.456  83.626  78.457  1.00  0.00     0.151 C 
BRANCH   6   7
ATOM      7  C   UNL     1      97.377  82.990  79.438  1.00  0.00    -0.025 A 
ATOM      8  C   UNL     1      97.882  82.274  81.735  1.00  0.00     0.160 A 
ATOM      9  C   UNL     1      99.102  81.719  81.292  1.00  0.00     0.157 A 
ATOM     10  C   UNL     1      97.037  82.922  80.809  1.00  0.00     0.056 A 
ATOM     11  C   UNL     1      99.462  81.805  79.935  1.00  0.00     0.050 A 
ATOM     12  C   UNL     1      98.605  82.430  79.013  1.00  0.00     0.009 A 
BRANCH   8  13
ATOM     13  O   UNL     1      97.521  82.218  83.056  1.00  0.00    -0.493 OA
ATOM     14  C   UNL     1      96.682  83.311  83.476  1.00  0.00     0.278 C 
ENDBRANCH   8  13
BRANCH   9  15
ATOM     15  O   UNL     1      99.922  81.096  82.174  1.00  0.00    -0.504 OA
ATOM     16  H   UNL     1      99.580  81.207  83.064  1.00  0.00     0.293 HD
ENDBRANCH   9  15
ENDBRANCH   6   7
ENDBRANCH   3   6
ENDBRANCH   1   2
BRANCH   1  17
ATOM     17  C   UNL     1      98.124  83.266  74.567  1.00  0.00     0.010 C 
BRANCH  17  18
ATOM     18  C   UNL     1      98.166  83.058  73.028  1.00  0.00     0.001 C 
BRANCH  18  19
ATOM     19  C   UNL     1      99.567  83.312  72.410  1.00  0.00     0.000 C 
BRANCH  19  20
ATOM     20  C   UNL     1     100.644  83.607  73.495  1.00  0.00     0.003 C 
BRANCH  20  21
ATOM     21  C   UNL     1     101.179  85.076  73.511  1.00  0.00    -0.017 C 
ATOM     22  C   UNL     1     101.681  85.468  74.932  1.00  0.00     0.007 C 
ATOM     23  C   UNL     1     100.126  86.108  73.013  1.00  0.00     0.007 C 
ENDBRANCH  20  21
ENDBRANCH  19  20
ENDBRANCH  18  19
ENDBRANCH  17  18
ENDBRANCH   1  17
TORSDOF 10
ENDMDL
MODEL 3
REMARK VINA RESULT:    -5.552      2.796      4.807
REMARK INTER + INTRA:          -9.636
REMARK INTER:                  -8.593
REMARK INTRA:                  -1.044
REMARK UNBOUND:                -1.001
REMARK SMILES COc1cc(CNC(=O)CCCCCC(C)C)ccc1O
REMARK SMILES IDX 10 1 8 2 7 3 9 5 6 6 5 7 3 8 20 9 4 10 19 11 18 12 2 13 1 14
REMARK SMILES IDX 21 15 11 17 12 18 13 19 14 20 15 21 16 22 17 23
REMARK H PARENT 7 4 21 16
REMARK Flexibility Score: inf
ROOT
ATOM      1  C   UNL     1      97.546  84.521  74.673  1.00  0.00     0.100 C 
ENDROOT
BRANCH   1   2
ATOM      2  C   UNL     1      96.794  84.596  75.943  1.00  0.00     0.220 C 
ATOM      3  N   UNL     1      96.992  83.642  76.896  1.00  0.00    -0.352 N 
ATOM      4  H   UNL     1      97.559  82.859  76.601  1.00  0.00     0.163 HD
ATOM      5  O   UNL     1      96.018  85.564  76.135  1.00  0.00    -0.275 OA
BRANCH   3   6
ATOM      6  C   UNL     1      96.469  83.685  78.223  1.00  0.00     0.151 C 
BRANCH   6   7
ATOM      7  C   UNL     1      97.350  83.020  79.221  1.00  0.00    -0.025 A 
ATOM      8  C   UNL     1      99.451  81.869  79.778  1.00  0.00     0.160 A 
ATOM      9  C   UNL     1      99.058  81.813  81.132  1.00  0.00     0.157 A 
ATOM     10  C   UNL     1      98.587  82.455  78.828  1.00  0.00     0.056 A 
ATOM     11  C   UNL     1      97.818  82.348  81.529  1.00  0.00     0.050 A 
ATOM     12  C   UNL     1      96.974  82.952  80.582  1.00  0.00     0.009 A 
BRANCH   8  13
ATOM     13  O   UNL     1     100.644  81.336  79.368  1.00  0.00    -0.493 OA
ATOM     14  C   UNL     1     100.518  80.381  78.297  1.00  0.00     0.278 C 
ENDBRANCH   8  13
BRANCH   9  15
ATOM     15  O   UNL     1      99.880  81.250  82.053  1.00  0.00    -0.504 OA
ATOM     16  H   UNL     1      99.388  81.079  82.859  1.00  0.00     0.293 HD
ENDBRANCH   9  15
ENDBRANCH   6   7
ENDBRANCH   3   6
ENDBRANCH   1   2
BRANCH   1  17
ATOM     17  C   UNL     1      98.131  83.118  74.359  1.00  0.00     0.010 C 
BRANCH  17  18
ATOM     18  C   UNL     1      98.284  82.890  72.830  1.00  0.00     0.001 C 
BRANCH  18  19
ATOM     19  C   UNL     1      99.566  83.533  72.237  1.00  0.00     0.000 C 
BRANCH  19  20
ATOM     20  C   UNL     1     100.723  83.604  73.275  1.00  0.00     0.003 C 
BRANCH  20  21
ATOM     21  C   UNL     1     101.299  85.036  73.525  1.00  0.00    -0.017 C 
ATOM     22  C   UNL     1     101.728  85.210  75.012  1.00  0.00     0.007 C 
ATOM     23  C   UNL     1     100.307  86.165  73.119  1.00  0.00     0.007 C 
ENDBRANCH  20  21
ENDBRANCH  19  20
ENDBRANCH  18  19
ENDBRANCH  17  18
ENDBRANCH   1  17
TORSDOF 10
ENDMDL
MODEL 4
REMARK VINA RESULT:    -5.086      3.318      8.942
REMARK INTER + INTRA:          -8.912
REMARK INTER:                  -7.974
REMARK INTRA:                  -0.938
REMARK UNBOUND:                -1.001
REMARK SMILES COc1cc(CNC(=O)CCCCCC(C)C)ccc1O
REMARK SMILES IDX 10 1 8 2 7 3 9 5 6 6 5 7 3 8 20 9 4 10 19 11 18 12 2 13 1 14
REMARK SMILES IDX 21 15 11 17 12 18 13 19 14 20 15 21 16 22 17 23
REMARK H PARENT 7 4 21 16
REMARK Flexibility Score: inf
ROOT
ATOM      1  C   UNL     1      98.411  82.523  78.885  1.00  0.00     0.100 C 
ENDROOT
BRANCH   1   2
ATOM      2  C   UNL     1      97.579  82.731  77.682  1.00  0.00     0.220 C 
ATOM      3  N   UNL     1      97.442  83.987  77.171  1.00  0.00    -0.352 N 
ATOM      4  H   UNL     1      97.826  84.724  77.746  1.00  0.00     0.163 HD
ATOM      5  O   UNL     1      97.048  81.737  77.130  1.00  0.00    -0.275 OA
BRANCH   3   6
ATOM      6  C   UNL     1      96.816  84.305  75.928  1.00  0.00     0.151 C 
BRANCH   6   7
ATOM      7  C   UNL     1      97.746  84.226  74.769  1.00  0.00    -0.025 A 
ATOM      8  C   UNL     1      99.768  84.995  73.600  1.00  0.00     0.160 A 
ATOM      9  C   UNL     1      99.553  84.028  72.596  1.00  0.00     0.157 A 
ATOM     10  C   UNL     1      98.854  85.100  74.670  1.00  0.00     0.056 A 
ATOM     11  C   UNL     1      98.440  83.171  72.670  1.00  0.00     0.050 A 
ATOM     12  C   UNL     1      97.546  83.265  73.750  1.00  0.00     0.009 A 
BRANCH   8  13
ATOM     13  O   UNL     1     100.835  85.853  73.537  1.00  0.00    -0.493 OA
ATOM     14  C   UNL     1     101.669  85.832  74.711  1.00  0.00     0.278 C 
ENDBRANCH   8  13
BRANCH   9  15
ATOM     15  O   UNL     1     100.425  83.920  71.562  1.00  0.00    -0.504 OA
ATOM     16  H   UNL     1     101.315  83.809  71.904  1.00  0.00     0.293 HD
ENDBRANCH   9  15
ENDBRANCH   6   7
ENDBRANCH   3   6
ENDBRANCH   1   2
BRANCH   1  17
ATOM     17  C   UNL     1      98.104  83.501  80.051  1.00  0.00     0.010 C 
BRANCH  17  18
ATOM     18  C   UNL     1      96.710  83.222  80.679  1.00  0.00     0.001 C 
BRANCH  18  19
ATOM     19  C   UNL     1      96.766  82.948  82.205  1.00  0.00     0.000 C 
BRANCH  19  20
ATOM     20  C   UNL     1      97.795  81.838  82.566  1.00  0.00     0.003 C 
BRANCH  20  21
ATOM     21  C   UNL     1      97.186  80.412  82.767  1.00  0.00    -0.017 C 
ATOM     22  C   UNL     1      97.062  79.664  81.407  1.00  0.00     0.007 C 
ATOM     23  C   UNL     1      95.806  80.441  83.487  1.00  0.00     0.007 C 
ENDBRANCH  20  21
ENDBRANCH  19  20
ENDBRANCH  18  19
ENDBRANCH  17  18
ENDBRANCH   1  17
TORSDOF 10
ENDMDL
MODEL 5
REMARK VINA RESULT:    -5.032     43.243     45.041
REMARK INTER + INTRA:          -8.827
REMARK INTER:                  -8.246
REMARK INTRA:                  -0.581
REMARK UNBOUND:                -1.001
REMARK SMILES COc1cc(CNC(=O)CCCCCC(C)C)ccc1O
REMARK SMILES IDX 10 1 8 2 7 3 9 5 6 6 5 7 3 8 20 9 4 10 19 11 18 12 2 13 1 14
REMARK SMILES IDX 21 15 11 17 12 18 13 19 14 20 15 21 16 22 17 23
REMARK H PARENT 7 4 21 16
REMARK Flexibility Score: inf
ROOT
ATOM      1  C   UNL     1      54.351  93.508  72.783  1.00  0.00     0.100 C 
ENDROOT
BRANCH   1   2
ATOM      2  C   UNL     1      55.444  92.539  72.560  1.00  0.00     0.220 C 
ATOM      3  N   UNL     1      55.806  92.218  71.286  1.00  0.00    -0.352 N 
ATOM      4  H   UNL     1      55.195  92.579  70.567  1.00  0.00     0.163 HD
ATOM      5  O   UNL     1      56.046  92.062  73.553  1.00  0.00    -0.275 OA
BRANCH   3   6
ATOM      6  C   UNL     1      56.946  91.438  70.927  1.00  0.00     0.151 C 
BRANCH   6   7
ATOM      7  C   UNL     1      56.706  90.558  69.751  1.00  0.00    -0.025 A 
ATOM      8  C   UNL     1      55.486  90.058  67.676  1.00  0.00     0.160 A 
ATOM      9  C   UNL     1      56.294  88.919  67.478  1.00  0.00     0.157 A 
ATOM     10  C   UNL     1      55.684  90.860  68.820  1.00  0.00     0.056 A 
ATOM     11  C   UNL     1      57.295  88.594  68.412  1.00  0.00     0.050 A 
ATOM     12  C   UNL     1      57.504  89.410  69.536  1.00  0.00     0.009 A 
BRANCH   8  13
ATOM     13  O   UNL     1      54.492  90.381  66.789  1.00  0.00    -0.493 OA
ATOM     14  C   UNL     1      53.933  91.693  66.993  1.00  0.00     0.278 C 
ENDBRANCH   8  13
BRANCH   9  15
ATOM     15  O   UNL     1      56.109  88.140  66.382  1.00  0.00    -0.504 OA
ATOM     16  H   UNL     1      56.153  88.684  65.592  1.00  0.00     0.293 HD
ENDBRANCH   9  15
ENDBRANCH   6   7
ENDBRANCH   3   6
ENDBRANCH   1   2
BRANCH   1  17
ATOM     17  C   UNL     1      53.702  93.425  74.191  1.00  0.00     0.010 C 
BRANCH  17  18
ATOM     18  C   UNL     1      52.521  92.416  74.219  1.00  0.00     0.001 C 
BRANCH  18  19
ATOM     19  C   UNL     1      52.685  91.306  75.290  1.00  0.00     0.000 C 
BRANCH  19  20
ATOM     20  C   UNL     1      51.326  90.908  75.937  1.00  0.00     0.003 C 
BRANCH  20  21
ATOM     21  C   UNL     1      51.442  90.147  77.298  1.00  0.00    -0.017 C 
ATOM     22  C   UNL     1      52.838  90.378  77.947  1.00  0.00     0.007 C 
ATOM     23  C   UNL     1      51.161  88.622  77.164  1.00  0.00     0.007 C 
ENDBRANCH  20  21
ENDBRANCH  19  20
ENDBRANCH  18  19
ENDBRANCH  17  18
ENDBRANCH   1  17
TORSDOF 10
ENDMDL
MODEL 6
REMARK VINA RESULT:    -5.025     27.446     29.075
REMARK INTER + INTRA:          -8.817
REMARK INTER:                  -7.916
REMARK INTRA:                  -0.901
REMARK UNBOUND:                -1.001
REMARK SMILES COc1cc(CNC(=O)CCCCCC(C)C)ccc1O
REMARK SMILES IDX 10 1 8 2 7 3 9 5 6 6 5 7 3 8 20 9 4 10 19 11 18 12 2 13 1 14
REMARK SMILES IDX 21 15 11 17 12 18 13 19 14 20 15 21 16 22 17 23
REMARK H PARENT 7 4 21 16
REMARK Flexibility Score: inf
ROOT
ATOM      1  C   UNL     1      73.010  85.943  68.215  1.00  0.00     0.100 C 
ENDROOT
BRANCH   1   2
ATOM      2  C   UNL     1      71.878  85.044  67.907  1.00  0.00     0.220 C 
ATOM      3  N   UNL     1      71.260  84.376  68.921  1.00  0.00    -0.352 N 
ATOM      4  H   UNL     1      71.718  84.446  69.819  1.00  0.00     0.163 HD
ATOM      5  O   UNL     1      71.482  84.948  66.720  1.00  0.00    -0.275 OA
BRANCH   3   6
ATOM      6  C   UNL     1      70.057  83.618  68.792  1.00  0.00     0.151 C 
BRANCH   6   7
ATOM      7  C   UNL     1      68.941  84.146  69.623  1.00  0.00    -0.025 A 
ATOM      8  C   UNL     1      66.533  84.363  70.071  1.00  0.00     0.160 A 
ATOM      9  C   UNL     1      66.819  85.096  71.242  1.00  0.00     0.157 A 
ATOM     10  C   UNL     1      67.594  83.909  69.259  1.00  0.00     0.056 A 
ATOM     11  C   UNL     1      68.154  85.361  71.599  1.00  0.00     0.050 A 
ATOM     12  C   UNL     1      69.207  84.886  70.799  1.00  0.00     0.009 A 
BRANCH   8  13
ATOM     13  O   UNL     1      65.239  84.111  69.694  1.00  0.00    -0.493 OA
ATOM     14  C   UNL     1      64.936  84.517  68.346  1.00  0.00     0.278 C 
ENDBRANCH   8  13
BRANCH   9  15
ATOM     15  O   UNL     1      65.805  85.539  72.027  1.00  0.00    -0.504 OA
ATOM     16  H   UNL     1      65.534  86.413  71.738  1.00  0.00     0.293 HD
ENDBRANCH   9  15
ENDBRANCH   6   7
ENDBRANCH   3   6
ENDBRANCH   1   2
BRANCH   1  17
ATOM     17  C   UNL     1      74.394  85.405  67.760  1.00  0.00     0.010 C 
BRANCH  17  18
ATOM     18  C   UNL     1      75.262  84.964  68.971  1.00  0.00     0.001 C 
BRANCH  18  19
ATOM     19  C   UNL     1      76.163  86.097  69.529  1.00  0.00     0.000 C 
BRANCH  19  20
ATOM     20  C   UNL     1      77.118  86.677  68.445  1.00  0.00     0.003 C 
BRANCH  20  21
ATOM     21  C   UNL     1      76.976  88.214  68.195  1.00  0.00    -0.017 C 
ATOM     22  C   UNL     1      75.741  88.788  68.951  1.00  0.00     0.007 C 
ATOM     23  C   UNL     1      76.891  88.574  66.683  1.00  0.00     0.007 C 
ENDBRANCH  20  21
ENDBRANCH  19  20
ENDBRANCH  18  19
ENDBRANCH  17  18
ENDBRANCH   1  17
TORSDOF 10
ENDMDL
MODEL 7
REMARK VINA RESULT:    -4.975     12.754     16.134
REMARK INTER + INTRA:          -8.739
REMARK INTER:                  -8.080
REMARK INTRA:                  -0.659
REMARK UNBOUND:                -1.001
REMARK SMILES COc1cc(CNC(=O)CCCCCC(C)C)ccc1O
REMARK SMILES IDX 10 1 8 2 7 3 9 5 6 6 5 7 3 8 20 9 4 10 19 11 18 12 2 13 1 14
REMARK SMILES IDX 21 15 11 17 12 18 13 19 14 20 15 21 16 22 17 23
REMARK H PARENT 7 4 21 16
REMARK Flexibility Score: inf
ROOT
ATOM      1  C   UNL     1      92.047  77.566  71.063  1.00  0.00     0.100 C 
ENDROOT
BRANCH   1   2
ATOM      2  C   UNL     1      92.207  76.219  70.476  1.00  0.00     0.220 C 
ATOM      3  N   UNL     1      91.743  75.978  69.217  1.00  0.00    -0.352 N 
ATOM      4  H   UNL     1      91.192  76.723  68.818  1.00  0.00     0.163 HD
ATOM      5  O   UNL     1      92.807  75.335  71.135  1.00  0.00    -0.275 OA
BRANCH   3   6
ATOM      6  C   UNL     1      91.982  74.786  68.468  1.00  0.00     0.151 C 
BRANCH   6   7
ATOM      7  C   UNL     1      90.945  73.741  68.686  1.00  0.00    -0.025 A 
ATOM      8  C   UNL     1      88.801  72.705  68.074  1.00  0.00     0.160 A 
ATOM      9  C   UNL     1      89.003  71.712  69.056  1.00  0.00     0.157 A 
ATOM     10  C   UNL     1      89.763  73.723  67.908  1.00  0.00     0.056 A 
ATOM     11  C   UNL     1      90.162  71.736  69.854  1.00  0.00     0.050 A 
ATOM     12  C   UNL     1      91.128  72.738  69.667  1.00  0.00     0.009 A 
BRANCH   8  13
ATOM     13  O   UNL     1      87.670  72.711  67.301  1.00  0.00    -0.493 OA
ATOM     14  C   UNL     1      87.724  73.636  66.197  1.00  0.00     0.278 C 
ENDBRANCH   8  13
BRANCH   9  15
ATOM     15  O   UNL     1      88.083  70.730  69.226  1.00  0.00    -0.504 OA
ATOM     16  H   UNL     1      87.201  71.096  69.123  1.00  0.00     0.293 HD
ENDBRANCH   9  15
ENDBRANCH   6   7
ENDBRANCH   3   6
ENDBRANCH   1   2
BRANCH   1  17
ATOM     17  C   UNL     1      91.348  77.579  72.449  1.00  0.00     0.010 C 
BRANCH  17  18
ATOM     18  C   UNL     1      92.306  78.071  73.569  1.00  0.00     0.001 C 
BRANCH  18  19
ATOM     19  C   UNL     1      91.584  78.372  74.909  1.00  0.00     0.000 C 
BRANCH  19  20
ATOM     20  C   UNL     1      92.180  77.559  76.094  1.00  0.00     0.003 C 
BRANCH  20  21
ATOM     21  C   UNL     1      91.285  76.384  76.605  1.00  0.00    -0.017 C 
ATOM     22  C   UNL     1      89.896  76.397  75.902  1.00  0.00     0.007 C 
ATOM     23  C   UNL     1      91.101  76.392  78.151  1.00  0.00     0.007 C 
ENDBRANCH  20  21
ENDBRANCH  19  20
ENDBRANCH  18  19
ENDBRANCH  17  18
ENDBRANCH   1  17
TORSDOF 10
ENDMDL
MODEL 8
REMARK VINA RESULT:    -4.948     26.667     28.891
REMARK INTER + INTRA:          -8.696
REMARK INTER:                  -8.179
REMARK INTRA:                  -0.518
REMARK UNBOUND:                -1.001
REMARK SMILES COc1cc(CNC(=O)CCCCCC(C)C)ccc1O
REMARK SMILES IDX 10 1 8 2 7 3 9 5 6 6 5 7 3 8 20 9 4 10 19 11 18 12 2 13 1 14
REMARK SMILES IDX 21 15 11 17 12 18 13 19 14 20 15 21 16 22 17 23
REMARK H PARENT 7 4 21 16
REMARK Flexibility Score: inf
ROOT
ATOM      1  C   UNL     1      70.247  85.154  69.730  1.00  0.00     0.100 C 
ENDROOT
BRANCH   1   2
ATOM      2  C   UNL     1      70.721  84.519  68.483  1.00  0.00     0.220 C 
ATOM      3  N   UNL     1      71.593  85.191  67.679  1.00  0.00    -0.352 N 
ATOM      4  H   UNL     1      71.754  86.153  67.938  1.00  0.00     0.163 HD
ATOM      5  O   UNL     1      70.343  83.353  68.211  1.00  0.00    -0.275 OA
BRANCH   3   6
ATOM      6  C   UNL     1      72.261  84.635  66.546  1.00  0.00     0.151 C 
BRANCH   6   7
ATOM      7  C   UNL     1      73.737  84.561  66.715  1.00  0.00    -0.025 A 
ATOM      8  C   UNL     1      75.775  85.174  67.946  1.00  0.00     0.160 A 
ATOM      9  C   UNL     1      76.540  84.366  67.079  1.00  0.00     0.157 A 
ATOM     10  C   UNL     1      74.382  85.281  67.748  1.00  0.00     0.056 A 
ATOM     11  C   UNL     1      75.912  83.666  66.032  1.00  0.00     0.050 A 
ATOM     12  C   UNL     1      74.521  83.758  65.854  1.00  0.00     0.009 A 
BRANCH   8  13
ATOM     13  O   UNL     1      76.370  85.879  68.960  1.00  0.00    -0.493 OA
ATOM     14  C   UNL     1      76.596  87.267  68.648  1.00  0.00     0.278 C 
ENDBRANCH   8  13
BRANCH   9  15
ATOM     15  O   UNL     1      77.880  84.258  67.259  1.00  0.00    -0.504 OA
ATOM     16  H   UNL     1      78.079  83.422  67.688  1.00  0.00     0.293 HD
ENDBRANCH   9  15
ENDBRANCH   6   7
ENDBRANCH   3   6
ENDBRANCH   1   2
BRANCH   1  17
ATOM     17  C   UNL     1      69.274  84.277  70.563  1.00  0.00     0.010 C 
BRANCH  17  18
ATOM     18  C   UNL     1      68.133  85.124  71.190  1.00  0.00     0.001 C 
BRANCH  18  19
ATOM     19  C   UNL     1      68.098  85.060  72.740  1.00  0.00     0.000 C 
BRANCH  19  20
ATOM     20  C   UNL     1      67.437  86.322  73.367  1.00  0.00     0.003 C 
BRANCH  20  21
ATOM     21  C   UNL     1      66.647  86.065  74.691  1.00  0.00    -0.017 C 
ATOM     22  C   UNL     1      67.611  86.014  75.912  1.00  0.00     0.007 C 
ATOM     23  C   UNL     1      65.784  84.770  74.638  1.00  0.00     0.007 C 
ENDBRANCH  20  21
ENDBRANCH  19  20
ENDBRANCH  18  19
ENDBRANCH  17  18
ENDBRANCH   1  17
TORSDOF 10
ENDMDL
MODEL 9
REMARK VINA RESULT:    -4.923     23.478     24.902
REMARK INTER + INTRA:          -8.658
REMARK INTER:                  -8.165
REMARK INTRA:                  -0.493
REMARK UNBOUND:                -1.001
REMARK SMILES COc1cc(CNC(=O)CCCCCC(C)C)ccc1O
REMARK SMILES IDX 10 1 8 2 7 3 9 5 6 6 5 7 3 8 20 9 4 10 19 11 18 12 2 13 1 14
REMARK SMILES IDX 21 15 11 17 12 18 13 19 14 20 15 21 16 22 17 23
REMARK H PARENT 7 4 21 16
REMARK Flexibility Score: inf
ROOT
ATOM      1  C   UNL     1      74.189  90.080  70.158  1.00  0.00     0.100 C 
ENDROOT
BRANCH   1   2
ATOM      2  C   UNL     1      73.939  91.488  70.529  1.00  0.00     0.220 C 
ATOM      3  N   UNL     1      74.520  91.999  71.651  1.00  0.00    -0.352 N 
ATOM      4  H   UNL     1      74.989  91.319  72.234  1.00  0.00     0.163 HD
ATOM      5  O   UNL     1      73.227  92.199  69.778  1.00  0.00    -0.275 OA
BRANCH   3   6
ATOM      6  C   UNL     1      74.506  93.375  72.031  1.00  0.00     0.151 C 
BRANCH   6   7
ATOM      7  C   UNL     1      75.117  93.620  73.365  1.00  0.00    -0.025 A 
ATOM      8  C   UNL     1      77.006  94.398  74.735  1.00  0.00     0.160 A 
ATOM      9  C   UNL     1      76.258  94.148  75.904  1.00  0.00     0.157 A 
ATOM     10  C   UNL     1      76.439  94.114  73.474  1.00  0.00     0.056 A 
ATOM     11  C   UNL     1      74.952  93.631  75.809  1.00  0.00     0.050 A 
ATOM     12  C   UNL     1      74.384  93.374  74.550  1.00  0.00     0.009 A 
BRANCH   8  13
ATOM     13  O   UNL     1      78.286  94.882  74.806  1.00  0.00    -0.493 OA
ATOM     14  C   UNL     1      78.430  96.221  74.295  1.00  0.00     0.278 C 
ENDBRANCH   8  13
BRANCH   9  15
ATOM     15  O   UNL     1      76.794  94.415  77.121  1.00  0.00    -0.504 OA
ATOM     16  H   UNL     1      76.256  95.069  77.573  1.00  0.00     0.293 HD
ENDBRANCH   9  15
ENDBRANCH   6   7
ENDBRANCH   3   6
ENDBRANCH   1   2
BRANCH   1  17
ATOM     17  C   UNL     1      75.471  89.862  69.311  1.00  0.00     0.010 C 
BRANCH  17  18
ATOM     18  C   UNL     1      75.620  88.379  68.869  1.00  0.00     0.001 C 
BRANCH  18  19
ATOM     19  C   UNL     1      77.080  87.983  68.523  1.00  0.00     0.000 C 
BRANCH  19  20
ATOM     20  C   UNL     1      77.183  86.525  67.989  1.00  0.00     0.003 C 
BRANCH  20  21
ATOM     21  C   UNL     1      76.201  85.507  68.655  1.00  0.00    -0.017 C 
ATOM     22  C   UNL     1      76.682  85.127  70.086  1.00  0.00     0.007 C 
ATOM     23  C   UNL     1      75.992  84.222  67.803  1.00  0.00     0.007 C 
ENDBRANCH  20  21
ENDBRANCH  19  20
ENDBRANCH  18  19
ENDBRANCH  17  18
ENDBRANCH   1  17
TORSDOF 10
ENDMDL
MODEL 10
REMARK VINA RESULT:    -4.885      4.433      6.826
REMARK INTER + INTRA:          -8.598
REMARK INTER:                  -7.382
REMARK INTRA:                  -1.217
REMARK UNBOUND:                -1.001
REMARK SMILES COc1cc(CNC(=O)CCCCCC(C)C)ccc1O
REMARK SMILES IDX 10 1 8 2 7 3 9 5 6 6 5 7 3 8 20 9 4 10 19 11 18 12 2 13 1 14
REMARK SMILES IDX 21 15 11 17 12 18 13 19 14 20 15 21 16 22 17 23
REMARK H PARENT 7 4 21 16
REMARK Flexibility Score: inf
ROOT
ATOM      1  C   UNL     1     102.186  80.120  78.141  1.00  0.00     0.100 C 
ENDROOT
BRANCH   1   2
ATOM      2  C   UNL     1     100.843  80.308  78.729  1.00  0.00     0.220 C 
ATOM      3  N   UNL     1     100.305  81.560  78.781  1.00  0.00    -0.352 N 
ATOM      4  H   UNL     1     100.937  82.305  78.526  1.00  0.00     0.163 HD
ATOM      5  O   UNL     1     100.207  79.303  79.129  1.00  0.00    -0.275 OA
BRANCH   3   6
ATOM      6  C   UNL     1      98.962  81.861  79.159  1.00  0.00     0.151 C 
BRANCH   6   7
ATOM      7  C   UNL     1      98.245  82.693  78.155  1.00  0.00    -0.025 A 
ATOM      8  C   UNL     1      98.106  83.666  75.901  1.00  0.00     0.160 A 
ATOM      9  C   UNL     1      96.849  84.222  76.220  1.00  0.00     0.157 A 
ATOM     10  C   UNL     1      98.804  82.922  76.875  1.00  0.00     0.056 A 
ATOM     11  C   UNL     1      96.296  84.023  77.499  1.00  0.00     0.050 A 
ATOM     12  C   UNL     1      96.985  83.260  78.457  1.00  0.00     0.009 A 
BRANCH   8  13
ATOM     13  O   UNL     1      98.671  83.864  74.668  1.00  0.00    -0.493 OA
ATOM     14  C   UNL     1      99.917  84.586  74.709  1.00  0.00     0.278 C 
ENDBRANCH   8  13
BRANCH   9  15
ATOM     15  O   UNL     1      96.170  84.941  75.292  1.00  0.00    -0.504 OA
ATOM     16  H   UNL     1      96.079  84.422  74.489  1.00  0.00     0.293 HD
ENDBRANCH   9  15
ENDBRANCH   6   7
ENDBRANCH   3   6
ENDBRANCH   1   2
BRANCH   1  17
ATOM     17  C   UNL     1     103.141  81.329  78.331  1.00  0.00     0.010 C 
BRANCH  17  18
ATOM     18  C   UNL     1     104.374  81.237  77.390  1.00  0.00     0.001 C 
BRANCH  18  19
ATOM     19  C   UNL     1     104.239  82.106  76.112  1.00  0.00     0.000 C 
BRANCH  19  20
ATOM     20  C   UNL     1     102.754  82.317  75.697  1.00  0.00     0.003 C 
BRANCH  20  21
ATOM     21  C   UNL     1     102.294  81.497  74.448  1.00  0.00    -0.017 C 
ATOM     22  C   UNL     1     102.427  82.344  73.148  1.00  0.00     0.007 C 
ATOM     23  C   UNL     1     100.843  80.952  74.584  1.00  0.00     0.007 C 
ENDBRANCH  20  21
ENDBRANCH  19  20
ENDBRANCH  18  19
ENDBRANCH  17  18
ENDBRANCH   1  17
TORSDOF 10
ENDMDL
