MODEL 1
REMARK VINA RESULT:    -6.939      0.000      0.000
REMARK INTER + INTRA:         -13.249
REMARK INTER:                 -12.212
REMARK INTRA:                  -1.037
REMARK UNBOUND:                -1.037
REMARK SMILES C=C(C)[C@]12C[C@@H](C)[C@@]34O[C@](Cc5ccccc5)(O[C@@H]1[C@@H]3C=C(COC(=O)Cc1ccc(O)c(OC)c1)C[C@]1(O)C(=O)C(C)=C[C@@H]41)O2
REMARK SMILES IDX 23 1 22 2 21 3 20 4 9 5 8 6 10 7 6 8 18 9 46 10 19 11 5 12
REMARK SMILES IDX 7 13 4 14 45 15 38 16 44 17 40 18 42 20 41 21 43 22 39 23
REMARK SMILES IDX 11 25 12 26 13 27 17 28 14 29 16 30 15 31 2 32 3 33 1 34
REMARK SMILES IDX 37 35 24 37 25 38 26 39 27 40 28 41 36 42 29 43 33 44 30 45
REMARK SMILES IDX 31 46 34 47 35 48 32 49
REMARK H PARENT 39 24 32 50
REMARK Flexibility Score: 90.00
ROOT
ATOM      1  C   UNL     1      97.863  82.884  86.498  1.00  0.00     0.264 C 
ENDROOT
BRANCH   1   2
ATOM      2  C   UNL     1      96.442  83.278  86.826  1.00  0.00    -0.033 C 
ATOM      3  C   UNL     1      95.454  82.374  86.667  1.00  0.00    -0.015 C 
BRANCH   3   4
ATOM      4  C   UNL     1      93.955  82.542  86.850  1.00  0.00     0.078 C 
ATOM      5  O   UNL     1      93.437  81.900  89.183  1.00  0.00    -0.319 OA
ATOM      6  C   UNL     1      93.421  83.025  88.250  1.00  0.00     0.095 C 
ATOM      7  C   UNL     1      92.972  80.647  88.645  1.00  0.00     0.289 C 
ATOM      8  C   UNL     1      91.928  83.517  88.051  1.00  0.00     0.023 C 
ATOM      9  O   UNL     1      93.730  80.261  87.501  1.00  0.00    -0.320 OA
ATOM     10  O   UNL     1      91.618  80.717  88.205  1.00  0.00    -0.313 OA
ATOM     11  C   UNL     1      93.234  81.207  86.541  1.00  0.00     0.170 C 
ATOM     12  C   UNL     1      91.197  82.692  86.947  1.00  0.00     0.049 C 
ATOM     13  C   UNL     1      91.066  83.544  89.324  1.00  0.00     0.011 C 
ATOM     14  C   UNL     1      91.722  81.258  86.872  1.00  0.00     0.122 C 
BRANCH   6  15
ATOM     15  C   UNL     1      94.390  84.066  88.881  1.00  0.00     0.086 C 
ATOM     16  C   UNL     1      94.957  85.134  87.923  1.00  0.00     0.140 CG0
ATOM     17  C   UNL     1      93.937  84.867  90.070  1.00  0.00    -0.010 C 
ATOM     18  C   UNL     1      95.064  86.351  88.818  1.00  0.00     0.190 C 
ATOM     19  G   UNL     1      96.304  84.722  87.333  1.00  0.00     0.000 G0
ATOM     20  C   UNL     1      94.323  86.147  90.078  1.00  0.00    -0.008 C 
ATOM     21  O   UNL     1      95.637  87.391  88.534  1.00  0.00    -0.291 OA
ATOM     22  C   UNL     1      94.136  87.191  91.107  1.00  0.00     0.048 C 
BRANCH  16  23
ATOM     23  O   UNL     1      94.049  85.537  86.911  1.00  0.00    -0.381 OA
ATOM     24  H   UNL     1      94.110  84.906  86.175  1.00  0.00     0.212 HD
ENDBRANCH  16  23
ENDBRANCH   6  15
BRANCH   7  25
ATOM     25  C   UNL     1      93.099  79.590  89.724  1.00  0.00     0.135 C 
BRANCH  25  26
ATOM     26  C   UNL     1      91.949  79.637  90.699  1.00  0.00    -0.040 A 
ATOM     27  C   UNL     1      91.838  80.699  91.596  1.00  0.00     0.004 A 
ATOM     28  C   UNL     1      90.996  78.618  90.703  1.00  0.00     0.004 A 
ATOM     29  C   UNL     1      90.774  80.743  92.498  1.00  0.00     0.000 A 
ATOM     30  C   UNL     1      89.932  78.662  91.605  1.00  0.00     0.000 A 
ATOM     31  C   UNL     1      89.822  79.724  92.502  1.00  0.00     0.000 A 
ENDBRANCH  25  26
ENDBRANCH   7  25
BRANCH  14  32
ATOM     32  C   UNL     1      90.916  80.399  85.952  1.00  0.00    -0.046 C 
ATOM     33  C   UNL     1      89.458  80.731  85.844  1.00  0.00     0.042 C 
ATOM     34  C   UNL     1      91.466  79.389  85.261  1.00  0.00     0.010 C 
ENDBRANCH  14  32
ENDBRANCH   3   4
BRANCH   2  35
ATOM     35  C   UNL     1      96.320  84.707  87.320  1.00  0.00     0.078 CG0
ATOM     36  G   UNL     1      94.979  85.126  87.920  1.00  0.00     0.000 G0
ENDBRANCH   2  35
ENDBRANCH   1   2
BRANCH   1  37
ATOM     37  O   UNL     1      97.917  81.496  86.245  1.00  0.00    -0.461 OA
BRANCH  37  38
ATOM     38  C   UNL     1      99.012  81.047  85.544  1.00  0.00     0.310 C 
ATOM     39  O   UNL     1     100.176  81.201  85.886  1.00  0.00    -0.252 OA
BRANCH  38  40
ATOM     40  C   UNL     1      98.553  80.338  84.292  1.00  0.00     0.158 C 
BRANCH  40  41
ATOM     41  C   UNL     1      98.667  81.193  83.056  1.00  0.00    -0.033 A 
ATOM     42  C   UNL     1      99.329  80.705  81.929  1.00  0.00     0.054 A 
ATOM     43  C   UNL     1      98.110  82.471  83.039  1.00  0.00     0.008 A 
ATOM     44  C   UNL     1      99.435  81.496  80.785  1.00  0.00     0.160 A 
ATOM     45  C   UNL     1      98.216  83.263  81.895  1.00  0.00     0.050 A 
ATOM     46  C   UNL     1      98.878  82.776  80.768  1.00  0.00     0.157 A 
BRANCH  44  47
ATOM     47  O   UNL     1     100.084  81.009  79.692  1.00  0.00    -0.493 OA
ATOM     48  C   UNL     1     101.504  81.150  79.664  1.00  0.00     0.278 C 
ENDBRANCH  44  47
BRANCH  46  49
ATOM     49  O   UNL     1      98.974  83.557  79.657  1.00  0.00    -0.504 OA
ATOM     50  H   UNL     1      98.267  84.224  79.677  1.00  0.00     0.293 HD
ENDBRANCH  46  49
ENDBRANCH  40  41
ENDBRANCH  38  40
ENDBRANCH  37  38
ENDBRANCH   1  37
TORSDOF 11
ENDMDL
MODEL 2
REMARK VINA RESULT:    -6.845      3.133      9.357
REMARK INTER + INTRA:         -13.084
REMARK INTER:                 -12.123
REMARK INTRA:                  -0.961
REMARK UNBOUND:                -1.037
REMARK SMILES C=C(C)[C@]12C[C@@H](C)[C@@]34O[C@](Cc5ccccc5)(O[C@@H]1[C@@H]3C=C(COC(=O)Cc1ccc(O)c(OC)c1)C[C@]1(O)C(=O)C(C)=C[C@@H]41)O2
REMARK SMILES IDX 23 1 22 2 21 3 20 4 9 5 8 6 10 7 6 8 18 9 46 10 19 11 5 12
REMARK SMILES IDX 7 13 4 14 45 15 38 16 44 17 40 18 42 20 41 21 43 22 39 23
REMARK SMILES IDX 11 25 12 26 13 27 17 28 14 29 16 30 15 31 2 32 3 33 1 34
REMARK SMILES IDX 37 35 24 37 25 38 26 39 27 40 28 41 36 42 29 43 33 44 30 45
REMARK SMILES IDX 31 46 34 47 35 48 32 49
REMARK H PARENT 39 24 32 50
REMARK Flexibility Score: 90.00
ROOT
ATOM      1  C   UNL     1      94.052  87.259  90.316  1.00  0.00     0.264 C 
ENDROOT
BRANCH   1   2
ATOM      2  C   UNL     1      93.964  86.003  89.481  1.00  0.00    -0.033 C 
ATOM      3  C   UNL     1      95.030  85.622  88.748  1.00  0.00    -0.015 C 
BRANCH   3   4
ATOM      4  C   UNL     1      95.168  84.460  87.779  1.00  0.00     0.078 C 
ATOM      5  O   UNL     1      96.037  82.541  89.076  1.00  0.00    -0.319 OA
ATOM      6  C   UNL     1      94.883  83.005  88.309  1.00  0.00     0.095 C 
ATOM      7  C   UNL     1      97.322  82.840  88.499  1.00  0.00     0.289 C 
ATOM      8  C   UNL     1      94.680  82.067  87.048  1.00  0.00     0.023 C 
ATOM      9  O   UNL     1      97.484  84.242  88.296  1.00  0.00    -0.320 OA
ATOM     10  O   UNL     1      97.491  82.244  87.215  1.00  0.00    -0.313 OA
ATOM     11  C   UNL     1      96.598  84.439  87.183  1.00  0.00     0.170 C 
ATOM     12  C   UNL     1      95.565  82.524  85.847  1.00  0.00     0.049 C 
ATOM     13  C   UNL     1      94.898  80.566  87.301  1.00  0.00     0.011 C 
ATOM     14  C   UNL     1      96.862  83.182  86.318  1.00  0.00     0.122 C 
BRANCH   6  15
ATOM     15  C   UNL     1      93.712  83.011  89.333  1.00  0.00     0.086 C 
ATOM     16  C   UNL     1      92.496  83.888  88.971  1.00  0.00     0.140 CG0
ATOM     17  C   UNL     1      93.091  81.707  89.749  1.00  0.00    -0.010 C 
ATOM     18  C   UNL     1      91.340  83.095  89.542  1.00  0.00     0.190 C 
ATOM     19  G   UNL     1      92.596  85.290  89.570  1.00  0.00     0.000 G0
ATOM     20  C   UNL     1      91.763  81.728  89.902  1.00  0.00    -0.008 C 
ATOM     21  O   UNL     1      90.191  83.496  89.652  1.00  0.00    -0.291 OA
ATOM     22  C   UNL     1      90.842  80.673  90.373  1.00  0.00     0.048 C 
BRANCH  16  23
ATOM     23  O   UNL     1      92.218  83.938  87.581  1.00  0.00    -0.381 OA
ATOM     24  H   UNL     1      91.316  83.607  87.436  1.00  0.00     0.212 HD
ENDBRANCH  16  23
ENDBRANCH   6  15
BRANCH   7  25
ATOM     25  C   UNL     1      98.396  82.331  89.439  1.00  0.00     0.135 C 
BRANCH  25  26
ATOM     26  C   UNL     1      99.760  82.336  88.795  1.00  0.00    -0.040 A 
ATOM     27  C   UNL     1     100.335  81.137  88.373  1.00  0.00     0.004 A 
ATOM     28  C   UNL     1     100.444  83.538  88.619  1.00  0.00     0.004 A 
ATOM     29  C   UNL     1     101.597  81.140  87.777  1.00  0.00     0.000 A 
ATOM     30  C   UNL     1     101.706  83.541  88.023  1.00  0.00     0.000 A 
ATOM     31  C   UNL     1     102.282  82.342  87.602  1.00  0.00     0.000 A 
ENDBRANCH  25  26
ENDBRANCH   7  25
BRANCH  14  32
ATOM     32  C   UNL     1      97.805  83.462  85.194  1.00  0.00    -0.046 C 
ATOM     33  C   UNL     1      99.105  82.715  85.218  1.00  0.00     0.042 C 
ATOM     34  C   UNL     1      97.506  84.333  84.218  1.00  0.00     0.010 C 
ENDBRANCH  14  32
ENDBRANCH   3   4
BRANCH   2  35
ATOM     35  C   UNL     1      92.622  85.305  89.596  1.00  0.00     0.078 CG0
ATOM     36  G   UNL     1      92.507  83.907  88.989  1.00  0.00     0.000 G0
ENDBRANCH   2  35
ENDBRANCH   1   2
BRANCH   1  37
ATOM     37  O   UNL     1      95.390  87.461  90.716  1.00  0.00    -0.461 OA
BRANCH  37  38
ATOM     38  C   UNL     1      95.980  88.631  90.297  1.00  0.00     0.310 C 
ATOM     39  O   UNL     1      97.153  88.930  90.475  1.00  0.00    -0.252 OA
BRANCH  38  40
ATOM     40  C   UNL     1      94.956  89.486  89.587  1.00  0.00     0.158 C 
BRANCH  40  41
ATOM     41  C   UNL     1      94.412  90.593  90.453  1.00  0.00    -0.033 A 
ATOM     42  C   UNL     1      94.221  90.380  91.819  1.00  0.00     0.054 A 
ATOM     43  C   UNL     1      94.100  91.830  89.890  1.00  0.00     0.008 A 
ATOM     44  C   UNL     1      93.717  91.404  92.621  1.00  0.00     0.160 A 
ATOM     45  C   UNL     1      93.597  92.854  90.692  1.00  0.00     0.050 A 
ATOM     46  C   UNL     1      93.405  92.642  92.057  1.00  0.00     0.157 A 
BRANCH  44  47
ATOM     47  O   UNL     1      93.535  91.184  93.953  1.00  0.00    -0.493 OA
ATOM     48  C   UNL     1      92.625  90.148  94.320  1.00  0.00     0.278 C 
ENDBRANCH  44  47
BRANCH  46  49
ATOM     49  O   UNL     1      92.914  93.650  92.830  1.00  0.00    -0.504 OA
ATOM     50  H   UNL     1      92.424  93.266  93.577  1.00  0.00     0.293 HD
ENDBRANCH  46  49
ENDBRANCH  40  41
ENDBRANCH  38  40
ENDBRANCH  37  38
ENDBRANCH   1  37
TORSDOF 11
ENDMDL
MODEL 3
REMARK VINA RESULT:    -6.727      1.478      1.949
REMARK INTER + INTRA:         -12.876
REMARK INTER:                 -11.639
REMARK INTRA:                  -1.238
REMARK UNBOUND:                -1.037
REMARK SMILES C=C(C)[C@]12C[C@@H](C)[C@@]34O[C@](Cc5ccccc5)(O[C@@H]1[C@@H]3C=C(COC(=O)Cc1ccc(O)c(OC)c1)C[C@]1(O)C(=O)C(C)=C[C@@H]41)O2
REMARK SMILES IDX 23 1 22 2 21 3 20 4 9 5 8 6 10 7 6 8 18 9 46 10 19 11 5 12
REMARK SMILES IDX 7 13 4 14 45 15 38 16 44 17 40 18 42 20 41 21 43 22 39 23
REMARK SMILES IDX 11 25 12 26 13 27 17 28 14 29 16 30 15 31 2 32 3 33 1 34
REMARK SMILES IDX 37 35 24 37 25 38 26 39 27 40 28 41 36 42 29 43 33 44 30 45
REMARK SMILES IDX 31 46 34 47 35 48 32 49
REMARK H PARENT 39 24 32 50
REMARK Flexibility Score: 90.00
ROOT
ATOM      1  C   UNL     1      97.691  82.016  88.171  1.00  0.00     0.264 C 
ENDROOT
BRANCH   1   2
ATOM      2  C   UNL     1      96.259  82.453  87.966  1.00  0.00    -0.033 C 
ATOM      3  C   UNL     1      95.333  81.536  87.621  1.00  0.00    -0.015 C 
BRANCH   3   4
ATOM      4  C   UNL     1      93.863  81.729  87.286  1.00  0.00     0.078 C 
ATOM      5  O   UNL     1      92.598  81.421  89.389  1.00  0.00    -0.319 OA
ATOM      6  C   UNL     1      92.932  82.404  88.361  1.00  0.00     0.095 C 
ATOM      7  C   UNL     1      92.272  80.106  88.902  1.00  0.00     0.289 C 
ATOM      8  C   UNL     1      91.606  82.864  87.626  1.00  0.00     0.023 C 
ATOM      9  O   UNL     1      93.337  79.563  88.126  1.00  0.00    -0.320 OA
ATOM     10  O   UNL     1      91.135  80.114  88.042  1.00  0.00    -0.313 OA
ATOM     11  C   UNL     1      93.219  80.363  86.940  1.00  0.00     0.170 C 
ATOM     12  C   UNL     1      91.229  81.893  86.465  1.00  0.00     0.049 C 
ATOM     13  C   UNL     1      90.384  83.070  88.537  1.00  0.00     0.011 C 
ATOM     14  C   UNL     1      91.684  80.462  86.755  1.00  0.00     0.122 C 
BRANCH   6  15
ATOM     15  C   UNL     1      93.695  83.523  89.127  1.00  0.00     0.086 C 
ATOM     16  C   UNL     1      94.579  84.453  88.269  1.00  0.00     0.140 CG0
ATOM     17  C   UNL     1      92.925  84.477  89.996  1.00  0.00    -0.010 C 
ATOM     18  C   UNL     1      94.448  85.780  88.986  1.00  0.00     0.190 C 
ATOM     19  G   UNL     1      96.026  83.967  88.196  1.00  0.00     0.000 G0
ATOM     20  C   UNL     1      93.341  85.748  89.960  1.00  0.00    -0.008 C 
ATOM     21  O   UNL     1      95.125  86.773  88.767  1.00  0.00    -0.291 OA
ATOM     22  C   UNL     1      92.883  86.921  90.732  1.00  0.00     0.048 C 
BRANCH  16  23
ATOM     23  O   UNL     1      94.054  84.713  86.978  1.00  0.00    -0.381 OA
ATOM     24  H   UNL     1      93.301  85.320  87.069  1.00  0.00     0.212 HD
ENDBRANCH  16  23
ENDBRANCH   6  15
BRANCH   7  25
ATOM     25  C   UNL     1      91.999  79.211  90.094  1.00  0.00     0.135 C 
BRANCH  25  26
ATOM     26  C   UNL     1      91.733  77.785  89.681  1.00  0.00    -0.040 A 
ATOM     27  C   UNL     1      92.681  77.088  88.931  1.00  0.00     0.004 A 
ATOM     28  C   UNL     1      90.542  77.161  90.051  1.00  0.00     0.004 A 
ATOM     29  C   UNL     1      92.436  75.769  88.549  1.00  0.00     0.000 A 
ATOM     30  C   UNL     1      90.297  75.842  89.669  1.00  0.00     0.000 A 
ATOM     31  C   UNL     1      91.245  75.146  88.918  1.00  0.00     0.000 A 
ENDBRANCH  25  26
ENDBRANCH   7  25
BRANCH  14  32
ATOM     32  C   UNL     1      91.177  79.483  85.747  1.00  0.00    -0.046 C 
ATOM     33  C   UNL     1      89.910  79.859  85.037  1.00  0.00     0.042 C 
ATOM     34  C   UNL     1      91.817  78.332  85.490  1.00  0.00     0.010 C 
ENDBRANCH  14  32
ENDBRANCH   3   4
BRANCH   2  35
ATOM     35  C   UNL     1      96.052  83.938  88.195  1.00  0.00     0.078 CG0
ATOM     36  G   UNL     1      94.611  84.440  88.266  1.00  0.00     0.000 G0
ENDBRANCH   2  35
ENDBRANCH   1   2
BRANCH   1  37
ATOM     37  O   UNL     1      97.817  80.653  87.827  1.00  0.00    -0.461 OA
BRANCH  37  38
ATOM     38  C   UNL     1      98.642  80.367  86.765  1.00  0.00     0.310 C 
ATOM     39  O   UNL     1      99.865  80.366  86.805  1.00  0.00    -0.252 OA
BRANCH  38  40
ATOM     40  C   UNL     1      97.805  80.055  85.546  1.00  0.00     0.158 C 
BRANCH  40  41
ATOM     41  C   UNL     1      98.068  80.993  84.397  1.00  0.00    -0.033 A 
ATOM     42  C   UNL     1      98.803  80.557  83.294  1.00  0.00     0.054 A 
ATOM     43  C   UNL     1      97.576  82.298  84.435  1.00  0.00     0.008 A 
ATOM     44  C   UNL     1      99.046  81.426  82.230  1.00  0.00     0.160 A 
ATOM     45  C   UNL     1      97.819  83.166  83.371  1.00  0.00     0.050 A 
ATOM     46  C   UNL     1      98.554  82.731  82.269  1.00  0.00     0.157 A 
BRANCH  44  47
ATOM     47  O   UNL     1      99.766  80.989  81.159  1.00  0.00    -0.493 OA
ATOM     48  C   UNL     1     101.185  81.119  81.235  1.00  0.00     0.278 C 
ENDBRANCH  44  47
BRANCH  46  49
ATOM     49  O   UNL     1      98.784  83.588  81.235  1.00  0.00    -0.504 OA
ATOM     50  H   UNL     1      98.411  84.458  81.456  1.00  0.00     0.293 HD
ENDBRANCH  46  49
ENDBRANCH  40  41
ENDBRANCH  38  40
ENDBRANCH  37  38
ENDBRANCH   1  37
TORSDOF 11
ENDMDL
MODEL 4
REMARK VINA RESULT:    -6.379     29.386     34.033
REMARK INTER + INTRA:         -12.264
REMARK INTER:                 -10.648
REMARK INTRA:                  -1.616
REMARK UNBOUND:                -1.037
REMARK SMILES C=C(C)[C@]12C[C@@H](C)[C@@]34O[C@](Cc5ccccc5)(O[C@@H]1[C@@H]3C=C(COC(=O)Cc1ccc(O)c(OC)c1)C[C@]1(O)C(=O)C(C)=C[C@@H]41)O2
REMARK SMILES IDX 23 1 22 2 21 3 20 4 9 5 8 6 10 7 6 8 18 9 46 10 19 11 5 12
REMARK SMILES IDX 7 13 4 14 45 15 38 16 44 17 40 18 42 20 41 21 43 22 39 23
REMARK SMILES IDX 11 25 12 26 13 27 17 28 14 29 16 30 15 31 2 32 3 33 1 34
REMARK SMILES IDX 37 35 24 37 25 38 26 39 27 40 28 41 36 42 29 43 33 44 30 45
REMARK SMILES IDX 31 46 34 47 35 48 32 49
REMARK H PARENT 39 24 32 50
REMARK Flexibility Score: 90.00
ROOT
ATOM      1  C   UNL     1      66.749  88.222  72.964  1.00  0.00     0.264 C 
ENDROOT
BRANCH   1   2
ATOM      2  C   UNL     1      66.675  86.789  72.492  1.00  0.00    -0.033 C 
ATOM      3  C   UNL     1      65.542  86.087  72.695  1.00  0.00    -0.015 C 
BRANCH   3   4
ATOM      4  C   UNL     1      65.243  84.628  72.389  1.00  0.00     0.078 C 
ATOM      5  O   UNL     1      64.215  84.558  70.140  1.00  0.00    -0.319 OA
ATOM      6  C   UNL     1      65.386  84.130  70.903  1.00  0.00     0.095 C 
ATOM      7  C   UNL     1      62.952  84.409  70.814  1.00  0.00     0.289 C 
ATOM      8  C   UNL     1      65.441  82.546  70.930  1.00  0.00     0.023 C 
ATOM      9  O   UNL     1      62.937  85.120  72.049  1.00  0.00    -0.320 OA
ATOM     10  O   UNL     1      62.674  83.051  71.149  1.00  0.00    -0.313 OA
ATOM     11  C   UNL     1      63.800  84.282  72.833  1.00  0.00     0.170 C 
ATOM     12  C   UNL     1      64.572  81.964  72.087  1.00  0.00     0.049 C 
ATOM     13  C   UNL     1      65.070  81.850  69.611  1.00  0.00     0.011 C 
ATOM     14  C   UNL     1      63.371  82.859  72.397  1.00  0.00     0.122 C 
BRANCH   6  15
ATOM     15  C   UNL     1      66.585  84.829  70.199  1.00  0.00     0.086 C 
ATOM     16  C   UNL     1      67.879  84.957  71.029  1.00  0.00     0.140 CG0
ATOM     17  C   UNL     1      67.069  84.306  68.875  1.00  0.00    -0.010 C 
ATOM     18  C   UNL     1      68.958  84.815  69.975  1.00  0.00     0.190 C 
ATOM     19  G   UNL     1      67.959  86.289  71.772  1.00  0.00     0.000 G0
ATOM     20  C   UNL     1      68.395  84.311  68.708  1.00  0.00    -0.008 C 
ATOM     21  O   UNL     1      70.147  85.034  70.146  1.00  0.00    -0.291 OA
ATOM     22  C   UNL     1      69.207  83.955  67.526  1.00  0.00     0.048 C 
BRANCH  16  23
ATOM     23  O   UNL     1      68.113  83.863  71.901  1.00  0.00    -0.381 OA
ATOM     24  H   UNL     1      67.688  83.075  71.525  1.00  0.00     0.212 HD
ENDBRANCH  16  23
ENDBRANCH   6  15
BRANCH   7  25
ATOM     25  C   UNL     1      61.862  84.939  69.905  1.00  0.00     0.135 C 
BRANCH  25  26
ATOM     26  C   UNL     1      60.649  85.390  70.680  1.00  0.00    -0.040 A 
ATOM     27  C   UNL     1      60.710  86.545  71.460  1.00  0.00     0.004 A 
ATOM     28  C   UNL     1      59.466  84.654  70.616  1.00  0.00     0.004 A 
ATOM     29  C   UNL     1      59.588  86.963  72.177  1.00  0.00     0.000 A 
ATOM     30  C   UNL     1      58.344  85.071  71.333  1.00  0.00     0.000 A 
ATOM     31  C   UNL     1      58.406  86.226  72.114  1.00  0.00     0.000 A 
ENDBRANCH  25  26
ENDBRANCH   7  25
BRANCH  14  32
ATOM     32  C   UNL     1      62.426  82.235  73.372  1.00  0.00    -0.046 C 
ATOM     33  C   UNL     1      61.336  83.120  73.898  1.00  0.00     0.042 C 
ATOM     34  C   UNL     1      62.546  80.954  73.755  1.00  0.00     0.010 C 
ENDBRANCH  14  32
ENDBRANCH   3   4
BRANCH   2  35
ATOM     35  C   UNL     1      67.948  86.318  71.816  1.00  0.00     0.078 CG0
ATOM     36  G   UNL     1      67.885  84.997  71.050  1.00  0.00     0.000 G0
ENDBRANCH   2  35
ENDBRANCH   1   2
BRANCH   1  37
ATOM     37  O   UNL     1      65.650  88.495  73.806  1.00  0.00    -0.461 OA
BRANCH  37  38
ATOM     38  C   UNL     1      65.887  89.349  74.858  1.00  0.00     0.310 C 
ATOM     39  O   UNL     1      66.682  90.279  74.843  1.00  0.00    -0.252 OA
BRANCH  38  40
ATOM     40  C   UNL     1      65.014  88.962  76.028  1.00  0.00     0.158 C 
BRANCH  40  41
ATOM     41  C   UNL     1      65.069  87.488  76.340  1.00  0.00    -0.033 A 
ATOM     42  C   UNL     1      66.092  86.983  77.144  1.00  0.00     0.054 A 
ATOM     43  C   UNL     1      64.098  86.630  75.826  1.00  0.00     0.008 A 
ATOM     44  C   UNL     1      66.143  85.619  77.432  1.00  0.00     0.160 A 
ATOM     45  C   UNL     1      64.148  85.266  76.114  1.00  0.00     0.050 A 
ATOM     46  C   UNL     1      65.171  84.760  76.917  1.00  0.00     0.157 A 
BRANCH  44  47
ATOM     47  O   UNL     1      67.146  85.137  78.217  1.00  0.00    -0.493 OA
ATOM     48  C   UNL     1      67.011  85.318  79.626  1.00  0.00     0.278 C 
ENDBRANCH  44  47
BRANCH  46  49
ATOM     49  O   UNL     1      65.209  83.427  77.192  1.00  0.00    -0.504 OA
ATOM     50  H   UNL     1      64.580  82.965  76.613  1.00  0.00     0.293 HD
ENDBRANCH  46  49
ENDBRANCH  40  41
ENDBRANCH  38  40
ENDBRANCH  37  38
ENDBRANCH   1  37
TORSDOF 11
ENDMDL
MODEL 5
REMARK VINA RESULT:    -6.371     29.752     33.042
REMARK INTER + INTRA:         -12.250
REMARK INTER:                 -11.406
REMARK INTRA:                  -0.844
REMARK UNBOUND:                -1.037
REMARK SMILES C=C(C)[C@]12C[C@@H](C)[C@@]34O[C@](Cc5ccccc5)(O[C@@H]1[C@@H]3C=C(COC(=O)Cc1ccc(O)c(OC)c1)C[C@]1(O)C(=O)C(C)=C[C@@H]41)O2
REMARK SMILES IDX 23 1 22 2 21 3 20 4 9 5 8 6 10 7 6 8 18 9 46 10 19 11 5 12
REMARK SMILES IDX 7 13 4 14 45 15 38 16 44 17 40 18 42 20 41 21 43 22 39 23
REMARK SMILES IDX 11 25 12 26 13 27 17 28 14 29 16 30 15 31 2 32 3 33 1 34
REMARK SMILES IDX 37 35 24 37 25 38 26 39 27 40 28 41 36 42 29 43 33 44 30 45
REMARK SMILES IDX 31 46 34 47 35 48 32 49
REMARK H PARENT 39 24 32 50
REMARK Flexibility Score: 90.00
ROOT
ATOM      1  C   UNL     1      63.274  83.416  81.425  1.00  0.00     0.264 C 
ENDROOT
BRANCH   1   2
ATOM      2  C   UNL     1      63.751  84.630  80.662  1.00  0.00    -0.033 C 
ATOM      3  C   UNL     1      64.319  84.465  79.450  1.00  0.00    -0.015 C 
BRANCH   3   4
ATOM      4  C   UNL     1      64.942  85.501  78.528  1.00  0.00     0.078 C 
ATOM      5  O   UNL     1      63.160  86.259  76.988  1.00  0.00    -0.319 OA
ATOM      6  C   UNL     1      64.054  86.710  78.052  1.00  0.00     0.095 C 
ATOM      7  C   UNL     1      63.761  85.396  76.003  1.00  0.00     0.289 C 
ATOM      8  C   UNL     1      65.026  87.824  77.482  1.00  0.00     0.023 C 
ATOM      9  O   UNL     1      64.323  84.234  76.608  1.00  0.00    -0.320 OA
ATOM     10  O   UNL     1      64.836  86.029  75.314  1.00  0.00    -0.313 OA
ATOM     11  C   UNL     1      65.472  84.812  77.246  1.00  0.00     0.170 C 
ATOM     12  C   UNL     1      66.281  87.194  76.802  1.00  0.00     0.049 C 
ATOM     13  C   UNL     1      64.379  88.836  76.522  1.00  0.00     0.011 C 
ATOM     14  C   UNL     1      65.966  85.830  76.187  1.00  0.00     0.122 C 
BRANCH   6  15
ATOM     15  C   UNL     1      63.099  87.175  79.190  1.00  0.00     0.086 C 
ATOM     16  C   UNL     1      63.714  87.258  80.602  1.00  0.00     0.140 CG0
ATOM     17  C   UNL     1      62.368  88.481  79.050  1.00  0.00    -0.010 C 
ATOM     18  C   UNL     1      62.983  88.437  81.208  1.00  0.00     0.190 C 
ATOM     19  G   UNL     1      63.507  85.970  81.398  1.00  0.00     0.000 G0
ATOM     20  C   UNL     1      62.262  89.200  80.172  1.00  0.00    -0.008 C 
ATOM     21  O   UNL     1      63.015  88.761  82.386  1.00  0.00    -0.291 OA
ATOM     22  C   UNL     1      61.551  90.471  80.424  1.00  0.00     0.048 C 
BRANCH  16  23
ATOM     23  O   UNL     1      65.074  87.660  80.614  1.00  0.00    -0.381 OA
ATOM     24  H   UNL     1      65.112  88.608  80.824  1.00  0.00     0.212 HD
ENDBRANCH  16  23
ENDBRANCH   6  15
BRANCH   7  25
ATOM     25  C   UNL     1      62.691  84.991  75.010  1.00  0.00     0.135 C 
BRANCH  25  26
ATOM     26  C   UNL     1      63.040  83.709  74.295  1.00  0.00    -0.040 A 
ATOM     27  C   UNL     1      64.027  83.709  73.308  1.00  0.00     0.004 A 
ATOM     28  C   UNL     1      62.379  82.526  74.620  1.00  0.00     0.004 A 
ATOM     29  C   UNL     1      64.350  82.524  72.646  1.00  0.00     0.000 A 
ATOM     30  C   UNL     1      62.702  81.341  73.958  1.00  0.00     0.000 A 
ATOM     31  C   UNL     1      63.688  81.341  72.971  1.00  0.00     0.000 A 
ENDBRANCH  25  26
ENDBRANCH   7  25
BRANCH  14  32
ATOM     32  C   UNL     1      67.098  85.290  75.376  1.00  0.00    -0.046 C 
ATOM     33  C   UNL     1      67.061  85.588  73.907  1.00  0.00     0.042 C 
ATOM     34  C   UNL     1      68.092  84.580  75.930  1.00  0.00     0.010 C 
ENDBRANCH  14  32
ENDBRANCH   3   4
BRANCH   2  35
ATOM     35  C   UNL     1      63.506  85.932  81.401  1.00  0.00     0.078 CG0
ATOM     36  G   UNL     1      63.695  87.228  80.615  1.00  0.00     0.000 G0
ENDBRANCH   2  35
ENDBRANCH   1   2
BRANCH   1  37
ATOM     37  O   UNL     1      64.384  82.753  81.990  1.00  0.00    -0.461 OA
BRANCH  37  38
ATOM     38  C   UNL     1      64.313  82.487  83.338  1.00  0.00     0.310 C 
ATOM     39  O   UNL     1      65.209  82.696  84.144  1.00  0.00    -0.252 OA
BRANCH  38  40
ATOM     40  C   UNL     1      62.961  81.899  83.665  1.00  0.00     0.158 C 
BRANCH  40  41
ATOM     41  C   UNL     1      62.953  80.393  83.640  1.00  0.00    -0.033 A 
ATOM     42  C   UNL     1      62.257  79.682  84.619  1.00  0.00     0.054 A 
ATOM     43  C   UNL     1      63.640  79.708  82.638  1.00  0.00     0.008 A 
ATOM     44  C   UNL     1      62.250  78.287  84.595  1.00  0.00     0.160 A 
ATOM     45  C   UNL     1      63.633  78.313  82.614  1.00  0.00     0.050 A 
ATOM     46  C   UNL     1      62.938  77.603  83.593  1.00  0.00     0.157 A 
BRANCH  44  47
ATOM     47  O   UNL     1      61.568  77.605  85.557  1.00  0.00    -0.493 OA
ATOM     48  C   UNL     1      60.662  78.355  86.365  1.00  0.00     0.278 C 
ENDBRANCH  44  47
BRANCH  46  49
ATOM     49  O   UNL     1      62.937  76.242  83.559  1.00  0.00    -0.504 OA
ATOM     50  H   UNL     1      63.848  75.927  83.425  1.00  0.00     0.293 HD
ENDBRANCH  46  49
ENDBRANCH  40  41
ENDBRANCH  38  40
ENDBRANCH  37  38
ENDBRANCH   1  37
TORSDOF 11
ENDMDL
MODEL 6
REMARK VINA RESULT:    -6.356     14.487     18.461
REMARK INTER + INTRA:         -12.223
REMARK INTER:                 -10.830
REMARK INTRA:                  -1.394
REMARK UNBOUND:                -1.037
REMARK SMILES C=C(C)[C@]12C[C@@H](C)[C@@]34O[C@](Cc5ccccc5)(O[C@@H]1[C@@H]3C=C(COC(=O)Cc1ccc(O)c(OC)c1)C[C@]1(O)C(=O)C(C)=C[C@@H]41)O2
REMARK SMILES IDX 23 1 22 2 21 3 20 4 9 5 8 6 10 7 6 8 18 9 46 10 19 11 5 12
REMARK SMILES IDX 7 13 4 14 45 15 38 16 44 17 40 18 42 20 41 21 43 22 39 23
REMARK SMILES IDX 11 25 12 26 13 27 17 28 14 29 16 30 15 31 2 32 3 33 1 34
REMARK SMILES IDX 37 35 24 37 25 38 26 39 27 40 28 41 36 42 29 43 33 44 30 45
REMARK SMILES IDX 31 46 34 47 35 48 32 49
REMARK H PARENT 39 24 32 50
REMARK Flexibility Score: 90.00
ROOT
ATOM      1  C   UNL     1      89.452  70.245  80.566  1.00  0.00     0.264 C 
ENDROOT
BRANCH   1   2
ATOM      2  C   UNL     1      89.561  69.146  79.535  1.00  0.00    -0.033 C 
ATOM      3  C   UNL     1      88.683  69.112  78.512  1.00  0.00    -0.015 C 
BRANCH   3   4
ATOM      4  C   UNL     1      88.533  68.083  77.403  1.00  0.00     0.078 C 
ATOM      5  O   UNL     1      89.893  68.875  75.495  1.00  0.00    -0.319 OA
ATOM      6  C   UNL     1      89.771  67.797  76.474  1.00  0.00     0.095 C 
ATOM      7  C   UNL     1      88.656  69.315  74.904  1.00  0.00     0.289 C 
ATOM      8  C   UNL     1      89.498  66.432  75.717  1.00  0.00     0.023 C 
ATOM      9  O   UNL     1      87.733  69.748  75.899  1.00  0.00    -0.320 OA
ATOM     10  O   UNL     1      87.995  68.271  74.194  1.00  0.00    -0.313 OA
ATOM     11  C   UNL     1      87.364  68.483  76.469  1.00  0.00     0.170 C 
ATOM     12  C   UNL     1      87.978  66.235  75.425  1.00  0.00     0.049 C 
ATOM     13  C   UNL     1      90.299  66.224  74.422  1.00  0.00     0.011 C 
ATOM     14  C   UNL     1      87.263  67.571  75.221  1.00  0.00     0.122 C 
BRANCH   6  15
ATOM     15  C   UNL     1      91.097  67.858  77.287  1.00  0.00     0.086 C 
ATOM     16  C   UNL     1      91.074  67.187  78.676  1.00  0.00     0.140 CG0
ATOM     17  C   UNL     1      92.364  67.338  76.668  1.00  0.00    -0.010 C 
ATOM     18  C   UNL     1      92.482  66.645  78.799  1.00  0.00     0.190 C 
ATOM     19  G   UNL     1      90.727  68.175  79.788  1.00  0.00     0.000 G0
ATOM     20  C   UNL     1      93.177  66.677  77.498  1.00  0.00    -0.008 C 
ATOM     21  O   UNL     1      92.979  66.191  79.819  1.00  0.00    -0.291 OA
ATOM     22  C   UNL     1      94.520  66.109  77.263  1.00  0.00     0.048 C 
BRANCH  16  23
ATOM     23  O   UNL     1      90.259  66.028  78.740  1.00  0.00    -0.381 OA
ATOM     24  H   UNL     1      89.503  66.216  79.319  1.00  0.00     0.212 HD
ENDBRANCH  16  23
ENDBRANCH   6  15
BRANCH   7  25
ATOM     25  C   UNL     1      88.961  70.457  73.956  1.00  0.00     0.135 C 
BRANCH  25  26
ATOM     26  C   UNL     1      88.811  70.048  72.512  1.00  0.00    -0.040 A 
ATOM     27  C   UNL     1      89.832  69.339  71.879  1.00  0.00     0.004 A 
ATOM     28  C   UNL     1      87.652  70.378  71.810  1.00  0.00     0.004 A 
ATOM     29  C   UNL     1      89.694  68.960  70.543  1.00  0.00     0.000 A 
ATOM     30  C   UNL     1      87.514  70.000  70.474  1.00  0.00     0.000 A 
ATOM     31  C   UNL     1      88.535  69.291  69.841  1.00  0.00     0.000 A 
ENDBRANCH  25  26
ENDBRANCH   7  25
BRANCH  14  32
ATOM     32  C   UNL     1      85.852  67.402  74.762  1.00  0.00    -0.046 C 
ATOM     33  C   UNL     1      84.926  66.701  75.711  1.00  0.00     0.042 C 
ATOM     34  C   UNL     1      85.436  67.852  73.569  1.00  0.00     0.010 C 
ENDBRANCH  14  32
ENDBRANCH   3   4
BRANCH   2  35
ATOM     35  C   UNL     1      90.707  68.189  79.804  1.00  0.00     0.078 CG0
ATOM     36  G   UNL     1      91.058  67.191  78.702  1.00  0.00     0.000 G0
ENDBRANCH   2  35
ENDBRANCH   1   2
BRANCH   1  37
ATOM     37  O   UNL     1      89.995  71.436  80.038  1.00  0.00    -0.461 OA
BRANCH  37  38
ATOM     38  C   UNL     1      90.073  72.505  80.901  1.00  0.00     0.310 C 
ATOM     39  O   UNL     1      89.270  72.748  81.791  1.00  0.00    -0.252 OA
BRANCH  38  40
ATOM     40  C   UNL     1      91.299  73.326  80.578  1.00  0.00     0.158 C 
BRANCH  40  41
ATOM     41  C   UNL     1      91.098  74.244  79.399  1.00  0.00    -0.033 A 
ATOM     42  C   UNL     1      91.958  74.169  78.303  1.00  0.00     0.054 A 
ATOM     43  C   UNL     1      90.052  75.166  79.403  1.00  0.00     0.008 A 
ATOM     44  C   UNL     1      91.772  75.018  77.212  1.00  0.00     0.160 A 
ATOM     45  C   UNL     1      89.866  76.015  78.312  1.00  0.00     0.050 A 
ATOM     46  C   UNL     1      90.726  75.942  77.217  1.00  0.00     0.157 A 
BRANCH  44  47
ATOM     47  O   UNL     1      92.618  74.937  76.148  1.00  0.00    -0.493 OA
ATOM     48  C   UNL     1      92.283  74.002  75.123  1.00  0.00     0.278 C 
ENDBRANCH  44  47
BRANCH  46  49
ATOM     49  O   UNL     1      90.534  76.775  76.157  1.00  0.00    -0.504 OA
ATOM     50  H   UNL     1      91.083  76.474  75.414  1.00  0.00     0.293 HD
ENDBRANCH  46  49
ENDBRANCH  40  41
ENDBRANCH  38  40
ENDBRANCH  37  38
ENDBRANCH   1  37
TORSDOF 11
ENDMDL
MODEL 7
REMARK VINA RESULT:    -6.265     29.040     32.170
REMARK INTER + INTRA:         -12.064
REMARK INTER:                 -10.906
REMARK INTRA:                  -1.158
REMARK UNBOUND:                -1.037
REMARK SMILES C=C(C)[C@]12C[C@@H](C)[C@@]34O[C@](Cc5ccccc5)(O[C@@H]1[C@@H]3C=C(COC(=O)Cc1ccc(O)c(OC)c1)C[C@]1(O)C(=O)C(C)=C[C@@H]41)O2
REMARK SMILES IDX 23 1 22 2 21 3 20 4 9 5 8 6 10 7 6 8 18 9 46 10 19 11 5 12
REMARK SMILES IDX 7 13 4 14 45 15 38 16 44 17 40 18 42 20 41 21 43 22 39 23
REMARK SMILES IDX 11 25 12 26 13 27 17 28 14 29 16 30 15 31 2 32 3 33 1 34
REMARK SMILES IDX 37 35 24 37 25 38 26 39 27 40 28 41 36 42 29 43 33 44 30 45
REMARK SMILES IDX 31 46 34 47 35 48 32 49
REMARK H PARENT 39 24 32 50
REMARK Flexibility Score: 90.00
ROOT
ATOM      1  C   UNL     1      66.263  86.365  82.815  1.00  0.00     0.264 C 
ENDROOT
BRANCH   1   2
ATOM      2  C   UNL     1      65.889  87.028  81.510  1.00  0.00    -0.033 C 
ATOM      3  C   UNL     1      66.082  86.363  80.354  1.00  0.00    -0.015 C 
BRANCH   3   4
ATOM      4  C   UNL     1      65.864  86.830  78.924  1.00  0.00     0.078 C 
ATOM      5  O   UNL     1      63.568  86.161  78.290  1.00  0.00    -0.319 OA
ATOM      6  C   UNL     1      64.427  87.322  78.508  1.00  0.00     0.095 C 
ATOM      7  C   UNL     1      64.175  85.072  77.569  1.00  0.00     0.289 C 
ATOM      8  C   UNL     1      64.571  88.130  77.152  1.00  0.00     0.023 C 
ATOM      9  O   UNL     1      65.353  84.611  78.225  1.00  0.00    -0.320 OA
ATOM     10  O   UNL     1      64.587  85.454  76.259  1.00  0.00    -0.313 OA
ATOM     11  C   UNL     1      66.244  85.699  77.937  1.00  0.00     0.170 C 
ATOM     12  C   UNL     1      65.712  87.550  76.260  1.00  0.00     0.049 C 
ATOM     13  C   UNL     1      63.285  88.255  76.319  1.00  0.00     0.011 C 
ATOM     14  C   UNL     1      65.886  86.046  76.470  1.00  0.00     0.122 C 
BRANCH   6  15
ATOM     15  C   UNL     1      63.749  88.094  79.677  1.00  0.00     0.086 C 
ATOM     16  C   UNL     1      64.644  89.088  80.446  1.00  0.00     0.140 CG0
ATOM     17  C   UNL     1      62.498  88.884  79.410  1.00  0.00    -0.010 C 
ATOM     18  C   UNL     1      63.671  90.189  80.810  1.00  0.00     0.190 C 
ATOM     19  G   UNL     1      65.291  88.449  81.674  1.00  0.00     0.000 G0
ATOM     20  C   UNL     1      62.412  90.053  80.053  1.00  0.00    -0.008 C 
ATOM     21  O   UNL     1      63.896  91.106  81.585  1.00  0.00    -0.291 OA
ATOM     22  C   UNL     1      61.310  91.037  80.095  1.00  0.00     0.048 C 
BRANCH  16  23
ATOM     23  O   UNL     1      65.606  89.740  79.634  1.00  0.00    -0.381 OA
ATOM     24  H   UNL     1      66.221  89.072  79.290  1.00  0.00     0.212 HD
ENDBRANCH  16  23
ENDBRANCH   6  15
BRANCH   7  25
ATOM     25  C   UNL     1      63.167  83.945  77.474  1.00  0.00     0.135 C 
BRANCH  25  26
ATOM     26  C   UNL     1      62.573  83.832  76.091  1.00  0.00    -0.040 A 
ATOM     27  C   UNL     1      62.933  82.769  75.263  1.00  0.00     0.004 A 
ATOM     28  C   UNL     1      61.665  84.790  75.642  1.00  0.00     0.004 A 
ATOM     29  C   UNL     1      62.384  82.665  73.984  1.00  0.00     0.000 A 
ATOM     30  C   UNL     1      61.116  84.685  74.363  1.00  0.00     0.000 A 
ATOM     31  C   UNL     1      61.476  83.622  73.535  1.00  0.00     0.000 A 
ENDBRANCH  25  26
ENDBRANCH   7  25
BRANCH  14  32
ATOM     32  C   UNL     1      66.844  85.437  75.499  1.00  0.00    -0.046 C 
ATOM     33  C   UNL     1      68.000  84.687  76.091  1.00  0.00     0.042 C 
ATOM     34  C   UNL     1      66.681  85.556  74.173  1.00  0.00     0.010 C 
ENDBRANCH  14  32
ENDBRANCH   3   4
BRANCH   2  35
ATOM     35  C   UNL     1      65.311  88.419  81.694  1.00  0.00     0.078 CG0
ATOM     36  G   UNL     1      64.653  89.068  80.477  1.00  0.00     0.000 G0
ENDBRANCH   2  35
ENDBRANCH   1   2
BRANCH   1  37
ATOM     37  O   UNL     1      66.665  85.035  82.565  1.00  0.00    -0.461 OA
BRANCH  37  38
ATOM     38  C   UNL     1      65.861  84.049  83.087  1.00  0.00     0.310 C 
ATOM     39  O   UNL     1      65.571  83.931  84.270  1.00  0.00    -0.252 OA
BRANCH  38  40
ATOM     40  C   UNL     1      65.396  83.137  81.976  1.00  0.00     0.158 C 
BRANCH  40  41
ATOM     41  C   UNL     1      65.337  81.689  82.390  1.00  0.00    -0.033 A 
ATOM     42  C   UNL     1      64.193  81.186  83.011  1.00  0.00     0.054 A 
ATOM     43  C   UNL     1      66.426  80.851  82.151  1.00  0.00     0.008 A 
ATOM     44  C   UNL     1      64.139  79.846  83.393  1.00  0.00     0.160 A 
ATOM     45  C   UNL     1      66.372  79.510  82.534  1.00  0.00     0.050 A 
ATOM     46  C   UNL     1      65.229  79.008  83.155  1.00  0.00     0.157 A 
BRANCH  44  47
ATOM     47  O   UNL     1      63.017  79.367  83.999  1.00  0.00    -0.493 OA
ATOM     48  C   UNL     1      61.872  80.218  84.008  1.00  0.00     0.278 C 
ENDBRANCH  44  47
BRANCH  46  49
ATOM     49  O   UNL     1      65.188  77.697  83.523  1.00  0.00    -0.504 OA
ATOM     50  H   UNL     1      66.072  77.424  83.821  1.00  0.00     0.293 HD
ENDBRANCH  46  49
ENDBRANCH  40  41
ENDBRANCH  38  40
ENDBRANCH  37  38
ENDBRANCH   1  37
TORSDOF 11
ENDMDL
MODEL 8
REMARK VINA RESULT:    -6.082      3.419      9.009
REMARK INTER + INTRA:         -11.741
REMARK INTER:                 -11.116
REMARK INTRA:                  -0.625
REMARK UNBOUND:                -1.037
REMARK SMILES C=C(C)[C@]12C[C@@H](C)[C@@]34O[C@](Cc5ccccc5)(O[C@@H]1[C@@H]3C=C(COC(=O)Cc1ccc(O)c(OC)c1)C[C@]1(O)C(=O)C(C)=C[C@@H]41)O2
REMARK SMILES IDX 23 1 22 2 21 3 20 4 9 5 8 6 10 7 6 8 18 9 46 10 19 11 5 12
REMARK SMILES IDX 7 13 4 14 45 15 38 16 44 17 40 18 42 20 41 21 43 22 39 23
REMARK SMILES IDX 11 25 12 26 13 27 17 28 14 29 16 30 15 31 2 32 3 33 1 34
REMARK SMILES IDX 37 35 24 37 25 38 26 39 27 40 28 41 36 42 29 43 33 44 30 45
REMARK SMILES IDX 31 46 34 47 35 48 32 49
REMARK H PARENT 39 24 32 50
REMARK Flexibility Score: 90.00
ROOT
ATOM      1  C   UNL     1      93.011  86.558  90.447  1.00  0.00     0.264 C 
ENDROOT
BRANCH   1   2
ATOM      2  C   UNL     1      93.193  85.422  89.467  1.00  0.00    -0.033 C 
ATOM      3  C   UNL     1      94.421  85.171  88.970  1.00  0.00    -0.015 C 
BRANCH   3   4
ATOM      4  C   UNL     1      94.849  84.153  87.926  1.00  0.00     0.078 C 
ATOM      5  O   UNL     1      95.513  82.106  89.148  1.00  0.00    -0.319 OA
ATOM      6  C   UNL     1      94.540  82.632  88.193  1.00  0.00     0.095 C 
ATOM      7  C   UNL     1      96.875  82.519  88.931  1.00  0.00     0.289 C 
ATOM      8  C   UNL     1      94.689  81.863  86.815  1.00  0.00     0.023 C 
ATOM      9  O   UNL     1      96.993  83.939  88.944  1.00  0.00    -0.320 OA
ATOM     10  O   UNL     1      97.370  82.104  87.660  1.00  0.00    -0.313 OA
ATOM     11  C   UNL     1      96.376  84.256  87.686  1.00  0.00     0.170 C 
ATOM     12  C   UNL     1      95.796  82.503  85.922  1.00  0.00     0.049 C 
ATOM     13  C   UNL     1      94.934  80.350  86.928  1.00  0.00     0.011 C 
ATOM     14  C   UNL     1      96.908  83.133  86.761  1.00  0.00     0.122 C 
BRANCH   6  15
ATOM     15  C   UNL     1      93.166  82.466  88.906  1.00  0.00     0.086 C 
ATOM     16  C   UNL     1      92.013  83.340  88.372  1.00  0.00     0.140 CG0
ATOM     17  C   UNL     1      92.550  81.098  89.007  1.00  0.00    -0.010 C 
ATOM     18  C   UNL     1      90.809  82.441  88.558  1.00  0.00     0.190 C 
ATOM     19  G   UNL     1      91.884  84.656  89.139  1.00  0.00     0.000 G0
ATOM     20  C   UNL     1      91.224  81.055  88.844  1.00  0.00    -0.008 C 
ATOM     21  O   UNL     1      89.643  82.785  88.440  1.00  0.00    -0.291 OA
ATOM     22  C   UNL     1      90.288  79.917  88.957  1.00  0.00     0.048 C 
BRANCH  16  23
ATOM     23  O   UNL     1      92.059  83.560  86.972  1.00  0.00    -0.381 OA
ATOM     24  H   UNL     1      91.441  82.944  86.545  1.00  0.00     0.212 HD
ENDBRANCH  16  23
ENDBRANCH   6  15
BRANCH   7  25
ATOM     25  C   UNL     1      97.733  81.924  90.028  1.00  0.00     0.135 C 
BRANCH  25  26
ATOM     26  C   UNL     1      97.456  82.557  91.369  1.00  0.00    -0.040 A 
ATOM     27  C   UNL     1      96.162  82.548  91.890  1.00  0.00     0.004 A 
ATOM     28  C   UNL     1      98.494  83.150  92.088  1.00  0.00     0.004 A 
ATOM     29  C   UNL     1      95.906  83.134  93.130  1.00  0.00     0.000 A 
ATOM     30  C   UNL     1      98.237  83.735  93.328  1.00  0.00     0.000 A 
ATOM     31  C   UNL     1      96.943  83.727  93.849  1.00  0.00     0.000 A 
ENDBRANCH  25  26
ENDBRANCH   7  25
BRANCH  14  32
ATOM     32  C   UNL     1      98.065  83.589  85.933  1.00  0.00    -0.046 C 
ATOM     33  C   UNL     1      99.418  83.485  86.572  1.00  0.00     0.042 C 
ATOM     34  C   UNL     1      97.903  84.064  84.689  1.00  0.00     0.010 C 
ENDBRANCH  14  32
ENDBRANCH   3   4
BRANCH   2  35
ATOM     35  C   UNL     1      91.904  84.681  89.169  1.00  0.00     0.078 CG0
ATOM     36  G   UNL     1      92.014  83.375  88.384  1.00  0.00     0.000 G0
ENDBRANCH   2  35
ENDBRANCH   1   2
BRANCH   1  37
ATOM     37  O   UNL     1      94.203  86.737  91.181  1.00  0.00    -0.461 OA
BRANCH  37  38
ATOM     38  C   UNL     1      94.198  87.749  92.113  1.00  0.00     0.310 C 
ATOM     39  O   UNL     1      95.070  87.938  92.949  1.00  0.00    -0.252 OA
BRANCH  38  40
ATOM     40  C   UNL     1      92.952  88.585  91.942  1.00  0.00     0.158 C 
BRANCH  40  41
ATOM     41  C   UNL     1      93.247  89.998  91.507  1.00  0.00    -0.033 A 
ATOM     42  C   UNL     1      92.531  91.061  92.059  1.00  0.00     0.054 A 
ATOM     43  C   UNL     1      94.236  90.243  90.555  1.00  0.00     0.008 A 
ATOM     44  C   UNL     1      92.804  92.369  91.657  1.00  0.00     0.160 A 
ATOM     45  C   UNL     1      94.510  91.550  90.153  1.00  0.00     0.050 A 
ATOM     46  C   UNL     1      93.794  92.613  90.703  1.00  0.00     0.157 A 
BRANCH  44  47
ATOM     47  O   UNL     1      92.098  93.398  92.201  1.00  0.00    -0.493 OA
ATOM     48  C   UNL     1      91.167  94.067  91.351  1.00  0.00     0.278 C 
ENDBRANCH  44  47
BRANCH  46  49
ATOM     49  O   UNL     1      94.070  93.885  90.304  1.00  0.00    -0.504 OA
ATOM     50  H   UNL     1      94.242  93.887  89.347  1.00  0.00     0.293 HD
ENDBRANCH  46  49
ENDBRANCH  40  41
ENDBRANCH  38  40
ENDBRANCH  37  38
ENDBRANCH   1  37
TORSDOF 11
ENDMDL
MODEL 9
REMARK VINA RESULT:    -5.972      1.634      2.171
REMARK INTER + INTRA:         -11.548
REMARK INTER:                 -10.641
REMARK INTRA:                  -0.907
REMARK UNBOUND:                -1.037
REMARK SMILES C=C(C)[C@]12C[C@@H](C)[C@@]34O[C@](Cc5ccccc5)(O[C@@H]1[C@@H]3C=C(COC(=O)Cc1ccc(O)c(OC)c1)C[C@]1(O)C(=O)C(C)=C[C@@H]41)O2
REMARK SMILES IDX 23 1 22 2 21 3 20 4 9 5 8 6 10 7 6 8 18 9 46 10 19 11 5 12
REMARK SMILES IDX 7 13 4 14 45 15 38 16 44 17 40 18 42 20 41 21 43 22 39 23
REMARK SMILES IDX 11 25 12 26 13 27 17 28 14 29 16 30 15 31 2 32 3 33 1 34
REMARK SMILES IDX 37 35 24 37 25 38 26 39 27 40 28 41 36 42 29 43 33 44 30 45
REMARK SMILES IDX 31 46 34 47 35 48 32 49
REMARK H PARENT 39 24 32 50
REMARK Flexibility Score: 90.00
ROOT
ATOM      1  C   UNL     1      97.450  82.607  88.855  1.00  0.00     0.264 C 
ENDROOT
BRANCH   1   2
ATOM      2  C   UNL     1      96.091  83.268  88.856  1.00  0.00    -0.033 C 
ATOM      3  C   UNL     1      94.985  82.500  88.921  1.00  0.00    -0.015 C 
BRANCH   3   4
ATOM      4  C   UNL     1      93.522  82.908  88.861  1.00  0.00     0.078 C 
ATOM      5  O   UNL     1      92.767  83.233  91.194  1.00  0.00    -0.319 OA
ATOM      6  C   UNL     1      92.985  83.932  89.930  1.00  0.00     0.095 C 
ATOM      7  C   UNL     1      92.144  81.939  91.084  1.00  0.00     0.289 C 
ATOM      8  C   UNL     1      91.604  84.499  89.400  1.00  0.00     0.023 C 
ATOM      9  O   UNL     1      92.901  81.071  90.244  1.00  0.00    -0.320 OA
ATOM     10  O   UNL     1      90.849  82.011  90.495  1.00  0.00    -0.313 OA
ATOM     11  C   UNL     1      92.621  81.653  88.962  1.00  0.00     0.170 C 
ATOM     12  C   UNL     1      90.822  83.425  88.582  1.00  0.00     0.049 C 
ATOM     13  C   UNL     1      90.680  85.096  90.474  1.00  0.00     0.011 C 
ATOM     14  C   UNL     1      91.118  82.010  89.078  1.00  0.00     0.122 C 
BRANCH   6  15
ATOM     15  C   UNL     1      94.066  85.003  90.259  1.00  0.00     0.086 C 
ATOM     16  C   UNL     1      94.849  85.570  89.057  1.00  0.00     0.140 CG0
ATOM     17  C   UNL     1      93.673  86.231  91.031  1.00  0.00    -0.010 C 
ATOM     18  C   UNL     1      95.091  87.005  89.474  1.00  0.00     0.190 C 
ATOM     19  G   UNL     1      96.149  84.807  88.804  1.00  0.00     0.000 G0
ATOM     20  C   UNL     1      94.253  87.368  90.633  1.00  0.00    -0.008 C 
ATOM     21  O   UNL     1      95.836  87.791  88.908  1.00  0.00    -0.291 OA
ATOM     22  C   UNL     1      94.170  88.729  91.201  1.00  0.00     0.048 C 
BRANCH  16  23
ATOM     23  O   UNL     1      94.079  85.686  87.873  1.00  0.00    -0.381 OA
ATOM     24  H   UNL     1      93.690  86.576  87.846  1.00  0.00     0.212 HD
ENDBRANCH  16  23
ENDBRANCH   6  15
BRANCH   7  25
ATOM     25  C   UNL     1      92.037  81.343  92.473  1.00  0.00     0.135 C 
BRANCH  25  26
ATOM     26  C   UNL     1      91.735  79.865  92.432  1.00  0.00    -0.040 A 
ATOM     27  C   UNL     1      90.486  79.398  92.843  1.00  0.00     0.004 A 
ATOM     28  C   UNL     1      92.702  78.968  91.982  1.00  0.00     0.004 A 
ATOM     29  C   UNL     1      90.207  78.031  92.805  1.00  0.00     0.000 A 
ATOM     30  C   UNL     1      92.422  77.601  91.944  1.00  0.00     0.000 A 
ATOM     31  C   UNL     1      91.174  77.134  92.356  1.00  0.00     0.000 A 
ENDBRANCH  25  26
ENDBRANCH   7  25
BRANCH  14  32
ATOM     32  C   UNL     1      90.246  80.982  88.434  1.00  0.00    -0.046 C 
ATOM     33  C   UNL     1      89.758  81.298  87.051  1.00  0.00     0.042 C 
ATOM     34  C   UNL     1      89.917  79.840  89.057  1.00  0.00     0.010 C 
ENDBRANCH  14  32
ENDBRANCH   3   4
BRANCH   2  35
ATOM     35  C   UNL     1      96.165  84.781  88.786  1.00  0.00     0.078 CG0
ATOM     36  G   UNL     1      94.877  85.557  89.055  1.00  0.00     0.000 G0
ENDBRANCH   2  35
ENDBRANCH   1   2
BRANCH   1  37
ATOM     37  O   UNL     1      97.600  81.850  87.673  1.00  0.00    -0.461 OA
BRANCH  37  38
ATOM     38  C   UNL     1      98.016  82.539  86.558  1.00  0.00     0.310 C 
ATOM     39  O   UNL     1      98.932  83.349  86.533  1.00  0.00    -0.252 OA
BRANCH  38  40
ATOM     40  C   UNL     1      97.167  82.141  85.373  1.00  0.00     0.158 C 
BRANCH  40  41
ATOM     41  C   UNL     1      97.899  82.255  84.061  1.00  0.00    -0.033 A 
ATOM     42  C   UNL     1      99.036  81.480  83.827  1.00  0.00     0.054 A 
ATOM     43  C   UNL     1      97.440  83.133  83.080  1.00  0.00     0.008 A 
ATOM     44  C   UNL     1      99.713  81.585  82.612  1.00  0.00     0.160 A 
ATOM     45  C   UNL     1      98.117  83.238  81.865  1.00  0.00     0.050 A 
ATOM     46  C   UNL     1      99.254  82.465  81.631  1.00  0.00     0.157 A 
BRANCH  44  47
ATOM     47  O   UNL     1     100.822  80.825  82.395  1.00  0.00    -0.493 OA
ATOM     48  C   UNL     1     100.807  79.494  82.911  1.00  0.00     0.278 C 
ENDBRANCH  44  47
BRANCH  46  49
ATOM     49  O   UNL     1      99.906  82.575  80.441  1.00  0.00    -0.504 OA
ATOM     50  H   UNL     1     100.386  81.749  80.265  1.00  0.00     0.293 HD
ENDBRANCH  46  49
ENDBRANCH  40  41
ENDBRANCH  38  40
ENDBRANCH  37  38
ENDBRANCH   1  37
TORSDOF 11
ENDMDL
MODEL 10
REMARK VINA RESULT:    -5.888      8.080     12.742
REMARK INTER + INTRA:         -11.399
REMARK INTER:                  -9.147
REMARK INTRA:                  -2.253
REMARK UNBOUND:                -1.037
REMARK SMILES C=C(C)[C@]12C[C@@H](C)[C@@]34O[C@](Cc5ccccc5)(O[C@@H]1[C@@H]3C=C(COC(=O)Cc1ccc(O)c(OC)c1)C[C@]1(O)C(=O)C(C)=C[C@@H]41)O2
REMARK SMILES IDX 23 1 22 2 21 3 20 4 9 5 8 6 10 7 6 8 18 9 46 10 19 11 5 12
REMARK SMILES IDX 7 13 4 14 45 15 38 16 44 17 40 18 42 20 41 21 43 22 39 23
REMARK SMILES IDX 11 25 12 26 13 27 17 28 14 29 16 30 15 31 2 32 3 33 1 34
REMARK SMILES IDX 37 35 24 37 25 38 26 39 27 40 28 41 36 42 29 43 33 44 30 45
REMARK SMILES IDX 31 46 34 47 35 48 32 49
REMARK H PARENT 39 24 32 50
REMARK Flexibility Score: 90.00
ROOT
ATOM      1  C   UNL     1      99.274  76.541  76.858  1.00  0.00     0.264 C 
ENDROOT
BRANCH   1   2
ATOM      2  C   UNL     1      99.705  77.914  76.396  1.00  0.00    -0.033 C 
ATOM      3  C   UNL     1      99.233  79.003  77.036  1.00  0.00    -0.015 C 
BRANCH   3   4
ATOM      4  C   UNL     1      99.449  80.474  76.724  1.00  0.00     0.078 C 
ATOM      5  O   UNL     1     101.399  81.214  78.054  1.00  0.00    -0.319 OA
ATOM      6  C   UNL     1     100.925  81.023  76.686  1.00  0.00     0.095 C 
ATOM      7  C   UNL     1     100.450  81.810  78.958  1.00  0.00     0.289 C 
ATOM      8  C   UNL     1     100.897  82.421  75.941  1.00  0.00     0.023 C 
ATOM      9  O   UNL     1      99.251  81.043  79.029  1.00  0.00    -0.320 OA
ATOM     10  O   UNL     1     100.049  83.113  78.541  1.00  0.00    -0.313 OA
ATOM     11  C   UNL     1      98.681  81.348  77.746  1.00  0.00     0.170 C 
ATOM     12  C   UNL     1      99.566  83.188  76.212  1.00  0.00     0.049 C 
ATOM     13  C   UNL     1     102.089  83.347  76.232  1.00  0.00     0.011 C 
ATOM     14  C   UNL     1      98.994  82.857  77.591  1.00  0.00     0.122 C 
BRANCH   6  15
ATOM     15  C   UNL     1     101.892  79.963  76.083  1.00  0.00     0.086 C 
ATOM     16  C   UNL     1     101.381  79.205  74.841  1.00  0.00     0.140 CG0
ATOM     17  C   UNL     1     103.285  80.374  75.695  1.00  0.00    -0.010 C 
ATOM     18  C   UNL     1     102.652  78.990  74.045  1.00  0.00     0.190 C 
ATOM     19  G   UNL     1     100.693  77.892  75.209  1.00  0.00     0.000 G0
ATOM     20  C   UNL     1     103.751  79.823  74.569  1.00  0.00    -0.008 C 
ATOM     21  O   UNL     1     102.760  78.269  73.065  1.00  0.00    -0.291 OA
ATOM     22  C   UNL     1     105.082  79.930  73.938  1.00  0.00     0.048 C 
BRANCH  16  23
ATOM     23  O   UNL     1     100.572  79.991  73.981  1.00  0.00    -0.381 OA
ATOM     24  H   UNL     1     100.058  79.394  73.413  1.00  0.00     0.212 HD
ENDBRANCH  16  23
ENDBRANCH   6  15
BRANCH   7  25
ATOM     25  C   UNL     1     101.087  81.892  80.331  1.00  0.00     0.135 C 
BRANCH  25  26
ATOM     26  C   UNL     1     100.063  81.801  81.435  1.00  0.00    -0.040 A 
ATOM     27  C   UNL     1      99.236  82.890  81.711  1.00  0.00     0.004 A 
ATOM     28  C   UNL     1      99.943  80.628  82.180  1.00  0.00     0.004 A 
ATOM     29  C   UNL     1      98.289  82.805  82.732  1.00  0.00     0.000 A 
ATOM     30  C   UNL     1      98.996  80.543  83.201  1.00  0.00     0.000 A 
ATOM     31  C   UNL     1      98.170  81.632  83.477  1.00  0.00     0.000 A 
ENDBRANCH  25  26
ENDBRANCH   7  25
BRANCH  14  32
ATOM     32  C   UNL     1      97.823  83.712  77.947  1.00  0.00    -0.046 C 
ATOM     33  C   UNL     1      97.432  84.753  76.941  1.00  0.00     0.042 C 
ATOM     34  C   UNL     1      97.157  83.559  79.102  1.00  0.00     0.010 C 
ENDBRANCH  14  32
ENDBRANCH   3   4
BRANCH   2  35
ATOM     35  C   UNL     1     100.664  77.873  75.221  1.00  0.00     0.078 CG0
ATOM     36  G   UNL     1     101.371  79.175  74.850  1.00  0.00     0.000 G0
ENDBRANCH   2  35
ENDBRANCH   1   2
BRANCH   1  37
ATOM     37  O   UNL     1     100.410  75.807  77.262  1.00  0.00    -0.461 OA
BRANCH  37  38
ATOM     38  C   UNL     1     100.720  75.855  78.602  1.00  0.00     0.310 C 
ATOM     39  O   UNL     1      99.927  76.114  79.497  1.00  0.00    -0.252 OA
BRANCH  38  40
ATOM     40  C   UNL     1     102.185  75.541  78.792  1.00  0.00     0.158 C 
BRANCH  40  41
ATOM     41  C   UNL     1     102.972  76.709  79.329  1.00  0.00    -0.033 A 
ATOM     42  C   UNL     1     104.023  76.490  80.221  1.00  0.00     0.054 A 
ATOM     43  C   UNL     1     102.650  78.007  78.935  1.00  0.00     0.008 A 
ATOM     44  C   UNL     1     104.751  77.571  80.718  1.00  0.00     0.160 A 
ATOM     45  C   UNL     1     103.379  79.088  79.432  1.00  0.00     0.050 A 
ATOM     46  C   UNL     1     104.429  78.871  80.323  1.00  0.00     0.157 A 
BRANCH  44  47
ATOM     47  O   UNL     1     105.774  77.346  81.588  1.00  0.00    -0.493 OA
ATOM     48  C   UNL     1     106.835  76.505  81.137  1.00  0.00     0.278 C 
ENDBRANCH  44  47
BRANCH  46  49
ATOM     49  O   UNL     1     105.134  79.933  80.801  1.00  0.00    -0.504 OA
ATOM     50  H   UNL     1     105.888  80.103  80.213  1.00  0.00     0.293 HD
ENDBRANCH  46  49
ENDBRANCH  40  41
ENDBRANCH  38  40
ENDBRANCH  37  38
ENDBRANCH   1  37
TORSDOF 11
ENDMDL
