MODEL 1
REMARK VINA RESULT:    -6.624      0.000      0.000
REMARK INTER + INTRA:         -10.772
REMARK INTER:                 -10.303
REMARK INTRA:                  -0.469
REMARK UNBOUND:                -0.469
REMARK SMILES COc1cc(CNC(=O)CCCCCC(C)C)ccc1O
REMARK SMILES IDX 10 1 8 2 7 3 9 5 6 6 5 7 3 8 20 9 4 10 19 11 18 12 2 13 1 14
REMARK SMILES IDX 21 15 11 17 12 18 13 19 14 20 15 21 16 22 17 23
REMARK H PARENT 7 4 21 16
REMARK Flexibility Score: inf
ROOT
ATOM      1  C   UNL     1      93.161  85.388  86.485  1.00  0.00     0.100 C 
ENDROOT
BRANCH   1   2
ATOM      2  C   UNL     1      93.233  83.988  86.017  1.00  0.00     0.220 C 
ATOM      3  N   UNL     1      92.351  83.550  85.075  1.00  0.00    -0.352 N 
ATOM      4  H   UNL     1      91.608  84.199  84.854  1.00  0.00     0.163 HD
ATOM      5  O   UNL     1      94.135  83.241  86.469  1.00  0.00    -0.275 OA
BRANCH   3   6
ATOM      6  C   UNL     1      92.415  82.287  84.412  1.00  0.00     0.151 C 
BRANCH   6   7
ATOM      7  C   UNL     1      91.099  81.596  84.343  1.00  0.00    -0.025 A 
ATOM      8  C   UNL     1      88.645  81.666  84.469  1.00  0.00     0.160 A 
ATOM      9  C   UNL     1      88.591  80.294  84.145  1.00  0.00     0.157 A 
ATOM     10  C   UNL     1      89.898  82.304  84.585  1.00  0.00     0.056 A 
ATOM     11  C   UNL     1      89.780  79.574  83.929  1.00  0.00     0.050 A 
ATOM     12  C   UNL     1      91.024  80.220  84.022  1.00  0.00     0.009 A 
BRANCH   8  13
ATOM     13  O   UNL     1      87.499  82.381  84.703  1.00  0.00    -0.493 OA
ATOM     14  C   UNL     1      87.733  83.760  85.047  1.00  0.00     0.278 C 
ENDBRANCH   8  13
BRANCH   9  15
ATOM     15  O   UNL     1      87.391  79.671  84.034  1.00  0.00    -0.504 OA
ATOM     16  H   UNL     1      86.847  79.886  84.794  1.00  0.00     0.293 HD
ENDBRANCH   9  15
ENDBRANCH   6   7
ENDBRANCH   3   6
ENDBRANCH   1   2
BRANCH   1  17
ATOM     17  C   UNL     1      93.132  85.545  88.029  1.00  0.00     0.010 C 
BRANCH  17  18
ATOM     18  C   UNL     1      93.307  87.028  88.457  1.00  0.00     0.001 C 
BRANCH  18  19
ATOM     19  C   UNL     1      94.054  87.889  87.405  1.00  0.00     0.000 C 
BRANCH  19  20
ATOM     20  C   UNL     1      94.664  89.179  88.026  1.00  0.00     0.003 C 
BRANCH  20  21
ATOM     21  C   UNL     1      93.648  90.345  88.256  1.00  0.00    -0.017 C 
ATOM     22  C   UNL     1      94.341  91.728  88.078  1.00  0.00     0.007 C 
ATOM     23  C   UNL     1      92.950  90.273  89.645  1.00  0.00     0.007 C 
ENDBRANCH  20  21
ENDBRANCH  19  20
ENDBRANCH  18  19
ENDBRANCH  17  18
ENDBRANCH   1  17
TORSDOF 10
ENDMDL
MODEL 2
REMARK VINA RESULT:    -6.323      5.566     11.057
REMARK INTER + INTRA:         -10.303
REMARK INTER:                  -9.632
REMARK INTRA:                  -0.671
REMARK UNBOUND:                -0.469
REMARK SMILES COc1cc(CNC(=O)CCCCCC(C)C)ccc1O
REMARK SMILES IDX 10 1 8 2 7 3 9 5 6 6 5 7 3 8 20 9 4 10 19 11 18 12 2 13 1 14
REMARK SMILES IDX 21 15 11 17 12 18 13 19 14 20 15 21 16 22 17 23
REMARK H PARENT 7 4 21 16
REMARK Flexibility Score: inf
ROOT
ATOM      1  C   UNL     1      91.848  75.278  81.002  1.00  0.00     0.100 C 
ENDROOT
BRANCH   1   2
ATOM      2  C   UNL     1      91.100  75.420  82.268  1.00  0.00     0.220 C 
ATOM      3  N   UNL     1      91.488  76.362  83.173  1.00  0.00    -0.352 N 
ATOM      4  H   UNL     1      92.364  76.818  82.962  1.00  0.00     0.163 HD
ATOM      5  O   UNL     1      90.093  74.697  82.465  1.00  0.00    -0.275 OA
BRANCH   3   6
ATOM      6  C   UNL     1      90.760  76.724  84.347  1.00  0.00     0.151 C 
BRANCH   6   7
ATOM      7  C   UNL     1      90.085  78.044  84.232  1.00  0.00    -0.025 A 
ATOM      8  C   UNL     1      90.199  80.473  83.865  1.00  0.00     0.160 A 
ATOM      9  C   UNL     1      88.792  80.549  83.947  1.00  0.00     0.157 A 
ATOM     10  C   UNL     1      90.837  79.225  84.027  1.00  0.00     0.056 A 
ATOM     11  C   UNL     1      88.036  79.385  84.177  1.00  0.00     0.050 A 
ATOM     12  C   UNL     1      88.676  78.142  84.313  1.00  0.00     0.009 A 
BRANCH   8  13
ATOM     13  O   UNL     1      90.955  81.597  83.661  1.00  0.00    -0.493 OA
ATOM     14  C   UNL     1      92.160  81.639  84.448  1.00  0.00     0.278 C 
ENDBRANCH   8  13
BRANCH   9  15
ATOM     15  O   UNL     1      88.169  81.744  83.795  1.00  0.00    -0.504 OA
ATOM     16  H   UNL     1      88.623  82.411  84.315  1.00  0.00     0.293 HD
ENDBRANCH   9  15
ENDBRANCH   6   7
ENDBRANCH   3   6
ENDBRANCH   1   2
BRANCH   1  17
ATOM     17  C   UNL     1      90.952  75.147  79.741  1.00  0.00     0.010 C 
BRANCH  17  18
ATOM     18  C   UNL     1      91.707  74.457  78.571  1.00  0.00     0.001 C 
BRANCH  18  19
ATOM     19  C   UNL     1      91.939  75.390  77.353  1.00  0.00     0.000 C 
BRANCH  19  20
ATOM     20  C   UNL     1      91.129  76.715  77.464  1.00  0.00     0.003 C 
BRANCH  20  21
ATOM     21  C   UNL     1      90.657  77.316  76.100  1.00  0.00    -0.017 C 
ATOM     22  C   UNL     1      90.840  76.286  74.946  1.00  0.00     0.007 C 
ATOM     23  C   UNL     1      91.378  78.648  75.745  1.00  0.00     0.007 C 
ENDBRANCH  20  21
ENDBRANCH  19  20
ENDBRANCH  18  19
ENDBRANCH  17  18
ENDBRANCH   1  17
TORSDOF 10
ENDMDL
MODEL 3
REMARK VINA RESULT:    -5.908      7.635     10.248
REMARK INTER + INTRA:          -9.658
REMARK INTER:                  -9.077
REMARK INTRA:                  -0.582
REMARK UNBOUND:                -0.469
REMARK SMILES COc1cc(CNC(=O)CCCCCC(C)C)ccc1O
REMARK SMILES IDX 10 1 8 2 7 3 9 5 6 6 5 7 3 8 20 9 4 10 19 11 18 12 2 13 1 14
REMARK SMILES IDX 21 15 11 17 12 18 13 19 14 20 15 21 16 22 17 23
REMARK H PARENT 7 4 21 16
REMARK Flexibility Score: inf
ROOT
ATOM      1  C   UNL     1      97.229  81.653  82.665  1.00  0.00     0.100 C 
ENDROOT
BRANCH   1   2
ATOM      2  C   UNL     1      97.596  81.372  81.262  1.00  0.00     0.220 C 
ATOM      3  N   UNL     1      98.313  82.294  80.560  1.00  0.00    -0.352 N 
ATOM      4  H   UNL     1      98.433  83.183  81.024  1.00  0.00     0.163 HD
ATOM      5  O   UNL     1      97.274  80.268  80.757  1.00  0.00    -0.275 OA
BRANCH   3   6
ATOM      6  C   UNL     1      98.879  82.083  79.266  1.00  0.00     0.151 C 
BRANCH   6   7
ATOM      7  C   UNL     1      98.184  82.845  78.193  1.00  0.00    -0.025 A 
ATOM      8  C   UNL     1      98.088  83.655  75.873  1.00  0.00     0.160 A 
ATOM      9  C   UNL     1      96.830  84.239  76.132  1.00  0.00     0.157 A 
ATOM     10  C   UNL     1      98.766  82.978  76.910  1.00  0.00     0.056 A 
ATOM     11  C   UNL     1      96.255  84.136  77.412  1.00  0.00     0.050 A 
ATOM     12  C   UNL     1      96.924  83.439  78.433  1.00  0.00     0.009 A 
BRANCH   8  13
ATOM     13  O   UNL     1      98.674  83.762  74.640  1.00  0.00    -0.493 OA
ATOM     14  C   UNL     1      99.395  82.582  74.234  1.00  0.00     0.278 C 
ENDBRANCH   8  13
BRANCH   9  15
ATOM     15  O   UNL     1      96.171  84.894  75.143  1.00  0.00    -0.504 OA
ATOM     16  H   UNL     1      96.608  84.730  74.304  1.00  0.00     0.293 HD
ENDBRANCH   9  15
ENDBRANCH   6   7
ENDBRANCH   3   6
ENDBRANCH   1   2
BRANCH   1  17
ATOM     17  C   UNL     1      96.345  82.915  82.854  1.00  0.00     0.010 C 
BRANCH  17  18
ATOM     18  C   UNL     1      95.428  82.790  84.102  1.00  0.00     0.001 C 
BRANCH  18  19
ATOM     19  C   UNL     1      94.229  81.827  83.892  1.00  0.00     0.000 C 
BRANCH  19  20
ATOM     20  C   UNL     1      92.922  82.364  84.544  1.00  0.00     0.003 C 
BRANCH  20  21
ATOM     21  C   UNL     1      92.001  81.269  85.174  1.00  0.00    -0.017 C 
ATOM     22  C   UNL     1      92.291  81.107  86.696  1.00  0.00     0.007 C 
ATOM     23  C   UNL     1      92.122  79.892  84.458  1.00  0.00     0.007 C 
ENDBRANCH  20  21
ENDBRANCH  19  20
ENDBRANCH  18  19
ENDBRANCH  17  18
ENDBRANCH   1  17
TORSDOF 10
ENDMDL
MODEL 4
REMARK VINA RESULT:    -5.752      4.867      7.684
REMARK INTER + INTRA:          -9.415
REMARK INTER:                  -8.522
REMARK INTRA:                  -0.894
REMARK UNBOUND:                -0.469
REMARK SMILES COc1cc(CNC(=O)CCCCCC(C)C)ccc1O
REMARK SMILES IDX 10 1 8 2 7 3 9 5 6 6 5 7 3 8 20 9 4 10 19 11 18 12 2 13 1 14
REMARK SMILES IDX 21 15 11 17 12 18 13 19 14 20 15 21 16 22 17 23
REMARK H PARENT 7 4 21 16
REMARK Flexibility Score: inf
ROOT
ATOM      1  C   UNL     1      96.898  83.013  82.873  1.00  0.00     0.100 C 
ENDROOT
BRANCH   1   2
ATOM      2  C   UNL     1      95.989  82.901  84.032  1.00  0.00     0.220 C 
ATOM      3  N   UNL     1      94.660  83.151  83.867  1.00  0.00    -0.352 N 
ATOM      4  H   UNL     1      94.408  83.533  82.967  1.00  0.00     0.163 HD
ATOM      5  O   UNL     1      96.456  82.534  85.139  1.00  0.00    -0.275 OA
BRANCH   3   6
ATOM      6  C   UNL     1      93.651  82.914  84.850  1.00  0.00     0.151 C 
BRANCH   6   7
ATOM      7  C   UNL     1      92.883  81.663  84.608  1.00  0.00    -0.025 A 
ATOM      8  C   UNL     1      92.713  79.212  84.709  1.00  0.00     0.160 A 
ATOM      9  C   UNL     1      91.395  79.285  84.212  1.00  0.00     0.157 A 
ATOM     10  C   UNL     1      93.455  80.399  84.886  1.00  0.00     0.056 A 
ATOM     11  C   UNL     1      90.825  80.535  83.907  1.00  0.00     0.050 A 
ATOM     12  C   UNL     1      91.560  81.715  84.109  1.00  0.00     0.009 A 
BRANCH   8  13
ATOM     13  O   UNL     1      93.294  78.004  84.993  1.00  0.00    -0.493 OA
ATOM     14  C   UNL     1      94.352  77.639  84.086  1.00  0.00     0.278 C 
ENDBRANCH   8  13
BRANCH   9  15
ATOM     15  O   UNL     1      90.674  78.150  84.036  1.00  0.00    -0.504 OA
ATOM     16  H   UNL     1      90.625  77.943  83.100  1.00  0.00     0.293 HD
ENDBRANCH   9  15
ENDBRANCH   6   7
ENDBRANCH   3   6
ENDBRANCH   1   2
BRANCH   1  17
ATOM     17  C   UNL     1      96.399  82.284  81.597  1.00  0.00     0.010 C 
BRANCH  17  18
ATOM     18  C   UNL     1      97.430  81.235  81.096  1.00  0.00     0.001 C 
BRANCH  18  19
ATOM     19  C   UNL     1      98.468  81.818  80.100  1.00  0.00     0.000 C 
BRANCH  19  20
ATOM     20  C   UNL     1      98.041  83.212  79.555  1.00  0.00     0.003 C 
BRANCH  20  21
ATOM     21  C   UNL     1      97.538  83.217  78.075  1.00  0.00    -0.017 C 
ATOM     22  C   UNL     1      96.131  83.878  77.970  1.00  0.00     0.007 C 
ATOM     23  C   UNL     1      97.509  81.796  77.442  1.00  0.00     0.007 C 
ENDBRANCH  20  21
ENDBRANCH  19  20
ENDBRANCH  18  19
ENDBRANCH  17  18
ENDBRANCH   1  17
TORSDOF 10
ENDMDL
MODEL 5
REMARK VINA RESULT:    -5.533     12.114     14.054
REMARK INTER + INTRA:          -9.075
REMARK INTER:                  -8.158
REMARK INTRA:                  -0.916
REMARK UNBOUND:                -0.469
REMARK SMILES COc1cc(CNC(=O)CCCCCC(C)C)ccc1O
REMARK SMILES IDX 10 1 8 2 7 3 9 5 6 6 5 7 3 8 20 9 4 10 19 11 18 12 2 13 1 14
REMARK SMILES IDX 21 15 11 17 12 18 13 19 14 20 15 21 16 22 17 23
REMARK H PARENT 7 4 21 16
REMARK Flexibility Score: inf
ROOT
ATOM      1  C   UNL     1      99.323  85.442  73.019  1.00  0.00     0.100 C 
ENDROOT
BRANCH   1   2
ATOM      2  C   UNL     1      98.290  84.649  73.717  1.00  0.00     0.220 C 
ATOM      3  N   UNL     1      97.801  85.089  74.911  1.00  0.00    -0.352 N 
ATOM      4  H   UNL     1      98.289  85.882  75.303  1.00  0.00     0.163 HD
ATOM      5  O   UNL     1      97.854  83.604  73.175  1.00  0.00    -0.275 OA
BRANCH   3   6
ATOM      6  C   UNL     1      96.690  84.521  75.604  1.00  0.00     0.151 C 
BRANCH   6   7
ATOM      7  C   UNL     1      97.084  83.782  76.834  1.00  0.00    -0.025 A 
ATOM      8  C   UNL     1      98.618  82.259  78.007  1.00  0.00     0.160 A 
ATOM      9  C   UNL     1      97.873  82.428  79.194  1.00  0.00     0.157 A 
ATOM     10  C   UNL     1      98.208  82.922  76.830  1.00  0.00     0.056 A 
ATOM     11  C   UNL     1      96.738  83.260  79.202  1.00  0.00     0.050 A 
ATOM     12  C   UNL     1      96.350  83.936  78.033  1.00  0.00     0.009 A 
BRANCH   8  13
ATOM     13  O   UNL     1      99.714  81.439  77.973  1.00  0.00    -0.493 OA
ATOM     14  C   UNL     1     100.657  81.770  76.936  1.00  0.00     0.278 C 
ENDBRANCH   8  13
BRANCH   9  15
ATOM     15  O   UNL     1      98.257  81.794  80.330  1.00  0.00    -0.504 OA
ATOM     16  H   UNL     1      99.015  81.235  80.144  1.00  0.00     0.293 HD
ENDBRANCH   9  15
ENDBRANCH   6   7
ENDBRANCH   3   6
ENDBRANCH   1   2
BRANCH   1  17
ATOM     17  C   UNL     1     100.493  85.907  73.926  1.00  0.00     0.010 C 
BRANCH  17  18
ATOM     18  C   UNL     1     101.053  84.738  74.783  1.00  0.00     0.001 C 
BRANCH  18  19
ATOM     19  C   UNL     1     102.469  84.277  74.347  1.00  0.00     0.000 C 
BRANCH  19  20
ATOM     20  C   UNL     1     103.102  85.236  73.298  1.00  0.00     0.003 C 
BRANCH  20  21
ATOM     21  C   UNL     1     104.301  86.091  73.823  1.00  0.00    -0.017 C 
ATOM     22  C   UNL     1     105.533  85.189  74.130  1.00  0.00     0.007 C 
ATOM     23  C   UNL     1     103.935  86.940  75.075  1.00  0.00     0.007 C 
ENDBRANCH  20  21
ENDBRANCH  19  20
ENDBRANCH  18  19
ENDBRANCH  17  18
ENDBRANCH   1  17
TORSDOF 10
ENDMDL
MODEL 6
REMARK VINA RESULT:    -5.517     22.839     25.203
REMARK INTER + INTRA:          -9.050
REMARK INTER:                  -7.803
REMARK INTRA:                  -1.247
REMARK UNBOUND:                -0.469
REMARK SMILES COc1cc(CNC(=O)CCCCCC(C)C)ccc1O
REMARK SMILES IDX 10 1 8 2 7 3 9 5 6 6 5 7 3 8 20 9 4 10 19 11 18 12 2 13 1 14
REMARK SMILES IDX 21 15 11 17 12 18 13 19 14 20 15 21 16 22 17 23
REMARK H PARENT 7 4 21 16
REMARK Flexibility Score: inf
ROOT
ATOM      1  C   UNL     1      73.873  90.800  65.969  1.00  0.00     0.100 C 
ENDROOT
BRANCH   1   2
ATOM      2  C   UNL     1      74.677  89.608  65.629  1.00  0.00     0.220 C 
ATOM      3  N   UNL     1      75.775  89.305  66.377  1.00  0.00    -0.352 N 
ATOM      4  H   UNL     1      76.041  90.012  67.048  1.00  0.00     0.163 HD
ATOM      5  O   UNL     1      74.306  88.873  64.681  1.00  0.00    -0.275 OA
BRANCH   3   6
ATOM      6  C   UNL     1      76.536  88.101  66.271  1.00  0.00     0.151 C 
BRANCH   6   7
ATOM      7  C   UNL     1      76.258  87.136  67.368  1.00  0.00    -0.025 A 
ATOM      8  C   UNL     1      74.739  85.558  68.487  1.00  0.00     0.160 A 
ATOM      9  C   UNL     1      75.751  85.247  69.419  1.00  0.00     0.157 A 
ATOM     10  C   UNL     1      74.992  86.513  67.479  1.00  0.00     0.056 A 
ATOM     11  C   UNL     1      77.005  85.880  69.334  1.00  0.00     0.050 A 
ATOM     12  C   UNL     1      77.259  86.813  68.314  1.00  0.00     0.009 A 
BRANCH   8  13
ATOM     13  O   UNL     1      73.504  84.968  68.563  1.00  0.00    -0.493 OA
ATOM     14  C   UNL     1      72.422  85.827  68.158  1.00  0.00     0.278 C 
ENDBRANCH   8  13
BRANCH   9  15
ATOM     15  O   UNL     1      75.517  84.332  70.393  1.00  0.00    -0.504 OA
ATOM     16  H   UNL     1      76.332  83.868  70.598  1.00  0.00     0.293 HD
ENDBRANCH   9  15
ENDBRANCH   6   7
ENDBRANCH   3   6
ENDBRANCH   1   2
BRANCH   1  17
ATOM     17  C   UNL     1      74.713  92.046  66.358  1.00  0.00     0.010 C 
BRANCH  17  18
ATOM     18  C   UNL     1      74.070  92.823  67.540  1.00  0.00     0.001 C 
BRANCH  18  19
ATOM     19  C   UNL     1      73.331  91.907  68.551  1.00  0.00     0.000 C 
BRANCH  19  20
ATOM     20  C   UNL     1      73.884  92.062  69.997  1.00  0.00     0.003 C 
BRANCH  20  21
ATOM     21  C   UNL     1      74.340  90.729  70.675  1.00  0.00    -0.017 C 
ATOM     22  C   UNL     1      75.227  89.890  69.709  1.00  0.00     0.007 C 
ATOM     23  C   UNL     1      73.146  89.870  71.185  1.00  0.00     0.007 C 
ENDBRANCH  20  21
ENDBRANCH  19  20
ENDBRANCH  18  19
ENDBRANCH  17  18
ENDBRANCH   1  17
TORSDOF 10
ENDMDL
MODEL 7
REMARK VINA RESULT:    -5.458      5.465      7.624
REMARK INTER + INTRA:          -8.959
REMARK INTER:                  -8.141
REMARK INTRA:                  -0.817
REMARK UNBOUND:                -0.469
REMARK SMILES COc1cc(CNC(=O)CCCCCC(C)C)ccc1O
REMARK SMILES IDX 10 1 8 2 7 3 9 5 6 6 5 7 3 8 20 9 4 10 19 11 18 12 2 13 1 14
REMARK SMILES IDX 21 15 11 17 12 18 13 19 14 20 15 21 16 22 17 23
REMARK H PARENT 7 4 21 16
REMARK Flexibility Score: inf
ROOT
ATOM      1  C   UNL     1      92.085  76.062  84.056  1.00  0.00     0.100 C 
ENDROOT
BRANCH   1   2
ATOM      2  C   UNL     1      90.640  76.333  83.908  1.00  0.00     0.220 C 
ATOM      3  N   UNL     1      90.110  77.459  84.464  1.00  0.00    -0.352 N 
ATOM      4  H   UNL     1      90.739  77.974  85.063  1.00  0.00     0.163 HD
ATOM      5  O   UNL     1      89.937  75.539  83.237  1.00  0.00    -0.275 OA
BRANCH   3   6
ATOM      6  C   UNL     1      88.778  77.930  84.255  1.00  0.00     0.151 C 
BRANCH   6   7
ATOM      7  C   UNL     1      88.684  79.414  84.205  1.00  0.00    -0.025 A 
ATOM      8  C   UNL     1      89.768  81.621  84.218  1.00  0.00     0.160 A 
ATOM      9  C   UNL     1      88.511  82.237  84.042  1.00  0.00     0.157 A 
ATOM     10  C   UNL     1      89.844  80.215  84.317  1.00  0.00     0.056 A 
ATOM     11  C   UNL     1      87.347  81.451  83.956  1.00  0.00     0.050 A 
ATOM     12  C   UNL     1      87.433  80.050  84.031  1.00  0.00     0.009 A 
BRANCH   8  13
ATOM     13  O   UNL     1      90.911  82.369  84.324  1.00  0.00    -0.493 OA
ATOM     14  C   UNL     1      92.117  81.584  84.384  1.00  0.00     0.278 C 
ENDBRANCH   8  13
BRANCH   9  15
ATOM     15  O   UNL     1      88.426  83.587  83.948  1.00  0.00    -0.504 OA
ATOM     16  H   UNL     1      87.624  83.889  84.382  1.00  0.00     0.293 HD
ENDBRANCH   9  15
ENDBRANCH   6   7
ENDBRANCH   3   6
ENDBRANCH   1   2
BRANCH   1  17
ATOM     17  C   UNL     1      93.003  77.222  83.585  1.00  0.00     0.010 C 
BRANCH  17  18
ATOM     18  C   UNL     1      94.295  77.315  84.443  1.00  0.00     0.001 C 
BRANCH  18  19
ATOM     19  C   UNL     1      94.732  78.772  84.745  1.00  0.00     0.000 C 
BRANCH  19  20
ATOM     20  C   UNL     1      95.899  79.239  83.827  1.00  0.00     0.003 C 
BRANCH  20  21
ATOM     21  C   UNL     1      95.741  80.680  83.240  1.00  0.00    -0.017 C 
ATOM     22  C   UNL     1      96.752  80.921  82.081  1.00  0.00     0.007 C 
ATOM     23  C   UNL     1      95.889  81.792  84.318  1.00  0.00     0.007 C 
ENDBRANCH  20  21
ENDBRANCH  19  20
ENDBRANCH  18  19
ENDBRANCH  17  18
ENDBRANCH   1  17
TORSDOF 10
ENDMDL
MODEL 8
REMARK VINA RESULT:    -5.361      4.147      8.022
REMARK INTER + INTRA:          -8.807
REMARK INTER:                  -8.086
REMARK INTRA:                  -0.721
REMARK UNBOUND:                -0.469
REMARK SMILES COc1cc(CNC(=O)CCCCCC(C)C)ccc1O
REMARK SMILES IDX 10 1 8 2 7 3 9 5 6 6 5 7 3 8 20 9 4 10 19 11 18 12 2 13 1 14
REMARK SMILES IDX 21 15 11 17 12 18 13 19 14 20 15 21 16 22 17 23
REMARK H PARENT 7 4 21 16
REMARK Flexibility Score: inf
ROOT
ATOM      1  C   UNL     1      94.740  78.464  85.115  1.00  0.00     0.100 C 
ENDROOT
BRANCH   1   2
ATOM      2  C   UNL     1      95.723  79.419  84.562  1.00  0.00     0.220 C 
ATOM      3  N   UNL     1      95.340  80.280  83.578  1.00  0.00    -0.352 N 
ATOM      4  H   UNL     1      94.419  80.109  83.199  1.00  0.00     0.163 HD
ATOM      5  O   UNL     1      96.883  79.444  85.041  1.00  0.00    -0.275 OA
BRANCH   3   6
ATOM      6  C   UNL     1      96.128  81.361  83.079  1.00  0.00     0.151 C 
BRANCH   6   7
ATOM      7  C   UNL     1      95.720  82.683  83.625  1.00  0.00    -0.025 A 
ATOM      8  C   UNL     1      94.403  84.019  85.215  1.00  0.00     0.160 A 
ATOM      9  C   UNL     1      94.994  85.197  84.711  1.00  0.00     0.157 A 
ATOM     10  C   UNL     1      94.756  82.772  84.657  1.00  0.00     0.056 A 
ATOM     11  C   UNL     1      95.934  85.123  83.667  1.00  0.00     0.050 A 
ATOM     12  C   UNL     1      96.299  83.876  83.132  1.00  0.00     0.009 A 
BRANCH   8  13
ATOM     13  O   UNL     1      93.470  84.071  86.218  1.00  0.00    -0.493 OA
ATOM     14  C   UNL     1      93.793  83.250  87.356  1.00  0.00     0.278 C 
ENDBRANCH   8  13
BRANCH   9  15
ATOM     15  O   UNL     1      94.660  86.402  85.239  1.00  0.00    -0.504 OA
ATOM     16  H   UNL     1      95.457  86.909  85.409  1.00  0.00     0.293 HD
ENDBRANCH   9  15
ENDBRANCH   6   7
ENDBRANCH   3   6
ENDBRANCH   1   2
BRANCH   1  17
ATOM     17  C   UNL     1      93.406  78.392  84.324  1.00  0.00     0.010 C 
BRANCH  17  18
ATOM     18  C   UNL     1      92.354  79.389  84.883  1.00  0.00     0.001 C 
BRANCH  18  19
ATOM     19  C   UNL     1      91.015  79.375  84.100  1.00  0.00     0.000 C 
BRANCH  19  20
ATOM     20  C   UNL     1      90.415  80.802  83.934  1.00  0.00     0.003 C 
BRANCH  20  21
ATOM     21  C   UNL     1      88.984  80.990  84.536  1.00  0.00    -0.017 C 
ATOM     22  C   UNL     1      87.979  79.982  83.905  1.00  0.00     0.007 C 
ATOM     23  C   UNL     1      88.450  82.444  84.381  1.00  0.00     0.007 C 
ENDBRANCH  20  21
ENDBRANCH  19  20
ENDBRANCH  18  19
ENDBRANCH  17  18
ENDBRANCH   1  17
TORSDOF 10
ENDMDL
MODEL 9
REMARK VINA RESULT:    -5.351      3.484      8.794
REMARK INTER + INTRA:          -8.792
REMARK INTER:                  -8.051
REMARK INTRA:                  -0.742
REMARK UNBOUND:                -0.469
REMARK SMILES COc1cc(CNC(=O)CCCCCC(C)C)ccc1O
REMARK SMILES IDX 10 1 8 2 7 3 9 5 6 6 5 7 3 8 20 9 4 10 19 11 18 12 2 13 1 14
REMARK SMILES IDX 21 15 11 17 12 18 13 19 14 20 15 21 16 22 17 23
REMARK H PARENT 7 4 21 16
REMARK Flexibility Score: inf
ROOT
ATOM      1  C   UNL     1      94.885  82.084  85.989  1.00  0.00     0.100 C 
ENDROOT
BRANCH   1   2
ATOM      2  C   UNL     1      95.061  83.536  85.778  1.00  0.00     0.220 C 
ATOM      3  N   UNL     1      93.963  84.326  85.616  1.00  0.00    -0.352 N 
ATOM      4  H   UNL     1      93.090  83.827  85.519  1.00  0.00     0.163 HD
ATOM      5  O   UNL     1      96.220  84.017  85.795  1.00  0.00    -0.275 OA
BRANCH   3   6
ATOM      6  C   UNL     1      93.976  85.754  85.577  1.00  0.00     0.151 C 
BRANCH   6   7
ATOM      7  C   UNL     1      93.737  86.377  86.907  1.00  0.00    -0.025 A 
ATOM      8  C   UNL     1      93.777  88.348  88.376  1.00  0.00     0.160 A 
ATOM      9  C   UNL     1      93.220  87.579  89.419  1.00  0.00     0.157 A 
ATOM     10  C   UNL     1      94.050  87.738  87.133  1.00  0.00     0.056 A 
ATOM     11  C   UNL     1      92.930  86.218  89.214  1.00  0.00     0.050 A 
ATOM     12  C   UNL     1      93.181  85.622  87.966  1.00  0.00     0.009 A 
BRANCH   8  13
ATOM     13  O   UNL     1      94.085  89.670  88.562  1.00  0.00    -0.493 OA
ATOM     14  C   UNL     1      95.333  90.067  87.960  1.00  0.00     0.278 C 
ENDBRANCH   8  13
BRANCH   9  15
ATOM     15  O   UNL     1      92.956  88.155  90.619  1.00  0.00    -0.504 OA
ATOM     16  H   UNL     1      92.020  88.363  90.675  1.00  0.00     0.293 HD
ENDBRANCH   9  15
ENDBRANCH   6   7
ENDBRANCH   3   6
ENDBRANCH   1   2
BRANCH   1  17
ATOM     17  C   UNL     1      93.994  81.387  84.926  1.00  0.00     0.010 C 
BRANCH  17  18
ATOM     18  C   UNL     1      94.667  80.104  84.366  1.00  0.00     0.001 C 
BRANCH  18  19
ATOM     19  C   UNL     1      93.857  78.810  84.647  1.00  0.00     0.000 C 
BRANCH  19  20
ATOM     20  C   UNL     1      92.401  79.115  85.102  1.00  0.00     0.003 C 
BRANCH  20  21
ATOM     21  C   UNL     1      91.310  78.919  83.999  1.00  0.00    -0.017 C 
ATOM     22  C   UNL     1      90.585  80.262  83.689  1.00  0.00     0.007 C 
ATOM     23  C   UNL     1      90.269  77.823  84.366  1.00  0.00     0.007 C 
ENDBRANCH  20  21
ENDBRANCH  19  20
ENDBRANCH  18  19
ENDBRANCH  17  18
ENDBRANCH   1  17
TORSDOF 10
ENDMDL
MODEL 10
REMARK VINA RESULT:    -5.313      2.879      5.222
REMARK INTER + INTRA:          -8.733
REMARK INTER:                  -7.395
REMARK INTRA:                  -1.339
REMARK UNBOUND:                -0.469
REMARK SMILES COc1cc(CNC(=O)CCCCCC(C)C)ccc1O
REMARK SMILES IDX 10 1 8 2 7 3 9 5 6 6 5 7 3 8 20 9 4 10 19 11 18 12 2 13 1 14
REMARK SMILES IDX 21 15 11 17 12 18 13 19 14 20 15 21 16 22 17 23
REMARK H PARENT 7 4 21 16
REMARK Flexibility Score: inf
ROOT
ATOM      1  C   UNL     1      93.136  85.009  86.951  1.00  0.00     0.100 C 
ENDROOT
BRANCH   1   2
ATOM      2  C   UNL     1      93.333  84.054  85.841  1.00  0.00     0.220 C 
ATOM      3  N   UNL     1      92.338  83.176  85.529  1.00  0.00    -0.352 N 
ATOM      4  H   UNL     1      91.569  83.155  86.182  1.00  0.00     0.163 HD
ATOM      5  O   UNL     1      94.399  84.100  85.180  1.00  0.00    -0.275 OA
BRANCH   3   6
ATOM      6  C   UNL     1      92.324  82.324  84.383  1.00  0.00     0.151 C 
BRANCH   6   7
ATOM      7  C   UNL     1      91.111  81.466  84.307  1.00  0.00    -0.025 A 
ATOM      8  C   UNL     1      90.076  79.237  84.240  1.00  0.00     0.160 A 
ATOM      9  C   UNL     1      88.797  79.833  84.230  1.00  0.00     0.157 A 
ATOM     10  C   UNL     1      91.224  80.057  84.260  1.00  0.00     0.056 A 
ATOM     11  C   UNL     1      88.673  81.234  84.250  1.00  0.00     0.050 A 
ATOM     12  C   UNL     1      89.820  82.045  84.294  1.00  0.00     0.009 A 
BRANCH   8  13
ATOM     13  O   UNL     1      90.219  77.875  84.201  1.00  0.00    -0.493 OA
ATOM     14  C   UNL     1      91.553  77.438  83.880  1.00  0.00     0.278 C 
ENDBRANCH   8  13
BRANCH   9  15
ATOM     15  O   UNL     1      87.687  79.054  84.210  1.00  0.00    -0.504 OA
ATOM     16  H   UNL     1      87.092  79.362  83.522  1.00  0.00     0.293 HD
ENDBRANCH   9  15
ENDBRANCH   6   7
ENDBRANCH   3   6
ENDBRANCH   1   2
BRANCH   1  17
ATOM     17  C   UNL     1      93.962  84.686  88.225  1.00  0.00     0.010 C 
BRANCH  17  18
ATOM     18  C   UNL     1      93.356  83.493  89.013  1.00  0.00     0.001 C 
BRANCH  18  19
ATOM     19  C   UNL     1      94.277  82.244  89.045  1.00  0.00     0.000 C 
BRANCH  19  20
ATOM     20  C   UNL     1      93.747  81.098  88.136  1.00  0.00     0.003 C 
BRANCH  20  21
ATOM     21  C   UNL     1      94.621  80.797  86.875  1.00  0.00    -0.017 C 
ATOM     22  C   UNL     1      94.769  79.263  86.656  1.00  0.00     0.007 C 
ATOM     23  C   UNL     1      96.025  81.466  86.940  1.00  0.00     0.007 C 
ENDBRANCH  20  21
ENDBRANCH  19  20
ENDBRANCH  18  19
ENDBRANCH  17  18
ENDBRANCH   1  17
TORSDOF 10
ENDMDL
