MODEL 1
REMARK VINA RESULT:    -6.240      0.000      0.000
REMARK INTER + INTRA:         -10.379
REMARK INTER:                  -9.705
REMARK INTRA:                  -0.674
REMARK UNBOUND:                -0.674
REMARK SMILES COc1cc(CNC(=O)CCCC/C=C/C(C)C)ccc1O
REMARK SMILES IDX 10 1 8 2 7 3 9 5 6 6 5 7 3 8 21 9 4 10 20 11 19 12 2 13 1 14
REMARK SMILES IDX 22 15 11 17 12 18 13 19 14 20 15 21 16 22 17 23 18 24
REMARK H PARENT 7 4 22 16
REMARK Flexibility Score: inf
ROOT
ATOM      1  C   UNL     1      92.170 101.355  74.098  1.00  0.00     0.100 C 
ENDROOT
BRANCH   1   2
ATOM      2  C   UNL     1      92.402 101.336  72.640  1.00  0.00     0.220 C 
ATOM      3  N   UNL     1      91.374 101.557  71.774  1.00  0.00    -0.352 N 
ATOM      4  H   UNL     1      90.474 101.705  72.208  1.00  0.00     0.163 HD
ATOM      5  O   UNL     1      93.570 101.134  72.229  1.00  0.00    -0.275 OA
BRANCH   3   6
ATOM      6  C   UNL     1      91.500 101.592  70.352  1.00  0.00     0.151 C 
BRANCH   6   7
ATOM      7  C   UNL     1      90.490 100.720  69.693  1.00  0.00    -0.025 A 
ATOM      8  C   UNL     1      89.120  98.674  69.691  1.00  0.00     0.160 A 
ATOM      9  C   UNL     1      88.550  99.056  68.459  1.00  0.00     0.157 A 
ATOM     10  C   UNL     1      90.085  99.507  70.294  1.00  0.00     0.056 A 
ATOM     11  C   UNL     1      88.957 100.253  67.838  1.00  0.00     0.050 A 
ATOM     12  C   UNL     1      89.912 101.084  68.454  1.00  0.00     0.009 A 
BRANCH   8  13
ATOM     13  O   UNL     1      88.776  97.477  70.267  1.00  0.00    -0.493 OA
ATOM     14  C   UNL     1      89.728  96.422  70.043  1.00  0.00     0.278 C 
ENDBRANCH   8  13
BRANCH   9  15
ATOM     15  O   UNL     1      87.608  98.283  67.858  1.00  0.00    -0.504 OA
ATOM     16  H   UNL     1      88.034  97.540  67.422  1.00  0.00     0.293 HD
ENDBRANCH   9  15
ENDBRANCH   6   7
ENDBRANCH   3   6
ENDBRANCH   1   2
BRANCH   1  17
ATOM     17  C   UNL     1      93.156 100.418  74.847  1.00  0.00     0.010 C 
BRANCH  17  18
ATOM     18  C   UNL     1      92.734  98.923  74.787  1.00  0.00     0.005 C 
BRANCH  18  19
ATOM     19  C   UNL     1      93.614  98.024  75.696  1.00  0.00     0.027 C 
BRANCH  19  20
ATOM     20  C   UNL     1      93.000  96.728  75.944  1.00  0.00    -0.031 C 
ATOM     21  C   UNL     1      92.074  96.500  76.893  1.00  0.00    -0.028 C 
BRANCH  21  22
ATOM     22  C   UNL     1      91.455  95.192  77.111  1.00  0.00     0.005 C 
ATOM     23  C   UNL     1      92.163  94.386  78.236  1.00  0.00     0.012 C 
ATOM     24  C   UNL     1      89.944  95.359  77.417  1.00  0.00     0.012 C 
ENDBRANCH  21  22
ENDBRANCH  19  20
ENDBRANCH  18  19
ENDBRANCH  17  18
ENDBRANCH   1  17
TORSDOF 10
ENDMDL
MODEL 2
REMARK VINA RESULT:    -6.107      3.799      8.657
REMARK INTER + INTRA:         -10.172
REMARK INTER:                  -9.420
REMARK INTRA:                  -0.752
REMARK UNBOUND:                -0.674
REMARK SMILES COc1cc(CNC(=O)CCCC/C=C/C(C)C)ccc1O
REMARK SMILES IDX 10 1 8 2 7 3 9 5 6 6 5 7 3 8 21 9 4 10 20 11 19 12 2 13 1 14
REMARK SMILES IDX 22 15 11 17 12 18 13 19 14 20 15 21 16 22 17 23 18 24
REMARK H PARENT 7 4 22 16
REMARK Flexibility Score: inf
ROOT
ATOM      1  C   UNL     1      92.959  99.680  74.034  1.00  0.00     0.100 C 
ENDROOT
BRANCH   1   2
ATOM      2  C   UNL     1      93.808  99.175  75.130  1.00  0.00     0.220 C 
ATOM      3  N   UNL     1      94.114  97.850  75.214  1.00  0.00    -0.352 N 
ATOM      4  H   UNL     1      93.700  97.271  74.496  1.00  0.00     0.163 HD
ATOM      5  O   UNL     1      94.254 100.002  75.963  1.00  0.00    -0.275 OA
BRANCH   3   6
ATOM      6  C   UNL     1      94.951  97.268  76.214  1.00  0.00     0.151 C 
BRANCH   6   7
ATOM      7  C   UNL     1      94.203  96.290  77.050  1.00  0.00    -0.025 A 
ATOM      8  C   UNL     1      93.817  95.208  79.228  1.00  0.00     0.160 A 
ATOM      9  C   UNL     1      92.775  94.443  78.664  1.00  0.00     0.157 A 
ATOM     10  C   UNL     1      94.522  96.121  78.416  1.00  0.00     0.056 A 
ATOM     11  C   UNL     1      92.459  94.585  77.298  1.00  0.00     0.050 A 
ATOM     12  C   UNL     1      93.161  95.509  76.499  1.00  0.00     0.009 A 
BRANCH   8  13
ATOM     13  O   UNL     1      94.172  95.025  80.540  1.00  0.00    -0.493 OA
ATOM     14  C   UNL     1      95.309  94.163  80.726  1.00  0.00     0.278 C 
ENDBRANCH   8  13
BRANCH   9  15
ATOM     15  O   UNL     1      92.068  93.564  79.421  1.00  0.00    -0.504 OA
ATOM     16  H   UNL     1      91.433  94.043  79.958  1.00  0.00     0.293 HD
ENDBRANCH   9  15
ENDBRANCH   6   7
ENDBRANCH   3   6
ENDBRANCH   1   2
BRANCH   1  17
ATOM     17  C   UNL     1      93.791  99.988  72.761  1.00  0.00     0.010 C 
BRANCH  17  18
ATOM     18  C   UNL     1      92.928 100.545  71.594  1.00  0.00     0.005 C 
BRANCH  18  19
ATOM     19  C   UNL     1      91.415 100.579  71.942  1.00  0.00     0.027 C 
BRANCH  19  20
ATOM     20  C   UNL     1      90.616  99.833  70.982  1.00  0.00    -0.031 C 
ATOM     21  C   UNL     1      89.905  98.731  71.285  1.00  0.00    -0.028 C 
BRANCH  21  22
ATOM     22  C   UNL     1      89.092  98.007  70.307  1.00  0.00     0.005 C 
ATOM     23  C   UNL     1      88.755  98.875  69.063  1.00  0.00     0.012 C 
ATOM     24  C   UNL     1      89.801  96.693  69.889  1.00  0.00     0.012 C 
ENDBRANCH  21  22
ENDBRANCH  19  20
ENDBRANCH  18  19
ENDBRANCH  17  18
ENDBRANCH   1  17
TORSDOF 10
ENDMDL
MODEL 3
REMARK VINA RESULT:    -6.019     18.383     21.584
REMARK INTER + INTRA:         -10.036
REMARK INTER:                  -9.111
REMARK INTRA:                  -0.925
REMARK UNBOUND:                -0.674
REMARK SMILES COc1cc(CNC(=O)CCCC/C=C/C(C)C)ccc1O
REMARK SMILES IDX 10 1 8 2 7 3 9 5 6 6 5 7 3 8 21 9 4 10 20 11 19 12 2 13 1 14
REMARK SMILES IDX 22 15 11 17 12 18 13 19 14 20 15 21 16 22 17 23 18 24
REMARK H PARENT 7 4 22 16
REMARK Flexibility Score: inf
ROOT
ATOM      1  C   UNL     1      99.703  81.370  81.034  1.00  0.00     0.100 C 
ENDROOT
BRANCH   1   2
ATOM      2  C   UNL     1      99.681  81.143  82.492  1.00  0.00     0.220 C 
ATOM      3  N   UNL     1      98.562  80.658  83.099  1.00  0.00    -0.352 N 
ATOM      4  H   UNL     1      97.777  80.500  82.482  1.00  0.00     0.163 HD
ATOM      5  O   UNL     1     100.724  81.387  83.145  1.00  0.00    -0.275 OA
BRANCH   3   6
ATOM      6  C   UNL     1      98.449  80.374  84.494  1.00  0.00     0.151 C 
BRANCH   6   7
ATOM      7  C   UNL     1      97.403  81.214  85.139  1.00  0.00    -0.025 A 
ATOM      8  C   UNL     1      96.283  83.391  85.399  1.00  0.00     0.160 A 
ATOM      9  C   UNL     1      95.404  82.826  86.346  1.00  0.00     0.157 A 
ATOM     10  C   UNL     1      97.275  82.582  84.807  1.00  0.00     0.056 A 
ATOM     11  C   UNL     1      95.532  81.469  86.702  1.00  0.00     0.050 A 
ATOM     12  C   UNL     1      96.518  80.666  86.096  1.00  0.00     0.009 A 
BRANCH   8  13
ATOM     13  O   UNL     1      96.204  84.727  85.099  1.00  0.00    -0.493 OA
ATOM     14  C   UNL     1      97.465  85.419  85.163  1.00  0.00     0.278 C 
ENDBRANCH   8  13
BRANCH   9  15
ATOM     15  O   UNL     1      94.429  83.575  86.925  1.00  0.00    -0.504 OA
ATOM     16  H   UNL     1      93.658  83.027  87.089  1.00  0.00     0.293 HD
ENDBRANCH   9  15
ENDBRANCH   6   7
ENDBRANCH   3   6
ENDBRANCH   1   2
BRANCH   1  17
ATOM     17  C   UNL     1      99.440  82.859  80.682  1.00  0.00     0.010 C 
BRANCH  17  18
ATOM     18  C   UNL     1      98.002  83.322  81.048  1.00  0.00     0.005 C 
BRANCH  18  19
ATOM     19  C   UNL     1      97.120  83.558  79.792  1.00  0.00     0.027 C 
BRANCH  19  20
ATOM     20  C   UNL     1      97.825  83.237  78.560  1.00  0.00    -0.031 C 
ATOM     21  C   UNL     1      97.670  83.908  77.404  1.00  0.00    -0.028 C 
BRANCH  21  22
ATOM     22  C   UNL     1      98.404  83.580  76.182  1.00  0.00     0.005 C 
ATOM     23  C   UNL     1      99.930  83.833  76.326  1.00  0.00     0.012 C 
ATOM     24  C   UNL     1      98.124  82.113  75.765  1.00  0.00     0.012 C 
ENDBRANCH  21  22
ENDBRANCH  19  20
ENDBRANCH  18  19
ENDBRANCH  17  18
ENDBRANCH   1  17
TORSDOF 10
ENDMDL
MODEL 4
REMARK VINA RESULT:    -5.920     17.460     20.359
REMARK INTER + INTRA:          -9.882
REMARK INTER:                  -8.329
REMARK INTRA:                  -1.553
REMARK UNBOUND:                -0.674
REMARK SMILES COc1cc(CNC(=O)CCCC/C=C/C(C)C)ccc1O
REMARK SMILES IDX 10 1 8 2 7 3 9 5 6 6 5 7 3 8 21 9 4 10 20 11 19 12 2 13 1 14
REMARK SMILES IDX 22 15 11 17 12 18 13 19 14 20 15 21 16 22 17 23 18 24
REMARK H PARENT 7 4 22 16
REMARK Flexibility Score: inf
ROOT
ATOM      1  C   UNL     1     103.139  81.414  80.820  1.00  0.00     0.100 C 
ENDROOT
BRANCH   1   2
ATOM      2  C   UNL     1     101.692  81.602  81.038  1.00  0.00     0.220 C 
ATOM      3  N   UNL     1     100.785  80.892  80.311  1.00  0.00    -0.352 N 
ATOM      4  H   UNL     1     101.184  80.270  79.621  1.00  0.00     0.163 HD
ATOM      5  O   UNL     1     101.327  82.413  81.924  1.00  0.00    -0.275 OA
BRANCH   3   6
ATOM      6  C   UNL     1      99.368  80.977  80.467  1.00  0.00     0.151 C 
BRANCH   6   7
ATOM      7  C   UNL     1      98.760  81.882  79.454  1.00  0.00    -0.025 A 
ATOM      8  C   UNL     1      98.399  82.506  77.099  1.00  0.00     0.160 A 
ATOM      9  C   UNL     1      97.593  83.588  77.509  1.00  0.00     0.157 A 
ATOM     10  C   UNL     1      98.976  81.665  78.074  1.00  0.00     0.056 A 
ATOM     11  C   UNL     1      97.384  83.828  78.881  1.00  0.00     0.050 A 
ATOM     12  C   UNL     1      97.955  82.977  79.847  1.00  0.00     0.009 A 
BRANCH   8  13
ATOM     13  O   UNL     1      98.659  82.306  75.767  1.00  0.00    -0.493 OA
ATOM     14  C   UNL     1      98.599  80.928  75.357  1.00  0.00     0.278 C 
ENDBRANCH   8  13
BRANCH   9  15
ATOM     15  O   UNL     1      97.012  84.408  76.595  1.00  0.00    -0.504 OA
ATOM     16  H   UNL     1      97.620  84.560  75.868  1.00  0.00     0.293 HD
ENDBRANCH   9  15
ENDBRANCH   6   7
ENDBRANCH   3   6
ENDBRANCH   1   2
BRANCH   1  17
ATOM     17  C   UNL     1     103.428  80.708  79.468  1.00  0.00     0.010 C 
BRANCH  17  18
ATOM     18  C   UNL     1     103.666  81.708  78.302  1.00  0.00     0.005 C 
BRANCH  18  19
ATOM     19  C   UNL     1     102.484  81.734  77.296  1.00  0.00     0.027 C 
BRANCH  19  20
ATOM     20  C   UNL     1     102.300  83.049  76.701  1.00  0.00    -0.031 C 
ATOM     21  C   UNL     1     102.006  83.259  75.405  1.00  0.00    -0.028 C 
BRANCH  21  22
ATOM     22  C   UNL     1     101.806  84.590  74.833  1.00  0.00     0.005 C 
ATOM     23  C   UNL     1     100.437  85.204  75.235  1.00  0.00     0.012 C 
ATOM     24  C   UNL     1     102.973  85.528  75.237  1.00  0.00     0.012 C 
ENDBRANCH  21  22
ENDBRANCH  19  20
ENDBRANCH  18  19
ENDBRANCH  17  18
ENDBRANCH   1  17
TORSDOF 10
ENDMDL
MODEL 5
REMARK VINA RESULT:    -5.771     16.162     18.667
REMARK INTER + INTRA:          -9.650
REMARK INTER:                  -8.794
REMARK INTRA:                  -0.856
REMARK UNBOUND:                -0.674
REMARK SMILES COc1cc(CNC(=O)CCCC/C=C/C(C)C)ccc1O
REMARK SMILES IDX 10 1 8 2 7 3 9 5 6 6 5 7 3 8 21 9 4 10 20 11 19 12 2 13 1 14
REMARK SMILES IDX 22 15 11 17 12 18 13 19 14 20 15 21 16 22 17 23 18 24
REMARK H PARENT 7 4 22 16
REMARK Flexibility Score: inf
ROOT
ATOM      1  C   UNL     1      74.669  91.124  72.000  1.00  0.00     0.100 C 
ENDROOT
BRANCH   1   2
ATOM      2  C   UNL     1      74.130  89.803  71.624  1.00  0.00     0.220 C 
ATOM      3  N   UNL     1      74.904  88.907  70.950  1.00  0.00    -0.352 N 
ATOM      4  H   UNL     1      75.834  89.232  70.723  1.00  0.00     0.163 HD
ATOM      5  O   UNL     1      72.954  89.525  71.961  1.00  0.00    -0.275 OA
BRANCH   3   6
ATOM      6  C   UNL     1      74.489  87.595  70.569  1.00  0.00     0.151 C 
BRANCH   6   7
ATOM      7  C   UNL     1      75.595  86.838  69.921  1.00  0.00    -0.025 A 
ATOM      8  C   UNL     1      76.419  84.791  68.829  1.00  0.00     0.160 A 
ATOM      9  C   UNL     1      77.687  85.388  68.665  1.00  0.00     0.157 A 
ATOM     10  C   UNL     1      75.387  85.520  69.456  1.00  0.00     0.056 A 
ATOM     11  C   UNL     1      77.914  86.694  69.141  1.00  0.00     0.050 A 
ATOM     12  C   UNL     1      76.874  87.418  69.756  1.00  0.00     0.009 A 
BRANCH   8  13
ATOM     13  O   UNL     1      76.212  83.496  68.426  1.00  0.00    -0.493 OA
ATOM     14  C   UNL     1      75.539  83.376  67.159  1.00  0.00     0.278 C 
ENDBRANCH   8  13
BRANCH   9  15
ATOM     15  O   UNL     1      78.698  84.719  68.054  1.00  0.00    -0.504 OA
ATOM     16  H   UNL     1      79.091  85.278  67.380  1.00  0.00     0.293 HD
ENDBRANCH   9  15
ENDBRANCH   6   7
ENDBRANCH   3   6
ENDBRANCH   1   2
BRANCH   1  17
ATOM     17  C   UNL     1      75.902  91.506  71.137  1.00  0.00     0.010 C 
BRANCH  17  18
ATOM     18  C   UNL     1      76.592  92.815  71.615  1.00  0.00     0.005 C 
BRANCH  18  19
ATOM     19  C   UNL     1      77.854  92.538  72.475  1.00  0.00     0.027 C 
BRANCH  19  20
ATOM     20  C   UNL     1      77.722  93.062  73.826  1.00  0.00    -0.031 C 
ATOM     21  C   UNL     1      76.580  93.038  74.538  1.00  0.00    -0.028 C 
BRANCH  21  22
ATOM     22  C   UNL     1      76.475  93.553  75.903  1.00  0.00     0.005 C 
ATOM     23  C   UNL     1      75.609  92.638  76.812  1.00  0.00     0.012 C 
ATOM     24  C   UNL     1      77.888  93.757  76.509  1.00  0.00     0.012 C 
ENDBRANCH  21  22
ENDBRANCH  19  20
ENDBRANCH  18  19
ENDBRANCH  17  18
ENDBRANCH   1  17
TORSDOF 10
ENDMDL
MODEL 6
REMARK VINA RESULT:    -5.736     19.201     21.714
REMARK INTER + INTRA:          -9.596
REMARK INTER:                  -8.889
REMARK INTRA:                  -0.707
REMARK UNBOUND:                -0.674
REMARK SMILES COc1cc(CNC(=O)CCCC/C=C/C(C)C)ccc1O
REMARK SMILES IDX 10 1 8 2 7 3 9 5 6 6 5 7 3 8 21 9 4 10 20 11 19 12 2 13 1 14
REMARK SMILES IDX 22 15 11 17 12 18 13 19 14 20 15 21 16 22 17 23 18 24
REMARK H PARENT 7 4 22 16
REMARK Flexibility Score: inf
ROOT
ATOM      1  C   UNL     1      97.652  83.818  86.490  1.00  0.00     0.100 C 
ENDROOT
BRANCH   1   2
ATOM      2  C   UNL     1      96.901  84.528  87.543  1.00  0.00     0.220 C 
ATOM      3  N   UNL     1      95.656  85.022  87.290  1.00  0.00    -0.352 N 
ATOM      4  H   UNL     1      95.325  84.881  86.346  1.00  0.00     0.163 HD
ATOM      5  O   UNL     1      97.430  84.641  88.675  1.00  0.00    -0.275 OA
BRANCH   3   6
ATOM      6  C   UNL     1      94.836  85.694  88.247  1.00  0.00     0.151 C 
BRANCH   6   7
ATOM      7  C   UNL     1      93.548  84.980  88.460  1.00  0.00    -0.025 A 
ATOM      8  C   UNL     1      91.853  83.369  87.687  1.00  0.00     0.160 A 
ATOM      9  C   UNL     1      91.103  83.596  88.860  1.00  0.00     0.157 A 
ATOM     10  C   UNL     1      93.066  84.065  87.498  1.00  0.00     0.056 A 
ATOM     11  C   UNL     1      91.560  84.520  89.819  1.00  0.00     0.050 A 
ATOM     12  C   UNL     1      92.778  85.201  89.626  1.00  0.00     0.009 A 
BRANCH   8  13
ATOM     13  O   UNL     1      91.379  82.520  86.720  1.00  0.00    -0.493 OA
ATOM     14  C   UNL     1      92.174  81.333  86.541  1.00  0.00     0.278 C 
ENDBRANCH   8  13
BRANCH   9  15
ATOM     15  O   UNL     1      89.938  82.933  89.079  1.00  0.00    -0.504 OA
ATOM     16  H   UNL     1      89.591  82.609  88.245  1.00  0.00     0.293 HD
ENDBRANCH   9  15
ENDBRANCH   6   7
ENDBRANCH   3   6
ENDBRANCH   1   2
BRANCH   1  17
ATOM     17  C   UNL     1      97.601  84.579  85.138  1.00  0.00     0.010 C 
BRANCH  17  18
ATOM     18  C   UNL     1      97.252  83.656  83.937  1.00  0.00     0.005 C 
BRANCH  18  19
ATOM     19  C   UNL     1      98.466  82.807  83.471  1.00  0.00     0.027 C 
BRANCH  19  20
ATOM     20  C   UNL     1      98.384  82.464  82.059  1.00  0.00    -0.031 C 
ATOM     21  C   UNL     1      98.705  83.303  81.058  1.00  0.00    -0.028 C 
BRANCH  21  22
ATOM     22  C   UNL     1      98.635  82.930  79.645  1.00  0.00     0.005 C 
ATOM     23  C   UNL     1      98.882  81.412  79.423  1.00  0.00     0.012 C 
ATOM     24  C   UNL     1      97.272  83.362  79.044  1.00  0.00     0.012 C 
ENDBRANCH  21  22
ENDBRANCH  19  20
ENDBRANCH  18  19
ENDBRANCH  17  18
ENDBRANCH   1  17
TORSDOF 10
ENDMDL
MODEL 7
REMARK VINA RESULT:    -5.725      1.608      2.567
REMARK INTER + INTRA:          -9.578
REMARK INTER:                  -8.743
REMARK INTRA:                  -0.835
REMARK UNBOUND:                -0.674
REMARK SMILES COc1cc(CNC(=O)CCCC/C=C/C(C)C)ccc1O
REMARK SMILES IDX 10 1 8 2 7 3 9 5 6 6 5 7 3 8 21 9 4 10 20 11 19 12 2 13 1 14
REMARK SMILES IDX 22 15 11 17 12 18 13 19 14 20 15 21 16 22 17 23 18 24
REMARK H PARENT 7 4 22 16
REMARK Flexibility Score: inf
ROOT
ATOM      1  C   UNL     1      93.163  99.692  75.102  1.00  0.00     0.100 C 
ENDROOT
BRANCH   1   2
ATOM      2  C   UNL     1      92.572 100.581  74.084  1.00  0.00     0.220 C 
ATOM      3  N   UNL     1      92.078 100.069  72.922  1.00  0.00    -0.352 N 
ATOM      4  H   UNL     1      92.175  99.068  72.822  1.00  0.00     0.163 HD
ATOM      5  O   UNL     1      92.518 101.810  74.331  1.00  0.00    -0.275 OA
BRANCH   3   6
ATOM      6  C   UNL     1      91.459 100.839  71.890  1.00  0.00     0.151 C 
BRANCH   6   7
ATOM      7  C   UNL     1      90.540 100.008  71.065  1.00  0.00    -0.025 A 
ATOM      8  C   UNL     1      89.267  99.667  68.985  1.00  0.00     0.160 A 
ATOM      9  C   UNL     1      88.804  98.426  69.471  1.00  0.00     0.157 A 
ATOM     10  C   UNL     1      90.128 100.446  69.787  1.00  0.00     0.056 A 
ATOM     11  C   UNL     1      89.191  97.985  70.752  1.00  0.00     0.050 A 
ATOM     12  C   UNL     1      90.060  98.765  71.540  1.00  0.00     0.009 A 
BRANCH   8  13
ATOM     13  O   UNL     1      88.841 100.131  67.767  1.00  0.00    -0.493 OA
ATOM     14  C   UNL     1      89.828 100.899  67.054  1.00  0.00     0.278 C 
ENDBRANCH   8  13
BRANCH   9  15
ATOM     15  O   UNL     1      87.986  97.646  68.719  1.00  0.00    -0.504 OA
ATOM     16  H   UNL     1      87.444  97.102  69.295  1.00  0.00     0.293 HD
ENDBRANCH   9  15
ENDBRANCH   6   7
ENDBRANCH   3   6
ENDBRANCH   1   2
BRANCH   1  17
ATOM     17  C   UNL     1      94.710  99.817  75.143  1.00  0.00     0.010 C 
BRANCH  17  18
ATOM     18  C   UNL     1      95.291  99.678  76.579  1.00  0.00     0.005 C 
BRANCH  18  19
ATOM     19  C   UNL     1      95.931  98.285  76.825  1.00  0.00     0.027 C 
BRANCH  19  20
ATOM     20  C   UNL     1      94.931  97.266  77.108  1.00  0.00    -0.031 C 
ATOM     21  C   UNL     1      94.561  96.308  76.239  1.00  0.00    -0.028 C 
BRANCH  21  22
ATOM     22  C   UNL     1      93.567  95.281  76.552  1.00  0.00     0.005 C 
ATOM     23  C   UNL     1      93.951  94.455  77.811  1.00  0.00     0.012 C 
ATOM     24  C   UNL     1      92.166  95.924  76.719  1.00  0.00     0.012 C 
ENDBRANCH  21  22
ENDBRANCH  19  20
ENDBRANCH  18  19
ENDBRANCH  17  18
ENDBRANCH   1  17
TORSDOF 10
ENDMDL
MODEL 8
REMARK VINA RESULT:    -5.646     17.448     20.616
REMARK INTER + INTRA:          -9.456
REMARK INTER:                  -8.314
REMARK INTRA:                  -1.142
REMARK UNBOUND:                -0.674
REMARK SMILES COc1cc(CNC(=O)CCCC/C=C/C(C)C)ccc1O
REMARK SMILES IDX 10 1 8 2 7 3 9 5 6 6 5 7 3 8 21 9 4 10 20 11 19 12 2 13 1 14
REMARK SMILES IDX 22 15 11 17 12 18 13 19 14 20 15 21 16 22 17 23 18 24
REMARK H PARENT 7 4 22 16
REMARK Flexibility Score: inf
ROOT
ATOM      1  C   UNL     1      99.300  79.192  82.148  1.00  0.00     0.100 C 
ENDROOT
BRANCH   1   2
ATOM      2  C   UNL     1      99.917  80.465  81.728  1.00  0.00     0.220 C 
ATOM      3  N   UNL     1     100.095  80.744  80.406  1.00  0.00    -0.352 N 
ATOM      4  H   UNL     1      99.798  80.014  79.772  1.00  0.00     0.163 HD
ATOM      5  O   UNL     1     100.249  81.284  82.618  1.00  0.00    -0.275 OA
BRANCH   3   6
ATOM      6  C   UNL     1     100.652  81.956  79.896  1.00  0.00     0.151 C 
BRANCH   6   7
ATOM      7  C   UNL     1      99.688  82.673  79.018  1.00  0.00    -0.025 A 
ATOM      8  C   UNL     1      99.121  83.648  76.829  1.00  0.00     0.160 A 
ATOM      9  C   UNL     1      97.854  84.023  77.323  1.00  0.00     0.157 A 
ATOM     10  C   UNL     1     100.025  82.979  77.680  1.00  0.00     0.056 A 
ATOM     11  C   UNL     1      97.511  83.741  78.660  1.00  0.00     0.050 A 
ATOM     12  C   UNL     1      98.416  83.063  79.499  1.00  0.00     0.009 A 
BRANCH   8  13
ATOM     13  O   UNL     1      99.484  83.978  75.548  1.00  0.00    -0.493 OA
ATOM     14  C   UNL     1     100.340  85.132  75.460  1.00  0.00     0.278 C 
ENDBRANCH   8  13
BRANCH   9  15
ATOM     15  O   UNL     1      96.955  84.656  76.526  1.00  0.00    -0.504 OA
ATOM     16  H   UNL     1      96.216  84.961  77.056  1.00  0.00     0.293 HD
ENDBRANCH   9  15
ENDBRANCH   6   7
ENDBRANCH   3   6
ENDBRANCH   1   2
BRANCH   1  17
ATOM     17  C   UNL     1      99.540  78.909  83.655  1.00  0.00     0.010 C 
BRANCH  17  18
ATOM     18  C   UNL     1      98.220  78.793  84.467  1.00  0.00     0.005 C 
BRANCH  18  19
ATOM     19  C   UNL     1      98.207  79.724  85.710  1.00  0.00     0.027 C 
BRANCH  19  20
ATOM     20  C   UNL     1      98.368  81.124  85.347  1.00  0.00    -0.031 C 
ATOM     21  C   UNL     1      97.381  81.897  84.859  1.00  0.00    -0.028 C 
BRANCH  21  22
ATOM     22  C   UNL     1      97.560  83.308  84.519  1.00  0.00     0.005 C 
ATOM     23  C   UNL     1      97.663  83.536  82.985  1.00  0.00     0.012 C 
ATOM     24  C   UNL     1      96.414  84.157  85.128  1.00  0.00     0.012 C 
ENDBRANCH  21  22
ENDBRANCH  19  20
ENDBRANCH  18  19
ENDBRANCH  17  18
ENDBRANCH   1  17
TORSDOF 10
ENDMDL
MODEL 9
REMARK VINA RESULT:    -5.630     18.072     20.578
REMARK INTER + INTRA:          -9.431
REMARK INTER:                  -8.535
REMARK INTRA:                  -0.897
REMARK UNBOUND:                -0.674
REMARK SMILES COc1cc(CNC(=O)CCCC/C=C/C(C)C)ccc1O
REMARK SMILES IDX 10 1 8 2 7 3 9 5 6 6 5 7 3 8 21 9 4 10 20 11 19 12 2 13 1 14
REMARK SMILES IDX 22 15 11 17 12 18 13 19 14 20 15 21 16 22 17 23 18 24
REMARK H PARENT 7 4 22 16
REMARK Flexibility Score: inf
ROOT
ATOM      1  C   UNL     1      97.837  80.790  84.285  1.00  0.00     0.100 C 
ENDROOT
BRANCH   1   2
ATOM      2  C   UNL     1      98.593  81.847  83.586  1.00  0.00     0.220 C 
ATOM      3  N   UNL     1      99.117  81.619  82.349  1.00  0.00    -0.352 N 
ATOM      4  H   UNL     1      98.965  80.689  81.986  1.00  0.00     0.163 HD
ATOM      5  O   UNL     1      98.715  82.961  84.152  1.00  0.00    -0.275 OA
BRANCH   3   6
ATOM      6  C   UNL     1      99.835  82.583  81.578  1.00  0.00     0.151 C 
BRANCH   6   7
ATOM      7  C   UNL     1      99.098  82.950  80.338  1.00  0.00    -0.025 A 
ATOM      8  C   UNL     1      99.079  83.322  77.904  1.00  0.00     0.160 A 
ATOM      9  C   UNL     1      97.703  83.627  77.961  1.00  0.00     0.157 A 
ATOM     10  C   UNL     1      99.763  82.989  79.092  1.00  0.00     0.056 A 
ATOM     11  C   UNL     1      97.031  83.611  79.199  1.00  0.00     0.050 A 
ATOM     12  C   UNL     1      97.720  83.265  80.378  1.00  0.00     0.009 A 
BRANCH   8  13
ATOM     13  O   UNL     1      99.752  83.401  76.712  1.00  0.00    -0.493 OA
ATOM     14  C   UNL     1     100.746  82.376  76.530  1.00  0.00     0.278 C 
ENDBRANCH   8  13
BRANCH   9  15
ATOM     15  O   UNL     1      97.012  83.939  76.834  1.00  0.00    -0.504 OA
ATOM     16  H   UNL     1      96.125  84.223  77.070  1.00  0.00     0.293 HD
ENDBRANCH   9  15
ENDBRANCH   6   7
ENDBRANCH   3   6
ENDBRANCH   1   2
BRANCH   1  17
ATOM     17  C   UNL     1      98.443  80.480  85.680  1.00  0.00     0.010 C 
BRANCH  17  18
ATOM     18  C   UNL     1      97.364  80.153  86.750  1.00  0.00     0.005 C 
BRANCH  18  19
ATOM     19  C   UNL     1      96.061  80.972  86.544  1.00  0.00     0.027 C 
BRANCH  19  20
ATOM     20  C   UNL     1      96.205  82.351  86.987  1.00  0.00    -0.031 C 
ATOM     21  C   UNL     1      95.787  83.419  86.283  1.00  0.00    -0.028 C 
BRANCH  21  22
ATOM     22  C   UNL     1      95.924  84.795  86.757  1.00  0.00     0.005 C 
ATOM     23  C   UNL     1      94.585  85.367  87.300  1.00  0.00     0.012 C 
ATOM     24  C   UNL     1      97.040  84.884  87.831  1.00  0.00     0.012 C 
ENDBRANCH  21  22
ENDBRANCH  19  20
ENDBRANCH  18  19
ENDBRANCH  17  18
ENDBRANCH   1  17
TORSDOF 10
ENDMDL
MODEL 10
REMARK VINA RESULT:    -5.569      5.050     10.191
REMARK INTER + INTRA:          -9.336
REMARK INTER:                  -8.843
REMARK INTRA:                  -0.493
REMARK UNBOUND:                -0.674
REMARK SMILES COc1cc(CNC(=O)CCCC/C=C/C(C)C)ccc1O
REMARK SMILES IDX 10 1 8 2 7 3 9 5 6 6 5 7 3 8 21 9 4 10 20 11 19 12 2 13 1 14
REMARK SMILES IDX 22 15 11 17 12 18 13 19 14 20 15 21 16 22 17 23 18 24
REMARK H PARENT 7 4 22 16
REMARK Flexibility Score: inf
ROOT
ATOM      1  C   UNL     1      94.524  98.550  75.139  1.00  0.00     0.100 C 
ENDROOT
BRANCH   1   2
ATOM      2  C   UNL     1      95.016  98.653  76.526  1.00  0.00     0.220 C 
ATOM      3  N   UNL     1      95.345  97.532  77.227  1.00  0.00    -0.352 N 
ATOM      4  H   UNL     1      95.201  96.662  76.734  1.00  0.00     0.163 HD
ATOM      5  O   UNL     1      95.144  99.797  77.026  1.00  0.00    -0.275 OA
BRANCH   3   6
ATOM      6  C   UNL     1      95.859  97.526  78.560  1.00  0.00     0.151 C 
BRANCH   6   7
ATOM      7  C   UNL     1      95.484  96.281  79.284  1.00  0.00    -0.025 A 
ATOM      8  C   UNL     1      95.499  94.929  81.342  1.00  0.00     0.160 A 
ATOM      9  C   UNL     1      94.759  93.923  80.687  1.00  0.00     0.157 A 
ATOM     10  C   UNL     1      95.856  96.096  80.635  1.00  0.00     0.056 A 
ATOM     11  C   UNL     1      94.397  94.084  79.335  1.00  0.00     0.050 A 
ATOM     12  C   UNL     1      94.748  95.259  78.641  1.00  0.00     0.009 A 
BRANCH   8  13
ATOM     13  O   UNL     1      95.910  94.747  82.638  1.00  0.00    -0.493 OA
ATOM     14  C   UNL     1      97.252  95.196  82.897  1.00  0.00     0.278 C 
ENDBRANCH   8  13
BRANCH   9  15
ATOM     15  O   UNL     1      94.388  92.793  81.343  1.00  0.00    -0.504 OA
ATOM     16  H   UNL     1      94.898  92.049  81.014  1.00  0.00     0.293 HD
ENDBRANCH   9  15
ENDBRANCH   6   7
ENDBRANCH   3   6
ENDBRANCH   1   2
BRANCH   1  17
ATOM     17  C   UNL     1      93.478  99.652  74.820  1.00  0.00     0.010 C 
BRANCH  17  18
ATOM     18  C   UNL     1      93.382  99.974  73.302  1.00  0.00     0.005 C 
BRANCH  18  19
ATOM     19  C   UNL     1      91.981 100.508  72.898  1.00  0.00     0.027 C 
BRANCH  19  20
ATOM     20  C   UNL     1      91.515  99.928  71.647  1.00  0.00    -0.031 C 
ATOM     21  C   UNL     1      90.457  99.103  71.545  1.00  0.00    -0.028 C 
BRANCH  21  22
ATOM     22  C   UNL     1      89.993  98.548  70.273  1.00  0.00     0.005 C 
ATOM     23  C   UNL     1      89.578  97.056  70.399  1.00  0.00     0.012 C 
ATOM     24  C   UNL     1      88.827  99.401  69.709  1.00  0.00     0.012 C 
ENDBRANCH  21  22
ENDBRANCH  19  20
ENDBRANCH  18  19
ENDBRANCH  17  18
ENDBRANCH   1  17
TORSDOF 10
ENDMDL
