MODEL 1
REMARK VINA RESULT:    -6.229      0.000      0.000
REMARK INTER + INTRA:         -11.661
REMARK INTER:                 -10.417
REMARK INTRA:                  -1.244
REMARK UNBOUND:                -1.244
REMARK SMILES COc1cc(CNC(=O)CCCCCCCC(C)C)ccc1O
REMARK SMILES IDX 11 1 10 2 8 3 9 4 7 5 6 7 5 8 4 9 20 10 3 11 21 12 22 13
REMARK SMILES IDX 2 14 1 15 23 16 12 18 13 19 14 20 15 21 16 22 17 23 18 24
REMARK SMILES IDX 19 25
REMARK H PARENT 7 6 23 17
REMARK Flexibility Score: inf
ROOT
ATOM      1  C   UNL     1      95.833  94.476  75.087  1.00  0.00     0.010 C 
ENDROOT
BRANCH   1   2
ATOM      2  C   UNL     1      95.060  93.928  76.285  1.00  0.00     0.100 C 
BRANCH   2   3
ATOM      3  C   UNL     1      93.557  93.942  76.060  1.00  0.00     0.220 C 
ATOM      4  O   UNL     1      93.029  94.429  75.065  1.00  0.00    -0.275 OA
ATOM      5  N   UNL     1      92.879  93.348  77.114  1.00  0.00    -0.352 N 
ATOM      6  H   UNL     1      93.402  92.981  77.905  1.00  0.00     0.163 HD
BRANCH   5   7
ATOM      7  C   UNL     1      91.439  93.237  77.156  1.00  0.00     0.151 C 
BRANCH   7   8
ATOM      8  C   UNL     1      90.983  91.810  77.064  1.00  0.00    -0.025 A 
ATOM      9  C   UNL     1      91.177  91.102  75.884  1.00  0.00     0.056 A 
ATOM     10  C   UNL     1      90.371  91.212  78.159  1.00  0.00     0.009 A 
ATOM     11  C   UNL     1      90.753  89.775  75.798  1.00  0.00     0.160 A 
ATOM     12  C   UNL     1      89.947  89.886  78.072  1.00  0.00     0.050 A 
ATOM     13  C   UNL     1      90.137  89.167  76.892  1.00  0.00     0.157 A 
BRANCH  11  14
ATOM     14  O   UNL     1      90.944  89.084  74.640  1.00  0.00    -0.493 OA
ATOM     15  C   UNL     1      90.242  89.545  73.487  1.00  0.00     0.278 C 
ENDBRANCH  11  14
BRANCH  13  16
ATOM     16  O   UNL     1      89.719  87.873  76.821  1.00  0.00    -0.504 OA
ATOM     17  H   UNL     1      90.425  87.334  76.423  1.00  0.00     0.293 HD
ENDBRANCH  13  16
ENDBRANCH   7   8
ENDBRANCH   5   7
ENDBRANCH   2   3
ENDBRANCH   1   2
BRANCH   1  18
ATOM     18  C   UNL     1      96.350  95.902  75.295  1.00  0.00     0.001 C 
BRANCH  18  19
ATOM     19  C   UNL     1      96.525  96.339  76.753  1.00  0.00     0.000 C 
BRANCH  19  20
ATOM     20  C   UNL     1      97.881  95.944  77.344  1.00  0.00     0.000 C 
BRANCH  20  21
ATOM     21  C   UNL     1      98.017  96.279  78.834  1.00  0.00     0.000 C 
BRANCH  21  22
ATOM     22  C   UNL     1      96.692  96.682  79.489  1.00  0.00     0.003 C 
BRANCH  22  23
ATOM     23  C   UNL     1      96.156  95.634  80.485  1.00  0.00    -0.017 C 
ATOM     24  C   UNL     1      97.326  94.870  81.110  1.00  0.00     0.007 C 
ATOM     25  C   UNL     1      95.187  94.648  79.833  1.00  0.00     0.007 C 
ENDBRANCH  22  23
ENDBRANCH  21  22
ENDBRANCH  20  21
ENDBRANCH  19  20
ENDBRANCH  18  19
ENDBRANCH   1  18
TORSDOF 12
ENDMDL
MODEL 2
REMARK VINA RESULT:    -6.014      1.696      2.285
REMARK INTER + INTRA:         -11.302
REMARK INTER:                 -10.221
REMARK INTRA:                  -1.081
REMARK UNBOUND:                -1.244
REMARK SMILES COc1cc(CNC(=O)CCCCCCCC(C)C)ccc1O
REMARK SMILES IDX 11 1 10 2 8 3 9 4 7 5 6 7 5 8 4 9 20 10 3 11 21 12 22 13
REMARK SMILES IDX 2 14 1 15 23 16 12 18 13 19 14 20 15 21 16 22 17 23 18 24
REMARK SMILES IDX 19 25
REMARK H PARENT 7 6 23 17
REMARK Flexibility Score: inf
ROOT
ATOM      1  C   UNL     1      95.996  94.062  76.181  1.00  0.00     0.010 C 
ENDROOT
BRANCH   1   2
ATOM      2  C   UNL     1      94.890  94.019  75.129  1.00  0.00     0.100 C 
BRANCH   2   3
ATOM      3  C   UNL     1      93.503  94.122  75.742  1.00  0.00     0.220 C 
ATOM      4  O   UNL     1      92.792  95.118  75.636  1.00  0.00    -0.275 OA
ATOM      5  N   UNL     1      93.162  92.967  76.429  1.00  0.00    -0.352 N 
ATOM      6  H   UNL     1      93.822  92.195  76.472  1.00  0.00     0.163 HD
BRANCH   5   7
ATOM      7  C   UNL     1      91.899  92.806  77.112  1.00  0.00     0.151 C 
BRANCH   7   8
ATOM      8  C   UNL     1      90.929  91.985  76.314  1.00  0.00    -0.025 A 
ATOM      9  C   UNL     1      90.597  92.376  75.022  1.00  0.00     0.056 A 
ATOM     10  C   UNL     1      90.372  90.842  76.875  1.00  0.00     0.009 A 
ATOM     11  C   UNL     1      89.696  91.613  74.280  1.00  0.00     0.160 A 
ATOM     12  C   UNL     1      89.469  90.080  76.132  1.00  0.00     0.050 A 
ATOM     13  C   UNL     1      89.131  90.465  74.835  1.00  0.00     0.157 A 
BRANCH  11  14
ATOM     14  O   UNL     1      89.372  92.000  73.014  1.00  0.00    -0.493 OA
ATOM     15  C   UNL     1      90.331  91.735  71.991  1.00  0.00     0.278 C 
ENDBRANCH  11  14
BRANCH  13  16
ATOM     16  O   UNL     1      88.250  89.712  74.121  1.00  0.00    -0.504 OA
ATOM     17  H   UNL     1      88.116  88.863  74.577  1.00  0.00     0.293 HD
ENDBRANCH  13  16
ENDBRANCH   7   8
ENDBRANCH   5   7
ENDBRANCH   2   3
ENDBRANCH   1   2
BRANCH   1  18
ATOM     18  C   UNL     1      96.103  95.410  76.899  1.00  0.00     0.001 C 
BRANCH  18  19
ATOM     19  C   UNL     1      96.447  95.344  78.390  1.00  0.00     0.000 C 
BRANCH  19  20
ATOM     20  C   UNL     1      95.939  94.070  79.072  1.00  0.00     0.000 C 
BRANCH  20  21
ATOM     21  C   UNL     1      95.587  94.269  80.551  1.00  0.00     0.000 C 
BRANCH  21  22
ATOM     22  C   UNL     1      95.237  95.719  80.901  1.00  0.00     0.003 C 
BRANCH  22  23
ATOM     23  C   UNL     1      96.157  96.331  81.975  1.00  0.00    -0.017 C 
ATOM     24  C   UNL     1      96.316  97.833  81.726  1.00  0.00     0.007 C 
ATOM     25  C   UNL     1      97.535  95.668  82.014  1.00  0.00     0.007 C 
ENDBRANCH  22  23
ENDBRANCH  21  22
ENDBRANCH  20  21
ENDBRANCH  19  20
ENDBRANCH  18  19
ENDBRANCH   1  18
TORSDOF 12
ENDMDL
MODEL 3
REMARK VINA RESULT:    -5.696      2.156      3.959
REMARK INTER + INTRA:         -10.770
REMARK INTER:                  -9.669
REMARK INTRA:                  -1.102
REMARK UNBOUND:                -1.244
REMARK SMILES COc1cc(CNC(=O)CCCCCCCC(C)C)ccc1O
REMARK SMILES IDX 11 1 10 2 8 3 9 4 7 5 6 7 5 8 4 9 20 10 3 11 21 12 22 13
REMARK SMILES IDX 2 14 1 15 23 16 12 18 13 19 14 20 15 21 16 22 17 23 18 24
REMARK SMILES IDX 19 25
REMARK H PARENT 7 6 23 17
REMARK Flexibility Score: inf
ROOT
ATOM      1  C   UNL     1      94.687  93.818  78.000  1.00  0.00     0.010 C 
ENDROOT
BRANCH   1   2
ATOM      2  C   UNL     1      93.848  94.307  76.821  1.00  0.00     0.100 C 
BRANCH   2   3
ATOM      3  C   UNL     1      92.434  93.751  76.848  1.00  0.00     0.220 C 
ATOM      4  O   UNL     1      92.058  92.905  77.654  1.00  0.00    -0.275 OA
ATOM      5  N   UNL     1      91.647  94.313  75.854  1.00  0.00    -0.352 N 
ATOM      6  H   UNL     1      92.049  95.000  75.223  1.00  0.00     0.163 HD
BRANCH   5   7
ATOM      7  C   UNL     1      90.262  93.952  75.654  1.00  0.00     0.151 C 
BRANCH   7   8
ATOM      8  C   UNL     1      90.093  92.972  74.530  1.00  0.00    -0.025 A 
ATOM      9  C   UNL     1      89.990  91.615  74.811  1.00  0.00     0.056 A 
ATOM     10  C   UNL     1      90.042  93.431  73.220  1.00  0.00     0.009 A 
ATOM     11  C   UNL     1      89.834  90.704  73.766  1.00  0.00     0.160 A 
ATOM     12  C   UNL     1      89.887  92.520  72.175  1.00  0.00     0.050 A 
ATOM     13  C   UNL     1      89.783  91.156  72.448  1.00  0.00     0.157 A 
BRANCH  11  14
ATOM     14  O   UNL     1      89.734  89.374  74.046  1.00  0.00    -0.493 OA
ATOM     15  C   UNL     1      90.948  88.679  74.330  1.00  0.00     0.278 C 
ENDBRANCH  11  14
BRANCH  13  16
ATOM     16  O   UNL     1      89.630  90.277  71.419  1.00  0.00    -0.504 OA
ATOM     17  H   UNL     1      90.082  89.445  71.644  1.00  0.00     0.293 HD
ENDBRANCH  13  16
ENDBRANCH   7   8
ENDBRANCH   5   7
ENDBRANCH   2   3
ENDBRANCH   1   2
BRANCH   1  18
ATOM     18  C   UNL     1      95.176  94.947  78.911  1.00  0.00     0.001 C 
BRANCH  18  19
ATOM     19  C   UNL     1      96.379  95.743  78.395  1.00  0.00     0.000 C 
BRANCH  19  20
ATOM     20  C   UNL     1      97.103  95.060  77.231  1.00  0.00     0.000 C 
BRANCH  20  21
ATOM     21  C   UNL     1      97.247  95.954  75.994  1.00  0.00     0.000 C 
BRANCH  21  22
ATOM     22  C   UNL     1      96.334  97.184  76.025  1.00  0.00     0.003 C 
BRANCH  22  23
ATOM     23  C   UNL     1      95.725  97.532  74.652  1.00  0.00    -0.017 C 
ATOM     24  C   UNL     1      95.434  99.033  74.581  1.00  0.00     0.007 C 
ATOM     25  C   UNL     1      94.446  96.746  74.362  1.00  0.00     0.007 C 
ENDBRANCH  22  23
ENDBRANCH  21  22
ENDBRANCH  20  21
ENDBRANCH  19  20
ENDBRANCH  18  19
ENDBRANCH   1  18
TORSDOF 12
ENDMDL
MODEL 4
REMARK VINA RESULT:    -5.483     27.712     30.365
REMARK INTER + INTRA:         -10.414
REMARK INTER:                  -9.591
REMARK INTRA:                  -0.823
REMARK UNBOUND:                -1.244
REMARK SMILES COc1cc(CNC(=O)CCCCCCCC(C)C)ccc1O
REMARK SMILES IDX 11 1 10 2 8 3 9 4 7 5 6 7 5 8 4 9 20 10 3 11 21 12 22 13
REMARK SMILES IDX 2 14 1 15 23 16 12 18 13 19 14 20 15 21 16 22 17 23 18 24
REMARK SMILES IDX 19 25
REMARK H PARENT 7 6 23 17
REMARK Flexibility Score: inf
ROOT
ATOM      1  C   UNL     1      64.339  85.640  76.379  1.00  0.00     0.010 C 
ENDROOT
BRANCH   1   2
ATOM      2  C   UNL     1      64.655  86.501  77.600  1.00  0.00     0.100 C 
BRANCH   2   3
ATOM      3  C   UNL     1      66.073  86.292  78.104  1.00  0.00     0.220 C 
ATOM      4  O   UNL     1      67.070  86.526  77.427  1.00  0.00    -0.275 OA
ATOM      5  N   UNL     1      66.085  85.804  79.403  1.00  0.00    -0.352 N 
ATOM      6  H   UNL     1      65.206  85.630  79.882  1.00  0.00     0.163 HD
BRANCH   5   7
ATOM      7  C   UNL     1      67.306  85.510  80.117  1.00  0.00     0.151 C 
BRANCH   7   8
ATOM      8  C   UNL     1      67.179  85.794  81.586  1.00  0.00    -0.025 A 
ATOM      9  C   UNL     1      67.186  84.741  82.493  1.00  0.00     0.056 A 
ATOM     10  C   UNL     1      67.056  87.107  82.023  1.00  0.00     0.009 A 
ATOM     11  C   UNL     1      67.068  85.005  83.857  1.00  0.00     0.160 A 
ATOM     12  C   UNL     1      66.937  87.370  83.389  1.00  0.00     0.050 A 
ATOM     13  C   UNL     1      66.943  86.320  84.306  1.00  0.00     0.157 A 
BRANCH  11  14
ATOM     14  O   UNL     1      67.075  83.970  84.743  1.00  0.00    -0.493 OA
ATOM     15  C   UNL     1      65.838  83.291  84.956  1.00  0.00     0.278 C 
ENDBRANCH  11  14
BRANCH  13  16
ATOM     16  O   UNL     1      66.827  86.590  85.635  1.00  0.00    -0.504 OA
ATOM     17  H   UNL     1      66.036  87.137  85.780  1.00  0.00     0.293 HD
ENDBRANCH  13  16
ENDBRANCH   7   8
ENDBRANCH   5   7
ENDBRANCH   2   3
ENDBRANCH   1   2
BRANCH   1  18
ATOM     18  C   UNL     1      62.945  85.006  76.424  1.00  0.00     0.001 C 
BRANCH  18  19
ATOM     19  C   UNL     1      62.559  84.164  75.204  1.00  0.00     0.000 C 
BRANCH  19  20
ATOM     20  C   UNL     1      62.432  82.670  75.515  1.00  0.00     0.000 C 
BRANCH  20  21
ATOM     21  C   UNL     1      63.774  81.994  75.817  1.00  0.00     0.000 C 
BRANCH  21  22
ATOM     22  C   UNL     1      64.691  81.892  74.593  1.00  0.00     0.003 C 
BRANCH  22  23
ATOM     23  C   UNL     1      64.386  80.675  73.698  1.00  0.00    -0.017 C 
ATOM     24  C   UNL     1      65.678  79.904  73.415  1.00  0.00     0.007 C 
ATOM     25  C   UNL     1      63.725  81.071  72.377  1.00  0.00     0.007 C 
ENDBRANCH  22  23
ENDBRANCH  21  22
ENDBRANCH  20  21
ENDBRANCH  19  20
ENDBRANCH  18  19
ENDBRANCH   1  18
TORSDOF 12
ENDMDL
MODEL 5
REMARK VINA RESULT:    -5.475     25.692     28.892
REMARK INTER + INTRA:         -10.401
REMARK INTER:                  -8.628
REMARK INTRA:                  -1.773
REMARK UNBOUND:                -1.244
REMARK SMILES COc1cc(CNC(=O)CCCCCCCC(C)C)ccc1O
REMARK SMILES IDX 11 1 10 2 8 3 9 4 7 5 6 7 5 8 4 9 20 10 3 11 21 12 22 13
REMARK SMILES IDX 2 14 1 15 23 16 12 18 13 19 14 20 15 21 16 22 17 23 18 24
REMARK SMILES IDX 19 25
REMARK H PARENT 7 6 23 17
REMARK Flexibility Score: inf
ROOT
ATOM      1  C   UNL     1      80.308  64.855  73.336  1.00  0.00     0.010 C 
ENDROOT
BRANCH   1   2
ATOM      2  C   UNL     1      81.064  63.870  74.226  1.00  0.00     0.100 C 
BRANCH   2   3
ATOM      3  C   UNL     1      82.546  64.194  74.320  1.00  0.00     0.220 C 
ATOM      4  O   UNL     1      83.239  64.466  73.344  1.00  0.00    -0.275 OA
ATOM      5  N   UNL     1      82.998  64.135  75.630  1.00  0.00    -0.352 N 
ATOM      6  H   UNL     1      82.350  63.890  76.374  1.00  0.00     0.163 HD
BRANCH   5   7
ATOM      7  C   UNL     1      84.372  64.393  75.996  1.00  0.00     0.151 C 
BRANCH   7   8
ATOM      8  C   UNL     1      84.608  65.843  76.303  1.00  0.00    -0.025 A 
ATOM      9  C   UNL     1      85.906  66.340  76.321  1.00  0.00     0.056 A 
ATOM     10  C   UNL     1      83.526  66.675  76.567  1.00  0.00     0.009 A 
ATOM     11  C   UNL     1      86.125  67.688  76.607  1.00  0.00     0.160 A 
ATOM     12  C   UNL     1      83.746  68.023  76.853  1.00  0.00     0.050 A 
ATOM     13  C   UNL     1      85.045  68.530  76.873  1.00  0.00     0.157 A 
BRANCH  11  14
ATOM     14  O   UNL     1      87.399  68.171  76.624  1.00  0.00    -0.493 OA
ATOM     15  C   UNL     1      88.125  68.040  77.845  1.00  0.00     0.278 C 
ENDBRANCH  11  14
BRANCH  13  16
ATOM     16  O   UNL     1      85.246  69.847  77.152  1.00  0.00    -0.504 OA
ATOM     17  H   UNL     1      85.427  70.322  76.323  1.00  0.00     0.293 HD
ENDBRANCH  13  16
ENDBRANCH   7   8
ENDBRANCH   5   7
ENDBRANCH   2   3
ENDBRANCH   1   2
BRANCH   1  18
ATOM     18  C   UNL     1      80.362  66.299  73.842  1.00  0.00     0.001 C 
BRANCH  18  19
ATOM     19  C   UNL     1      80.412  67.381  72.758  1.00  0.00     0.000 C 
BRANCH  19  20
ATOM     20  C   UNL     1      80.699  66.824  71.360  1.00  0.00     0.000 C 
BRANCH  20  21
ATOM     21  C   UNL     1      82.149  67.031  70.908  1.00  0.00     0.000 C 
BRANCH  21  22
ATOM     22  C   UNL     1      82.623  68.482  71.036  1.00  0.00     0.003 C 
BRANCH  22  23
ATOM     23  C   UNL     1      84.010  68.619  71.696  1.00  0.00    -0.017 C 
ATOM     24  C   UNL     1      83.941  68.141  73.148  1.00  0.00     0.007 C 
ATOM     25  C   UNL     1      84.542  70.052  71.650  1.00  0.00     0.007 C 
ENDBRANCH  22  23
ENDBRANCH  21  22
ENDBRANCH  20  21
ENDBRANCH  19  20
ENDBRANCH  18  19
ENDBRANCH   1  18
TORSDOF 12
ENDMDL
MODEL 6
REMARK VINA RESULT:    -5.405     17.167     20.453
REMARK INTER + INTRA:         -10.283
REMARK INTER:                  -9.523
REMARK INTRA:                  -0.760
REMARK UNBOUND:                -1.244
REMARK SMILES COc1cc(CNC(=O)CCCCCCCC(C)C)ccc1O
REMARK SMILES IDX 11 1 10 2 8 3 9 4 7 5 6 7 5 8 4 9 20 10 3 11 21 12 22 13
REMARK SMILES IDX 2 14 1 15 23 16 12 18 13 19 14 20 15 21 16 22 17 23 18 24
REMARK SMILES IDX 19 25
REMARK H PARENT 7 6 23 17
REMARK Flexibility Score: inf
ROOT
ATOM      1  C   UNL     1      76.863  90.778  64.775  1.00  0.00     0.010 C 
ENDROOT
BRANCH   1   2
ATOM      2  C   UNL     1      77.203  91.823  63.714  1.00  0.00     0.100 C 
BRANCH   2   3
ATOM      3  C   UNL     1      76.868  93.235  64.165  1.00  0.00     0.220 C 
ATOM      4  O   UNL     1      76.847  94.198  63.404  1.00  0.00    -0.275 OA
ATOM      5  N   UNL     1      76.604  93.287  65.526  1.00  0.00    -0.352 N 
ATOM      6  H   UNL     1      76.657  92.436  66.080  1.00  0.00     0.163 HD
BRANCH   5   7
ATOM      7  C   UNL     1      76.267  94.512  66.212  1.00  0.00     0.151 C 
BRANCH   7   8
ATOM      8  C   UNL     1      77.373  94.971  67.117  1.00  0.00    -0.025 A 
ATOM      9  C   UNL     1      77.123  95.152  68.472  1.00  0.00     0.056 A 
ATOM     10  C   UNL     1      78.636  95.212  66.590  1.00  0.00     0.009 A 
ATOM     11  C   UNL     1      78.151  95.579  69.313  1.00  0.00     0.160 A 
ATOM     12  C   UNL     1      79.664  95.640  67.431  1.00  0.00     0.050 A 
ATOM     13  C   UNL     1      79.422  95.823  68.792  1.00  0.00     0.157 A 
BRANCH  11  14
ATOM     14  O   UNL     1      77.902  95.755  70.641  1.00  0.00    -0.493 OA
ATOM     15  C   UNL     1      77.584  94.589  71.400  1.00  0.00     0.278 C 
ENDBRANCH  11  14
BRANCH  13  16
ATOM     16  O   UNL     1      80.434  96.240  69.603  1.00  0.00    -0.504 OA
ATOM     17  H   UNL     1      80.074  96.847  70.272  1.00  0.00     0.293 HD
ENDBRANCH  13  16
ENDBRANCH   7   8
ENDBRANCH   5   7
ENDBRANCH   2   3
ENDBRANCH   1   2
BRANCH   1  18
ATOM     18  C   UNL     1      77.689  89.494  64.654  1.00  0.00     0.001 C 
BRANCH  18  19
ATOM     19  C   UNL     1      77.170  88.293  65.453  1.00  0.00     0.000 C 
BRANCH  19  20
ATOM     20  C   UNL     1      78.131  87.839  66.555  1.00  0.00     0.000 C 
BRANCH  20  21
ATOM     21  C   UNL     1      78.353  86.323  66.584  1.00  0.00     0.000 C 
BRANCH  21  22
ATOM     22  C   UNL     1      77.949  85.677  67.914  1.00  0.00     0.003 C 
BRANCH  22  23
ATOM     23  C   UNL     1      77.106  84.398  67.744  1.00  0.00    -0.017 C 
ATOM     24  C   UNL     1      76.915  84.098  66.255  1.00  0.00     0.007 C 
ATOM     25  C   UNL     1      75.741  84.502  68.426  1.00  0.00     0.007 C 
ENDBRANCH  22  23
ENDBRANCH  21  22
ENDBRANCH  20  21
ENDBRANCH  19  20
ENDBRANCH  18  19
ENDBRANCH   1  18
TORSDOF 12
ENDMDL
MODEL 7
REMARK VINA RESULT:    -5.346     27.800     29.622
REMARK INTER + INTRA:         -10.183
REMARK INTER:                  -8.588
REMARK INTRA:                  -1.596
REMARK UNBOUND:                -1.244
REMARK SMILES COc1cc(CNC(=O)CCCCCCCC(C)C)ccc1O
REMARK SMILES IDX 11 1 10 2 8 3 9 4 7 5 6 7 5 8 4 9 20 10 3 11 21 12 22 13
REMARK SMILES IDX 2 14 1 15 23 16 12 18 13 19 14 20 15 21 16 22 17 23 18 24
REMARK SMILES IDX 19 25
REMARK H PARENT 7 6 23 17
REMARK Flexibility Score: inf
ROOT
ATOM      1  C   UNL     1      84.211  64.037  77.069  1.00  0.00     0.010 C 
ENDROOT
BRANCH   1   2
ATOM      2  C   UNL     1      84.786  65.451  77.116  1.00  0.00     0.100 C 
BRANCH   2   3
ATOM      3  C   UNL     1      83.761  66.506  76.732  1.00  0.00     0.220 C 
ATOM      4  O   UNL     1      83.987  67.712  76.778  1.00  0.00    -0.275 OA
ATOM      5  N   UNL     1      82.562  65.932  76.340  1.00  0.00    -0.352 N 
ATOM      6  H   UNL     1      82.464  64.920  76.344  1.00  0.00     0.163 HD
BRANCH   5   7
ATOM      7  C   UNL     1      81.416  66.712  75.932  1.00  0.00     0.151 C 
BRANCH   7   8
ATOM      8  C   UNL     1      81.074  66.493  74.487  1.00  0.00    -0.025 A 
ATOM      9  C   UNL     1      81.469  67.428  73.537  1.00  0.00     0.056 A 
ATOM     10  C   UNL     1      80.365  65.358  74.113  1.00  0.00     0.009 A 
ATOM     11  C   UNL     1      81.150  67.225  72.195  1.00  0.00     0.160 A 
ATOM     12  C   UNL     1      80.046  65.155  72.770  1.00  0.00     0.050 A 
ATOM     13  C   UNL     1      80.438  66.088  71.810  1.00  0.00     0.157 A 
BRANCH  11  14
ATOM     14  O   UNL     1      81.538  68.144  71.267  1.00  0.00    -0.493 OA
ATOM     15  C   UNL     1      82.937  68.401  71.156  1.00  0.00     0.278 C 
ENDBRANCH  11  14
BRANCH  13  16
ATOM     16  O   UNL     1      80.122  65.878  70.503  1.00  0.00    -0.504 OA
ATOM     17  H   UNL     1      80.358  64.966  70.262  1.00  0.00     0.293 HD
ENDBRANCH  13  16
ENDBRANCH   7   8
ENDBRANCH   5   7
ENDBRANCH   2   3
ENDBRANCH   1   2
BRANCH   1  18
ATOM     18  C   UNL     1      85.281  62.943  77.040  1.00  0.00     0.001 C 
BRANCH  18  19
ATOM     19  C   UNL     1      86.663  63.379  76.542  1.00  0.00     0.000 C 
BRANCH  19  20
ATOM     20  C   UNL     1      87.790  63.066  77.531  1.00  0.00     0.000 C 
BRANCH  20  21
ATOM     21  C   UNL     1      87.865  64.053  78.701  1.00  0.00     0.000 C 
BRANCH  21  22
ATOM     22  C   UNL     1      87.460  63.434  80.043  1.00  0.00     0.003 C 
BRANCH  22  23
ATOM     23  C   UNL     1      86.437  64.280  80.825  1.00  0.00    -0.017 C 
ATOM     24  C   UNL     1      85.064  63.605  80.777  1.00  0.00     0.007 C 
ATOM     25  C   UNL     1      86.326  65.709  80.290  1.00  0.00     0.007 C 
ENDBRANCH  22  23
ENDBRANCH  21  22
ENDBRANCH  20  21
ENDBRANCH  19  20
ENDBRANCH  18  19
ENDBRANCH   1  18
TORSDOF 12
ENDMDL
MODEL 8
REMARK VINA RESULT:    -5.324     18.444     21.060
REMARK INTER + INTRA:         -10.147
REMARK INTER:                  -8.889
REMARK INTRA:                  -1.258
REMARK UNBOUND:                -1.244
REMARK SMILES COc1cc(CNC(=O)CCCCCCCC(C)C)ccc1O
REMARK SMILES IDX 11 1 10 2 8 3 9 4 7 5 6 7 5 8 4 9 20 10 3 11 21 12 22 13
REMARK SMILES IDX 2 14 1 15 23 16 12 18 13 19 14 20 15 21 16 22 17 23 18 24
REMARK SMILES IDX 19 25
REMARK H PARENT 7 6 23 17
REMARK Flexibility Score: inf
ROOT
ATOM      1  C   UNL     1      76.898  89.332  65.885  1.00  0.00     0.010 C 
ENDROOT
BRANCH   1   2
ATOM      2  C   UNL     1      76.635  89.451  64.385  1.00  0.00     0.100 C 
BRANCH   2   3
ATOM      3  C   UNL     1      77.256  90.702  63.786  1.00  0.00     0.220 C 
ATOM      4  O   UNL     1      78.178  90.675  62.975  1.00  0.00    -0.275 OA
ATOM      5  N   UNL     1      76.657  91.853  64.276  1.00  0.00    -0.352 N 
ATOM      6  H   UNL     1      75.905  91.777  64.956  1.00  0.00     0.163 HD
BRANCH   5   7
ATOM      7  C   UNL     1      77.065  93.180  63.875  1.00  0.00     0.151 C 
BRANCH   7   8
ATOM      8  C   UNL     1      77.672  93.948  65.012  1.00  0.00    -0.025 A 
ATOM      9  C   UNL     1      76.922  94.192  66.156  1.00  0.00     0.056 A 
ATOM     10  C   UNL     1      78.979  94.408  64.909  1.00  0.00     0.009 A 
ATOM     11  C   UNL     1      77.486  94.906  67.212  1.00  0.00     0.160 A 
ATOM     12  C   UNL     1      79.544  95.123  65.966  1.00  0.00     0.050 A 
ATOM     13  C   UNL     1      78.798  95.373  67.118  1.00  0.00     0.157 A 
BRANCH  11  14
ATOM     14  O   UNL     1      76.747  95.144  68.332  1.00  0.00    -0.493 OA
ATOM     15  C   UNL     1      76.470  94.026  69.174  1.00  0.00     0.278 C 
ENDBRANCH  11  14
BRANCH  13  16
ATOM     16  O   UNL     1      79.361  96.071  68.143  1.00  0.00    -0.504 OA
ATOM     17  H   UNL     1      79.454  97.002  67.878  1.00  0.00     0.293 HD
ENDBRANCH  13  16
ENDBRANCH   7   8
ENDBRANCH   5   7
ENDBRANCH   2   3
ENDBRANCH   1   2
BRANCH   1  18
ATOM     18  C   UNL     1      77.990  88.317  66.234  1.00  0.00     0.001 C 
BRANCH  18  19
ATOM     19  C   UNL     1      77.941  86.995  65.460  1.00  0.00     0.000 C 
BRANCH  19  20
ATOM     20  C   UNL     1      78.380  85.789  66.295  1.00  0.00     0.000 C 
BRANCH  20  21
ATOM     21  C   UNL     1      77.863  85.825  67.737  1.00  0.00     0.000 C 
BRANCH  21  22
ATOM     22  C   UNL     1      76.939  84.652  68.080  1.00  0.00     0.003 C 
BRANCH  22  23
ATOM     23  C   UNL     1      75.448  84.949  67.822  1.00  0.00    -0.017 C 
ATOM     24  C   UNL     1      75.047  84.424  66.442  1.00  0.00     0.007 C 
ATOM     25  C   UNL     1      75.123  86.440  67.919  1.00  0.00     0.007 C 
ENDBRANCH  22  23
ENDBRANCH  21  22
ENDBRANCH  20  21
ENDBRANCH  19  20
ENDBRANCH  18  19
ENDBRANCH   1  18
TORSDOF 12
ENDMDL
MODEL 9
REMARK VINA RESULT:    -5.164      2.019      2.965
REMARK INTER + INTRA:          -9.879
REMARK INTER:                  -9.192
REMARK INTRA:                  -0.687
REMARK UNBOUND:                -1.244
REMARK SMILES COc1cc(CNC(=O)CCCCCCCC(C)C)ccc1O
REMARK SMILES IDX 11 1 10 2 8 3 9 4 7 5 6 7 5 8 4 9 20 10 3 11 21 12 22 13
REMARK SMILES IDX 2 14 1 15 23 16 12 18 13 19 14 20 15 21 16 22 17 23 18 24
REMARK SMILES IDX 19 25
REMARK H PARENT 7 6 23 17
REMARK Flexibility Score: inf
ROOT
ATOM      1  C   UNL     1      95.904  95.312  74.844  1.00  0.00     0.010 C 
ENDROOT
BRANCH   1   2
ATOM      2  C   UNL     1      95.233  94.099  75.485  1.00  0.00     0.100 C 
BRANCH   2   3
ATOM      3  C   UNL     1      93.721  94.130  75.340  1.00  0.00     0.220 C 
ATOM      4  O   UNL     1      93.040  95.120  75.594  1.00  0.00    -0.275 OA
ATOM      5  N   UNL     1      93.226  92.911  74.900  1.00  0.00    -0.352 N 
ATOM      6  H   UNL     1      93.868  92.142  74.726  1.00  0.00     0.163 HD
BRANCH   5   7
ATOM      7  C   UNL     1      91.818  92.669  74.687  1.00  0.00     0.151 C 
BRANCH   7   8
ATOM      8  C   UNL     1      91.229  91.801  75.761  1.00  0.00    -0.025 A 
ATOM      9  C   UNL     1      90.929  90.472  75.484  1.00  0.00     0.056 A 
ATOM     10  C   UNL     1      90.991  92.334  77.021  1.00  0.00     0.009 A 
ATOM     11  C   UNL     1      90.381  89.666  76.482  1.00  0.00     0.160 A 
ATOM     12  C   UNL     1      90.443  91.528  78.020  1.00  0.00     0.050 A 
ATOM     13  C   UNL     1      90.138  90.194  77.750  1.00  0.00     0.157 A 
BRANCH  11  14
ATOM     14  O   UNL     1      90.087  88.365  76.206  1.00  0.00    -0.493 OA
ATOM     15  C   UNL     1      89.379  88.103  74.995  1.00  0.00     0.278 C 
ENDBRANCH  11  14
BRANCH  13  16
ATOM     16  O   UNL     1      89.605  89.416  78.733  1.00  0.00    -0.504 OA
ATOM     17  H   UNL     1      89.932  89.727  79.595  1.00  0.00     0.293 HD
ENDBRANCH  13  16
ENDBRANCH   7   8
ENDBRANCH   5   7
ENDBRANCH   2   3
ENDBRANCH   1   2
BRANCH   1  18
ATOM     18  C   UNL     1      96.109  96.480  75.813  1.00  0.00     0.001 C 
BRANCH  18  19
ATOM     19  C   UNL     1      96.861  96.146  77.106  1.00  0.00     0.000 C 
BRANCH  19  20
ATOM     20  C   UNL     1      98.276  95.615  76.862  1.00  0.00     0.000 C 
BRANCH  20  21
ATOM     21  C   UNL     1      99.362  96.414  77.591  1.00  0.00     0.000 C 
BRANCH  21  22
ATOM     22  C   UNL     1     100.674  96.510  76.806  1.00  0.00     0.003 C 
BRANCH  22  23
ATOM     23  C   UNL     1     101.893  95.966  77.578  1.00  0.00    -0.017 C 
ATOM     24  C   UNL     1     101.448  95.448  78.948  1.00  0.00     0.007 C 
ATOM     25  C   UNL     1     102.989  97.016  77.758  1.00  0.00     0.007 C 
ENDBRANCH  22  23
ENDBRANCH  21  22
ENDBRANCH  20  21
ENDBRANCH  19  20
ENDBRANCH  18  19
ENDBRANCH   1  18
TORSDOF 12
ENDMDL
MODEL 10
REMARK VINA RESULT:    -5.065     28.164     30.844
REMARK INTER + INTRA:          -9.714
REMARK INTER:                  -8.676
REMARK INTRA:                  -1.037
REMARK UNBOUND:                -1.244
REMARK SMILES COc1cc(CNC(=O)CCCCCCCC(C)C)ccc1O
REMARK SMILES IDX 11 1 10 2 8 3 9 4 7 5 6 7 5 8 4 9 20 10 3 11 21 12 22 13
REMARK SMILES IDX 2 14 1 15 23 16 12 18 13 19 14 20 15 21 16 22 17 23 18 24
REMARK SMILES IDX 19 25
REMARK H PARENT 7 6 23 17
REMARK Flexibility Score: inf
ROOT
ATOM      1  C   UNL     1      62.108  86.032  74.873  1.00  0.00     0.010 C 
ENDROOT
BRANCH   1   2
ATOM      2  C   UNL     1      62.838  87.115  75.666  1.00  0.00     0.100 C 
BRANCH   2   3
ATOM      3  C   UNL     1      64.311  86.795  75.862  1.00  0.00     0.220 C 
ATOM      4  O   UNL     1      65.123  86.773  74.942  1.00  0.00    -0.275 OA
ATOM      5  N   UNL     1      64.602  86.529  77.192  1.00  0.00    -0.352 N 
ATOM      6  H   UNL     1      63.859  86.560  77.885  1.00  0.00     0.163 HD
BRANCH   5   7
ATOM      7  C   UNL     1      65.929  86.188  77.650  1.00  0.00     0.151 C 
BRANCH   7   8
ATOM      8  C   UNL     1      65.987  86.041  79.143  1.00  0.00    -0.025 A 
ATOM      9  C   UNL     1      64.930  86.498  79.920  1.00  0.00     0.056 A 
ATOM     10  C   UNL     1      67.097  85.448  79.732  1.00  0.00     0.009 A 
ATOM     11  C   UNL     1      64.985  86.361  81.308  1.00  0.00     0.160 A 
ATOM     12  C   UNL     1      67.152  85.312  81.119  1.00  0.00     0.050 A 
ATOM     13  C   UNL     1      66.096  85.768  81.907  1.00  0.00     0.157 A 
BRANCH  11  14
ATOM     14  O   UNL     1      63.947  86.812  82.067  1.00  0.00    -0.493 OA
ATOM     15  C   UNL     1      63.855  88.221  82.268  1.00  0.00     0.278 C 
ENDBRANCH  11  14
BRANCH  13  16
ATOM     16  O   UNL     1      66.160  85.628  83.261  1.00  0.00    -0.504 OA
ATOM     17  H   UNL     1      67.076  85.778  83.551  1.00  0.00     0.293 HD
ENDBRANCH  13  16
ENDBRANCH   7   8
ENDBRANCH   5   7
ENDBRANCH   2   3
ENDBRANCH   1   2
BRANCH   1  18
ATOM     18  C   UNL     1      61.970  84.709  75.631  1.00  0.00     0.001 C 
BRANCH  18  19
ATOM     19  C   UNL     1      62.286  83.445  74.824  1.00  0.00     0.000 C 
BRANCH  19  20
ATOM     20  C   UNL     1      62.610  82.233  75.701  1.00  0.00     0.000 C 
BRANCH  20  21
ATOM     21  C   UNL     1      64.106  81.907  75.764  1.00  0.00     0.000 C 
BRANCH  21  22
ATOM     22  C   UNL     1      64.871  82.323  74.503  1.00  0.00     0.003 C 
BRANCH  22  23
ATOM     23  C   UNL     1      65.618  81.157  73.825  1.00  0.00    -0.017 C 
ATOM     24  C   UNL     1      64.647  80.360  72.950  1.00  0.00     0.007 C 
ATOM     25  C   UNL     1      66.285  80.223  74.835  1.00  0.00     0.007 C 
ENDBRANCH  22  23
ENDBRANCH  21  22
ENDBRANCH  20  21
ENDBRANCH  19  20
ENDBRANCH  18  19
ENDBRANCH   1  18
TORSDOF 12
ENDMDL
