MODEL 1
REMARK VINA RESULT:    -6.979      0.000      0.000
REMARK INTER + INTRA:         -12.527
REMARK INTER:                 -11.467
REMARK INTRA:                  -1.060
REMARK UNBOUND:                -1.060
REMARK SMILES CCCCC[C@H](O)CC(=O)CCc1ccc(O)c(OC)c1
REMARK SMILES IDX 8 1 6 2 7 3 5 5 4 6 3 7 2 8 1 9 9 10 10 11 11 12 12 13 13 14
REMARK SMILES IDX 21 15 14 16 18 17 15 18 16 19 19 20 20 21 17 22
REMARK H PARENT 7 4 17 23
REMARK Flexibility Score: inf
ROOT
ATOM      1  C   UNL     1      92.124  94.556  77.059  1.00  0.00     0.107 C 
ENDROOT
BRANCH   1   2
ATOM      2  C   UNL     1      91.871  93.103  77.470  1.00  0.00     0.121 C 
BRANCH   2   3
ATOM      3  O   UNL     1      92.460  92.851  78.744  1.00  0.00    -0.393 OA
ATOM      4  H   UNL     1      91.846  92.292  79.250  1.00  0.00     0.210 HD
ENDBRANCH   2   3
BRANCH   2   5
ATOM      5  C   UNL     1      90.381  92.745  77.524  1.00  0.00     0.032 C 
BRANCH   5   6
ATOM      6  C   UNL     1      90.021  91.628  76.537  1.00  0.00     0.003 C 
BRANCH   6   7
ATOM      7  C   UNL     1      90.921  91.599  75.298  1.00  0.00    -0.000 C 
BRANCH   7   8
ATOM      8  C   UNL     1      90.471  90.597  74.237  1.00  0.00    -0.003 C 
ATOM      9  C   UNL     1      90.922  89.185  74.580  1.00  0.00     0.004 C 
ENDBRANCH   7   8
ENDBRANCH   6   7
ENDBRANCH   5   6
ENDBRANCH   2   5
ENDBRANCH   1   2
BRANCH   1  10
ATOM     10  C   UNL     1      93.363  94.724  76.196  1.00  0.00     0.135 C 
ATOM     11  O   UNL     1      93.600  93.946  75.271  1.00  0.00    -0.300 OA
BRANCH  10  12
ATOM     12  C   UNL     1      94.254  95.916  76.506  1.00  0.00     0.080 C 
BRANCH  12  13
ATOM     13  C   UNL     1      95.673  95.530  76.928  1.00  0.00     0.043 C 
BRANCH  13  14
ATOM     14  C   UNL     1      95.718  94.773  78.233  1.00  0.00    -0.044 A 
ATOM     15  C   UNL     1      95.596  95.458  79.442  1.00  0.00     0.054 A 
ATOM     16  C   UNL     1      95.880  93.387  78.230  1.00  0.00     0.008 A 
ATOM     17  C   UNL     1      95.636  94.757  80.648  1.00  0.00     0.160 A 
ATOM     18  C   UNL     1      95.920  92.686  79.435  1.00  0.00     0.050 A 
ATOM     19  C   UNL     1      95.798  93.371  80.644  1.00  0.00     0.157 A 
BRANCH  17  20
ATOM     20  O   UNL     1      95.518  95.437  81.822  1.00  0.00    -0.493 OA
ATOM     21  C   UNL     1      96.156  96.710  81.901  1.00  0.00     0.278 C 
ENDBRANCH  17  20
BRANCH  19  22
ATOM     22  O   UNL     1      95.839  92.675  81.814  1.00  0.00    -0.504 OA
ATOM     23  H   UNL     1      96.719  92.781  82.215  1.00  0.00     0.293 HD
ENDBRANCH  19  22
ENDBRANCH  13  14
ENDBRANCH  12  13
ENDBRANCH  10  12
ENDBRANCH   1  10
TORSDOF 12
ENDMDL
MODEL 2
REMARK VINA RESULT:    -5.997      2.121      6.892
REMARK INTER + INTRA:         -10.914
REMARK INTER:                  -9.918
REMARK INTRA:                  -0.996
REMARK UNBOUND:                -1.060
REMARK SMILES CCCCC[C@H](O)CC(=O)CCc1ccc(O)c(OC)c1
REMARK SMILES IDX 8 1 6 2 7 3 5 5 4 6 3 7 2 8 1 9 9 10 10 11 11 12 12 13 13 14
REMARK SMILES IDX 21 15 14 16 18 17 15 18 16 19 19 20 20 21 17 22
REMARK H PARENT 7 4 17 23
REMARK Flexibility Score: inf
ROOT
ATOM      1  C   UNL     1      94.486  94.164  78.277  1.00  0.00     0.107 C 
ENDROOT
BRANCH   1   2
ATOM      2  C   UNL     1      95.296  92.948  78.735  1.00  0.00     0.121 C 
BRANCH   2   3
ATOM      3  O   UNL     1      96.305  92.650  77.773  1.00  0.00    -0.393 OA
ATOM      4  H   UNL     1      96.910  91.998  78.169  1.00  0.00     0.210 HD
ENDBRANCH   2   3
BRANCH   2   5
ATOM      5  C   UNL     1      95.950  93.146  80.108  1.00  0.00     0.032 C 
BRANCH   5   6
ATOM      6  C   UNL     1      95.687  94.546  80.676  1.00  0.00     0.003 C 
BRANCH   6   7
ATOM      7  C   UNL     1      96.938  95.207  81.264  1.00  0.00    -0.000 C 
BRANCH   7   8
ATOM      8  C   UNL     1      98.220  94.877  80.502  1.00  0.00    -0.003 C 
ATOM      9  C   UNL     1      99.314  94.393  81.441  1.00  0.00     0.004 C 
ENDBRANCH   7   8
ENDBRANCH   6   7
ENDBRANCH   5   6
ENDBRANCH   2   5
ENDBRANCH   1   2
BRANCH   1  10
ATOM     10  C   UNL     1      95.128  94.903  77.114  1.00  0.00     0.135 C 
ATOM     11  O   UNL     1      96.170  95.541  77.268  1.00  0.00    -0.300 OA
BRANCH  10  12
ATOM     12  C   UNL     1      94.443  94.774  75.762  1.00  0.00     0.080 C 
BRANCH  12  13
ATOM     13  C   UNL     1      92.983  95.231  75.767  1.00  0.00     0.043 C 
BRANCH  13  14
ATOM     14  C   UNL     1      92.022  94.140  76.176  1.00  0.00    -0.044 A 
ATOM     15  C   UNL     1      92.040  92.911  75.517  1.00  0.00     0.054 A 
ATOM     16  C   UNL     1      91.117  94.362  77.214  1.00  0.00     0.008 A 
ATOM     17  C   UNL     1      91.153  91.903  75.897  1.00  0.00     0.160 A 
ATOM     18  C   UNL     1      90.230  93.355  77.594  1.00  0.00     0.050 A 
ATOM     19  C   UNL     1      90.248  92.125  76.935  1.00  0.00     0.157 A 
BRANCH  17  20
ATOM     20  O   UNL     1      91.180  90.707  75.245  1.00  0.00    -0.493 OA
ATOM     21  C   UNL     1      90.502  90.636  73.992  1.00  0.00     0.278 C 
ENDBRANCH  17  20
BRANCH  19  22
ATOM     22  O   UNL     1      89.377  91.150  77.315  1.00  0.00    -0.504 OA
ATOM     23  H   UNL     1      89.258  91.189  78.279  1.00  0.00     0.293 HD
ENDBRANCH  19  22
ENDBRANCH  13  14
ENDBRANCH  12  13
ENDBRANCH  10  12
ENDBRANCH   1  10
TORSDOF 12
ENDMDL
MODEL 3
REMARK VINA RESULT:    -5.924      1.867      7.656
REMARK INTER + INTRA:         -10.793
REMARK INTER:                  -9.848
REMARK INTRA:                  -0.946
REMARK UNBOUND:                -1.060
REMARK SMILES CCCCC[C@H](O)CC(=O)CCc1ccc(O)c(OC)c1
REMARK SMILES IDX 8 1 6 2 7 3 5 5 4 6 3 7 2 8 1 9 9 10 10 11 11 12 12 13 13 14
REMARK SMILES IDX 21 15 14 16 18 17 15 18 16 19 19 20 20 21 17 22
REMARK H PARENT 7 4 17 23
REMARK Flexibility Score: inf
ROOT
ATOM      1  C   UNL     1      96.654  94.277  80.309  1.00  0.00     0.107 C 
ENDROOT
BRANCH   1   2
ATOM      2  C   UNL     1      95.993  95.440  81.052  1.00  0.00     0.121 C 
BRANCH   2   3
ATOM      3  O   UNL     1      95.480  94.986  82.303  1.00  0.00    -0.393 OA
ATOM      4  H   UNL     1      95.253  94.045  82.207  1.00  0.00     0.210 HD
ENDBRANCH   2   3
BRANCH   2   5
ATOM      5  C   UNL     1      96.947  96.616  81.295  1.00  0.00     0.032 C 
BRANCH   5   6
ATOM      6  C   UNL     1      96.194  97.935  81.508  1.00  0.00     0.003 C 
BRANCH   6   7
ATOM      7  C   UNL     1      96.585  98.655  82.802  1.00  0.00    -0.000 C 
BRANCH   7   8
ATOM      8  C   UNL     1      96.561 100.178  82.687  1.00  0.00    -0.003 C 
ATOM      9  C   UNL     1      95.156 100.691  82.416  1.00  0.00     0.004 C 
ENDBRANCH   7   8
ENDBRANCH   6   7
ENDBRANCH   5   6
ENDBRANCH   2   5
ENDBRANCH   1   2
BRANCH   1  10
ATOM     10  C   UNL     1      95.658  93.230  79.835  1.00  0.00     0.135 C 
ATOM     11  O   UNL     1      94.821  92.759  80.605  1.00  0.00    -0.300 OA
BRANCH  10  12
ATOM     12  C   UNL     1      95.725  92.841  78.366  1.00  0.00     0.080 C 
BRANCH  12  13
ATOM     13  C   UNL     1      95.426  93.996  77.410  1.00  0.00     0.043 C 
BRANCH  13  14
ATOM     14  C   UNL     1      93.949  94.274  77.259  1.00  0.00    -0.044 A 
ATOM     15  C   UNL     1      93.044  93.215  77.185  1.00  0.00     0.054 A 
ATOM     16  C   UNL     1      93.490  95.590  77.195  1.00  0.00     0.008 A 
ATOM     17  C   UNL     1      91.680  93.472  77.047  1.00  0.00     0.160 A 
ATOM     18  C   UNL     1      92.126  95.847  77.057  1.00  0.00     0.050 A 
ATOM     19  C   UNL     1      91.221  94.788  76.983  1.00  0.00     0.157 A 
BRANCH  17  20
ATOM     20  O   UNL     1      90.806  92.430  76.976  1.00  0.00    -0.493 OA
ATOM     21  C   UNL     1      90.538  91.897  75.680  1.00  0.00     0.278 C 
ENDBRANCH  17  20
BRANCH  19  22
ATOM     22  O   UNL     1      89.892  95.052  76.848  1.00  0.00    -0.504 OA
ATOM     23  H   UNL     1      89.663  95.816  77.405  1.00  0.00     0.293 HD
ENDBRANCH  19  22
ENDBRANCH  13  14
ENDBRANCH  12  13
ENDBRANCH  10  12
ENDBRANCH   1  10
TORSDOF 12
ENDMDL
MODEL 4
REMARK VINA RESULT:    -5.856     20.612     24.834
REMARK INTER + INTRA:         -10.682
REMARK INTER:                  -9.514
REMARK INTRA:                  -1.168
REMARK UNBOUND:                -1.060
REMARK SMILES CCCCC[C@H](O)CC(=O)CCc1ccc(O)c(OC)c1
REMARK SMILES IDX 8 1 6 2 7 3 5 5 4 6 3 7 2 8 1 9 9 10 10 11 11 12 12 13 13 14
REMARK SMILES IDX 21 15 14 16 18 17 15 18 16 19 19 20 20 21 17 22
REMARK H PARENT 7 4 17 23
REMARK Flexibility Score: inf
ROOT
ATOM      1  C   UNL     1      76.039  84.484  67.671  1.00  0.00     0.107 C 
ENDROOT
BRANCH   1   2
ATOM      2  C   UNL     1      76.532  85.623  68.566  1.00  0.00     0.121 C 
BRANCH   2   3
ATOM      3  O   UNL     1      77.952  85.720  68.486  1.00  0.00    -0.393 OA
ATOM      4  H   UNL     1      78.314  84.817  68.490  1.00  0.00     0.210 HD
ENDBRANCH   2   3
BRANCH   2   5
ATOM      5  C   UNL     1      75.912  86.979  68.210  1.00  0.00     0.032 C 
BRANCH   5   6
ATOM      6  C   UNL     1      76.975  88.018  67.832  1.00  0.00     0.003 C 
BRANCH   6   7
ATOM      7  C   UNL     1      76.427  89.447  67.760  1.00  0.00    -0.000 C 
BRANCH   7   8
ATOM      8  C   UNL     1      75.125  89.643  68.533  1.00  0.00    -0.003 C 
ATOM      9  C   UNL     1      75.244  90.774  69.543  1.00  0.00     0.004 C 
ENDBRANCH   7   8
ENDBRANCH   6   7
ENDBRANCH   5   6
ENDBRANCH   2   5
ENDBRANCH   1   2
BRANCH   1  10
ATOM     10  C   UNL     1      76.967  84.202  66.500  1.00  0.00     0.135 C 
ATOM     11  O   UNL     1      77.951  83.474  66.634  1.00  0.00    -0.300 OA
BRANCH  10  12
ATOM     12  C   UNL     1      76.588  84.824  65.165  1.00  0.00     0.080 C 
BRANCH  12  13
ATOM     13  C   UNL     1      76.147  83.803  64.114  1.00  0.00     0.043 C 
BRANCH  13  14
ATOM     14  C   UNL     1      74.872  83.084  64.486  1.00  0.00    -0.044 A 
ATOM     15  C   UNL     1      73.644  83.735  64.367  1.00  0.00     0.054 A 
ATOM     16  C   UNL     1      74.922  81.769  64.949  1.00  0.00     0.008 A 
ATOM     17  C   UNL     1      72.466  83.070  64.710  1.00  0.00     0.160 A 
ATOM     18  C   UNL     1      73.745  81.104  65.292  1.00  0.00     0.050 A 
ATOM     19  C   UNL     1      72.517  81.755  65.173  1.00  0.00     0.157 A 
BRANCH  17  20
ATOM     20  O   UNL     1      71.273  83.716  64.590  1.00  0.00    -0.493 OA
ATOM     21  C   UNL     1      70.638  83.674  63.314  1.00  0.00     0.278 C 
ENDBRANCH  17  20
BRANCH  19  22
ATOM     22  O   UNL     1      71.375  81.095  65.511  1.00  0.00    -0.504 OA
ATOM     23  H   UNL     1      70.810  81.015  64.723  1.00  0.00     0.293 HD
ENDBRANCH  19  22
ENDBRANCH  13  14
ENDBRANCH  12  13
ENDBRANCH  10  12
ENDBRANCH   1  10
TORSDOF 12
ENDMDL
MODEL 5
REMARK VINA RESULT:    -5.757      2.338      7.169
REMARK INTER + INTRA:         -10.519
REMARK INTER:                  -9.183
REMARK INTRA:                  -1.336
REMARK UNBOUND:                -1.060
REMARK SMILES CCCCC[C@H](O)CC(=O)CCc1ccc(O)c(OC)c1
REMARK SMILES IDX 8 1 6 2 7 3 5 5 4 6 3 7 2 8 1 9 9 10 10 11 11 12 12 13 13 14
REMARK SMILES IDX 21 15 14 16 18 17 15 18 16 19 19 20 20 21 17 22
REMARK H PARENT 7 4 17 23
REMARK Flexibility Score: inf
ROOT
ATOM      1  C   UNL     1      97.252  94.475  79.816  1.00  0.00     0.107 C 
ENDROOT
BRANCH   1   2
ATOM      2  C   UNL     1      97.699  95.931  79.974  1.00  0.00     0.121 C 
BRANCH   2   3
ATOM      3  O   UNL     1      99.115  96.019  79.831  1.00  0.00    -0.393 OA
ATOM      4  H   UNL     1      99.517  95.734  80.670  1.00  0.00     0.210 HD
ENDBRANCH   2   3
BRANCH   2   5
ATOM      5  C   UNL     1      97.030  96.876  78.969  1.00  0.00     0.032 C 
BRANCH   5   6
ATOM      6  C   UNL     1      96.975  96.274  77.560  1.00  0.00     0.003 C 
BRANCH   6   7
ATOM      7  C   UNL     1      97.596  97.177  76.489  1.00  0.00    -0.000 C 
BRANCH   7   8
ATOM      8  C   UNL     1      99.117  97.070  76.406  1.00  0.00    -0.003 C 
ATOM      9  C   UNL     1      99.789  98.353  76.870  1.00  0.00     0.004 C 
ENDBRANCH   7   8
ENDBRANCH   6   7
ENDBRANCH   5   6
ENDBRANCH   2   5
ENDBRANCH   1   2
BRANCH   1  10
ATOM     10  C   UNL     1      95.918  94.186  80.486  1.00  0.00     0.135 C 
ATOM     11  O   UNL     1      95.578  94.787  81.505  1.00  0.00    -0.300 OA
BRANCH  10  12
ATOM     12  C   UNL     1      95.023  93.160  79.808  1.00  0.00     0.080 C 
BRANCH  12  13
ATOM     13  C   UNL     1      94.895  93.359  78.296  1.00  0.00     0.043 C 
BRANCH  13  14
ATOM     14  C   UNL     1      93.546  93.895  77.882  1.00  0.00    -0.044 A 
ATOM     15  C   UNL     1      92.429  93.059  77.894  1.00  0.00     0.054 A 
ATOM     16  C   UNL     1      93.416  95.227  77.486  1.00  0.00     0.008 A 
ATOM     17  C   UNL     1      91.183  93.556  77.511  1.00  0.00     0.160 A 
ATOM     18  C   UNL     1      92.170  95.723  77.104  1.00  0.00     0.050 A 
ATOM     19  C   UNL     1      91.054  94.887  77.116  1.00  0.00     0.157 A 
BRANCH  17  20
ATOM     20  O   UNL     1      90.099  92.730  77.527  1.00  0.00    -0.493 OA
ATOM     21  C   UNL     1      90.060  91.694  76.547  1.00  0.00     0.278 C 
ENDBRANCH  17  20
BRANCH  19  22
ATOM     22  O   UNL     1      89.842  95.384  76.740  1.00  0.00    -0.504 OA
ATOM     23  H   UNL     1      89.976  96.223  76.267  1.00  0.00     0.293 HD
ENDBRANCH  19  22
ENDBRANCH  13  14
ENDBRANCH  12  13
ENDBRANCH  10  12
ENDBRANCH   1  10
TORSDOF 12
ENDMDL
MODEL 6
REMARK VINA RESULT:    -5.612      2.940      5.725
REMARK INTER + INTRA:         -10.281
REMARK INTER:                  -8.896
REMARK INTRA:                  -1.385
REMARK UNBOUND:                -1.060
REMARK SMILES CCCCC[C@H](O)CC(=O)CCc1ccc(O)c(OC)c1
REMARK SMILES IDX 8 1 6 2 7 3 5 5 4 6 3 7 2 8 1 9 9 10 10 11 11 12 12 13 13 14
REMARK SMILES IDX 21 15 14 16 18 17 15 18 16 19 19 20 20 21 17 22
REMARK H PARENT 7 4 17 23
REMARK Flexibility Score: inf
ROOT
ATOM      1  C   UNL     1      94.664  94.730  78.989  1.00  0.00     0.107 C 
ENDROOT
BRANCH   1   2
ATOM      2  C   UNL     1      94.263  93.253  78.960  1.00  0.00     0.121 C 
BRANCH   2   3
ATOM      3  O   UNL     1      94.608  92.634  80.197  1.00  0.00    -0.393 OA
ATOM      4  H   UNL     1      95.301  93.174  80.617  1.00  0.00     0.210 HD
ENDBRANCH   2   3
BRANCH   2   5
ATOM      5  C   UNL     1      92.769  93.042  78.689  1.00  0.00     0.032 C 
BRANCH   5   6
ATOM      6  C   UNL     1      92.343  93.613  77.331  1.00  0.00     0.003 C 
BRANCH   6   7
ATOM      7  C   UNL     1      90.836  93.868  77.225  1.00  0.00    -0.000 C 
BRANCH   7   8
ATOM      8  C   UNL     1      90.485  95.290  76.791  1.00  0.00    -0.003 C 
ATOM      9  C   UNL     1      91.635  96.250  77.053  1.00  0.00     0.004 C 
ENDBRANCH   7   8
ENDBRANCH   6   7
ENDBRANCH   5   6
ENDBRANCH   2   5
ENDBRANCH   1   2
BRANCH   1  10
ATOM     10  C   UNL     1      96.165  94.943  78.871  1.00  0.00     0.135 C 
ATOM     11  O   UNL     1      96.953  94.023  79.090  1.00  0.00    -0.300 OA
BRANCH  10  12
ATOM     12  C   UNL     1      96.626  96.323  78.430  1.00  0.00     0.080 C 
BRANCH  12  13
ATOM     13  C   UNL     1      97.237  96.348  77.028  1.00  0.00     0.043 C 
BRANCH  13  14
ATOM     14  C   UNL     1      96.292  96.887  75.980  1.00  0.00    -0.044 A 
ATOM     15  C   UNL     1      96.546  98.120  75.379  1.00  0.00     0.054 A 
ATOM     16  C   UNL     1      95.165  96.151  75.613  1.00  0.00     0.008 A 
ATOM     17  C   UNL     1      95.673  98.616  74.410  1.00  0.00     0.160 A 
ATOM     18  C   UNL     1      94.292  96.647  74.645  1.00  0.00     0.050 A 
ATOM     19  C   UNL     1      94.546  97.880  74.044  1.00  0.00     0.157 A 
BRANCH  17  20
ATOM     20  O   UNL     1      95.931  99.822  73.831  1.00  0.00    -0.493 OA
ATOM     21  C   UNL     1      96.949  99.856  72.831  1.00  0.00     0.278 C 
ENDBRANCH  17  20
BRANCH  19  22
ATOM     22  O   UNL     1      93.686  98.354  73.099  1.00  0.00    -0.504 OA
ATOM     23  H   UNL     1      93.081  97.640  72.835  1.00  0.00     0.293 HD
ENDBRANCH  19  22
ENDBRANCH  13  14
ENDBRANCH  12  13
ENDBRANCH  10  12
ENDBRANCH   1  10
TORSDOF 12
ENDMDL
MODEL 7
REMARK VINA RESULT:    -5.534      3.617      6.397
REMARK INTER + INTRA:         -10.152
REMARK INTER:                  -9.290
REMARK INTRA:                  -0.862
REMARK UNBOUND:                -1.060
REMARK SMILES CCCCC[C@H](O)CC(=O)CCc1ccc(O)c(OC)c1
REMARK SMILES IDX 8 1 6 2 7 3 5 5 4 6 3 7 2 8 1 9 9 10 10 11 11 12 12 13 13 14
REMARK SMILES IDX 21 15 14 16 18 17 15 18 16 19 19 20 20 21 17 22
REMARK H PARENT 7 4 17 23
REMARK Flexibility Score: inf
ROOT
ATOM      1  C   UNL     1      92.125  93.284  75.798  1.00  0.00     0.107 C 
ENDROOT
BRANCH   1   2
ATOM      2  C   UNL     1      91.260  92.494  76.784  1.00  0.00     0.121 C 
BRANCH   2   3
ATOM      3  O   UNL     1      90.507  93.393  77.594  1.00  0.00    -0.393 OA
ATOM      4  H   UNL     1      90.931  94.267  77.541  1.00  0.00     0.210 HD
ENDBRANCH   2   3
BRANCH   2   5
ATOM      5  C   UNL     1      90.304  91.514  76.093  1.00  0.00     0.032 C 
BRANCH   5   6
ATOM      6  C   UNL     1      90.942  90.856  74.863  1.00  0.00     0.003 C 
BRANCH   6   7
ATOM      7  C   UNL     1      89.963  90.666  73.700  1.00  0.00    -0.000 C 
BRANCH   7   8
ATOM      8  C   UNL     1      89.081  91.885  73.437  1.00  0.00    -0.003 C 
ATOM      9  C   UNL     1      87.676  91.474  73.024  1.00  0.00     0.004 C 
ENDBRANCH   7   8
ENDBRANCH   6   7
ENDBRANCH   5   6
ENDBRANCH   2   5
ENDBRANCH   1   2
BRANCH   1  10
ATOM     10  C   UNL     1      92.936  94.383  76.465  1.00  0.00     0.135 C 
ATOM     11  O   UNL     1      93.508  94.186  77.536  1.00  0.00    -0.300 OA
BRANCH  10  12
ATOM     12  C   UNL     1      93.034  95.705  75.719  1.00  0.00     0.080 C 
BRANCH  12  13
ATOM     13  C   UNL     1      94.468  96.110  75.373  1.00  0.00     0.043 C 
BRANCH  13  14
ATOM     14  C   UNL     1      94.550  97.043  74.188  1.00  0.00    -0.044 A 
ATOM     15  C   UNL     1      95.565  96.885  73.244  1.00  0.00     0.054 A 
ATOM     16  C   UNL     1      93.610  98.062  74.037  1.00  0.00     0.008 A 
ATOM     17  C   UNL     1      95.639  97.746  72.149  1.00  0.00     0.160 A 
ATOM     18  C   UNL     1      93.683  98.924  72.942  1.00  0.00     0.050 A 
ATOM     19  C   UNL     1      94.698  98.766  71.999  1.00  0.00     0.157 A 
BRANCH  17  20
ATOM     20  O   UNL     1      96.635  97.583  71.234  1.00  0.00    -0.493 OA
ATOM     21  C   UNL     1      96.414  96.626  70.200  1.00  0.00     0.278 C 
ENDBRANCH  17  20
BRANCH  19  22
ATOM     22  O   UNL     1      94.760  99.613  70.934  1.00  0.00    -0.504 OA
ATOM     23  H   UNL     1      94.178  99.280  70.230  1.00  0.00     0.293 HD
ENDBRANCH  19  22
ENDBRANCH  13  14
ENDBRANCH  12  13
ENDBRANCH  10  12
ENDBRANCH   1  10
TORSDOF 12
ENDMDL
MODEL 8
REMARK VINA RESULT:    -5.501     20.853     23.157
REMARK INTER + INTRA:         -10.099
REMARK INTER:                  -8.033
REMARK INTRA:                  -2.066
REMARK UNBOUND:                -1.060
REMARK SMILES CCCCC[C@H](O)CC(=O)CCc1ccc(O)c(OC)c1
REMARK SMILES IDX 8 1 6 2 7 3 5 5 4 6 3 7 2 8 1 9 9 10 10 11 11 12 12 13 13 14
REMARK SMILES IDX 21 15 14 16 18 17 15 18 16 19 19 20 20 21 17 22
REMARK H PARENT 7 4 17 23
REMARK Flexibility Score: inf
ROOT
ATOM      1  C   UNL     1      72.498  89.255  68.113  1.00  0.00     0.107 C 
ENDROOT
BRANCH   1   2
ATOM      2  C   UNL     1      72.931  90.079  69.328  1.00  0.00     0.121 C 
BRANCH   2   3
ATOM      3  O   UNL     1      72.484  89.446  70.525  1.00  0.00    -0.393 OA
ATOM      4  H   UNL     1      72.276  88.520  70.312  1.00  0.00     0.210 HD
ENDBRANCH   2   3
BRANCH   2   5
ATOM      5  C   UNL     1      74.448  90.287  69.403  1.00  0.00     0.032 C 
BRANCH   5   6
ATOM      6  C   UNL     1      75.221  89.141  68.739  1.00  0.00     0.003 C 
BRANCH   6   7
ATOM      7  C   UNL     1      76.414  89.617  67.904  1.00  0.00    -0.000 C 
BRANCH   7   8
ATOM      8  C   UNL     1      77.306  88.481  67.407  1.00  0.00    -0.003 C 
ATOM      9  C   UNL     1      76.739  87.842  66.149  1.00  0.00     0.004 C 
ENDBRANCH   7   8
ENDBRANCH   6   7
ENDBRANCH   5   6
ENDBRANCH   2   5
ENDBRANCH   1   2
BRANCH   1  10
ATOM     10  C   UNL     1      71.834  87.941  68.490  1.00  0.00     0.135 C 
ATOM     11  O   UNL     1      70.764  87.924  69.098  1.00  0.00    -0.300 OA
BRANCH  10  12
ATOM     12  C   UNL     1      72.535  86.668  68.040  1.00  0.00     0.080 C 
BRANCH  12  13
ATOM     13  C   UNL     1      73.522  86.113  69.068  1.00  0.00     0.043 C 
BRANCH  13  14
ATOM     14  C   UNL     1      74.722  85.448  68.436  1.00  0.00    -0.044 A 
ATOM     15  C   UNL     1      74.623  84.896  67.159  1.00  0.00     0.054 A 
ATOM     16  C   UNL     1      75.931  85.386  69.131  1.00  0.00     0.008 A 
ATOM     17  C   UNL     1      75.732  84.282  66.577  1.00  0.00     0.160 A 
ATOM     18  C   UNL     1      77.040  84.773  68.549  1.00  0.00     0.050 A 
ATOM     19  C   UNL     1      76.941  84.221  67.272  1.00  0.00     0.157 A 
BRANCH  17  20
ATOM     20  O   UNL     1      75.623  83.746  65.329  1.00  0.00    -0.493 OA
ATOM     21  C   UNL     1      75.617  84.656  64.231  1.00  0.00     0.278 C 
ENDBRANCH  17  20
BRANCH  19  22
ATOM     22  O   UNL     1      78.030  83.625  66.713  1.00  0.00    -0.504 OA
ATOM     23  H   UNL     1      78.815  84.172  66.888  1.00  0.00     0.293 HD
ENDBRANCH  19  22
ENDBRANCH  13  14
ENDBRANCH  12  13
ENDBRANCH  10  12
ENDBRANCH   1  10
TORSDOF 12
ENDMDL
MODEL 9
REMARK VINA RESULT:    -5.481      3.811      6.416
REMARK INTER + INTRA:         -10.065
REMARK INTER:                  -9.230
REMARK INTRA:                  -0.834
REMARK UNBOUND:                -1.060
REMARK SMILES CCCCC[C@H](O)CC(=O)CCc1ccc(O)c(OC)c1
REMARK SMILES IDX 8 1 6 2 7 3 5 5 4 6 3 7 2 8 1 9 9 10 10 11 11 12 12 13 13 14
REMARK SMILES IDX 21 15 14 16 18 17 15 18 16 19 19 20 20 21 17 22
REMARK H PARENT 7 4 17 23
REMARK Flexibility Score: inf
ROOT
ATOM      1  C   UNL     1      93.701  94.917  77.654  1.00  0.00     0.107 C 
ENDROOT
BRANCH   1   2
ATOM      2  C   UNL     1      92.188  94.719  77.530  1.00  0.00     0.121 C 
BRANCH   2   3
ATOM      3  O   UNL     1      91.774  94.984  76.192  1.00  0.00    -0.393 OA
ATOM      4  H   UNL     1      92.496  95.459  75.745  1.00  0.00     0.210 HD
ENDBRANCH   2   3
BRANCH   2   5
ATOM      5  C   UNL     1      91.733  93.310  77.931  1.00  0.00     0.032 C 
BRANCH   5   6
ATOM      6  C   UNL     1      90.671  92.754  76.974  1.00  0.00     0.003 C 
BRANCH   6   7
ATOM      7  C   UNL     1      91.247  91.812  75.911  1.00  0.00    -0.000 C 
BRANCH   7   8
ATOM      8  C   UNL     1      90.190  91.219  74.982  1.00  0.00    -0.003 C 
ATOM      9  C   UNL     1      90.670  89.920  74.353  1.00  0.00     0.004 C 
ENDBRANCH   7   8
ENDBRANCH   6   7
ENDBRANCH   5   6
ENDBRANCH   2   5
ENDBRANCH   1   2
BRANCH   1  10
ATOM     10  C   UNL     1      94.434  94.743  76.333  1.00  0.00     0.135 C 
ATOM     11  O   UNL     1      94.388  93.678  75.719  1.00  0.00    -0.300 OA
BRANCH  10  12
ATOM     12  C   UNL     1      95.178  95.959  75.802  1.00  0.00     0.080 C 
BRANCH  12  13
ATOM     13  C   UNL     1      94.289  96.936  75.030  1.00  0.00     0.043 C 
BRANCH  13  14
ATOM     14  C   UNL     1      94.804  97.237  73.643  1.00  0.00    -0.044 A 
ATOM     15  C   UNL     1      94.424  98.414  72.998  1.00  0.00     0.054 A 
ATOM     16  C   UNL     1      95.661  96.338  73.008  1.00  0.00     0.008 A 
ATOM     17  C   UNL     1      94.902  98.691  71.717  1.00  0.00     0.160 A 
ATOM     18  C   UNL     1      96.139  96.616  71.727  1.00  0.00     0.050 A 
ATOM     19  C   UNL     1      95.759  97.792  71.081  1.00  0.00     0.157 A 
BRANCH  17  20
ATOM     20  O   UNL     1      94.523  99.843  71.096  1.00  0.00    -0.493 OA
ATOM     21  C   UNL     1      93.605 100.683  71.793  1.00  0.00     0.278 C 
ENDBRANCH  17  20
BRANCH  19  22
ATOM     22  O   UNL     1      96.232  98.052  69.831  1.00  0.00    -0.504 OA
ATOM     23  H   UNL     1      95.788  97.464  69.196  1.00  0.00     0.293 HD
ENDBRANCH  19  22
ENDBRANCH  13  14
ENDBRANCH  12  13
ENDBRANCH  10  12
ENDBRANCH   1  10
TORSDOF 12
ENDMDL
MODEL 10
REMARK VINA RESULT:    -5.407     11.859     13.474
REMARK INTER + INTRA:          -9.944
REMARK INTER:                  -8.989
REMARK INTRA:                  -0.956
REMARK UNBOUND:                -1.060
REMARK SMILES CCCCC[C@H](O)CC(=O)CCc1ccc(O)c(OC)c1
REMARK SMILES IDX 8 1 6 2 7 3 5 5 4 6 3 7 2 8 1 9 9 10 10 11 11 12 12 13 13 14
REMARK SMILES IDX 21 15 14 16 18 17 15 18 16 19 19 20 20 21 17 22
REMARK H PARENT 7 4 17 23
REMARK Flexibility Score: inf
ROOT
ATOM      1  C   UNL     1      97.563  82.049  76.315  1.00  0.00     0.107 C 
ENDROOT
BRANCH   1   2
ATOM      2  C   UNL     1      96.879  82.751  75.139  1.00  0.00     0.121 C 
BRANCH   2   3
ATOM      3  O   UNL     1      96.756  84.145  75.413  1.00  0.00    -0.393 OA
ATOM      4  H   UNL     1      97.418  84.613  74.875  1.00  0.00     0.210 HD
ENDBRANCH   2   3
BRANCH   2   5
ATOM      5  C   UNL     1      97.624  82.561  73.812  1.00  0.00     0.032 C 
BRANCH   5   6
ATOM      6  C   UNL     1      98.634  83.686  73.552  1.00  0.00     0.003 C 
BRANCH   6   7
ATOM      7  C   UNL     1     100.089  83.258  73.774  1.00  0.00    -0.000 C 
BRANCH   7   8
ATOM      8  C   UNL     1     100.303  81.748  73.683  1.00  0.00    -0.003 C 
ATOM      9  C   UNL     1     100.972  81.207  74.937  1.00  0.00     0.004 C 
ENDBRANCH   7   8
ENDBRANCH   6   7
ENDBRANCH   5   6
ENDBRANCH   2   5
ENDBRANCH   1   2
BRANCH   1  10
ATOM     10  C   UNL     1      96.752  82.112  77.599  1.00  0.00     0.135 C 
ATOM     11  O   UNL     1      95.711  82.766  77.658  1.00  0.00    -0.300 OA
BRANCH  10  12
ATOM     12  C   UNL     1      97.269  81.295  78.773  1.00  0.00     0.080 C 
BRANCH  12  13
ATOM     13  C   UNL     1      97.201  82.031  80.112  1.00  0.00     0.043 C 
BRANCH  13  14
ATOM     14  C   UNL     1      96.817  81.132  81.263  1.00  0.00    -0.044 A 
ATOM     15  C   UNL     1      96.272  81.679  82.425  1.00  0.00     0.054 A 
ATOM     16  C   UNL     1      97.007  79.753  81.164  1.00  0.00     0.008 A 
ATOM     17  C   UNL     1      95.917  80.848  83.487  1.00  0.00     0.160 A 
ATOM     18  C   UNL     1      96.652  78.922  82.226  1.00  0.00     0.050 A 
ATOM     19  C   UNL     1      96.108  79.469  83.388  1.00  0.00     0.157 A 
BRANCH  17  20
ATOM     20  O   UNL     1      95.386  81.394  84.616  1.00  0.00    -0.493 OA
ATOM     21  C   UNL     1      93.977  81.616  84.628  1.00  0.00     0.278 C 
ENDBRANCH  17  20
BRANCH  19  22
ATOM     22  O   UNL     1      95.765  78.647  84.418  1.00  0.00    -0.504 OA
ATOM     23  H   UNL     1      95.406  77.819  84.057  1.00  0.00     0.293 HD
ENDBRANCH  19  22
ENDBRANCH  13  14
ENDBRANCH  12  13
ENDBRANCH  10  12
ENDBRANCH   1  10
TORSDOF 12
ENDMDL
