MODEL 1
REMARK VINA RESULT:    -6.654      0.000      0.000
REMARK INTER + INTRA:         -12.432
REMARK INTER:                 -10.932
REMARK INTRA:                  -1.499
REMARK UNBOUND:                -1.499
REMARK SMILES CCCCC[C@H](O)CC(=O)CCc1ccc(O)c(OC)c1
REMARK SMILES IDX 8 1 6 2 7 3 5 5 4 6 3 7 2 8 1 9 9 10 10 11 11 12 12 13 13 14
REMARK SMILES IDX 21 15 14 16 18 17 15 18 16 19 19 20 20 21 17 22
REMARK H PARENT 7 4 17 23
REMARK Flexibility Score: inf
ROOT
ATOM      1  C   UNL     1      91.431  94.134  75.350  1.00  0.00     0.107 C 
ENDROOT
BRANCH   1   2
ATOM      2  C   UNL     1      91.631  93.266  74.105  1.00  0.00     0.121 C 
BRANCH   2   3
ATOM      3  O   UNL     1      92.837  92.516  74.227  1.00  0.00    -0.393 OA
ATOM      4  H   UNL     1      93.579  93.146  74.235  1.00  0.00     0.210 HD
ENDBRANCH   2   3
BRANCH   2   5
ATOM      5  C   UNL     1      90.463  92.306  73.849  1.00  0.00     0.032 C 
BRANCH   5   6
ATOM      6  C   UNL     1      90.556  91.639  72.471  1.00  0.00     0.003 C 
BRANCH   6   7
ATOM      7  C   UNL     1      89.690  90.382  72.346  1.00  0.00    -0.000 C 
BRANCH   7   8
ATOM      8  C   UNL     1      88.508  90.354  73.314  1.00  0.00    -0.003 C 
ATOM      9  C   UNL     1      87.195  90.619  72.594  1.00  0.00     0.004 C 
ENDBRANCH   7   8
ENDBRANCH   6   7
ENDBRANCH   5   6
ENDBRANCH   2   5
ENDBRANCH   1   2
BRANCH   1  10
ATOM     10  C   UNL     1      92.459  93.863  76.436  1.00  0.00     0.135 C 
ATOM     11  O   UNL     1      93.571  94.391  76.402  1.00  0.00    -0.300 OA
BRANCH  10  12
ATOM     12  C   UNL     1      92.025  92.952  77.574  1.00  0.00     0.080 C 
BRANCH  12  13
ATOM     13  C   UNL     1      90.535  92.609  77.553  1.00  0.00     0.043 C 
BRANCH  13  14
ATOM     14  C   UNL     1      90.262  91.138  77.761  1.00  0.00    -0.044 A 
ATOM     15  C   UNL     1      90.171  90.283  76.663  1.00  0.00     0.054 A 
ATOM     16  C   UNL     1      90.101  90.635  79.053  1.00  0.00     0.008 A 
ATOM     17  C   UNL     1      89.920  88.925  76.857  1.00  0.00     0.160 A 
ATOM     18  C   UNL     1      89.850  89.277  79.246  1.00  0.00     0.050 A 
ATOM     19  C   UNL     1      89.760  88.422  78.148  1.00  0.00     0.157 A 
BRANCH  17  20
ATOM     20  O   UNL     1      89.833  88.099  75.776  1.00  0.00    -0.493 OA
ATOM     21  C   UNL     1      91.060  87.659  75.197  1.00  0.00     0.278 C 
ENDBRANCH  17  20
BRANCH  19  22
ATOM     22  O   UNL     1      89.514  87.097  78.350  1.00  0.00    -0.504 OA
ATOM     23  H   UNL     1      89.826  86.848  79.237  1.00  0.00     0.293 HD
ENDBRANCH  19  22
ENDBRANCH  13  14
ENDBRANCH  12  13
ENDBRANCH  10  12
ENDBRANCH   1  10
TORSDOF 12
ENDMDL
MODEL 2
REMARK VINA RESULT:    -6.349      2.047      4.556
REMARK INTER + INTRA:         -11.931
REMARK INTER:                 -10.874
REMARK INTRA:                  -1.057
REMARK UNBOUND:                -1.499
REMARK SMILES CCCCC[C@H](O)CC(=O)CCc1ccc(O)c(OC)c1
REMARK SMILES IDX 8 1 6 2 7 3 5 5 4 6 3 7 2 8 1 9 9 10 10 11 11 12 12 13 13 14
REMARK SMILES IDX 21 15 14 16 18 17 15 18 16 19 19 20 20 21 17 22
REMARK H PARENT 7 4 17 23
REMARK Flexibility Score: inf
ROOT
ATOM      1  C   UNL     1      91.612  94.155  74.968  1.00  0.00     0.107 C 
ENDROOT
BRANCH   1   2
ATOM      2  C   UNL     1      92.697  93.092  75.157  1.00  0.00     0.121 C 
BRANCH   2   3
ATOM      3  O   UNL     1      92.631  92.140  74.098  1.00  0.00    -0.393 OA
ATOM      4  H   UNL     1      93.041  92.541  73.312  1.00  0.00     0.210 HD
ENDBRANCH   2   3
BRANCH   2   5
ATOM      5  C   UNL     1      94.111  93.683  75.218  1.00  0.00     0.032 C 
BRANCH   5   6
ATOM      6  C   UNL     1      94.263  94.700  76.356  1.00  0.00     0.003 C 
BRANCH   6   7
ATOM      7  C   UNL     1      94.126  94.077  77.748  1.00  0.00    -0.000 C 
BRANCH   7   8
ATOM      8  C   UNL     1      95.218  94.512  78.724  1.00  0.00    -0.003 C 
ATOM      9  C   UNL     1      96.308  95.304  78.018  1.00  0.00     0.004 C 
ENDBRANCH   7   8
ENDBRANCH   6   7
ENDBRANCH   5   6
ENDBRANCH   2   5
ENDBRANCH   1   2
BRANCH   1  10
ATOM     10  C   UNL     1      90.557  94.131  76.062  1.00  0.00     0.135 C 
ATOM     11  O   UNL     1      89.546  94.827  75.982  1.00  0.00    -0.300 OA
BRANCH  10  12
ATOM     12  C   UNL     1      90.799  93.176  77.222  1.00  0.00     0.080 C 
BRANCH  12  13
ATOM     13  C   UNL     1      89.584  92.316  77.574  1.00  0.00     0.043 C 
BRANCH  13  14
ATOM     14  C   UNL     1      89.570  90.989  76.854  1.00  0.00    -0.044 A 
ATOM     15  C   UNL     1      89.136  90.918  75.530  1.00  0.00     0.054 A 
ATOM     16  C   UNL     1      89.991  89.834  77.513  1.00  0.00     0.008 A 
ATOM     17  C   UNL     1      89.124  89.691  74.866  1.00  0.00     0.160 A 
ATOM     18  C   UNL     1      89.979  88.607  76.849  1.00  0.00     0.050 A 
ATOM     19  C   UNL     1      89.545  88.536  75.525  1.00  0.00     0.157 A 
BRANCH  17  20
ATOM     20  O   UNL     1      88.698  89.634  73.573  1.00  0.00    -0.493 OA
ATOM     21  C   UNL     1      88.912  90.792  72.768  1.00  0.00     0.278 C 
ENDBRANCH  17  20
BRANCH  19  22
ATOM     22  O   UNL     1      89.538  87.333  74.887  1.00  0.00    -0.504 OA
ATOM     23  H   UNL     1      90.100  87.390  74.096  1.00  0.00     0.293 HD
ENDBRANCH  19  22
ENDBRANCH  13  14
ENDBRANCH  12  13
ENDBRANCH  10  12
ENDBRANCH   1  10
TORSDOF 12
ENDMDL
MODEL 3
REMARK VINA RESULT:    -6.214      1.997      5.258
REMARK INTER + INTRA:         -11.710
REMARK INTER:                 -10.414
REMARK INTRA:                  -1.296
REMARK UNBOUND:                -1.499
REMARK SMILES CCCCC[C@H](O)CC(=O)CCc1ccc(O)c(OC)c1
REMARK SMILES IDX 8 1 6 2 7 3 5 5 4 6 3 7 2 8 1 9 9 10 10 11 11 12 12 13 13 14
REMARK SMILES IDX 21 15 14 16 18 17 15 18 16 19 19 20 20 21 17 22
REMARK H PARENT 7 4 17 23
REMARK Flexibility Score: inf
ROOT
ATOM      1  C   UNL     1      89.566  88.917  75.728  1.00  0.00     0.107 C 
ENDROOT
BRANCH   1   2
ATOM      2  C   UNL     1      89.413  88.979  74.207  1.00  0.00     0.121 C 
BRANCH   2   3
ATOM      3  O   UNL     1      88.349  89.863  73.863  1.00  0.00    -0.393 OA
ATOM      4  H   UNL     1      87.535  89.522  74.272  1.00  0.00     0.210 HD
ENDBRANCH   2   3
BRANCH   2   5
ATOM      5  C   UNL     1      90.694  89.428  73.493  1.00  0.00     0.032 C 
BRANCH   5   6
ATOM      6  C   UNL     1      91.460  90.487  74.295  1.00  0.00     0.003 C 
BRANCH   6   7
ATOM      7  C   UNL     1      91.594  91.824  73.560  1.00  0.00    -0.000 C 
BRANCH   7   8
ATOM      8  C   UNL     1      90.568  92.016  72.444  1.00  0.00    -0.003 C 
ATOM      9  C   UNL     1      89.619  93.163  72.756  1.00  0.00     0.004 C 
ENDBRANCH   7   8
ENDBRANCH   6   7
ENDBRANCH   5   6
ENDBRANCH   2   5
ENDBRANCH   1   2
BRANCH   1  10
ATOM     10  C   UNL     1      89.222  90.229  76.415  1.00  0.00     0.135 C 
ATOM     11  O   UNL     1      88.265  90.907  76.041  1.00  0.00    -0.300 OA
BRANCH  10  12
ATOM     12  C   UNL     1      90.088  90.625  77.601  1.00  0.00     0.080 C 
BRANCH  12  13
ATOM     13  C   UNL     1      89.929  92.088  78.018  1.00  0.00     0.043 C 
BRANCH  13  14
ATOM     14  C   UNL     1      90.841  93.022  77.258  1.00  0.00    -0.044 A 
ATOM     15  C   UNL     1      92.223  92.936  77.425  1.00  0.00     0.054 A 
ATOM     16  C   UNL     1      90.300  93.971  76.390  1.00  0.00     0.008 A 
ATOM     17  C   UNL     1      93.064  93.799  76.722  1.00  0.00     0.160 A 
ATOM     18  C   UNL     1      91.142  94.833  75.687  1.00  0.00     0.050 A 
ATOM     19  C   UNL     1      92.524  94.748  75.854  1.00  0.00     0.157 A 
BRANCH  17  20
ATOM     20  O   UNL     1      94.413  93.706  76.894  1.00  0.00    -0.493 OA
ATOM     21  C   UNL     1      94.953  94.261  78.092  1.00  0.00     0.278 C 
ENDBRANCH  17  20
BRANCH  19  22
ATOM     22  O   UNL     1      93.335  95.595  75.163  1.00  0.00    -0.504 OA
ATOM     23  H   UNL     1      93.166  95.491  74.211  1.00  0.00     0.293 HD
ENDBRANCH  19  22
ENDBRANCH  13  14
ENDBRANCH  12  13
ENDBRANCH  10  12
ENDBRANCH   1  10
TORSDOF 12
ENDMDL
MODEL 4
REMARK VINA RESULT:    -6.133      2.667      5.370
REMARK INTER + INTRA:         -11.576
REMARK INTER:                 -10.560
REMARK INTRA:                  -1.016
REMARK UNBOUND:                -1.499
REMARK SMILES CCCCC[C@H](O)CC(=O)CCc1ccc(O)c(OC)c1
REMARK SMILES IDX 8 1 6 2 7 3 5 5 4 6 3 7 2 8 1 9 9 10 10 11 11 12 12 13 13 14
REMARK SMILES IDX 21 15 14 16 18 17 15 18 16 19 19 20 20 21 17 22
REMARK H PARENT 7 4 17 23
REMARK Flexibility Score: inf
ROOT
ATOM      1  C   UNL     1      93.742  94.838  76.338  1.00  0.00     0.107 C 
ENDROOT
BRANCH   1   2
ATOM      2  C   UNL     1      94.787  93.723  76.248  1.00  0.00     0.121 C 
BRANCH   2   3
ATOM      3  O   UNL     1      95.373  93.714  74.949  1.00  0.00    -0.393 OA
ATOM      4  H   UNL     1      95.959  94.488  74.881  1.00  0.00     0.210 HD
ENDBRANCH   2   3
BRANCH   2   5
ATOM      5  C   UNL     1      95.894  93.853  77.301  1.00  0.00     0.032 C 
BRANCH   5   6
ATOM      6  C   UNL     1      95.468  94.736  78.480  1.00  0.00     0.003 C 
BRANCH   6   7
ATOM      7  C   UNL     1      96.354  94.562  79.719  1.00  0.00    -0.000 C 
BRANCH   7   8
ATOM      8  C   UNL     1      95.646  94.901  81.030  1.00  0.00    -0.003 C 
ATOM      9  C   UNL     1      95.692  93.732  82.002  1.00  0.00     0.004 C 
ENDBRANCH   7   8
ENDBRANCH   6   7
ENDBRANCH   5   6
ENDBRANCH   2   5
ENDBRANCH   1   2
BRANCH   1  10
ATOM     10  C   UNL     1      92.449  94.503  75.612  1.00  0.00     0.135 C 
ATOM     11  O   UNL     1      92.466  93.984  74.496  1.00  0.00    -0.300 OA
BRANCH  10  12
ATOM     12  C   UNL     1      91.154  94.798  76.354  1.00  0.00     0.080 C 
BRANCH  12  13
ATOM     13  C   UNL     1      89.968  93.956  75.879  1.00  0.00     0.043 C 
BRANCH  13  14
ATOM     14  C   UNL     1      89.980  92.551  76.433  1.00  0.00    -0.044 A 
ATOM     15  C   UNL     1      89.623  91.477  75.618  1.00  0.00     0.054 A 
ATOM     16  C   UNL     1      90.348  92.328  77.760  1.00  0.00     0.008 A 
ATOM     17  C   UNL     1      89.635  90.180  76.130  1.00  0.00     0.160 A 
ATOM     18  C   UNL     1      90.360  91.031  78.272  1.00  0.00     0.050 A 
ATOM     19  C   UNL     1      90.003  89.956  77.457  1.00  0.00     0.157 A 
BRANCH  17  20
ATOM     20  O   UNL     1      89.284  89.138  75.324  1.00  0.00    -0.493 OA
ATOM     21  C   UNL     1      90.254  88.698  74.375  1.00  0.00     0.278 C 
ENDBRANCH  17  20
BRANCH  19  22
ATOM     22  O   UNL     1      90.019  88.694  77.968  1.00  0.00    -0.504 OA
ATOM     23  H   UNL     1      89.191  88.539  78.455  1.00  0.00     0.293 HD
ENDBRANCH  19  22
ENDBRANCH  13  14
ENDBRANCH  12  13
ENDBRANCH  10  12
ENDBRANCH   1  10
TORSDOF 12
ENDMDL
MODEL 5
REMARK VINA RESULT:    -6.030      2.741      6.335
REMARK INTER + INTRA:         -11.406
REMARK INTER:                 -10.090
REMARK INTRA:                  -1.316
REMARK UNBOUND:                -1.499
REMARK SMILES CCCCC[C@H](O)CC(=O)CCc1ccc(O)c(OC)c1
REMARK SMILES IDX 8 1 6 2 7 3 5 5 4 6 3 7 2 8 1 9 9 10 10 11 11 12 12 13 13 14
REMARK SMILES IDX 21 15 14 16 18 17 15 18 16 19 19 20 20 21 17 22
REMARK H PARENT 7 4 17 23
REMARK Flexibility Score: inf
ROOT
ATOM      1  C   UNL     1      89.950  91.750  77.695  1.00  0.00     0.107 C 
ENDROOT
BRANCH   1   2
ATOM      2  C   UNL     1      90.163  90.549  76.771  1.00  0.00     0.121 C 
BRANCH   2   3
ATOM      3  O   UNL     1      90.341  89.367  77.547  1.00  0.00    -0.393 OA
ATOM      4  H   UNL     1      89.807  89.459  78.355  1.00  0.00     0.210 HD
ENDBRANCH   2   3
BRANCH   2   5
ATOM      5  C   UNL     1      89.007  90.337  75.786  1.00  0.00     0.032 C 
BRANCH   5   6
ATOM      6  C   UNL     1      89.483  90.341  74.328  1.00  0.00     0.003 C 
BRANCH   6   7
ATOM      7  C   UNL     1      89.331  91.704  73.644  1.00  0.00    -0.000 C 
BRANCH   7   8
ATOM      8  C   UNL     1      90.647  92.465  73.496  1.00  0.00    -0.003 C 
ATOM      9  C   UNL     1      91.842  91.527  73.577  1.00  0.00     0.004 C 
ENDBRANCH   7   8
ENDBRANCH   6   7
ENDBRANCH   5   6
ENDBRANCH   2   5
ENDBRANCH   1   2
BRANCH   1  10
ATOM     10  C   UNL     1      90.577  93.029  77.165  1.00  0.00     0.135 C 
ATOM     11  O   UNL     1      89.876  93.966  76.782  1.00  0.00    -0.300 OA
BRANCH  10  12
ATOM     12  C   UNL     1      92.096  93.100  77.178  1.00  0.00     0.080 C 
BRANCH  12  13
ATOM     13  C   UNL     1      92.678  94.029  76.111  1.00  0.00     0.043 C 
BRANCH  13  14
ATOM     14  C   UNL     1      94.109  94.424  76.386  1.00  0.00    -0.044 A 
ATOM     15  C   UNL     1      94.599  94.407  77.692  1.00  0.00     0.054 A 
ATOM     16  C   UNL     1      94.942  94.805  75.333  1.00  0.00     0.008 A 
ATOM     17  C   UNL     1      95.922  94.770  77.945  1.00  0.00     0.160 A 
ATOM     18  C   UNL     1      96.265  95.168  75.586  1.00  0.00     0.050 A 
ATOM     19  C   UNL     1      96.755  95.151  76.892  1.00  0.00     0.157 A 
BRANCH  17  20
ATOM     20  O   UNL     1      96.389  94.751  79.224  1.00  0.00    -0.493 OA
ATOM     21  C   UNL     1      95.674  93.950  80.163  1.00  0.00     0.278 C 
ENDBRANCH  17  20
BRANCH  19  22
ATOM     22  O   UNL     1      98.048  95.508  77.126  1.00  0.00    -0.504 OA
ATOM     23  H   UNL     1      98.066  96.210  77.799  1.00  0.00     0.293 HD
ENDBRANCH  19  22
ENDBRANCH  13  14
ENDBRANCH  12  13
ENDBRANCH  10  12
ENDBRANCH   1  10
TORSDOF 12
ENDMDL
MODEL 6
REMARK VINA RESULT:    -5.922      2.613      4.611
REMARK INTER + INTRA:         -11.230
REMARK INTER:                 -10.476
REMARK INTRA:                  -0.754
REMARK UNBOUND:                -1.499
REMARK SMILES CCCCC[C@H](O)CC(=O)CCc1ccc(O)c(OC)c1
REMARK SMILES IDX 8 1 6 2 7 3 5 5 4 6 3 7 2 8 1 9 9 10 10 11 11 12 12 13 13 14
REMARK SMILES IDX 21 15 14 16 18 17 15 18 16 19 19 20 20 21 17 22
REMARK H PARENT 7 4 17 23
REMARK Flexibility Score: inf
ROOT
ATOM      1  C   UNL     1      93.402  94.054  77.068  1.00  0.00     0.107 C 
ENDROOT
BRANCH   1   2
ATOM      2  C   UNL     1      94.109  94.151  75.715  1.00  0.00     0.121 C 
BRANCH   2   3
ATOM      3  O   UNL     1      93.556  93.199  74.810  1.00  0.00    -0.393 OA
ATOM      4  H   UNL     1      93.975  93.334  73.942  1.00  0.00     0.210 HD
ENDBRANCH   2   3
BRANCH   2   5
ATOM      5  C   UNL     1      94.022  95.550  75.091  1.00  0.00     0.032 C 
BRANCH   5   6
ATOM      6  C   UNL     1      95.406  96.120  74.757  1.00  0.00     0.003 C 
BRANCH   6   7
ATOM      7  C   UNL     1      95.353  97.335  73.826  1.00  0.00    -0.000 C 
BRANCH   7   8
ATOM      8  C   UNL     1      93.933  97.779  73.480  1.00  0.00    -0.003 C 
ATOM      9  C   UNL     1      93.840  98.272  72.044  1.00  0.00     0.004 C 
ENDBRANCH   7   8
ENDBRANCH   6   7
ENDBRANCH   5   6
ENDBRANCH   2   5
ENDBRANCH   1   2
BRANCH   1  10
ATOM     10  C   UNL     1      91.923  93.726  76.945  1.00  0.00     0.135 C 
ATOM     11  O   UNL     1      91.186  94.389  76.215  1.00  0.00    -0.300 OA
BRANCH  10  12
ATOM     12  C   UNL     1      91.424  92.521  77.728  1.00  0.00     0.080 C 
BRANCH  12  13
ATOM     13  C   UNL     1      89.947  92.200  77.488  1.00  0.00     0.043 C 
BRANCH  13  14
ATOM     14  C   UNL     1      89.737  90.899  76.750  1.00  0.00    -0.044 A 
ATOM     15  C   UNL     1      89.173  90.904  75.474  1.00  0.00     0.054 A 
ATOM     16  C   UNL     1      90.106  89.693  77.345  1.00  0.00     0.008 A 
ATOM     17  C   UNL     1      88.980  89.702  74.793  1.00  0.00     0.160 A 
ATOM     18  C   UNL     1      89.913  88.491  76.665  1.00  0.00     0.050 A 
ATOM     19  C   UNL     1      89.350  88.495  75.389  1.00  0.00     0.157 A 
BRANCH  17  20
ATOM     20  O   UNL     1      88.428  89.718  73.548  1.00  0.00    -0.493 OA
ATOM     21  C   UNL     1      87.566  90.811  73.236  1.00  0.00     0.278 C 
ENDBRANCH  17  20
BRANCH  19  22
ATOM     22  O   UNL     1      89.166  87.315  74.734  1.00  0.00    -0.504 OA
ATOM     23  H   UNL     1      90.021  87.011  74.384  1.00  0.00     0.293 HD
ENDBRANCH  19  22
ENDBRANCH  13  14
ENDBRANCH  12  13
ENDBRANCH  10  12
ENDBRANCH   1  10
TORSDOF 12
ENDMDL
MODEL 7
REMARK VINA RESULT:    -5.831      2.456      5.334
REMARK INTER + INTRA:         -11.080
REMARK INTER:                  -9.964
REMARK INTRA:                  -1.116
REMARK UNBOUND:                -1.499
REMARK SMILES CCCCC[C@H](O)CC(=O)CCc1ccc(O)c(OC)c1
REMARK SMILES IDX 8 1 6 2 7 3 5 5 4 6 3 7 2 8 1 9 9 10 10 11 11 12 12 13 13 14
REMARK SMILES IDX 21 15 14 16 18 17 15 18 16 19 19 20 20 21 17 22
REMARK H PARENT 7 4 17 23
REMARK Flexibility Score: inf
ROOT
ATOM      1  C   UNL     1      93.288  93.062  74.933  1.00  0.00     0.107 C 
ENDROOT
BRANCH   1   2
ATOM      2  C   UNL     1      94.159  94.285  75.232  1.00  0.00     0.121 C 
BRANCH   2   3
ATOM      3  O   UNL     1      93.459  95.176  76.098  1.00  0.00    -0.393 OA
ATOM      4  H   UNL     1      93.490  96.064  75.699  1.00  0.00     0.210 HD
ENDBRANCH   2   3
BRANCH   2   5
ATOM      5  C   UNL     1      95.507  93.921  75.865  1.00  0.00     0.032 C 
BRANCH   5   6
ATOM      6  C   UNL     1      95.490  94.080  77.390  1.00  0.00     0.003 C 
BRANCH   6   7
ATOM      7  C   UNL     1      96.553  95.053  77.910  1.00  0.00    -0.000 C 
BRANCH   7   8
ATOM      8  C   UNL     1      96.565  95.191  79.432  1.00  0.00    -0.003 C 
ATOM      9  C   UNL     1      95.324  94.570  80.054  1.00  0.00     0.004 C 
ENDBRANCH   7   8
ENDBRANCH   6   7
ENDBRANCH   5   6
ENDBRANCH   2   5
ENDBRANCH   1   2
BRANCH   1  10
ATOM     10  C   UNL     1      92.066  92.967  75.832  1.00  0.00     0.135 C 
ATOM     11  O   UNL     1      92.185  92.861  77.053  1.00  0.00    -0.300 OA
BRANCH  10  12
ATOM     12  C   UNL     1      90.709  93.055  75.150  1.00  0.00     0.080 C 
BRANCH  12  13
ATOM     13  C   UNL     1      89.687  92.049  75.682  1.00  0.00     0.043 C 
BRANCH  13  14
ATOM     14  C   UNL     1      90.070  90.614  75.407  1.00  0.00    -0.044 A 
ATOM     15  C   UNL     1      90.233  89.720  76.465  1.00  0.00     0.054 A 
ATOM     16  C   UNL     1      90.260  90.184  74.093  1.00  0.00     0.008 A 
ATOM     17  C   UNL     1      90.586  88.395  76.209  1.00  0.00     0.160 A 
ATOM     18  C   UNL     1      90.613  88.859  73.838  1.00  0.00     0.050 A 
ATOM     19  C   UNL     1      90.776  87.964  74.896  1.00  0.00     0.157 A 
BRANCH  17  20
ATOM     20  O   UNL     1      90.742  87.531  77.251  1.00  0.00    -0.493 OA
ATOM     21  C   UNL     1      89.878  87.704  78.372  1.00  0.00     0.278 C 
ENDBRANCH  17  20
BRANCH  19  22
ATOM     22  O   UNL     1      91.121  86.673  74.634  1.00  0.00    -0.504 OA
ATOM     23  H   UNL     1      91.563  86.298  75.415  1.00  0.00     0.293 HD
ENDBRANCH  19  22
ENDBRANCH  13  14
ENDBRANCH  12  13
ENDBRANCH  10  12
ENDBRANCH   1  10
TORSDOF 12
ENDMDL
MODEL 8
REMARK VINA RESULT:    -5.531      3.419      6.503
REMARK INTER + INTRA:         -10.587
REMARK INTER:                  -9.611
REMARK INTRA:                  -0.976
REMARK UNBOUND:                -1.499
REMARK SMILES CCCCC[C@H](O)CC(=O)CCc1ccc(O)c(OC)c1
REMARK SMILES IDX 8 1 6 2 7 3 5 5 4 6 3 7 2 8 1 9 9 10 10 11 11 12 12 13 13 14
REMARK SMILES IDX 21 15 14 16 18 17 15 18 16 19 19 20 20 21 17 22
REMARK H PARENT 7 4 17 23
REMARK Flexibility Score: inf
ROOT
ATOM      1  C   UNL     1      94.433  94.731  76.943  1.00  0.00     0.107 C 
ENDROOT
BRANCH   1   2
ATOM      2  C   UNL     1      95.394  94.165  77.992  1.00  0.00     0.121 C 
BRANCH   2   3
ATOM      3  O   UNL     1      95.920  92.918  77.543  1.00  0.00    -0.393 OA
ATOM      4  H   UNL     1      96.888  93.005  77.492  1.00  0.00     0.210 HD
ENDBRANCH   2   3
BRANCH   2   5
ATOM      5  C   UNL     1      96.553  95.114  78.318  1.00  0.00     0.032 C 
BRANCH   5   6
ATOM      6  C   UNL     1      96.251  95.997  79.535  1.00  0.00     0.003 C 
BRANCH   6   7
ATOM      7  C   UNL     1      95.243  95.370  80.504  1.00  0.00    -0.000 C 
BRANCH   7   8
ATOM      8  C   UNL     1      95.745  95.295  81.945  1.00  0.00    -0.003 C 
ATOM      9  C   UNL     1      97.250  95.505  82.019  1.00  0.00     0.004 C 
ENDBRANCH   7   8
ENDBRANCH   6   7
ENDBRANCH   5   6
ENDBRANCH   2   5
ENDBRANCH   1   2
BRANCH   1  10
ATOM     10  C   UNL     1      94.597  94.088  75.576  1.00  0.00     0.135 C 
ATOM     11  O   UNL     1      95.671  94.140  74.977  1.00  0.00    -0.300 OA
BRANCH  10  12
ATOM     12  C   UNL     1      93.390  93.348  75.021  1.00  0.00     0.080 C 
BRANCH  12  13
ATOM     13  C   UNL     1      92.393  92.905  76.094  1.00  0.00     0.043 C 
BRANCH  13  14
ATOM     14  C   UNL     1      91.259  92.075  75.543  1.00  0.00    -0.044 A 
ATOM     15  C   UNL     1      91.288  91.648  74.215  1.00  0.00     0.054 A 
ATOM     16  C   UNL     1      90.181  91.735  76.361  1.00  0.00     0.008 A 
ATOM     17  C   UNL     1      90.240  90.880  73.707  1.00  0.00     0.160 A 
ATOM     18  C   UNL     1      89.133  90.967  75.853  1.00  0.00     0.050 A 
ATOM     19  C   UNL     1      89.163  90.540  74.526  1.00  0.00     0.157 A 
BRANCH  17  20
ATOM     20  O   UNL     1      90.279  90.470  72.408  1.00  0.00    -0.493 OA
ATOM     21  C   UNL     1      90.255  91.485  71.406  1.00  0.00     0.278 C 
ENDBRANCH  17  20
BRANCH  19  22
ATOM     22  O   UNL     1      88.134  89.791  74.041  1.00  0.00    -0.504 OA
ATOM     23  H   UNL     1      88.352  88.849  74.143  1.00  0.00     0.293 HD
ENDBRANCH  19  22
ENDBRANCH  13  14
ENDBRANCH  12  13
ENDBRANCH  10  12
ENDBRANCH   1  10
TORSDOF 12
ENDMDL
MODEL 9
REMARK VINA RESULT:    -5.456      3.285      6.102
REMARK INTER + INTRA:         -10.464
REMARK INTER:                  -9.337
REMARK INTRA:                  -1.127
REMARK UNBOUND:                -1.499
REMARK SMILES CCCCC[C@H](O)CC(=O)CCc1ccc(O)c(OC)c1
REMARK SMILES IDX 8 1 6 2 7 3 5 5 4 6 3 7 2 8 1 9 9 10 10 11 11 12 12 13 13 14
REMARK SMILES IDX 21 15 14 16 18 17 15 18 16 19 19 20 20 21 17 22
REMARK H PARENT 7 4 17 23
REMARK Flexibility Score: inf
ROOT
ATOM      1  C   UNL     1      95.542  95.951  76.504  1.00  0.00     0.107 C 
ENDROOT
BRANCH   1   2
ATOM      2  C   UNL     1      96.483  94.751  76.635  1.00  0.00     0.121 C 
BRANCH   2   3
ATOM      3  O   UNL     1      97.801  95.201  76.940  1.00  0.00    -0.393 OA
ATOM      4  H   UNL     1      98.402  94.845  76.261  1.00  0.00     0.210 HD
ENDBRANCH   2   3
BRANCH   2   5
ATOM      5  C   UNL     1      96.032  93.748  77.704  1.00  0.00     0.032 C 
BRANCH   5   6
ATOM      6  C   UNL     1      95.159  94.406  78.779  1.00  0.00     0.003 C 
BRANCH   6   7
ATOM      7  C   UNL     1      95.585  94.052  80.208  1.00  0.00    -0.000 C 
BRANCH   7   8
ATOM      8  C   UNL     1      95.295  95.155  81.224  1.00  0.00    -0.003 C 
ATOM      9  C   UNL     1      96.030  96.439  80.874  1.00  0.00     0.004 C 
ENDBRANCH   7   8
ENDBRANCH   6   7
ENDBRANCH   5   6
ENDBRANCH   2   5
ENDBRANCH   1   2
BRANCH   1  10
ATOM     10  C   UNL     1      94.773  95.964  75.193  1.00  0.00     0.135 C 
ATOM     11  O   UNL     1      95.218  96.546  74.204  1.00  0.00    -0.300 OA
BRANCH  10  12
ATOM     12  C   UNL     1      93.464  95.190  75.163  1.00  0.00     0.080 C 
BRANCH  12  13
ATOM     13  C   UNL     1      93.648  93.677  75.037  1.00  0.00     0.043 C 
BRANCH  13  14
ATOM     14  C   UNL     1      92.483  92.891  75.591  1.00  0.00    -0.044 A 
ATOM     15  C   UNL     1      91.758  92.038  74.759  1.00  0.00     0.054 A 
ATOM     16  C   UNL     1      92.132  93.019  76.935  1.00  0.00     0.008 A 
ATOM     17  C   UNL     1      90.682  91.312  75.272  1.00  0.00     0.160 A 
ATOM     18  C   UNL     1      91.057  92.293  77.448  1.00  0.00     0.050 A 
ATOM     19  C   UNL     1      90.332  91.440  76.616  1.00  0.00     0.157 A 
BRANCH  17  20
ATOM     20  O   UNL     1      89.981  90.483  74.449  1.00  0.00    -0.493 OA
ATOM     21  C   UNL     1      90.604  89.251  74.087  1.00  0.00     0.278 C 
ENDBRANCH  17  20
BRANCH  19  22
ATOM     22  O   UNL     1      89.284  90.736  77.128  1.00  0.00    -0.504 OA
ATOM     23  H   UNL     1      88.695  91.347  77.603  1.00  0.00     0.293 HD
ENDBRANCH  19  22
ENDBRANCH  13  14
ENDBRANCH  12  13
ENDBRANCH  10  12
ENDBRANCH   1  10
TORSDOF 12
ENDMDL
MODEL 10
REMARK VINA RESULT:    -5.424      3.606      6.542
REMARK INTER + INTRA:         -10.412
REMARK INTER:                  -9.331
REMARK INTRA:                  -1.081
REMARK UNBOUND:                -1.499
REMARK SMILES CCCCC[C@H](O)CC(=O)CCc1ccc(O)c(OC)c1
REMARK SMILES IDX 8 1 6 2 7 3 5 5 4 6 3 7 2 8 1 9 9 10 10 11 11 12 12 13 13 14
REMARK SMILES IDX 21 15 14 16 18 17 15 18 16 19 19 20 20 21 17 22
REMARK H PARENT 7 4 17 23
REMARK Flexibility Score: inf
ROOT
ATOM      1  C   UNL     1      96.091  96.424  75.683  1.00  0.00     0.107 C 
ENDROOT
BRANCH   1   2
ATOM      2  C   UNL     1      97.583  96.195  75.941  1.00  0.00     0.121 C 
BRANCH   2   3
ATOM      3  O   UNL     1      98.327  97.335  75.517  1.00  0.00    -0.393 OA
ATOM      4  H   UNL     1      98.764  97.713  76.300  1.00  0.00     0.210 HD
ENDBRANCH   2   3
BRANCH   2   5
ATOM      5  C   UNL     1      97.900  95.904  77.413  1.00  0.00     0.032 C 
BRANCH   5   6
ATOM      6  C   UNL     1      96.947  96.637  78.364  1.00  0.00     0.003 C 
BRANCH   6   7
ATOM      7  C   UNL     1      96.823  95.966  79.735  1.00  0.00    -0.000 C 
BRANCH   7   8
ATOM      8  C   UNL     1      95.433  95.398  80.016  1.00  0.00    -0.003 C 
ATOM      9  C   UNL     1      95.173  94.141  79.201  1.00  0.00     0.004 C 
ENDBRANCH   7   8
ENDBRANCH   6   7
ENDBRANCH   5   6
ENDBRANCH   2   5
ENDBRANCH   1   2
BRANCH   1  10
ATOM     10  C   UNL     1      95.356  95.157  75.276  1.00  0.00     0.135 C 
ATOM     11  O   UNL     1      95.969  94.110  75.065  1.00  0.00    -0.300 OA
BRANCH  10  12
ATOM     12  C   UNL     1      93.840  95.246  75.189  1.00  0.00     0.080 C 
BRANCH  12  13
ATOM     13  C   UNL     1      93.116  94.497  76.309  1.00  0.00     0.043 C 
BRANCH  13  14
ATOM     14  C   UNL     1      92.448  93.228  75.836  1.00  0.00    -0.044 A 
ATOM     15  C   UNL     1      91.676  92.474  76.721  1.00  0.00     0.054 A 
ATOM     16  C   UNL     1      92.603  92.809  74.515  1.00  0.00     0.008 A 
ATOM     17  C   UNL     1      91.058  91.303  76.283  1.00  0.00     0.160 A 
ATOM     18  C   UNL     1      91.986  91.637  74.077  1.00  0.00     0.050 A 
ATOM     19  C   UNL     1      91.214  90.884  74.961  1.00  0.00     0.157 A 
BRANCH  17  20
ATOM     20  O   UNL     1      90.307  90.575  77.156  1.00  0.00    -0.493 OA
ATOM     21  C   UNL     1      90.267  91.026  78.508  1.00  0.00     0.278 C 
ENDBRANCH  17  20
BRANCH  19  22
ATOM     22  O   UNL     1      90.616  89.742  74.522  1.00  0.00    -0.504 OA
ATOM     23  H   UNL     1      90.915  89.556  73.615  1.00  0.00     0.293 HD
ENDBRANCH  19  22
ENDBRANCH  13  14
ENDBRANCH  12  13
ENDBRANCH  10  12
ENDBRANCH   1  10
TORSDOF 12
ENDMDL
