MODEL 1
REMARK VINA RESULT:    -6.204      0.000      0.000
REMARK INTER + INTRA:         -10.652
REMARK INTER:                 -10.013
REMARK INTRA:                  -0.639
REMARK UNBOUND:                -0.639
REMARK SMILES COc1cc(CNC(=O)CCCCCCC(C)C)ccc1O
REMARK SMILES IDX 11 1 10 2 8 3 7 4 9 6 6 7 5 8 3 9 21 10 4 11 20 12 19 13
REMARK SMILES IDX 2 14 1 15 22 16 12 18 13 19 14 20 15 21 16 22 17 23 18 24
REMARK H PARENT 7 5 22 17
REMARK Flexibility Score: inf
ROOT
ATOM      1  C   UNL     1      96.877  82.427  82.743  1.00  0.00     0.010 C 
ENDROOT
BRANCH   1   2
ATOM      2  C   UNL     1      96.690  81.053  82.042  1.00  0.00     0.100 C 
BRANCH   2   3
ATOM      3  C   UNL     1      97.414  80.950  80.755  1.00  0.00     0.220 C 
ATOM      4  N   UNL     1      97.920  82.067  80.158  1.00  0.00    -0.352 N 
ATOM      5  H   UNL     1      97.718  82.931  80.640  1.00  0.00     0.163 HD
ATOM      6  O   UNL     1      97.571  79.814  80.243  1.00  0.00    -0.275 OA
BRANCH   4   7
ATOM      7  C   UNL     1      98.684  82.082  78.947  1.00  0.00     0.151 C 
BRANCH   7   8
ATOM      8  C   UNL     1      98.050  82.883  77.864  1.00  0.00    -0.025 A 
ATOM      9  C   UNL     1      98.043  83.695  75.542  1.00  0.00     0.160 A 
ATOM     10  C   UNL     1      96.826  84.370  75.780  1.00  0.00     0.157 A 
ATOM     11  C   UNL     1      98.654  82.974  76.589  1.00  0.00     0.056 A 
ATOM     12  C   UNL     1      96.234  84.319  77.055  1.00  0.00     0.050 A 
ATOM     13  C   UNL     1      96.835  83.573  78.088  1.00  0.00     0.009 A 
BRANCH   9  14
ATOM     14  O   UNL     1      98.647  83.771  74.317  1.00  0.00    -0.493 OA
ATOM     15  C   UNL     1      99.444  82.618  73.991  1.00  0.00     0.278 C 
ENDBRANCH   9  14
BRANCH  10  16
ATOM     16  O   UNL     1      96.215  85.074  74.791  1.00  0.00    -0.504 OA
ATOM     17  H   UNL     1      95.298  85.231  75.030  1.00  0.00     0.293 HD
ENDBRANCH  10  16
ENDBRANCH   7   8
ENDBRANCH   4   7
ENDBRANCH   2   3
ENDBRANCH   1   2
BRANCH   1  18
ATOM     18  C   UNL     1      95.545  82.970  83.334  1.00  0.00     0.001 C 
BRANCH  18  19
ATOM     19  C   UNL     1      94.844  81.984  84.311  1.00  0.00     0.000 C 
BRANCH  19  20
ATOM     20  C   UNL     1      93.307  82.214  84.351  1.00  0.00     0.000 C 
BRANCH  20  21
ATOM     21  C   UNL     1      92.496  81.004  84.891  1.00  0.00     0.003 C 
BRANCH  21  22
ATOM     22  C   UNL     1      91.340  80.525  83.952  1.00  0.00    -0.017 C 
ATOM     23  C   UNL     1      90.120  81.482  84.061  1.00  0.00     0.007 C 
ATOM     24  C   UNL     1      90.901  79.052  84.202  1.00  0.00     0.007 C 
ENDBRANCH  21  22
ENDBRANCH  20  21
ENDBRANCH  19  20
ENDBRANCH  18  19
ENDBRANCH   1  18
TORSDOF 11
ENDMDL
MODEL 2
REMARK VINA RESULT:    -5.692      2.761      9.139
REMARK INTER + INTRA:          -9.825
REMARK INTER:                  -9.125
REMARK INTRA:                  -0.700
REMARK UNBOUND:                -0.639
REMARK SMILES COc1cc(CNC(=O)CCCCCCC(C)C)ccc1O
REMARK SMILES IDX 11 1 10 2 8 3 7 4 9 6 6 7 5 8 3 9 21 10 4 11 20 12 19 13
REMARK SMILES IDX 2 14 1 15 22 16 12 18 13 19 14 20 15 21 16 22 17 23 18 24
REMARK H PARENT 7 5 22 17
REMARK Flexibility Score: inf
ROOT
ATOM      1  C   UNL     1      97.383  82.362  78.201  1.00  0.00     0.010 C 
ENDROOT
BRANCH   1   2
ATOM      2  C   UNL     1      98.634  82.346  79.123  1.00  0.00     0.100 C 
BRANCH   2   3
ATOM      3  C   UNL     1      98.333  81.922  80.509  1.00  0.00     0.220 C 
ATOM      4  N   UNL     1      97.040  81.789  80.924  1.00  0.00    -0.352 N 
ATOM      5  H   UNL     1      96.348  82.043  80.234  1.00  0.00     0.163 HD
ATOM      6  O   UNL     1      99.289  81.665  81.280  1.00  0.00    -0.275 OA
BRANCH   4   7
ATOM      7  C   UNL     1      96.630  81.332  82.217  1.00  0.00     0.151 C 
BRANCH   7   8
ATOM      8  C   UNL     1      95.993  82.396  83.041  1.00  0.00    -0.025 A 
ATOM      9  C   UNL     1      94.323  83.083  84.710  1.00  0.00     0.160 A 
ATOM     10  C   UNL     1      94.802  84.410  84.647  1.00  0.00     0.157 A 
ATOM     11  C   UNL     1      94.909  82.092  83.895  1.00  0.00     0.056 A 
ATOM     12  C   UNL     1      95.855  84.733  83.772  1.00  0.00     0.050 A 
ATOM     13  C   UNL     1      96.454  83.732  82.982  1.00  0.00     0.009 A 
BRANCH   9  14
ATOM     14  O   UNL     1      93.274  82.766  85.529  1.00  0.00    -0.493 OA
ATOM     15  C   UNL     1      92.061  82.452  84.821  1.00  0.00     0.278 C 
ENDBRANCH   9  14
BRANCH  10  16
ATOM     16  O   UNL     1      94.257  85.385  85.420  1.00  0.00    -0.504 OA
ATOM     17  H   UNL     1      94.859  86.132  85.465  1.00  0.00     0.293 HD
ENDBRANCH  10  16
ENDBRANCH   7   8
ENDBRANCH   4   7
ENDBRANCH   2   3
ENDBRANCH   1   2
BRANCH   1  18
ATOM     18  C   UNL     1      96.879  83.806  77.921  1.00  0.00     0.001 C 
BRANCH  18  19
ATOM     19  C   UNL     1      96.596  84.091  76.418  1.00  0.00     0.000 C 
BRANCH  19  20
ATOM     20  C   UNL     1      97.784  83.646  75.519  1.00  0.00     0.000 C 
BRANCH  20  21
ATOM     21  C   UNL     1      98.329  84.762  74.585  1.00  0.00     0.003 C 
BRANCH  21  22
ATOM     22  C   UNL     1      98.381  84.375  73.071  1.00  0.00    -0.017 C 
ATOM     23  C   UNL     1      98.211  82.839  72.896  1.00  0.00     0.007 C 
ATOM     24  C   UNL     1      99.667  84.867  72.343  1.00  0.00     0.007 C 
ENDBRANCH  21  22
ENDBRANCH  20  21
ENDBRANCH  19  20
ENDBRANCH  18  19
ENDBRANCH   1  18
TORSDOF 11
ENDMDL
MODEL 3
REMARK VINA RESULT:    -5.579      3.841      9.538
REMARK INTER + INTRA:          -9.644
REMARK INTER:                  -8.259
REMARK INTRA:                  -1.384
REMARK UNBOUND:                -0.639
REMARK SMILES COc1cc(CNC(=O)CCCCCCC(C)C)ccc1O
REMARK SMILES IDX 11 1 10 2 8 3 7 4 9 6 6 7 5 8 3 9 21 10 4 11 20 12 19 13
REMARK SMILES IDX 2 14 1 15 22 16 12 18 13 19 14 20 15 21 16 22 17 23 18 24
REMARK H PARENT 7 5 22 17
REMARK Flexibility Score: inf
ROOT
ATOM      1  C   UNL     1      99.483  84.944  74.608  1.00  0.00     0.010 C 
ENDROOT
BRANCH   1   2
ATOM      2  C   UNL     1      98.046  84.453  74.283  1.00  0.00     0.100 C 
BRANCH   2   3
ATOM      3  C   UNL     1      97.142  84.471  75.455  1.00  0.00     0.220 C 
ATOM      4  N   UNL     1      97.453  83.758  76.576  1.00  0.00    -0.352 N 
ATOM      5  H   UNL     1      98.297  83.209  76.505  1.00  0.00     0.163 HD
ATOM      6  O   UNL     1      96.103  85.174  75.403  1.00  0.00    -0.275 OA
BRANCH   4   7
ATOM      7  C   UNL     1      96.689  83.746  77.786  1.00  0.00     0.151 C 
BRANCH   7   8
ATOM      8  C   UNL     1      97.403  83.105  78.925  1.00  0.00    -0.025 A 
ATOM      9  C   UNL     1      99.354  81.894  79.804  1.00  0.00     0.160 A 
ATOM     10  C   UNL     1      98.791  81.921  81.098  1.00  0.00     0.157 A 
ATOM     11  C   UNL     1      98.649  82.468  78.725  1.00  0.00     0.056 A 
ATOM     12  C   UNL     1      97.533  82.518  81.302  1.00  0.00     0.050 A 
ATOM     13  C   UNL     1      96.848  83.116  80.226  1.00  0.00     0.009 A 
BRANCH   9  14
ATOM     14  O   UNL     1     100.559  81.281  79.587  1.00  0.00    -0.493 OA
ATOM     15  C   UNL     1     100.756  80.854  78.227  1.00  0.00     0.278 C 
ENDBRANCH   9  14
BRANCH  10  16
ATOM     16  O   UNL     1      99.447  81.374  82.155  1.00  0.00    -0.504 OA
ATOM     17  H   UNL     1      99.349  80.420  82.133  1.00  0.00     0.293 HD
ENDBRANCH  10  16
ENDBRANCH   7   8
ENDBRANCH   4   7
ENDBRANCH   2   3
ENDBRANCH   1   2
BRANCH   1  18
ATOM     18  C   UNL     1     100.088  85.795  73.454  1.00  0.00     0.001 C 
BRANCH  18  19
ATOM     19  C   UNL     1      99.651  85.328  72.037  1.00  0.00     0.000 C 
BRANCH  19  20
ATOM     20  C   UNL     1     100.736  84.436  71.369  1.00  0.00     0.000 C 
BRANCH  20  21
ATOM     21  C   UNL     1     100.335  82.941  71.232  1.00  0.00     0.003 C 
BRANCH  21  22
ATOM     22  C   UNL     1     100.970  81.996  72.304  1.00  0.00    -0.017 C 
ATOM     23  C   UNL     1      99.874  81.438  73.255  1.00  0.00     0.007 C 
ATOM     24  C   UNL     1     102.115  82.661  73.124  1.00  0.00     0.007 C 
ENDBRANCH  21  22
ENDBRANCH  20  21
ENDBRANCH  19  20
ENDBRANCH  18  19
ENDBRANCH   1  18
TORSDOF 11
ENDMDL
MODEL 4
REMARK VINA RESULT:    -5.546      2.034      2.979
REMARK INTER + INTRA:          -9.590
REMARK INTER:                  -8.508
REMARK INTRA:                  -1.081
REMARK UNBOUND:                -0.639
REMARK SMILES COc1cc(CNC(=O)CCCCCCC(C)C)ccc1O
REMARK SMILES IDX 11 1 10 2 8 3 7 4 9 6 6 7 5 8 3 9 21 10 4 11 20 12 19 13
REMARK SMILES IDX 2 14 1 15 22 16 12 18 13 19 14 20 15 21 16 22 17 23 18 24
REMARK H PARENT 7 5 22 17
REMARK Flexibility Score: inf
ROOT
ATOM      1  C   UNL     1      98.020  80.160  81.824  1.00  0.00     0.010 C 
ENDROOT
BRANCH   1   2
ATOM      2  C   UNL     1      98.652  79.511  80.562  1.00  0.00     0.100 C 
BRANCH   2   3
ATOM      3  C   UNL     1      99.437  80.464  79.746  1.00  0.00     0.220 C 
ATOM      4  N   UNL     1      99.073  80.731  78.458  1.00  0.00    -0.352 N 
ATOM      5  H   UNL     1      98.280  80.202  78.126  1.00  0.00     0.163 HD
ATOM      6  O   UNL     1     100.424  81.034  80.270  1.00  0.00    -0.275 OA
BRANCH   4   7
ATOM      7  C   UNL     1      99.719  81.673  77.596  1.00  0.00     0.151 C 
BRANCH   7   8
ATOM      8  C   UNL     1      98.766  82.580  76.898  1.00  0.00    -0.025 A 
ATOM      9  C   UNL     1      97.971  83.652  74.832  1.00  0.00     0.160 A 
ATOM     10  C   UNL     1      96.926  84.271  75.553  1.00  0.00     0.157 A 
ATOM     11  C   UNL     1      98.892  82.828  75.512  1.00  0.00     0.056 A 
ATOM     12  C   UNL     1      96.813  84.062  76.939  1.00  0.00     0.050 A 
ATOM     13  C   UNL     1      97.719  83.215  77.607  1.00  0.00     0.009 A 
BRANCH   9  14
ATOM     14  O   UNL     1      98.114  83.879  73.491  1.00  0.00    -0.493 OA
ATOM     15  C   UNL     1      99.412  84.379  73.122  1.00  0.00     0.278 C 
ENDBRANCH   9  14
BRANCH  10  16
ATOM     16  O   UNL     1      96.025  85.071  74.924  1.00  0.00    -0.504 OA
ATOM     17  H   UNL     1      96.247  85.991  75.087  1.00  0.00     0.293 HD
ENDBRANCH  10  16
ENDBRANCH   7   8
ENDBRANCH   4   7
ENDBRANCH   2   3
ENDBRANCH   1   2
BRANCH   1  18
ATOM     18  C   UNL     1      96.813  81.076  81.472  1.00  0.00     0.001 C 
BRANCH  18  19
ATOM     19  C   UNL     1      97.181  82.583  81.362  1.00  0.00     0.000 C 
BRANCH  19  20
ATOM     20  C   UNL     1      96.283  83.459  82.280  1.00  0.00     0.000 C 
BRANCH  20  21
ATOM     21  C   UNL     1      96.663  83.404  83.785  1.00  0.00     0.003 C 
BRANCH  21  22
ATOM     22  C   UNL     1      95.721  82.516  84.662  1.00  0.00    -0.017 C 
ATOM     23  C   UNL     1      94.323  82.383  83.995  1.00  0.00     0.007 C 
ATOM     24  C   UNL     1      95.579  83.016  86.130  1.00  0.00     0.007 C 
ENDBRANCH  21  22
ENDBRANCH  20  21
ENDBRANCH  19  20
ENDBRANCH  18  19
ENDBRANCH   1  18
TORSDOF 11
ENDMDL
MODEL 5
REMARK VINA RESULT:    -5.478     12.595     16.504
REMARK INTER + INTRA:          -9.480
REMARK INTER:                  -8.979
REMARK INTRA:                  -0.500
REMARK UNBOUND:                -0.639
REMARK SMILES COc1cc(CNC(=O)CCCCCCC(C)C)ccc1O
REMARK SMILES IDX 11 1 10 2 8 3 7 4 9 6 6 7 5 8 3 9 21 10 4 11 20 12 19 13
REMARK SMILES IDX 2 14 1 15 22 16 12 18 13 19 14 20 15 21 16 22 17 23 18 24
REMARK H PARENT 7 5 22 17
REMARK Flexibility Score: inf
ROOT
ATOM      1  C   UNL     1      94.817  97.715  75.925  1.00  0.00     0.010 C 
ENDROOT
BRANCH   1   2
ATOM      2  C   UNL     1      94.445  96.211  75.812  1.00  0.00     0.100 C 
BRANCH   2   3
ATOM      3  C   UNL     1      93.200  95.860  76.532  1.00  0.00     0.220 C 
ATOM      4  N   UNL     1      91.998  95.893  75.887  1.00  0.00    -0.352 N 
ATOM      5  H   UNL     1      92.043  96.210  74.930  1.00  0.00     0.163 HD
ATOM      6  O   UNL     1      93.280  95.510  77.735  1.00  0.00    -0.275 OA
BRANCH   4   7
ATOM      7  C   UNL     1      90.742  95.520  76.462  1.00  0.00     0.151 C 
BRANCH   7   8
ATOM      8  C   UNL     1      90.447  94.066  76.335  1.00  0.00    -0.025 A 
ATOM      9  C   UNL     1      90.461  91.999  75.003  1.00  0.00     0.160 A 
ATOM     10  C   UNL     1      89.928  91.286  76.100  1.00  0.00     0.157 A 
ATOM     11  C   UNL     1      90.698  93.384  75.123  1.00  0.00     0.056 A 
ATOM     12  C   UNL     1      89.637  91.961  77.299  1.00  0.00     0.050 A 
ATOM     13  C   UNL     1      89.904  93.339  77.421  1.00  0.00     0.009 A 
BRANCH   9  14
ATOM     14  O   UNL     1      90.710  91.360  73.819  1.00  0.00    -0.493 OA
ATOM     15  C   UNL     1      89.568  90.670  73.281  1.00  0.00     0.278 C 
ENDBRANCH   9  14
BRANCH  10  16
ATOM     16  O   UNL     1      89.688  89.951  76.012  1.00  0.00    -0.504 OA
ATOM     17  H   UNL     1      90.516  89.487  75.871  1.00  0.00     0.293 HD
ENDBRANCH  10  16
ENDBRANCH   7   8
ENDBRANCH   4   7
ENDBRANCH   2   3
ENDBRANCH   1   2
BRANCH   1  18
ATOM     18  C   UNL     1      94.249  98.550  74.743  1.00  0.00     0.001 C 
BRANCH  18  19
ATOM     19  C   UNL     1      95.116  99.787  74.376  1.00  0.00     0.000 C 
BRANCH  19  20
ATOM     20  C   UNL     1      94.859 100.254  72.916  1.00  0.00     0.000 C 
BRANCH  20  21
ATOM     21  C   UNL     1      94.203  99.176  72.009  1.00  0.00     0.003 C 
BRANCH  21  22
ATOM     22  C   UNL     1      95.207  98.392  71.101  1.00  0.00    -0.017 C 
ATOM     23  C   UNL     1      95.581  97.031  71.753  1.00  0.00     0.007 C 
ATOM     24  C   UNL     1      96.491  99.198  70.747  1.00  0.00     0.007 C 
ENDBRANCH  21  22
ENDBRANCH  20  21
ENDBRANCH  19  20
ENDBRANCH  18  19
ENDBRANCH   1  18
TORSDOF 11
ENDMDL
MODEL 6
REMARK VINA RESULT:    -5.449      4.625      8.383
REMARK INTER + INTRA:          -9.433
REMARK INTER:                  -8.121
REMARK INTRA:                  -1.312
REMARK UNBOUND:                -0.639
REMARK SMILES COc1cc(CNC(=O)CCCCCCC(C)C)ccc1O
REMARK SMILES IDX 11 1 10 2 8 3 7 4 9 6 6 7 5 8 3 9 21 10 4 11 20 12 19 13
REMARK SMILES IDX 2 14 1 15 22 16 12 18 13 19 14 20 15 21 16 22 17 23 18 24
REMARK H PARENT 7 5 22 17
REMARK Flexibility Score: inf
ROOT
ATOM      1  C   UNL     1      97.112  83.539  77.003  1.00  0.00     0.010 C 
ENDROOT
BRANCH   1   2
ATOM      2  C   UNL     1      96.341  83.653  78.347  1.00  0.00     0.100 C 
BRANCH   2   3
ATOM      3  C   UNL     1      97.139  83.221  79.517  1.00  0.00     0.220 C 
ATOM      4  N   UNL     1      98.265  82.469  79.344  1.00  0.00    -0.352 N 
ATOM      5  H   UNL     1      98.458  82.214  78.387  1.00  0.00     0.163 HD
ATOM      6  O   UNL     1      96.772  83.581  80.662  1.00  0.00    -0.275 OA
BRANCH   4   7
ATOM      7  C   UNL     1      99.143  82.044  80.391  1.00  0.00     0.151 C 
BRANCH   7   8
ATOM      8  C   UNL     1     100.473  81.594  79.895  1.00  0.00    -0.025 A 
ATOM      9  C   UNL     1     102.044  81.242  78.036  1.00  0.00     0.160 A 
ATOM     10  C   UNL     1     103.020  80.779  78.946  1.00  0.00     0.157 A 
ATOM     11  C   UNL     1     100.774  81.627  78.514  1.00  0.00     0.056 A 
ATOM     12  C   UNL     1     102.718  80.704  80.317  1.00  0.00     0.050 A 
ATOM     13  C   UNL     1     101.458  81.118  80.791  1.00  0.00     0.009 A 
BRANCH   9  14
ATOM     14  O   UNL     1     102.314  81.281  76.695  1.00  0.00    -0.493 OA
ATOM     15  C   UNL     1     101.537  80.349  75.920  1.00  0.00     0.278 C 
ENDBRANCH   9  14
BRANCH  10  16
ATOM     16  O   UNL     1     104.251  80.399  78.513  1.00  0.00    -0.504 OA
ATOM     17  H   UNL     1     104.625  81.093  77.964  1.00  0.00     0.293 HD
ENDBRANCH  10  16
ENDBRANCH   7   8
ENDBRANCH   4   7
ENDBRANCH   2   3
ENDBRANCH   1   2
BRANCH   1  18
ATOM     18  C   UNL     1      96.908  84.791  76.102  1.00  0.00     0.001 C 
BRANCH  18  19
ATOM     19  C   UNL     1      96.756  84.457  74.591  1.00  0.00     0.000 C 
BRANCH  19  20
ATOM     20  C   UNL     1      97.787  83.386  74.136  1.00  0.00     0.000 C 
BRANCH  20  21
ATOM     21  C   UNL     1      98.772  83.876  73.039  1.00  0.00     0.003 C 
BRANCH  21  22
ATOM     22  C   UNL     1     100.095  84.504  73.587  1.00  0.00    -0.017 C 
ATOM     23  C   UNL     1     100.407  83.961  75.010  1.00  0.00     0.007 C 
ATOM     24  C   UNL     1     100.095  86.061  73.586  1.00  0.00     0.007 C 
ENDBRANCH  21  22
ENDBRANCH  20  21
ENDBRANCH  19  20
ENDBRANCH  18  19
ENDBRANCH   1  18
TORSDOF 11
ENDMDL
MODEL 7
REMARK VINA RESULT:    -5.432      4.344     10.248
REMARK INTER + INTRA:          -9.406
REMARK INTER:                  -8.285
REMARK INTRA:                  -1.121
REMARK UNBOUND:                -0.639
REMARK SMILES COc1cc(CNC(=O)CCCCCCC(C)C)ccc1O
REMARK SMILES IDX 11 1 10 2 8 3 7 4 9 6 6 7 5 8 3 9 21 10 4 11 20 12 19 13
REMARK SMILES IDX 2 14 1 15 22 16 12 18 13 19 14 20 15 21 16 22 17 23 18 24
REMARK H PARENT 7 5 22 17
REMARK Flexibility Score: inf
ROOT
ATOM      1  C   UNL     1      99.837  84.865  72.042  1.00  0.00     0.010 C 
ENDROOT
BRANCH   1   2
ATOM      2  C   UNL     1      99.325  85.500  73.365  1.00  0.00     0.100 C 
BRANCH   2   3
ATOM      3  C   UNL     1      98.255  84.712  74.016  1.00  0.00     0.220 C 
ATOM      4  N   UNL     1      97.852  85.012  75.284  1.00  0.00    -0.352 N 
ATOM      5  H   UNL     1      98.368  85.760  75.724  1.00  0.00     0.163 HD
ATOM      6  O   UNL     1      97.713  83.783  73.368  1.00  0.00    -0.275 OA
BRANCH   4   7
ATOM      7  C   UNL     1      96.792  84.360  75.991  1.00  0.00     0.151 C 
BRANCH   7   8
ATOM      8  C   UNL     1      97.250  83.661  77.223  1.00  0.00    -0.025 A 
ATOM      9  C   UNL     1      98.878  82.220  78.373  1.00  0.00     0.160 A 
ATOM     10  C   UNL     1      98.156  82.362  79.578  1.00  0.00     0.157 A 
ATOM     11  C   UNL     1      98.410  82.854  77.202  1.00  0.00     0.056 A 
ATOM     12  C   UNL     1      96.978  83.131  79.602  1.00  0.00     0.050 A 
ATOM     13  C   UNL     1      96.533  83.785  78.436  1.00  0.00     0.009 A 
BRANCH   9  14
ATOM     14  O   UNL     1     100.003  81.442  78.329  1.00  0.00    -0.493 OA
ATOM     15  C   UNL     1      99.970  80.433  77.304  1.00  0.00     0.278 C 
ENDBRANCH   9  14
BRANCH  10  16
ATOM     16  O   UNL     1      98.582  81.762  80.720  1.00  0.00    -0.504 OA
ATOM     17  H   UNL     1      98.014  81.014  80.919  1.00  0.00     0.293 HD
ENDBRANCH  10  16
ENDBRANCH   7   8
ENDBRANCH   4   7
ENDBRANCH   2   3
ENDBRANCH   1   2
BRANCH   1  18
ATOM     18  C   UNL     1     101.370  84.609  72.069  1.00  0.00     0.001 C 
BRANCH  18  19
ATOM     19  C   UNL     1     101.753  83.128  72.351  1.00  0.00     0.000 C 
BRANCH  19  20
ATOM     20  C   UNL     1     100.554  82.171  72.103  1.00  0.00     0.000 C 
BRANCH  20  21
ATOM     21  C   UNL     1     100.658  81.346  70.790  1.00  0.00     0.003 C 
BRANCH  21  22
ATOM     22  C   UNL     1      99.904  81.968  69.570  1.00  0.00    -0.017 C 
ATOM     23  C   UNL     1      99.008  80.900  68.882  1.00  0.00     0.007 C 
ATOM     24  C   UNL     1     100.847  82.641  68.529  1.00  0.00     0.007 C 
ENDBRANCH  21  22
ENDBRANCH  20  21
ENDBRANCH  19  20
ENDBRANCH  18  19
ENDBRANCH   1  18
TORSDOF 11
ENDMDL
MODEL 8
REMARK VINA RESULT:    -5.417      3.922      8.771
REMARK INTER + INTRA:          -9.381
REMARK INTER:                  -8.060
REMARK INTRA:                  -1.322
REMARK UNBOUND:                -0.639
REMARK SMILES COc1cc(CNC(=O)CCCCCCC(C)C)ccc1O
REMARK SMILES IDX 11 1 10 2 8 3 7 4 9 6 6 7 5 8 3 9 21 10 4 11 20 12 19 13
REMARK SMILES IDX 2 14 1 15 22 16 12 18 13 19 14 20 15 21 16 22 17 23 18 24
REMARK H PARENT 7 5 22 17
REMARK Flexibility Score: inf
ROOT
ATOM      1  C   UNL     1     101.346  82.686  74.229  1.00  0.00     0.010 C 
ENDROOT
BRANCH   1   2
ATOM      2  C   UNL     1     101.618  82.590  75.756  1.00  0.00     0.100 C 
BRANCH   2   3
ATOM      3  C   UNL     1     100.615  81.774  76.478  1.00  0.00     0.220 C 
ATOM      4  N   UNL     1      99.288  82.075  76.387  1.00  0.00    -0.352 N 
ATOM      5  H   UNL     1      99.078  82.897  75.841  1.00  0.00     0.163 HD
ATOM      6  O   UNL     1     101.012  80.791  77.151  1.00  0.00    -0.275 OA
BRANCH   4   7
ATOM      7  C   UNL     1      98.228  81.326  76.991  1.00  0.00     0.151 C 
BRANCH   7   8
ATOM      8  C   UNL     1      97.839  81.838  78.334  1.00  0.00    -0.025 A 
ATOM      9  C   UNL     1      97.583  81.489  80.755  1.00  0.00     0.160 A 
ATOM     10  C   UNL     1      97.140  82.822  80.902  1.00  0.00     0.157 A 
ATOM     11  C   UNL     1      97.910  81.003  79.472  1.00  0.00     0.056 A 
ATOM     12  C   UNL     1      97.027  83.651  79.772  1.00  0.00     0.050 A 
ATOM     13  C   UNL     1      97.384  83.168  78.498  1.00  0.00     0.009 A 
BRANCH   9  14
ATOM     14  O   UNL     1      97.659  80.662  81.842  1.00  0.00    -0.493 OA
ATOM     15  C   UNL     1      97.013  79.391  81.650  1.00  0.00     0.278 C 
ENDBRANCH   9  14
BRANCH  10  16
ATOM     16  O   UNL     1      96.817  83.317  82.126  1.00  0.00    -0.504 OA
ATOM     17  H   UNL     1      97.235  82.784  82.807  1.00  0.00     0.293 HD
ENDBRANCH  10  16
ENDBRANCH   7   8
ENDBRANCH   4   7
ENDBRANCH   2   3
ENDBRANCH   1   2
BRANCH   1  18
ATOM     18  C   UNL     1     101.615  84.114  73.674  1.00  0.00     0.001 C 
BRANCH  18  19
ATOM     19  C   UNL     1     100.973  84.376  72.282  1.00  0.00     0.000 C 
BRANCH  19  20
ATOM     20  C   UNL     1      99.744  85.323  72.389  1.00  0.00     0.000 C 
BRANCH  20  21
ATOM     21  C   UNL     1      99.002  85.253  73.752  1.00  0.00     0.003 C 
BRANCH  21  22
ATOM     22  C   UNL     1      97.652  84.464  73.718  1.00  0.00    -0.017 C 
ATOM     23  C   UNL     1      96.957  84.515  75.108  1.00  0.00     0.007 C 
ATOM     24  C   UNL     1      97.801  82.991  73.236  1.00  0.00     0.007 C 
ENDBRANCH  21  22
ENDBRANCH  20  21
ENDBRANCH  19  20
ENDBRANCH  18  19
ENDBRANCH   1  18
TORSDOF 11
ENDMDL
MODEL 9
REMARK VINA RESULT:    -5.353      4.527      8.680
REMARK INTER + INTRA:          -9.278
REMARK INTER:                  -8.377
REMARK INTRA:                  -0.901
REMARK UNBOUND:                -0.639
REMARK SMILES COc1cc(CNC(=O)CCCCCCC(C)C)ccc1O
REMARK SMILES IDX 11 1 10 2 8 3 7 4 9 6 6 7 5 8 3 9 21 10 4 11 20 12 19 13
REMARK SMILES IDX 2 14 1 15 22 16 12 18 13 19 14 20 15 21 16 22 17 23 18 24
REMARK H PARENT 7 5 22 17
REMARK Flexibility Score: inf
ROOT
ATOM      1  C   UNL     1      96.644  77.103  82.747  1.00  0.00     0.010 C 
ENDROOT
BRANCH   1   2
ATOM      2  C   UNL     1      96.643  77.819  84.126  1.00  0.00     0.100 C 
BRANCH   2   3
ATOM      3  C   UNL     1      95.324  77.794  84.797  1.00  0.00     0.220 C 
ATOM      4  N   UNL     1      94.178  77.932  84.070  1.00  0.00    -0.352 N 
ATOM      5  H   UNL     1      94.321  78.090  83.083  1.00  0.00     0.163 HD
ATOM      6  O   UNL     1      95.284  77.619  86.040  1.00  0.00    -0.275 OA
BRANCH   4   7
ATOM      7  C   UNL     1      92.850  77.865  84.600  1.00  0.00     0.151 C 
BRANCH   7   8
ATOM      8  C   UNL     1      92.086  79.132  84.430  1.00  0.00    -0.025 A 
ATOM      9  C   UNL     1      92.013  81.591  84.431  1.00  0.00     0.160 A 
ATOM     10  C   UNL     1      90.650  81.552  84.064  1.00  0.00     0.157 A 
ATOM     11  C   UNL     1      92.714  80.383  84.629  1.00  0.00     0.056 A 
ATOM     12  C   UNL     1      90.003  80.313  83.902  1.00  0.00     0.050 A 
ATOM     13  C   UNL     1      90.717  79.111  84.073  1.00  0.00     0.009 A 
BRANCH   9  14
ATOM     14  O   UNL     1      92.641  82.790  84.630  1.00  0.00    -0.493 OA
ATOM     15  C   UNL     1      94.077  82.704  84.604  1.00  0.00     0.278 C 
ENDBRANCH   9  14
BRANCH  10  16
ATOM     16  O   UNL     1      89.948  82.700  83.869  1.00  0.00    -0.504 OA
ATOM     17  H   UNL     1      89.821  83.144  84.710  1.00  0.00     0.293 HD
ENDBRANCH  10  16
ENDBRANCH   7   8
ENDBRANCH   4   7
ENDBRANCH   2   3
ENDBRANCH   1   2
BRANCH   1  18
ATOM     18  C   UNL     1      97.040  78.062  81.589  1.00  0.00     0.001 C 
BRANCH  18  19
ATOM     19  C   UNL     1      97.702  79.385  82.069  1.00  0.00     0.000 C 
BRANCH  19  20
ATOM     20  C   UNL     1      97.058  80.626  81.391  1.00  0.00     0.000 C 
BRANCH  20  21
ATOM     21  C   UNL     1      97.429  80.798  79.892  1.00  0.00     0.003 C 
BRANCH  21  22
ATOM     22  C   UNL     1      98.114  82.161  79.544  1.00  0.00    -0.017 C 
ATOM     23  C   UNL     1      99.280  82.451  80.530  1.00  0.00     0.007 C 
ATOM     24  C   UNL     1      97.126  83.364  79.499  1.00  0.00     0.007 C 
ENDBRANCH  21  22
ENDBRANCH  20  21
ENDBRANCH  19  20
ENDBRANCH  18  19
ENDBRANCH   1  18
TORSDOF 11
ENDMDL
MODEL 10
REMARK VINA RESULT:    -5.346      4.515      9.741
REMARK INTER + INTRA:          -9.267
REMARK INTER:                  -7.812
REMARK INTRA:                  -1.455
REMARK UNBOUND:                -0.639
REMARK SMILES COc1cc(CNC(=O)CCCCCCC(C)C)ccc1O
REMARK SMILES IDX 11 1 10 2 8 3 7 4 9 6 6 7 5 8 3 9 21 10 4 11 20 12 19 13
REMARK SMILES IDX 2 14 1 15 22 16 12 18 13 19 14 20 15 21 16 22 17 23 18 24
REMARK H PARENT 7 5 22 17
REMARK Flexibility Score: inf
ROOT
ATOM      1  C   UNL     1     100.947  85.583  72.525  1.00  0.00     0.010 C 
ENDROOT
BRANCH   1   2
ATOM      2  C   UNL     1     100.004  85.884  73.722  1.00  0.00     0.100 C 
BRANCH   2   3
ATOM      3  C   UNL     1      99.215  84.708  74.155  1.00  0.00     0.220 C 
ATOM      4  N   UNL     1      98.157  84.863  75.003  1.00  0.00    -0.352 N 
ATOM      5  H   UNL     1      98.008  85.808  75.322  1.00  0.00     0.163 HD
ATOM      6  O   UNL     1      99.526  83.577  73.708  1.00  0.00    -0.275 OA
BRANCH   4   7
ATOM      7  C   UNL     1      97.290  83.811  75.443  1.00  0.00     0.151 C 
BRANCH   7   8
ATOM      8  C   UNL     1      97.447  83.487  76.887  1.00  0.00    -0.025 A 
ATOM      9  C   UNL     1      98.743  82.466  78.712  1.00  0.00     0.160 A 
ATOM     10  C   UNL     1      97.776  82.902  79.644  1.00  0.00     0.157 A 
ATOM     11  C   UNL     1      98.562  82.745  77.341  1.00  0.00     0.056 A 
ATOM     12  C   UNL     1      96.643  83.607  79.200  1.00  0.00     0.050 A 
ATOM     13  C   UNL     1      96.483  83.907  77.833  1.00  0.00     0.009 A 
BRANCH   9  14
ATOM     14  O   UNL     1      99.829  81.746  79.128  1.00  0.00    -0.493 OA
ATOM     15  C   UNL     1     100.195  80.679  78.234  1.00  0.00     0.278 C 
ENDBRANCH   9  14
BRANCH  10  16
ATOM     16  O   UNL     1      97.923  82.646  80.971  1.00  0.00    -0.504 OA
ATOM     17  H   UNL     1      97.545  83.368  81.479  1.00  0.00     0.293 HD
ENDBRANCH  10  16
ENDBRANCH   7   8
ENDBRANCH   4   7
ENDBRANCH   2   3
ENDBRANCH   1   2
BRANCH   1  18
ATOM     18  C   UNL     1     102.383  86.132  72.756  1.00  0.00     0.001 C 
BRANCH  18  19
ATOM     19  C   UNL     1     102.849  86.062  74.238  1.00  0.00     0.000 C 
BRANCH  19  20
ATOM     20  C   UNL     1     104.259  85.418  74.364  1.00  0.00     0.000 C 
BRANCH  20  21
ATOM     21  C   UNL     1     104.244  83.936  74.828  1.00  0.00     0.003 C 
BRANCH  21  22
ATOM     22  C   UNL     1     102.879  83.202  74.617  1.00  0.00    -0.017 C 
ATOM     23  C   UNL     1     102.423  82.512  75.933  1.00  0.00     0.007 C 
ATOM     24  C   UNL     1     102.892  82.181  73.442  1.00  0.00     0.007 C 
ENDBRANCH  21  22
ENDBRANCH  20  21
ENDBRANCH  19  20
ENDBRANCH  18  19
ENDBRANCH   1  18
TORSDOF 11
ENDMDL
