MODEL 1
REMARK VINA RESULT:    -6.980      0.000      0.000
REMARK INTER + INTRA:         -12.838
REMARK INTER:                 -12.284
REMARK INTRA:                  -0.554
REMARK UNBOUND:                -0.554
REMARK SMILES C=C(C)[C@]12C[C@@H](C)[C@@]34O[C@](Cc5ccccc5)(O[C@@H]1[C@@H]3C=C(COC(=O)Cc1ccc(O)c(OC)c1)C[C@]1(O)C(=O)C(C)=C[C@@H]41)O2
REMARK SMILES IDX 23 1 22 2 21 3 20 4 9 5 8 6 10 7 6 8 18 9 46 10 19 11 5 12
REMARK SMILES IDX 7 13 4 14 45 15 38 16 44 17 40 18 42 20 41 21 43 22 39 23
REMARK SMILES IDX 11 25 12 26 13 27 17 28 14 29 16 30 15 31 2 32 3 33 1 34
REMARK SMILES IDX 37 35 24 37 25 38 26 39 27 40 28 41 36 42 29 43 33 44 30 45
REMARK SMILES IDX 31 46 34 47 35 48 32 49
REMARK H PARENT 39 24 32 50
REMARK Flexibility Score: 90.00
ROOT
ATOM      1  C   UNL     1      96.541  82.799  84.453  1.00  0.00     0.264 C 
ENDROOT
BRANCH   1   2
ATOM      2  C   UNL     1      95.244  82.976  85.207  1.00  0.00    -0.033 C 
ATOM      3  C   UNL     1      94.252  82.079  85.033  1.00  0.00    -0.015 C 
BRANCH   3   4
ATOM      4  C   UNL     1      92.844  82.074  85.606  1.00  0.00     0.078 C 
ATOM      5  O   UNL     1      92.925  80.764  87.703  1.00  0.00    -0.319 OA
ATOM      6  C   UNL     1      92.673  82.101  87.170  1.00  0.00     0.095 C 
ATOM      7  C   UNL     1      92.346  79.682  86.950  1.00  0.00     0.289 C 
ATOM      8  C   UNL     1      91.175  82.515  87.482  1.00  0.00     0.023 C 
ATOM      9  O   UNL     1      92.797  79.692  85.598  1.00  0.00    -0.320 OA
ATOM     10  O   UNL     1      90.925  79.769  86.881  1.00  0.00    -0.313 OA
ATOM     11  C   UNL     1      92.075  80.829  85.100  1.00  0.00     0.170 C 
ATOM     12  C   UNL     1      90.196  81.981  86.391  1.00  0.00     0.049 C 
ATOM     13  C   UNL     1      90.656  82.117  88.873  1.00  0.00     0.011 C 
ATOM     14  C   UNL     1      90.692  80.670  85.779  1.00  0.00     0.122 C 
BRANCH   6  15
ATOM     15  C   UNL     1      93.763  82.994  87.830  1.00  0.00     0.086 C 
ATOM     16  C   UNL     1      94.065  84.332  87.124  1.00  0.00     0.140 CG0
ATOM     17  C   UNL     1      93.621  83.385  89.274  1.00  0.00    -0.010 C 
ATOM     18  C   UNL     1      94.387  85.248  88.285  1.00  0.00     0.190 C 
ATOM     19  G   UNL     1      95.223  84.214  86.133  1.00  0.00     0.000 G0
ATOM     20  C   UNL     1      93.989  84.637  89.567  1.00  0.00    -0.008 C 
ATOM     21  O   UNL     1      94.865  86.369  88.192  1.00  0.00    -0.291 OA
ATOM     22  C   UNL     1      94.062  85.327  90.872  1.00  0.00     0.048 C 
BRANCH  16  23
ATOM     23  O   UNL     1      92.930  84.933  86.523  1.00  0.00    -0.381 OA
ATOM     24  H   UNL     1      93.121  85.874  86.378  1.00  0.00     0.212 HD
ENDBRANCH  16  23
ENDBRANCH   6  15
BRANCH   7  25
ATOM     25  C   UNL     1      92.741  78.377  87.612  1.00  0.00     0.135 C 
BRANCH  25  26
ATOM     26  C   UNL     1      93.187  77.345  86.606  1.00  0.00    -0.040 A 
ATOM     27  C   UNL     1      94.417  77.486  85.962  1.00  0.00     0.004 A 
ATOM     28  C   UNL     1      92.372  76.251  86.320  1.00  0.00     0.004 A 
ATOM     29  C   UNL     1      94.831  76.532  85.032  1.00  0.00     0.000 A 
ATOM     30  C   UNL     1      92.786  75.296  85.390  1.00  0.00     0.000 A 
ATOM     31  C   UNL     1      94.015  75.438  84.746  1.00  0.00     0.000 A 
ENDBRANCH  25  26
ENDBRANCH   7  25
BRANCH  14  32
ATOM     32  C   UNL     1      89.687  80.046  84.866  1.00  0.00    -0.046 C 
ATOM     33  C   UNL     1      88.395  80.789  84.696  1.00  0.00     0.042 C 
ATOM     34  C   UNL     1      89.926  78.887  84.234  1.00  0.00     0.010 C 
ENDBRANCH  14  32
ENDBRANCH   3   4
BRANCH   2  35
ATOM     35  C   UNL     1      95.241  84.197  86.107  1.00  0.00     0.078 CG0
ATOM     36  G   UNL     1      94.086  84.332  87.099  1.00  0.00     0.000 G0
ENDBRANCH   2  35
ENDBRANCH   1   2
BRANCH   1  37
ATOM     37  O   UNL     1      96.276  82.774  83.067  1.00  0.00    -0.461 OA
BRANCH  37  38
ATOM     38  C   UNL     1      97.079  81.953  82.309  1.00  0.00     0.310 C 
ATOM     39  O   UNL     1      97.068  80.731  82.348  1.00  0.00    -0.252 OA
BRANCH  38  40
ATOM     40  C   UNL     1      97.970  82.795  81.426  1.00  0.00     0.158 C 
BRANCH  40  41
ATOM     41  C   UNL     1      97.902  82.398  79.974  1.00  0.00    -0.033 A 
ATOM     42  C   UNL     1      99.044  81.928  79.325  1.00  0.00     0.054 A 
ATOM     43  C   UNL     1      96.697  82.501  79.278  1.00  0.00     0.008 A 
ATOM     44  C   UNL     1      98.981  81.561  77.981  1.00  0.00     0.160 A 
ATOM     45  C   UNL     1      96.635  82.134  77.934  1.00  0.00     0.050 A 
ATOM     46  C   UNL     1      97.776  81.664  77.285  1.00  0.00     0.157 A 
BRANCH  44  47
ATOM     47  O   UNL     1     100.103  81.103  77.358  1.00  0.00    -0.493 OA
ATOM     48  C   UNL     1     100.899  82.065  76.667  1.00  0.00     0.278 C 
ENDBRANCH  44  47
BRANCH  46  49
ATOM     49  O   UNL     1      97.702  81.308  75.973  1.00  0.00    -0.504 OA
ATOM     50  H   UNL     1      97.164  80.502  75.893  1.00  0.00     0.293 HD
ENDBRANCH  46  49
ENDBRANCH  40  41
ENDBRANCH  38  40
ENDBRANCH  37  38
ENDBRANCH   1  37
TORSDOF 11
ENDMDL
MODEL 2
REMARK VINA RESULT:    -6.651     18.233     21.474
REMARK INTER + INTRA:         -12.260
REMARK INTER:                 -10.831
REMARK INTRA:                  -1.429
REMARK UNBOUND:                -0.554
REMARK SMILES C=C(C)[C@]12C[C@@H](C)[C@@]34O[C@](Cc5ccccc5)(O[C@@H]1[C@@H]3C=C(COC(=O)Cc1ccc(O)c(OC)c1)C[C@]1(O)C(=O)C(C)=C[C@@H]41)O2
REMARK SMILES IDX 23 1 22 2 21 3 20 4 9 5 8 6 10 7 6 8 18 9 46 10 19 11 5 12
REMARK SMILES IDX 7 13 4 14 45 15 38 16 44 17 40 18 42 20 41 21 43 22 39 23
REMARK SMILES IDX 11 25 12 26 13 27 17 28 14 29 16 30 15 31 2 32 3 33 1 34
REMARK SMILES IDX 37 35 24 37 25 38 26 39 27 40 28 41 36 42 29 43 33 44 30 45
REMARK SMILES IDX 31 46 34 47 35 48 32 49
REMARK H PARENT 39 24 32 50
REMARK Flexibility Score: 90.00
ROOT
ATOM      1  C   UNL     1      86.845  66.655  67.686  1.00  0.00     0.264 C 
ENDROOT
BRANCH   1   2
ATOM      2  C   UNL     1      86.323  67.312  68.942  1.00  0.00    -0.033 C 
ATOM      3  C   UNL     1      85.178  66.865  69.494  1.00  0.00    -0.015 C 
BRANCH   3   4
ATOM      4  C   UNL     1      84.412  67.397  70.694  1.00  0.00     0.078 C 
ATOM      5  O   UNL     1      85.233  66.163  72.675  1.00  0.00    -0.319 OA
ATOM      6  C   UNL     1      85.161  67.493  72.076  1.00  0.00     0.095 C 
ATOM      7  C   UNL     1      84.029  65.378  72.580  1.00  0.00     0.289 C 
ATOM      8  C   UNL     1      84.312  68.446  73.016  1.00  0.00     0.023 C 
ATOM      9  O   UNL     1      83.626  65.211  71.223  1.00  0.00    -0.320 OA
ATOM     10  O   UNL     1      82.925  65.998  73.235  1.00  0.00    -0.313 OA
ATOM     11  C   UNL     1      83.149  66.534  70.937  1.00  0.00     0.170 C 
ATOM     12  C   UNL     1      82.784  68.318  72.728  1.00  0.00     0.049 C 
ATOM     13  C   UNL     1      84.563  68.280  74.523  1.00  0.00     0.011 C 
ATOM     14  C   UNL     1      82.414  66.915  72.246  1.00  0.00     0.122 C 
BRANCH   6  15
ATOM     15  C   UNL     1      86.647  67.908  71.871  1.00  0.00     0.086 C 
ATOM     16  C   UNL     1      86.905  69.025  70.838  1.00  0.00     0.140 CG0
ATOM     17  C   UNL     1      87.463  68.335  73.059  1.00  0.00    -0.010 C 
ATOM     18  C   UNL     1      88.085  69.758  71.439  1.00  0.00     0.190 C 
ATOM     19  G   UNL     1      87.208  68.467  69.448  1.00  0.00     0.000 G0
ATOM     20  C   UNL     1      88.301  69.353  72.841  1.00  0.00    -0.008 C 
ATOM     21  O   UNL     1      88.752  70.611  70.873  1.00  0.00    -0.291 OA
ATOM     22  C   UNL     1      89.298  69.973  73.738  1.00  0.00     0.048 C 
BRANCH  16  23
ATOM     23  O   UNL     1      85.884  70.008  70.790  1.00  0.00    -0.381 OA
ATOM     24  H   UNL     1      85.679  70.192  69.858  1.00  0.00     0.212 HD
ENDBRANCH  16  23
ENDBRANCH   6  15
BRANCH   7  25
ATOM     25  C   UNL     1      84.293  64.024  73.207  1.00  0.00     0.135 C 
BRANCH  25  26
ATOM     26  C   UNL     1      84.209  64.071  74.712  1.00  0.00    -0.040 A 
ATOM     27  C   UNL     1      85.341  63.803  75.483  1.00  0.00     0.004 A 
ATOM     28  C   UNL     1      83.000  64.384  75.334  1.00  0.00     0.004 A 
ATOM     29  C   UNL     1      85.263  63.847  76.875  1.00  0.00     0.000 A 
ATOM     30  C   UNL     1      82.922  64.427  76.726  1.00  0.00     0.000 A 
ATOM     31  C   UNL     1      84.054  64.159  77.496  1.00  0.00     0.000 A 
ENDBRANCH  25  26
ENDBRANCH   7  25
BRANCH  14  32
ATOM     32  C   UNL     1      80.937  66.716  72.139  1.00  0.00    -0.046 C 
ATOM     33  C   UNL     1      80.190  66.587  73.433  1.00  0.00     0.042 C 
ATOM     34  C   UNL     1      80.314  66.655  70.953  1.00  0.00     0.010 C 
ENDBRANCH  14  32
ENDBRANCH   3   4
BRANCH   2  35
ATOM     35  C   UNL     1      87.212  68.438  69.437  1.00  0.00     0.078 CG0
ATOM     36  G   UNL     1      86.910  69.009  70.822  1.00  0.00     0.000 G0
ENDBRANCH   2  35
ENDBRANCH   1   2
BRANCH   1  37
ATOM     37  O   UNL     1      86.157  67.173  66.567  1.00  0.00    -0.461 OA
BRANCH  37  38
ATOM     38  C   UNL     1      86.936  67.596  65.516  1.00  0.00     0.310 C 
ATOM     39  O   UNL     1      87.775  66.913  64.944  1.00  0.00    -0.252 OA
BRANCH  38  40
ATOM     40  C   UNL     1      86.596  69.029  65.179  1.00  0.00     0.158 C 
BRANCH  40  41
ATOM     41  C   UNL     1      87.294  70.023  66.071  1.00  0.00    -0.033 A 
ATOM     42  C   UNL     1      88.684  69.995  66.194  1.00  0.00     0.054 A 
ATOM     43  C   UNL     1      86.551  70.972  66.773  1.00  0.00     0.008 A 
ATOM     44  C   UNL     1      89.330  70.916  67.019  1.00  0.00     0.160 A 
ATOM     45  C   UNL     1      87.197  71.893  67.598  1.00  0.00     0.050 A 
ATOM     46  C   UNL     1      88.586  71.865  67.722  1.00  0.00     0.157 A 
BRANCH  44  47
ATOM     47  O   UNL     1      90.687  70.878  67.132  1.00  0.00    -0.493 OA
ATOM     48  C   UNL     1      91.222  70.327  68.334  1.00  0.00     0.278 C 
ENDBRANCH  44  47
BRANCH  46  49
ATOM     49  O   UNL     1      89.206  72.769  68.529  1.00  0.00    -0.504 OA
ATOM     50  H   UNL     1      89.573  73.484  67.982  1.00  0.00     0.293 HD
ENDBRANCH  46  49
ENDBRANCH  40  41
ENDBRANCH  38  40
ENDBRANCH  37  38
ENDBRANCH   1  37
TORSDOF 11
ENDMDL
MODEL 3
REMARK VINA RESULT:    -6.629     17.377     20.541
REMARK INTER + INTRA:         -12.221
REMARK INTER:                 -11.320
REMARK INTRA:                  -0.901
REMARK UNBOUND:                -0.554
REMARK SMILES C=C(C)[C@]12C[C@@H](C)[C@@]34O[C@](Cc5ccccc5)(O[C@@H]1[C@@H]3C=C(COC(=O)Cc1ccc(O)c(OC)c1)C[C@]1(O)C(=O)C(C)=C[C@@H]41)O2
REMARK SMILES IDX 23 1 22 2 21 3 20 4 9 5 8 6 10 7 6 8 18 9 46 10 19 11 5 12
REMARK SMILES IDX 7 13 4 14 45 15 38 16 44 17 40 18 42 20 41 21 43 22 39 23
REMARK SMILES IDX 11 25 12 26 13 27 17 28 14 29 16 30 15 31 2 32 3 33 1 34
REMARK SMILES IDX 37 35 24 37 25 38 26 39 27 40 28 41 36 42 29 43 33 44 30 45
REMARK SMILES IDX 31 46 34 47 35 48 32 49
REMARK H PARENT 39 24 32 50
REMARK Flexibility Score: 90.00
ROOT
ATOM      1  C   UNL     1      87.364  66.964  70.472  1.00  0.00     0.264 C 
ENDROOT
BRANCH   1   2
ATOM      2  C   UNL     1      86.382  67.315  71.565  1.00  0.00    -0.033 C 
ATOM      3  C   UNL     1      85.257  66.584  71.701  1.00  0.00    -0.015 C 
BRANCH   3   4
ATOM      4  C   UNL     1      84.091  66.777  72.657  1.00  0.00     0.078 C 
ATOM      5  O   UNL     1      84.585  65.436  74.676  1.00  0.00    -0.319 OA
ATOM      6  C   UNL     1      84.386  66.804  74.203  1.00  0.00     0.095 C 
ATOM      7  C   UNL     1      83.662  64.462  74.153  1.00  0.00     0.289 C 
ATOM      8  C   UNL     1      83.120  67.428  74.922  1.00  0.00     0.023 C 
ATOM      9  O   UNL     1      83.698  64.428  72.729  1.00  0.00    -0.320 OA
ATOM     10  O   UNL     1      82.311  64.759  74.496  1.00  0.00    -0.313 OA
ATOM     11  C   UNL     1      83.036  65.666  72.430  1.00  0.00     0.170 C 
ATOM     12  C   UNL     1      81.800  67.061  74.176  1.00  0.00     0.049 C 
ATOM     13  C   UNL     1      82.975  67.089  76.415  1.00  0.00     0.011 C 
ATOM     14  C   UNL     1      81.901  65.702  73.484  1.00  0.00     0.122 C 
BRANCH   6  15
ATOM     15  C   UNL     1      85.739  67.516  74.494  1.00  0.00     0.086 C 
ATOM     16  C   UNL     1      86.020  68.799  73.684  1.00  0.00     0.140 CG0
ATOM     17  C   UNL     1      86.075  67.912  75.904  1.00  0.00    -0.010 C 
ATOM     18  C   UNL     1      86.792  69.646  74.674  1.00  0.00     0.190 C 
ATOM     19  G   UNL     1      86.816  68.515  72.411  1.00  0.00     0.000 G0
ATOM     20  C   UNL     1      86.692  69.091  76.037  1.00  0.00    -0.008 C 
ATOM     21  O   UNL     1      87.383  70.682  74.409  1.00  0.00    -0.291 OA
ATOM     22  C   UNL     1      87.235  69.751  77.242  1.00  0.00     0.048 C 
BRANCH  16  23
ATOM     23  O   UNL     1      84.862  69.570  73.410  1.00  0.00    -0.381 OA
ATOM     24  H   UNL     1      84.341  69.643  74.227  1.00  0.00     0.212 HD
ENDBRANCH  16  23
ENDBRANCH   6  15
BRANCH   7  25
ATOM     25  C   UNL     1      84.038  63.104  74.708  1.00  0.00     0.135 C 
BRANCH  25  26
ATOM     26  C   UNL     1      84.734  63.211  76.042  1.00  0.00    -0.040 A 
ATOM     27  C   UNL     1      86.118  63.051  76.120  1.00  0.00     0.004 A 
ATOM     28  C   UNL     1      83.996  63.471  77.196  1.00  0.00     0.004 A 
ATOM     29  C   UNL     1      86.763  63.150  77.354  1.00  0.00     0.000 A 
ATOM     30  C   UNL     1      84.641  63.571  78.429  1.00  0.00     0.000 A 
ATOM     31  C   UNL     1      86.024  63.410  78.507  1.00  0.00     0.000 A 
ENDBRANCH  25  26
ENDBRANCH   7  25
BRANCH  14  32
ATOM     32  C   UNL     1      80.595  65.247  72.918  1.00  0.00    -0.046 C 
ATOM     33  C   UNL     1      79.825  64.258  73.742  1.00  0.00     0.042 C 
ATOM     34  C   UNL     1      80.137  65.698  71.741  1.00  0.00     0.010 C 
ENDBRANCH  14  32
ENDBRANCH   3   4
BRANCH   2  35
ATOM     35  C   UNL     1      86.825  68.498  72.405  1.00  0.00     0.078 CG0
ATOM     36  G   UNL     1      86.020  68.799  73.668  1.00  0.00     0.000 G0
ENDBRANCH   2  35
ENDBRANCH   1   2
BRANCH   1  37
ATOM     37  O   UNL     1      87.750  68.141  69.796  1.00  0.00    -0.461 OA
BRANCH  37  38
ATOM     38  C   UNL     1      88.062  68.003  68.463  1.00  0.00     0.310 C 
ATOM     39  O   UNL     1      88.773  67.124  67.996  1.00  0.00    -0.252 OA
BRANCH  38  40
ATOM     40  C   UNL     1      87.391  69.100  67.671  1.00  0.00     0.158 C 
BRANCH  40  41
ATOM     41  C   UNL     1      88.154  70.400  67.706  1.00  0.00    -0.033 A 
ATOM     42  C   UNL     1      88.869  70.819  66.583  1.00  0.00     0.054 A 
ATOM     43  C   UNL     1      88.145  71.184  68.859  1.00  0.00     0.008 A 
ATOM     44  C   UNL     1      89.575  72.022  66.615  1.00  0.00     0.160 A 
ATOM     45  C   UNL     1      88.851  72.387  68.891  1.00  0.00     0.050 A 
ATOM     46  C   UNL     1      89.566  72.806  67.769  1.00  0.00     0.157 A 
BRANCH  44  47
ATOM     47  O   UNL     1      90.269  72.420  65.513  1.00  0.00    -0.493 OA
ATOM     48  C   UNL     1      89.553  73.168  64.531  1.00  0.00     0.278 C 
ENDBRANCH  44  47
BRANCH  46  49
ATOM     49  O   UNL     1      90.250  73.982  67.812  1.00  0.00    -0.504 OA
ATOM     50  H   UNL     1      91.095  73.841  68.272  1.00  0.00     0.293 HD
ENDBRANCH  46  49
ENDBRANCH  40  41
ENDBRANCH  38  40
ENDBRANCH  37  38
ENDBRANCH   1  37
TORSDOF 11
ENDMDL
MODEL 4
REMARK VINA RESULT:    -6.574      3.269      8.574
REMARK INTER + INTRA:         -12.124
REMARK INTER:                  -9.740
REMARK INTRA:                  -2.384
REMARK UNBOUND:                -0.554
REMARK SMILES C=C(C)[C@]12C[C@@H](C)[C@@]34O[C@](Cc5ccccc5)(O[C@@H]1[C@@H]3C=C(COC(=O)Cc1ccc(O)c(OC)c1)C[C@]1(O)C(=O)C(C)=C[C@@H]41)O2
REMARK SMILES IDX 23 1 22 2 21 3 20 4 9 5 8 6 10 7 6 8 18 9 46 10 19 11 5 12
REMARK SMILES IDX 7 13 4 14 45 15 38 16 44 17 40 18 42 20 41 21 43 22 39 23
REMARK SMILES IDX 11 25 12 26 13 27 17 28 14 29 16 30 15 31 2 32 3 33 1 34
REMARK SMILES IDX 37 35 24 37 25 38 26 39 27 40 28 41 36 42 29 43 33 44 30 45
REMARK SMILES IDX 31 46 34 47 35 48 32 49
REMARK H PARENT 39 24 32 50
REMARK Flexibility Score: 90.00
ROOT
ATOM      1  C   UNL     1      95.132  87.077  86.863  1.00  0.00     0.264 C 
ENDROOT
BRANCH   1   2
ATOM      2  C   UNL     1      94.931  85.677  86.331  1.00  0.00    -0.033 C 
ATOM      3  C   UNL     1      95.831  85.165  85.468  1.00  0.00    -0.015 C 
BRANCH   3   4
ATOM      4  C   UNL     1      95.818  83.831  84.738  1.00  0.00     0.078 C 
ATOM      5  O   UNL     1      97.067  82.227  86.148  1.00  0.00    -0.319 OA
ATOM      6  C   UNL     1      95.745  82.511  85.593  1.00  0.00     0.095 C 
ATOM      7  C   UNL     1      98.170  82.419  85.242  1.00  0.00     0.289 C 
ATOM      8  C   UNL     1      95.321  81.333  84.622  1.00  0.00     0.023 C 
ATOM      9  O   UNL     1      98.199  83.752  84.738  1.00  0.00    -0.320 OA
ATOM     10  O   UNL     1      98.082  81.576  84.096  1.00  0.00    -0.313 OA
ATOM     11  C   UNL     1      97.076  83.708  83.844  1.00  0.00     0.170 C 
ATOM     12  C   UNL     1      95.885  81.548  83.184  1.00  0.00     0.049 C 
ATOM     13  C   UNL     1      95.678  79.918  85.105  1.00  0.00     0.011 C 
ATOM     14  C   UNL     1      97.213  82.304  83.203  1.00  0.00     0.122 C 
BRANCH   6  15
ATOM     15  C   UNL     1      94.836  82.710  86.840  1.00  0.00     0.086 C 
ATOM     16  C   UNL     1      93.518  83.478  86.605  1.00  0.00     0.140 CG0
ATOM     17  C   UNL     1      94.403  81.511  87.636  1.00  0.00    -0.010 C 
ATOM     18  C   UNL     1      92.570  82.803  87.573  1.00  0.00     0.190 C 
ATOM     19  G   UNL     1      93.666  84.975  86.878  1.00  0.00     0.000 G0
ATOM     20  C   UNL     1      93.145  81.545  88.085  1.00  0.00    -0.008 C 
ATOM     21  O   UNL     1      91.453  83.203  87.865  1.00  0.00    -0.291 OA
ATOM     22  C   UNL     1      92.418  80.596  88.954  1.00  0.00     0.048 C 
BRANCH  16  23
ATOM     23  O   UNL     1      92.933  83.239  85.335  1.00  0.00    -0.381 OA
ATOM     24  H   UNL     1      92.417  82.418  85.385  1.00  0.00     0.212 HD
ENDBRANCH  16  23
ENDBRANCH   6  15
BRANCH   7  25
ATOM     25  C   UNL     1      99.455  82.126  85.988  1.00  0.00     0.135 C 
BRANCH  25  26
ATOM     26  C   UNL     1      99.234  81.189  87.150  1.00  0.00    -0.040 A 
ATOM     27  C   UNL     1      99.256  81.680  88.455  1.00  0.00     0.004 A 
ATOM     28  C   UNL     1      99.005  79.833  86.918  1.00  0.00     0.004 A 
ATOM     29  C   UNL     1      99.050  80.814  89.530  1.00  0.00     0.000 A 
ATOM     30  C   UNL     1      98.799  78.967  87.993  1.00  0.00     0.000 A 
ATOM     31  C   UNL     1      98.822  79.458  89.298  1.00  0.00     0.000 A 
ENDBRANCH  25  26
ENDBRANCH   7  25
BRANCH  14  32
ATOM     32  C   UNL     1      97.862  82.362  81.859  1.00  0.00    -0.046 C 
ATOM     33  C   UNL     1      99.323  82.026  81.813  1.00  0.00     0.042 C 
ATOM     34  C   UNL     1      97.177  82.695  80.755  1.00  0.00     0.010 C 
ENDBRANCH  14  32
ENDBRANCH   3   4
BRANCH   2  35
ATOM     35  C   UNL     1      93.684  85.007  86.876  1.00  0.00     0.078 CG0
ATOM     36  G   UNL     1      93.511  83.516  86.590  1.00  0.00     0.000 G0
ENDBRANCH   2  35
ENDBRANCH   1   2
BRANCH   1  37
ATOM     37  O   UNL     1      94.112  87.374  87.793  1.00  0.00    -0.461 OA
BRANCH  37  38
ATOM     38  C   UNL     1      94.515  87.949  88.975  1.00  0.00     0.310 C 
ATOM     39  O   UNL     1      95.517  88.636  89.116  1.00  0.00    -0.252 OA
BRANCH  38  40
ATOM     40  C   UNL     1      93.531  87.600  90.067  1.00  0.00     0.158 C 
BRANCH  40  41
ATOM     41  C   UNL     1      93.578  86.145  90.458  1.00  0.00    -0.033 A 
ATOM     42  C   UNL     1      92.402  85.476  90.797  1.00  0.00     0.054 A 
ATOM     43  C   UNL     1      94.797  85.468  90.481  1.00  0.00     0.008 A 
ATOM     44  C   UNL     1      92.445  84.129  91.159  1.00  0.00     0.160 A 
ATOM     45  C   UNL     1      94.841  84.121  90.843  1.00  0.00     0.050 A 
ATOM     46  C   UNL     1      93.665  83.452  91.182  1.00  0.00     0.157 A 
BRANCH  44  47
ATOM     47  O   UNL     1      91.290  83.487  91.488  1.00  0.00    -0.493 OA
ATOM     48  C   UNL     1      90.095  83.934  90.851  1.00  0.00     0.278 C 
ENDBRANCH  44  47
BRANCH  46  49
ATOM     49  O   UNL     1      93.720  82.137  91.533  1.00  0.00    -0.504 OA
ATOM     50  H   UNL     1      94.354  82.030  92.262  1.00  0.00     0.293 HD
ENDBRANCH  46  49
ENDBRANCH  40  41
ENDBRANCH  38  40
ENDBRANCH  37  38
ENDBRANCH   1  37
TORSDOF 11
ENDMDL
MODEL 5
REMARK VINA RESULT:    -6.491      2.981      5.005
REMARK INTER + INTRA:         -11.977
REMARK INTER:                 -11.179
REMARK INTRA:                  -0.798
REMARK UNBOUND:                -0.554
REMARK SMILES C=C(C)[C@]12C[C@@H](C)[C@@]34O[C@](Cc5ccccc5)(O[C@@H]1[C@@H]3C=C(COC(=O)Cc1ccc(O)c(OC)c1)C[C@]1(O)C(=O)C(C)=C[C@@H]41)O2
REMARK SMILES IDX 23 1 22 2 21 3 20 4 9 5 8 6 10 7 6 8 18 9 46 10 19 11 5 12
REMARK SMILES IDX 7 13 4 14 45 15 38 16 44 17 40 18 42 20 41 21 43 22 39 23
REMARK SMILES IDX 11 25 12 26 13 27 17 28 14 29 16 30 15 31 2 32 3 33 1 34
REMARK SMILES IDX 37 35 24 37 25 38 26 39 27 40 28 41 36 42 29 43 33 44 30 45
REMARK SMILES IDX 31 46 34 47 35 48 32 49
REMARK H PARENT 39 24 32 50
REMARK Flexibility Score: 90.00
ROOT
ATOM      1  C   UNL     1      99.220  82.006  82.251  1.00  0.00     0.264 C 
ENDROOT
BRANCH   1   2
ATOM      2  C   UNL     1      98.848  82.040  83.715  1.00  0.00    -0.033 C 
ATOM      3  C   UNL     1      97.593  82.383  84.068  1.00  0.00    -0.015 C 
BRANCH   3   4
ATOM      4  C   UNL     1      96.997  82.565  85.454  1.00  0.00     0.078 C 
ATOM      5  O   UNL     1      96.020  80.389  86.110  1.00  0.00    -0.319 OA
ATOM      6  C   UNL     1      97.058  81.355  86.460  1.00  0.00     0.095 C 
ATOM      7  C   UNL     1      94.741  80.954  85.766  1.00  0.00     0.289 C 
ATOM      8  C   UNL     1      96.775  81.924  87.912  1.00  0.00     0.023 C 
ATOM      9  O   UNL     1      94.855  81.868  84.678  1.00  0.00    -0.320 OA
ATOM     10  O   UNL     1      94.175  81.703  86.839  1.00  0.00    -0.313 OA
ATOM     11  C   UNL     1      95.506  82.965  85.337  1.00  0.00     0.170 C 
ATOM     12  C   UNL     1      95.780  83.124  87.872  1.00  0.00     0.049 C 
ATOM     13  C   UNL     1      96.289  80.891  88.942  1.00  0.00     0.011 C 
ATOM     14  C   UNL     1      94.792  83.001  86.712  1.00  0.00     0.122 C 
BRANCH   6  15
ATOM     15  C   UNL     1      98.392  80.570  86.298  1.00  0.00     0.086 C 
ATOM     16  C   UNL     1      99.667  81.422  86.134  1.00  0.00     0.140 CG0
ATOM     17  C   UNL     1      98.780  79.555  87.337  1.00  0.00    -0.010 C 
ATOM     18  C   UNL     1     100.712  80.585  86.842  1.00  0.00     0.190 C 
ATOM     19  G   UNL     1     100.012  81.668  84.666  1.00  0.00     0.000 G0
ATOM     20  C   UNL     1     100.081  79.520  87.645  1.00  0.00    -0.008 C 
ATOM     21  O   UNL     1     101.917  80.780  86.809  1.00  0.00    -0.291 OA
ATOM     22  C   UNL     1     100.822  78.612  88.545  1.00  0.00     0.048 C 
BRANCH  16  23
ATOM     23  O   UNL     1      99.647  82.633  86.871  1.00  0.00    -0.381 OA
ATOM     24  H   UNL     1      99.069  83.263  86.411  1.00  0.00     0.212 HD
ENDBRANCH  16  23
ENDBRANCH   6  15
BRANCH   7  25
ATOM     25  C   UNL     1      93.806  79.823  85.390  1.00  0.00     0.135 C 
BRANCH  25  26
ATOM     26  C   UNL     1      92.376  80.125  85.761  1.00  0.00    -0.040 A 
ATOM     27  C   UNL     1      91.642  81.048  85.015  1.00  0.00     0.004 A 
ATOM     28  C   UNL     1      91.786  79.481  86.848  1.00  0.00     0.004 A 
ATOM     29  C   UNL     1      90.318  81.327  85.358  1.00  0.00     0.000 A 
ATOM     30  C   UNL     1      90.463  79.760  87.191  1.00  0.00     0.000 A 
ATOM     31  C   UNL     1      89.730  80.684  86.446  1.00  0.00     0.000 A 
ENDBRANCH  25  26
ENDBRANCH   7  25
BRANCH  14  32
ATOM     32  C   UNL     1      93.718  84.038  86.759  1.00  0.00    -0.046 C 
ATOM     33  C   UNL     1      92.677  83.866  87.826  1.00  0.00     0.042 C 
ATOM     34  C   UNL     1      93.685  85.066  85.897  1.00  0.00     0.010 C 
ENDBRANCH  14  32
ENDBRANCH   3   4
BRANCH   2  35
ATOM     35  C   UNL     1      99.997  81.657  84.629  1.00  0.00     0.078 CG0
ATOM     36  G   UNL     1      99.666  81.411  86.100  1.00  0.00     0.000 G0
ENDBRANCH   2  35
ENDBRANCH   1   2
BRANCH   1  37
ATOM     37  O   UNL     1      98.166  82.552  81.488  1.00  0.00    -0.461 OA
BRANCH  37  38
ATOM     38  C   UNL     1      97.699  81.776  80.452  1.00  0.00     0.310 C 
ATOM     39  O   UNL     1      97.871  80.570  80.345  1.00  0.00    -0.252 OA
BRANCH  38  40
ATOM     40  C   UNL     1      96.946  82.644  79.471  1.00  0.00     0.158 C 
BRANCH  40  41
ATOM     41  C   UNL     1      97.658  82.795  78.152  1.00  0.00    -0.033 A 
ATOM     42  C   UNL     1      99.047  82.673  78.091  1.00  0.00     0.054 A 
ATOM     43  C   UNL     1      96.930  83.055  76.991  1.00  0.00     0.008 A 
ATOM     44  C   UNL     1      99.706  82.812  76.869  1.00  0.00     0.160 A 
ATOM     45  C   UNL     1      97.589  83.194  75.770  1.00  0.00     0.050 A 
ATOM     46  C   UNL     1      98.977  83.073  75.709  1.00  0.00     0.157 A 
BRANCH  44  47
ATOM     47  O   UNL     1     101.062  82.692  76.823  1.00  0.00    -0.493 OA
ATOM     48  C   UNL     1     101.591  81.598  76.074  1.00  0.00     0.278 C 
ENDBRANCH  44  47
BRANCH  46  49
ATOM     49  O   UNL     1      99.609  83.210  74.510  1.00  0.00    -0.504 OA
ATOM     50  H   UNL     1      99.478  82.400  73.989  1.00  0.00     0.293 HD
ENDBRANCH  46  49
ENDBRANCH  40  41
ENDBRANCH  38  40
ENDBRANCH  37  38
ENDBRANCH   1  37
TORSDOF 11
ENDMDL
MODEL 6
REMARK VINA RESULT:    -6.464     24.267     27.318
REMARK INTER + INTRA:         -11.930
REMARK INTER:                  -8.734
REMARK INTRA:                  -3.197
REMARK UNBOUND:                -0.554
REMARK SMILES C=C(C)[C@]12C[C@@H](C)[C@@]34O[C@](Cc5ccccc5)(O[C@@H]1[C@@H]3C=C(COC(=O)Cc1ccc(O)c(OC)c1)C[C@]1(O)C(=O)C(C)=C[C@@H]41)O2
REMARK SMILES IDX 23 1 22 2 21 3 20 4 9 5 8 6 10 7 6 8 18 9 46 10 19 11 5 12
REMARK SMILES IDX 7 13 4 14 45 15 38 16 44 17 40 18 42 20 41 21 43 22 39 23
REMARK SMILES IDX 11 25 12 26 13 27 17 28 14 29 16 30 15 31 2 32 3 33 1 34
REMARK SMILES IDX 37 35 24 37 25 38 26 39 27 40 28 41 36 42 29 43 33 44 30 45
REMARK SMILES IDX 31 46 34 47 35 48 32 49
REMARK H PARENT 39 24 32 50
REMARK Flexibility Score: 90.00
ROOT
ATOM      1  C   UNL     1      77.426  99.227  75.213  1.00  0.00     0.264 C 
ENDROOT
BRANCH   1   2
ATOM      2  C   UNL     1      76.731  98.801  73.941  1.00  0.00    -0.033 C 
ATOM      3  C   UNL     1      77.393  98.030  73.055  1.00  0.00    -0.015 C 
BRANCH   3   4
ATOM      4  C   UNL     1      76.952  97.538  71.686  1.00  0.00     0.078 C 
ATOM      5  O   UNL     1      75.908  95.320  72.020  1.00  0.00    -0.319 OA
ATOM      6  C   UNL     1      75.631  96.687  71.586  1.00  0.00     0.095 C 
ATOM      7  C   UNL     1      77.145  94.759  71.539  1.00  0.00     0.289 C 
ATOM      8  C   UNL     1      75.183  96.674  70.066  1.00  0.00     0.023 C 
ATOM      9  O   UNL     1      78.259  95.561  71.922  1.00  0.00    -0.320 OA
ATOM     10  O   UNL     1      77.190  94.692  70.116  1.00  0.00    -0.313 OA
ATOM     11  C   UNL     1      78.075  96.684  71.047  1.00  0.00     0.170 C 
ATOM     12  C   UNL     1      76.413  96.702  69.108  1.00  0.00     0.049 C 
ATOM     13  C   UNL     1      74.248  95.521  69.664  1.00  0.00     0.011 C 
ATOM     14  C   UNL     1      77.628  96.010  69.726  1.00  0.00     0.122 C 
BRANCH   6  15
ATOM     15  C   UNL     1      74.564  97.205  72.594  1.00  0.00     0.086 C 
ATOM     16  C   UNL     1      74.414  98.737  72.697  1.00  0.00     0.140 CG0
ATOM     17  C   UNL     1      73.145  96.722  72.477  1.00  0.00    -0.010 C 
ATOM     18  C   UNL     1      72.933  98.903  72.964  1.00  0.00     0.190 C 
ATOM     19  G   UNL     1      75.278  99.327  73.811  1.00  0.00     0.000 G0
ATOM     20  C   UNL     1      72.205  97.645  72.706  1.00  0.00    -0.008 C 
ATOM     21  O   UNL     1      72.385  99.942  73.299  1.00  0.00    -0.291 OA
ATOM     22  C   UNL     1      70.735  97.513  72.760  1.00  0.00     0.048 C 
BRANCH  16  23
ATOM     23  O   UNL     1      74.615  99.418  71.470  1.00  0.00    -0.381 OA
ATOM     24  H   UNL     1      73.746  99.597  71.073  1.00  0.00     0.212 HD
ENDBRANCH  16  23
ENDBRANCH   6  15
BRANCH   7  25
ATOM     25  C   UNL     1      77.292  93.366  72.117  1.00  0.00     0.135 C 
BRANCH  25  26
ATOM     26  C   UNL     1      76.093  92.966  72.939  1.00  0.00    -0.040 A 
ATOM     27  C   UNL     1      74.895  92.631  72.307  1.00  0.00     0.004 A 
ATOM     28  C   UNL     1      76.181  92.928  74.330  1.00  0.00     0.004 A 
ATOM     29  C   UNL     1      73.785  92.260  73.067  1.00  0.00     0.000 A 
ATOM     30  C   UNL     1      75.071  92.557  75.090  1.00  0.00     0.000 A 
ATOM     31  C   UNL     1      73.874  92.223  74.457  1.00  0.00     0.000 A 
ENDBRANCH  25  26
ENDBRANCH   7  25
BRANCH  14  32
ATOM     32  C   UNL     1      78.758  95.863  68.760  1.00  0.00    -0.046 C 
ATOM     33  C   UNL     1      78.436  95.189  67.460  1.00  0.00     0.042 C 
ATOM     34  C   UNL     1      79.992  96.310  69.040  1.00  0.00     0.010 C 
ENDBRANCH  14  32
ENDBRANCH   3   4
BRANCH   2  35
ATOM     35  C   UNL     1      75.310  99.322  73.837  1.00  0.00     0.078 CG0
ATOM     36  G   UNL     1      74.433  98.740  72.729  1.00  0.00     0.000 G0
ENDBRANCH   2  35
ENDBRANCH   1   2
BRANCH   1  37
ATOM     37  O   UNL     1      78.237  98.170  75.679  1.00  0.00    -0.461 OA
BRANCH  37  38
ATOM     38  C   UNL     1      77.857  97.590  76.867  1.00  0.00     0.310 C 
ATOM     39  O   UNL     1      77.756  98.178  77.935  1.00  0.00    -0.252 OA
BRANCH  38  40
ATOM     40  C   UNL     1      77.586  96.121  76.647  1.00  0.00     0.158 C 
BRANCH  40  41
ATOM     41  C   UNL     1      76.154  95.739  76.923  1.00  0.00    -0.033 A 
ATOM     42  C   UNL     1      75.833  95.029  78.081  1.00  0.00     0.054 A 
ATOM     43  C   UNL     1      75.151  96.097  76.023  1.00  0.00     0.008 A 
ATOM     44  C   UNL     1      74.507  94.676  78.337  1.00  0.00     0.160 A 
ATOM     45  C   UNL     1      73.825  95.744  76.279  1.00  0.00     0.050 A 
ATOM     46  C   UNL     1      73.504  95.034  77.435  1.00  0.00     0.157 A 
BRANCH  44  47
ATOM     47  O   UNL     1      74.206  93.982  79.469  1.00  0.00    -0.493 OA
ATOM     48  C   UNL     1      74.114  94.729  80.682  1.00  0.00     0.278 C 
ENDBRANCH  44  47
BRANCH  46  49
ATOM     49  O   UNL     1      72.206  94.696  77.675  1.00  0.00    -0.504 OA
ATOM     50  H   UNL     1      72.167  93.762  77.943  1.00  0.00     0.293 HD
ENDBRANCH  46  49
ENDBRANCH  40  41
ENDBRANCH  38  40
ENDBRANCH  37  38
ENDBRANCH   1  37
TORSDOF 11
ENDMDL
MODEL 7
REMARK VINA RESULT:    -6.384      5.267     10.027
REMARK INTER + INTRA:         -11.790
REMARK INTER:                  -9.608
REMARK INTRA:                  -2.182
REMARK UNBOUND:                -0.554
REMARK SMILES C=C(C)[C@]12C[C@@H](C)[C@@]34O[C@](Cc5ccccc5)(O[C@@H]1[C@@H]3C=C(COC(=O)Cc1ccc(O)c(OC)c1)C[C@]1(O)C(=O)C(C)=C[C@@H]41)O2
REMARK SMILES IDX 23 1 22 2 21 3 20 4 9 5 8 6 10 7 6 8 18 9 46 10 19 11 5 12
REMARK SMILES IDX 7 13 4 14 45 15 38 16 44 17 40 18 42 20 41 21 43 22 39 23
REMARK SMILES IDX 11 25 12 26 13 27 17 28 14 29 16 30 15 31 2 32 3 33 1 34
REMARK SMILES IDX 37 35 24 37 25 38 26 39 27 40 28 41 36 42 29 43 33 44 30 45
REMARK SMILES IDX 31 46 34 47 35 48 32 49
REMARK H PARENT 39 24 32 50
REMARK Flexibility Score: 90.00
ROOT
ATOM      1  C   UNL     1     102.435  79.046  81.264  1.00  0.00     0.264 C 
ENDROOT
BRANCH   1   2
ATOM      2  C   UNL     1     101.333  80.009  80.887  1.00  0.00    -0.033 C 
ATOM      3  C   UNL     1     101.099  80.267  79.585  1.00  0.00    -0.015 C 
BRANCH   3   4
ATOM      4  C   UNL     1     100.116  81.240  78.956  1.00  0.00     0.078 C 
ATOM      5  O   UNL     1      98.014  79.993  78.573  1.00  0.00    -0.319 OA
ATOM      6  C   UNL     1      98.591  81.106  79.323  1.00  0.00     0.095 C 
ATOM      7  C   UNL     1      98.415  79.906  77.192  1.00  0.00     0.289 C 
ATOM      8  C   UNL     1      97.874  82.453  78.896  1.00  0.00     0.023 C 
ATOM      9  O   UNL     1      99.832  79.810  77.071  1.00  0.00    -0.320 OA
ATOM     10  O   UNL     1      98.042  81.062  76.447  1.00  0.00    -0.313 OA
ATOM     11  C   UNL     1     100.206  81.154  77.412  1.00  0.00     0.170 C 
ATOM     12  C   UNL     1      98.532  83.071  77.624  1.00  0.00     0.049 C 
ATOM     13  C   UNL     1      96.354  82.354  78.689  1.00  0.00     0.011 C 
ATOM     14  C   UNL     1      99.112  81.994  76.706  1.00  0.00     0.122 C 
BRANCH   6  15
ATOM     15  C   UNL     1      98.417  80.700  80.815  1.00  0.00     0.086 C 
ATOM     16  C   UNL     1      99.353  81.398  81.824  1.00  0.00     0.140 CG0
ATOM     17  C   UNL     1      97.063  80.816  81.457  1.00  0.00    -0.010 C 
ATOM     18  C   UNL     1      98.475  81.521  83.052  1.00  0.00     0.190 C 
ATOM     19  G   UNL     1     100.621  80.589  82.089  1.00  0.00     0.000 G0
ATOM     20  C   UNL     1      97.064  81.249  82.722  1.00  0.00    -0.008 C 
ATOM     21  O   UNL     1      98.857  81.852  84.164  1.00  0.00    -0.291 OA
ATOM     22  C   UNL     1      95.946  81.404  83.676  1.00  0.00     0.048 C 
BRANCH  16  23
ATOM     23  O   UNL     1      99.657  82.742  81.489  1.00  0.00    -0.381 OA
ATOM     24  H   UNL     1      99.709  83.259  82.310  1.00  0.00     0.212 HD
ENDBRANCH  16  23
ENDBRANCH   6  15
BRANCH   7  25
ATOM     25  C   UNL     1      97.765  78.680  76.584  1.00  0.00     0.135 C 
BRANCH  25  26
ATOM     26  C   UNL     1      98.620  78.063  75.505  1.00  0.00    -0.040 A 
ATOM     27  C   UNL     1      98.550  78.548  74.198  1.00  0.00     0.004 A 
ATOM     28  C   UNL     1      99.481  77.011  75.813  1.00  0.00     0.004 A 
ATOM     29  C   UNL     1      99.340  77.978  73.200  1.00  0.00     0.000 A 
ATOM     30  C   UNL     1     100.271  76.441  74.814  1.00  0.00     0.000 A 
ATOM     31  C   UNL     1     100.200  76.925  73.508  1.00  0.00     0.000 A 
ENDBRANCH  25  26
ENDBRANCH   7  25
BRANCH  14  32
ATOM     32  C   UNL     1      99.583  82.545  75.400  1.00  0.00    -0.046 C 
ATOM     33  C   UNL     1     100.574  81.708  74.647  1.00  0.00     0.042 C 
ATOM     34  C   UNL     1      99.145  83.722  74.927  1.00  0.00     0.010 C 
ENDBRANCH  14  32
ENDBRANCH   3   4
BRANCH   2  35
ATOM     35  C   UNL     1     100.601  80.574  82.090  1.00  0.00     0.078 CG0
ATOM     36  G   UNL     1      99.334  81.385  81.819  1.00  0.00     0.000 G0
ENDBRANCH   2  35
ENDBRANCH   1   2
BRANCH   1  37
ATOM     37  O   UNL     1     102.485  78.001  80.317  1.00  0.00    -0.461 OA
BRANCH  37  38
ATOM     38  C   UNL     1     103.716  77.745  79.758  1.00  0.00     0.310 C 
ATOM     39  O   UNL     1     104.225  76.637  79.656  1.00  0.00    -0.252 OA
BRANCH  38  40
ATOM     40  C   UNL     1     104.338  79.040  79.292  1.00  0.00     0.158 C 
BRANCH  40  41
ATOM     41  C   UNL     1     104.285  79.213  77.796  1.00  0.00    -0.033 A 
ATOM     42  C   UNL     1     105.404  79.685  77.109  1.00  0.00     0.054 A 
ATOM     43  C   UNL     1     103.120  78.900  77.098  1.00  0.00     0.008 A 
ATOM     44  C   UNL     1     105.356  79.845  75.724  1.00  0.00     0.160 A 
ATOM     45  C   UNL     1     103.071  79.059  75.713  1.00  0.00     0.050 A 
ATOM     46  C   UNL     1     104.189  79.532  75.026  1.00  0.00     0.157 A 
BRANCH  44  47
ATOM     47  O   UNL     1     106.454  80.308  75.064  1.00  0.00    -0.493 OA
ATOM     48  C   UNL     1     107.703  80.230  75.750  1.00  0.00     0.278 C 
ENDBRANCH  44  47
BRANCH  46  49
ATOM     49  O   UNL     1     104.130  79.683  73.674  1.00  0.00    -0.504 OA
ATOM     50  H   UNL     1     103.752  78.878  73.281  1.00  0.00     0.293 HD
ENDBRANCH  46  49
ENDBRANCH  40  41
ENDBRANCH  38  40
ENDBRANCH  37  38
ENDBRANCH   1  37
TORSDOF 11
ENDMDL
MODEL 8
REMARK VINA RESULT:    -6.383      2.834      8.079
REMARK INTER + INTRA:         -11.788
REMARK INTER:                 -10.237
REMARK INTRA:                  -1.550
REMARK UNBOUND:                -0.554
REMARK SMILES C=C(C)[C@]12C[C@@H](C)[C@@]34O[C@](Cc5ccccc5)(O[C@@H]1[C@@H]3C=C(COC(=O)Cc1ccc(O)c(OC)c1)C[C@]1(O)C(=O)C(C)=C[C@@H]41)O2
REMARK SMILES IDX 23 1 22 2 21 3 20 4 9 5 8 6 10 7 6 8 18 9 46 10 19 11 5 12
REMARK SMILES IDX 7 13 4 14 45 15 38 16 44 17 40 18 42 20 41 21 43 22 39 23
REMARK SMILES IDX 11 25 12 26 13 27 17 28 14 29 16 30 15 31 2 32 3 33 1 34
REMARK SMILES IDX 37 35 24 37 25 38 26 39 27 40 28 41 36 42 29 43 33 44 30 45
REMARK SMILES IDX 31 46 34 47 35 48 32 49
REMARK H PARENT 39 24 32 50
REMARK Flexibility Score: 90.00
ROOT
ATOM      1  C   UNL     1      95.164  86.401  86.435  1.00  0.00     0.264 C 
ENDROOT
BRANCH   1   2
ATOM      2  C   UNL     1      95.382  84.907  86.409  1.00  0.00    -0.033 C 
ATOM      3  C   UNL     1      94.597  84.113  87.165  1.00  0.00    -0.015 C 
BRANCH   3   4
ATOM      4  C   UNL     1      94.660  82.609  87.373  1.00  0.00     0.078 C 
ATOM      5  O   UNL     1      93.182  81.584  85.674  1.00  0.00    -0.319 OA
ATOM      6  C   UNL     1      94.574  81.674  86.109  1.00  0.00     0.095 C 
ATOM      7  C   UNL     1      92.216  81.430  86.731  1.00  0.00     0.289 C 
ATOM      8  C   UNL     1      95.083  80.236  86.539  1.00  0.00     0.023 C 
ATOM      9  O   UNL     1      92.299  82.500  87.668  1.00  0.00    -0.320 OA
ATOM     10  O   UNL     1      92.425  80.239  87.486  1.00  0.00    -0.313 OA
ATOM     11  C   UNL     1      93.528  82.161  88.329  1.00  0.00     0.170 C 
ATOM     12  C   UNL     1      94.721  79.924  88.024  1.00  0.00     0.049 C 
ATOM     13  C   UNL     1      94.617  79.076  85.645  1.00  0.00     0.011 C 
ATOM     14  C   UNL     1      93.428  80.620  88.450  1.00  0.00     0.122 C 
BRANCH   6  15
ATOM     15  C   UNL     1      95.318  82.312  84.899  1.00  0.00     0.086 C 
ATOM     16  C   UNL     1      96.670  82.986  85.212  1.00  0.00     0.140 CG0
ATOM     17  C   UNL     1      95.619  81.469  83.692  1.00  0.00    -0.010 C 
ATOM     18  C   UNL     1      97.471  82.708  83.957  1.00  0.00     0.190 C 
ATOM     19  G   UNL     1      96.519  84.481  85.490  1.00  0.00     0.000 G0
ATOM     20  C   UNL     1      96.809  81.687  83.123  1.00  0.00    -0.008 C 
ATOM     21  O   UNL     1      98.548  83.212  83.678  1.00  0.00    -0.291 OA
ATOM     22  C   UNL     1      97.397  81.112  81.895  1.00  0.00     0.048 C 
BRANCH  16  23
ATOM     23  O   UNL     1      97.410  82.342  86.235  1.00  0.00    -0.381 OA
ATOM     24  H   UNL     1      96.832  81.695  86.672  1.00  0.00     0.212 HD
ENDBRANCH  16  23
ENDBRANCH   6  15
BRANCH   7  25
ATOM     25  C   UNL     1      90.834  81.399  86.110  1.00  0.00     0.135 C 
BRANCH  25  26
ATOM     26  C   UNL     1      90.352  79.989  85.874  1.00  0.00    -0.040 A 
ATOM     27  C   UNL     1      90.654  79.340  84.676  1.00  0.00     0.004 A 
ATOM     28  C   UNL     1      89.605  79.334  86.852  1.00  0.00     0.004 A 
ATOM     29  C   UNL     1      90.209  78.036  84.458  1.00  0.00     0.000 A 
ATOM     30  C   UNL     1      89.159  78.030  86.633  1.00  0.00     0.000 A 
ATOM     31  C   UNL     1      89.461  77.382  85.436  1.00  0.00     0.000 A 
ENDBRANCH  25  26
ENDBRANCH   7  25
BRANCH  14  32
ATOM     32  C   UNL     1      92.965  80.192  89.805  1.00  0.00    -0.046 C 
ATOM     33  C   UNL     1      92.406  81.270  90.685  1.00  0.00     0.042 C 
ATOM     34  C   UNL     1      93.045  78.916  90.211  1.00  0.00     0.010 C 
ENDBRANCH  14  32
ENDBRANCH   3   4
BRANCH   2  35
ATOM     35  C   UNL     1      96.506  84.485  85.482  1.00  0.00     0.078 CG0
ATOM     36  G   UNL     1      96.648  82.992  85.190  1.00  0.00     0.000 G0
ENDBRANCH   2  35
ENDBRANCH   1   2
BRANCH   1  37
ATOM     37  O   UNL     1      95.306  86.871  87.758  1.00  0.00    -0.461 OA
BRANCH  37  38
ATOM     38  C   UNL     1      95.184  88.229  87.938  1.00  0.00     0.310 C 
ATOM     39  O   UNL     1      96.015  89.061  87.599  1.00  0.00    -0.252 OA
BRANCH  38  40
ATOM     40  C   UNL     1      93.870  88.532  88.618  1.00  0.00     0.158 C 
BRANCH  40  41
ATOM     41  C   UNL     1      93.524  87.540  89.698  1.00  0.00    -0.033 A 
ATOM     42  C   UNL     1      92.584  86.539  89.450  1.00  0.00     0.054 A 
ATOM     43  C   UNL     1      94.143  87.621  90.945  1.00  0.00     0.008 A 
ATOM     44  C   UNL     1      92.264  85.620  90.450  1.00  0.00     0.160 A 
ATOM     45  C   UNL     1      93.823  86.702  91.944  1.00  0.00     0.050 A 
ATOM     46  C   UNL     1      92.884  85.702  91.697  1.00  0.00     0.157 A 
BRANCH  44  47
ATOM     47  O   UNL     1      91.344  84.647  90.196  1.00  0.00    -0.493 OA
ATOM     48  C   UNL     1      90.314  84.958  89.259  1.00  0.00     0.278 C 
ENDBRANCH  44  47
BRANCH  46  49
ATOM     49  O   UNL     1      92.580  84.810  92.680  1.00  0.00    -0.504 OA
ATOM     50  H   UNL     1      92.997  83.957  92.474  1.00  0.00     0.293 HD
ENDBRANCH  46  49
ENDBRANCH  40  41
ENDBRANCH  38  40
ENDBRANCH  37  38
ENDBRANCH   1  37
TORSDOF 11
ENDMDL
MODEL 9
REMARK VINA RESULT:    -6.344      5.328     10.196
REMARK INTER + INTRA:         -11.719
REMARK INTER:                 -10.664
REMARK INTRA:                  -1.055
REMARK UNBOUND:                -0.554
REMARK SMILES C=C(C)[C@]12C[C@@H](C)[C@@]34O[C@](Cc5ccccc5)(O[C@@H]1[C@@H]3C=C(COC(=O)Cc1ccc(O)c(OC)c1)C[C@]1(O)C(=O)C(C)=C[C@@H]41)O2
REMARK SMILES IDX 23 1 22 2 21 3 20 4 9 5 8 6 10 7 6 8 18 9 46 10 19 11 5 12
REMARK SMILES IDX 7 13 4 14 45 15 38 16 44 17 40 18 42 20 41 21 43 22 39 23
REMARK SMILES IDX 11 25 12 26 13 27 17 28 14 29 16 30 15 31 2 32 3 33 1 34
REMARK SMILES IDX 37 35 24 37 25 38 26 39 27 40 28 41 36 42 29 43 33 44 30 45
REMARK SMILES IDX 31 46 34 47 35 48 32 49
REMARK H PARENT 39 24 32 50
REMARK Flexibility Score: 90.00
ROOT
ATOM      1  C   UNL     1     102.048  78.454  81.426  1.00  0.00     0.264 C 
ENDROOT
BRANCH   1   2
ATOM      2  C   UNL     1     101.121  79.580  81.033  1.00  0.00    -0.033 C 
ATOM      3  C   UNL     1     100.875  79.806  79.727  1.00  0.00    -0.015 C 
BRANCH   3   4
ATOM      4  C   UNL     1     100.054  80.908  79.077  1.00  0.00     0.078 C 
ATOM      5  O   UNL     1      97.759  80.027  78.799  1.00  0.00    -0.319 OA
ATOM      6  C   UNL     1      98.541  81.054  79.485  1.00  0.00     0.095 C 
ATOM      7  C   UNL     1      98.098  79.816  77.415  1.00  0.00     0.289 C 
ATOM      8  C   UNL     1      98.053  82.485  79.013  1.00  0.00     0.023 C 
ATOM      9  O   UNL     1      99.474  79.473  77.266  1.00  0.00    -0.320 OA
ATOM     10  O   UNL     1      97.907  80.988  76.626  1.00  0.00    -0.313 OA
ATOM     11  C   UNL     1     100.082  80.745  77.537  1.00  0.00     0.170 C 
ATOM     12  C   UNL     1      98.768  82.929  77.700  1.00  0.00     0.049 C 
ATOM     13  C   UNL     1      96.532  82.642  78.845  1.00  0.00     0.011 C 
ATOM     14  C   UNL     1      99.127  81.732  76.819  1.00  0.00     0.122 C 
BRANCH   6  15
ATOM     15  C   UNL     1      98.345  80.745  80.997  1.00  0.00     0.086 C 
ATOM     16  C   UNL     1      99.405  81.329  81.953  1.00  0.00     0.140 CG0
ATOM     17  C   UNL     1      97.043  81.102  81.659  1.00  0.00    -0.010 C 
ATOM     18  C   UNL     1      98.592  81.642  83.191  1.00  0.00     0.190 C 
ATOM     19  G   UNL     1     100.537  80.341  82.232  1.00  0.00     0.000 G0
ATOM     20  C   UNL     1      97.146  81.583  82.903  1.00  0.00    -0.008 C 
ATOM     21  O   UNL     1      99.050  81.955  84.280  1.00  0.00    -0.291 OA
ATOM     22  C   UNL     1      96.093  81.954  83.870  1.00  0.00     0.048 C 
BRANCH  16  23
ATOM     23  O   UNL     1      99.908  82.592  81.550  1.00  0.00    -0.381 OA
ATOM     24  H   UNL     1      99.634  82.753  80.632  1.00  0.00     0.212 HD
ENDBRANCH  16  23
ENDBRANCH   6  15
BRANCH   7  25
ATOM     25  C   UNL     1      97.230  78.697  76.878  1.00  0.00     0.135 C 
BRANCH  25  26
ATOM     26  C   UNL     1      97.863  78.009  75.693  1.00  0.00    -0.040 A 
ATOM     27  C   UNL     1      98.314  76.694  75.810  1.00  0.00     0.004 A 
ATOM     28  C   UNL     1      97.995  78.687  74.482  1.00  0.00     0.004 A 
ATOM     29  C   UNL     1      98.899  76.058  74.714  1.00  0.00     0.000 A 
ATOM     30  C   UNL     1      98.580  78.051  73.387  1.00  0.00     0.000 A 
ATOM     31  C   UNL     1      99.032  76.736  73.504  1.00  0.00     0.000 A 
ENDBRANCH  25  26
ENDBRANCH   7  25
BRANCH  14  32
ATOM     32  C   UNL     1      99.646  82.140  75.479  1.00  0.00    -0.046 C 
ATOM     33  C   UNL     1      99.067  83.395  74.899  1.00  0.00     0.042 C 
ATOM     34  C   UNL     1     100.578  81.424  74.831  1.00  0.00     0.010 C 
ENDBRANCH  14  32
ENDBRANCH   3   4
BRANCH   2  35
ATOM     35  C   UNL     1     100.562  80.333  82.225  1.00  0.00     0.078 CG0
ATOM     36  G   UNL     1      99.428  81.322  81.958  1.00  0.00     0.000 G0
ENDBRANCH   2  35
ENDBRANCH   1   2
BRANCH   1  37
ATOM     37  O   UNL     1     103.370  78.788  81.062  1.00  0.00    -0.461 OA
BRANCH  37  38
ATOM     38  C   UNL     1     104.151  79.345  82.048  1.00  0.00     0.310 C 
ATOM     39  O   UNL     1     104.848  80.341  81.914  1.00  0.00    -0.252 OA
BRANCH  38  40
ATOM     40  C   UNL     1     104.012  78.537  83.317  1.00  0.00     0.158 C 
BRANCH  40  41
ATOM     41  C   UNL     1     103.247  79.261  84.395  1.00  0.00    -0.033 A 
ATOM     42  C   UNL     1     103.688  80.505  84.848  1.00  0.00     0.054 A 
ATOM     43  C   UNL     1     102.097  78.689  84.938  1.00  0.00     0.008 A 
ATOM     44  C   UNL     1     102.980  81.175  85.846  1.00  0.00     0.160 A 
ATOM     45  C   UNL     1     101.389  79.359  85.936  1.00  0.00     0.050 A 
ATOM     46  C   UNL     1     101.829  80.602  86.390  1.00  0.00     0.157 A 
BRANCH  44  47
ATOM     47  O   UNL     1     103.420  82.388  86.280  1.00  0.00    -0.493 OA
ATOM     48  C   UNL     1     104.513  82.390  87.197  1.00  0.00     0.278 C 
ENDBRANCH  44  47
BRANCH  46  49
ATOM     49  O   UNL     1     101.129  81.247  87.363  1.00  0.00    -0.504 OA
ATOM     50  H   UNL     1     100.728  80.588  87.954  1.00  0.00     0.293 HD
ENDBRANCH  46  49
ENDBRANCH  40  41
ENDBRANCH  38  40
ENDBRANCH  37  38
ENDBRANCH   1  37
TORSDOF 11
ENDMDL
MODEL 10
REMARK VINA RESULT:    -6.248      3.684      9.422
REMARK INTER + INTRA:         -11.551
REMARK INTER:                 -11.223
REMARK INTRA:                  -0.327
REMARK UNBOUND:                -0.554
REMARK SMILES C=C(C)[C@]12C[C@@H](C)[C@@]34O[C@](Cc5ccccc5)(O[C@@H]1[C@@H]3C=C(COC(=O)Cc1ccc(O)c(OC)c1)C[C@]1(O)C(=O)C(C)=C[C@@H]41)O2
REMARK SMILES IDX 23 1 22 2 21 3 20 4 9 5 8 6 10 7 6 8 18 9 46 10 19 11 5 12
REMARK SMILES IDX 7 13 4 14 45 15 38 16 44 17 40 18 42 20 41 21 43 22 39 23
REMARK SMILES IDX 11 25 12 26 13 27 17 28 14 29 16 30 15 31 2 32 3 33 1 34
REMARK SMILES IDX 37 35 24 37 25 38 26 39 27 40 28 41 36 42 29 43 33 44 30 45
REMARK SMILES IDX 31 46 34 47 35 48 32 49
REMARK H PARENT 39 24 32 50
REMARK Flexibility Score: 90.00
ROOT
ATOM      1  C   UNL     1      95.196  86.928  86.763  1.00  0.00     0.264 C 
ENDROOT
BRANCH   1   2
ATOM      2  C   UNL     1      94.829  85.523  86.348  1.00  0.00    -0.033 C 
ATOM      3  C   UNL     1      95.703  84.802  85.616  1.00  0.00    -0.015 C 
BRANCH   3   4
ATOM      4  C   UNL     1      95.544  83.415  85.016  1.00  0.00     0.078 C 
ATOM      5  O   UNL     1      96.413  81.805  86.681  1.00  0.00    -0.319 OA
ATOM      6  C   UNL     1      95.200  82.217  85.978  1.00  0.00     0.095 C 
ATOM      7  C   UNL     1      97.602  81.739  85.872  1.00  0.00     0.289 C 
ATOM      8  C   UNL     1      94.681  81.017  85.083  1.00  0.00     0.023 C 
ATOM      9  O   UNL     1      97.877  82.993  85.252  1.00  0.00    -0.320 OA
ATOM     10  O   UNL     1      97.480  80.801  84.805  1.00  0.00    -0.313 OA
ATOM     11  C   UNL     1      96.837  83.017  84.262  1.00  0.00     0.170 C 
ATOM     12  C   UNL     1      95.386  80.994  83.692  1.00  0.00     0.049 C 
ATOM     13  C   UNL     1      94.775  79.624  85.727  1.00  0.00     0.011 C 
ATOM     14  C   UNL     1      96.809  81.548  83.770  1.00  0.00     0.122 C 
BRANCH   6  15
ATOM     15  C   UNL     1      94.233  82.677  87.107  1.00  0.00     0.086 C 
ATOM     16  C   UNL     1      93.082  83.610  86.679  1.00  0.00     0.140 CG0
ATOM     17  C   UNL     1      93.548  81.643  87.956  1.00  0.00    -0.010 C 
ATOM     18  C   UNL     1      91.959  83.188  87.602  1.00  0.00     0.190 C 
ATOM     19  G   UNL     1      93.446  85.085  86.836  1.00  0.00     0.000 G0
ATOM     20  C   UNL     1      92.278  81.914  88.274  1.00  0.00    -0.008 C 
ATOM     21  O   UNL     1      90.901  83.781  87.748  1.00  0.00    -0.291 OA
ATOM     22  C   UNL     1      91.338  81.179  89.145  1.00  0.00     0.048 C 
BRANCH  16  23
ATOM     23  O   UNL     1      92.574  83.337  85.383  1.00  0.00    -0.381 OA
ATOM     24  H   UNL     1      92.004  82.553  85.435  1.00  0.00     0.212 HD
ENDBRANCH  16  23
ENDBRANCH   6  15
BRANCH   7  25
ATOM     25  C   UNL     1      98.762  81.343  86.763  1.00  0.00     0.135 C 
BRANCH  25  26
ATOM     26  C   UNL     1      99.879  80.695  85.983  1.00  0.00    -0.040 A 
ATOM     27  C   UNL     1      99.642  79.518  85.272  1.00  0.00     0.004 A 
ATOM     28  C   UNL     1     101.148  81.273  85.970  1.00  0.00     0.004 A 
ATOM     29  C   UNL     1     100.674  78.919  84.550  1.00  0.00     0.000 A 
ATOM     30  C   UNL     1     102.181  80.674  85.248  1.00  0.00     0.000 A 
ATOM     31  C   UNL     1     101.943  79.497  84.538  1.00  0.00     0.000 A 
ENDBRANCH  25  26
ENDBRANCH   7  25
BRANCH  14  32
ATOM     32  C   UNL     1      97.566  81.369  82.495  1.00  0.00    -0.046 C 
ATOM     33  C   UNL     1      97.868  79.955  82.097  1.00  0.00     0.042 C 
ATOM     34  C   UNL     1      97.954  82.413  81.747  1.00  0.00     0.010 C 
ENDBRANCH  14  32
ENDBRANCH   3   4
BRANCH   2  35
ATOM     35  C   UNL     1      93.461  85.095  86.843  1.00  0.00     0.078 CG0
ATOM     36  G   UNL     1      93.085  83.623  86.674  1.00  0.00     0.000 G0
ENDBRANCH   2  35
ENDBRANCH   1   2
BRANCH   1  37
ATOM     37  O   UNL     1      94.265  87.392  87.717  1.00  0.00    -0.461 OA
BRANCH  37  38
ATOM     38  C   UNL     1      94.660  88.464  88.482  1.00  0.00     0.310 C 
ATOM     39  O   UNL     1      95.563  88.444  89.307  1.00  0.00    -0.252 OA
BRANCH  38  40
ATOM     40  C   UNL     1      93.807  89.665  88.146  1.00  0.00     0.158 C 
BRANCH  40  41
ATOM     41  C   UNL     1      93.388  90.447  89.364  1.00  0.00    -0.033 A 
ATOM     42  C   UNL     1      92.789  89.792  90.441  1.00  0.00     0.054 A 
ATOM     43  C   UNL     1      93.597  91.825  89.414  1.00  0.00     0.008 A 
ATOM     44  C   UNL     1      92.401  90.517  91.569  1.00  0.00     0.160 A 
ATOM     45  C   UNL     1      93.208  92.549  90.542  1.00  0.00     0.050 A 
ATOM     46  C   UNL     1      92.610  91.896  91.618  1.00  0.00     0.157 A 
BRANCH  44  47
ATOM     47  O   UNL     1      91.818  89.867  92.614  1.00  0.00    -0.493 OA
ATOM     48  C   UNL     1      92.684  89.179  93.515  1.00  0.00     0.278 C 
ENDBRANCH  44  47
BRANCH  46  49
ATOM     49  O   UNL     1      92.236  92.613  92.714  1.00  0.00    -0.504 OA
ATOM     50  H   UNL     1      91.266  92.611  92.777  1.00  0.00     0.293 HD
ENDBRANCH  46  49
ENDBRANCH  40  41
ENDBRANCH  38  40
ENDBRANCH  37  38
ENDBRANCH   1  37
TORSDOF 11
ENDMDL
