MODEL 1
REMARK VINA RESULT:    -6.229      0.000      0.000
REMARK INTER + INTRA:         -10.567
REMARK INTER:                  -9.688
REMARK INTRA:                  -0.879
REMARK UNBOUND:                -0.879
REMARK SMILES CCCCC/C=C/C(=O)CCc1ccc(O)c(OC)c1
REMARK SMILES IDX 6 1 7 2 8 3 9 4 10 5 11 6 12 7 17 8 20 9 15 10 14 11 13 12
REMARK SMILES IDX 18 13 19 14 16 15 5 17 4 18 3 19 2 20 1 21
REMARK H PARENT 16 16
REMARK Flexibility Score: inf
ROOT
ATOM      1  C   UNL     1      93.653  94.416  77.226  1.00  0.00    -0.023 C 
ATOM      2  C   UNL     1      92.589  93.605  77.188  1.00  0.00     0.043 C 
ENDROOT
BRANCH   2   3
ATOM      3  C   UNL     1      91.468  93.893  76.252  1.00  0.00     0.155 C 
ATOM      4  O   UNL     1      90.314  94.044  76.648  1.00  0.00    -0.295 OA
BRANCH   3   5
ATOM      5  C   UNL     1      91.815  93.940  74.777  1.00  0.00     0.085 C 
BRANCH   5   6
ATOM      6  C   UNL     1      91.974  92.532  74.199  1.00  0.00     0.044 C 
BRANCH   6   7
ATOM      7  C   UNL     1      90.667  91.941  73.725  1.00  0.00    -0.044 A 
ATOM      8  C   UNL     1      89.037  90.182  73.804  1.00  0.00     0.160 A 
ATOM      9  C   UNL     1      90.244  90.727  74.242  1.00  0.00     0.054 A 
ATOM     10  C   UNL     1      88.270  90.857  72.855  1.00  0.00     0.157 A 
ATOM     11  C   UNL     1      88.710  92.078  72.343  1.00  0.00     0.050 A 
ATOM     12  C   UNL     1      89.917  92.623  72.781  1.00  0.00     0.008 A 
BRANCH   8  13
ATOM     13  O   UNL     1      88.618  88.989  74.311  1.00  0.00    -0.493 OA
ATOM     14  C   UNL     1      89.607  88.158  74.915  1.00  0.00     0.278 C 
ENDBRANCH   8  13
BRANCH  10  15
ATOM     15  O   UNL     1      87.090  90.335  72.419  1.00  0.00    -0.504 OA
ATOM     16  H   UNL     1      87.261  89.446  72.064  1.00  0.00     0.293 HD
ENDBRANCH  10  15
ENDBRANCH   6   7
ENDBRANCH   5   6
ENDBRANCH   3   5
ENDBRANCH   2   3
BRANCH   1  17
ATOM     17  C   UNL     1      94.822  94.195  78.141  1.00  0.00     0.027 C 
BRANCH  17  18
ATOM     18  C   UNL     1      95.972  95.178  77.896  1.00  0.00     0.004 C 
BRANCH  18  19
ATOM     19  C   UNL     1      96.917  94.748  76.770  1.00  0.00     0.000 C 
BRANCH  19  20
ATOM     20  C   UNL     1      97.183  95.902  75.802  1.00  0.00    -0.003 C 
ATOM     21  C   UNL     1      95.931  96.732  75.568  1.00  0.00     0.004 C 
ENDBRANCH  19  20
ENDBRANCH  18  19
ENDBRANCH  17  18
ENDBRANCH   1  17
TORSDOF 10
ENDMDL
MODEL 2
REMARK VINA RESULT:    -6.120      3.972      8.823
REMARK INTER + INTRA:         -10.399
REMARK INTER:                  -9.472
REMARK INTRA:                  -0.927
REMARK UNBOUND:                -0.879
REMARK SMILES CCCCC/C=C/C(=O)CCc1ccc(O)c(OC)c1
REMARK SMILES IDX 6 1 7 2 8 3 9 4 10 5 11 6 12 7 17 8 20 9 15 10 14 11 13 12
REMARK SMILES IDX 18 13 19 14 16 15 5 17 4 18 3 19 2 20 1 21
REMARK H PARENT 16 16
REMARK Flexibility Score: inf
ROOT
ATOM      1  C   UNL     1      93.012  93.846  76.326  1.00  0.00    -0.023 C 
ATOM      2  C   UNL     1      93.906  93.993  75.341  1.00  0.00     0.043 C 
ENDROOT
BRANCH   2   3
ATOM      3  C   UNL     1      95.029  94.957  75.497  1.00  0.00     0.155 C 
ATOM      4  O   UNL     1      94.959  96.108  75.073  1.00  0.00    -0.295 OA
BRANCH   3   5
ATOM      5  C   UNL     1      96.287  94.428  76.159  1.00  0.00     0.085 C 
BRANCH   5   6
ATOM      6  C   UNL     1      96.875  95.453  77.131  1.00  0.00     0.044 C 
BRANCH   6   7
ATOM      7  C   UNL     1      96.392  95.261  78.549  1.00  0.00    -0.044 A 
ATOM      8  C   UNL     1      96.311  96.001  80.831  1.00  0.00     0.160 A 
ATOM      9  C   UNL     1      96.758  96.179  79.521  1.00  0.00     0.054 A 
ATOM     10  C   UNL     1      95.505  94.909  81.152  1.00  0.00     0.157 A 
ATOM     11  C   UNL     1      95.146  93.994  80.162  1.00  0.00     0.050 A 
ATOM     12  C   UNL     1      95.593  94.171  78.852  1.00  0.00     0.008 A 
BRANCH   8  13
ATOM     13  O   UNL     1      96.670  96.902  81.788  1.00  0.00    -0.493 OA
ATOM     14  C   UNL     1      96.160  98.227  81.655  1.00  0.00     0.278 C 
ENDBRANCH   8  13
BRANCH  10  15
ATOM     15  O   UNL     1      95.063  94.725  82.426  1.00  0.00    -0.504 OA
ATOM     16  H   UNL     1      95.567  93.994  82.822  1.00  0.00     0.293 HD
ENDBRANCH  10  15
ENDBRANCH   6   7
ENDBRANCH   5   6
ENDBRANCH   3   5
ENDBRANCH   2   3
BRANCH   1  17
ATOM     17  C   UNL     1      91.852  92.897  76.247  1.00  0.00     0.027 C 
BRANCH  17  18
ATOM     18  C   UNL     1      91.044  92.824  77.547  1.00  0.00     0.004 C 
BRANCH  18  19
ATOM     19  C   UNL     1      89.778  91.968  77.436  1.00  0.00     0.000 C 
BRANCH  19  20
ATOM     20  C   UNL     1      89.897  90.953  76.297  1.00  0.00    -0.003 C 
ATOM     21  C   UNL     1      90.008  89.532  76.826  1.00  0.00     0.004 C 
ENDBRANCH  19  20
ENDBRANCH  18  19
ENDBRANCH  17  18
ENDBRANCH   1  17
TORSDOF 10
ENDMDL
MODEL 3
REMARK VINA RESULT:    -6.056      1.795      3.064
REMARK INTER + INTRA:         -10.298
REMARK INTER:                  -9.593
REMARK INTRA:                  -0.705
REMARK UNBOUND:                -0.879
REMARK SMILES CCCCC/C=C/C(=O)CCc1ccc(O)c(OC)c1
REMARK SMILES IDX 6 1 7 2 8 3 9 4 10 5 11 6 12 7 17 8 20 9 15 10 14 11 13 12
REMARK SMILES IDX 18 13 19 14 16 15 5 17 4 18 3 19 2 20 1 21
REMARK H PARENT 16 16
REMARK Flexibility Score: inf
ROOT
ATOM      1  C   UNL     1      94.133  94.507  75.770  1.00  0.00    -0.023 C 
ATOM      2  C   UNL     1      93.404  93.502  76.271  1.00  0.00     0.043 C 
ENDROOT
BRANCH   2   3
ATOM      3  C   UNL     1      92.005  93.749  76.714  1.00  0.00     0.155 C 
ATOM      4  O   UNL     1      91.389  94.761  76.386  1.00  0.00    -0.295 OA
BRANCH   3   5
ATOM      5  C   UNL     1      91.395  92.712  77.637  1.00  0.00     0.085 C 
BRANCH   5   6
ATOM      6  C   UNL     1      89.950  92.402  77.245  1.00  0.00     0.044 C 
BRANCH   6   7
ATOM      7  C   UNL     1      89.800  91.060  76.568  1.00  0.00    -0.044 A 
ATOM      8  C   UNL     1      89.220  89.768  74.630  1.00  0.00     0.160 A 
ATOM      9  C   UNL     1      89.358  91.007  75.256  1.00  0.00     0.054 A 
ATOM     10  C   UNL     1      89.527  88.598  75.324  1.00  0.00     0.157 A 
ATOM     11  C   UNL     1      89.972  88.668  76.645  1.00  0.00     0.050 A 
ATOM     12  C   UNL     1      90.109  89.907  77.271  1.00  0.00     0.008 A 
BRANCH   8  13
ATOM     13  O   UNL     1      88.785  89.714  73.340  1.00  0.00    -0.493 OA
ATOM     14  C   UNL     1      87.631  90.485  73.012  1.00  0.00     0.278 C 
ENDBRANCH   8  13
BRANCH  10  15
ATOM     15  O   UNL     1      89.398  87.382  74.724  1.00  0.00    -0.504 OA
ATOM     16  H   UNL     1      89.948  87.377  73.923  1.00  0.00     0.293 HD
ENDBRANCH  10  15
ENDBRANCH   6   7
ENDBRANCH   5   6
ENDBRANCH   3   5
ENDBRANCH   2   3
BRANCH   1  17
ATOM     17  C   UNL     1      95.549  94.340  75.302  1.00  0.00     0.027 C 
BRANCH  17  18
ATOM     18  C   UNL     1      96.145  95.625  74.718  1.00  0.00     0.004 C 
BRANCH  18  19
ATOM     19  C   UNL     1      95.208  96.833  74.809  1.00  0.00     0.000 C 
BRANCH  19  20
ATOM     20  C   UNL     1      95.994  98.127  75.028  1.00  0.00    -0.003 C 
ATOM     21  C   UNL     1      97.072  97.950  76.086  1.00  0.00     0.004 C 
ENDBRANCH  19  20
ENDBRANCH  18  19
ENDBRANCH  17  18
ENDBRANCH   1  17
TORSDOF 10
ENDMDL
MODEL 4
REMARK VINA RESULT:    -5.884     14.616     16.963
REMARK INTER + INTRA:         -10.031
REMARK INTER:                  -8.484
REMARK INTRA:                  -1.547
REMARK UNBOUND:                -0.879
REMARK SMILES CCCCC/C=C/C(=O)CCc1ccc(O)c(OC)c1
REMARK SMILES IDX 6 1 7 2 8 3 9 4 10 5 11 6 12 7 17 8 20 9 15 10 14 11 13 12
REMARK SMILES IDX 18 13 19 14 16 15 5 17 4 18 3 19 2 20 1 21
REMARK H PARENT 16 16
REMARK Flexibility Score: inf
ROOT
ATOM      1  C   UNL     1      81.917  89.943  84.711  1.00  0.00    -0.023 C 
ATOM      2  C   UNL     1      83.104  89.325  84.753  1.00  0.00     0.043 C 
ENDROOT
BRANCH   2   3
ATOM      3  C   UNL     1      84.304  90.055  85.243  1.00  0.00     0.155 C 
ATOM      4  O   UNL     1      85.391  89.972  84.676  1.00  0.00    -0.295 OA
BRANCH   3   5
ATOM      5  C   UNL     1      84.129  90.868  86.511  1.00  0.00     0.085 C 
BRANCH   5   6
ATOM      6  C   UNL     1      83.889  89.964  87.721  1.00  0.00     0.044 C 
BRANCH   6   7
ATOM      7  C   UNL     1      82.438  89.917  88.140  1.00  0.00    -0.044 A 
ATOM      8  C   UNL     1      80.424  88.664  88.504  1.00  0.00     0.160 A 
ATOM      9  C   UNL     1      81.764  88.707  88.117  1.00  0.00     0.054 A 
ATOM     10  C   UNL     1      79.777  89.831  88.909  1.00  0.00     0.157 A 
ATOM     11  C   UNL     1      80.470  91.042  88.926  1.00  0.00     0.050 A 
ATOM     12  C   UNL     1      81.809  91.085  88.539  1.00  0.00     0.008 A 
BRANCH   8  13
ATOM     13  O   UNL     1      79.759  87.475  88.483  1.00  0.00    -0.493 OA
ATOM     14  C   UNL     1      80.020  86.566  89.550  1.00  0.00     0.278 C 
ENDBRANCH   8  13
BRANCH  10  15
ATOM     15  O   UNL     1      78.469  89.802  89.289  1.00  0.00    -0.504 OA
ATOM     16  H   UNL     1      78.102  90.697  89.189  1.00  0.00     0.293 HD
ENDBRANCH  10  15
ENDBRANCH   6   7
ENDBRANCH   5   6
ENDBRANCH   3   5
ENDBRANCH   2   3
BRANCH   1  17
ATOM     17  C   UNL     1      80.661  89.276  84.229  1.00  0.00     0.027 C 
BRANCH  17  18
ATOM     18  C   UNL     1      80.901  87.867  83.679  1.00  0.00     0.004 C 
BRANCH  18  19
ATOM     19  C   UNL     1      79.817  86.860  84.076  1.00  0.00     0.000 C 
BRANCH  19  20
ATOM     20  C   UNL     1      80.153  86.184  85.407  1.00  0.00    -0.003 C 
ATOM     21  C   UNL     1      81.641  85.894  85.524  1.00  0.00     0.004 C 
ENDBRANCH  19  20
ENDBRANCH  18  19
ENDBRANCH  17  18
ENDBRANCH   1  17
TORSDOF 10
ENDMDL
MODEL 5
REMARK VINA RESULT:    -5.665     26.522     29.315
REMARK INTER + INTRA:          -9.691
REMARK INTER:                  -7.734
REMARK INTRA:                  -1.957
REMARK UNBOUND:                -0.879
REMARK SMILES CCCCC/C=C/C(=O)CCc1ccc(O)c(OC)c1
REMARK SMILES IDX 6 1 7 2 8 3 9 4 10 5 11 6 12 7 17 8 20 9 15 10 14 11 13 12
REMARK SMILES IDX 18 13 19 14 16 15 5 17 4 18 3 19 2 20 1 21
REMARK H PARENT 16 16
REMARK Flexibility Score: inf
ROOT
ATOM      1  C   UNL     1      81.919  66.794  71.047  1.00  0.00    -0.023 C 
ATOM      2  C   UNL     1      82.329  65.610  70.576  1.00  0.00     0.043 C 
ENDROOT
BRANCH   2   3
ATOM      3  C   UNL     1      83.695  65.472  70.004  1.00  0.00     0.155 C 
ATOM      4  O   UNL     1      83.988  65.934  68.903  1.00  0.00    -0.295 OA
BRANCH   3   5
ATOM      5  C   UNL     1      84.696  64.684  70.826  1.00  0.00     0.085 C 
BRANCH   5   6
ATOM      6  C   UNL     1      85.235  65.515  71.991  1.00  0.00     0.044 C 
BRANCH   6   7
ATOM      7  C   UNL     1      84.456  65.311  73.269  1.00  0.00    -0.044 A 
ATOM      8  C   UNL     1      83.433  66.216  75.241  1.00  0.00     0.160 A 
ATOM      9  C   UNL     1      84.153  66.406  74.062  1.00  0.00     0.054 A 
ATOM     10  C   UNL     1      83.026  64.935  75.613  1.00  0.00     0.157 A 
ATOM     11  C   UNL     1      83.339  63.842  74.803  1.00  0.00     0.050 A 
ATOM     12  C   UNL     1      84.059  64.032  73.624  1.00  0.00     0.008 A 
BRANCH   8  13
ATOM     13  O   UNL     1      83.133  67.292  76.023  1.00  0.00    -0.493 OA
ATOM     14  C   UNL     1      84.189  67.830  76.817  1.00  0.00     0.278 C 
ENDBRANCH   8  13
BRANCH  10  15
ATOM     15  O   UNL     1      82.322  64.738  76.762  1.00  0.00    -0.504 OA
ATOM     16  H   UNL     1      81.374  64.741  76.544  1.00  0.00     0.293 HD
ENDBRANCH  10  15
ENDBRANCH   6   7
ENDBRANCH   5   6
ENDBRANCH   3   5
ENDBRANCH   2   3
BRANCH   1  17
ATOM     17  C   UNL     1      80.557  67.016  71.639  1.00  0.00     0.027 C 
BRANCH  17  18
ATOM     18  C   UNL     1      80.581  67.162  73.164  1.00  0.00     0.004 C 
BRANCH  18  19
ATOM     19  C   UNL     1      79.889  66.011  73.901  1.00  0.00     0.000 C 
BRANCH  19  20
ATOM     20  C   UNL     1      80.124  64.678  73.187  1.00  0.00    -0.003 C 
ATOM     21  C   UNL     1      79.785  63.499  74.085  1.00  0.00     0.004 C 
ENDBRANCH  19  20
ENDBRANCH  18  19
ENDBRANCH  17  18
ENDBRANCH   1  17
TORSDOF 10
ENDMDL
MODEL 6
REMARK VINA RESULT:    -5.621     13.563     16.460
REMARK INTER + INTRA:          -9.621
REMARK INTER:                  -8.630
REMARK INTRA:                  -0.991
REMARK UNBOUND:                -0.879
REMARK SMILES CCCCC/C=C/C(=O)CCc1ccc(O)c(OC)c1
REMARK SMILES IDX 6 1 7 2 8 3 9 4 10 5 11 6 12 7 17 8 20 9 15 10 14 11 13 12
REMARK SMILES IDX 18 13 19 14 16 15 5 17 4 18 3 19 2 20 1 21
REMARK H PARENT 16 16
REMARK Flexibility Score: inf
ROOT
ATOM      1  C   UNL     1      81.746  89.874  84.650  1.00  0.00    -0.023 C 
ATOM      2  C   UNL     1      82.748  89.253  85.285  1.00  0.00     0.043 C 
ENDROOT
BRANCH   2   3
ATOM      3  C   UNL     1      84.133  89.787  85.184  1.00  0.00     0.155 C 
ATOM      4  O   UNL     1      85.118  89.075  85.371  1.00  0.00    -0.295 OA
BRANCH   3   5
ATOM      5  C   UNL     1      84.267  91.268  84.890  1.00  0.00     0.085 C 
BRANCH   5   6
ATOM      6  C   UNL     1      84.976  91.999  86.032  1.00  0.00     0.044 C 
BRANCH   6   7
ATOM      7  C   UNL     1      84.016  92.657  86.994  1.00  0.00    -0.044 A 
ATOM      8  C   UNL     1      83.041  94.646  87.918  1.00  0.00     0.160 A 
ATOM      9  C   UNL     1      83.929  94.039  87.029  1.00  0.00     0.054 A 
ATOM     10  C   UNL     1      82.253  93.863  88.760  1.00  0.00     0.157 A 
ATOM     11  C   UNL     1      82.352  92.471  88.714  1.00  0.00     0.050 A 
ATOM     12  C   UNL     1      83.240  91.865  87.825  1.00  0.00     0.008 A 
BRANCH   8  13
ATOM     13  O   UNL     1      82.954  96.005  87.954  1.00  0.00    -0.493 OA
ATOM     14  C   UNL     1      81.930  96.610  87.167  1.00  0.00     0.278 C 
ENDBRANCH   8  13
BRANCH  10  15
ATOM     15  O   UNL     1      81.382  94.443  89.632  1.00  0.00    -0.504 OA
ATOM     16  H   UNL     1      80.837  95.081  89.140  1.00  0.00     0.293 HD
ENDBRANCH  10  15
ENDBRANCH   6   7
ENDBRANCH   5   6
ENDBRANCH   3   5
ENDBRANCH   2   3
BRANCH   1  17
ATOM     17  C   UNL     1      80.323  89.399  84.701  1.00  0.00     0.027 C 
BRANCH  17  18
ATOM     18  C   UNL     1      80.151  87.959  84.205  1.00  0.00     0.004 C 
BRANCH  18  19
ATOM     19  C   UNL     1      79.967  86.939  85.334  1.00  0.00     0.000 C 
BRANCH  19  20
ATOM     20  C   UNL     1      80.923  85.757  85.170  1.00  0.00    -0.003 C 
ATOM     21  C   UNL     1      81.998  85.756  86.245  1.00  0.00     0.004 C 
ENDBRANCH  19  20
ENDBRANCH  18  19
ENDBRANCH  17  18
ENDBRANCH   1  17
TORSDOF 10
ENDMDL
MODEL 7
REMARK VINA RESULT:    -5.498     26.507     29.060
REMARK INTER + INTRA:          -9.430
REMARK INTER:                  -8.757
REMARK INTRA:                  -0.673
REMARK UNBOUND:                -0.879
REMARK SMILES CCCCC/C=C/C(=O)CCc1ccc(O)c(OC)c1
REMARK SMILES IDX 6 1 7 2 8 3 9 4 10 5 11 6 12 7 17 8 20 9 15 10 14 11 13 12
REMARK SMILES IDX 18 13 19 14 16 15 5 17 4 18 3 19 2 20 1 21
REMARK H PARENT 16 16
REMARK Flexibility Score: inf
ROOT
ATOM      1  C   UNL     1      84.850  64.101  78.300  1.00  0.00    -0.023 C 
ATOM      2  C   UNL     1      83.824  63.850  77.478  1.00  0.00     0.043 C 
ENDROOT
BRANCH   2   3
ATOM      3  C   UNL     1      83.376  64.889  76.512  1.00  0.00     0.155 C 
ATOM      4  O   UNL     1      84.171  65.503  75.804  1.00  0.00    -0.295 OA
BRANCH   3   5
ATOM      5  C   UNL     1      81.890  65.191  76.485  1.00  0.00     0.085 C 
BRANCH   5   6
ATOM      6  C   UNL     1      81.608  66.534  75.810  1.00  0.00     0.044 C 
BRANCH   6   7
ATOM      7  C   UNL     1      81.148  66.388  74.379  1.00  0.00    -0.044 A 
ATOM      8  C   UNL     1      81.081  67.214  72.127  1.00  0.00     0.160 A 
ATOM      9  C   UNL     1      81.506  67.350  73.449  1.00  0.00     0.054 A 
ATOM     10  C   UNL     1      80.304  66.118  71.753  1.00  0.00     0.157 A 
ATOM     11  C   UNL     1      79.952  65.157  72.701  1.00  0.00     0.050 A 
ATOM     12  C   UNL     1      80.377  65.293  74.023  1.00  0.00     0.008 A 
BRANCH   8  13
ATOM     13  O   UNL     1      81.431  68.159  71.210  1.00  0.00    -0.493 OA
ATOM     14  C   UNL     1      82.796  68.574  71.196  1.00  0.00     0.278 C 
ENDBRANCH   8  13
BRANCH  10  15
ATOM     15  O   UNL     1      79.884  65.974  70.465  1.00  0.00    -0.504 OA
ATOM     16  H   UNL     1      79.869  66.852  70.049  1.00  0.00     0.293 HD
ENDBRANCH  10  15
ENDBRANCH   6   7
ENDBRANCH   5   6
ENDBRANCH   3   5
ENDBRANCH   2   3
BRANCH   1  17
ATOM     17  C   UNL     1      85.362  63.106  79.302  1.00  0.00     0.027 C 
BRANCH  17  18
ATOM     18  C   UNL     1      84.959  63.441  80.742  1.00  0.00     0.004 C 
BRANCH  18  19
ATOM     19  C   UNL     1      86.151  63.600  81.691  1.00  0.00     0.000 C 
BRANCH  19  20
ATOM     20  C   UNL     1      87.477  63.444  80.943  1.00  0.00    -0.003 C 
ATOM     21  C   UNL     1      88.266  64.744  80.932  1.00  0.00     0.004 C 
ENDBRANCH  19  20
ENDBRANCH  18  19
ENDBRANCH  17  18
ENDBRANCH   1  17
TORSDOF 10
ENDMDL
MODEL 8
REMARK VINA RESULT:    -5.489     14.357     17.042
REMARK INTER + INTRA:          -9.417
REMARK INTER:                  -8.447
REMARK INTRA:                  -0.971
REMARK UNBOUND:                -0.879
REMARK SMILES CCCCC/C=C/C(=O)CCc1ccc(O)c(OC)c1
REMARK SMILES IDX 6 1 7 2 8 3 9 4 10 5 11 6 12 7 17 8 20 9 15 10 14 11 13 12
REMARK SMILES IDX 18 13 19 14 16 15 5 17 4 18 3 19 2 20 1 21
REMARK H PARENT 16 16
REMARK Flexibility Score: inf
ROOT
ATOM      1  C   UNL     1      81.431  89.914  85.305  1.00  0.00    -0.023 C 
ATOM      2  C   UNL     1      82.122  89.841  86.449  1.00  0.00     0.043 C 
ENDROOT
BRANCH   2   3
ATOM      3  C   UNL     1      83.599  90.021  86.437  1.00  0.00     0.155 C 
ATOM      4  O   UNL     1      84.353  89.162  85.986  1.00  0.00    -0.295 OA
BRANCH   3   5
ATOM      5  C   UNL     1      84.130  91.298  87.058  1.00  0.00     0.085 C 
BRANCH   5   6
ATOM      6  C   UNL     1      83.142  91.874  88.074  1.00  0.00     0.044 C 
BRANCH   6   7
ATOM      7  C   UNL     1      83.081  93.383  88.044  1.00  0.00    -0.044 A 
ATOM      8  C   UNL     1      82.209  95.442  88.915  1.00  0.00     0.160 A 
ATOM      9  C   UNL     1      82.264  94.048  88.943  1.00  0.00     0.054 A 
ATOM     10  C   UNL     1      82.971  96.152  87.988  1.00  0.00     0.157 A 
ATOM     11  C   UNL     1      83.789  95.468  87.088  1.00  0.00     0.050 A 
ATOM     12  C   UNL     1      83.844  94.074  87.116  1.00  0.00     0.008 A 
BRANCH   8  13
ATOM     13  O   UNL     1      81.406  96.098  89.799  1.00  0.00    -0.493 OA
ATOM     14  C   UNL     1      81.907  96.276  91.122  1.00  0.00     0.278 C 
ENDBRANCH   8  13
BRANCH  10  15
ATOM     15  O   UNL     1      82.926  97.513  87.951  1.00  0.00    -0.504 OA
ATOM     16  H   UNL     1      82.397  97.780  87.179  1.00  0.00     0.293 HD
ENDBRANCH  10  15
ENDBRANCH   6   7
ENDBRANCH   5   6
ENDBRANCH   3   5
ENDBRANCH   2   3
BRANCH   1  17
ATOM     17  C   UNL     1      79.942  89.743  85.233  1.00  0.00     0.027 C 
BRANCH  17  18
ATOM     18  C   UNL     1      79.513  88.553  84.369  1.00  0.00     0.004 C 
BRANCH  18  19
ATOM     19  C   UNL     1      80.665  87.918  83.583  1.00  0.00     0.000 C 
BRANCH  19  20
ATOM     20  C   UNL     1      80.630  86.393  83.688  1.00  0.00    -0.003 C 
ATOM     21  C   UNL     1      80.843  85.927  85.119  1.00  0.00     0.004 C 
ENDBRANCH  19  20
ENDBRANCH  18  19
ENDBRANCH  17  18
ENDBRANCH   1  17
TORSDOF 10
ENDMDL
MODEL 9
REMARK VINA RESULT:    -5.455      4.337      9.578
REMARK INTER + INTRA:          -9.363
REMARK INTER:                  -8.663
REMARK INTRA:                  -0.701
REMARK UNBOUND:                -0.879
REMARK SMILES CCCCC/C=C/C(=O)CCc1ccc(O)c(OC)c1
REMARK SMILES IDX 6 1 7 2 8 3 9 4 10 5 11 6 12 7 17 8 20 9 15 10 14 11 13 12
REMARK SMILES IDX 18 13 19 14 16 15 5 17 4 18 3 19 2 20 1 21
REMARK H PARENT 16 16
REMARK Flexibility Score: inf
ROOT
ATOM      1  C   UNL     1      94.036  94.140  74.983  1.00  0.00    -0.023 C 
ATOM      2  C   UNL     1      95.146  93.934  75.704  1.00  0.00     0.043 C 
ENDROOT
BRANCH   2   3
ATOM      3  C   UNL     1      96.188  94.994  75.778  1.00  0.00     0.155 C 
ATOM      4  O   UNL     1      96.648  95.524  74.769  1.00  0.00    -0.295 OA
BRANCH   3   5
ATOM      5  C   UNL     1      96.694  95.349  77.163  1.00  0.00     0.085 C 
BRANCH   5   6
ATOM      6  C   UNL     1      95.859  94.670  78.250  1.00  0.00     0.044 C 
BRANCH   6   7
ATOM      7  C   UNL     1      96.260  95.087  79.645  1.00  0.00    -0.044 A 
ATOM      8  C   UNL     1      97.955  95.781  81.196  1.00  0.00     0.160 A 
ATOM      9  C   UNL     1      97.585  95.395  79.907  1.00  0.00     0.054 A 
ATOM     10  C   UNL     1      96.995  95.853  82.205  1.00  0.00     0.157 A 
ATOM     11  C   UNL     1      95.664  95.540  81.925  1.00  0.00     0.050 A 
ATOM     12  C   UNL     1      95.295  95.154  80.637  1.00  0.00     0.008 A 
BRANCH   8  13
ATOM     13  O   UNL     1      99.257  96.085  81.456  1.00  0.00    -0.493 OA
ATOM     14  C   UNL     1     100.026  96.619  80.380  1.00  0.00     0.278 C 
ENDBRANCH   8  13
BRANCH  10  15
ATOM     15  O   UNL     1      97.344  96.229  83.467  1.00  0.00    -0.504 OA
ATOM     16  H   UNL     1      98.055  95.642  83.775  1.00  0.00     0.293 HD
ENDBRANCH  10  15
ENDBRANCH   6   7
ENDBRANCH   5   6
ENDBRANCH   3   5
ENDBRANCH   2   3
BRANCH   1  17
ATOM     17  C   UNL     1      92.940  93.122  74.858  1.00  0.00     0.027 C 
BRANCH  17  18
ATOM     18  C   UNL     1      91.594  93.734  74.453  1.00  0.00     0.004 C 
BRANCH  18  19
ATOM     19  C   UNL     1      90.389  93.057  75.112  1.00  0.00     0.000 C 
BRANCH  19  20
ATOM     20  C   UNL     1      90.187  93.559  76.542  1.00  0.00    -0.003 C 
ATOM     21  C   UNL     1      89.984  92.408  77.514  1.00  0.00     0.004 C 
ENDBRANCH  19  20
ENDBRANCH  18  19
ENDBRANCH  17  18
ENDBRANCH   1  17
TORSDOF 10
ENDMDL
MODEL 10
REMARK VINA RESULT:    -5.309     12.690     14.763
REMARK INTER + INTRA:          -9.137
REMARK INTER:                  -7.630
REMARK INTRA:                  -1.507
REMARK UNBOUND:                -0.879
REMARK SMILES CCCCC/C=C/C(=O)CCc1ccc(O)c(OC)c1
REMARK SMILES IDX 6 1 7 2 8 3 9 4 10 5 11 6 12 7 17 8 20 9 15 10 14 11 13 12
REMARK SMILES IDX 18 13 19 14 16 15 5 17 4 18 3 19 2 20 1 21
REMARK H PARENT 16 16
REMARK Flexibility Score: inf
ROOT
ATOM      1  C   UNL     1      99.573  81.648  77.322  1.00  0.00    -0.023 C 
ATOM      2  C   UNL     1      98.815  82.748  77.400  1.00  0.00     0.043 C 
ENDROOT
BRANCH   2   3
ATOM      3  C   UNL     1      97.331  82.630  77.371  1.00  0.00     0.155 C 
ATOM      4  O   UNL     1      96.695  82.712  76.323  1.00  0.00    -0.295 OA
BRANCH   3   5
ATOM      5  C   UNL     1      96.640  82.457  78.709  1.00  0.00     0.085 C 
BRANCH   5   6
ATOM      6  C   UNL     1      97.566  82.837  79.866  1.00  0.00     0.044 C 
BRANCH   6   7
ATOM      7  C   UNL     1      97.191  82.162  81.164  1.00  0.00    -0.044 A 
ATOM      8  C   UNL     1      96.294  82.293  83.386  1.00  0.00     0.160 A 
ATOM      9  C   UNL     1      96.640  82.917  82.187  1.00  0.00     0.054 A 
ATOM     10  C   UNL     1      96.503  80.924  83.547  1.00  0.00     0.157 A 
ATOM     11  C   UNL     1      97.060  80.178  82.507  1.00  0.00     0.050 A 
ATOM     12  C   UNL     1      97.406  80.801  81.308  1.00  0.00     0.008 A 
BRANCH   8  13
ATOM     13  O   UNL     1      95.751  83.033  84.393  1.00  0.00    -0.493 OA
ATOM     14  C   UNL     1      96.538  84.106  84.906  1.00  0.00     0.278 C 
ENDBRANCH   8  13
BRANCH  10  15
ATOM     15  O   UNL     1      96.169  80.304  84.712  1.00  0.00    -0.504 OA
ATOM     16  H   UNL     1      95.402  80.765  85.094  1.00  0.00     0.293 HD
ENDBRANCH  10  15
ENDBRANCH   6   7
ENDBRANCH   5   6
ENDBRANCH   3   5
ENDBRANCH   2   3
BRANCH   1  17
ATOM     17  C   UNL     1     101.074  81.682  77.345  1.00  0.00     0.027 C 
BRANCH  17  18
ATOM     18  C   UNL     1     101.676  80.890  78.510  1.00  0.00     0.004 C 
BRANCH  18  19
ATOM     19  C   UNL     1     100.693  80.647  79.660  1.00  0.00     0.000 C 
BRANCH  19  20
ATOM     20  C   UNL     1     101.034  81.518  80.870  1.00  0.00    -0.003 C 
ATOM     21  C   UNL     1     101.052  80.704  82.154  1.00  0.00     0.004 C 
ENDBRANCH  19  20
ENDBRANCH  18  19
ENDBRANCH  17  18
ENDBRANCH   1  17
TORSDOF 10
ENDMDL
