MODEL 1
REMARK VINA RESULT:    -7.045      0.000      0.000
REMARK INTER + INTRA:         -11.932
REMARK INTER:                 -10.958
REMARK INTRA:                  -0.974
REMARK UNBOUND:                -0.974
REMARK SMILES COc1cc(CNC(=O)CCCC/C=C/C(C)C)ccc1O
REMARK SMILES IDX 10 1 8 2 7 3 9 5 6 6 5 7 3 8 21 9 4 10 20 11 19 12 2 13 1 14
REMARK SMILES IDX 22 15 11 17 12 18 13 19 14 20 15 21 16 22 17 23 18 24
REMARK H PARENT 7 4 22 16
REMARK Flexibility Score: inf
ROOT
ATOM      1  C   UNL     1      92.668  94.664  75.672  1.00  0.00     0.100 C 
ENDROOT
BRANCH   1   2
ATOM      2  C   UNL     1      91.869  93.834  76.594  1.00  0.00     0.220 C 
ATOM      3  N   UNL     1      90.527  93.690  76.407  1.00  0.00    -0.352 N 
ATOM      4  H   UNL     1      90.148  94.204  75.624  1.00  0.00     0.163 HD
ATOM      5  O   UNL     1      92.463  93.252  77.533  1.00  0.00    -0.275 OA
BRANCH   3   6
ATOM      6  C   UNL     1      89.672  92.886  77.221  1.00  0.00     0.151 C 
BRANCH   6   7
ATOM      7  C   UNL     1      89.641  91.474  76.753  1.00  0.00    -0.025 A 
ATOM      8  C   UNL     1      89.182  89.829  74.979  1.00  0.00     0.160 A 
ATOM      9  C   UNL     1      89.594  88.788  75.837  1.00  0.00     0.157 A 
ATOM     10  C   UNL     1      89.207  91.160  75.445  1.00  0.00     0.056 A 
ATOM     11  C   UNL     1      90.010  89.084  77.150  1.00  0.00     0.050 A 
ATOM     12  C   UNL     1      90.043  90.417  77.602  1.00  0.00     0.009 A 
BRANCH   8  13
ATOM     13  O   UNL     1      88.714  89.539  73.723  1.00  0.00    -0.493 OA
ATOM     14  C   UNL     1      87.767  90.497  73.214  1.00  0.00     0.278 C 
ENDBRANCH   8  13
BRANCH   9  15
ATOM     15  O   UNL     1      89.594  87.497  75.416  1.00  0.00    -0.504 OA
ATOM     16  H   UNL     1      90.297  87.015  75.858  1.00  0.00     0.293 HD
ENDBRANCH   9  15
ENDBRANCH   6   7
ENDBRANCH   3   6
ENDBRANCH   1   2
BRANCH   1  17
ATOM     17  C   UNL     1      93.990  93.958  75.267  1.00  0.00     0.010 C 
BRANCH  17  18
ATOM     18  C   UNL     1      95.255  94.777  75.648  1.00  0.00     0.005 C 
BRANCH  18  19
ATOM     19  C   UNL     1      96.230  93.973  76.550  1.00  0.00     0.027 C 
BRANCH  19  20
ATOM     20  C   UNL     1      95.814  93.975  77.944  1.00  0.00    -0.031 C 
ATOM     21  C   UNL     1      95.765  95.075  78.717  1.00  0.00    -0.028 C 
BRANCH  21  22
ATOM     22  C   UNL     1      95.324  95.057  80.112  1.00  0.00     0.005 C 
ATOM     23  C   UNL     1      95.685  93.725  80.826  1.00  0.00     0.012 C 
ATOM     24  C   UNL     1      95.911  96.272  80.876  1.00  0.00     0.012 C 
ENDBRANCH  21  22
ENDBRANCH  19  20
ENDBRANCH  18  19
ENDBRANCH  17  18
ENDBRANCH   1  17
TORSDOF 10
ENDMDL
MODEL 2
REMARK VINA RESULT:    -6.941      2.542      5.348
REMARK INTER + INTRA:         -11.770
REMARK INTER:                 -10.785
REMARK INTRA:                  -0.984
REMARK UNBOUND:                -0.974
REMARK SMILES COc1cc(CNC(=O)CCCC/C=C/C(C)C)ccc1O
REMARK SMILES IDX 10 1 8 2 7 3 9 5 6 6 5 7 3 8 21 9 4 10 20 11 19 12 2 13 1 14
REMARK SMILES IDX 22 15 11 17 12 18 13 19 14 20 15 21 16 22 17 23 18 24
REMARK H PARENT 7 4 22 16
REMARK Flexibility Score: inf
ROOT
ATOM      1  C   UNL     1      92.944  94.518  76.553  1.00  0.00     0.100 C 
ENDROOT
BRANCH   1   2
ATOM      2  C   UNL     1      91.547  94.105  76.786  1.00  0.00     0.220 C 
ATOM      3  N   UNL     1      91.268  92.907  77.373  1.00  0.00    -0.352 N 
ATOM      4  H   UNL     1      92.077  92.345  77.600  1.00  0.00     0.163 HD
ATOM      5  O   UNL     1      90.632  94.896  76.450  1.00  0.00    -0.275 OA
BRANCH   3   6
ATOM      6  C   UNL     1      89.955  92.431  77.671  1.00  0.00     0.151 C 
BRANCH   6   7
ATOM      7  C   UNL     1      89.931  90.949  77.813  1.00  0.00    -0.025 A 
ATOM      8  C   UNL     1      89.919  88.712  76.786  1.00  0.00     0.160 A 
ATOM      9  C   UNL     1      89.905  88.123  78.067  1.00  0.00     0.157 A 
ATOM     10  C   UNL     1      89.930  90.118  76.671  1.00  0.00     0.056 A 
ATOM     11  C   UNL     1      89.886  88.939  79.215  1.00  0.00     0.050 A 
ATOM     12  C   UNL     1      89.909  90.342  79.091  1.00  0.00     0.009 A 
BRANCH   8  13
ATOM     13  O   UNL     1      89.871  87.922  75.666  1.00  0.00    -0.493 OA
ATOM     14  C   UNL     1      91.134  87.786  74.989  1.00  0.00     0.278 C 
ENDBRANCH   8  13
BRANCH   9  15
ATOM     15  O   UNL     1      89.908  86.773  78.213  1.00  0.00    -0.504 OA
ATOM     16  H   UNL     1      89.088  86.411  77.868  1.00  0.00     0.293 HD
ENDBRANCH   9  15
ENDBRANCH   6   7
ENDBRANCH   3   6
ENDBRANCH   1   2
BRANCH   1  17
ATOM     17  C   UNL     1      93.441  94.089  75.146  1.00  0.00     0.010 C 
BRANCH  17  18
ATOM     18  C   UNL     1      92.323  93.440  74.282  1.00  0.00     0.005 C 
BRANCH  18  19
ATOM     19  C   UNL     1      92.352  91.889  74.346  1.00  0.00     0.027 C 
BRANCH  19  20
ATOM     20  C   UNL     1      91.317  91.288  73.519  1.00  0.00    -0.031 C 
ATOM     21  C   UNL     1      90.063  91.763  73.412  1.00  0.00    -0.028 C 
BRANCH  21  22
ATOM     22  C   UNL     1      89.044  91.154  72.558  1.00  0.00     0.005 C 
ATOM     23  C   UNL     1      89.651  90.524  71.274  1.00  0.00     0.012 C 
ATOM     24  C   UNL     1      88.233  90.102  73.359  1.00  0.00     0.012 C 
ENDBRANCH  21  22
ENDBRANCH  19  20
ENDBRANCH  18  19
ENDBRANCH  17  18
ENDBRANCH   1  17
TORSDOF 10
ENDMDL
MODEL 3
REMARK VINA RESULT:    -6.765      1.757      2.582
REMARK INTER + INTRA:         -11.495
REMARK INTER:                 -10.669
REMARK INTRA:                  -0.827
REMARK UNBOUND:                -0.974
REMARK SMILES COc1cc(CNC(=O)CCCC/C=C/C(C)C)ccc1O
REMARK SMILES IDX 10 1 8 2 7 3 9 5 6 6 5 7 3 8 21 9 4 10 20 11 19 12 2 13 1 14
REMARK SMILES IDX 22 15 11 17 12 18 13 19 14 20 15 21 16 22 17 23 18 24
REMARK H PARENT 7 4 22 16
REMARK Flexibility Score: inf
ROOT
ATOM      1  C   UNL     1      92.649  94.441  75.557  1.00  0.00     0.100 C 
ENDROOT
BRANCH   1   2
ATOM      2  C   UNL     1      91.514  93.627  75.083  1.00  0.00     0.220 C 
ATOM      3  N   UNL     1      90.796  92.866  75.957  1.00  0.00    -0.352 N 
ATOM      4  H   UNL     1      91.120  92.896  76.914  1.00  0.00     0.163 HD
ATOM      5  O   UNL     1      91.218  93.674  73.865  1.00  0.00    -0.275 OA
BRANCH   3   6
ATOM      6  C   UNL     1      89.664  92.070  75.606  1.00  0.00     0.151 C 
BRANCH   6   7
ATOM      7  C   UNL     1      90.049  90.655  75.351  1.00  0.00    -0.025 A 
ATOM      8  C   UNL     1      90.525  88.392  76.197  1.00  0.00     0.160 A 
ATOM      9  C   UNL     1      90.763  87.949  74.880  1.00  0.00     0.157 A 
ATOM     10  C   UNL     1      90.173  89.740  76.420  1.00  0.00     0.056 A 
ATOM     11  C   UNL     1      90.663  88.854  73.805  1.00  0.00     0.050 A 
ATOM     12  C   UNL     1      90.299  90.195  74.037  1.00  0.00     0.009 A 
BRANCH   8  13
ATOM     13  O   UNL     1      90.686  87.531  77.253  1.00  0.00    -0.493 OA
ATOM     14  C   UNL     1      89.807  87.792  78.363  1.00  0.00     0.278 C 
ENDBRANCH   8  13
BRANCH   9  15
ATOM     15  O   UNL     1      91.092  86.655  74.630  1.00  0.00    -0.504 OA
ATOM     16  H   UNL     1      90.349  86.210  74.214  1.00  0.00     0.293 HD
ENDBRANCH   9  15
ENDBRANCH   6   7
ENDBRANCH   3   6
ENDBRANCH   1   2
BRANCH   1  17
ATOM     17  C   UNL     1      93.095  94.027  76.985  1.00  0.00     0.010 C 
BRANCH  17  18
ATOM     18  C   UNL     1      94.613  93.707  77.076  1.00  0.00     0.005 C 
BRANCH  18  19
ATOM     19  C   UNL     1      95.479  94.987  77.224  1.00  0.00     0.027 C 
BRANCH  19  20
ATOM     20  C   UNL     1      95.948  95.176  78.588  1.00  0.00    -0.031 C 
ATOM     21  C   UNL     1      95.832  94.255  79.562  1.00  0.00    -0.028 C 
BRANCH  21  22
ATOM     22  C   UNL     1      96.330  94.458  80.922  1.00  0.00     0.005 C 
ATOM     23  C   UNL     1      97.690  95.209  80.946  1.00  0.00     0.012 C 
ATOM     24  C   UNL     1      95.271  95.205  81.774  1.00  0.00     0.012 C 
ENDBRANCH  21  22
ENDBRANCH  19  20
ENDBRANCH  18  19
ENDBRANCH  17  18
ENDBRANCH   1  17
TORSDOF 10
ENDMDL
MODEL 4
REMARK VINA RESULT:    -6.506      1.823      2.787
REMARK INTER + INTRA:         -11.092
REMARK INTER:                 -10.247
REMARK INTRA:                  -0.846
REMARK UNBOUND:                -0.974
REMARK SMILES COc1cc(CNC(=O)CCCC/C=C/C(C)C)ccc1O
REMARK SMILES IDX 10 1 8 2 7 3 9 5 6 6 5 7 3 8 21 9 4 10 20 11 19 12 2 13 1 14
REMARK SMILES IDX 22 15 11 17 12 18 13 19 14 20 15 21 16 22 17 23 18 24
REMARK H PARENT 7 4 22 16
REMARK Flexibility Score: inf
ROOT
ATOM      1  C   UNL     1      93.420  94.059  77.160  1.00  0.00     0.100 C 
ENDROOT
BRANCH   1   2
ATOM      2  C   UNL     1      92.041  93.609  76.889  1.00  0.00     0.220 C 
ATOM      3  N   UNL     1      91.319  94.166  75.877  1.00  0.00    -0.352 N 
ATOM      4  H   UNL     1      91.791  94.902  75.370  1.00  0.00     0.163 HD
ATOM      5  O   UNL     1      91.569  92.688  77.598  1.00  0.00    -0.275 OA
BRANCH   3   6
ATOM      6  C   UNL     1      89.993  93.780  75.513  1.00  0.00     0.151 C 
BRANCH   6   7
ATOM      7  C   UNL     1      89.994  92.838  74.361  1.00  0.00    -0.025 A 
ATOM      8  C   UNL     1      90.089  90.536  73.493  1.00  0.00     0.160 A 
ATOM      9  C   UNL     1      89.979  91.027  72.176  1.00  0.00     0.157 A 
ATOM     10  C   UNL     1      90.098  91.445  74.572  1.00  0.00     0.056 A 
ATOM     11  C   UNL     1      89.895  92.415  71.948  1.00  0.00     0.050 A 
ATOM     12  C   UNL     1      89.892  93.314  73.033  1.00  0.00     0.009 A 
BRANCH   8  13
ATOM     13  O   UNL     1      90.238  89.191  73.715  1.00  0.00    -0.493 OA
ATOM     14  C   UNL     1      91.342  88.857  74.577  1.00  0.00     0.278 C 
ENDBRANCH   8  13
BRANCH   9  15
ATOM     15  O   UNL     1      89.954  90.178  71.116  1.00  0.00    -0.504 OA
ATOM     16  H   UNL     1      89.787  90.675  70.311  1.00  0.00     0.293 HD
ENDBRANCH   9  15
ENDBRANCH   6   7
ENDBRANCH   3   6
ENDBRANCH   1   2
BRANCH   1  17
ATOM     17  C   UNL     1      94.340  93.863  75.926  1.00  0.00     0.010 C 
BRANCH  17  18
ATOM     18  C   UNL     1      95.844  93.750  76.304  1.00  0.00     0.005 C 
BRANCH  18  19
ATOM     19  C   UNL     1      96.564  95.125  76.282  1.00  0.00     0.027 C 
BRANCH  19  20
ATOM     20  C   UNL     1      96.596  95.747  77.597  1.00  0.00    -0.031 C 
ATOM     21  C   UNL     1      96.388  95.087  78.750  1.00  0.00    -0.028 C 
BRANCH  21  22
ATOM     22  C   UNL     1      96.444  95.730  80.063  1.00  0.00     0.005 C 
ATOM     23  C   UNL     1      95.235  95.346  80.960  1.00  0.00     0.012 C 
ATOM     24  C   UNL     1      97.784  95.392  80.768  1.00  0.00     0.012 C 
ENDBRANCH  21  22
ENDBRANCH  19  20
ENDBRANCH  18  19
ENDBRANCH  17  18
ENDBRANCH   1  17
TORSDOF 10
ENDMDL
MODEL 5
REMARK VINA RESULT:    -6.234      2.890      8.535
REMARK INTER + INTRA:         -10.670
REMARK INTER:                  -9.967
REMARK INTRA:                  -0.703
REMARK UNBOUND:                -0.974
REMARK SMILES COc1cc(CNC(=O)CCCC/C=C/C(C)C)ccc1O
REMARK SMILES IDX 10 1 8 2 7 3 9 5 6 6 5 7 3 8 21 9 4 10 20 11 19 12 2 13 1 14
REMARK SMILES IDX 22 15 11 17 12 18 13 19 14 20 15 21 16 22 17 23 18 24
REMARK H PARENT 7 4 22 16
REMARK Flexibility Score: inf
ROOT
ATOM      1  C   UNL     1      92.276  93.221  76.226  1.00  0.00     0.100 C 
ENDROOT
BRANCH   1   2
ATOM      2  C   UNL     1      93.409  94.166  76.204  1.00  0.00     0.220 C 
ATOM      3  N   UNL     1      94.454  94.012  77.064  1.00  0.00    -0.352 N 
ATOM      4  H   UNL     1      94.368  93.236  77.706  1.00  0.00     0.163 HD
ATOM      5  O   UNL     1      93.390  95.093  75.359  1.00  0.00    -0.275 OA
BRANCH   3   6
ATOM      6  C   UNL     1      95.609  94.851  77.101  1.00  0.00     0.151 C 
BRANCH   6   7
ATOM      7  C   UNL     1      95.870  95.361  78.475  1.00  0.00    -0.025 A 
ATOM      8  C   UNL     1      95.534  95.192  80.908  1.00  0.00     0.160 A 
ATOM      9  C   UNL     1      96.373  96.308  81.103  1.00  0.00     0.157 A 
ATOM     10  C   UNL     1      95.289  94.730  79.598  1.00  0.00     0.056 A 
ATOM     11  C   UNL     1      96.944  96.960  79.991  1.00  0.00     0.050 A 
ATOM     12  C   UNL     1      96.703  96.484  78.688  1.00  0.00     0.009 A 
BRANCH   8  13
ATOM     13  O   UNL     1      94.924  94.595  81.982  1.00  0.00    -0.493 OA
ATOM     14  C   UNL     1      95.549  93.369  82.406  1.00  0.00     0.278 C 
ENDBRANCH   8  13
BRANCH   9  15
ATOM     15  O   UNL     1      96.640  96.770  82.352  1.00  0.00    -0.504 OA
ATOM     16  H   UNL     1      97.464  97.262  82.343  1.00  0.00     0.293 HD
ENDBRANCH   9  15
ENDBRANCH   6   7
ENDBRANCH   3   6
ENDBRANCH   1   2
BRANCH   1  17
ATOM     17  C   UNL     1      90.967  93.906  76.705  1.00  0.00     0.010 C 
BRANCH  17  18
ATOM     18  C   UNL     1      89.791  92.906  76.884  1.00  0.00     0.005 C 
BRANCH  18  19
ATOM     19  C   UNL     1      90.107  91.804  77.931  1.00  0.00     0.027 C 
BRANCH  19  20
ATOM     20  C   UNL     1      90.499  90.550  77.304  1.00  0.00    -0.031 C 
ATOM     21  C   UNL     1      89.876  90.009  76.242  1.00  0.00    -0.028 C 
BRANCH  21  22
ATOM     22  C   UNL     1      90.299  88.756  75.615  1.00  0.00     0.005 C 
ATOM     23  C   UNL     1      89.111  87.985  74.978  1.00  0.00     0.012 C 
ATOM     24  C   UNL     1      91.407  89.030  74.566  1.00  0.00     0.012 C 
ENDBRANCH  21  22
ENDBRANCH  19  20
ENDBRANCH  18  19
ENDBRANCH  17  18
ENDBRANCH   1  17
TORSDOF 10
ENDMDL
MODEL 6
REMARK VINA RESULT:    -6.133      1.488      2.498
REMARK INTER + INTRA:         -10.513
REMARK INTER:                  -9.714
REMARK INTRA:                  -0.799
REMARK UNBOUND:                -0.974
REMARK SMILES COc1cc(CNC(=O)CCCC/C=C/C(C)C)ccc1O
REMARK SMILES IDX 10 1 8 2 7 3 9 5 6 6 5 7 3 8 21 9 4 10 20 11 19 12 2 13 1 14
REMARK SMILES IDX 22 15 11 17 12 18 13 19 14 20 15 21 16 22 17 23 18 24
REMARK H PARENT 7 4 22 16
REMARK Flexibility Score: inf
ROOT
ATOM      1  C   UNL     1      94.796  94.268  75.416  1.00  0.00     0.100 C 
ENDROOT
BRANCH   1   2
ATOM      2  C   UNL     1      93.401  94.164  75.885  1.00  0.00     0.220 C 
ATOM      3  N   UNL     1      93.008  93.114  76.659  1.00  0.00    -0.352 N 
ATOM      4  H   UNL     1      93.730  92.432  76.851  1.00  0.00     0.163 HD
ATOM      5  O   UNL     1      92.600  95.077  75.569  1.00  0.00    -0.275 OA
BRANCH   3   6
ATOM      6  C   UNL     1      91.694  92.937  77.189  1.00  0.00     0.151 C 
BRANCH   6   7
ATOM      7  C   UNL     1      90.877  92.035  76.332  1.00  0.00    -0.025 A 
ATOM      8  C   UNL     1      89.877  89.823  75.917  1.00  0.00     0.160 A 
ATOM      9  C   UNL     1      89.305  90.306  74.722  1.00  0.00     0.157 A 
ATOM     10  C   UNL     1      90.658  90.690  76.709  1.00  0.00     0.056 A 
ATOM     11  C   UNL     1      89.530  91.638  74.323  1.00  0.00     0.050 A 
ATOM     12  C   UNL     1      90.302  92.500  75.127  1.00  0.00     0.009 A 
BRANCH   8  13
ATOM     13  O   UNL     1      89.715  88.509  76.275  1.00  0.00    -0.493 OA
ATOM     14  C   UNL     1      90.881  87.694  76.058  1.00  0.00     0.278 C 
ENDBRANCH   8  13
BRANCH   9  15
ATOM     15  O   UNL     1      88.536  89.501  73.943  1.00  0.00    -0.504 OA
ATOM     16  H   UNL     1      88.887  89.489  73.049  1.00  0.00     0.293 HD
ENDBRANCH   9  15
ENDBRANCH   6   7
ENDBRANCH   3   6
ENDBRANCH   1   2
BRANCH   1  17
ATOM     17  C   UNL     1      95.276  95.744  75.372  1.00  0.00     0.010 C 
BRANCH  17  18
ATOM     18  C   UNL     1      96.823  95.875  75.280  1.00  0.00     0.005 C 
BRANCH  18  19
ATOM     19  C   UNL     1      97.464  96.266  76.638  1.00  0.00     0.027 C 
BRANCH  19  20
ATOM     20  C   UNL     1      96.947  95.466  77.738  1.00  0.00    -0.031 C 
ATOM     21  C   UNL     1      96.746  95.933  78.984  1.00  0.00    -0.028 C 
BRANCH  21  22
ATOM     22  C   UNL     1      96.206  95.116  80.070  1.00  0.00     0.005 C 
ATOM     23  C   UNL     1      95.558  95.977  81.189  1.00  0.00     0.012 C 
ATOM     24  C   UNL     1      95.194  94.083  79.511  1.00  0.00     0.012 C 
ENDBRANCH  21  22
ENDBRANCH  19  20
ENDBRANCH  18  19
ENDBRANCH  17  18
ENDBRANCH   1  17
TORSDOF 10
ENDMDL
MODEL 7
REMARK VINA RESULT:    -5.965      4.519      8.346
REMARK INTER + INTRA:         -10.252
REMARK INTER:                  -9.369
REMARK INTRA:                  -0.883
REMARK UNBOUND:                -0.974
REMARK SMILES COc1cc(CNC(=O)CCCC/C=C/C(C)C)ccc1O
REMARK SMILES IDX 10 1 8 2 7 3 9 5 6 6 5 7 3 8 21 9 4 10 20 11 19 12 2 13 1 14
REMARK SMILES IDX 22 15 11 17 12 18 13 19 14 20 15 21 16 22 17 23 18 24
REMARK H PARENT 7 4 22 16
REMARK Flexibility Score: inf
ROOT
ATOM      1  C   UNL     1      96.041  96.751  74.578  1.00  0.00     0.100 C 
ENDROOT
BRANCH   1   2
ATOM      2  C   UNL     1      96.457  97.335  75.868  1.00  0.00     0.220 C 
ATOM      3  N   UNL     1      97.018  96.553  76.832  1.00  0.00    -0.352 N 
ATOM      4  H   UNL     1      97.094  95.573  76.596  1.00  0.00     0.163 HD
ATOM      5  O   UNL     1      96.300  98.569  76.037  1.00  0.00    -0.275 OA
BRANCH   3   6
ATOM      6  C   UNL     1      97.482  97.025  78.097  1.00  0.00     0.151 C 
BRANCH   6   7
ATOM      7  C   UNL     1      96.783  96.348  79.223  1.00  0.00    -0.025 A 
ATOM      8  C   UNL     1      96.173  96.262  81.607  1.00  0.00     0.160 A 
ATOM      9  C   UNL     1      95.440  95.079  81.378  1.00  0.00     0.157 A 
ATOM     10  C   UNL     1      96.839  96.883  80.530  1.00  0.00     0.056 A 
ATOM     11  C   UNL     1      95.391  94.523  80.084  1.00  0.00     0.050 A 
ATOM     12  C   UNL     1      96.049  95.157  79.013  1.00  0.00     0.009 A 
BRANCH   8  13
ATOM     13  O   UNL     1      96.278  96.771  82.877  1.00  0.00    -0.493 OA
ATOM     14  C   UNL     1      97.630  96.865  83.362  1.00  0.00     0.278 C 
ENDBRANCH   8  13
BRANCH   9  15
ATOM     15  O   UNL     1      94.777  94.464  82.391  1.00  0.00    -0.504 OA
ATOM     16  H   UNL     1      93.838  94.443  82.193  1.00  0.00     0.293 HD
ENDBRANCH   9  15
ENDBRANCH   6   7
ENDBRANCH   3   6
ENDBRANCH   1   2
BRANCH   1  17
ATOM     17  C   UNL     1      94.577  97.128  74.225  1.00  0.00     0.010 C 
BRANCH  17  18
ATOM     18  C   UNL     1      93.566  95.991  74.544  1.00  0.00     0.005 C 
BRANCH  18  19
ATOM     19  C   UNL     1      94.170  94.908  75.479  1.00  0.00     0.027 C 
BRANCH  19  20
ATOM     20  C   UNL     1      93.200  93.882  75.828  1.00  0.00    -0.031 C 
ATOM     21  C   UNL     1      91.952  94.138  76.260  1.00  0.00    -0.028 C 
BRANCH  21  22
ATOM     22  C   UNL     1      90.985  93.089  76.586  1.00  0.00     0.005 C 
ATOM     23  C   UNL     1      91.368  92.316  77.878  1.00  0.00     0.012 C 
ATOM     24  C   UNL     1      89.561  93.691  76.703  1.00  0.00     0.012 C 
ENDBRANCH  21  22
ENDBRANCH  19  20
ENDBRANCH  18  19
ENDBRANCH  17  18
ENDBRANCH   1  17
TORSDOF 10
ENDMDL
MODEL 8
REMARK VINA RESULT:    -5.785     13.665     15.814
REMARK INTER + INTRA:          -9.971
REMARK INTER:                  -8.720
REMARK INTRA:                  -1.251
REMARK UNBOUND:                -0.974
REMARK SMILES COc1cc(CNC(=O)CCCC/C=C/C(C)C)ccc1O
REMARK SMILES IDX 10 1 8 2 7 3 9 5 6 6 5 7 3 8 21 9 4 10 20 11 19 12 2 13 1 14
REMARK SMILES IDX 22 15 11 17 12 18 13 19 14 20 15 21 16 22 17 23 18 24
REMARK H PARENT 7 4 22 16
REMARK Flexibility Score: inf
ROOT
ATOM      1  C   UNL     1      79.514  90.611  90.159  1.00  0.00     0.100 C 
ENDROOT
BRANCH   1   2
ATOM      2  C   UNL     1      80.202  89.313  90.303  1.00  0.00     0.220 C 
ATOM      3  N   UNL     1      79.832  88.246  89.541  1.00  0.00    -0.352 N 
ATOM      4  H   UNL     1      79.057  88.417  88.915  1.00  0.00     0.163 HD
ATOM      5  O   UNL     1      81.146  89.232  91.125  1.00  0.00    -0.275 OA
BRANCH   3   6
ATOM      6  C   UNL     1      80.453  86.961  89.582  1.00  0.00     0.151 C 
BRANCH   6   7
ATOM      7  C   UNL     1      80.821  86.488  88.219  1.00  0.00    -0.025 A 
ATOM      8  C   UNL     1      80.324  86.337  85.812  1.00  0.00     0.160 A 
ATOM      9  C   UNL     1      81.517  85.612  85.611  1.00  0.00     0.157 A 
ATOM     10  C   UNL     1      79.986  86.765  87.113  1.00  0.00     0.056 A 
ATOM     11  C   UNL     1      82.349  85.312  86.707  1.00  0.00     0.050 A 
ATOM     12  C   UNL     1      82.010  85.754  88.000  1.00  0.00     0.009 A 
BRANCH   8  13
ATOM     13  O   UNL     1      79.478  86.575  84.759  1.00  0.00    -0.493 OA
ATOM     14  C   UNL     1      79.591  87.898  84.203  1.00  0.00     0.278 C 
ENDBRANCH   8  13
BRANCH   9  15
ATOM     15  O   UNL     1      81.878  85.196  84.370  1.00  0.00    -0.504 OA
ATOM     16  H   UNL     1      82.833  85.117  84.323  1.00  0.00     0.293 HD
ENDBRANCH   9  15
ENDBRANCH   6   7
ENDBRANCH   3   6
ENDBRANCH   1   2
BRANCH   1  17
ATOM     17  C   UNL     1      79.786  91.252  88.771  1.00  0.00     0.010 C 
BRANCH  17  18
ATOM     18  C   UNL     1      81.194  90.906  88.211  1.00  0.00     0.005 C 
BRANCH  18  19
ATOM     19  C   UNL     1      81.124  90.215  86.822  1.00  0.00     0.027 C 
BRANCH  19  20
ATOM     20  C   UNL     1      82.445  89.928  86.286  1.00  0.00    -0.031 C 
ATOM     21  C   UNL     1      83.240  90.845  85.704  1.00  0.00    -0.028 C 
BRANCH  21  22
ATOM     22  C   UNL     1      84.575  90.538  85.189  1.00  0.00     0.005 C 
ATOM     23  C   UNL     1      85.445  91.814  85.011  1.00  0.00     0.012 C 
ATOM     24  C   UNL     1      85.282  89.510  86.110  1.00  0.00     0.012 C 
ENDBRANCH  21  22
ENDBRANCH  19  20
ENDBRANCH  18  19
ENDBRANCH  17  18
ENDBRANCH   1  17
TORSDOF 10
ENDMDL
MODEL 9
REMARK VINA RESULT:    -5.502      3.030      8.969
REMARK INTER + INTRA:          -9.531
REMARK INTER:                  -8.924
REMARK INTRA:                  -0.607
REMARK UNBOUND:                -0.974
REMARK SMILES COc1cc(CNC(=O)CCCC/C=C/C(C)C)ccc1O
REMARK SMILES IDX 10 1 8 2 7 3 9 5 6 6 5 7 3 8 21 9 4 10 20 11 19 12 2 13 1 14
REMARK SMILES IDX 22 15 11 17 12 18 13 19 14 20 15 21 16 22 17 23 18 24
REMARK H PARENT 7 4 22 16
REMARK Flexibility Score: inf
ROOT
ATOM      1  C   UNL     1      93.767  94.724  76.084  1.00  0.00     0.100 C 
ENDROOT
BRANCH   1   2
ATOM      2  C   UNL     1      94.102  94.170  77.411  1.00  0.00     0.220 C 
ATOM      3  N   UNL     1      95.287  94.477  78.009  1.00  0.00    -0.352 N 
ATOM      4  H   UNL     1      95.896  95.074  77.467  1.00  0.00     0.163 HD
ATOM      5  O   UNL     1      93.257  93.434  77.975  1.00  0.00    -0.275 OA
BRANCH   3   6
ATOM      6  C   UNL     1      95.691  94.020  79.300  1.00  0.00     0.151 C 
BRANCH   6   7
ATOM      7  C   UNL     1      95.971  95.157  80.219  1.00  0.00    -0.025 A 
ATOM      8  C   UNL     1      96.913  97.399  80.607  1.00  0.00     0.160 A 
ATOM      9  C   UNL     1      96.495  97.342  81.952  1.00  0.00     0.157 A 
ATOM     10  C   UNL     1      96.650  96.306  79.754  1.00  0.00     0.056 A 
ATOM     11  C   UNL     1      95.834  96.196  82.435  1.00  0.00     0.050 A 
ATOM     12  C   UNL     1      95.565  95.114  81.573  1.00  0.00     0.009 A 
BRANCH   8  13
ATOM     13  O   UNL     1      97.615  98.485  80.150  1.00  0.00    -0.493 OA
ATOM     14  C   UNL     1      97.026  99.123  79.001  1.00  0.00     0.278 C 
ENDBRANCH   8  13
BRANCH   9  15
ATOM     15  O   UNL     1      96.721  98.382  82.796  1.00  0.00    -0.504 OA
ATOM     16  H   UNL     1      96.181  98.280  83.583  1.00  0.00     0.293 HD
ENDBRANCH   9  15
ENDBRANCH   6   7
ENDBRANCH   3   6
ENDBRANCH   1   2
BRANCH   1  17
ATOM     17  C   UNL     1      92.359  94.270  75.614  1.00  0.00     0.010 C 
BRANCH  17  18
ATOM     18  C   UNL     1      91.207  95.019  76.342  1.00  0.00     0.005 C 
BRANCH  18  19
ATOM     19  C   UNL     1      89.911  94.169  76.426  1.00  0.00     0.027 C 
BRANCH  19  20
ATOM     20  C   UNL     1      90.118  92.807  75.957  1.00  0.00    -0.031 C 
ATOM     21  C   UNL     1      89.321  91.770  76.273  1.00  0.00    -0.028 C 
BRANCH  21  22
ATOM     22  C   UNL     1      89.537  90.412  75.774  1.00  0.00     0.005 C 
ATOM     23  C   UNL     1      88.648  90.090  74.541  1.00  0.00     0.012 C 
ATOM     24  C   UNL     1      91.037  90.193  75.446  1.00  0.00     0.012 C 
ENDBRANCH  21  22
ENDBRANCH  19  20
ENDBRANCH  18  19
ENDBRANCH  17  18
ENDBRANCH   1  17
TORSDOF 10
ENDMDL
MODEL 10
REMARK VINA RESULT:    -5.489      2.252      2.945
REMARK INTER + INTRA:          -9.512
REMARK INTER:                  -8.633
REMARK INTRA:                  -0.879
REMARK UNBOUND:                -0.974
REMARK SMILES COc1cc(CNC(=O)CCCC/C=C/C(C)C)ccc1O
REMARK SMILES IDX 10 1 8 2 7 3 9 5 6 6 5 7 3 8 21 9 4 10 20 11 19 12 2 13 1 14
REMARK SMILES IDX 22 15 11 17 12 18 13 19 14 20 15 21 16 22 17 23 18 24
REMARK H PARENT 7 4 22 16
REMARK Flexibility Score: inf
ROOT
ATOM      1  C   UNL     1      95.884  93.839  76.511  1.00  0.00     0.100 C 
ENDROOT
BRANCH   1   2
ATOM      2  C   UNL     1      94.645  93.877  77.312  1.00  0.00     0.220 C 
ATOM      3  N   UNL     1      93.486  93.357  76.819  1.00  0.00    -0.352 N 
ATOM      4  H   UNL     1      93.552  92.982  75.883  1.00  0.00     0.163 HD
ATOM      5  O   UNL     1      94.698  94.379  78.461  1.00  0.00    -0.275 OA
BRANCH   3   6
ATOM      6  C   UNL     1      92.245  93.317  77.524  1.00  0.00     0.151 C 
BRANCH   6   7
ATOM      7  C   UNL     1      91.230  92.506  76.798  1.00  0.00    -0.025 A 
ATOM      8  C   UNL     1      90.111  91.884  74.695  1.00  0.00     0.160 A 
ATOM      9  C   UNL     1      89.312  90.955  75.394  1.00  0.00     0.157 A 
ATOM     10  C   UNL     1      91.060  92.651  75.402  1.00  0.00     0.056 A 
ATOM     11  C   UNL     1      89.457  90.814  76.788  1.00  0.00     0.050 A 
ATOM     12  C   UNL     1      90.415  91.576  77.484  1.00  0.00     0.009 A 
BRANCH   8  13
ATOM     13  O   UNL     1      89.928  92.072  73.348  1.00  0.00    -0.493 OA
ATOM     14  C   UNL     1      90.867  91.358  72.523  1.00  0.00     0.278 C 
ENDBRANCH   8  13
BRANCH   9  15
ATOM     15  O   UNL     1      88.399  90.191  74.740  1.00  0.00    -0.504 OA
ATOM     16  H   UNL     1      88.822  89.747  74.002  1.00  0.00     0.293 HD
ENDBRANCH   9  15
ENDBRANCH   6   7
ENDBRANCH   3   6
ENDBRANCH   1   2
BRANCH   1  17
ATOM     17  C   UNL     1      95.927  94.987  75.468  1.00  0.00     0.010 C 
BRANCH  17  18
ATOM     18  C   UNL     1      97.082  95.995  75.725  1.00  0.00     0.005 C 
BRANCH  18  19
ATOM     19  C   UNL     1      97.989  95.564  76.909  1.00  0.00     0.027 C 
BRANCH  19  20
ATOM     20  C   UNL     1      98.114  96.611  77.913  1.00  0.00    -0.031 C 
ATOM     21  C   UNL     1      97.071  97.257  78.464  1.00  0.00    -0.028 C 
BRANCH  21  22
ATOM     22  C   UNL     1      97.218  98.293  79.486  1.00  0.00     0.005 C 
ATOM     23  C   UNL     1      98.650  98.325  80.090  1.00  0.00     0.012 C 
ATOM     24  C   UNL     1      96.832  99.678  78.906  1.00  0.00     0.012 C 
ENDBRANCH  21  22
ENDBRANCH  19  20
ENDBRANCH  18  19
ENDBRANCH  17  18
ENDBRANCH   1  17
TORSDOF 10
ENDMDL
