MODEL 1
REMARK VINA RESULT:    -8.153      0.000      0.000
REMARK INTER + INTRA:          -9.949
REMARK INTER:                  -9.583
REMARK INTRA:                  -0.366
REMARK UNBOUND:                -0.366
REMARK SMILES O=C(/C=C/C=C/c1ccc2c(c1)OCO2)N1CCCCC1
REMARK SMILES IDX 3 1 4 2 2 3 1 4 16 5 17 6 21 7 18 8 20 9 19 10 5 11 6 12
REMARK SMILES IDX 7 13 12 14 8 15 11 16 9 17 13 18 10 19 14 20 15 21
REMARK H PARENT
REMARK Flexibility Score: inf
ROOT
ATOM      1  C   UNL     1      90.858  91.624  75.938  1.00  0.00     0.071 C 
ATOM      2  C   UNL     1      90.875  92.402  77.019  1.00  0.00     0.006 C 
ENDROOT
BRANCH   1   3
ATOM      3  C   UNL     1      89.560  91.072  75.500  1.00  0.00     0.246 C 
ATOM      4  O   UNL     1      88.639  91.067  76.317  1.00  0.00    -0.270 OA
ATOM      5  N   UNL     1      89.466  90.590  74.195  1.00  0.00    -0.339 N 
ATOM      6  C   UNL     1      88.192  90.031  73.733  1.00  0.00     0.120 C 
ATOM      7  C   UNL     1      90.554  90.539  73.207  1.00  0.00     0.120 C 
ATOM      8  C   UNL     1      87.735  90.685  72.434  1.00  0.00     0.022 C 
ATOM      9  C   UNL     1      90.133  91.182  71.886  1.00  0.00     0.022 C 
ATOM     10  C   UNL     1      88.822  90.598  71.367  1.00  0.00     0.004 C 
ENDBRANCH   1   3
BRANCH   2  11
ATOM     11  C   UNL     1      92.098  92.989  77.525  1.00  0.00     0.001 C 
ATOM     12  C   UNL     1      92.903  93.753  76.770  1.00  0.00     0.008 C 
BRANCH  12  13
ATOM     13  C   UNL     1      94.160  94.367  77.231  1.00  0.00    -0.022 A 
ATOM     14  C   UNL     1      94.485  94.310  78.580  1.00  0.00     0.058 A 
ATOM     15  C   UNL     1      94.992  94.990  76.298  1.00  0.00     0.012 A 
ATOM     16  C   UNL     1      95.672  94.898  78.963  1.00  0.00     0.166 A 
ATOM     17  C   UNL     1      96.188  95.578  76.714  1.00  0.00     0.051 A 
ATOM     18  O   UNL     1      96.165  94.950  80.231  1.00  0.00    -0.454 OA
ATOM     19  C   UNL     1      96.502  95.516  78.055  1.00  0.00     0.165 A 
ATOM     20  C   UNL     1      97.397  95.668  80.019  1.00  0.00     0.468 C 
ATOM     21  O   UNL     1      97.617  96.031  78.641  1.00  0.00    -0.454 OA
ENDBRANCH  12  13
ENDBRANCH   2  11
TORSDOF 3
ENDMDL
MODEL 2
REMARK VINA RESULT:    -7.771      2.759      9.344
REMARK INTER + INTRA:          -9.499
REMARK INTER:                  -9.190
REMARK INTRA:                  -0.310
REMARK UNBOUND:                -0.366
REMARK SMILES O=C(/C=C/C=C/c1ccc2c(c1)OCO2)N1CCCCC1
REMARK SMILES IDX 3 1 4 2 2 3 1 4 16 5 17 6 21 7 18 8 20 9 19 10 5 11 6 12
REMARK SMILES IDX 7 13 12 14 8 15 11 16 9 17 13 18 10 19 14 20 15 21
REMARK H PARENT
REMARK Flexibility Score: inf
ROOT
ATOM      1  C   UNL     1      94.471  94.119  77.147  1.00  0.00     0.071 C 
ATOM      2  C   UNL     1      93.720  94.351  76.072  1.00  0.00     0.006 C 
ENDROOT
BRANCH   1   3
ATOM      3  C   UNL     1      95.642  94.988  77.377  1.00  0.00     0.246 C 
ATOM      4  O   UNL     1      96.166  95.510  76.392  1.00  0.00    -0.270 OA
ATOM      5  N   UNL     1      96.080  95.155  78.690  1.00  0.00    -0.339 N 
ATOM      6  C   UNL     1      97.245  96.007  78.948  1.00  0.00     0.120 C 
ATOM      7  C   UNL     1      95.510  94.514  79.884  1.00  0.00     0.120 C 
ATOM      8  C   UNL     1      96.936  97.067  80.001  1.00  0.00     0.022 C 
ATOM      9  C   UNL     1      95.191  95.545  80.966  1.00  0.00     0.022 C 
ATOM     10  C   UNL     1      96.395  96.429  81.276  1.00  0.00     0.004 C 
ENDBRANCH   1   3
BRANCH   2  11
ATOM     11  C   UNL     1      92.552  93.553  75.763  1.00  0.00     0.001 C 
ATOM     12  C   UNL     1      92.398  92.915  74.592  1.00  0.00     0.008 C 
BRANCH  12  13
ATOM     13  C   UNL     1      91.230  92.099  74.222  1.00  0.00    -0.022 A 
ATOM     14  C   UNL     1      90.255  92.647  73.399  1.00  0.00     0.058 A 
ATOM     15  C   UNL     1      91.133  90.793  74.711  1.00  0.00     0.012 A 
ATOM     16  C   UNL     1      89.180  91.843  73.081  1.00  0.00     0.166 A 
ATOM     17  C   UNL     1      90.033  90.002  74.373  1.00  0.00     0.051 A 
ATOM     18  O   UNL     1      88.126  92.195  72.293  1.00  0.00    -0.454 OA
ATOM     19  C   UNL     1      89.072  90.556  73.554  1.00  0.00     0.165 A 
ATOM     20  C   UNL     1      87.344  90.984  72.325  1.00  0.00     0.468 C 
ATOM     21  O   UNL     1      87.937  89.940  73.123  1.00  0.00    -0.454 OA
ENDBRANCH  12  13
ENDBRANCH   2  11
TORSDOF 3
ENDMDL
MODEL 3
REMARK VINA RESULT:    -7.262      3.517      8.765
REMARK INTER + INTRA:          -8.901
REMARK INTER:                  -8.573
REMARK INTRA:                  -0.328
REMARK UNBOUND:                -0.366
REMARK SMILES O=C(/C=C/C=C/c1ccc2c(c1)OCO2)N1CCCCC1
REMARK SMILES IDX 3 1 4 2 2 3 1 4 16 5 17 6 21 7 18 8 20 9 19 10 5 11 6 12
REMARK SMILES IDX 7 13 12 14 8 15 11 16 9 17 13 18 10 19 14 20 15 21
REMARK H PARENT
REMARK Flexibility Score: inf
ROOT
ATOM      1  C   UNL     1      95.261  96.266  74.944  1.00  0.00     0.071 C 
ATOM      2  C   UNL     1      94.935  95.242  75.730  1.00  0.00     0.006 C 
ENDROOT
BRANCH   1   3
ATOM      3  C   UNL     1      96.570  96.916  75.158  1.00  0.00     0.246 C 
ATOM      4  O   UNL     1      96.886  97.193  76.316  1.00  0.00    -0.270 OA
ATOM      5  N   UNL     1      97.356  97.178  74.037  1.00  0.00    -0.339 N 
ATOM      6  C   UNL     1      98.658  97.827  74.217  1.00  0.00     0.120 C 
ATOM      7  C   UNL     1      96.994  96.904  72.638  1.00  0.00     0.120 C 
ATOM      8  C   UNL     1      99.774  97.035  73.544  1.00  0.00     0.022 C 
ATOM      9  C   UNL     1      98.091  96.113  71.927  1.00  0.00     0.022 C 
ATOM     10  C   UNL     1      99.455  96.782  72.074  1.00  0.00     0.004 C 
ENDBRANCH   1   3
BRANCH   2  11
ATOM     11  C   UNL     1      93.675  94.541  75.598  1.00  0.00     0.001 C 
ATOM     12  C   UNL     1      93.231  93.666  76.514  1.00  0.00     0.008 C 
BRANCH  12  13
ATOM     13  C   UNL     1      91.964  92.921  76.425  1.00  0.00    -0.022 A 
ATOM     14  C   UNL     1      91.652  92.257  75.247  1.00  0.00     0.058 A 
ATOM     15  C   UNL     1      91.110  92.903  77.531  1.00  0.00     0.012 A 
ATOM     16  C   UNL     1      90.454  91.573  75.212  1.00  0.00     0.166 A 
ATOM     17  C   UNL     1      89.903  92.203  77.468  1.00  0.00     0.051 A 
ATOM     18  O   UNL     1      89.970  90.864  74.155  1.00  0.00    -0.454 OA
ATOM     19  C   UNL     1      89.602  91.546  76.293  1.00  0.00     0.165 A 
ATOM     20  C   UNL     1      88.718  90.389  74.692  1.00  0.00     0.468 C 
ATOM     21  O   UNL     1      88.479  90.818  76.049  1.00  0.00    -0.454 OA
ENDBRANCH  12  13
ENDBRANCH   2  11
TORSDOF 3
ENDMDL
MODEL 4
REMARK VINA RESULT:    -7.187      6.410      7.473
REMARK INTER + INTRA:          -8.813
REMARK INTER:                  -8.435
REMARK INTRA:                  -0.379
REMARK UNBOUND:                -0.366
REMARK SMILES O=C(/C=C/C=C/c1ccc2c(c1)OCO2)N1CCCCC1
REMARK SMILES IDX 3 1 4 2 2 3 1 4 16 5 17 6 21 7 18 8 20 9 19 10 5 11 6 12
REMARK SMILES IDX 7 13 12 14 8 15 11 16 9 17 13 18 10 19 14 20 15 21
REMARK H PARENT
REMARK Flexibility Score: inf
ROOT
ATOM      1  C   UNL     1      92.500  98.613  70.511  1.00  0.00     0.071 C 
ATOM      2  C   UNL     1      93.819  98.612  70.697  1.00  0.00     0.006 C 
ENDROOT
BRANCH   1   3
ATOM      3  C   UNL     1      91.957  99.403  69.389  1.00  0.00     0.246 C 
ATOM      4  O   UNL     1      92.431 100.523  69.200  1.00  0.00    -0.270 OA
ATOM      5  N   UNL     1      90.943  98.830  68.623  1.00  0.00    -0.339 N 
ATOM      6  C   UNL     1      90.379  99.593  67.504  1.00  0.00     0.120 C 
ATOM      7  C   UNL     1      90.321  97.516  68.845  1.00  0.00     0.120 C 
ATOM      8  C   UNL     1      90.408  98.787  66.210  1.00  0.00     0.022 C 
ATOM      9  C   UNL     1      90.327  96.678  67.567  1.00  0.00     0.022 C 
ATOM     10  C   UNL     1      89.720  97.438  66.392  1.00  0.00     0.004 C 
ENDBRANCH   1   3
BRANCH   2  11
ATOM     11  C   UNL     1      94.445  97.869  71.770  1.00  0.00     0.001 C 
ATOM     12  C   UNL     1      93.969  97.866  73.025  1.00  0.00     0.008 C 
BRANCH  12  13
ATOM     13  C   UNL     1      94.570  97.136  74.154  1.00  0.00    -0.022 A 
ATOM     14  C   UNL     1      93.964  95.971  74.605  1.00  0.00     0.058 A 
ATOM     15  C   UNL     1      95.736  97.635  74.741  1.00  0.00     0.012 A 
ATOM     16  C   UNL     1      94.564  95.322  75.665  1.00  0.00     0.166 A 
ATOM     17  C   UNL     1      96.322  96.958  75.812  1.00  0.00     0.051 A 
ATOM     18  O   UNL     1      94.125  94.174  76.249  1.00  0.00    -0.454 OA
ATOM     19  C   UNL     1      95.712  95.802  76.252  1.00  0.00     0.165 A 
ATOM     20  C   UNL     1      95.126  93.985  77.270  1.00  0.00     0.468 C 
ATOM     21  O   UNL     1      96.136  95.015  77.278  1.00  0.00    -0.454 OA
ENDBRANCH  12  13
ENDBRANCH   2  11
TORSDOF 3
ENDMDL
MODEL 5
REMARK VINA RESULT:    -7.005      4.136      8.254
REMARK INTER + INTRA:          -8.599
REMARK INTER:                  -8.261
REMARK INTRA:                  -0.338
REMARK UNBOUND:                -0.366
REMARK SMILES O=C(/C=C/C=C/c1ccc2c(c1)OCO2)N1CCCCC1
REMARK SMILES IDX 3 1 4 2 2 3 1 4 16 5 17 6 21 7 18 8 20 9 19 10 5 11 6 12
REMARK SMILES IDX 7 13 12 14 8 15 11 16 9 17 13 18 10 19 14 20 15 21
REMARK H PARENT
REMARK Flexibility Score: inf
ROOT
ATOM      1  C   UNL     1      94.140  96.447  74.299  1.00  0.00     0.071 C 
ATOM      2  C   UNL     1      94.391  95.569  75.268  1.00  0.00     0.006 C 
ENDROOT
BRANCH   1   3
ATOM      3  C   UNL     1      95.014  97.632  74.191  1.00  0.00     0.246 C 
ATOM      4  O   UNL     1      95.755  97.880  75.143  1.00  0.00    -0.270 OA
ATOM      5  N   UNL     1      94.939  98.391  73.025  1.00  0.00    -0.339 N 
ATOM      6  C   UNL     1      95.791  99.576  72.891  1.00  0.00     0.120 C 
ATOM      7  C   UNL     1      94.036  98.152  71.889  1.00  0.00     0.120 C 
ATOM      8  C   UNL     1      96.595  99.541  71.596  1.00  0.00     0.022 C 
ATOM      9  C   UNL     1      94.806  98.113  70.569  1.00  0.00     0.022 C 
ATOM     10  C   UNL     1      95.681  99.351  70.390  1.00  0.00     0.004 C 
ENDBRANCH   1   3
BRANCH   2  11
ATOM     11  C   UNL     1      93.589  94.378  75.454  1.00  0.00     0.001 C 
ATOM     12  C   UNL     1      92.423  94.383  76.120  1.00  0.00     0.008 C 
BRANCH  12  13
ATOM     13  C   UNL     1      91.574  93.201  76.345  1.00  0.00    -0.022 A 
ATOM     14  C   UNL     1      91.882  92.014  75.694  1.00  0.00     0.058 A 
ATOM     15  C   UNL     1      90.480  93.307  77.208  1.00  0.00     0.012 A 
ATOM     16  C   UNL     1      91.057  90.935  75.937  1.00  0.00     0.166 A 
ATOM     17  C   UNL     1      89.662  92.199  77.435  1.00  0.00     0.051 A 
ATOM     18  O   UNL     1      91.190  89.692  75.397  1.00  0.00    -0.454 OA
ATOM     19  C   UNL     1      89.977  91.024  76.784  1.00  0.00     0.165 A 
ATOM     20  C   UNL     1      90.072  89.010  76.000  1.00  0.00     0.468 C 
ATOM     21  O   UNL     1      89.298  89.849  76.882  1.00  0.00    -0.454 OA
ENDBRANCH  12  13
ENDBRANCH   2  11
TORSDOF 3
ENDMDL
MODEL 6
REMARK VINA RESULT:    -6.945     26.530     28.716
REMARK INTER + INTRA:          -8.528
REMARK INTER:                  -8.220
REMARK INTRA:                  -0.308
REMARK UNBOUND:                -0.366
REMARK SMILES O=C(/C=C/C=C/c1ccc2c(c1)OCO2)N1CCCCC1
REMARK SMILES IDX 3 1 4 2 2 3 1 4 16 5 17 6 21 7 18 8 20 9 19 10 5 11 6 12
REMARK SMILES IDX 7 13 12 14 8 15 11 16 9 17 13 18 10 19 14 20 15 21
REMARK H PARENT
REMARK Flexibility Score: inf
ROOT
ATOM      1  C   UNL     1      62.948  84.434  75.889  1.00  0.00     0.071 C 
ATOM      2  C   UNL     1      64.091  85.113  75.813  1.00  0.00     0.006 C 
ENDROOT
BRANCH   1   3
ATOM      3  C   UNL     1      62.509  83.675  74.701  1.00  0.00     0.246 C 
ATOM      4  O   UNL     1      61.724  84.229  73.930  1.00  0.00    -0.270 OA
ATOM      5  N   UNL     1      63.008  82.384  74.534  1.00  0.00    -0.339 N 
ATOM      6  C   UNL     1      62.586  81.605  73.366  1.00  0.00     0.120 C 
ATOM      7  C   UNL     1      63.909  81.675  75.454  1.00  0.00     0.120 C 
ATOM      8  C   UNL     1      63.786  81.065  72.594  1.00  0.00     0.022 C 
ATOM      9  C   UNL     1      65.124  81.114  74.715  1.00  0.00     0.022 C 
ATOM     10  C   UNL     1      64.714  80.274  73.510  1.00  0.00     0.004 C 
ENDBRANCH   1   3
BRANCH   2  11
ATOM     11  C   UNL     1      64.602  85.886  76.925  1.00  0.00     0.001 C 
ATOM     12  C   UNL     1      65.657  85.494  77.657  1.00  0.00     0.008 C 
BRANCH  12  13
ATOM     13  C   UNL     1      66.213  86.236  78.802  1.00  0.00    -0.022 A 
ATOM     14  C   UNL     1      66.108  87.620  78.824  1.00  0.00     0.058 A 
ATOM     15  C   UNL     1      66.831  85.526  79.834  1.00  0.00     0.012 A 
ATOM     16  C   UNL     1      66.643  88.271  79.917  1.00  0.00     0.166 A 
ATOM     17  C   UNL     1      67.364  86.210  80.929  1.00  0.00     0.051 A 
ATOM     18  O   UNL     1      66.642  89.616  80.124  1.00  0.00    -0.454 OA
ATOM     19  C   UNL     1      67.254  87.585  80.942  1.00  0.00     0.165 A 
ATOM     20  C   UNL     1      67.322  89.700  81.393  1.00  0.00     0.468 C 
ATOM     21  O   UNL     1      67.713  88.414  81.918  1.00  0.00    -0.454 OA
ENDBRANCH  12  13
ENDBRANCH   2  11
TORSDOF 3
ENDMDL
MODEL 7
REMARK VINA RESULT:    -6.684     12.830     14.228
REMARK INTER + INTRA:          -8.223
REMARK INTER:                  -7.817
REMARK INTRA:                  -0.406
REMARK UNBOUND:                -0.366
REMARK SMILES O=C(/C=C/C=C/c1ccc2c(c1)OCO2)N1CCCCC1
REMARK SMILES IDX 3 1 4 2 2 3 1 4 16 5 17 6 21 7 18 8 20 9 19 10 5 11 6 12
REMARK SMILES IDX 7 13 12 14 8 15 11 16 9 17 13 18 10 19 14 20 15 21
REMARK H PARENT
REMARK Flexibility Score: inf
ROOT
ATOM      1  C   UNL     1      96.116  82.804  83.639  1.00  0.00     0.071 C 
ATOM      2  C   UNL     1      97.344  83.204  83.314  1.00  0.00     0.006 C 
ENDROOT
BRANCH   1   3
ATOM      3  C   UNL     1      95.668  82.997  85.032  1.00  0.00     0.246 C 
ATOM      4  O   UNL     1      96.205  83.894  85.683  1.00  0.00    -0.270 OA
ATOM      5  N   UNL     1      94.673  82.151  85.518  1.00  0.00    -0.339 N 
ATOM      6  C   UNL     1      94.210  82.315  86.899  1.00  0.00     0.120 C 
ATOM      7  C   UNL     1      94.041  81.042  84.786  1.00  0.00     0.120 C 
ATOM      8  C   UNL     1      92.693  82.455  86.966  1.00  0.00     0.022 C 
ATOM      9  C   UNL     1      92.517  81.145  84.833  1.00  0.00     0.022 C 
ATOM     10  C   UNL     1      92.006  81.289  86.264  1.00  0.00     0.004 C 
ENDBRANCH   1   3
BRANCH   2  11
ATOM     11  C   UNL     1      97.873  83.057  81.975  1.00  0.00     0.001 C 
ATOM     12  C   UNL     1      97.099  82.770  80.916  1.00  0.00     0.008 C 
BRANCH  12  13
ATOM     13  C   UNL     1      97.586  82.602  79.536  1.00  0.00    -0.022 A 
ATOM     14  C   UNL     1      96.667  82.562  78.496  1.00  0.00     0.058 A 
ATOM     15  C   UNL     1      98.960  82.486  79.311  1.00  0.00     0.012 A 
ATOM     16  C   UNL     1      97.170  82.403  77.221  1.00  0.00     0.166 A 
ATOM     17  C   UNL     1      99.442  82.326  78.010  1.00  0.00     0.051 A 
ATOM     18  O   UNL     1      96.437  82.338  76.076  1.00  0.00    -0.454 OA
ATOM     19  C   UNL     1      98.521  82.288  76.985  1.00  0.00     0.165 A 
ATOM     20  C   UNL     1      97.479  82.170  75.092  1.00  0.00     0.468 C 
ATOM     21  O   UNL     1      98.803  82.137  75.662  1.00  0.00    -0.454 OA
ENDBRANCH  12  13
ENDBRANCH   2  11
TORSDOF 3
ENDMDL
MODEL 8
REMARK VINA RESULT:    -6.648     22.120     25.633
REMARK INTER + INTRA:          -8.180
REMARK INTER:                  -7.856
REMARK INTRA:                  -0.324
REMARK UNBOUND:                -0.366
REMARK SMILES O=C(/C=C/C=C/c1ccc2c(c1)OCO2)N1CCCCC1
REMARK SMILES IDX 3 1 4 2 2 3 1 4 16 5 17 6 21 7 18 8 20 9 19 10 5 11 6 12
REMARK SMILES IDX 7 13 12 14 8 15 11 16 9 17 13 18 10 19 14 20 15 21
REMARK H PARENT
REMARK Flexibility Score: inf
ROOT
ATOM      1  C   UNL     1      83.944  68.465  71.808  1.00  0.00     0.071 C 
ATOM      2  C   UNL     1      85.064  69.178  71.914  1.00  0.00     0.006 C 
ENDROOT
BRANCH   1   3
ATOM      3  C   UNL     1      83.564  67.597  72.940  1.00  0.00     0.246 C 
ATOM      4  O   UNL     1      84.099  67.813  74.028  1.00  0.00    -0.270 OA
ATOM      5  N   UNL     1      82.631  66.589  72.701  1.00  0.00    -0.339 N 
ATOM      6  C   UNL     1      82.237  65.708  73.805  1.00  0.00     0.120 C 
ATOM      7  C   UNL     1      82.006  66.272  71.409  1.00  0.00     0.120 C 
ATOM      8  C   UNL     1      80.722  65.660  73.966  1.00  0.00     0.022 C 
ATOM      9  C   UNL     1      80.483  66.211  71.530  1.00  0.00     0.022 C 
ATOM     10  C   UNL     1      80.044  65.278  72.654  1.00  0.00     0.004 C 
ENDBRANCH   1   3
BRANCH   2  11
ATOM     11  C   UNL     1      85.520  70.056  70.858  1.00  0.00     0.001 C 
ATOM     12  C   UNL     1      86.802  70.113  70.463  1.00  0.00     0.008 C 
BRANCH  12  13
ATOM     13  C   UNL     1      87.320  70.993  69.401  1.00  0.00    -0.022 A 
ATOM     14  C   UNL     1      88.535  71.637  69.591  1.00  0.00     0.058 A 
ATOM     15  C   UNL     1      86.574  71.154  68.231  1.00  0.00     0.012 A 
ATOM     16  C   UNL     1      88.978  72.450  68.568  1.00  0.00     0.166 A 
ATOM     17  C   UNL     1      87.047  71.984  67.212  1.00  0.00     0.051 A 
ATOM     18  O   UNL     1      90.137  73.165  68.562  1.00  0.00    -0.454 OA
ATOM     19  C   UNL     1      88.255  72.619  67.410  1.00  0.00     0.165 A 
ATOM     20  C   UNL     1      90.061  73.802  67.271  1.00  0.00     0.468 C 
ATOM     21  O   UNL     1      88.869  73.460  66.534  1.00  0.00    -0.454 OA
ENDBRANCH  12  13
ENDBRANCH   2  11
TORSDOF 3
ENDMDL
MODEL 9
REMARK VINA RESULT:    -6.571     12.732     13.598
REMARK INTER + INTRA:          -8.089
REMARK INTER:                  -7.744
REMARK INTRA:                  -0.346
REMARK UNBOUND:                -0.366
REMARK SMILES O=C(/C=C/C=C/c1ccc2c(c1)OCO2)N1CCCCC1
REMARK SMILES IDX 3 1 4 2 2 3 1 4 16 5 17 6 21 7 18 8 20 9 19 10 5 11 6 12
REMARK SMILES IDX 7 13 12 14 8 15 11 16 9 17 13 18 10 19 14 20 15 21
REMARK H PARENT
REMARK Flexibility Score: inf
ROOT
ATOM      1  C   UNL     1      96.988  81.888  77.529  1.00  0.00     0.071 C 
ATOM      2  C   UNL     1      97.062  82.763  78.530  1.00  0.00     0.006 C 
ENDROOT
BRANCH   1   3
ATOM      3  C   UNL     1      97.482  82.307  76.202  1.00  0.00     0.246 C 
ATOM      4  O   UNL     1      96.691  82.888  75.458  1.00  0.00    -0.270 OA
ATOM      5  N   UNL     1      98.806  82.014  75.880  1.00  0.00    -0.339 N 
ATOM      6  C   UNL     1      99.324  82.413  74.567  1.00  0.00     0.120 C 
ATOM      7  C   UNL     1      99.765  81.284  76.723  1.00  0.00     0.120 C 
ATOM      8  C   UNL     1     100.610  83.221  74.698  1.00  0.00     0.022 C 
ATOM      9  C   UNL     1     101.071  82.062  76.875  1.00  0.00     0.022 C 
ATOM     10  C   UNL     1     101.649  82.466  75.522  1.00  0.00     0.004 C 
ENDBRANCH   1   3
BRANCH   2  11
ATOM     11  C   UNL     1      96.603  82.445  79.865  1.00  0.00     0.001 C 
ATOM     12  C   UNL     1      97.239  82.864  80.971  1.00  0.00     0.008 C 
BRANCH  12  13
ATOM     13  C   UNL     1      96.821  82.563  82.351  1.00  0.00    -0.022 A 
ATOM     14  C   UNL     1      96.598  83.611  83.233  1.00  0.00     0.058 A 
ATOM     15  C   UNL     1      96.659  81.229  82.734  1.00  0.00     0.012 A 
ATOM     16  C   UNL     1      96.208  83.279  84.514  1.00  0.00     0.166 A 
ATOM     17  C   UNL     1      96.263  80.922  84.038  1.00  0.00     0.051 A 
ATOM     18  O   UNL     1      95.944  84.157  85.521  1.00  0.00    -0.454 OA
ATOM     19  C   UNL     1      96.045  81.970  84.906  1.00  0.00     0.165 A 
ATOM     20  C   UNL     1      95.596  83.253  86.590  1.00  0.00     0.468 C 
ATOM     21  O   UNL     1      95.658  81.864  86.207  1.00  0.00    -0.454 OA
ENDBRANCH  12  13
ENDBRANCH   2  11
TORSDOF 3
ENDMDL
MODEL 10
REMARK VINA RESULT:    -6.553     14.665     15.704
REMARK INTER + INTRA:          -8.067
REMARK INTER:                  -7.702
REMARK INTRA:                  -0.366
REMARK UNBOUND:                -0.366
REMARK SMILES O=C(/C=C/C=C/c1ccc2c(c1)OCO2)N1CCCCC1
REMARK SMILES IDX 3 1 4 2 2 3 1 4 16 5 17 6 21 7 18 8 20 9 19 10 5 11 6 12
REMARK SMILES IDX 7 13 12 14 8 15 11 16 9 17 13 18 10 19 14 20 15 21
REMARK H PARENT
REMARK Flexibility Score: inf
ROOT
ATOM      1  C   UNL     1      82.135  90.057  87.065  1.00  0.00     0.071 C 
ATOM      2  C   UNL     1      83.077  90.637  87.806  1.00  0.00     0.006 C 
ENDROOT
BRANCH   1   3
ATOM      3  C   UNL     1      81.999  88.589  87.139  1.00  0.00     0.246 C 
ATOM      4  O   UNL     1      82.027  88.071  88.256  1.00  0.00    -0.270 OA
ATOM      5  N   UNL     1      81.854  87.889  85.943  1.00  0.00    -0.339 N 
ATOM      6  C   UNL     1      81.722  86.429  85.984  1.00  0.00     0.120 C 
ATOM      7  C   UNL     1      81.861  88.467  84.591  1.00  0.00     0.120 C 
ATOM      8  C   UNL     1      80.490  85.959  85.219  1.00  0.00     0.022 C 
ATOM      9  C   UNL     1      80.641  88.016  83.789  1.00  0.00     0.022 C 
ATOM     10  C   UNL     1      80.495  86.497  83.792  1.00  0.00     0.004 C 
ENDBRANCH   1   3
BRANCH   2  11
ATOM     11  C   UNL     1      83.287  92.070  87.801  1.00  0.00     0.001 C 
ATOM     12  C   UNL     1      82.459  92.928  88.417  1.00  0.00     0.008 C 
BRANCH  12  13
ATOM     13  C   UNL     1      82.620  94.391  88.436  1.00  0.00    -0.022 A 
ATOM     14  C   UNL     1      81.875  95.142  89.336  1.00  0.00     0.058 A 
ATOM     15  C   UNL     1      83.520  94.985  87.547  1.00  0.00     0.012 A 
ATOM     16  C   UNL     1      82.062  96.509  89.316  1.00  0.00     0.166 A 
ATOM     17  C   UNL     1      83.689  96.372  87.549  1.00  0.00     0.051 A 
ATOM     18  O   UNL     1      81.428  97.412  90.113  1.00  0.00    -0.454 OA
ATOM     19  C   UNL     1      82.944  97.108  88.446  1.00  0.00     0.165 A 
ATOM     20  C   UNL     1      82.012  98.646  89.648  1.00  0.00     0.468 C 
ATOM     21  O   UNL     1      82.975  98.461  88.590  1.00  0.00    -0.454 OA
ENDBRANCH  12  13
ENDBRANCH   2  11
TORSDOF 3
ENDMDL
