MODEL 1
REMARK VINA RESULT:    -5.927      0.000      0.000
REMARK INTER + INTRA:         -11.196
REMARK INTER:                 -10.431
REMARK INTRA:                  -0.765
REMARK UNBOUND:                -0.765
REMARK SMILES C=C(C)[C@]12C[C@@H](C)[C@@]34O[C@](Cc5ccccc5)(O[C@@H]1[C@@H]3C=C(COC(=O)Cc1ccc(O)c(OC)c1)C[C@]1(O)C(=O)C(C)=C[C@@H]41)O2
REMARK SMILES IDX 23 1 22 2 21 3 20 4 9 5 8 6 10 7 6 8 18 9 46 10 19 11 5 12
REMARK SMILES IDX 7 13 4 14 45 15 38 16 44 17 40 18 42 20 41 21 43 22 39 23
REMARK SMILES IDX 11 25 12 26 13 27 17 28 14 29 16 30 15 31 2 32 3 33 1 34
REMARK SMILES IDX 37 35 24 37 25 38 26 39 27 40 28 41 36 42 29 43 33 44 30 45
REMARK SMILES IDX 31 46 34 47 35 48 32 49
REMARK H PARENT 39 24 32 50
REMARK Flexibility Score: 90.00
ROOT
ATOM      1  C   UNL     1      72.970  91.729  68.261  1.00  0.00     0.264 C 
ENDROOT
BRANCH   1   2
ATOM      2  C   UNL     1      72.821  92.288  69.657  1.00  0.00    -0.033 C 
ATOM      3  C   UNL     1      73.913  92.735  70.309  1.00  0.00    -0.015 C 
BRANCH   3   4
ATOM      4  C   UNL     1      74.040  93.265  71.728  1.00  0.00     0.078 C 
ATOM      5  O   UNL     1      73.761  95.720  71.609  1.00  0.00    -0.319 OA
ATOM      6  C   UNL     1      73.161  94.501  72.147  1.00  0.00     0.095 C 
ATOM      7  C   UNL     1      75.195  95.804  71.723  1.00  0.00     0.289 C 
ATOM      8  C   UNL     1      73.160  94.574  73.730  1.00  0.00     0.023 C 
ATOM      9  O   UNL     1      75.830  94.700  71.084  1.00  0.00    -0.320 OA
ATOM     10  O   UNL     1      75.632  95.767  73.079  1.00  0.00    -0.313 OA
ATOM     11  C   UNL     1      75.512  93.653  72.014  1.00  0.00     0.170 C 
ATOM     12  C   UNL     1      74.513  94.078  74.326  1.00  0.00     0.049 C 
ATOM     13  C   UNL     1      72.811  95.947  74.328  1.00  0.00     0.011 C 
ATOM     14  C   UNL     1      75.684  94.358  73.383  1.00  0.00     0.122 C 
BRANCH   6  15
ATOM     15  C   UNL     1      71.757  94.432  71.480  1.00  0.00     0.086 C 
ATOM     16  C   UNL     1      71.085  93.044  71.453  1.00  0.00     0.140 CG0
ATOM     17  C   UNL     1      70.664  95.340  71.969  1.00  0.00    -0.010 C 
ATOM     18  C   UNL     1      69.618  93.388  71.603  1.00  0.00     0.190 C 
ATOM     19  G   UNL     1      71.378  92.286  70.159  1.00  0.00     0.000 G0
ATOM     20  C   UNL     1      69.445  94.792  72.023  1.00  0.00    -0.008 C 
ATOM     21  O   UNL     1      68.689  92.610  71.452  1.00  0.00    -0.291 OA
ATOM     22  C   UNL     1      68.144  95.398  72.370  1.00  0.00     0.048 C 
BRANCH  16  23
ATOM     23  O   UNL     1      71.364  92.248  72.593  1.00  0.00    -0.381 OA
ATOM     24  H   UNL     1      71.033  91.350  72.429  1.00  0.00     0.212 HD
ENDBRANCH  16  23
ENDBRANCH   6  15
BRANCH   7  25
ATOM     25  C   UNL     1      75.648  97.098  71.079  1.00  0.00     0.135 C 
BRANCH  25  26
ATOM     26  C   UNL     1      76.906  96.915  70.267  1.00  0.00    -0.040 A 
ATOM     27  C   UNL     1      76.820  96.573  68.917  1.00  0.00     0.004 A 
ATOM     28  C   UNL     1      78.154  97.090  70.864  1.00  0.00     0.004 A 
ATOM     29  C   UNL     1      77.983  96.404  68.165  1.00  0.00     0.000 A 
ATOM     30  C   UNL     1      79.317  96.921  70.112  1.00  0.00     0.000 A 
ATOM     31  C   UNL     1      79.231  96.578  68.763  1.00  0.00     0.000 A 
ENDBRANCH  25  26
ENDBRANCH   7  25
BRANCH  14  32
ATOM     32  C   UNL     1      77.008  94.059  74.006  1.00  0.00    -0.046 C 
ATOM     33  C   UNL     1      78.083  95.085  73.802  1.00  0.00     0.042 C 
ATOM     34  C   UNL     1      77.224  92.937  74.708  1.00  0.00     0.010 C 
ENDBRANCH  14  32
ENDBRANCH   3   4
BRANCH   2  35
ATOM     35  C   UNL     1      71.387  92.273  70.153  1.00  0.00     0.078 CG0
ATOM     36  G   UNL     1      71.082  93.054  71.430  1.00  0.00     0.000 G0
ENDBRANCH   2  35
ENDBRANCH   1   2
BRANCH   1  37
ATOM     37  O   UNL     1      73.817  90.600  68.298  1.00  0.00    -0.461 OA
BRANCH  37  38
ATOM     38  C   UNL     1      74.967  90.677  67.548  1.00  0.00     0.310 C 
ATOM     39  O   UNL     1      75.051  91.194  66.442  1.00  0.00    -0.252 OA
BRANCH  38  40
ATOM     40  C   UNL     1      76.104  90.025  68.299  1.00  0.00     0.158 C 
BRANCH  40  41
ATOM     41  C   UNL     1      76.080  88.521  68.211  1.00  0.00    -0.033 A 
ATOM     42  C   UNL     1      74.945  87.817  68.615  1.00  0.00     0.054 A 
ATOM     43  C   UNL     1      77.192  87.832  67.727  1.00  0.00     0.008 A 
ATOM     44  C   UNL     1      74.922  86.424  68.534  1.00  0.00     0.160 A 
ATOM     45  C   UNL     1      77.170  86.440  67.646  1.00  0.00     0.050 A 
ATOM     46  C   UNL     1      76.036  85.735  68.050  1.00  0.00     0.157 A 
BRANCH  44  47
ATOM     47  O   UNL     1      73.809  85.748  68.931  1.00  0.00    -0.493 OA
ATOM     48  C   UNL     1      72.550  86.261  68.498  1.00  0.00     0.278 C 
ENDBRANCH  44  47
BRANCH  46  49
ATOM     49  O   UNL     1      76.025  84.376  67.965  1.00  0.00    -0.504 OA
ATOM     50  H   UNL     1      75.120  84.057  68.117  1.00  0.00     0.293 HD
ENDBRANCH  46  49
ENDBRANCH  40  41
ENDBRANCH  38  40
ENDBRANCH  37  38
ENDBRANCH   1  37
TORSDOF 11
ENDMDL
MODEL 2
REMARK VINA RESULT:    -5.293     28.664     32.203
REMARK INTER + INTRA:         -10.080
REMARK INTER:                  -7.650
REMARK INTRA:                  -2.430
REMARK UNBOUND:                -0.765
REMARK SMILES C=C(C)[C@]12C[C@@H](C)[C@@]34O[C@](Cc5ccccc5)(O[C@@H]1[C@@H]3C=C(COC(=O)Cc1ccc(O)c(OC)c1)C[C@]1(O)C(=O)C(C)=C[C@@H]41)O2
REMARK SMILES IDX 23 1 22 2 21 3 20 4 9 5 8 6 10 7 6 8 18 9 46 10 19 11 5 12
REMARK SMILES IDX 7 13 4 14 45 15 38 16 44 17 40 18 42 20 41 21 43 22 39 23
REMARK SMILES IDX 11 25 12 26 13 27 17 28 14 29 16 30 15 31 2 32 3 33 1 34
REMARK SMILES IDX 37 35 24 37 25 38 26 39 27 40 28 41 36 42 29 43 33 44 30 45
REMARK SMILES IDX 31 46 34 47 35 48 32 49
REMARK H PARENT 39 24 32 50
REMARK Flexibility Score: 90.00
ROOT
ATOM      1  C   UNL     1     101.642  79.926  87.030  1.00  0.00     0.264 C 
ENDROOT
BRANCH   1   2
ATOM      2  C   UNL     1     100.199  79.727  86.628  1.00  0.00    -0.033 C 
ATOM      3  C   UNL     1      99.779  80.184  85.431  1.00  0.00    -0.015 C 
BRANCH   3   4
ATOM      4  C   UNL     1      98.382  80.178  84.832  1.00  0.00     0.078 C 
ATOM      5  O   UNL     1      98.178  78.104  83.499  1.00  0.00    -0.319 OA
ATOM      6  C   UNL     1      97.644  78.797  84.669  1.00  0.00     0.095 C 
ATOM      7  C   UNL     1      98.393  78.929  82.338  1.00  0.00     0.289 C 
ATOM      8  C   UNL     1      96.105  79.100  84.439  1.00  0.00     0.023 C 
ATOM      9  O   UNL     1      99.274  80.012  82.629  1.00  0.00    -0.320 OA
ATOM     10  O   UNL     1      97.188  79.528  81.870  1.00  0.00    -0.313 OA
ATOM     11  C   UNL     1      98.408  80.832  83.429  1.00  0.00     0.170 C 
ATOM     12  C   UNL     1      95.896  80.430  83.653  1.00  0.00     0.049 C 
ATOM     13  C   UNL     1      95.304  77.975  83.764  1.00  0.00     0.011 C 
ATOM     14  C   UNL     1      97.052  80.706  82.691  1.00  0.00     0.122 C 
BRANCH   6  15
ATOM     15  C   UNL     1      97.968  77.852  85.862  1.00  0.00     0.086 C 
ATOM     16  C   UNL     1      97.952  78.497  87.264  1.00  0.00     0.140 CG0
ATOM     17  C   UNL     1      97.166  76.595  86.046  1.00  0.00    -0.010 C 
ATOM     18  C   UNL     1      97.436  77.371  88.135  1.00  0.00     0.190 C 
ATOM     19  G   UNL     1      99.336  78.982  87.692  1.00  0.00     0.000 G0
ATOM     20  C   UNL     1      96.874  76.283  87.313  1.00  0.00    -0.008 C 
ATOM     21  O   UNL     1      97.430  77.367  89.356  1.00  0.00    -0.291 OA
ATOM     22  C   UNL     1      96.185  75.099  87.867  1.00  0.00     0.048 C 
BRANCH  16  23
ATOM     23  O   UNL     1      96.977  79.516  87.415  1.00  0.00    -0.381 OA
ATOM     24  H   UNL     1      96.282  79.377  86.750  1.00  0.00     0.212 HD
ENDBRANCH  16  23
ENDBRANCH   6  15
BRANCH   7  25
ATOM     25  C   UNL     1      98.988  78.066  81.244  1.00  0.00     0.135 C 
BRANCH  25  26
ATOM     26  C   UNL     1      98.870  78.712  79.887  1.00  0.00    -0.040 A 
ATOM     27  C   UNL     1      97.770  78.433  79.075  1.00  0.00     0.004 A 
ATOM     28  C   UNL     1      99.858  79.590  79.443  1.00  0.00     0.004 A 
ATOM     29  C   UNL     1      97.660  79.032  77.819  1.00  0.00     0.000 A 
ATOM     30  C   UNL     1      99.748  80.188  78.187  1.00  0.00     0.000 A 
ATOM     31  C   UNL     1      98.649  79.908  77.376  1.00  0.00     0.000 A 
ENDBRANCH  25  26
ENDBRANCH   7  25
BRANCH  14  32
ATOM     32  C   UNL     1      96.789  81.875  81.797  1.00  0.00    -0.046 C 
ATOM     33  C   UNL     1      96.233  83.101  82.457  1.00  0.00     0.042 C 
ATOM     34  C   UNL     1      97.036  81.830  80.479  1.00  0.00     0.010 C 
ENDBRANCH  14  32
ENDBRANCH   3   4
BRANCH   2  35
ATOM     35  C   UNL     1      99.385  78.996  87.679  1.00  0.00     0.078 CG0
ATOM     36  G   UNL     1      97.999  78.501  87.268  1.00  0.00     0.000 G0
ENDBRANCH   2  35
ENDBRANCH   1   2
BRANCH   1  37
ATOM     37  O   UNL     1     102.242  78.669  87.254  1.00  0.00    -0.461 OA
BRANCH  37  38
ATOM     38  C   UNL     1     102.761  78.037  86.148  1.00  0.00     0.310 C 
ATOM     39  O   UNL     1     102.356  76.977  85.690  1.00  0.00    -0.252 OA
BRANCH  38  40
ATOM     40  C   UNL     1     103.904  78.852  85.590  1.00  0.00     0.158 C 
BRANCH  40  41
ATOM     41  C   UNL     1     103.880  78.948  84.086  1.00  0.00    -0.033 A 
ATOM     42  C   UNL     1     105.022  78.634  83.349  1.00  0.00     0.054 A 
ATOM     43  C   UNL     1     102.716  79.350  83.432  1.00  0.00     0.008 A 
ATOM     44  C   UNL     1     104.999  78.722  81.957  1.00  0.00     0.160 A 
ATOM     45  C   UNL     1     102.693  79.438  82.040  1.00  0.00     0.050 A 
ATOM     46  C   UNL     1     103.835  79.125  81.302  1.00  0.00     0.157 A 
BRANCH  44  47
ATOM     47  O   UNL     1     106.121  78.413  81.248  1.00  0.00    -0.493 OA
ATOM     48  C   UNL     1     107.256  77.972  81.991  1.00  0.00     0.278 C 
ENDBRANCH  44  47
BRANCH  46  49
ATOM     49  O   UNL     1     103.800  79.214  79.944  1.00  0.00    -0.504 OA
ATOM     50  H   UNL     1     103.364  78.423  79.586  1.00  0.00     0.293 HD
ENDBRANCH  46  49
ENDBRANCH  40  41
ENDBRANCH  38  40
ENDBRANCH  37  38
ENDBRANCH   1  37
TORSDOF 11
ENDMDL
MODEL 3
REMARK VINA RESULT:    -5.246     25.364     28.995
REMARK INTER + INTRA:          -9.997
REMARK INTER:                  -7.645
REMARK INTRA:                  -2.352
REMARK UNBOUND:                -0.765
REMARK SMILES C=C(C)[C@]12C[C@@H](C)[C@@]34O[C@](Cc5ccccc5)(O[C@@H]1[C@@H]3C=C(COC(=O)Cc1ccc(O)c(OC)c1)C[C@]1(O)C(=O)C(C)=C[C@@H]41)O2
REMARK SMILES IDX 23 1 22 2 21 3 20 4 9 5 8 6 10 7 6 8 18 9 46 10 19 11 5 12
REMARK SMILES IDX 7 13 4 14 45 15 38 16 44 17 40 18 42 20 41 21 43 22 39 23
REMARK SMILES IDX 11 25 12 26 13 27 17 28 14 29 16 30 15 31 2 32 3 33 1 34
REMARK SMILES IDX 37 35 24 37 25 38 26 39 27 40 28 41 36 42 29 43 33 44 30 45
REMARK SMILES IDX 31 46 34 47 35 48 32 49
REMARK H PARENT 39 24 32 50
REMARK Flexibility Score: 90.00
ROOT
ATOM      1  C   UNL     1      94.970  74.905  83.123  1.00  0.00     0.264 C 
ENDROOT
BRANCH   1   2
ATOM      2  C   UNL     1      94.152  75.131  84.373  1.00  0.00    -0.033 C 
ATOM      3  C   UNL     1      94.355  76.248  85.101  1.00  0.00    -0.015 C 
BRANCH   3   4
ATOM      4  C   UNL     1      93.727  76.668  86.420  1.00  0.00     0.078 C 
ATOM      5  O   UNL     1      91.745  78.041  85.869  1.00  0.00    -0.319 OA
ATOM      6  C   UNL     1      92.159  76.789  86.497  1.00  0.00     0.095 C 
ATOM      7  C   UNL     1      92.556  79.188  86.185  1.00  0.00     0.289 C 
ATOM      8  C   UNL     1      91.755  76.814  88.029  1.00  0.00     0.023 C 
ATOM      9  O   UNL     1      93.920  78.969  85.835  1.00  0.00    -0.320 OA
ATOM     10  O   UNL     1      92.559  79.480  87.580  1.00  0.00    -0.313 OA
ATOM     11  C   UNL     1      94.297  78.038  86.861  1.00  0.00     0.170 C 
ATOM     12  C   UNL     1      92.844  77.519  88.896  1.00  0.00     0.049 C 
ATOM     13  C   UNL     1      90.379  77.425  88.339  1.00  0.00     0.011 C 
ATOM     14  C   UNL     1      93.577  78.606  88.109  1.00  0.00     0.122 C 
BRANCH   6  15
ATOM     15  C   UNL     1      91.477  75.681  85.643  1.00  0.00     0.086 C 
ATOM     16  C   UNL     1      92.093  74.270  85.742  1.00  0.00     0.140 CG0
ATOM     17  C   UNL     1      90.004  75.431  85.803  1.00  0.00    -0.010 C 
ATOM     18  C   UNL     1      90.880  73.374  85.607  1.00  0.00     0.190 C 
ATOM     19  G   UNL     1      93.133  74.017  84.651  1.00  0.00     0.000 G0
ATOM     20  C   UNL     1      89.633  74.147  85.759  1.00  0.00    -0.008 C 
ATOM     21  O   UNL     1      90.908  72.164  85.446  1.00  0.00    -0.291 OA
ATOM     22  C   UNL     1      88.285  73.544  85.797  1.00  0.00     0.048 C 
BRANCH  16  23
ATOM     23  O   UNL     1      92.605  73.956  87.027  1.00  0.00    -0.381 OA
ATOM     24  H   UNL     1      91.959  73.395  87.486  1.00  0.00     0.212 HD
ENDBRANCH  16  23
ENDBRANCH   6  15
BRANCH   7  25
ATOM     25  C   UNL     1      92.016  80.379  85.420  1.00  0.00     0.135 C 
BRANCH  25  26
ATOM     26  C   UNL     1      90.508  80.417  85.424  1.00  0.00    -0.040 A 
ATOM     27  C   UNL     1      89.830  81.066  86.457  1.00  0.00     0.004 A 
ATOM     28  C   UNL     1      89.791  79.806  84.396  1.00  0.00     0.004 A 
ATOM     29  C   UNL     1      88.435  81.102  86.462  1.00  0.00     0.000 A 
ATOM     30  C   UNL     1      88.396  79.841  84.401  1.00  0.00     0.000 A 
ATOM     31  C   UNL     1      87.719  80.489  85.434  1.00  0.00     0.000 A 
ENDBRANCH  25  26
ENDBRANCH   7  25
BRANCH  14  32
ATOM     32  C   UNL     1      94.493  79.416  88.967  1.00  0.00    -0.046 C 
ATOM     33  C   UNL     1      94.333  80.905  88.887  1.00  0.00     0.042 C 
ATOM     34  C   UNL     1      95.409  78.844  89.764  1.00  0.00     0.010 C 
ENDBRANCH  14  32
ENDBRANCH   3   4
BRANCH   2  35
ATOM     35  C   UNL     1      93.160  74.017  84.644  1.00  0.00     0.078 CG0
ATOM     36  G   UNL     1      92.125  74.254  85.744  1.00  0.00     0.000 G0
ENDBRANCH   2  35
ENDBRANCH   1   2
BRANCH   1  37
ATOM     37  O   UNL     1      95.162  76.136  82.461  1.00  0.00    -0.461 OA
BRANCH  37  38
ATOM     38  C   UNL     1      96.414  76.356  81.935  1.00  0.00     0.310 C 
ATOM     39  O   UNL     1      96.744  76.115  80.782  1.00  0.00    -0.252 OA
BRANCH  38  40
ATOM     40  C   UNL     1      97.313  76.938  83.000  1.00  0.00     0.158 C 
BRANCH  40  41
ATOM     41  C   UNL     1      96.977  78.368  83.336  1.00  0.00    -0.033 A 
ATOM     42  C   UNL     1      97.257  78.870  84.608  1.00  0.00     0.054 A 
ATOM     43  C   UNL     1      96.387  79.190  82.377  1.00  0.00     0.008 A 
ATOM     44  C   UNL     1      96.946  80.194  84.919  1.00  0.00     0.160 A 
ATOM     45  C   UNL     1      96.076  80.514  82.688  1.00  0.00     0.050 A 
ATOM     46  C   UNL     1      96.355  81.016  83.959  1.00  0.00     0.157 A 
BRANCH  44  47
ATOM     47  O   UNL     1      97.224  80.672  86.164  1.00  0.00    -0.493 OA
ATOM     48  C   UNL     1      97.856  79.776  87.077  1.00  0.00     0.278 C 
ENDBRANCH  44  47
BRANCH  46  49
ATOM     49  O   UNL     1      96.048  82.310  84.251  1.00  0.00    -0.504 OA
ATOM     50  H   UNL     1      96.762  82.886  83.928  1.00  0.00     0.293 HD
ENDBRANCH  46  49
ENDBRANCH  40  41
ENDBRANCH  38  40
ENDBRANCH  37  38
ENDBRANCH   1  37
TORSDOF 11
ENDMDL
MODEL 4
REMARK VINA RESULT:    -5.222      5.183      8.849
REMARK INTER + INTRA:          -9.956
REMARK INTER:                  -8.750
REMARK INTRA:                  -1.205
REMARK UNBOUND:                -0.765
REMARK SMILES C=C(C)[C@]12C[C@@H](C)[C@@]34O[C@](Cc5ccccc5)(O[C@@H]1[C@@H]3C=C(COC(=O)Cc1ccc(O)c(OC)c1)C[C@]1(O)C(=O)C(C)=C[C@@H]41)O2
REMARK SMILES IDX 23 1 22 2 21 3 20 4 9 5 8 6 10 7 6 8 18 9 46 10 19 11 5 12
REMARK SMILES IDX 7 13 4 14 45 15 38 16 44 17 40 18 42 20 41 21 43 22 39 23
REMARK SMILES IDX 11 25 12 26 13 27 17 28 14 29 16 30 15 31 2 32 3 33 1 34
REMARK SMILES IDX 37 35 24 37 25 38 26 39 27 40 28 41 36 42 29 43 33 44 30 45
REMARK SMILES IDX 31 46 34 47 35 48 32 49
REMARK H PARENT 39 24 32 50
REMARK Flexibility Score: 90.00
ROOT
ATOM      1  C   UNL     1      76.300  95.547  73.818  1.00  0.00     0.264 C 
ENDROOT
BRANCH   1   2
ATOM      2  C   UNL     1      75.868  96.248  75.085  1.00  0.00    -0.033 C 
ATOM      3  C   UNL     1      75.172  95.562  76.014  1.00  0.00    -0.015 C 
BRANCH   3   4
ATOM      4  C   UNL     1      74.564  96.050  77.319  1.00  0.00     0.078 C 
ATOM      5  O   UNL     1      76.242  95.647  79.091  1.00  0.00    -0.319 OA
ATOM      6  C   UNL     1      75.515  96.703  78.390  1.00  0.00     0.095 C 
ATOM      7  C   UNL     1      75.458  94.495  79.454  1.00  0.00     0.289 C 
ATOM      8  C   UNL     1      74.605  97.487  79.424  1.00  0.00     0.023 C 
ATOM      9  O   UNL     1      74.848  93.902  78.311  1.00  0.00    -0.320 OA
ATOM     10  O   UNL     1      74.387  94.825  80.334  1.00  0.00    -0.313 OA
ATOM     11  C   UNL     1      73.836  94.881  78.029  1.00  0.00     0.170 C 
ATOM     12  C   UNL     1      73.230  96.780  79.626  1.00  0.00     0.049 C 
ATOM     13  C   UNL     1      75.247  97.757  80.795  1.00  0.00     0.011 C 
ATOM     14  C   UNL     1      73.340  95.265  79.445  1.00  0.00     0.122 C 
BRANCH   6  15
ATOM     15  C   UNL     1      76.625  97.548  77.701  1.00  0.00     0.086 C 
ATOM     16  C   UNL     1      76.171  98.433  76.521  1.00  0.00     0.140 CG0
ATOM     17  C   UNL     1      77.466  98.476  78.531  1.00  0.00    -0.010 C 
ATOM     18  C   UNL     1      77.078  99.639  76.651  1.00  0.00     0.190 C 
ATOM     19  G   UNL     1      76.328  97.725  75.176  1.00  0.00     0.000 G0
ATOM     20  C   UNL     1      77.761  99.648  77.959  1.00  0.00    -0.008 C 
ATOM     21  O   UNL     1      77.201 100.524  75.819  1.00  0.00    -0.291 OA
ATOM     22  C   UNL     1      78.619 100.752  78.437  1.00  0.00     0.048 C 
BRANCH  16  23
ATOM     23  O   UNL     1      74.868  98.970  76.674  1.00  0.00    -0.381 OA
ATOM     24  H   UNL     1      74.945  99.931  76.794  1.00  0.00     0.212 HD
ENDBRANCH  16  23
ENDBRANCH   6  15
BRANCH   7  25
ATOM     25  C   UNL     1      76.373  93.490  80.126  1.00  0.00     0.135 C 
BRANCH  25  26
ATOM     26  C   UNL     1      75.610  92.531  81.005  1.00  0.00    -0.040 A 
ATOM     27  C   UNL     1      74.769  91.576  80.431  1.00  0.00     0.004 A 
ATOM     28  C   UNL     1      75.745  92.597  82.391  1.00  0.00     0.004 A 
ATOM     29  C   UNL     1      74.064  90.689  81.244  1.00  0.00     0.000 A 
ATOM     30  C   UNL     1      75.040  91.709  83.205  1.00  0.00     0.000 A 
ATOM     31  C   UNL     1      74.199  90.756  82.630  1.00  0.00     0.000 A 
ENDBRANCH  25  26
ENDBRANCH   7  25
BRANCH  14  32
ATOM     32  C   UNL     1      72.080  94.550  79.811  1.00  0.00    -0.046 C 
ATOM     33  C   UNL     1      71.873  94.278  81.272  1.00  0.00     0.042 C 
ATOM     34  C   UNL     1      71.184  94.173  78.887  1.00  0.00     0.010 C 
ENDBRANCH  14  32
ENDBRANCH   3   4
BRANCH   2  35
ATOM     35  C   UNL     1      76.308  97.699  75.142  1.00  0.00     0.078 CG0
ATOM     36  G   UNL     1      76.184  98.415  76.486  1.00  0.00     0.000 G0
ENDBRANCH   2  35
ENDBRANCH   1   2
BRANCH   1  37
ATOM     37  O   UNL     1      75.342  95.777  72.808  1.00  0.00    -0.461 OA
BRANCH  37  38
ATOM     38  C   UNL     1      75.611  95.225  71.577  1.00  0.00     0.310 C 
ATOM     39  O   UNL     1      75.535  95.817  70.509  1.00  0.00    -0.252 OA
BRANCH  38  40
ATOM     40  C   UNL     1      76.013  93.779  71.750  1.00  0.00     0.158 C 
BRANCH  40  41
ATOM     41  C   UNL     1      74.952  92.814  71.288  1.00  0.00    -0.033 A 
ATOM     42  C   UNL     1      75.103  92.141  70.075  1.00  0.00     0.054 A 
ATOM     43  C   UNL     1      73.820  92.594  72.072  1.00  0.00     0.008 A 
ATOM     44  C   UNL     1      74.121  91.247  69.647  1.00  0.00     0.160 A 
ATOM     45  C   UNL     1      72.838  91.700  71.644  1.00  0.00     0.050 A 
ATOM     46  C   UNL     1      72.988  91.027  70.432  1.00  0.00     0.157 A 
BRANCH  44  47
ATOM     47  O   UNL     1      74.279  90.596  68.461  1.00  0.00    -0.493 OA
ATOM     48  C   UNL     1      75.209  89.515  68.434  1.00  0.00     0.278 C 
ENDBRANCH  44  47
BRANCH  46  49
ATOM     49  O   UNL     1      72.023  90.157  70.025  1.00  0.00    -0.504 OA
ATOM     50  H   UNL     1      72.364  89.249  70.099  1.00  0.00     0.293 HD
ENDBRANCH  46  49
ENDBRANCH  40  41
ENDBRANCH  38  40
ENDBRANCH  37  38
ENDBRANCH   1  37
TORSDOF 11
ENDMDL
MODEL 5
REMARK VINA RESULT:    -5.023     25.403     29.290
REMARK INTER + INTRA:          -9.605
REMARK INTER:                  -7.477
REMARK INTRA:                  -2.128
REMARK UNBOUND:                -0.765
REMARK SMILES C=C(C)[C@]12C[C@@H](C)[C@@]34O[C@](Cc5ccccc5)(O[C@@H]1[C@@H]3C=C(COC(=O)Cc1ccc(O)c(OC)c1)C[C@]1(O)C(=O)C(C)=C[C@@H]41)O2
REMARK SMILES IDX 23 1 22 2 21 3 20 4 9 5 8 6 10 7 6 8 18 9 46 10 19 11 5 12
REMARK SMILES IDX 7 13 4 14 45 15 38 16 44 17 40 18 42 20 41 21 43 22 39 23
REMARK SMILES IDX 11 25 12 26 13 27 17 28 14 29 16 30 15 31 2 32 3 33 1 34
REMARK SMILES IDX 37 35 24 37 25 38 26 39 27 40 28 41 36 42 29 43 33 44 30 45
REMARK SMILES IDX 31 46 34 47 35 48 32 49
REMARK H PARENT 39 24 32 50
REMARK Flexibility Score: 90.00
ROOT
ATOM      1  C   UNL     1      94.182  77.869  88.658  1.00  0.00     0.264 C 
ENDROOT
BRANCH   1   2
ATOM      2  C   UNL     1      93.830  76.869  87.581  1.00  0.00    -0.033 C 
ATOM      3  C   UNL     1      92.533  76.595  87.335  1.00  0.00    -0.015 C 
BRANCH   3   4
ATOM      4  C   UNL     1      91.926  75.587  86.373  1.00  0.00     0.078 C 
ATOM      5  O   UNL     1      91.499  76.783  84.250  1.00  0.00    -0.319 OA
ATOM      6  C   UNL     1      92.282  75.703  84.844  1.00  0.00     0.095 C 
ATOM      7  C   UNL     1      90.119  76.840  84.658  1.00  0.00     0.289 C 
ATOM      8  C   UNL     1      91.888  74.331  84.155  1.00  0.00     0.023 C 
ATOM      9  O   UNL     1      90.001  76.959  86.073  1.00  0.00    -0.320 OA
ATOM     10  O   UNL     1      89.403  75.657  84.310  1.00  0.00    -0.313 OA
ATOM     11  C   UNL     1      90.381  75.632  86.470  1.00  0.00     0.170 C 
ATOM     12  C   UNL     1      90.637  73.691  84.831  1.00  0.00     0.049 C 
ATOM     13  C   UNL     1      91.672  74.395  82.634  1.00  0.00     0.011 C 
ATOM     14  C   UNL     1      89.693  74.753  85.396  1.00  0.00     0.122 C 
BRANCH   6  15
ATOM     15  C   UNL     1      93.762  76.146  84.654  1.00  0.00     0.086 C 
ATOM     16  C   UNL     1      94.798  75.469  85.577  1.00  0.00     0.140 CG0
ATOM     17  C   UNL     1      94.391  76.049  83.293  1.00  0.00    -0.010 C 
ATOM     18  C   UNL     1      96.018  75.379  84.685  1.00  0.00     0.190 C 
ATOM     19  G   UNL     1      95.058  76.281  86.845  1.00  0.00     0.000 G0
ATOM     20  C   UNL     1      95.666  75.648  83.278  1.00  0.00    -0.008 C 
ATOM     21  O   UNL     1      97.143  75.076  85.053  1.00  0.00    -0.291 OA
ATOM     22  C   UNL     1      96.611  75.520  82.149  1.00  0.00     0.048 C 
BRANCH  16  23
ATOM     23  O   UNL     1      94.500  74.117  85.880  1.00  0.00    -0.381 OA
ATOM     24  H   UNL     1      94.336  74.045  86.835  1.00  0.00     0.212 HD
ENDBRANCH  16  23
ENDBRANCH   6  15
BRANCH   7  25
ATOM     25  C   UNL     1      89.474  78.037  83.988  1.00  0.00     0.135 C 
BRANCH  25  26
ATOM     26  C   UNL     1      89.611  79.290  84.816  1.00  0.00    -0.040 A 
ATOM     27  C   UNL     1      88.519  79.771  85.538  1.00  0.00     0.004 A 
ATOM     28  C   UNL     1      90.830  79.967  84.861  1.00  0.00     0.004 A 
ATOM     29  C   UNL     1      88.645  80.931  86.304  1.00  0.00     0.000 A 
ATOM     30  C   UNL     1      90.956  81.126  85.627  1.00  0.00     0.000 A 
ATOM     31  C   UNL     1      89.864  81.607  86.349  1.00  0.00     0.000 A 
ENDBRANCH  25  26
ENDBRANCH   7  25
BRANCH  14  32
ATOM     32  C   UNL     1      88.405  74.175  85.884  1.00  0.00    -0.046 C 
ATOM     33  C   UNL     1      87.658  73.308  84.914  1.00  0.00     0.042 C 
ATOM     34  C   UNL     1      87.942  74.417  87.119  1.00  0.00     0.010 C 
ENDBRANCH  14  32
ENDBRANCH   3   4
BRANCH   2  35
ATOM     35  C   UNL     1      95.047  76.289  86.887  1.00  0.00     0.078 CG0
ATOM     36  G   UNL     1      94.809  75.503  85.599  1.00  0.00     0.000 G0
ENDBRANCH   2  35
ENDBRANCH   1   2
BRANCH   1  37
ATOM     37  O   UNL     1      93.839  79.166  88.221  1.00  0.00    -0.461 OA
BRANCH  37  38
ATOM     38  C   UNL     1      94.515  80.207  88.815  1.00  0.00     0.310 C 
ATOM     39  O   UNL     1      95.138  80.132  89.864  1.00  0.00    -0.252 OA
BRANCH  38  40
ATOM     40  C   UNL     1      94.366  81.451  87.971  1.00  0.00     0.158 C 
BRANCH  40  41
ATOM     41  C   UNL     1      94.778  81.242  86.537  1.00  0.00    -0.033 A 
ATOM     42  C   UNL     1      95.592  80.161  86.196  1.00  0.00     0.054 A 
ATOM     43  C   UNL     1      94.346  82.128  85.550  1.00  0.00     0.008 A 
ATOM     44  C   UNL     1      95.974  79.967  84.868  1.00  0.00     0.160 A 
ATOM     45  C   UNL     1      94.727  81.934  84.222  1.00  0.00     0.050 A 
ATOM     46  C   UNL     1      95.541  80.854  83.881  1.00  0.00     0.157 A 
BRANCH  44  47
ATOM     47  O   UNL     1      96.769  78.909  84.547  1.00  0.00    -0.493 OA
ATOM     48  C   UNL     1      97.782  78.551  85.486  1.00  0.00     0.278 C 
ENDBRANCH  44  47
BRANCH  46  49
ATOM     49  O   UNL     1      95.906  80.674  82.582  1.00  0.00    -0.504 OA
ATOM     50  H   UNL     1      95.649  79.779  82.301  1.00  0.00     0.293 HD
ENDBRANCH  46  49
ENDBRANCH  40  41
ENDBRANCH  38  40
ENDBRANCH  37  38
ENDBRANCH   1  37
TORSDOF 11
ENDMDL
MODEL 6
REMARK VINA RESULT:    -4.881     27.054     30.140
REMARK INTER + INTRA:          -9.356
REMARK INTER:                  -6.798
REMARK INTRA:                  -2.557
REMARK UNBOUND:                -0.765
REMARK SMILES C=C(C)[C@]12C[C@@H](C)[C@@]34O[C@](Cc5ccccc5)(O[C@@H]1[C@@H]3C=C(COC(=O)Cc1ccc(O)c(OC)c1)C[C@]1(O)C(=O)C(C)=C[C@@H]41)O2
REMARK SMILES IDX 23 1 22 2 21 3 20 4 9 5 8 6 10 7 6 8 18 9 46 10 19 11 5 12
REMARK SMILES IDX 7 13 4 14 45 15 38 16 44 17 40 18 42 20 41 21 43 22 39 23
REMARK SMILES IDX 11 25 12 26 13 27 17 28 14 29 16 30 15 31 2 32 3 33 1 34
REMARK SMILES IDX 37 35 24 37 25 38 26 39 27 40 28 41 36 42 29 43 33 44 30 45
REMARK SMILES IDX 31 46 34 47 35 48 32 49
REMARK H PARENT 39 24 32 50
REMARK Flexibility Score: 90.00
ROOT
ATOM      1  C   UNL     1      68.260  68.341  84.487  1.00  0.00     0.264 C 
ENDROOT
BRANCH   1   2
ATOM      2  C   UNL     1      67.101  69.296  84.653  1.00  0.00    -0.033 C 
ATOM      3  C   UNL     1      65.863  68.899  84.295  1.00  0.00    -0.015 C 
BRANCH   3   4
ATOM      4  C   UNL     1      64.562  69.685  84.290  1.00  0.00     0.078 C 
ATOM      5  O   UNL     1      63.472  69.287  86.475  1.00  0.00    -0.319 OA
ATOM      6  C   UNL     1      64.070  70.327  85.641  1.00  0.00     0.095 C 
ATOM      7  C   UNL     1      62.615  68.359  85.783  1.00  0.00     0.289 C 
ATOM      8  C   UNL     1      62.969  71.409  85.284  1.00  0.00     0.023 C 
ATOM      9  O   UNL     1      63.309  67.706  84.723  1.00  0.00    -0.320 OA
ATOM     10  O   UNL     1      61.499  69.003  85.174  1.00  0.00    -0.313 OA
ATOM     11  C   UNL     1      63.407  68.786  83.783  1.00  0.00     0.170 C 
ATOM     12  C   UNL     1      62.140  70.990  84.031  1.00  0.00     0.049 C 
ATOM     13  C   UNL     1      62.013  71.780  86.430  1.00  0.00     0.011 C 
ATOM     14  C   UNL     1      62.023  69.470  83.913  1.00  0.00     0.122 C 
BRANCH   6  15
ATOM     15  C   UNL     1      65.275  70.849  86.475  1.00  0.00     0.086 C 
ATOM     16  C   UNL     1      66.377  71.589  85.688  1.00  0.00     0.140 CG0
ATOM     17  C   UNL     1      65.022  71.748  87.652  1.00  0.00    -0.010 C 
ATOM     18  C   UNL     1      66.843  72.632  86.682  1.00  0.00     0.190 C 
ATOM     19  G   UNL     1      67.503  70.652  85.252  1.00  0.00     0.000 G0
ATOM     20  C   UNL     1      65.901  72.743  87.812  1.00  0.00    -0.008 C 
ATOM     21  O   UNL     1      67.835  73.334  86.559  1.00  0.00    -0.291 OA
ATOM     22  C   UNL     1      66.011  73.752  88.886  1.00  0.00     0.048 C 
BRANCH  16  23
ATOM     23  O   UNL     1      65.889  72.354  84.599  1.00  0.00    -0.381 OA
ATOM     24  H   UNL     1      66.057  73.293  84.783  1.00  0.00     0.212 HD
ENDBRANCH  16  23
ENDBRANCH   6  15
BRANCH   7  25
ATOM     25  C   UNL     1      62.122  67.331  86.782  1.00  0.00     0.135 C 
BRANCH  25  26
ATOM     26  C   UNL     1      60.819  67.744  87.421  1.00  0.00    -0.040 A 
ATOM     27  C   UNL     1      60.810  68.719  88.418  1.00  0.00     0.004 A 
ATOM     28  C   UNL     1      59.624  67.152  87.014  1.00  0.00     0.004 A 
ATOM     29  C   UNL     1      59.605  69.101  89.009  1.00  0.00     0.000 A 
ATOM     30  C   UNL     1      58.419  67.533  87.605  1.00  0.00     0.000 A 
ATOM     31  C   UNL     1      58.410  68.508  88.603  1.00  0.00     0.000 A 
ENDBRANCH  25  26
ENDBRANCH   7  25
BRANCH  14  32
ATOM     32  C   UNL     1      61.085  69.049  82.829  1.00  0.00    -0.046 C 
ATOM     33  C   UNL     1      59.895  68.243  83.259  1.00  0.00     0.042 C 
ATOM     34  C   UNL     1      61.294  69.373  81.545  1.00  0.00     0.010 C 
ENDBRANCH  14  32
ENDBRANCH   3   4
BRANCH   2  35
ATOM     35  C   UNL     1      67.512  70.635  85.236  1.00  0.00     0.078 CG0
ATOM     36  G   UNL     1      66.394  71.572  85.691  1.00  0.00     0.000 G0
ENDBRANCH   2  35
ENDBRANCH   1   2
BRANCH   1  37
ATOM     37  O   UNL     1      68.591  68.243  83.118  1.00  0.00    -0.461 OA
BRANCH  37  38
ATOM     38  C   UNL     1      68.450  67.000  82.546  1.00  0.00     0.310 C 
ATOM     39  O   UNL     1      68.820  65.948  83.049  1.00  0.00    -0.252 OA
BRANCH  38  40
ATOM     40  C   UNL     1      67.769  67.137  81.204  1.00  0.00     0.158 C 
BRANCH  40  41
ATOM     41  C   UNL     1      66.306  66.776  81.248  1.00  0.00    -0.033 A 
ATOM     42  C   UNL     1      65.880  65.680  81.999  1.00  0.00     0.054 A 
ATOM     43  C   UNL     1      65.378  67.538  80.538  1.00  0.00     0.008 A 
ATOM     44  C   UNL     1      64.526  65.346  82.039  1.00  0.00     0.160 A 
ATOM     45  C   UNL     1      64.024  67.204  80.578  1.00  0.00     0.050 A 
ATOM     46  C   UNL     1      63.598  66.108  81.328  1.00  0.00     0.157 A 
BRANCH  44  47
ATOM     47  O   UNL     1      64.123  64.274  82.776  1.00  0.00    -0.493 OA
ATOM     48  C   UNL     1      64.279  64.364  84.191  1.00  0.00     0.278 C 
ENDBRANCH  44  47
BRANCH  46  49
ATOM     49  O   UNL     1      62.274  65.792  81.361  1.00  0.00    -0.504 OA
ATOM     50  H   UNL     1      62.143  65.039  81.961  1.00  0.00     0.293 HD
ENDBRANCH  46  49
ENDBRANCH  40  41
ENDBRANCH  38  40
ENDBRANCH  37  38
ENDBRANCH   1  37
TORSDOF 11
ENDMDL
MODEL 7
REMARK VINA RESULT:    -4.863      5.920     10.002
REMARK INTER + INTRA:          -9.324
REMARK INTER:                  -6.690
REMARK INTRA:                  -2.633
REMARK UNBOUND:                -0.765
REMARK SMILES C=C(C)[C@]12C[C@@H](C)[C@@]34O[C@](Cc5ccccc5)(O[C@@H]1[C@@H]3C=C(COC(=O)Cc1ccc(O)c(OC)c1)C[C@]1(O)C(=O)C(C)=C[C@@H]41)O2
REMARK SMILES IDX 23 1 22 2 21 3 20 4 9 5 8 6 10 7 6 8 18 9 46 10 19 11 5 12
REMARK SMILES IDX 7 13 4 14 45 15 38 16 44 17 40 18 42 20 41 21 43 22 39 23
REMARK SMILES IDX 11 25 12 26 13 27 17 28 14 29 16 30 15 31 2 32 3 33 1 34
REMARK SMILES IDX 37 35 24 37 25 38 26 39 27 40 28 41 36 42 29 43 33 44 30 45
REMARK SMILES IDX 31 46 34 47 35 48 32 49
REMARK H PARENT 39 24 32 50
REMARK Flexibility Score: 90.00
ROOT
ATOM      1  C   UNL     1      73.700  99.138  74.192  1.00  0.00     0.264 C 
ENDROOT
BRANCH   1   2
ATOM      2  C   UNL     1      73.773  98.438  75.529  1.00  0.00    -0.033 C 
ATOM      3  C   UNL     1      73.292  97.184  75.644  1.00  0.00    -0.015 C 
BRANCH   3   4
ATOM      4  C   UNL     1      73.179  96.303  76.878  1.00  0.00     0.078 C 
ATOM      5  O   UNL     1      75.245  94.949  76.989  1.00  0.00    -0.319 OA
ATOM      6  C   UNL     1      74.488  95.982  77.691  1.00  0.00     0.095 C 
ATOM      7  C   UNL     1      74.462  93.863  76.458  1.00  0.00     0.289 C 
ATOM      8  C   UNL     1      74.048  95.433  79.112  1.00  0.00     0.023 C 
ATOM      9  O   UNL     1      73.461  94.338  75.562  1.00  0.00    -0.320 OA
ATOM     10  O   UNL     1      73.762  93.153  77.476  1.00  0.00    -0.313 OA
ATOM     11  C   UNL     1      72.551  94.940  76.496  1.00  0.00     0.170 C 
ATOM     12  C   UNL     1      72.716  94.626  79.025  1.00  0.00     0.049 C 
ATOM     13  C   UNL     1      75.105  94.599  79.853  1.00  0.00     0.011 C 
ATOM     14  C   UNL     1      72.563  93.931  77.671  1.00  0.00     0.122 C 
BRANCH   6  15
ATOM     15  C   UNL     1      75.439  97.213  77.715  1.00  0.00     0.086 C 
ATOM     16  C   UNL     1      74.771  98.584  77.949  1.00  0.00     0.140 CG0
ATOM     17  C   UNL     1      76.604  97.225  78.665  1.00  0.00    -0.010 C 
ATOM     18  C   UNL     1      75.823  99.327  78.745  1.00  0.00     0.190 C 
ATOM     19  G   UNL     1      74.423  99.287  76.638  1.00  0.00     0.000 G0
ATOM     20  C   UNL     1      76.863  98.405  79.238  1.00  0.00    -0.008 C 
ATOM     21  O   UNL     1      75.805 100.522  78.999  1.00  0.00    -0.291 OA
ATOM     22  C   UNL     1      77.960  98.802  80.144  1.00  0.00     0.048 C 
BRANCH  16  23
ATOM     23  O   UNL     1      73.656  98.537  78.823  1.00  0.00    -0.381 OA
ATOM     24  H   UNL     1      73.974  98.327  79.716  1.00  0.00     0.212 HD
ENDBRANCH  16  23
ENDBRANCH   6  15
BRANCH   7  25
ATOM     25  C   UNL     1      75.394  92.916  75.729  1.00  0.00     0.135 C 
BRANCH  25  26
ATOM     26  C   UNL     1      76.203  93.622  74.670  1.00  0.00    -0.040 A 
ATOM     27  C   UNL     1      75.691  93.763  73.380  1.00  0.00     0.004 A 
ATOM     28  C   UNL     1      77.462  94.136  74.980  1.00  0.00     0.004 A 
ATOM     29  C   UNL     1      76.439  94.416  72.400  1.00  0.00     0.000 A 
ATOM     30  C   UNL     1      78.210  94.789  74.000  1.00  0.00     0.000 A 
ATOM     31  C   UNL     1      77.698  94.929  72.710  1.00  0.00     0.000 A 
ENDBRANCH  25  26
ENDBRANCH   7  25
BRANCH  14  32
ATOM     32  C   UNL     1      71.390  93.007  77.629  1.00  0.00    -0.046 C 
ATOM     33  C   UNL     1      71.563  91.753  76.825  1.00  0.00     0.042 C 
ATOM     34  C   UNL     1      70.247  93.283  78.275  1.00  0.00     0.010 C 
ENDBRANCH  14  32
ENDBRANCH   3   4
BRANCH   2  35
ATOM     35  C   UNL     1      74.419  99.285  76.610  1.00  0.00     0.078 CG0
ATOM     36  G   UNL     1      74.749  98.597  77.933  1.00  0.00     0.000 G0
ENDBRANCH   2  35
ENDBRANCH   1   2
BRANCH   1  37
ATOM     37  O   UNL     1      75.007  99.347  73.702  1.00  0.00    -0.461 OA
BRANCH  37  38
ATOM     38  C   UNL     1      75.499  98.385  72.851  1.00  0.00     0.310 C 
ATOM     39  O   UNL     1      74.843  97.473  72.367  1.00  0.00    -0.252 OA
BRANCH  38  40
ATOM     40  C   UNL     1      76.969  98.630  72.607  1.00  0.00     0.158 C 
BRANCH  40  41
ATOM     41  C   UNL     1      77.684  99.167  73.821  1.00  0.00    -0.033 A 
ATOM     42  C   UNL     1      78.156 100.480  73.828  1.00  0.00     0.054 A 
ATOM     43  C   UNL     1      77.875  98.351  74.936  1.00  0.00     0.008 A 
ATOM     44  C   UNL     1      78.818 100.977  74.951  1.00  0.00     0.160 A 
ATOM     45  C   UNL     1      78.537  98.848  76.059  1.00  0.00     0.050 A 
ATOM     46  C   UNL     1      79.008 100.160  76.067  1.00  0.00     0.157 A 
BRANCH  44  47
ATOM     47  O   UNL     1      79.274 102.260  74.947  1.00  0.00    -0.493 OA
ATOM     48  C   UNL     1      80.430 102.535  74.157  1.00  0.00     0.278 C 
ENDBRANCH  44  47
BRANCH  46  49
ATOM     49  O   UNL     1      79.652 100.635  77.169  1.00  0.00    -0.504 OA
ATOM     50  H   UNL     1      79.457 101.582  77.266  1.00  0.00     0.293 HD
ENDBRANCH  46  49
ENDBRANCH  40  41
ENDBRANCH  38  40
ENDBRANCH  37  38
ENDBRANCH   1  37
TORSDOF 11
ENDMDL
MODEL 8
REMARK VINA RESULT:    -4.749      4.486      8.698
REMARK INTER + INTRA:          -9.124
REMARK INTER:                  -7.034
REMARK INTRA:                  -2.090
REMARK UNBOUND:                -0.765
REMARK SMILES C=C(C)[C@]12C[C@@H](C)[C@@]34O[C@](Cc5ccccc5)(O[C@@H]1[C@@H]3C=C(COC(=O)Cc1ccc(O)c(OC)c1)C[C@]1(O)C(=O)C(C)=C[C@@H]41)O2
REMARK SMILES IDX 23 1 22 2 21 3 20 4 9 5 8 6 10 7 6 8 18 9 46 10 19 11 5 12
REMARK SMILES IDX 7 13 4 14 45 15 38 16 44 17 40 18 42 20 41 21 43 22 39 23
REMARK SMILES IDX 11 25 12 26 13 27 17 28 14 29 16 30 15 31 2 32 3 33 1 34
REMARK SMILES IDX 37 35 24 37 25 38 26 39 27 40 28 41 36 42 29 43 33 44 30 45
REMARK SMILES IDX 31 46 34 47 35 48 32 49
REMARK H PARENT 39 24 32 50
REMARK Flexibility Score: 90.00
ROOT
ATOM      1  C   UNL     1      76.905  99.701  73.717  1.00  0.00     0.264 C 
ENDROOT
BRANCH   1   2
ATOM      2  C   UNL     1      76.843  98.511  72.788  1.00  0.00    -0.033 C 
ATOM      3  C   UNL     1      75.932  97.544  73.015  1.00  0.00    -0.015 C 
BRANCH   3   4
ATOM      4  C   UNL     1      75.719  96.228  72.284  1.00  0.00     0.078 C 
ATOM      5  O   UNL     1      74.058  96.654  70.501  1.00  0.00    -0.319 OA
ATOM      6  C   UNL     1      75.448  96.268  70.734  1.00  0.00     0.095 C 
ATOM      7  C   UNL     1      73.092  96.032  71.369  1.00  0.00     0.289 C 
ATOM      8  C   UNL     1      75.687  94.807  70.168  1.00  0.00     0.023 C 
ATOM      9  O   UNL     1      73.382  96.297  72.739  1.00  0.00    -0.320 OA
ATOM     10  O   UNL     1      73.087  94.613  71.244  1.00  0.00    -0.313 OA
ATOM     11  C   UNL     1      74.534  95.460  72.919  1.00  0.00     0.170 C 
ATOM     12  C   UNL     1      75.291  93.718  71.211  1.00  0.00     0.049 C 
ATOM     13  C   UNL     1      75.006  94.500  68.824  1.00  0.00     0.011 C 
ATOM     14  C   UNL     1      74.153  94.190  72.118  1.00  0.00     0.122 C 
BRANCH   6  15
ATOM     15  C   UNL     1      76.283  97.393  70.056  1.00  0.00     0.086 C 
ATOM     16  C   UNL     1      77.739  97.546  70.543  1.00  0.00     0.140 CG0
ATOM     17  C   UNL     1      76.410  97.415  68.559  1.00  0.00    -0.010 C 
ATOM     18  C   UNL     1      78.461  97.970  69.281  1.00  0.00     0.190 C 
ATOM     19  G   UNL     1      77.867  98.575  71.665  1.00  0.00     0.000 G0
ATOM     20  C   UNL     1      77.614  97.762  68.092  1.00  0.00    -0.008 C 
ATOM     21  O   UNL     1      79.609  98.384  69.228  1.00  0.00    -0.291 OA
ATOM     22  C   UNL     1      78.073  97.967  66.702  1.00  0.00     0.048 C 
BRANCH  16  23
ATOM     23  O   UNL     1      78.359  96.319  70.891  1.00  0.00    -0.381 OA
ATOM     24  H   UNL     1      77.750  95.817  71.457  1.00  0.00     0.212 HD
ENDBRANCH  16  23
ENDBRANCH   6  15
BRANCH   7  25
ATOM     25  C   UNL     1      71.721  96.576  71.021  1.00  0.00     0.135 C 
BRANCH  25  26
ATOM     26  C   UNL     1      71.212  96.030  69.711  1.00  0.00    -0.040 A 
ATOM     27  C   UNL     1      70.172  95.099  69.700  1.00  0.00     0.004 A 
ATOM     28  C   UNL     1      71.778  96.456  68.510  1.00  0.00     0.004 A 
ATOM     29  C   UNL     1      69.701  94.593  68.488  1.00  0.00     0.000 A 
ATOM     30  C   UNL     1      71.307  95.950  67.298  1.00  0.00     0.000 A 
ATOM     31  C   UNL     1      70.268  95.019  67.288  1.00  0.00     0.000 A 
ENDBRANCH  25  26
ENDBRANCH   7  25
BRANCH  14  32
ATOM     32  C   UNL     1      73.635  93.103  73.002  1.00  0.00    -0.046 C 
ATOM     33  C   UNL     1      74.103  93.128  74.426  1.00  0.00     0.042 C 
ATOM     34  C   UNL     1      72.798  92.158  72.547  1.00  0.00     0.010 C 
ENDBRANCH  14  32
ENDBRANCH   3   4
BRANCH   2  35
ATOM     35  C   UNL     1      77.864  98.578  71.668  1.00  0.00     0.078 CG0
ATOM     36  G   UNL     1      77.727  97.561  70.536  1.00  0.00     0.000 G0
ENDBRANCH   2  35
ENDBRANCH   1   2
BRANCH   1  37
ATOM     37  O   UNL     1      76.594  99.285  75.030  1.00  0.00    -0.461 OA
BRANCH  37  38
ATOM     38  C   UNL     1      77.482  99.657  76.012  1.00  0.00     0.310 C 
ATOM     39  O   UNL     1      77.302 100.561  76.817  1.00  0.00    -0.252 OA
BRANCH  38  40
ATOM     40  C   UNL     1      78.709  98.779  75.941  1.00  0.00     0.158 C 
BRANCH  40  41
ATOM     41  C   UNL     1      78.381  97.326  75.713  1.00  0.00    -0.033 A 
ATOM     42  C   UNL     1      77.430  96.692  76.515  1.00  0.00     0.054 A 
ATOM     43  C   UNL     1      79.026  96.616  74.702  1.00  0.00     0.008 A 
ATOM     44  C   UNL     1      77.126  95.347  76.304  1.00  0.00     0.160 A 
ATOM     45  C   UNL     1      78.721  95.271  74.491  1.00  0.00     0.050 A 
ATOM     46  C   UNL     1      77.772  94.636  75.291  1.00  0.00     0.157 A 
BRANCH  44  47
ATOM     47  O   UNL     1      76.197  94.739  77.092  1.00  0.00    -0.493 OA
ATOM     48  C   UNL     1      75.791  95.435  78.270  1.00  0.00     0.278 C 
ENDBRANCH  44  47
BRANCH  46  49
ATOM     49  O   UNL     1      77.482  93.323  75.075  1.00  0.00    -0.504 OA
ATOM     50  H   UNL     1      76.575  93.252  74.733  1.00  0.00     0.293 HD
ENDBRANCH  46  49
ENDBRANCH  40  41
ENDBRANCH  38  40
ENDBRANCH  37  38
ENDBRANCH   1  37
TORSDOF 11
ENDMDL
MODEL 9
REMARK VINA RESULT:    -4.718     26.641     28.735
REMARK INTER + INTRA:          -9.068
REMARK INTER:                  -8.292
REMARK INTRA:                  -0.776
REMARK UNBOUND:                -0.765
REMARK SMILES C=C(C)[C@]12C[C@@H](C)[C@@]34O[C@](Cc5ccccc5)(O[C@@H]1[C@@H]3C=C(COC(=O)Cc1ccc(O)c(OC)c1)C[C@]1(O)C(=O)C(C)=C[C@@H]41)O2
REMARK SMILES IDX 23 1 22 2 21 3 20 4 9 5 8 6 10 7 6 8 18 9 46 10 19 11 5 12
REMARK SMILES IDX 7 13 4 14 45 15 38 16 44 17 40 18 42 20 41 21 43 22 39 23
REMARK SMILES IDX 11 25 12 26 13 27 17 28 14 29 16 30 15 31 2 32 3 33 1 34
REMARK SMILES IDX 37 35 24 37 25 38 26 39 27 40 28 41 36 42 29 43 33 44 30 45
REMARK SMILES IDX 31 46 34 47 35 48 32 49
REMARK H PARENT 39 24 32 50
REMARK Flexibility Score: 90.00
ROOT
ATOM      1  C   UNL     1      94.448  94.970  91.507  1.00  0.00     0.264 C 
ENDROOT
BRANCH   1   2
ATOM      2  C   UNL     1      93.392  96.030  91.298  1.00  0.00    -0.033 C 
ATOM      3  C   UNL     1      92.342  96.091  92.142  1.00  0.00    -0.015 C 
BRANCH   3   4
ATOM      4  C   UNL     1      91.125  97.000  92.104  1.00  0.00     0.078 C 
ATOM      5  O   UNL     1      91.670  98.992  93.465  1.00  0.00    -0.319 OA
ATOM      6  C   UNL     1      91.353  98.558  92.107  1.00  0.00     0.095 C 
ATOM      7  C   UNL     1      90.873  98.396  94.506  1.00  0.00     0.289 C 
ATOM      8  C   UNL     1      90.001  99.241  91.641  1.00  0.00     0.023 C 
ATOM      9  O   UNL     1      90.971  96.974  94.482  1.00  0.00    -0.320 OA
ATOM     10  O   UNL     1      89.486  98.689  94.359  1.00  0.00    -0.313 OA
ATOM     11  C   UNL     1      90.198  96.688  93.305  1.00  0.00     0.170 C 
ATOM     12  C   UNL     1      88.757  98.425  92.110  1.00  0.00     0.049 C 
ATOM     13  C   UNL     1      89.831 100.713  92.050  1.00  0.00     0.011 C 
ATOM     14  C   UNL     1      89.024  97.692  93.425  1.00  0.00     0.122 C 
BRANCH   6  15
ATOM     15  C   UNL     1      92.613  98.932  91.275  1.00  0.00     0.086 C 
ATOM     16  C   UNL     1      92.790  98.186  89.936  1.00  0.00     0.140 CG0
ATOM     17  C   UNL     1      92.853 100.370  90.908  1.00  0.00    -0.010 C 
ATOM     18  C   UNL     1      93.433  99.239  89.058  1.00  0.00     0.190 C 
ATOM     19  G   UNL     1      93.658  96.937  90.082  1.00  0.00     0.000 G0
ATOM     20  C   UNL     1      93.339 100.574  89.679  1.00  0.00    -0.008 C 
ATOM     21  O   UNL     1      93.923  99.040  87.957  1.00  0.00    -0.291 OA
ATOM     22  C   UNL     1      93.766 101.825  89.020  1.00  0.00     0.048 C 
BRANCH  16  23
ATOM     23  O   UNL     1      91.570  97.894  89.276  1.00  0.00    -0.381 OA
ATOM     24  H   UNL     1      91.773  97.571  88.383  1.00  0.00     0.212 HD
ENDBRANCH  16  23
ENDBRANCH   6  15
BRANCH   7  25
ATOM     25  C   UNL     1      91.362  98.921  95.840  1.00  0.00     0.135 C 
BRANCH  25  26
ATOM     26  C   UNL     1      90.812 100.292  96.145  1.00  0.00    -0.040 A 
ATOM     27  C   UNL     1      89.610 100.422  96.841  1.00  0.00     0.004 A 
ATOM     28  C   UNL     1      91.506 101.429  95.733  1.00  0.00     0.004 A 
ATOM     29  C   UNL     1      89.101 101.690  97.123  1.00  0.00     0.000 A 
ATOM     30  C   UNL     1      90.997 102.697  96.015  1.00  0.00     0.000 A 
ATOM     31  C   UNL     1      89.794 102.827  96.710  1.00  0.00     0.000 A 
ENDBRANCH  25  26
ENDBRANCH   7  25
BRANCH  14  32
ATOM     32  C   UNL     1      87.795  97.054  93.986  1.00  0.00    -0.046 C 
ATOM     33  C   UNL     1      87.705  95.562  93.857  1.00  0.00     0.042 C 
ATOM     34  C   UNL     1      86.827  97.774  94.572  1.00  0.00     0.010 C 
ENDBRANCH  14  32
ENDBRANCH   3   4
BRANCH   2  35
ATOM     35  C   UNL     1      93.678  96.929  90.110  1.00  0.00     0.078 CG0
ATOM     36  G   UNL     1      92.802  98.171  89.946  1.00  0.00     0.000 G0
ENDBRANCH   2  35
ENDBRANCH   1   2
BRANCH   1  37
ATOM     37  O   UNL     1      93.967  93.732  91.030  1.00  0.00    -0.461 OA
BRANCH  37  38
ATOM     38  C   UNL     1      94.882  92.707  90.968  1.00  0.00     0.310 C 
ATOM     39  O   UNL     1      96.095  92.851  90.897  1.00  0.00    -0.252 OA
BRANCH  38  40
ATOM     40  C   UNL     1      94.158  91.381  91.001  1.00  0.00     0.158 C 
BRANCH  40  41
ATOM     41  C   UNL     1      94.868  90.304  90.223  1.00  0.00    -0.033 A 
ATOM     42  C   UNL     1      95.572  89.305  90.897  1.00  0.00     0.054 A 
ATOM     43  C   UNL     1      94.820  90.304  88.829  1.00  0.00     0.008 A 
ATOM     44  C   UNL     1      96.229  88.308  90.176  1.00  0.00     0.160 A 
ATOM     45  C   UNL     1      95.477  89.307  88.108  1.00  0.00     0.050 A 
ATOM     46  C   UNL     1      96.182  88.309  88.781  1.00  0.00     0.157 A 
BRANCH  44  47
ATOM     47  O   UNL     1      96.914  87.339  90.845  1.00  0.00    -0.493 OA
ATOM     48  C   UNL     1      96.775  87.309  92.264  1.00  0.00     0.278 C 
ENDBRANCH  44  47
BRANCH  46  49
ATOM     49  O   UNL     1      96.819  87.340  88.067  1.00  0.00    -0.504 OA
ATOM     50  H   UNL     1      96.500  86.470  88.360  1.00  0.00     0.293 HD
ENDBRANCH  46  49
ENDBRANCH  40  41
ENDBRANCH  38  40
ENDBRANCH  37  38
ENDBRANCH   1  37
TORSDOF 11
ENDMDL
MODEL 10
REMARK VINA RESULT:    -4.668     25.026     29.147
REMARK INTER + INTRA:          -8.981
REMARK INTER:                  -8.030
REMARK INTRA:                  -0.951
REMARK UNBOUND:                -0.765
REMARK SMILES C=C(C)[C@]12C[C@@H](C)[C@@]34O[C@](Cc5ccccc5)(O[C@@H]1[C@@H]3C=C(COC(=O)Cc1ccc(O)c(OC)c1)C[C@]1(O)C(=O)C(C)=C[C@@H]41)O2
REMARK SMILES IDX 23 1 22 2 21 3 20 4 9 5 8 6 10 7 6 8 18 9 46 10 19 11 5 12
REMARK SMILES IDX 7 13 4 14 45 15 38 16 44 17 40 18 42 20 41 21 43 22 39 23
REMARK SMILES IDX 11 25 12 26 13 27 17 28 14 29 16 30 15 31 2 32 3 33 1 34
REMARK SMILES IDX 37 35 24 37 25 38 26 39 27 40 28 41 36 42 29 43 33 44 30 45
REMARK SMILES IDX 31 46 34 47 35 48 32 49
REMARK H PARENT 39 24 32 50
REMARK Flexibility Score: 90.00
ROOT
ATOM      1  C   UNL     1      93.803  77.502  88.690  1.00  0.00     0.264 C 
ENDROOT
BRANCH   1   2
ATOM      2  C   UNL     1      93.466  76.540  87.575  1.00  0.00    -0.033 C 
ATOM      3  C   UNL     1      92.176  76.229  87.340  1.00  0.00    -0.015 C 
BRANCH   3   4
ATOM      4  C   UNL     1      91.587  75.243  86.344  1.00  0.00     0.078 C 
ATOM      5  O   UNL     1      91.124  76.507  84.269  1.00  0.00    -0.319 OA
ATOM      6  C   UNL     1      91.934  75.423  84.819  1.00  0.00     0.095 C 
ATOM      7  C   UNL     1      89.745  76.518  84.682  1.00  0.00     0.289 C 
ATOM      8  C   UNL     1      91.567  74.069  84.082  1.00  0.00     0.023 C 
ATOM      9  O   UNL     1      89.631  76.582  86.102  1.00  0.00    -0.320 OA
ATOM     10  O   UNL     1      89.054  75.333  84.295  1.00  0.00    -0.313 OA
ATOM     11  C   UNL     1      90.042  75.250  86.448  1.00  0.00     0.170 C 
ATOM     12  C   UNL     1      90.333  73.376  84.738  1.00  0.00     0.049 C 
ATOM     13  C   UNL     1      91.343  74.184  82.565  1.00  0.00     0.011 C 
ATOM     14  C   UNL     1      89.369  74.396  85.345  1.00  0.00     0.122 C 
BRANCH   6  15
ATOM     15  C   UNL     1      93.402  75.905  84.641  1.00  0.00     0.086 C 
ATOM     16  C   UNL     1      94.455  75.227  85.542  1.00  0.00     0.140 CG0
ATOM     17  C   UNL     1      94.031  75.863  83.276  1.00  0.00    -0.010 C 
ATOM     18  C   UNL     1      95.676  75.191  84.647  1.00  0.00     0.190 C 
ATOM     19  G   UNL     1      94.699  76.007  86.832  1.00  0.00     0.000 G0
ATOM     20  C   UNL     1      95.315  75.492  83.248  1.00  0.00    -0.008 C 
ATOM     21  O   UNL     1      96.808  74.903  85.004  1.00  0.00    -0.291 OA
ATOM     22  C   UNL     1      96.260  75.419  82.115  1.00  0.00     0.048 C 
BRANCH  16  23
ATOM     23  O   UNL     1      94.189  73.859  85.806  1.00  0.00    -0.381 OA
ATOM     24  H   UNL     1      94.991  73.457  86.177  1.00  0.00     0.212 HD
ENDBRANCH  16  23
ENDBRANCH   6  15
BRANCH   7  25
ATOM     25  C   UNL     1      89.071  77.723  84.059  1.00  0.00     0.135 C 
BRANCH  25  26
ATOM     26  C   UNL     1      89.763  79.012  84.428  1.00  0.00    -0.040 A 
ATOM     27  C   UNL     1      89.058  80.215  84.402  1.00  0.00     0.004 A 
ATOM     28  C   UNL     1      91.108  79.000  84.796  1.00  0.00     0.004 A 
ATOM     29  C   UNL     1      89.698  81.407  84.742  1.00  0.00     0.000 A 
ATOM     30  C   UNL     1      91.749  80.192  85.137  1.00  0.00     0.000 A 
ATOM     31  C   UNL     1      91.043  81.395  85.110  1.00  0.00     0.000 A 
ENDBRANCH  25  26
ENDBRANCH   7  25
BRANCH  14  32
ATOM     32  C   UNL     1      88.096  73.772  85.816  1.00  0.00    -0.046 C 
ATOM     33  C   UNL     1      87.410  72.854  84.848  1.00  0.00     0.042 C 
ATOM     34  C   UNL     1      87.594  74.018  87.036  1.00  0.00     0.010 C 
ENDBRANCH  14  32
ENDBRANCH   3   4
BRANCH   2  35
ATOM     35  C   UNL     1      94.690  76.038  86.833  1.00  0.00     0.078 CG0
ATOM     36  G   UNL     1      94.451  75.220  85.565  1.00  0.00     0.000 G0
ENDBRANCH   2  35
ENDBRANCH   1   2
BRANCH   1  37
ATOM     37  O   UNL     1      93.591  78.825  88.245  1.00  0.00    -0.461 OA
BRANCH  37  38
ATOM     38  C   UNL     1      94.719  79.584  88.035  1.00  0.00     0.310 C 
ATOM     39  O   UNL     1      95.404  80.084  88.917  1.00  0.00    -0.252 OA
BRANCH  38  40
ATOM     40  C   UNL     1      94.977  79.704  86.551  1.00  0.00     0.158 C 
BRANCH  40  41
ATOM     41  C   UNL     1      95.015  81.133  86.074  1.00  0.00    -0.033 A 
ATOM     42  C   UNL     1      94.581  82.160  86.914  1.00  0.00     0.054 A 
ATOM     43  C   UNL     1      95.484  81.429  84.795  1.00  0.00     0.008 A 
ATOM     44  C   UNL     1      94.615  83.483  86.472  1.00  0.00     0.160 A 
ATOM     45  C   UNL     1      95.519  82.752  84.354  1.00  0.00     0.050 A 
ATOM     46  C   UNL     1      95.085  83.779  85.191  1.00  0.00     0.157 A 
BRANCH  44  47
ATOM     47  O   UNL     1      94.189  84.476  87.300  1.00  0.00    -0.493 OA
ATOM     48  C   UNL     1      92.946  84.273  87.970  1.00  0.00     0.278 C 
ENDBRANCH  44  47
BRANCH  46  49
ATOM     49  O   UNL     1      95.124  85.066  84.750  1.00  0.00    -0.504 OA
ATOM     50  H   UNL     1      95.959  85.212  84.274  1.00  0.00     0.293 HD
ENDBRANCH  46  49
ENDBRANCH  40  41
ENDBRANCH  38  40
ENDBRANCH  37  38
ENDBRANCH   1  37
TORSDOF 11
ENDMDL
