MODEL 1
REMARK VINA RESULT:    -7.065      0.000      0.000
REMARK INTER + INTRA:         -13.538
REMARK INTER:                 -12.435
REMARK INTRA:                  -1.104
REMARK UNBOUND:                -1.104
REMARK SMILES C=C(C)[C@]12C[C@@H](C)[C@@]34O[C@](Cc5ccccc5)(O[C@@H]1[C@@H]3C=C(COC(=O)Cc1ccc(O)c(OC)c1)C[C@]1(O)C(=O)C(C)=C[C@@H]41)O2
REMARK SMILES IDX 23 1 22 2 21 3 20 4 9 5 8 6 10 7 6 8 18 9 46 10 19 11 5 12
REMARK SMILES IDX 7 13 4 14 45 15 38 16 44 17 40 18 42 20 41 21 43 22 39 23
REMARK SMILES IDX 11 25 12 26 13 27 17 28 14 29 16 30 15 31 2 32 3 33 1 34
REMARK SMILES IDX 37 35 24 37 25 38 26 39 27 40 28 41 36 42 29 43 33 44 30 45
REMARK SMILES IDX 31 46 34 47 35 48 32 49
REMARK H PARENT 39 24 32 50
REMARK Flexibility Score: 90.00
ROOT
ATOM      1  C   UNL     1      97.269  79.197  81.038  1.00  0.00     0.264 C 
ENDROOT
BRANCH   1   2
ATOM      2  C   UNL     1      96.625  78.977  82.387  1.00  0.00    -0.033 C 
ATOM      3  C   UNL     1      96.631  79.977  83.291  1.00  0.00    -0.015 C 
BRANCH   3   4
ATOM      4  C   UNL     1      96.127  79.983  84.725  1.00  0.00     0.078 C 
ATOM      5  O   UNL     1      93.794  80.805  84.664  1.00  0.00    -0.319 OA
ATOM      6  C   UNL     1      94.614  79.639  84.988  1.00  0.00     0.095 C 
ATOM      7  C   UNL     1      94.317  82.070  85.113  1.00  0.00     0.289 C 
ATOM      8  C   UNL     1      94.459  79.302  86.529  1.00  0.00     0.023 C 
ATOM      9  O   UNL     1      95.620  82.307  84.587  1.00  0.00    -0.320 OA
ATOM     10  O   UNL     1      94.459  82.124  86.530  1.00  0.00    -0.313 OA
ATOM     11  C   UNL     1      96.381  81.370  85.365  1.00  0.00     0.170 C 
ATOM     12  C   UNL     1      95.446  80.140  87.398  1.00  0.00     0.049 C 
ATOM     13  C   UNL     1      93.036  79.439  87.094  1.00  0.00     0.011 C 
ATOM     14  C   UNL     1      95.739  81.502  86.769  1.00  0.00     0.122 C 
BRANCH   6  15
ATOM     15  C   UNL     1      94.121  78.534  84.009  1.00  0.00     0.086 C 
ATOM     16  C   UNL     1      95.082  77.348  83.783  1.00  0.00     0.140 CG0
ATOM     17  C   UNL     1      92.796  77.869  84.256  1.00  0.00    -0.010 C 
ATOM     18  C   UNL     1      94.128  76.187  83.597  1.00  0.00     0.190 C 
ATOM     19  G   UNL     1      95.987  77.562  82.571  1.00  0.00     0.000 G0
ATOM     20  C   UNL     1      92.760  76.556  84.007  1.00  0.00    -0.008 C 
ATOM     21  O   UNL     1      94.438  75.071  83.209  1.00  0.00    -0.291 OA
ATOM     22  C   UNL     1      91.627  75.608  84.058  1.00  0.00     0.048 C 
BRANCH  16  23
ATOM     23  O   UNL     1      95.831  76.990  84.932  1.00  0.00    -0.381 OA
ATOM     24  H   UNL     1      96.658  76.572  84.642  1.00  0.00     0.212 HD
ENDBRANCH  16  23
ENDBRANCH   6  15
BRANCH   7  25
ATOM     25  C   UNL     1      93.373  83.164  84.657  1.00  0.00     0.135 C 
BRANCH  25  26
ATOM     26  C   UNL     1      93.538  84.426  85.465  1.00  0.00    -0.040 A 
ATOM     27  C   UNL     1      94.313  85.476  84.969  1.00  0.00     0.004 A 
ATOM     28  C   UNL     1      92.917  84.546  86.708  1.00  0.00     0.004 A 
ATOM     29  C   UNL     1      94.466  86.644  85.716  1.00  0.00     0.000 A 
ATOM     30  C   UNL     1      93.070  85.714  87.455  1.00  0.00     0.000 A 
ATOM     31  C   UNL     1      93.845  86.763  86.959  1.00  0.00     0.000 A 
ENDBRANCH  25  26
ENDBRANCH   7  25
BRANCH  14  32
ATOM     32  C   UNL     1      96.533  82.392  87.668  1.00  0.00    -0.046 C 
ATOM     33  C   UNL     1      98.023  82.345  87.499  1.00  0.00     0.042 C 
ATOM     34  C   UNL     1      95.948  83.188  88.576  1.00  0.00     0.010 C 
ENDBRANCH  14  32
ENDBRANCH   3   4
BRANCH   2  35
ATOM     35  C   UNL     1      96.024  77.593  82.540  1.00  0.00     0.078 CG0
ATOM     36  G   UNL     1      95.102  77.360  83.736  1.00  0.00     0.000 G0
ENDBRANCH   2  35
ENDBRANCH   1   2
BRANCH   1  37
ATOM     37  O   UNL     1      97.618  80.558  80.903  1.00  0.00    -0.461 OA
BRANCH  37  38
ATOM     38  C   UNL     1      98.534  80.857  79.922  1.00  0.00     0.310 C 
ATOM     39  O   UNL     1      99.101  80.034  79.216  1.00  0.00    -0.252 OA
BRANCH  38  40
ATOM     40  C   UNL     1      98.730  82.353  79.853  1.00  0.00     0.158 C 
BRANCH  40  41
ATOM     41  C   UNL     1      98.088  82.975  78.640  1.00  0.00    -0.033 A 
ATOM     42  C   UNL     1      98.797  83.058  77.441  1.00  0.00     0.054 A 
ATOM     43  C   UNL     1      96.785  83.467  78.715  1.00  0.00     0.008 A 
ATOM     44  C   UNL     1      98.203  83.633  76.317  1.00  0.00     0.160 A 
ATOM     45  C   UNL     1      96.191  84.043  77.591  1.00  0.00     0.050 A 
ATOM     46  C   UNL     1      96.899  84.126  76.393  1.00  0.00     0.157 A 
BRANCH  44  47
ATOM     47  O   UNL     1      98.905  83.709  75.153  1.00  0.00    -0.493 OA
ATOM     48  C   UNL     1      99.475  82.497  74.660  1.00  0.00     0.278 C 
ENDBRANCH  44  47
BRANCH  46  49
ATOM     49  O   UNL     1      96.309  84.689  75.303  1.00  0.00    -0.504 OA
ATOM     50  H   UNL     1      96.877  85.404  74.969  1.00  0.00     0.293 HD
ENDBRANCH  46  49
ENDBRANCH  40  41
ENDBRANCH  38  40
ENDBRANCH  37  38
ENDBRANCH   1  37
TORSDOF 11
ENDMDL
MODEL 2
REMARK VINA RESULT:    -6.580      5.288     10.606
REMARK INTER + INTRA:         -12.684
REMARK INTER:                 -11.674
REMARK INTRA:                  -1.010
REMARK UNBOUND:                -1.104
REMARK SMILES C=C(C)[C@]12C[C@@H](C)[C@@]34O[C@](Cc5ccccc5)(O[C@@H]1[C@@H]3C=C(COC(=O)Cc1ccc(O)c(OC)c1)C[C@]1(O)C(=O)C(C)=C[C@@H]41)O2
REMARK SMILES IDX 23 1 22 2 21 3 20 4 9 5 8 6 10 7 6 8 18 9 46 10 19 11 5 12
REMARK SMILES IDX 7 13 4 14 45 15 38 16 44 17 40 18 42 20 41 21 43 22 39 23
REMARK SMILES IDX 11 25 12 26 13 27 17 28 14 29 16 30 15 31 2 32 3 33 1 34
REMARK SMILES IDX 37 35 24 37 25 38 26 39 27 40 28 41 36 42 29 43 33 44 30 45
REMARK SMILES IDX 31 46 34 47 35 48 32 49
REMARK H PARENT 39 24 32 50
REMARK Flexibility Score: 90.00
ROOT
ATOM      1  C   UNL     1      93.356  75.810  84.005  1.00  0.00     0.264 C 
ENDROOT
BRANCH   1   2
ATOM      2  C   UNL     1      92.289  75.164  83.152  1.00  0.00    -0.033 C 
ATOM      3  C   UNL     1      92.344  75.301  81.812  1.00  0.00    -0.015 C 
BRANCH   3   4
ATOM      4  C   UNL     1      91.365  74.822  80.752  1.00  0.00     0.078 C 
ATOM      5  O   UNL     1      92.147  72.597  80.003  1.00  0.00    -0.319 OA
ATOM      6  C   UNL     1      91.044  73.283  80.672  1.00  0.00     0.095 C 
ATOM      7  C   UNL     1      92.677  73.267  78.843  1.00  0.00     0.289 C 
ATOM      8  C   UNL     1      89.724  73.113  79.811  1.00  0.00     0.023 C 
ATOM      9  O   UNL     1      93.126  74.581  79.165  1.00  0.00    -0.320 OA
ATOM     10  O   UNL     1      91.698  73.435  77.821  1.00  0.00    -0.313 OA
ATOM     11  C   UNL     1      91.864  75.241  79.348  1.00  0.00     0.170 C 
ATOM     12  C   UNL     1      89.623  74.202  78.699  1.00  0.00     0.049 C 
ATOM     13  C   UNL     1      89.517  71.723  79.187  1.00  0.00     0.011 C 
ATOM     14  C   UNL     1      91.004  74.639  78.209  1.00  0.00     0.122 C 
BRANCH   6  15
ATOM     15  C   UNL     1      91.000  72.653  82.094  1.00  0.00     0.086 C 
ATOM     16  C   UNL     1      90.289  73.482  83.184  1.00  0.00     0.140 CG0
ATOM     17  C   UNL     1      90.425  71.275  82.273  1.00  0.00    -0.010 C 
ATOM     18  C   UNL     1      89.661  72.411  84.051  1.00  0.00     0.190 C 
ATOM     19  G   UNL     1      91.261  74.369  83.960  1.00  0.00     0.000 G0
ATOM     20  C   UNL     1      89.691  71.100  83.376  1.00  0.00    -0.008 C 
ATOM     21  O   UNL     1      89.147  72.596  85.143  1.00  0.00    -0.291 OA
ATOM     22  C   UNL     1      89.052  69.879  83.909  1.00  0.00     0.048 C 
BRANCH  16  23
ATOM     23  O   UNL     1      89.179  74.225  82.706  1.00  0.00    -0.381 OA
ATOM     24  H   UNL     1      89.175  74.181  81.736  1.00  0.00     0.212 HD
ENDBRANCH  16  23
ENDBRANCH   6  15
BRANCH   7  25
ATOM     25  C   UNL     1      93.833  72.448  78.307  1.00  0.00     0.135 C 
BRANCH  25  26
ATOM     26  C   UNL     1      94.461  73.084  77.092  1.00  0.00    -0.040 A 
ATOM     27  C   UNL     1      94.337  72.473  75.843  1.00  0.00     0.004 A 
ATOM     28  C   UNL     1      95.163  74.282  77.215  1.00  0.00     0.004 A 
ATOM     29  C   UNL     1      94.918  73.061  74.719  1.00  0.00     0.000 A 
ATOM     30  C   UNL     1      95.743  74.870  76.091  1.00  0.00     0.000 A 
ATOM     31  C   UNL     1      95.620  74.259  74.843  1.00  0.00     0.000 A 
ENDBRANCH  25  26
ENDBRANCH   7  25
BRANCH  14  32
ATOM     32  C   UNL     1      90.932  75.543  77.021  1.00  0.00    -0.046 C 
ATOM     33  C   UNL     1      92.241  76.055  76.499  1.00  0.00     0.042 C 
ATOM     34  C   UNL     1      89.763  75.878  76.455  1.00  0.00     0.010 C 
ENDBRANCH  14  32
ENDBRANCH   3   4
BRANCH   2  35
ATOM     35  C   UNL     1      91.256  74.407  83.965  1.00  0.00     0.078 CG0
ATOM     36  G   UNL     1      90.297  73.495  83.200  1.00  0.00     0.000 G0
ENDBRANCH   2  35
ENDBRANCH   1   2
BRANCH   1  37
ATOM     37  O   UNL     1      94.008  76.813  83.257  1.00  0.00    -0.461 OA
BRANCH  37  38
ATOM     38  C   UNL     1      94.350  77.957  83.941  1.00  0.00     0.310 C 
ATOM     39  O   UNL     1      95.318  78.662  83.690  1.00  0.00    -0.252 OA
BRANCH  38  40
ATOM     40  C   UNL     1      93.350  78.202  85.045  1.00  0.00     0.158 C 
BRANCH  40  41
ATOM     41  C   UNL     1      92.413  79.345  84.747  1.00  0.00    -0.033 A 
ATOM     42  C   UNL     1      91.072  79.090  84.457  1.00  0.00     0.054 A 
ATOM     43  C   UNL     1      92.886  80.657  84.761  1.00  0.00     0.008 A 
ATOM     44  C   UNL     1      90.206  80.147  84.180  1.00  0.00     0.160 A 
ATOM     45  C   UNL     1      92.020  81.714  84.484  1.00  0.00     0.050 A 
ATOM     46  C   UNL     1      90.680  81.460  84.194  1.00  0.00     0.157 A 
BRANCH  44  47
ATOM     47  O   UNL     1      88.899  79.886  83.898  1.00  0.00    -0.493 OA
ATOM     48  C   UNL     1      88.385  78.623  84.318  1.00  0.00     0.278 C 
ENDBRANCH  44  47
BRANCH  46  49
ATOM     49  O   UNL     1      89.843  82.500  83.927  1.00  0.00    -0.504 OA
ATOM     50  H   UNL     1      89.368  82.320  83.097  1.00  0.00     0.293 HD
ENDBRANCH  46  49
ENDBRANCH  40  41
ENDBRANCH  38  40
ENDBRANCH  37  38
ENDBRANCH   1  37
TORSDOF 11
ENDMDL
MODEL 3
REMARK VINA RESULT:    -6.384     24.917     28.599
REMARK INTER + INTRA:         -12.339
REMARK INTER:                  -9.912
REMARK INTRA:                  -2.428
REMARK UNBOUND:                -1.104
REMARK SMILES C=C(C)[C@]12C[C@@H](C)[C@@]34O[C@](Cc5ccccc5)(O[C@@H]1[C@@H]3C=C(COC(=O)Cc1ccc(O)c(OC)c1)C[C@]1(O)C(=O)C(C)=C[C@@H]41)O2
REMARK SMILES IDX 23 1 22 2 21 3 20 4 9 5 8 6 10 7 6 8 18 9 46 10 19 11 5 12
REMARK SMILES IDX 7 13 4 14 45 15 38 16 44 17 40 18 42 20 41 21 43 22 39 23
REMARK SMILES IDX 11 25 12 26 13 27 17 28 14 29 16 30 15 31 2 32 3 33 1 34
REMARK SMILES IDX 37 35 24 37 25 38 26 39 27 40 28 41 36 42 29 43 33 44 30 45
REMARK SMILES IDX 31 46 34 47 35 48 32 49
REMARK H PARENT 39 24 32 50
REMARK Flexibility Score: 90.00
ROOT
ATOM      1  C   UNL     1      75.233 100.990  73.675  1.00  0.00     0.264 C 
ENDROOT
BRANCH   1   2
ATOM      2  C   UNL     1      75.752  99.901  72.765  1.00  0.00    -0.033 C 
ATOM      3  C   UNL     1      76.389 100.241  71.627  1.00  0.00    -0.015 C 
BRANCH   3   4
ATOM      4  C   UNL     1      76.930  99.349  70.521  1.00  0.00     0.078 C 
ATOM      5  O   UNL     1      79.290  98.861  71.077  1.00  0.00    -0.319 OA
ATOM      6  C   UNL     1      77.980  98.239  70.899  1.00  0.00     0.095 C 
ATOM      7  C   UNL     1      79.639  99.855  70.095  1.00  0.00     0.289 C 
ATOM      8  C   UNL     1      78.047  97.212  69.695  1.00  0.00     0.023 C 
ATOM      9  O   UNL     1      78.675 100.903  70.054  1.00  0.00    -0.320 OA
ATOM     10  O   UNL     1      79.682  99.319  68.775  1.00  0.00    -0.313 OA
ATOM     11  C   UNL     1      77.585 100.218  69.418  1.00  0.00     0.170 C 
ATOM     12  C   UNL     1      77.810  97.920  68.326  1.00  0.00     0.049 C 
ATOM     13  C   UNL     1      79.329  96.367  69.619  1.00  0.00     0.011 C 
ATOM     14  C   UNL     1      78.306  99.367  68.344  1.00  0.00     0.122 C 
BRANCH   6  15
ATOM     15  C   UNL     1      77.651  97.620  72.289  1.00  0.00     0.086 C 
ATOM     16  C   UNL     1      76.162  97.336  72.572  1.00  0.00     0.140 CG0
ATOM     17  C   UNL     1      78.336  96.350  72.709  1.00  0.00    -0.010 C 
ATOM     18  C   UNL     1      76.224  96.084  73.422  1.00  0.00     0.190 C 
ATOM     19  G   UNL     1      75.479  98.498  73.291  1.00  0.00     0.000 G0
ATOM     20  C   UNL     1      77.568  95.478  73.372  1.00  0.00    -0.008 C 
ATOM     21  O   UNL     1      75.286  95.596  74.033  1.00  0.00    -0.291 OA
ATOM     22  C   UNL     1      77.917  94.186  73.998  1.00  0.00     0.048 C 
BRANCH  16  23
ATOM     23  O   UNL     1      75.427  96.932  71.428  1.00  0.00    -0.381 OA
ATOM     24  H   UNL     1      76.054  96.760  70.706  1.00  0.00     0.212 HD
ENDBRANCH  16  23
ENDBRANCH   6  15
BRANCH   7  25
ATOM     25  C   UNL     1      80.997 100.422  70.455  1.00  0.00     0.135 C 
BRANCH  25  26
ATOM     26  C   UNL     1      81.798 100.792  69.231  1.00  0.00    -0.040 A 
ATOM     27  C   UNL     1      82.450  99.799  68.499  1.00  0.00     0.004 A 
ATOM     28  C   UNL     1      81.886 102.125  68.831  1.00  0.00     0.004 A 
ATOM     29  C   UNL     1      83.190 100.141  67.366  1.00  0.00     0.000 A 
ATOM     30  C   UNL     1      82.626 102.467  67.699  1.00  0.00     0.000 A 
ATOM     31  C   UNL     1      83.278 101.474  66.967  1.00  0.00     0.000 A 
ENDBRANCH  25  26
ENDBRANCH   7  25
BRANCH  14  32
ATOM     32  C   UNL     1      78.258 100.007  66.995  1.00  0.00    -0.046 C 
ATOM     33  C   UNL     1      77.003  99.791  66.203  1.00  0.00     0.042 C 
ATOM     34  C   UNL     1      79.280 100.735  66.518  1.00  0.00     0.010 C 
ENDBRANCH  14  32
ENDBRANCH   3   4
BRANCH   2  35
ATOM     35  C   UNL     1      75.475  98.505  73.291  1.00  0.00     0.078 CG0
ATOM     36  G   UNL     1      76.169  97.342  72.584  1.00  0.00     0.000 G0
ENDBRANCH   2  35
ENDBRANCH   1   2
BRANCH   1  37
ATOM     37  O   UNL     1      75.214 100.518  75.005  1.00  0.00    -0.461 OA
BRANCH  37  38
ATOM     38  C   UNL     1      75.883 101.283  75.932  1.00  0.00     0.310 C 
ATOM     39  O   UNL     1      75.612 102.443  76.212  1.00  0.00    -0.252 OA
BRANCH  38  40
ATOM     40  C   UNL     1      76.999 100.472  76.546  1.00  0.00     0.158 C 
BRANCH  40  41
ATOM     41  C   UNL     1      78.294 100.580  75.783  1.00  0.00    -0.033 A 
ATOM     42  C   UNL     1      79.042 101.756  75.842  1.00  0.00     0.054 A 
ATOM     43  C   UNL     1      78.745  99.504  75.019  1.00  0.00     0.008 A 
ATOM     44  C   UNL     1      80.240 101.857  75.136  1.00  0.00     0.160 A 
ATOM     45  C   UNL     1      79.944  99.604  74.313  1.00  0.00     0.050 A 
ATOM     46  C   UNL     1      80.691 100.780  74.371  1.00  0.00     0.157 A 
BRANCH  44  47
ATOM     47  O   UNL     1      80.962 103.010  75.201  1.00  0.00    -0.493 OA
ATOM     48  C   UNL     1      80.599 104.053  74.297  1.00  0.00     0.278 C 
ENDBRANCH  44  47
BRANCH  46  49
ATOM     49  O   UNL     1      81.861 100.866  73.678  1.00  0.00    -0.504 OA
ATOM     50  H   UNL     1      82.600 100.904  74.308  1.00  0.00     0.293 HD
ENDBRANCH  46  49
ENDBRANCH  40  41
ENDBRANCH  38  40
ENDBRANCH  37  38
ENDBRANCH   1  37
TORSDOF 11
ENDMDL
MODEL 4
REMARK VINA RESULT:    -6.250      1.544      2.223
REMARK INTER + INTRA:         -12.103
REMARK INTER:                 -11.777
REMARK INTRA:                  -0.326
REMARK UNBOUND:                -1.104
REMARK SMILES C=C(C)[C@]12C[C@@H](C)[C@@]34O[C@](Cc5ccccc5)(O[C@@H]1[C@@H]3C=C(COC(=O)Cc1ccc(O)c(OC)c1)C[C@]1(O)C(=O)C(C)=C[C@@H]41)O2
REMARK SMILES IDX 23 1 22 2 21 3 20 4 9 5 8 6 10 7 6 8 18 9 46 10 19 11 5 12
REMARK SMILES IDX 7 13 4 14 45 15 38 16 44 17 40 18 42 20 41 21 43 22 39 23
REMARK SMILES IDX 11 25 12 26 13 27 17 28 14 29 16 30 15 31 2 32 3 33 1 34
REMARK SMILES IDX 37 35 24 37 25 38 26 39 27 40 28 41 36 42 29 43 33 44 30 45
REMARK SMILES IDX 31 46 34 47 35 48 32 49
REMARK H PARENT 39 24 32 50
REMARK Flexibility Score: 90.00
ROOT
ATOM      1  C   UNL     1      97.945  79.488  80.513  1.00  0.00     0.264 C 
ENDROOT
BRANCH   1   2
ATOM      2  C   UNL     1      97.407  79.173  81.889  1.00  0.00    -0.033 C 
ATOM      3  C   UNL     1      97.343  80.154  82.812  1.00  0.00    -0.015 C 
BRANCH   3   4
ATOM      4  C   UNL     1      96.921  80.080  84.270  1.00  0.00     0.078 C 
ATOM      5  O   UNL     1      94.494  80.556  84.342  1.00  0.00    -0.319 OA
ATOM      6  C   UNL     1      95.489  79.520  84.608  1.00  0.00     0.095 C 
ATOM      7  C   UNL     1      94.852  81.881  84.780  1.00  0.00     0.289 C 
ATOM      8  C   UNL     1      95.467  79.156  86.150  1.00  0.00     0.023 C 
ATOM      9  O   UNL     1      96.077  82.307  84.189  1.00  0.00    -0.320 OA
ATOM     10  O   UNL     1      95.060  81.947  86.188  1.00  0.00    -0.313 OA
ATOM     11  C   UNL     1      97.006  81.486  84.914  1.00  0.00     0.170 C 
ATOM     12  C   UNL     1      96.368  80.123  86.978  1.00  0.00     0.049 C 
ATOM     13  C   UNL     1      94.072  79.082  86.791  1.00  0.00     0.011 C 
ATOM     14  C   UNL     1      96.427  81.517  86.351  1.00  0.00     0.122 C 
BRANCH   6  15
ATOM     15  C   UNL     1      95.109  78.360  83.642  1.00  0.00     0.086 C 
ATOM     16  C   UNL     1      96.224  77.340  83.332  1.00  0.00     0.140 CG0
ATOM     17  C   UNL     1      93.922  77.494  83.961  1.00  0.00    -0.010 C 
ATOM     18  C   UNL     1      95.452  76.046  83.186  1.00  0.00     0.190 C 
ATOM     19  G   UNL     1      97.003  77.703  82.068  1.00  0.00     0.000 G0
ATOM     20  C   UNL     1      94.073  76.193  83.690  1.00  0.00    -0.008 C 
ATOM     21  O   UNL     1      95.904  74.996  82.757  1.00  0.00    -0.291 OA
ATOM     22  C   UNL     1      93.107  75.081  83.796  1.00  0.00     0.048 C 
BRANCH  16  23
ATOM     23  O   UNL     1      97.095  77.093  84.423  1.00  0.00    -0.381 OA
ATOM     24  H   UNL     1      97.844  76.562  84.105  1.00  0.00     0.212 HD
ENDBRANCH  16  23
ENDBRANCH   6  15
BRANCH   7  25
ATOM     25  C   UNL     1      93.737  82.829  84.387  1.00  0.00     0.135 C 
BRANCH  25  26
ATOM     26  C   UNL     1      92.382  82.171  84.465  1.00  0.00    -0.040 A 
ATOM     27  C   UNL     1      91.404  82.687  85.315  1.00  0.00     0.004 A 
ATOM     28  C   UNL     1      92.106  81.048  83.685  1.00  0.00     0.004 A 
ATOM     29  C   UNL     1      90.150  82.079  85.387  1.00  0.00     0.000 A 
ATOM     30  C   UNL     1      90.852  80.440  83.757  1.00  0.00     0.000 A 
ATOM     31  C   UNL     1      89.875  80.956  84.608  1.00  0.00     0.000 A 
ENDBRANCH  25  26
ENDBRANCH   7  25
BRANCH  14  32
ATOM     32  C   UNL     1      97.132  82.507  87.219  1.00  0.00    -0.046 C 
ATOM     33  C   UNL     1      98.316  83.198  86.610  1.00  0.00     0.042 C 
ATOM     34  C   UNL     1      96.730  82.765  88.473  1.00  0.00     0.010 C 
ENDBRANCH  14  32
ENDBRANCH   3   4
BRANCH   2  35
ATOM     35  C   UNL     1      96.984  77.725  82.046  1.00  0.00     0.078 CG0
ATOM     36  G   UNL     1      96.216  77.354  83.314  1.00  0.00     0.000 G0
ENDBRANCH   2  35
ENDBRANCH   1   2
BRANCH   1  37
ATOM     37  O   UNL     1      97.368  80.689  80.049  1.00  0.00    -0.461 OA
BRANCH  37  38
ATOM     38  C   UNL     1      98.230  81.743  79.856  1.00  0.00     0.310 C 
ATOM     39  O   UNL     1      99.451  81.666  79.880  1.00  0.00    -0.252 OA
BRANCH  38  40
ATOM     40  C   UNL     1      97.437  83.005  79.609  1.00  0.00     0.158 C 
BRANCH  40  41
ATOM     41  C   UNL     1      97.433  83.424  78.161  1.00  0.00    -0.033 A 
ATOM     42  C   UNL     1      98.546  83.170  77.359  1.00  0.00     0.054 A 
ATOM     43  C   UNL     1      96.317  84.064  77.624  1.00  0.00     0.008 A 
ATOM     44  C   UNL     1      98.542  83.557  76.019  1.00  0.00     0.160 A 
ATOM     45  C   UNL     1      96.313  84.451  76.283  1.00  0.00     0.050 A 
ATOM     46  C   UNL     1      97.425  84.198  75.481  1.00  0.00     0.157 A 
BRANCH  44  47
ATOM     47  O   UNL     1      99.634  83.304  75.245  1.00  0.00    -0.493 OA
ATOM     48  C   UNL     1     100.171  81.983  75.293  1.00  0.00     0.278 C 
ENDBRANCH  44  47
BRANCH  46  49
ATOM     49  O   UNL     1      97.409  84.580  74.174  1.00  0.00    -0.504 OA
ATOM     50  H   UNL     1      97.823  85.455  74.095  1.00  0.00     0.293 HD
ENDBRANCH  46  49
ENDBRANCH  40  41
ENDBRANCH  38  40
ENDBRANCH  37  38
ENDBRANCH   1  37
TORSDOF 11
ENDMDL
MODEL 5
REMARK VINA RESULT:    -6.193     24.477     27.118
REMARK INTER + INTRA:         -12.003
REMARK INTER:                 -11.224
REMARK INTRA:                  -0.779
REMARK UNBOUND:                -1.104
REMARK SMILES C=C(C)[C@]12C[C@@H](C)[C@@]34O[C@](Cc5ccccc5)(O[C@@H]1[C@@H]3C=C(COC(=O)Cc1ccc(O)c(OC)c1)C[C@]1(O)C(=O)C(C)=C[C@@H]41)O2
REMARK SMILES IDX 23 1 22 2 21 3 20 4 9 5 8 6 10 7 6 8 18 9 46 10 19 11 5 12
REMARK SMILES IDX 7 13 4 14 45 15 38 16 44 17 40 18 42 20 41 21 43 22 39 23
REMARK SMILES IDX 11 25 12 26 13 27 17 28 14 29 16 30 15 31 2 32 3 33 1 34
REMARK SMILES IDX 37 35 24 37 25 38 26 39 27 40 28 41 36 42 29 43 33 44 30 45
REMARK SMILES IDX 31 46 34 47 35 48 32 49
REMARK H PARENT 39 24 32 50
REMARK Flexibility Score: 90.00
ROOT
ATOM      1  C   UNL     1      74.212  91.666  71.292  1.00  0.00     0.264 C 
ENDROOT
BRANCH   1   2
ATOM      2  C   UNL     1      73.421  92.508  72.264  1.00  0.00    -0.033 C 
ATOM      3  C   UNL     1      73.444  92.197  73.576  1.00  0.00    -0.015 C 
BRANCH   3   4
ATOM      4  C   UNL     1      72.685  92.830  74.731  1.00  0.00     0.078 C 
ATOM      5  O   UNL     1      74.127  94.619  75.647  1.00  0.00    -0.319 OA
ATOM      6  C   UNL     1      72.851  94.376  74.978  1.00  0.00     0.095 C 
ATOM      7  C   UNL     1      74.454  93.698  76.704  1.00  0.00     0.289 C 
ATOM      8  C   UNL     1      71.667  94.840  75.924  1.00  0.00     0.023 C 
ATOM      9  O   UNL     1      74.472  92.354  76.231  1.00  0.00    -0.320 OA
ATOM     10  O   UNL     1      73.496  93.722  77.759  1.00  0.00    -0.313 OA
ATOM     11  C   UNL     1      73.065  92.129  76.058  1.00  0.00     0.170 C 
ATOM     12  C   UNL     1      71.266  93.718  76.930  1.00  0.00     0.049 C 
ATOM     13  C   UNL     1      71.910  96.150  76.691  1.00  0.00     0.011 C 
ATOM     14  C   UNL     1      72.458  92.834  77.297  1.00  0.00     0.122 C 
BRANCH   6  15
ATOM     15  C   UNL     1      72.967  95.142  73.628  1.00  0.00     0.086 C 
ATOM     16  C   UNL     1      72.011  94.689  72.505  1.00  0.00     0.140 CG0
ATOM     17  C   UNL     1      72.835  96.639  73.617  1.00  0.00    -0.010 C 
ATOM     18  C   UNL     1      71.719  95.987  71.782  1.00  0.00     0.190 C 
ATOM     19  G   UNL     1      72.648  93.641  71.593  1.00  0.00     0.000 G0
ATOM     20  C   UNL     1      72.163  97.146  72.578  1.00  0.00    -0.008 C 
ATOM     21  O   UNL     1      71.147  96.085  70.708  1.00  0.00    -0.291 OA
ATOM     22  C   UNL     1      71.913  98.553  72.202  1.00  0.00     0.048 C 
BRANCH  16  23
ATOM     23  O   UNL     1      70.739  94.266  72.969  1.00  0.00    -0.381 OA
ATOM     24  H   UNL     1      70.837  93.390  73.378  1.00  0.00     0.212 HD
ENDBRANCH  16  23
ENDBRANCH   6  15
BRANCH   7  25
ATOM     25  C   UNL     1      75.818  94.067  77.251  1.00  0.00     0.135 C 
BRANCH  25  26
ATOM     26  C   UNL     1      76.737  94.588  76.174  1.00  0.00    -0.040 A 
ATOM     27  C   UNL     1      77.116  93.757  75.119  1.00  0.00     0.004 A 
ATOM     28  C   UNL     1      77.207  95.899  76.231  1.00  0.00     0.004 A 
ATOM     29  C   UNL     1      77.966  94.238  74.123  1.00  0.00     0.000 A 
ATOM     30  C   UNL     1      78.057  96.381  75.235  1.00  0.00     0.000 A 
ATOM     31  C   UNL     1      78.436  95.549  74.181  1.00  0.00     0.000 A 
ENDBRANCH  25  26
ENDBRANCH   7  25
BRANCH  14  32
ATOM     32  C   UNL     1      72.142  91.869  78.393  1.00  0.00    -0.046 C 
ATOM     33  C   UNL     1      71.148  92.331  79.416  1.00  0.00     0.042 C 
ATOM     34  C   UNL     1      72.715  90.658  78.459  1.00  0.00     0.010 C 
ENDBRANCH  14  32
ENDBRANCH   3   4
BRANCH   2  35
ATOM     35  C   UNL     1      72.680  93.650  71.596  1.00  0.00     0.078 CG0
ATOM     36  G   UNL     1      71.993  94.667  72.507  1.00  0.00     0.000 G0
ENDBRANCH   2  35
ENDBRANCH   1   2
BRANCH   1  37
ATOM     37  O   UNL     1      73.798  90.320  71.395  1.00  0.00    -0.461 OA
BRANCH  37  38
ATOM     38  C   UNL     1      73.036  89.837  70.357  1.00  0.00     0.310 C 
ATOM     39  O   UNL     1      71.924  89.339  70.473  1.00  0.00    -0.252 OA
BRANCH  38  40
ATOM     40  C   UNL     1      73.783  90.016  69.056  1.00  0.00     0.158 C 
BRANCH  40  41
ATOM     41  C   UNL     1      74.885  89.006  68.867  1.00  0.00    -0.033 A 
ATOM     42  C   UNL     1      74.641  87.654  69.113  1.00  0.00     0.054 A 
ATOM     43  C   UNL     1      76.148  89.421  68.446  1.00  0.00     0.008 A 
ATOM     44  C   UNL     1      75.660  86.718  68.938  1.00  0.00     0.160 A 
ATOM     45  C   UNL     1      77.168  88.485  68.271  1.00  0.00     0.050 A 
ATOM     46  C   UNL     1      76.924  87.134  68.517  1.00  0.00     0.157 A 
BRANCH  44  47
ATOM     47  O   UNL     1      75.410  85.401  69.181  1.00  0.00    -0.493 OA
ATOM     48  C   UNL     1      75.878  84.871  70.420  1.00  0.00     0.278 C 
ENDBRANCH  44  47
BRANCH  46  49
ATOM     49  O   UNL     1      77.927  86.230  68.341  1.00  0.00    -0.504 OA
ATOM     50  H   UNL     1      78.508  86.245  69.121  1.00  0.00     0.293 HD
ENDBRANCH  46  49
ENDBRANCH  40  41
ENDBRANCH  38  40
ENDBRANCH  37  38
ENDBRANCH   1  37
TORSDOF 11
ENDMDL
MODEL 6
REMARK VINA RESULT:    -5.841      3.077      7.299
REMARK INTER + INTRA:         -11.383
REMARK INTER:                  -9.884
REMARK INTRA:                  -1.499
REMARK UNBOUND:                -1.104
REMARK SMILES C=C(C)[C@]12C[C@@H](C)[C@@]34O[C@](Cc5ccccc5)(O[C@@H]1[C@@H]3C=C(COC(=O)Cc1ccc(O)c(OC)c1)C[C@]1(O)C(=O)C(C)=C[C@@H]41)O2
REMARK SMILES IDX 23 1 22 2 21 3 20 4 9 5 8 6 10 7 6 8 18 9 46 10 19 11 5 12
REMARK SMILES IDX 7 13 4 14 45 15 38 16 44 17 40 18 42 20 41 21 43 22 39 23
REMARK SMILES IDX 11 25 12 26 13 27 17 28 14 29 16 30 15 31 2 32 3 33 1 34
REMARK SMILES IDX 37 35 24 37 25 38 26 39 27 40 28 41 36 42 29 43 33 44 30 45
REMARK SMILES IDX 31 46 34 47 35 48 32 49
REMARK H PARENT 39 24 32 50
REMARK Flexibility Score: 90.00
ROOT
ATOM      1  C   UNL     1      94.573  76.995  84.288  1.00  0.00     0.264 C 
ENDROOT
BRANCH   1   2
ATOM      2  C   UNL     1      95.921  77.509  83.839  1.00  0.00    -0.033 C 
ATOM      3  C   UNL     1      95.984  78.630  83.093  1.00  0.00    -0.015 C 
BRANCH   3   4
ATOM      4  C   UNL     1      97.192  79.301  82.460  1.00  0.00     0.078 C 
ATOM      5  O   UNL     1      98.031  80.962  84.090  1.00  0.00    -0.319 OA
ATOM      6  C   UNL     1      98.386  79.728  83.393  1.00  0.00     0.095 C 
ATOM      7  C   UNL     1      97.376  81.960  83.283  1.00  0.00     0.289 C 
ATOM      8  C   UNL     1      99.646  79.993  82.468  1.00  0.00     0.023 C 
ATOM      9  O   UNL     1      96.184  81.447  82.693  1.00  0.00    -0.320 OA
ATOM     10  O   UNL     1      98.188  82.393  82.194  1.00  0.00    -0.313 OA
ATOM     11  C   UNL     1      96.748  80.576  81.701  1.00  0.00     0.170 C 
ATOM     12  C   UNL     1      99.225  80.565  81.080  1.00  0.00     0.049 C 
ATOM     13  C   UNL     1     100.737  80.887  83.080  1.00  0.00     0.011 C 
ATOM     14  C   UNL     1      97.949  81.401  81.175  1.00  0.00     0.122 C 
BRANCH   6  15
ATOM     15  C   UNL     1      98.598  78.687  84.530  1.00  0.00     0.086 C 
ATOM     16  C   UNL     1      98.508  77.203  84.118  1.00  0.00     0.140 CG0
ATOM     17  C   UNL     1      99.851  78.745  85.357  1.00  0.00    -0.010 C 
ATOM     18  C   UNL     1      99.523  76.549  85.032  1.00  0.00     0.190 C 
ATOM     19  G   UNL     1      97.102  76.636  84.304  1.00  0.00     0.000 G0
ATOM     20  C   UNL     1     100.380  77.560  85.680  1.00  0.00    -0.008 C 
ATOM     21  O   UNL     1      99.664  75.346  85.188  1.00  0.00    -0.291 OA
ATOM     22  C   UNL     1     101.540  77.237  86.535  1.00  0.00     0.048 C 
BRANCH  16  23
ATOM     23  O   UNL     1      99.005  76.938  82.816  1.00  0.00    -0.381 OA
ATOM     24  H   UNL     1      99.274  76.005  82.775  1.00  0.00     0.212 HD
ENDBRANCH  16  23
ENDBRANCH   6  15
BRANCH   7  25
ATOM     25  C   UNL     1      97.042  83.143  84.168  1.00  0.00     0.135 C 
BRANCH  25  26
ATOM     26  C   UNL     1      96.299  82.726  85.413  1.00  0.00    -0.040 A 
ATOM     27  C   UNL     1      96.905  82.857  86.663  1.00  0.00     0.004 A 
ATOM     28  C   UNL     1      95.007  82.213  85.315  1.00  0.00     0.004 A 
ATOM     29  C   UNL     1      96.218  82.471  87.814  1.00  0.00     0.000 A 
ATOM     30  C   UNL     1      94.320  81.827  86.466  1.00  0.00     0.000 A 
ATOM     31  C   UNL     1      94.926  81.957  87.716  1.00  0.00     0.000 A 
ENDBRANCH  25  26
ENDBRANCH   7  25
BRANCH  14  32
ATOM     32  C   UNL     1      97.628  82.107  79.898  1.00  0.00    -0.046 C 
ATOM     33  C   UNL     1      97.705  81.282  78.648  1.00  0.00     0.042 C 
ATOM     34  C   UNL     1      97.291  83.405  79.870  1.00  0.00     0.010 C 
ENDBRANCH  14  32
ENDBRANCH   3   4
BRANCH   2  35
ATOM     35  C   UNL     1      97.075  76.650  84.320  1.00  0.00     0.078 CG0
ATOM     36  G   UNL     1      98.487  77.198  84.115  1.00  0.00     0.000 G0
ENDBRANCH   2  35
ENDBRANCH   1   2
BRANCH   1  37
ATOM     37  O   UNL     1      93.685  78.082  84.438  1.00  0.00    -0.461 OA
BRANCH  37  38
ATOM     38  C   UNL     1      92.344  77.789  84.350  1.00  0.00     0.310 C 
ATOM     39  O   UNL     1      91.751  76.990  85.062  1.00  0.00    -0.252 OA
BRANCH  38  40
ATOM     40  C   UNL     1      91.721  78.605  83.242  1.00  0.00     0.158 C 
BRANCH  40  41
ATOM     41  C   UNL     1      90.978  79.814  83.748  1.00  0.00    -0.033 A 
ATOM     42  C   UNL     1      89.586  79.863  83.662  1.00  0.00     0.054 A 
ATOM     43  C   UNL     1      91.680  80.883  84.303  1.00  0.00     0.008 A 
ATOM     44  C   UNL     1      88.897  80.982  84.131  1.00  0.00     0.160 A 
ATOM     45  C   UNL     1      90.992  82.002  84.772  1.00  0.00     0.050 A 
ATOM     46  C   UNL     1      89.601  82.052  84.686  1.00  0.00     0.157 A 
BRANCH  44  47
ATOM     47  O   UNL     1      87.539  81.019  84.041  1.00  0.00    -0.493 OA
ATOM     48  C   UNL     1      86.951  80.461  82.867  1.00  0.00     0.278 C 
ENDBRANCH  44  47
BRANCH  46  49
ATOM     49  O   UNL     1      88.939  83.150  85.148  1.00  0.00    -0.504 OA
ATOM     50  H   UNL     1      89.494  83.935  85.009  1.00  0.00     0.293 HD
ENDBRANCH  46  49
ENDBRANCH  40  41
ENDBRANCH  38  40
ENDBRANCH  37  38
ENDBRANCH   1  37
TORSDOF 11
ENDMDL
MODEL 7
REMARK VINA RESULT:    -5.650      1.905      2.431
REMARK INTER + INTRA:         -11.047
REMARK INTER:                 -10.497
REMARK INTRA:                  -0.550
REMARK UNBOUND:                -1.104
REMARK SMILES C=C(C)[C@]12C[C@@H](C)[C@@]34O[C@](Cc5ccccc5)(O[C@@H]1[C@@H]3C=C(COC(=O)Cc1ccc(O)c(OC)c1)C[C@]1(O)C(=O)C(C)=C[C@@H]41)O2
REMARK SMILES IDX 23 1 22 2 21 3 20 4 9 5 8 6 10 7 6 8 18 9 46 10 19 11 5 12
REMARK SMILES IDX 7 13 4 14 45 15 38 16 44 17 40 18 42 20 41 21 43 22 39 23
REMARK SMILES IDX 11 25 12 26 13 27 17 28 14 29 16 30 15 31 2 32 3 33 1 34
REMARK SMILES IDX 37 35 24 37 25 38 26 39 27 40 28 41 36 42 29 43 33 44 30 45
REMARK SMILES IDX 31 46 34 47 35 48 32 49
REMARK H PARENT 39 24 32 50
REMARK Flexibility Score: 90.00
ROOT
ATOM      1  C   UNL     1      99.874  81.129  81.566  1.00  0.00     0.264 C 
ENDROOT
BRANCH   1   2
ATOM      2  C   UNL     1      99.174  80.168  82.498  1.00  0.00    -0.033 C 
ATOM      3  C   UNL     1      98.609  80.640  83.628  1.00  0.00    -0.015 C 
BRANCH   3   4
ATOM      4  C   UNL     1      97.923  79.882  84.753  1.00  0.00     0.078 C 
ATOM      5  O   UNL     1      95.511  79.814  84.210  1.00  0.00    -0.319 OA
ATOM      6  C   UNL     1      96.689  78.971  84.399  1.00  0.00     0.095 C 
ATOM      7  C   UNL     1      95.350  80.874  85.172  1.00  0.00     0.289 C 
ATOM      8  C   UNL     1      96.445  77.996  85.624  1.00  0.00     0.023 C 
ATOM      9  O   UNL     1      96.488  81.732  85.190  1.00  0.00    -0.320 OA
ATOM     10  O   UNL     1      95.219  80.381  86.502  1.00  0.00    -0.313 OA
ATOM     11  C   UNL     1      97.440  80.875  85.839  1.00  0.00     0.170 C 
ATOM     12  C   UNL     1      96.811  78.678  86.978  1.00  0.00     0.049 C 
ATOM     13  C   UNL     1      95.032  77.397  85.719  1.00  0.00     0.011 C 
ATOM     14  C   UNL     1      96.583  80.189  86.931  1.00  0.00     0.122 C 
BRANCH   6  15
ATOM     15  C   UNL     1      96.894  78.276  83.022  1.00  0.00     0.086 C 
ATOM     16  C   UNL     1      98.302  77.705  82.751  1.00  0.00     0.140 CG0
ATOM     17  C   UNL     1      95.979  77.153  82.620  1.00  0.00    -0.010 C 
ATOM     18  C   UNL     1      98.001  76.474  81.922  1.00  0.00     0.190 C 
ATOM     19  G   UNL     1      99.197  78.702  82.015  1.00  0.00     0.000 G0
ATOM     20  C   UNL     1      96.566  76.139  81.976  1.00  0.00    -0.008 C 
ATOM     21  O   UNL     1      98.829  75.804  81.324  1.00  0.00    -0.291 OA
ATOM     22  C   UNL     1      95.975  74.927  81.370  1.00  0.00     0.048 C 
BRANCH  16  23
ATOM     23  O   UNL     1      98.943  77.188  83.905  1.00  0.00    -0.381 OA
ATOM     24  H   UNL     1      99.383  76.355  83.665  1.00  0.00     0.212 HD
ENDBRANCH  16  23
ENDBRANCH   6  15
BRANCH   7  25
ATOM     25  C   UNL     1      94.114  81.669  84.802  1.00  0.00     0.135 C 
BRANCH  25  26
ATOM     26  C   UNL     1      94.084  83.015  85.481  1.00  0.00    -0.040 A 
ATOM     27  C   UNL     1      94.244  84.179  84.729  1.00  0.00     0.004 A 
ATOM     28  C   UNL     1      93.895  83.097  86.860  1.00  0.00     0.004 A 
ATOM     29  C   UNL     1      94.216  85.425  85.357  1.00  0.00     0.000 A 
ATOM     30  C   UNL     1      93.866  84.342  87.489  1.00  0.00     0.000 A 
ATOM     31  C   UNL     1      94.027  85.506  86.736  1.00  0.00     0.000 A 
ENDBRANCH  25  26
ENDBRANCH   7  25
BRANCH  14  32
ATOM     32  C   UNL     1      96.752  80.837  88.266  1.00  0.00    -0.046 C 
ATOM     33  C   UNL     1      98.149  81.234  88.638  1.00  0.00     0.042 C 
ATOM     34  C   UNL     1      95.712  81.052  89.087  1.00  0.00     0.010 C 
ENDBRANCH  14  32
ENDBRANCH   3   4
BRANCH   2  35
ATOM     35  C   UNL     1      99.199  78.734  82.004  1.00  0.00     0.078 CG0
ATOM     36  G   UNL     1      98.312  77.727  82.736  1.00  0.00     0.000 G0
ENDBRANCH   2  35
ENDBRANCH   1   2
BRANCH   1  37
ATOM     37  O   UNL     1      98.962  82.119  81.144  1.00  0.00    -0.461 OA
BRANCH  37  38
ATOM     38  C   UNL     1      98.226  81.828  80.019  1.00  0.00     0.310 C 
ATOM     39  O   UNL     1      97.074  81.416  80.019  1.00  0.00    -0.252 OA
BRANCH  38  40
ATOM     40  C   UNL     1      99.059  82.097  78.788  1.00  0.00     0.158 C 
BRANCH  40  41
ATOM     41  C   UNL     1      98.313  82.869  77.730  1.00  0.00    -0.033 A 
ATOM     42  C   UNL     1      98.927  83.151  76.509  1.00  0.00     0.054 A 
ATOM     43  C   UNL     1      97.009  83.301  77.971  1.00  0.00     0.008 A 
ATOM     44  C   UNL     1      98.237  83.865  75.530  1.00  0.00     0.160 A 
ATOM     45  C   UNL     1      96.319  84.016  76.991  1.00  0.00     0.050 A 
ATOM     46  C   UNL     1      96.932  84.298  75.771  1.00  0.00     0.157 A 
BRANCH  44  47
ATOM     47  O   UNL     1      98.847  84.135  74.342  1.00  0.00    -0.493 OA
ATOM     48  C   UNL     1     100.184  84.630  74.397  1.00  0.00     0.278 C 
ENDBRANCH  44  47
BRANCH  46  49
ATOM     49  O   UNL     1      96.248  84.996  74.822  1.00  0.00    -0.504 OA
ATOM     50  H   UNL     1      95.609  84.402  74.393  1.00  0.00     0.293 HD
ENDBRANCH  46  49
ENDBRANCH  40  41
ENDBRANCH  38  40
ENDBRANCH  37  38
ENDBRANCH   1  37
TORSDOF 11
ENDMDL
MODEL 8
REMARK VINA RESULT:    -5.629      3.339      5.735
REMARK INTER + INTRA:         -11.011
REMARK INTER:                  -9.142
REMARK INTRA:                  -1.870
REMARK UNBOUND:                -1.104
REMARK SMILES C=C(C)[C@]12C[C@@H](C)[C@@]34O[C@](Cc5ccccc5)(O[C@@H]1[C@@H]3C=C(COC(=O)Cc1ccc(O)c(OC)c1)C[C@]1(O)C(=O)C(C)=C[C@@H]41)O2
REMARK SMILES IDX 23 1 22 2 21 3 20 4 9 5 8 6 10 7 6 8 18 9 46 10 19 11 5 12
REMARK SMILES IDX 7 13 4 14 45 15 38 16 44 17 40 18 42 20 41 21 43 22 39 23
REMARK SMILES IDX 11 25 12 26 13 27 17 28 14 29 16 30 15 31 2 32 3 33 1 34
REMARK SMILES IDX 37 35 24 37 25 38 26 39 27 40 28 41 36 42 29 43 33 44 30 45
REMARK SMILES IDX 31 46 34 47 35 48 32 49
REMARK H PARENT 39 24 32 50
REMARK Flexibility Score: 90.00
ROOT
ATOM      1  C   UNL     1     101.931  80.569  85.859  1.00  0.00     0.264 C 
ENDROOT
BRANCH   1   2
ATOM      2  C   UNL     1     100.516  80.564  86.389  1.00  0.00    -0.033 C 
ATOM      3  C   UNL     1      99.583  81.328  85.786  1.00  0.00    -0.015 C 
BRANCH   3   4
ATOM      4  C   UNL     1      98.129  81.556  86.167  1.00  0.00     0.078 C 
ATOM      5  O   UNL     1      96.789  79.890  84.923  1.00  0.00    -0.319 OA
ATOM      6  C   UNL     1      97.177  80.306  86.269  1.00  0.00     0.095 C 
ATOM      7  C   UNL     1      96.452  80.959  84.020  1.00  0.00     0.289 C 
ATOM      8  C   UNL     1      95.886  80.751  87.072  1.00  0.00     0.023 C 
ATOM      9  O   UNL     1      97.531  81.880  83.884  1.00  0.00    -0.320 OA
ATOM     10  O   UNL     1      95.345  81.729  84.481  1.00  0.00    -0.313 OA
ATOM     11  C   UNL     1      97.469  82.532  85.162  1.00  0.00     0.170 C 
ATOM     12  C   UNL     1      95.528  82.244  86.797  1.00  0.00     0.049 C 
ATOM     13  C   UNL     1      94.639  79.878  86.853  1.00  0.00     0.011 C 
ATOM     14  C   UNL     1      95.944  82.676  85.390  1.00  0.00     0.122 C 
BRANCH   6  15
ATOM     15  C   UNL     1      97.937  79.079  86.851  1.00  0.00     0.086 C 
ATOM     16  C   UNL     1      98.871  79.363  88.047  1.00  0.00     0.140 CG0
ATOM     17  C   UNL     1      97.158  77.873  87.295  1.00  0.00    -0.010 C 
ATOM     18  C   UNL     1      98.744  78.096  88.867  1.00  0.00     0.190 C 
ATOM     19  G   UNL     1     100.308  79.633  87.605  1.00  0.00     0.000 G0
ATOM     20  C   UNL     1      97.603  77.281  88.408  1.00  0.00    -0.008 C 
ATOM     21  O   UNL     1      99.450  77.795  89.817  1.00  0.00    -0.291 OA
ATOM     22  C   UNL     1      97.144  76.048  89.079  1.00  0.00     0.048 C 
BRANCH  16  23
ATOM     23  O   UNL     1      98.397  80.378  88.916  1.00  0.00    -0.381 OA
ATOM     24  H   UNL     1      98.214  79.979  89.783  1.00  0.00     0.212 HD
ENDBRANCH  16  23
ENDBRANCH   6  15
BRANCH   7  25
ATOM     25  C   UNL     1      96.121  80.355  82.670  1.00  0.00     0.135 C 
BRANCH  25  26
ATOM     26  C   UNL     1      96.790  81.098  81.540  1.00  0.00    -0.040 A 
ATOM     27  C   UNL     1      96.736  82.491  81.492  1.00  0.00     0.004 A 
ATOM     28  C   UNL     1      97.463  80.392  80.543  1.00  0.00     0.004 A 
ATOM     29  C   UNL     1      97.355  83.178  80.447  1.00  0.00     0.000 A 
ATOM     30  C   UNL     1      98.081  81.078  79.497  1.00  0.00     0.000 A 
ATOM     31  C   UNL     1      98.027  82.472  79.450  1.00  0.00     0.000 A 
ENDBRANCH  25  26
ENDBRANCH   7  25
BRANCH  14  32
ATOM     32  C   UNL     1      95.450  84.041  85.039  1.00  0.00    -0.046 C 
ATOM     33  C   UNL     1      93.973  84.265  85.166  1.00  0.00     0.042 C 
ATOM     34  C   UNL     1      96.281  85.013  84.633  1.00  0.00     0.010 C 
ENDBRANCH  14  32
ENDBRANCH   3   4
BRANCH   2  35
ATOM     35  C   UNL     1     100.331  79.646  87.583  1.00  0.00     0.078 CG0
ATOM     36  G   UNL     1      98.899  79.376  88.042  1.00  0.00     0.000 G0
ENDBRANCH   2  35
ENDBRANCH   1   2
BRANCH   1  37
ATOM     37  O   UNL     1     101.978  81.315  84.662  1.00  0.00    -0.461 OA
BRANCH  37  38
ATOM     38  C   UNL     1     102.284  80.613  83.519  1.00  0.00     0.310 C 
ATOM     39  O   UNL     1     103.416  80.337  83.146  1.00  0.00    -0.252 OA
BRANCH  38  40
ATOM     40  C   UNL     1     101.009  80.238  82.801  1.00  0.00     0.158 C 
BRANCH  40  41
ATOM     41  C   UNL     1     101.179  80.157  81.306  1.00  0.00    -0.033 A 
ATOM     42  C   UNL     1     101.032  78.932  80.653  1.00  0.00     0.054 A 
ATOM     43  C   UNL     1     101.481  81.305  80.575  1.00  0.00     0.008 A 
ATOM     44  C   UNL     1     101.189  78.857  79.268  1.00  0.00     0.160 A 
ATOM     45  C   UNL     1     101.639  81.230  79.190  1.00  0.00     0.050 A 
ATOM     46  C   UNL     1     101.493  80.007  78.537  1.00  0.00     0.157 A 
BRANCH  44  47
ATOM     47  O   UNL     1     101.044  77.657  78.642  1.00  0.00    -0.493 OA
ATOM     48  C   UNL     1      99.728  77.296  78.228  1.00  0.00     0.278 C 
ENDBRANCH  44  47
BRANCH  46  49
ATOM     49  O   UNL     1     101.647  79.946  77.186  1.00  0.00    -0.504 OA
ATOM     50  H   UNL     1     102.368  80.543  76.922  1.00  0.00     0.293 HD
ENDBRANCH  46  49
ENDBRANCH  40  41
ENDBRANCH  38  40
ENDBRANCH  37  38
ENDBRANCH   1  37
TORSDOF 11
ENDMDL
MODEL 9
REMARK VINA RESULT:    -5.558      2.628      3.650
REMARK INTER + INTRA:         -10.885
REMARK INTER:                  -9.627
REMARK INTRA:                  -1.258
REMARK UNBOUND:                -1.104
REMARK SMILES C=C(C)[C@]12C[C@@H](C)[C@@]34O[C@](Cc5ccccc5)(O[C@@H]1[C@@H]3C=C(COC(=O)Cc1ccc(O)c(OC)c1)C[C@]1(O)C(=O)C(C)=C[C@@H]41)O2
REMARK SMILES IDX 23 1 22 2 21 3 20 4 9 5 8 6 10 7 6 8 18 9 46 10 19 11 5 12
REMARK SMILES IDX 7 13 4 14 45 15 38 16 44 17 40 18 42 20 41 21 43 22 39 23
REMARK SMILES IDX 11 25 12 26 13 27 17 28 14 29 16 30 15 31 2 32 3 33 1 34
REMARK SMILES IDX 37 35 24 37 25 38 26 39 27 40 28 41 36 42 29 43 33 44 30 45
REMARK SMILES IDX 31 46 34 47 35 48 32 49
REMARK H PARENT 39 24 32 50
REMARK Flexibility Score: 90.00
ROOT
ATOM      1  C   UNL     1      99.786  79.176  80.370  1.00  0.00     0.264 C 
ENDROOT
BRANCH   1   2
ATOM      2  C   UNL     1      99.250  78.449  81.581  1.00  0.00    -0.033 C 
ATOM      3  C   UNL     1      99.738  78.752  82.801  1.00  0.00    -0.015 C 
BRANCH   3   4
ATOM      4  C   UNL     1      99.426  78.121  84.149  1.00  0.00     0.078 C 
ATOM      5  O   UNL     1      97.584  79.433  85.150  1.00  0.00    -0.319 OA
ATOM      6  C   UNL     1      97.932  78.108  84.642  1.00  0.00     0.095 C 
ATOM      7  C   UNL     1      98.589  80.063  85.967  1.00  0.00     0.289 C 
ATOM      8  C   UNL     1      97.824  77.051  85.818  1.00  0.00     0.023 C 
ATOM      9  O   UNL     1      99.822  80.189  85.263  1.00  0.00    -0.320 OA
ATOM     10  O   UNL     1      98.888  79.307  87.137  1.00  0.00    -0.313 OA
ATOM     11  C   UNL     1     100.251  78.818  85.259  1.00  0.00     0.170 C 
ATOM     12  C   UNL     1      99.139  76.990  86.654  1.00  0.00     0.049 C 
ATOM     13  C   UNL     1      96.625  77.236  86.763  1.00  0.00     0.011 C 
ATOM     14  C   UNL     1      99.857  78.340  86.679  1.00  0.00     0.122 C 
BRANCH   6  15
ATOM     15  C   UNL     1      96.959  77.882  83.449  1.00  0.00     0.086 C 
ATOM     16  C   UNL     1      97.383  76.815  82.418  1.00  0.00     0.140 CG0
ATOM     17  C   UNL     1      95.519  77.549  83.725  1.00  0.00    -0.010 C 
ATOM     18  C   UNL     1      96.054  76.228  81.991  1.00  0.00     0.190 C 
ATOM     19  G   UNL     1      98.159  77.418  81.249  1.00  0.00     0.000 G0
ATOM     20  C   UNL     1      94.974  76.643  82.906  1.00  0.00    -0.008 C 
ATOM     21  O   UNL     1      95.885  75.469  81.049  1.00  0.00    -0.291 OA
ATOM     22  C   UNL     1      93.586  76.144  82.829  1.00  0.00     0.048 C 
BRANCH  16  23
ATOM     23  O   UNL     1      98.073  75.713  82.984  1.00  0.00    -0.381 OA
ATOM     24  H   UNL     1      98.167  75.027  82.303  1.00  0.00     0.212 HD
ENDBRANCH  16  23
ENDBRANCH   6  15
BRANCH   7  25
ATOM     25  C   UNL     1      98.085  81.435  86.367  1.00  0.00     0.135 C 
BRANCH  25  26
ATOM     26  C   UNL     1      97.066  81.969  85.391  1.00  0.00    -0.040 A 
ATOM     27  C   UNL     1      95.705  81.878  85.686  1.00  0.00     0.004 A 
ATOM     28  C   UNL     1      97.483  82.556  84.197  1.00  0.00     0.004 A 
ATOM     29  C   UNL     1      94.762  82.372  84.784  1.00  0.00     0.000 A 
ATOM     30  C   UNL     1      96.540  83.050  83.295  1.00  0.00     0.000 A 
ATOM     31  C   UNL     1      95.179  82.958  83.589  1.00  0.00     0.000 A 
ENDBRANCH  25  26
ENDBRANCH   7  25
BRANCH  14  32
ATOM     32  C   UNL     1     101.018  78.356  87.619  1.00  0.00    -0.046 C 
ATOM     33  C   UNL     1     102.347  77.980  87.035  1.00  0.00     0.042 C 
ATOM     34  C   UNL     1     100.880  78.687  88.911  1.00  0.00     0.010 C 
ENDBRANCH  14  32
ENDBRANCH   3   4
BRANCH   2  35
ATOM     35  C   UNL     1      98.178  77.432  81.239  1.00  0.00     0.078 CG0
ATOM     36  G   UNL     1      97.399  76.819  82.402  1.00  0.00     0.000 G0
ENDBRANCH   2  35
ENDBRANCH   1   2
BRANCH   1  37
ATOM     37  O   UNL     1      98.760  79.966  79.808  1.00  0.00    -0.461 OA
BRANCH  37  38
ATOM     38  C   UNL     1      98.909  81.329  79.924  1.00  0.00     0.310 C 
ATOM     39  O   UNL     1      99.972  81.907  80.103  1.00  0.00    -0.252 OA
BRANCH  38  40
ATOM     40  C   UNL     1      97.559  81.996  79.796  1.00  0.00     0.158 C 
BRANCH  40  41
ATOM     41  C   UNL     1      97.423  82.810  78.535  1.00  0.00    -0.033 A 
ATOM     42  C   UNL     1      98.407  82.737  77.549  1.00  0.00     0.054 A 
ATOM     43  C   UNL     1      96.314  83.636  78.355  1.00  0.00     0.008 A 
ATOM     44  C   UNL     1      98.281  83.491  76.381  1.00  0.00     0.160 A 
ATOM     45  C   UNL     1      96.188  84.389  77.187  1.00  0.00     0.050 A 
ATOM     46  C   UNL     1      97.171  84.317  76.201  1.00  0.00     0.157 A 
BRANCH  44  47
ATOM     47  O   UNL     1      99.248  83.412  75.426  1.00  0.00    -0.493 OA
ATOM     48  C   UNL     1      99.816  82.126  75.183  1.00  0.00     0.278 C 
ENDBRANCH  44  47
BRANCH  46  49
ATOM     49  O   UNL     1      97.036  85.057  75.065  1.00  0.00    -0.504 OA
ATOM     50  H   UNL     1      96.333  84.670  74.517  1.00  0.00     0.293 HD
ENDBRANCH  46  49
ENDBRANCH  40  41
ENDBRANCH  38  40
ENDBRANCH  37  38
ENDBRANCH   1  37
TORSDOF 11
ENDMDL
MODEL 10
REMARK VINA RESULT:    -5.551     24.976     27.640
REMARK INTER + INTRA:         -10.873
REMARK INTER:                  -9.795
REMARK INTRA:                  -1.078
REMARK UNBOUND:                -1.104
REMARK SMILES C=C(C)[C@]12C[C@@H](C)[C@@]34O[C@](Cc5ccccc5)(O[C@@H]1[C@@H]3C=C(COC(=O)Cc1ccc(O)c(OC)c1)C[C@]1(O)C(=O)C(C)=C[C@@H]41)O2
REMARK SMILES IDX 23 1 22 2 21 3 20 4 9 5 8 6 10 7 6 8 18 9 46 10 19 11 5 12
REMARK SMILES IDX 7 13 4 14 45 15 38 16 44 17 40 18 42 20 41 21 43 22 39 23
REMARK SMILES IDX 11 25 12 26 13 27 17 28 14 29 16 30 15 31 2 32 3 33 1 34
REMARK SMILES IDX 37 35 24 37 25 38 26 39 27 40 28 41 36 42 29 43 33 44 30 45
REMARK SMILES IDX 31 46 34 47 35 48 32 49
REMARK H PARENT 39 24 32 50
REMARK Flexibility Score: 90.00
ROOT
ATOM      1  C   UNL     1      72.670  93.766  71.562  1.00  0.00     0.264 C 
ENDROOT
BRANCH   1   2
ATOM      2  C   UNL     1      73.977  94.198  72.185  1.00  0.00    -0.033 C 
ATOM      3  C   UNL     1      74.788  95.033  71.504  1.00  0.00    -0.015 C 
BRANCH   3   4
ATOM      4  C   UNL     1      76.171  95.547  71.871  1.00  0.00     0.078 C 
ATOM      5  O   UNL     1      75.850  97.694  73.056  1.00  0.00    -0.319 OA
ATOM      6  C   UNL     1      76.343  96.330  73.226  1.00  0.00     0.095 C 
ATOM      7  C   UNL     1      76.221  98.335  71.821  1.00  0.00     0.289 C 
ATOM      8  C   UNL     1      77.891  96.371  73.563  1.00  0.00     0.023 C 
ATOM      9  O   UNL     1      75.780  97.581  70.694  1.00  0.00    -0.320 OA
ATOM     10  O   UNL     1      77.634  98.453  71.676  1.00  0.00    -0.313 OA
ATOM     11  C   UNL     1      76.699  96.479  70.753  1.00  0.00     0.170 C 
ATOM     12  C   UNL     1      78.756  96.440  72.266  1.00  0.00     0.049 C 
ATOM     13  C   UNL     1      78.327  97.486  74.528  1.00  0.00     0.011 C 
ATOM     14  C   UNL     1      78.029  97.174  71.139  1.00  0.00     0.122 C 
BRANCH   6  15
ATOM     15  C   UNL     1      75.434  95.723  74.334  1.00  0.00     0.086 C 
ATOM     16  C   UNL     1      75.371  94.182  74.393  1.00  0.00     0.140 CG0
ATOM     17  C   UNL     1      75.654  96.120  75.766  1.00  0.00    -0.010 C 
ATOM     18  C   UNL     1      75.226  93.919  75.877  1.00  0.00     0.190 C 
ATOM     19  G   UNL     1      74.205  93.620  73.583  1.00  0.00     0.000 G0
ATOM     20  C   UNL     1      75.517  95.135  76.661  1.00  0.00    -0.008 C 
ATOM     21  O   UNL     1      74.956  92.840  76.382  1.00  0.00    -0.291 OA
ATOM     22  C   UNL     1      75.578  95.175  78.136  1.00  0.00     0.048 C 
BRANCH  16  23
ATOM     23  O   UNL     1      76.592  93.545  74.054  1.00  0.00    -0.381 OA
ATOM     24  H   UNL     1      76.557  92.627  74.372  1.00  0.00     0.212 HD
ENDBRANCH  16  23
ENDBRANCH   6  15
BRANCH   7  25
ATOM     25  C   UNL     1      75.592  99.713  71.792  1.00  0.00     0.135 C 
BRANCH  25  26
ATOM     26  C   UNL     1      75.287 100.166  70.386  1.00  0.00    -0.040 A 
ATOM     27  C   UNL     1      76.325 100.345  69.470  1.00  0.00     0.004 A 
ATOM     28  C   UNL     1      73.969 100.406  70.000  1.00  0.00     0.004 A 
ATOM     29  C   UNL     1      76.043 100.764  68.170  1.00  0.00     0.000 A 
ATOM     30  C   UNL     1      73.687 100.825  68.699  1.00  0.00     0.000 A 
ATOM     31  C   UNL     1      74.725 101.003  67.785  1.00  0.00     0.000 A 
ENDBRANCH  25  26
ENDBRANCH   7  25
BRANCH  14  32
ATOM     32  C   UNL     1      78.903  97.411  69.951  1.00  0.00    -0.046 C 
ATOM     33  C   UNL     1      78.948  96.313  68.931  1.00  0.00     0.042 C 
ATOM     34  C   UNL     1      79.608  98.543  69.805  1.00  0.00     0.010 C 
ENDBRANCH  14  32
ENDBRANCH   3   4
BRANCH   2  35
ATOM     35  C   UNL     1      74.203  93.607  73.564  1.00  0.00     0.078 CG0
ATOM     36  G   UNL     1      75.347  94.186  74.394  1.00  0.00     0.000 G0
ENDBRANCH   2  35
ENDBRANCH   1   2
BRANCH   1  37
ATOM     37  O   UNL     1      72.634  92.358  71.481  1.00  0.00    -0.461 OA
BRANCH  37  38
ATOM     38  C   UNL     1      73.312  91.791  70.426  1.00  0.00     0.310 C 
ATOM     39  O   UNL     1      73.240  92.164  69.263  1.00  0.00    -0.252 OA
BRANCH  38  40
ATOM     40  C   UNL     1      74.153  90.641  70.927  1.00  0.00     0.158 C 
BRANCH  40  41
ATOM     41  C   UNL     1      74.356  89.566  69.890  1.00  0.00    -0.033 A 
ATOM     42  C   UNL     1      75.615  89.378  69.317  1.00  0.00     0.054 A 
ATOM     43  C   UNL     1      73.287  88.759  69.504  1.00  0.00     0.008 A 
ATOM     44  C   UNL     1      75.802  88.383  68.357  1.00  0.00     0.160 A 
ATOM     45  C   UNL     1      73.474  87.764  68.544  1.00  0.00     0.050 A 
ATOM     46  C   UNL     1      74.731  87.576  67.970  1.00  0.00     0.157 A 
BRANCH  44  47
ATOM     47  O   UNL     1      77.035  88.210  67.804  1.00  0.00    -0.493 OA
ATOM     48  C   UNL     1      77.587  89.316  67.092  1.00  0.00     0.278 C 
ENDBRANCH  44  47
BRANCH  46  49
ATOM     49  O   UNL     1      74.903  86.601  67.035  1.00  0.00    -0.504 OA
ATOM     50  H   UNL     1      75.730  86.768  66.552  1.00  0.00     0.293 HD
ENDBRANCH  46  49
ENDBRANCH  40  41
ENDBRANCH  38  40
ENDBRANCH  37  38
ENDBRANCH   1  37
TORSDOF 11
ENDMDL
