MODEL 1
REMARK VINA RESULT:    -6.556      0.000      0.000
REMARK INTER + INTRA:         -12.539
REMARK INTER:                 -10.773
REMARK INTRA:                  -1.767
REMARK UNBOUND:                -1.767
REMARK SMILES CCCCC[C@H](O)CC(=O)CCc1ccc(O)c(OC)c1
REMARK SMILES IDX 8 1 6 2 7 3 5 5 4 6 3 7 2 8 1 9 9 10 10 11 11 12 12 13 13 14
REMARK SMILES IDX 21 15 14 16 18 17 15 18 16 19 19 20 20 21 17 22
REMARK H PARENT 7 4 17 23
REMARK Flexibility Score: inf
ROOT
ATOM      1  C   UNL     1      89.723  89.044  76.610  1.00  0.00     0.107 C 
ENDROOT
BRANCH   1   2
ATOM      2  C   UNL     1      91.012  88.822  75.816  1.00  0.00     0.121 C 
BRANCH   2   3
ATOM      3  O   UNL     1      91.306  87.428  75.750  1.00  0.00    -0.393 OA
ATOM      4  H   UNL     1      90.472  86.942  75.873  1.00  0.00     0.210 HD
ENDBRANCH   2   3
BRANCH   2   5
ATOM      5  C   UNL     1      90.947  89.392  74.394  1.00  0.00     0.032 C 
BRANCH   5   6
ATOM      6  C   UNL     1      91.755  90.688  74.254  1.00  0.00     0.003 C 
BRANCH   6   7
ATOM      7  C   UNL     1      91.313  91.553  73.070  1.00  0.00    -0.000 C 
BRANCH   7   8
ATOM      8  C   UNL     1      89.815  91.850  73.054  1.00  0.00    -0.003 C 
ATOM      9  C   UNL     1      89.533  93.253  72.539  1.00  0.00     0.004 C 
ENDBRANCH   7   8
ENDBRANCH   6   7
ENDBRANCH   5   6
ENDBRANCH   2   5
ENDBRANCH   1   2
BRANCH   1  10
ATOM     10  C   UNL     1      89.343  90.511  76.733  1.00  0.00     0.135 C 
ATOM     11  O   UNL     1      88.364  90.963  76.140  1.00  0.00    -0.300 OA
BRANCH  10  12
ATOM     12  C   UNL     1      90.204  91.363  77.653  1.00  0.00     0.080 C 
BRANCH  12  13
ATOM     13  C   UNL     1      90.075  92.866  77.398  1.00  0.00     0.043 C 
BRANCH  13  14
ATOM     14  C   UNL     1      91.334  93.482  76.836  1.00  0.00    -0.044 A 
ATOM     15  C   UNL     1      92.538  93.363  77.530  1.00  0.00     0.054 A 
ATOM     16  C   UNL     1      91.293  94.168  75.623  1.00  0.00     0.008 A 
ATOM     17  C   UNL     1      93.701  93.932  77.010  1.00  0.00     0.160 A 
ATOM     18  C   UNL     1      92.455  94.737  75.102  1.00  0.00     0.050 A 
ATOM     19  C   UNL     1      93.659  94.619  75.796  1.00  0.00     0.157 A 
BRANCH  17  20
ATOM     20  O   UNL     1      94.871  93.811  77.697  1.00  0.00    -0.493 OA
ATOM     21  C   UNL     1      94.964  94.496  78.945  1.00  0.00     0.278 C 
ENDBRANCH  17  20
BRANCH  19  22
ATOM     22  O   UNL     1      94.788  95.178  75.278  1.00  0.00    -0.504 OA
ATOM     23  H   UNL     1      94.558  95.665  74.469  1.00  0.00     0.293 HD
ENDBRANCH  19  22
ENDBRANCH  13  14
ENDBRANCH  12  13
ENDBRANCH  10  12
ENDBRANCH   1  10
TORSDOF 12
ENDMDL
MODEL 2
REMARK VINA RESULT:    -6.413     12.735     15.212
REMARK INTER + INTRA:         -12.304
REMARK INTER:                 -10.204
REMARK INTRA:                  -2.099
REMARK UNBOUND:                -1.767
REMARK SMILES CCCCC[C@H](O)CC(=O)CCc1ccc(O)c(OC)c1
REMARK SMILES IDX 8 1 6 2 7 3 5 5 4 6 3 7 2 8 1 9 9 10 10 11 11 12 12 13 13 14
REMARK SMILES IDX 21 15 14 16 18 17 15 18 16 19 19 20 20 21 17 22
REMARK H PARENT 7 4 17 23
REMARK Flexibility Score: inf
ROOT
ATOM      1  C   UNL     1      79.953  86.625  84.973  1.00  0.00     0.107 C 
ENDROOT
BRANCH   1   2
ATOM      2  C   UNL     1      81.002  85.580  85.360  1.00  0.00     0.121 C 
BRANCH   2   3
ATOM      3  O   UNL     1      81.568  85.005  84.185  1.00  0.00    -0.393 OA
ATOM      4  H   UNL     1      81.856  84.102  84.405  1.00  0.00     0.210 HD
ENDBRANCH   2   3
BRANCH   2   5
ATOM      5  C   UNL     1      82.125  86.152  86.233  1.00  0.00     0.032 C 
BRANCH   5   6
ATOM      6  C   UNL     1      81.920  85.834  87.719  1.00  0.00     0.003 C 
BRANCH   6   7
ATOM      7  C   UNL     1      81.323  87.001  88.513  1.00  0.00    -0.000 C 
BRANCH   7   8
ATOM      8  C   UNL     1      79.800  86.953  88.619  1.00  0.00    -0.003 C 
ATOM      9  C   UNL     1      79.347  86.890  90.070  1.00  0.00     0.004 C 
ENDBRANCH   7   8
ENDBRANCH   6   7
ENDBRANCH   5   6
ENDBRANCH   2   5
ENDBRANCH   1   2
BRANCH   1  10
ATOM     10  C   UNL     1      80.263  87.322  83.659  1.00  0.00     0.135 C 
ATOM     11  O   UNL     1      80.080  86.754  82.582  1.00  0.00    -0.300 OA
BRANCH  10  12
ATOM     12  C   UNL     1      80.761  88.757  83.749  1.00  0.00     0.080 C 
BRANCH  12  13
ATOM     13  C   UNL     1      80.217  89.522  84.957  1.00  0.00     0.043 C 
BRANCH  13  14
ATOM     14  C   UNL     1      81.290  89.895  85.953  1.00  0.00    -0.044 A 
ATOM     15  C   UNL     1      82.636  89.740  85.620  1.00  0.00     0.054 A 
ATOM     16  C   UNL     1      80.935  90.394  87.206  1.00  0.00     0.008 A 
ATOM     17  C   UNL     1      83.626  90.086  86.540  1.00  0.00     0.160 A 
ATOM     18  C   UNL     1      81.924  90.739  88.126  1.00  0.00     0.050 A 
ATOM     19  C   UNL     1      83.270  90.585  87.793  1.00  0.00     0.157 A 
BRANCH  17  20
ATOM     20  O   UNL     1      84.937  89.930  86.203  1.00  0.00    -0.493 OA
ATOM     21  C   UNL     1      85.390  90.606  85.031  1.00  0.00     0.278 C 
ENDBRANCH  17  20
BRANCH  19  22
ATOM     22  O   UNL     1      84.228  90.926  88.700  1.00  0.00    -0.504 OA
ATOM     23  H   UNL     1      84.498  91.847  88.544  1.00  0.00     0.293 HD
ENDBRANCH  19  22
ENDBRANCH  13  14
ENDBRANCH  12  13
ENDBRANCH  10  12
ENDBRANCH   1  10
TORSDOF 12
ENDMDL
MODEL 3
REMARK VINA RESULT:    -5.982      1.841      6.853
REMARK INTER + INTRA:         -11.596
REMARK INTER:                 -10.679
REMARK INTRA:                  -0.917
REMARK UNBOUND:                -1.767
REMARK SMILES CCCCC[C@H](O)CC(=O)CCc1ccc(O)c(OC)c1
REMARK SMILES IDX 8 1 6 2 7 3 5 5 4 6 3 7 2 8 1 9 9 10 10 11 11 12 12 13 13 14
REMARK SMILES IDX 21 15 14 16 18 17 15 18 16 19 19 20 20 21 17 22
REMARK H PARENT 7 4 17 23
REMARK Flexibility Score: inf
ROOT
ATOM      1  C   UNL     1      92.695  93.683  76.521  1.00  0.00     0.107 C 
ENDROOT
BRANCH   1   2
ATOM      2  C   UNL     1      94.055  93.990  75.888  1.00  0.00     0.121 C 
BRANCH   2   3
ATOM      3  O   UNL     1      94.021  95.273  75.268  1.00  0.00    -0.393 OA
ATOM      4  H   UNL     1      94.915  95.654  75.324  1.00  0.00     0.210 HD
ENDBRANCH   2   3
BRANCH   2   5
ATOM      5  C   UNL     1      95.209  93.946  76.896  1.00  0.00     0.032 C 
BRANCH   5   6
ATOM      6  C   UNL     1      94.749  94.298  78.315  1.00  0.00     0.003 C 
BRANCH   6   7
ATOM      7  C   UNL     1      95.899  94.708  79.242  1.00  0.00    -0.000 C 
BRANCH   7   8
ATOM      8  C   UNL     1      95.800  94.106  80.642  1.00  0.00    -0.003 C 
ATOM      9  C   UNL     1      95.341  95.141  81.659  1.00  0.00     0.004 C 
ENDBRANCH   7   8
ENDBRANCH   6   7
ENDBRANCH   5   6
ENDBRANCH   2   5
ENDBRANCH   1   2
BRANCH   1  10
ATOM     10  C   UNL     1      91.547  93.745  75.526  1.00  0.00     0.135 C 
ATOM     11  O   UNL     1      91.738  93.544  74.327  1.00  0.00    -0.300 OA
BRANCH  10  12
ATOM     12  C   UNL     1      90.164  94.020  76.097  1.00  0.00     0.080 C 
BRANCH  12  13
ATOM     13  C   UNL     1      89.717  92.999  77.145  1.00  0.00     0.043 C 
BRANCH  13  14
ATOM     14  C   UNL     1      89.678  91.585  76.614  1.00  0.00    -0.044 A 
ATOM     15  C   UNL     1      89.107  91.323  75.369  1.00  0.00     0.054 A 
ATOM     16  C   UNL     1      90.214  90.542  77.370  1.00  0.00     0.008 A 
ATOM     17  C   UNL     1      89.073  90.017  74.879  1.00  0.00     0.160 A 
ATOM     18  C   UNL     1      90.179  89.236  76.881  1.00  0.00     0.050 A 
ATOM     19  C   UNL     1      89.609  88.974  75.636  1.00  0.00     0.157 A 
BRANCH  17  20
ATOM     20  O   UNL     1      88.512  89.772  73.662  1.00  0.00    -0.493 OA
ATOM     21  C   UNL     1      87.532  90.701  73.202  1.00  0.00     0.278 C 
ENDBRANCH  17  20
BRANCH  19  22
ATOM     22  O   UNL     1      89.581  87.695  75.168  1.00  0.00    -0.504 OA
ATOM     23  H   UNL     1      88.692  87.326  75.308  1.00  0.00     0.293 HD
ENDBRANCH  19  22
ENDBRANCH  13  14
ENDBRANCH  12  13
ENDBRANCH  10  12
ENDBRANCH   1  10
TORSDOF 12
ENDMDL
MODEL 4
REMARK VINA RESULT:    -5.875      1.724      6.976
REMARK INTER + INTRA:         -11.420
REMARK INTER:                 -10.189
REMARK INTRA:                  -1.232
REMARK UNBOUND:                -1.767
REMARK SMILES CCCCC[C@H](O)CC(=O)CCc1ccc(O)c(OC)c1
REMARK SMILES IDX 8 1 6 2 7 3 5 5 4 6 3 7 2 8 1 9 9 10 10 11 11 12 12 13 13 14
REMARK SMILES IDX 21 15 14 16 18 17 15 18 16 19 19 20 20 21 17 22
REMARK H PARENT 7 4 17 23
REMARK Flexibility Score: inf
ROOT
ATOM      1  C   UNL     1      94.901  93.817  75.580  1.00  0.00     0.107 C 
ENDROOT
BRANCH   1   2
ATOM      2  C   UNL     1      95.584  94.095  76.922  1.00  0.00     0.121 C 
BRANCH   2   3
ATOM      3  O   UNL     1      96.516  95.164  76.777  1.00  0.00    -0.393 OA
ATOM      4  H   UNL     1      96.704  95.268  75.828  1.00  0.00     0.210 HD
ENDBRANCH   2   3
BRANCH   2   5
ATOM      5  C   UNL     1      94.592  94.438  78.040  1.00  0.00     0.032 C 
BRANCH   5   6
ATOM      6  C   UNL     1      95.170  94.150  79.431  1.00  0.00     0.003 C 
BRANCH   6   7
ATOM      7  C   UNL     1      95.390  95.413  80.270  1.00  0.00    -0.000 C 
BRANCH   7   8
ATOM      8  C   UNL     1      95.432  95.150  81.774  1.00  0.00    -0.003 C 
ATOM      9  C   UNL     1      95.832  93.714  82.074  1.00  0.00     0.004 C 
ENDBRANCH   7   8
ENDBRANCH   6   7
ENDBRANCH   5   6
ENDBRANCH   2   5
ENDBRANCH   1   2
BRANCH   1  10
ATOM     10  C   UNL     1      93.978  94.940  75.137  1.00  0.00     0.135 C 
ATOM     11  O   UNL     1      94.408  96.080  74.960  1.00  0.00    -0.300 OA
BRANCH  10  12
ATOM     12  C   UNL     1      92.525  94.570  74.885  1.00  0.00     0.080 C 
BRANCH  12  13
ATOM     13  C   UNL     1      91.699  94.413  76.163  1.00  0.00     0.043 C 
BRANCH  13  14
ATOM     14  C   UNL     1      91.268  92.988  76.418  1.00  0.00    -0.044 A 
ATOM     15  C   UNL     1      91.481  92.010  75.447  1.00  0.00     0.054 A 
ATOM     16  C   UNL     1      90.656  92.651  77.626  1.00  0.00     0.008 A 
ATOM     17  C   UNL     1      91.083  90.694  75.684  1.00  0.00     0.160 A 
ATOM     18  C   UNL     1      90.259  91.335  77.863  1.00  0.00     0.050 A 
ATOM     19  C   UNL     1      90.472  90.357  76.892  1.00  0.00     0.157 A 
BRANCH  17  20
ATOM     20  O   UNL     1      91.296  89.748  74.727  1.00  0.00    -0.493 OA
ATOM     21  C   UNL     1      90.342  89.670  73.669  1.00  0.00     0.278 C 
ENDBRANCH  17  20
BRANCH  19  22
ATOM     22  O   UNL     1      90.079  89.075  77.134  1.00  0.00    -0.504 OA
ATOM     23  H   UNL     1      90.691  88.466  76.687  1.00  0.00     0.293 HD
ENDBRANCH  19  22
ENDBRANCH  13  14
ENDBRANCH  12  13
ENDBRANCH  10  12
ENDBRANCH   1  10
TORSDOF 12
ENDMDL
MODEL 5
REMARK VINA RESULT:    -5.709     14.058     15.877
REMARK INTER + INTRA:         -11.146
REMARK INTER:                  -8.580
REMARK INTRA:                  -2.566
REMARK UNBOUND:                -1.767
REMARK SMILES CCCCC[C@H](O)CC(=O)CCc1ccc(O)c(OC)c1
REMARK SMILES IDX 8 1 6 2 7 3 5 5 4 6 3 7 2 8 1 9 9 10 10 11 11 12 12 13 13 14
REMARK SMILES IDX 21 15 14 16 18 17 15 18 16 19 19 20 20 21 17 22
REMARK H PARENT 7 4 17 23
REMARK Flexibility Score: inf
ROOT
ATOM      1  C   UNL     1      79.815  86.974  84.939  1.00  0.00     0.107 C 
ENDROOT
BRANCH   1   2
ATOM      2  C   UNL     1      80.556  85.697  85.346  1.00  0.00     0.121 C 
BRANCH   2   3
ATOM      3  O   UNL     1      81.394  85.263  84.277  1.00  0.00    -0.393 OA
ATOM      4  H   UNL     1      81.439  84.292  84.311  1.00  0.00     0.210 HD
ENDBRANCH   2   3
BRANCH   2   5
ATOM      5  C   UNL     1      81.402  85.872  86.612  1.00  0.00     0.032 C 
BRANCH   5   6
ATOM      6  C   UNL     1      80.648  86.634  87.709  1.00  0.00     0.003 C 
BRANCH   6   7
ATOM      7  C   UNL     1      81.517  86.960  88.928  1.00  0.00    -0.000 C 
BRANCH   7   8
ATOM      8  C   UNL     1      80.883  87.974  89.878  1.00  0.00    -0.003 C 
ATOM      9  C   UNL     1      79.437  88.258  89.501  1.00  0.00     0.004 C 
ENDBRANCH   7   8
ENDBRANCH   6   7
ENDBRANCH   5   6
ENDBRANCH   2   5
ENDBRANCH   1   2
BRANCH   1  10
ATOM     10  C   UNL     1      80.537  87.762  83.858  1.00  0.00     0.135 C 
ATOM     11  O   UNL     1      80.581  87.352  82.699  1.00  0.00    -0.300 OA
BRANCH  10  12
ATOM     12  C   UNL     1      81.150  89.090  84.277  1.00  0.00     0.080 C 
BRANCH  12  13
ATOM     13  C   UNL     1      80.511  89.696  85.528  1.00  0.00     0.043 C 
BRANCH  13  14
ATOM     14  C   UNL     1      81.521  90.077  86.584  1.00  0.00    -0.044 A 
ATOM     15  C   UNL     1      81.158  90.942  87.616  1.00  0.00     0.054 A 
ATOM     16  C   UNL     1      82.816  89.563  86.527  1.00  0.00     0.008 A 
ATOM     17  C   UNL     1      82.091  91.293  88.592  1.00  0.00     0.160 A 
ATOM     18  C   UNL     1      83.750  89.914  87.502  1.00  0.00     0.050 A 
ATOM     19  C   UNL     1      83.387  90.779  88.534  1.00  0.00     0.157 A 
BRANCH  17  20
ATOM     20  O   UNL     1      81.726  92.139  89.595  1.00  0.00    -0.493 OA
ATOM     21  C   UNL     1      80.949  91.588  90.657  1.00  0.00     0.278 C 
ENDBRANCH  17  20
BRANCH  19  22
ATOM     22  O   UNL     1      84.307  91.115  89.481  1.00  0.00    -0.504 OA
ATOM     23  H   UNL     1      83.847  91.315  90.314  1.00  0.00     0.293 HD
ENDBRANCH  19  22
ENDBRANCH  13  14
ENDBRANCH  12  13
ENDBRANCH  10  12
ENDBRANCH   1  10
TORSDOF 12
ENDMDL
MODEL 6
REMARK VINA RESULT:    -5.292      2.212      3.741
REMARK INTER + INTRA:         -10.462
REMARK INTER:                  -9.663
REMARK INTRA:                  -0.799
REMARK UNBOUND:                -1.767
REMARK SMILES CCCCC[C@H](O)CC(=O)CCc1ccc(O)c(OC)c1
REMARK SMILES IDX 8 1 6 2 7 3 5 5 4 6 3 7 2 8 1 9 9 10 10 11 11 12 12 13 13 14
REMARK SMILES IDX 21 15 14 16 18 17 15 18 16 19 19 20 20 21 17 22
REMARK H PARENT 7 4 17 23
REMARK Flexibility Score: inf
ROOT
ATOM      1  C   UNL     1      90.472  93.570  74.656  1.00  0.00     0.107 C 
ENDROOT
BRANCH   1   2
ATOM      2  C   UNL     1      89.900  92.210  74.250  1.00  0.00     0.121 C 
BRANCH   2   3
ATOM      3  O   UNL     1      89.975  92.057  72.834  1.00  0.00    -0.393 OA
ATOM      4  H   UNL     1      89.648  91.168  72.613  1.00  0.00     0.210 HD
ENDBRANCH   2   3
BRANCH   2   5
ATOM      5  C   UNL     1      90.615  91.032  74.923  1.00  0.00     0.032 C 
BRANCH   5   6
ATOM      6  C   UNL     1      89.627  90.038  75.546  1.00  0.00     0.003 C 
BRANCH   6   7
ATOM      7  C   UNL     1      89.209  88.918  74.589  1.00  0.00    -0.000 C 
BRANCH   7   8
ATOM      8  C   UNL     1      89.703  87.535  75.011  1.00  0.00    -0.003 C 
ATOM      9  C   UNL     1      91.193  87.376  74.751  1.00  0.00     0.004 C 
ENDBRANCH   7   8
ENDBRANCH   6   7
ENDBRANCH   5   6
ENDBRANCH   2   5
ENDBRANCH   1   2
BRANCH   1  10
ATOM     10  C   UNL     1      90.511  93.774  76.162  1.00  0.00     0.135 C 
ATOM     11  O   UNL     1      89.483  93.713  76.836  1.00  0.00    -0.300 OA
BRANCH  10  12
ATOM     12  C   UNL     1      91.880  94.007  76.783  1.00  0.00     0.080 C 
BRANCH  12  13
ATOM     13  C   UNL     1      93.033  93.411  75.973  1.00  0.00     0.043 C 
BRANCH  13  14
ATOM     14  C   UNL     1      94.372  94.020  76.313  1.00  0.00    -0.044 A 
ATOM     15  C   UNL     1      94.632  94.452  77.614  1.00  0.00     0.054 A 
ATOM     16  C   UNL     1      95.349  94.150  75.326  1.00  0.00     0.008 A 
ATOM     17  C   UNL     1      95.870  95.013  77.927  1.00  0.00     0.160 A 
ATOM     18  C   UNL     1      96.587  94.712  75.639  1.00  0.00     0.050 A 
ATOM     19  C   UNL     1      96.848  95.144  76.940  1.00  0.00     0.157 A 
BRANCH  17  20
ATOM     20  O   UNL     1      96.113  95.432  79.200  1.00  0.00    -0.493 OA
ATOM     21  C   UNL     1      95.203  94.999  80.210  1.00  0.00     0.278 C 
ENDBRANCH  17  20
BRANCH  19  22
ATOM     22  O   UNL     1      98.060  95.690  77.233  1.00  0.00    -0.504 OA
ATOM     23  H   UNL     1      98.078  95.934  78.175  1.00  0.00     0.293 HD
ENDBRANCH  19  22
ENDBRANCH  13  14
ENDBRANCH  12  13
ENDBRANCH  10  12
ENDBRANCH   1  10
TORSDOF 12
ENDMDL
MODEL 7
REMARK VINA RESULT:    -5.277      2.110      6.962
REMARK INTER + INTRA:         -10.437
REMARK INTER:                  -9.494
REMARK INTRA:                  -0.944
REMARK UNBOUND:                -1.767
REMARK SMILES CCCCC[C@H](O)CC(=O)CCc1ccc(O)c(OC)c1
REMARK SMILES IDX 8 1 6 2 7 3 5 5 4 6 3 7 2 8 1 9 9 10 10 11 11 12 12 13 13 14
REMARK SMILES IDX 21 15 14 16 18 17 15 18 16 19 19 20 20 21 17 22
REMARK H PARENT 7 4 17 23
REMARK Flexibility Score: inf
ROOT
ATOM      1  C   UNL     1      95.394  93.846  77.667  1.00  0.00     0.107 C 
ENDROOT
BRANCH   1   2
ATOM      2  C   UNL     1      94.827  94.363  78.992  1.00  0.00     0.121 C 
BRANCH   2   3
ATOM      3  O   UNL     1      94.851  93.322  79.967  1.00  0.00    -0.393 OA
ATOM      4  H   UNL     1      94.605  93.712  80.824  1.00  0.00     0.210 HD
ENDBRANCH   2   3
BRANCH   2   5
ATOM      5  C   UNL     1      95.583  95.581  79.534  1.00  0.00     0.032 C 
BRANCH   5   6
ATOM      6  C   UNL     1      97.093  95.326  79.630  1.00  0.00     0.003 C 
BRANCH   6   7
ATOM      7  C   UNL     1      97.933  96.382  78.904  1.00  0.00    -0.000 C 
BRANCH   7   8
ATOM      8  C   UNL     1      98.225  96.034  77.446  1.00  0.00    -0.003 C 
ATOM      9  C   UNL     1      97.321  96.809  76.499  1.00  0.00     0.004 C 
ENDBRANCH   7   8
ENDBRANCH   6   7
ENDBRANCH   5   6
ENDBRANCH   2   5
ENDBRANCH   1   2
BRANCH   1  10
ATOM     10  C   UNL     1      94.414  93.968  76.512  1.00  0.00     0.135 C 
ATOM     11  O   UNL     1      94.782  93.797  75.349  1.00  0.00    -0.300 OA
BRANCH  10  12
ATOM     12  C   UNL     1      92.967  94.264  76.873  1.00  0.00     0.080 C 
BRANCH  12  13
ATOM     13  C   UNL     1      92.116  93.010  77.082  1.00  0.00     0.043 C 
BRANCH  13  14
ATOM     14  C   UNL     1      91.230  92.693  75.901  1.00  0.00    -0.044 A 
ATOM     15  C   UNL     1      90.421  91.557  75.921  1.00  0.00     0.054 A 
ATOM     16  C   UNL     1      91.220  93.537  74.790  1.00  0.00     0.008 A 
ATOM     17  C   UNL     1      89.601  91.265  74.830  1.00  0.00     0.160 A 
ATOM     18  C   UNL     1      90.400  93.246  73.700  1.00  0.00     0.050 A 
ATOM     19  C   UNL     1      89.591  92.110  73.720  1.00  0.00     0.157 A 
BRANCH  17  20
ATOM     20  O   UNL     1      88.816  90.152  74.861  1.00  0.00    -0.493 OA
ATOM     21  C   UNL     1      89.453  88.903  74.602  1.00  0.00     0.278 C 
ENDBRANCH  17  20
BRANCH  19  22
ATOM     22  O   UNL     1      88.796  91.835  72.649  1.00  0.00    -0.504 OA
ATOM     23  H   UNL     1      87.866  91.837  72.936  1.00  0.00     0.293 HD
ENDBRANCH  19  22
ENDBRANCH  13  14
ENDBRANCH  12  13
ENDBRANCH  10  12
ENDBRANCH   1  10
TORSDOF 12
ENDMDL
MODEL 8
REMARK VINA RESULT:    -5.246      2.182      3.799
REMARK INTER + INTRA:         -10.386
REMARK INTER:                  -9.289
REMARK INTRA:                  -1.096
REMARK UNBOUND:                -1.767
REMARK SMILES CCCCC[C@H](O)CC(=O)CCc1ccc(O)c(OC)c1
REMARK SMILES IDX 8 1 6 2 7 3 5 5 4 6 3 7 2 8 1 9 9 10 10 11 11 12 12 13 13 14
REMARK SMILES IDX 21 15 14 16 18 17 15 18 16 19 19 20 20 21 17 22
REMARK H PARENT 7 4 17 23
REMARK Flexibility Score: inf
ROOT
ATOM      1  C   UNL     1      91.406  93.371  74.832  1.00  0.00     0.107 C 
ENDROOT
BRANCH   1   2
ATOM      2  C   UNL     1      91.731  92.300  73.788  1.00  0.00     0.121 C 
BRANCH   2   3
ATOM      3  O   UNL     1      91.919  91.040  74.429  1.00  0.00    -0.393 OA
ATOM      4  H   UNL     1      92.827  91.018  74.779  1.00  0.00     0.210 HD
ENDBRANCH   2   3
BRANCH   2   5
ATOM      5  C   UNL     1      90.646  92.162  72.713  1.00  0.00     0.032 C 
BRANCH   5   6
ATOM      6  C   UNL     1      90.021  90.761  72.701  1.00  0.00     0.003 C 
BRANCH   6   7
ATOM      7  C   UNL     1      88.579  90.736  73.218  1.00  0.00    -0.000 C 
BRANCH   7   8
ATOM      8  C   UNL     1      88.428  90.054  74.576  1.00  0.00    -0.003 C 
ATOM      9  C   UNL     1      89.203  88.746  74.630  1.00  0.00     0.004 C 
ENDBRANCH   7   8
ENDBRANCH   6   7
ENDBRANCH   5   6
ENDBRANCH   2   5
ENDBRANCH   1   2
BRANCH   1  10
ATOM     10  C   UNL     1      91.355  92.824  76.250  1.00  0.00     0.135 C 
ATOM     11  O   UNL     1      90.488  92.018  76.586  1.00  0.00    -0.300 OA
BRANCH  10  12
ATOM     12  C   UNL     1      92.448  93.289  77.200  1.00  0.00     0.080 C 
BRANCH  12  13
ATOM     13  C   UNL     1      93.711  93.779  76.491  1.00  0.00     0.043 C 
BRANCH  13  14
ATOM     14  C   UNL     1      94.698  94.435  77.427  1.00  0.00    -0.044 A 
ATOM     15  C   UNL     1      94.510  94.356  78.807  1.00  0.00     0.054 A 
ATOM     16  C   UNL     1      95.798  95.121  76.911  1.00  0.00     0.008 A 
ATOM     17  C   UNL     1      95.423  94.961  79.671  1.00  0.00     0.160 A 
ATOM     18  C   UNL     1      96.711  95.727  77.775  1.00  0.00     0.050 A 
ATOM     19  C   UNL     1      96.523  95.647  79.155  1.00  0.00     0.157 A 
BRANCH  17  20
ATOM     20  O   UNL     1      95.229  94.877  81.017  1.00  0.00    -0.493 OA
ATOM     21  C   UNL     1      95.614  93.660  81.653  1.00  0.00     0.278 C 
ENDBRANCH  17  20
BRANCH  19  22
ATOM     22  O   UNL     1      97.421  96.242  79.988  1.00  0.00    -0.504 OA
ATOM     23  H   UNL     1      98.198  96.518  79.472  1.00  0.00     0.293 HD
ENDBRANCH  19  22
ENDBRANCH  13  14
ENDBRANCH  12  13
ENDBRANCH  10  12
ENDBRANCH   1  10
TORSDOF 12
ENDMDL
MODEL 9
REMARK VINA RESULT:    -5.184      3.784      6.939
REMARK INTER + INTRA:         -10.284
REMARK INTER:                  -9.052
REMARK INTRA:                  -1.232
REMARK UNBOUND:                -1.767
REMARK SMILES CCCCC[C@H](O)CC(=O)CCc1ccc(O)c(OC)c1
REMARK SMILES IDX 8 1 6 2 7 3 5 5 4 6 3 7 2 8 1 9 9 10 10 11 11 12 12 13 13 14
REMARK SMILES IDX 21 15 14 16 18 17 15 18 16 19 19 20 20 21 17 22
REMARK H PARENT 7 4 17 23
REMARK Flexibility Score: inf
ROOT
ATOM      1  C   UNL     1      96.099  95.711  75.393  1.00  0.00     0.107 C 
ENDROOT
BRANCH   1   2
ATOM      2  C   UNL     1      94.594  95.487  75.562  1.00  0.00     0.121 C 
BRANCH   2   3
ATOM      3  O   UNL     1      93.887  96.145  74.514  1.00  0.00    -0.393 OA
ATOM      4  H   UNL     1      93.725  97.063  74.796  1.00  0.00     0.210 HD
ENDBRANCH   2   3
BRANCH   2   5
ATOM      5  C   UNL     1      94.207  94.003  75.578  1.00  0.00     0.032 C 
BRANCH   5   6
ATOM      6  C   UNL     1      92.687  93.804  75.559  1.00  0.00     0.003 C 
BRANCH   6   7
ATOM      7  C   UNL     1      92.175  92.930  76.709  1.00  0.00    -0.000 C 
BRANCH   7   8
ATOM      8  C   UNL     1      90.731  93.228  77.108  1.00  0.00    -0.003 C 
ATOM      9  C   UNL     1      90.171  94.405  76.325  1.00  0.00     0.004 C 
ENDBRANCH   7   8
ENDBRANCH   6   7
ENDBRANCH   5   6
ENDBRANCH   2   5
ENDBRANCH   1   2
BRANCH   1  10
ATOM     10  C   UNL     1      96.538  97.116  75.772  1.00  0.00     0.135 C 
ATOM     11  O   UNL     1      96.428  98.050  74.977  1.00  0.00    -0.300 OA
BRANCH  10  12
ATOM     12  C   UNL     1      97.070  97.306  77.184  1.00  0.00     0.080 C 
BRANCH  12  13
ATOM     13  C   UNL     1      97.674  96.038  77.790  1.00  0.00     0.043 C 
BRANCH  13  14
ATOM     14  C   UNL     1      96.948  95.571  79.029  1.00  0.00    -0.044 A 
ATOM     15  C   UNL     1      97.306  96.075  80.280  1.00  0.00     0.054 A 
ATOM     16  C   UNL     1      95.919  94.634  78.923  1.00  0.00     0.008 A 
ATOM     17  C   UNL     1      96.634  95.644  81.423  1.00  0.00     0.160 A 
ATOM     18  C   UNL     1      95.248  94.203  80.067  1.00  0.00     0.050 A 
ATOM     19  C   UNL     1      95.605  94.707  81.317  1.00  0.00     0.157 A 
BRANCH  17  20
ATOM     20  O   UNL     1      96.993  96.143  82.639  1.00  0.00    -0.493 OA
ATOM     21  C   UNL     1      96.641  97.498  82.913  1.00  0.00     0.278 C 
ENDBRANCH  17  20
BRANCH  19  22
ATOM     22  O   UNL     1      94.942  94.278  82.427  1.00  0.00    -0.504 OA
ATOM     23  H   UNL     1      95.348  93.450  82.738  1.00  0.00     0.293 HD
ENDBRANCH  19  22
ENDBRANCH  13  14
ENDBRANCH  12  13
ENDBRANCH  10  12
ENDBRANCH   1  10
TORSDOF 12
ENDMDL
MODEL 10
REMARK VINA RESULT:    -5.076     13.421     16.105
REMARK INTER + INTRA:         -10.106
REMARK INTER:                  -8.184
REMARK INTRA:                  -1.922
REMARK UNBOUND:                -1.767
REMARK SMILES CCCCC[C@H](O)CC(=O)CCc1ccc(O)c(OC)c1
REMARK SMILES IDX 8 1 6 2 7 3 5 5 4 6 3 7 2 8 1 9 9 10 10 11 11 12 12 13 13 14
REMARK SMILES IDX 21 15 14 16 18 17 15 18 16 19 19 20 20 21 17 22
REMARK H PARENT 7 4 17 23
REMARK Flexibility Score: inf
ROOT
ATOM      1  C   UNL     1      82.803  89.981  84.644  1.00  0.00     0.107 C 
ENDROOT
BRANCH   1   2
ATOM      2  C   UNL     1      82.481  88.489  84.531  1.00  0.00     0.121 C 
BRANCH   2   3
ATOM      3  O   UNL     1      83.337  87.743  85.393  1.00  0.00    -0.393 OA
ATOM      4  H   UNL     1      82.826  87.504  86.186  1.00  0.00     0.210 HD
ENDBRANCH   2   3
BRANCH   2   5
ATOM      5  C   UNL     1      81.020  88.163  84.865  1.00  0.00     0.032 C 
BRANCH   5   6
ATOM      6  C   UNL     1      80.644  86.731  84.468  1.00  0.00     0.003 C 
BRANCH   6   7
ATOM      7  C   UNL     1      80.217  85.864  85.658  1.00  0.00    -0.000 C 
BRANCH   7   8
ATOM      8  C   UNL     1      80.311  86.582  87.003  1.00  0.00    -0.003 C 
ATOM      9  C   UNL     1      81.468  86.050  87.835  1.00  0.00     0.004 C 
ENDBRANCH   7   8
ENDBRANCH   6   7
ENDBRANCH   5   6
ENDBRANCH   2   5
ENDBRANCH   1   2
BRANCH   1  10
ATOM     10  C   UNL     1      84.098  90.256  85.390  1.00  0.00     0.135 C 
ATOM     11  O   UNL     1      85.174  89.835  84.967  1.00  0.00    -0.300 OA
BRANCH  10  12
ATOM     12  C   UNL     1      83.995  91.108  86.646  1.00  0.00     0.080 C 
BRANCH  12  13
ATOM     13  C   UNL     1      83.899  90.292  87.937  1.00  0.00     0.043 C 
BRANCH  13  14
ATOM     14  C   UNL     1      82.475  90.042  88.374  1.00  0.00    -0.044 A 
ATOM     15  C   UNL     1      82.216  89.218  89.470  1.00  0.00     0.054 A 
ATOM     16  C   UNL     1      81.419  90.635  87.682  1.00  0.00     0.008 A 
ATOM     17  C   UNL     1      80.901  88.988  89.873  1.00  0.00     0.160 A 
ATOM     18  C   UNL     1      80.103  90.405  88.086  1.00  0.00     0.050 A 
ATOM     19  C   UNL     1      79.845  89.581  89.181  1.00  0.00     0.157 A 
BRANCH  17  20
ATOM     20  O   UNL     1      80.661  88.181  90.945  1.00  0.00    -0.493 OA
ATOM     21  C   UNL     1      81.698  88.069  91.917  1.00  0.00     0.278 C 
ENDBRANCH  17  20
BRANCH  19  22
ATOM     22  O   UNL     1      78.556  89.364  89.566  1.00  0.00    -0.504 OA
ATOM     23  H   UNL     1      78.441  89.680  90.479  1.00  0.00     0.293 HD
ENDBRANCH  19  22
ENDBRANCH  13  14
ENDBRANCH  12  13
ENDBRANCH  10  12
ENDBRANCH   1  10
TORSDOF 12
ENDMDL
