MODEL 1
REMARK VINA RESULT:    -7.002      0.000      0.000
REMARK INTER + INTRA:         -12.502
REMARK INTER:                 -11.300
REMARK INTRA:                  -1.202
REMARK UNBOUND:                -1.202
REMARK SMILES COc1cc(CNC(=O)CCCCC/C=C/C(C)C)ccc1O
REMARK SMILES IDX 11 1 10 2 8 3 7 4 9 6 6 7 5 8 3 9 22 10 4 11 21 12 20 13
REMARK SMILES IDX 2 14 1 15 23 16 12 18 13 19 14 20 15 21 16 22 17 23 18 24
REMARK SMILES IDX 19 25
REMARK H PARENT 7 5 23 17
REMARK Flexibility Score: inf
ROOT
ATOM      1  C   UNL     1      93.957  94.281  75.420  1.00  0.00     0.010 C 
ENDROOT
BRANCH   1   2
ATOM      2  C   UNL     1      92.500  94.722  75.713  1.00  0.00     0.100 C 
BRANCH   2   3
ATOM      3  C   UNL     1      91.783  93.840  76.652  1.00  0.00     0.220 C 
ATOM      4  N   UNL     1      90.438  93.665  76.526  1.00  0.00    -0.352 N 
ATOM      5  H   UNL     1      90.004  94.235  75.813  1.00  0.00     0.163 HD
ATOM      6  O   UNL     1      92.448  93.235  77.526  1.00  0.00    -0.275 OA
BRANCH   4   7
ATOM      7  C   UNL     1      89.642  92.771  77.301  1.00  0.00     0.151 C 
BRANCH   7   8
ATOM      8  C   UNL     1      89.640  91.388  76.757  1.00  0.00    -0.025 A 
ATOM      9  C   UNL     1      89.184  89.815  74.922  1.00  0.00     0.160 A 
ATOM     10  C   UNL     1      89.590  88.741  75.743  1.00  0.00     0.157 A 
ATOM     11  C   UNL     1      89.203  91.127  75.437  1.00  0.00     0.056 A 
ATOM     12  C   UNL     1      90.043  88.990  77.052  1.00  0.00     0.050 A 
ATOM     13  C   UNL     1      90.078  90.305  77.552  1.00  0.00     0.009 A 
BRANCH   9  14
ATOM     14  O   UNL     1      88.825  89.594  73.619  1.00  0.00    -0.493 OA
ATOM     15  C   UNL     1      89.756  90.114  72.656  1.00  0.00     0.278 C 
ENDBRANCH   9  14
BRANCH  10  16
ATOM     16  O   UNL     1      89.559  87.460  75.296  1.00  0.00    -0.504 OA
ATOM     17  H   UNL     1      90.197  86.935  75.785  1.00  0.00     0.293 HD
ENDBRANCH  10  16
ENDBRANCH   7   8
ENDBRANCH   4   7
ENDBRANCH   2   3
ENDBRANCH   1   2
BRANCH   1  18
ATOM     18  C   UNL     1      94.949  95.455  75.626  1.00  0.00     0.001 C 
BRANCH  18  19
ATOM     19  C   UNL     1      96.128  95.116  76.572  1.00  0.00     0.004 C 
BRANCH  19  20
ATOM     20  C   UNL     1      95.878  93.786  77.336  1.00  0.00     0.027 C 
BRANCH  20  21
ATOM     21  C   UNL     1      95.709  93.958  78.769  1.00  0.00    -0.031 C 
ATOM     22  C   UNL     1      95.473  95.159  79.326  1.00  0.00    -0.028 C 
BRANCH  22  23
ATOM     23  C   UNL     1      95.293  95.364  80.761  1.00  0.00     0.005 C 
ATOM     24  C   UNL     1      95.769  94.114  81.547  1.00  0.00     0.012 C 
ATOM     25  C   UNL     1      96.023  96.658  81.213  1.00  0.00     0.012 C 
ENDBRANCH  22  23
ENDBRANCH  20  21
ENDBRANCH  19  20
ENDBRANCH  18  19
ENDBRANCH   1  18
TORSDOF 11
ENDMDL
MODEL 2
REMARK VINA RESULT:    -6.547      1.723      2.726
REMARK INTER + INTRA:         -11.767
REMARK INTER:                 -10.804
REMARK INTRA:                  -0.964
REMARK UNBOUND:                -1.202
REMARK SMILES COc1cc(CNC(=O)CCCCC/C=C/C(C)C)ccc1O
REMARK SMILES IDX 11 1 10 2 8 3 7 4 9 6 6 7 5 8 3 9 22 10 4 11 21 12 20 13
REMARK SMILES IDX 2 14 1 15 23 16 12 18 13 19 14 20 15 21 16 22 17 23 18 24
REMARK SMILES IDX 19 25
REMARK H PARENT 7 5 23 17
REMARK Flexibility Score: inf
ROOT
ATOM      1  C   UNL     1      94.665  93.689  75.390  1.00  0.00     0.010 C 
ENDROOT
BRANCH   1   2
ATOM      2  C   UNL     1      93.840  94.034  76.657  1.00  0.00     0.100 C 
BRANCH   2   3
ATOM      3  C   UNL     1      92.404  93.718  76.543  1.00  0.00     0.220 C 
ATOM      4  N   UNL     1      91.728  94.035  75.405  1.00  0.00    -0.352 N 
ATOM      5  H   UNL     1      92.269  94.550  74.723  1.00  0.00     0.163 HD
ATOM      6  O   UNL     1      91.849  93.121  77.496  1.00  0.00    -0.275 OA
BRANCH   4   7
ATOM      7  C   UNL     1      90.370  93.701  75.126  1.00  0.00     0.151 C 
BRANCH   7   8
ATOM      8  C   UNL     1      90.237  92.724  74.015  1.00  0.00    -0.025 A 
ATOM      9  C   UNL     1      90.307  90.410  73.185  1.00  0.00     0.160 A 
ATOM     10  C   UNL     1      90.036  90.871  71.878  1.00  0.00     0.157 A 
ATOM     11  C   UNL     1      90.415  91.339  74.240  1.00  0.00     0.056 A 
ATOM     12  C   UNL     1      89.841  92.244  71.645  1.00  0.00     0.050 A 
ATOM     13  C   UNL     1      89.930  93.163  72.707  1.00  0.00     0.009 A 
BRANCH   9  14
ATOM     14  O   UNL     1      90.412  89.067  73.438  1.00  0.00    -0.493 OA
ATOM     15  C   UNL     1      91.131  88.751  74.642  1.00  0.00     0.278 C 
ENDBRANCH   9  14
BRANCH  10  16
ATOM     16  O   UNL     1      89.953  90.012  70.831  1.00  0.00    -0.504 OA
ATOM     17  H   UNL     1      89.455  90.423  70.120  1.00  0.00     0.293 HD
ENDBRANCH  10  16
ENDBRANCH   7   8
ENDBRANCH   4   7
ENDBRANCH   2   3
ENDBRANCH   1   2
BRANCH   1  18
ATOM     18  C   UNL     1      95.900  94.616  75.257  1.00  0.00     0.001 C 
BRANCH  18  19
ATOM     19  C   UNL     1      95.910  95.790  76.268  1.00  0.00     0.004 C 
BRANCH  19  20
ATOM     20  C   UNL     1      96.927  95.541  77.417  1.00  0.00     0.027 C 
BRANCH  20  21
ATOM     21  C   UNL     1      96.384  95.786  78.742  1.00  0.00    -0.031 C 
ATOM     22  C   UNL     1      96.023  94.788  79.567  1.00  0.00    -0.028 C 
BRANCH  22  23
ATOM     23  C   UNL     1      95.479  95.002  80.906  1.00  0.00     0.005 C 
ATOM     24  C   UNL     1      95.847  93.812  81.832  1.00  0.00     0.012 C 
ATOM     25  C   UNL     1      95.967  96.363  81.473  1.00  0.00     0.012 C 
ENDBRANCH  22  23
ENDBRANCH  20  21
ENDBRANCH  19  20
ENDBRANCH  18  19
ENDBRANCH   1  18
TORSDOF 11
ENDMDL
MODEL 3
REMARK VINA RESULT:    -5.787     19.499     22.578
REMARK INTER + INTRA:         -10.542
REMARK INTER:                  -9.063
REMARK INTRA:                  -1.478
REMARK UNBOUND:                -1.202
REMARK SMILES COc1cc(CNC(=O)CCCCC/C=C/C(C)C)ccc1O
REMARK SMILES IDX 11 1 10 2 8 3 7 4 9 6 6 7 5 8 3 9 22 10 4 11 21 12 20 13
REMARK SMILES IDX 2 14 1 15 23 16 12 18 13 19 14 20 15 21 16 22 17 23 18 24
REMARK SMILES IDX 19 25
REMARK H PARENT 7 5 23 17
REMARK Flexibility Score: inf
ROOT
ATOM      1  C   UNL     1      75.832  84.383  68.178  1.00  0.00     0.010 C 
ENDROOT
BRANCH   1   2
ATOM      2  C   UNL     1      75.102  85.735  67.967  1.00  0.00     0.100 C 
BRANCH   2   3
ATOM      3  C   UNL     1      73.754  85.604  67.383  1.00  0.00     0.220 C 
ATOM      4  N   UNL     1      73.587  85.704  66.035  1.00  0.00    -0.352 N 
ATOM      5  H   UNL     1      74.425  85.942  65.523  1.00  0.00     0.163 HD
ATOM      6  O   UNL     1      72.793  85.361  68.151  1.00  0.00    -0.275 OA
BRANCH   4   7
ATOM      7  C   UNL     1      72.360  85.503  65.334  1.00  0.00     0.151 C 
BRANCH   7   8
ATOM      8  C   UNL     1      72.120  84.075  65.001  1.00  0.00    -0.025 A 
ATOM      9  C   UNL     1      72.951  81.892  64.231  1.00  0.00     0.160 A 
ATOM     10  C   UNL     1      71.643  81.365  64.316  1.00  0.00     0.157 A 
ATOM     11  C   UNL     1      73.177  83.242  64.565  1.00  0.00     0.056 A 
ATOM     12  C   UNL     1      70.587  82.179  64.764  1.00  0.00     0.050 A 
ATOM     13  C   UNL     1      70.825  83.521  65.115  1.00  0.00     0.009 A 
BRANCH   9  14
ATOM     14  O   UNL     1      74.000  81.085  63.880  1.00  0.00    -0.493 OA
ATOM     15  C   UNL     1      75.293  81.681  64.083  1.00  0.00     0.278 C 
ENDBRANCH   9  14
BRANCH  10  16
ATOM     16  O   UNL     1      71.378  80.079  63.977  1.00  0.00    -0.504 OA
ATOM     17  H   UNL     1      70.826  80.063  63.190  1.00  0.00     0.293 HD
ENDBRANCH  10  16
ENDBRANCH   7   8
ENDBRANCH   4   7
ENDBRANCH   2   3
ENDBRANCH   1   2
BRANCH   1  18
ATOM     18  C   UNL     1      76.439  83.862  66.850  1.00  0.00     0.001 C 
BRANCH  18  19
ATOM     19  C   UNL     1      77.952  84.160  66.698  1.00  0.00     0.004 C 
BRANCH  19  20
ATOM     20  C   UNL     1      78.269  84.792  65.314  1.00  0.00     0.027 C 
BRANCH  20  21
ATOM     21  C   UNL     1      77.999  86.218  65.247  1.00  0.00    -0.031 C 
ATOM     22  C   UNL     1      78.186  87.035  66.298  1.00  0.00    -0.028 C 
BRANCH  22  23
ATOM     23  C   UNL     1      77.929  88.472  66.262  1.00  0.00     0.005 C 
ATOM     24  C   UNL     1      77.667  88.935  64.804  1.00  0.00     0.012 C 
ATOM     25  C   UNL     1      76.758  88.833  67.215  1.00  0.00     0.012 C 
ENDBRANCH  22  23
ENDBRANCH  20  21
ENDBRANCH  19  20
ENDBRANCH  18  19
ENDBRANCH   1  18
TORSDOF 11
ENDMDL
MODEL 4
REMARK VINA RESULT:    -5.677     11.953     13.926
REMARK INTER + INTRA:         -10.364
REMARK INTER:                  -8.115
REMARK INTRA:                  -2.249
REMARK UNBOUND:                -1.202
REMARK SMILES COc1cc(CNC(=O)CCCCC/C=C/C(C)C)ccc1O
REMARK SMILES IDX 11 1 10 2 8 3 7 4 9 6 6 7 5 8 3 9 22 10 4 11 21 12 20 13
REMARK SMILES IDX 2 14 1 15 23 16 12 18 13 19 14 20 15 21 16 22 17 23 18 24
REMARK SMILES IDX 19 25
REMARK H PARENT 7 5 23 17
REMARK Flexibility Score: inf
ROOT
ATOM      1  C   UNL     1      99.411  82.962  74.625  1.00  0.00     0.010 C 
ENDROOT
BRANCH   1   2
ATOM      2  C   UNL     1      98.095  82.314  75.130  1.00  0.00     0.100 C 
BRANCH   2   3
ATOM      3  C   UNL     1      97.472  83.026  76.261  1.00  0.00     0.220 C 
ATOM      4  N   UNL     1      96.973  82.320  77.314  1.00  0.00    -0.352 N 
ATOM      5  H   UNL     1      97.006  81.316  77.201  1.00  0.00     0.163 HD
ATOM      6  O   UNL     1      97.455  84.279  76.240  1.00  0.00    -0.275 OA
BRANCH   4   7
ATOM      7  C   UNL     1      96.435  82.882  78.509  1.00  0.00     0.151 C 
BRANCH   7   8
ATOM      8  C   UNL     1      97.265  82.586  79.705  1.00  0.00    -0.025 A 
ATOM      9  C   UNL     1      97.455  81.855  82.046  1.00  0.00     0.160 A 
ATOM     10  C   UNL     1      98.849  82.074  82.000  1.00  0.00     0.157 A 
ATOM     11  C   UNL     1      96.674  82.121  80.903  1.00  0.00     0.056 A 
ATOM     12  C   UNL     1      99.451  82.520  80.809  1.00  0.00     0.050 A 
ATOM     13  C   UNL     1      98.666  82.764  79.667  1.00  0.00     0.009 A 
BRANCH   9  14
ATOM     14  O   UNL     1      96.872  81.337  83.172  1.00  0.00    -0.493 OA
ATOM     15  C   UNL     1      95.976  82.242  83.838  1.00  0.00     0.278 C 
ENDBRANCH   9  14
BRANCH  10  16
ATOM     16  O   UNL     1      99.633  81.857  83.086  1.00  0.00    -0.504 OA
ATOM     17  H   UNL     1     100.555  81.966  82.841  1.00  0.00     0.293 HD
ENDBRANCH  10  16
ENDBRANCH   7   8
ENDBRANCH   4   7
ENDBRANCH   2   3
ENDBRANCH   1   2
BRANCH   1  18
ATOM     18  C   UNL     1     100.639  82.086  74.981  1.00  0.00     0.001 C 
BRANCH  18  19
ATOM     19  C   UNL     1     101.122  82.255  76.443  1.00  0.00     0.004 C 
BRANCH  19  20
ATOM     20  C   UNL     1     101.365  80.879  77.123  1.00  0.00     0.027 C 
BRANCH  20  21
ATOM     21  C   UNL     1     100.221  80.388  77.874  1.00  0.00    -0.031 C 
ATOM     22  C   UNL     1      99.299  79.576  77.329  1.00  0.00    -0.028 C 
BRANCH  22  23
ATOM     23  C   UNL     1      98.142  79.061  78.058  1.00  0.00     0.005 C 
ATOM     24  C   UNL     1      97.737  77.667  77.510  1.00  0.00     0.012 C 
ATOM     25  C   UNL     1      98.437  79.033  79.582  1.00  0.00     0.012 C 
ENDBRANCH  22  23
ENDBRANCH  20  21
ENDBRANCH  19  20
ENDBRANCH  18  19
ENDBRANCH   1  18
TORSDOF 11
ENDMDL
MODEL 5
REMARK VINA RESULT:    -5.647     25.563     28.469
REMARK INTER + INTRA:         -10.315
REMARK INTER:                  -7.981
REMARK INTRA:                  -2.334
REMARK UNBOUND:                -1.202
REMARK SMILES COc1cc(CNC(=O)CCCCC/C=C/C(C)C)ccc1O
REMARK SMILES IDX 11 1 10 2 8 3 7 4 9 6 6 7 5 8 3 9 22 10 4 11 21 12 20 13
REMARK SMILES IDX 2 14 1 15 23 16 12 18 13 19 14 20 15 21 16 22 17 23 18 24
REMARK SMILES IDX 19 25
REMARK H PARENT 7 5 23 17
REMARK Flexibility Score: inf
ROOT
ATOM      1  C   UNL     1      80.805  67.027  71.266  1.00  0.00     0.010 C 
ENDROOT
BRANCH   1   2
ATOM      2  C   UNL     1      80.362  67.414  72.701  1.00  0.00     0.100 C 
BRANCH   2   3
ATOM      3  C   UNL     1      80.668  66.392  73.719  1.00  0.00     0.220 C 
ATOM      4  N   UNL     1      81.063  65.147  73.333  1.00  0.00    -0.352 N 
ATOM      5  H   UNL     1      81.047  64.991  72.335  1.00  0.00     0.163 HD
ATOM      6  O   UNL     1      80.593  66.714  74.928  1.00  0.00    -0.275 OA
BRANCH   4   7
ATOM      7  C   UNL     1      81.480  64.100  74.208  1.00  0.00     0.151 C 
BRANCH   7   8
ATOM      8  C   UNL     1      82.946  64.106  74.449  1.00  0.00    -0.025 A 
ATOM      9  C   UNL     1      84.863  63.830  75.966  1.00  0.00     0.160 A 
ATOM     10  C   UNL     1      85.742  64.172  74.915  1.00  0.00     0.157 A 
ATOM     11  C   UNL     1      83.474  63.808  75.728  1.00  0.00     0.056 A 
ATOM     12  C   UNL     1      85.230  64.454  73.635  1.00  0.00     0.050 A 
ATOM     13  C   UNL     1      83.843  64.411  73.401  1.00  0.00     0.009 A 
BRANCH   9  14
ATOM     14  O   UNL     1      85.356  63.469  77.192  1.00  0.00    -0.493 OA
ATOM     15  C   UNL     1      85.293  64.510  78.180  1.00  0.00     0.278 C 
ENDBRANCH   9  14
BRANCH  10  16
ATOM     16  O   UNL     1      87.083  64.232  75.110  1.00  0.00    -0.504 OA
ATOM     17  H   UNL     1      87.480  63.392  74.866  1.00  0.00     0.293 HD
ENDBRANCH  10  16
ENDBRANCH   7   8
ENDBRANCH   4   7
ENDBRANCH   2   3
ENDBRANCH   1   2
BRANCH   1  18
ATOM     18  C   UNL     1      82.277  67.437  71.006  1.00  0.00     0.001 C 
BRANCH  18  19
ATOM     19  C   UNL     1      82.783  68.569  71.936  1.00  0.00     0.004 C 
BRANCH  19  20
ATOM     20  C   UNL     1      84.147  68.202  72.586  1.00  0.00     0.027 C 
BRANCH  20  21
ATOM     21  C   UNL     1      84.051  67.869  73.997  1.00  0.00    -0.031 C 
ATOM     22  C   UNL     1      85.023  68.175  74.875  1.00  0.00    -0.028 C 
BRANCH  22  23
ATOM     23  C   UNL     1      84.954  67.860  76.300  1.00  0.00     0.005 C 
ATOM     24  C   UNL     1      85.470  69.057  77.141  1.00  0.00     0.012 C 
ATOM     25  C   UNL     1      83.509  67.445  76.689  1.00  0.00     0.012 C 
ENDBRANCH  22  23
ENDBRANCH  20  21
ENDBRANCH  19  20
ENDBRANCH  18  19
ENDBRANCH   1  18
TORSDOF 11
ENDMDL
MODEL 6
REMARK VINA RESULT:    -5.556     12.530     14.000
REMARK INTER + INTRA:         -10.168
REMARK INTER:                  -8.781
REMARK INTRA:                  -1.387
REMARK UNBOUND:                -1.202
REMARK SMILES COc1cc(CNC(=O)CCCCC/C=C/C(C)C)ccc1O
REMARK SMILES IDX 11 1 10 2 8 3 7 4 9 6 6 7 5 8 3 9 22 10 4 11 21 12 20 13
REMARK SMILES IDX 2 14 1 15 23 16 12 18 13 19 14 20 15 21 16 22 17 23 18 24
REMARK SMILES IDX 19 25
REMARK H PARENT 7 5 23 17
REMARK Flexibility Score: inf
ROOT
ATOM      1  C   UNL     1      99.302  83.071  74.750  1.00  0.00     0.010 C 
ENDROOT
BRANCH   1   2
ATOM      2  C   UNL     1      98.050  82.304  75.251  1.00  0.00     0.100 C 
BRANCH   2   3
ATOM      3  C   UNL     1      97.373  82.943  76.395  1.00  0.00     0.220 C 
ATOM      4  N   UNL     1      96.895  82.176  77.414  1.00  0.00    -0.352 N 
ATOM      5  H   UNL     1      96.981  81.180  77.268  1.00  0.00     0.163 HD
ATOM      6  O   UNL     1      97.292  84.194  76.416  1.00  0.00    -0.275 OA
BRANCH   4   7
ATOM      7  C   UNL     1      96.310  82.669  78.618  1.00  0.00     0.151 C 
BRANCH   7   8
ATOM      8  C   UNL     1      97.161  82.421  79.811  1.00  0.00    -0.025 A 
ATOM      9  C   UNL     1      97.556  82.615  82.230  1.00  0.00     0.160 A 
ATOM     10  C   UNL     1      98.814  81.994  82.074  1.00  0.00     0.157 A 
ATOM     11  C   UNL     1      96.744  82.831  81.098  1.00  0.00     0.056 A 
ATOM     12  C   UNL     1      99.232  81.567  80.800  1.00  0.00     0.050 A 
ATOM     13  C   UNL     1      98.407  81.769  79.678  1.00  0.00     0.009 A 
BRANCH   9  14
ATOM     14  O   UNL     1      97.102  82.955  83.477  1.00  0.00    -0.493 OA
ATOM     15  C   UNL     1      97.027  84.371  83.709  1.00  0.00     0.278 C 
ENDBRANCH   9  14
BRANCH  10  16
ATOM     16  O   UNL     1      99.638  81.793  83.133  1.00  0.00    -0.504 OA
ATOM     17  H   UNL     1     100.398  81.278  82.853  1.00  0.00     0.293 HD
ENDBRANCH  10  16
ENDBRANCH   7   8
ENDBRANCH   4   7
ENDBRANCH   2   3
ENDBRANCH   1   2
BRANCH   1  18
ATOM     18  C   UNL     1     100.607  82.354  75.180  1.00  0.00     0.001 C 
BRANCH  18  19
ATOM     19  C   UNL     1     100.847  82.364  76.711  1.00  0.00     0.004 C 
BRANCH  19  20
ATOM     20  C   UNL     1     100.988  80.921  77.272  1.00  0.00     0.027 C 
BRANCH  20  21
ATOM     21  C   UNL     1     102.289  80.646  77.857  1.00  0.00    -0.031 C 
ATOM     22  C   UNL     1     102.457  80.454  79.178  1.00  0.00    -0.028 C 
BRANCH  22  23
ATOM     23  C   UNL     1     103.750  80.170  79.796  1.00  0.00     0.005 C 
ATOM     24  C   UNL     1     103.610  79.025  80.834  1.00  0.00     0.012 C 
ATOM     25  C   UNL     1     104.808  79.851  78.705  1.00  0.00     0.012 C 
ENDBRANCH  22  23
ENDBRANCH  20  21
ENDBRANCH  19  20
ENDBRANCH  18  19
ENDBRANCH   1  18
TORSDOF 11
ENDMDL
MODEL 7
REMARK VINA RESULT:    -5.498     24.642     28.033
REMARK INTER + INTRA:         -10.075
REMARK INTER:                  -8.829
REMARK INTRA:                  -1.246
REMARK UNBOUND:                -1.202
REMARK SMILES COc1cc(CNC(=O)CCCCC/C=C/C(C)C)ccc1O
REMARK SMILES IDX 11 1 10 2 8 3 7 4 9 6 6 7 5 8 3 9 22 10 4 11 21 12 20 13
REMARK SMILES IDX 2 14 1 15 23 16 12 18 13 19 14 20 15 21 16 22 17 23 18 24
REMARK SMILES IDX 19 25
REMARK H PARENT 7 5 23 17
REMARK Flexibility Score: inf
ROOT
ATOM      1  C   UNL     1      80.247  64.155  73.797  1.00  0.00     0.010 C 
ENDROOT
BRANCH   1   2
ATOM      2  C   UNL     1      79.829  65.647  73.739  1.00  0.00     0.100 C 
BRANCH   2   3
ATOM      3  C   UNL     1      80.371  66.377  72.578  1.00  0.00     0.220 C 
ATOM      4  N   UNL     1      81.343  67.313  72.759  1.00  0.00    -0.352 N 
ATOM      5  H   UNL     1      81.579  67.494  73.725  1.00  0.00     0.163 HD
ATOM      6  O   UNL     1      79.943  66.083  71.437  1.00  0.00    -0.275 OA
BRANCH   4   7
ATOM      7  C   UNL     1      82.019  68.019  71.720  1.00  0.00     0.151 C 
BRANCH   7   8
ATOM      8  C   UNL     1      83.347  68.532  72.147  1.00  0.00    -0.025 A 
ATOM      9  C   UNL     1      85.195  68.587  73.769  1.00  0.00     0.160 A 
ATOM     10  C   UNL     1      85.856  69.555  72.981  1.00  0.00     0.157 A 
ATOM     11  C   UNL     1      83.943  68.091  73.351  1.00  0.00     0.056 A 
ATOM     12  C   UNL     1      85.281  69.988  71.773  1.00  0.00     0.050 A 
ATOM     13  C   UNL     1      84.040  69.473  71.353  1.00  0.00     0.009 A 
BRANCH   9  14
ATOM     14  O   UNL     1      85.786  68.094  74.902  1.00  0.00    -0.493 OA
ATOM     15  C   UNL     1      85.291  68.670  76.122  1.00  0.00     0.278 C 
ENDBRANCH   9  14
BRANCH  10  16
ATOM     16  O   UNL     1      87.048  70.079  73.362  1.00  0.00    -0.504 OA
ATOM     17  H   UNL     1      87.354  70.695  72.692  1.00  0.00     0.293 HD
ENDBRANCH  10  16
ENDBRANCH   7   8
ENDBRANCH   4   7
ENDBRANCH   2   3
ENDBRANCH   1   2
BRANCH   1  18
ATOM     18  C   UNL     1      81.606  63.982  74.521  1.00  0.00     0.001 C 
BRANCH  18  19
ATOM     19  C   UNL     1      81.793  64.934  75.730  1.00  0.00     0.004 C 
BRANCH  19  20
ATOM     20  C   UNL     1      83.278  65.366  75.886  1.00  0.00     0.027 C 
BRANCH  20  21
ATOM     21  C   UNL     1      83.968  64.701  76.978  1.00  0.00    -0.031 C 
ATOM     22  C   UNL     1      85.105  65.184  77.511  1.00  0.00    -0.028 C 
BRANCH  22  23
ATOM     23  C   UNL     1      85.819  64.542  78.612  1.00  0.00     0.005 C 
ATOM     24  C   UNL     1      86.309  65.607  79.628  1.00  0.00     0.012 C 
ATOM     25  C   UNL     1      84.923  63.461  79.275  1.00  0.00     0.012 C 
ENDBRANCH  22  23
ENDBRANCH  20  21
ENDBRANCH  19  20
ENDBRANCH  18  19
ENDBRANCH   1  18
TORSDOF 11
ENDMDL
MODEL 8
REMARK VINA RESULT:    -5.428     22.508     27.143
REMARK INTER + INTRA:          -9.961
REMARK INTER:                  -9.037
REMARK INTRA:                  -0.925
REMARK UNBOUND:                -1.202
REMARK SMILES COc1cc(CNC(=O)CCCCC/C=C/C(C)C)ccc1O
REMARK SMILES IDX 11 1 10 2 8 3 7 4 9 6 6 7 5 8 3 9 22 10 4 11 21 12 20 13
REMARK SMILES IDX 2 14 1 15 23 16 12 18 13 19 14 20 15 21 16 22 17 23 18 24
REMARK SMILES IDX 19 25
REMARK H PARENT 7 5 23 17
REMARK Flexibility Score: inf
ROOT
ATOM      1  C   UNL     1      83.478  66.746  71.003  1.00  0.00     0.010 C 
ENDROOT
BRANCH   1   2
ATOM      2  C   UNL     1      84.655  66.883  70.003  1.00  0.00     0.100 C 
BRANCH   2   3
ATOM      3  C   UNL     1      85.858  67.516  70.574  1.00  0.00     0.220 C 
ATOM      4  N   UNL     1      85.950  68.874  70.627  1.00  0.00    -0.352 N 
ATOM      5  H   UNL     1      85.184  69.365  70.186  1.00  0.00     0.163 HD
ATOM      6  O   UNL     1      86.757  66.776  71.038  1.00  0.00    -0.275 OA
BRANCH   4   7
ATOM      7  C   UNL     1      87.008  69.611  71.238  1.00  0.00     0.151 C 
BRANCH   7   8
ATOM      8  C   UNL     1      87.676  70.543  70.293  1.00  0.00    -0.025 A 
ATOM      9  C   UNL     1      87.746  71.696  68.122  1.00  0.00     0.160 A 
ATOM     10  C   UNL     1      88.983  72.281  68.474  1.00  0.00     0.157 A 
ATOM     11  C   UNL     1      87.108  70.826  69.029  1.00  0.00     0.056 A 
ATOM     12  C   UNL     1      89.548  72.019  69.735  1.00  0.00     0.050 A 
ATOM     13  C   UNL     1      88.895  71.165  70.642  1.00  0.00     0.009 A 
BRANCH   9  14
ATOM     14  O   UNL     1      87.144  72.013  66.933  1.00  0.00    -0.493 OA
ATOM     15  C   UNL     1      86.548  70.892  66.259  1.00  0.00     0.278 C 
ENDBRANCH   9  14
BRANCH  10  16
ATOM     16  O   UNL     1      89.643  73.101  67.619  1.00  0.00    -0.504 OA
ATOM     17  H   UNL     1      89.059  73.810  67.340  1.00  0.00     0.293 HD
ENDBRANCH  10  16
ENDBRANCH   7   8
ENDBRANCH   4   7
ENDBRANCH   2   3
ENDBRANCH   1   2
BRANCH   1  18
ATOM     18  C   UNL     1      82.432  67.871  70.795  1.00  0.00     0.001 C 
BRANCH  18  19
ATOM     19  C   UNL     1      81.196  67.752  71.721  1.00  0.00     0.004 C 
BRANCH  19  20
ATOM     20  C   UNL     1      80.270  66.583  71.283  1.00  0.00     0.027 C 
BRANCH  20  21
ATOM     21  C   UNL     1      80.168  65.519  72.267  1.00  0.00    -0.031 C 
ATOM     22  C   UNL     1      80.976  65.451  73.340  1.00  0.00    -0.028 C 
BRANCH  22  23
ATOM     23  C   UNL     1      80.896  64.398  74.349  1.00  0.00     0.005 C 
ATOM     24  C   UNL     1      79.778  63.386  73.982  1.00  0.00     0.012 C 
ATOM     25  C   UNL     1      82.279  63.713  74.522  1.00  0.00     0.012 C 
ENDBRANCH  22  23
ENDBRANCH  20  21
ENDBRANCH  19  20
ENDBRANCH  18  19
ENDBRANCH   1  18
TORSDOF 11
ENDMDL
MODEL 9
REMARK VINA RESULT:    -5.409     27.372     30.353
REMARK INTER + INTRA:          -9.932
REMARK INTER:                  -9.075
REMARK INTRA:                  -0.857
REMARK UNBOUND:                -1.202
REMARK SMILES COc1cc(CNC(=O)CCCCC/C=C/C(C)C)ccc1O
REMARK SMILES IDX 11 1 10 2 8 3 7 4 9 6 6 7 5 8 3 9 22 10 4 11 21 12 20 13
REMARK SMILES IDX 2 14 1 15 23 16 12 18 13 19 14 20 15 21 16 22 17 23 18 24
REMARK SMILES IDX 19 25
REMARK H PARENT 7 5 23 17
REMARK Flexibility Score: inf
ROOT
ATOM      1  C   UNL     1      63.173  84.505  75.882  1.00  0.00     0.010 C 
ENDROOT
BRANCH   1   2
ATOM      2  C   UNL     1      64.074  83.247  75.792  1.00  0.00     0.100 C 
BRANCH   2   3
ATOM      3  C   UNL     1      63.684  82.304  74.727  1.00  0.00     0.220 C 
ATOM      4  N   UNL     1      62.367  82.119  74.435  1.00  0.00    -0.352 N 
ATOM      5  H   UNL     1      61.727  82.609  75.045  1.00  0.00     0.163 HD
ATOM      6  O   UNL     1      64.590  81.721  74.085  1.00  0.00    -0.275 OA
BRANCH   4   7
ATOM      7  C   UNL     1      61.857  81.315  73.372  1.00  0.00     0.151 C 
BRANCH   7   8
ATOM      8  C   UNL     1      61.855  82.027  72.068  1.00  0.00    -0.025 A 
ATOM      9  C   UNL     1      61.105  83.896  70.656  1.00  0.00     0.160 A 
ATOM     10  C   UNL     1      61.810  83.350  69.561  1.00  0.00     0.157 A 
ATOM     11  C   UNL     1      61.125  83.226  71.896  1.00  0.00     0.056 A 
ATOM     12  C   UNL     1      62.553  82.167  69.724  1.00  0.00     0.050 A 
ATOM     13  C   UNL     1      62.584  81.515  70.971  1.00  0.00     0.009 A 
BRANCH   9  14
ATOM     14  O   UNL     1      60.451  85.092  70.531  1.00  0.00    -0.493 OA
ATOM     15  C   UNL     1      59.481  85.343  71.562  1.00  0.00     0.278 C 
ENDBRANCH   9  14
BRANCH  10  16
ATOM     16  O   UNL     1      61.793  83.948  68.343  1.00  0.00    -0.504 OA
ATOM     17  H   UNL     1      61.573  83.298  67.671  1.00  0.00     0.293 HD
ENDBRANCH  10  16
ENDBRANCH   7   8
ENDBRANCH   4   7
ENDBRANCH   2   3
ENDBRANCH   1   2
BRANCH   1  18
ATOM     18  C   UNL     1      63.971  85.730  76.397  1.00  0.00     0.001 C 
BRANCH  18  19
ATOM     19  C   UNL     1      65.478  85.443  76.617  1.00  0.00     0.004 C 
BRANCH  19  20
ATOM     20  C   UNL     1      66.089  86.401  77.678  1.00  0.00     0.027 C 
BRANCH  20  21
ATOM     21  C   UNL     1      66.204  85.811  79.000  1.00  0.00    -0.031 C 
ATOM     22  C   UNL     1      66.536  86.535  80.084  1.00  0.00    -0.028 C 
BRANCH  22  23
ATOM     23  C   UNL     1      66.655  85.973  81.427  1.00  0.00     0.005 C 
ATOM     24  C   UNL     1      65.251  85.813  82.070  1.00  0.00     0.012 C 
ATOM     25  C   UNL     1      67.438  84.633  81.381  1.00  0.00     0.012 C 
ENDBRANCH  22  23
ENDBRANCH  20  21
ENDBRANCH  19  20
ENDBRANCH  18  19
ENDBRANCH   1  18
TORSDOF 11
ENDMDL
MODEL 10
REMARK VINA RESULT:    -5.253     11.560     13.815
REMARK INTER + INTRA:          -9.680
REMARK INTER:                  -8.971
REMARK INTRA:                  -0.709
REMARK UNBOUND:                -1.202
REMARK SMILES COc1cc(CNC(=O)CCCCC/C=C/C(C)C)ccc1O
REMARK SMILES IDX 11 1 10 2 8 3 7 4 9 6 6 7 5 8 3 9 22 10 4 11 21 12 20 13
REMARK SMILES IDX 2 14 1 15 23 16 12 18 13 19 14 20 15 21 16 22 17 23 18 24
REMARK SMILES IDX 19 25
REMARK H PARENT 7 5 23 17
REMARK Flexibility Score: inf
ROOT
ATOM      1  C   UNL     1      96.226  81.287  83.207  1.00  0.00     0.010 C 
ENDROOT
BRANCH   1   2
ATOM      2  C   UNL     1      96.256  81.700  84.701  1.00  0.00     0.100 C 
BRANCH   2   3
ATOM      3  C   UNL     1      96.463  83.144  84.921  1.00  0.00     0.220 C 
ATOM      4  N   UNL     1      95.465  84.024  84.633  1.00  0.00    -0.352 N 
ATOM      5  H   UNL     1      94.648  83.609  84.205  1.00  0.00     0.163 HD
ATOM      6  O   UNL     1      97.554  83.521  85.412  1.00  0.00    -0.275 OA
BRANCH   4   7
ATOM      7  C   UNL     1      95.497  85.427  84.887  1.00  0.00     0.151 C 
BRANCH   7   8
ATOM      8  C   UNL     1      94.771  85.801  86.129  1.00  0.00    -0.025 A 
ATOM      9  C   UNL     1      94.486  87.277  88.075  1.00  0.00     0.160 A 
ATOM     10  C   UNL     1      93.414  86.476  88.525  1.00  0.00     0.157 A 
ATOM     11  C   UNL     1      95.161  86.929  86.887  1.00  0.00     0.056 A 
ATOM     12  C   UNL     1      93.006  85.361  87.770  1.00  0.00     0.050 A 
ATOM     13  C   UNL     1      93.673  85.032  86.575  1.00  0.00     0.009 A 
BRANCH   9  14
ATOM     14  O   UNL     1      94.835  88.413  88.756  1.00  0.00    -0.493 OA
ATOM     15  C   UNL     1      94.910  89.590  87.934  1.00  0.00     0.278 C 
ENDBRANCH   9  14
BRANCH  10  16
ATOM     16  O   UNL     1      92.757  86.760  89.677  1.00  0.00    -0.504 OA
ATOM     17  H   UNL     1      93.244  86.396  90.421  1.00  0.00     0.293 HD
ENDBRANCH  10  16
ENDBRANCH   7   8
ENDBRANCH   4   7
ENDBRANCH   2   3
ENDBRANCH   1   2
BRANCH   1  18
ATOM     18  C   UNL     1      97.504  81.763  82.469  1.00  0.00     0.001 C 
BRANCH  18  19
ATOM     19  C   UNL     1      97.223  82.766  81.321  1.00  0.00     0.004 C 
BRANCH  19  20
ATOM     20  C   UNL     1      96.883  82.029  79.996  1.00  0.00     0.027 C 
BRANCH  20  21
ATOM     21  C   UNL     1      97.293  82.750  78.803  1.00  0.00    -0.031 C 
ATOM     22  C   UNL     1      97.141  82.242  77.568  1.00  0.00    -0.028 C 
BRANCH  22  23
ATOM     23  C   UNL     1      97.538  82.944  76.350  1.00  0.00     0.005 C 
ATOM     24  C   UNL     1      99.078  83.128  76.313  1.00  0.00     0.012 C 
ATOM     25  C   UNL     1      97.003  82.194  75.099  1.00  0.00     0.012 C 
ENDBRANCH  22  23
ENDBRANCH  20  21
ENDBRANCH  19  20
ENDBRANCH  18  19
ENDBRANCH   1  18
TORSDOF 11
ENDMDL
