MODEL 1
REMARK VINA RESULT:    -6.926      0.000      0.000
REMARK INTER + INTRA:         -11.845
REMARK INTER:                 -10.772
REMARK INTRA:                  -1.072
REMARK UNBOUND:                -1.072
REMARK SMILES CCCCC/C=C/C(=O)CCc1ccc(O)c(OC)c1
REMARK SMILES IDX 6 1 7 2 8 3 9 4 10 5 11 6 12 7 17 8 20 9 15 10 14 11 13 12
REMARK SMILES IDX 18 13 19 14 16 15 5 17 4 18 3 19 2 20 1 21
REMARK H PARENT 16 16
REMARK Flexibility Score: inf
ROOT
ATOM      1  C   UNL     1      91.579  92.854  74.873  1.00  0.00    -0.023 C 
ATOM      2  C   UNL     1      90.586  93.421  74.177  1.00  0.00     0.043 C 
ENDROOT
BRANCH   2   3
ATOM      3  C   UNL     1      90.056  92.750  72.959  1.00  0.00     0.155 C 
ATOM      4  O   UNL     1      89.172  93.257  72.272  1.00  0.00    -0.295 OA
BRANCH   3   5
ATOM      5  C   UNL     1      90.626  91.382  72.639  1.00  0.00     0.085 C 
BRANCH   5   6
ATOM      6  C   UNL     1      89.638  90.271  72.999  1.00  0.00     0.044 C 
BRANCH   6   7
ATOM      7  C   UNL     1      90.033  89.516  74.247  1.00  0.00    -0.044 A 
ATOM      8  C   UNL     1      90.025  89.312  76.638  1.00  0.00     0.160 A 
ATOM      9  C   UNL     1      89.660  90.010  75.486  1.00  0.00     0.054 A 
ATOM     10  C   UNL     1      90.757  88.130  76.535  1.00  0.00     0.157 A 
ATOM     11  C   UNL     1      91.126  87.645  75.279  1.00  0.00     0.050 A 
ATOM     12  C   UNL     1      90.761  88.343  74.128  1.00  0.00     0.008 A 
BRANCH   8  13
ATOM     13  O   UNL     1      89.659  89.796  77.858  1.00  0.00    -0.493 OA
ATOM     14  C   UNL     1      90.297  90.993  78.298  1.00  0.00     0.278 C 
ENDBRANCH   8  13
BRANCH  10  15
ATOM     15  O   UNL     1      91.119  87.439  77.652  1.00  0.00    -0.504 OA
ATOM     16  H   UNL     1      90.613  87.790  78.405  1.00  0.00     0.293 HD
ENDBRANCH  10  15
ENDBRANCH   6   7
ENDBRANCH   5   6
ENDBRANCH   3   5
ENDBRANCH   2   3
BRANCH   1  17
ATOM     17  C   UNL     1      92.168  93.466  76.110  1.00  0.00     0.027 C 
BRANCH  17  18
ATOM     18  C   UNL     1      93.298  94.457  75.812  1.00  0.00     0.004 C 
BRANCH  18  19
ATOM     19  C   UNL     1      94.587  93.790  75.321  1.00  0.00     0.000 C 
BRANCH  19  20
ATOM     20  C   UNL     1      95.782  94.734  75.453  1.00  0.00    -0.003 C 
ATOM     21  C   UNL     1      95.375  96.183  75.234  1.00  0.00     0.004 C 
ENDBRANCH  19  20
ENDBRANCH  18  19
ENDBRANCH  17  18
ENDBRANCH   1  17
TORSDOF 10
ENDMDL
MODEL 2
REMARK VINA RESULT:    -6.085      3.391      7.007
REMARK INTER + INTRA:         -10.536
REMARK INTER:                  -9.840
REMARK INTRA:                  -0.696
REMARK UNBOUND:                -1.072
REMARK SMILES CCCCC/C=C/C(=O)CCc1ccc(O)c(OC)c1
REMARK SMILES IDX 6 1 7 2 8 3 9 4 10 5 11 6 12 7 17 8 20 9 15 10 14 11 13 12
REMARK SMILES IDX 18 13 19 14 16 15 5 17 4 18 3 19 2 20 1 21
REMARK H PARENT 16 16
REMARK Flexibility Score: inf
ROOT
ATOM      1  C   UNL     1      89.443  90.707  75.689  1.00  0.00    -0.023 C 
ATOM      2  C   UNL     1      90.453  91.018  76.510  1.00  0.00     0.043 C 
ENDROOT
BRANCH   2   3
ATOM      3  C   UNL     1      90.470  92.338  77.198  1.00  0.00     0.155 C 
ATOM      4  O   UNL     1      89.434  92.921  77.509  1.00  0.00    -0.295 OA
BRANCH   3   5
ATOM      5  C   UNL     1      91.834  92.952  77.449  1.00  0.00     0.085 C 
BRANCH   5   6
ATOM      6  C   UNL     1      92.424  93.537  76.165  1.00  0.00     0.044 C 
BRANCH   6   7
ATOM      7  C   UNL     1      93.868  93.951  76.317  1.00  0.00    -0.044 A 
ATOM      8  C   UNL     1      95.715  94.555  77.726  1.00  0.00     0.160 A 
ATOM      9  C   UNL     1      94.381  94.173  77.585  1.00  0.00     0.054 A 
ATOM     10  C   UNL     1      96.519  94.710  76.597  1.00  0.00     0.157 A 
ATOM     11  C   UNL     1      95.988  94.483  75.326  1.00  0.00     0.050 A 
ATOM     12  C   UNL     1      94.654  94.102  75.186  1.00  0.00     0.008 A 
BRANCH   8  13
ATOM     13  O   UNL     1      96.221  94.773  78.972  1.00  0.00    -0.493 OA
ATOM     14  C   UNL     1      95.284  94.901  80.039  1.00  0.00     0.278 C 
ENDBRANCH   8  13
BRANCH  10  15
ATOM     15  O   UNL     1      97.823  95.082  76.721  1.00  0.00    -0.504 OA
ATOM     16  H   UNL     1      98.268  94.446  77.307  1.00  0.00     0.293 HD
ENDBRANCH  10  15
ENDBRANCH   6   7
ENDBRANCH   5   6
ENDBRANCH   3   5
ENDBRANCH   2   3
BRANCH   1  17
ATOM     17  C   UNL     1      89.352  89.399  74.958  1.00  0.00     0.027 C 
BRANCH  17  18
ATOM     18  C   UNL     1      89.797  89.495  73.495  1.00  0.00     0.004 C 
BRANCH  18  19
ATOM     19  C   UNL     1      89.444  90.830  72.833  1.00  0.00     0.000 C 
BRANCH  19  20
ATOM     20  C   UNL     1      88.217  90.692  71.931  1.00  0.00    -0.003 C 
ATOM     21  C   UNL     1      86.927  90.725  72.736  1.00  0.00     0.004 C 
ENDBRANCH  19  20
ENDBRANCH  18  19
ENDBRANCH  17  18
ENDBRANCH   1  17
TORSDOF 10
ENDMDL
MODEL 3
REMARK VINA RESULT:    -6.041      2.230      5.399
REMARK INTER + INTRA:         -10.468
REMARK INTER:                  -9.044
REMARK INTRA:                  -1.424
REMARK UNBOUND:                -1.072
REMARK SMILES CCCCC/C=C/C(=O)CCc1ccc(O)c(OC)c1
REMARK SMILES IDX 6 1 7 2 8 3 9 4 10 5 11 6 12 7 17 8 20 9 15 10 14 11 13 12
REMARK SMILES IDX 18 13 19 14 16 15 5 17 4 18 3 19 2 20 1 21
REMARK H PARENT 16 16
REMARK Flexibility Score: inf
ROOT
ATOM      1  C   UNL     1      90.309  92.512  77.199  1.00  0.00    -0.023 C 
ATOM      2  C   UNL     1      91.615  92.543  77.494  1.00  0.00     0.043 C 
ENDROOT
BRANCH   2   3
ATOM      3  C   UNL     1      92.500  93.543  76.837  1.00  0.00     0.155 C 
ATOM      4  O   UNL     1      92.424  94.743  77.093  1.00  0.00    -0.295 OA
BRANCH   3   5
ATOM      5  C   UNL     1      93.465  93.012  75.796  1.00  0.00     0.085 C 
BRANCH   5   6
ATOM      6  C   UNL     1      92.981  93.322  74.379  1.00  0.00     0.044 C 
BRANCH   6   7
ATOM      7  C   UNL     1      91.715  92.582  74.016  1.00  0.00    -0.044 A 
ATOM      8  C   UNL     1      90.503  90.521  73.817  1.00  0.00     0.160 A 
ATOM      9  C   UNL     1      91.672  91.204  74.153  1.00  0.00     0.054 A 
ATOM     10  C   UNL     1      89.393  91.224  73.349  1.00  0.00     0.157 A 
ATOM     11  C   UNL     1      89.453  92.612  73.216  1.00  0.00     0.050 A 
ATOM     12  C   UNL     1      90.622  93.295  73.552  1.00  0.00     0.008 A 
BRANCH   8  13
ATOM     13  O   UNL     1      90.457  89.165  73.951  1.00  0.00    -0.493 OA
ATOM     14  C   UNL     1      91.494  88.554  74.716  1.00  0.00     0.278 C 
ENDBRANCH   8  13
BRANCH  10  15
ATOM     15  O   UNL     1      88.246  90.568  73.019  1.00  0.00    -0.504 OA
ATOM     16  H   UNL     1      87.695  91.167  72.486  1.00  0.00     0.293 HD
ENDBRANCH  10  15
ENDBRANCH   6   7
ENDBRANCH   5   6
ENDBRANCH   3   5
ENDBRANCH   2   3
BRANCH   1  17
ATOM     17  C   UNL     1      89.352  91.535  77.817  1.00  0.00     0.027 C 
BRANCH  17  18
ATOM     18  C   UNL     1      89.782  90.075  77.637  1.00  0.00     0.004 C 
BRANCH  18  19
ATOM     19  C   UNL     1      89.838  89.285  78.948  1.00  0.00     0.000 C 
BRANCH  19  20
ATOM     20  C   UNL     1      90.237  90.186  80.118  1.00  0.00    -0.003 C 
ATOM     21  C   UNL     1      91.003  89.413  81.180  1.00  0.00     0.004 C 
ENDBRANCH  19  20
ENDBRANCH  18  19
ENDBRANCH  17  18
ENDBRANCH   1  17
TORSDOF 10
ENDMDL
MODEL 4
REMARK VINA RESULT:    -5.657     24.415     27.508
REMARK INTER + INTRA:          -9.871
REMARK INTER:                  -8.917
REMARK INTRA:                  -0.954
REMARK UNBOUND:                -1.072
REMARK SMILES CCCCC/C=C/C(=O)CCc1ccc(O)c(OC)c1
REMARK SMILES IDX 6 1 7 2 8 3 9 4 10 5 11 6 12 7 17 8 20 9 15 10 14 11 13 12
REMARK SMILES IDX 18 13 19 14 16 15 5 17 4 18 3 19 2 20 1 21
REMARK H PARENT 16 16
REMARK Flexibility Score: inf
ROOT
ATOM      1  C   UNL     1      82.702  63.735  74.531  1.00  0.00    -0.023 C 
ATOM      2  C   UNL     1      81.520  64.299  74.809  1.00  0.00     0.043 C 
ENDROOT
BRANCH   2   3
ATOM      3  C   UNL     1      80.355  64.061  73.913  1.00  0.00     0.155 C 
ATOM      4  O   UNL     1      79.613  63.092  74.057  1.00  0.00    -0.295 OA
BRANCH   3   5
ATOM      5  C   UNL     1      80.162  65.049  72.779  1.00  0.00     0.085 C 
BRANCH   5   6
ATOM      6  C   UNL     1      80.223  66.492  73.282  1.00  0.00     0.044 C 
BRANCH   6   7
ATOM      7  C   UNL     1      81.365  67.276  72.682  1.00  0.00    -0.044 A 
ATOM      8  C   UNL     1      83.530  68.287  72.904  1.00  0.00     0.160 A 
ATOM      9  C   UNL     1      82.475  67.563  73.460  1.00  0.00     0.054 A 
ATOM     10  C   UNL     1      83.461  68.715  71.579  1.00  0.00     0.157 A 
ATOM     11  C   UNL     1      82.336  68.419  70.808  1.00  0.00     0.050 A 
ATOM     12  C   UNL     1      81.281  67.695  71.364  1.00  0.00     0.008 A 
BRANCH   8  13
ATOM     13  O   UNL     1      84.623  68.570  73.667  1.00  0.00    -0.493 OA
ATOM     14  C   UNL     1      85.244  67.477  74.341  1.00  0.00     0.278 C 
ENDBRANCH   8  13
BRANCH  10  15
ATOM     15  O   UNL     1      84.485  69.423  71.025  1.00  0.00    -0.504 OA
ATOM     16  H   UNL     1      85.252  69.367  71.621  1.00  0.00     0.293 HD
ENDBRANCH  10  15
ENDBRANCH   6   7
ENDBRANCH   5   6
ENDBRANCH   3   5
ENDBRANCH   2   3
BRANCH   1  17
ATOM     17  C   UNL     1      83.923  63.926  75.383  1.00  0.00     0.027 C 
BRANCH  17  18
ATOM     18  C   UNL     1      83.608  63.976  76.882  1.00  0.00     0.004 C 
BRANCH  18  19
ATOM     19  C   UNL     1      84.418  62.976  77.713  1.00  0.00     0.000 C 
BRANCH  19  20
ATOM     20  C   UNL     1      85.350  63.697  78.688  1.00  0.00    -0.003 C 
ATOM     21  C   UNL     1      85.126  63.232  80.119  1.00  0.00     0.004 C 
ENDBRANCH  19  20
ENDBRANCH  18  19
ENDBRANCH  17  18
ENDBRANCH   1  17
TORSDOF 10
ENDMDL
MODEL 5
REMARK VINA RESULT:    -5.653     12.990     15.597
REMARK INTER + INTRA:          -9.864
REMARK INTER:                  -8.257
REMARK INTRA:                  -1.608
REMARK UNBOUND:                -1.072
REMARK SMILES CCCCC/C=C/C(=O)CCc1ccc(O)c(OC)c1
REMARK SMILES IDX 6 1 7 2 8 3 9 4 10 5 11 6 12 7 17 8 20 9 15 10 14 11 13 12
REMARK SMILES IDX 18 13 19 14 16 15 5 17 4 18 3 19 2 20 1 21
REMARK H PARENT 16 16
REMARK Flexibility Score: inf
ROOT
ATOM      1  C   UNL     1      83.423  90.339  88.391  1.00  0.00    -0.023 C 
ATOM      2  C   UNL     1      83.261  91.436  87.640  1.00  0.00     0.043 C 
ENDROOT
BRANCH   2   3
ATOM      3  C   UNL     1      84.193  91.706  86.512  1.00  0.00     0.155 C 
ATOM      4  O   UNL     1      84.653  92.827  86.305  1.00  0.00    -0.295 OA
BRANCH   3   5
ATOM      5  C   UNL     1      84.505  90.538  85.597  1.00  0.00     0.085 C 
BRANCH   5   6
ATOM      6  C   UNL     1      83.323  90.222  84.678  1.00  0.00     0.044 C 
BRANCH   6   7
ATOM      7  C   UNL     1      82.716  88.866  84.949  1.00  0.00    -0.044 A 
ATOM      8  C   UNL     1      80.958  87.272  84.591  1.00  0.00     0.160 A 
ATOM      9  C   UNL     1      81.518  88.525  84.341  1.00  0.00     0.054 A 
ATOM     10  C   UNL     1      81.601  86.377  85.445  1.00  0.00     0.157 A 
ATOM     11  C   UNL     1      82.806  86.736  86.051  1.00  0.00     0.050 A 
ATOM     12  C   UNL     1      83.367  87.988  85.801  1.00  0.00     0.008 A 
BRANCH   8  13
ATOM     13  O   UNL     1      79.780  86.934  83.994  1.00  0.00    -0.493 OA
ATOM     14  C   UNL     1      79.744  86.965  82.568  1.00  0.00     0.278 C 
ENDBRANCH   8  13
BRANCH  10  15
ATOM     15  O   UNL     1      81.064  85.151  85.697  1.00  0.00    -0.504 OA
ATOM     16  H   UNL     1      80.188  85.278  86.099  1.00  0.00     0.293 HD
ENDBRANCH  10  15
ENDBRANCH   6   7
ENDBRANCH   5   6
ENDBRANCH   3   5
ENDBRANCH   2   3
BRANCH   1  17
ATOM     17  C   UNL     1      82.528  89.995  89.546  1.00  0.00     0.027 C 
BRANCH  17  18
ATOM     18  C   UNL     1      81.957  88.575  89.463  1.00  0.00     0.004 C 
BRANCH  18  19
ATOM     19  C   UNL     1      80.745  88.455  88.534  1.00  0.00     0.000 C 
BRANCH  19  20
ATOM     20  C   UNL     1      79.508  87.983  89.300  1.00  0.00    -0.003 C 
ATOM     21  C   UNL     1      79.679  86.563  89.814  1.00  0.00     0.004 C 
ENDBRANCH  19  20
ENDBRANCH  18  19
ENDBRANCH  17  18
ENDBRANCH   1  17
TORSDOF 10
ENDMDL
MODEL 6
REMARK VINA RESULT:    -5.598      3.075      4.901
REMARK INTER + INTRA:          -9.779
REMARK INTER:                  -9.088
REMARK INTRA:                  -0.691
REMARK UNBOUND:                -1.072
REMARK SMILES CCCCC/C=C/C(=O)CCc1ccc(O)c(OC)c1
REMARK SMILES IDX 6 1 7 2 8 3 9 4 10 5 11 6 12 7 17 8 20 9 15 10 14 11 13 12
REMARK SMILES IDX 18 13 19 14 16 15 5 17 4 18 3 19 2 20 1 21
REMARK H PARENT 16 16
REMARK Flexibility Score: inf
ROOT
ATOM      1  C   UNL     1      95.972  95.418  77.275  1.00  0.00    -0.023 C 
ATOM      2  C   UNL     1      95.706  95.661  75.985  1.00  0.00     0.043 C 
ENDROOT
BRANCH   2   3
ATOM      3  C   UNL     1      94.414  95.213  75.397  1.00  0.00     0.155 C 
ATOM      4  O   UNL     1      93.723  95.958  74.706  1.00  0.00    -0.295 OA
BRANCH   3   5
ATOM      5  C   UNL     1      93.969  93.804  75.738  1.00  0.00     0.085 C 
BRANCH   5   6
ATOM      6  C   UNL     1      92.645  93.460  75.053  1.00  0.00     0.044 C 
BRANCH   6   7
ATOM      7  C   UNL     1      91.830  92.450  75.825  1.00  0.00    -0.044 A 
ATOM      8  C   UNL     1      90.711  90.329  75.928  1.00  0.00     0.160 A 
ATOM      9  C   UNL     1      91.464  91.261  75.214  1.00  0.00     0.054 A 
ATOM     10  C   UNL     1      90.333  90.598  77.244  1.00  0.00     0.157 A 
ATOM     11  C   UNL     1      90.709  91.800  77.845  1.00  0.00     0.050 A 
ATOM     12  C   UNL     1      91.462  92.732  77.131  1.00  0.00     0.008 A 
BRANCH   8  13
ATOM     13  O   UNL     1      90.351  89.160  75.330  1.00  0.00    -0.493 OA
ATOM     14  C   UNL     1      90.367  89.129  73.904  1.00  0.00     0.278 C 
ENDBRANCH   8  13
BRANCH  10  15
ATOM     15  O   UNL     1      89.599  89.695  77.951  1.00  0.00    -0.504 OA
ATOM     16  H   UNL     1      89.213  90.151  78.720  1.00  0.00     0.293 HD
ENDBRANCH  10  15
ENDBRANCH   6   7
ENDBRANCH   5   6
ENDBRANCH   3   5
ENDBRANCH   2   3
BRANCH   1  17
ATOM     17  C   UNL     1      97.250  95.836  77.942  1.00  0.00     0.027 C 
BRANCH  17  18
ATOM     18  C   UNL     1      97.263  95.553  79.448  1.00  0.00     0.004 C 
BRANCH  18  19
ATOM     19  C   UNL     1      97.110  96.809  80.310  1.00  0.00     0.000 C 
BRANCH  19  20
ATOM     20  C   UNL     1      95.887  96.706  81.224  1.00  0.00    -0.003 C 
ATOM     21  C   UNL     1      95.418  95.267  81.365  1.00  0.00     0.004 C 
ENDBRANCH  19  20
ENDBRANCH  18  19
ENDBRANCH  17  18
ENDBRANCH   1  17
TORSDOF 10
ENDMDL
MODEL 7
REMARK VINA RESULT:    -5.577     12.019     15.658
REMARK INTER + INTRA:          -9.746
REMARK INTER:                  -8.651
REMARK INTRA:                  -1.096
REMARK UNBOUND:                -1.072
REMARK SMILES CCCCC/C=C/C(=O)CCc1ccc(O)c(OC)c1
REMARK SMILES IDX 6 1 7 2 8 3 9 4 10 5 11 6 12 7 17 8 20 9 15 10 14 11 13 12
REMARK SMILES IDX 18 13 19 14 16 15 5 17 4 18 3 19 2 20 1 21
REMARK H PARENT 16 16
REMARK Flexibility Score: inf
ROOT
ATOM      1  C   UNL     1      82.673  89.870  84.873  1.00  0.00    -0.023 C 
ATOM      2  C   UNL     1      83.651  90.593  84.313  1.00  0.00     0.043 C 
ENDROOT
BRANCH   2   3
ATOM      3  C   UNL     1      85.021  90.563  84.894  1.00  0.00     0.155 C 
ATOM      4  O   UNL     1      85.944  89.964  84.347  1.00  0.00    -0.295 OA
BRANCH   3   5
ATOM      5  C   UNL     1      85.207  91.267  86.224  1.00  0.00     0.085 C 
BRANCH   5   6
ATOM      6  C   UNL     1      84.606  92.673  86.197  1.00  0.00     0.044 C 
BRANCH   6   7
ATOM      7  C   UNL     1      83.626  92.914  87.321  1.00  0.00    -0.044 A 
ATOM      8  C   UNL     1      82.054  92.061  88.921  1.00  0.00     0.160 A 
ATOM      9  C   UNL     1      82.958  91.837  87.882  1.00  0.00     0.054 A 
ATOM     10  C   UNL     1      81.829  93.357  89.384  1.00  0.00     0.157 A 
ATOM     11  C   UNL     1      82.509  94.431  88.808  1.00  0.00     0.050 A 
ATOM     12  C   UNL     1      83.413  94.207  87.770  1.00  0.00     0.008 A 
BRANCH   8  13
ATOM     13  O   UNL     1      81.396  91.004  89.474  1.00  0.00    -0.493 OA
ATOM     14  C   UNL     1      82.160  90.121  90.294  1.00  0.00     0.278 C 
ENDBRANCH   8  13
BRANCH  10  15
ATOM     15  O   UNL     1      80.948  93.587  90.397  1.00  0.00    -0.504 OA
ATOM     16  H   UNL     1      80.713  92.733  90.798  1.00  0.00     0.293 HD
ENDBRANCH  10  15
ENDBRANCH   6   7
ENDBRANCH   5   6
ENDBRANCH   3   5
ENDBRANCH   2   3
BRANCH   1  17
ATOM     17  C   UNL     1      81.267  89.847  84.349  1.00  0.00     0.027 C 
BRANCH  17  18
ATOM     18  C   UNL     1      80.419  88.720  84.949  1.00  0.00     0.004 C 
BRANCH  18  19
ATOM     19  C   UNL     1      79.707  87.862  83.899  1.00  0.00     0.000 C 
BRANCH  19  20
ATOM     20  C   UNL     1      80.527  86.618  83.554  1.00  0.00    -0.003 C 
ATOM     21  C   UNL     1      80.983  85.886  84.807  1.00  0.00     0.004 C 
ENDBRANCH  19  20
ENDBRANCH  18  19
ENDBRANCH  17  18
ENDBRANCH   1  17
TORSDOF 10
ENDMDL
MODEL 8
REMARK VINA RESULT:    -5.539     12.631     16.158
REMARK INTER + INTRA:          -9.687
REMARK INTER:                  -7.911
REMARK INTRA:                  -1.775
REMARK UNBOUND:                -1.072
REMARK SMILES CCCCC/C=C/C(=O)CCc1ccc(O)c(OC)c1
REMARK SMILES IDX 6 1 7 2 8 3 9 4 10 5 11 6 12 7 17 8 20 9 15 10 14 11 13 12
REMARK SMILES IDX 18 13 19 14 16 15 5 17 4 18 3 19 2 20 1 21
REMARK H PARENT 16 16
REMARK Flexibility Score: inf
ROOT
ATOM      1  C   UNL     1      82.374  89.286  84.753  1.00  0.00    -0.023 C 
ATOM      2  C   UNL     1      83.233  90.308  84.651  1.00  0.00     0.043 C 
ENDROOT
BRANCH   2   3
ATOM      3  C   UNL     1      84.637  90.144  85.115  1.00  0.00     0.155 C 
ATOM      4  O   UNL     1      85.571  90.022  84.325  1.00  0.00    -0.295 OA
BRANCH   3   5
ATOM      5  C   UNL     1      84.852  90.083  86.614  1.00  0.00     0.085 C 
BRANCH   5   6
ATOM      6  C   UNL     1      84.084  91.195  87.331  1.00  0.00     0.044 C 
BRANCH   6   7
ATOM      7  C   UNL     1      82.930  90.675  88.156  1.00  0.00    -0.044 A 
ATOM      8  C   UNL     1      82.047  89.073  89.709  1.00  0.00     0.160 A 
ATOM      9  C   UNL     1      83.113  89.553  88.948  1.00  0.00     0.054 A 
ATOM     10  C   UNL     1      80.813  89.721  89.669  1.00  0.00     0.157 A 
ATOM     11  C   UNL     1      80.644  90.850  88.866  1.00  0.00     0.050 A 
ATOM     12  C   UNL     1      81.710  91.329  88.104  1.00  0.00     0.008 A 
BRANCH   8  13
ATOM     13  O   UNL     1      82.225  87.970  90.489  1.00  0.00    -0.493 OA
ATOM     14  C   UNL     1      83.234  88.042  91.495  1.00  0.00     0.278 C 
ENDBRANCH   8  13
BRANCH  10  15
ATOM     15  O   UNL     1      79.765  89.263  90.408  1.00  0.00    -0.504 OA
ATOM     16  H   UNL     1      79.947  89.451  91.345  1.00  0.00     0.293 HD
ENDBRANCH  10  15
ENDBRANCH   6   7
ENDBRANCH   5   6
ENDBRANCH   3   5
ENDBRANCH   2   3
BRANCH   1  17
ATOM     17  C   UNL     1      80.942  89.371  84.309  1.00  0.00     0.027 C 
BRANCH  17  18
ATOM     18  C   UNL     1      80.046  88.312  84.961  1.00  0.00     0.004 C 
BRANCH  18  19
ATOM     19  C   UNL     1      80.329  88.103  86.452  1.00  0.00     0.000 C 
BRANCH  19  20
ATOM     20  C   UNL     1      80.652  86.638  86.752  1.00  0.00    -0.003 C 
ATOM     21  C   UNL     1      80.650  85.796  85.486  1.00  0.00     0.004 C 
ENDBRANCH  19  20
ENDBRANCH  18  19
ENDBRANCH  17  18
ENDBRANCH   1  17
TORSDOF 10
ENDMDL
MODEL 9
REMARK VINA RESULT:    -5.508     25.104     27.322
REMARK INTER + INTRA:          -9.639
REMARK INTER:                  -7.940
REMARK INTRA:                  -1.699
REMARK UNBOUND:                -1.072
REMARK SMILES CCCCC/C=C/C(=O)CCc1ccc(O)c(OC)c1
REMARK SMILES IDX 6 1 7 2 8 3 9 4 10 5 11 6 12 7 17 8 20 9 15 10 14 11 13 12
REMARK SMILES IDX 18 13 19 14 16 15 5 17 4 18 3 19 2 20 1 21
REMARK H PARENT 16 16
REMARK Flexibility Score: inf
ROOT
ATOM      1  C   UNL     1      80.234  66.125  72.809  1.00  0.00    -0.023 C 
ATOM      2  C   UNL     1      80.304  64.794  72.681  1.00  0.00     0.043 C 
ENDROOT
BRANCH   2   3
ATOM      3  C   UNL     1      80.325  63.932  73.893  1.00  0.00     0.155 C 
ATOM      4  O   UNL     1      79.385  63.193  74.180  1.00  0.00    -0.295 OA
BRANCH   3   5
ATOM      5  C   UNL     1      81.544  64.050  74.786  1.00  0.00     0.085 C 
BRANCH   5   6
ATOM      6  C   UNL     1      81.347  65.127  75.855  1.00  0.00     0.044 C 
BRANCH   6   7
ATOM      7  C   UNL     1      82.651  65.708  76.350  1.00  0.00    -0.044 A 
ATOM      8  C   UNL     1      84.857  65.394  77.241  1.00  0.00     0.160 A 
ATOM      9  C   UNL     1      83.653  64.856  76.785  1.00  0.00     0.054 A 
ATOM     10  C   UNL     1      85.042  66.777  77.257  1.00  0.00     0.157 A 
ATOM     11  C   UNL     1      84.022  67.622  76.817  1.00  0.00     0.050 A 
ATOM     12  C   UNL     1      82.819  67.083  76.360  1.00  0.00     0.008 A 
BRANCH   8  13
ATOM     13  O   UNL     1      85.844  64.559  77.669  1.00  0.00    -0.493 OA
ATOM     14  C   UNL     1      85.504  63.622  78.689  1.00  0.00     0.278 C 
ENDBRANCH   8  13
BRANCH  10  15
ATOM     15  O   UNL     1      86.212  67.314  77.700  1.00  0.00    -0.504 OA
ATOM     16  H   UNL     1      86.091  68.274  77.793  1.00  0.00     0.293 HD
ENDBRANCH  10  15
ENDBRANCH   6   7
ENDBRANCH   5   6
ENDBRANCH   3   5
ENDBRANCH   2   3
BRANCH   1  17
ATOM     17  C   UNL     1      80.209  67.063  71.637  1.00  0.00     0.027 C 
BRANCH  17  18
ATOM     18  C   UNL     1      81.528  67.820  71.445  1.00  0.00     0.004 C 
BRANCH  18  19
ATOM     19  C   UNL     1      82.277  68.090  72.753  1.00  0.00     0.000 C 
BRANCH  19  20
ATOM     20  C   UNL     1      83.741  67.658  72.649  1.00  0.00    -0.003 C 
ATOM     21  C   UNL     1      83.892  66.155  72.815  1.00  0.00     0.004 C 
ENDBRANCH  19  20
ENDBRANCH  18  19
ENDBRANCH  17  18
ENDBRANCH   1  17
TORSDOF 10
ENDMDL
MODEL 10
REMARK VINA RESULT:    -5.467      3.909      7.437
REMARK INTER + INTRA:          -9.576
REMARK INTER:                  -8.652
REMARK INTRA:                  -0.924
REMARK UNBOUND:                -1.072
REMARK SMILES CCCCC/C=C/C(=O)CCc1ccc(O)c(OC)c1
REMARK SMILES IDX 6 1 7 2 8 3 9 4 10 5 11 6 12 7 17 8 20 9 15 10 14 11 13 12
REMARK SMILES IDX 18 13 19 14 16 15 5 17 4 18 3 19 2 20 1 21
REMARK H PARENT 16 16
REMARK Flexibility Score: inf
ROOT
ATOM      1  C   UNL     1      90.868  92.184  76.133  1.00  0.00    -0.023 C 
ATOM      2  C   UNL     1      91.440  93.028  75.265  1.00  0.00     0.043 C 
ENDROOT
BRANCH   2   3
ATOM      3  C   UNL     1      91.870  94.379  75.717  1.00  0.00     0.155 C 
ATOM      4  O   UNL     1      91.149  95.090  76.414  1.00  0.00    -0.295 OA
BRANCH   3   5
ATOM      5  C   UNL     1      93.225  94.856  75.230  1.00  0.00     0.085 C 
BRANCH   5   6
ATOM      6  C   UNL     1      94.342  93.918  75.689  1.00  0.00     0.044 C 
BRANCH   6   7
ATOM      7  C   UNL     1      95.004  94.374  76.967  1.00  0.00    -0.044 A 
ATOM      8  C   UNL     1      96.742  95.598  78.080  1.00  0.00     0.160 A 
ATOM      9  C   UNL     1      96.132  95.177  76.899  1.00  0.00     0.054 A 
ATOM     10  C   UNL     1      96.218  95.212  79.313  1.00  0.00     0.157 A 
ATOM     11  C   UNL     1      95.082  94.403  79.366  1.00  0.00     0.050 A 
ATOM     12  C   UNL     1      94.472  93.981  78.185  1.00  0.00     0.008 A 
BRANCH   8  13
ATOM     13  O   UNL     1      97.851  96.388  78.016  1.00  0.00    -0.493 OA
ATOM     14  C   UNL     1      98.948  95.904  77.243  1.00  0.00     0.278 C 
ENDBRANCH   8  13
BRANCH  10  15
ATOM     15  O   UNL     1      96.806  95.618  80.474  1.00  0.00    -0.504 OA
ATOM     16  H   UNL     1      96.472  95.059  81.196  1.00  0.00     0.293 HD
ENDBRANCH  10  15
ENDBRANCH   6   7
ENDBRANCH   5   6
ENDBRANCH   3   5
ENDBRANCH   2   3
BRANCH   1  17
ATOM     17  C   UNL     1      90.407  90.807  75.755  1.00  0.00     0.027 C 
BRANCH  17  18
ATOM     18  C   UNL     1      88.888  90.708  75.578  1.00  0.00     0.004 C 
BRANCH  18  19
ATOM     19  C   UNL     1      88.462  90.224  74.189  1.00  0.00     0.000 C 
BRANCH  19  20
ATOM     20  C   UNL     1      89.055  91.107  73.090  1.00  0.00    -0.003 C 
ATOM     21  C   UNL     1      89.709  90.275  71.998  1.00  0.00     0.004 C 
ENDBRANCH  19  20
ENDBRANCH  18  19
ENDBRANCH  17  18
ENDBRANCH   1  17
TORSDOF 10
ENDMDL
