MODEL 1
REMARK VINA RESULT:    -6.232      0.000      0.000
REMARK INTER + INTRA:         -11.085
REMARK INTER:                 -10.057
REMARK INTRA:                  -1.028
REMARK UNBOUND:                -1.028
REMARK SMILES CCCCCCCCC(=O)NCc1ccc(O)c(OC)c1
REMARK SMILES IDX 7 1 6 2 5 3 4 4 3 5 2 6 1 7 8 8 9 9 10 10 11 11 12 13 13 14
REMARK SMILES IDX 21 15 14 16 18 17 15 18 16 19 19 20 20 21 17 22
REMARK H PARENT 11 12 17 23
REMARK Flexibility Score: inf
ROOT
ATOM      1  C   UNL     1      91.887  94.077  76.797  1.00  0.00     0.010 C 
ENDROOT
BRANCH   1   2
ATOM      2  C   UNL     1      90.416  94.353  76.371  1.00  0.00     0.001 C 
BRANCH   2   3
ATOM      3  C   UNL     1      89.420  93.332  76.995  1.00  0.00     0.000 C 
BRANCH   3   4
ATOM      4  C   UNL     1      90.113  92.144  77.721  1.00  0.00    -0.000 C 
BRANCH   4   5
ATOM      5  C   UNL     1      89.755  90.767  77.095  1.00  0.00    -0.000 C 
BRANCH   5   6
ATOM      6  C   UNL     1      90.865  90.238  76.146  1.00  0.00    -0.003 C 
ATOM      7  C   UNL     1      90.799  90.867  74.737  1.00  0.00     0.004 C 
ENDBRANCH   5   6
ENDBRANCH   4   5
ENDBRANCH   3   4
ENDBRANCH   2   3
ENDBRANCH   1   2
BRANCH   1   8
ATOM      8  C   UNL     1      92.882  93.998  75.606  1.00  0.00     0.100 C 
BRANCH   8   9
ATOM      9  C   UNL     1      94.286  93.931  76.079  1.00  0.00     0.220 C 
ATOM     10  O   UNL     1      95.201  93.871  75.223  1.00  0.00    -0.275 OA
ATOM     11  N   UNL     1      94.570  93.964  77.414  1.00  0.00    -0.352 N 
ATOM     12  H   UNL     1      93.760  93.925  78.015  1.00  0.00     0.163 HD
BRANCH  11  13
ATOM     13  C   UNL     1      95.878  94.047  77.988  1.00  0.00     0.151 C 
BRANCH  13  14
ATOM     14  C   UNL     1      95.895  94.598  79.370  1.00  0.00    -0.025 A 
ATOM     15  C   UNL     1      96.192  95.964  79.589  1.00  0.00     0.056 A 
ATOM     16  C   UNL     1      95.619  93.772  80.484  1.00  0.00     0.009 A 
ATOM     17  C   UNL     1      96.194  96.505  80.895  1.00  0.00     0.160 A 
ATOM     18  C   UNL     1      95.619  94.305  81.786  1.00  0.00     0.050 A 
ATOM     19  C   UNL     1      95.912  95.666  81.996  1.00  0.00     0.157 A 
BRANCH  17  20
ATOM     20  O   UNL     1      96.524  97.820  81.109  1.00  0.00    -0.493 OA
ATOM     21  C   UNL     1      97.180  98.451  79.995  1.00  0.00     0.278 C 
ENDBRANCH  17  20
BRANCH  19  22
ATOM     22  O   UNL     1      95.936  96.164  83.259  1.00  0.00    -0.504 OA
ATOM     23  H   UNL     1      95.066  96.075  83.654  1.00  0.00     0.293 HD
ENDBRANCH  19  22
ENDBRANCH  13  14
ENDBRANCH  11  13
ENDBRANCH   8   9
ENDBRANCH   1   8
TORSDOF 11
ENDMDL
MODEL 2
REMARK VINA RESULT:    -5.880      2.806      7.795
REMARK INTER + INTRA:         -10.517
REMARK INTER:                  -9.746
REMARK INTRA:                  -0.771
REMARK UNBOUND:                -1.028
REMARK SMILES CCCCCCCCC(=O)NCc1ccc(O)c(OC)c1
REMARK SMILES IDX 7 1 6 2 5 3 4 4 3 5 2 6 1 7 8 8 9 9 10 10 11 11 12 13 13 14
REMARK SMILES IDX 21 15 14 16 18 17 15 18 16 19 19 20 20 21 17 22
REMARK H PARENT 11 12 17 23
REMARK Flexibility Score: inf
ROOT
ATOM      1  C   UNL     1      95.958  95.519  75.073  1.00  0.00     0.010 C 
ENDROOT
BRANCH   1   2
ATOM      2  C   UNL     1      96.500  96.242  76.339  1.00  0.00     0.001 C 
BRANCH   2   3
ATOM      3  C   UNL     1      96.982  95.240  77.430  1.00  0.00     0.000 C 
BRANCH   3   4
ATOM      4  C   UNL     1      96.107  95.243  78.715  1.00  0.00    -0.000 C 
BRANCH   4   5
ATOM      5  C   UNL     1      96.452  96.419  79.673  1.00  0.00    -0.000 C 
BRANCH   5   6
ATOM      6  C   UNL     1      96.033  96.135  81.140  1.00  0.00    -0.003 C 
ATOM      7  C   UNL     1      95.619  94.665  81.372  1.00  0.00     0.004 C 
ENDBRANCH   5   6
ENDBRANCH   4   5
ENDBRANCH   3   4
ENDBRANCH   2   3
ENDBRANCH   1   2
BRANCH   1   8
ATOM      8  C   UNL     1      95.485  94.061  75.335  1.00  0.00     0.100 C 
BRANCH   8   9
ATOM      9  C   UNL     1      94.012  93.993  75.495  1.00  0.00     0.220 C 
ATOM     10  O   UNL     1      93.462  94.796  76.286  1.00  0.00    -0.275 OA
ATOM     11  N   UNL     1      93.277  93.095  74.775  1.00  0.00    -0.352 N 
ATOM     12  H   UNL     1      93.827  92.441  74.237  1.00  0.00     0.163 HD
BRANCH  11  13
ATOM     13  C   UNL     1      91.848  93.026  74.736  1.00  0.00     0.151 C 
BRANCH  13  14
ATOM     14  C   UNL     1      91.264  92.082  75.725  1.00  0.00    -0.025 A 
ATOM     15  C   UNL     1      91.114  90.712  75.401  1.00  0.00     0.056 A 
ATOM     16  C   UNL     1      90.847  92.531  77.000  1.00  0.00     0.009 A 
ATOM     17  C   UNL     1      90.576  89.800  76.337  1.00  0.00     0.160 A 
ATOM     18  C   UNL     1      90.313  91.628  77.936  1.00  0.00     0.050 A 
ATOM     19  C   UNL     1      90.168  90.266  77.607  1.00  0.00     0.157 A 
BRANCH  17  20
ATOM     20  O   UNL     1      90.392  88.481  76.006  1.00  0.00    -0.493 OA
ATOM     21  C   UNL     1      91.292  87.998  74.993  1.00  0.00     0.278 C 
ENDBRANCH  17  20
BRANCH  19  22
ATOM     22  O   UNL     1      89.626  89.408  78.508  1.00  0.00    -0.504 OA
ATOM     23  H   UNL     1      88.719  89.667  78.691  1.00  0.00     0.293 HD
ENDBRANCH  19  22
ENDBRANCH  13  14
ENDBRANCH  11  13
ENDBRANCH   8   9
ENDBRANCH   1   8
TORSDOF 11
ENDMDL
MODEL 3
REMARK VINA RESULT:    -5.707     14.586     17.112
REMARK INTER + INTRA:         -10.238
REMARK INTER:                  -8.608
REMARK INTRA:                  -1.630
REMARK UNBOUND:                -1.028
REMARK SMILES CCCCCCCCC(=O)NCc1ccc(O)c(OC)c1
REMARK SMILES IDX 7 1 6 2 5 3 4 4 3 5 2 6 1 7 8 8 9 9 10 10 11 11 12 13 13 14
REMARK SMILES IDX 21 15 14 16 18 17 15 18 16 19 19 20 20 21 17 22
REMARK H PARENT 11 12 17 23
REMARK Flexibility Score: inf
ROOT
ATOM      1  C   UNL     1      79.512  88.320  83.944  1.00  0.00     0.010 C 
ENDROOT
BRANCH   1   2
ATOM      2  C   UNL     1      80.631  89.363  84.228  1.00  0.00     0.001 C 
BRANCH   2   3
ATOM      3  C   UNL     1      80.533  89.954  85.666  1.00  0.00     0.000 C 
BRANCH   3   4
ATOM      4  C   UNL     1      81.884  89.956  86.436  1.00  0.00    -0.000 C 
BRANCH   4   5
ATOM      5  C   UNL     1      82.937  89.002  85.803  1.00  0.00    -0.000 C 
BRANCH   5   6
ATOM      6  C   UNL     1      84.395  89.433  86.116  1.00  0.00    -0.003 C 
ATOM      7  C   UNL     1      84.966  90.422  85.076  1.00  0.00     0.004 C 
ENDBRANCH   5   6
ENDBRANCH   4   5
ENDBRANCH   3   4
ENDBRANCH   2   3
ENDBRANCH   1   2
BRANCH   1   8
ATOM      8  C   UNL     1      80.047  86.920  83.532  1.00  0.00     0.100 C 
BRANCH   8   9
ATOM      9  C   UNL     1      80.693  86.231  84.676  1.00  0.00     0.220 C 
ATOM     10  O   UNL     1      81.692  85.508  84.448  1.00  0.00    -0.275 OA
ATOM     11  N   UNL     1      80.224  86.408  85.946  1.00  0.00    -0.352 N 
ATOM     12  H   UNL     1      79.367  86.937  86.005  1.00  0.00     0.163 HD
BRANCH  11  13
ATOM     13  C   UNL     1      80.841  85.916  87.140  1.00  0.00     0.151 C 
BRANCH  13  14
ATOM     14  C   UNL     1      80.627  86.784  88.329  1.00  0.00    -0.025 A 
ATOM     15  C   UNL     1      81.735  87.326  89.024  1.00  0.00     0.056 A 
ATOM     16  C   UNL     1      79.323  87.080  88.788  1.00  0.00     0.009 A 
ATOM     17  C   UNL     1      81.547  88.167  90.145  1.00  0.00     0.160 A 
ATOM     18  C   UNL     1      79.129  87.916  89.901  1.00  0.00     0.050 A 
ATOM     19  C   UNL     1      80.236  88.454  90.586  1.00  0.00     0.157 A 
BRANCH  17  20
ATOM     20  O   UNL     1      82.622  88.657  90.842  1.00  0.00    -0.493 OA
ATOM     21  C   UNL     1      83.302  89.743  90.189  1.00  0.00     0.278 C 
ENDBRANCH  17  20
BRANCH  19  22
ATOM     22  O   UNL     1      80.039  89.238  91.677  1.00  0.00    -0.504 OA
ATOM     23  H   UNL     1      80.627  88.959  92.382  1.00  0.00     0.293 HD
ENDBRANCH  19  22
ENDBRANCH  13  14
ENDBRANCH  11  13
ENDBRANCH   8   9
ENDBRANCH   1   8
TORSDOF 11
ENDMDL
MODEL 4
REMARK VINA RESULT:    -5.450     28.434     30.604
REMARK INTER + INTRA:          -9.824
REMARK INTER:                  -9.026
REMARK INTRA:                  -0.798
REMARK UNBOUND:                -1.028
REMARK SMILES CCCCCCCCC(=O)NCc1ccc(O)c(OC)c1
REMARK SMILES IDX 7 1 6 2 5 3 4 4 3 5 2 6 1 7 8 8 9 9 10 10 11 11 12 13 13 14
REMARK SMILES IDX 21 15 14 16 18 17 15 18 16 19 19 20 20 21 17 22
REMARK H PARENT 11 12 17 23
REMARK Flexibility Score: inf
ROOT
ATOM      1  C   UNL     1      81.676  66.470  75.872  1.00  0.00     0.010 C 
ENDROOT
BRANCH   1   2
ATOM      2  C   UNL     1      80.743  66.470  74.627  1.00  0.00     0.001 C 
BRANCH   2   3
ATOM      3  C   UNL     1      80.928  65.196  73.751  1.00  0.00     0.000 C 
BRANCH   3   4
ATOM      4  C   UNL     1      80.085  65.205  72.445  1.00  0.00    -0.000 C 
BRANCH   4   5
ATOM      5  C   UNL     1      80.193  66.550  71.670  1.00  0.00    -0.000 C 
BRANCH   5   6
ATOM      6  C   UNL     1      81.539  66.692  70.908  1.00  0.00    -0.003 C 
ATOM      7  C   UNL     1      82.092  68.134  70.932  1.00  0.00     0.004 C 
ENDBRANCH   5   6
ENDBRANCH   4   5
ENDBRANCH   3   4
ENDBRANCH   2   3
ENDBRANCH   1   2
BRANCH   1   8
ATOM      8  C   UNL     1      81.848  65.072  76.530  1.00  0.00     0.100 C 
BRANCH   8   9
ATOM      9  C   UNL     1      83.278  64.757  76.762  1.00  0.00     0.220 C 
ATOM     10  O   UNL     1      84.144  65.479  76.211  1.00  0.00    -0.275 OA
ATOM     11  N   UNL     1      83.637  63.724  77.579  1.00  0.00    -0.352 N 
ATOM     12  H   UNL     1      82.866  63.157  77.899  1.00  0.00     0.163 HD
BRANCH  11  13
ATOM     13  C   UNL     1      84.971  63.409  77.992  1.00  0.00     0.151 C 
BRANCH  13  14
ATOM     14  C   UNL     1      85.383  64.078  79.254  1.00  0.00    -0.025 A 
ATOM     15  C   UNL     1      86.111  65.291  79.213  1.00  0.00     0.056 A 
ATOM     16  C   UNL     1      85.061  63.518  80.512  1.00  0.00     0.009 A 
ATOM     17  C   UNL     1      86.495  65.948  80.405  1.00  0.00     0.160 A 
ATOM     18  C   UNL     1      85.439  64.167  81.701  1.00  0.00     0.050 A 
ATOM     19  C   UNL     1      86.161  65.375  81.653  1.00  0.00     0.157 A 
BRANCH  17  20
ATOM     20  O   UNL     1      87.237  67.101  80.362  1.00  0.00    -0.493 OA
ATOM     21  C   UNL     1      88.648  66.887  80.187  1.00  0.00     0.278 C 
ENDBRANCH  17  20
BRANCH  19  22
ATOM     22  O   UNL     1      86.545  65.979  82.806  1.00  0.00    -0.504 OA
ATOM     23  H   UNL     1      86.350  66.918  82.755  1.00  0.00     0.293 HD
ENDBRANCH  19  22
ENDBRANCH  13  14
ENDBRANCH  11  13
ENDBRANCH   8   9
ENDBRANCH   1   8
TORSDOF 11
ENDMDL
MODEL 5
REMARK VINA RESULT:    -5.352     13.958     16.722
REMARK INTER + INTRA:          -9.665
REMARK INTER:                  -8.162
REMARK INTRA:                  -1.503
REMARK UNBOUND:                -1.028
REMARK SMILES CCCCCCCCC(=O)NCc1ccc(O)c(OC)c1
REMARK SMILES IDX 7 1 6 2 5 3 4 4 3 5 2 6 1 7 8 8 9 9 10 10 11 11 12 13 13 14
REMARK SMILES IDX 21 15 14 16 18 17 15 18 16 19 19 20 20 21 17 22
REMARK H PARENT 11 12 17 23
REMARK Flexibility Score: inf
ROOT
ATOM      1  C   UNL     1      84.221  91.411  86.270  1.00  0.00     0.010 C 
ENDROOT
BRANCH   1   2
ATOM      2  C   UNL     1      84.266  90.549  87.564  1.00  0.00     0.001 C 
BRANCH   2   3
ATOM      3  C   UNL     1      83.405  91.159  88.709  1.00  0.00     0.000 C 
BRANCH   3   4
ATOM      4  C   UNL     1      82.350  92.191  88.218  1.00  0.00    -0.000 C 
BRANCH   4   5
ATOM      5  C   UNL     1      82.284  93.457  89.118  1.00  0.00    -0.000 C 
BRANCH   5   6
ATOM      6  C   UNL     1      83.487  94.412  88.891  1.00  0.00    -0.003 C 
ATOM      7  C   UNL     1      83.593  94.908  87.432  1.00  0.00     0.004 C 
ENDBRANCH   5   6
ENDBRANCH   4   5
ENDBRANCH   3   4
ENDBRANCH   2   3
ENDBRANCH   1   2
BRANCH   1   8
ATOM      8  C   UNL     1      84.338  90.585  84.959  1.00  0.00     0.100 C 
BRANCH   8   9
ATOM      9  C   UNL     1      83.218  89.622  84.825  1.00  0.00     0.220 C 
ATOM     10  O   UNL     1      83.491  88.402  84.724  1.00  0.00    -0.275 OA
ATOM     11  N   UNL     1      81.924  90.057  84.842  1.00  0.00    -0.352 N 
ATOM     12  H   UNL     1      81.821  91.061  84.840  1.00  0.00     0.163 HD
BRANCH  11  13
ATOM     13  C   UNL     1      80.762  89.222  84.864  1.00  0.00     0.151 C 
BRANCH  13  14
ATOM     14  C   UNL     1      80.605  88.443  86.121  1.00  0.00    -0.025 A 
ATOM     15  C   UNL     1      80.569  89.107  87.371  1.00  0.00     0.056 A 
ATOM     16  C   UNL     1      80.493  87.034  86.093  1.00  0.00     0.009 A 
ATOM     17  C   UNL     1      80.403  88.381  88.573  1.00  0.00     0.160 A 
ATOM     18  C   UNL     1      80.327  86.306  87.285  1.00  0.00     0.050 A 
ATOM     19  C   UNL     1      80.289  86.973  88.525  1.00  0.00     0.157 A 
BRANCH  17  20
ATOM     20  O   UNL     1      80.411  89.022  89.786  1.00  0.00    -0.493 OA
ATOM     21  C   UNL     1      79.179  89.692  90.105  1.00  0.00     0.278 C 
ENDBRANCH  17  20
BRANCH  19  22
ATOM     22  O   UNL     1      80.155  86.259  89.672  1.00  0.00    -0.504 OA
ATOM     23  H   UNL     1      80.474  86.781  90.412  1.00  0.00     0.293 HD
ENDBRANCH  19  22
ENDBRANCH  13  14
ENDBRANCH  11  13
ENDBRANCH   8   9
ENDBRANCH   1   8
TORSDOF 11
ENDMDL
MODEL 6
REMARK VINA RESULT:    -5.301     29.263     31.791
REMARK INTER + INTRA:          -9.584
REMARK INTER:                  -8.998
REMARK INTRA:                  -0.585
REMARK UNBOUND:                -1.028
REMARK SMILES CCCCCCCCC(=O)NCc1ccc(O)c(OC)c1
REMARK SMILES IDX 7 1 6 2 5 3 4 4 3 5 2 6 1 7 8 8 9 9 10 10 11 11 12 13 13 14
REMARK SMILES IDX 21 15 14 16 18 17 15 18 16 19 19 20 20 21 17 22
REMARK H PARENT 11 12 17 23
REMARK Flexibility Score: inf
ROOT
ATOM      1  C   UNL     1      85.255  62.971  77.936  1.00  0.00     0.010 C 
ENDROOT
BRANCH   1   2
ATOM      2  C   UNL     1      85.160  64.009  79.091  1.00  0.00     0.001 C 
BRANCH   2   3
ATOM      3  C   UNL     1      85.339  63.350  80.491  1.00  0.00     0.000 C 
BRANCH   3   4
ATOM      4  C   UNL     1      85.350  64.368  81.666  1.00  0.00    -0.000 C 
BRANCH   4   5
ATOM      5  C   UNL     1      86.435  65.470  81.496  1.00  0.00    -0.000 C 
BRANCH   5   6
ATOM      6  C   UNL     1      86.437  66.489  82.667  1.00  0.00    -0.003 C 
ATOM      7  C   UNL     1      85.727  65.954  83.930  1.00  0.00     0.004 C 
ENDBRANCH   5   6
ENDBRANCH   4   5
ENDBRANCH   3   4
ENDBRANCH   2   3
ENDBRANCH   1   2
BRANCH   1   8
ATOM      8  C   UNL     1      84.019  62.964  76.993  1.00  0.00     0.100 C 
BRANCH   8   9
ATOM      9  C   UNL     1      83.644  64.340  76.585  1.00  0.00     0.220 C 
ATOM     10  O   UNL     1      84.516  65.057  76.038  1.00  0.00    -0.275 OA
ATOM     11  N   UNL     1      82.372  64.798  76.776  1.00  0.00    -0.352 N 
ATOM     12  H   UNL     1      81.778  64.173  77.301  1.00  0.00     0.163 HD
BRANCH  11  13
ATOM     13  C   UNL     1      81.852  66.044  76.302  1.00  0.00     0.151 C 
BRANCH  13  14
ATOM     14  C   UNL     1      81.331  65.987  74.910  1.00  0.00    -0.025 A 
ATOM     15  C   UNL     1      81.518  67.084  74.034  1.00  0.00     0.056 A 
ATOM     16  C   UNL     1      80.641  64.847  74.438  1.00  0.00     0.009 A 
ATOM     17  C   UNL     1      81.044  67.037  72.703  1.00  0.00     0.160 A 
ATOM     18  C   UNL     1      80.168  64.795  73.115  1.00  0.00     0.050 A 
ATOM     19  C   UNL     1      80.360  65.888  72.248  1.00  0.00     0.157 A 
BRANCH  17  20
ATOM     20  O   UNL     1      81.189  68.117  71.869  1.00  0.00    -0.493 OA
ATOM     21  C   UNL     1      82.532  68.319  71.395  1.00  0.00     0.278 C 
ENDBRANCH  17  20
BRANCH  19  22
ATOM     22  O   UNL     1      79.875  65.838  70.981  1.00  0.00    -0.504 OA
ATOM     23  H   UNL     1      80.514  66.226  70.379  1.00  0.00     0.293 HD
ENDBRANCH  19  22
ENDBRANCH  13  14
ENDBRANCH  11  13
ENDBRANCH   8   9
ENDBRANCH   1   8
TORSDOF 11
ENDMDL
MODEL 7
REMARK VINA RESULT:    -5.243     15.055     17.624
REMARK INTER + INTRA:          -9.490
REMARK INTER:                  -7.818
REMARK INTRA:                  -1.672
REMARK UNBOUND:                -1.028
REMARK SMILES CCCCCCCCC(=O)NCc1ccc(O)c(OC)c1
REMARK SMILES IDX 7 1 6 2 5 3 4 4 3 5 2 6 1 7 8 8 9 9 10 10 11 11 12 13 13 14
REMARK SMILES IDX 21 15 14 16 18 17 15 18 16 19 19 20 20 21 17 22
REMARK H PARENT 11 12 17 23
REMARK Flexibility Score: inf
ROOT
ATOM      1  C   UNL     1      80.157  87.667  83.636  1.00  0.00     0.010 C 
ENDROOT
BRANCH   1   2
ATOM      2  C   UNL     1      80.912  88.995  83.932  1.00  0.00     0.001 C 
BRANCH   2   3
ATOM      3  C   UNL     1      80.272  89.786  85.111  1.00  0.00     0.000 C 
BRANCH   3   4
ATOM      4  C   UNL     1      81.236  90.015  86.309  1.00  0.00    -0.000 C 
BRANCH   4   5
ATOM      5  C   UNL     1      82.685  90.354  85.857  1.00  0.00    -0.000 C 
BRANCH   5   6
ATOM      6  C   UNL     1      83.721  89.301  86.336  1.00  0.00    -0.003 C 
ATOM      7  C   UNL     1      85.181  89.748  86.106  1.00  0.00     0.004 C 
ENDBRANCH   5   6
ENDBRANCH   4   5
ENDBRANCH   3   4
ENDBRANCH   2   3
ENDBRANCH   1   2
BRANCH   1   8
ATOM      8  C   UNL     1      80.926  86.393  84.083  1.00  0.00     0.100 C 
BRANCH   8   9
ATOM      9  C   UNL     1      80.687  86.093  85.515  1.00  0.00     0.220 C 
ATOM     10  O   UNL     1      79.655  85.451  85.825  1.00  0.00    -0.275 OA
ATOM     11  N   UNL     1      81.587  86.484  86.465  1.00  0.00    -0.352 N 
ATOM     12  H   UNL     1      82.334  87.067  86.118  1.00  0.00     0.163 HD
BRANCH  11  13
ATOM     13  C   UNL     1      81.543  86.135  87.852  1.00  0.00     0.151 C 
BRANCH  13  14
ATOM     14  C   UNL     1      81.098  87.245  88.737  1.00  0.00    -0.025 A 
ATOM     15  C   UNL     1      79.717  87.495  88.926  1.00  0.00     0.056 A 
ATOM     16  C   UNL     1      82.038  88.068  89.399  1.00  0.00     0.009 A 
ATOM     17  C   UNL     1      79.279  88.536  89.778  1.00  0.00     0.160 A 
ATOM     18  C   UNL     1      81.608  89.104  90.248  1.00  0.00     0.050 A 
ATOM     19  C   UNL     1      80.234  89.346  90.434  1.00  0.00     0.157 A 
BRANCH  17  20
ATOM     20  O   UNL     1      77.942  88.804  89.927  1.00  0.00    -0.493 OA
ATOM     21  C   UNL     1      77.315  88.090  91.007  1.00  0.00     0.278 C 
ENDBRANCH  17  20
BRANCH  19  22
ATOM     22  O   UNL     1      79.830  90.365  91.234  1.00  0.00    -0.504 OA
ATOM     23  H   UNL     1      78.874  90.445  91.192  1.00  0.00     0.293 HD
ENDBRANCH  19  22
ENDBRANCH  13  14
ENDBRANCH  11  13
ENDBRANCH   8   9
ENDBRANCH   1   8
TORSDOF 11
ENDMDL
MODEL 8
REMARK VINA RESULT:    -5.209      4.644      8.356
REMARK INTER + INTRA:          -9.435
REMARK INTER:                  -8.746
REMARK INTRA:                  -0.689
REMARK UNBOUND:                -1.028
REMARK SMILES CCCCCCCCC(=O)NCc1ccc(O)c(OC)c1
REMARK SMILES IDX 7 1 6 2 5 3 4 4 3 5 2 6 1 7 8 8 9 9 10 10 11 11 12 13 13 14
REMARK SMILES IDX 21 15 14 16 18 17 15 18 16 19 19 20 20 21 17 22
REMARK H PARENT 11 12 17 23
REMARK Flexibility Score: inf
ROOT
ATOM      1  C   UNL     1      96.024  97.765  73.966  1.00  0.00     0.010 C 
ENDROOT
BRANCH   1   2
ATOM      2  C   UNL     1      96.671  97.547  72.568  1.00  0.00     0.001 C 
BRANCH   2   3
ATOM      3  C   UNL     1      97.527  96.247  72.512  1.00  0.00     0.000 C 
BRANCH   3   4
ATOM      4  C   UNL     1      98.297  96.061  71.174  1.00  0.00    -0.000 C 
BRANCH   4   5
ATOM      5  C   UNL     1      97.361  95.685  69.990  1.00  0.00    -0.000 C 
BRANCH   5   6
ATOM      6  C   UNL     1      97.646  96.523  68.715  1.00  0.00    -0.003 C 
ATOM      7  C   UNL     1      97.183  97.991  68.845  1.00  0.00     0.004 C 
ENDBRANCH   5   6
ENDBRANCH   4   5
ENDBRANCH   3   4
ENDBRANCH   2   3
ENDBRANCH   1   2
BRANCH   1   8
ATOM      8  C   UNL     1      94.668  97.028  74.154  1.00  0.00     0.100 C 
BRANCH   8   9
ATOM      9  C   UNL     1      94.808  95.863  75.060  1.00  0.00     0.220 C 
ATOM     10  O   UNL     1      95.906  95.690  75.642  1.00  0.00    -0.275 OA
ATOM     11  N   UNL     1      93.756  95.018  75.272  1.00  0.00    -0.352 N 
ATOM     12  H   UNL     1      92.952  95.199  74.688  1.00  0.00     0.163 HD
BRANCH  11  13
ATOM     13  C   UNL     1      93.721  93.949  76.222  1.00  0.00     0.151 C 
BRANCH  13  14
ATOM     14  C   UNL     1      92.429  93.213  76.252  1.00  0.00    -0.025 A 
ATOM     15  C   UNL     1      91.834  92.769  75.047  1.00  0.00     0.056 A 
ATOM     16  C   UNL     1      91.771  92.949  77.475  1.00  0.00     0.009 A 
ATOM     17  C   UNL     1      90.615  92.053  75.061  1.00  0.00     0.160 A 
ATOM     18  C   UNL     1      90.559  92.236  77.496  1.00  0.00     0.050 A 
ATOM     19  C   UNL     1      89.974  91.794  76.294  1.00  0.00     0.157 A 
BRANCH  17  20
ATOM     20  O   UNL     1      90.019  91.660  73.889  1.00  0.00    -0.493 OA
ATOM     21  C   UNL     1      90.796  91.939  72.711  1.00  0.00     0.278 C 
ENDBRANCH  17  20
BRANCH  19  22
ATOM     22  O   UNL     1      88.790  91.132  76.322  1.00  0.00    -0.504 OA
ATOM     23  H   UNL     1      88.785  90.456  75.640  1.00  0.00     0.293 HD
ENDBRANCH  19  22
ENDBRANCH  13  14
ENDBRANCH  11  13
ENDBRANCH   8   9
ENDBRANCH   1   8
TORSDOF 11
ENDMDL
MODEL 9
REMARK VINA RESULT:    -5.106     13.197     16.160
REMARK INTER + INTRA:          -9.268
REMARK INTER:                  -8.568
REMARK INTRA:                  -0.700
REMARK UNBOUND:                -1.028
REMARK SMILES CCCCCCCCC(=O)NCc1ccc(O)c(OC)c1
REMARK SMILES IDX 7 1 6 2 5 3 4 4 3 5 2 6 1 7 8 8 9 9 10 10 11 11 12 13 13 14
REMARK SMILES IDX 21 15 14 16 18 17 15 18 16 19 19 20 20 21 17 22
REMARK H PARENT 11 12 17 23
REMARK Flexibility Score: inf
ROOT
ATOM      1  C   UNL     1      83.032  93.125  88.111  1.00  0.00     0.010 C 
ENDROOT
BRANCH   1   2
ATOM      2  C   UNL     1      82.501  94.401  88.825  1.00  0.00     0.001 C 
BRANCH   2   3
ATOM      3  C   UNL     1      83.466  95.612  88.663  1.00  0.00     0.000 C 
BRANCH   3   4
ATOM      4  C   UNL     1      82.804  96.986  88.964  1.00  0.00    -0.000 C 
BRANCH   4   5
ATOM      5  C   UNL     1      81.363  97.097  88.390  1.00  0.00    -0.000 C 
BRANCH   5   6
ATOM      6  C   UNL     1      81.350  97.357  86.859  1.00  0.00    -0.003 C 
ATOM      7  C   UNL     1      79.924  97.537  86.293  1.00  0.00     0.004 C 
ENDBRANCH   5   6
ENDBRANCH   4   5
ENDBRANCH   3   4
ENDBRANCH   2   3
ENDBRANCH   1   2
BRANCH   1   8
ATOM      8  C   UNL     1      84.015  93.420  86.944  1.00  0.00     0.100 C 
BRANCH   8   9
ATOM      9  C   UNL     1      84.380  92.179  86.219  1.00  0.00     0.220 C 
ATOM     10  O   UNL     1      85.370  92.209  85.448  1.00  0.00    -0.275 OA
ATOM     11  N   UNL     1      83.671  91.028  86.412  1.00  0.00    -0.352 N 
ATOM     12  H   UNL     1      82.846  91.137  86.983  1.00  0.00     0.163 HD
BRANCH  11  13
ATOM     13  C   UNL     1      84.006  89.741  85.884  1.00  0.00     0.151 C 
BRANCH  13  14
ATOM     14  C   UNL     1      82.831  88.954  85.425  1.00  0.00    -0.025 A 
ATOM     15  C   UNL     1      82.717  87.583  85.758  1.00  0.00     0.056 A 
ATOM     16  C   UNL     1      81.812  89.555  84.650  1.00  0.00     0.009 A 
ATOM     17  C   UNL     1      81.597  86.827  85.344  1.00  0.00     0.160 A 
ATOM     18  C   UNL     1      80.695  88.808  84.236  1.00  0.00     0.050 A 
ATOM     19  C   UNL     1      80.587  87.445  84.573  1.00  0.00     0.157 A 
BRANCH  17  20
ATOM     20  O   UNL     1      81.510  85.488  85.632  1.00  0.00    -0.493 OA
ATOM     21  C   UNL     1      82.578  84.992  86.458  1.00  0.00     0.278 C 
ENDBRANCH  17  20
BRANCH  19  22
ATOM     22  O   UNL     1      79.518  86.726  84.145  1.00  0.00    -0.504 OA
ATOM     23  H   UNL     1      79.527  85.861  84.562  1.00  0.00     0.293 HD
ENDBRANCH  19  22
ENDBRANCH  13  14
ENDBRANCH  11  13
ENDBRANCH   8   9
ENDBRANCH   1   8
TORSDOF 11
ENDMDL
MODEL 10
REMARK VINA RESULT:    -5.028     27.301     29.883
REMARK INTER + INTRA:          -9.143
REMARK INTER:                  -8.164
REMARK INTRA:                  -0.979
REMARK UNBOUND:                -1.028
REMARK SMILES CCCCCCCCC(=O)NCc1ccc(O)c(OC)c1
REMARK SMILES IDX 7 1 6 2 5 3 4 4 3 5 2 6 1 7 8 8 9 9 10 10 11 11 12 13 13 14
REMARK SMILES IDX 21 15 14 16 18 17 15 18 16 19 19 20 20 21 17 22
REMARK H PARENT 11 12 17 23
REMARK Flexibility Score: inf
ROOT
ATOM      1  C   UNL     1      80.181  66.349  71.731  1.00  0.00     0.010 C 
ENDROOT
BRANCH   1   2
ATOM      2  C   UNL     1      81.470  66.637  70.908  1.00  0.00     0.001 C 
BRANCH   2   3
ATOM      3  C   UNL     1      81.776  68.160  70.808  1.00  0.00     0.000 C 
BRANCH   3   4
ATOM      4  C   UNL     1      82.932  68.629  71.736  1.00  0.00    -0.000 C 
BRANCH   4   5
ATOM      5  C   UNL     1      83.548  69.986  71.289  1.00  0.00    -0.000 C 
BRANCH   5   6
ATOM      6  C   UNL     1      85.081  70.052  71.527  1.00  0.00    -0.003 C 
ATOM      7  C   UNL     1      85.848  68.917  70.813  1.00  0.00     0.004 C 
ENDBRANCH   5   6
ENDBRANCH   4   5
ENDBRANCH   3   4
ENDBRANCH   2   3
ENDBRANCH   1   2
BRANCH   1   8
ATOM      8  C   UNL     1      80.334  65.189  72.754  1.00  0.00     0.100 C 
BRANCH   8   9
ATOM      9  C   UNL     1      80.713  65.698  74.095  1.00  0.00     0.220 C 
ATOM     10  O   UNL     1      80.494  66.905  74.357  1.00  0.00    -0.275 OA
ATOM     11  N   UNL     1      81.259  64.861  75.026  1.00  0.00    -0.352 N 
ATOM     12  H   UNL     1      81.471  63.936  74.682  1.00  0.00     0.163 HD
BRANCH  11  13
ATOM     13  C   UNL     1      81.534  65.195  76.390  1.00  0.00     0.151 C 
BRANCH  13  14
ATOM     14  C   UNL     1      82.958  65.539  76.649  1.00  0.00    -0.025 A 
ATOM     15  C   UNL     1      83.430  66.851  76.402  1.00  0.00     0.056 A 
ATOM     16  C   UNL     1      83.862  64.569  77.139  1.00  0.00     0.009 A 
ATOM     17  C   UNL     1      84.776  67.197  76.660  1.00  0.00     0.160 A 
ATOM     18  C   UNL     1      85.202  64.908  77.399  1.00  0.00     0.050 A 
ATOM     19  C   UNL     1      85.665  66.215  77.154  1.00  0.00     0.157 A 
BRANCH  17  20
ATOM     20  O   UNL     1      85.242  68.457  76.381  1.00  0.00    -0.493 OA
ATOM     21  C   UNL     1      85.571  68.670  74.997  1.00  0.00     0.278 C 
ENDBRANCH  17  20
BRANCH  19  22
ATOM     22  O   UNL     1      86.967  66.525  77.382  1.00  0.00    -0.504 OA
ATOM     23  H   UNL     1      87.264  67.160  76.726  1.00  0.00     0.293 HD
ENDBRANCH  19  22
ENDBRANCH  13  14
ENDBRANCH  11  13
ENDBRANCH   8   9
ENDBRANCH   1   8
TORSDOF 11
ENDMDL
