MODEL 1
REMARK VINA RESULT:    -6.825      0.000      0.000
REMARK INTER + INTRA:         -12.018
REMARK INTER:                 -11.413
REMARK INTRA:                  -0.604
REMARK UNBOUND:                -0.604
REMARK SMILES COc1cc(CNC(=O)CCCCCCCC(C)C)ccc1O
REMARK SMILES IDX 11 1 10 2 8 3 9 4 7 5 6 7 5 8 4 9 20 10 3 11 21 12 22 13
REMARK SMILES IDX 2 14 1 15 23 16 12 18 13 19 14 20 15 21 16 22 17 23 18 24
REMARK SMILES IDX 19 25
REMARK H PARENT 7 6 23 17
REMARK Flexibility Score: inf
ROOT
ATOM      1  C   UNL     1      96.744  82.394  83.593  1.00  0.00     0.010 C 
ENDROOT
BRANCH   1   2
ATOM      2  C   UNL     1      95.620  81.610  84.266  1.00  0.00     0.100 C 
BRANCH   2   3
ATOM      3  C   UNL     1      94.494  82.511  84.748  1.00  0.00     0.220 C 
ATOM      4  O   UNL     1      94.685  83.569  85.340  1.00  0.00    -0.275 OA
ATOM      5  N   UNL     1      93.250  81.981  84.440  1.00  0.00    -0.352 N 
ATOM      6  H   UNL     1      93.190  81.090  83.955  1.00  0.00     0.163 HD
BRANCH   5   7
ATOM      7  C   UNL     1      92.011  82.635  84.793  1.00  0.00     0.151 C 
BRANCH   7   8
ATOM      8  C   UNL     1      90.818  81.772  84.501  1.00  0.00    -0.025 A 
ATOM      9  C   UNL     1      89.542  82.319  84.564  1.00  0.00     0.056 A 
ATOM     10  C   UNL     1      91.002  80.435  84.173  1.00  0.00     0.009 A 
ATOM     11  C   UNL     1      88.434  81.517  84.293  1.00  0.00     0.160 A 
ATOM     12  C   UNL     1      89.893  79.632  83.902  1.00  0.00     0.050 A 
ATOM     13  C   UNL     1      88.609  80.173  83.962  1.00  0.00     0.157 A 
BRANCH  11  14
ATOM     14  O   UNL     1      87.184  82.057  84.355  1.00  0.00    -0.493 OA
ATOM     15  C   UNL     1      87.093  83.443  84.680  1.00  0.00     0.278 C 
ENDBRANCH  11  14
BRANCH  13  16
ATOM     16  O   UNL     1      87.534  79.380  83.695  1.00  0.00    -0.504 OA
ATOM     17  H   UNL     1      87.849  78.493  83.449  1.00  0.00     0.293 HD
ENDBRANCH  13  16
ENDBRANCH   7   8
ENDBRANCH   5   7
ENDBRANCH   2   3
ENDBRANCH   1   2
BRANCH   1  18
ATOM     18  C   UNL     1      96.377  82.913  82.200  1.00  0.00     0.001 C 
BRANCH  18  19
ATOM     19  C   UNL     1      97.079  82.222  81.026  1.00  0.00     0.000 C 
BRANCH  19  20
ATOM     20  C   UNL     1      97.615  83.202  79.979  1.00  0.00     0.000 C 
BRANCH  20  21
ATOM     21  C   UNL     1      97.407  82.727  78.537  1.00  0.00     0.000 C 
BRANCH  21  22
ATOM     22  C   UNL     1      96.532  83.672  77.708  1.00  0.00     0.003 C 
BRANCH  22  23
ATOM     23  C   UNL     1      97.017  83.842  76.254  1.00  0.00    -0.017 C 
ATOM     24  C   UNL     1      98.541  83.714  76.199  1.00  0.00     0.007 C 
ATOM     25  C   UNL     1      96.591  85.179  75.646  1.00  0.00     0.007 C 
ENDBRANCH  22  23
ENDBRANCH  21  22
ENDBRANCH  20  21
ENDBRANCH  19  20
ENDBRANCH  18  19
ENDBRANCH   1  18
TORSDOF 12
ENDMDL
MODEL 2
REMARK VINA RESULT:    -5.876      1.454      2.208
REMARK INTER + INTRA:         -10.432
REMARK INTER:                  -9.453
REMARK INTRA:                  -0.979
REMARK UNBOUND:                -0.604
REMARK SMILES COc1cc(CNC(=O)CCCCCCCC(C)C)ccc1O
REMARK SMILES IDX 11 1 10 2 8 3 9 4 7 5 6 7 5 8 4 9 20 10 3 11 21 12 22 13
REMARK SMILES IDX 2 14 1 15 23 16 12 18 13 19 14 20 15 21 16 22 17 23 18 24
REMARK SMILES IDX 19 25
REMARK H PARENT 7 6 23 17
REMARK Flexibility Score: inf
ROOT
ATOM      1  C   UNL     1      97.606  82.634  84.438  1.00  0.00     0.010 C 
ENDROOT
BRANCH   1   2
ATOM      2  C   UNL     1      96.748  83.284  85.522  1.00  0.00     0.100 C 
BRANCH   2   3
ATOM      3  C   UNL     1      95.393  83.729  84.997  1.00  0.00     0.220 C 
ATOM      4  O   UNL     1      95.235  84.727  84.299  1.00  0.00    -0.275 OA
ATOM      5  N   UNL     1      94.380  82.877  85.413  1.00  0.00    -0.352 N 
ATOM      6  H   UNL     1      94.606  82.079  86.001  1.00  0.00     0.163 HD
BRANCH   5   7
ATOM      7  C   UNL     1      92.994  83.077  85.060  1.00  0.00     0.151 C 
BRANCH   7   8
ATOM      8  C   UNL     1      92.295  81.781  84.771  1.00  0.00    -0.025 A 
ATOM      9  C   UNL     1      90.987  81.794  84.301  1.00  0.00     0.056 A 
ATOM     10  C   UNL     1      92.963  80.580  84.977  1.00  0.00     0.009 A 
ATOM     11  C   UNL     1      90.338  80.589  84.033  1.00  0.00     0.160 A 
ATOM     12  C   UNL     1      92.313  79.374  84.710  1.00  0.00     0.050 A 
ATOM     13  C   UNL     1      91.001  79.378  84.238  1.00  0.00     0.157 A 
BRANCH  11  14
ATOM     14  O   UNL     1      89.056  80.606  83.573  1.00  0.00    -0.493 OA
ATOM     15  C   UNL     1      88.031  80.905  84.521  1.00  0.00     0.278 C 
ENDBRANCH  11  14
BRANCH  13  16
ATOM     16  O   UNL     1      90.378  78.195  83.979  1.00  0.00    -0.504 OA
ATOM     17  H   UNL     1      90.903  77.696  83.330  1.00  0.00     0.293 HD
ENDBRANCH  13  16
ENDBRANCH   7   8
ENDBRANCH   5   7
ENDBRANCH   2   3
ENDBRANCH   1   2
BRANCH   1  18
ATOM     18  C   UNL     1      97.037  81.310  83.922  1.00  0.00     0.001 C 
BRANCH  18  19
ATOM     19  C   UNL     1      97.000  81.152  82.398  1.00  0.00     0.000 C 
BRANCH  19  20
ATOM     20  C   UNL     1      96.603  82.436  81.666  1.00  0.00     0.000 C 
BRANCH  20  21
ATOM     21  C   UNL     1      97.624  82.879  80.613  1.00  0.00     0.000 C 
BRANCH  21  22
ATOM     22  C   UNL     1      97.412  82.220  79.246  1.00  0.00     0.003 C 
BRANCH  22  23
ATOM     23  C   UNL     1      97.649  83.175  78.060  1.00  0.00    -0.017 C 
ATOM     24  C   UNL     1      96.338  83.866  77.681  1.00  0.00     0.007 C 
ATOM     25  C   UNL     1      98.224  82.459  76.837  1.00  0.00     0.007 C 
ENDBRANCH  22  23
ENDBRANCH  21  22
ENDBRANCH  20  21
ENDBRANCH  19  20
ENDBRANCH  18  19
ENDBRANCH   1  18
TORSDOF 12
ENDMDL
MODEL 3
REMARK VINA RESULT:    -5.779      4.562      9.668
REMARK INTER + INTRA:         -10.269
REMARK INTER:                  -9.194
REMARK INTRA:                  -1.074
REMARK UNBOUND:                -0.604
REMARK SMILES COc1cc(CNC(=O)CCCCCCCC(C)C)ccc1O
REMARK SMILES IDX 11 1 10 2 8 3 9 4 7 5 6 7 5 8 4 9 20 10 3 11 21 12 22 13
REMARK SMILES IDX 2 14 1 15 23 16 12 18 13 19 14 20 15 21 16 22 17 23 18 24
REMARK SMILES IDX 19 25
REMARK H PARENT 7 6 23 17
REMARK Flexibility Score: inf
ROOT
ATOM      1  C   UNL     1      95.375  82.245  83.581  1.00  0.00     0.010 C 
ENDROOT
BRANCH   1   2
ATOM      2  C   UNL     1      96.679  83.034  83.496  1.00  0.00     0.100 C 
BRANCH   2   3
ATOM      3  C   UNL     1      97.656  82.431  82.500  1.00  0.00     0.220 C 
ATOM      4  O   UNL     1      98.504  81.598  82.808  1.00  0.00    -0.275 OA
ATOM      5  N   UNL     1      97.469  82.947  81.226  1.00  0.00    -0.352 N 
ATOM      6  H   UNL     1      96.747  83.645  81.068  1.00  0.00     0.163 HD
BRANCH   5   7
ATOM      7  C   UNL     1      98.272  82.548  80.094  1.00  0.00     0.151 C 
BRANCH   7   8
ATOM      8  C   UNL     1      97.765  83.138  78.810  1.00  0.00    -0.025 A 
ATOM      9  C   UNL     1      98.597  83.182  77.697  1.00  0.00     0.056 A 
ATOM     10  C   UNL     1      96.469  83.635  78.747  1.00  0.00     0.009 A 
ATOM     11  C   UNL     1      98.125  83.730  76.505  1.00  0.00     0.160 A 
ATOM     12  C   UNL     1      95.998  84.184  77.554  1.00  0.00     0.050 A 
ATOM     13  C   UNL     1      96.826  84.232  76.433  1.00  0.00     0.157 A 
BRANCH  11  14
ATOM     14  O   UNL     1      98.944  83.772  75.416  1.00  0.00    -0.493 OA
ATOM     15  C   UNL     1      99.951  82.765  75.324  1.00  0.00     0.278 C 
ENDBRANCH  11  14
BRANCH  13  16
ATOM     16  O   UNL     1      96.354  84.770  75.274  1.00  0.00    -0.504 OA
ATOM     17  H   UNL     1      95.416  84.999  75.390  1.00  0.00     0.293 HD
ENDBRANCH  13  16
ENDBRANCH   7   8
ENDBRANCH   5   7
ENDBRANCH   2   3
ENDBRANCH   1   2
BRANCH   1  18
ATOM     18  C   UNL     1      95.579  80.728  83.598  1.00  0.00     0.001 C 
BRANCH  18  19
ATOM     19  C   UNL     1      94.580  79.932  84.444  1.00  0.00     0.000 C 
BRANCH  19  20
ATOM     20  C   UNL     1      93.522  80.811  85.117  1.00  0.00     0.000 C 
BRANCH  20  21
ATOM     21  C   UNL     1      93.431  80.604  86.632  1.00  0.00     0.000 C 
BRANCH  21  22
ATOM     22  C   UNL     1      93.216  81.906  87.411  1.00  0.00     0.003 C 
BRANCH  22  23
ATOM     23  C   UNL     1      94.141  83.052  86.957  1.00  0.00    -0.017 C 
ATOM     24  C   UNL     1      95.583  82.749  87.372  1.00  0.00     0.007 C 
ATOM     25  C   UNL     1      93.717  84.408  87.524  1.00  0.00     0.007 C 
ENDBRANCH  22  23
ENDBRANCH  21  22
ENDBRANCH  20  21
ENDBRANCH  19  20
ENDBRANCH  18  19
ENDBRANCH   1  18
TORSDOF 12
ENDMDL
MODEL 4
REMARK VINA RESULT:    -5.606     22.928     26.031
REMARK INTER + INTRA:          -9.980
REMARK INTER:                  -8.532
REMARK INTRA:                  -1.448
REMARK UNBOUND:                -0.604
REMARK SMILES COc1cc(CNC(=O)CCCCCCCC(C)C)ccc1O
REMARK SMILES IDX 11 1 10 2 8 3 9 4 7 5 6 7 5 8 4 9 20 10 3 11 21 12 22 13
REMARK SMILES IDX 2 14 1 15 23 16 12 18 13 19 14 20 15 21 16 22 17 23 18 24
REMARK SMILES IDX 19 25
REMARK H PARENT 7 6 23 17
REMARK Flexibility Score: inf
ROOT
ATOM      1  C   UNL     1      73.446  86.176  67.367  1.00  0.00     0.010 C 
ENDROOT
BRANCH   1   2
ATOM      2  C   UNL     1      72.728  85.456  68.507  1.00  0.00     0.100 C 
BRANCH   2   3
ATOM      3  C   UNL     1      71.322  85.025  68.125  1.00  0.00     0.220 C 
ATOM      4  O   UNL     1      70.719  85.476  67.156  1.00  0.00    -0.275 OA
ATOM      5  N   UNL     1      70.822  84.078  69.007  1.00  0.00    -0.352 N 
ATOM      6  H   UNL     1      71.393  83.772  69.791  1.00  0.00     0.163 HD
BRANCH   5   7
ATOM      7  C   UNL     1      69.502  83.506  68.877  1.00  0.00     0.151 C 
BRANCH   7   8
ATOM      8  C   UNL     1      68.526  84.123  69.836  1.00  0.00    -0.025 A 
ATOM      9  C   UNL     1      67.172  84.144  69.521  1.00  0.00     0.056 A 
ATOM     10  C   UNL     1      68.986  84.667  71.029  1.00  0.00     0.009 A 
ATOM     11  C   UNL     1      66.266  84.718  70.413  1.00  0.00     0.160 A 
ATOM     12  C   UNL     1      68.078  85.241  71.921  1.00  0.00     0.050 A 
ATOM     13  C   UNL     1      66.719  85.267  71.613  1.00  0.00     0.157 A 
BRANCH  11  14
ATOM     14  O   UNL     1      64.940  84.737  70.100  1.00  0.00    -0.493 OA
ATOM     15  C   UNL     1      64.219  83.516  70.257  1.00  0.00     0.278 C 
ENDBRANCH  11  14
BRANCH  13  16
ATOM     16  O   UNL     1      65.843  85.829  72.492  1.00  0.00    -0.504 OA
ATOM     17  H   UNL     1      65.396  85.122  72.988  1.00  0.00     0.293 HD
ENDBRANCH  13  16
ENDBRANCH   7   8
ENDBRANCH   5   7
ENDBRANCH   2   3
ENDBRANCH   1   2
BRANCH   1  18
ATOM     18  C   UNL     1      73.945  87.573  67.746  1.00  0.00     0.001 C 
BRANCH  18  19
ATOM     19  C   UNL     1      75.149  88.087  66.950  1.00  0.00     0.000 C 
BRANCH  19  20
ATOM     20  C   UNL     1      76.429  88.183  67.784  1.00  0.00     0.000 C 
BRANCH  20  21
ATOM     21  C   UNL     1      77.226  86.875  67.831  1.00  0.00     0.000 C 
BRANCH  21  22
ATOM     22  C   UNL     1      77.195  86.195  69.204  1.00  0.00     0.003 C 
BRANCH  22  23
ATOM     23  C   UNL     1      76.870  84.689  69.137  1.00  0.00    -0.017 C 
ATOM     24  C   UNL     1      76.466  84.311  67.710  1.00  0.00     0.007 C 
ATOM     25  C   UNL     1      75.762  84.285  70.109  1.00  0.00     0.007 C 
ENDBRANCH  22  23
ENDBRANCH  21  22
ENDBRANCH  20  21
ENDBRANCH  19  20
ENDBRANCH  18  19
ENDBRANCH   1  18
TORSDOF 12
ENDMDL
MODEL 5
REMARK VINA RESULT:    -5.463      5.828     11.562
REMARK INTER + INTRA:          -9.740
REMARK INTER:                  -8.752
REMARK INTRA:                  -0.988
REMARK UNBOUND:                -0.604
REMARK SMILES COc1cc(CNC(=O)CCCCCCCC(C)C)ccc1O
REMARK SMILES IDX 11 1 10 2 8 3 9 4 7 5 6 7 5 8 4 9 20 10 3 11 21 12 22 13
REMARK SMILES IDX 2 14 1 15 23 16 12 18 13 19 14 20 15 21 16 22 17 23 18 24
REMARK SMILES IDX 19 25
REMARK H PARENT 7 6 23 17
REMARK Flexibility Score: inf
ROOT
ATOM      1  C   UNL     1      98.996  82.088  79.313  1.00  0.00     0.010 C 
ENDROOT
BRANCH   1   2
ATOM      2  C   UNL     1      97.837  81.803  78.361  1.00  0.00     0.100 C 
BRANCH   2   3
ATOM      3  C   UNL     1      97.417  83.035  77.576  1.00  0.00     0.220 C 
ATOM      4  O   UNL     1      96.853  83.999  78.086  1.00  0.00    -0.275 OA
ATOM      5  N   UNL     1      97.744  82.919  76.233  1.00  0.00    -0.352 N 
ATOM      6  H   UNL     1      98.202  82.075  75.898  1.00  0.00     0.163 HD
BRANCH   5   7
ATOM      7  C   UNL     1      97.447  83.948  75.263  1.00  0.00     0.151 C 
BRANCH   7   8
ATOM      8  C   UNL     1      98.687  84.452  74.582  1.00  0.00    -0.025 A 
ATOM      9  C   UNL     1      99.934  84.168  75.126  1.00  0.00     0.056 A 
ATOM     10  C   UNL     1      98.574  85.197  73.415  1.00  0.00     0.009 A 
ATOM     11  C   UNL     1     101.085  84.636  74.493  1.00  0.00     0.160 A 
ATOM     12  C   UNL     1      99.726  85.666  72.782  1.00  0.00     0.050 A 
ATOM     13  C   UNL     1     100.982  85.386  73.321  1.00  0.00     0.157 A 
BRANCH  11  14
ATOM     14  O   UNL     1     102.306  84.357  75.030  1.00  0.00    -0.493 OA
ATOM     15  C   UNL     1     102.517  83.026  75.501  1.00  0.00     0.278 C 
ENDBRANCH  11  14
BRANCH  13  16
ATOM     16  O   UNL     1     102.099  85.848  72.694  1.00  0.00    -0.504 OA
ATOM     17  H   UNL     1     102.811  85.193  72.793  1.00  0.00     0.293 HD
ENDBRANCH  13  16
ENDBRANCH   7   8
ENDBRANCH   5   7
ENDBRANCH   2   3
ENDBRANCH   1   2
BRANCH   1  18
ATOM     18  C   UNL     1      98.563  82.237  80.774  1.00  0.00     0.001 C 
BRANCH  18  19
ATOM     19  C   UNL     1      97.064  82.063  81.044  1.00  0.00     0.000 C 
BRANCH  19  20
ATOM     20  C   UNL     1      96.767  81.161  82.245  1.00  0.00     0.000 C 
BRANCH  20  21
ATOM     21  C   UNL     1      95.962  81.859  83.347  1.00  0.00     0.000 C 
BRANCH  21  22
ATOM     22  C   UNL     1      95.572  83.298  82.994  1.00  0.00     0.003 C 
BRANCH  22  23
ATOM     23  C   UNL     1      96.349  84.359  83.796  1.00  0.00    -0.017 C 
ATOM     24  C   UNL     1      96.968  83.717  85.040  1.00  0.00     0.007 C 
ATOM     25  C   UNL     1      95.471  85.540  84.212  1.00  0.00     0.007 C 
ENDBRANCH  22  23
ENDBRANCH  21  22
ENDBRANCH  20  21
ENDBRANCH  19  20
ENDBRANCH  18  19
ENDBRANCH   1  18
TORSDOF 12
ENDMDL
MODEL 6
REMARK VINA RESULT:    -5.418     22.134     24.954
REMARK INTER + INTRA:          -9.664
REMARK INTER:                  -8.042
REMARK INTRA:                  -1.623
REMARK UNBOUND:                -0.604
REMARK SMILES COc1cc(CNC(=O)CCCCCCCC(C)C)ccc1O
REMARK SMILES IDX 11 1 10 2 8 3 9 4 7 5 6 7 5 8 4 9 20 10 3 11 21 12 22 13
REMARK SMILES IDX 2 14 1 15 23 16 12 18 13 19 14 20 15 21 16 22 17 23 18 24
REMARK SMILES IDX 19 25
REMARK H PARENT 7 6 23 17
REMARK Flexibility Score: inf
ROOT
ATOM      1  C   UNL     1      74.654  88.734  68.960  1.00  0.00     0.010 C 
ENDROOT
BRANCH   1   2
ATOM      2  C   UNL     1      76.094  89.241  68.949  1.00  0.00     0.100 C 
BRANCH   2   3
ATOM      3  C   UNL     1      77.045  88.270  68.270  1.00  0.00     0.220 C 
ATOM      4  O   UNL     1      77.898  88.618  67.458  1.00  0.00    -0.275 OA
ATOM      5  N   UNL     1      76.817  86.964  68.678  1.00  0.00    -0.352 N 
ATOM      6  H   UNL     1      76.079  86.770  69.349  1.00  0.00     0.163 HD
BRANCH   5   7
ATOM      7  C   UNL     1      77.579  85.843  68.178  1.00  0.00     0.151 C 
BRANCH   7   8
ATOM      8  C   UNL     1      76.860  85.124  67.074  1.00  0.00    -0.025 A 
ATOM      9  C   UNL     1      75.534  85.436  66.799  1.00  0.00     0.056 A 
ATOM     10  C   UNL     1      77.528  84.153  66.338  1.00  0.00     0.009 A 
ATOM     11  C   UNL     1      74.866  84.768  65.772  1.00  0.00     0.160 A 
ATOM     12  C   UNL     1      76.859  83.484  65.312  1.00  0.00     0.050 A 
ATOM     13  C   UNL     1      75.528  83.791  65.029  1.00  0.00     0.157 A 
BRANCH  11  14
ATOM     14  O   UNL     1      73.566  85.077  65.506  1.00  0.00    -0.493 OA
ATOM     15  C   UNL     1      72.602  84.734  66.500  1.00  0.00     0.278 C 
ENDBRANCH  11  14
BRANCH  13  16
ATOM     16  O   UNL     1      74.887  83.132  64.024  1.00  0.00    -0.504 OA
ATOM     17  H   UNL     1      74.546  82.288  64.366  1.00  0.00     0.293 HD
ENDBRANCH  13  16
ENDBRANCH   7   8
ENDBRANCH   5   7
ENDBRANCH   2   3
ENDBRANCH   1   2
BRANCH   1  18
ATOM     18  C   UNL     1      73.899  89.011  67.658  1.00  0.00     0.001 C 
BRANCH  18  19
ATOM     19  C   UNL     1      72.496  89.606  67.817  1.00  0.00     0.000 C 
BRANCH  19  20
ATOM     20  C   UNL     1      72.491  91.136  67.885  1.00  0.00     0.000 C 
BRANCH  20  21
ATOM     21  C   UNL     1      71.995  91.685  69.227  1.00  0.00     0.000 C 
BRANCH  21  22
ATOM     22  C   UNL     1      73.033  92.551  69.948  1.00  0.00     0.003 C 
BRANCH  22  23
ATOM     23  C   UNL     1      73.937  91.753  70.908  1.00  0.00    -0.017 C 
ATOM     24  C   UNL     1      73.116  90.673  71.615  1.00  0.00     0.007 C 
ATOM     25  C   UNL     1      74.618  92.644  71.948  1.00  0.00     0.007 C 
ENDBRANCH  22  23
ENDBRANCH  21  22
ENDBRANCH  20  21
ENDBRANCH  19  20
ENDBRANCH  18  19
ENDBRANCH   1  18
TORSDOF 12
ENDMDL
MODEL 7
REMARK VINA RESULT:    -5.418     22.937     25.193
REMARK INTER + INTRA:          -9.664
REMARK INTER:                  -8.598
REMARK INTRA:                  -1.066
REMARK UNBOUND:                -0.604
REMARK SMILES COc1cc(CNC(=O)CCCCCCCC(C)C)ccc1O
REMARK SMILES IDX 11 1 10 2 8 3 9 4 7 5 6 7 5 8 4 9 20 10 3 11 21 12 22 13
REMARK SMILES IDX 2 14 1 15 23 16 12 18 13 19 14 20 15 21 16 22 17 23 18 24
REMARK SMILES IDX 19 25
REMARK H PARENT 7 6 23 17
REMARK Flexibility Score: inf
ROOT
ATOM      1  C   UNL     1      74.067  89.448  70.329  1.00  0.00     0.010 C 
ENDROOT
BRANCH   1   2
ATOM      2  C   UNL     1      73.104  90.266  71.186  1.00  0.00     0.100 C 
BRANCH   2   3
ATOM      3  C   UNL     1      71.656  90.085  70.761  1.00  0.00     0.220 C 
ATOM      4  O   UNL     1      70.781  90.919  70.979  1.00  0.00    -0.275 OA
ATOM      5  N   UNL     1      71.461  88.872  70.117  1.00  0.00    -0.352 N 
ATOM      6  H   UNL     1      72.246  88.239  69.992  1.00  0.00     0.163 HD
BRANCH   5   7
ATOM      7  C   UNL     1      70.173  88.448  69.619  1.00  0.00     0.151 C 
BRANCH   7   8
ATOM      8  C   UNL     1      70.130  86.969  69.363  1.00  0.00    -0.025 A 
ATOM      9  C   UNL     1      70.619  86.464  68.165  1.00  0.00     0.056 A 
ATOM     10  C   UNL     1      69.600  86.120  70.328  1.00  0.00     0.009 A 
ATOM     11  C   UNL     1      70.579  85.090  67.927  1.00  0.00     0.160 A 
ATOM     12  C   UNL     1      69.560  84.746  70.090  1.00  0.00     0.050 A 
ATOM     13  C   UNL     1      70.049  84.231  68.890  1.00  0.00     0.157 A 
BRANCH  11  14
ATOM     14  O   UNL     1      71.059  84.599  66.751  1.00  0.00    -0.493 OA
ATOM     15  C   UNL     1      72.473  84.639  66.561  1.00  0.00     0.278 C 
ENDBRANCH  11  14
BRANCH  13  16
ATOM     16  O   UNL     1      70.004  82.887  68.670  1.00  0.00    -0.504 OA
ATOM     17  H   UNL     1      70.588  82.670  67.923  1.00  0.00     0.293 HD
ENDBRANCH  13  16
ENDBRANCH   7   8
ENDBRANCH   5   7
ENDBRANCH   2   3
ENDBRANCH   1   2
BRANCH   1  18
ATOM     18  C   UNL     1      75.160  90.291  69.665  1.00  0.00     0.001 C 
BRANCH  18  19
ATOM     19  C   UNL     1      76.227  89.507  68.894  1.00  0.00     0.000 C 
BRANCH  19  20
ATOM     20  C   UNL     1      75.735  88.984  67.541  1.00  0.00     0.000 C 
BRANCH  20  21
ATOM     21  C   UNL     1      76.793  88.181  66.776  1.00  0.00     0.000 C 
BRANCH  21  22
ATOM     22  C   UNL     1      76.472  86.685  66.688  1.00  0.00     0.003 C 
BRANCH  22  23
ATOM     23  C   UNL     1      77.181  85.841  67.765  1.00  0.00    -0.017 C 
ATOM     24  C   UNL     1      77.520  84.459  67.199  1.00  0.00     0.007 C 
ATOM     25  C   UNL     1      76.343  85.684  69.034  1.00  0.00     0.007 C 
ENDBRANCH  22  23
ENDBRANCH  21  22
ENDBRANCH  20  21
ENDBRANCH  19  20
ENDBRANCH  18  19
ENDBRANCH   1  18
TORSDOF 12
ENDMDL
MODEL 8
REMARK VINA RESULT:    -5.325      2.655      3.348
REMARK INTER + INTRA:          -9.509
REMARK INTER:                  -7.983
REMARK INTRA:                  -1.525
REMARK UNBOUND:                -0.604
REMARK SMILES COc1cc(CNC(=O)CCCCCCCC(C)C)ccc1O
REMARK SMILES IDX 11 1 10 2 8 3 9 4 7 5 6 7 5 8 4 9 20 10 3 11 21 12 22 13
REMARK SMILES IDX 2 14 1 15 23 16 12 18 13 19 14 20 15 21 16 22 17 23 18 24
REMARK SMILES IDX 19 25
REMARK H PARENT 7 6 23 17
REMARK Flexibility Score: inf
ROOT
ATOM      1  C   UNL     1      97.899  82.111  84.702  1.00  0.00     0.010 C 
ENDROOT
BRANCH   1   2
ATOM      2  C   UNL     1      96.971  83.028  85.496  1.00  0.00     0.100 C 
BRANCH   2   3
ATOM      3  C   UNL     1      95.742  83.435  84.701  1.00  0.00     0.220 C 
ATOM      4  O   UNL     1      95.745  84.339  83.870  1.00  0.00    -0.275 OA
ATOM      5  N   UNL     1      94.638  82.668  85.041  1.00  0.00    -0.352 N 
ATOM      6  H   UNL     1      94.727  81.946  85.751  1.00  0.00     0.163 HD
BRANCH   5   7
ATOM      7  C   UNL     1      93.338  82.855  84.438  1.00  0.00     0.151 C 
BRANCH   7   8
ATOM      8  C   UNL     1      92.547  81.580  84.403  1.00  0.00    -0.025 A 
ATOM      9  C   UNL     1      91.215  81.608  84.006  1.00  0.00     0.056 A 
ATOM     10  C   UNL     1      93.154  80.385  84.768  1.00  0.00     0.009 A 
ATOM     11  C   UNL     1      90.480  80.422  83.974  1.00  0.00     0.160 A 
ATOM     12  C   UNL     1      92.418  79.199  84.736  1.00  0.00     0.050 A 
ATOM     13  C   UNL     1      91.082  79.218  84.339  1.00  0.00     0.157 A 
BRANCH  11  14
ATOM     14  O   UNL     1      89.175  80.453  83.585  1.00  0.00    -0.493 OA
ATOM     15  C   UNL     1      88.233  80.978  84.519  1.00  0.00     0.278 C 
ENDBRANCH  11  14
BRANCH  13  16
ATOM     16  O   UNL     1      90.375  78.054  84.311  1.00  0.00    -0.504 OA
ATOM     17  H   UNL     1      90.828  77.422  83.726  1.00  0.00     0.293 HD
ENDBRANCH  13  16
ENDBRANCH   7   8
ENDBRANCH   5   7
ENDBRANCH   2   3
ENDBRANCH   1   2
BRANCH   1  18
ATOM     18  C   UNL     1      97.485  80.638  84.744  1.00  0.00     0.001 C 
BRANCH  18  19
ATOM     19  C   UNL     1      97.393  79.935  83.386  1.00  0.00     0.000 C 
BRANCH  19  20
ATOM     20  C   UNL     1      96.477  80.654  82.393  1.00  0.00     0.000 C 
BRANCH  20  21
ATOM     21  C   UNL     1      97.086  80.795  80.993  1.00  0.00     0.000 C 
BRANCH  21  22
ATOM     22  C   UNL     1      98.429  80.074  80.841  1.00  0.00     0.003 C 
BRANCH  22  23
ATOM     23  C   UNL     1      99.568  80.992  80.356  1.00  0.00    -0.017 C 
ATOM     24  C   UNL     1     100.869  80.624  81.072  1.00  0.00     0.007 C 
ATOM     25  C   UNL     1      99.260  82.473  80.576  1.00  0.00     0.007 C 
ENDBRANCH  22  23
ENDBRANCH  21  22
ENDBRANCH  20  21
ENDBRANCH  19  20
ENDBRANCH  18  19
ENDBRANCH   1  18
TORSDOF 12
ENDMDL
MODEL 9
REMARK VINA RESULT:    -5.269     23.103     26.014
REMARK INTER + INTRA:          -9.416
REMARK INTER:                  -8.264
REMARK INTRA:                  -1.152
REMARK UNBOUND:                -0.604
REMARK SMILES COc1cc(CNC(=O)CCCCCCCC(C)C)ccc1O
REMARK SMILES IDX 11 1 10 2 8 3 9 4 7 5 6 7 5 8 4 9 20 10 3 11 21 12 22 13
REMARK SMILES IDX 2 14 1 15 23 16 12 18 13 19 14 20 15 21 16 22 17 23 18 24
REMARK SMILES IDX 19 25
REMARK H PARENT 7 6 23 17
REMARK Flexibility Score: inf
ROOT
ATOM      1  C   UNL     1      73.403  86.115  68.238  1.00  0.00     0.010 C 
ENDROOT
BRANCH   1   2
ATOM      2  C   UNL     1      72.533  85.858  67.009  1.00  0.00     0.100 C 
BRANCH   2   3
ATOM      3  C   UNL     1      71.669  84.617  67.162  1.00  0.00     0.220 C 
ATOM      4  O   UNL     1      71.577  83.749  66.298  1.00  0.00    -0.275 OA
ATOM      5  N   UNL     1      71.006  84.605  68.380  1.00  0.00    -0.352 N 
ATOM      6  H   UNL     1      71.136  85.375  69.030  1.00  0.00     0.163 HD
BRANCH   5   7
ATOM      7  C   UNL     1      70.113  83.540  68.775  1.00  0.00     0.151 C 
BRANCH   7   8
ATOM      8  C   UNL     1      68.973  84.045  69.612  1.00  0.00    -0.025 A 
ATOM      9  C   UNL     1      67.665  83.784  69.222  1.00  0.00     0.056 A 
ATOM     10  C   UNL     1      69.239  84.769  70.768  1.00  0.00     0.009 A 
ATOM     11  C   UNL     1      66.607  84.253  70.000  1.00  0.00     0.160 A 
ATOM     12  C   UNL     1      68.180  85.239  71.546  1.00  0.00     0.050 A 
ATOM     13  C   UNL     1      66.864  84.982  71.162  1.00  0.00     0.157 A 
BRANCH  11  14
ATOM     14  O   UNL     1      65.326  83.996  69.615  1.00  0.00    -0.493 OA
ATOM     15  C   UNL     1      64.881  84.599  68.401  1.00  0.00     0.278 C 
ENDBRANCH  11  14
BRANCH  13  16
ATOM     16  O   UNL     1      65.839  85.445  71.930  1.00  0.00    -0.504 OA
ATOM     17  H   UNL     1      66.203  85.819  72.751  1.00  0.00     0.293 HD
ENDBRANCH  13  16
ENDBRANCH   7   8
ENDBRANCH   5   7
ENDBRANCH   2   3
ENDBRANCH   1   2
BRANCH   1  18
ATOM     18  C   UNL     1      74.442  85.020  68.491  1.00  0.00     0.001 C 
BRANCH  18  19
ATOM     19  C   UNL     1      75.637  85.425  69.360  1.00  0.00     0.000 C 
BRANCH  19  20
ATOM     20  C   UNL     1      76.987  85.206  68.672  1.00  0.00     0.000 C 
BRANCH  20  21
ATOM     21  C   UNL     1      77.594  86.491  68.096  1.00  0.00     0.000 C 
BRANCH  21  22
ATOM     22  C   UNL     1      76.912  86.957  66.805  1.00  0.00     0.003 C 
BRANCH  22  23
ATOM     23  C   UNL     1      76.764  88.488  66.707  1.00  0.00    -0.017 C 
ATOM     24  C   UNL     1      77.207  89.135  68.022  1.00  0.00     0.007 C 
ATOM     25  C   UNL     1      75.334  88.919  66.379  1.00  0.00     0.007 C 
ENDBRANCH  22  23
ENDBRANCH  21  22
ENDBRANCH  20  21
ENDBRANCH  19  20
ENDBRANCH  18  19
ENDBRANCH   1  18
TORSDOF 12
ENDMDL
MODEL 10
REMARK VINA RESULT:    -5.256     12.669     14.799
REMARK INTER + INTRA:          -9.395
REMARK INTER:                  -8.648
REMARK INTRA:                  -0.747
REMARK UNBOUND:                -0.604
REMARK SMILES COc1cc(CNC(=O)CCCCCCCC(C)C)ccc1O
REMARK SMILES IDX 11 1 10 2 8 3 9 4 7 5 6 7 5 8 4 9 20 10 3 11 21 12 22 13
REMARK SMILES IDX 2 14 1 15 23 16 12 18 13 19 14 20 15 21 16 22 17 23 18 24
REMARK SMILES IDX 19 25
REMARK H PARENT 7 6 23 17
REMARK Flexibility Score: inf
ROOT
ATOM      1  C   UNL     1      95.888  95.333  91.413  1.00  0.00     0.010 C 
ENDROOT
BRANCH   1   2
ATOM      2  C   UNL     1      95.865  93.839  91.098  1.00  0.00     0.100 C 
BRANCH   2   3
ATOM      3  C   UNL     1      94.794  93.479  90.081  1.00  0.00     0.220 C 
ATOM      4  O   UNL     1      94.559  94.153  89.083  1.00  0.00    -0.275 OA
ATOM      5  N   UNL     1      94.129  92.313  90.433  1.00  0.00    -0.352 N 
ATOM      6  H   UNL     1      94.387  91.827  91.288  1.00  0.00     0.163 HD
BRANCH   5   7
ATOM      7  C   UNL     1      93.058  91.753  89.641  1.00  0.00     0.151 C 
BRANCH   7   8
ATOM      8  C   UNL     1      93.531  90.617  88.781  1.00  0.00    -0.025 A 
ATOM      9  C   UNL     1      93.040  89.337  89.002  1.00  0.00     0.056 A 
ATOM     10  C   UNL     1      94.457  90.859  87.773  1.00  0.00     0.009 A 
ATOM     11  C   UNL     1      93.479  88.281  88.203  1.00  0.00     0.160 A 
ATOM     12  C   UNL     1      94.897  89.803  86.974  1.00  0.00     0.050 A 
ATOM     13  C   UNL     1      94.409  88.514  87.189  1.00  0.00     0.157 A 
BRANCH  11  14
ATOM     14  O   UNL     1      92.995  87.027  88.423  1.00  0.00    -0.493 OA
ATOM     15  C   UNL     1      93.525  86.315  89.540  1.00  0.00     0.278 C 
ENDBRANCH  11  14
BRANCH  13  16
ATOM     16  O   UNL     1      94.845  87.492  86.401  1.00  0.00    -0.504 OA
ATOM     17  H   UNL     1      95.638  87.781  85.919  1.00  0.00     0.293 HD
ENDBRANCH  13  16
ENDBRANCH   7   8
ENDBRANCH   5   7
ENDBRANCH   2   3
ENDBRANCH   1   2
BRANCH   1  18
ATOM     18  C   UNL     1      94.677  95.804  92.223  1.00  0.00     0.001 C 
BRANCH  18  19
ATOM     19  C   UNL     1      93.967  97.053  91.690  1.00  0.00     0.000 C 
BRANCH  19  20
ATOM     20  C   UNL     1      94.086  97.215  90.172  1.00  0.00     0.000 C 
BRANCH  20  21
ATOM     21  C   UNL     1      93.833  98.648  89.690  1.00  0.00     0.000 C 
BRANCH  21  22
ATOM     22  C   UNL     1      92.463  99.194  90.104  1.00  0.00     0.003 C 
BRANCH  22  23
ATOM     23  C   UNL     1      92.093 100.519  89.409  1.00  0.00    -0.017 C 
ATOM     24  C   UNL     1      90.751 101.025  89.941  1.00  0.00     0.007 C 
ATOM     25  C   UNL     1      92.026 100.384  87.888  1.00  0.00     0.007 C 
ENDBRANCH  22  23
ENDBRANCH  21  22
ENDBRANCH  20  21
ENDBRANCH  19  20
ENDBRANCH  18  19
ENDBRANCH   1  18
TORSDOF 12
ENDMDL
