MODEL 1
REMARK VINA RESULT:    -6.833      0.000      0.000
REMARK INTER + INTRA:         -11.642
REMARK INTER:                 -11.028
REMARK INTRA:                  -0.614
REMARK UNBOUND:                -0.614
REMARK SMILES COc1cc(CNC(=O)CCCCCCC(C)C)ccc1O
REMARK SMILES IDX 11 1 10 2 8 3 7 4 9 6 6 7 5 8 3 9 21 10 4 11 20 12 19 13
REMARK SMILES IDX 2 14 1 15 22 16 12 18 13 19 14 20 15 21 16 22 17 23 18 24
REMARK H PARENT 7 5 22 17
REMARK Flexibility Score: inf
ROOT
ATOM      1  C   UNL     1      91.636  95.368  76.671  1.00  0.00     0.010 C 
ENDROOT
BRANCH   1   2
ATOM      2  C   UNL     1      92.324  94.855  77.966  1.00  0.00     0.100 C 
BRANCH   2   3
ATOM      3  C   UNL     1      93.763  95.193  78.037  1.00  0.00     0.220 C 
ATOM      4  N   UNL     1      94.162  96.495  78.118  1.00  0.00    -0.352 N 
ATOM      5  H   UNL     1      93.411  97.169  78.081  1.00  0.00     0.163 HD
ATOM      6  O   UNL     1      94.601  94.258  78.044  1.00  0.00    -0.275 OA
BRANCH   4   7
ATOM      7  C   UNL     1      95.517  96.938  78.249  1.00  0.00     0.151 C 
BRANCH   7   8
ATOM      8  C   UNL     1      95.842  97.440  79.613  1.00  0.00    -0.025 A 
ATOM      9  C   UNL     1      96.967  97.144  81.779  1.00  0.00     0.160 A 
ATOM     10  C   UNL     1      96.501  98.410  82.197  1.00  0.00     0.157 A 
ATOM     11  C   UNL     1      96.618  96.661  80.500  1.00  0.00     0.056 A 
ATOM     12  C   UNL     1      95.694  99.177  81.337  1.00  0.00     0.050 A 
ATOM     13  C   UNL     1      95.375  98.702  80.050  1.00  0.00     0.009 A 
BRANCH   9  14
ATOM     14  O   UNL     1      97.719  96.372  82.623  1.00  0.00    -0.493 OA
ATOM     15  C   UNL     1      98.592  95.452  81.943  1.00  0.00     0.278 C 
ENDBRANCH   9  14
BRANCH  10  16
ATOM     16  O   UNL     1      96.819  98.899  83.424  1.00  0.00    -0.504 OA
ATOM     17  H   UNL     1      97.741  99.167  83.432  1.00  0.00     0.293 HD
ENDBRANCH  10  16
ENDBRANCH   7   8
ENDBRANCH   4   7
ENDBRANCH   2   3
ENDBRANCH   1   2
BRANCH   1  18
ATOM     18  C   UNL     1      90.140  94.948  76.595  1.00  0.00     0.001 C 
BRANCH  18  19
ATOM     19  C   UNL     1      89.870  93.500  77.092  1.00  0.00     0.000 C 
BRANCH  19  20
ATOM     20  C   UNL     1      90.300  92.443  76.036  1.00  0.00     0.000 C 
BRANCH  20  21
ATOM     21  C   UNL     1      89.381  91.191  75.976  1.00  0.00     0.003 C 
BRANCH  21  22
ATOM     22  C   UNL     1      89.549  90.323  74.687  1.00  0.00    -0.017 C 
ATOM     23  C   UNL     1      89.897  88.855  75.062  1.00  0.00     0.007 C 
ATOM     24  C   UNL     1      90.594  90.891  73.682  1.00  0.00     0.007 C 
ENDBRANCH  21  22
ENDBRANCH  20  21
ENDBRANCH  19  20
ENDBRANCH  18  19
ENDBRANCH   1  18
TORSDOF 11
ENDMDL
MODEL 2
REMARK VINA RESULT:    -6.148      1.809      2.585
REMARK INTER + INTRA:         -10.536
REMARK INTER:                  -9.883
REMARK INTRA:                  -0.653
REMARK UNBOUND:                -0.614
REMARK SMILES COc1cc(CNC(=O)CCCCCCC(C)C)ccc1O
REMARK SMILES IDX 11 1 10 2 8 3 7 4 9 6 6 7 5 8 3 9 21 10 4 11 20 12 19 13
REMARK SMILES IDX 2 14 1 15 22 16 12 18 13 19 14 20 15 21 16 22 17 23 18 24
REMARK H PARENT 7 5 22 17
REMARK Flexibility Score: inf
ROOT
ATOM      1  C   UNL     1      92.805  95.637  75.258  1.00  0.00     0.010 C 
ENDROOT
BRANCH   1   2
ATOM      2  C   UNL     1      93.988  94.934  75.980  1.00  0.00     0.100 C 
BRANCH   2   3
ATOM      3  C   UNL     1      93.911  95.028  77.456  1.00  0.00     0.220 C 
ATOM      4  N   UNL     1      94.762  94.302  78.237  1.00  0.00    -0.352 N 
ATOM      5  H   UNL     1      95.385  93.692  77.728  1.00  0.00     0.163 HD
ATOM      6  O   UNL     1      93.067  95.804  77.966  1.00  0.00    -0.275 OA
BRANCH   4   7
ATOM      7  C   UNL     1      94.819  94.355  79.667  1.00  0.00     0.151 C 
BRANCH   7   8
ATOM      8  C   UNL     1      95.912  95.226  80.178  1.00  0.00    -0.025 A 
ATOM      9  C   UNL     1      97.557  97.017  79.810  1.00  0.00     0.160 A 
ATOM     10  C   UNL     1      97.967  96.921  81.158  1.00  0.00     0.157 A 
ATOM     11  C   UNL     1      96.548  96.158  79.327  1.00  0.00     0.056 A 
ATOM     12  C   UNL     1      97.369  95.971  82.005  1.00  0.00     0.050 A 
ATOM     13  C   UNL     1      96.342  95.136  81.524  1.00  0.00     0.009 A 
BRANCH   9  14
ATOM     14  O   UNL     1      98.159  97.911  78.967  1.00  0.00    -0.493 OA
ATOM     15  C   UNL     1      97.416  98.162  77.761  1.00  0.00     0.278 C 
ENDBRANCH   9  14
BRANCH  10  16
ATOM     16  O   UNL     1      98.938  97.735  81.650  1.00  0.00    -0.504 OA
ATOM     17  H   UNL     1      99.688  97.204  81.928  1.00  0.00     0.293 HD
ENDBRANCH  10  16
ENDBRANCH   7   8
ENDBRANCH   4   7
ENDBRANCH   2   3
ENDBRANCH   1   2
BRANCH   1  18
ATOM     18  C   UNL     1      91.699  94.631  74.828  1.00  0.00     0.001 C 
BRANCH  18  19
ATOM     19  C   UNL     1      90.574  94.448  75.885  1.00  0.00     0.000 C 
BRANCH  19  20
ATOM     20  C   UNL     1      90.052  92.984  75.917  1.00  0.00     0.000 C 
BRANCH  20  21
ATOM     21  C   UNL     1      90.283  92.196  74.598  1.00  0.00     0.003 C 
BRANCH  21  22
ATOM     22  C   UNL     1      89.656  90.764  74.578  1.00  0.00    -0.017 C 
ATOM     23  C   UNL     1      90.694  89.723  74.071  1.00  0.00     0.007 C 
ATOM     24  C   UNL     1      88.340  90.669  73.750  1.00  0.00     0.007 C 
ENDBRANCH  21  22
ENDBRANCH  20  21
ENDBRANCH  19  20
ENDBRANCH  18  19
ENDBRANCH   1  18
TORSDOF 11
ENDMDL
MODEL 3
REMARK VINA RESULT:    -6.134     13.289     16.075
REMARK INTER + INTRA:         -10.514
REMARK INTER:                 -10.062
REMARK INTRA:                  -0.453
REMARK UNBOUND:                -0.614
REMARK SMILES COc1cc(CNC(=O)CCCCCCC(C)C)ccc1O
REMARK SMILES IDX 11 1 10 2 8 3 7 4 9 6 6 7 5 8 3 9 21 10 4 11 20 12 19 13
REMARK SMILES IDX 2 14 1 15 22 16 12 18 13 19 14 20 15 21 16 22 17 23 18 24
REMARK H PARENT 7 5 22 17
REMARK Flexibility Score: inf
ROOT
ATOM      1  C   UNL     1      96.729  82.679  83.067  1.00  0.00     0.010 C 
ENDROOT
BRANCH   1   2
ATOM      2  C   UNL     1      95.630  81.745  83.643  1.00  0.00     0.100 C 
BRANCH   2   3
ATOM      3  C   UNL     1      94.462  82.478  84.182  1.00  0.00     0.220 C 
ATOM      4  N   UNL     1      93.231  81.891  84.207  1.00  0.00    -0.352 N 
ATOM      5  H   UNL     1      93.196  80.969  83.797  1.00  0.00     0.163 HD
ATOM      6  O   UNL     1      94.636  83.636  84.635  1.00  0.00    -0.275 OA
BRANCH   4   7
ATOM      7  C   UNL     1      92.046  82.479  84.755  1.00  0.00     0.151 C 
BRANCH   7   8
ATOM      8  C   UNL     1      90.819  81.677  84.494  1.00  0.00    -0.025 A 
ATOM      9  C   UNL     1      88.368  81.510  84.384  1.00  0.00     0.160 A 
ATOM     10  C   UNL     1      88.476  80.169  83.957  1.00  0.00     0.157 A 
ATOM     11  C   UNL     1      89.537  82.247  84.667  1.00  0.00     0.056 A 
ATOM     12  C   UNL     1      89.745  79.578  83.819  1.00  0.00     0.050 A 
ATOM     13  C   UNL     1      90.909  80.328  84.075  1.00  0.00     0.009 A 
BRANCH   9  14
ATOM     14  O   UNL     1      87.137  82.082  84.560  1.00  0.00    -0.493 OA
ATOM     15  C   UNL     1      86.644  82.766  83.394  1.00  0.00     0.278 C 
ENDBRANCH   9  14
BRANCH  10  16
ATOM     16  O   UNL     1      87.367  79.435  83.679  1.00  0.00    -0.504 OA
ATOM     17  H   UNL     1      86.792  79.421  84.448  1.00  0.00     0.293 HD
ENDBRANCH  10  16
ENDBRANCH   7   8
ENDBRANCH   4   7
ENDBRANCH   2   3
ENDBRANCH   1   2
BRANCH   1  18
ATOM     18  C   UNL     1      96.363  83.214  81.653  1.00  0.00     0.001 C 
BRANCH  18  19
ATOM     19  C   UNL     1      97.422  82.882  80.564  1.00  0.00     0.000 C 
BRANCH  19  20
ATOM     20  C   UNL     1      97.012  83.448  79.176  1.00  0.00     0.000 C 
BRANCH  20  21
ATOM     21  C   UNL     1      97.324  82.501  77.984  1.00  0.00     0.003 C 
BRANCH  21  22
ATOM     22  C   UNL     1      98.467  81.469  78.256  1.00  0.00    -0.017 C 
ATOM     23  C   UNL     1      99.385  81.334  77.008  1.00  0.00     0.007 C 
ATOM     24  C   UNL     1      97.953  80.071  78.708  1.00  0.00     0.007 C 
ENDBRANCH  21  22
ENDBRANCH  20  21
ENDBRANCH  19  20
ENDBRANCH  18  19
ENDBRANCH   1  18
TORSDOF 11
ENDMDL
MODEL 4
REMARK VINA RESULT:    -5.783     20.942     23.997
REMARK INTER + INTRA:          -9.947
REMARK INTER:                  -8.878
REMARK INTRA:                  -1.069
REMARK UNBOUND:                -0.614
REMARK SMILES COc1cc(CNC(=O)CCCCCCC(C)C)ccc1O
REMARK SMILES IDX 11 1 10 2 8 3 7 4 9 6 6 7 5 8 3 9 21 10 4 11 20 12 19 13
REMARK SMILES IDX 2 14 1 15 22 16 12 18 13 19 14 20 15 21 16 22 17 23 18 24
REMARK H PARENT 7 5 22 17
REMARK Flexibility Score: inf
ROOT
ATOM      1  C   UNL     1      74.929  89.419  68.506  1.00  0.00     0.010 C 
ENDROOT
BRANCH   1   2
ATOM      2  C   UNL     1      76.465  89.382  68.737  1.00  0.00     0.100 C 
BRANCH   2   3
ATOM      3  C   UNL     1      77.116  88.191  68.147  1.00  0.00     0.220 C 
ATOM      4  N   UNL     1      77.188  87.025  68.852  1.00  0.00    -0.352 N 
ATOM      5  H   UNL     1      76.810  87.074  69.787  1.00  0.00     0.163 HD
ATOM      6  O   UNL     1      77.576  88.272  66.982  1.00  0.00    -0.275 OA
BRANCH   4   7
ATOM      7  C   UNL     1      77.740  85.798  68.364  1.00  0.00     0.151 C 
BRANCH   7   8
ATOM      8  C   UNL     1      76.836  85.080  67.424  1.00  0.00    -0.025 A 
ATOM      9  C   UNL     1      74.568  84.579  66.616  1.00  0.00     0.160 A 
ATOM     10  C   UNL     1      75.108  83.750  65.608  1.00  0.00     0.157 A 
ATOM     11  C   UNL     1      75.434  85.221  67.527  1.00  0.00     0.056 A 
ATOM     12  C   UNL     1      76.500  83.571  65.521  1.00  0.00     0.050 A 
ATOM     13  C   UNL     1      77.360  84.239  66.414  1.00  0.00     0.009 A 
BRANCH   9  14
ATOM     14  O   UNL     1      73.213  84.729  66.735  1.00  0.00    -0.493 OA
ATOM     15  C   UNL     1      72.806  85.378  67.953  1.00  0.00     0.278 C 
ENDBRANCH   9  14
BRANCH  10  16
ATOM     16  O   UNL     1      74.298  83.118  64.719  1.00  0.00    -0.504 OA
ATOM     17  H   UNL     1      74.832  82.720  64.027  1.00  0.00     0.293 HD
ENDBRANCH  10  16
ENDBRANCH   7   8
ENDBRANCH   4   7
ENDBRANCH   2   3
ENDBRANCH   1   2
BRANCH   1  18
ATOM     18  C   UNL     1      74.141  88.786  69.688  1.00  0.00     0.001 C 
BRANCH  18  19
ATOM     19  C   UNL     1      72.626  89.134  69.690  1.00  0.00     0.000 C 
BRANCH  19  20
ATOM     20  C   UNL     1      72.296  90.248  70.723  1.00  0.00     0.000 C 
BRANCH  20  21
ATOM     21  C   UNL     1      73.509  90.699  71.583  1.00  0.00     0.003 C 
BRANCH  21  22
ATOM     22  C   UNL     1      74.245  91.973  71.053  1.00  0.00    -0.017 C 
ATOM     23  C   UNL     1      74.588  92.931  72.227  1.00  0.00     0.007 C 
ATOM     24  C   UNL     1      73.460  92.731  69.942  1.00  0.00     0.007 C 
ENDBRANCH  21  22
ENDBRANCH  20  21
ENDBRANCH  19  20
ENDBRANCH  18  19
ENDBRANCH   1  18
TORSDOF 11
ENDMDL
MODEL 5
REMARK VINA RESULT:    -5.730      2.119      3.070
REMARK INTER + INTRA:          -9.861
REMARK INTER:                  -8.980
REMARK INTRA:                  -0.881
REMARK UNBOUND:                -0.614
REMARK SMILES COc1cc(CNC(=O)CCCCCCC(C)C)ccc1O
REMARK SMILES IDX 11 1 10 2 8 3 7 4 9 6 6 7 5 8 3 9 21 10 4 11 20 12 19 13
REMARK SMILES IDX 2 14 1 15 22 16 12 18 13 19 14 20 15 21 16 22 17 23 18 24
REMARK H PARENT 7 5 22 17
REMARK Flexibility Score: inf
ROOT
ATOM      1  C   UNL     1      93.900  97.807  76.047  1.00  0.00     0.010 C 
ENDROOT
BRANCH   1   2
ATOM      2  C   UNL     1      95.235  97.878  75.256  1.00  0.00     0.100 C 
BRANCH   2   3
ATOM      3  C   UNL     1      96.425  98.009  76.127  1.00  0.00     0.220 C 
ATOM      4  N   UNL     1      96.402  97.523  77.402  1.00  0.00    -0.352 N 
ATOM      5  H   UNL     1      95.519  97.127  77.686  1.00  0.00     0.163 HD
ATOM      6  O   UNL     1      97.455  98.553  75.661  1.00  0.00    -0.275 OA
BRANCH   4   7
ATOM      7  C   UNL     1      97.507  97.541  78.313  1.00  0.00     0.151 C 
BRANCH   7   8
ATOM      8  C   UNL     1      97.114  97.901  79.703  1.00  0.00    -0.025 A 
ATOM      9  C   UNL     1      97.576  97.881  82.119  1.00  0.00     0.160 A 
ATOM     10  C   UNL     1      96.397  98.621  82.353  1.00  0.00     0.157 A 
ATOM     11  C   UNL     1      97.916  97.511  80.800  1.00  0.00     0.056 A 
ATOM     12  C   UNL     1      95.571  98.981  81.273  1.00  0.00     0.050 A 
ATOM     13  C   UNL     1      95.931  98.634  79.956  1.00  0.00     0.009 A 
BRANCH   9  14
ATOM     14  O   UNL     1      98.366  97.491  83.166  1.00  0.00    -0.493 OA
ATOM     15  C   UNL     1      98.482  96.063  83.304  1.00  0.00     0.278 C 
ENDBRANCH   9  14
BRANCH  10  16
ATOM     16  O   UNL     1      96.044  98.989  83.612  1.00  0.00    -0.504 OA
ATOM     17  H   UNL     1      95.936  98.205  84.156  1.00  0.00     0.293 HD
ENDBRANCH  10  16
ENDBRANCH   7   8
ENDBRANCH   4   7
ENDBRANCH   2   3
ENDBRANCH   1   2
BRANCH   1  18
ATOM     18  C   UNL     1      93.345  96.357  76.133  1.00  0.00     0.001 C 
BRANCH  18  19
ATOM     19  C   UNL     1      92.931  95.929  77.569  1.00  0.00     0.000 C 
BRANCH  19  20
ATOM     20  C   UNL     1      91.865  94.797  77.543  1.00  0.00     0.000 C 
BRANCH  20  21
ATOM     21  C   UNL     1      90.553  95.174  76.800  1.00  0.00     0.003 C 
BRANCH  21  22
ATOM     22  C   UNL     1      89.912  94.006  75.980  1.00  0.00    -0.017 C 
ATOM     23  C   UNL     1      89.897  92.697  76.819  1.00  0.00     0.007 C 
ATOM     24  C   UNL     1      90.594  93.763  74.602  1.00  0.00     0.007 C 
ENDBRANCH  21  22
ENDBRANCH  20  21
ENDBRANCH  19  20
ENDBRANCH  18  19
ENDBRANCH   1  18
TORSDOF 11
ENDMDL
MODEL 6
REMARK VINA RESULT:    -5.685     16.928     19.596
REMARK INTER + INTRA:          -9.789
REMARK INTER:                  -9.134
REMARK INTRA:                  -0.655
REMARK UNBOUND:                -0.614
REMARK SMILES COc1cc(CNC(=O)CCCCCCC(C)C)ccc1O
REMARK SMILES IDX 11 1 10 2 8 3 7 4 9 6 6 7 5 8 3 9 21 10 4 11 20 12 19 13
REMARK SMILES IDX 2 14 1 15 22 16 12 18 13 19 14 20 15 21 16 22 17 23 18 24
REMARK H PARENT 7 5 22 17
REMARK Flexibility Score: inf
ROOT
ATOM      1  C   UNL     1      73.998  90.508  69.851  1.00  0.00     0.010 C 
ENDROOT
BRANCH   1   2
ATOM      2  C   UNL     1      73.456  90.405  71.304  1.00  0.00     0.100 C 
BRANCH   2   3
ATOM      3  C   UNL     1      73.406  91.709  72.003  1.00  0.00     0.220 C 
ATOM      4  N   UNL     1      74.461  92.571  71.929  1.00  0.00    -0.352 N 
ATOM      5  H   UNL     1      75.255  92.223  71.412  1.00  0.00     0.163 HD
ATOM      6  O   UNL     1      72.368  92.010  72.641  1.00  0.00    -0.275 OA
BRANCH   4   7
ATOM      7  C   UNL     1      74.503  93.878  72.513  1.00  0.00     0.151 C 
BRANCH   7   8
ATOM      8  C   UNL     1      75.613  94.049  73.490  1.00  0.00    -0.025 A 
ATOM      9  C   UNL     1      77.852  94.906  74.040  1.00  0.00     0.160 A 
ATOM     10  C   UNL     1      77.717  94.418  75.358  1.00  0.00     0.157 A 
ATOM     11  C   UNL     1      76.809  94.702  73.112  1.00  0.00     0.056 A 
ATOM     12  C   UNL     1      76.548  93.731  75.734  1.00  0.00     0.050 A 
ATOM     13  C   UNL     1      75.499  93.557  74.811  1.00  0.00     0.009 A 
BRANCH   9  14
ATOM     14  O   UNL     1      79.001  95.540  73.652  1.00  0.00    -0.493 OA
ATOM     15  C   UNL     1      78.853  96.328  72.457  1.00  0.00     0.278 C 
ENDBRANCH   9  14
BRANCH  10  16
ATOM     16  O   UNL     1      78.706  94.598  76.272  1.00  0.00    -0.504 OA
ATOM     17  H   UNL     1      79.526  94.231  75.933  1.00  0.00     0.293 HD
ENDBRANCH  10  16
ENDBRANCH   7   8
ENDBRANCH   4   7
ENDBRANCH   2   3
ENDBRANCH   1   2
BRANCH   1  18
ATOM     18  C   UNL     1      75.321  89.711  69.661  1.00  0.00     0.001 C 
BRANCH  18  19
ATOM     19  C   UNL     1      75.751  89.558  68.175  1.00  0.00     0.000 C 
BRANCH  19  20
ATOM     20  C   UNL     1      75.882  88.063  67.769  1.00  0.00     0.000 C 
BRANCH  20  21
ATOM     21  C   UNL     1      77.348  87.564  67.639  1.00  0.00     0.003 C 
BRANCH  21  22
ATOM     22  C   UNL     1      77.587  86.107  68.152  1.00  0.00    -0.017 C 
ATOM     23  C   UNL     1      77.247  85.076  67.039  1.00  0.00     0.007 C 
ATOM     24  C   UNL     1      76.814  85.770  69.461  1.00  0.00     0.007 C 
ENDBRANCH  21  22
ENDBRANCH  20  21
ENDBRANCH  19  20
ENDBRANCH  18  19
ENDBRANCH   1  18
TORSDOF 11
ENDMDL
MODEL 7
REMARK VINA RESULT:    -5.676     14.420     16.975
REMARK INTER + INTRA:          -9.775
REMARK INTER:                  -8.907
REMARK INTRA:                  -0.868
REMARK UNBOUND:                -0.614
REMARK SMILES COc1cc(CNC(=O)CCCCCCC(C)C)ccc1O
REMARK SMILES IDX 11 1 10 2 8 3 7 4 9 6 6 7 5 8 3 9 21 10 4 11 20 12 19 13
REMARK SMILES IDX 2 14 1 15 22 16 12 18 13 19 14 20 15 21 16 22 17 23 18 24
REMARK H PARENT 7 5 22 17
REMARK Flexibility Score: inf
ROOT
ATOM      1  C   UNL     1      96.966  81.537  82.730  1.00  0.00     0.010 C 
ENDROOT
BRANCH   1   2
ATOM      2  C   UNL     1      95.886  81.017  83.719  1.00  0.00     0.100 C 
BRANCH   2   3
ATOM      3  C   UNL     1      94.756  81.955  83.898  1.00  0.00     0.220 C 
ATOM      4  N   UNL     1      93.532  81.494  84.287  1.00  0.00    -0.352 N 
ATOM      5  H   UNL     1      93.473  80.491  84.388  1.00  0.00     0.163 HD
ATOM      6  O   UNL     1      94.955  83.180  83.709  1.00  0.00    -0.275 OA
BRANCH   4   7
ATOM      7  C   UNL     1      92.386  82.311  84.547  1.00  0.00     0.151 C 
BRANCH   7   8
ATOM      8  C   UNL     1      91.098  81.576  84.409  1.00  0.00    -0.025 A 
ATOM      9  C   UNL     1      88.639  81.560  84.458  1.00  0.00     0.160 A 
ATOM     10  C   UNL     1      88.639  80.193  84.105  1.00  0.00     0.157 A 
ATOM     11  C   UNL     1      89.867  82.235  84.625  1.00  0.00     0.056 A 
ATOM     12  C   UNL     1      89.859  79.516  83.925  1.00  0.00     0.050 A 
ATOM     13  C   UNL     1      91.080  80.203  84.065  1.00  0.00     0.009 A 
BRANCH   9  14
ATOM     14  O   UNL     1      87.459  82.218  84.674  1.00  0.00    -0.493 OA
ATOM     15  C   UNL     1      87.291  83.390  83.857  1.00  0.00     0.278 C 
ENDBRANCH   9  14
BRANCH  10  16
ATOM     16  O   UNL     1      87.472  79.517  83.939  1.00  0.00    -0.504 OA
ATOM     17  H   UNL     1      86.948  79.582  84.741  1.00  0.00     0.293 HD
ENDBRANCH  10  16
ENDBRANCH   7   8
ENDBRANCH   4   7
ENDBRANCH   2   3
ENDBRANCH   1   2
BRANCH   1  18
ATOM     18  C   UNL     1      96.872  80.844  81.341  1.00  0.00     0.001 C 
BRANCH  18  19
ATOM     19  C   UNL     1      97.452  79.402  81.320  1.00  0.00     0.000 C 
BRANCH  19  20
ATOM     20  C   UNL     1      98.751  79.320  80.470  1.00  0.00     0.000 C 
BRANCH  20  21
ATOM     21  C   UNL     1     100.060  79.494  81.289  1.00  0.00     0.003 C 
BRANCH  21  22
ATOM     22  C   UNL     1     100.533  80.976  81.452  1.00  0.00    -0.017 C 
ATOM     23  C   UNL     1     100.286  81.773  80.140  1.00  0.00     0.007 C 
ATOM     24  C   UNL     1     102.018  81.113  81.901  1.00  0.00     0.007 C 
ENDBRANCH  21  22
ENDBRANCH  20  21
ENDBRANCH  19  20
ENDBRANCH  18  19
ENDBRANCH   1  18
TORSDOF 11
ENDMDL
MODEL 8
REMARK VINA RESULT:    -5.621     17.269     19.799
REMARK INTER + INTRA:          -9.685
REMARK INTER:                  -9.085
REMARK INTRA:                  -0.600
REMARK UNBOUND:                -0.614
REMARK SMILES COc1cc(CNC(=O)CCCCCCC(C)C)ccc1O
REMARK SMILES IDX 11 1 10 2 8 3 7 4 9 6 6 7 5 8 3 9 21 10 4 11 20 12 19 13
REMARK SMILES IDX 2 14 1 15 22 16 12 18 13 19 14 20 15 21 16 22 17 23 18 24
REMARK H PARENT 7 5 22 17
REMARK Flexibility Score: inf
ROOT
ATOM      1  C   UNL     1      74.553  90.486  69.451  1.00  0.00     0.010 C 
ENDROOT
BRANCH   1   2
ATOM      2  C   UNL     1      74.042  90.286  70.905  1.00  0.00     0.100 C 
BRANCH   2   3
ATOM      3  C   UNL     1      73.748  91.559  71.602  1.00  0.00     0.220 C 
ATOM      4  N   UNL     1      74.747  92.452  71.856  1.00  0.00    -0.352 N 
ATOM      5  H   UNL     1      75.667  92.147  71.574  1.00  0.00     0.163 HD
ATOM      6  O   UNL     1      72.561  91.805  71.928  1.00  0.00    -0.275 OA
BRANCH   4   7
ATOM      7  C   UNL     1      74.573  93.734  72.469  1.00  0.00     0.151 C 
BRANCH   7   8
ATOM      8  C   UNL     1      75.522  93.984  73.588  1.00  0.00    -0.025 A 
ATOM      9  C   UNL     1      76.012  94.016  75.998  1.00  0.00     0.160 A 
ATOM     10  C   UNL     1      77.339  94.414  75.725  1.00  0.00     0.157 A 
ATOM     11  C   UNL     1      75.110  93.823  74.930  1.00  0.00     0.056 A 
ATOM     12  C   UNL     1      77.750  94.616  74.395  1.00  0.00     0.050 A 
ATOM     13  C   UNL     1      76.853  94.392  73.333  1.00  0.00     0.009 A 
BRANCH   9  14
ATOM     14  O   UNL     1      75.591  93.856  77.290  1.00  0.00    -0.493 OA
ATOM     15  C   UNL     1      74.738  94.917  77.757  1.00  0.00     0.278 C 
ENDBRANCH   9  14
BRANCH  10  16
ATOM     16  O   UNL     1      78.229  94.610  76.733  1.00  0.00    -0.504 OA
ATOM     17  H   UNL     1      78.920  95.208  76.438  1.00  0.00     0.293 HD
ENDBRANCH  10  16
ENDBRANCH   7   8
ENDBRANCH   4   7
ENDBRANCH   2   3
ENDBRANCH   1   2
BRANCH   1  18
ATOM     18  C   UNL     1      75.299  89.232  68.913  1.00  0.00     0.001 C 
BRANCH  18  19
ATOM     19  C   UNL     1      76.475  89.566  67.954  1.00  0.00     0.000 C 
BRANCH  19  20
ATOM     20  C   UNL     1      77.441  88.358  67.791  1.00  0.00     0.000 C 
BRANCH  20  21
ATOM     21  C   UNL     1      76.726  86.991  67.605  1.00  0.00     0.003 C 
BRANCH  21  22
ATOM     22  C   UNL     1      77.446  85.783  68.288  1.00  0.00    -0.017 C 
ATOM     23  C   UNL     1      77.402  84.532  67.366  1.00  0.00     0.007 C 
ATOM     24  C   UNL     1      76.887  85.439  69.700  1.00  0.00     0.007 C 
ENDBRANCH  21  22
ENDBRANCH  20  21
ENDBRANCH  19  20
ENDBRANCH  18  19
ENDBRANCH   1  18
TORSDOF 11
ENDMDL
MODEL 9
REMARK VINA RESULT:    -5.498     13.190     16.344
REMARK INTER + INTRA:          -9.488
REMARK INTER:                  -8.741
REMARK INTRA:                  -0.747
REMARK UNBOUND:                -0.614
REMARK SMILES COc1cc(CNC(=O)CCCCCCC(C)C)ccc1O
REMARK SMILES IDX 11 1 10 2 8 3 7 4 9 6 6 7 5 8 3 9 21 10 4 11 20 12 19 13
REMARK SMILES IDX 2 14 1 15 22 16 12 18 13 19 14 20 15 21 16 22 17 23 18 24
REMARK H PARENT 7 5 22 17
REMARK Flexibility Score: inf
ROOT
ATOM      1  C   UNL     1      97.820  80.889  82.374  1.00  0.00     0.010 C 
ENDROOT
BRANCH   1   2
ATOM      2  C   UNL     1      96.578  80.146  82.937  1.00  0.00     0.100 C 
BRANCH   2   3
ATOM      3  C   UNL     1      95.721  81.001  83.789  1.00  0.00     0.220 C 
ATOM      4  N   UNL     1      94.370  80.813  83.815  1.00  0.00    -0.352 N 
ATOM      5  H   UNL     1      94.032  80.097  83.190  1.00  0.00     0.163 HD
ATOM      6  O   UNL     1      96.266  81.881  84.499  1.00  0.00    -0.275 OA
BRANCH   4   7
ATOM      7  C   UNL     1      93.451  81.538  84.640  1.00  0.00     0.151 C 
BRANCH   7   8
ATOM      8  C   UNL     1      92.037  81.106  84.463  1.00  0.00    -0.025 A 
ATOM      9  C   UNL     1      89.658  81.665  84.191  1.00  0.00     0.160 A 
ATOM     10  C   UNL     1      89.345  80.293  84.082  1.00  0.00     0.157 A 
ATOM     11  C   UNL     1      90.996  82.060  84.399  1.00  0.00     0.056 A 
ATOM     12  C   UNL     1      90.368  79.332  84.183  1.00  0.00     0.050 A 
ATOM     13  C   UNL     1      91.706  79.734  84.362  1.00  0.00     0.009 A 
BRANCH   9  14
ATOM     14  O   UNL     1      88.666  82.606  84.133  1.00  0.00    -0.493 OA
ATOM     15  C   UNL     1      88.050  82.878  85.405  1.00  0.00     0.278 C 
ENDBRANCH   9  14
BRANCH  10  16
ATOM     16  O   UNL     1      88.065  79.884  83.882  1.00  0.00    -0.504 OA
ATOM     17  H   UNL     1      87.947  79.640  82.961  1.00  0.00     0.293 HD
ENDBRANCH  10  16
ENDBRANCH   7   8
ENDBRANCH   4   7
ENDBRANCH   2   3
ENDBRANCH   1   2
BRANCH   1  18
ATOM     18  C   UNL     1      98.299  80.291  81.020  1.00  0.00     0.001 C 
BRANCH  18  19
ATOM     19  C   UNL     1      99.586  80.959  80.460  1.00  0.00     0.000 C 
BRANCH  19  20
ATOM     20  C   UNL     1      99.376  81.476  79.009  1.00  0.00     0.000 C 
BRANCH  20  21
ATOM     21  C   UNL     1      97.891  81.734  78.633  1.00  0.00     0.003 C 
BRANCH  21  22
ATOM     22  C   UNL     1      97.444  83.229  78.735  1.00  0.00    -0.017 C 
ATOM     23  C   UNL     1      96.865  83.528  80.146  1.00  0.00     0.007 C 
ATOM     24  C   UNL     1      96.433  83.657  77.630  1.00  0.00     0.007 C 
ENDBRANCH  21  22
ENDBRANCH  20  21
ENDBRANCH  19  20
ENDBRANCH  18  19
ENDBRANCH   1  18
TORSDOF 11
ENDMDL
MODEL 10
REMARK VINA RESULT:    -5.245     17.112     19.840
REMARK INTER + INTRA:          -9.080
REMARK INTER:                  -8.550
REMARK INTRA:                  -0.530
REMARK UNBOUND:                -0.614
REMARK SMILES COc1cc(CNC(=O)CCCCCCC(C)C)ccc1O
REMARK SMILES IDX 11 1 10 2 8 3 7 4 9 6 6 7 5 8 3 9 21 10 4 11 20 12 19 13
REMARK SMILES IDX 2 14 1 15 22 16 12 18 13 19 14 20 15 21 16 22 17 23 18 24
REMARK H PARENT 7 5 22 17
REMARK Flexibility Score: inf
ROOT
ATOM      1  C   UNL     1      72.115  90.854  71.353  1.00  0.00     0.010 C 
ENDROOT
BRANCH   1   2
ATOM      2  C   UNL     1      72.325  92.283  71.926  1.00  0.00     0.100 C 
BRANCH   2   3
ATOM      3  C   UNL     1      72.426  92.312  73.402  1.00  0.00     0.220 C 
ATOM      4  N   UNL     1      73.630  92.528  74.006  1.00  0.00    -0.352 N 
ATOM      5  H   UNL     1      74.411  92.615  73.372  1.00  0.00     0.163 HD
ATOM      6  O   UNL     1      71.381  92.159  74.080  1.00  0.00    -0.275 OA
BRANCH   4   7
ATOM      7  C   UNL     1      73.838  92.635  75.419  1.00  0.00     0.151 C 
BRANCH   7   8
ATOM      8  C   UNL     1      75.099  93.343  75.774  1.00  0.00    -0.025 A 
ATOM      9  C   UNL     1      77.297  94.233  75.124  1.00  0.00     0.160 A 
ATOM     10  C   UNL     1      77.485  94.731  76.432  1.00  0.00     0.157 A 
ATOM     11  C   UNL     1      76.116  93.528  74.811  1.00  0.00     0.056 A 
ATOM     12  C   UNL     1      76.496  94.520  77.410  1.00  0.00     0.050 A 
ATOM     13  C   UNL     1      75.307  93.840  77.082  1.00  0.00     0.009 A 
BRANCH   9  14
ATOM     14  O   UNL     1      78.270  94.399  74.176  1.00  0.00    -0.493 OA
ATOM     15  C   UNL     1      78.062  95.540  73.325  1.00  0.00     0.278 C 
ENDBRANCH   9  14
BRANCH  10  16
ATOM     16  O   UNL     1      78.613  95.413  76.763  1.00  0.00    -0.504 OA
ATOM     17  H   UNL     1      78.380  96.178  77.293  1.00  0.00     0.293 HD
ENDBRANCH  10  16
ENDBRANCH   7   8
ENDBRANCH   4   7
ENDBRANCH   2   3
ENDBRANCH   1   2
BRANCH   1  18
ATOM     18  C   UNL     1      73.458  90.087  71.183  1.00  0.00     0.001 C 
BRANCH  18  19
ATOM     19  C   UNL     1      73.626  89.420  69.789  1.00  0.00     0.000 C 
BRANCH  19  20
ATOM     20  C   UNL     1      75.124  89.292  69.393  1.00  0.00     0.000 C 
BRANCH  20  21
ATOM     21  C   UNL     1      75.520  87.894  68.841  1.00  0.00     0.003 C 
BRANCH  21  22
ATOM     22  C   UNL     1      77.039  87.736  68.502  1.00  0.00    -0.017 C 
ATOM     23  C   UNL     1      77.550  88.972  67.709  1.00  0.00     0.007 C 
ATOM     24  C   UNL     1      77.375  86.422  67.738  1.00  0.00     0.007 C 
ENDBRANCH  21  22
ENDBRANCH  20  21
ENDBRANCH  19  20
ENDBRANCH  18  19
ENDBRANCH   1  18
TORSDOF 11
ENDMDL
