MODEL 1
REMARK VINA RESULT:    -7.193      0.000      0.000
REMARK INTER + INTRA:         -13.730
REMARK INTER:                 -12.240
REMARK INTRA:                  -1.490
REMARK UNBOUND:                -1.490
REMARK SMILES C=C(C)[C@]12C[C@@H](C)[C@@]34O[C@](Cc5ccccc5)(O[C@@H]1[C@@H]3C=C(COC(=O)Cc1ccc(O)cc1)C[C@]1(O)C(=O)C(C)=C[C@@H]41)O2
REMARK SMILES IDX 23 1 22 2 21 3 20 4 9 5 8 6 10 7 6 8 18 10 44 11 19 12 5 13
REMARK SMILES IDX 7 14 4 15 11 16 12 17 13 18 17 19 14 20 16 21 15 22 2 23
REMARK SMILES IDX 3 24 1 25 35 26 36 27 43 28 38 29 42 30 39 32 40 33 41 34
REMARK SMILES IDX 37 35 24 37 25 38 26 39 27 40 28 41 29 42 34 43 30 44 33 45
REMARK SMILES IDX 31 46 32 47
REMARK H PARENT 37 36 32 48
REMARK Flexibility Score: 90.00
ROOT
ATOM      1  C   UNL     1      65.438  87.967  70.937  1.00  0.00     0.264 C 
ENDROOT
BRANCH   1   2
ATOM      2  C   UNL     1      65.174  86.549  71.385  1.00  0.00    -0.033 C 
ATOM      3  C   UNL     1      64.710  86.327  72.632  1.00  0.00    -0.015 C 
BRANCH   3   4
ATOM      4  C   UNL     1      64.440  85.010  73.342  1.00  0.00     0.078 C 
ATOM      5  O   UNL     1      62.053  84.473  72.981  1.00  0.00    -0.319 OA
ATOM      6  C   UNL     1      63.410  84.010  72.698  1.00  0.00     0.095 CG0
ATOM      7  C   UNL     1      61.832  84.946  74.324  1.00  0.00     0.289 C 
ATOM      8  C   UNL     1      63.632  82.593  73.372  1.00  0.00     0.023 C 
ATOM      9  G   UNL     1      63.512  84.035  71.145  1.00  0.00     0.000 G0
ATOM     10  O   UNL     1      62.720  86.011  74.650  1.00  0.00    -0.320 OA
ATOM     11  O   UNL     1      62.068  83.935  75.301  1.00  0.00    -0.313 OA
ATOM     12  C   UNL     1      63.949  85.281  74.785  1.00  0.00     0.170 C 
ATOM     13  C   UNL     1      64.073  82.731  74.861  1.00  0.00     0.049 C 
ATOM     14  C   UNL     1      62.440  81.624  73.280  1.00  0.00     0.011 C 
ATOM     15  C   UNL     1      63.494  83.990  75.509  1.00  0.00     0.122 C 
BRANCH   7  16
ATOM     16  C   UNL     1      60.397  85.423  74.428  1.00  0.00     0.135 C 
BRANCH  16  17
ATOM     17  C   UNL     1      59.825  85.798  73.083  1.00  0.00    -0.040 A 
ATOM     18  C   UNL     1      60.034  87.076  72.568  1.00  0.00     0.004 A 
ATOM     19  C   UNL     1      59.087  84.864  72.357  1.00  0.00     0.004 A 
ATOM     20  C   UNL     1      59.506  87.422  71.323  1.00  0.00     0.000 A 
ATOM     21  C   UNL     1      58.559  85.210  71.112  1.00  0.00     0.000 A 
ATOM     22  C   UNL     1      58.768  86.488  70.597  1.00  0.00     0.000 A 
ENDBRANCH  16  17
ENDBRANCH   7  16
BRANCH  15  23
ATOM     23  C   UNL     1      63.753  84.049  76.979  1.00  0.00    -0.046 C 
ATOM     24  C   UNL     1      62.562  84.326  77.850  1.00  0.00     0.042 C 
ATOM     25  C   UNL     1      64.978  83.866  77.492  1.00  0.00     0.010 C 
ENDBRANCH  15  23
ENDBRANCH   3   4
BRANCH   2  26
ATOM     26  C   UNL     1      65.477  85.519  70.313  1.00  0.00     0.078 C 
BRANCH  26  27
ATOM     27  C   UNL     1      64.974  84.096  70.549  1.00  0.00     0.140 C 
ATOM     28  C   UNL     1      63.546  84.072  71.133  1.00  0.00     0.086 CG0
ATOM     29  C   UNL     1      64.811  83.317  69.261  1.00  0.00     0.190 C 
ATOM     30  C   UNL     1      62.847  83.029  70.306  1.00  0.00    -0.010 C 
ATOM     31  G   UNL     1      63.441  84.012  72.685  1.00  0.00     0.000 G0
ATOM     32  O   UNL     1      65.646  83.235  68.373  1.00  0.00    -0.291 OA
ATOM     33  C   UNL     1      63.519  82.605  69.232  1.00  0.00    -0.008 C 
ATOM     34  C   UNL     1      63.115  81.665  68.167  1.00  0.00     0.048 C 
BRANCH  27  35
ATOM     35  O   UNL     1      65.909  83.332  71.291  1.00  0.00    -0.381 OA
ATOM     36  H   UNL     1      65.536  82.445  71.433  1.00  0.00     0.212 HD
ENDBRANCH  27  35
ENDBRANCH  26  27
ENDBRANCH   2  26
ENDBRANCH   1   2
BRANCH   1  37
ATOM     37  O   UNL     1      66.640  88.007  70.197  1.00  0.00    -0.461 OA
BRANCH  37  38
ATOM     38  C   UNL     1      67.619  88.848  70.674  1.00  0.00     0.310 C 
ATOM     39  O   UNL     1      67.916  89.929  70.184  1.00  0.00    -0.252 OA
BRANCH  38  40
ATOM     40  C   UNL     1      68.265  88.230  71.891  1.00  0.00     0.158 C 
BRANCH  40  41
ATOM     41  C   UNL     1      68.901  86.895  71.604  1.00  0.00    -0.037 A 
ATOM     42  C   UNL     1      69.964  86.807  70.705  1.00  0.00     0.008 A 
ATOM     43  C   UNL     1      68.427  85.746  72.236  1.00  0.00     0.008 A 
ATOM     44  C   UNL     1      70.553  85.570  70.438  1.00  0.00     0.046 A 
ATOM     45  C   UNL     1      69.016  84.509  71.970  1.00  0.00     0.046 A 
ATOM     46  C   UNL     1      70.078  84.421  71.072  1.00  0.00     0.115 A 
BRANCH  46  47
ATOM     47  O   UNL     1      70.652  83.215  70.811  1.00  0.00    -0.508 OA
ATOM     48  H   UNL     1      71.609  83.341  70.690  1.00  0.00     0.293 HD
ENDBRANCH  46  47
ENDBRANCH  40  41
ENDBRANCH  38  40
ENDBRANCH  37  38
ENDBRANCH   1  37
TORSDOF 10
ENDMDL
MODEL 2
REMARK VINA RESULT:    -7.106     28.700     32.637
REMARK INTER + INTRA:         -13.582
REMARK INTER:                 -13.040
REMARK INTRA:                  -0.542
REMARK UNBOUND:                -1.490
REMARK SMILES C=C(C)[C@]12C[C@@H](C)[C@@]34O[C@](Cc5ccccc5)(O[C@@H]1[C@@H]3C=C(COC(=O)Cc1ccc(O)cc1)C[C@]1(O)C(=O)C(C)=C[C@@H]41)O2
REMARK SMILES IDX 23 1 22 2 21 3 20 4 9 5 8 6 10 7 6 8 18 10 44 11 19 12 5 13
REMARK SMILES IDX 7 14 4 15 11 16 12 17 13 18 17 19 14 20 16 21 15 22 2 23
REMARK SMILES IDX 3 24 1 25 35 26 36 27 43 28 38 29 42 30 39 32 40 33 41 34
REMARK SMILES IDX 37 35 24 37 25 38 26 39 27 40 28 41 29 42 34 43 30 44 33 45
REMARK SMILES IDX 31 46 32 47
REMARK H PARENT 37 36 32 48
REMARK Flexibility Score: 90.00
ROOT
ATOM      1  C   UNL     1      95.601  98.212  74.158  1.00  0.00     0.264 C 
ENDROOT
BRANCH   1   2
ATOM      2  C   UNL     1      94.988  99.575  73.935  1.00  0.00    -0.033 C 
ATOM      3  C   UNL     1      94.356  99.831  72.771  1.00  0.00    -0.015 C 
BRANCH   3   4
ATOM      4  C   UNL     1      93.732 101.126  72.276  1.00  0.00     0.078 C 
ATOM      5  O   UNL     1      91.351 101.078  72.942  1.00  0.00    -0.319 OA
ATOM      6  C   UNL     1      92.608 101.796  73.148  1.00  0.00     0.095 CG0
ATOM      7  C   UNL     1      91.064 100.719  71.577  1.00  0.00     0.289 C 
ATOM      8  C   UNL     1      92.444 103.292  72.653  1.00  0.00     0.023 C 
ATOM      9  G   UNL     1      92.908 101.624  74.666  1.00  0.00     0.000 G0
ATOM     10  O   UNL     1      92.105  99.919  71.023  1.00  0.00    -0.320 OA
ATOM     11  O   UNL     1      90.960 101.858  70.727  1.00  0.00    -0.313 OA
ATOM     12  C   UNL     1      93.129 100.913  70.865  1.00  0.00     0.170 C 
ATOM     13  C   UNL     1      92.711 103.420  71.122  1.00  0.00     0.049 C 
ATOM     14  C   UNL     1      91.099 103.957  72.992  1.00  0.00     0.011 C 
ATOM     15  C   UNL     1      92.329 102.143  70.371  1.00  0.00     0.122 C 
BRANCH   7  16
ATOM     16  C   UNL     1      89.758  99.950  71.553  1.00  0.00     0.135 C 
BRANCH  16  17
ATOM     17  C   UNL     1      89.495  99.322  70.207  1.00  0.00    -0.040 A 
ATOM     18  C   UNL     1      89.648  97.947  70.037  1.00  0.00     0.004 A 
ATOM     19  C   UNL     1      89.099 100.118  69.133  1.00  0.00     0.004 A 
ATOM     20  C   UNL     1      89.404  97.366  68.792  1.00  0.00     0.000 A 
ATOM     21  C   UNL     1      88.855  99.538  67.888  1.00  0.00     0.000 A 
ATOM     22  C   UNL     1      89.008  98.162  67.718  1.00  0.00     0.000 A 
ENDBRANCH  16  17
ENDBRANCH   7  16
BRANCH  15  23
ATOM     23  C   UNL     1      92.405 102.304  68.888  1.00  0.00    -0.046 C 
ATOM     24  C   UNL     1      91.217 102.941  68.229  1.00  0.00     0.042 C 
ATOM     25  C   UNL     1      93.475 101.903  68.185  1.00  0.00     0.010 C 
ENDBRANCH  15  23
ENDBRANCH   3   4
BRANCH   2  26
ATOM     26  C   UNL     1      95.172 100.511  75.115  1.00  0.00     0.078 C 
BRANCH  26  27
ATOM     27  C   UNL     1      94.375 101.814  75.102  1.00  0.00     0.140 C 
ATOM     28  C   UNL     1      92.913 101.600  74.657  1.00  0.00     0.086 CG0
ATOM     29  C   UNL     1      94.210 102.406  76.486  1.00  0.00     0.190 C 
ATOM     30  C   UNL     1      92.122 102.385  75.666  1.00  0.00    -0.010 C 
ATOM     31  G   UNL     1      92.623 101.795  73.140  1.00  0.00     0.000 G0
ATOM     32  O   UNL     1      95.108 102.570  77.298  1.00  0.00    -0.291 OA
ATOM     33  C   UNL     1      92.815 102.827  76.719  1.00  0.00    -0.008 C 
ATOM     34  C   UNL     1      92.358 103.548  77.924  1.00  0.00     0.048 C 
BRANCH  27  35
ATOM     35  O   UNL     1      95.051 102.829  74.379  1.00  0.00    -0.381 OA
ATOM     36  H   UNL     1      95.950 102.915  74.739  1.00  0.00     0.212 HD
ENDBRANCH  27  35
ENDBRANCH  26  27
ENDBRANCH   2  26
ENDBRANCH   1   2
BRANCH   1  37
ATOM     37  O   UNL     1      95.667  97.951  75.544  1.00  0.00    -0.461 OA
BRANCH  37  38
ATOM     38  C   UNL     1      95.038  96.807  75.978  1.00  0.00     0.310 C 
ATOM     39  O   UNL     1      94.814  95.824  75.286  1.00  0.00    -0.252 OA
BRANCH  38  40
ATOM     40  C   UNL     1      94.671  96.955  77.435  1.00  0.00     0.158 C 
BRANCH  40  41
ATOM     41  C   UNL     1      93.584  96.005  77.866  1.00  0.00    -0.037 A 
ATOM     42  C   UNL     1      92.289  96.153  77.369  1.00  0.00     0.008 A 
ATOM     43  C   UNL     1      93.871  94.977  78.764  1.00  0.00     0.008 A 
ATOM     44  C   UNL     1      91.282  95.275  77.769  1.00  0.00     0.046 A 
ATOM     45  C   UNL     1      92.865  94.097  79.164  1.00  0.00     0.046 A 
ATOM     46  C   UNL     1      91.571  94.246  78.667  1.00  0.00     0.115 A 
BRANCH  46  47
ATOM     47  O   UNL     1      90.589  93.389  79.057  1.00  0.00    -0.508 OA
ATOM     48  H   UNL     1      89.963  93.270  78.322  1.00  0.00     0.293 HD
ENDBRANCH  46  47
ENDBRANCH  40  41
ENDBRANCH  38  40
ENDBRANCH  37  38
ENDBRANCH   1  37
TORSDOF 10
ENDMDL
MODEL 3
REMARK VINA RESULT:    -6.781     32.284     35.518
REMARK INTER + INTRA:         -13.028
REMARK INTER:                 -12.353
REMARK INTRA:                  -0.675
REMARK UNBOUND:                -1.490
REMARK SMILES C=C(C)[C@]12C[C@@H](C)[C@@]34O[C@](Cc5ccccc5)(O[C@@H]1[C@@H]3C=C(COC(=O)Cc1ccc(O)cc1)C[C@]1(O)C(=O)C(C)=C[C@@H]41)O2
REMARK SMILES IDX 23 1 22 2 21 3 20 4 9 5 8 6 10 7 6 8 18 10 44 11 19 12 5 13
REMARK SMILES IDX 7 14 4 15 11 16 12 17 13 18 17 19 14 20 16 21 15 22 2 23
REMARK SMILES IDX 3 24 1 25 35 26 36 27 43 28 38 29 42 30 39 32 40 33 41 34
REMARK SMILES IDX 37 35 24 37 25 38 26 39 27 40 28 41 29 42 34 43 30 44 33 45
REMARK SMILES IDX 31 46 32 47
REMARK H PARENT 37 36 32 48
REMARK Flexibility Score: 90.00
ROOT
ATOM      1  C   UNL     1      97.335  83.231  83.618  1.00  0.00     0.264 C 
ENDROOT
BRANCH   1   2
ATOM      2  C   UNL     1      97.251  83.413  85.116  1.00  0.00    -0.033 C 
ATOM      3  C   UNL     1      96.104  83.102  85.754  1.00  0.00    -0.015 C 
BRANCH   3   4
ATOM      4  C   UNL     1      95.742  83.263  87.222  1.00  0.00     0.078 C 
ATOM      5  O   UNL     1      96.275  81.121  88.335  1.00  0.00    -0.319 OA
ATOM      6  C   UNL     1      96.632  82.537  88.296  1.00  0.00     0.095 CG0
ATOM      7  C   UNL     1      94.863  80.840  88.283  1.00  0.00     0.289 C 
ATOM      8  C   UNL     1      96.317  83.195  89.703  1.00  0.00     0.023 C 
ATOM      9  G   UNL     1      98.130  82.549  87.873  1.00  0.00     0.000 G0
ATOM     10  O   UNL     1      94.268  81.395  87.113  1.00  0.00    -0.320 OA
ATOM     11  O   UNL     1      94.156  81.409  89.382  1.00  0.00    -0.313 OA
ATOM     12  C   UNL     1      94.287  82.789  87.460  1.00  0.00     0.170 C 
ATOM     13  C   UNL     1      94.830  83.652  89.801  1.00  0.00     0.049 C 
ATOM     14  C   UNL     1      96.668  82.334  90.929  1.00  0.00     0.011 C 
ATOM     15  C   UNL     1      93.909  82.767  88.961  1.00  0.00     0.122 C 
BRANCH   7  16
ATOM     16  C   UNL     1      94.678  79.336  88.288  1.00  0.00     0.135 C 
BRANCH  16  17
ATOM     17  C   UNL     1      93.303  78.936  88.765  1.00  0.00    -0.040 A 
ATOM     18  C   UNL     1      92.202  79.085  87.923  1.00  0.00     0.004 A 
ATOM     19  C   UNL     1      93.136  78.417  90.049  1.00  0.00     0.004 A 
ATOM     20  C   UNL     1      90.931  78.715  88.365  1.00  0.00     0.000 A 
ATOM     21  C   UNL     1      91.865  78.047  90.490  1.00  0.00     0.000 A 
ATOM     22  C   UNL     1      90.763  78.196  89.648  1.00  0.00     0.000 A 
ENDBRANCH  16  17
ENDBRANCH   7  16
BRANCH  15  23
ATOM     23  C   UNL     1      92.463  83.071  89.180  1.00  0.00    -0.046 C 
ATOM     24  C   UNL     1      91.800  82.351  90.318  1.00  0.00     0.042 C 
ATOM     25  C   UNL     1      91.795  83.938  88.405  1.00  0.00     0.010 C 
ENDBRANCH  15  23
ENDBRANCH   3   4
BRANCH   2  26
ATOM     26  C   UNL     1      98.537  83.940  85.725  1.00  0.00     0.078 C 
BRANCH  26  27
ATOM     27  C   UNL     1      98.651  83.911  87.248  1.00  0.00     0.140 C 
ATOM     28  C   UNL     1      98.143  82.582  87.846  1.00  0.00     0.086 CG0
ATOM     29  C   UNL     1     100.088  83.953  87.723  1.00  0.00     0.190 C 
ATOM     30  C   UNL     1      99.212  82.213  88.836  1.00  0.00    -0.010 C 
ATOM     31  G   UNL     1      96.651  82.555  88.288  1.00  0.00     0.000 G0
ATOM     32  O   UNL     1     100.938  84.741  87.338  1.00  0.00    -0.291 OA
ATOM     33  C   UNL     1     100.328  82.945  88.773  1.00  0.00    -0.008 C 
ATOM     34  C   UNL     1     101.595  82.816  89.523  1.00  0.00     0.048 C 
BRANCH  27  35
ATOM     35  O   UNL     1      98.067  85.062  87.834  1.00  0.00    -0.381 OA
ATOM     36  H   UNL     1      98.728  85.481  88.410  1.00  0.00     0.212 HD
ENDBRANCH  27  35
ENDBRANCH  26  27
ENDBRANCH   2  26
ENDBRANCH   1   2
BRANCH   1  37
ATOM     37  O   UNL     1      98.691  83.213  83.226  1.00  0.00    -0.461 OA
BRANCH  37  38
ATOM     38  C   UNL     1      99.075  82.171  82.414  1.00  0.00     0.310 C 
ATOM     39  O   UNL     1      98.756  81.001  82.574  1.00  0.00    -0.252 OA
BRANCH  38  40
ATOM     40  C   UNL     1      99.949  82.695  81.299  1.00  0.00     0.158 C 
BRANCH  40  41
ATOM     41  C   UNL     1      99.181  82.975  80.034  1.00  0.00    -0.037 A 
ATOM     42  C   UNL     1      99.742  82.665  78.795  1.00  0.00     0.008 A 
ATOM     43  C   UNL     1      97.910  83.546  80.099  1.00  0.00     0.008 A 
ATOM     44  C   UNL     1      99.032  82.925  77.622  1.00  0.00     0.046 A 
ATOM     45  C   UNL     1      97.199  83.805  78.927  1.00  0.00     0.046 A 
ATOM     46  C   UNL     1      97.760  83.495  77.689  1.00  0.00     0.115 A 
BRANCH  46  47
ATOM     47  O   UNL     1      97.068  83.749  76.545  1.00  0.00    -0.508 OA
ATOM     48  H   UNL     1      96.498  84.525  76.687  1.00  0.00     0.293 HD
ENDBRANCH  46  47
ENDBRANCH  40  41
ENDBRANCH  38  40
ENDBRANCH  37  38
ENDBRANCH   1  37
TORSDOF 10
ENDMDL
MODEL 4
REMARK VINA RESULT:    -6.606     28.448     31.899
REMARK INTER + INTRA:         -12.730
REMARK INTER:                 -12.616
REMARK INTRA:                  -0.114
REMARK UNBOUND:                -1.490
REMARK SMILES C=C(C)[C@]12C[C@@H](C)[C@@]34O[C@](Cc5ccccc5)(O[C@@H]1[C@@H]3C=C(COC(=O)Cc1ccc(O)cc1)C[C@]1(O)C(=O)C(C)=C[C@@H]41)O2
REMARK SMILES IDX 23 1 22 2 21 3 20 4 9 5 8 6 10 7 6 8 18 10 44 11 19 12 5 13
REMARK SMILES IDX 7 14 4 15 11 16 12 17 13 18 17 19 14 20 16 21 15 22 2 23
REMARK SMILES IDX 3 24 1 25 35 26 36 27 43 28 38 29 42 30 39 32 40 33 41 34
REMARK SMILES IDX 37 35 24 37 25 38 26 39 27 40 28 41 29 42 34 43 30 44 33 45
REMARK SMILES IDX 31 46 32 47
REMARK H PARENT 37 36 32 48
REMARK Flexibility Score: 90.00
ROOT
ATOM      1  C   UNL     1      93.555 100.095  72.245  1.00  0.00     0.264 C 
ENDROOT
BRANCH   1   2
ATOM      2  C   UNL     1      92.658 101.254  71.875  1.00  0.00    -0.033 C 
ATOM      3  C   UNL     1      92.309 101.431  70.583  1.00  0.00    -0.015 C 
BRANCH   3   4
ATOM      4  C   UNL     1      91.493 102.545  69.948  1.00  0.00     0.078 C 
ATOM      5  O   UNL     1      89.141 101.781  69.906  1.00  0.00    -0.319 OA
ATOM      6  C   UNL     1      90.030 102.793  70.472  1.00  0.00     0.095 CG0
ATOM      7  C   UNL     1      89.351 101.488  68.511  1.00  0.00     0.289 C 
ATOM      8  C   UNL     1      89.578 104.226  69.971  1.00  0.00     0.023 C 
ATOM      9  G   UNL     1      89.948 102.566  72.010  1.00  0.00     0.000 G0
ATOM     10  O   UNL     1      90.688 101.062  68.267  1.00  0.00    -0.320 OA
ATOM     11  O   UNL     1      89.152 102.631  67.682  1.00  0.00    -0.313 OA
ATOM     12  C   UNL     1      91.381 102.311  68.422  1.00  0.00     0.170 C 
ATOM     13  C   UNL     1      90.199 104.569  68.582  1.00  0.00     0.049 C 
ATOM     14  C   UNL     1      88.059 104.461  69.921  1.00  0.00     0.011 C 
ATOM     15  C   UNL     1      90.422 103.314  67.736  1.00  0.00     0.122 C 
BRANCH   7  16
ATOM     16  C   UNL     1      88.382 100.396  68.104  1.00  0.00     0.135 C 
BRANCH  16  17
ATOM     17  C   UNL     1      88.698  99.081  68.773  1.00  0.00    -0.040 A 
ATOM     18  C   UNL     1      88.784  97.915  68.013  1.00  0.00     0.004 A 
ATOM     19  C   UNL     1      88.903  99.033  70.151  1.00  0.00     0.004 A 
ATOM     20  C   UNL     1      89.077  96.699  68.631  1.00  0.00     0.000 A 
ATOM     21  C   UNL     1      89.196  97.816  70.770  1.00  0.00     0.000 A 
ATOM     22  C   UNL     1      89.283  96.651  70.010  1.00  0.00     0.000 A 
ENDBRANCH  16  17
ENDBRANCH   7  16
BRANCH  15  23
ATOM     23  C   UNL     1      90.845 103.631  66.339  1.00  0.00    -0.046 C 
ATOM     24  C   UNL     1      90.165 104.801  65.691  1.00  0.00     0.042 C 
ATOM     25  C   UNL     1      91.780 102.912  65.701  1.00  0.00     0.010 C 
ENDBRANCH  15  23
ENDBRANCH   3   4
BRANCH   2  26
ATOM     26  C   UNL     1      92.249 102.095  73.069  1.00  0.00     0.078 C 
BRANCH  26  27
ATOM     27  C   UNL     1      91.143 103.126  72.850  1.00  0.00     0.140 C 
ATOM     28  C   UNL     1      89.973 102.560  72.019  1.00  0.00     0.086 CG0
ATOM     29  C   UNL     1      90.461 103.528  74.140  1.00  0.00     0.190 C 
ATOM     30  C   UNL     1      88.755 103.007  72.779  1.00  0.00    -0.010 C 
ATOM     31  G   UNL     1      90.044 102.799  70.482  1.00  0.00     0.000 G0
ATOM     32  O   UNL     1      91.031 103.860  75.169  1.00  0.00    -0.291 OA
ATOM     33  C   UNL     1      88.994 103.529  73.986  1.00  0.00    -0.008 C 
ATOM     34  C   UNL     1      88.051 103.990  75.026  1.00  0.00     0.048 C 
BRANCH  27  35
ATOM     35  O   UNL     1      91.664 104.346  72.348  1.00  0.00    -0.381 OA
ATOM     36  H   UNL     1      91.181 104.574  71.535  1.00  0.00     0.212 HD
ENDBRANCH  27  35
ENDBRANCH  26  27
ENDBRANCH   2  26
ENDBRANCH   1   2
BRANCH   1  37
ATOM     37  O   UNL     1      94.205 100.380  73.465  1.00  0.00    -0.461 OA
BRANCH  37  38
ATOM     38  C   UNL     1      94.687  99.297  74.164  1.00  0.00     0.310 C 
ATOM     39  O   UNL     1      95.551  98.530  73.763  1.00  0.00    -0.252 OA
BRANCH  38  40
ATOM     40  C   UNL     1      93.986  99.206  75.498  1.00  0.00     0.158 C 
BRANCH  40  41
ATOM     41  C   UNL     1      94.196  97.881  76.183  1.00  0.00    -0.037 A 
ATOM     42  C   UNL     1      93.550  96.739  75.708  1.00  0.00     0.008 A 
ATOM     43  C   UNL     1      95.036  97.794  77.293  1.00  0.00     0.008 A 
ATOM     44  C   UNL     1      93.743  95.512  76.342  1.00  0.00     0.046 A 
ATOM     45  C   UNL     1      95.231  96.567  77.927  1.00  0.00     0.046 A 
ATOM     46  C   UNL     1      94.584  95.426  77.453  1.00  0.00     0.115 A 
BRANCH  46  47
ATOM     47  O   UNL     1      94.773  94.229  78.072  1.00  0.00    -0.508 OA
ATOM     48  H   UNL     1      94.058  93.623  77.810  1.00  0.00     0.293 HD
ENDBRANCH  46  47
ENDBRANCH  40  41
ENDBRANCH  38  40
ENDBRANCH  37  38
ENDBRANCH   1  37
TORSDOF 10
ENDMDL
MODEL 5
REMARK VINA RESULT:    -6.561     26.213     30.021
REMARK INTER + INTRA:         -12.655
REMARK INTER:                 -12.122
REMARK INTRA:                  -0.533
REMARK UNBOUND:                -1.490
REMARK SMILES C=C(C)[C@]12C[C@@H](C)[C@@]34O[C@](Cc5ccccc5)(O[C@@H]1[C@@H]3C=C(COC(=O)Cc1ccc(O)cc1)C[C@]1(O)C(=O)C(C)=C[C@@H]41)O2
REMARK SMILES IDX 23 1 22 2 21 3 20 4 9 5 8 6 10 7 6 8 18 10 44 11 19 12 5 13
REMARK SMILES IDX 7 14 4 15 11 16 12 17 13 18 17 19 14 20 16 21 15 22 2 23
REMARK SMILES IDX 3 24 1 25 35 26 36 27 43 28 38 29 42 30 39 32 40 33 41 34
REMARK SMILES IDX 37 35 24 37 25 38 26 39 27 40 28 41 29 42 34 43 30 44 33 45
REMARK SMILES IDX 31 46 32 47
REMARK H PARENT 37 36 32 48
REMARK Flexibility Score: 90.00
ROOT
ATOM      1  C   UNL     1      89.361  70.622  80.241  1.00  0.00     0.264 C 
ENDROOT
BRANCH   1   2
ATOM      2  C   UNL     1      89.508  69.497  79.243  1.00  0.00    -0.033 C 
ATOM      3  C   UNL     1      88.568  69.335  78.289  1.00  0.00    -0.015 C 
BRANCH   3   4
ATOM      4  C   UNL     1      88.444  68.252  77.229  1.00  0.00     0.078 C 
ATOM      5  O   UNL     1      89.558  69.107  75.193  1.00  0.00    -0.319 OA
ATOM      6  C   UNL     1      89.629  68.062  76.213  1.00  0.00     0.095 CG0
ATOM      7  C   UNL     1      88.236  69.388  74.692  1.00  0.00     0.289 C 
ATOM      8  C   UNL     1      89.448  66.646  75.525  1.00  0.00     0.023 C 
ATOM      9  G   UNL     1      91.000  68.295  76.911  1.00  0.00     0.000 G0
ATOM     10  O   UNL     1      87.352  69.761  75.745  1.00  0.00    -0.320 OA
ATOM     11  O   UNL     1      87.639  68.252  74.072  1.00  0.00    -0.313 OA
ATOM     12  C   UNL     1      87.169  68.488  76.383  1.00  0.00     0.170 C 
ATOM     13  C   UNL     1      87.941  66.277  75.364  1.00  0.00     0.049 C 
ATOM     14  C   UNL     1      90.163  66.470  74.174  1.00  0.00     0.011 C 
ATOM     15  C   UNL     1      87.071  67.521  75.178  1.00  0.00     0.122 C 
BRANCH   7  16
ATOM     16  C   UNL     1      88.341  70.516  73.685  1.00  0.00     0.135 C 
BRANCH  16  17
ATOM     17  C   UNL     1      87.414  70.316  72.512  1.00  0.00    -0.040 A 
ATOM     18  C   UNL     1      87.878  69.695  71.354  1.00  0.00     0.004 A 
ATOM     19  C   UNL     1      86.092  70.754  72.588  1.00  0.00     0.004 A 
ATOM     20  C   UNL     1      87.020  69.509  70.269  1.00  0.00     0.000 A 
ATOM     21  C   UNL     1      85.233  70.569  71.503  1.00  0.00     0.000 A 
ATOM     22  C   UNL     1      85.698  69.947  70.345  1.00  0.00     0.000 A 
ENDBRANCH  16  17
ENDBRANCH   7  16
BRANCH  15  23
ATOM     23  C   UNL     1      85.654  67.185  74.842  1.00  0.00    -0.046 C 
ATOM     24  C   UNL     1      85.195  67.559  73.463  1.00  0.00     0.042 C 
ATOM     25  C   UNL     1      84.840  66.583  75.721  1.00  0.00     0.010 C 
ENDBRANCH  15  23
ENDBRANCH   3   4
BRANCH   2  26
ATOM     26  C   UNL     1      90.760  68.668  79.459  1.00  0.00     0.078 C 
BRANCH  26  27
ATOM     27  C   UNL     1      91.149  67.690  78.353  1.00  0.00     0.140 C 
ATOM     28  C   UNL     1      90.991  68.305  76.947  1.00  0.00     0.086 CG0
ATOM     29  C   UNL     1      92.620  67.331  78.387  1.00  0.00     0.190 C 
ATOM     30  C   UNL     1      92.268  67.922  76.252  1.00  0.00    -0.010 C 
ATOM     31  G   UNL     1      89.629  68.051  76.237  1.00  0.00     0.000 G0
ATOM     32  O   UNL     1      93.240  66.980  79.380  1.00  0.00    -0.291 OA
ATOM     33  C   UNL     1      93.213  67.399  77.038  1.00  0.00    -0.008 C 
ATOM     34  C   UNL     1      94.597  66.991  76.720  1.00  0.00     0.048 C 
BRANCH  27  35
ATOM     35  O   UNL     1      90.493  66.443  78.510  1.00  0.00    -0.381 OA
ATOM     36  H   UNL     1      90.808  65.841  77.814  1.00  0.00     0.212 HD
ENDBRANCH  27  35
ENDBRANCH  26  27
ENDBRANCH   2  26
ENDBRANCH   1   2
BRANCH   1  37
ATOM     37  O   UNL     1      90.458  71.503  80.116  1.00  0.00    -0.461 OA
BRANCH  37  38
ATOM     38  C   UNL     1      90.376  72.679  80.825  1.00  0.00     0.310 C 
ATOM     39  O   UNL     1      89.534  72.929  81.676  1.00  0.00    -0.252 OA
BRANCH  38  40
ATOM     40  C   UNL     1      91.485  73.607  80.390  1.00  0.00     0.158 C 
BRANCH  40  41
ATOM     41  C   UNL     1      91.016  74.675  79.435  1.00  0.00    -0.037 A 
ATOM     42  C   UNL     1      89.677  75.065  79.428  1.00  0.00     0.008 A 
ATOM     43  C   UNL     1      91.920  75.273  78.558  1.00  0.00     0.008 A 
ATOM     44  C   UNL     1      89.242  76.053  78.544  1.00  0.00     0.046 A 
ATOM     45  C   UNL     1      91.487  76.261  77.674  1.00  0.00     0.046 A 
ATOM     46  C   UNL     1      90.148  76.651  77.666  1.00  0.00     0.115 A 
BRANCH  46  47
ATOM     47  O   UNL     1      89.724  77.614  76.804  1.00  0.00    -0.508 OA
ATOM     48  H   UNL     1      90.494  78.125  76.498  1.00  0.00     0.293 HD
ENDBRANCH  46  47
ENDBRANCH  40  41
ENDBRANCH  38  40
ENDBRANCH  37  38
ENDBRANCH   1  37
TORSDOF 10
ENDMDL
MODEL 6
REMARK VINA RESULT:    -6.381      2.435      5.776
REMARK INTER + INTRA:         -12.347
REMARK INTER:                 -10.530
REMARK INTRA:                  -1.817
REMARK UNBOUND:                -1.490
REMARK SMILES C=C(C)[C@]12C[C@@H](C)[C@@]34O[C@](Cc5ccccc5)(O[C@@H]1[C@@H]3C=C(COC(=O)Cc1ccc(O)cc1)C[C@]1(O)C(=O)C(C)=C[C@@H]41)O2
REMARK SMILES IDX 23 1 22 2 21 3 20 4 9 5 8 6 10 7 6 8 18 10 44 11 19 12 5 13
REMARK SMILES IDX 7 14 4 15 11 16 12 17 13 18 17 19 14 20 16 21 15 22 2 23
REMARK SMILES IDX 3 24 1 25 35 26 36 27 43 28 38 29 42 30 39 32 40 33 41 34
REMARK SMILES IDX 37 35 24 37 25 38 26 39 27 40 28 41 29 42 34 43 30 44 33 45
REMARK SMILES IDX 31 46 32 47
REMARK H PARENT 37 36 32 48
REMARK Flexibility Score: 90.00
ROOT
ATOM      1  C   UNL     1      63.184  88.299  75.722  1.00  0.00     0.264 C 
ENDROOT
BRANCH   1   2
ATOM      2  C   UNL     1      62.218  87.423  74.959  1.00  0.00    -0.033 C 
ATOM      3  C   UNL     1      61.555  87.937  73.903  1.00  0.00    -0.015 C 
BRANCH   3   4
ATOM      4  C   UNL     1      60.488  87.298  73.028  1.00  0.00     0.078 C 
ATOM      5  O   UNL     1      61.651  86.301  71.086  1.00  0.00    -0.319 OA
ATOM      6  C   UNL     1      60.845  85.972  72.261  1.00  0.00     0.095 CG0
ATOM      7  C   UNL     1      61.208  87.451  70.340  1.00  0.00     0.289 C 
ATOM      8  C   UNL     1      59.485  85.307  71.793  1.00  0.00     0.023 C 
ATOM      9  G   UNL     1      61.771  85.065  73.123  1.00  0.00     0.000 G0
ATOM     10  O   UNL     1      61.161  88.615  71.161  1.00  0.00    -0.320 OA
ATOM     11  O   UNL     1      59.889  87.289  69.825  1.00  0.00    -0.313 OA
ATOM     12  C   UNL     1      60.007  88.311  71.960  1.00  0.00     0.170 C 
ATOM     13  C   UNL     1      58.409  86.384  71.454  1.00  0.00     0.049 C 
ATOM     14  C   UNL     1      59.601  84.316  70.623  1.00  0.00     0.011 C 
ATOM     15  C   UNL     1      59.044  87.673  70.930  1.00  0.00     0.122 C 
BRANCH   7  16
ATOM     16  C   UNL     1      62.174  87.672  69.192  1.00  0.00     0.135 C 
BRANCH  16  17
ATOM     17  C   UNL     1      63.025  86.456  68.926  1.00  0.00    -0.040 A 
ATOM     18  C   UNL     1      64.416  86.564  68.925  1.00  0.00     0.004 A 
ATOM     19  C   UNL     1      62.421  85.223  68.682  1.00  0.00     0.004 A 
ATOM     20  C   UNL     1      65.203  85.439  68.679  1.00  0.00     0.000 A 
ATOM     21  C   UNL     1      63.209  84.098  68.436  1.00  0.00     0.000 A 
ATOM     22  C   UNL     1      64.599  84.206  68.435  1.00  0.00     0.000 A 
ENDBRANCH  16  17
ENDBRANCH   7  16
BRANCH  15  23
ATOM     23  C   UNL     1      58.030  88.649  70.429  1.00  0.00    -0.046 C 
ATOM     24  C   UNL     1      57.839  89.887  71.255  1.00  0.00     0.042 C 
ATOM     25  C   UNL     1      57.330  88.432  69.306  1.00  0.00     0.010 C 
ENDBRANCH  15  23
ENDBRANCH   3   4
BRANCH   2  26
ATOM     26  C   UNL     1      62.128  86.013  75.512  1.00  0.00     0.078 C 
BRANCH  26  27
ATOM     27  C   UNL     1      61.399  84.975  74.661  1.00  0.00     0.140 C 
ATOM     28  C   UNL     1      61.774  85.077  73.168  1.00  0.00     0.086 CG0
ATOM     29  C   UNL     1      61.806  83.557  75.002  1.00  0.00     0.190 C 
ATOM     30  C   UNL     1      62.022  83.648  72.771  1.00  0.00    -0.010 C 
ATOM     31  G   UNL     1      60.846  85.964  72.288  1.00  0.00     0.000 G0
ATOM     32  O   UNL     1      61.863  83.088  76.129  1.00  0.00    -0.291 OA
ATOM     33  C   UNL     1      62.074  82.774  73.780  1.00  0.00    -0.008 C 
ATOM     34  C   UNL     1      62.375  81.328  73.772  1.00  0.00     0.048 C 
BRANCH  27  35
ATOM     35  O   UNL     1      60.003  84.994  74.904  1.00  0.00    -0.381 OA
ATOM     36  H   UNL     1      59.858  84.982  75.865  1.00  0.00     0.212 HD
ENDBRANCH  27  35
ENDBRANCH  26  27
ENDBRANCH   2  26
ENDBRANCH   1   2
BRANCH   1  37
ATOM     37  O   UNL     1      64.385  88.418  74.989  1.00  0.00    -0.461 OA
BRANCH  37  38
ATOM     38  C   UNL     1      65.549  88.404  75.722  1.00  0.00     0.310 C 
ATOM     39  O   UNL     1      66.144  89.397  76.115  1.00  0.00    -0.252 OA
BRANCH  38  40
ATOM     40  C   UNL     1      65.974  86.975  75.965  1.00  0.00     0.158 C 
BRANCH  40  41
ATOM     41  C   UNL     1      66.222  86.211  74.691  1.00  0.00    -0.037 A 
ATOM     42  C   UNL     1      65.327  85.220  74.287  1.00  0.00     0.008 A 
ATOM     43  C   UNL     1      67.346  86.493  73.915  1.00  0.00     0.008 A 
ATOM     44  C   UNL     1      65.557  84.511  73.107  1.00  0.00     0.046 A 
ATOM     45  C   UNL     1      67.576  85.785  72.735  1.00  0.00     0.046 A 
ATOM     46  C   UNL     1      66.682  84.794  72.331  1.00  0.00     0.115 A 
BRANCH  46  47
ATOM     47  O   UNL     1      66.907  84.103  71.181  1.00  0.00    -0.508 OA
ATOM     48  H   UNL     1      67.200  83.203  71.406  1.00  0.00     0.293 HD
ENDBRANCH  46  47
ENDBRANCH  40  41
ENDBRANCH  38  40
ENDBRANCH  37  38
ENDBRANCH   1  37
TORSDOF 10
ENDMDL
MODEL 7
REMARK VINA RESULT:    -6.290     30.046     34.269
REMARK INTER + INTRA:         -12.193
REMARK INTER:                  -9.691
REMARK INTRA:                  -2.501
REMARK UNBOUND:                -1.490
REMARK SMILES C=C(C)[C@]12C[C@@H](C)[C@@]34O[C@](Cc5ccccc5)(O[C@@H]1[C@@H]3C=C(COC(=O)Cc1ccc(O)cc1)C[C@]1(O)C(=O)C(C)=C[C@@H]41)O2
REMARK SMILES IDX 23 1 22 2 21 3 20 4 9 5 8 6 10 7 6 8 18 10 44 11 19 12 5 13
REMARK SMILES IDX 7 14 4 15 11 16 12 17 13 18 17 19 14 20 16 21 15 22 2 23
REMARK SMILES IDX 3 24 1 25 35 26 36 27 43 28 38 29 42 30 39 32 40 33 41 34
REMARK SMILES IDX 37 35 24 37 25 38 26 39 27 40 28 41 29 42 34 43 30 44 33 45
REMARK SMILES IDX 31 46 32 47
REMARK H PARENT 37 36 32 48
REMARK Flexibility Score: 90.00
ROOT
ATOM      1  C   UNL     1      97.212  81.884  85.293  1.00  0.00     0.264 C 
ENDROOT
BRANCH   1   2
ATOM      2  C   UNL     1      96.400  81.417  86.479  1.00  0.00    -0.033 C 
ATOM      3  C   UNL     1      95.061  81.586  86.468  1.00  0.00    -0.015 C 
BRANCH   3   4
ATOM      4  C   UNL     1      94.041  81.277  87.552  1.00  0.00     0.078 C 
ATOM      5  O   UNL     1      93.210  78.987  87.127  1.00  0.00    -0.319 OA
ATOM      6  C   UNL     1      93.945  79.803  88.092  1.00  0.00     0.095 CG0
ATOM      7  C   UNL     1      92.039  79.609  86.562  1.00  0.00     0.289 C 
ATOM      8  C   UNL     1      93.147  79.844  89.460  1.00  0.00     0.023 C 
ATOM      9  G   UNL     1      95.355  79.146  88.159  1.00  0.00     0.000 G0
ATOM     10  O   UNL     1      92.366  80.836  85.917  1.00  0.00    -0.320 OA
ATOM     11  O   UNL     1      91.069  79.940  87.552  1.00  0.00    -0.313 OA
ATOM     12  C   UNL     1      92.622  81.662  87.064  1.00  0.00     0.170 C 
ATOM     13  C   UNL     1      92.063  80.965  89.456  1.00  0.00     0.049 C 
ATOM     14  C   UNL     1      92.504  78.514  89.890  1.00  0.00     0.011 C 
ATOM     15  C   UNL     1      91.515  81.218  88.051  1.00  0.00     0.122 C 
BRANCH   7  16
ATOM     16  C   UNL     1      91.430  78.649  85.560  1.00  0.00     0.135 C 
BRANCH  16  17
ATOM     17  C   UNL     1      91.862  77.224  85.804  1.00  0.00    -0.040 A 
ATOM     18  C   UNL     1      92.907  76.675  85.063  1.00  0.00     0.004 A 
ATOM     19  C   UNL     1      91.215  76.457  86.773  1.00  0.00     0.004 A 
ATOM     20  C   UNL     1      93.307  75.358  85.290  1.00  0.00     0.000 A 
ATOM     21  C   UNL     1      91.614  75.140  87.000  1.00  0.00     0.000 A 
ATOM     22  C   UNL     1      92.660  74.591  86.259  1.00  0.00     0.000 A 
ENDBRANCH  16  17
ENDBRANCH   7  16
BRANCH  15  23
ATOM     23  C   UNL     1      90.352  82.156  88.049  1.00  0.00    -0.046 C 
ATOM     24  C   UNL     1      89.157  81.726  87.250  1.00  0.00     0.042 C 
ATOM     25  C   UNL     1      90.375  83.315  88.722  1.00  0.00     0.010 C 
ENDBRANCH  15  23
ENDBRANCH   3   4
BRANCH   2  26
ATOM     26  C   UNL     1      97.245  80.785  87.568  1.00  0.00     0.078 C 
BRANCH  26  27
ATOM     27  C   UNL     1      96.506  80.072  88.699  1.00  0.00     0.140 C 
ATOM     28  C   UNL     1      95.375  79.163  88.176  1.00  0.00     0.086 CG0
ATOM     29  C   UNL     1      97.391  79.094  89.444  1.00  0.00     0.190 C 
ATOM     30  C   UNL     1      95.567  77.887  88.947  1.00  0.00    -0.010 C 
ATOM     31  G   UNL     1      93.959  79.805  88.101  1.00  0.00     0.000 G0
ATOM     32  O   UNL     1      98.509  79.336  89.872  1.00  0.00    -0.291 OA
ATOM     33  C   UNL     1      96.702  77.805  89.646  1.00  0.00    -0.008 C 
ATOM     34  C   UNL     1      97.252  76.688  90.441  1.00  0.00     0.048 C 
BRANCH  27  35
ATOM     35  O   UNL     1      96.091  80.984  89.702  1.00  0.00    -0.381 OA
ATOM     36  H   UNL     1      96.747  80.971  90.419  1.00  0.00     0.212 HD
ENDBRANCH  27  35
ENDBRANCH  26  27
ENDBRANCH   2  26
ENDBRANCH   1   2
BRANCH   1  37
ATOM     37  O   UNL     1      96.853  83.212  84.975  1.00  0.00    -0.461 OA
BRANCH  37  38
ATOM     38  C   UNL     1      97.605  84.202  85.565  1.00  0.00     0.310 C 
ATOM     39  O   UNL     1      98.811  84.146  85.762  1.00  0.00    -0.252 OA
BRANCH  38  40
ATOM     40  C   UNL     1      96.711  85.363  85.931  1.00  0.00     0.158 C 
BRANCH  40  41
ATOM     41  C   UNL     1      95.858  85.089  87.142  1.00  0.00    -0.037 A 
ATOM     42  C   UNL     1      96.447  84.637  88.323  1.00  0.00     0.008 A 
ATOM     43  C   UNL     1      94.479  85.287  87.084  1.00  0.00     0.008 A 
ATOM     44  C   UNL     1      95.657  84.383  89.444  1.00  0.00     0.046 A 
ATOM     45  C   UNL     1      93.688  85.034  88.205  1.00  0.00     0.046 A 
ATOM     46  C   UNL     1      94.277  84.581  89.385  1.00  0.00     0.115 A 
BRANCH  46  47
ATOM     47  O   UNL     1      93.507  84.333  90.479  1.00  0.00    -0.508 OA
ATOM     48  H   UNL     1      93.809  84.897  91.212  1.00  0.00     0.293 HD
ENDBRANCH  46  47
ENDBRANCH  40  41
ENDBRANCH  38  40
ENDBRANCH  37  38
ENDBRANCH   1  37
TORSDOF 10
ENDMDL
MODEL 8
REMARK VINA RESULT:    -6.180     34.121     36.959
REMARK INTER + INTRA:         -12.005
REMARK INTER:                 -11.344
REMARK INTRA:                  -0.661
REMARK UNBOUND:                -1.490
REMARK SMILES C=C(C)[C@]12C[C@@H](C)[C@@]34O[C@](Cc5ccccc5)(O[C@@H]1[C@@H]3C=C(COC(=O)Cc1ccc(O)cc1)C[C@]1(O)C(=O)C(C)=C[C@@H]41)O2
REMARK SMILES IDX 23 1 22 2 21 3 20 4 9 5 8 6 10 7 6 8 18 10 44 11 19 12 5 13
REMARK SMILES IDX 7 14 4 15 11 16 12 17 13 18 17 19 14 20 16 21 15 22 2 23
REMARK SMILES IDX 3 24 1 25 35 26 36 27 43 28 38 29 42 30 39 32 40 33 41 34
REMARK SMILES IDX 37 35 24 37 25 38 26 39 27 40 28 41 29 42 34 43 30 44 33 45
REMARK SMILES IDX 31 46 32 47
REMARK H PARENT 37 36 32 48
REMARK Flexibility Score: 90.00
ROOT
ATOM      1  C   UNL     1      99.558  76.968  80.350  1.00  0.00     0.264 C 
ENDROOT
BRANCH   1   2
ATOM      2  C   UNL     1      99.368  77.631  79.005  1.00  0.00    -0.033 C 
ATOM      3  C   UNL     1      99.225  78.971  78.945  1.00  0.00    -0.015 C 
BRANCH   3   4
ATOM      4  C   UNL     1      98.949  79.859  77.742  1.00  0.00     0.078 C 
ATOM      5  O   UNL     1     101.143  80.599  76.874  1.00  0.00    -0.319 OA
ATOM      6  C   UNL     1      99.956  79.817  76.534  1.00  0.00     0.095 CG0
ATOM      7  C   UNL     1     100.886  81.852  77.535  1.00  0.00     0.289 C 
ATOM      8  C   UNL     1      99.235  80.475  75.286  1.00  0.00     0.023 C 
ATOM      9  G   UNL     1     100.493  78.373  76.311  1.00  0.00     0.000 G0
ATOM     10  O   UNL     1     100.146  81.662  78.737  1.00  0.00    -0.320 OA
ATOM     11  O   UNL     1     100.103  82.736  76.736  1.00  0.00    -0.313 OA
ATOM     12  C   UNL     1      98.858  81.338  78.191  1.00  0.00     0.170 C 
ATOM     13  C   UNL     1      98.265  81.616  75.722  1.00  0.00     0.049 C 
ATOM     14  C   UNL     1     100.170  80.996  74.181  1.00  0.00     0.011 C 
ATOM     15  C   UNL     1      98.747  82.314  76.994  1.00  0.00     0.122 C 
BRANCH   7  16
ATOM     16  C   UNL     1     102.218  82.505  77.850  1.00  0.00     0.135 C 
BRANCH  16  17
ATOM     17  C   UNL     1     102.752  83.295  76.682  1.00  0.00    -0.040 A 
ATOM     18  C   UNL     1     103.788  82.779  75.905  1.00  0.00     0.004 A 
ATOM     19  C   UNL     1     102.208  84.544  76.380  1.00  0.00     0.004 A 
ATOM     20  C   UNL     1     104.281  83.510  74.823  1.00  0.00     0.000 A 
ATOM     21  C   UNL     1     102.702  85.275  75.299  1.00  0.00     0.000 A 
ATOM     22  C   UNL     1     103.738  84.759  74.522  1.00  0.00     0.000 A 
ENDBRANCH  16  17
ENDBRANCH   7  16
BRANCH  15  23
ATOM     23  C   UNL     1      97.935  83.523  77.328  1.00  0.00    -0.046 C 
ATOM     24  C   UNL     1      97.282  83.529  78.679  1.00  0.00     0.042 C 
ATOM     25  C   UNL     1      97.796  84.544  76.470  1.00  0.00     0.010 C 
ENDBRANCH  15  23
ENDBRANCH   3   4
BRANCH   2  26
ATOM     26  C   UNL     1      99.373  76.646  77.851  1.00  0.00     0.078 C 
BRANCH  26  27
ATOM     27  C   UNL     1      99.468  77.226  76.440  1.00  0.00     0.140 C 
ATOM     28  C   UNL     1     100.496  78.372  76.348  1.00  0.00     0.086 CG0
ATOM     29  C   UNL     1     100.005  76.226  75.438  1.00  0.00     0.190 C 
ATOM     30  C   UNL     1     101.273  78.046  75.103  1.00  0.00    -0.010 C 
ATOM     31  G   UNL     1      99.936  79.812  76.544  1.00  0.00     0.000 G0
ATOM     32  O   UNL     1      99.612  75.077  75.303  1.00  0.00    -0.291 OA
ATOM     33  C   UNL     1     101.041  76.837  74.584  1.00  0.00    -0.008 C 
ATOM     34  C   UNL     1     101.673  76.159  73.433  1.00  0.00     0.048 C 
BRANCH  27  35
ATOM     35  O   UNL     1      98.188  77.561  75.931  1.00  0.00    -0.381 OA
ATOM     36  H   UNL     1      97.668  76.744  75.847  1.00  0.00     0.212 HD
ENDBRANCH  27  35
ENDBRANCH  26  27
ENDBRANCH   2  26
ENDBRANCH   1   2
BRANCH   1  37
ATOM     37  O   UNL     1      98.945  77.755  81.349  1.00  0.00    -0.461 OA
BRANCH  37  38
ATOM     38  C   UNL     1      99.791  78.372  82.241  1.00  0.00     0.310 C 
ATOM     39  O   UNL     1     100.979  78.588  82.048  1.00  0.00    -0.252 OA
BRANCH  38  40
ATOM     40  C   UNL     1      99.026  78.738  83.490  1.00  0.00     0.158 C 
BRANCH  40  41
ATOM     41  C   UNL     1      98.606  80.185  83.520  1.00  0.00    -0.037 A 
ATOM     42  C   UNL     1      97.883  80.679  84.605  1.00  0.00     0.008 A 
ATOM     43  C   UNL     1      98.940  81.030  82.462  1.00  0.00     0.008 A 
ATOM     44  C   UNL     1      97.493  82.018  84.632  1.00  0.00     0.046 A 
ATOM     45  C   UNL     1      98.551  82.369  82.489  1.00  0.00     0.046 A 
ATOM     46  C   UNL     1      97.827  82.863  83.574  1.00  0.00     0.115 A 
BRANCH  46  47
ATOM     47  O   UNL     1      97.447  84.170  83.600  1.00  0.00    -0.508 OA
ATOM     48  H   UNL     1      97.225  84.415  84.515  1.00  0.00     0.293 HD
ENDBRANCH  46  47
ENDBRANCH  40  41
ENDBRANCH  38  40
ENDBRANCH  37  38
ENDBRANCH   1  37
TORSDOF 10
ENDMDL
MODEL 9
REMARK VINA RESULT:    -6.168     32.724     37.331
REMARK INTER + INTRA:         -11.986
REMARK INTER:                 -11.121
REMARK INTRA:                  -0.865
REMARK UNBOUND:                -1.490
REMARK SMILES C=C(C)[C@]12C[C@@H](C)[C@@]34O[C@](Cc5ccccc5)(O[C@@H]1[C@@H]3C=C(COC(=O)Cc1ccc(O)cc1)C[C@]1(O)C(=O)C(C)=C[C@@H]41)O2
REMARK SMILES IDX 23 1 22 2 21 3 20 4 9 5 8 6 10 7 6 8 18 10 44 11 19 12 5 13
REMARK SMILES IDX 7 14 4 15 11 16 12 17 13 18 17 19 14 20 16 21 15 22 2 23
REMARK SMILES IDX 3 24 1 25 35 26 36 27 43 28 38 29 42 30 39 32 40 33 41 34
REMARK SMILES IDX 37 35 24 37 25 38 26 39 27 40 28 41 29 42 34 43 30 44 33 45
REMARK SMILES IDX 31 46 32 47
REMARK H PARENT 37 36 32 48
REMARK Flexibility Score: 90.00
ROOT
ATOM      1  C   UNL     1     101.179  79.787  82.938  1.00  0.00     0.264 C 
ENDROOT
BRANCH   1   2
ATOM      2  C   UNL     1     101.034  80.555  84.232  1.00  0.00    -0.033 C 
ATOM      3  C   UNL     1      99.933  81.308  84.431  1.00  0.00    -0.015 C 
BRANCH   3   4
ATOM      4  C   UNL     1      99.586  82.222  85.596  1.00  0.00     0.078 C 
ATOM      5  O   UNL     1      98.334  80.858  87.235  1.00  0.00    -0.319 OA
ATOM      6  C   UNL     1      99.571  81.613  87.046  1.00  0.00     0.095 CG0
ATOM      7  C   UNL     1      97.144  81.487  86.721  1.00  0.00     0.289 C 
ATOM      8  C   UNL     1      99.610  82.820  88.073  1.00  0.00     0.023 C 
ATOM      9  G   UNL     1     100.701  80.556  87.214  1.00  0.00     0.000 G0
ATOM     10  O   UNL     1      97.264  81.762  85.329  1.00  0.00    -0.320 OA
ATOM     11  O   UNL     1      96.885  82.744  87.342  1.00  0.00    -0.313 OA
ATOM     12  C   UNL     1      98.193  82.858  85.369  1.00  0.00     0.170 C 
ATOM     13  C   UNL     1      98.855  84.067  87.519  1.00  0.00     0.049 C 
ATOM     14  C   UNL     1      99.097  82.500  89.488  1.00  0.00     0.011 C 
ATOM     15  C   UNL     1      97.703  83.667  86.595  1.00  0.00     0.122 C 
BRANCH   7  16
ATOM     16  C   UNL     1      95.973  80.554  86.961  1.00  0.00     0.135 C 
BRANCH  16  17
ATOM     17  C   UNL     1      94.754  81.292  87.456  1.00  0.00    -0.040 A 
ATOM     18  C   UNL     1      94.551  81.465  88.824  1.00  0.00     0.004 A 
ATOM     19  C   UNL     1      93.831  81.801  86.543  1.00  0.00     0.004 A 
ATOM     20  C   UNL     1      93.423  82.147  89.282  1.00  0.00     0.000 A 
ATOM     21  C   UNL     1      92.703  82.484  87.001  1.00  0.00     0.000 A 
ATOM     22  C   UNL     1      92.500  82.657  88.370  1.00  0.00     0.000 A 
ENDBRANCH  16  17
ENDBRANCH   7  16
BRANCH  15  23
ATOM     23  C   UNL     1      96.856  84.831  86.197  1.00  0.00    -0.046 C 
ATOM     24  C   UNL     1      97.431  85.742  85.153  1.00  0.00     0.042 C 
ATOM     25  C   UNL     1      95.650  85.050  86.743  1.00  0.00     0.010 C 
ENDBRANCH  15  23
ENDBRANCH   3   4
BRANCH   2  26
ATOM     26  C   UNL     1     102.204  80.356  85.177  1.00  0.00     0.078 C 
BRANCH  26  27
ATOM     27  C   UNL     1     102.064  80.920  86.590  1.00  0.00     0.140 C 
ATOM     28  C   UNL     1     100.705  80.563  87.228  1.00  0.00     0.086 CG0
ATOM     29  C   UNL     1     103.050  80.305  87.560  1.00  0.00     0.190 C 
ATOM     30  C   UNL     1     101.077  80.103  88.609  1.00  0.00    -0.010 C 
ATOM     31  G   UNL     1      99.569  81.613  87.053  1.00  0.00     0.000 G0
ATOM     32  O   UNL     1     104.250  80.179  87.366  1.00  0.00    -0.291 OA
ATOM     33  C   UNL     1     102.384  79.921  88.819  1.00  0.00    -0.008 C 
ATOM     34  C   UNL     1     103.094  79.406  90.008  1.00  0.00     0.048 C 
BRANCH  27  35
ATOM     35  O   UNL     1     102.369  82.304  86.629  1.00  0.00    -0.381 OA
ATOM     36  H   UNL     1     103.280  82.408  86.953  1.00  0.00     0.212 HD
ENDBRANCH  27  35
ENDBRANCH  26  27
ENDBRANCH   2  26
ENDBRANCH   1   2
BRANCH   1  37
ATOM     37  O   UNL     1     100.377  80.390  81.945  1.00  0.00    -0.461 OA
BRANCH  37  38
ATOM     38  C   UNL     1     101.043  81.098  80.972  1.00  0.00     0.310 C 
ATOM     39  O   UNL     1     101.878  80.630  80.210  1.00  0.00    -0.252 OA
BRANCH  38  40
ATOM     40  C   UNL     1     100.584  82.536  80.992  1.00  0.00     0.158 C 
BRANCH  40  41
ATOM     41  C   UNL     1      99.603  82.855  79.894  1.00  0.00    -0.037 A 
ATOM     42  C   UNL     1     100.038  82.934  78.571  1.00  0.00     0.008 A 
ATOM     43  C   UNL     1      98.260  83.072  80.200  1.00  0.00     0.008 A 
ATOM     44  C   UNL     1      99.129  83.230  77.554  1.00  0.00     0.046 A 
ATOM     45  C   UNL     1      97.351  83.368  79.184  1.00  0.00     0.046 A 
ATOM     46  C   UNL     1      97.785  83.447  77.861  1.00  0.00     0.115 A 
BRANCH  46  47
ATOM     47  O   UNL     1      96.899  83.736  76.870  1.00  0.00    -0.508 OA
ATOM     48  H   UNL     1      96.842  82.975  76.266  1.00  0.00     0.293 HD
ENDBRANCH  46  47
ENDBRANCH  40  41
ENDBRANCH  38  40
ENDBRANCH  37  38
ENDBRANCH   1  37
TORSDOF 10
ENDMDL
MODEL 10
REMARK VINA RESULT:    -5.880     33.895     36.710
REMARK INTER + INTRA:         -11.495
REMARK INTER:                 -10.926
REMARK INTRA:                  -0.570
REMARK UNBOUND:                -1.490
REMARK SMILES C=C(C)[C@]12C[C@@H](C)[C@@]34O[C@](Cc5ccccc5)(O[C@@H]1[C@@H]3C=C(COC(=O)Cc1ccc(O)cc1)C[C@]1(O)C(=O)C(C)=C[C@@H]41)O2
REMARK SMILES IDX 23 1 22 2 21 3 20 4 9 5 8 6 10 7 6 8 18 10 44 11 19 12 5 13
REMARK SMILES IDX 7 14 4 15 11 16 12 17 13 18 17 19 14 20 16 21 15 22 2 23
REMARK SMILES IDX 3 24 1 25 35 26 36 27 43 28 38 29 42 30 39 32 40 33 41 34
REMARK SMILES IDX 37 35 24 37 25 38 26 39 27 40 28 41 29 42 34 43 30 44 33 45
REMARK SMILES IDX 31 46 32 47
REMARK H PARENT 37 36 32 48
REMARK Flexibility Score: 90.00
ROOT
ATOM      1  C   UNL     1      98.273  82.806  83.263  1.00  0.00     0.264 C 
ENDROOT
BRANCH   1   2
ATOM      2  C   UNL     1      97.440  82.688  84.518  1.00  0.00    -0.033 C 
ATOM      3  C   UNL     1      97.427  81.520  85.193  1.00  0.00    -0.015 C 
BRANCH   3   4
ATOM      4  C   UNL     1      96.624  81.125  86.423  1.00  0.00     0.078 C 
ATOM      5  O   UNL     1      98.038  81.612  88.392  1.00  0.00    -0.319 OA
ATOM      6  C   UNL     1      96.788  81.983  87.731  1.00  0.00     0.095 CG0
ATOM      7  C   UNL     1      98.315  80.199  88.436  1.00  0.00     0.289 C 
ATOM      8  C   UNL     1      95.569  81.641  88.684  1.00  0.00     0.023 C 
ATOM      9  G   UNL     1      96.964  83.490  87.385  1.00  0.00     0.000 G0
ATOM     10  O   UNL     1      98.346  79.637  87.127  1.00  0.00    -0.320 OA
ATOM     11  O   UNL     1      97.315  79.472  89.145  1.00  0.00    -0.313 OA
ATOM     12  C   UNL     1      96.945  79.660  86.811  1.00  0.00     0.170 C 
ATOM     13  C   UNL     1      95.121  80.156  88.529  1.00  0.00     0.049 C 
ATOM     14  C   UNL     1      95.787  81.955  90.174  1.00  0.00     0.011 C 
ATOM     15  C   UNL     1      96.292  79.247  88.153  1.00  0.00     0.122 C 
BRANCH   7  16
ATOM     16  C   UNL     1      99.658  80.000  89.112  1.00  0.00     0.135 C 
BRANCH  16  17
ATOM     17  C   UNL     1     100.773  79.817  88.113  1.00  0.00    -0.040 A 
ATOM     18  C   UNL     1     101.214  80.900  87.354  1.00  0.00     0.004 A 
ATOM     19  C   UNL     1     101.362  78.564  87.949  1.00  0.00     0.004 A 
ATOM     20  C   UNL     1     102.246  80.731  86.430  1.00  0.00     0.000 A 
ATOM     21  C   UNL     1     102.394  78.394  87.025  1.00  0.00     0.000 A 
ATOM     22  C   UNL     1     102.835  79.477  86.266  1.00  0.00     0.000 A 
ENDBRANCH  16  17
ENDBRANCH   7  16
BRANCH  15  23
ATOM     23  C   UNL     1      95.925  77.799  88.176  1.00  0.00    -0.046 C 
ATOM     24  C   UNL     1      95.508  77.243  89.506  1.00  0.00     0.042 C 
ATOM     25  C   UNL     1      95.965  77.039  87.072  1.00  0.00     0.010 C 
ENDBRANCH  15  23
ENDBRANCH   3   4
BRANCH   2  26
ATOM     26  C   UNL     1      96.703  83.967  84.866  1.00  0.00     0.078 C 
BRANCH  26  27
ATOM     27  C   UNL     1      96.031  84.035  86.236  1.00  0.00     0.140 C 
ATOM     28  C   UNL     1      96.943  83.503  87.361  1.00  0.00     0.086 CG0
ATOM     29  C   UNL     1      95.762  85.457  86.681  1.00  0.00     0.190 C 
ATOM     30  C   UNL     1      96.808  84.540  88.441  1.00  0.00    -0.010 C 
ATOM     31  G   UNL     1      96.779  81.998  87.722  1.00  0.00     0.000 G0
ATOM     32  O   UNL     1      95.230  86.323  86.002  1.00  0.00    -0.291 OA
ATOM     33  C   UNL     1      96.175  85.661  88.082  1.00  0.00    -0.008 C 
ATOM     34  C   UNL     1      95.935  86.904  88.844  1.00  0.00     0.048 C 
BRANCH  27  35
ATOM     35  O   UNL     1      94.744  83.440  86.213  1.00  0.00    -0.381 OA
ATOM     36  H   UNL     1      94.113  84.058  86.617  1.00  0.00     0.212 HD
ENDBRANCH  27  35
ENDBRANCH  26  27
ENDBRANCH   2  26
ENDBRANCH   1   2
BRANCH   1  37
ATOM     37  O   UNL     1      98.450  81.524  82.698  1.00  0.00    -0.461 OA
BRANCH  37  38
ATOM     38  C   UNL     1      99.393  81.424  81.701  1.00  0.00     0.310 C 
ATOM     39  O   UNL     1      99.854  80.375  81.273  1.00  0.00    -0.252 OA
BRANCH  38  40
ATOM     40  C   UNL     1      99.767  82.806  81.222  1.00  0.00     0.158 C 
BRANCH  40  41
ATOM     41  C   UNL     1      99.218  83.122  79.855  1.00  0.00    -0.037 A 
ATOM     42  C   UNL     1      97.902  83.562  79.717  1.00  0.00     0.008 A 
ATOM     43  C   UNL     1     100.025  82.975  78.727  1.00  0.00     0.008 A 
ATOM     44  C   UNL     1      97.392  83.855  78.451  1.00  0.00     0.046 A 
ATOM     45  C   UNL     1      99.517  83.268  77.461  1.00  0.00     0.046 A 
ATOM     46  C   UNL     1      98.201  83.707  77.323  1.00  0.00     0.115 A 
BRANCH  46  47
ATOM     47  O   UNL     1      97.704  83.992  76.089  1.00  0.00    -0.508 OA
ATOM     48  H   UNL     1      98.063  83.353  75.449  1.00  0.00     0.293 HD
ENDBRANCH  46  47
ENDBRANCH  40  41
ENDBRANCH  38  40
ENDBRANCH  37  38
ENDBRANCH   1  37
TORSDOF 10
ENDMDL
