MODEL 1
REMARK VINA RESULT:    -6.362      0.000      0.000
REMARK INTER + INTRA:         -10.846
REMARK INTER:                 -10.268
REMARK INTRA:                  -0.579
REMARK UNBOUND:                -0.579
REMARK SMILES CCCCCCCCC(=O)NCc1ccc(O)c(OC)c1
REMARK SMILES IDX 7 1 6 2 5 3 4 4 3 5 2 6 1 7 8 8 9 9 10 10 11 11 12 13 13 14
REMARK SMILES IDX 21 15 14 16 18 17 15 18 16 19 19 20 20 21 17 22
REMARK H PARENT 11 12 17 23
REMARK Flexibility Score: inf
ROOT
ATOM      1  C   UNL     1      94.027  82.791  84.318  1.00  0.00     0.010 C 
ENDROOT
BRANCH   1   2
ATOM      2  C   UNL     1      95.558  83.029  84.458  1.00  0.00     0.001 C 
BRANCH   2   3
ATOM      3  C   UNL     1      96.244  83.275  83.082  1.00  0.00     0.000 C 
BRANCH   3   4
ATOM      4  C   UNL     1      97.368  82.253  82.750  1.00  0.00    -0.000 C 
BRANCH   4   5
ATOM      5  C   UNL     1      97.038  81.381  81.506  1.00  0.00    -0.000 C 
BRANCH   5   6
ATOM      6  C   UNL     1      97.250  82.144  80.170  1.00  0.00    -0.003 C 
ATOM      7  C   UNL     1      98.702  82.637  79.985  1.00  0.00     0.004 C 
ENDBRANCH   5   6
ENDBRANCH   4   5
ENDBRANCH   3   4
ENDBRANCH   2   3
ENDBRANCH   1   2
BRANCH   1   8
ATOM      8  C   UNL     1      93.287  82.641  85.677  1.00  0.00     0.100 C 
BRANCH   8   9
ATOM      9  C   UNL     1      92.302  81.533  85.636  1.00  0.00     0.220 C 
ATOM     10  O   UNL     1      92.309  80.696  86.570  1.00  0.00    -0.275 OA
ATOM     11  N   UNL     1      91.395  81.448  84.619  1.00  0.00    -0.352 N 
ATOM     12  H   UNL     1      91.534  82.119  83.878  1.00  0.00     0.163 HD
BRANCH  11  13
ATOM     13  C   UNL     1      90.312  80.516  84.540  1.00  0.00     0.151 C 
BRANCH  13  14
ATOM     14  C   UNL     1      89.028  81.122  84.097  1.00  0.00    -0.025 A 
ATOM     15  C   UNL     1      88.668  82.421  84.528  1.00  0.00     0.056 A 
ATOM     16  C   UNL     1      88.147  80.415  83.247  1.00  0.00     0.009 A 
ATOM     17  C   UNL     1      87.458  83.017  84.101  1.00  0.00     0.160 A 
ATOM     18  C   UNL     1      86.943  81.003  82.818  1.00  0.00     0.050 A 
ATOM     19  C   UNL     1      86.592  82.297  83.247  1.00  0.00     0.157 A 
BRANCH  17  20
ATOM     20  O   UNL     1      87.091  84.259  84.553  1.00  0.00    -0.493 OA
ATOM     21  C   UNL     1      86.571  84.268  85.894  1.00  0.00     0.278 C 
ENDBRANCH  17  20
BRANCH  19  22
ATOM     22  O   UNL     1      85.415  82.844  82.850  1.00  0.00    -0.504 OA
ATOM     23  H   UNL     1      84.765  82.149  82.723  1.00  0.00     0.293 HD
ENDBRANCH  19  22
ENDBRANCH  13  14
ENDBRANCH  11  13
ENDBRANCH   8   9
ENDBRANCH   1   8
TORSDOF 11
ENDMDL
MODEL 2
REMARK VINA RESULT:    -5.744      3.189      7.751
REMARK INTER + INTRA:          -9.848
REMARK INTER:                  -9.133
REMARK INTRA:                  -0.715
REMARK UNBOUND:                -0.579
REMARK SMILES CCCCCCCCC(=O)NCc1ccc(O)c(OC)c1
REMARK SMILES IDX 7 1 6 2 5 3 4 4 3 5 2 6 1 7 8 8 9 9 10 10 11 11 12 13 13 14
REMARK SMILES IDX 21 15 14 16 18 17 15 18 16 19 19 20 20 21 17 22
REMARK H PARENT 11 12 17 23
REMARK Flexibility Score: inf
ROOT
ATOM      1  C   UNL     1      91.491  79.999  84.790  1.00  0.00     0.010 C 
ENDROOT
BRANCH   1   2
ATOM      2  C   UNL     1      90.182  79.669  84.017  1.00  0.00     0.001 C 
BRANCH   2   3
ATOM      3  C   UNL     1      89.028  80.654  84.367  1.00  0.00     0.000 C 
BRANCH   3   4
ATOM      4  C   UNL     1      87.747  80.450  83.508  1.00  0.00    -0.000 C 
BRANCH   4   5
ATOM      5  C   UNL     1      86.910  81.752  83.360  1.00  0.00    -0.000 C 
BRANCH   5   6
ATOM      6  C   UNL     1      87.586  82.975  84.037  1.00  0.00    -0.003 C 
ATOM      7  C   UNL     1      86.681  83.654  85.089  1.00  0.00     0.004 C 
ENDBRANCH   5   6
ENDBRANCH   4   5
ENDBRANCH   3   4
ENDBRANCH   2   3
ENDBRANCH   1   2
BRANCH   1   8
ATOM      8  C   UNL     1      92.639  78.979  84.548  1.00  0.00     0.100 C 
BRANCH   8   9
ATOM      9  C   UNL     1      93.960  79.651  84.512  1.00  0.00     0.220 C 
ATOM     10  O   UNL     1      94.980  78.974  84.784  1.00  0.00    -0.275 OA
ATOM     11  N   UNL     1      94.059  80.967  84.160  1.00  0.00    -0.352 N 
ATOM     12  H   UNL     1      93.173  81.437  84.046  1.00  0.00     0.163 HD
BRANCH  11  13
ATOM     13  C   UNL     1      95.278  81.686  83.952  1.00  0.00     0.151 C 
BRANCH  13  14
ATOM     14  C   UNL     1      95.166  83.147  84.209  1.00  0.00    -0.025 A 
ATOM     15  C   UNL     1      94.288  83.629  85.209  1.00  0.00     0.056 A 
ATOM     16  C   UNL     1      95.925  84.077  83.462  1.00  0.00     0.009 A 
ATOM     17  C   UNL     1      94.183  85.013  85.476  1.00  0.00     0.160 A 
ATOM     18  C   UNL     1      95.826  85.455  83.723  1.00  0.00     0.050 A 
ATOM     19  C   UNL     1      94.953  85.927  84.722  1.00  0.00     0.157 A 
BRANCH  17  20
ATOM     20  O   UNL     1      93.300  85.481  86.417  1.00  0.00    -0.493 OA
ATOM     21  C   UNL     1      93.480  84.914  87.726  1.00  0.00     0.278 C 
ENDBRANCH  17  20
BRANCH  19  22
ATOM     22  O   UNL     1      94.844  87.262  84.948  1.00  0.00    -0.504 OA
ATOM     23  H   UNL     1      94.820  87.727  84.109  1.00  0.00     0.293 HD
ENDBRANCH  19  22
ENDBRANCH  13  14
ENDBRANCH  11  13
ENDBRANCH   8   9
ENDBRANCH   1   8
TORSDOF 11
ENDMDL
MODEL 3
REMARK VINA RESULT:    -5.495      7.729     13.334
REMARK INTER + INTRA:          -9.447
REMARK INTER:                  -8.935
REMARK INTRA:                  -0.511
REMARK UNBOUND:                -0.579
REMARK SMILES CCCCCCCCC(=O)NCc1ccc(O)c(OC)c1
REMARK SMILES IDX 7 1 6 2 5 3 4 4 3 5 2 6 1 7 8 8 9 9 10 10 11 11 12 13 13 14
REMARK SMILES IDX 21 15 14 16 18 17 15 18 16 19 19 20 20 21 17 22
REMARK H PARENT 11 12 17 23
REMARK Flexibility Score: inf
ROOT
ATOM      1  C   UNL     1      97.310  83.157  78.604  1.00  0.00     0.010 C 
ENDROOT
BRANCH   1   2
ATOM      2  C   UNL     1      97.163  83.506  80.113  1.00  0.00     0.001 C 
BRANCH   2   3
ATOM      3  C   UNL     1      97.120  82.234  81.010  1.00  0.00     0.000 C 
BRANCH   3   4
ATOM      4  C   UNL     1      96.740  82.523  82.490  1.00  0.00    -0.000 C 
BRANCH   4   5
ATOM      5  C   UNL     1      95.916  83.832  82.653  1.00  0.00    -0.000 C 
BRANCH   5   6
ATOM      6  C   UNL     1      96.213  84.561  83.991  1.00  0.00    -0.003 C 
ATOM      7  C   UNL     1      95.293  85.778  84.229  1.00  0.00     0.004 C 
ENDBRANCH   5   6
ENDBRANCH   4   5
ENDBRANCH   3   4
ENDBRANCH   2   3
ENDBRANCH   1   2
BRANCH   1   8
ATOM      8  C   UNL     1      96.256  83.845  77.693  1.00  0.00     0.100 C 
BRANCH   8   9
ATOM      9  C   UNL     1      96.861  84.306  76.420  1.00  0.00     0.220 C 
ATOM     10  O   UNL     1      96.163  85.005  75.647  1.00  0.00    -0.275 OA
ATOM     11  N   UNL     1      98.157  83.999  76.116  1.00  0.00    -0.352 N 
ATOM     12  H   UNL     1      98.597  83.361  76.763  1.00  0.00     0.163 HD
BRANCH  11  13
ATOM     13  C   UNL     1      98.893  84.498  74.996  1.00  0.00     0.151 C 
BRANCH  13  14
ATOM     14  C   UNL     1     100.341  84.156  75.027  1.00  0.00    -0.025 A 
ATOM     15  C   UNL     1     101.300  85.071  74.532  1.00  0.00     0.056 A 
ATOM     16  C   UNL     1     100.783  82.917  75.544  1.00  0.00     0.009 A 
ATOM     17  C   UNL     1     102.680  84.767  74.571  1.00  0.00     0.160 A 
ATOM     18  C   UNL     1     102.155  82.609  75.587  1.00  0.00     0.050 A 
ATOM     19  C   UNL     1     103.104  83.525  75.095  1.00  0.00     0.157 A 
BRANCH  17  20
ATOM     20  O   UNL     1     103.605  85.638  74.052  1.00  0.00    -0.493 OA
ATOM     21  C   UNL     1     103.922  85.404  72.669  1.00  0.00     0.278 C 
ENDBRANCH  17  20
BRANCH  19  22
ATOM     22  O   UNL     1     104.424  83.207  75.116  1.00  0.00    -0.504 OA
ATOM     23  H   UNL     1     104.766  83.317  76.006  1.00  0.00     0.293 HD
ENDBRANCH  19  22
ENDBRANCH  13  14
ENDBRANCH  11  13
ENDBRANCH   8   9
ENDBRANCH   1   8
TORSDOF 11
ENDMDL
MODEL 4
REMARK VINA RESULT:    -5.440      6.368      8.748
REMARK INTER + INTRA:          -9.358
REMARK INTER:                  -8.714
REMARK INTRA:                  -0.644
REMARK UNBOUND:                -0.579
REMARK SMILES CCCCCCCCC(=O)NCc1ccc(O)c(OC)c1
REMARK SMILES IDX 7 1 6 2 5 3 4 4 3 5 2 6 1 7 8 8 9 9 10 10 11 11 12 13 13 14
REMARK SMILES IDX 21 15 14 16 18 17 15 18 16 19 19 20 20 21 17 22
REMARK H PARENT 11 12 17 23
REMARK Flexibility Score: inf
ROOT
ATOM      1  C   UNL     1      94.007  82.469  87.472  1.00  0.00     0.010 C 
ENDROOT
BRANCH   1   2
ATOM      2  C   UNL     1      93.341  81.601  86.366  1.00  0.00     0.001 C 
BRANCH   2   3
ATOM      3  C   UNL     1      92.729  82.467  85.226  1.00  0.00     0.000 C 
BRANCH   3   4
ATOM      4  C   UNL     1      91.952  81.642  84.161  1.00  0.00    -0.000 C 
BRANCH   4   5
ATOM      5  C   UNL     1      91.106  80.498  84.787  1.00  0.00    -0.000 C 
BRANCH   5   6
ATOM      6  C   UNL     1      91.028  79.246  83.873  1.00  0.00    -0.003 C 
ATOM      7  C   UNL     1      92.048  78.153  84.262  1.00  0.00     0.004 C 
ENDBRANCH   5   6
ENDBRANCH   4   5
ENDBRANCH   3   4
ENDBRANCH   2   3
ENDBRANCH   1   2
BRANCH   1   8
ATOM      8  C   UNL     1      94.109  83.977  87.111  1.00  0.00     0.100 C 
BRANCH   8   9
ATOM      9  C   UNL     1      93.667  84.833  88.238  1.00  0.00     0.220 C 
ATOM     10  O   UNL     1      93.723  84.364  89.400  1.00  0.00    -0.275 OA
ATOM     11  N   UNL     1      93.237  86.110  88.013  1.00  0.00    -0.352 N 
ATOM     12  H   UNL     1      93.149  86.355  87.038  1.00  0.00     0.163 HD
BRANCH  11  13
ATOM     13  C   UNL     1      92.920  87.075  89.021  1.00  0.00     0.151 C 
BRANCH  13  14
ATOM     14  C   UNL     1      93.419  88.444  88.721  1.00  0.00    -0.025 A 
ATOM     15  C   UNL     1      92.939  89.554  89.457  1.00  0.00     0.056 A 
ATOM     16  C   UNL     1      94.371  88.662  87.699  1.00  0.00     0.009 A 
ATOM     17  C   UNL     1      93.417  90.858  89.194  1.00  0.00     0.160 A 
ATOM     18  C   UNL     1      94.851  89.957  87.434  1.00  0.00     0.050 A 
ATOM     19  C   UNL     1      94.372  91.057  88.172  1.00  0.00     0.157 A 
BRANCH  17  20
ATOM     20  O   UNL     1      92.921  91.938  89.880  1.00  0.00    -0.493 OA
ATOM     21  C   UNL     1      91.814  91.628  90.745  1.00  0.00     0.278 C 
ENDBRANCH  17  20
BRANCH  19  22
ATOM     22  O   UNL     1      94.821  92.306  87.890  1.00  0.00    -0.504 OA
ATOM     23  H   UNL     1      95.727  92.397  88.195  1.00  0.00     0.293 HD
ENDBRANCH  19  22
ENDBRANCH  13  14
ENDBRANCH  11  13
ENDBRANCH   8   9
ENDBRANCH   1   8
TORSDOF 11
ENDMDL
MODEL 5
REMARK VINA RESULT:    -5.355      8.481     13.160
REMARK INTER + INTRA:          -9.221
REMARK INTER:                  -8.486
REMARK INTRA:                  -0.735
REMARK UNBOUND:                -0.579
REMARK SMILES CCCCCCCCC(=O)NCc1ccc(O)c(OC)c1
REMARK SMILES IDX 7 1 6 2 5 3 4 4 3 5 2 6 1 7 8 8 9 9 10 10 11 11 12 13 13 14
REMARK SMILES IDX 21 15 14 16 18 17 15 18 16 19 19 20 20 21 17 22
REMARK H PARENT 11 12 17 23
REMARK Flexibility Score: inf
ROOT
ATOM      1  C   UNL     1      97.376  82.971  77.933  1.00  0.00     0.010 C 
ENDROOT
BRANCH   1   2
ATOM      2  C   UNL     1      97.809  83.229  79.405  1.00  0.00     0.001 C 
BRANCH   2   3
ATOM      3  C   UNL     1      98.752  82.113  79.945  1.00  0.00     0.000 C 
BRANCH   3   4
ATOM      4  C   UNL     1      98.560  81.808  81.458  1.00  0.00    -0.000 C 
BRANCH   4   5
ATOM      5  C   UNL     1      97.247  81.028  81.751  1.00  0.00    -0.000 C 
BRANCH   5   6
ATOM      6  C   UNL     1      96.283  81.812  82.681  1.00  0.00    -0.003 C 
ATOM      7  C   UNL     1      96.974  82.985  83.410  1.00  0.00     0.004 C 
ENDBRANCH   5   6
ENDBRANCH   4   5
ENDBRANCH   3   4
ENDBRANCH   2   3
ENDBRANCH   1   2
BRANCH   1   8
ATOM      8  C   UNL     1      96.412  84.049  77.363  1.00  0.00     0.100 C 
BRANCH   8   9
ATOM      9  C   UNL     1      96.878  84.547  76.046  1.00  0.00     0.220 C 
ATOM     10  O   UNL     1      96.052  85.132  75.305  1.00  0.00    -0.275 OA
ATOM     11  N   UNL     1      98.181  84.394  75.668  1.00  0.00    -0.352 N 
ATOM     12  H   UNL     1      98.736  83.835  76.299  1.00  0.00     0.163 HD
BRANCH  11  13
ATOM     13  C   UNL     1      98.781  84.951  74.495  1.00  0.00     0.151 C 
BRANCH  13  14
ATOM     14  C   UNL     1      99.001  83.963  73.405  1.00  0.00    -0.025 A 
ATOM     15  C   UNL     1     100.175  84.022  72.616  1.00  0.00     0.056 A 
ATOM     16  C   UNL     1      98.048  82.954  73.136  1.00  0.00     0.009 A 
ATOM     17  C   UNL     1     100.406  83.079  71.588  1.00  0.00     0.160 A 
ATOM     18  C   UNL     1      98.272  82.012  72.116  1.00  0.00     0.050 A 
ATOM     19  C   UNL     1      99.443  82.075  71.336  1.00  0.00     0.157 A 
BRANCH  17  20
ATOM     20  O   UNL     1     101.523  83.163  70.797  1.00  0.00    -0.493 OA
ATOM     21  C   UNL     1     101.517  84.277  69.886  1.00  0.00     0.278 C 
ENDBRANCH  17  20
BRANCH  19  22
ATOM     22  O   UNL     1      99.638  81.178  70.336  1.00  0.00    -0.504 OA
ATOM     23  H   UNL     1      99.836  81.646  69.521  1.00  0.00     0.293 HD
ENDBRANCH  19  22
ENDBRANCH  13  14
ENDBRANCH  11  13
ENDBRANCH   8   9
ENDBRANCH   1   8
TORSDOF 11
ENDMDL
MODEL 6
REMARK VINA RESULT:    -5.328      3.085      4.586
REMARK INTER + INTRA:          -9.177
REMARK INTER:                  -8.501
REMARK INTRA:                  -0.675
REMARK UNBOUND:                -0.579
REMARK SMILES CCCCCCCCC(=O)NCc1ccc(O)c(OC)c1
REMARK SMILES IDX 7 1 6 2 5 3 4 4 3 5 2 6 1 7 8 8 9 9 10 10 11 11 12 13 13 14
REMARK SMILES IDX 21 15 14 16 18 17 15 18 16 19 19 20 20 21 17 22
REMARK H PARENT 11 12 17 23
REMARK Flexibility Score: inf
ROOT
ATOM      1  C   UNL     1      97.035  79.729  81.413  1.00  0.00     0.010 C 
ENDROOT
BRANCH   1   2
ATOM      2  C   UNL     1      96.901  81.230  81.798  1.00  0.00     0.001 C 
BRANCH   2   3
ATOM      3  C   UNL     1      98.260  81.985  81.708  1.00  0.00     0.000 C 
BRANCH   3   4
ATOM      4  C   UNL     1      98.629  82.443  80.269  1.00  0.00    -0.000 C 
BRANCH   4   5
ATOM      5  C   UNL     1      97.382  82.614  79.356  1.00  0.00    -0.000 C 
BRANCH   5   6
ATOM      6  C   UNL     1      97.664  83.517  78.125  1.00  0.00    -0.003 C 
ATOM      7  C   UNL     1      96.377  83.937  77.381  1.00  0.00     0.004 C 
ENDBRANCH   5   6
ENDBRANCH   4   5
ENDBRANCH   3   4
ENDBRANCH   2   3
ENDBRANCH   1   2
BRANCH   1   8
ATOM      8  C   UNL     1      97.338  78.794  82.618  1.00  0.00     0.100 C 
BRANCH   8   9
ATOM      9  C   UNL     1      96.088  78.273  83.223  1.00  0.00     0.220 C 
ATOM     10  O   UNL     1      95.612  77.203  82.775  1.00  0.00    -0.275 OA
ATOM     11  N   UNL     1      95.493  78.931  84.261  1.00  0.00    -0.352 N 
ATOM     12  H   UNL     1      95.910  79.823  84.484  1.00  0.00     0.163 HD
BRANCH  11  13
ATOM     13  C   UNL     1      94.374  78.459  85.017  1.00  0.00     0.151 C 
BRANCH  13  14
ATOM     14  C   UNL     1      93.089  79.121  84.666  1.00  0.00    -0.025 A 
ATOM     15  C   UNL     1      92.956  80.526  84.785  1.00  0.00     0.056 A 
ATOM     16  C   UNL     1      91.982  78.367  84.214  1.00  0.00     0.009 A 
ATOM     17  C   UNL     1      91.746  81.171  84.438  1.00  0.00     0.160 A 
ATOM     18  C   UNL     1      90.777  79.003  83.866  1.00  0.00     0.050 A 
ATOM     19  C   UNL     1      90.652  80.400  83.984  1.00  0.00     0.157 A 
BRANCH  17  20
ATOM     20  O   UNL     1      91.605  82.527  84.594  1.00  0.00    -0.493 OA
ATOM     21  C   UNL     1      92.673  83.149  85.331  1.00  0.00     0.278 C 
ENDBRANCH  17  20
BRANCH  19  22
ATOM     22  O   UNL     1      89.476  81.002  83.673  1.00  0.00    -0.504 OA
ATOM     23  H   UNL     1      88.759  80.371  83.767  1.00  0.00     0.293 HD
ENDBRANCH  19  22
ENDBRANCH  13  14
ENDBRANCH  11  13
ENDBRANCH   8   9
ENDBRANCH   1   8
TORSDOF 11
ENDMDL
MODEL 7
REMARK VINA RESULT:    -5.311      9.520     13.352
REMARK INTER + INTRA:          -9.150
REMARK INTER:                  -7.742
REMARK INTRA:                  -1.408
REMARK UNBOUND:                -0.579
REMARK SMILES CCCCCCCCC(=O)NCc1ccc(O)c(OC)c1
REMARK SMILES IDX 7 1 6 2 5 3 4 4 3 5 2 6 1 7 8 8 9 9 10 10 11 11 12 13 13 14
REMARK SMILES IDX 21 15 14 16 18 17 15 18 16 19 19 20 20 21 17 22
REMARK H PARENT 11 12 17 23
REMARK Flexibility Score: inf
ROOT
ATOM      1  C   UNL     1      97.250  82.935  77.734  1.00  0.00     0.010 C 
ENDROOT
BRANCH   1   2
ATOM      2  C   UNL     1      97.864  83.152  79.147  1.00  0.00     0.001 C 
BRANCH   2   3
ATOM      3  C   UNL     1      98.566  81.871  79.687  1.00  0.00     0.000 C 
BRANCH   3   4
ATOM      4  C   UNL     1      99.214  80.996  78.576  1.00  0.00    -0.000 C 
BRANCH   4   5
ATOM      5  C   UNL     1     100.625  81.501  78.161  1.00  0.00    -0.000 C 
BRANCH   5   6
ATOM      6  C   UNL     1     100.699  81.897  76.662  1.00  0.00    -0.003 C 
ATOM      7  C   UNL     1      99.741  81.071  75.775  1.00  0.00     0.004 C 
ENDBRANCH   5   6
ENDBRANCH   4   5
ENDBRANCH   3   4
ENDBRANCH   2   3
ENDBRANCH   1   2
BRANCH   1   8
ATOM      8  C   UNL     1      96.413  84.140  77.220  1.00  0.00     0.100 C 
BRANCH   8   9
ATOM      9  C   UNL     1      96.898  84.610  75.900  1.00  0.00     0.220 C 
ATOM     10  O   UNL     1      96.083  85.180  75.135  1.00  0.00    -0.275 OA
ATOM     11  N   UNL     1      98.206  84.450  75.544  1.00  0.00    -0.352 N 
ATOM     12  H   UNL     1      98.752  83.904  76.194  1.00  0.00     0.163 HD
BRANCH  11  13
ATOM     13  C   UNL     1      98.823  84.982  74.368  1.00  0.00     0.151 C 
BRANCH  13  14
ATOM     14  C   UNL     1      99.031  83.977  73.291  1.00  0.00    -0.025 A 
ATOM     15  C   UNL     1     100.170  84.055  72.454  1.00  0.00     0.056 A 
ATOM     16  C   UNL     1      98.100  82.935  73.081  1.00  0.00     0.009 A 
ATOM     17  C   UNL     1     100.390  83.097  71.438  1.00  0.00     0.160 A 
ATOM     18  C   UNL     1      98.313  81.978  72.072  1.00  0.00     0.050 A 
ATOM     19  C   UNL     1      99.450  82.060  71.245  1.00  0.00     0.157 A 
BRANCH  17  20
ATOM     20  O   UNL     1     101.472  83.198  70.601  1.00  0.00    -0.493 OA
ATOM     21  C   UNL     1     102.165  84.456  70.683  1.00  0.00     0.278 C 
ENDBRANCH  17  20
BRANCH  19  22
ATOM     22  O   UNL     1      99.632  81.147  70.256  1.00  0.00    -0.504 OA
ATOM     23  H   UNL     1     100.283  81.478  69.632  1.00  0.00     0.293 HD
ENDBRANCH  19  22
ENDBRANCH  13  14
ENDBRANCH  11  13
ENDBRANCH   8   9
ENDBRANCH   1   8
TORSDOF 11
ENDMDL
MODEL 8
REMARK VINA RESULT:    -5.257     16.068     17.997
REMARK INTER + INTRA:          -9.063
REMARK INTER:                  -8.492
REMARK INTRA:                  -0.571
REMARK UNBOUND:                -0.579
REMARK SMILES CCCCCCCCC(=O)NCc1ccc(O)c(OC)c1
REMARK SMILES IDX 7 1 6 2 5 3 4 4 3 5 2 6 1 7 8 8 9 9 10 10 11 11 12 13 13 14
REMARK SMILES IDX 21 15 14 16 18 17 15 18 16 19 19 20 20 21 17 22
REMARK H PARENT 11 12 17 23
REMARK Flexibility Score: inf
ROOT
ATOM      1  C   UNL     1      94.559  95.852  77.209  1.00  0.00     0.010 C 
ENDROOT
BRANCH   1   2
ATOM      2  C   UNL     1      93.431  94.913  77.724  1.00  0.00     0.001 C 
BRANCH   2   3
ATOM      3  C   UNL     1      92.012  95.452  77.376  1.00  0.00     0.000 C 
BRANCH   3   4
ATOM      4  C   UNL     1      90.889  94.383  77.493  1.00  0.00    -0.000 C 
BRANCH   4   5
ATOM      5  C   UNL     1      89.883  94.437  76.308  1.00  0.00    -0.000 C 
BRANCH   5   6
ATOM      6  C   UNL     1      90.553  94.124  74.943  1.00  0.00    -0.003 C 
ATOM      7  C   UNL     1      90.389  92.648  74.518  1.00  0.00     0.004 C 
ENDBRANCH   5   6
ENDBRANCH   4   5
ENDBRANCH   3   4
ENDBRANCH   2   3
ENDBRANCH   1   2
BRANCH   1   8
ATOM      8  C   UNL     1      94.646  97.207  77.967  1.00  0.00     0.100 C 
BRANCH   8   9
ATOM      9  C   UNL     1      95.592  97.129  79.105  1.00  0.00     0.220 C 
ATOM     10  O   UNL     1      96.515  96.281  79.055  1.00  0.00    -0.275 OA
ATOM     11  N   UNL     1      95.474  97.981  80.165  1.00  0.00    -0.352 N 
ATOM     12  H   UNL     1      94.648  98.562  80.144  1.00  0.00     0.163 HD
BRANCH  11  13
ATOM     13  C   UNL     1      96.400  98.100  81.249  1.00  0.00     0.151 C 
BRANCH  13  14
ATOM     14  C   UNL     1      96.100  99.224  82.177  1.00  0.00    -0.025 A 
ATOM     15  C   UNL     1      96.816  99.357  83.390  1.00  0.00     0.056 A 
ATOM     16  C   UNL     1      95.097 100.172  81.868  1.00  0.00     0.009 A 
ATOM     17  C   UNL     1      96.553 100.429  84.273  1.00  0.00     0.160 A 
ATOM     18  C   UNL     1      94.832 101.242  82.742  1.00  0.00     0.050 A 
ATOM     19  C   UNL     1      95.550 101.370  83.946  1.00  0.00     0.157 A 
BRANCH  17  20
ATOM     20  O   UNL     1      97.219 100.533  85.469  1.00  0.00    -0.493 OA
ATOM     21  C   UNL     1      98.551 101.065  85.357  1.00  0.00     0.278 C 
ENDBRANCH  17  20
BRANCH  19  22
ATOM     22  O   UNL     1      95.268 102.390  84.796  1.00  0.00    -0.504 OA
ATOM     23  H   UNL     1      95.948 103.064  84.724  1.00  0.00     0.293 HD
ENDBRANCH  19  22
ENDBRANCH  13  14
ENDBRANCH  11  13
ENDBRANCH   8   9
ENDBRANCH   1   8
TORSDOF 11
ENDMDL
MODEL 9
REMARK VINA RESULT:    -5.173     22.025     24.374
REMARK INTER + INTRA:          -8.926
REMARK INTER:                  -7.931
REMARK INTRA:                  -0.996
REMARK UNBOUND:                -0.579
REMARK SMILES CCCCCCCCC(=O)NCc1ccc(O)c(OC)c1
REMARK SMILES IDX 7 1 6 2 5 3 4 4 3 5 2 6 1 7 8 8 9 9 10 10 11 11 12 13 13 14
REMARK SMILES IDX 21 15 14 16 18 17 15 18 16 19 19 20 20 21 17 22
REMARK H PARENT 11 12 17 23
REMARK Flexibility Score: inf
ROOT
ATOM      1  C   UNL     1      75.786  89.724  67.987  1.00  0.00     0.010 C 
ENDROOT
BRANCH   1   2
ATOM      2  C   UNL     1      77.071  88.938  68.376  1.00  0.00     0.001 C 
BRANCH   2   3
ATOM      3  C   UNL     1      77.330  87.727  67.433  1.00  0.00     0.000 C 
BRANCH   3   4
ATOM      4  C   UNL     1      77.151  86.345  68.123  1.00  0.00    -0.000 C 
BRANCH   4   5
ATOM      5  C   UNL     1      75.961  86.324  69.124  1.00  0.00    -0.000 C 
BRANCH   5   6
ATOM      6  C   UNL     1      76.191  85.340  70.302  1.00  0.00    -0.003 C 
ATOM      7  C   UNL     1      76.043  83.860  69.886  1.00  0.00     0.004 C 
ENDBRANCH   5   6
ENDBRANCH   4   5
ENDBRANCH   3   4
ENDBRANCH   2   3
ENDBRANCH   1   2
BRANCH   1   8
ATOM      8  C   UNL     1      74.828  89.995  69.180  1.00  0.00     0.100 C 
BRANCH   8   9
ATOM      9  C   UNL     1      73.410  89.818  68.786  1.00  0.00     0.220 C 
ATOM     10  O   UNL     1      73.041  90.265  67.673  1.00  0.00    -0.275 OA
ATOM     11  N   UNL     1      72.539  89.159  69.606  1.00  0.00    -0.352 N 
ATOM     12  H   UNL     1      72.917  88.919  70.510  1.00  0.00     0.163 HD
BRANCH  11  13
ATOM     13  C   UNL     1      71.192  88.802  69.280  1.00  0.00     0.151 C 
BRANCH  13  14
ATOM     14  C   UNL     1      70.950  87.335  69.244  1.00  0.00    -0.025 A 
ATOM     15  C   UNL     1      69.771  86.794  69.810  1.00  0.00     0.056 A 
ATOM     16  C   UNL     1      71.888  86.458  68.653  1.00  0.00     0.009 A 
ATOM     17  C   UNL     1      69.519  85.403  69.769  1.00  0.00     0.160 A 
ATOM     18  C   UNL     1      71.643  85.074  68.608  1.00  0.00     0.050 A 
ATOM     19  C   UNL     1      70.467  84.543  69.170  1.00  0.00     0.157 A 
BRANCH  17  20
ATOM     20  O   UNL     1      68.396  84.876  70.355  1.00  0.00    -0.493 OA
ATOM     21  C   UNL     1      68.465  84.791  71.789  1.00  0.00     0.278 C 
ENDBRANCH  17  20
BRANCH  19  22
ATOM     22  O   UNL     1      70.252  83.202  69.146  1.00  0.00    -0.504 OA
ATOM     23  H   UNL     1      70.663  82.827  68.363  1.00  0.00     0.293 HD
ENDBRANCH  19  22
ENDBRANCH  13  14
ENDBRANCH  11  13
ENDBRANCH   8   9
ENDBRANCH   1   8
TORSDOF 11
ENDMDL
MODEL 10
REMARK VINA RESULT:    -5.001     20.629     22.465
REMARK INTER + INTRA:          -8.649
REMARK INTER:                  -8.011
REMARK INTRA:                  -0.637
REMARK UNBOUND:                -0.579
REMARK SMILES CCCCCCCCC(=O)NCc1ccc(O)c(OC)c1
REMARK SMILES IDX 7 1 6 2 5 3 4 4 3 5 2 6 1 7 8 8 9 9 10 10 11 11 12 13 13 14
REMARK SMILES IDX 21 15 14 16 18 17 15 18 16 19 19 20 20 21 17 22
REMARK H PARENT 11 12 17 23
REMARK Flexibility Score: inf
ROOT
ATOM      1  C   UNL     1      73.581  90.285  70.803  1.00  0.00     0.010 C 
ENDROOT
BRANCH   1   2
ATOM      2  C   UNL     1      74.212  89.084  70.041  1.00  0.00     0.001 C 
BRANCH   2   3
ATOM      3  C   UNL     1      75.447  89.508  69.192  1.00  0.00     0.000 C 
BRANCH   3   4
ATOM      4  C   UNL     1      76.285  88.311  68.662  1.00  0.00    -0.000 C 
BRANCH   4   5
ATOM      5  C   UNL     1      75.647  86.934  69.004  1.00  0.00    -0.000 C 
BRANCH   5   6
ATOM      6  C   UNL     1      76.680  85.925  69.575  1.00  0.00    -0.003 C 
ATOM      7  C   UNL     1      76.017  84.681  70.207  1.00  0.00     0.004 C 
ENDBRANCH   5   6
ENDBRANCH   4   5
ENDBRANCH   3   4
ENDBRANCH   2   3
ENDBRANCH   1   2
BRANCH   1   8
ATOM      8  C   UNL     1      74.549  91.484  71.000  1.00  0.00     0.100 C 
BRANCH   8   9
ATOM      9  C   UNL     1      74.016  92.451  71.990  1.00  0.00     0.220 C 
ATOM     10  O   UNL     1      73.977  93.665  71.675  1.00  0.00    -0.275 OA
ATOM     11  N   UNL     1      73.554  92.022  73.201  1.00  0.00    -0.352 N 
ATOM     12  H   UNL     1      73.713  91.042  73.384  1.00  0.00     0.163 HD
BRANCH  11  13
ATOM     13  C   UNL     1      72.891  92.831  74.177  1.00  0.00     0.151 C 
BRANCH  13  14
ATOM     14  C   UNL     1      73.604  92.905  75.481  1.00  0.00    -0.025 A 
ATOM     15  C   UNL     1      74.649  93.842  75.668  1.00  0.00     0.056 A 
ATOM     16  C   UNL     1      73.257  92.046  76.549  1.00  0.00     0.009 A 
ATOM     17  C   UNL     1      75.324  93.936  76.907  1.00  0.00     0.160 A 
ATOM     18  C   UNL     1      73.924  92.136  77.784  1.00  0.00     0.050 A 
ATOM     19  C   UNL     1      74.961  93.071  77.965  1.00  0.00     0.157 A 
BRANCH  17  20
ATOM     20  O   UNL     1      76.364  94.815  77.074  1.00  0.00    -0.493 OA
ATOM     21  C   UNL     1      77.488  94.567  76.211  1.00  0.00     0.278 C 
ENDBRANCH  17  20
BRANCH  19  22
ATOM     22  O   UNL     1      75.617  93.131  79.152  1.00  0.00    -0.504 OA
ATOM     23  H   UNL     1      76.468  93.559  79.026  1.00  0.00     0.293 HD
ENDBRANCH  19  22
ENDBRANCH  13  14
ENDBRANCH  11  13
ENDBRANCH   8   9
ENDBRANCH   1   8
TORSDOF 11
ENDMDL
