MODEL 1
REMARK VINA RESULT:    -6.284      0.000      0.000
REMARK INTER + INTRA:         -10.980
REMARK INTER:                 -10.142
REMARK INTRA:                  -0.838
REMARK UNBOUND:                -0.838
REMARK SMILES COc1cc(CNC(=O)CCCCCCC(C)C)ccc1O
REMARK SMILES IDX 11 1 10 2 8 3 7 4 9 6 6 7 5 8 3 9 21 10 4 11 20 12 19 13
REMARK SMILES IDX 2 14 1 15 22 16 12 18 13 19 14 20 15 21 16 22 17 23 18 24
REMARK H PARENT 7 5 22 17
REMARK Flexibility Score: inf
ROOT
ATOM      1  C   UNL     1      91.242  92.753  77.582  1.00  0.00     0.010 C 
ENDROOT
BRANCH   1   2
ATOM      2  C   UNL     1      91.616  93.973  76.695  1.00  0.00     0.100 C 
BRANCH   2   3
ATOM      3  C   UNL     1      93.070  94.250  76.664  1.00  0.00     0.220 C 
ATOM      4  N   UNL     1      93.853  93.943  77.738  1.00  0.00    -0.352 N 
ATOM      5  H   UNL     1      93.352  93.570  78.532  1.00  0.00     0.163 HD
ATOM      6  O   UNL     1      93.565  94.747  75.623  1.00  0.00    -0.275 OA
BRANCH   4   7
ATOM      7  C   UNL     1      95.273  94.112  77.801  1.00  0.00     0.151 C 
BRANCH   7   8
ATOM      8  C   UNL     1      95.755  94.534  79.144  1.00  0.00    -0.025 A 
ATOM      9  C   UNL     1      96.855  96.195  80.587  1.00  0.00     0.160 A 
ATOM     10  C   UNL     1      96.638  95.366  81.710  1.00  0.00     0.157 A 
ATOM     11  C   UNL     1      96.429  95.765  79.312  1.00  0.00     0.056 A 
ATOM     12  C   UNL     1      96.003  94.121  81.549  1.00  0.00     0.050 A 
ATOM     13  C   UNL     1      95.555  93.712  80.278  1.00  0.00     0.009 A 
BRANCH   9  14
ATOM     14  O   UNL     1      97.506  97.390  80.726  1.00  0.00    -0.493 OA
ATOM     15  C   UNL     1      97.082  98.395  79.787  1.00  0.00     0.278 C 
ENDBRANCH   9  14
BRANCH  10  16
ATOM     16  O   UNL     1      97.039  95.754  82.949  1.00  0.00    -0.504 OA
ATOM     17  H   UNL     1      97.956  95.504  83.081  1.00  0.00     0.293 HD
ENDBRANCH  10  16
ENDBRANCH   7   8
ENDBRANCH   4   7
ENDBRANCH   2   3
ENDBRANCH   1   2
BRANCH   1  18
ATOM     18  C   UNL     1      90.326  91.743  76.834  1.00  0.00     0.001 C 
BRANCH  18  19
ATOM     19  C   UNL     1      90.108  92.086  75.334  1.00  0.00     0.000 C 
BRANCH  19  20
ATOM     20  C   UNL     1      90.331  90.843  74.425  1.00  0.00     0.000 C 
BRANCH  20  21
ATOM     21  C   UNL     1      91.244  89.752  75.050  1.00  0.00     0.003 C 
BRANCH  21  22
ATOM     22  C   UNL     1      90.549  88.369  75.267  1.00  0.00    -0.017 C 
ATOM     23  C   UNL     1      90.434  88.049  76.784  1.00  0.00     0.007 C 
ATOM     24  C   UNL     1      91.243  87.195  74.514  1.00  0.00     0.007 C 
ENDBRANCH  21  22
ENDBRANCH  20  21
ENDBRANCH  19  20
ENDBRANCH  18  19
ENDBRANCH   1  18
TORSDOF 11
ENDMDL
MODEL 2
REMARK VINA RESULT:    -6.122     14.308     16.108
REMARK INTER + INTRA:         -10.719
REMARK INTER:                  -8.865
REMARK INTRA:                  -1.854
REMARK UNBOUND:                -0.838
REMARK SMILES COc1cc(CNC(=O)CCCCCCC(C)C)ccc1O
REMARK SMILES IDX 11 1 10 2 8 3 7 4 9 6 6 7 5 8 3 9 21 10 4 11 20 12 19 13
REMARK SMILES IDX 2 14 1 15 22 16 12 18 13 19 14 20 15 21 16 22 17 23 18 24
REMARK H PARENT 7 5 22 17
REMARK Flexibility Score: inf
ROOT
ATOM      1  C   UNL     1      80.279  85.851  85.381  1.00  0.00     0.010 C 
ENDROOT
BRANCH   1   2
ATOM      2  C   UNL     1      81.344  85.743  86.507  1.00  0.00     0.100 C 
BRANCH   2   3
ATOM      3  C   UNL     1      81.006  86.537  87.710  1.00  0.00     0.220 C 
ATOM      4  N   UNL     1      81.979  86.892  88.597  1.00  0.00    -0.352 N 
ATOM      5  H   UNL     1      82.897  86.534  88.381  1.00  0.00     0.163 HD
ATOM      6  O   UNL     1      79.814  86.896  87.879  1.00  0.00    -0.275 OA
BRANCH   4   7
ATOM      7  C   UNL     1      81.781  87.705  89.759  1.00  0.00     0.151 C 
BRANCH   7   8
ATOM      8  C   UNL     1      82.259  89.104  89.585  1.00  0.00    -0.025 A 
ATOM      9  C   UNL     1      83.767  90.935  90.234  1.00  0.00     0.160 A 
ATOM     10  C   UNL     1      83.206  91.755  89.230  1.00  0.00     0.157 A 
ATOM     11  C   UNL     1      83.277  89.625  90.416  1.00  0.00     0.056 A 
ATOM     12  C   UNL     1      82.165  91.261  88.423  1.00  0.00     0.050 A 
ATOM     13  C   UNL     1      81.701  89.942  88.591  1.00  0.00     0.009 A 
BRANCH   9  14
ATOM     14  O   UNL     1      84.753  91.419  91.050  1.00  0.00    -0.493 OA
ATOM     15  C   UNL     1      84.304  91.722  92.384  1.00  0.00     0.278 C 
ENDBRANCH   9  14
BRANCH  10  16
ATOM     16  O   UNL     1      83.657  93.022  89.034  1.00  0.00    -0.504 OA
ATOM     17  H   UNL     1      82.976  93.647  89.295  1.00  0.00     0.293 HD
ENDBRANCH  10  16
ENDBRANCH   7   8
ENDBRANCH   4   7
ENDBRANCH   2   3
ENDBRANCH   1   2
BRANCH   1  18
ATOM     18  C   UNL     1      80.829  86.580  84.122  1.00  0.00     0.001 C 
BRANCH  18  19
ATOM     19  C   UNL     1      80.297  88.032  83.958  1.00  0.00     0.000 C 
BRANCH  19  20
ATOM     20  C   UNL     1      80.837  88.969  85.075  1.00  0.00     0.000 C 
BRANCH  20  21
ATOM     21  C   UNL     1      81.807  90.072  84.569  1.00  0.00     0.003 C 
BRANCH  21  22
ATOM     22  C   UNL     1      83.324  89.737  84.751  1.00  0.00    -0.017 C 
ATOM     23  C   UNL     1      83.508  88.594  85.788  1.00  0.00     0.007 C 
ATOM     24  C   UNL     1      84.194  90.969  85.138  1.00  0.00     0.007 C 
ENDBRANCH  21  22
ENDBRANCH  20  21
ENDBRANCH  19  20
ENDBRANCH  18  19
ENDBRANCH   1  18
TORSDOF 11
ENDMDL
MODEL 3
REMARK VINA RESULT:    -5.974     22.767     26.615
REMARK INTER + INTRA:         -10.480
REMARK INTER:                  -9.808
REMARK INTRA:                  -0.671
REMARK UNBOUND:                -0.838
REMARK SMILES COc1cc(CNC(=O)CCCCCCC(C)C)ccc1O
REMARK SMILES IDX 11 1 10 2 8 3 7 4 9 6 6 7 5 8 3 9 21 10 4 11 20 12 19 13
REMARK SMILES IDX 2 14 1 15 22 16 12 18 13 19 14 20 15 21 16 22 17 23 18 24
REMARK H PARENT 7 5 22 17
REMARK Flexibility Score: inf
ROOT
ATOM      1  C   UNL     1      83.325  68.477  71.014  1.00  0.00     0.010 C 
ENDROOT
BRANCH   1   2
ATOM      2  C   UNL     1      83.862  69.755  71.716  1.00  0.00     0.100 C 
BRANCH   2   3
ATOM      3  C   UNL     1      85.336  69.881  71.653  1.00  0.00     0.220 C 
ATOM      4  N   UNL     1      85.970  69.954  70.448  1.00  0.00    -0.352 N 
ATOM      5  H   UNL     1      85.363  69.871  69.646  1.00  0.00     0.163 HD
ATOM      6  O   UNL     1      85.981  69.943  72.729  1.00  0.00    -0.275 OA
BRANCH   4   7
ATOM      7  C   UNL     1      87.379  70.135  70.265  1.00  0.00     0.151 C 
BRANCH   7   8
ATOM      8  C   UNL     1      87.710  71.183  69.260  1.00  0.00    -0.025 A 
ATOM      9  C   UNL     1      89.224  72.934  68.430  1.00  0.00     0.160 A 
ATOM     10  C   UNL     1      88.372  73.151  67.326  1.00  0.00     0.157 A 
ATOM     11  C   UNL     1      88.878  71.967  69.397  1.00  0.00     0.056 A 
ATOM     12  C   UNL     1      87.186  72.404  67.199  1.00  0.00     0.050 A 
ATOM     13  C   UNL     1      86.862  71.420  68.153  1.00  0.00     0.009 A 
BRANCH   9  14
ATOM     14  O   UNL     1      90.359  73.682  68.584  1.00  0.00    -0.493 OA
ATOM     15  C   UNL     1      91.328  73.092  69.470  1.00  0.00     0.278 C 
ENDBRANCH   9  14
BRANCH  10  16
ATOM     16  O   UNL     1      88.679  74.077  66.380  1.00  0.00    -0.504 OA
ATOM     17  H   UNL     1      89.279  74.728  66.753  1.00  0.00     0.293 HD
ENDBRANCH  10  16
ENDBRANCH   7   8
ENDBRANCH   4   7
ENDBRANCH   2   3
ENDBRANCH   1   2
BRANCH   1  18
ATOM     18  C   UNL     1      82.053  67.915  71.711  1.00  0.00     0.001 C 
BRANCH  18  19
ATOM     19  C   UNL     1      80.883  67.616  70.732  1.00  0.00     0.000 C 
BRANCH  19  20
ATOM     20  C   UNL     1      80.066  66.372  71.181  1.00  0.00     0.000 C 
BRANCH  20  21
ATOM     21  C   UNL     1      80.804  65.458  72.199  1.00  0.00     0.003 C 
BRANCH  21  22
ATOM     22  C   UNL     1      80.032  65.219  73.537  1.00  0.00    -0.017 C 
ATOM     23  C   UNL     1      80.599  66.131  74.662  1.00  0.00     0.007 C 
ATOM     24  C   UNL     1      80.021  63.731  73.996  1.00  0.00     0.007 C 
ENDBRANCH  21  22
ENDBRANCH  20  21
ENDBRANCH  19  20
ENDBRANCH  18  19
ENDBRANCH   1  18
TORSDOF 11
ENDMDL
MODEL 4
REMARK VINA RESULT:    -5.958      1.224      2.181
REMARK INTER + INTRA:         -10.453
REMARK INTER:                  -9.518
REMARK INTRA:                  -0.936
REMARK UNBOUND:                -0.838
REMARK SMILES COc1cc(CNC(=O)CCCCCCC(C)C)ccc1O
REMARK SMILES IDX 11 1 10 2 8 3 7 4 9 6 6 7 5 8 3 9 21 10 4 11 20 12 19 13
REMARK SMILES IDX 2 14 1 15 22 16 12 18 13 19 14 20 15 21 16 22 17 23 18 24
REMARK H PARENT 7 5 22 17
REMARK Flexibility Score: inf
ROOT
ATOM      1  C   UNL     1      91.409  92.907  77.540  1.00  0.00     0.010 C 
ENDROOT
BRANCH   1   2
ATOM      2  C   UNL     1      91.333  94.012  76.450  1.00  0.00     0.100 C 
BRANCH   2   3
ATOM      3  C   UNL     1      92.661  94.432  75.950  1.00  0.00     0.220 C 
ATOM      4  N   UNL     1      93.747  94.413  76.776  1.00  0.00    -0.352 N 
ATOM      5  H   UNL     1      93.547  94.140  77.727  1.00  0.00     0.163 HD
ATOM      6  O   UNL     1      92.769  94.781  74.749  1.00  0.00    -0.275 OA
BRANCH   4   7
ATOM      7  C   UNL     1      95.086  94.740  76.389  1.00  0.00     0.151 C 
BRANCH   7   8
ATOM      8  C   UNL     1      95.944  95.148  77.535  1.00  0.00    -0.025 A 
ATOM      9  C   UNL     1      96.578  94.938  79.902  1.00  0.00     0.160 A 
ATOM     10  C   UNL     1      97.606  95.888  79.713  1.00  0.00     0.157 A 
ATOM     11  C   UNL     1      95.745  94.590  78.818  1.00  0.00     0.056 A 
ATOM     12  C   UNL     1      97.789  96.479  78.450  1.00  0.00     0.050 A 
ATOM     13  C   UNL     1      96.972  96.105  77.366  1.00  0.00     0.009 A 
BRANCH   9  14
ATOM     14  O   UNL     1      96.366  94.386  81.136  1.00  0.00    -0.493 OA
ATOM     15  C   UNL     1      95.352  95.057  81.905  1.00  0.00     0.278 C 
ENDBRANCH   9  14
BRANCH  10  16
ATOM     16  O   UNL     1      98.423  96.243  80.740  1.00  0.00    -0.504 OA
ATOM     17  H   UNL     1      98.999  96.957  80.457  1.00  0.00     0.293 HD
ENDBRANCH  10  16
ENDBRANCH   7   8
ENDBRANCH   4   7
ENDBRANCH   2   3
ENDBRANCH   1   2
BRANCH   1  18
ATOM     18  C   UNL     1      90.255  91.873  77.409  1.00  0.00     0.001 C 
BRANCH  18  19
ATOM     19  C   UNL     1      89.481  91.965  76.063  1.00  0.00     0.000 C 
BRANCH  19  20
ATOM     20  C   UNL     1      89.987  90.910  75.039  1.00  0.00     0.000 C 
BRANCH  20  21
ATOM     21  C   UNL     1      91.040  89.920  75.611  1.00  0.00     0.003 C 
BRANCH  21  22
ATOM     22  C   UNL     1      90.570  88.430  75.665  1.00  0.00    -0.017 C 
ATOM     23  C   UNL     1      89.280  88.235  74.819  1.00  0.00     0.007 C 
ATOM     24  C   UNL     1      90.359  87.893  77.112  1.00  0.00     0.007 C 
ENDBRANCH  21  22
ENDBRANCH  20  21
ENDBRANCH  19  20
ENDBRANCH  18  19
ENDBRANCH   1  18
TORSDOF 11
ENDMDL
MODEL 5
REMARK VINA RESULT:    -5.950     14.447     16.603
REMARK INTER + INTRA:         -10.440
REMARK INTER:                  -8.912
REMARK INTRA:                  -1.528
REMARK UNBOUND:                -0.838
REMARK SMILES COc1cc(CNC(=O)CCCCCCC(C)C)ccc1O
REMARK SMILES IDX 11 1 10 2 8 3 7 4 9 6 6 7 5 8 3 9 21 10 4 11 20 12 19 13
REMARK SMILES IDX 2 14 1 15 22 16 12 18 13 19 14 20 15 21 16 22 17 23 18 24
REMARK H PARENT 7 5 22 17
REMARK Flexibility Score: inf
ROOT
ATOM      1  C   UNL     1      80.071  87.731  83.477  1.00  0.00     0.010 C 
ENDROOT
BRANCH   1   2
ATOM      2  C   UNL     1      80.082  86.327  84.144  1.00  0.00     0.100 C 
BRANCH   2   3
ATOM      3  C   UNL     1      80.904  86.271  85.374  1.00  0.00     0.220 C 
ATOM      4  N   UNL     1      80.330  86.471  86.596  1.00  0.00    -0.352 N 
ATOM      5  H   UNL     1      79.347  86.696  86.567  1.00  0.00     0.163 HD
ATOM      6  O   UNL     1      82.127  86.011  85.268  1.00  0.00    -0.275 OA
BRANCH   4   7
ATOM      7  C   UNL     1      81.011  86.383  87.852  1.00  0.00     0.151 C 
BRANCH   7   8
ATOM      8  C   UNL     1      81.127  87.694  88.549  1.00  0.00    -0.025 A 
ATOM      9  C   UNL     1      81.983  89.042  90.419  1.00  0.00     0.160 A 
ATOM     10  C   UNL     1      81.390  90.196  89.861  1.00  0.00     0.157 A 
ATOM     11  C   UNL     1      81.831  87.799  89.770  1.00  0.00     0.056 A 
ATOM     12  C   UNL     1      80.654  90.097  88.667  1.00  0.00     0.050 A 
ATOM     13  C   UNL     1      80.531  88.857  88.009  1.00  0.00     0.009 A 
BRANCH   9  14
ATOM     14  O   UNL     1      82.668  89.120  91.601  1.00  0.00    -0.493 OA
ATOM     15  C   UNL     1      83.633  88.068  91.783  1.00  0.00     0.278 C 
ENDBRANCH   9  14
BRANCH  10  16
ATOM     16  O   UNL     1      81.518  91.406  90.466  1.00  0.00    -0.504 OA
ATOM     17  H   UNL     1      82.287  91.860  90.111  1.00  0.00     0.293 HD
ENDBRANCH  10  16
ENDBRANCH   7   8
ENDBRANCH   4   7
ENDBRANCH   2   3
ENDBRANCH   1   2
BRANCH   1  18
ATOM     18  C   UNL     1      80.034  88.878  84.526  1.00  0.00     0.001 C 
BRANCH  18  19
ATOM     19  C   UNL     1      81.148  89.944  84.328  1.00  0.00     0.000 C 
BRANCH  19  20
ATOM     20  C   UNL     1      82.489  89.497  84.975  1.00  0.00     0.000 C 
BRANCH  20  21
ATOM     21  C   UNL     1      83.671  90.475  84.732  1.00  0.00     0.003 C 
BRANCH  21  22
ATOM     22  C   UNL     1      84.223  91.162  86.024  1.00  0.00    -0.017 C 
ATOM     23  C   UNL     1      85.664  91.693  85.785  1.00  0.00     0.007 C 
ATOM     24  C   UNL     1      84.181  90.249  87.285  1.00  0.00     0.007 C 
ENDBRANCH  21  22
ENDBRANCH  20  21
ENDBRANCH  19  20
ENDBRANCH  18  19
ENDBRANCH   1  18
TORSDOF 11
ENDMDL
MODEL 6
REMARK VINA RESULT:    -5.707      1.820      2.143
REMARK INTER + INTRA:         -10.048
REMARK INTER:                  -9.440
REMARK INTRA:                  -0.608
REMARK UNBOUND:                -0.838
REMARK SMILES COc1cc(CNC(=O)CCCCCCC(C)C)ccc1O
REMARK SMILES IDX 11 1 10 2 8 3 7 4 9 6 6 7 5 8 3 9 21 10 4 11 20 12 19 13
REMARK SMILES IDX 2 14 1 15 22 16 12 18 13 19 14 20 15 21 16 22 17 23 18 24
REMARK H PARENT 7 5 22 17
REMARK Flexibility Score: inf
ROOT
ATOM      1  C   UNL     1      91.886  93.078  77.252  1.00  0.00     0.010 C 
ENDROOT
BRANCH   1   2
ATOM      2  C   UNL     1      92.594  94.349  76.709  1.00  0.00     0.100 C 
BRANCH   2   3
ATOM      3  C   UNL     1      94.070  94.278  76.795  1.00  0.00     0.220 C 
ATOM      4  N   UNL     1      94.727  94.837  77.852  1.00  0.00    -0.352 N 
ATOM      5  H   UNL     1      94.132  95.318  78.510  1.00  0.00     0.163 HD
ATOM      6  O   UNL     1      94.697  93.674  75.890  1.00  0.00    -0.275 OA
BRANCH   4   7
ATOM      7  C   UNL     1      96.141  94.781  78.070  1.00  0.00     0.151 C 
BRANCH   7   8
ATOM      8  C   UNL     1      96.528  95.047  79.483  1.00  0.00    -0.025 A 
ATOM      9  C   UNL     1      98.024  96.117  81.115  1.00  0.00     0.160 A 
ATOM     10  C   UNL     1      97.246  95.595  82.172  1.00  0.00     0.157 A 
ATOM     11  C   UNL     1      97.670  95.824  79.781  1.00  0.00     0.056 A 
ATOM     12  C   UNL     1      96.130  94.789  81.889  1.00  0.00     0.050 A 
ATOM     13  C   UNL     1      95.765  94.524  80.554  1.00  0.00     0.009 A 
BRANCH   9  14
ATOM     14  O   UNL     1      99.135  96.870  81.381  1.00  0.00    -0.493 OA
ATOM     15  C   UNL     1      99.013  98.246  80.977  1.00  0.00     0.278 C 
ENDBRANCH   9  14
BRANCH  10  16
ATOM     16  O   UNL     1      97.565  95.860  83.467  1.00  0.00    -0.504 OA
ATOM     17  H   UNL     1      97.061  96.619  83.771  1.00  0.00     0.293 HD
ENDBRANCH  10  16
ENDBRANCH   7   8
ENDBRANCH   4   7
ENDBRANCH   2   3
ENDBRANCH   1   2
BRANCH   1  18
ATOM     18  C   UNL     1      90.439  92.930  76.700  1.00  0.00     0.001 C 
BRANCH  18  19
ATOM     19  C   UNL     1      90.294  93.339  75.207  1.00  0.00     0.000 C 
BRANCH  19  20
ATOM     20  C   UNL     1      90.508  92.126  74.259  1.00  0.00     0.000 C 
BRANCH  20  21
ATOM     21  C   UNL     1      89.893  92.307  72.843  1.00  0.00     0.003 C 
BRANCH  21  22
ATOM     22  C   UNL     1      89.144  91.049  72.294  1.00  0.00    -0.017 C 
ATOM     23  C   UNL     1      88.949  89.997  73.421  1.00  0.00     0.007 C 
ATOM     24  C   UNL     1      89.835  90.401  71.057  1.00  0.00     0.007 C 
ENDBRANCH  21  22
ENDBRANCH  20  21
ENDBRANCH  19  20
ENDBRANCH  18  19
ENDBRANCH   1  18
TORSDOF 11
ENDMDL
MODEL 7
REMARK VINA RESULT:    -5.687     27.929     30.807
REMARK INTER + INTRA:         -10.016
REMARK INTER:                  -9.202
REMARK INTRA:                  -0.813
REMARK UNBOUND:                -0.838
REMARK SMILES COc1cc(CNC(=O)CCCCCCC(C)C)ccc1O
REMARK SMILES IDX 11 1 10 2 8 3 7 4 9 6 6 7 5 8 3 9 21 10 4 11 20 12 19 13
REMARK SMILES IDX 2 14 1 15 22 16 12 18 13 19 14 20 15 21 16 22 17 23 18 24
REMARK H PARENT 7 5 22 17
REMARK Flexibility Score: inf
ROOT
ATOM      1  C   UNL     1      85.024  64.121  78.238  1.00  0.00     0.010 C 
ENDROOT
BRANCH   1   2
ATOM      2  C   UNL     1      83.943  63.839  77.158  1.00  0.00     0.100 C 
BRANCH   2   3
ATOM      3  C   UNL     1      83.361  65.069  76.578  1.00  0.00     0.220 C 
ATOM      4  N   UNL     1      82.012  65.179  76.406  1.00  0.00    -0.352 N 
ATOM      5  H   UNL     1      81.486  64.356  76.662  1.00  0.00     0.163 HD
ATOM      6  O   UNL     1      84.130  66.013  76.272  1.00  0.00    -0.275 OA
BRANCH   4   7
ATOM      7  C   UNL     1      81.333  66.338  75.911  1.00  0.00     0.151 C 
BRANCH   7   8
ATOM      8  C   UNL     1      80.964  66.232  74.473  1.00  0.00    -0.025 A 
ATOM      9  C   UNL     1      81.010  67.144  72.189  1.00  0.00     0.160 A 
ATOM     10  C   UNL     1      80.302  66.015  71.722  1.00  0.00     0.157 A 
ATOM     11  C   UNL     1      81.318  67.253  73.562  1.00  0.00     0.056 A 
ATOM     12  C   UNL     1      79.910  65.011  72.625  1.00  0.00     0.050 A 
ATOM     13  C   UNL     1      80.247  65.112  73.989  1.00  0.00     0.009 A 
BRANCH   9  14
ATOM     14  O   UNL     1      81.362  68.145  71.325  1.00  0.00    -0.493 OA
ATOM     15  C   UNL     1      82.768  68.179  71.019  1.00  0.00     0.278 C 
ENDBRANCH   9  14
BRANCH  10  16
ATOM     16  O   UNL     1      79.990  65.885  70.405  1.00  0.00    -0.504 OA
ATOM     17  H   UNL     1      80.602  65.272  69.991  1.00  0.00     0.293 HD
ENDBRANCH  10  16
ENDBRANCH   7   8
ENDBRANCH   4   7
ENDBRANCH   2   3
ENDBRANCH   1   2
BRANCH   1  18
ATOM     18  C   UNL     1      85.176  62.940  79.239  1.00  0.00     0.001 C 
BRANCH  18  19
ATOM     19  C   UNL     1      84.762  63.296  80.695  1.00  0.00     0.000 C 
BRANCH  19  20
ATOM     20  C   UNL     1      85.986  63.738  81.546  1.00  0.00     0.000 C 
BRANCH  20  21
ATOM     21  C   UNL     1      85.881  65.182  82.110  1.00  0.00     0.003 C 
BRANCH  21  22
ATOM     22  C   UNL     1      87.002  66.155  81.618  1.00  0.00    -0.017 C 
ATOM     23  C   UNL     1      87.133  67.366  82.585  1.00  0.00     0.007 C 
ATOM     24  C   UNL     1      86.806  66.646  80.154  1.00  0.00     0.007 C 
ENDBRANCH  21  22
ENDBRANCH  20  21
ENDBRANCH  19  20
ENDBRANCH  18  19
ENDBRANCH   1  18
TORSDOF 11
ENDMDL
MODEL 8
REMARK VINA RESULT:    -5.673     24.752     27.999
REMARK INTER + INTRA:          -9.994
REMARK INTER:                  -8.468
REMARK INTRA:                  -1.526
REMARK UNBOUND:                -0.838
REMARK SMILES COc1cc(CNC(=O)CCCCCCC(C)C)ccc1O
REMARK SMILES IDX 11 1 10 2 8 3 7 4 9 6 6 7 5 8 3 9 21 10 4 11 20 12 19 13
REMARK SMILES IDX 2 14 1 15 22 16 12 18 13 19 14 20 15 21 16 22 17 23 18 24
REMARK H PARENT 7 5 22 17
REMARK Flexibility Score: inf
ROOT
ATOM      1  C   UNL     1      81.576  67.393  72.181  1.00  0.00     0.010 C 
ENDROOT
BRANCH   1   2
ATOM      2  C   UNL     1      82.242  68.181  71.019  1.00  0.00     0.100 C 
BRANCH   2   3
ATOM      3  C   UNL     1      83.457  68.917  71.433  1.00  0.00     0.220 C 
ATOM      4  N   UNL     1      84.491  68.259  72.033  1.00  0.00    -0.352 N 
ATOM      5  H   UNL     1      84.327  67.277  72.196  1.00  0.00     0.163 HD
ATOM      6  O   UNL     1      83.523  70.149  71.199  1.00  0.00    -0.275 OA
BRANCH   4   7
ATOM      7  C   UNL     1      85.733  68.854  72.422  1.00  0.00     0.151 C 
BRANCH   7   8
ATOM      8  C   UNL     1      85.825  69.119  73.884  1.00  0.00    -0.025 A 
ATOM      9  C   UNL     1      85.198  68.553  76.194  1.00  0.00     0.160 A 
ATOM     10  C   UNL     1      86.027  69.589  76.675  1.00  0.00     0.157 A 
ATOM     11  C   UNL     1      85.088  68.338  74.804  1.00  0.00     0.056 A 
ATOM     12  C   UNL     1      86.735  70.398  75.768  1.00  0.00     0.050 A 
ATOM     13  C   UNL     1      86.644  70.159  74.383  1.00  0.00     0.009 A 
BRANCH   9  14
ATOM     14  O   UNL     1      84.474  67.785  77.066  1.00  0.00    -0.493 OA
ATOM     15  C   UNL     1      85.218  66.689  77.627  1.00  0.00     0.278 C 
ENDBRANCH   9  14
BRANCH  10  16
ATOM     16  O   UNL     1      86.151  69.820  78.009  1.00  0.00    -0.504 OA
ATOM     17  H   UNL     1      85.677  70.622  78.239  1.00  0.00     0.293 HD
ENDBRANCH  10  16
ENDBRANCH   7   8
ENDBRANCH   4   7
ENDBRANCH   2   3
ENDBRANCH   1   2
BRANCH   1  18
ATOM     18  C   UNL     1      81.418  65.881  71.850  1.00  0.00     0.001 C 
BRANCH  18  19
ATOM     19  C   UNL     1      80.032  65.295  72.241  1.00  0.00     0.000 C 
BRANCH  19  20
ATOM     20  C   UNL     1      79.998  64.852  73.731  1.00  0.00     0.000 C 
BRANCH  20  21
ATOM     21  C   UNL     1      81.229  64.016  74.175  1.00  0.00     0.003 C 
BRANCH  21  22
ATOM     22  C   UNL     1      82.122  64.699  75.262  1.00  0.00    -0.017 C 
ATOM     23  C   UNL     1      81.481  66.036  75.731  1.00  0.00     0.007 C 
ATOM     24  C   UNL     1      83.593  64.931  74.807  1.00  0.00     0.007 C 
ENDBRANCH  21  22
ENDBRANCH  20  21
ENDBRANCH  19  20
ENDBRANCH  18  19
ENDBRANCH   1  18
TORSDOF 11
ENDMDL
MODEL 9
REMARK VINA RESULT:    -5.642     26.927     29.845
REMARK INTER + INTRA:          -9.944
REMARK INTER:                  -8.937
REMARK INTRA:                  -1.007
REMARK UNBOUND:                -0.838
REMARK SMILES COc1cc(CNC(=O)CCCCCCC(C)C)ccc1O
REMARK SMILES IDX 11 1 10 2 8 3 7 4 9 6 6 7 5 8 3 9 21 10 4 11 20 12 19 13
REMARK SMILES IDX 2 14 1 15 22 16 12 18 13 19 14 20 15 21 16 22 17 23 18 24
REMARK H PARENT 7 5 22 17
REMARK Flexibility Score: inf
ROOT
ATOM      1  C   UNL     1      82.150  64.944  74.820  1.00  0.00     0.010 C 
ENDROOT
BRANCH   1   2
ATOM      2  C   UNL     1      82.267  64.881  76.368  1.00  0.00     0.100 C 
BRANCH   2   3
ATOM      3  C   UNL     1      83.585  64.397  76.837  1.00  0.00     0.220 C 
ATOM      4  N   UNL     1      84.533  65.281  77.261  1.00  0.00    -0.352 N 
ATOM      5  H   UNL     1      84.269  66.252  77.181  1.00  0.00     0.163 HD
ATOM      6  O   UNL     1      83.799  63.160  76.857  1.00  0.00    -0.275 OA
BRANCH   4   7
ATOM      7  C   UNL     1      85.816  64.928  77.787  1.00  0.00     0.151 C 
BRANCH   7   8
ATOM      8  C   UNL     1      85.865  64.945  79.275  1.00  0.00    -0.025 A 
ATOM      9  C   UNL     1      86.516  66.053  81.372  1.00  0.00     0.160 A 
ATOM     10  C   UNL     1      85.924  65.006  82.111  1.00  0.00     0.157 A 
ATOM     11  C   UNL     1      86.499  66.005  79.962  1.00  0.00     0.056 A 
ATOM     12  C   UNL     1      85.325  63.926  81.439  1.00  0.00     0.050 A 
ATOM     13  C   UNL     1      85.285  63.899  80.031  1.00  0.00     0.009 A 
BRANCH   9  14
ATOM     14  O   UNL     1      87.136  67.089  82.016  1.00  0.00    -0.493 OA
ATOM     15  C   UNL     1      87.812  68.001  81.130  1.00  0.00     0.278 C 
ENDBRANCH   9  14
BRANCH  10  16
ATOM     16  O   UNL     1      85.927  65.026  83.470  1.00  0.00    -0.504 OA
ATOM     17  H   UNL     1      86.831  64.965  83.789  1.00  0.00     0.293 HD
ENDBRANCH  10  16
ENDBRANCH   7   8
ENDBRANCH   4   7
ENDBRANCH   2   3
ENDBRANCH   1   2
BRANCH   1  18
ATOM     18  C   UNL     1      81.177  63.868  74.261  1.00  0.00     0.001 C 
BRANCH  18  19
ATOM     19  C   UNL     1      80.018  64.455  73.407  1.00  0.00     0.000 C 
BRANCH  19  20
ATOM     20  C   UNL     1      80.200  65.981  73.167  1.00  0.00     0.000 C 
BRANCH  20  21
ATOM     21  C   UNL     1      80.210  66.393  71.669  1.00  0.00     0.003 C 
BRANCH  21  22
ATOM     22  C   UNL     1      81.542  67.054  71.185  1.00  0.00    -0.017 C 
ATOM     23  C   UNL     1      82.514  65.974  70.630  1.00  0.00     0.007 C 
ATOM     24  C   UNL     1      82.247  67.912  72.277  1.00  0.00     0.007 C 
ENDBRANCH  21  22
ENDBRANCH  20  21
ENDBRANCH  19  20
ENDBRANCH  18  19
ENDBRANCH   1  18
TORSDOF 11
ENDMDL
MODEL 10
REMARK VINA RESULT:    -5.534      2.502      4.104
REMARK INTER + INTRA:          -9.769
REMARK INTER:                  -9.046
REMARK INTRA:                  -0.723
REMARK UNBOUND:                -0.838
REMARK SMILES COc1cc(CNC(=O)CCCCCCC(C)C)ccc1O
REMARK SMILES IDX 11 1 10 2 8 3 7 4 9 6 6 7 5 8 3 9 21 10 4 11 20 12 19 13
REMARK SMILES IDX 2 14 1 15 22 16 12 18 13 19 14 20 15 21 16 22 17 23 18 24
REMARK H PARENT 7 5 22 17
REMARK Flexibility Score: inf
ROOT
ATOM      1  C   UNL     1      93.661  93.931  77.864  1.00  0.00     0.010 C 
ENDROOT
BRANCH   1   2
ATOM      2  C   UNL     1      95.069  94.564  78.036  1.00  0.00     0.100 C 
BRANCH   2   3
ATOM      3  C   UNL     1      95.582  94.481  79.422  1.00  0.00     0.220 C 
ATOM      4  N   UNL     1      96.659  95.227  79.805  1.00  0.00    -0.352 N 
ATOM      5  H   UNL     1      97.073  95.778  79.067  1.00  0.00     0.163 HD
ATOM      6  O   UNL     1      94.992  93.731  80.238  1.00  0.00    -0.275 OA
BRANCH   4   7
ATOM      7  C   UNL     1      97.205  95.272  81.127  1.00  0.00     0.151 C 
BRANCH   7   8
ATOM      8  C   UNL     1      96.963  96.569  81.818  1.00  0.00    -0.025 A 
ATOM      9  C   UNL     1      97.131  97.973  83.830  1.00  0.00     0.160 A 
ATOM     10  C   UNL     1      96.546  99.051  83.129  1.00  0.00     0.157 A 
ATOM     11  C   UNL     1      97.317  96.737  83.176  1.00  0.00     0.056 A 
ATOM     12  C   UNL     1      96.154  98.883  81.788  1.00  0.00     0.050 A 
ATOM     13  C   UNL     1      96.370  97.655  81.133  1.00  0.00     0.009 A 
BRANCH   9  14
ATOM     14  O   UNL     1      97.480  98.113  85.145  1.00  0.00    -0.493 OA
ATOM     15  C   UNL     1      96.527  97.545  86.062  1.00  0.00     0.278 C 
ENDBRANCH   9  14
BRANCH  10  16
ATOM     16  O   UNL     1      96.353 100.252  83.734  1.00  0.00    -0.504 OA
ATOM     17  H   UNL     1      97.098 100.828  83.545  1.00  0.00     0.293 HD
ENDBRANCH  10  16
ENDBRANCH   7   8
ENDBRANCH   4   7
ENDBRANCH   2   3
ENDBRANCH   1   2
BRANCH   1  18
ATOM     18  C   UNL     1      92.952  94.420  76.569  1.00  0.00     0.001 C 
BRANCH  18  19
ATOM     19  C   UNL     1      93.449  93.712  75.277  1.00  0.00     0.000 C 
BRANCH  19  20
ATOM     20  C   UNL     1      92.418  92.667  74.765  1.00  0.00     0.000 C 
BRANCH  20  21
ATOM     21  C   UNL     1      91.610  91.965  75.891  1.00  0.00     0.003 C 
BRANCH  21  22
ATOM     22  C   UNL     1      90.071  92.243  75.857  1.00  0.00    -0.017 C 
ATOM     23  C   UNL     1      89.603  92.875  77.198  1.00  0.00     0.007 C 
ATOM     24  C   UNL     1      89.216  90.986  75.520  1.00  0.00     0.007 C 
ENDBRANCH  21  22
ENDBRANCH  20  21
ENDBRANCH  19  20
ENDBRANCH  18  19
ENDBRANCH   1  18
TORSDOF 11
ENDMDL
