MODEL 1
REMARK VINA RESULT:    -6.377      0.000      0.000
REMARK INTER + INTRA:         -11.133
REMARK INTER:                 -10.291
REMARK INTRA:                  -0.842
REMARK UNBOUND:                -0.842
REMARK SMILES COc1cc(CNC(=O)CCCCCCC(C)C)ccc1O
REMARK SMILES IDX 11 1 10 2 8 3 7 4 9 6 6 7 5 8 3 9 21 10 4 11 20 12 19 13
REMARK SMILES IDX 2 14 1 15 22 16 12 18 13 19 14 20 15 21 16 22 17 23 18 24
REMARK H PARENT 7 5 22 17
REMARK Flexibility Score: inf
ROOT
ATOM      1  C   UNL     1      91.994  94.928  75.771  1.00  0.00     0.010 C 
ENDROOT
BRANCH   1   2
ATOM      2  C   UNL     1      92.389  95.250  77.239  1.00  0.00     0.100 C 
BRANCH   2   3
ATOM      3  C   UNL     1      93.440  96.286  77.348  1.00  0.00     0.220 C 
ATOM      4  N   UNL     1      94.627  96.003  77.959  1.00  0.00    -0.352 N 
ATOM      5  H   UNL     1      94.688  95.074  78.349  1.00  0.00     0.163 HD
ATOM      6  O   UNL     1      93.225  97.416  76.846  1.00  0.00    -0.275 OA
BRANCH   4   7
ATOM      7  C   UNL     1      95.734  96.903  78.072  1.00  0.00     0.151 C 
BRANCH   7   8
ATOM      8  C   UNL     1      95.944  97.404  79.459  1.00  0.00    -0.025 A 
ATOM      9  C   UNL     1      96.913  97.121  81.701  1.00  0.00     0.160 A 
ATOM     10  C   UNL     1      96.385  98.372  82.089  1.00  0.00     0.157 A 
ATOM     11  C   UNL     1      96.673  96.639  80.397  1.00  0.00     0.056 A 
ATOM     12  C   UNL     1      95.624  99.125  81.177  1.00  0.00     0.050 A 
ATOM     13  C   UNL     1      95.413  98.651  79.867  1.00  0.00     0.009 A 
BRANCH   9  14
ATOM     14  O   UNL     1      97.621  96.363  82.593  1.00  0.00    -0.493 OA
ATOM     15  C   UNL     1      98.724  95.651  82.003  1.00  0.00     0.278 C 
ENDBRANCH   9  14
BRANCH  10  16
ATOM     16  O   UNL     1      96.599  98.861  83.339  1.00  0.00    -0.504 OA
ATOM     17  H   UNL     1      95.790  99.257  83.670  1.00  0.00     0.293 HD
ENDBRANCH  10  16
ENDBRANCH   7   8
ENDBRANCH   4   7
ENDBRANCH   2   3
ENDBRANCH   1   2
BRANCH   1  18
ATOM     18  C   UNL     1      90.503  94.503  75.644  1.00  0.00     0.001 C 
BRANCH  18  19
ATOM     19  C   UNL     1      89.868  94.039  76.986  1.00  0.00     0.000 C 
BRANCH  19  20
ATOM     20  C   UNL     1      89.877  92.490  77.118  1.00  0.00     0.000 C 
BRANCH  20  21
ATOM     21  C   UNL     1      89.272  91.743  75.897  1.00  0.00     0.003 C 
BRANCH  21  22
ATOM     22  C   UNL     1      90.266  90.784  75.163  1.00  0.00    -0.017 C 
ATOM     23  C   UNL     1      90.503  91.261  73.702  1.00  0.00     0.007 C 
ATOM     24  C   UNL     1      89.826  89.291  75.184  1.00  0.00     0.007 C 
ENDBRANCH  21  22
ENDBRANCH  20  21
ENDBRANCH  19  20
ENDBRANCH  18  19
ENDBRANCH   1  18
TORSDOF 11
ENDMDL
MODEL 2
REMARK VINA RESULT:    -6.234     12.659     15.010
REMARK INTER + INTRA:         -10.903
REMARK INTER:                 -10.155
REMARK INTRA:                  -0.747
REMARK UNBOUND:                -0.842
REMARK SMILES COc1cc(CNC(=O)CCCCCCC(C)C)ccc1O
REMARK SMILES IDX 11 1 10 2 8 3 7 4 9 6 6 7 5 8 3 9 21 10 4 11 20 12 19 13
REMARK SMILES IDX 2 14 1 15 22 16 12 18 13 19 14 20 15 21 16 22 17 23 18 24
REMARK H PARENT 7 5 22 17
REMARK Flexibility Score: inf
ROOT
ATOM      1  C   UNL     1      96.135  81.681  84.360  1.00  0.00     0.010 C 
ENDROOT
BRANCH   1   2
ATOM      2  C   UNL     1      96.102  82.629  83.130  1.00  0.00     0.100 C 
BRANCH   2   3
ATOM      3  C   UNL     1      96.786  82.071  81.942  1.00  0.00     0.220 C 
ATOM      4  N   UNL     1      97.558  82.870  81.151  1.00  0.00    -0.352 N 
ATOM      5  H   UNL     1      97.575  83.842  81.424  1.00  0.00     0.163 HD
ATOM      6  O   UNL     1      96.658  80.846  81.695  1.00  0.00    -0.275 OA
BRANCH   4   7
ATOM      7  C   UNL     1      98.310  82.431  80.015  1.00  0.00     0.151 C 
BRANCH   7   8
ATOM      8  C   UNL     1      97.817  82.998  78.730  1.00  0.00    -0.025 A 
ATOM      9  C   UNL     1      98.105  83.369  76.316  1.00  0.00     0.160 A 
ATOM     10  C   UNL     1      96.863  84.039  76.268  1.00  0.00     0.157 A 
ATOM     11  C   UNL     1      98.580  82.871  77.547  1.00  0.00     0.056 A 
ATOM     12  C   UNL     1      96.112  84.206  77.446  1.00  0.00     0.050 A 
ATOM     13  C   UNL     1      96.579  83.681  78.667  1.00  0.00     0.009 A 
BRANCH   9  14
ATOM     14  O   UNL     1      98.862  83.236  75.184  1.00  0.00    -0.493 OA
ATOM     15  C   UNL     1      99.824  84.291  75.001  1.00  0.00     0.278 C 
ENDBRANCH   9  14
BRANCH  10  16
ATOM     16  O   UNL     1      96.381  84.530  75.096  1.00  0.00    -0.504 OA
ATOM     17  H   UNL     1      96.727  84.011  74.366  1.00  0.00     0.293 HD
ENDBRANCH  10  16
ENDBRANCH   7   8
ENDBRANCH   4   7
ENDBRANCH   2   3
ENDBRANCH   1   2
BRANCH   1  18
ATOM     18  C   UNL     1      94.884  81.853  85.267  1.00  0.00     0.001 C 
BRANCH  18  19
ATOM     19  C   UNL     1      93.759  82.715  84.627  1.00  0.00     0.000 C 
BRANCH  19  20
ATOM     20  C   UNL     1      92.519  81.853  84.257  1.00  0.00     0.000 C 
BRANCH  20  21
ATOM     21  C   UNL     1      92.641  80.356  84.656  1.00  0.00     0.003 C 
BRANCH  21  22
ATOM     22  C   UNL     1      91.308  79.545  84.551  1.00  0.00    -0.017 C 
ATOM     23  C   UNL     1      91.570  78.149  83.920  1.00  0.00     0.007 C 
ATOM     24  C   UNL     1      90.181  80.290  83.778  1.00  0.00     0.007 C 
ENDBRANCH  21  22
ENDBRANCH  20  21
ENDBRANCH  19  20
ENDBRANCH  18  19
ENDBRANCH   1  18
TORSDOF 11
ENDMDL
MODEL 3
REMARK VINA RESULT:    -6.110      4.230      9.005
REMARK INTER + INTRA:         -10.702
REMARK INTER:                 -10.456
REMARK INTRA:                  -0.246
REMARK UNBOUND:                -0.842
REMARK SMILES COc1cc(CNC(=O)CCCCCCC(C)C)ccc1O
REMARK SMILES IDX 11 1 10 2 8 3 7 4 9 6 6 7 5 8 3 9 21 10 4 11 20 12 19 13
REMARK SMILES IDX 2 14 1 15 22 16 12 18 13 19 14 20 15 21 16 22 17 23 18 24
REMARK H PARENT 7 5 22 17
REMARK Flexibility Score: inf
ROOT
ATOM      1  C   UNL     1      94.681  96.776  76.261  1.00  0.00     0.010 C 
ENDROOT
BRANCH   1   2
ATOM      2  C   UNL     1      93.310  97.080  76.926  1.00  0.00     0.100 C 
BRANCH   2   3
ATOM      3  C   UNL     1      92.626  95.870  77.435  1.00  0.00     0.220 C 
ATOM      4  N   UNL     1      91.364  95.565  77.017  1.00  0.00    -0.352 N 
ATOM      5  H   UNL     1      90.952  96.243  76.392  1.00  0.00     0.163 HD
ATOM      6  O   UNL     1      93.241  95.123  78.235  1.00  0.00    -0.275 OA
BRANCH   4   7
ATOM      7  C   UNL     1      90.628  94.397  77.394  1.00  0.00     0.151 C 
BRANCH   7   8
ATOM      8  C   UNL     1      90.457  93.425  76.279  1.00  0.00    -0.025 A 
ATOM      9  C   UNL     1      89.742  91.215  75.471  1.00  0.00     0.160 A 
ATOM     10  C   UNL     1      90.088  91.583  74.152  1.00  0.00     0.157 A 
ATOM     11  C   UNL     1      89.947  92.130  76.525  1.00  0.00     0.056 A 
ATOM     12  C   UNL     1      90.633  92.855  73.901  1.00  0.00     0.050 A 
ATOM     13  C   UNL     1      90.808  93.774  74.954  1.00  0.00     0.009 A 
BRANCH   9  14
ATOM     14  O   UNL     1      89.247  89.967  75.732  1.00  0.00    -0.493 OA
ATOM     15  C   UNL     1      90.063  88.900  75.215  1.00  0.00     0.278 C 
ENDBRANCH   9  14
BRANCH  10  16
ATOM     16  O   UNL     1      89.903  90.722  73.118  1.00  0.00    -0.504 OA
ATOM     17  H   UNL     1      90.753  90.506  72.726  1.00  0.00     0.293 HD
ENDBRANCH  10  16
ENDBRANCH   7   8
ENDBRANCH   4   7
ENDBRANCH   2   3
ENDBRANCH   1   2
BRANCH   1  18
ATOM     18  C   UNL     1      94.939  97.668  75.014  1.00  0.00     0.001 C 
BRANCH  18  19
ATOM     19  C   UNL     1      93.896  97.474  73.877  1.00  0.00     0.000 C 
BRANCH  19  20
ATOM     20  C   UNL     1      94.478  97.871  72.492  1.00  0.00     0.000 C 
BRANCH  20  21
ATOM     21  C   UNL     1      95.718  97.040  72.059  1.00  0.00     0.003 C 
BRANCH  21  22
ATOM     22  C   UNL     1      96.970  97.892  71.672  1.00  0.00    -0.017 C 
ATOM     23  C   UNL     1      97.682  97.280  70.433  1.00  0.00     0.007 C 
ATOM     24  C   UNL     1      97.981  98.086  72.840  1.00  0.00     0.007 C 
ENDBRANCH  21  22
ENDBRANCH  20  21
ENDBRANCH  19  20
ENDBRANCH  18  19
ENDBRANCH   1  18
TORSDOF 11
ENDMDL
MODEL 4
REMARK VINA RESULT:    -6.059      4.604      7.371
REMARK INTER + INTRA:         -10.619
REMARK INTER:                  -9.828
REMARK INTRA:                  -0.792
REMARK UNBOUND:                -0.842
REMARK SMILES COc1cc(CNC(=O)CCCCCCC(C)C)ccc1O
REMARK SMILES IDX 11 1 10 2 8 3 7 4 9 6 6 7 5 8 3 9 21 10 4 11 20 12 19 13
REMARK SMILES IDX 2 14 1 15 22 16 12 18 13 19 14 20 15 21 16 22 17 23 18 24
REMARK H PARENT 7 5 22 17
REMARK Flexibility Score: inf
ROOT
ATOM      1  C   UNL     1      93.059  95.094  77.980  1.00  0.00     0.010 C 
ENDROOT
BRANCH   1   2
ATOM      2  C   UNL     1      94.257  95.289  77.011  1.00  0.00     0.100 C 
BRANCH   2   3
ATOM      3  C   UNL     1      94.358  96.665  76.474  1.00  0.00     0.220 C 
ATOM      4  N   UNL     1      94.322  96.884  75.128  1.00  0.00    -0.352 N 
ATOM      5  H   UNL     1      94.268  96.047  74.566  1.00  0.00     0.163 HD
ATOM      6  O   UNL     1      94.452  97.620  77.283  1.00  0.00    -0.275 OA
BRANCH   4   7
ATOM      7  C   UNL     1      94.353  98.170  74.500  1.00  0.00     0.151 C 
BRANCH   7   8
ATOM      8  C   UNL     1      94.736  98.111  73.062  1.00  0.00    -0.025 A 
ATOM      9  C   UNL     1      94.545  98.983  70.770  1.00  0.00     0.160 A 
ATOM     10  C   UNL     1      95.494  98.035  70.329  1.00  0.00     0.157 A 
ATOM     11  C   UNL     1      94.160  99.002  72.127  1.00  0.00     0.056 A 
ATOM     12  C   UNL     1      96.044  97.118  71.242  1.00  0.00     0.050 A 
ATOM     13  C   UNL     1      95.677  97.161  72.601  1.00  0.00     0.009 A 
BRANCH   9  14
ATOM     14  O   UNL     1      93.974  99.854  69.883  1.00  0.00    -0.493 OA
ATOM     15  C   UNL     1      94.455 101.204  70.004  1.00  0.00     0.278 C 
ENDBRANCH   9  14
BRANCH  10  16
ATOM     16  O   UNL     1      95.882  97.992  69.027  1.00  0.00    -0.504 OA
ATOM     17  H   UNL     1      96.126  98.875  68.738  1.00  0.00     0.293 HD
ENDBRANCH  10  16
ENDBRANCH   7   8
ENDBRANCH   4   7
ENDBRANCH   2   3
ENDBRANCH   1   2
BRANCH   1  18
ATOM     18  C   UNL     1      91.709  94.943  77.223  1.00  0.00     0.001 C 
BRANCH  18  19
ATOM     19  C   UNL     1      90.709  93.972  77.912  1.00  0.00     0.000 C 
BRANCH  19  20
ATOM     20  C   UNL     1      89.615  93.481  76.922  1.00  0.00     0.000 C 
BRANCH  20  21
ATOM     21  C   UNL     1      89.970  92.161  76.184  1.00  0.00     0.003 C 
BRANCH  21  22
ATOM     22  C   UNL     1      90.582  92.358  74.758  1.00  0.00    -0.017 C 
ATOM     23  C   UNL     1      90.002  93.636  74.089  1.00  0.00     0.007 C 
ATOM     24  C   UNL     1      90.403  91.124  73.825  1.00  0.00     0.007 C 
ENDBRANCH  21  22
ENDBRANCH  20  21
ENDBRANCH  19  20
ENDBRANCH  18  19
ENDBRANCH   1  18
TORSDOF 11
ENDMDL
MODEL 5
REMARK VINA RESULT:    -5.801     13.170     16.142
REMARK INTER + INTRA:         -10.204
REMARK INTER:                  -9.580
REMARK INTRA:                  -0.623
REMARK UNBOUND:                -0.842
REMARK SMILES COc1cc(CNC(=O)CCCCCCC(C)C)ccc1O
REMARK SMILES IDX 11 1 10 2 8 3 7 4 9 6 6 7 5 8 3 9 21 10 4 11 20 12 19 13
REMARK SMILES IDX 2 14 1 15 22 16 12 18 13 19 14 20 15 21 16 22 17 23 18 24
REMARK H PARENT 7 5 22 17
REMARK Flexibility Score: inf
ROOT
ATOM      1  C   UNL     1      96.856  82.105  81.701  1.00  0.00     0.010 C 
ENDROOT
BRANCH   1   2
ATOM      2  C   UNL     1      96.478  83.278  82.646  1.00  0.00     0.100 C 
BRANCH   2   3
ATOM      3  C   UNL     1      95.708  82.847  83.835  1.00  0.00     0.220 C 
ATOM      4  N   UNL     1      95.071  81.641  83.843  1.00  0.00    -0.352 N 
ATOM      5  H   UNL     1      95.140  81.122  82.979  1.00  0.00     0.163 HD
ATOM      6  O   UNL     1      95.676  83.602  84.837  1.00  0.00    -0.275 OA
BRANCH   4   7
ATOM      7  C   UNL     1      94.348  81.095  84.951  1.00  0.00     0.151 C 
BRANCH   7   8
ATOM      8  C   UNL     1      92.913  80.840  84.648  1.00  0.00    -0.025 A 
ATOM      9  C   UNL     1      91.028  79.276  84.432  1.00  0.00     0.160 A 
ATOM     10  C   UNL     1      90.169  80.351  84.114  1.00  0.00     0.157 A 
ATOM     11  C   UNL     1      92.394  79.526  84.678  1.00  0.00     0.056 A 
ATOM     12  C   UNL     1      90.682  81.659  84.043  1.00  0.00     0.050 A 
ATOM     13  C   UNL     1      92.042  81.905  84.319  1.00  0.00     0.009 A 
BRANCH   9  14
ATOM     14  O   UNL     1      90.547  77.995  84.465  1.00  0.00    -0.493 OA
ATOM     15  C   UNL     1      91.342  77.059  83.715  1.00  0.00     0.278 C 
ENDBRANCH   9  14
BRANCH  10  16
ATOM     16  O   UNL     1      88.849  80.140  83.871  1.00  0.00    -0.504 OA
ATOM     17  H   UNL     1      88.664  79.198  83.907  1.00  0.00     0.293 HD
ENDBRANCH  10  16
ENDBRANCH   7   8
ENDBRANCH   4   7
ENDBRANCH   2   3
ENDBRANCH   1   2
BRANCH   1  18
ATOM     18  C   UNL     1      98.167  82.385  80.913  1.00  0.00     0.001 C 
BRANCH  18  19
ATOM     19  C   UNL     1      97.998  83.416  79.761  1.00  0.00     0.000 C 
BRANCH  19  20
ATOM     20  C   UNL     1      96.655  83.213  79.005  1.00  0.00     0.000 C 
BRANCH  20  21
ATOM     21  C   UNL     1      96.660  83.742  77.544  1.00  0.00     0.003 C 
BRANCH  21  22
ATOM     22  C   UNL     1      97.469  82.861  76.536  1.00  0.00    -0.017 C 
ATOM     23  C   UNL     1      97.691  81.436  77.116  1.00  0.00     0.007 C 
ATOM     24  C   UNL     1      98.826  83.491  76.104  1.00  0.00     0.007 C 
ENDBRANCH  21  22
ENDBRANCH  20  21
ENDBRANCH  19  20
ENDBRANCH  18  19
ENDBRANCH   1  18
TORSDOF 11
ENDMDL
MODEL 6
REMARK VINA RESULT:    -5.783      4.266      9.079
REMARK INTER + INTRA:         -10.174
REMARK INTER:                  -9.603
REMARK INTRA:                  -0.571
REMARK UNBOUND:                -0.842
REMARK SMILES COc1cc(CNC(=O)CCCCCCC(C)C)ccc1O
REMARK SMILES IDX 11 1 10 2 8 3 7 4 9 6 6 7 5 8 3 9 21 10 4 11 20 12 19 13
REMARK SMILES IDX 2 14 1 15 22 16 12 18 13 19 14 20 15 21 16 22 17 23 18 24
REMARK H PARENT 7 5 22 17
REMARK Flexibility Score: inf
ROOT
ATOM      1  C   UNL     1      94.625  96.451  75.800  1.00  0.00     0.010 C 
ENDROOT
BRANCH   1   2
ATOM      2  C   UNL     1      93.600  96.960  76.850  1.00  0.00     0.100 C 
BRANCH   2   3
ATOM      3  C   UNL     1      92.679  95.905  77.329  1.00  0.00     0.220 C 
ATOM      4  N   UNL     1      91.444  95.760  76.766  1.00  0.00    -0.352 N 
ATOM      5  H   UNL     1      91.222  96.445  76.058  1.00  0.00     0.163 HD
ATOM      6  O   UNL     1      93.068  95.135  78.241  1.00  0.00    -0.275 OA
BRANCH   4   7
ATOM      7  C   UNL     1      90.495  94.744  77.105  1.00  0.00     0.151 C 
BRANCH   7   8
ATOM      8  C   UNL     1      90.382  93.678  76.071  1.00  0.00    -0.025 A 
ATOM      9  C   UNL     1      89.715  91.401  75.424  1.00  0.00     0.160 A 
ATOM     10  C   UNL     1      90.122  91.657  74.096  1.00  0.00     0.157 A 
ATOM     11  C   UNL     1      89.865  92.405  76.403  1.00  0.00     0.056 A 
ATOM     12  C   UNL     1      90.674  92.907  73.762  1.00  0.00     0.050 A 
ATOM     13  C   UNL     1      90.794  93.915  74.738  1.00  0.00     0.009 A 
BRANCH   9  14
ATOM     14  O   UNL     1      89.214  90.176  75.768  1.00  0.00    -0.493 OA
ATOM     15  C   UNL     1      90.206  89.134  75.811  1.00  0.00     0.278 C 
ENDBRANCH   9  14
BRANCH  10  16
ATOM     16  O   UNL     1      89.991  90.708  73.132  1.00  0.00    -0.504 OA
ATOM     17  H   UNL     1      89.060  90.504  73.010  1.00  0.00     0.293 HD
ENDBRANCH  10  16
ENDBRANCH   7   8
ENDBRANCH   4   7
ENDBRANCH   2   3
ENDBRANCH   1   2
BRANCH   1  18
ATOM     18  C   UNL     1      95.029  97.561  74.788  1.00  0.00     0.001 C 
BRANCH  18  19
ATOM     19  C   UNL     1      94.357  98.935  75.064  1.00  0.00     0.000 C 
BRANCH  19  20
ATOM     20  C   UNL     1      94.535  99.910  73.867  1.00  0.00     0.000 C 
BRANCH  20  21
ATOM     21  C   UNL     1      93.389 100.947  73.713  1.00  0.00     0.003 C 
BRANCH  21  22
ATOM     22  C   UNL     1      92.728 100.982  72.296  1.00  0.00    -0.017 C 
ATOM     23  C   UNL     1      91.318 101.631  72.369  1.00  0.00     0.007 C 
ATOM     24  C   UNL     1      92.652  99.587  71.608  1.00  0.00     0.007 C 
ENDBRANCH  21  22
ENDBRANCH  20  21
ENDBRANCH  19  20
ENDBRANCH  18  19
ENDBRANCH   1  18
TORSDOF 11
ENDMDL
MODEL 7
REMARK VINA RESULT:    -5.779      2.311      3.855
REMARK INTER + INTRA:         -10.168
REMARK INTER:                  -9.329
REMARK INTRA:                  -0.839
REMARK UNBOUND:                -0.842
REMARK SMILES COc1cc(CNC(=O)CCCCCCC(C)C)ccc1O
REMARK SMILES IDX 11 1 10 2 8 3 7 4 9 6 6 7 5 8 3 9 21 10 4 11 20 12 19 13
REMARK SMILES IDX 2 14 1 15 22 16 12 18 13 19 14 20 15 21 16 22 17 23 18 24
REMARK H PARENT 7 5 22 17
REMARK Flexibility Score: inf
ROOT
ATOM      1  C   UNL     1      94.740  94.588  77.587  1.00  0.00     0.010 C 
ENDROOT
BRANCH   1   2
ATOM      2  C   UNL     1      94.842  95.675  78.692  1.00  0.00     0.100 C 
BRANCH   2   3
ATOM      3  C   UNL     1      95.271  95.138  80.003  1.00  0.00     0.220 C 
ATOM      4  N   UNL     1      96.273  95.746  80.703  1.00  0.00    -0.352 N 
ATOM      5  H   UNL     1      96.697  96.532  80.233  1.00  0.00     0.163 HD
ATOM      6  O   UNL     1      94.679  94.131  80.464  1.00  0.00    -0.275 OA
BRANCH   4   7
ATOM      7  C   UNL     1      96.731  95.352  82.001  1.00  0.00     0.151 C 
BRANCH   7   8
ATOM      8  C   UNL     1      97.703  96.310  82.595  1.00  0.00    -0.025 A 
ATOM      9  C   UNL     1      98.526  98.610  82.876  1.00  0.00     0.160 A 
ATOM     10  C   UNL     1      99.527  98.147  83.758  1.00  0.00     0.157 A 
ATOM     11  C   UNL     1      97.635  97.688  82.288  1.00  0.00     0.056 A 
ATOM     12  C   UNL     1      99.629  96.773  84.041  1.00  0.00     0.050 A 
ATOM     13  C   UNL     1      98.718  95.861  83.473  1.00  0.00     0.009 A 
BRANCH   9  14
ATOM     14  O   UNL     1      98.442  99.940  82.564  1.00  0.00    -0.493 OA
ATOM     15  C   UNL     1      97.101 100.389  82.296  1.00  0.00     0.278 C 
ENDBRANCH   9  14
BRANCH  10  16
ATOM     16  O   UNL     1     100.399  99.013  84.338  1.00  0.00    -0.504 OA
ATOM     17  H   UNL     1     101.286  98.648  84.297  1.00  0.00     0.293 HD
ENDBRANCH  10  16
ENDBRANCH   7   8
ENDBRANCH   4   7
ENDBRANCH   2   3
ENDBRANCH   1   2
BRANCH   1  18
ATOM     18  C   UNL     1      93.603  94.890  76.570  1.00  0.00     0.001 C 
BRANCH  18  19
ATOM     19  C   UNL     1      92.738  96.126  76.946  1.00  0.00     0.000 C 
BRANCH  19  20
ATOM     20  C   UNL     1      91.219  95.802  76.885  1.00  0.00     0.000 C 
BRANCH  20  21
ATOM     21  C   UNL     1      90.855  94.365  77.351  1.00  0.00     0.003 C 
BRANCH  21  22
ATOM     22  C   UNL     1      89.963  93.562  76.349  1.00  0.00    -0.017 C 
ATOM     23  C   UNL     1      89.742  92.111  76.860  1.00  0.00     0.007 C 
ATOM     24  C   UNL     1      90.516  93.548  74.893  1.00  0.00     0.007 C 
ENDBRANCH  21  22
ENDBRANCH  20  21
ENDBRANCH  19  20
ENDBRANCH  18  19
ENDBRANCH   1  18
TORSDOF 11
ENDMDL
MODEL 8
REMARK VINA RESULT:    -5.677     13.735     17.404
REMARK INTER + INTRA:         -10.003
REMARK INTER:                  -9.290
REMARK INTRA:                  -0.713
REMARK UNBOUND:                -0.842
REMARK SMILES COc1cc(CNC(=O)CCCCCCC(C)C)ccc1O
REMARK SMILES IDX 11 1 10 2 8 3 7 4 9 6 6 7 5 8 3 9 21 10 4 11 20 12 19 13
REMARK SMILES IDX 2 14 1 15 22 16 12 18 13 19 14 20 15 21 16 22 17 23 18 24
REMARK H PARENT 7 5 22 17
REMARK Flexibility Score: inf
ROOT
ATOM      1  C   UNL     1      93.408  79.589  85.216  1.00  0.00     0.010 C 
ENDROOT
BRANCH   1   2
ATOM      2  C   UNL     1      92.138  80.478  85.313  1.00  0.00     0.100 C 
BRANCH   2   3
ATOM      3  C   UNL     1      91.028  80.007  84.455  1.00  0.00     0.220 C 
ATOM      4  N   UNL     1      89.956  79.366  85.004  1.00  0.00    -0.352 N 
ATOM      5  H   UNL     1      90.021  79.215  86.000  1.00  0.00     0.163 HD
ATOM      6  O   UNL     1      91.084  80.232  83.221  1.00  0.00    -0.275 OA
BRANCH   4   7
ATOM      7  C   UNL     1      88.802  78.919  84.284  1.00  0.00     0.151 C 
BRANCH   7   8
ATOM      8  C   UNL     1      87.918  80.033  83.844  1.00  0.00    -0.025 A 
ATOM      9  C   UNL     1      86.748  82.142  84.327  1.00  0.00     0.160 A 
ATOM     10  C   UNL     1      86.269  82.183  82.999  1.00  0.00     0.157 A 
ATOM     11  C   UNL     1      87.552  81.060  84.743  1.00  0.00     0.056 A 
ATOM     12  C   UNL     1      86.594  81.147  82.105  1.00  0.00     0.050 A 
ATOM     13  C   UNL     1      87.421  80.085  82.520  1.00  0.00     0.009 A 
BRANCH   9  14
ATOM     14  O   UNL     1      86.406  83.124  85.216  1.00  0.00    -0.493 OA
ATOM     15  C   UNL     1      87.352  84.207  85.277  1.00  0.00     0.278 C 
ENDBRANCH   9  14
BRANCH  10  16
ATOM     16  O   UNL     1      85.492  83.212  82.571  1.00  0.00    -0.504 OA
ATOM     17  H   UNL     1      85.430  83.189  81.613  1.00  0.00     0.293 HD
ENDBRANCH  10  16
ENDBRANCH   7   8
ENDBRANCH   4   7
ENDBRANCH   2   3
ENDBRANCH   1   2
BRANCH   1  18
ATOM     18  C   UNL     1      94.559  80.292  84.441  1.00  0.00     0.001 C 
BRANCH  18  19
ATOM     19  C   UNL     1      95.682  80.851  85.359  1.00  0.00     0.000 C 
BRANCH  19  20
ATOM     20  C   UNL     1      95.422  82.335  85.742  1.00  0.00     0.000 C 
BRANCH  20  21
ATOM     21  C   UNL     1      96.368  83.350  85.041  1.00  0.00     0.003 C 
BRANCH  21  22
ATOM     22  C   UNL     1      95.794  83.975  83.728  1.00  0.00    -0.017 C 
ATOM     23  C   UNL     1      96.485  83.353  82.482  1.00  0.00     0.007 C 
ATOM     24  C   UNL     1      95.885  85.529  83.683  1.00  0.00     0.007 C 
ENDBRANCH  21  22
ENDBRANCH  20  21
ENDBRANCH  19  20
ENDBRANCH  18  19
ENDBRANCH   1  18
TORSDOF 11
ENDMDL
MODEL 9
REMARK VINA RESULT:    -5.541      5.362      7.762
REMARK INTER + INTRA:          -9.784
REMARK INTER:                  -8.932
REMARK INTRA:                  -0.852
REMARK UNBOUND:                -0.842
REMARK SMILES COc1cc(CNC(=O)CCCCCCC(C)C)ccc1O
REMARK SMILES IDX 11 1 10 2 8 3 7 4 9 6 6 7 5 8 3 9 21 10 4 11 20 12 19 13
REMARK SMILES IDX 2 14 1 15 22 16 12 18 13 19 14 20 15 21 16 22 17 23 18 24
REMARK H PARENT 7 5 22 17
REMARK Flexibility Score: inf
ROOT
ATOM      1  C   UNL     1      94.096 100.670  72.518  1.00  0.00     0.010 C 
ENDROOT
BRANCH   1   2
ATOM      2  C   UNL     1      93.611  99.303  71.962  1.00  0.00     0.100 C 
BRANCH   2   3
ATOM      3  C   UNL     1      94.357  98.149  72.512  1.00  0.00     0.220 C 
ATOM      4  N   UNL     1      93.841  97.424  73.546  1.00  0.00    -0.352 N 
ATOM      5  H   UNL     1      92.963  97.770  73.906  1.00  0.00     0.163 HD
ATOM      6  O   UNL     1      95.458  97.841  71.993  1.00  0.00    -0.275 OA
BRANCH   4   7
ATOM      7  C   UNL     1      94.443  96.259  74.120  1.00  0.00     0.151 C 
BRANCH   7   8
ATOM      8  C   UNL     1      93.621  95.645  75.199  1.00  0.00    -0.025 A 
ATOM      9  C   UNL     1      93.338  95.003  77.556  1.00  0.00     0.160 A 
ATOM     10  C   UNL     1      92.043  94.516  77.271  1.00  0.00     0.157 A 
ATOM     11  C   UNL     1      94.122  95.545  76.517  1.00  0.00     0.056 A 
ATOM     12  C   UNL     1      91.548  94.575  75.955  1.00  0.00     0.050 A 
ATOM     13  C   UNL     1      92.326  95.144  74.928  1.00  0.00     0.009 A 
BRANCH   9  14
ATOM     14  O   UNL     1      93.844  94.915  78.824  1.00  0.00    -0.493 OA
ATOM     15  C   UNL     1      95.179  94.381  78.880  1.00  0.00     0.278 C 
ENDBRANCH   9  14
BRANCH  10  16
ATOM     16  O   UNL     1      91.266  93.987  78.252  1.00  0.00    -0.504 OA
ATOM     17  H   UNL     1      90.596  94.626  78.507  1.00  0.00     0.293 HD
ENDBRANCH  10  16
ENDBRANCH   7   8
ENDBRANCH   4   7
ENDBRANCH   2   3
ENDBRANCH   1   2
BRANCH   1  18
ATOM     18  C   UNL     1      93.149 101.224  73.620  1.00  0.00     0.001 C 
BRANCH  18  19
ATOM     19  C   UNL     1      92.215 102.365  73.128  1.00  0.00     0.000 C 
BRANCH  19  20
ATOM     20  C   UNL     1      90.727 101.916  73.104  1.00  0.00     0.000 C 
BRANCH  20  21
ATOM     21  C   UNL     1      90.016 102.139  71.740  1.00  0.00     0.003 C 
BRANCH  21  22
ATOM     22  C   UNL     1      89.318 100.868  71.155  1.00  0.00    -0.017 C 
ATOM     23  C   UNL     1      90.365  99.932  70.487  1.00  0.00     0.007 C 
ATOM     24  C   UNL     1      88.163 101.190  70.162  1.00  0.00     0.007 C 
ENDBRANCH  21  22
ENDBRANCH  20  21
ENDBRANCH  19  20
ENDBRANCH  18  19
ENDBRANCH   1  18
TORSDOF 11
ENDMDL
MODEL 10
REMARK VINA RESULT:    -5.425      1.846      2.863
REMARK INTER + INTRA:          -9.598
REMARK INTER:                  -8.874
REMARK INTRA:                  -0.723
REMARK UNBOUND:                -0.842
REMARK SMILES COc1cc(CNC(=O)CCCCCCC(C)C)ccc1O
REMARK SMILES IDX 11 1 10 2 8 3 7 4 9 6 6 7 5 8 3 9 21 10 4 11 20 12 19 13
REMARK SMILES IDX 2 14 1 15 22 16 12 18 13 19 14 20 15 21 16 22 17 23 18 24
REMARK H PARENT 7 5 22 17
REMARK Flexibility Score: inf
ROOT
ATOM      1  C   UNL     1      93.855  95.699  76.192  1.00  0.00     0.010 C 
ENDROOT
BRANCH   1   2
ATOM      2  C   UNL     1      93.700  96.886  77.181  1.00  0.00     0.100 C 
BRANCH   2   3
ATOM      3  C   UNL     1      94.491  96.722  78.421  1.00  0.00     0.220 C 
ATOM      4  N   UNL     1      95.280  97.739  78.875  1.00  0.00    -0.352 N 
ATOM      5  H   UNL     1      95.300  98.554  78.281  1.00  0.00     0.163 HD
ATOM      6  O   UNL     1      94.401  95.641  79.054  1.00  0.00    -0.275 OA
BRANCH   4   7
ATOM      7  C   UNL     1      96.041  97.715  80.087  1.00  0.00     0.151 C 
BRANCH   7   8
ATOM      8  C   UNL     1      96.037  99.018  80.808  1.00  0.00    -0.025 A 
ATOM      9  C   UNL     1      95.798 100.295  82.896  1.00  0.00     0.160 A 
ATOM     10  C   UNL     1      96.069 101.492  82.198  1.00  0.00     0.157 A 
ATOM     11  C   UNL     1      95.765  99.072  82.194  1.00  0.00     0.056 A 
ATOM     12  C   UNL     1      96.303 101.456  80.811  1.00  0.00     0.050 A 
ATOM     13  C   UNL     1      96.298 100.227  80.122  1.00  0.00     0.009 A 
BRANCH   9  14
ATOM     14  O   UNL     1      95.530 100.324  84.238  1.00  0.00    -0.493 OA
ATOM     15  C   UNL     1      96.658  99.976  85.061  1.00  0.00     0.278 C 
ENDBRANCH   9  14
BRANCH  10  16
ATOM     16  O   UNL     1      96.106 102.685  82.848  1.00  0.00    -0.504 OA
ATOM     17  H   UNL     1      96.506 103.347  82.278  1.00  0.00     0.293 HD
ENDBRANCH  10  16
ENDBRANCH   7   8
ENDBRANCH   4   7
ENDBRANCH   2   3
ENDBRANCH   1   2
BRANCH   1  18
ATOM     18  C   UNL     1      92.498  94.999  75.896  1.00  0.00     0.001 C 
BRANCH  18  19
ATOM     19  C   UNL     1      91.440  95.185  77.020  1.00  0.00     0.000 C 
BRANCH  19  20
ATOM     20  C   UNL     1      90.119  94.433  76.693  1.00  0.00     0.000 C 
BRANCH  20  21
ATOM     21  C   UNL     1      90.239  92.885  76.743  1.00  0.00     0.003 C 
BRANCH  21  22
ATOM     22  C   UNL     1      89.691  92.148  75.477  1.00  0.00    -0.017 C 
ATOM     23  C   UNL     1      89.652  90.612  75.716  1.00  0.00     0.007 C 
ATOM     24  C   UNL     1      90.475  92.478  74.174  1.00  0.00     0.007 C 
ENDBRANCH  21  22
ENDBRANCH  20  21
ENDBRANCH  19  20
ENDBRANCH  18  19
ENDBRANCH   1  18
TORSDOF 11
ENDMDL
