MODEL 1
REMARK VINA RESULT:    -6.050      0.000      0.000
REMARK INTER + INTRA:         -10.706
REMARK INTER:                  -9.940
REMARK INTRA:                  -0.765
REMARK UNBOUND:                -0.765
REMARK SMILES CCCCC[C@H](O)CC(=O)CCc1ccc(O)c(OC)c1
REMARK SMILES IDX 8 1 6 2 7 3 5 5 4 6 3 7 2 8 1 9 9 10 10 11 11 12 12 13 13 14
REMARK SMILES IDX 21 15 14 16 18 17 15 18 16 19 19 20 20 21 17 22
REMARK H PARENT 7 4 17 23
REMARK Flexibility Score: inf
ROOT
ATOM      1  C   UNL     1      77.179  84.624  69.608  1.00  0.00     0.107 C 
ENDROOT
BRANCH   1   2
ATOM      2  C   UNL     1      77.507  86.117  69.686  1.00  0.00     0.121 C 
BRANCH   2   3
ATOM      3  O   UNL     1      78.681  86.394  68.926  1.00  0.00    -0.393 OA
ATOM      4  H   UNL     1      79.447  86.078  69.436  1.00  0.00     0.210 HD
ENDBRANCH   2   3
BRANCH   2   5
ATOM      5  C   UNL     1      76.363  87.010  69.191  1.00  0.00     0.032 C 
BRANCH   5   6
ATOM      6  C   UNL     1      76.174  88.248  70.076  1.00  0.00     0.003 C 
BRANCH   6   7
ATOM      7  C   UNL     1      74.870  88.225  70.881  1.00  0.00    -0.000 C 
BRANCH   7   8
ATOM      8  C   UNL     1      74.396  89.610  71.318  1.00  0.00    -0.003 C 
ATOM      9  C   UNL     1      75.412  90.683  70.958  1.00  0.00     0.004 C 
ENDBRANCH   7   8
ENDBRANCH   6   7
ENDBRANCH   5   6
ENDBRANCH   2   5
ENDBRANCH   1   2
BRANCH   1  10
ATOM     10  C   UNL     1      77.499  84.014  68.253  1.00  0.00     0.135 C 
ATOM     11  O   UNL     1      78.663  83.903  67.869  1.00  0.00    -0.300 OA
BRANCH  10  12
ATOM     12  C   UNL     1      76.319  83.515  67.434  1.00  0.00     0.080 C 
BRANCH  12  13
ATOM     13  C   UNL     1      76.725  82.806  66.140  1.00  0.00     0.043 C 
BRANCH  13  14
ATOM     14  C   UNL     1      75.581  82.069  65.485  1.00  0.00    -0.044 A 
ATOM     15  C   UNL     1      74.317  82.076  66.075  1.00  0.00     0.054 A 
ATOM     16  C   UNL     1      75.789  81.380  64.290  1.00  0.00     0.008 A 
ATOM     17  C   UNL     1      73.262  81.395  65.469  1.00  0.00     0.160 A 
ATOM     18  C   UNL     1      74.734  80.699  63.684  1.00  0.00     0.050 A 
ATOM     19  C   UNL     1      73.470  80.706  64.274  1.00  0.00     0.157 A 
BRANCH  17  20
ATOM     20  O   UNL     1      72.032  81.408  66.055  1.00  0.00    -0.493 OA
ATOM     21  C   UNL     1      71.573  82.657  66.570  1.00  0.00     0.278 C 
ENDBRANCH  17  20
BRANCH  19  22
ATOM     22  O   UNL     1      72.447  80.038  63.673  1.00  0.00    -0.504 OA
ATOM     23  H   UNL     1      72.747  79.143  63.437  1.00  0.00     0.293 HD
ENDBRANCH  19  22
ENDBRANCH  13  14
ENDBRANCH  12  13
ENDBRANCH  10  12
ENDBRANCH   1  10
TORSDOF 12
ENDMDL
MODEL 2
REMARK VINA RESULT:    -5.858      2.409      7.555
REMARK INTER + INTRA:         -10.390
REMARK INTER:                  -9.485
REMARK INTRA:                  -0.905
REMARK UNBOUND:                -0.765
REMARK SMILES CCCCC[C@H](O)CC(=O)CCc1ccc(O)c(OC)c1
REMARK SMILES IDX 8 1 6 2 7 3 5 5 4 6 3 7 2 8 1 9 9 10 10 11 11 12 12 13 13 14
REMARK SMILES IDX 21 15 14 16 18 17 15 18 16 19 19 20 20 21 17 22
REMARK H PARENT 7 4 17 23
REMARK Flexibility Score: inf
ROOT
ATOM      1  C   UNL     1      76.632  83.537  67.223  1.00  0.00     0.107 C 
ENDROOT
BRANCH   1   2
ATOM      2  C   UNL     1      76.328  83.139  65.777  1.00  0.00     0.121 C 
BRANCH   2   3
ATOM      3  O   UNL     1      77.339  83.654  64.912  1.00  0.00    -0.393 OA
ATOM      4  H   UNL     1      77.027  83.550  63.996  1.00  0.00     0.210 HD
ENDBRANCH   2   3
BRANCH   2   5
ATOM      5  C   UNL     1      76.221  81.622  65.581  1.00  0.00     0.032 C 
BRANCH   5   6
ATOM      6  C   UNL     1      74.785  81.182  65.269  1.00  0.00     0.003 C 
BRANCH   6   7
ATOM      7  C   UNL     1      74.575  80.797  63.801  1.00  0.00    -0.000 C 
BRANCH   7   8
ATOM      8  C   UNL     1      73.142  81.005  63.313  1.00  0.00    -0.003 C 
ATOM      9  C   UNL     1      72.322  79.730  63.442  1.00  0.00     0.004 C 
ENDBRANCH   7   8
ENDBRANCH   6   7
ENDBRANCH   5   6
ENDBRANCH   2   5
ENDBRANCH   1   2
BRANCH   1  10
ATOM     10  C   UNL     1      78.047  84.060  67.413  1.00  0.00     0.135 C 
ATOM     11  O   UNL     1      79.020  83.396  67.054  1.00  0.00    -0.300 OA
BRANCH  10  12
ATOM     12  C   UNL     1      78.186  85.447  68.020  1.00  0.00     0.080 C 
BRANCH  12  13
ATOM     13  C   UNL     1      77.744  85.526  69.482  1.00  0.00     0.043 C 
BRANCH  13  14
ATOM     14  C   UNL     1      76.566  86.445  69.696  1.00  0.00    -0.044 A 
ATOM     15  C   UNL     1      75.272  85.924  69.735  1.00  0.00     0.054 A 
ATOM     16  C   UNL     1      76.771  87.816  69.856  1.00  0.00     0.008 A 
ATOM     17  C   UNL     1      74.184  86.775  69.934  1.00  0.00     0.160 A 
ATOM     18  C   UNL     1      75.683  88.666  70.054  1.00  0.00     0.050 A 
ATOM     19  C   UNL     1      74.390  88.145  70.093  1.00  0.00     0.157 A 
BRANCH  17  20
ATOM     20  O   UNL     1      72.926  86.255  69.969  1.00  0.00    -0.493 OA
ATOM     21  C   UNL     1      72.607  85.261  68.996  1.00  0.00     0.278 C 
ENDBRANCH  17  20
BRANCH  19  22
ATOM     22  O   UNL     1      73.335  88.985  70.288  1.00  0.00    -0.504 OA
ATOM     23  H   UNL     1      73.559  89.862  69.931  1.00  0.00     0.293 HD
ENDBRANCH  19  22
ENDBRANCH  13  14
ENDBRANCH  12  13
ENDBRANCH  10  12
ENDBRANCH   1  10
TORSDOF 12
ENDMDL
MODEL 3
REMARK VINA RESULT:    -5.774      1.947      2.520
REMARK INTER + INTRA:         -10.253
REMARK INTER:                  -9.127
REMARK INTRA:                  -1.126
REMARK UNBOUND:                -0.765
REMARK SMILES CCCCC[C@H](O)CC(=O)CCc1ccc(O)c(OC)c1
REMARK SMILES IDX 8 1 6 2 7 3 5 5 4 6 3 7 2 8 1 9 9 10 10 11 11 12 12 13 13 14
REMARK SMILES IDX 21 15 14 16 18 17 15 18 16 19 19 20 20 21 17 22
REMARK H PARENT 7 4 17 23
REMARK Flexibility Score: inf
ROOT
ATOM      1  C   UNL     1      76.757  85.381  66.287  1.00  0.00     0.107 C 
ENDROOT
BRANCH   1   2
ATOM      2  C   UNL     1      77.020  86.874  66.078  1.00  0.00     0.121 C 
BRANCH   2   3
ATOM      3  O   UNL     1      75.783  87.568  65.934  1.00  0.00    -0.393 OA
ATOM      4  H   UNL     1      75.488  87.838  66.821  1.00  0.00     0.210 HD
ENDBRANCH   2   3
BRANCH   2   5
ATOM      5  C   UNL     1      77.824  87.507  67.221  1.00  0.00     0.032 C 
BRANCH   5   6
ATOM      6  C   UNL     1      78.077  86.518  68.364  1.00  0.00     0.003 C 
BRANCH   6   7
ATOM      7  C   UNL     1      77.405  86.925  69.679  1.00  0.00    -0.000 C 
BRANCH   7   8
ATOM      8  C   UNL     1      75.976  87.435  69.504  1.00  0.00    -0.003 C 
ATOM      9  C   UNL     1      75.717  88.666  70.359  1.00  0.00     0.004 C 
ENDBRANCH   7   8
ENDBRANCH   6   7
ENDBRANCH   5   6
ENDBRANCH   2   5
ENDBRANCH   1   2
BRANCH   1  10
ATOM     10  C   UNL     1      76.635  84.609  64.983  1.00  0.00     0.135 C 
ATOM     11  O   UNL     1      75.925  85.023  64.067  1.00  0.00    -0.300 OA
BRANCH  10  12
ATOM     12  C   UNL     1      77.466  83.341  64.861  1.00  0.00     0.080 C 
BRANCH  12  13
ATOM     13  C   UNL     1      76.866  82.140  65.594  1.00  0.00     0.043 C 
BRANCH  13  14
ATOM     14  C   UNL     1      75.657  81.564  64.896  1.00  0.00    -0.044 A 
ATOM     15  C   UNL     1      74.434  81.492  65.564  1.00  0.00     0.054 A 
ATOM     16  C   UNL     1      75.764  81.103  63.584  1.00  0.00     0.008 A 
ATOM     17  C   UNL     1      73.318  80.960  64.917  1.00  0.00     0.160 A 
ATOM     18  C   UNL     1      74.648  80.571  62.938  1.00  0.00     0.050 A 
ATOM     19  C   UNL     1      73.425  80.500  63.605  1.00  0.00     0.157 A 
BRANCH  17  20
ATOM     20  O   UNL     1      72.129  80.895  65.579  1.00  0.00    -0.493 OA
ATOM     21  C   UNL     1      71.722  82.058  66.297  1.00  0.00     0.278 C 
ENDBRANCH  17  20
BRANCH  19  22
ATOM     22  O   UNL     1      72.343  79.978  62.964  1.00  0.00    -0.504 OA
ATOM     23  H   UNL     1      72.584  79.784  62.042  1.00  0.00     0.293 HD
ENDBRANCH  19  22
ENDBRANCH  13  14
ENDBRANCH  12  13
ENDBRANCH  10  12
ENDBRANCH   1  10
TORSDOF 12
ENDMDL
MODEL 4
REMARK VINA RESULT:    -5.756      2.328      6.374
REMARK INTER + INTRA:         -10.223
REMARK INTER:                  -8.042
REMARK INTRA:                  -2.181
REMARK UNBOUND:                -0.765
REMARK SMILES CCCCC[C@H](O)CC(=O)CCc1ccc(O)c(OC)c1
REMARK SMILES IDX 8 1 6 2 7 3 5 5 4 6 3 7 2 8 1 9 9 10 10 11 11 12 12 13 13 14
REMARK SMILES IDX 21 15 14 16 18 17 15 18 16 19 19 20 20 21 17 22
REMARK H PARENT 7 4 17 23
REMARK Flexibility Score: inf
ROOT
ATOM      1  C   UNL     1      75.214  81.941  66.302  1.00  0.00     0.107 C 
ENDROOT
BRANCH   1   2
ATOM      2  C   UNL     1      73.885  82.186  65.583  1.00  0.00     0.121 C 
BRANCH   2   3
ATOM      3  O   UNL     1      72.920  81.228  66.011  1.00  0.00    -0.393 OA
ATOM      4  H   UNL     1      72.628  80.729  65.228  1.00  0.00     0.210 HD
ENDBRANCH   2   3
BRANCH   2   5
ATOM      5  C   UNL     1      73.331  83.598  65.810  1.00  0.00     0.032 C 
BRANCH   5   6
ATOM      6  C   UNL     1      74.075  84.336  66.929  1.00  0.00     0.003 C 
BRANCH   6   7
ATOM      7  C   UNL     1      74.397  85.794  66.584  1.00  0.00    -0.000 C 
BRANCH   7   8
ATOM      8  C   UNL     1      74.395  86.083  65.083  1.00  0.00    -0.003 C 
ATOM      9  C   UNL     1      75.799  86.369  64.572  1.00  0.00     0.004 C 
ENDBRANCH   7   8
ENDBRANCH   6   7
ENDBRANCH   5   6
ENDBRANCH   2   5
ENDBRANCH   1   2
BRANCH   1  10
ATOM     10  C   UNL     1      76.416  82.019  65.376  1.00  0.00     0.135 C 
ATOM     11  O   UNL     1      76.577  81.194  64.477  1.00  0.00    -0.300 OA
BRANCH  10  12
ATOM     12  C   UNL     1      77.370  83.184  65.593  1.00  0.00     0.080 C 
BRANCH  12  13
ATOM     13  C   UNL     1      78.023  83.195  66.976  1.00  0.00     0.043 C 
BRANCH  13  14
ATOM     14  C   UNL     1      77.715  84.445  67.766  1.00  0.00    -0.044 A 
ATOM     15  C   UNL     1      76.984  84.360  68.951  1.00  0.00     0.054 A 
ATOM     16  C   UNL     1      78.162  85.685  67.309  1.00  0.00     0.008 A 
ATOM     17  C   UNL     1      76.701  85.515  69.679  1.00  0.00     0.160 A 
ATOM     18  C   UNL     1      77.879  86.841  68.038  1.00  0.00     0.050 A 
ATOM     19  C   UNL     1      77.148  86.755  69.223  1.00  0.00     0.157 A 
BRANCH  17  20
ATOM     20  O   UNL     1      75.986  85.420  70.835  1.00  0.00    -0.493 OA
ATOM     21  C   UNL     1      75.877  84.126  71.425  1.00  0.00     0.278 C 
ENDBRANCH  17  20
BRANCH  19  22
ATOM     22  O   UNL     1      76.878  87.890  69.926  1.00  0.00    -0.504 OA
ATOM     23  H   UNL     1      76.182  87.701  70.578  1.00  0.00     0.293 HD
ENDBRANCH  19  22
ENDBRANCH  13  14
ENDBRANCH  12  13
ENDBRANCH  10  12
ENDBRANCH   1  10
TORSDOF 12
ENDMDL
MODEL 5
REMARK VINA RESULT:    -5.737      2.858      8.628
REMARK INTER + INTRA:         -10.191
REMARK INTER:                  -9.084
REMARK INTRA:                  -1.107
REMARK UNBOUND:                -0.765
REMARK SMILES CCCCC[C@H](O)CC(=O)CCc1ccc(O)c(OC)c1
REMARK SMILES IDX 8 1 6 2 7 3 5 5 4 6 3 7 2 8 1 9 9 10 10 11 11 12 12 13 13 14
REMARK SMILES IDX 21 15 14 16 18 17 15 18 16 19 19 20 20 21 17 22
REMARK H PARENT 7 4 17 23
REMARK Flexibility Score: inf
ROOT
ATOM      1  C   UNL     1      76.464  85.278  68.105  1.00  0.00     0.107 C 
ENDROOT
BRANCH   1   2
ATOM      2  C   UNL     1      77.939  85.180  67.707  1.00  0.00     0.121 C 
BRANCH   2   3
ATOM      3  O   UNL     1      78.764  85.414  68.847  1.00  0.00    -0.393 OA
ATOM      4  H   UNL     1      79.689  85.438  68.545  1.00  0.00     0.210 HD
ENDBRANCH   2   3
BRANCH   2   5
ATOM      5  C   UNL     1      78.305  83.825  67.089  1.00  0.00     0.032 C 
BRANCH   5   6
ATOM      6  C   UNL     1      77.512  83.543  65.808  1.00  0.00     0.003 C 
BRANCH   6   7
ATOM      7  C   UNL     1      76.943  82.121  65.748  1.00  0.00    -0.000 C 
BRANCH   7   8
ATOM      8  C   UNL     1      75.688  81.927  66.597  1.00  0.00    -0.003 C 
ATOM      9  C   UNL     1      74.518  82.728  66.048  1.00  0.00     0.004 C 
ENDBRANCH   7   8
ENDBRANCH   6   7
ENDBRANCH   5   6
ENDBRANCH   2   5
ENDBRANCH   1   2
BRANCH   1  10
ATOM     10  C   UNL     1      76.226  85.003  69.581  1.00  0.00     0.135 C 
ATOM     11  O   UNL     1      76.579  83.941  70.092  1.00  0.00    -0.300 OA
BRANCH  10  12
ATOM     12  C   UNL     1      75.577  86.119  70.386  1.00  0.00     0.080 C 
BRANCH  12  13
ATOM     13  C   UNL     1      75.965  87.522  69.916  1.00  0.00     0.043 C 
BRANCH  13  14
ATOM     14  C   UNL     1      75.211  88.616  70.633  1.00  0.00    -0.044 A 
ATOM     15  C   UNL     1      75.699  89.923  70.623  1.00  0.00     0.054 A 
ATOM     16  C   UNL     1      74.025  88.320  71.305  1.00  0.00     0.008 A 
ATOM     17  C   UNL     1      75.001  90.933  71.285  1.00  0.00     0.160 A 
ATOM     18  C   UNL     1      73.326  89.330  71.967  1.00  0.00     0.050 A 
ATOM     19  C   UNL     1      73.815  90.636  71.957  1.00  0.00     0.157 A 
BRANCH  17  20
ATOM     20  O   UNL     1      75.488  92.205  71.269  1.00  0.00    -0.493 OA
ATOM     21  C   UNL     1      75.120  93.026  70.163  1.00  0.00     0.278 C 
ENDBRANCH  17  20
BRANCH  19  22
ATOM     22  O   UNL     1      73.124  91.614  72.607  1.00  0.00    -0.504 OA
ATOM     23  H   UNL     1      72.178  91.525  72.401  1.00  0.00     0.293 HD
ENDBRANCH  19  22
ENDBRANCH  13  14
ENDBRANCH  12  13
ENDBRANCH  10  12
ENDBRANCH   1  10
TORSDOF 12
ENDMDL
MODEL 6
REMARK VINA RESULT:    -5.687      2.199      6.506
REMARK INTER + INTRA:         -10.110
REMARK INTER:                  -8.436
REMARK INTRA:                  -1.674
REMARK UNBOUND:                -0.765
REMARK SMILES CCCCC[C@H](O)CC(=O)CCc1ccc(O)c(OC)c1
REMARK SMILES IDX 8 1 6 2 7 3 5 5 4 6 3 7 2 8 1 9 9 10 10 11 11 12 12 13 13 14
REMARK SMILES IDX 21 15 14 16 18 17 15 18 16 19 19 20 20 21 17 22
REMARK H PARENT 7 4 17 23
REMARK Flexibility Score: inf
ROOT
ATOM      1  C   UNL     1      74.449  81.310  65.978  1.00  0.00     0.107 C 
ENDROOT
BRANCH   1   2
ATOM      2  C   UNL     1      73.071  81.397  65.317  1.00  0.00     0.121 C 
BRANCH   2   3
ATOM      3  O   UNL     1      72.340  80.198  65.563  1.00  0.00    -0.393 OA
ATOM      4  H   UNL     1      71.832  79.990  64.760  1.00  0.00     0.210 HD
ENDBRANCH   2   3
BRANCH   2   5
ATOM      5  C   UNL     1      72.249  82.598  65.800  1.00  0.00     0.032 C 
BRANCH   5   6
ATOM      6  C   UNL     1      73.110  83.854  65.975  1.00  0.00     0.003 C 
BRANCH   6   7
ATOM      7  C   UNL     1      72.946  84.517  67.346  1.00  0.00    -0.000 C 
BRANCH   7   8
ATOM      8  C   UNL     1      74.067  85.495  67.692  1.00  0.00    -0.003 C 
ATOM      9  C   UNL     1      74.627  85.227  69.080  1.00  0.00     0.004 C 
ENDBRANCH   7   8
ENDBRANCH   6   7
ENDBRANCH   5   6
ENDBRANCH   2   5
ENDBRANCH   1   2
BRANCH   1  10
ATOM     10  C   UNL     1      75.592  81.323  64.977  1.00  0.00     0.135 C 
ATOM     11  O   UNL     1      75.435  80.902  63.831  1.00  0.00    -0.300 OA
BRANCH  10  12
ATOM     12  C   UNL     1      76.908  81.920  65.452  1.00  0.00     0.080 C 
BRANCH  12  13
ATOM     13  C   UNL     1      77.142  83.354  64.973  1.00  0.00     0.043 C 
BRANCH  13  14
ATOM     14  C   UNL     1      77.466  84.308  66.098  1.00  0.00    -0.044 A 
ATOM     15  C   UNL     1      77.289  85.680  65.922  1.00  0.00     0.054 A 
ATOM     16  C   UNL     1      77.943  83.816  67.313  1.00  0.00     0.008 A 
ATOM     17  C   UNL     1      77.588  86.561  66.962  1.00  0.00     0.160 A 
ATOM     18  C   UNL     1      78.242  84.696  68.354  1.00  0.00     0.050 A 
ATOM     19  C   UNL     1      78.065  86.069  68.177  1.00  0.00     0.157 A 
BRANCH  17  20
ATOM     20  O   UNL     1      77.412  87.899  66.778  1.00  0.00    -0.493 OA
ATOM     21  C   UNL     1      76.162  88.451  67.189  1.00  0.00     0.278 C 
ENDBRANCH  17  20
BRANCH  19  22
ATOM     22  O   UNL     1      78.360  86.919  69.200  1.00  0.00    -0.504 OA
ATOM     23  H   UNL     1      77.644  86.885  69.857  1.00  0.00     0.293 HD
ENDBRANCH  19  22
ENDBRANCH  13  14
ENDBRANCH  12  13
ENDBRANCH  10  12
ENDBRANCH   1  10
TORSDOF 12
ENDMDL
MODEL 7
REMARK VINA RESULT:    -5.675     24.822     27.620
REMARK INTER + INTRA:         -10.089
REMARK INTER:                  -8.834
REMARK INTRA:                  -1.255
REMARK UNBOUND:                -0.765
REMARK SMILES CCCCC[C@H](O)CC(=O)CCc1ccc(O)c(OC)c1
REMARK SMILES IDX 8 1 6 2 7 3 5 5 4 6 3 7 2 8 1 9 9 10 10 11 11 12 12 13 13 14
REMARK SMILES IDX 21 15 14 16 18 17 15 18 16 19 19 20 20 21 17 22
REMARK H PARENT 7 4 17 23
REMARK Flexibility Score: inf
ROOT
ATOM      1  C   UNL     1     100.441  80.064  82.857  1.00  0.00     0.107 C 
ENDROOT
BRANCH   1   2
ATOM      2  C   UNL     1      98.979  79.612  82.848  1.00  0.00     0.121 C 
BRANCH   2   3
ATOM      3  O   UNL     1      98.910  78.202  82.653  1.00  0.00    -0.393 OA
ATOM      4  H   UNL     1      98.731  77.790  83.517  1.00  0.00     0.210 HD
ENDBRANCH   2   3
BRANCH   2   5
ATOM      5  C   UNL     1      98.229  79.981  84.134  1.00  0.00     0.032 C 
BRANCH   5   6
ATOM      6  C   UNL     1      97.789  81.450  84.143  1.00  0.00     0.003 C 
BRANCH   6   7
ATOM      7  C   UNL     1      97.090  81.865  85.442  1.00  0.00    -0.000 C 
BRANCH   7   8
ATOM      8  C   UNL     1      96.375  83.212  85.349  1.00  0.00    -0.003 C 
ATOM      9  C   UNL     1      97.058  84.134  84.351  1.00  0.00     0.004 C 
ENDBRANCH   7   8
ENDBRANCH   6   7
ENDBRANCH   5   6
ENDBRANCH   2   5
ENDBRANCH   1   2
BRANCH   1  10
ATOM     10  C   UNL     1     101.029  80.205  81.462  1.00  0.00     0.135 C 
ATOM     11  O   UNL     1     101.231  79.216  80.757  1.00  0.00    -0.300 OA
BRANCH  10  12
ATOM     12  C   UNL     1     101.306  81.621  80.979  1.00  0.00     0.080 C 
BRANCH  12  13
ATOM     13  C   UNL     1     100.203  82.619  81.336  1.00  0.00     0.043 C 
BRANCH  13  14
ATOM     14  C   UNL     1      99.305  82.952  80.167  1.00  0.00    -0.044 A 
ATOM     15  C   UNL     1      99.794  82.860  78.864  1.00  0.00     0.054 A 
ATOM     16  C   UNL     1      97.988  83.352  80.393  1.00  0.00     0.008 A 
ATOM     17  C   UNL     1      98.964  83.168  77.786  1.00  0.00     0.160 A 
ATOM     18  C   UNL     1      97.158  83.660  79.314  1.00  0.00     0.050 A 
ATOM     19  C   UNL     1      97.646  83.568  78.011  1.00  0.00     0.157 A 
BRANCH  17  20
ATOM     20  O   UNL     1      99.452  83.075  76.517  1.00  0.00    -0.493 OA
ATOM     21  C   UNL     1     100.597  83.867  76.204  1.00  0.00     0.278 C 
ENDBRANCH  17  20
BRANCH  19  22
ATOM     22  O   UNL     1      96.827  83.871  76.966  1.00  0.00    -0.504 OA
ATOM     23  H   UNL     1      95.928  84.027  77.303  1.00  0.00     0.293 HD
ENDBRANCH  19  22
ENDBRANCH  13  14
ENDBRANCH  12  13
ENDBRANCH  10  12
ENDBRANCH   1  10
TORSDOF 12
ENDMDL
MODEL 8
REMARK VINA RESULT:    -5.667      2.555      7.251
REMARK INTER + INTRA:         -10.077
REMARK INTER:                  -8.811
REMARK INTRA:                  -1.266
REMARK UNBOUND:                -0.765
REMARK SMILES CCCCC[C@H](O)CC(=O)CCc1ccc(O)c(OC)c1
REMARK SMILES IDX 8 1 6 2 7 3 5 5 4 6 3 7 2 8 1 9 9 10 10 11 11 12 12 13 13 14
REMARK SMILES IDX 21 15 14 16 18 17 15 18 16 19 19 20 20 21 17 22
REMARK H PARENT 7 4 17 23
REMARK Flexibility Score: inf
ROOT
ATOM      1  C   UNL     1      76.440  83.377  67.357  1.00  0.00     0.107 C 
ENDROOT
BRANCH   1   2
ATOM      2  C   UNL     1      76.167  82.387  66.222  1.00  0.00     0.121 C 
BRANCH   2   3
ATOM      3  O   UNL     1      75.246  81.391  66.660  1.00  0.00    -0.393 OA
ATOM      4  H   UNL     1      75.036  80.824  65.898  1.00  0.00     0.210 HD
ENDBRANCH   2   3
BRANCH   2   5
ATOM      5  C   UNL     1      75.619  83.059  64.957  1.00  0.00     0.032 C 
BRANCH   5   6
ATOM      6  C   UNL     1      76.676  83.150  63.849  1.00  0.00     0.003 C 
BRANCH   6   7
ATOM      7  C   UNL     1      77.286  84.548  63.706  1.00  0.00    -0.000 C 
BRANCH   7   8
ATOM      8  C   UNL     1      76.251  85.672  63.720  1.00  0.00    -0.003 C 
ATOM      9  C   UNL     1      76.811  86.933  64.360  1.00  0.00     0.004 C 
ENDBRANCH   7   8
ENDBRANCH   6   7
ENDBRANCH   5   6
ENDBRANCH   2   5
ENDBRANCH   1   2
BRANCH   1  10
ATOM     10  C   UNL     1      77.846  83.952  67.321  1.00  0.00     0.135 C 
ATOM     11  O   UNL     1      78.817  83.235  67.082  1.00  0.00    -0.300 OA
BRANCH  10  12
ATOM     12  C   UNL     1      77.977  85.451  67.548  1.00  0.00     0.080 C 
BRANCH  12  13
ATOM     13  C   UNL     1      78.173  85.836  69.015  1.00  0.00     0.043 C 
BRANCH  13  14
ATOM     14  C   UNL     1      76.937  86.437  69.640  1.00  0.00    -0.044 A 
ATOM     15  C   UNL     1      76.791  87.822  69.706  1.00  0.00     0.054 A 
ATOM     16  C   UNL     1      75.940  85.605  70.152  1.00  0.00     0.008 A 
ATOM     17  C   UNL     1      75.648  88.377  70.283  1.00  0.00     0.160 A 
ATOM     18  C   UNL     1      74.797  86.159  70.728  1.00  0.00     0.050 A 
ATOM     19  C   UNL     1      74.652  87.545  70.794  1.00  0.00     0.157 A 
BRANCH  17  20
ATOM     20  O   UNL     1      75.518  89.731  70.342  1.00  0.00    -0.493 OA
ATOM     21  C   UNL     1      74.921  90.375  69.217  1.00  0.00     0.278 C 
ENDBRANCH  17  20
BRANCH  19  22
ATOM     22  O   UNL     1      73.531  88.075  71.360  1.00  0.00    -0.504 OA
ATOM     23  H   UNL     1      72.827  88.114  70.690  1.00  0.00     0.293 HD
ENDBRANCH  19  22
ENDBRANCH  13  14
ENDBRANCH  12  13
ENDBRANCH  10  12
ENDBRANCH   1  10
TORSDOF 12
ENDMDL
MODEL 9
REMARK VINA RESULT:    -5.584     10.196     12.897
REMARK INTER + INTRA:          -9.940
REMARK INTER:                  -7.768
REMARK INTRA:                  -2.172
REMARK UNBOUND:                -0.765
REMARK SMILES CCCCC[C@H](O)CC(=O)CCc1ccc(O)c(OC)c1
REMARK SMILES IDX 8 1 6 2 7 3 5 5 4 6 3 7 2 8 1 9 9 10 10 11 11 12 12 13 13 14
REMARK SMILES IDX 21 15 14 16 18 17 15 18 16 19 19 20 20 21 17 22
REMARK H PARENT 7 4 17 23
REMARK Flexibility Score: inf
ROOT
ATOM      1  C   UNL     1      67.678  83.709  70.983  1.00  0.00     0.107 C 
ENDROOT
BRANCH   1   2
ATOM      2  C   UNL     1      67.195  85.006  71.637  1.00  0.00     0.121 C 
BRANCH   2   3
ATOM      3  O   UNL     1      66.130  85.565  70.872  1.00  0.00    -0.393 OA
ATOM      4  H   UNL     1      66.086  86.516  71.074  1.00  0.00     0.210 HD
ENDBRANCH   2   3
BRANCH   2   5
ATOM      5  C   UNL     1      66.729  84.811  73.085  1.00  0.00     0.032 C 
BRANCH   5   6
ATOM      6  C   UNL     1      65.266  85.227  73.280  1.00  0.00     0.003 C 
BRANCH   6   7
ATOM      7  C   UNL     1      64.823  85.216  74.747  1.00  0.00    -0.000 C 
BRANCH   7   8
ATOM      8  C   UNL     1      65.856  84.607  75.694  1.00  0.00    -0.003 C 
ATOM      9  C   UNL     1      65.210  83.627  76.661  1.00  0.00     0.004 C 
ENDBRANCH   7   8
ENDBRANCH   6   7
ENDBRANCH   5   6
ENDBRANCH   2   5
ENDBRANCH   1   2
BRANCH   1  10
ATOM     10  C   UNL     1      66.591  82.999  70.193  1.00  0.00     0.135 C 
ATOM     11  O   UNL     1      66.371  83.289  69.018  1.00  0.00    -0.300 OA
BRANCH  10  12
ATOM     12  C   UNL     1      65.834  81.895  70.916  1.00  0.00     0.080 C 
BRANCH  12  13
ATOM     13  C   UNL     1      64.320  81.944  70.698  1.00  0.00     0.043 C 
BRANCH  13  14
ATOM     14  C   UNL     1      63.548  82.211  71.968  1.00  0.00    -0.044 A 
ATOM     15  C   UNL     1      62.512  83.145  71.971  1.00  0.00     0.054 A 
ATOM     16  C   UNL     1      63.871  81.523  73.138  1.00  0.00     0.008 A 
ATOM     17  C   UNL     1      61.799  83.390  73.145  1.00  0.00     0.160 A 
ATOM     18  C   UNL     1      63.158  81.768  74.311  1.00  0.00     0.050 A 
ATOM     19  C   UNL     1      62.122  82.702  74.315  1.00  0.00     0.157 A 
BRANCH  17  20
ATOM     20  O   UNL     1      60.789  84.305  73.136  1.00  0.00    -0.493 OA
ATOM     21  C   UNL     1      60.363  84.788  71.863  1.00  0.00     0.278 C 
ENDBRANCH  17  20
BRANCH  19  22
ATOM     22  O   UNL     1      61.433  82.933  75.466  1.00  0.00    -0.504 OA
ATOM     23  H   UNL     1      61.960  82.617  76.220  1.00  0.00     0.293 HD
ENDBRANCH  19  22
ENDBRANCH  13  14
ENDBRANCH  12  13
ENDBRANCH  10  12
ENDBRANCH   1  10
TORSDOF 12
ENDMDL
MODEL 10
REMARK VINA RESULT:    -5.430      2.549      6.501
REMARK INTER + INTRA:          -9.687
REMARK INTER:                  -7.596
REMARK INTRA:                  -2.092
REMARK UNBOUND:                -0.765
REMARK SMILES CCCCC[C@H](O)CC(=O)CCc1ccc(O)c(OC)c1
REMARK SMILES IDX 8 1 6 2 7 3 5 5 4 6 3 7 2 8 1 9 9 10 10 11 11 12 12 13 13 14
REMARK SMILES IDX 21 15 14 16 18 17 15 18 16 19 19 20 20 21 17 22
REMARK H PARENT 7 4 17 23
REMARK Flexibility Score: inf
ROOT
ATOM      1  C   UNL     1      73.677  81.585  64.897  1.00  0.00     0.107 C 
ENDROOT
BRANCH   1   2
ATOM      2  C   UNL     1      73.306  82.852  64.123  1.00  0.00     0.121 C 
BRANCH   2   3
ATOM      3  O   UNL     1      71.890  82.938  63.987  1.00  0.00    -0.393 OA
ATOM      4  H   UNL     1      71.698  83.391  63.147  1.00  0.00     0.210 HD
ENDBRANCH   2   3
BRANCH   2   5
ATOM      5  C   UNL     1      73.829  84.134  64.783  1.00  0.00     0.032 C 
BRANCH   5   6
ATOM      6  C   UNL     1      74.533  85.054  63.778  1.00  0.00     0.003 C 
BRANCH   6   7
ATOM      7  C   UNL     1      75.853  84.481  63.253  1.00  0.00    -0.000 C 
BRANCH   7   8
ATOM      8  C   UNL     1      77.079  85.297  63.661  1.00  0.00    -0.003 C 
ATOM      9  C   UNL     1      76.681  86.557  64.414  1.00  0.00     0.004 C 
ENDBRANCH   7   8
ENDBRANCH   6   7
ENDBRANCH   5   6
ENDBRANCH   2   5
ENDBRANCH   1   2
BRANCH   1  10
ATOM     10  C   UNL     1      75.161  81.260  64.832  1.00  0.00     0.135 C 
ATOM     11  O   UNL     1      75.685  80.907  63.776  1.00  0.00    -0.300 OA
BRANCH  10  12
ATOM     12  C   UNL     1      75.955  81.438  66.117  1.00  0.00     0.080 C 
BRANCH  12  13
ATOM     13  C   UNL     1      77.167  82.360  65.969  1.00  0.00     0.043 C 
BRANCH  13  14
ATOM     14  C   UNL     1      77.166  83.501  66.957  1.00  0.00    -0.044 A 
ATOM     15  C   UNL     1      76.033  83.755  67.730  1.00  0.00     0.054 A 
ATOM     16  C   UNL     1      78.300  84.303  67.097  1.00  0.00     0.008 A 
ATOM     17  C   UNL     1      76.034  84.809  68.644  1.00  0.00     0.160 A 
ATOM     18  C   UNL     1      78.301  85.357  68.010  1.00  0.00     0.050 A 
ATOM     19  C   UNL     1      77.168  85.611  68.783  1.00  0.00     0.157 A 
BRANCH  17  20
ATOM     20  O   UNL     1      74.922  85.047  69.393  1.00  0.00    -0.493 OA
ATOM     21  C   UNL     1      73.750  85.468  68.698  1.00  0.00     0.278 C 
ENDBRANCH  17  20
BRANCH  19  22
ATOM     22  O   UNL     1      77.181  86.643  69.671  1.00  0.00    -0.504 OA
ATOM     23  H   UNL     1      76.826  87.438  69.238  1.00  0.00     0.293 HD
ENDBRANCH  19  22
ENDBRANCH  13  14
ENDBRANCH  12  13
ENDBRANCH  10  12
ENDBRANCH   1  10
TORSDOF 12
ENDMDL
