MODEL 1
REMARK VINA RESULT:    -6.137      0.000      0.000
REMARK INTER + INTRA:         -12.261
REMARK INTER:                 -10.084
REMARK INTRA:                  -2.177
REMARK UNBOUND:                -2.177
REMARK SMILES CCCCC[C@H](O)CC(=O)CCc1ccc(O)c(OC)c1
REMARK SMILES IDX 8 1 6 2 7 3 5 5 4 6 3 7 2 8 1 9 9 10 10 11 11 12 12 13 13 14
REMARK SMILES IDX 21 15 14 16 18 17 15 18 16 19 19 20 20 21 17 22
REMARK H PARENT 7 4 17 23
REMARK Flexibility Score: inf
ROOT
ATOM      1  C   UNL     1      79.965  86.699  84.998  1.00  0.00     0.107 C 
ENDROOT
BRANCH   1   2
ATOM      2  C   UNL     1      81.004  85.642  85.382  1.00  0.00     0.121 C 
BRANCH   2   3
ATOM      3  O   UNL     1      81.520  85.022  84.207  1.00  0.00    -0.393 OA
ATOM      4  H   UNL     1      82.321  84.530  84.457  1.00  0.00     0.210 HD
ENDBRANCH   2   3
BRANCH   2   5
ATOM      5  C   UNL     1      82.166  86.213  86.204  1.00  0.00     0.032 C 
BRANCH   5   6
ATOM      6  C   UNL     1      82.051  85.857  87.691  1.00  0.00     0.003 C 
BRANCH   6   7
ATOM      7  C   UNL     1      81.455  86.984  88.540  1.00  0.00    -0.000 C 
BRANCH   7   8
ATOM      8  C   UNL     1      80.207  86.570  89.318  1.00  0.00    -0.003 C 
ATOM      9  C   UNL     1      79.048  87.517  89.050  1.00  0.00     0.004 C 
ENDBRANCH   7   8
ENDBRANCH   6   7
ENDBRANCH   5   6
ENDBRANCH   2   5
ENDBRANCH   1   2
BRANCH   1  10
ATOM     10  C   UNL     1      80.318  87.444  83.720  1.00  0.00     0.135 C 
ATOM     11  O   UNL     1      80.206  86.902  82.621  1.00  0.00    -0.300 OA
BRANCH  10  12
ATOM     12  C   UNL     1      80.764  88.889  83.875  1.00  0.00     0.080 C 
BRANCH  12  13
ATOM     13  C   UNL     1      80.212  89.574  85.127  1.00  0.00     0.043 C 
BRANCH  13  14
ATOM     14  C   UNL     1      81.288  89.953  86.117  1.00  0.00    -0.044 A 
ATOM     15  C   UNL     1      82.633  89.815  85.773  1.00  0.00     0.054 A 
ATOM     16  C   UNL     1      80.935  90.441  87.375  1.00  0.00     0.008 A 
ATOM     17  C   UNL     1      83.625  90.167  86.688  1.00  0.00     0.160 A 
ATOM     18  C   UNL     1      81.928  90.793  88.291  1.00  0.00     0.050 A 
ATOM     19  C   UNL     1      83.272  90.655  87.947  1.00  0.00     0.157 A 
BRANCH  17  20
ATOM     20  O   UNL     1      84.935  90.028  86.342  1.00  0.00    -0.493 OA
ATOM     21  C   UNL     1      85.299  90.411  85.017  1.00  0.00     0.278 C 
ENDBRANCH  17  20
BRANCH  19  22
ATOM     22  O   UNL     1      84.232  91.001  88.849  1.00  0.00    -0.504 OA
ATOM     23  H   UNL     1      84.072  91.913  89.148  1.00  0.00     0.293 HD
ENDBRANCH  19  22
ENDBRANCH  13  14
ENDBRANCH  12  13
ENDBRANCH  10  12
ENDBRANCH   1  10
TORSDOF 12
ENDMDL
MODEL 2
REMARK VINA RESULT:    -5.620     12.076     15.483
REMARK INTER + INTRA:         -11.411
REMARK INTER:                 -10.462
REMARK INTRA:                  -0.949
REMARK UNBOUND:                -2.177
REMARK SMILES CCCCC[C@H](O)CC(=O)CCc1ccc(O)c(OC)c1
REMARK SMILES IDX 8 1 6 2 7 3 5 5 4 6 3 7 2 8 1 9 9 10 10 11 11 12 12 13 13 14
REMARK SMILES IDX 21 15 14 16 18 17 15 18 16 19 19 20 20 21 17 22
REMARK H PARENT 7 4 17 23
REMARK Flexibility Score: inf
ROOT
ATOM      1  C   UNL     1      93.011  94.398  76.778  1.00  0.00     0.107 C 
ENDROOT
BRANCH   1   2
ATOM      2  C   UNL     1      94.377  93.733  76.590  1.00  0.00     0.121 C 
BRANCH   2   3
ATOM      3  O   UNL     1      94.831  93.930  75.253  1.00  0.00    -0.393 OA
ATOM      4  H   UNL     1      95.348  93.147  74.996  1.00  0.00     0.210 HD
ENDBRANCH   2   3
BRANCH   2   5
ATOM      5  C   UNL     1      95.438  94.255  77.566  1.00  0.00     0.032 C 
BRANCH   5   6
ATOM      6  C   UNL     1      94.860  94.509  78.964  1.00  0.00     0.003 C 
BRANCH   6   7
ATOM      7  C   UNL     1      95.576  93.724  80.068  1.00  0.00    -0.000 C 
BRANCH   7   8
ATOM      8  C   UNL     1      95.712  94.497  81.379  1.00  0.00    -0.003 C 
ATOM      9  C   UNL     1      95.593  95.996  81.153  1.00  0.00     0.004 C 
ENDBRANCH   7   8
ENDBRANCH   6   7
ENDBRANCH   5   6
ENDBRANCH   2   5
ENDBRANCH   1   2
BRANCH   1  10
ATOM     10  C   UNL     1      91.947  93.849  75.841  1.00  0.00     0.135 C 
ATOM     11  O   UNL     1      92.258  93.240  74.818  1.00  0.00    -0.300 OA
BRANCH  10  12
ATOM     12  C   UNL     1      90.499  94.053  76.260  1.00  0.00     0.080 C 
BRANCH  12  13
ATOM     13  C   UNL     1      89.976  92.973  77.210  1.00  0.00     0.043 C 
BRANCH  13  14
ATOM     14  C   UNL     1      89.790  91.633  76.538  1.00  0.00    -0.044 A 
ATOM     15  C   UNL     1      90.257  90.473  77.155  1.00  0.00     0.054 A 
ATOM     16  C   UNL     1      89.152  91.557  75.300  1.00  0.00     0.008 A 
ATOM     17  C   UNL     1      90.085  89.236  76.534  1.00  0.00     0.160 A 
ATOM     18  C   UNL     1      88.979  90.320  74.679  1.00  0.00     0.050 A 
ATOM     19  C   UNL     1      89.446  89.159  75.296  1.00  0.00     0.157 A 
BRANCH  17  20
ATOM     20  O   UNL     1      90.546  88.109  77.146  1.00  0.00    -0.493 OA
ATOM     21  C   UNL     1      89.887  87.708  78.346  1.00  0.00     0.278 C 
ENDBRANCH  17  20
BRANCH  19  22
ATOM     22  O   UNL     1      89.271  87.957  74.681  1.00  0.00    -0.504 OA
ATOM     23  H   UNL     1      89.427  87.245  75.325  1.00  0.00     0.293 HD
ENDBRANCH  19  22
ENDBRANCH  13  14
ENDBRANCH  12  13
ENDBRANCH  10  12
ENDBRANCH   1  10
TORSDOF 12
ENDMDL
MODEL 3
REMARK VINA RESULT:    -5.616     12.138     15.835
REMARK INTER + INTRA:         -11.404
REMARK INTER:                 -10.623
REMARK INTRA:                  -0.782
REMARK UNBOUND:                -2.177
REMARK SMILES CCCCC[C@H](O)CC(=O)CCc1ccc(O)c(OC)c1
REMARK SMILES IDX 8 1 6 2 7 3 5 5 4 6 3 7 2 8 1 9 9 10 10 11 11 12 12 13 13 14
REMARK SMILES IDX 21 15 14 16 18 17 15 18 16 19 19 20 20 21 17 22
REMARK H PARENT 7 4 17 23
REMARK Flexibility Score: inf
ROOT
ATOM      1  C   UNL     1      94.808  94.300  75.575  1.00  0.00     0.107 C 
ENDROOT
BRANCH   1   2
ATOM      2  C   UNL     1      95.589  93.751  76.772  1.00  0.00     0.121 C 
BRANCH   2   3
ATOM      3  O   UNL     1      96.713  93.004  76.314  1.00  0.00    -0.393 OA
ATOM      4  H   UNL     1      97.494  93.309  76.807  1.00  0.00     0.210 HD
ENDBRANCH   2   3
BRANCH   2   5
ATOM      5  C   UNL     1      96.068  94.849  77.730  1.00  0.00     0.032 C 
BRANCH   5   6
ATOM      6  C   UNL     1      95.200  94.933  78.991  1.00  0.00     0.003 C 
BRANCH   6   7
ATOM      7  C   UNL     1      95.893  95.646  80.157  1.00  0.00    -0.000 C 
BRANCH   7   8
ATOM      8  C   UNL     1      95.365  95.229  81.529  1.00  0.00    -0.003 C 
ATOM      9  C   UNL     1      95.658  93.764  81.814  1.00  0.00     0.004 C 
ENDBRANCH   7   8
ENDBRANCH   6   7
ENDBRANCH   5   6
ENDBRANCH   2   5
ENDBRANCH   1   2
BRANCH   1  10
ATOM     10  C   UNL     1      93.309  94.076  75.689  1.00  0.00     0.135 C 
ATOM     11  O   UNL     1      92.605  94.830  76.360  1.00  0.00    -0.300 OA
BRANCH  10  12
ATOM     12  C   UNL     1      92.732  92.910  74.900  1.00  0.00     0.080 C 
BRANCH  12  13
ATOM     13  C   UNL     1      91.220  92.746  75.062  1.00  0.00     0.043 C 
BRANCH  13  14
ATOM     14  C   UNL     1      90.844  91.694  76.078  1.00  0.00    -0.044 A 
ATOM     15  C   UNL     1      90.676  90.368  75.681  1.00  0.00     0.054 A 
ATOM     16  C   UNL     1      90.665  92.050  77.415  1.00  0.00     0.008 A 
ATOM     17  C   UNL     1      90.330  89.397  76.621  1.00  0.00     0.160 A 
ATOM     18  C   UNL     1      90.319  91.079  78.356  1.00  0.00     0.050 A 
ATOM     19  C   UNL     1      90.151  89.752  77.958  1.00  0.00     0.157 A 
BRANCH  17  20
ATOM     20  O   UNL     1      90.168  88.105  76.220  1.00  0.00    -0.493 OA
ATOM     21  C   UNL     1      91.164  87.565  75.354  1.00  0.00     0.278 C 
ENDBRANCH  17  20
BRANCH  19  22
ATOM     22  O   UNL     1      89.812  88.813  78.885  1.00  0.00    -0.504 OA
ATOM     23  H   UNL     1      89.423  88.046  78.431  1.00  0.00     0.293 HD
ENDBRANCH  19  22
ENDBRANCH  13  14
ENDBRANCH  12  13
ENDBRANCH  10  12
ENDBRANCH   1  10
TORSDOF 12
ENDMDL
MODEL 4
REMARK VINA RESULT:    -5.436      1.761      3.819
REMARK INTER + INTRA:         -11.109
REMARK INTER:                  -9.562
REMARK INTRA:                  -1.546
REMARK UNBOUND:                -2.177
REMARK SMILES CCCCC[C@H](O)CC(=O)CCc1ccc(O)c(OC)c1
REMARK SMILES IDX 8 1 6 2 7 3 5 5 4 6 3 7 2 8 1 9 9 10 10 11 11 12 12 13 13 14
REMARK SMILES IDX 21 15 14 16 18 17 15 18 16 19 19 20 20 21 17 22
REMARK H PARENT 7 4 17 23
REMARK Flexibility Score: inf
ROOT
ATOM      1  C   UNL     1      80.555  85.813  86.178  1.00  0.00     0.107 C 
ENDROOT
BRANCH   1   2
ATOM      2  C   UNL     1      81.174  86.102  84.809  1.00  0.00     0.121 C 
BRANCH   2   3
ATOM      3  O   UNL     1      81.864  84.947  84.337  1.00  0.00    -0.393 OA
ATOM      4  H   UNL     1      82.441  85.224  83.603  1.00  0.00     0.210 HD
ENDBRANCH   2   3
BRANCH   2   5
ATOM      5  C   UNL     1      80.141  86.536  83.762  1.00  0.00     0.032 C 
BRANCH   5   6
ATOM      6  C   UNL     1      80.176  88.048  83.509  1.00  0.00     0.003 C 
BRANCH   6   7
ATOM      7  C   UNL     1      79.400  88.855  84.555  1.00  0.00    -0.000 C 
BRANCH   7   8
ATOM      8  C   UNL     1      80.208  89.997  85.170  1.00  0.00    -0.003 C 
ATOM      9  C   UNL     1      81.645  89.989  84.672  1.00  0.00     0.004 C 
ENDBRANCH   7   8
ENDBRANCH   6   7
ENDBRANCH   5   6
ENDBRANCH   2   5
ENDBRANCH   1   2
BRANCH   1  10
ATOM     10  C   UNL     1      81.573  85.821  87.306  1.00  0.00     0.135 C 
ATOM     11  O   UNL     1      82.606  85.155  87.232  1.00  0.00    -0.300 OA
BRANCH  10  12
ATOM     12  C   UNL     1      81.269  86.722  88.494  1.00  0.00     0.080 C 
BRANCH  12  13
ATOM     13  C   UNL     1      81.064  88.190  88.115  1.00  0.00     0.043 C 
BRANCH  13  14
ATOM     14  C   UNL     1      82.005  89.125  88.838  1.00  0.00    -0.044 A 
ATOM     15  C   UNL     1      82.289  90.381  88.302  1.00  0.00     0.054 A 
ATOM     16  C   UNL     1      82.590  88.731  90.042  1.00  0.00     0.008 A 
ATOM     17  C   UNL     1      83.158  91.243  88.971  1.00  0.00     0.160 A 
ATOM     18  C   UNL     1      83.459  89.593  90.711  1.00  0.00     0.050 A 
ATOM     19  C   UNL     1      83.743  90.849  90.175  1.00  0.00     0.157 A 
BRANCH  17  20
ATOM     20  O   UNL     1      83.428  92.467  88.438  1.00  0.00    -0.493 OA
ATOM     21  C   UNL     1      82.448  93.487  88.624  1.00  0.00     0.278 C 
ENDBRANCH  17  20
BRANCH  19  22
ATOM     22  O   UNL     1      84.592  91.683  90.837  1.00  0.00    -0.504 OA
ATOM     23  H   UNL     1      85.508  91.460  90.595  1.00  0.00     0.293 HD
ENDBRANCH  19  22
ENDBRANCH  13  14
ENDBRANCH  12  13
ENDBRANCH  10  12
ENDBRANCH   1  10
TORSDOF 12
ENDMDL
MODEL 5
REMARK VINA RESULT:    -5.175      2.848      5.205
REMARK INTER + INTRA:         -10.681
REMARK INTER:                  -9.300
REMARK INTRA:                  -1.380
REMARK UNBOUND:                -2.177
REMARK SMILES CCCCC[C@H](O)CC(=O)CCc1ccc(O)c(OC)c1
REMARK SMILES IDX 8 1 6 2 7 3 5 5 4 6 3 7 2 8 1 9 9 10 10 11 11 12 12 13 13 14
REMARK SMILES IDX 21 15 14 16 18 17 15 18 16 19 19 20 20 21 17 22
REMARK H PARENT 7 4 17 23
REMARK Flexibility Score: inf
ROOT
ATOM      1  C   UNL     1      83.321  90.192  84.653  1.00  0.00     0.107 C 
ENDROOT
BRANCH   1   2
ATOM      2  C   UNL     1      83.079  88.741  85.076  1.00  0.00     0.121 C 
BRANCH   2   3
ATOM      3  O   UNL     1      84.198  88.260  85.816  1.00  0.00    -0.393 OA
ATOM      4  H   UNL     1      84.753  89.025  86.048  1.00  0.00     0.210 HD
ENDBRANCH   2   3
BRANCH   2   5
ATOM      5  C   UNL     1      81.806  88.565  85.913  1.00  0.00     0.032 C 
BRANCH   5   6
ATOM      6  C   UNL     1      80.736  89.606  85.563  1.00  0.00     0.003 C 
BRANCH   6   7
ATOM      7  C   UNL     1      79.643  89.064  84.636  1.00  0.00    -0.000 C 
BRANCH   7   8
ATOM      8  C   UNL     1      79.717  87.553  84.421  1.00  0.00    -0.003 C 
ATOM      9  C   UNL     1      80.033  87.214  82.972  1.00  0.00     0.004 C 
ENDBRANCH   7   8
ENDBRANCH   6   7
ENDBRANCH   5   6
ENDBRANCH   2   5
ENDBRANCH   1   2
BRANCH   1  10
ATOM     10  C   UNL     1      84.715  90.689  85.001  1.00  0.00     0.135 C 
ATOM     11  O   UNL     1      85.709  90.224  84.445  1.00  0.00    -0.300 OA
BRANCH  10  12
ATOM     12  C   UNL     1      84.803  91.809  86.027  1.00  0.00     0.080 C 
BRANCH  12  13
ATOM     13  C   UNL     1      83.878  91.615  87.230  1.00  0.00     0.043 C 
BRANCH  13  14
ATOM     14  C   UNL     1      83.285  92.908  87.735  1.00  0.00    -0.044 A 
ATOM     15  C   UNL     1      82.270  92.884  88.691  1.00  0.00     0.054 A 
ATOM     16  C   UNL     1      83.754  94.128  87.245  1.00  0.00     0.008 A 
ATOM     17  C   UNL     1      81.724  94.080  89.158  1.00  0.00     0.160 A 
ATOM     18  C   UNL     1      83.207  95.324  87.712  1.00  0.00     0.050 A 
ATOM     19  C   UNL     1      82.192  95.299  88.668  1.00  0.00     0.157 A 
BRANCH  17  20
ATOM     20  O   UNL     1      80.733  94.044  90.092  1.00  0.00    -0.493 OA
ATOM     21  C   UNL     1      79.905  92.882  90.114  1.00  0.00     0.278 C 
ENDBRANCH  17  20
BRANCH  19  22
ATOM     22  O   UNL     1      81.666  96.473  89.116  1.00  0.00    -0.504 OA
ATOM     23  H   UNL     1      80.755  96.318  89.418  1.00  0.00     0.293 HD
ENDBRANCH  19  22
ENDBRANCH  13  14
ENDBRANCH  12  13
ENDBRANCH  10  12
ENDBRANCH   1  10
TORSDOF 12
ENDMDL
MODEL 6
REMARK VINA RESULT:    -5.164     12.983     16.610
REMARK INTER + INTRA:         -10.662
REMARK INTER:                  -9.747
REMARK INTRA:                  -0.915
REMARK UNBOUND:                -2.177
REMARK SMILES CCCCC[C@H](O)CC(=O)CCc1ccc(O)c(OC)c1
REMARK SMILES IDX 8 1 6 2 7 3 5 5 4 6 3 7 2 8 1 9 9 10 10 11 11 12 12 13 13 14
REMARK SMILES IDX 21 15 14 16 18 17 15 18 16 19 19 20 20 21 17 22
REMARK H PARENT 7 4 17 23
REMARK Flexibility Score: inf
ROOT
ATOM      1  C   UNL     1      93.102  94.197  76.576  1.00  0.00     0.107 C 
ENDROOT
BRANCH   1   2
ATOM      2  C   UNL     1      94.335  94.663  75.797  1.00  0.00     0.121 C 
BRANCH   2   3
ATOM      3  O   UNL     1      94.854  93.584  75.024  1.00  0.00    -0.393 OA
ATOM      4  H   UNL     1      95.143  92.888  75.640  1.00  0.00     0.210 HD
ENDBRANCH   2   3
BRANCH   2   5
ATOM      5  C   UNL     1      94.047  95.853  74.874  1.00  0.00     0.032 C 
BRANCH   5   6
ATOM      6  C   UNL     1      95.185  96.881  74.886  1.00  0.00     0.003 C 
BRANCH   6   7
ATOM      7  C   UNL     1      96.474  96.350  75.523  1.00  0.00    -0.000 C 
BRANCH   7   8
ATOM      8  C   UNL     1      96.947  97.171  76.721  1.00  0.00    -0.003 C 
ATOM      9  C   UNL     1      96.784  96.398  78.021  1.00  0.00     0.004 C 
ENDBRANCH   7   8
ENDBRANCH   6   7
ENDBRANCH   5   6
ENDBRANCH   2   5
ENDBRANCH   1   2
BRANCH   1  10
ATOM     10  C   UNL     1      91.994  93.671  75.679  1.00  0.00     0.135 C 
ATOM     11  O   UNL     1      92.247  92.930  74.729  1.00  0.00    -0.300 OA
BRANCH  10  12
ATOM     12  C   UNL     1      90.573  94.069  76.045  1.00  0.00     0.080 C 
BRANCH  12  13
ATOM     13  C   UNL     1      89.939  93.176  77.113  1.00  0.00     0.043 C 
BRANCH  13  14
ATOM     14  C   UNL     1      89.794  91.738  76.673  1.00  0.00    -0.044 A 
ATOM     15  C   UNL     1      89.164  91.439  75.465  1.00  0.00     0.054 A 
ATOM     16  C   UNL     1      90.290  90.710  77.475  1.00  0.00     0.008 A 
ATOM     17  C   UNL     1      89.031  90.111  75.059  1.00  0.00     0.160 A 
ATOM     18  C   UNL     1      90.157  89.382  77.069  1.00  0.00     0.050 A 
ATOM     19  C   UNL     1      89.527  89.083  75.861  1.00  0.00     0.157 A 
BRANCH  17  20
ATOM     20  O   UNL     1      88.413  89.831  73.878  1.00  0.00    -0.493 OA
ATOM     21  C   UNL     1      88.985  90.392  72.698  1.00  0.00     0.278 C 
ENDBRANCH  17  20
BRANCH  19  22
ATOM     22  O   UNL     1      89.403  87.783  75.476  1.00  0.00    -0.504 OA
ATOM     23  H   UNL     1      88.855  87.741  74.673  1.00  0.00     0.293 HD
ENDBRANCH  19  22
ENDBRANCH  13  14
ENDBRANCH  12  13
ENDBRANCH  10  12
ENDBRANCH   1  10
TORSDOF 12
ENDMDL
MODEL 7
REMARK VINA RESULT:    -5.118     13.021     17.596
REMARK INTER + INTRA:         -10.587
REMARK INTER:                  -8.946
REMARK INTRA:                  -1.640
REMARK UNBOUND:                -2.177
REMARK SMILES CCCCC[C@H](O)CC(=O)CCc1ccc(O)c(OC)c1
REMARK SMILES IDX 8 1 6 2 7 3 5 5 4 6 3 7 2 8 1 9 9 10 10 11 11 12 12 13 13 14
REMARK SMILES IDX 21 15 14 16 18 17 15 18 16 19 19 20 20 21 17 22
REMARK H PARENT 7 4 17 23
REMARK Flexibility Score: inf
ROOT
ATOM      1  C   UNL     1      95.416  95.525  80.250  1.00  0.00     0.107 C 
ENDROOT
BRANCH   1   2
ATOM      2  C   UNL     1      96.726  95.966  80.909  1.00  0.00     0.121 C 
BRANCH   2   3
ATOM      3  O   UNL     1      97.606  94.851  81.029  1.00  0.00    -0.393 OA
ATOM      4  H   UNL     1      98.016  94.890  81.911  1.00  0.00     0.210 HD
ENDBRANCH   2   3
BRANCH   2   5
ATOM      5  C   UNL     1      97.435  97.089  80.142  1.00  0.00     0.032 C 
BRANCH   5   6
ATOM      6  C   UNL     1      97.111  97.058  78.643  1.00  0.00     0.003 C 
BRANCH   6   7
ATOM      7  C   UNL     1      98.116  96.244  77.822  1.00  0.00    -0.000 C 
BRANCH   7   8
ATOM      8  C   UNL     1      97.766  96.157  76.337  1.00  0.00    -0.003 C 
ATOM      9  C   UNL     1      96.669  97.144  75.968  1.00  0.00     0.004 C 
ENDBRANCH   7   8
ENDBRANCH   6   7
ENDBRANCH   5   6
ENDBRANCH   2   5
ENDBRANCH   1   2
BRANCH   1  10
ATOM     10  C   UNL     1      95.393  94.045  79.904  1.00  0.00     0.135 C 
ATOM     11  O   UNL     1      95.275  93.192  80.783  1.00  0.00    -0.300 OA
BRANCH  10  12
ATOM     12  C   UNL     1      95.476  93.688  78.428  1.00  0.00     0.080 C 
BRANCH  12  13
ATOM     13  C   UNL     1      94.660  94.615  77.524  1.00  0.00     0.043 C 
BRANCH  13  14
ATOM     14  C   UNL     1      93.547  93.902  76.795  1.00  0.00    -0.044 A 
ATOM     15  C   UNL     1      92.398  93.514  77.483  1.00  0.00     0.054 A 
ATOM     16  C   UNL     1      93.669  93.631  75.431  1.00  0.00     0.008 A 
ATOM     17  C   UNL     1      91.370  92.856  76.808  1.00  0.00     0.160 A 
ATOM     18  C   UNL     1      92.641  92.973  74.756  1.00  0.00     0.050 A 
ATOM     19  C   UNL     1      91.491  92.585  75.444  1.00  0.00     0.157 A 
BRANCH  17  20
ATOM     20  O   UNL     1      90.252  92.481  77.491  1.00  0.00    -0.493 OA
ATOM     21  C   UNL     1      90.335  91.285  78.263  1.00  0.00     0.278 C 
ENDBRANCH  17  20
BRANCH  19  22
ATOM     22  O   UNL     1      90.494  91.943  74.774  1.00  0.00    -0.504 OA
ATOM     23  H   UNL     1      90.776  91.032  74.584  1.00  0.00     0.293 HD
ENDBRANCH  19  22
ENDBRANCH  13  14
ENDBRANCH  12  13
ENDBRANCH  10  12
ENDBRANCH   1  10
TORSDOF 12
ENDMDL
MODEL 8
REMARK VINA RESULT:    -4.908     19.796     23.321
REMARK INTER + INTRA:         -10.242
REMARK INTER:                  -9.040
REMARK INTRA:                  -1.202
REMARK UNBOUND:                -2.177
REMARK SMILES CCCCC[C@H](O)CC(=O)CCc1ccc(O)c(OC)c1
REMARK SMILES IDX 8 1 6 2 7 3 5 5 4 6 3 7 2 8 1 9 9 10 10 11 11 12 12 13 13 14
REMARK SMILES IDX 21 15 14 16 18 17 15 18 16 19 19 20 20 21 17 22
REMARK H PARENT 7 4 17 23
REMARK Flexibility Score: inf
ROOT
ATOM      1  C   UNL     1      76.517  85.980  66.737  1.00  0.00     0.107 C 
ENDROOT
BRANCH   1   2
ATOM      2  C   UNL     1      77.657  86.898  67.185  1.00  0.00     0.121 C 
BRANCH   2   3
ATOM      3  O   UNL     1      78.805  86.118  67.512  1.00  0.00    -0.393 OA
ATOM      4  H   UNL     1      78.527  85.186  67.563  1.00  0.00     0.210 HD
ENDBRANCH   2   3
BRANCH   2   5
ATOM      5  C   UNL     1      78.040  87.940  66.127  1.00  0.00     0.032 C 
BRANCH   5   6
ATOM      6  C   UNL     1      77.476  87.591  64.744  1.00  0.00     0.003 C 
BRANCH   6   7
ATOM      7  C   UNL     1      77.428  88.789  63.789  1.00  0.00    -0.000 C 
BRANCH   7   8
ATOM      8  C   UNL     1      77.092  90.109  64.480  1.00  0.00    -0.003 C 
ATOM      9  C   UNL     1      77.733  91.288  63.764  1.00  0.00     0.004 C 
ENDBRANCH   7   8
ENDBRANCH   6   7
ENDBRANCH   5   6
ENDBRANCH   2   5
ENDBRANCH   1   2
BRANCH   1  10
ATOM     10  C   UNL     1      76.751  84.521  67.092  1.00  0.00     0.135 C 
ATOM     11  O   UNL     1      76.656  84.130  68.255  1.00  0.00    -0.300 OA
BRANCH  10  12
ATOM     12  C   UNL     1      77.061  83.580  65.938  1.00  0.00     0.080 C 
BRANCH  12  13
ATOM     13  C   UNL     1      76.228  83.849  64.684  1.00  0.00     0.043 C 
BRANCH  13  14
ATOM     14  C   UNL     1      75.051  82.914  64.543  1.00  0.00    -0.044 A 
ATOM     15  C   UNL     1      73.768  83.430  64.357  1.00  0.00     0.054 A 
ATOM     16  C   UNL     1      75.246  81.534  64.600  1.00  0.00     0.008 A 
ATOM     17  C   UNL     1      72.681  82.565  64.226  1.00  0.00     0.160 A 
ATOM     18  C   UNL     1      74.159  80.669  64.469  1.00  0.00     0.050 A 
ATOM     19  C   UNL     1      72.877  81.185  64.282  1.00  0.00     0.157 A 
BRANCH  17  20
ATOM     20  O   UNL     1      71.433  83.081  64.044  1.00  0.00    -0.493 OA
ATOM     21  C   UNL     1      70.746  83.538  65.208  1.00  0.00     0.278 C 
ENDBRANCH  17  20
BRANCH  19  22
ATOM     22  O   UNL     1      71.824  80.331  64.156  1.00  0.00    -0.504 OA
ATOM     23  H   UNL     1      72.140  79.418  64.273  1.00  0.00     0.293 HD
ENDBRANCH  19  22
ENDBRANCH  13  14
ENDBRANCH  12  13
ENDBRANCH  10  12
ENDBRANCH   1  10
TORSDOF 12
ENDMDL
MODEL 9
REMARK VINA RESULT:    -4.843     12.907     16.153
REMARK INTER + INTRA:         -10.134
REMARK INTER:                  -8.987
REMARK INTRA:                  -1.147
REMARK UNBOUND:                -2.177
REMARK SMILES CCCCC[C@H](O)CC(=O)CCc1ccc(O)c(OC)c1
REMARK SMILES IDX 8 1 6 2 7 3 5 5 4 6 3 7 2 8 1 9 9 10 10 11 11 12 12 13 13 14
REMARK SMILES IDX 21 15 14 16 18 17 15 18 16 19 19 20 20 21 17 22
REMARK H PARENT 7 4 17 23
REMARK Flexibility Score: inf
ROOT
ATOM      1  C   UNL     1      90.546  93.920  76.433  1.00  0.00     0.107 C 
ENDROOT
BRANCH   1   2
ATOM      2  C   UNL     1      89.576  92.758  76.658  1.00  0.00     0.121 C 
BRANCH   2   3
ATOM      3  O   UNL     1      89.555  91.916  75.507  1.00  0.00    -0.393 OA
ATOM      4  H   UNL     1      90.034  92.374  74.795  1.00  0.00     0.210 HD
ENDBRANCH   2   3
BRANCH   2   5
ATOM      5  C   UNL     1      89.922  91.918  77.893  1.00  0.00     0.032 C 
BRANCH   5   6
ATOM      6  C   UNL     1      90.406  90.512  77.516  1.00  0.00     0.003 C 
BRANCH   6   7
ATOM      7  C   UNL     1      89.684  89.397  78.281  1.00  0.00    -0.000 C 
BRANCH   7   8
ATOM      8  C   UNL     1      89.628  88.072  77.523  1.00  0.00    -0.003 C 
ATOM      9  C   UNL     1      90.748  87.971  76.499  1.00  0.00     0.004 C 
ENDBRANCH   7   8
ENDBRANCH   6   7
ENDBRANCH   5   6
ENDBRANCH   2   5
ENDBRANCH   1   2
BRANCH   1  10
ATOM     10  C   UNL     1      91.688  93.570  75.494  1.00  0.00     0.135 C 
ATOM     11  O   UNL     1      91.592  93.760  74.281  1.00  0.00    -0.300 OA
BRANCH  10  12
ATOM     12  C   UNL     1      92.954  93.021  76.135  1.00  0.00     0.080 C 
BRANCH  12  13
ATOM     13  C   UNL     1      93.389  93.784  77.387  1.00  0.00     0.043 C 
BRANCH  13  14
ATOM     14  C   UNL     1      94.707  94.502  77.215  1.00  0.00    -0.044 A 
ATOM     15  C   UNL     1      95.103  94.939  75.951  1.00  0.00     0.054 A 
ATOM     16  C   UNL     1      95.527  94.728  78.321  1.00  0.00     0.008 A 
ATOM     17  C   UNL     1      96.320  95.603  75.793  1.00  0.00     0.160 A 
ATOM     18  C   UNL     1      96.744  95.392  78.163  1.00  0.00     0.050 A 
ATOM     19  C   UNL     1      97.141  95.829  76.899  1.00  0.00     0.157 A 
BRANCH  17  20
ATOM     20  O   UNL     1      96.697  96.025  74.554  1.00  0.00    -0.493 OA
ATOM     21  C   UNL     1      96.080  97.211  74.058  1.00  0.00     0.278 C 
ENDBRANCH  17  20
BRANCH  19  22
ATOM     22  O   UNL     1      98.331  96.475  76.757  1.00  0.00    -0.504 OA
ATOM     23  H   UNL     1      98.751  96.560  77.630  1.00  0.00     0.293 HD
ENDBRANCH  19  22
ENDBRANCH  13  14
ENDBRANCH  12  13
ENDBRANCH  10  12
ENDBRANCH   1  10
TORSDOF 12
ENDMDL
MODEL 10
REMARK VINA RESULT:    -4.641     23.542     25.360
REMARK INTER + INTRA:          -9.802
REMARK INTER:                  -8.938
REMARK INTRA:                  -0.865
REMARK UNBOUND:                -2.177
REMARK SMILES CCCCC[C@H](O)CC(=O)CCc1ccc(O)c(OC)c1
REMARK SMILES IDX 8 1 6 2 7 3 5 5 4 6 3 7 2 8 1 9 9 10 10 11 11 12 12 13 13 14
REMARK SMILES IDX 21 15 14 16 18 17 15 18 16 19 19 20 20 21 17 22
REMARK H PARENT 7 4 17 23
REMARK Flexibility Score: inf
ROOT
ATOM      1  C   UNL     1      83.299  65.603  75.882  1.00  0.00     0.107 C 
ENDROOT
BRANCH   1   2
ATOM      2  C   UNL     1      81.771  65.519  75.840  1.00  0.00     0.121 C 
BRANCH   2   3
ATOM      3  O   UNL     1      81.217  66.830  75.743  1.00  0.00    -0.393 OA
ATOM      4  H   UNL     1      81.624  67.269  74.976  1.00  0.00     0.210 HD
ENDBRANCH   2   3
BRANCH   2   5
ATOM      5  C   UNL     1      81.248  64.664  74.679  1.00  0.00     0.032 C 
BRANCH   5   6
ATOM      6  C   UNL     1      80.094  65.346  73.934  1.00  0.00     0.003 C 
BRANCH   6   7
ATOM      7  C   UNL     1      80.331  65.462  72.425  1.00  0.00    -0.000 C 
BRANCH   7   8
ATOM      8  C   UNL     1      80.270  66.897  71.905  1.00  0.00    -0.003 C 
ATOM      9  C   UNL     1      81.500  67.690  72.320  1.00  0.00     0.004 C 
ENDBRANCH   7   8
ENDBRANCH   6   7
ENDBRANCH   5   6
ENDBRANCH   2   5
ENDBRANCH   1   2
BRANCH   1  10
ATOM     10  C   UNL     1      83.961  64.261  76.147  1.00  0.00     0.135 C 
ATOM     11  O   UNL     1      84.692  63.739  75.305  1.00  0.00    -0.300 OA
BRANCH  10  12
ATOM     12  C   UNL     1      83.710  63.633  77.510  1.00  0.00     0.080 C 
BRANCH  12  13
ATOM     13  C   UNL     1      84.978  63.123  78.196  1.00  0.00     0.043 C 
BRANCH  13  14
ATOM     14  C   UNL     1      85.366  63.939  79.406  1.00  0.00    -0.044 A 
ATOM     15  C   UNL     1      86.066  65.134  79.248  1.00  0.00     0.054 A 
ATOM     16  C   UNL     1      85.022  63.495  80.684  1.00  0.00     0.008 A 
ATOM     17  C   UNL     1      86.422  65.887  80.367  1.00  0.00     0.160 A 
ATOM     18  C   UNL     1      85.379  64.248  81.803  1.00  0.00     0.050 A 
ATOM     19  C   UNL     1      86.079  65.444  81.644  1.00  0.00     0.157 A 
BRANCH  17  20
ATOM     20  O   UNL     1      87.106  67.053  80.199  1.00  0.00    -0.493 OA
ATOM     21  C   UNL     1      88.365  66.976  79.534  1.00  0.00     0.278 C 
ENDBRANCH  17  20
BRANCH  19  22
ATOM     22  O   UNL     1      86.421  66.170  82.744  1.00  0.00    -0.504 OA
ATOM     23  H   UNL     1      86.841  65.581  83.395  1.00  0.00     0.293 HD
ENDBRANCH  19  22
ENDBRANCH  13  14
ENDBRANCH  12  13
ENDBRANCH  10  12
ENDBRANCH   1  10
TORSDOF 12
ENDMDL
