MODEL 1
REMARK VINA RESULT:    -5.676      0.000      0.000
REMARK INTER + INTRA:         -10.138
REMARK INTER:                  -8.829
REMARK INTRA:                  -1.309
REMARK UNBOUND:                -1.309
REMARK SMILES COc1cc(CNC(=O)CCCCCC(C)C)ccc1O
REMARK SMILES IDX 10 1 8 2 7 3 9 5 6 6 5 7 3 8 20 9 4 10 19 11 18 12 2 13 1 14
REMARK SMILES IDX 21 15 11 17 12 18 13 19 14 20 15 21 16 22 17 23
REMARK H PARENT 7 4 21 16
REMARK Flexibility Score: inf
ROOT
ATOM      1  C   UNL     1      98.300  95.517  78.403  1.00  0.00     0.100 C 
ENDROOT
BRANCH   1   2
ATOM      2  C   UNL     1      97.069  95.012  79.046  1.00  0.00     0.220 C 
ATOM      3  N   UNL     1      96.207  94.239  78.327  1.00  0.00    -0.352 N 
ATOM      4  H   UNL     1      96.416  94.174  77.341  1.00  0.00     0.163 HD
ATOM      5  O   UNL     1      96.864  95.272  80.257  1.00  0.00    -0.275 OA
BRANCH   3   6
ATOM      6  C   UNL     1      95.080  93.547  78.866  1.00  0.00     0.151 C 
BRANCH   6   7
ATOM      7  C   UNL     1      93.789  93.978  78.266  1.00  0.00    -0.025 A 
ATOM      8  C   UNL     1      91.420  93.547  77.767  1.00  0.00     0.160 A 
ATOM      9  C   UNL     1      91.312  94.826  77.183  1.00  0.00     0.157 A 
ATOM     10  C   UNL     1      92.661  93.123  78.288  1.00  0.00     0.056 A 
ATOM     11  C   UNL     1      92.434  95.674  77.132  1.00  0.00     0.050 A 
ATOM     12  C   UNL     1      93.661  95.256  77.674  1.00  0.00     0.009 A 
BRANCH   8  13
ATOM     13  O   UNL     1      90.345  92.698  77.809  1.00  0.00    -0.493 OA
ATOM     14  C   UNL     1      90.242  91.831  76.663  1.00  0.00     0.278 C 
ENDBRANCH   8  13
BRANCH   9  15
ATOM     15  O   UNL     1      90.124  95.242  76.678  1.00  0.00    -0.504 OA
ATOM     16  H   UNL     1      89.932  96.127  76.997  1.00  0.00     0.293 HD
ENDBRANCH   9  15
ENDBRANCH   6   7
ENDBRANCH   3   6
ENDBRANCH   1   2
BRANCH   1  17
ATOM     17  C   UNL     1      98.379  97.065  78.303  1.00  0.00     0.010 C 
BRANCH  17  18
ATOM     18  C   UNL     1      97.104  97.662  77.648  1.00  0.00     0.001 C 
BRANCH  18  19
ATOM     19  C   UNL     1      97.311  98.085  76.169  1.00  0.00     0.000 C 
BRANCH  19  20
ATOM     20  C   UNL     1      96.856  96.981  75.172  1.00  0.00     0.003 C 
BRANCH  20  21
ATOM     21  C   UNL     1      95.313  96.902  74.933  1.00  0.00    -0.017 C 
ATOM     22  C   UNL     1      94.934  95.598  74.171  1.00  0.00     0.007 C 
ATOM     23  C   UNL     1      94.754  98.143  74.177  1.00  0.00     0.007 C 
ENDBRANCH  20  21
ENDBRANCH  19  20
ENDBRANCH  18  19
ENDBRANCH  17  18
ENDBRANCH   1  17
TORSDOF 10
ENDMDL
MODEL 2
REMARK VINA RESULT:    -5.562      3.532      5.747
REMARK INTER + INTRA:          -9.961
REMARK INTER:                  -9.392
REMARK INTRA:                  -0.569
REMARK UNBOUND:                -1.309
REMARK SMILES COc1cc(CNC(=O)CCCCCC(C)C)ccc1O
REMARK SMILES IDX 10 1 8 2 7 3 9 5 6 6 5 7 3 8 20 9 4 10 19 11 18 12 2 13 1 14
REMARK SMILES IDX 21 15 11 17 12 18 13 19 14 20 15 21 16 22 17 23
REMARK H PARENT 7 4 21 16
REMARK Flexibility Score: inf
ROOT
ATOM      1  C   UNL     1      94.692  98.103  74.177  1.00  0.00     0.100 C 
ENDROOT
BRANCH   1   2
ATOM      2  C   UNL     1      94.677  96.626  74.226  1.00  0.00     0.220 C 
ATOM      3  N   UNL     1      93.895  95.994  75.146  1.00  0.00    -0.352 N 
ATOM      4  H   UNL     1      93.471  96.602  75.832  1.00  0.00     0.163 HD
ATOM      5  O   UNL     1      95.356  95.983  73.388  1.00  0.00    -0.275 OA
BRANCH   3   6
ATOM      6  C   UNL     1      93.654  94.588  75.192  1.00  0.00     0.151 C 
BRANCH   6   7
ATOM      7  C   UNL     1      93.853  94.004  76.546  1.00  0.00    -0.025 A 
ATOM      8  C   UNL     1      95.349  93.321  78.374  1.00  0.00     0.160 A 
ATOM      9  C   UNL     1      94.229  92.956  79.151  1.00  0.00     0.157 A 
ATOM     10  C   UNL     1      95.155  93.825  77.070  1.00  0.00     0.056 A 
ATOM     11  C   UNL     1      92.931  93.105  78.629  1.00  0.00     0.050 A 
ATOM     12  C   UNL     1      92.744  93.630  77.339  1.00  0.00     0.009 A 
BRANCH   8  13
ATOM     13  O   UNL     1      96.622  93.165  78.856  1.00  0.00    -0.493 OA
ATOM     14  C   UNL     1      97.309  94.408  79.098  1.00  0.00     0.278 C 
ENDBRANCH   8  13
BRANCH   9  15
ATOM     15  O   UNL     1      94.404  92.468  80.405  1.00  0.00    -0.504 OA
ATOM     16  H   UNL     1      94.726  91.565  80.355  1.00  0.00     0.293 HD
ENDBRANCH   9  15
ENDBRANCH   6   7
ENDBRANCH   3   6
ENDBRANCH   1   2
BRANCH   1  17
ATOM     17  C   UNL     1      93.432  98.732  73.523  1.00  0.00     0.010 C 
BRANCH  17  18
ATOM     18  C   UNL     1      93.755  99.348  72.134  1.00  0.00     0.001 C 
BRANCH  18  19
ATOM     19  C   UNL     1      92.562 100.118  71.509  1.00  0.00     0.000 C 
BRANCH  19  20
ATOM     20  C   UNL     1      91.855  99.300  70.389  1.00  0.00     0.003 C 
BRANCH  20  21
ATOM     21  C   UNL     1      90.361  98.939  70.679  1.00  0.00    -0.017 C 
ATOM     22  C   UNL     1      89.720  98.211  69.461  1.00  0.00     0.007 C 
ATOM     23  C   UNL     1      89.505 100.178  71.071  1.00  0.00     0.007 C 
ENDBRANCH  20  21
ENDBRANCH  19  20
ENDBRANCH  18  19
ENDBRANCH  17  18
ENDBRANCH   1  17
TORSDOF 10
ENDMDL
MODEL 3
REMARK VINA RESULT:    -5.560      9.259     12.477
REMARK INTER + INTRA:          -9.957
REMARK INTER:                  -9.078
REMARK INTRA:                  -0.879
REMARK UNBOUND:                -1.309
REMARK SMILES COc1cc(CNC(=O)CCCCCC(C)C)ccc1O
REMARK SMILES IDX 10 1 8 2 7 3 9 5 6 6 5 7 3 8 20 9 4 10 19 11 18 12 2 13 1 14
REMARK SMILES IDX 21 15 11 17 12 18 13 19 14 20 15 21 16 22 17 23
REMARK H PARENT 7 4 21 16
REMARK Flexibility Score: inf
ROOT
ATOM      1  C   UNL     1      89.826  98.018  69.927  1.00  0.00     0.100 C 
ENDROOT
BRANCH   1   2
ATOM      2  C   UNL     1      89.525  98.201  68.492  1.00  0.00     0.220 C 
ATOM      3  N   UNL     1      88.414  98.901  68.125  1.00  0.00    -0.352 N 
ATOM      4  H   UNL     1      87.791  99.138  68.884  1.00  0.00     0.163 HD
ATOM      5  O   UNL     1      90.323  97.744  67.638  1.00  0.00    -0.275 OA
BRANCH   3   6
ATOM      6  C   UNL     1      88.097  99.299  66.791  1.00  0.00     0.151 C 
BRANCH   6   7
ATOM      7  C   UNL     1      88.120 100.775  66.600  1.00  0.00    -0.025 A 
ATOM      8  C   UNL     1      89.377 102.879  66.398  1.00  0.00     0.160 A 
ATOM      9  C   UNL     1      88.170 103.575  66.171  1.00  0.00     0.157 A 
ATOM     10  C   UNL     1      89.343 101.487  66.630  1.00  0.00     0.056 A 
ATOM     11  C   UNL     1      86.947 102.880  66.166  1.00  0.00     0.050 A 
ATOM     12  C   UNL     1      86.922 101.491  66.373  1.00  0.00     0.009 A 
BRANCH   8  13
ATOM     13  O   UNL     1      90.577 103.540  66.427  1.00  0.00    -0.493 OA
ATOM     14  C   UNL     1      91.193 103.571  67.729  1.00  0.00     0.278 C 
ENDBRANCH   8  13
BRANCH   9  15
ATOM     15  O   UNL     1      88.192 104.913  65.949  1.00  0.00    -0.504 OA
ATOM     16  H   UNL     1      87.350 105.294  66.209  1.00  0.00     0.293 HD
ENDBRANCH   9  15
ENDBRANCH   6   7
ENDBRANCH   3   6
ENDBRANCH   1   2
BRANCH   1  17
ATOM     17  C   UNL     1      89.744  99.320  70.768  1.00  0.00     0.010 C 
BRANCH  17  18
ATOM     18  C   UNL     1      90.838 100.342  70.350  1.00  0.00     0.001 C 
BRANCH  18  19
ATOM     19  C   UNL     1      91.872 100.629  71.471  1.00  0.00     0.000 C 
BRANCH  19  20
ATOM     20  C   UNL     1      92.623  99.343  71.922  1.00  0.00     0.003 C 
BRANCH  20  21
ATOM     21  C   UNL     1      93.229  99.403  73.362  1.00  0.00    -0.017 C 
ATOM     22  C   UNL     1      94.384 100.446  73.435  1.00  0.00     0.007 C 
ATOM     23  C   UNL     1      93.728  98.018  73.866  1.00  0.00     0.007 C 
ENDBRANCH  20  21
ENDBRANCH  19  20
ENDBRANCH  18  19
ENDBRANCH  17  18
ENDBRANCH   1  17
TORSDOF 10
ENDMDL
MODEL 4
REMARK VINA RESULT:    -5.377      9.761     12.953
REMARK INTER + INTRA:          -9.673
REMARK INTER:                  -7.572
REMARK INTRA:                  -2.101
REMARK UNBOUND:                -1.309
REMARK SMILES COc1cc(CNC(=O)CCCCCC(C)C)ccc1O
REMARK SMILES IDX 10 1 8 2 7 3 9 5 6 6 5 7 3 8 20 9 4 10 19 11 18 12 2 13 1 14
REMARK SMILES IDX 21 15 11 17 12 18 13 19 14 20 15 21 16 22 17 23
REMARK H PARENT 7 4 21 16
REMARK Flexibility Score: inf
ROOT
ATOM      1  C   UNL     1      89.652  97.830  70.051  1.00  0.00     0.100 C 
ENDROOT
BRANCH   1   2
ATOM      2  C   UNL     1      89.534  98.013  68.590  1.00  0.00     0.220 C 
ATOM      3  N   UNL     1      88.547  98.810  68.093  1.00  0.00    -0.352 N 
ATOM      4  H   UNL     1      87.869  99.121  68.773  1.00  0.00     0.163 HD
ATOM      5  O   UNL     1      90.374  97.462  67.837  1.00  0.00    -0.275 OA
BRANCH   3   6
ATOM      6  C   UNL     1      88.423  99.210  66.728  1.00  0.00     0.151 C 
BRANCH   6   7
ATOM      7  C   UNL     1      89.042 100.534  66.449  1.00  0.00    -0.025 A 
ATOM      8  C   UNL     1      88.848 102.976  66.232  1.00  0.00     0.160 A 
ATOM      9  C   UNL     1      90.234 103.062  65.983  1.00  0.00     0.157 A 
ATOM     10  C   UNL     1      88.258 101.712  66.445  1.00  0.00     0.056 A 
ATOM     11  C   UNL     1      91.019 101.894  65.959  1.00  0.00     0.050 A 
ATOM     12  C   UNL     1      90.430 100.641  66.195  1.00  0.00     0.009 A 
BRANCH   8  13
ATOM     13  O   UNL     1      88.063 104.098  66.241  1.00  0.00    -0.493 OA
ATOM     14  C   UNL     1      86.661 103.826  66.432  1.00  0.00     0.278 C 
ENDBRANCH   8  13
BRANCH   9  15
ATOM     15  O   UNL     1      90.811 104.272  65.776  1.00  0.00    -0.504 OA
ATOM     16  H   UNL     1      91.279 104.544  66.569  1.00  0.00     0.293 HD
ENDBRANCH   9  15
ENDBRANCH   6   7
ENDBRANCH   3   6
ENDBRANCH   1   2
BRANCH   1  17
ATOM     17  C   UNL     1      90.166  99.082  70.812  1.00  0.00     0.010 C 
BRANCH  17  18
ATOM     18  C   UNL     1      91.614  99.454  70.390  1.00  0.00     0.001 C 
BRANCH  18  19
ATOM     19  C   UNL     1      91.708 100.811  69.643  1.00  0.00     0.000 C 
BRANCH  19  20
ATOM     20  C   UNL     1      90.414 101.660  69.799  1.00  0.00     0.003 C 
BRANCH  20  21
ATOM     21  C   UNL     1      90.650 103.195  69.981  1.00  0.00    -0.017 C 
ATOM     22  C   UNL     1      89.392 104.005  69.547  1.00  0.00     0.007 C 
ATOM     23  C   UNL     1      91.905 103.708  69.218  1.00  0.00     0.007 C 
ENDBRANCH  20  21
ENDBRANCH  19  20
ENDBRANCH  18  19
ENDBRANCH  17  18
ENDBRANCH   1  17
TORSDOF 10
ENDMDL
MODEL 5
REMARK VINA RESULT:    -5.359      9.912     12.961
REMARK INTER + INTRA:          -9.645
REMARK INTER:                  -8.666
REMARK INTRA:                  -0.980
REMARK UNBOUND:                -1.309
REMARK SMILES COc1cc(CNC(=O)CCCCCC(C)C)ccc1O
REMARK SMILES IDX 10 1 8 2 7 3 9 5 6 6 5 7 3 8 20 9 4 10 19 11 18 12 2 13 1 14
REMARK SMILES IDX 21 15 11 17 12 18 13 19 14 20 15 21 16 22 17 23
REMARK H PARENT 7 4 21 16
REMARK Flexibility Score: inf
ROOT
ATOM      1  C   UNL     1      89.603  98.020  69.408  1.00  0.00     0.100 C 
ENDROOT
BRANCH   1   2
ATOM      2  C   UNL     1      89.208  98.335  68.019  1.00  0.00     0.220 C 
ATOM      3  N   UNL     1      88.078  99.062  67.794  1.00  0.00    -0.352 N 
ATOM      4  H   UNL     1      87.507  99.225  68.611  1.00  0.00     0.163 HD
ATOM      5  O   UNL     1      89.948  97.962  67.076  1.00  0.00    -0.275 OA
BRANCH   3   6
ATOM      6  C   UNL     1      87.674  99.582  66.527  1.00  0.00     0.151 C 
BRANCH   6   7
ATOM      7  C   UNL     1      87.848 101.056  66.418  1.00  0.00    -0.025 A 
ATOM      8  C   UNL     1      86.880 103.309  66.231  1.00  0.00     0.160 A 
ATOM      9  C   UNL     1      88.175 103.867  66.278  1.00  0.00     0.157 A 
ATOM     10  C   UNL     1      86.726 101.907  66.282  1.00  0.00     0.056 A 
ATOM     11  C   UNL     1      89.300 103.028  66.386  1.00  0.00     0.050 A 
ATOM     12  C   UNL     1      89.138 101.635  66.461  1.00  0.00     0.009 A 
BRANCH   8  13
ATOM     13  O   UNL     1      85.773 104.107  66.106  1.00  0.00    -0.493 OA
ATOM     14  C   UNL     1      84.638 103.440  65.520  1.00  0.00     0.278 C 
ENDBRANCH   8  13
BRANCH   9  15
ATOM     15  O   UNL     1      88.335 105.213  66.228  1.00  0.00    -0.504 OA
ATOM     16  H   UNL     1      87.523 105.643  66.508  1.00  0.00     0.293 HD
ENDBRANCH   9  15
ENDBRANCH   6   7
ENDBRANCH   3   6
ENDBRANCH   1   2
BRANCH   1  17
ATOM     17  C   UNL     1      89.987  99.260  70.260  1.00  0.00     0.010 C 
BRANCH  17  18
ATOM     18  C   UNL     1      91.036 100.149  69.536  1.00  0.00     0.001 C 
BRANCH  18  19
ATOM     19  C   UNL     1      92.018 100.857  70.507  1.00  0.00     0.000 C 
BRANCH  19  20
ATOM     20  C   UNL     1      92.129 100.119  71.873  1.00  0.00     0.003 C 
BRANCH  20  21
ATOM     21  C   UNL     1      93.430  99.273  72.063  1.00  0.00    -0.017 C 
ATOM     22  C   UNL     1      93.575  98.802  73.540  1.00  0.00     0.007 C 
ATOM     23  C   UNL     1      94.714 100.030  71.615  1.00  0.00     0.007 C 
ENDBRANCH  20  21
ENDBRANCH  19  20
ENDBRANCH  18  19
ENDBRANCH  17  18
ENDBRANCH   1  17
TORSDOF 10
ENDMDL
MODEL 6
REMARK VINA RESULT:    -5.199      3.919      5.547
REMARK INTER + INTRA:          -9.396
REMARK INTER:                  -8.906
REMARK INTRA:                  -0.490
REMARK UNBOUND:                -1.309
REMARK SMILES COc1cc(CNC(=O)CCCCCC(C)C)ccc1O
REMARK SMILES IDX 10 1 8 2 7 3 9 5 6 6 5 7 3 8 20 9 4 10 19 11 18 12 2 13 1 14
REMARK SMILES IDX 21 15 11 17 12 18 13 19 14 20 15 21 16 22 17 23
REMARK H PARENT 7 4 21 16
REMARK Flexibility Score: inf
ROOT
ATOM      1  C   UNL     1      94.635  99.165  73.910  1.00  0.00     0.100 C 
ENDROOT
BRANCH   1   2
ATOM      2  C   UNL     1      95.019  97.739  73.863  1.00  0.00     0.220 C 
ATOM      3  N   UNL     1      94.326  96.834  74.610  1.00  0.00    -0.352 N 
ATOM      4  H   UNL     1      93.664  97.236  75.259  1.00  0.00     0.163 HD
ATOM      5  O   UNL     1      95.953  97.385  73.102  1.00  0.00    -0.275 OA
BRANCH   3   6
ATOM      6  C   UNL     1      94.475  95.416  74.530  1.00  0.00     0.151 C 
BRANCH   6   7
ATOM      7  C   UNL     1      94.013  94.710  75.755  1.00  0.00    -0.025 A 
ATOM      8  C   UNL     1      92.507  93.104  76.851  1.00  0.00     0.160 A 
ATOM      9  C   UNL     1      93.177  93.315  78.075  1.00  0.00     0.157 A 
ATOM     10  C   UNL     1      92.917  93.816  75.703  1.00  0.00     0.056 A 
ATOM     11  C   UNL     1      94.250  94.221  78.144  1.00  0.00     0.050 A 
ATOM     12  C   UNL     1      94.669  94.910  76.992  1.00  0.00     0.009 A 
BRANCH   8  13
ATOM     13  O   UNL     1      91.447  92.241  76.767  1.00  0.00    -0.493 OA
ATOM     14  C   UNL     1      90.955  92.052  75.426  1.00  0.00     0.278 C 
ENDBRANCH   8  13
BRANCH   9  15
ATOM     15  O   UNL     1      92.789  92.637  79.184  1.00  0.00    -0.504 OA
ATOM     16  H   UNL     1      93.428  92.780  79.886  1.00  0.00     0.293 HD
ENDBRANCH   9  15
ENDBRANCH   6   7
ENDBRANCH   3   6
ENDBRANCH   1   2
BRANCH   1  17
ATOM     17  C   UNL     1      93.246  99.472  73.289  1.00  0.00     0.010 C 
BRANCH  17  18
ATOM     18  C   UNL     1      93.263  99.318  71.743  1.00  0.00     0.001 C 
BRANCH  18  19
ATOM     19  C   UNL     1      91.949  99.786  71.062  1.00  0.00     0.000 C 
BRANCH  19  20
ATOM     20  C   UNL     1      91.656  99.004  69.750  1.00  0.00     0.003 C 
BRANCH  20  21
ATOM     21  C   UNL     1      90.180  98.511  69.591  1.00  0.00    -0.017 C 
ATOM     22  C   UNL     1      90.077  97.410  68.495  1.00  0.00     0.007 C 
ATOM     23  C   UNL     1      89.187  99.668  69.280  1.00  0.00     0.007 C 
ENDBRANCH  20  21
ENDBRANCH  19  20
ENDBRANCH  18  19
ENDBRANCH  17  18
ENDBRANCH   1  17
TORSDOF 10
ENDMDL
MODEL 7
REMARK VINA RESULT:    -5.172     10.489     13.384
REMARK INTER + INTRA:          -9.353
REMARK INTER:                  -8.280
REMARK INTRA:                  -1.073
REMARK UNBOUND:                -1.309
REMARK SMILES COc1cc(CNC(=O)CCCCCC(C)C)ccc1O
REMARK SMILES IDX 10 1 8 2 7 3 9 5 6 6 5 7 3 8 20 9 4 10 19 11 18 12 2 13 1 14
REMARK SMILES IDX 21 15 11 17 12 18 13 19 14 20 15 21 16 22 17 23
REMARK H PARENT 7 4 21 16
REMARK Flexibility Score: inf
ROOT
ATOM      1  C   UNL     1      89.678  97.980  69.158  1.00  0.00     0.100 C 
ENDROOT
BRANCH   1   2
ATOM      2  C   UNL     1      89.212  98.399  67.820  1.00  0.00     0.220 C 
ATOM      3  N   UNL     1      88.028  99.065  67.701  1.00  0.00    -0.352 N 
ATOM      4  H   UNL     1      87.479  99.109  68.547  1.00  0.00     0.163 HD
ATOM      5  O   UNL     1      89.939  98.170  66.822  1.00  0.00    -0.275 OA
BRANCH   3   6
ATOM      6  C   UNL     1      87.545  99.675  66.504  1.00  0.00     0.151 C 
BRANCH   6   7
ATOM      7  C   UNL     1      87.806 101.139  66.447  1.00  0.00    -0.025 A 
ATOM      8  C   UNL     1      89.384 103.025  66.444  1.00  0.00     0.160 A 
ATOM      9  C   UNL     1      88.308 103.922  66.273  1.00  0.00     0.157 A 
ATOM     10  C   UNL     1      89.125 101.642  66.549  1.00  0.00     0.056 A 
ATOM     11  C   UNL     1      86.990 103.435  66.198  1.00  0.00     0.050 A 
ATOM     12  C   UNL     1      86.741 102.054  66.279  1.00  0.00     0.009 A 
BRANCH   8  13
ATOM     13  O   UNL     1      90.672 103.480  66.539  1.00  0.00    -0.493 OA
ATOM     14  C   UNL     1      91.442 103.306  65.334  1.00  0.00     0.278 C 
ENDBRANCH   8  13
BRANCH   9  15
ATOM     15  O   UNL     1      88.545 105.254  66.173  1.00  0.00    -0.504 OA
ATOM     16  H   UNL     1      88.682 105.486  65.252  1.00  0.00     0.293 HD
ENDBRANCH   9  15
ENDBRANCH   6   7
ENDBRANCH   3   6
ENDBRANCH   1   2
BRANCH   1  17
ATOM     17  C   UNL     1      89.681  99.115  70.217  1.00  0.00     0.010 C 
BRANCH  17  18
ATOM     18  C   UNL     1      90.739 100.204  69.887  1.00  0.00     0.001 C 
BRANCH  18  19
ATOM     19  C   UNL     1      90.242 101.649  70.154  1.00  0.00     0.000 C 
BRANCH  19  20
ATOM     20  C   UNL     1      90.174 101.976  71.674  1.00  0.00     0.003 C 
BRANCH  20  21
ATOM     21  C   UNL     1      89.765 103.447  72.015  1.00  0.00    -0.017 C 
ATOM     22  C   UNL     1      90.954 104.423  71.773  1.00  0.00     0.007 C 
ATOM     23  C   UNL     1      89.232 103.604  73.468  1.00  0.00     0.007 C 
ENDBRANCH  20  21
ENDBRANCH  19  20
ENDBRANCH  18  19
ENDBRANCH  17  18
ENDBRANCH   1  17
TORSDOF 10
ENDMDL
MODEL 8
REMARK VINA RESULT:    -5.110     22.303     25.160
REMARK INTER + INTRA:          -9.258
REMARK INTER:                  -7.623
REMARK INTRA:                  -1.635
REMARK UNBOUND:                -1.309
REMARK SMILES COc1cc(CNC(=O)CCCCCC(C)C)ccc1O
REMARK SMILES IDX 10 1 8 2 7 3 9 5 6 6 5 7 3 8 20 9 4 10 19 11 18 12 2 13 1 14
REMARK SMILES IDX 21 15 11 17 12 18 13 19 14 20 15 21 16 22 17 23
REMARK H PARENT 7 4 21 16
REMARK Flexibility Score: inf
ROOT
ATOM      1  C   UNL     1      73.604  81.652  65.544  1.00  0.00     0.100 C 
ENDROOT
BRANCH   1   2
ATOM      2  C   UNL     1      72.722  82.838  65.571  1.00  0.00     0.220 C 
ATOM      3  N   UNL     1      73.163  83.987  66.155  1.00  0.00    -0.352 N 
ATOM      4  H   UNL     1      74.037  83.902  66.655  1.00  0.00     0.163 HD
ATOM      5  O   UNL     1      71.597  82.773  65.017  1.00  0.00    -0.275 OA
BRANCH   3   6
ATOM      6  C   UNL     1      72.493  85.247  66.101  1.00  0.00     0.151 C 
BRANCH   6   7
ATOM      7  C   UNL     1      73.200  86.318  66.853  1.00  0.00    -0.025 A 
ATOM      8  C   UNL     1      74.416  88.455  66.883  1.00  0.00     0.160 A 
ATOM      9  C   UNL     1      74.488  88.392  68.291  1.00  0.00     0.157 A 
ATOM     10  C   UNL     1      73.790  87.409  66.172  1.00  0.00     0.056 A 
ATOM     11  C   UNL     1      73.928  87.298  68.976  1.00  0.00     0.050 A 
ATOM     12  C   UNL     1      73.284  86.272  68.264  1.00  0.00     0.009 A 
BRANCH   8  13
ATOM     13  O   UNL     1      74.972  89.502  66.196  1.00  0.00    -0.493 OA
ATOM     14  C   UNL     1      76.072  89.121  65.346  1.00  0.00     0.278 C 
ENDBRANCH   8  13
BRANCH   9  15
ATOM     15  O   UNL     1      75.089  89.391  68.984  1.00  0.00    -0.504 OA
ATOM     16  H   UNL     1      74.585  89.578  69.779  1.00  0.00     0.293 HD
ENDBRANCH   9  15
ENDBRANCH   6   7
ENDBRANCH   3   6
ENDBRANCH   1   2
BRANCH   1  17
ATOM     17  C   UNL     1      74.733  81.721  64.481  1.00  0.00     0.010 C 
BRANCH  17  18
ATOM     18  C   UNL     1      76.120  81.970  65.135  1.00  0.00     0.001 C 
BRANCH  18  19
ATOM     19  C   UNL     1      76.481  83.473  65.261  1.00  0.00     0.000 C 
BRANCH  19  20
ATOM     20  C   UNL     1      77.222  83.790  66.593  1.00  0.00     0.003 C 
BRANCH  20  21
ATOM     21  C   UNL     1      76.598  84.950  67.435  1.00  0.00    -0.017 C 
ATOM     22  C   UNL     1      77.396  86.272  67.237  1.00  0.00     0.007 C 
ATOM     23  C   UNL     1      76.496  84.610  68.951  1.00  0.00     0.007 C 
ENDBRANCH  20  21
ENDBRANCH  19  20
ENDBRANCH  18  19
ENDBRANCH  17  18
ENDBRANCH   1  17
TORSDOF 10
ENDMDL
MODEL 9
REMARK VINA RESULT:    -4.999     21.858     25.271
REMARK INTER + INTRA:          -9.084
REMARK INTER:                  -7.986
REMARK INTRA:                  -1.098
REMARK UNBOUND:                -1.309
REMARK SMILES COc1cc(CNC(=O)CCCCCC(C)C)ccc1O
REMARK SMILES IDX 10 1 8 2 7 3 9 5 6 6 5 7 3 8 20 9 4 10 19 11 18 12 2 13 1 14
REMARK SMILES IDX 21 15 11 17 12 18 13 19 14 20 15 21 16 22 17 23
REMARK H PARENT 7 4 21 16
REMARK Flexibility Score: inf
ROOT
ATOM      1  C   UNL     1      76.136  84.691  68.878  1.00  0.00     0.100 C 
ENDROOT
BRANCH   1   2
ATOM      2  C   UNL     1      74.773  85.185  69.163  1.00  0.00     0.220 C 
ATOM      3  N   UNL     1      74.022  85.699  68.148  1.00  0.00    -0.352 N 
ATOM      4  H   UNL     1      74.516  85.827  67.277  1.00  0.00     0.163 HD
ATOM      5  O   UNL     1      74.319  85.082  70.329  1.00  0.00    -0.275 OA
BRANCH   3   6
ATOM      6  C   UNL     1      72.641  86.049  68.244  1.00  0.00     0.151 C 
BRANCH   6   7
ATOM      7  C   UNL     1      71.754  85.152  67.455  1.00  0.00    -0.025 A 
ATOM      8  C   UNL     1      71.439  83.526  65.637  1.00  0.00     0.160 A 
ATOM      9  C   UNL     1      70.081  83.393  65.995  1.00  0.00     0.157 A 
ATOM     10  C   UNL     1      72.263  84.418  66.357  1.00  0.00     0.056 A 
ATOM     11  C   UNL     1      69.559  84.138  67.068  1.00  0.00     0.050 A 
ATOM     12  C   UNL     1      70.389  85.006  67.796  1.00  0.00     0.009 A 
BRANCH   8  13
ATOM     13  O   UNL     1      71.963  82.825  64.583  1.00  0.00    -0.493 OA
ATOM     14  C   UNL     1      72.645  81.616  64.969  1.00  0.00     0.278 C 
ENDBRANCH   8  13
BRANCH   9  15
ATOM     15  O   UNL     1      69.280  82.540  65.308  1.00  0.00    -0.504 OA
ATOM     16  H   UNL     1      68.427  82.481  65.743  1.00  0.00     0.293 HD
ENDBRANCH   9  15
ENDBRANCH   6   7
ENDBRANCH   3   6
ENDBRANCH   1   2
BRANCH   1  17
ATOM     17  C   UNL     1      77.190  85.811  68.667  1.00  0.00     0.010 C 
BRANCH  17  18
ATOM     18  C   UNL     1      77.436  86.089  67.159  1.00  0.00     0.001 C 
BRANCH  18  19
ATOM     19  C   UNL     1      76.878  87.457  66.686  1.00  0.00     0.000 C 
BRANCH  19  20
ATOM     20  C   UNL     1      76.877  88.518  67.825  1.00  0.00     0.003 C 
BRANCH  20  21
ATOM     21  C   UNL     1      75.460  88.985  68.291  1.00  0.00    -0.017 C 
ATOM     22  C   UNL     1      74.495  89.128  67.078  1.00  0.00     0.007 C 
ATOM     23  C   UNL     1      75.498  90.313  69.103  1.00  0.00     0.007 C 
ENDBRANCH  20  21
ENDBRANCH  19  20
ENDBRANCH  18  19
ENDBRANCH  17  18
ENDBRANCH   1  17
TORSDOF 10
ENDMDL
MODEL 10
REMARK VINA RESULT:    -4.719      6.979     10.203
REMARK INTER + INTRA:          -8.649
REMARK INTER:                  -7.789
REMARK INTRA:                  -0.860
REMARK UNBOUND:                -1.309
REMARK SMILES COc1cc(CNC(=O)CCCCCC(C)C)ccc1O
REMARK SMILES IDX 10 1 8 2 7 3 9 5 6 6 5 7 3 8 20 9 4 10 19 11 18 12 2 13 1 14
REMARK SMILES IDX 21 15 11 17 12 18 13 19 14 20 15 21 16 22 17 23
REMARK H PARENT 7 4 21 16
REMARK Flexibility Score: inf
ROOT
ATOM      1  C   UNL     1      90.576 100.355  70.197  1.00  0.00     0.100 C 
ENDROOT
BRANCH   1   2
ATOM      2  C   UNL     1      91.547 100.472  71.305  1.00  0.00     0.220 C 
ATOM      3  N   UNL     1      92.220  99.364  71.725  1.00  0.00    -0.352 N 
ATOM      4  H   UNL     1      91.900  98.494  71.322  1.00  0.00     0.163 HD
ATOM      5  O   UNL     1      91.763 101.601  71.809  1.00  0.00    -0.275 OA
BRANCH   3   6
ATOM      6  C   UNL     1      93.301  99.363  72.657  1.00  0.00     0.151 C 
BRANCH   6   7
ATOM      7  C   UNL     1      94.546  98.760  72.109  1.00  0.00    -0.025 A 
ATOM      8  C   UNL     1      96.757  97.743  72.460  1.00  0.00     0.160 A 
ATOM      9  C   UNL     1      96.887  97.552  71.068  1.00  0.00     0.157 A 
ATOM     10  C   UNL     1      95.596  98.363  72.969  1.00  0.00     0.056 A 
ATOM     11  C   UNL     1      95.861  97.968  70.200  1.00  0.00     0.050 A 
ATOM     12  C   UNL     1      94.697  98.562  70.716  1.00  0.00     0.009 A 
BRANCH   8  13
ATOM     13  O   UNL     1      97.754  97.364  73.320  1.00  0.00    -0.493 OA
ATOM     14  C   UNL     1      97.487  97.687  74.698  1.00  0.00     0.278 C 
ENDBRANCH   8  13
BRANCH   9  15
ATOM     15  O   UNL     1      98.000  96.959  70.567  1.00  0.00    -0.504 OA
ATOM     16  H   UNL     1      98.680  96.930  71.244  1.00  0.00     0.293 HD
ENDBRANCH   9  15
ENDBRANCH   6   7
ENDBRANCH   3   6
ENDBRANCH   1   2
BRANCH   1  17
ATOM     17  C   UNL     1      89.553  99.200  70.364  1.00  0.00     0.010 C 
BRANCH  17  18
ATOM     18  C   UNL     1      89.608  98.209  69.168  1.00  0.00     0.001 C 
BRANCH  18  19
ATOM     19  C   UNL     1      89.993  98.884  67.825  1.00  0.00     0.000 C 
BRANCH  19  20
ATOM     20  C   UNL     1      88.784  98.985  66.850  1.00  0.00     0.003 C 
BRANCH  20  21
ATOM     21  C   UNL     1      87.893 100.257  67.033  1.00  0.00    -0.017 C 
ATOM     22  C   UNL     1      86.516 100.077  66.329  1.00  0.00     0.007 C 
ATOM     23  C   UNL     1      88.584 101.557  66.528  1.00  0.00     0.007 C 
ENDBRANCH  20  21
ENDBRANCH  19  20
ENDBRANCH  18  19
ENDBRANCH  17  18
ENDBRANCH   1  17
TORSDOF 10
ENDMDL
