MODEL 1
REMARK VINA RESULT:    -6.379      0.000      0.000
REMARK INTER + INTRA:         -10.541
REMARK INTER:                  -9.921
REMARK INTRA:                  -0.620
REMARK UNBOUND:                -0.620
REMARK SMILES COc1cc(CNC(=O)CCCC/C=C/C(C)C)ccc1O
REMARK SMILES IDX 10 1 8 2 7 3 9 5 6 6 5 7 3 8 21 9 4 10 20 11 19 12 2 13 1 14
REMARK SMILES IDX 22 15 11 17 12 18 13 19 14 20 15 21 16 22 17 23 18 24
REMARK H PARENT 7 4 22 16
REMARK Flexibility Score: inf
ROOT
ATOM      1  C   UNL     1      80.254  65.862  71.795  1.00  0.00     0.100 C 
ENDROOT
BRANCH   1   2
ATOM      2  C   UNL     1      81.059  66.245  72.971  1.00  0.00     0.220 C 
ATOM      3  N   UNL     1      82.227  65.600  73.248  1.00  0.00    -0.352 N 
ATOM      4  H   UNL     1      82.463  64.852  72.611  1.00  0.00     0.163 HD
ATOM      5  O   UNL     1      80.649  67.190  73.687  1.00  0.00    -0.275 OA
BRANCH   3   6
ATOM      6  C   UNL     1      83.092  65.915  74.340  1.00  0.00     0.151 C 
BRANCH   6   7
ATOM      7  C   UNL     1      84.052  66.995  73.983  1.00  0.00    -0.025 A 
ATOM      8  C   UNL     1      85.593  68.788  74.673  1.00  0.00     0.160 A 
ATOM      9  C   UNL     1      85.899  69.046  73.321  1.00  0.00     0.157 A 
ATOM     10  C   UNL     1      84.672  67.768  74.991  1.00  0.00     0.056 A 
ATOM     11  C   UNL     1      85.274  68.297  72.304  1.00  0.00     0.050 A 
ATOM     12  C   UNL     1      84.364  67.273  72.632  1.00  0.00     0.009 A 
BRANCH   8  13
ATOM     13  O   UNL     1      86.148  69.557  75.663  1.00  0.00    -0.493 OA
ATOM     14  C   UNL     1      87.276  68.947  76.317  1.00  0.00     0.278 C 
ENDBRANCH   8  13
BRANCH   9  15
ATOM     15  O   UNL     1      86.791  70.012  72.981  1.00  0.00    -0.504 OA
ATOM     16  H   UNL     1      87.574  69.932  73.530  1.00  0.00     0.293 HD
ENDBRANCH   9  15
ENDBRANCH   6   7
ENDBRANCH   3   6
ENDBRANCH   1   2
BRANCH   1  17
ATOM     17  C   UNL     1      81.004  64.845  70.894  1.00  0.00     0.010 C 
BRANCH  17  18
ATOM     18  C   UNL     1      80.065  64.119  69.890  1.00  0.00     0.005 C 
BRANCH  18  19
ATOM     19  C   UNL     1      78.778  64.934  69.590  1.00  0.00     0.027 C 
BRANCH  19  20
ATOM     20  C   UNL     1      78.016  64.368  68.487  1.00  0.00    -0.031 C 
ATOM     21  C   UNL     1      77.200  65.079  67.687  1.00  0.00    -0.028 C 
BRANCH  21  22
ATOM     22  C   UNL     1      76.459  64.492  66.571  1.00  0.00     0.005 C 
ATOM     23  C   UNL     1      76.205  62.972  66.767  1.00  0.00     0.012 C 
ATOM     24  C   UNL     1      75.125  65.253  66.354  1.00  0.00     0.012 C 
ENDBRANCH  21  22
ENDBRANCH  19  20
ENDBRANCH  18  19
ENDBRANCH  17  18
ENDBRANCH   1  17
TORSDOF 10
ENDMDL
MODEL 2
REMARK VINA RESULT:    -6.304      1.482      2.302
REMARK INTER + INTRA:         -10.425
REMARK INTER:                  -9.830
REMARK INTRA:                  -0.595
REMARK UNBOUND:                -0.620
REMARK SMILES COc1cc(CNC(=O)CCCC/C=C/C(C)C)ccc1O
REMARK SMILES IDX 10 1 8 2 7 3 9 5 6 6 5 7 3 8 21 9 4 10 20 11 19 12 2 13 1 14
REMARK SMILES IDX 22 15 11 17 12 18 13 19 14 20 15 21 16 22 17 23 18 24
REMARK H PARENT 7 4 22 16
REMARK Flexibility Score: inf
ROOT
ATOM      1  C   UNL     1      81.615  65.513  71.193  1.00  0.00     0.100 C 
ENDROOT
BRANCH   1   2
ATOM      2  C   UNL     1      82.528  65.439  72.350  1.00  0.00     0.220 C 
ATOM      3  N   UNL     1      82.450  66.359  73.352  1.00  0.00    -0.352 N 
ATOM      4  H   UNL     1      81.753  67.078  73.217  1.00  0.00     0.163 HD
ATOM      5  O   UNL     1      83.355  64.496  72.392  1.00  0.00    -0.275 OA
BRANCH   3   6
ATOM      6  C   UNL     1      83.263  66.357  74.526  1.00  0.00     0.151 C 
BRANCH   6   7
ATOM      7  C   UNL     1      84.270  67.452  74.495  1.00  0.00    -0.025 A 
ATOM      8  C   UNL     1      85.326  69.341  73.320  1.00  0.00     0.160 A 
ATOM      9  C   UNL     1      86.172  69.558  74.428  1.00  0.00     0.157 A 
ATOM     10  C   UNL     1      84.386  68.290  73.363  1.00  0.00     0.056 A 
ATOM     11  C   UNL     1      86.081  68.719  75.555  1.00  0.00     0.050 A 
ATOM     12  C   UNL     1      85.131  67.679  75.594  1.00  0.00     0.009 A 
BRANCH   8  13
ATOM     13  O   UNL     1      85.455  70.113  72.194  1.00  0.00    -0.493 OA
ATOM     14  C   UNL     1      84.299  70.918  71.898  1.00  0.00     0.278 C 
ENDBRANCH   8  13
BRANCH   9  15
ATOM     15  O   UNL     1      87.078  70.569  74.424  1.00  0.00    -0.504 OA
ATOM     16  H   UNL     1      86.637  71.396  74.629  1.00  0.00     0.293 HD
ENDBRANCH   9  15
ENDBRANCH   6   7
ENDBRANCH   3   6
ENDBRANCH   1   2
BRANCH   1  17
ATOM     17  C   UNL     1      80.131  65.363  71.623  1.00  0.00     0.010 C 
BRANCH  17  18
ATOM     18  C   UNL     1      79.136  65.559  70.445  1.00  0.00     0.005 C 
BRANCH  18  19
ATOM     19  C   UNL     1      79.037  64.301  69.541  1.00  0.00     0.027 C 
BRANCH  19  20
ATOM     20  C   UNL     1      78.095  64.485  68.448  1.00  0.00    -0.031 C 
ATOM     21  C   UNL     1      76.765  64.312  68.559  1.00  0.00    -0.028 C 
BRANCH  21  22
ATOM     22  C   UNL     1      75.833  64.522  67.451  1.00  0.00     0.005 C 
ATOM     23  C   UNL     1      74.413  64.918  67.942  1.00  0.00     0.012 C 
ATOM     24  C   UNL     1      76.396  65.585  66.472  1.00  0.00     0.012 C 
ENDBRANCH  21  22
ENDBRANCH  19  20
ENDBRANCH  18  19
ENDBRANCH  17  18
ENDBRANCH   1  17
TORSDOF 10
ENDMDL
MODEL 3
REMARK VINA RESULT:    -6.245     23.700     24.909
REMARK INTER + INTRA:         -10.333
REMARK INTER:                  -9.691
REMARK INTRA:                  -0.642
REMARK UNBOUND:                -0.620
REMARK SMILES COc1cc(CNC(=O)CCCC/C=C/C(C)C)ccc1O
REMARK SMILES IDX 10 1 8 2 7 3 9 5 6 6 5 7 3 8 21 9 4 10 20 11 19 12 2 13 1 14
REMARK SMILES IDX 22 15 11 17 12 18 13 19 14 20 15 21 16 22 17 23 18 24
REMARK H PARENT 7 4 22 16
REMARK Flexibility Score: inf
ROOT
ATOM      1  C   UNL     1      97.437  81.983  78.957  1.00  0.00     0.100 C 
ENDROOT
BRANCH   1   2
ATOM      2  C   UNL     1      97.710  81.872  80.403  1.00  0.00     0.220 C 
ATOM      3  N   UNL     1      96.696  81.635  81.282  1.00  0.00    -0.352 N 
ATOM      4  H   UNL     1      95.777  81.571  80.866  1.00  0.00     0.163 HD
ATOM      5  O   UNL     1      98.899  81.977  80.791  1.00  0.00    -0.275 OA
BRANCH   3   6
ATOM      6  C   UNL     1      96.859  81.479  82.692  1.00  0.00     0.151 C 
BRANCH   6   7
ATOM      7  C   UNL     1      96.393  82.683  83.433  1.00  0.00    -0.025 A 
ATOM      8  C   UNL     1      95.622  83.730  85.524  1.00  0.00     0.160 A 
ATOM      9  C   UNL     1      95.521  84.973  84.865  1.00  0.00     0.157 A 
ATOM     10  C   UNL     1      96.055  82.598  84.802  1.00  0.00     0.056 A 
ATOM     11  C   UNL     1      95.836  85.069  83.495  1.00  0.00     0.050 A 
ATOM     12  C   UNL     1      96.278  83.936  82.786  1.00  0.00     0.009 A 
BRANCH   8  13
ATOM     13  O   UNL     1      95.254  83.617  86.840  1.00  0.00    -0.493 OA
ATOM     14  C   UNL     1      96.090  82.734  87.610  1.00  0.00     0.278 C 
ENDBRANCH   8  13
BRANCH   9  15
ATOM     15  O   UNL     1      95.121  86.085  85.534  1.00  0.00    -0.504 OA
ATOM     16  H   UNL     1      95.645  86.185  86.332  1.00  0.00     0.293 HD
ENDBRANCH   9  15
ENDBRANCH   6   7
ENDBRANCH   3   6
ENDBRANCH   1   2
BRANCH   1  17
ATOM     17  C   UNL     1      96.980  83.416  78.570  1.00  0.00     0.010 C 
BRANCH  17  18
ATOM     18  C   UNL     1      97.613  83.913  77.240  1.00  0.00     0.005 C 
BRANCH  18  19
ATOM     19  C   UNL     1      96.587  84.650  76.337  1.00  0.00     0.027 C 
BRANCH  19  20
ATOM     20  C   UNL     1      97.011  84.690  74.946  1.00  0.00    -0.031 C 
ATOM     21  C   UNL     1      97.879  83.821  74.395  1.00  0.00    -0.028 C 
BRANCH  21  22
ATOM     22  C   UNL     1      98.276  83.868  72.988  1.00  0.00     0.005 C 
ATOM     23  C   UNL     1      99.255  85.037  72.690  1.00  0.00     0.012 C 
ATOM     24  C   UNL     1      98.891  82.510  72.560  1.00  0.00     0.012 C 
ENDBRANCH  21  22
ENDBRANCH  19  20
ENDBRANCH  18  19
ENDBRANCH  17  18
ENDBRANCH   1  17
TORSDOF 10
ENDMDL
MODEL 4
REMARK VINA RESULT:    -6.082     25.203     26.254
REMARK INTER + INTRA:         -10.080
REMARK INTER:                  -9.419
REMARK INTRA:                  -0.661
REMARK UNBOUND:                -0.620
REMARK SMILES COc1cc(CNC(=O)CCCC/C=C/C(C)C)ccc1O
REMARK SMILES IDX 10 1 8 2 7 3 9 5 6 6 5 7 3 8 21 9 4 10 20 11 19 12 2 13 1 14
REMARK SMILES IDX 22 15 11 17 12 18 13 19 14 20 15 21 16 22 17 23 18 24
REMARK H PARENT 7 4 22 16
REMARK Flexibility Score: inf
ROOT
ATOM      1  C   UNL     1      73.463  90.673  70.745  1.00  0.00     0.100 C 
ENDROOT
BRANCH   1   2
ATOM      2  C   UNL     1      73.453  91.531  71.946  1.00  0.00     0.220 C 
ATOM      3  N   UNL     1      74.331  92.566  72.063  1.00  0.00    -0.352 N 
ATOM      4  H   UNL     1      74.975  92.669  71.291  1.00  0.00     0.163 HD
ATOM      5  O   UNL     1      72.603  91.292  72.838  1.00  0.00    -0.275 OA
BRANCH   3   6
ATOM      6  C   UNL     1      74.382  93.471  73.167  1.00  0.00     0.151 C 
BRANCH   6   7
ATOM      7  C   UNL     1      75.690  94.178  73.234  1.00  0.00    -0.025 A 
ATOM      8  C   UNL     1      77.154  96.021  72.509  1.00  0.00     0.160 A 
ATOM      9  C   UNL     1      78.172  95.549  73.364  1.00  0.00     0.157 A 
ATOM     10  C   UNL     1      75.925  95.331  72.450  1.00  0.00     0.056 A 
ATOM     11  C   UNL     1      77.959  94.390  74.136  1.00  0.00     0.050 A 
ATOM     12  C   UNL     1      76.725  93.714  74.079  1.00  0.00     0.009 A 
BRANCH   8  13
ATOM     13  O   UNL     1      77.379  97.110  71.707  1.00  0.00    -0.493 OA
ATOM     14  C   UNL     1      77.594  96.784  70.321  1.00  0.00     0.278 C 
ENDBRANCH   8  13
BRANCH   9  15
ATOM     15  O   UNL     1      79.362  96.198  73.454  1.00  0.00    -0.504 OA
ATOM     16  H   UNL     1      79.321  96.846  74.160  1.00  0.00     0.293 HD
ENDBRANCH   9  15
ENDBRANCH   6   7
ENDBRANCH   3   6
ENDBRANCH   1   2
BRANCH   1  17
ATOM     17  C   UNL     1      74.893  90.520  70.162  1.00  0.00     0.010 C 
BRANCH  17  18
ATOM     18  C   UNL     1      75.036  89.287  69.227  1.00  0.00     0.005 C 
BRANCH  18  19
ATOM     19  C   UNL     1      76.430  89.221  68.545  1.00  0.00     0.027 C 
BRANCH  19  20
ATOM     20  C   UNL     1      76.964  87.867  68.520  1.00  0.00    -0.031 C 
ATOM     21  C   UNL     1      76.475  86.849  69.251  1.00  0.00    -0.028 C 
BRANCH  21  22
ATOM     22  C   UNL     1      77.015  85.490  69.195  1.00  0.00     0.005 C 
ATOM     23  C   UNL     1      76.071  84.453  69.865  1.00  0.00     0.012 C 
ATOM     24  C   UNL     1      77.319  85.094  67.727  1.00  0.00     0.012 C 
ENDBRANCH  21  22
ENDBRANCH  19  20
ENDBRANCH  18  19
ENDBRANCH  17  18
ENDBRANCH   1  17
TORSDOF 10
ENDMDL
MODEL 5
REMARK VINA RESULT:    -6.015     20.134     23.617
REMARK INTER + INTRA:          -9.975
REMARK INTER:                  -9.521
REMARK INTRA:                  -0.454
REMARK UNBOUND:                -0.620
REMARK SMILES COc1cc(CNC(=O)CCCC/C=C/C(C)C)ccc1O
REMARK SMILES IDX 10 1 8 2 7 3 9 5 6 6 5 7 3 8 21 9 4 10 20 11 19 12 2 13 1 14
REMARK SMILES IDX 22 15 11 17 12 18 13 19 14 20 15 21 16 22 17 23 18 24
REMARK H PARENT 7 4 22 16
REMARK Flexibility Score: inf
ROOT
ATOM      1  C   UNL     1      96.278  83.752  82.480  1.00  0.00     0.100 C 
ENDROOT
BRANCH   1   2
ATOM      2  C   UNL     1      95.773  83.022  83.659  1.00  0.00     0.220 C 
ATOM      3  N   UNL     1      94.443  83.018  83.953  1.00  0.00    -0.352 N 
ATOM      4  H   UNL     1      93.866  83.561  83.325  1.00  0.00     0.163 HD
ATOM      5  O   UNL     1      96.599  82.390  84.363  1.00  0.00    -0.275 OA
BRANCH   3   6
ATOM      6  C   UNL     1      93.851  82.319  85.049  1.00  0.00     0.151 C 
BRANCH   6   7
ATOM      7  C   UNL     1      92.526  81.750  84.682  1.00  0.00    -0.025 A 
ATOM      8  C   UNL     1      91.156  79.834  83.966  1.00  0.00     0.160 A 
ATOM      9  C   UNL     1      90.003  80.644  84.000  1.00  0.00     0.157 A 
ATOM     10  C   UNL     1      92.406  80.394  84.305  1.00  0.00     0.056 A 
ATOM     11  C   UNL     1      90.110  82.003  84.355  1.00  0.00     0.050 A 
ATOM     12  C   UNL     1      91.360  82.551  84.703  1.00  0.00     0.009 A 
BRANCH   8  13
ATOM     13  O   UNL     1      91.067  78.527  83.558  1.00  0.00    -0.493 OA
ATOM     14  C   UNL     1      90.884  77.587  84.633  1.00  0.00     0.278 C 
ENDBRANCH   8  13
BRANCH   9  15
ATOM     15  O   UNL     1      88.783  80.133  83.692  1.00  0.00    -0.504 OA
ATOM     16  H   UNL     1      88.116  80.817  83.783  1.00  0.00     0.293 HD
ENDBRANCH   9  15
ENDBRANCH   6   7
ENDBRANCH   3   6
ENDBRANCH   1   2
BRANCH   1  17
ATOM     17  C   UNL     1      96.716  82.781  81.350  1.00  0.00     0.010 C 
BRANCH  17  18
ATOM     18  C   UNL     1      97.049  83.513  80.020  1.00  0.00     0.005 C 
BRANCH  18  19
ATOM     19  C   UNL     1      97.437  82.527  78.885  1.00  0.00     0.027 C 
BRANCH  19  20
ATOM     20  C   UNL     1      98.060  83.207  77.759  1.00  0.00    -0.031 C 
ATOM     21  C   UNL     1      97.414  83.543  76.627  1.00  0.00    -0.028 C 
BRANCH  21  22
ATOM     22  C   UNL     1      98.056  84.244  75.515  1.00  0.00     0.005 C 
ATOM     23  C   UNL     1      99.556  83.868  75.369  1.00  0.00     0.012 C 
ATOM     24  C   UNL     1      97.287  83.974  74.196  1.00  0.00     0.012 C 
ENDBRANCH  21  22
ENDBRANCH  19  20
ENDBRANCH  18  19
ENDBRANCH  17  18
ENDBRANCH   1  17
TORSDOF 10
ENDMDL
MODEL 6
REMARK VINA RESULT:    -6.008     19.620     22.881
REMARK INTER + INTRA:          -9.965
REMARK INTER:                  -9.262
REMARK INTRA:                  -0.703
REMARK UNBOUND:                -0.620
REMARK SMILES COc1cc(CNC(=O)CCCC/C=C/C(C)C)ccc1O
REMARK SMILES IDX 10 1 8 2 7 3 9 5 6 6 5 7 3 8 21 9 4 10 20 11 19 12 2 13 1 14
REMARK SMILES IDX 22 15 11 17 12 18 13 19 14 20 15 21 16 22 17 23 18 24
REMARK H PARENT 7 4 22 16
REMARK Flexibility Score: inf
ROOT
ATOM      1  C   UNL     1      91.940  78.842  85.331  1.00  0.00     0.100 C 
ENDROOT
BRANCH   1   2
ATOM      2  C   UNL     1      93.345  78.993  84.906  1.00  0.00     0.220 C 
ATOM      3  N   UNL     1      94.153  79.912  85.505  1.00  0.00    -0.352 N 
ATOM      4  H   UNL     1      93.707  80.471  86.219  1.00  0.00     0.163 HD
ATOM      5  O   UNL     1      93.774  78.237  84.001  1.00  0.00    -0.275 OA
BRANCH   3   6
ATOM      6  C   UNL     1      95.531  80.113  85.191  1.00  0.00     0.151 C 
BRANCH   6   7
ATOM      7  C   UNL     1      95.820  81.542  84.890  1.00  0.00    -0.025 A 
ATOM      8  C   UNL     1      97.101  83.596  85.343  1.00  0.00     0.160 A 
ATOM      9  C   UNL     1      96.397  84.262  84.318  1.00  0.00     0.157 A 
ATOM     10  C   UNL     1      96.804  82.245  85.621  1.00  0.00     0.056 A 
ATOM     11  C   UNL     1      95.399  83.579  83.594  1.00  0.00     0.050 A 
ATOM     12  C   UNL     1      95.118  82.227  83.871  1.00  0.00     0.009 A 
BRANCH   8  13
ATOM     13  O   UNL     1      98.026  84.274  86.094  1.00  0.00    -0.493 OA
ATOM     14  C   UNL     1      98.930  83.422  86.822  1.00  0.00     0.278 C 
ENDBRANCH   8  13
BRANCH   9  15
ATOM     15  O   UNL     1      96.667  85.558  84.016  1.00  0.00    -0.504 OA
ATOM     16  H   UNL     1      97.614  85.671  83.906  1.00  0.00     0.293 HD
ENDBRANCH   9  15
ENDBRANCH   6   7
ENDBRANCH   3   6
ENDBRANCH   1   2
BRANCH   1  17
ATOM     17  C   UNL     1      90.981  78.744  84.113  1.00  0.00     0.010 C 
BRANCH  17  18
ATOM     18  C   UNL     1      89.793  77.771  84.356  1.00  0.00     0.005 C 
BRANCH  18  19
ATOM     19  C   UNL     1      88.421  78.496  84.327  1.00  0.00     0.027 C 
BRANCH  19  20
ATOM     20  C   UNL     1      88.565  79.933  84.149  1.00  0.00    -0.031 C 
ATOM     21  C   UNL     1      87.532  80.787  84.023  1.00  0.00    -0.028 C 
BRANCH  21  22
ATOM     22  C   UNL     1      87.700  82.231  83.864  1.00  0.00     0.005 C 
ATOM     23  C   UNL     1      86.416  82.917  83.322  1.00  0.00     0.012 C 
ATOM     24  C   UNL     1      88.143  82.869  85.206  1.00  0.00     0.012 C 
ENDBRANCH  21  22
ENDBRANCH  19  20
ENDBRANCH  18  19
ENDBRANCH  17  18
ENDBRANCH   1  17
TORSDOF 10
ENDMDL
MODEL 7
REMARK VINA RESULT:    -5.906     26.767     32.157
REMARK INTER + INTRA:          -9.805
REMARK INTER:                  -9.411
REMARK INTRA:                  -0.394
REMARK UNBOUND:                -0.620
REMARK SMILES COc1cc(CNC(=O)CCCC/C=C/C(C)C)ccc1O
REMARK SMILES IDX 10 1 8 2 7 3 9 5 6 6 5 7 3 8 21 9 4 10 20 11 19 12 2 13 1 14
REMARK SMILES IDX 22 15 11 17 12 18 13 19 14 20 15 21 16 22 17 23 18 24
REMARK H PARENT 7 4 22 16
REMARK Flexibility Score: inf
ROOT
ATOM      1  C   UNL     1      94.343  96.606  76.417  1.00  0.00     0.100 C 
ENDROOT
BRANCH   1   2
ATOM      2  C   UNL     1      92.975  96.229  76.823  1.00  0.00     0.220 C 
ATOM      3  N   UNL     1      92.620  94.918  76.924  1.00  0.00    -0.352 N 
ATOM      4  H   UNL     1      93.347  94.259  76.680  1.00  0.00     0.163 HD
ATOM      5  O   UNL     1      92.164  97.147  77.093  1.00  0.00    -0.275 OA
BRANCH   3   6
ATOM      6  C   UNL     1      91.336  94.450  77.338  1.00  0.00     0.151 C 
BRANCH   6   7
ATOM      7  C   UNL     1      90.721  93.563  76.313  1.00  0.00    -0.025 A 
ATOM      8  C   UNL     1      89.664  91.424  75.707  1.00  0.00     0.160 A 
ATOM      9  C   UNL     1      89.528  91.867  74.375  1.00  0.00     0.157 A 
ATOM     10  C   UNL     1      90.260  92.274  76.662  1.00  0.00     0.056 A 
ATOM     11  C   UNL     1      90.001  93.142  74.008  1.00  0.00     0.050 A 
ATOM     12  C   UNL     1      90.585  93.988  74.971  1.00  0.00     0.009 A 
BRANCH   8  13
ATOM     13  O   UNL     1      89.265  90.158  76.055  1.00  0.00    -0.493 OA
ATOM     14  C   UNL     1      90.074  89.111  75.488  1.00  0.00     0.278 C 
ENDBRANCH   8  13
BRANCH   9  15
ATOM     15  O   UNL     1      88.947  91.078  73.435  1.00  0.00    -0.504 OA
ATOM     16  H   UNL     1      89.541  90.979  72.687  1.00  0.00     0.293 HD
ENDBRANCH   9  15
ENDBRANCH   6   7
ENDBRANCH   3   6
ENDBRANCH   1   2
BRANCH   1  17
ATOM     17  C   UNL     1      94.869  97.818  77.232  1.00  0.00     0.010 C 
BRANCH  17  18
ATOM     18  C   UNL     1      95.390  97.419  78.642  1.00  0.00     0.005 C 
BRANCH  18  19
ATOM     19  C   UNL     1      96.649  96.513  78.571  1.00  0.00     0.027 C 
BRANCH  19  20
ATOM     20  C   UNL     1      97.456  96.603  79.779  1.00  0.00    -0.031 C 
ATOM     21  C   UNL     1      97.114  96.054  80.959  1.00  0.00    -0.028 C 
BRANCH  21  22
ATOM     22  C   UNL     1      97.950  96.140  82.156  1.00  0.00     0.005 C 
ATOM     23  C   UNL     1      97.682  94.973  83.147  1.00  0.00     0.012 C 
ATOM     24  C   UNL     1      99.449  96.196  81.760  1.00  0.00     0.012 C 
ENDBRANCH  21  22
ENDBRANCH  19  20
ENDBRANCH  18  19
ENDBRANCH  17  18
ENDBRANCH   1  17
TORSDOF 10
ENDMDL
MODEL 8
REMARK VINA RESULT:    -5.875     21.069     23.614
REMARK INTER + INTRA:          -9.758
REMARK INTER:                  -9.041
REMARK INTRA:                  -0.716
REMARK UNBOUND:                -0.620
REMARK SMILES COc1cc(CNC(=O)CCCC/C=C/C(C)C)ccc1O
REMARK SMILES IDX 10 1 8 2 7 3 9 5 6 6 5 7 3 8 21 9 4 10 20 11 19 12 2 13 1 14
REMARK SMILES IDX 22 15 11 17 12 18 13 19 14 20 15 21 16 22 17 23 18 24
REMARK H PARENT 7 4 22 16
REMARK Flexibility Score: inf
ROOT
ATOM      1  C   UNL     1      96.065  83.885  82.542  1.00  0.00     0.100 C 
ENDROOT
BRANCH   1   2
ATOM      2  C   UNL     1      95.443  83.604  83.851  1.00  0.00     0.220 C 
ATOM      3  N   UNL     1      94.122  83.283  83.933  1.00  0.00    -0.352 N 
ATOM      4  H   UNL     1      93.627  83.281  83.052  1.00  0.00     0.163 HD
ATOM      5  O   UNL     1      96.170  83.646  84.873  1.00  0.00    -0.275 OA
BRANCH   3   6
ATOM      6  C   UNL     1      93.434  82.963  85.144  1.00  0.00     0.151 C 
BRANCH   6   7
ATOM      7  C   UNL     1      92.442  81.873  84.937  1.00  0.00    -0.025 A 
ATOM      8  C   UNL     1      90.101  81.121  84.813  1.00  0.00     0.160 A 
ATOM      9  C   UNL     1      90.536  79.811  84.526  1.00  0.00     0.157 A 
ATOM     10  C   UNL     1      91.057  82.138  85.018  1.00  0.00     0.056 A 
ATOM     11  C   UNL     1      91.915  79.527  84.462  1.00  0.00     0.050 A 
ATOM     12  C   UNL     1      92.862  80.552  84.656  1.00  0.00     0.009 A 
BRANCH   8  13
ATOM     13  O   UNL     1      88.762  81.388  84.942  1.00  0.00    -0.493 OA
ATOM     14  C   UNL     1      88.348  82.624  84.332  1.00  0.00     0.278 C 
ENDBRANCH   8  13
BRANCH   9  15
ATOM     15  O   UNL     1      89.642  78.811  84.311  1.00  0.00    -0.504 OA
ATOM     16  H   UNL     1      89.157  78.984  83.501  1.00  0.00     0.293 HD
ENDBRANCH   9  15
ENDBRANCH   6   7
ENDBRANCH   3   6
ENDBRANCH   1   2
BRANCH   1  17
ATOM     17  C   UNL     1      97.028  82.747  82.110  1.00  0.00     0.010 C 
BRANCH  17  18
ATOM     18  C   UNL     1      96.454  81.330  82.390  1.00  0.00     0.005 C 
BRANCH  18  19
ATOM     19  C   UNL     1      97.017  80.261  81.415  1.00  0.00     0.027 C 
BRANCH  19  20
ATOM     20  C   UNL     1      97.554  80.856  80.201  1.00  0.00    -0.031 C 
ATOM     21  C   UNL     1      97.958  80.152  79.128  1.00  0.00    -0.028 C 
BRANCH  21  22
ATOM     22  C   UNL     1      98.477  80.774  77.910  1.00  0.00     0.005 C 
ATOM     23  C   UNL     1      97.502  81.834  77.327  1.00  0.00     0.012 C 
ATOM     24  C   UNL     1      99.873  81.394  78.177  1.00  0.00     0.012 C 
ENDBRANCH  21  22
ENDBRANCH  19  20
ENDBRANCH  18  19
ENDBRANCH  17  18
ENDBRANCH   1  17
TORSDOF 10
ENDMDL
MODEL 9
REMARK VINA RESULT:    -5.843      1.715      2.268
REMARK INTER + INTRA:          -9.707
REMARK INTER:                  -9.056
REMARK INTRA:                  -0.651
REMARK UNBOUND:                -0.620
REMARK SMILES COc1cc(CNC(=O)CCCC/C=C/C(C)C)ccc1O
REMARK SMILES IDX 10 1 8 2 7 3 9 5 6 6 5 7 3 8 21 9 4 10 20 11 19 12 2 13 1 14
REMARK SMILES IDX 22 15 11 17 12 18 13 19 14 20 15 21 16 22 17 23 18 24
REMARK H PARENT 7 4 22 16
REMARK Flexibility Score: inf
ROOT
ATOM      1  C   UNL     1      81.584  65.963  70.164  1.00  0.00     0.100 C 
ENDROOT
BRANCH   1   2
ATOM      2  C   UNL     1      82.944  65.741  70.693  1.00  0.00     0.220 C 
ATOM      3  N   UNL     1      83.956  66.598  70.381  1.00  0.00    -0.352 N 
ATOM      4  H   UNL     1      83.700  67.352  69.759  1.00  0.00     0.163 HD
ATOM      5  O   UNL     1      83.131  64.759  71.452  1.00  0.00    -0.275 OA
BRANCH   3   6
ATOM      6  C   UNL     1      85.295  66.490  70.865  1.00  0.00     0.151 C 
BRANCH   6   7
ATOM      7  C   UNL     1      85.565  67.474  71.949  1.00  0.00    -0.025 A 
ATOM      8  C   UNL     1      85.405  68.130  74.316  1.00  0.00     0.160 A 
ATOM      9  C   UNL     1      86.089  69.330  74.031  1.00  0.00     0.157 A 
ATOM     10  C   UNL     1      85.148  67.215  73.274  1.00  0.00     0.056 A 
ATOM     11  C   UNL     1      86.494  69.610  72.711  1.00  0.00     0.050 A 
ATOM     12  C   UNL     1      86.243  68.685  71.679  1.00  0.00     0.009 A 
BRANCH   8  13
ATOM     13  O   UNL     1      84.951  67.883  75.587  1.00  0.00    -0.493 OA
ATOM     14  C   UNL     1      83.782  67.045  75.640  1.00  0.00     0.278 C 
ENDBRANCH   8  13
BRANCH   9  15
ATOM     15  O   UNL     1      86.365  70.225  75.014  1.00  0.00    -0.504 OA
ATOM     16  H   UNL     1      87.300  70.439  75.000  1.00  0.00     0.293 HD
ENDBRANCH   9  15
ENDBRANCH   6   7
ENDBRANCH   3   6
ENDBRANCH   1   2
BRANCH   1  17
ATOM     17  C   UNL     1      80.557  64.987  70.797  1.00  0.00     0.010 C 
BRANCH  17  18
ATOM     18  C   UNL     1      79.210  64.940  70.022  1.00  0.00     0.005 C 
BRANCH  18  19
ATOM     19  C   UNL     1      78.915  63.533  69.436  1.00  0.00     0.027 C 
BRANCH  19  20
ATOM     20  C   UNL     1      78.086  63.600  68.242  1.00  0.00    -0.031 C 
ATOM     21  C   UNL     1      77.406  64.694  67.855  1.00  0.00    -0.028 C 
BRANCH  21  22
ATOM     22  C   UNL     1      76.594  64.746  66.639  1.00  0.00     0.005 C 
ATOM     23  C   UNL     1      75.489  63.653  66.621  1.00  0.00     0.012 C 
ATOM     24  C   UNL     1      75.977  66.158  66.465  1.00  0.00     0.012 C 
ENDBRANCH  21  22
ENDBRANCH  19  20
ENDBRANCH  18  19
ENDBRANCH  17  18
ENDBRANCH   1  17
TORSDOF 10
ENDMDL
MODEL 10
REMARK VINA RESULT:    -5.820     21.193     23.740
REMARK INTER + INTRA:          -9.672
REMARK INTER:                  -9.091
REMARK INTRA:                  -0.581
REMARK UNBOUND:                -0.620
REMARK SMILES COc1cc(CNC(=O)CCCC/C=C/C(C)C)ccc1O
REMARK SMILES IDX 10 1 8 2 7 3 9 5 6 6 5 7 3 8 21 9 4 10 20 11 19 12 2 13 1 14
REMARK SMILES IDX 22 15 11 17 12 18 13 19 14 20 15 21 16 22 17 23 18 24
REMARK H PARENT 7 4 22 16
REMARK Flexibility Score: inf
ROOT
ATOM      1  C   UNL     1      97.893  81.641  83.677  1.00  0.00     0.100 C 
ENDROOT
BRANCH   1   2
ATOM      2  C   UNL     1      96.738  82.119  84.461  1.00  0.00     0.220 C 
ATOM      3  N   UNL     1      95.489  82.132  83.915  1.00  0.00    -0.352 N 
ATOM      4  H   UNL     1      95.440  81.819  82.955  1.00  0.00     0.163 HD
ATOM      5  O   UNL     1      96.937  82.487  85.644  1.00  0.00    -0.275 OA
BRANCH   3   6
ATOM      6  C   UNL     1      94.305  82.543  84.599  1.00  0.00     0.151 C 
BRANCH   6   7
ATOM      7  C   UNL     1      93.273  81.471  84.599  1.00  0.00    -0.025 A 
ATOM      8  C   UNL     1      90.945  80.757  84.239  1.00  0.00     0.160 A 
ATOM      9  C   UNL     1      91.297  79.433  84.576  1.00  0.00     0.157 A 
ATOM     10  C   UNL     1      91.934  81.762  84.255  1.00  0.00     0.056 A 
ATOM     11  C   UNL     1      92.625  79.132  84.940  1.00  0.00     0.050 A 
ATOM     12  C   UNL     1      93.608  80.140  84.942  1.00  0.00     0.009 A 
BRANCH   8  13
ATOM     13  O   UNL     1      89.641  81.068  83.948  1.00  0.00    -0.493 OA
ATOM     14  C   UNL     1      89.101  82.138  84.745  1.00  0.00     0.278 C 
ENDBRANCH   8  13
BRANCH   9  15
ATOM     15  O   UNL     1      90.372  78.440  84.557  1.00  0.00    -0.504 OA
ATOM     16  H   UNL     1      90.358  78.031  83.689  1.00  0.00     0.293 HD
ENDBRANCH   9  15
ENDBRANCH   6   7
ENDBRANCH   3   6
ENDBRANCH   1   2
BRANCH   1  17
ATOM     17  C   UNL     1      97.469  80.588  82.617  1.00  0.00     0.010 C 
BRANCH  17  18
ATOM     18  C   UNL     1      97.022  81.229  81.273  1.00  0.00     0.005 C 
BRANCH  18  19
ATOM     19  C   UNL     1      98.015  82.314  80.776  1.00  0.00     0.027 C 
BRANCH  19  20
ATOM     20  C   UNL     1      97.534  82.989  79.580  1.00  0.00    -0.031 C 
ATOM     21  C   UNL     1      98.157  82.950  78.388  1.00  0.00    -0.028 C 
BRANCH  21  22
ATOM     22  C   UNL     1      97.645  83.620  77.193  1.00  0.00     0.005 C 
ATOM     23  C   UNL     1      97.831  82.762  75.911  1.00  0.00     0.012 C 
ATOM     24  C   UNL     1      96.156  84.005  77.391  1.00  0.00     0.012 C 
ENDBRANCH  21  22
ENDBRANCH  19  20
ENDBRANCH  18  19
ENDBRANCH  17  18
ENDBRANCH   1  17
TORSDOF 10
ENDMDL
