MODEL 1
REMARK VINA RESULT:    -6.090      0.000      0.000
REMARK INTER + INTRA:         -10.302
REMARK INTER:                  -9.472
REMARK INTRA:                  -0.830
REMARK UNBOUND:                -0.830
REMARK SMILES COc1cc(CNC(=O)CCCCCC(C)C)ccc1O
REMARK SMILES IDX 10 1 8 2 7 3 9 5 6 6 5 7 3 8 20 9 4 10 19 11 18 12 2 13 1 14
REMARK SMILES IDX 21 15 11 17 12 18 13 19 14 20 15 21 16 22 17 23
REMARK H PARENT 7 4 21 16
REMARK Flexibility Score: inf
ROOT
ATOM      1  C   UNL     1      94.096  95.915  74.937  1.00  0.00     0.100 C 
ENDROOT
BRANCH   1   2
ATOM      2  C   UNL     1      95.456  96.310  75.361  1.00  0.00     0.220 C 
ATOM      3  N   UNL     1      95.791  96.245  76.681  1.00  0.00    -0.352 N 
ATOM      4  H   UNL     1      95.022  96.049  77.305  1.00  0.00     0.163 HD
ATOM      5  O   UNL     1      96.288  96.658  74.489  1.00  0.00    -0.275 OA
BRANCH   3   6
ATOM      6  C   UNL     1      97.107  96.428  77.204  1.00  0.00     0.151 C 
BRANCH   6   7
ATOM      7  C   UNL     1      97.337  95.691  78.476  1.00  0.00    -0.025 A 
ATOM      8  C   UNL     1      96.730  93.892  80.038  1.00  0.00     0.160 A 
ATOM      9  C   UNL     1      97.817  94.245  80.865  1.00  0.00     0.157 A 
ATOM     10  C   UNL     1      96.485  94.629  78.860  1.00  0.00     0.056 A 
ATOM     11  C   UNL     1      98.655  95.317  80.506  1.00  0.00     0.050 A 
ATOM     12  C   UNL     1      98.421  96.031  79.319  1.00  0.00     0.009 A 
BRANCH   8  13
ATOM     13  O   UNL     1      95.890  92.864  80.379  1.00  0.00    -0.493 OA
ATOM     14  C   UNL     1      94.628  92.889  79.685  1.00  0.00     0.278 C 
ENDBRANCH   8  13
BRANCH   9  15
ATOM     15  O   UNL     1      98.060  93.545  82.001  1.00  0.00    -0.504 OA
ATOM     16  H   UNL     1      98.857  93.022  81.891  1.00  0.00     0.293 HD
ENDBRANCH   9  15
ENDBRANCH   6   7
ENDBRANCH   3   6
ENDBRANCH   1   2
BRANCH   1  17
ATOM     17  C   UNL     1      93.321  95.071  75.985  1.00  0.00     0.010 C 
BRANCH  17  18
ATOM     18  C   UNL     1      92.235  95.915  76.708  1.00  0.00     0.001 C 
BRANCH  18  19
ATOM     19  C   UNL     1      90.877  95.178  76.852  1.00  0.00     0.000 C 
BRANCH  19  20
ATOM     20  C   UNL     1      90.788  93.924  75.934  1.00  0.00     0.003 C 
BRANCH  20  21
ATOM     21  C   UNL     1      90.927  92.554  76.674  1.00  0.00    -0.017 C 
ATOM     22  C   UNL     1      90.699  91.367  75.692  1.00  0.00     0.007 C 
ATOM     23  C   UNL     1      89.970  92.427  77.896  1.00  0.00     0.007 C 
ENDBRANCH  20  21
ENDBRANCH  19  20
ENDBRANCH  18  19
ENDBRANCH  17  18
ENDBRANCH   1  17
TORSDOF 10
ENDMDL
MODEL 2
REMARK VINA RESULT:    -5.963      2.633      6.628
REMARK INTER + INTRA:         -10.104
REMARK INTER:                  -9.275
REMARK INTRA:                  -0.829
REMARK UNBOUND:                -0.830
REMARK SMILES COc1cc(CNC(=O)CCCCCC(C)C)ccc1O
REMARK SMILES IDX 10 1 8 2 7 3 9 5 6 6 5 7 3 8 20 9 4 10 19 11 18 12 2 13 1 14
REMARK SMILES IDX 21 15 11 17 12 18 13 19 14 20 15 21 16 22 17 23
REMARK H PARENT 7 4 21 16
REMARK Flexibility Score: inf
ROOT
ATOM      1  C   UNL     1      96.856  96.310  80.306  1.00  0.00     0.100 C 
ENDROOT
BRANCH   1   2
ATOM      2  C   UNL     1      95.884  95.197  80.295  1.00  0.00     0.220 C 
ATOM      3  N   UNL     1      95.257  94.867  79.130  1.00  0.00    -0.352 N 
ATOM      4  H   UNL     1      95.412  95.510  78.367  1.00  0.00     0.163 HD
ATOM      5  O   UNL     1      95.686  94.551  81.353  1.00  0.00    -0.275 OA
BRANCH   3   6
ATOM      6  C   UNL     1      94.434  93.717  78.938  1.00  0.00     0.151 C 
BRANCH   6   7
ATOM      7  C   UNL     1      93.158  94.023  78.235  1.00  0.00    -0.025 A 
ATOM      8  C   UNL     1      90.868  93.390  77.601  1.00  0.00     0.160 A 
ATOM      9  C   UNL     1      90.706  94.633  76.954  1.00  0.00     0.157 A 
ATOM     10  C   UNL     1      92.098  93.085  78.221  1.00  0.00     0.056 A 
ATOM     11  C   UNL     1      91.763  95.562  76.938  1.00  0.00     0.050 A 
ATOM     12  C   UNL     1      92.977  95.262  77.578  1.00  0.00     0.009 A 
BRANCH   8  13
ATOM     13  O   UNL     1      89.858  92.463  77.611  1.00  0.00    -0.493 OA
ATOM     14  C   UNL     1      89.950  91.492  76.551  1.00  0.00     0.278 C 
ENDBRANCH   8  13
BRANCH   9  15
ATOM     15  O   UNL     1      89.528  94.935  76.353  1.00  0.00    -0.504 OA
ATOM     16  H   UNL     1      89.347  94.293  75.662  1.00  0.00     0.293 HD
ENDBRANCH   9  15
ENDBRANCH   6   7
ENDBRANCH   3   6
ENDBRANCH   1   2
BRANCH   1  17
ATOM     17  C   UNL     1      98.071  96.104  79.361  1.00  0.00     0.010 C 
BRANCH  17  18
ATOM     18  C   UNL     1      98.049  97.106  78.174  1.00  0.00     0.001 C 
BRANCH  18  19
ATOM     19  C   UNL     1      97.155  96.643  76.994  1.00  0.00     0.000 C 
BRANCH  19  20
ATOM     20  C   UNL     1      97.049  97.722  75.877  1.00  0.00     0.003 C 
BRANCH  20  21
ATOM     21  C   UNL     1      96.068  97.371  74.712  1.00  0.00    -0.017 C 
ATOM     22  C   UNL     1      95.318  96.037  74.999  1.00  0.00     0.007 C 
ATOM     23  C   UNL     1      96.775  97.299  73.327  1.00  0.00     0.007 C 
ENDBRANCH  20  21
ENDBRANCH  19  20
ENDBRANCH  18  19
ENDBRANCH  17  18
ENDBRANCH   1  17
TORSDOF 10
ENDMDL
MODEL 3
REMARK VINA RESULT:    -5.962      2.540      3.891
REMARK INTER + INTRA:         -10.103
REMARK INTER:                  -9.275
REMARK INTRA:                  -0.829
REMARK UNBOUND:                -0.830
REMARK SMILES COc1cc(CNC(=O)CCCCCC(C)C)ccc1O
REMARK SMILES IDX 10 1 8 2 7 3 9 5 6 6 5 7 3 8 20 9 4 10 19 11 18 12 2 13 1 14
REMARK SMILES IDX 21 15 11 17 12 18 13 19 14 20 15 21 16 22 17 23
REMARK H PARENT 7 4 21 16
REMARK Flexibility Score: inf
ROOT
ATOM      1  C   UNL     1      93.619  93.648  78.224  1.00  0.00     0.100 C 
ENDROOT
BRANCH   1   2
ATOM      2  C   UNL     1      94.565  93.295  79.303  1.00  0.00     0.220 C 
ATOM      3  N   UNL     1      95.823  93.818  79.288  1.00  0.00    -0.352 N 
ATOM      4  H   UNL     1      96.065  94.320  78.445  1.00  0.00     0.163 HD
ATOM      5  O   UNL     1      94.174  92.552  80.236  1.00  0.00    -0.275 OA
BRANCH   3   6
ATOM      6  C   UNL     1      96.774  93.702  80.347  1.00  0.00     0.151 C 
BRANCH   6   7
ATOM      7  C   UNL     1      96.951  94.964  81.114  1.00  0.00    -0.025 A 
ATOM      8  C   UNL     1      98.329  96.416  82.542  1.00  0.00     0.160 A 
ATOM      9  C   UNL     1      97.314  97.396  82.521  1.00  0.00     0.157 A 
ATOM     10  C   UNL     1      98.134  95.199  81.855  1.00  0.00     0.056 A 
ATOM     11  C   UNL     1      96.123  97.162  81.810  1.00  0.00     0.050 A 
ATOM     12  C   UNL     1      95.945  95.958  81.107  1.00  0.00     0.009 A 
BRANCH   8  13
ATOM     13  O   UNL     1      99.488  96.617  83.245  1.00  0.00    -0.493 OA
ATOM     14  C   UNL     1      99.527  95.931  84.511  1.00  0.00     0.278 C 
ENDBRANCH   8  13
BRANCH   9  15
ATOM     15  O   UNL     1      97.491  98.569  83.180  1.00  0.00    -0.504 OA
ATOM     16  H   UNL     1      98.413  98.832  83.125  1.00  0.00     0.293 HD
ENDBRANCH   9  15
ENDBRANCH   6   7
ENDBRANCH   3   6
ENDBRANCH   1   2
BRANCH   1  17
ATOM     17  C   UNL     1      93.606  95.156  77.855  1.00  0.00     0.010 C 
BRANCH  17  18
ATOM     18  C   UNL     1      92.696  95.437  76.627  1.00  0.00     0.001 C 
BRANCH  18  19
ATOM     19  C   UNL     1      91.201  95.108  76.880  1.00  0.00     0.000 C 
BRANCH  19  20
ATOM     20  C   UNL     1      90.676  93.991  75.931  1.00  0.00     0.003 C 
BRANCH  20  21
ATOM     21  C   UNL     1      90.771  92.540  76.504  1.00  0.00    -0.017 C 
ATOM     22  C   UNL     1      90.312  91.494  75.445  1.00  0.00     0.007 C 
ATOM     23  C   UNL     1      89.963  92.355  77.821  1.00  0.00     0.007 C 
ENDBRANCH  20  21
ENDBRANCH  19  20
ENDBRANCH  18  19
ENDBRANCH  17  18
ENDBRANCH   1  17
TORSDOF 10
ENDMDL
MODEL 4
REMARK VINA RESULT:    -5.823      1.844      2.514
REMARK INTER + INTRA:          -9.887
REMARK INTER:                  -8.817
REMARK INTRA:                  -1.069
REMARK UNBOUND:                -0.830
REMARK SMILES COc1cc(CNC(=O)CCCCCC(C)C)ccc1O
REMARK SMILES IDX 10 1 8 2 7 3 9 5 6 6 5 7 3 8 20 9 4 10 19 11 18 12 2 13 1 14
REMARK SMILES IDX 21 15 11 17 12 18 13 19 14 20 15 21 16 22 17 23
REMARK H PARENT 7 4 21 16
REMARK Flexibility Score: inf
ROOT
ATOM      1  C   UNL     1      96.706  97.208  74.705  1.00  0.00     0.100 C 
ENDROOT
BRANCH   1   2
ATOM      2  C   UNL     1      97.193  97.564  76.054  1.00  0.00     0.220 C 
ATOM      3  N   UNL     1      97.743  96.598  76.843  1.00  0.00    -0.352 N 
ATOM      4  H   UNL     1      97.656  95.657  76.486  1.00  0.00     0.163 HD
ATOM      5  O   UNL     1      97.127  98.760  76.429  1.00  0.00    -0.275 OA
BRANCH   3   6
ATOM      6  C   UNL     1      98.404  96.832  78.086  1.00  0.00     0.151 C 
BRANCH   6   7
ATOM      7  C   UNL     1      97.576  96.467  79.267  1.00  0.00    -0.025 A 
ATOM      8  C   UNL     1      95.876  95.034  80.318  1.00  0.00     0.160 A 
ATOM      9  C   UNL     1      96.046  95.728  81.535  1.00  0.00     0.157 A 
ATOM     10  C   UNL     1      96.627  95.419  79.188  1.00  0.00     0.056 A 
ATOM     11  C   UNL     1      96.967  96.789  81.618  1.00  0.00     0.050 A 
ATOM     12  C   UNL     1      97.730  97.152  80.495  1.00  0.00     0.009 A 
BRANCH   8  13
ATOM     13  O   UNL     1      94.970  94.011  80.211  1.00  0.00    -0.493 OA
ATOM     14  C   UNL     1      95.574  92.710  80.087  1.00  0.00     0.278 C 
ENDBRANCH   8  13
BRANCH   9  15
ATOM     15  O   UNL     1      95.327  95.367  82.627  1.00  0.00    -0.504 OA
ATOM     16  H   UNL     1      94.706  96.066  82.846  1.00  0.00     0.293 HD
ENDBRANCH   9  15
ENDBRANCH   6   7
ENDBRANCH   3   6
ENDBRANCH   1   2
BRANCH   1  17
ATOM     17  C   UNL     1      95.164  97.054  74.602  1.00  0.00     0.010 C 
BRANCH  17  18
ATOM     18  C   UNL     1      94.741  95.561  74.536  1.00  0.00     0.001 C 
BRANCH  18  19
ATOM     19  C   UNL     1      94.746  94.858  75.919  1.00  0.00     0.000 C 
BRANCH  19  20
ATOM     20  C   UNL     1      93.579  93.839  76.066  1.00  0.00     0.003 C 
BRANCH  20  21
ATOM     21  C   UNL     1      92.421  94.293  77.014  1.00  0.00    -0.017 C 
ATOM     22  C   UNL     1      92.225  93.276  78.177  1.00  0.00     0.007 C 
ATOM     23  C   UNL     1      91.076  94.512  76.263  1.00  0.00     0.007 C 
ENDBRANCH  20  21
ENDBRANCH  19  20
ENDBRANCH  18  19
ENDBRANCH  17  18
ENDBRANCH   1  17
TORSDOF 10
ENDMDL
MODEL 5
REMARK VINA RESULT:    -5.751      4.078      8.233
REMARK INTER + INTRA:          -9.775
REMARK INTER:                  -9.178
REMARK INTRA:                  -0.597
REMARK UNBOUND:                -0.830
REMARK SMILES COc1cc(CNC(=O)CCCCCC(C)C)ccc1O
REMARK SMILES IDX 10 1 8 2 7 3 9 5 6 6 5 7 3 8 20 9 4 10 19 11 18 12 2 13 1 14
REMARK SMILES IDX 21 15 11 17 12 18 13 19 14 20 15 21 16 22 17 23
REMARK H PARENT 7 4 21 16
REMARK Flexibility Score: inf
ROOT
ATOM      1  C   UNL     1      96.577  96.331  80.917  1.00  0.00     0.100 C 
ENDROOT
BRANCH   1   2
ATOM      2  C   UNL     1      95.819  95.160  80.431  1.00  0.00     0.220 C 
ATOM      3  N   UNL     1      95.423  95.112  79.128  1.00  0.00    -0.352 N 
ATOM      4  H   UNL     1      95.570  95.965  78.607  1.00  0.00     0.163 HD
ATOM      5  O   UNL     1      95.590  94.212  81.222  1.00  0.00    -0.275 OA
BRANCH   3   6
ATOM      6  C   UNL     1      94.841  93.976  78.487  1.00  0.00     0.151 C 
BRANCH   6   7
ATOM      7  C   UNL     1      93.475  94.239  77.960  1.00  0.00    -0.025 A 
ATOM      8  C   UNL     1      91.162  93.502  77.569  1.00  0.00     0.160 A 
ATOM      9  C   UNL     1      90.855  94.764  77.017  1.00  0.00     0.157 A 
ATOM     10  C   UNL     1      92.474  93.241  78.020  1.00  0.00     0.056 A 
ATOM     11  C   UNL     1      91.851  95.754  76.928  1.00  0.00     0.050 A 
ATOM     12  C   UNL     1      93.149  95.497  77.401  1.00  0.00     0.009 A 
BRANCH   8  13
ATOM     13  O   UNL     1      90.212  92.517  77.646  1.00  0.00    -0.493 OA
ATOM     14  C   UNL     1      90.241  91.593  76.542  1.00  0.00     0.278 C 
ENDBRANCH   8  13
BRANCH   9  15
ATOM     15  O   UNL     1      89.598  95.024  76.579  1.00  0.00    -0.504 OA
ATOM     16  H   UNL     1      88.965  94.545  77.119  1.00  0.00     0.293 HD
ENDBRANCH   9  15
ENDBRANCH   6   7
ENDBRANCH   3   6
ENDBRANCH   1   2
BRANCH   1  17
ATOM     17  C   UNL     1      96.146  96.834  82.320  1.00  0.00     0.010 C 
BRANCH  17  18
ATOM     18  C   UNL     1      97.292  97.609  83.028  1.00  0.00     0.001 C 
BRANCH  18  19
ATOM     19  C   UNL     1      97.954  96.810  84.182  1.00  0.00     0.000 C 
BRANCH  19  20
ATOM     20  C   UNL     1      97.863  97.559  85.543  1.00  0.00     0.003 C 
BRANCH  20  21
ATOM     21  C   UNL     1      96.425  97.656  86.149  1.00  0.00    -0.017 C 
ATOM     22  C   UNL     1      95.929  99.132  86.170  1.00  0.00     0.007 C 
ATOM     23  C   UNL     1      96.327  97.040  87.575  1.00  0.00     0.007 C 
ENDBRANCH  20  21
ENDBRANCH  19  20
ENDBRANCH  18  19
ENDBRANCH  17  18
ENDBRANCH   1  17
TORSDOF 10
ENDMDL
MODEL 6
REMARK VINA RESULT:    -5.729     12.157     13.834
REMARK INTER + INTRA:          -9.741
REMARK INTER:                  -8.776
REMARK INTRA:                  -0.965
REMARK UNBOUND:                -0.830
REMARK SMILES COc1cc(CNC(=O)CCCCCC(C)C)ccc1O
REMARK SMILES IDX 10 1 8 2 7 3 9 5 6 6 5 7 3 8 20 9 4 10 19 11 18 12 2 13 1 14
REMARK SMILES IDX 21 15 11 17 12 18 13 19 14 20 15 21 16 22 17 23
REMARK H PARENT 7 4 21 16
REMARK Flexibility Score: inf
ROOT
ATOM      1  C   UNL     1      96.906  83.146  74.109  1.00  0.00     0.100 C 
ENDROOT
BRANCH   1   2
ATOM      2  C   UNL     1      96.322  83.417  75.439  1.00  0.00     0.220 C 
ATOM      3  N   UNL     1      96.328  82.437  76.386  1.00  0.00    -0.352 N 
ATOM      4  H   UNL     1      96.624  81.529  76.055  1.00  0.00     0.163 HD
ATOM      5  O   UNL     1      95.868  84.562  75.683  1.00  0.00    -0.275 OA
BRANCH   3   6
ATOM      6  C   UNL     1      95.959  82.613  77.754  1.00  0.00     0.151 C 
BRANCH   6   7
ATOM      7  C   UNL     1      96.859  81.897  78.698  1.00  0.00    -0.025 A 
ATOM      8  C   UNL     1      97.543  81.360  80.999  1.00  0.00     0.160 A 
ATOM      9  C   UNL     1      98.528  80.483  80.498  1.00  0.00     0.157 A 
ATOM     10  C   UNL     1      96.727  82.075  80.096  1.00  0.00     0.056 A 
ATOM     11  C   UNL     1      98.686  80.319  79.110  1.00  0.00     0.050 A 
ATOM     12  C   UNL     1      97.855  81.016  78.217  1.00  0.00     0.009 A 
BRANCH   8  13
ATOM     13  O   UNL     1      97.386  81.549  82.347  1.00  0.00    -0.493 OA
ATOM     14  C   UNL     1      96.135  81.054  82.862  1.00  0.00     0.278 C 
ENDBRANCH   8  13
BRANCH   9  15
ATOM     15  O   UNL     1      99.319  79.792  81.357  1.00  0.00    -0.504 OA
ATOM     16  H   UNL     1     100.241  79.966  81.154  1.00  0.00     0.293 HD
ENDBRANCH   9  15
ENDBRANCH   6   7
ENDBRANCH   3   6
ENDBRANCH   1   2
BRANCH   1  17
ATOM     17  C   UNL     1      97.266  81.656  73.862  1.00  0.00     0.010 C 
BRANCH  17  18
ATOM     18  C   UNL     1      98.803  81.433  73.848  1.00  0.00     0.001 C 
BRANCH  18  19
ATOM     19  C   UNL     1      99.611  82.685  74.280  1.00  0.00     0.000 C 
BRANCH  19  20
ATOM     20  C   UNL     1     100.954  82.815  73.505  1.00  0.00     0.003 C 
BRANCH  20  21
ATOM     21  C   UNL     1     100.983  83.940  72.419  1.00  0.00    -0.017 C 
ATOM     22  C   UNL     1      99.635  84.719  72.390  1.00  0.00     0.007 C 
ATOM     23  C   UNL     1     101.317  83.399  70.998  1.00  0.00     0.007 C 
ENDBRANCH  20  21
ENDBRANCH  19  20
ENDBRANCH  18  19
ENDBRANCH  17  18
ENDBRANCH   1  17
TORSDOF 10
ENDMDL
MODEL 7
REMARK VINA RESULT:    -5.682      3.234      8.263
REMARK INTER + INTRA:          -9.667
REMARK INTER:                  -8.982
REMARK INTRA:                  -0.685
REMARK UNBOUND:                -0.830
REMARK SMILES COc1cc(CNC(=O)CCCCCC(C)C)ccc1O
REMARK SMILES IDX 10 1 8 2 7 3 9 5 6 6 5 7 3 8 20 9 4 10 19 11 18 12 2 13 1 14
REMARK SMILES IDX 21 15 11 17 12 18 13 19 14 20 15 21 16 22 17 23
REMARK H PARENT 7 4 21 16
REMARK Flexibility Score: inf
ROOT
ATOM      1  C   UNL     1      96.739  96.282  80.693  1.00  0.00     0.100 C 
ENDROOT
BRANCH   1   2
ATOM      2  C   UNL     1      95.902  95.153  80.240  1.00  0.00     0.220 C 
ATOM      3  N   UNL     1      95.571  95.051  78.922  1.00  0.00    -0.352 N 
ATOM      4  H   UNL     1      95.823  95.850  78.358  1.00  0.00     0.163 HD
ATOM      5  O   UNL     1      95.546  94.285  81.075  1.00  0.00    -0.275 OA
BRANCH   3   6
ATOM      6  C   UNL     1      94.921  93.930  78.322  1.00  0.00     0.151 C 
BRANCH   6   7
ATOM      7  C   UNL     1      93.534  94.231  77.874  1.00  0.00    -0.025 A 
ATOM      8  C   UNL     1      91.181  93.562  77.628  1.00  0.00     0.160 A 
ATOM      9  C   UNL     1      90.881  94.828  77.081  1.00  0.00     0.157 A 
ATOM     10  C   UNL     1      92.508  93.265  78.003  1.00  0.00     0.056 A 
ATOM     11  C   UNL     1      91.899  95.786  76.923  1.00  0.00     0.050 A 
ATOM     12  C   UNL     1      93.214  95.493  77.321  1.00  0.00     0.009 A 
BRANCH   8  13
ATOM     13  O   UNL     1      90.208  92.608  77.771  1.00  0.00    -0.493 OA
ATOM     14  C   UNL     1      90.120  91.694  76.661  1.00  0.00     0.278 C 
ENDBRANCH   8  13
BRANCH   9  15
ATOM     15  O   UNL     1      89.608  95.123  76.715  1.00  0.00    -0.504 OA
ATOM     16  H   UNL     1      89.515  96.073  76.618  1.00  0.00     0.293 HD
ENDBRANCH   9  15
ENDBRANCH   6   7
ENDBRANCH   3   6
ENDBRANCH   1   2
BRANCH   1  17
ATOM     17  C   UNL     1      96.516  96.689  82.175  1.00  0.00     0.010 C 
BRANCH  17  18
ATOM     18  C   UNL     1      97.854  96.737  82.963  1.00  0.00     0.001 C 
BRANCH  18  19
ATOM     19  C   UNL     1      98.947  95.802  82.381  1.00  0.00     0.000 C 
BRANCH  19  20
ATOM     20  C   UNL     1      99.459  94.772  83.428  1.00  0.00     0.003 C 
BRANCH  20  21
ATOM     21  C   UNL     1     100.780  95.176  84.160  1.00  0.00    -0.017 C 
ATOM     22  C   UNL     1     100.472  95.952  85.475  1.00  0.00     0.007 C 
ATOM     23  C   UNL     1     101.739  96.009  83.261  1.00  0.00     0.007 C 
ENDBRANCH  20  21
ENDBRANCH  19  20
ENDBRANCH  18  19
ENDBRANCH  17  18
ENDBRANCH   1  17
TORSDOF 10
ENDMDL
MODEL 8
REMARK VINA RESULT:    -5.602      0.951      2.095
REMARK INTER + INTRA:          -9.543
REMARK INTER:                  -8.788
REMARK INTRA:                  -0.755
REMARK UNBOUND:                -0.830
REMARK SMILES COc1cc(CNC(=O)CCCCCC(C)C)ccc1O
REMARK SMILES IDX 10 1 8 2 7 3 9 5 6 6 5 7 3 8 20 9 4 10 19 11 18 12 2 13 1 14
REMARK SMILES IDX 21 15 11 17 12 18 13 19 14 20 15 21 16 22 17 23
REMARK H PARENT 7 4 21 16
REMARK Flexibility Score: inf
ROOT
ATOM      1  C   UNL     1      93.906  95.691  74.851  1.00  0.00     0.100 C 
ENDROOT
BRANCH   1   2
ATOM      2  C   UNL     1      95.227  96.153  75.323  1.00  0.00     0.220 C 
ATOM      3  N   UNL     1      95.541  96.045  76.645  1.00  0.00    -0.352 N 
ATOM      4  H   UNL     1      94.775  95.769  77.243  1.00  0.00     0.163 HD
ATOM      5  O   UNL     1      96.052  96.598  74.487  1.00  0.00    -0.275 OA
BRANCH   3   6
ATOM      6  C   UNL     1      96.832  96.289  77.206  1.00  0.00     0.151 C 
BRANCH   6   7
ATOM      7  C   UNL     1      97.055  95.571  78.490  1.00  0.00    -0.025 A 
ATOM      8  C   UNL     1      98.168  95.410  80.677  1.00  0.00     0.160 A 
ATOM      9  C   UNL     1      97.431  94.242  80.964  1.00  0.00     0.157 A 
ATOM     10  C   UNL     1      97.990  96.057  79.435  1.00  0.00     0.056 A 
ATOM     11  C   UNL     1      96.519  93.735  80.020  1.00  0.00     0.050 A 
ATOM     12  C   UNL     1      96.328  94.397  78.795  1.00  0.00     0.009 A 
BRANCH   8  13
ATOM     13  O   UNL     1      99.076  95.909  81.574  1.00  0.00    -0.493 OA
ATOM     14  C   UNL     1      98.730  97.208  82.091  1.00  0.00     0.278 C 
ENDBRANCH   8  13
BRANCH   9  15
ATOM     15  O   UNL     1      97.597  93.611  82.153  1.00  0.00    -0.504 OA
ATOM     16  H   UNL     1      96.760  93.586  82.622  1.00  0.00     0.293 HD
ENDBRANCH   9  15
ENDBRANCH   6   7
ENDBRANCH   3   6
ENDBRANCH   1   2
BRANCH   1  17
ATOM     17  C   UNL     1      93.230  94.641  75.773  1.00  0.00     0.010 C 
BRANCH  17  18
ATOM     18  C   UNL     1      92.102  95.275  76.632  1.00  0.00     0.001 C 
BRANCH  18  19
ATOM     19  C   UNL     1      90.919  94.309  76.908  1.00  0.00     0.000 C 
BRANCH  19  20
ATOM     20  C   UNL     1      90.679  93.322  75.729  1.00  0.00     0.003 C 
BRANCH  20  21
ATOM     21  C   UNL     1      90.632  91.812  76.130  1.00  0.00    -0.017 C 
ATOM     22  C   UNL     1      90.305  90.919  74.897  1.00  0.00     0.007 C 
ATOM     23  C   UNL     1      89.625  91.523  77.281  1.00  0.00     0.007 C 
ENDBRANCH  20  21
ENDBRANCH  19  20
ENDBRANCH  18  19
ENDBRANCH  17  18
ENDBRANCH   1  17
TORSDOF 10
ENDMDL
MODEL 9
REMARK VINA RESULT:    -5.477     12.724     14.404
REMARK INTER + INTRA:          -9.349
REMARK INTER:                  -8.426
REMARK INTRA:                  -0.923
REMARK UNBOUND:                -0.830
REMARK SMILES COc1cc(CNC(=O)CCCCCC(C)C)ccc1O
REMARK SMILES IDX 10 1 8 2 7 3 9 5 6 6 5 7 3 8 20 9 4 10 19 11 18 12 2 13 1 14
REMARK SMILES IDX 21 15 11 17 12 18 13 19 14 20 15 21 16 22 17 23
REMARK H PARENT 7 4 21 16
REMARK Flexibility Score: inf
ROOT
ATOM      1  C   UNL     1      97.506  83.435  74.092  1.00  0.00     0.100 C 
ENDROOT
BRANCH   1   2
ATOM      2  C   UNL     1      96.623  83.329  75.273  1.00  0.00     0.220 C 
ATOM      3  N   UNL     1      96.983  82.518  76.307  1.00  0.00    -0.352 N 
ATOM      4  H   UNL     1      97.786  81.932  76.128  1.00  0.00     0.163 HD
ATOM      5  O   UNL     1      95.578  84.024  75.316  1.00  0.00    -0.275 OA
BRANCH   3   6
ATOM      6  C   UNL     1      96.319  82.454  77.570  1.00  0.00     0.151 C 
BRANCH   6   7
ATOM      7  C   UNL     1      97.111  81.744  78.610  1.00  0.00    -0.025 A 
ATOM      8  C   UNL     1      97.643  81.336  80.976  1.00  0.00     0.160 A 
ATOM      9  C   UNL     1      98.572  80.345  80.594  1.00  0.00     0.157 A 
ATOM     10  C   UNL     1      96.933  82.042  79.982  1.00  0.00     0.056 A 
ATOM     11  C   UNL     1      98.777  80.059  79.232  1.00  0.00     0.050 A 
ATOM     12  C   UNL     1      98.049  80.749  78.248  1.00  0.00     0.009 A 
BRANCH   8  13
ATOM     13  O   UNL     1      97.443  81.643  82.297  1.00  0.00    -0.493 OA
ATOM     14  C   UNL     1      96.209  81.130  82.833  1.00  0.00     0.278 C 
ENDBRANCH   8  13
BRANCH   9  15
ATOM     15  O   UNL     1      99.262  79.662  81.542  1.00  0.00    -0.504 OA
ATOM     16  H   UNL     1      99.115  80.067  82.400  1.00  0.00     0.293 HD
ENDBRANCH   9  15
ENDBRANCH   6   7
ENDBRANCH   3   6
ENDBRANCH   1   2
BRANCH   1  17
ATOM     17  C   UNL     1      98.196  82.104  73.690  1.00  0.00     0.010 C 
BRANCH  17  18
ATOM     18  C   UNL     1      99.590  82.353  73.050  1.00  0.00     0.001 C 
BRANCH  18  19
ATOM     19  C   UNL     1     100.711  82.602  74.093  1.00  0.00     0.000 C 
BRANCH  19  20
ATOM     20  C   UNL     1     101.921  81.644  73.897  1.00  0.00     0.003 C 
BRANCH  20  21
ATOM     21  C   UNL     1     101.913  80.375  74.810  1.00  0.00    -0.017 C 
ATOM     22  C   UNL     1     100.805  80.481  75.898  1.00  0.00     0.007 C 
ATOM     23  C   UNL     1     103.293  80.102  75.477  1.00  0.00     0.007 C 
ENDBRANCH  20  21
ENDBRANCH  19  20
ENDBRANCH  18  19
ENDBRANCH  17  18
ENDBRANCH   1  17
TORSDOF 10
ENDMDL
MODEL 10
REMARK VINA RESULT:    -5.430     12.607     14.263
REMARK INTER + INTRA:          -9.276
REMARK INTER:                  -8.361
REMARK INTRA:                  -0.915
REMARK UNBOUND:                -0.830
REMARK SMILES COc1cc(CNC(=O)CCCCCC(C)C)ccc1O
REMARK SMILES IDX 10 1 8 2 7 3 9 5 6 6 5 7 3 8 20 9 4 10 19 11 18 12 2 13 1 14
REMARK SMILES IDX 21 15 11 17 12 18 13 19 14 20 15 21 16 22 17 23
REMARK H PARENT 7 4 21 16
REMARK Flexibility Score: inf
ROOT
ATOM      1  C   UNL     1      97.488  83.213  74.198  1.00  0.00     0.100 C 
ENDROOT
BRANCH   1   2
ATOM      2  C   UNL     1      96.624  83.206  75.397  1.00  0.00     0.220 C 
ATOM      3  N   UNL     1      96.984  82.458  76.478  1.00  0.00    -0.352 N 
ATOM      4  H   UNL     1      97.772  81.845  76.326  1.00  0.00     0.163 HD
ATOM      5  O   UNL     1      95.594  83.924  75.410  1.00  0.00    -0.275 OA
BRANCH   3   6
ATOM      6  C   UNL     1      96.342  82.493  77.752  1.00  0.00     0.151 C 
BRANCH   6   7
ATOM      7  C   UNL     1      97.085  81.744  78.802  1.00  0.00    -0.025 A 
ATOM      8  C   UNL     1      98.788  80.088  79.438  1.00  0.00     0.160 A 
ATOM      9  C   UNL     1      98.547  80.367  80.800  1.00  0.00     0.157 A 
ATOM     10  C   UNL     1      98.043  80.765  78.448  1.00  0.00     0.056 A 
ATOM     11  C   UNL     1      97.578  81.320  81.163  1.00  0.00     0.050 A 
ATOM     12  C   UNL     1      96.856  82.007  80.173  1.00  0.00     0.009 A 
BRANCH   8  13
ATOM     13  O   UNL     1      99.713  79.150  79.063  1.00  0.00    -0.493 OA
ATOM     14  C   UNL     1     100.967  79.710  78.629  1.00  0.00     0.278 C 
ENDBRANCH   8  13
BRANCH   9  15
ATOM     15  O   UNL     1      99.256  79.721  81.759  1.00  0.00    -0.504 OA
ATOM     16  H   UNL     1      98.669  79.154  82.264  1.00  0.00     0.293 HD
ENDBRANCH   9  15
ENDBRANCH   6   7
ENDBRANCH   3   6
ENDBRANCH   1   2
BRANCH   1  17
ATOM     17  C   UNL     1      97.824  81.802  73.645  1.00  0.00     0.010 C 
BRANCH  17  18
ATOM     18  C   UNL     1      99.162  81.265  74.222  1.00  0.00     0.001 C 
BRANCH  18  19
ATOM     19  C   UNL     1     100.155  82.388  74.624  1.00  0.00     0.000 C 
BRANCH  19  20
ATOM     20  C   UNL     1     101.282  82.583  73.569  1.00  0.00     0.003 C 
BRANCH  20  21
ATOM     21  C   UNL     1     101.415  84.035  73.005  1.00  0.00    -0.017 C 
ATOM     22  C   UNL     1     100.637  84.183  71.664  1.00  0.00     0.007 C 
ATOM     23  C   UNL     1     102.895  84.476  72.815  1.00  0.00     0.007 C 
ENDBRANCH  20  21
ENDBRANCH  19  20
ENDBRANCH  18  19
ENDBRANCH  17  18
ENDBRANCH   1  17
TORSDOF 10
ENDMDL
