MODEL 1
REMARK VINA RESULT:    -7.078      0.000      0.000
REMARK INTER + INTRA:         -12.682
REMARK INTER:                 -12.043
REMARK INTRA:                  -0.639
REMARK UNBOUND:                -0.639
REMARK SMILES C=C(C)[C@]12C[C@@H](C)[C@@]34O[C@](Cc5ccccc5)(O[C@@H]1[C@@H]3C=C(COC(=O)Cc1ccc(O)cc1)C[C@]1(O)C(=O)C(C)=C[C@@H]41)O2
REMARK SMILES IDX 23 1 22 2 21 3 20 4 9 5 8 6 10 7 6 8 18 10 44 11 19 12 5 13
REMARK SMILES IDX 7 14 4 15 11 16 12 17 13 18 17 19 14 20 16 21 15 22 2 23
REMARK SMILES IDX 3 24 1 25 35 26 36 27 43 28 38 29 42 30 39 32 40 33 41 34
REMARK SMILES IDX 37 35 24 37 25 38 26 39 27 40 28 41 29 42 34 43 30 44 33 45
REMARK SMILES IDX 31 46 32 47
REMARK H PARENT 37 36 32 48
REMARK Flexibility Score: 90.00
ROOT
ATOM      1  C   UNL     1      97.469  79.802  80.646  1.00  0.00     0.264 C 
ENDROOT
BRANCH   1   2
ATOM      2  C   UNL     1      97.727  80.308  82.046  1.00  0.00    -0.033 C 
ATOM      3  C   UNL     1      96.786  81.055  82.661  1.00  0.00    -0.015 C 
BRANCH   3   4
ATOM      4  C   UNL     1      96.831  81.739  84.018  1.00  0.00     0.078 C 
ATOM      5  O   UNL     1      95.860  80.159  85.654  1.00  0.00    -0.319 OA
ATOM      6  C   UNL     1      97.093  80.856  85.293  1.00  0.00     0.095 CG0
ATOM      7  C   UNL     1      94.661  80.953  85.580  1.00  0.00     0.289 C 
ATOM      8  C   UNL     1      97.510  81.828  86.472  1.00  0.00     0.023 C 
ATOM      9  G   UNL     1      98.105  79.716  84.977  1.00  0.00     0.000 G0
ATOM     10  O   UNL     1      94.476  81.492  84.274  1.00  0.00    -0.320 OA
ATOM     11  O   UNL     1      94.698  82.075  86.459  1.00  0.00    -0.313 OA
ATOM     12  C   UNL     1      95.504  82.496  84.270  1.00  0.00     0.170 C 
ATOM     13  C   UNL     1      96.789  83.206  86.359  1.00  0.00     0.049 C 
ATOM     14  C   UNL     1      97.316  81.267  87.891  1.00  0.00     0.011 C 
ATOM     15  C   UNL     1      95.414  83.074  85.703  1.00  0.00     0.122 C 
BRANCH   7  16
ATOM     16  C   UNL     1      93.483  80.069  85.941  1.00  0.00     0.135 C 
BRANCH  16  17
ATOM     17  C   UNL     1      92.228  80.469  85.207  1.00  0.00    -0.040 A 
ATOM     18  C   UNL     1      91.618  81.692  85.483  1.00  0.00     0.004 A 
ATOM     19  C   UNL     1      91.679  79.615  84.251  1.00  0.00     0.004 A 
ATOM     20  C   UNL     1      90.457  82.062  84.803  1.00  0.00     0.000 A 
ATOM     21  C   UNL     1      90.518  79.985  83.571  1.00  0.00     0.000 A 
ATOM     22  C   UNL     1      89.908  81.208  83.847  1.00  0.00     0.000 A 
ENDBRANCH  16  17
ENDBRANCH   7  16
BRANCH  15  23
ATOM     23  C   UNL     1      94.632  84.346  85.747  1.00  0.00    -0.046 C 
ATOM     24  C   UNL     1      93.511  84.400  86.742  1.00  0.00     0.042 C 
ATOM     25  C   UNL     1      94.917  85.382  84.944  1.00  0.00     0.010 C 
ENDBRANCH  15  23
ENDBRANCH   3   4
BRANCH   2  26
ATOM     26  C   UNL     1      99.074  79.878  82.597  1.00  0.00     0.078 C 
BRANCH  26  27
ATOM     27  C   UNL     1      99.327  80.113  84.085  1.00  0.00     0.140 C 
ATOM     28  C   UNL     1      98.117  79.711  84.953  1.00  0.00     0.086 CG0
ATOM     29  C   UNL     1     100.428  79.230  84.632  1.00  0.00     0.190 C 
ATOM     30  C   UNL     1      98.737  78.924  86.074  1.00  0.00    -0.010 C 
ATOM     31  G   UNL     1      97.104  80.845  85.285  1.00  0.00     0.000 G0
ATOM     32  O   UNL     1     101.529  79.074  84.125  1.00  0.00    -0.291 OA
ATOM     33  C   UNL     1     100.026  78.614  85.911  1.00  0.00    -0.008 C 
ATOM     34  C   UNL     1     100.922  77.796  86.755  1.00  0.00     0.048 C 
BRANCH  27  35
ATOM     35  O   UNL     1      99.795  81.429  84.329  1.00  0.00    -0.381 OA
ATOM     36  H   UNL     1     100.727  81.377  84.602  1.00  0.00     0.212 HD
ENDBRANCH  27  35
ENDBRANCH  26  27
ENDBRANCH   2  26
ENDBRANCH   1   2
BRANCH   1  37
ATOM     37  O   UNL     1      98.700  79.645  79.973  1.00  0.00    -0.461 OA
BRANCH  37  38
ATOM     38  C   UNL     1      99.081  80.682  79.154  1.00  0.00     0.310 C 
ATOM     39  O   UNL     1      99.891  81.549  79.449  1.00  0.00    -0.252 OA
BRANCH  38  40
ATOM     40  C   UNL     1      98.345  80.583  77.839  1.00  0.00     0.158 C 
BRANCH  40  41
ATOM     41  C   UNL     1      97.809  81.908  77.364  1.00  0.00    -0.037 A 
ATOM     42  C   UNL     1      98.262  82.453  76.162  1.00  0.00     0.008 A 
ATOM     43  C   UNL     1      96.861  82.591  78.124  1.00  0.00     0.008 A 
ATOM     44  C   UNL     1      97.767  83.681  75.722  1.00  0.00     0.046 A 
ATOM     45  C   UNL     1      96.365  83.819  77.685  1.00  0.00     0.046 A 
ATOM     46  C   UNL     1      96.818  84.364  76.484  1.00  0.00     0.115 A 
BRANCH  46  47
ATOM     47  O   UNL     1      96.335  85.562  76.055  1.00  0.00    -0.508 OA
ATOM     48  H   UNL     1      95.635  85.403  75.398  1.00  0.00     0.293 HD
ENDBRANCH  46  47
ENDBRANCH  40  41
ENDBRANCH  38  40
ENDBRANCH  37  38
ENDBRANCH   1  37
TORSDOF 10
ENDMDL
MODEL 2
REMARK VINA RESULT:    -7.070      1.970      3.341
REMARK INTER + INTRA:         -12.668
REMARK INTER:                 -12.812
REMARK INTRA:                   0.143
REMARK UNBOUND:                -0.639
REMARK SMILES C=C(C)[C@]12C[C@@H](C)[C@@]34O[C@](Cc5ccccc5)(O[C@@H]1[C@@H]3C=C(COC(=O)Cc1ccc(O)cc1)C[C@]1(O)C(=O)C(C)=C[C@@H]41)O2
REMARK SMILES IDX 23 1 22 2 21 3 20 4 9 5 8 6 10 7 6 8 18 10 44 11 19 12 5 13
REMARK SMILES IDX 7 14 4 15 11 16 12 17 13 18 17 19 14 20 16 21 15 22 2 23
REMARK SMILES IDX 3 24 1 25 35 26 36 27 43 28 38 29 42 30 39 32 40 33 41 34
REMARK SMILES IDX 37 35 24 37 25 38 26 39 27 40 28 41 29 42 34 43 30 44 33 45
REMARK SMILES IDX 31 46 32 47
REMARK H PARENT 37 36 32 48
REMARK Flexibility Score: 90.00
ROOT
ATOM      1  C   UNL     1      96.693  83.055  80.112  1.00  0.00     0.264 C 
ENDROOT
BRANCH   1   2
ATOM      2  C   UNL     1      97.065  82.076  81.201  1.00  0.00    -0.033 C 
ATOM      3  C   UNL     1      97.049  82.483  82.487  1.00  0.00    -0.015 C 
BRANCH   3   4
ATOM      4  C   UNL     1      97.449  81.727  83.744  1.00  0.00     0.078 C 
ATOM      5  O   UNL     1      95.395  80.676  84.635  1.00  0.00    -0.319 OA
ATOM      6  C   UNL     1      96.711  80.377  84.072  1.00  0.00     0.095 CG0
ATOM      7  C   UNL     1      95.367  81.747  85.598  1.00  0.00     0.289 C 
ATOM      8  C   UNL     1      97.579  79.605  85.149  1.00  0.00     0.023 C 
ATOM      9  G   UNL     1      96.403  79.584  82.768  1.00  0.00     0.000 G0
ATOM     10  O   UNL     1      95.875  82.957  85.042  1.00  0.00    -0.320 OA
ATOM     11  O   UNL     1      96.182  81.475  86.736  1.00  0.00    -0.313 OA
ATOM     12  C   UNL     1      97.274  82.639  84.984  1.00  0.00     0.170 C 
ATOM     13  C   UNL     1      98.303  80.593  86.114  1.00  0.00     0.049 C 
ATOM     14  C   UNL     1      96.824  78.548  85.973  1.00  0.00     0.011 C 
ATOM     15  C   UNL     1      97.501  81.880  86.314  1.00  0.00     0.122 C 
BRANCH   7  16
ATOM     16  C   UNL     1      93.932  81.949  86.042  1.00  0.00     0.135 C 
BRANCH  16  17
ATOM     17  C   UNL     1      92.979  81.037  85.310  1.00  0.00    -0.040 A 
ATOM     18  C   UNL     1      92.939  79.678  85.618  1.00  0.00     0.004 A 
ATOM     19  C   UNL     1      92.139  81.555  84.325  1.00  0.00     0.004 A 
ATOM     20  C   UNL     1      92.057  78.835  84.940  1.00  0.00     0.000 A 
ATOM     21  C   UNL     1      91.257  80.712  83.648  1.00  0.00     0.000 A 
ATOM     22  C   UNL     1      91.216  79.353  83.955  1.00  0.00     0.000 A 
ENDBRANCH  16  17
ENDBRANCH   7  16
BRANCH  15  23
ATOM     23  C   UNL     1      98.083  82.760  87.371  1.00  0.00    -0.046 C 
ATOM     24  C   UNL     1      99.284  83.567  86.973  1.00  0.00     0.042 C 
ATOM     25  C   UNL     1      97.563  82.826  88.605  1.00  0.00     0.010 C 
ENDBRANCH  15  23
ENDBRANCH   3   4
BRANCH   2  26
ATOM     26  C   UNL     1      97.416  80.699  80.670  1.00  0.00     0.078 C 
BRANCH  26  27
ATOM     27  C   UNL     1      97.569  79.575  81.692  1.00  0.00     0.140 C 
ATOM     28  C   UNL     1      96.446  79.590  82.750  1.00  0.00     0.086 CG0
ATOM     29  C   UNL     1      97.414  78.202  81.073  1.00  0.00     0.190 C 
ATOM     30  C   UNL     1      96.024  78.149  82.833  1.00  0.00    -0.010 C 
ATOM     31  G   UNL     1      96.748  80.374  84.060  1.00  0.00     0.000 G0
ATOM     32  O   UNL     1      97.977  77.814  80.060  1.00  0.00    -0.291 OA
ATOM     33  C   UNL     1      96.528  77.350  81.888  1.00  0.00    -0.008 C 
ATOM     34  C   UNL     1      96.272  75.920  81.616  1.00  0.00     0.048 C 
BRANCH  27  35
ATOM     35  O   UNL     1      98.875  79.550  82.244  1.00  0.00    -0.381 OA
ATOM     36  H   UNL     1      99.448  79.031  81.655  1.00  0.00     0.212 HD
ENDBRANCH  27  35
ENDBRANCH  26  27
ENDBRANCH   2  26
ENDBRANCH   1   2
BRANCH   1  37
ATOM     37  O   UNL     1      97.860  83.456  79.426  1.00  0.00    -0.461 OA
BRANCH  37  38
ATOM     38  C   UNL     1      98.016  82.962  78.151  1.00  0.00     0.310 C 
ATOM     39  O   UNL     1      98.577  81.913  77.868  1.00  0.00    -0.252 OA
BRANCH  38  40
ATOM     40  C   UNL     1      97.389  83.915  77.162  1.00  0.00     0.158 C 
BRANCH  40  41
ATOM     41  C   UNL     1      98.035  83.860  75.802  1.00  0.00    -0.037 A 
ATOM     42  C   UNL     1      99.424  83.910  75.687  1.00  0.00     0.008 A 
ATOM     43  C   UNL     1      97.245  83.759  74.658  1.00  0.00     0.008 A 
ATOM     44  C   UNL     1     100.023  83.859  74.428  1.00  0.00     0.046 A 
ATOM     45  C   UNL     1      97.843  83.708  73.398  1.00  0.00     0.046 A 
ATOM     46  C   UNL     1      99.231  83.759  73.283  1.00  0.00     0.115 A 
BRANCH  46  47
ATOM     47  O   UNL     1      99.815  83.710  72.055  1.00  0.00    -0.508 OA
ATOM     48  H   UNL     1     100.112  82.799  71.882  1.00  0.00     0.293 HD
ENDBRANCH  46  47
ENDBRANCH  40  41
ENDBRANCH  38  40
ENDBRANCH  37  38
ENDBRANCH   1  37
TORSDOF 10
ENDMDL
MODEL 3
REMARK VINA RESULT:    -7.010      2.199      3.833
REMARK INTER + INTRA:         -12.566
REMARK INTER:                 -12.940
REMARK INTRA:                   0.373
REMARK UNBOUND:                -0.639
REMARK SMILES C=C(C)[C@]12C[C@@H](C)[C@@]34O[C@](Cc5ccccc5)(O[C@@H]1[C@@H]3C=C(COC(=O)Cc1ccc(O)cc1)C[C@]1(O)C(=O)C(C)=C[C@@H]41)O2
REMARK SMILES IDX 23 1 22 2 21 3 20 4 9 5 8 6 10 7 6 8 18 10 44 11 19 12 5 13
REMARK SMILES IDX 7 14 4 15 11 16 12 17 13 18 17 19 14 20 16 21 15 22 2 23
REMARK SMILES IDX 3 24 1 25 35 26 36 27 43 28 38 29 42 30 39 32 40 33 41 34
REMARK SMILES IDX 37 35 24 37 25 38 26 39 27 40 28 41 29 42 34 43 30 44 33 45
REMARK SMILES IDX 31 46 32 47
REMARK H PARENT 37 36 32 48
REMARK Flexibility Score: 90.00
ROOT
ATOM      1  C   UNL     1      96.732  83.196  80.091  1.00  0.00     0.264 C 
ENDROOT
BRANCH   1   2
ATOM      2  C   UNL     1      97.124  82.180  81.138  1.00  0.00    -0.033 C 
ATOM      3  C   UNL     1      97.114  82.536  82.439  1.00  0.00    -0.015 C 
BRANCH   3   4
ATOM      4  C   UNL     1      97.533  81.737  83.662  1.00  0.00     0.078 C 
ATOM      5  O   UNL     1      95.505  80.604  84.512  1.00  0.00    -0.319 OA
ATOM      6  C   UNL     1      96.825  80.358  83.934  1.00  0.00     0.095 CG0
ATOM      7  C   UNL     1      95.456  81.633  85.519  1.00  0.00     0.289 C 
ATOM      8  C   UNL     1      97.712  79.560  84.976  1.00  0.00     0.023 C 
ATOM      9  G   UNL     1      96.531  79.615  82.598  1.00  0.00     0.000 G0
ATOM     10  O   UNL     1      95.936  82.876  85.014  1.00  0.00    -0.320 OA
ATOM     11  O   UNL     1      96.279  81.330  86.643  1.00  0.00    -0.313 OA
ATOM     12  C   UNL     1      97.342  82.591  84.940  1.00  0.00     0.170 C 
ATOM     13  C   UNL     1      98.417  80.521  85.981  1.00  0.00     0.049 C 
ATOM     14  C   UNL     1      96.982  78.453  85.756  1.00  0.00     0.011 C 
ATOM     15  C   UNL     1      97.588  81.781  86.236  1.00  0.00     0.122 C 
BRANCH   7  16
ATOM     16  C   UNL     1      94.018  81.784  85.973  1.00  0.00     0.135 C 
BRANCH  16  17
ATOM     17  C   UNL     1      93.779  83.103  86.666  1.00  0.00    -0.040 A 
ATOM     18  C   UNL     1      93.420  84.227  85.922  1.00  0.00     0.004 A 
ATOM     19  C   UNL     1      93.917  83.197  88.050  1.00  0.00     0.004 A 
ATOM     20  C   UNL     1      93.198  85.446  86.563  1.00  0.00     0.000 A 
ATOM     21  C   UNL     1      93.695  84.417  88.691  1.00  0.00     0.000 A 
ATOM     22  C   UNL     1      93.336  85.540  87.947  1.00  0.00     0.000 A 
ENDBRANCH  16  17
ENDBRANCH   7  16
BRANCH  15  23
ATOM     23  C   UNL     1      98.154  82.629  87.329  1.00  0.00    -0.046 C 
ATOM     24  C   UNL     1      99.268  83.555  86.939  1.00  0.00     0.042 C 
ATOM     25  C   UNL     1      97.692  82.566  88.587  1.00  0.00     0.010 C 
ENDBRANCH  15  23
ENDBRANCH   3   4
BRANCH   2  26
ATOM     26  C   UNL     1      97.486  80.829  80.551  1.00  0.00     0.078 C 
BRANCH  26  27
ATOM     27  C   UNL     1      97.698  79.676  81.530  1.00  0.00     0.140 C 
ATOM     28  C   UNL     1      96.580  79.599  82.591  1.00  0.00     0.086 CG0
ATOM     29  C   UNL     1      97.603  78.321  80.860  1.00  0.00     0.190 C 
ATOM     30  C   UNL     1      96.227  78.138  82.623  1.00  0.00    -0.010 C 
ATOM     31  G   UNL     1      96.853  80.348  83.928  1.00  0.00     0.000 G0
ATOM     32  O   UNL     1      98.178  77.998  79.832  1.00  0.00    -0.291 OA
ATOM     33  C   UNL     1      96.762  77.399  81.647  1.00  0.00    -0.008 C 
ATOM     34  C   UNL     1      96.572  75.970  81.323  1.00  0.00     0.048 C 
BRANCH  27  35
ATOM     35  O   UNL     1      99.006  79.692  82.076  1.00  0.00    -0.381 OA
ATOM     36  H   UNL     1      99.365  80.591  81.983  1.00  0.00     0.212 HD
ENDBRANCH  27  35
ENDBRANCH  26  27
ENDBRANCH   2  26
ENDBRANCH   1   2
BRANCH   1  37
ATOM     37  O   UNL     1      97.893  83.669  79.442  1.00  0.00    -0.461 OA
BRANCH  37  38
ATOM     38  C   UNL     1      98.131  83.169  78.182  1.00  0.00     0.310 C 
ATOM     39  O   UNL     1      98.921  82.273  77.921  1.00  0.00    -0.252 OA
BRANCH  38  40
ATOM     40  C   UNL     1      97.269  83.897  77.179  1.00  0.00     0.158 C 
BRANCH  40  41
ATOM     41  C   UNL     1      97.917  84.018  75.825  1.00  0.00    -0.037 A 
ATOM     42  C   UNL     1      97.132  84.226  74.691  1.00  0.00     0.008 A 
ATOM     43  C   UNL     1      99.303  83.921  75.703  1.00  0.00     0.008 A 
ATOM     44  C   UNL     1      97.732  84.336  73.436  1.00  0.00     0.046 A 
ATOM     45  C   UNL     1      99.904  84.032  74.449  1.00  0.00     0.046 A 
ATOM     46  C   UNL     1      99.119  84.239  73.316  1.00  0.00     0.115 A 
BRANCH  46  47
ATOM     47  O   UNL     1      99.704  84.347  72.092  1.00  0.00    -0.508 OA
ATOM     48  H   UNL     1      99.815  83.456  71.716  1.00  0.00     0.293 HD
ENDBRANCH  46  47
ENDBRANCH  40  41
ENDBRANCH  38  40
ENDBRANCH  37  38
ENDBRANCH   1  37
TORSDOF 10
ENDMDL
MODEL 4
REMARK VINA RESULT:    -6.851     18.374     21.131
REMARK INTER + INTRA:         -12.296
REMARK INTER:                 -11.405
REMARK INTRA:                  -0.891
REMARK UNBOUND:                -0.639
REMARK SMILES C=C(C)[C@]12C[C@@H](C)[C@@]34O[C@](Cc5ccccc5)(O[C@@H]1[C@@H]3C=C(COC(=O)Cc1ccc(O)cc1)C[C@]1(O)C(=O)C(C)=C[C@@H]41)O2
REMARK SMILES IDX 23 1 22 2 21 3 20 4 9 5 8 6 10 7 6 8 18 10 44 11 19 12 5 13
REMARK SMILES IDX 7 14 4 15 11 16 12 17 13 18 17 19 14 20 16 21 15 22 2 23
REMARK SMILES IDX 3 24 1 25 35 26 36 27 43 28 38 29 42 30 39 32 40 33 41 34
REMARK SMILES IDX 37 35 24 37 25 38 26 39 27 40 28 41 29 42 34 43 30 44 33 45
REMARK SMILES IDX 31 46 32 47
REMARK H PARENT 37 36 32 48
REMARK Flexibility Score: 90.00
ROOT
ATOM      1  C   UNL     1      87.179  70.311  72.217  1.00  0.00     0.264 C 
ENDROOT
BRANCH   1   2
ATOM      2  C   UNL     1      86.529  69.191  72.997  1.00  0.00    -0.033 C 
ATOM      3  C   UNL     1      85.447  68.571  72.482  1.00  0.00    -0.015 C 
BRANCH   3   4
ATOM      4  C   UNL     1      84.576  67.484  73.092  1.00  0.00     0.078 C 
ATOM      5  O   UNL     1      85.494  65.316  72.333  1.00  0.00    -0.319 OA
ATOM      6  C   UNL     1      85.258  66.133  73.522  1.00  0.00     0.095 CG0
ATOM      7  C   UNL     1      84.414  65.289  71.381  1.00  0.00     0.289 C 
ATOM      8  C   UNL     1      84.255  65.375  74.487  1.00  0.00     0.023 C 
ATOM      9  G   UNL     1      86.678  66.391  74.104  1.00  0.00     0.000 G0
ATOM     10  O   UNL     1      84.083  66.601  70.935  1.00  0.00    -0.320 OA
ATOM     11  O   UNL     1      83.213  64.758  71.937  1.00  0.00    -0.313 OA
ATOM     12  C   UNL     1      83.437  67.111  72.112  1.00  0.00     0.170 C 
ATOM     13  C   UNL     1      82.770  65.650  74.098  1.00  0.00     0.049 C 
ATOM     14  C   UNL     1      84.476  63.858  74.612  1.00  0.00     0.011 C 
ATOM     15  C   UNL     1      82.613  65.892  72.596  1.00  0.00     0.122 C 
BRANCH   7  16
ATOM     16  C   UNL     1      84.842  64.439  70.201  1.00  0.00     0.135 C 
BRANCH  16  17
ATOM     17  C   UNL     1      85.585  65.243  69.164  1.00  0.00    -0.040 A 
ATOM     18  C   UNL     1      86.848  65.758  69.453  1.00  0.00     0.004 A 
ATOM     19  C   UNL     1      85.008  65.472  67.915  1.00  0.00     0.004 A 
ATOM     20  C   UNL     1      87.536  66.502  68.493  1.00  0.00     0.000 A 
ATOM     21  C   UNL     1      85.695  66.215  66.955  1.00  0.00     0.000 A 
ATOM     22  C   UNL     1      86.958  66.730  67.244  1.00  0.00     0.000 A 
ENDBRANCH  16  17
ENDBRANCH   7  16
BRANCH  15  23
ATOM     23  C   UNL     1      81.183  65.978  72.175  1.00  0.00    -0.046 C 
ATOM     24  C   UNL     1      80.251  66.662  73.131  1.00  0.00     0.042 C 
ATOM     25  C   UNL     1      80.755  65.472  71.009  1.00  0.00     0.010 C 
ENDBRANCH  15  23
ENDBRANCH   3   4
BRANCH   2  26
ATOM     26  C   UNL     1      87.224  68.900  74.314  1.00  0.00     0.078 C 
BRANCH  26  27
ATOM     27  C   UNL     1      86.812  67.630  75.055  1.00  0.00     0.140 C 
ATOM     28  C   UNL     1      86.688  66.416  74.110  1.00  0.00     0.086 CG0
ATOM     29  C   UNL     1      87.863  67.167  76.041  1.00  0.00     0.190 C 
ATOM     30  C   UNL     1      87.407  65.322  74.848  1.00  0.00    -0.010 C 
ATOM     31  G   UNL     1      85.270  66.142  73.530  1.00  0.00     0.000 G0
ATOM     32  O   UNL     1      88.418  67.874  76.869  1.00  0.00    -0.291 OA
ATOM     33  C   UNL     1      88.100  65.716  75.921  1.00  0.00    -0.008 C 
ATOM     34  C   UNL     1      88.978  64.942  76.823  1.00  0.00     0.048 C 
BRANCH  27  35
ATOM     35  O   UNL     1      85.666  67.848  75.860  1.00  0.00    -0.381 OA
ATOM     36  H   UNL     1      85.847  68.594  76.456  1.00  0.00     0.212 HD
ENDBRANCH  27  35
ENDBRANCH  26  27
ENDBRANCH   2  26
ENDBRANCH   1   2
BRANCH   1  37
ATOM     37  O   UNL     1      88.480  69.919  71.835  1.00  0.00    -0.461 OA
BRANCH  37  38
ATOM     38  C   UNL     1      88.675  69.688  70.492  1.00  0.00     0.310 C 
ATOM     39  O   UNL     1      89.490  68.906  70.025  1.00  0.00    -0.252 OA
BRANCH  38  40
ATOM     40  C   UNL     1      87.728  70.549  69.691  1.00  0.00     0.158 C 
BRANCH  40  41
ATOM     41  C   UNL     1      88.436  71.599  68.875  1.00  0.00    -0.037 A 
ATOM     42  C   UNL     1      87.878  72.046  67.677  1.00  0.00     0.008 A 
ATOM     43  C   UNL     1      89.649  72.125  69.317  1.00  0.00     0.008 A 
ATOM     44  C   UNL     1      88.534  73.017  66.921  1.00  0.00     0.046 A 
ATOM     45  C   UNL     1      90.306  73.097  68.561  1.00  0.00     0.046 A 
ATOM     46  C   UNL     1      89.748  73.543  67.364  1.00  0.00     0.115 A 
BRANCH  46  47
ATOM     47  O   UNL     1      90.388  74.491  66.626  1.00  0.00    -0.508 OA
ATOM     48  H   UNL     1      91.334  74.267  66.576  1.00  0.00     0.293 HD
ENDBRANCH  46  47
ENDBRANCH  40  41
ENDBRANCH  38  40
ENDBRANCH  37  38
ENDBRANCH   1  37
TORSDOF 10
ENDMDL
MODEL 5
REMARK VINA RESULT:    -6.556      7.061     11.122
REMARK INTER + INTRA:         -11.793
REMARK INTER:                 -10.786
REMARK INTRA:                  -1.007
REMARK UNBOUND:                -0.639
REMARK SMILES C=C(C)[C@]12C[C@@H](C)[C@@]34O[C@](Cc5ccccc5)(O[C@@H]1[C@@H]3C=C(COC(=O)Cc1ccc(O)cc1)C[C@]1(O)C(=O)C(C)=C[C@@H]41)O2
REMARK SMILES IDX 23 1 22 2 21 3 20 4 9 5 8 6 10 7 6 8 18 10 44 11 19 12 5 13
REMARK SMILES IDX 7 14 4 15 11 16 12 17 13 18 17 19 14 20 16 21 15 22 2 23
REMARK SMILES IDX 3 24 1 25 35 26 36 27 43 28 38 29 42 30 39 32 40 33 41 34
REMARK SMILES IDX 37 35 24 37 25 38 26 39 27 40 28 41 29 42 34 43 30 44 33 45
REMARK SMILES IDX 31 46 32 47
REMARK H PARENT 37 36 32 48
REMARK Flexibility Score: 90.00
ROOT
ATOM      1  C   UNL     1      92.995  75.705  84.085  1.00  0.00     0.264 C 
ENDROOT
BRANCH   1   2
ATOM      2  C   UNL     1      91.994  75.024  83.180  1.00  0.00    -0.033 C 
ATOM      3  C   UNL     1      92.096  75.185  81.845  1.00  0.00    -0.015 C 
BRANCH   3   4
ATOM      4  C   UNL     1      91.185  74.677  80.739  1.00  0.00     0.078 C 
ATOM      5  O   UNL     1      92.120  72.521  79.968  1.00  0.00    -0.319 OA
ATOM      6  C   UNL     1      90.956  73.126  80.612  1.00  0.00     0.095 CG0
ATOM      7  C   UNL     1      92.650  73.250  78.844  1.00  0.00     0.289 C 
ATOM      8  C   UNL     1      89.679  72.903  79.700  1.00  0.00     0.023 C 
ATOM      9  G   UNL     1      90.898  72.458  82.016  1.00  0.00     0.000 G0
ATOM     10  O   UNL     1      93.011  74.578  79.213  1.00  0.00    -0.320 OA
ATOM     11  O   UNL     1      91.700  73.388  77.790  1.00  0.00    -0.313 OA
ATOM     12  C   UNL     1      91.707  75.160  79.363  1.00  0.00     0.170 C 
ATOM     13  C   UNL     1      89.555  74.011  78.609  1.00  0.00     0.049 C 
ATOM     14  C   UNL     1      89.574  71.519  79.035  1.00  0.00     0.011 C 
ATOM     15  C   UNL     1      90.924  74.539  78.181  1.00  0.00     0.122 C 
BRANCH   7  16
ATOM     16  C   UNL     1      93.870  72.511  78.331  1.00  0.00     0.135 C 
BRANCH  16  17
ATOM     17  C   UNL     1      94.922  73.453  77.802  1.00  0.00    -0.040 A 
ATOM     18  C   UNL     1      94.749  74.067  76.562  1.00  0.00     0.004 A 
ATOM     19  C   UNL     1      96.068  73.709  78.554  1.00  0.00     0.004 A 
ATOM     20  C   UNL     1      95.723  74.939  76.073  1.00  0.00     0.000 A 
ATOM     21  C   UNL     1      97.042  74.581  78.065  1.00  0.00     0.000 A 
ATOM     22  C   UNL     1      96.869  75.195  76.825  1.00  0.00     0.000 A 
ENDBRANCH  16  17
ENDBRANCH   7  16
BRANCH  15  23
ATOM     23  C   UNL     1      90.841  75.468  77.013  1.00  0.00    -0.046 C 
ATOM     24  C   UNL     1      90.722  74.825  75.663  1.00  0.00     0.042 C 
ATOM     25  C   UNL     1      90.871  76.800  77.163  1.00  0.00     0.010 C 
ENDBRANCH  15  23
ENDBRANCH   3   4
BRANCH   2  26
ATOM     26  C   UNL     1      90.966  74.206  83.939  1.00  0.00     0.078 C 
BRANCH  26  27
ATOM     27  C   UNL     1      90.108  73.237  83.127  1.00  0.00     0.140 C 
ATOM     28  C   UNL     1      90.927  72.491  82.054  1.00  0.00     0.086 CG0
ATOM     29  C   UNL     1      89.562  72.102  83.968  1.00  0.00     0.190 C 
ATOM     30  C   UNL     1      90.484  71.062  82.206  1.00  0.00    -0.010 C 
ATOM     31  G   UNL     1      90.950  73.136  80.638  1.00  0.00     0.000 G0
ATOM     32  O   UNL     1      89.001  72.226  85.046  1.00  0.00    -0.291 OA
ATOM     33  C   UNL     1      89.740  70.806  83.286  1.00  0.00    -0.008 C 
ATOM     34  C   UNL     1      89.206  69.524  83.791  1.00  0.00     0.048 C 
BRANCH  27  35
ATOM     35  O   UNL     1      88.946  73.873  82.622  1.00  0.00    -0.381 OA
ATOM     36  H   UNL     1      89.129  74.169  81.714  1.00  0.00     0.212 HD
ENDBRANCH  27  35
ENDBRANCH  26  27
ENDBRANCH   2  26
ENDBRANCH   1   2
BRANCH   1  37
ATOM     37  O   UNL     1      93.801  76.574  83.318  1.00  0.00    -0.461 OA
BRANCH  37  38
ATOM     38  C   UNL     1      94.213  77.729  83.941  1.00  0.00     0.310 C 
ATOM     39  O   UNL     1      95.199  78.382  83.629  1.00  0.00    -0.252 OA
BRANCH  38  40
ATOM     40  C   UNL     1      93.261  78.062  85.065  1.00  0.00     0.158 C 
BRANCH  40  41
ATOM     41  C   UNL     1      92.351  79.218  84.741  1.00  0.00    -0.037 A 
ATOM     42  C   UNL     1      92.785  80.527  84.950  1.00  0.00     0.008 A 
ATOM     43  C   UNL     1      91.074  78.980  84.233  1.00  0.00     0.008 A 
ATOM     44  C   UNL     1      91.942  81.598  84.652  1.00  0.00     0.046 A 
ATOM     45  C   UNL     1      90.231  80.051  83.934  1.00  0.00     0.046 A 
ATOM     46  C   UNL     1      90.665  81.359  84.143  1.00  0.00     0.115 A 
BRANCH  46  47
ATOM     47  O   UNL     1      89.843  82.404  83.852  1.00  0.00    -0.508 OA
ATOM     48  H   UNL     1      89.150  82.100  83.240  1.00  0.00     0.293 HD
ENDBRANCH  46  47
ENDBRANCH  40  41
ENDBRANCH  38  40
ENDBRANCH  37  38
ENDBRANCH   1  37
TORSDOF 10
ENDMDL
MODEL 6
REMARK VINA RESULT:    -6.423     15.099     19.690
REMARK INTER + INTRA:         -11.568
REMARK INTER:                 -11.415
REMARK INTRA:                  -0.153
REMARK UNBOUND:                -0.639
REMARK SMILES C=C(C)[C@]12C[C@@H](C)[C@@]34O[C@](Cc5ccccc5)(O[C@@H]1[C@@H]3C=C(COC(=O)Cc1ccc(O)cc1)C[C@]1(O)C(=O)C(C)=C[C@@H]41)O2
REMARK SMILES IDX 23 1 22 2 21 3 20 4 9 5 8 6 10 7 6 8 18 10 44 11 19 12 5 13
REMARK SMILES IDX 7 14 4 15 11 16 12 17 13 18 17 19 14 20 16 21 15 22 2 23
REMARK SMILES IDX 3 24 1 25 35 26 36 27 43 28 38 29 42 30 39 32 40 33 41 34
REMARK SMILES IDX 37 35 24 37 25 38 26 39 27 40 28 41 29 42 34 43 30 44 33 45
REMARK SMILES IDX 31 46 32 47
REMARK H PARENT 37 36 32 48
REMARK Flexibility Score: 90.00
ROOT
ATOM      1  C   UNL     1      92.103  94.777  90.202  1.00  0.00     0.264 C 
ENDROOT
BRANCH   1   2
ATOM      2  C   UNL     1      91.683  96.193  90.521  1.00  0.00    -0.033 C 
ATOM      3  C   UNL     1      92.616  97.168  90.542  1.00  0.00    -0.015 C 
BRANCH   3   4
ATOM      4  C   UNL     1      92.467  98.638  90.905  1.00  0.00     0.078 C 
ATOM      5  O   UNL     1      92.021  99.857  88.800  1.00  0.00    -0.319 OA
ATOM      6  C   UNL     1      91.438  99.508  90.094  1.00  0.00     0.095 CG0
ATOM      7  C   UNL     1      93.406 100.253  88.836  1.00  0.00     0.289 C 
ATOM      8  C   UNL     1      91.173 100.832  90.923  1.00  0.00     0.023 C 
ATOM      9  G   UNL     1      90.171  98.678  89.737  1.00  0.00     0.000 G0
ATOM     10  O   UNL     1      94.221  99.233  89.407  1.00  0.00    -0.320 OA
ATOM     11  O   UNL     1      93.619 101.411  89.639  1.00  0.00    -0.313 OA
ATOM     12  C   UNL     1      93.838  99.349  90.786  1.00  0.00     0.170 C 
ATOM     13  C   UNL     1      92.444 101.282  91.705  1.00  0.00     0.049 C 
ATOM     14  C   UNL     1      90.625 102.020  90.113  1.00  0.00     0.011 C 
ATOM     15  C   UNL     1      93.728 100.882  90.976  1.00  0.00     0.122 C 
BRANCH   7  16
ATOM     16  C   UNL     1      93.856 100.534  87.416  1.00  0.00     0.135 C 
BRANCH  16  17
ATOM     17  C   UNL     1      93.693 101.988  87.047  1.00  0.00    -0.040 A 
ATOM     18  C   UNL     1      94.818 102.789  86.854  1.00  0.00     0.004 A 
ATOM     19  C   UNL     1      92.417 102.529  86.900  1.00  0.00     0.004 A 
ATOM     20  C   UNL     1      94.667 104.133  86.513  1.00  0.00     0.000 A 
ATOM     21  C   UNL     1      92.265 103.874  86.558  1.00  0.00     0.000 A 
ATOM     22  C   UNL     1      93.390 104.675  86.365  1.00  0.00     0.000 A 
ENDBRANCH  16  17
ENDBRANCH   7  16
BRANCH  15  23
ATOM     23  C   UNL     1      94.952 101.458  91.611  1.00  0.00    -0.046 C 
ATOM     24  C   UNL     1      95.027 102.955  91.665  1.00  0.00     0.042 C 
ATOM     25  C   UNL     1      95.928 100.681  92.105  1.00  0.00     0.010 C 
ENDBRANCH  15  23
ENDBRANCH   3   4
BRANCH   2  26
ATOM     26  C   UNL     1      90.195  96.329  90.780  1.00  0.00     0.078 C 
BRANCH  26  27
ATOM     27  C   UNL     1      89.629  97.745  90.878  1.00  0.00     0.140 C 
ATOM     28  C   UNL     1      90.167  98.666  89.763  1.00  0.00     0.086 CG0
ATOM     29  C   UNL     1      88.134  97.790  90.644  1.00  0.00     0.190 C 
ATOM     30  C   UNL     1      88.935  99.367  89.264  1.00  0.00    -0.010 C 
ATOM     31  G   UNL     1      91.432  99.503  90.115  1.00  0.00     0.000 G0
ATOM     32  O   UNL     1      87.312  97.062  91.179  1.00  0.00    -0.291 OA
ATOM     33  C   UNL     1      87.776  98.881  89.717  1.00  0.00    -0.008 C 
ATOM     34  C   UNL     1      86.388  99.261  89.383  1.00  0.00     0.048 C 
BRANCH  27  35
ATOM     35  O   UNL     1      89.784  98.276  92.183  1.00  0.00    -0.381 OA
ATOM     36  H   UNL     1      90.137  99.178  92.107  1.00  0.00     0.212 HD
ENDBRANCH  27  35
ENDBRANCH  26  27
ENDBRANCH   2  26
ENDBRANCH   1   2
BRANCH   1  37
ATOM     37  O   UNL     1      93.376  94.795  89.591  1.00  0.00    -0.461 OA
BRANCH  37  38
ATOM     38  C   UNL     1      94.118  93.641  89.701  1.00  0.00     0.310 C 
ATOM     39  O   UNL     1      95.340  93.586  89.668  1.00  0.00    -0.252 OA
BRANCH  38  40
ATOM     40  C   UNL     1      93.193  92.460  89.868  1.00  0.00     0.158 C 
BRANCH  40  41
ATOM     41  C   UNL     1      93.624  91.258  89.069  1.00  0.00    -0.037 A 
ATOM     42  C   UNL     1      93.312  89.974  89.517  1.00  0.00     0.008 A 
ATOM     43  C   UNL     1      94.334  91.428  87.881  1.00  0.00     0.008 A 
ATOM     44  C   UNL     1      93.712  88.861  88.778  1.00  0.00     0.046 A 
ATOM     45  C   UNL     1      94.734  90.315  87.141  1.00  0.00     0.046 A 
ATOM     46  C   UNL     1      94.423  89.032  87.589  1.00  0.00     0.115 A 
BRANCH  46  47
ATOM     47  O   UNL     1      94.813  87.945  86.868  1.00  0.00    -0.508 OA
ATOM     48  H   UNL     1      94.113  87.271  86.910  1.00  0.00     0.293 HD
ENDBRANCH  46  47
ENDBRANCH  40  41
ENDBRANCH  38  40
ENDBRANCH  37  38
ENDBRANCH   1  37
TORSDOF 10
ENDMDL
MODEL 7
REMARK VINA RESULT:    -6.372     27.281     30.920
REMARK INTER + INTRA:         -11.481
REMARK INTER:                  -9.171
REMARK INTRA:                  -2.310
REMARK UNBOUND:                -0.639
REMARK SMILES C=C(C)[C@]12C[C@@H](C)[C@@]34O[C@](Cc5ccccc5)(O[C@@H]1[C@@H]3C=C(COC(=O)Cc1ccc(O)cc1)C[C@]1(O)C(=O)C(C)=C[C@@H]41)O2
REMARK SMILES IDX 23 1 22 2 21 3 20 4 9 5 8 6 10 7 6 8 18 10 44 11 19 12 5 13
REMARK SMILES IDX 7 14 4 15 11 16 12 17 13 18 17 19 14 20 16 21 15 22 2 23
REMARK SMILES IDX 3 24 1 25 35 26 36 27 43 28 38 29 42 30 39 32 40 33 41 34
REMARK SMILES IDX 37 35 24 37 25 38 26 39 27 40 28 41 29 42 34 43 30 44 33 45
REMARK SMILES IDX 31 46 32 47
REMARK H PARENT 37 36 32 48
REMARK Flexibility Score: 90.00
ROOT
ATOM      1  C   UNL     1      71.296  89.646  70.441  1.00  0.00     0.264 C 
ENDROOT
BRANCH   1   2
ATOM      2  C   UNL     1      71.186  89.114  69.030  1.00  0.00    -0.033 C 
ATOM      3  C   UNL     1      71.777  87.942  68.720  1.00  0.00    -0.015 C 
BRANCH   3   4
ATOM      4  C   UNL     1      71.878  87.238  67.376  1.00  0.00     0.078 C 
ATOM      5  O   UNL     1      69.977  85.662  67.244  1.00  0.00    -0.319 OA
ATOM      6  C   UNL     1      70.547  86.858  66.628  1.00  0.00     0.095 CG0
ATOM      7  C   UNL     1      70.924  84.626  67.568  1.00  0.00     0.289 C 
ATOM      8  C   UNL     1      70.918  86.546  65.120  1.00  0.00     0.023 C 
ATOM      9  G   UNL     1      69.464  87.956  66.836  1.00  0.00     0.000 G0
ATOM     10  O   UNL     1      71.940  85.108  68.442  1.00  0.00    -0.320 OA
ATOM     11  O   UNL     1      71.607  84.135  66.417  1.00  0.00    -0.313 OA
ATOM     12  C   UNL     1      72.688  85.927  67.529  1.00  0.00     0.170 C 
ATOM     13  C   UNL     1      72.334  85.903  65.000  1.00  0.00     0.049 C 
ATOM     14  C   UNL     1      69.900  85.682  64.354  1.00  0.00     0.011 C 
ATOM     15  C   UNL     1      72.686  85.075  66.236  1.00  0.00     0.122 C 
BRANCH   7  16
ATOM     16  C   UNL     1      70.174  83.488  68.232  1.00  0.00     0.135 C 
BRANCH  16  17
ATOM     17  C   UNL     1      69.070  83.986  69.131  1.00  0.00    -0.040 A 
ATOM     18  C   UNL     1      69.372  84.479  70.400  1.00  0.00     0.004 A 
ATOM     19  C   UNL     1      67.746  83.953  68.693  1.00  0.00     0.004 A 
ATOM     20  C   UNL     1      68.351  84.941  71.231  1.00  0.00     0.000 A 
ATOM     21  C   UNL     1      66.725  84.415  69.524  1.00  0.00     0.000 A 
ATOM     22  C   UNL     1      67.028  84.908  70.793  1.00  0.00     0.000 A 
ENDBRANCH  16  17
ENDBRANCH   7  16
BRANCH  15  23
ATOM     23  C   UNL     1      73.956  84.306  66.069  1.00  0.00    -0.046 C 
ATOM     24  C   UNL     1      75.150  84.828  66.812  1.00  0.00     0.042 C 
ATOM     25  C   UNL     1      74.025  83.210  65.298  1.00  0.00     0.010 C 
ENDBRANCH  15  23
ENDBRANCH   3   4
BRANCH   2  26
ATOM     26  C   UNL     1      70.381  90.017  68.115  1.00  0.00     0.078 C 
BRANCH  26  27
ATOM     27  C   UNL     1      69.971  89.447  66.758  1.00  0.00     0.140 C 
ATOM     28  C   UNL     1      69.477  87.989  66.862  1.00  0.00     0.086 CG0
ATOM     29  C   UNL     1      68.769  90.156  66.171  1.00  0.00     0.190 C 
ATOM     30  C   UNL     1      68.222  87.985  66.034  1.00  0.00    -0.010 C 
ATOM     31  G   UNL     1      70.548  86.884  66.630  1.00  0.00     0.000 G0
ATOM     32  O   UNL     1      68.636  91.368  66.081  1.00  0.00    -0.291 OA
ATOM     33  C   UNL     1      67.783  89.189  65.654  1.00  0.00    -0.008 C 
ATOM     34  C   UNL     1      66.561  89.565  64.914  1.00  0.00     0.048 C 
BRANCH  27  35
ATOM     35  O   UNL     1      70.986  89.640  65.787  1.00  0.00    -0.381 OA
ATOM     36  H   UNL     1      71.266  88.769  65.460  1.00  0.00     0.212 HD
ENDBRANCH  27  35
ENDBRANCH  26  27
ENDBRANCH   2  26
ENDBRANCH   1   2
BRANCH   1  37
ATOM     37  O   UNL     1      72.654  89.675  70.825  1.00  0.00    -0.461 OA
BRANCH  37  38
ATOM     38  C   UNL     1      73.283  90.895  70.739  1.00  0.00     0.310 C 
ATOM     39  O   UNL     1      72.738  91.979  70.893  1.00  0.00    -0.252 OA
BRANCH  38  40
ATOM     40  C   UNL     1      74.746  90.687  70.427  1.00  0.00     0.158 C 
BRANCH  40  41
ATOM     41  C   UNL     1      74.975  90.054  69.079  1.00  0.00    -0.037 A 
ATOM     42  C   UNL     1      74.500  90.678  67.926  1.00  0.00     0.008 A 
ATOM     43  C   UNL     1      75.662  88.845  68.984  1.00  0.00     0.008 A 
ATOM     44  C   UNL     1      74.711  90.092  66.677  1.00  0.00     0.046 A 
ATOM     45  C   UNL     1      75.874  88.258  67.736  1.00  0.00     0.046 A 
ATOM     46  C   UNL     1      75.398  88.881  66.583  1.00  0.00     0.115 A 
BRANCH  46  47
ATOM     47  O   UNL     1      75.604  88.310  65.365  1.00  0.00    -0.508 OA
ATOM     48  H   UNL     1      74.824  88.468  64.806  1.00  0.00     0.293 HD
ENDBRANCH  46  47
ENDBRANCH  40  41
ENDBRANCH  38  40
ENDBRANCH  37  38
ENDBRANCH   1  37
TORSDOF 10
ENDMDL
MODEL 8
REMARK VINA RESULT:    -6.307     25.895     30.320
REMARK INTER + INTRA:         -11.371
REMARK INTER:                  -9.923
REMARK INTRA:                  -1.448
REMARK UNBOUND:                -0.639
REMARK SMILES C=C(C)[C@]12C[C@@H](C)[C@@]34O[C@](Cc5ccccc5)(O[C@@H]1[C@@H]3C=C(COC(=O)Cc1ccc(O)cc1)C[C@]1(O)C(=O)C(C)=C[C@@H]41)O2
REMARK SMILES IDX 23 1 22 2 21 3 20 4 9 5 8 6 10 7 6 8 18 10 44 11 19 12 5 13
REMARK SMILES IDX 7 14 4 15 11 16 12 17 13 18 17 19 14 20 16 21 15 22 2 23
REMARK SMILES IDX 3 24 1 25 35 26 36 27 43 28 38 29 42 30 39 32 40 33 41 34
REMARK SMILES IDX 37 35 24 37 25 38 26 39 27 40 28 41 29 42 34 43 30 44 33 45
REMARK SMILES IDX 31 46 32 47
REMARK H PARENT 37 36 32 48
REMARK Flexibility Score: 90.00
ROOT
ATOM      1  C   UNL     1      74.515  88.451  69.681  1.00  0.00     0.264 C 
ENDROOT
BRANCH   1   2
ATOM      2  C   UNL     1      73.263  88.359  68.839  1.00  0.00    -0.033 C 
ATOM      3  C   UNL     1      72.902  87.165  68.325  1.00  0.00    -0.015 C 
BRANCH   3   4
ATOM      4  C   UNL     1      71.747  86.824  67.396  1.00  0.00     0.078 C 
ATOM      5  O   UNL     1      69.851  86.136  68.827  1.00  0.00    -0.319 OA
ATOM      6  C   UNL     1      70.283  87.152  67.870  1.00  0.00     0.095 CG0
ATOM      7  C   UNL     1      70.193  84.780  68.480  1.00  0.00     0.289 C 
ATOM      8  C   UNL     1      69.344  87.105  66.595  1.00  0.00     0.023 C 
ATOM      9  G   UNL     1      70.248  88.483  68.676  1.00  0.00     0.000 G0
ATOM     10  O   UNL     1      71.599  84.628  68.307  1.00  0.00    -0.320 OA
ATOM     11  O   UNL     1      69.607  84.371  67.246  1.00  0.00    -0.313 OA
ATOM     12  C   UNL     1      71.773  85.313  67.057  1.00  0.00     0.170 C 
ATOM     13  C   UNL     1      69.832  86.040  65.565  1.00  0.00     0.049 C 
ATOM     14  C   UNL     1      67.849  86.888  66.882  1.00  0.00     0.011 C 
ATOM     15  C   UNL     1      70.529  84.865  66.253  1.00  0.00     0.122 C 
BRANCH   7  16
ATOM     16  C   UNL     1      69.712  83.870  69.593  1.00  0.00     0.135 C 
BRANCH  16  17
ATOM     17  C   UNL     1      68.379  84.308  70.147  1.00  0.00    -0.040 A 
ATOM     18  C   UNL     1      67.205  84.017  69.453  1.00  0.00     0.004 A 
ATOM     19  C   UNL     1      68.322  85.005  71.353  1.00  0.00     0.004 A 
ATOM     20  C   UNL     1      65.972  84.422  69.966  1.00  0.00     0.000 A 
ATOM     21  C   UNL     1      67.089  85.410  71.866  1.00  0.00     0.000 A 
ATOM     22  C   UNL     1      65.915  85.119  71.173  1.00  0.00     0.000 A 
ENDBRANCH  16  17
ENDBRANCH   7  16
BRANCH  15  23
ATOM     23  C   UNL     1      70.842  83.751  65.308  1.00  0.00    -0.046 C 
ATOM     24  C   UNL     1      72.286  83.359  65.202  1.00  0.00     0.042 C 
ATOM     25  C   UNL     1      69.887  83.136  64.594  1.00  0.00     0.010 C 
ENDBRANCH  15  23
ENDBRANCH   3   4
BRANCH   2  26
ATOM     26  C   UNL     1      72.548  89.688  68.687  1.00  0.00     0.078 C 
BRANCH  26  27
ATOM     27  C   UNL     1      71.133  89.657  68.112  1.00  0.00     0.140 C 
ATOM     28  C   UNL     1      70.298  88.490  68.678  1.00  0.00     0.086 CG0
ATOM     29  C   UNL     1      70.317  90.867  68.516  1.00  0.00     0.190 C 
ATOM     30  C   UNL     1      68.985  89.135  69.023  1.00  0.00    -0.010 C 
ATOM     31  G   UNL     1      70.308  87.174  67.848  1.00  0.00     0.000 G0
ATOM     32  O   UNL     1      70.687  92.029  68.437  1.00  0.00    -0.291 OA
ATOM     33  C   UNL     1      68.971  90.470  68.969  1.00  0.00    -0.008 C 
ATOM     34  C   UNL     1      67.898  91.426  69.315  1.00  0.00     0.048 C 
BRANCH  27  35
ATOM     35  O   UNL     1      71.148  89.717  66.696  1.00  0.00    -0.381 OA
ATOM     36  H   UNL     1      70.661  90.511  66.417  1.00  0.00     0.212 HD
ENDBRANCH  27  35
ENDBRANCH  26  27
ENDBRANCH   2  26
ENDBRANCH   1   2
BRANCH   1  37
ATOM     37  O   UNL     1      75.560  87.750  69.042  1.00  0.00    -0.461 OA
BRANCH  37  38
ATOM     38  C   UNL     1      76.405  88.501  68.258  1.00  0.00     0.310 C 
ATOM     39  O   UNL     1      76.255  89.687  68.000  1.00  0.00    -0.252 OA
BRANCH  38  40
ATOM     40  C   UNL     1      77.541  87.635  67.768  1.00  0.00     0.158 C 
BRANCH  40  41
ATOM     41  C   UNL     1      77.069  86.390  67.063  1.00  0.00    -0.037 A 
ATOM     42  C   UNL     1      77.550  85.141  67.457  1.00  0.00     0.008 A 
ATOM     43  C   UNL     1      76.152  86.485  66.017  1.00  0.00     0.008 A 
ATOM     44  C   UNL     1      77.114  83.988  66.804  1.00  0.00     0.046 A 
ATOM     45  C   UNL     1      75.715  85.332  65.364  1.00  0.00     0.046 A 
ATOM     46  C   UNL     1      76.196  84.084  65.757  1.00  0.00     0.115 A 
BRANCH  46  47
ATOM     47  O   UNL     1      75.771  82.959  65.120  1.00  0.00    -0.508 OA
ATOM     48  H   UNL     1      75.019  83.187  64.546  1.00  0.00     0.293 HD
ENDBRANCH  46  47
ENDBRANCH  40  41
ENDBRANCH  38  40
ENDBRANCH  37  38
ENDBRANCH   1  37
TORSDOF 10
ENDMDL
MODEL 9
REMARK VINA RESULT:    -5.924      8.893     12.416
REMARK INTER + INTRA:         -10.718
REMARK INTER:                  -9.435
REMARK INTRA:                  -1.283
REMARK UNBOUND:                -0.639
REMARK SMILES C=C(C)[C@]12C[C@@H](C)[C@@]34O[C@](Cc5ccccc5)(O[C@@H]1[C@@H]3C=C(COC(=O)Cc1ccc(O)cc1)C[C@]1(O)C(=O)C(C)=C[C@@H]41)O2
REMARK SMILES IDX 23 1 22 2 21 3 20 4 9 5 8 6 10 7 6 8 18 10 44 11 19 12 5 13
REMARK SMILES IDX 7 14 4 15 11 16 12 17 13 18 17 19 14 20 16 21 15 22 2 23
REMARK SMILES IDX 3 24 1 25 35 26 36 27 43 28 38 29 42 30 39 32 40 33 41 34
REMARK SMILES IDX 37 35 24 37 25 38 26 39 27 40 28 41 29 42 34 43 30 44 33 45
REMARK SMILES IDX 31 46 32 47
REMARK H PARENT 37 36 32 48
REMARK Flexibility Score: 90.00
ROOT
ATOM      1  C   UNL     1      94.409  72.904  82.897  1.00  0.00     0.264 C 
ENDROOT
BRANCH   1   2
ATOM      2  C   UNL     1      93.485  72.430  81.800  1.00  0.00    -0.033 C 
ATOM      3  C   UNL     1      92.681  71.371  82.027  1.00  0.00    -0.015 C 
BRANCH   3   4
ATOM      4  C   UNL     1      91.728  70.661  81.078  1.00  0.00     0.078 C 
ATOM      5  O   UNL     1      89.508  71.713  81.365  1.00  0.00    -0.319 OA
ATOM      6  C   UNL     1      90.585  71.501  80.399  1.00  0.00     0.095 CG0
ATOM      7  C   UNL     1      89.162  70.564  82.162  1.00  0.00     0.289 C 
ATOM      8  C   UNL     1      90.032  70.658  79.176  1.00  0.00     0.023 C 
ATOM      9  G   UNL     1      91.082  72.934  80.051  1.00  0.00     0.000 G0
ATOM     10  O   UNL     1      90.289  70.075  82.883  1.00  0.00    -0.320 OA
ATOM     11  O   UNL     1      88.709  69.470  81.368  1.00  0.00    -0.313 OA
ATOM     12  C   UNL     1      91.037  69.484  81.809  1.00  0.00     0.170 C 
ATOM     13  C   UNL     1      90.093  69.126  79.463  1.00  0.00     0.049 C 
ATOM     14  C   UNL     1      88.617  71.031  78.701  1.00  0.00     0.011 C 
ATOM     15  C   UNL     1      89.929  68.823  80.953  1.00  0.00     0.122 C 
BRANCH   7  16
ATOM     16  C   UNL     1      88.069  70.971  83.131  1.00  0.00     0.135 C 
BRANCH  16  17
ATOM     17  C   UNL     1      88.616  71.284  84.501  1.00  0.00    -0.040 A 
ATOM     18  C   UNL     1      89.533  72.322  84.666  1.00  0.00     0.004 A 
ATOM     19  C   UNL     1      88.203  70.536  85.603  1.00  0.00     0.004 A 
ATOM     20  C   UNL     1      90.037  72.612  85.935  1.00  0.00     0.000 A 
ATOM     21  C   UNL     1      88.708  70.826  86.871  1.00  0.00     0.000 A 
ATOM     22  C   UNL     1      89.625  71.863  87.036  1.00  0.00     0.000 A 
ENDBRANCH  16  17
ENDBRANCH   7  16
BRANCH  15  23
ATOM     23  C   UNL     1      89.803  67.360  81.231  1.00  0.00    -0.046 C 
ATOM     24  C   UNL     1      89.722  66.965  82.676  1.00  0.00     0.042 C 
ATOM     25  C   UNL     1      89.765  66.452  80.245  1.00  0.00     0.010 C 
ENDBRANCH  15  23
ENDBRANCH   3   4
BRANCH   2  26
ATOM     26  C   UNL     1      93.589  73.259  80.533  1.00  0.00     0.078 C 
BRANCH  26  27
ATOM     27  C   UNL     1      92.520  73.040  79.465  1.00  0.00     0.140 C 
ATOM     28  C   UNL     1      91.103  72.941  80.069  1.00  0.00     0.086 CG0
ATOM     29  C   UNL     1      92.390  74.218  78.524  1.00  0.00     0.190 C 
ATOM     30  C   UNL     1      90.280  73.827  79.176  1.00  0.00    -0.010 C 
ATOM     31  G   UNL     1      90.597  71.507  80.399  1.00  0.00     0.000 G0
ATOM     32  O   UNL     1      93.318  74.780  77.960  1.00  0.00    -0.291 OA
ATOM     33  C   UNL     1      90.975  74.578  78.317  1.00  0.00    -0.008 C 
ATOM     34  C   UNL     1      90.512  75.606  77.362  1.00  0.00     0.048 C 
BRANCH  27  35
ATOM     35  O   UNL     1      92.854  71.959  78.611  1.00  0.00    -0.381 OA
ATOM     36  H   UNL     1      93.186  71.227  79.158  1.00  0.00     0.212 HD
ENDBRANCH  27  35
ENDBRANCH  26  27
ENDBRANCH   2  26
ENDBRANCH   1   2
BRANCH   1  37
ATOM     37  O   UNL     1      93.645  73.274  84.025  1.00  0.00    -0.461 OA
BRANCH  37  38
ATOM     38  C   UNL     1      93.967  74.476  84.610  1.00  0.00     0.310 C 
ATOM     39  O   UNL     1      94.427  74.609  85.735  1.00  0.00    -0.252 OA
BRANCH  38  40
ATOM     40  C   UNL     1      93.666  75.601  83.649  1.00  0.00     0.158 C 
BRANCH  40  41
ATOM     41  C   UNL     1      92.338  76.261  83.914  1.00  0.00    -0.037 A 
ATOM     42  C   UNL     1      92.246  77.652  83.954  1.00  0.00     0.008 A 
ATOM     43  C   UNL     1      91.200  75.482  84.119  1.00  0.00     0.008 A 
ATOM     44  C   UNL     1      91.016  78.264  84.200  1.00  0.00     0.046 A 
ATOM     45  C   UNL     1      89.970  76.092  84.365  1.00  0.00     0.046 A 
ATOM     46  C   UNL     1      89.878  77.483  84.406  1.00  0.00     0.115 A 
BRANCH  46  47
ATOM     47  O   UNL     1      88.679  78.079  84.647  1.00  0.00    -0.508 OA
ATOM     48  H   UNL     1      88.765  78.660  85.423  1.00  0.00     0.293 HD
ENDBRANCH  46  47
ENDBRANCH  40  41
ENDBRANCH  38  40
ENDBRANCH  37  38
ENDBRANCH   1  37
TORSDOF 10
ENDMDL
MODEL 10
REMARK VINA RESULT:    -5.914     25.813     28.660
REMARK INTER + INTRA:         -10.702
REMARK INTER:                  -9.311
REMARK INTRA:                  -1.391
REMARK UNBOUND:                -0.639
REMARK SMILES C=C(C)[C@]12C[C@@H](C)[C@@]34O[C@](Cc5ccccc5)(O[C@@H]1[C@@H]3C=C(COC(=O)Cc1ccc(O)cc1)C[C@]1(O)C(=O)C(C)=C[C@@H]41)O2
REMARK SMILES IDX 23 1 22 2 21 3 20 4 9 5 8 6 10 7 6 8 18 10 44 11 19 12 5 13
REMARK SMILES IDX 7 14 4 15 11 16 12 17 13 18 17 19 14 20 16 21 15 22 2 23
REMARK SMILES IDX 3 24 1 25 35 26 36 27 43 28 38 29 42 30 39 32 40 33 41 34
REMARK SMILES IDX 37 35 24 37 25 38 26 39 27 40 28 41 29 42 34 43 30 44 33 45
REMARK SMILES IDX 31 46 32 47
REMARK H PARENT 37 36 32 48
REMARK Flexibility Score: 90.00
ROOT
ATOM      1  C   UNL     1      83.976 101.307  70.293  1.00  0.00     0.264 C 
ENDROOT
BRANCH   1   2
ATOM      2  C   UNL     1      82.506 101.427  70.619  1.00  0.00    -0.033 C 
ATOM      3  C   UNL     1      81.605 100.781  69.848  1.00  0.00    -0.015 C 
BRANCH   3   4
ATOM      4  C   UNL     1      80.087 100.800  69.917  1.00  0.00     0.078 C 
ATOM      5  O   UNL     1      79.406  98.903  71.349  1.00  0.00    -0.319 OA
ATOM      6  C   UNL     1      79.392 100.362  71.258  1.00  0.00     0.095 CG0
ATOM      7  C   UNL     1      79.086  98.207  70.129  1.00  0.00     0.289 C 
ATOM      8  C   UNL     1      77.892 100.869  71.210  1.00  0.00     0.023 C 
ATOM      9  G   UNL     1      80.219 100.835  72.489  1.00  0.00     0.000 G0
ATOM     10  O   UNL     1      79.972  98.575  69.076  1.00  0.00    -0.320 OA
ATOM     11  O   UNL     1      77.777  98.516  69.656  1.00  0.00    -0.313 OA
ATOM     12  C   UNL     1      79.499  99.903  68.800  1.00  0.00     0.170 C 
ATOM     13  C   UNL     1      77.328 100.851  69.756  1.00  0.00     0.049 C 
ATOM     14  C   UNL     1      76.915 100.135  72.144  1.00  0.00     0.011 C 
ATOM     15  C   UNL     1      77.963  99.741  68.917  1.00  0.00     0.122 C 
BRANCH   7  16
ATOM     16  C   UNL     1      79.189  96.718  70.390  1.00  0.00     0.135 C 
BRANCH  16  17
ATOM     17  C   UNL     1      78.381  96.296  71.592  1.00  0.00    -0.040 A 
ATOM     18  C   UNL     1      76.988  96.314  71.538  1.00  0.00     0.004 A 
ATOM     19  C   UNL     1      79.029  95.889  72.758  1.00  0.00     0.004 A 
ATOM     20  C   UNL     1      76.241  95.924  72.650  1.00  0.00     0.000 A 
ATOM     21  C   UNL     1      78.282  95.499  73.870  1.00  0.00     0.000 A 
ATOM     22  C   UNL     1      76.889  95.516  73.816  1.00  0.00     0.000 A 
ENDBRANCH  16  17
ENDBRANCH   7  16
BRANCH  15  23
ATOM     23  C   UNL     1      77.312  99.588  67.581  1.00  0.00    -0.046 C 
ATOM     24  C   UNL     1      76.465  98.364  67.394  1.00  0.00     0.042 C 
ATOM     25  C   UNL     1      77.475 100.493  66.604  1.00  0.00     0.010 C 
ENDBRANCH  15  23
ENDBRANCH   3   4
BRANCH   2  26
ATOM     26  C   UNL     1      82.233 102.294  71.833  1.00  0.00     0.078 C 
BRANCH  26  27
ATOM     27  C   UNL     1      80.814 102.278  72.398  1.00  0.00     0.140 C 
ATOM     28  C   UNL     1      80.236 100.850  72.484  1.00  0.00     0.086 CG0
ATOM     29  C   UNL     1      80.758 102.739  73.839  1.00  0.00     0.190 C 
ATOM     30  C   UNL     1      79.628 100.801  73.858  1.00  0.00    -0.010 C 
ATOM     31  G   UNL     1      79.399 100.374  71.261  1.00  0.00     0.000 G0
ATOM     32  O   UNL     1      81.284 103.750  74.280  1.00  0.00    -0.291 OA
ATOM     33  C   UNL     1      79.925 101.833  74.653  1.00  0.00    -0.008 C 
ATOM     34  C   UNL     1      79.577 102.075  76.068  1.00  0.00     0.048 C 
BRANCH  27  35
ATOM     35  O   UNL     1      79.974 103.196  71.717  1.00  0.00    -0.381 OA
ATOM     36  H   UNL     1      79.102 103.189  72.146  1.00  0.00     0.212 HD
ENDBRANCH  27  35
ENDBRANCH  26  27
ENDBRANCH   2  26
ENDBRANCH   1   2
BRANCH   1  37
ATOM     37  O   UNL     1      84.396 102.461  69.597  1.00  0.00    -0.461 OA
BRANCH  37  38
ATOM     38  C   UNL     1      85.149 102.249  68.465  1.00  0.00     0.310 C 
ATOM     39  O   UNL     1      86.278 102.681  68.282  1.00  0.00    -0.252 OA
BRANCH  38  40
ATOM     40  C   UNL     1      84.365 101.402  67.491  1.00  0.00     0.158 C 
BRANCH  40  41
ATOM     41  C   UNL     1      83.346 102.193  66.713  1.00  0.00    -0.037 A 
ATOM     42  C   UNL     1      82.186 101.571  66.250  1.00  0.00     0.008 A 
ATOM     43  C   UNL     1      83.561 103.546  66.454  1.00  0.00     0.008 A 
ATOM     44  C   UNL     1      81.243 102.303  65.528  1.00  0.00     0.046 A 
ATOM     45  C   UNL     1      82.618 104.278  65.733  1.00  0.00     0.046 A 
ATOM     46  C   UNL     1      81.459 103.657  65.270  1.00  0.00     0.115 A 
BRANCH  46  47
ATOM     47  O   UNL     1      80.539 104.370  64.566  1.00  0.00    -0.508 OA
ATOM     48  H   UNL     1      79.748 103.819  64.431  1.00  0.00     0.293 HD
ENDBRANCH  46  47
ENDBRANCH  40  41
ENDBRANCH  38  40
ENDBRANCH  37  38
ENDBRANCH   1  37
TORSDOF 10
ENDMDL
