MODEL 1
REMARK VINA RESULT:    -5.796      0.000      0.000
REMARK INTER + INTRA:          -9.972
REMARK INTER:                  -9.354
REMARK INTRA:                  -0.618
REMARK UNBOUND:                -0.618
REMARK SMILES COc1cc(CNC(=O)CCCCCCC(C)C)ccc1O
REMARK SMILES IDX 11 1 10 2 8 3 7 4 9 6 6 7 5 8 3 9 21 10 4 11 20 12 19 13
REMARK SMILES IDX 2 14 1 15 22 16 12 18 13 19 14 20 15 21 16 22 17 23 18 24
REMARK H PARENT 7 5 22 17
REMARK Flexibility Score: inf
ROOT
ATOM      1  C   UNL     1      94.038  98.729  73.791  1.00  0.00     0.010 C 
ENDROOT
BRANCH   1   2
ATOM      2  C   UNL     1      93.798  97.228  74.115  1.00  0.00     0.100 C 
BRANCH   2   3
ATOM      3  C   UNL     1      94.979  96.563  74.712  1.00  0.00     0.220 C 
ATOM      4  N   UNL     1      95.205  96.638  76.055  1.00  0.00    -0.352 N 
ATOM      5  H   UNL     1      94.542  97.204  76.564  1.00  0.00     0.163 HD
ATOM      6  O   UNL     1      95.747  95.914  73.961  1.00  0.00    -0.275 OA
BRANCH   4   7
ATOM      7  C   UNL     1      96.276  95.990  76.750  1.00  0.00     0.151 C 
BRANCH   7   8
ATOM      8  C   UNL     1      95.807  95.017  77.775  1.00  0.00    -0.025 A 
ATOM      9  C   UNL     1      94.059  93.528  78.655  1.00  0.00     0.160 A 
ATOM     10  C   UNL     1      94.922  93.129  79.700  1.00  0.00     0.157 A 
ATOM     11  C   UNL     1      94.501  94.481  77.714  1.00  0.00     0.056 A 
ATOM     12  C   UNL     1      96.210  93.685  79.794  1.00  0.00     0.050 A 
ATOM     13  C   UNL     1      96.655  94.614  78.833  1.00  0.00     0.009 A 
BRANCH   9  14
ATOM     14  O   UNL     1      92.790  93.023  78.577  1.00  0.00    -0.493 OA
ATOM     15  C   UNL     1      91.866  93.881  77.882  1.00  0.00     0.278 C 
ENDBRANCH   9  14
BRANCH  10  16
ATOM     16  O   UNL     1      94.522  92.214  80.622  1.00  0.00    -0.504 OA
ATOM     17  H   UNL     1      94.724  91.331  80.304  1.00  0.00     0.293 HD
ENDBRANCH  10  16
ENDBRANCH   7   8
ENDBRANCH   4   7
ENDBRANCH   2   3
ENDBRANCH   1   2
BRANCH   1  18
ATOM     18  C   UNL     1      94.787  98.926  72.443  1.00  0.00     0.001 C 
BRANCH  18  19
ATOM     19  C   UNL     1      93.851  99.265  71.249  1.00  0.00     0.000 C 
BRANCH  19  20
ATOM     20  C   UNL     1      92.375  99.428  71.709  1.00  0.00     0.000 C 
BRANCH  20  21
ATOM     21  C   UNL     1      91.503 100.292  70.756  1.00  0.00     0.003 C 
BRANCH  21  22
ATOM     22  C   UNL     1      90.760  99.484  69.642  1.00  0.00    -0.017 C 
ATOM     23  C   UNL     1      89.918 100.437  68.748  1.00  0.00     0.007 C 
ATOM     24  C   UNL     1      89.873  98.329  70.194  1.00  0.00     0.007 C 
ENDBRANCH  21  22
ENDBRANCH  20  21
ENDBRANCH  19  20
ENDBRANCH  18  19
ENDBRANCH   1  18
TORSDOF 11
ENDMDL
MODEL 2
REMARK VINA RESULT:    -5.775      7.603      9.564
REMARK INTER + INTRA:          -9.938
REMARK INTER:                  -8.514
REMARK INTRA:                  -1.424
REMARK UNBOUND:                -0.618
REMARK SMILES COc1cc(CNC(=O)CCCCCCC(C)C)ccc1O
REMARK SMILES IDX 11 1 10 2 8 3 7 4 9 6 6 7 5 8 3 9 21 10 4 11 20 12 19 13
REMARK SMILES IDX 2 14 1 15 22 16 12 18 13 19 14 20 15 21 16 22 17 23 18 24
REMARK H PARENT 7 5 22 17
REMARK Flexibility Score: inf
ROOT
ATOM      1  C   UNL     1      87.730  99.686  66.778  1.00  0.00     0.010 C 
ENDROOT
BRANCH   1   2
ATOM      2  C   UNL     1      88.868  98.645  66.595  1.00  0.00     0.100 C 
BRANCH   2   3
ATOM      3  C   UNL     1      89.534  98.277  67.865  1.00  0.00     0.220 C 
ATOM      4  N   UNL     1      89.216  98.926  69.023  1.00  0.00    -0.352 N 
ATOM      5  H   UNL     1      88.548  99.675  68.916  1.00  0.00     0.163 HD
ATOM      6  O   UNL     1      90.373  97.343  67.856  1.00  0.00    -0.275 OA
BRANCH   4   7
ATOM      7  C   UNL     1      89.749  98.618  70.315  1.00  0.00     0.151 C 
BRANCH   7   8
ATOM      8  C   UNL     1      90.527  99.739  70.911  1.00  0.00    -0.025 A 
ATOM      9  C   UNL     1      90.633 102.050  71.745  1.00  0.00     0.160 A 
ATOM     10  C   UNL     1      91.990 101.867  72.087  1.00  0.00     0.157 A 
ATOM     11  C   UNL     1      89.918 100.993  71.144  1.00  0.00     0.056 A 
ATOM     12  C   UNL     1      92.619 100.636  71.825  1.00  0.00     0.050 A 
ATOM     13  C   UNL     1      91.891  99.575  71.251  1.00  0.00     0.009 A 
BRANCH   9  14
ATOM     14  O   UNL     1      90.023 103.256  71.960  1.00  0.00    -0.493 OA
ATOM     15  C   UNL     1      89.243 103.304  73.168  1.00  0.00     0.278 C 
ENDBRANCH   9  14
BRANCH  10  16
ATOM     16  O   UNL     1      92.704 102.868  72.666  1.00  0.00    -0.504 OA
ATOM     17  H   UNL     1      93.051 102.567  73.509  1.00  0.00     0.293 HD
ENDBRANCH  10  16
ENDBRANCH   7   8
ENDBRANCH   4   7
ENDBRANCH   2   3
ENDBRANCH   1   2
BRANCH   1  18
ATOM     18  C   UNL     1      88.149 101.105  66.297  1.00  0.00     0.001 C 
BRANCH  18  19
ATOM     19  C   UNL     1      86.994 102.145  66.335  1.00  0.00     0.000 C 
BRANCH  19  20
ATOM     20  C   UNL     1      87.537 103.602  66.353  1.00  0.00     0.000 C 
BRANCH  20  21
ATOM     21  C   UNL     1      89.086 103.705  66.274  1.00  0.00     0.003 C 
BRANCH  21  22
ATOM     22  C   UNL     1      89.780 104.101  67.618  1.00  0.00    -0.017 C 
ATOM     23  C   UNL     1      90.733 102.967  68.091  1.00  0.00     0.007 C 
ATOM     24  C   UNL     1      88.781 104.482  68.750  1.00  0.00     0.007 C 
ENDBRANCH  21  22
ENDBRANCH  20  21
ENDBRANCH  19  20
ENDBRANCH  18  19
ENDBRANCH   1  18
TORSDOF 11
ENDMDL
MODEL 3
REMARK VINA RESULT:    -5.702     21.097     22.481
REMARK INTER + INTRA:          -9.819
REMARK INTER:                  -8.229
REMARK INTRA:                  -1.590
REMARK UNBOUND:                -0.618
REMARK SMILES COc1cc(CNC(=O)CCCCCCC(C)C)ccc1O
REMARK SMILES IDX 11 1 10 2 8 3 7 4 9 6 6 7 5 8 3 9 21 10 4 11 20 12 19 13
REMARK SMILES IDX 2 14 1 15 22 16 12 18 13 19 14 20 15 21 16 22 17 23 18 24
REMARK H PARENT 7 5 22 17
REMARK Flexibility Score: inf
ROOT
ATOM      1  C   UNL     1      75.253  90.908  68.796  1.00  0.00     0.010 C 
ENDROOT
BRANCH   1   2
ATOM      2  C   UNL     1      74.083  90.485  69.727  1.00  0.00     0.100 C 
BRANCH   2   3
ATOM      3  C   UNL     1      73.515  89.161  69.388  1.00  0.00     0.220 C 
ATOM      4  N   UNL     1      74.326  88.154  68.953  1.00  0.00    -0.352 N 
ATOM      5  H   UNL     1      75.297  88.411  68.849  1.00  0.00     0.163 HD
ATOM      6  O   UNL     1      72.281  88.981  69.533  1.00  0.00    -0.275 OA
BRANCH   4   7
ATOM      7  C   UNL     1      73.900  86.821  68.653  1.00  0.00     0.151 C 
BRANCH   7   8
ATOM      8  C   UNL     1      74.997  85.956  68.138  1.00  0.00    -0.025 A 
ATOM      9  C   UNL     1      75.754  84.097  66.717  1.00  0.00     0.160 A 
ATOM     10  C   UNL     1      77.087  84.331  67.117  1.00  0.00     0.157 A 
ATOM     11  C   UNL     1      74.718  84.897  67.244  1.00  0.00     0.056 A 
ATOM     12  C   UNL     1      77.373  85.357  68.036  1.00  0.00     0.050 A 
ATOM     13  C   UNL     1      76.337  86.171  68.536  1.00  0.00     0.009 A 
BRANCH   9  14
ATOM     14  O   UNL     1      75.461  83.076  65.854  1.00  0.00    -0.493 OA
ATOM     15  C   UNL     1      75.452  83.472  64.470  1.00  0.00     0.278 C 
ENDBRANCH   9  14
BRANCH  10  16
ATOM     16  O   UNL     1      78.105  83.575  66.627  1.00  0.00    -0.504 OA
ATOM     17  H   UNL     1      78.144  82.744  67.106  1.00  0.00     0.293 HD
ENDBRANCH  10  16
ENDBRANCH   7   8
ENDBRANCH   4   7
ENDBRANCH   2   3
ENDBRANCH   1   2
BRANCH   1  18
ATOM     18  C   UNL     1      74.926  92.199  67.992  1.00  0.00     0.001 C 
BRANCH  18  19
ATOM     19  C   UNL     1      74.909  91.991  66.452  1.00  0.00     0.000 C 
BRANCH  19  20
ATOM     20  C   UNL     1      74.568  90.521  66.077  1.00  0.00     0.000 C 
BRANCH  20  21
ATOM     21  C   UNL     1      75.310  89.996  64.816  1.00  0.00     0.003 C 
BRANCH  21  22
ATOM     22  C   UNL     1      76.340  88.854  65.096  1.00  0.00    -0.017 C 
ATOM     23  C   UNL     1      75.700  87.464  64.822  1.00  0.00     0.007 C 
ATOM     24  C   UNL     1      76.951  88.900  66.528  1.00  0.00     0.007 C 
ENDBRANCH  21  22
ENDBRANCH  20  21
ENDBRANCH  19  20
ENDBRANCH  18  19
ENDBRANCH   1  18
TORSDOF 11
ENDMDL
MODEL 4
REMARK VINA RESULT:    -5.520     14.578     17.849
REMARK INTER + INTRA:          -9.527
REMARK INTER:                  -8.124
REMARK INTRA:                  -1.403
REMARK UNBOUND:                -0.618
REMARK SMILES COc1cc(CNC(=O)CCCCCCC(C)C)ccc1O
REMARK SMILES IDX 11 1 10 2 8 3 7 4 9 6 6 7 5 8 3 9 21 10 4 11 20 12 19 13
REMARK SMILES IDX 2 14 1 15 22 16 12 18 13 19 14 20 15 21 16 22 17 23 18 24
REMARK H PARENT 7 5 22 17
REMARK Flexibility Score: inf
ROOT
ATOM      1  C   UNL     1      96.641  82.039  79.884  1.00  0.00     0.010 C 
ENDROOT
BRANCH   1   2
ATOM      2  C   UNL     1      97.641  82.031  78.696  1.00  0.00     0.100 C 
BRANCH   2   3
ATOM      3  C   UNL     1      96.981  81.910  77.376  1.00  0.00     0.220 C 
ATOM      4  N   UNL     1      97.008  82.951  76.495  1.00  0.00    -0.352 N 
ATOM      5  H   UNL     1      97.462  83.784  76.840  1.00  0.00     0.163 HD
ATOM      6  O   UNL     1      96.422  80.826  77.080  1.00  0.00    -0.275 OA
BRANCH   4   7
ATOM      7  C   UNL     1      96.457  82.930  75.174  1.00  0.00     0.151 C 
BRANCH   7   8
ATOM      8  C   UNL     1      97.443  82.527  74.134  1.00  0.00    -0.025 A 
ATOM      9  C   UNL     1      99.408  83.044  72.749  1.00  0.00     0.160 A 
ATOM     10  C   UNL     1      99.352  81.751  72.183  1.00  0.00     0.157 A 
ATOM     11  C   UNL     1      98.444  83.428  73.704  1.00  0.00     0.056 A 
ATOM     12  C   UNL     1      98.337  80.860  72.573  1.00  0.00     0.050 A 
ATOM     13  C   UNL     1      97.395  81.239  73.549  1.00  0.00     0.009 A 
BRANCH   9  14
ATOM     14  O   UNL     1     100.368  83.933  72.347  1.00  0.00    -0.493 OA
ATOM     15  C   UNL     1     101.475  84.043  73.260  1.00  0.00     0.278 C 
ENDBRANCH   9  14
BRANCH  10  16
ATOM     16  O   UNL     1     100.267  81.355  71.260  1.00  0.00    -0.504 OA
ATOM     17  H   UNL     1     100.999  80.919  71.702  1.00  0.00     0.293 HD
ENDBRANCH  10  16
ENDBRANCH   7   8
ENDBRANCH   4   7
ENDBRANCH   2   3
ENDBRANCH   1   2
BRANCH   1  18
ATOM     18  C   UNL     1      97.314  81.619  81.222  1.00  0.00     0.001 C 
BRANCH  18  19
ATOM     19  C   UNL     1      96.587  80.454  81.951  1.00  0.00     0.000 C 
BRANCH  19  20
ATOM     20  C   UNL     1      97.082  79.068  81.450  1.00  0.00     0.000 C 
BRANCH  20  21
ATOM     21  C   UNL     1      98.625  78.892  81.485  1.00  0.00     0.003 C 
BRANCH  21  22
ATOM     22  C   UNL     1      99.280  78.613  80.092  1.00  0.00    -0.017 C 
ATOM     23  C   UNL     1     100.305  79.728  79.740  1.00  0.00     0.007 C 
ATOM     24  C   UNL     1      98.247  78.438  78.940  1.00  0.00     0.007 C 
ENDBRANCH  21  22
ENDBRANCH  20  21
ENDBRANCH  19  20
ENDBRANCH  18  19
ENDBRANCH   1  18
TORSDOF 11
ENDMDL
MODEL 5
REMARK VINA RESULT:    -5.519     17.199     20.420
REMARK INTER + INTRA:          -9.524
REMARK INTER:                  -8.416
REMARK INTRA:                  -1.108
REMARK UNBOUND:                -0.618
REMARK SMILES COc1cc(CNC(=O)CCCCCCC(C)C)ccc1O
REMARK SMILES IDX 11 1 10 2 8 3 7 4 9 6 6 7 5 8 3 9 21 10 4 11 20 12 19 13
REMARK SMILES IDX 2 14 1 15 22 16 12 18 13 19 14 20 15 21 16 22 17 23 18 24
REMARK H PARENT 7 5 22 17
REMARK Flexibility Score: inf
ROOT
ATOM      1  C   UNL     1      75.127  90.384  67.614  1.00  0.00     0.010 C 
ENDROOT
BRANCH   1   2
ATOM      2  C   UNL     1      75.381  90.255  69.141  1.00  0.00     0.100 C 
BRANCH   2   3
ATOM      3  C   UNL     1      74.700  91.300  69.938  1.00  0.00     0.220 C 
ATOM      4  N   UNL     1      75.365  92.435  70.299  1.00  0.00    -0.352 N 
ATOM      5  H   UNL     1      76.334  92.463  70.017  1.00  0.00     0.163 HD
ATOM      6  O   UNL     1      73.496  91.128  70.252  1.00  0.00    -0.275 OA
BRANCH   4   7
ATOM      7  C   UNL     1      74.794  93.534  71.016  1.00  0.00     0.151 C 
BRANCH   7   8
ATOM      8  C   UNL     1      75.025  93.459  72.485  1.00  0.00    -0.025 A 
ATOM      9  C   UNL     1      76.549  93.587  74.411  1.00  0.00     0.160 A 
ATOM     10  C   UNL     1      75.464  93.361  75.287  1.00  0.00     0.157 A 
ATOM     11  C   UNL     1      76.324  93.615  73.019  1.00  0.00     0.056 A 
ATOM     12  C   UNL     1      74.173  93.165  74.766  1.00  0.00     0.050 A 
ATOM     13  C   UNL     1      73.951  93.224  73.376  1.00  0.00     0.009 A 
BRANCH   9  14
ATOM     14  O   UNL     1      77.816  93.739  74.905  1.00  0.00    -0.493 OA
ATOM     15  C   UNL     1      78.224  95.113  75.040  1.00  0.00     0.278 C 
ENDBRANCH   9  14
BRANCH  10  16
ATOM     16  O   UNL     1      75.652  93.327  76.633  1.00  0.00    -0.504 OA
ATOM     17  H   UNL     1      75.913  92.442  76.896  1.00  0.00     0.293 HD
ENDBRANCH  10  16
ENDBRANCH   7   8
ENDBRANCH   4   7
ENDBRANCH   2   3
ENDBRANCH   1   2
BRANCH   1  18
ATOM     18  C   UNL     1      75.931  89.336  66.794  1.00  0.00     0.001 C 
BRANCH  18  19
ATOM     19  C   UNL     1      77.209  88.823  67.515  1.00  0.00     0.000 C 
BRANCH  19  20
ATOM     20  C   UNL     1      77.403  87.294  67.317  1.00  0.00     0.000 C 
BRANCH  20  21
ATOM     21  C   UNL     1      76.087  86.471  67.383  1.00  0.00     0.003 C 
BRANCH  21  22
ATOM     22  C   UNL     1      75.544  86.226  68.829  1.00  0.00    -0.017 C 
ATOM     23  C   UNL     1      75.848  84.771  69.285  1.00  0.00     0.007 C 
ATOM     24  C   UNL     1      74.028  86.543  68.990  1.00  0.00     0.007 C 
ENDBRANCH  21  22
ENDBRANCH  20  21
ENDBRANCH  19  20
ENDBRANCH  18  19
ENDBRANCH   1  18
TORSDOF 11
ENDMDL
MODEL 6
REMARK VINA RESULT:    -5.417     14.512     16.619
REMARK INTER + INTRA:          -9.360
REMARK INTER:                  -7.635
REMARK INTRA:                  -1.725
REMARK UNBOUND:                -0.618
REMARK SMILES COc1cc(CNC(=O)CCCCCCC(C)C)ccc1O
REMARK SMILES IDX 11 1 10 2 8 3 7 4 9 6 6 7 5 8 3 9 21 10 4 11 20 12 19 13
REMARK SMILES IDX 2 14 1 15 22 16 12 18 13 19 14 20 15 21 16 22 17 23 18 24
REMARK H PARENT 7 5 22 17
REMARK Flexibility Score: inf
ROOT
ATOM      1  C   UNL     1      99.568  83.928  73.915  1.00  0.00     0.010 C 
ENDROOT
BRANCH   1   2
ATOM      2  C   UNL     1      98.319  83.331  73.209  1.00  0.00     0.100 C 
BRANCH   2   3
ATOM      3  C   UNL     1      97.323  82.776  74.153  1.00  0.00     0.220 C 
ATOM      4  N   UNL     1      97.194  83.301  75.406  1.00  0.00    -0.352 N 
ATOM      5  H   UNL     1      97.848  84.038  75.623  1.00  0.00     0.163 HD
ATOM      6  O   UNL     1      96.588  81.834  73.767  1.00  0.00    -0.275 OA
BRANCH   4   7
ATOM      7  C   UNL     1      96.230  82.886  76.380  1.00  0.00     0.151 C 
BRANCH   7   8
ATOM      8  C   UNL     1      96.735  81.820  77.288  1.00  0.00    -0.025 A 
ATOM      9  C   UNL     1      97.165  79.442  77.748  1.00  0.00     0.160 A 
ATOM     10  C   UNL     1      97.736  79.784  78.994  1.00  0.00     0.157 A 
ATOM     11  C   UNL     1      96.653  80.459  76.915  1.00  0.00     0.056 A 
ATOM     12  C   UNL     1      97.788  81.132  79.393  1.00  0.00     0.050 A 
ATOM     13  C   UNL     1      97.301  82.144  78.543  1.00  0.00     0.009 A 
BRANCH   9  14
ATOM     14  O   UNL     1      97.074  78.131  77.367  1.00  0.00    -0.493 OA
ATOM     15  C   UNL     1      98.134  77.707  76.491  1.00  0.00     0.278 C 
ENDBRANCH   9  14
BRANCH  10  16
ATOM     16  O   UNL     1      98.236  78.826  79.818  1.00  0.00    -0.504 OA
ATOM     17  H   UNL     1      97.617  78.093  79.867  1.00  0.00     0.293 HD
ENDBRANCH  10  16
ENDBRANCH   7   8
ENDBRANCH   4   7
ENDBRANCH   2   3
ENDBRANCH   1   2
BRANCH   1  18
ATOM     18  C   UNL     1     100.764  84.110  72.937  1.00  0.00     0.001 C 
BRANCH  18  19
ATOM     19  C   UNL     1     101.933  83.116  73.186  1.00  0.00     0.000 C 
BRANCH  19  20
ATOM     20  C   UNL     1     101.697  81.763  72.458  1.00  0.00     0.000 C 
BRANCH  20  21
ATOM     21  C   UNL     1     101.466  80.558  73.413  1.00  0.00     0.003 C 
BRANCH  21  22
ATOM     22  C   UNL     1     101.505  80.917  74.934  1.00  0.00    -0.017 C 
ATOM     23  C   UNL     1     102.628  80.118  75.653  1.00  0.00     0.007 C 
ATOM     24  C   UNL     1     100.142  80.715  75.660  1.00  0.00     0.007 C 
ENDBRANCH  21  22
ENDBRANCH  20  21
ENDBRANCH  19  20
ENDBRANCH  18  19
ENDBRANCH   1  18
TORSDOF 11
ENDMDL
MODEL 7
REMARK VINA RESULT:    -5.342     14.512     16.273
REMARK INTER + INTRA:          -9.239
REMARK INTER:                  -7.630
REMARK INTRA:                  -1.609
REMARK UNBOUND:                -0.618
REMARK SMILES COc1cc(CNC(=O)CCCCCCC(C)C)ccc1O
REMARK SMILES IDX 11 1 10 2 8 3 7 4 9 6 6 7 5 8 3 9 21 10 4 11 20 12 19 13
REMARK SMILES IDX 2 14 1 15 22 16 12 18 13 19 14 20 15 21 16 22 17 23 18 24
REMARK H PARENT 7 5 22 17
REMARK Flexibility Score: inf
ROOT
ATOM      1  C   UNL     1      99.254  83.870  73.845  1.00  0.00     0.010 C 
ENDROOT
BRANCH   1   2
ATOM      2  C   UNL     1      97.940  83.170  73.403  1.00  0.00     0.100 C 
BRANCH   2   3
ATOM      3  C   UNL     1      97.215  82.526  74.521  1.00  0.00     0.220 C 
ATOM      4  N   UNL     1      97.123  83.149  75.732  1.00  0.00    -0.352 N 
ATOM      5  H   UNL     1      97.616  84.027  75.792  1.00  0.00     0.163 HD
ATOM      6  O   UNL     1      96.669  81.413  74.323  1.00  0.00    -0.275 OA
BRANCH   4   7
ATOM      7  C   UNL     1      96.401  82.651  76.864  1.00  0.00     0.151 C 
BRANCH   7   8
ATOM      8  C   UNL     1      97.265  81.932  77.840  1.00  0.00    -0.025 A 
ATOM      9  C   UNL     1      97.803  81.321  80.161  1.00  0.00     0.160 A 
ATOM     10  C   UNL     1      98.879  80.529  79.705  1.00  0.00     0.157 A 
ATOM     11  C   UNL     1      97.017  82.030  79.228  1.00  0.00     0.056 A 
ATOM     12  C   UNL     1      99.160  80.455  78.329  1.00  0.00     0.050 A 
ATOM     13  C   UNL     1      98.353  81.142  77.401  1.00  0.00     0.009 A 
BRANCH   9  14
ATOM     14  O   UNL     1      97.546  81.432  81.500  1.00  0.00    -0.493 OA
ATOM     15  C   UNL     1      96.590  80.473  81.989  1.00  0.00     0.278 C 
ENDBRANCH   9  14
BRANCH  10  16
ATOM     16  O   UNL     1      99.654  79.836  80.581  1.00  0.00    -0.504 OA
ATOM     17  H   UNL     1      99.239  79.840  81.446  1.00  0.00     0.293 HD
ENDBRANCH  10  16
ENDBRANCH   7   8
ENDBRANCH   4   7
ENDBRANCH   2   3
ENDBRANCH   1   2
BRANCH   1  18
ATOM     18  C   UNL     1     100.233  84.086  72.656  1.00  0.00     0.001 C 
BRANCH  18  19
ATOM     19  C   UNL     1     101.479  83.156  72.693  1.00  0.00     0.000 C 
BRANCH  19  20
ATOM     20  C   UNL     1     101.201  81.801  71.983  1.00  0.00     0.000 C 
BRANCH  20  21
ATOM     21  C   UNL     1     101.422  80.553  72.884  1.00  0.00     0.003 C 
BRANCH  21  22
ATOM     22  C   UNL     1     100.629  80.575  74.231  1.00  0.00    -0.017 C 
ATOM     23  C   UNL     1     101.608  80.549  75.439  1.00  0.00     0.007 C 
ATOM     24  C   UNL     1      99.578  79.434  74.357  1.00  0.00     0.007 C 
ENDBRANCH  21  22
ENDBRANCH  20  21
ENDBRANCH  19  20
ENDBRANCH  18  19
ENDBRANCH   1  18
TORSDOF 11
ENDMDL
MODEL 8
REMARK VINA RESULT:    -5.334      3.164      3.848
REMARK INTER + INTRA:          -9.226
REMARK INTER:                  -8.515
REMARK INTRA:                  -0.712
REMARK UNBOUND:                -0.618
REMARK SMILES COc1cc(CNC(=O)CCCCCCC(C)C)ccc1O
REMARK SMILES IDX 11 1 10 2 8 3 7 4 9 6 6 7 5 8 3 9 21 10 4 11 20 12 19 13
REMARK SMILES IDX 2 14 1 15 22 16 12 18 13 19 14 20 15 21 16 22 17 23 18 24
REMARK H PARENT 7 5 22 17
REMARK Flexibility Score: inf
ROOT
ATOM      1  C   UNL     1      95.711  96.788  74.807  1.00  0.00     0.010 C 
ENDROOT
BRANCH   1   2
ATOM      2  C   UNL     1      97.054  97.533  75.039  1.00  0.00     0.100 C 
BRANCH   2   3
ATOM      3  C   UNL     1      97.755  97.104  76.270  1.00  0.00     0.220 C 
ATOM      4  N   UNL     1      97.063  96.930  77.433  1.00  0.00    -0.352 N 
ATOM      5  H   UNL     1      96.081  97.159  77.377  1.00  0.00     0.163 HD
ATOM      6  O   UNL     1      98.990  96.882  76.213  1.00  0.00    -0.275 OA
BRANCH   4   7
ATOM      7  C   UNL     1      97.622  96.465  78.666  1.00  0.00     0.151 C 
BRANCH   7   8
ATOM      8  C   UNL     1      96.866  95.329  79.261  1.00  0.00    -0.025 A 
ATOM      9  C   UNL     1      94.890  93.865  79.282  1.00  0.00     0.160 A 
ATOM     10  C   UNL     1      95.438  93.137  80.361  1.00  0.00     0.157 A 
ATOM     11  C   UNL     1      95.598  94.965  78.754  1.00  0.00     0.056 A 
ATOM     12  C   UNL     1      96.682  93.514  80.900  1.00  0.00     0.050 A 
ATOM     13  C   UNL     1      97.396  94.595  80.348  1.00  0.00     0.009 A 
BRANCH   9  14
ATOM     14  O   UNL     1      93.663  93.531  78.777  1.00  0.00    -0.493 OA
ATOM     15  C   UNL     1      93.551  93.721  77.354  1.00  0.00     0.278 C 
ENDBRANCH   9  14
BRANCH  10  16
ATOM     16  O   UNL     1      94.778  92.074  80.891  1.00  0.00    -0.504 OA
ATOM     17  H   UNL     1      95.414  91.420  81.190  1.00  0.00     0.293 HD
ENDBRANCH  10  16
ENDBRANCH   7   8
ENDBRANCH   4   7
ENDBRANCH   2   3
ENDBRANCH   1   2
BRANCH   1  18
ATOM     18  C   UNL     1      95.140  97.037  73.382  1.00  0.00     0.001 C 
BRANCH  18  19
ATOM     19  C   UNL     1      95.903  96.279  72.259  1.00  0.00     0.000 C 
BRANCH  19  20
ATOM     20  C   UNL     1      96.626  97.261  71.295  1.00  0.00     0.000 C 
BRANCH  20  21
ATOM     21  C   UNL     1      95.965  97.382  69.895  1.00  0.00     0.003 C 
BRANCH  21  22
ATOM     22  C   UNL     1      96.972  97.567  68.713  1.00  0.00    -0.017 C 
ATOM     23  C   UNL     1      98.407  97.162  69.153  1.00  0.00     0.007 C 
ATOM     24  C   UNL     1      96.972  99.003  68.111  1.00  0.00     0.007 C 
ENDBRANCH  21  22
ENDBRANCH  20  21
ENDBRANCH  19  20
ENDBRANCH  18  19
ENDBRANCH   1  18
TORSDOF 11
ENDMDL
MODEL 9
REMARK VINA RESULT:    -5.224     21.566     24.693
REMARK INTER + INTRA:          -9.048
REMARK INTER:                  -7.579
REMARK INTRA:                  -1.470
REMARK UNBOUND:                -0.618
REMARK SMILES COc1cc(CNC(=O)CCCCCCC(C)C)ccc1O
REMARK SMILES IDX 11 1 10 2 8 3 7 4 9 6 6 7 5 8 3 9 21 10 4 11 20 12 19 13
REMARK SMILES IDX 2 14 1 15 22 16 12 18 13 19 14 20 15 21 16 22 17 23 18 24
REMARK H PARENT 7 5 22 17
REMARK Flexibility Score: inf
ROOT
ATOM      1  C   UNL     1      75.848  87.646  68.003  1.00  0.00     0.010 C 
ENDROOT
BRANCH   1   2
ATOM      2  C   UNL     1      76.872  86.561  68.438  1.00  0.00     0.100 C 
BRANCH   2   3
ATOM      3  C   UNL     1      76.480  85.192  68.033  1.00  0.00     0.220 C 
ATOM      4  N   UNL     1      76.185  84.916  66.730  1.00  0.00    -0.352 N 
ATOM      5  H   UNL     1      76.216  85.714  66.113  1.00  0.00     0.163 HD
ATOM      6  O   UNL     1      76.450  84.292  68.908  1.00  0.00    -0.275 OA
BRANCH   4   7
ATOM      7  C   UNL     1      75.853  83.623  66.214  1.00  0.00     0.151 C 
BRANCH   7   8
ATOM      8  C   UNL     1      74.394  83.444  65.976  1.00  0.00    -0.025 A 
ATOM      9  C   UNL     1      72.505  82.018  65.307  1.00  0.00     0.160 A 
ATOM     10  C   UNL     1      71.610  83.081  65.562  1.00  0.00     0.157 A 
ATOM     11  C   UNL     1      73.889  82.213  65.498  1.00  0.00     0.056 A 
ATOM     12  C   UNL     1      72.104  84.322  66.001  1.00  0.00     0.050 A 
ATOM     13  C   UNL     1      73.485  84.501  66.218  1.00  0.00     0.009 A 
BRANCH   9  14
ATOM     14  O   UNL     1      72.038  80.819  64.842  1.00  0.00    -0.493 OA
ATOM     15  C   UNL     1      72.156  80.665  63.416  1.00  0.00     0.278 C 
ENDBRANCH   9  14
BRANCH  10  16
ATOM     16  O   UNL     1      70.272  82.922  65.385  1.00  0.00    -0.504 OA
ATOM     17  H   UNL     1      70.100  82.056  65.006  1.00  0.00     0.293 HD
ENDBRANCH  10  16
ENDBRANCH   7   8
ENDBRANCH   4   7
ENDBRANCH   2   3
ENDBRANCH   1   2
BRANCH   1  18
ATOM     18  C   UNL     1      76.513  89.038  67.812  1.00  0.00     0.001 C 
BRANCH  18  19
ATOM     19  C   UNL     1      76.305  89.643  66.395  1.00  0.00     0.000 C 
BRANCH  19  20
ATOM     20  C   UNL     1      76.447  88.563  65.285  1.00  0.00     0.000 C 
BRANCH  20  21
ATOM     21  C   UNL     1      75.684  88.893  63.973  1.00  0.00     0.003 C 
BRANCH  21  22
ATOM     22  C   UNL     1      74.807  87.723  63.418  1.00  0.00    -0.017 C 
ATOM     23  C   UNL     1      73.452  87.652  64.177  1.00  0.00     0.007 C 
ATOM     24  C   UNL     1      75.522  86.339  63.447  1.00  0.00     0.007 C 
ENDBRANCH  21  22
ENDBRANCH  20  21
ENDBRANCH  19  20
ENDBRANCH  18  19
ENDBRANCH   1  18
TORSDOF 11
ENDMDL
MODEL 10
REMARK VINA RESULT:    -5.131     24.575     27.602
REMARK INTER + INTRA:          -8.898
REMARK INTER:                  -8.263
REMARK INTRA:                  -0.635
REMARK UNBOUND:                -0.618
REMARK SMILES COc1cc(CNC(=O)CCCCCCC(C)C)ccc1O
REMARK SMILES IDX 11 1 10 2 8 3 7 4 9 6 6 7 5 8 3 9 21 10 4 11 20 12 19 13
REMARK SMILES IDX 2 14 1 15 22 16 12 18 13 19 14 20 15 21 16 22 17 23 18 24
REMARK H PARENT 7 5 22 17
REMARK Flexibility Score: inf
ROOT
ATOM      1  C   UNL     1      68.390  85.483  71.245  1.00  0.00     0.010 C 
ENDROOT
BRANCH   1   2
ATOM      2  C   UNL     1      69.243  84.730  70.187  1.00  0.00     0.100 C 
BRANCH   2   3
ATOM      3  C   UNL     1      69.913  85.633  69.225  1.00  0.00     0.220 C 
ATOM      4  N   UNL     1      71.239  85.479  68.943  1.00  0.00    -0.352 N 
ATOM      5  H   UNL     1      71.699  84.750  69.469  1.00  0.00     0.163 HD
ATOM      6  O   UNL     1      69.231  86.523  68.660  1.00  0.00    -0.275 OA
BRANCH   4   7
ATOM      7  C   UNL     1      71.977  86.252  67.991  1.00  0.00     0.151 C 
BRANCH   7   8
ATOM      8  C   UNL     1      73.452  86.116  68.141  1.00  0.00    -0.025 A 
ATOM      9  C   UNL     1      75.724  86.500  67.283  1.00  0.00     0.160 A 
ATOM     10  C   UNL     1      76.265  85.900  68.441  1.00  0.00     0.157 A 
ATOM     11  C   UNL     1      74.324  86.586  67.133  1.00  0.00     0.056 A 
ATOM     12  C   UNL     1      75.407  85.393  69.433  1.00  0.00     0.050 A 
ATOM     13  C   UNL     1      74.010  85.509  69.291  1.00  0.00     0.009 A 
BRANCH   9  14
ATOM     14  O   UNL     1      76.549  86.961  66.293  1.00  0.00    -0.493 OA
ATOM     15  C   UNL     1      76.744  88.386  66.318  1.00  0.00     0.278 C 
ENDBRANCH   9  14
BRANCH  10  16
ATOM     16  O   UNL     1      77.610  85.802  68.611  1.00  0.00    -0.504 OA
ATOM     17  H   UNL     1      77.914  86.520  69.171  1.00  0.00     0.293 HD
ENDBRANCH  10  16
ENDBRANCH   7   8
ENDBRANCH   4   7
ENDBRANCH   2   3
ENDBRANCH   1   2
BRANCH   1  18
ATOM     18  C   UNL     1      66.952  84.902  71.363  1.00  0.00     0.001 C 
BRANCH  18  19
ATOM     19  C   UNL     1      66.402  84.318  70.031  1.00  0.00     0.000 C 
BRANCH  19  20
ATOM     20  C   UNL     1      65.772  82.912  70.239  1.00  0.00     0.000 C 
BRANCH  20  21
ATOM     21  C   UNL     1      64.505  82.648  69.379  1.00  0.00     0.003 C 
BRANCH  21  22
ATOM     22  C   UNL     1      63.466  81.679  70.033  1.00  0.00    -0.017 C 
ATOM     23  C   UNL     1      62.036  81.976  69.500  1.00  0.00     0.007 C 
ATOM     24  C   UNL     1      63.483  81.701  71.590  1.00  0.00     0.007 C 
ENDBRANCH  21  22
ENDBRANCH  20  21
ENDBRANCH  19  20
ENDBRANCH  18  19
ENDBRANCH   1  18
TORSDOF 11
ENDMDL
