MODEL 1
REMARK VINA RESULT:    -7.776      0.000      0.000
REMARK INTER + INTRA:         -13.614
REMARK INTER:                 -13.231
REMARK INTRA:                  -0.383
REMARK UNBOUND:                -0.383
REMARK SMILES C=C(C)[C@]12C[C@@H](C)[C@@]34O[C@](Cc5ccccc5)(O[C@@H]1[C@@H]3C=C(COC(=O)Cc1ccc(O)cc1)C[C@]1(O)C(=O)C(C)=C[C@@H]41)O2
REMARK SMILES IDX 23 1 22 2 21 3 20 4 9 5 8 6 10 7 6 8 18 10 44 11 19 12 5 13
REMARK SMILES IDX 7 14 4 15 11 16 12 17 13 18 17 19 14 20 16 21 15 22 2 23
REMARK SMILES IDX 3 24 1 25 35 26 36 27 43 28 38 29 42 30 39 32 40 33 41 34
REMARK SMILES IDX 37 35 24 37 25 38 26 39 27 40 28 41 29 42 34 43 30 44 33 45
REMARK SMILES IDX 31 46 32 47
REMARK H PARENT 37 36 32 48
REMARK Flexibility Score: 90.00
ROOT
ATOM      1  C   UNL     1      94.380  86.550  87.922  1.00  0.00     0.264 C 
ENDROOT
BRANCH   1   2
ATOM      2  C   UNL     1      94.167  85.255  87.173  1.00  0.00    -0.033 C 
ATOM      3  C   UNL     1      95.215  84.668  86.560  1.00  0.00    -0.015 C 
BRANCH   3   4
ATOM      4  C   UNL     1      95.250  83.420  85.691  1.00  0.00     0.078 C 
ATOM      5  O   UNL     1      95.791  81.521  87.179  1.00  0.00    -0.319 OA
ATOM      6  C   UNL     1      94.749  82.063  86.309  1.00  0.00     0.095 CG0
ATOM      7  C   UNL     1      97.132  81.607  86.661  1.00  0.00     0.289 C 
ATOM      8  C   UNL     1      94.490  81.058  85.112  1.00  0.00     0.023 C 
ATOM      9  G   UNL     1      93.537  82.301  87.256  1.00  0.00     0.000 G0
ATOM     10  O   UNL     1      97.487  82.955  86.365  1.00  0.00    -0.320 OA
ATOM     11  O   UNL     1      97.289  80.890  85.438  1.00  0.00    -0.313 OA
ATOM     12  C   UNL     1      96.693  83.171  85.187  1.00  0.00     0.170 C 
ATOM     13  C   UNL     1      95.488  81.298  83.937  1.00  0.00     0.049 C 
ATOM     14  C   UNL     1      94.495  79.566  85.488  1.00  0.00     0.011 C 
ATOM     15  C   UNL     1      96.834  81.824  84.437  1.00  0.00     0.122 C 
BRANCH   7  16
ATOM     16  C   UNL     1      98.080  81.044  87.701  1.00  0.00     0.135 C 
BRANCH  16  17
ATOM     17  C   UNL     1      99.525  81.213  87.301  1.00  0.00    -0.040 A 
ATOM     18  C   UNL     1     100.209  80.160  86.695  1.00  0.00     0.004 A 
ATOM     19  C   UNL     1     100.175  82.424  87.538  1.00  0.00     0.004 A 
ATOM     20  C   UNL     1     101.546  80.317  86.325  1.00  0.00     0.000 A 
ATOM     21  C   UNL     1     101.512  82.581  87.168  1.00  0.00     0.000 A 
ATOM     22  C   UNL     1     102.196  81.528  86.562  1.00  0.00     0.000 A 
ENDBRANCH  16  17
ENDBRANCH   7  16
BRANCH  15  23
ATOM     23  C   UNL     1      97.862  81.889  83.354  1.00  0.00    -0.046 C 
ATOM     24  C   UNL     1      99.286  81.688  83.780  1.00  0.00     0.042 C 
ATOM     25  C   UNL     1      97.530  82.115  82.074  1.00  0.00     0.010 C 
ENDBRANCH  15  23
ENDBRANCH   3   4
BRANCH   2  26
ATOM     26  C   UNL     1      92.731  84.767  87.224  1.00  0.00     0.078 C 
BRANCH  26  27
ATOM     27  C   UNL     1      92.461  83.341  86.747  1.00  0.00     0.140 C 
ATOM     28  C   UNL     1      93.519  82.343  87.263  1.00  0.00     0.086 CG0
ATOM     29  C   UNL     1      91.176  82.774  87.313  1.00  0.00     0.190 C 
ATOM     30  C   UNL     1      92.697  81.184  87.754  1.00  0.00    -0.010 C 
ATOM     31  G   UNL     1      94.727  82.077  86.319  1.00  0.00     0.000 G0
ATOM     32  O   UNL     1      90.093  83.339  87.314  1.00  0.00    -0.291 OA
ATOM     33  C   UNL     1      91.380  81.404  87.821  1.00  0.00    -0.008 C 
ATOM     34  C   UNL     1      90.295  80.537  88.324  1.00  0.00     0.048 C 
BRANCH  27  35
ATOM     35  O   UNL     1      92.264  83.292  85.344  1.00  0.00    -0.381 OA
ATOM     36  H   UNL     1      91.701  84.042  85.088  1.00  0.00     0.212 HD
ENDBRANCH  27  35
ENDBRANCH  26  27
ENDBRANCH   2  26
ENDBRANCH   1   2
BRANCH   1  37
ATOM     37  O   UNL     1      95.563  87.167  87.459  1.00  0.00    -0.461 OA
BRANCH  37  38
ATOM     38  C   UNL     1      95.536  88.540  87.367  1.00  0.00     0.310 C 
ATOM     39  O   UNL     1      95.448  89.172  86.324  1.00  0.00    -0.252 OA
BRANCH  38  40
ATOM     40  C   UNL     1      95.632  89.139  88.750  1.00  0.00     0.158 C 
BRANCH  40  41
ATOM     41  C   UNL     1      94.515  90.104  89.051  1.00  0.00    -0.037 A 
ATOM     42  C   UNL     1      93.190  89.728  88.831  1.00  0.00     0.008 A 
ATOM     43  C   UNL     1      94.805  91.374  89.548  1.00  0.00     0.008 A 
ATOM     44  C   UNL     1      92.155  90.622  89.109  1.00  0.00     0.046 A 
ATOM     45  C   UNL     1      93.771  92.268  89.827  1.00  0.00     0.046 A 
ATOM     46  C   UNL     1      92.447  91.892  89.607  1.00  0.00     0.115 A 
BRANCH  46  47
ATOM     47  O   UNL     1      91.438  92.764  89.878  1.00  0.00    -0.508 OA
ATOM     48  H   UNL     1      90.678  92.556  89.306  1.00  0.00     0.293 HD
ENDBRANCH  46  47
ENDBRANCH  40  41
ENDBRANCH  38  40
ENDBRANCH  37  38
ENDBRANCH   1  37
TORSDOF 10
ENDMDL
MODEL 2
REMARK VINA RESULT:    -7.272     26.858     28.999
REMARK INTER + INTRA:         -12.756
REMARK INTER:                 -11.010
REMARK INTRA:                  -1.746
REMARK UNBOUND:                -0.383
REMARK SMILES C=C(C)[C@]12C[C@@H](C)[C@@]34O[C@](Cc5ccccc5)(O[C@@H]1[C@@H]3C=C(COC(=O)Cc1ccc(O)cc1)C[C@]1(O)C(=O)C(C)=C[C@@H]41)O2
REMARK SMILES IDX 23 1 22 2 21 3 20 4 9 5 8 6 10 7 6 8 18 10 44 11 19 12 5 13
REMARK SMILES IDX 7 14 4 15 11 16 12 17 13 18 17 19 14 20 16 21 15 22 2 23
REMARK SMILES IDX 3 24 1 25 35 26 36 27 43 28 38 29 42 30 39 32 40 33 41 34
REMARK SMILES IDX 37 35 24 37 25 38 26 39 27 40 28 41 29 42 34 43 30 44 33 45
REMARK SMILES IDX 31 46 32 47
REMARK H PARENT 37 36 32 48
REMARK Flexibility Score: 90.00
ROOT
ATOM      1  C   UNL     1      76.182  93.728  63.989  1.00  0.00     0.264 C 
ENDROOT
BRANCH   1   2
ATOM      2  C   UNL     1      75.373  92.927  64.984  1.00  0.00    -0.033 C 
ATOM      3  C   UNL     1      75.340  91.583  64.876  1.00  0.00    -0.015 C 
BRANCH   3   4
ATOM      4  C   UNL     1      74.553  90.569  65.690  1.00  0.00     0.078 C 
ATOM      5  O   UNL     1      76.035  89.804  67.516  1.00  0.00    -0.319 OA
ATOM      6  C   UNL     1      74.786  90.513  67.244  1.00  0.00     0.095 CG0
ATOM      7  C   UNL     1      76.253  88.618  66.727  1.00  0.00     0.289 C 
ATOM      8  C   UNL     1      73.579  89.711  67.883  1.00  0.00     0.023 C 
ATOM      9  G   UNL     1      75.018  91.941  67.820  1.00  0.00     0.000 G0
ATOM     10  O   UNL     1      76.226  88.911  65.333  1.00  0.00    -0.320 OA
ATOM     11  O   UNL     1      75.240  87.636  66.934  1.00  0.00    -0.313 OA
ATOM     12  C   UNL     1      74.819  89.141  65.152  1.00  0.00     0.170 C 
ATOM     13  C   UNL     1      73.063  88.595  66.923  1.00  0.00     0.049 C 
ATOM     14  C   UNL     1      73.848  89.105  69.271  1.00  0.00     0.011 C 
ATOM     15  C   UNL     1      74.184  88.044  66.041  1.00  0.00     0.122 C 
BRANCH   7  16
ATOM     16  C   UNL     1      77.602  88.039  67.104  1.00  0.00     0.135 C 
BRANCH  16  17
ATOM     17  C   UNL     1      77.680  86.558  66.827  1.00  0.00    -0.040 A 
ATOM     18  C   UNL     1      77.249  85.645  67.788  1.00  0.00     0.004 A 
ATOM     19  C   UNL     1      78.183  86.103  65.608  1.00  0.00     0.004 A 
ATOM     20  C   UNL     1      77.320  84.275  67.531  1.00  0.00     0.000 A 
ATOM     21  C   UNL     1      78.254  84.734  65.351  1.00  0.00     0.000 A 
ATOM     22  C   UNL     1      77.823  83.820  66.313  1.00  0.00     0.000 A 
ENDBRANCH  16  17
ENDBRANCH   7  16
BRANCH  15  23
ATOM     23  C   UNL     1      73.755  86.855  65.244  1.00  0.00    -0.046 C 
ATOM     24  C   UNL     1      72.425  86.962  64.559  1.00  0.00     0.042 C 
ATOM     25  C   UNL     1      74.516  85.754  65.148  1.00  0.00     0.010 C 
ENDBRANCH  15  23
ENDBRANCH   3   4
BRANCH   2  26
ATOM     26  C   UNL     1      74.683  93.791  66.022  1.00  0.00     0.078 C 
BRANCH  26  27
ATOM     27  C   UNL     1      74.101  93.082  67.244  1.00  0.00     0.140 C 
ATOM     28  C   UNL     1      75.033  91.974  67.775  1.00  0.00     0.086 CG0
ATOM     29  C   UNL     1      73.973  94.000  68.441  1.00  0.00     0.190 C 
ATOM     30  C   UNL     1      75.046  92.208  69.260  1.00  0.00    -0.010 C 
ATOM     31  G   UNL     1      74.772  90.539  67.231  1.00  0.00     0.000 G0
ATOM     32  O   UNL     1      73.471  95.115  68.428  1.00  0.00    -0.291 OA
ATOM     33  C   UNL     1      74.483  93.352  69.663  1.00  0.00    -0.008 C 
ATOM     34  C   UNL     1      74.388  93.940  71.015  1.00  0.00     0.048 C 
BRANCH  27  35
ATOM     35  O   UNL     1      72.772  92.648  67.007  1.00  0.00    -0.381 OA
ATOM     36  H   UNL     1      72.397  92.336  67.849  1.00  0.00     0.212 HD
ENDBRANCH  27  35
ENDBRANCH  26  27
ENDBRANCH   2  26
ENDBRANCH   1   2
BRANCH   1  37
ATOM     37  O   UNL     1      77.514  93.829  64.445  1.00  0.00    -0.461 OA
BRANCH  37  38
ATOM     38  C   UNL     1      77.955  95.095  64.758  1.00  0.00     0.310 C 
ATOM     39  O   UNL     1      77.430  96.134  64.382  1.00  0.00    -0.252 OA
BRANCH  38  40
ATOM     40  C   UNL     1      79.182  95.000  65.632  1.00  0.00     0.158 C 
BRANCH  40  41
ATOM     41  C   UNL     1      78.893  95.284  67.083  1.00  0.00    -0.037 A 
ATOM     42  C   UNL     1      79.813  96.000  67.850  1.00  0.00     0.008 A 
ATOM     43  C   UNL     1      77.707  94.832  67.660  1.00  0.00     0.008 A 
ATOM     44  C   UNL     1      79.546  96.263  69.194  1.00  0.00     0.046 A 
ATOM     45  C   UNL     1      77.440  95.095  69.004  1.00  0.00     0.046 A 
ATOM     46  C   UNL     1      78.359  95.810  69.771  1.00  0.00     0.115 A 
BRANCH  46  47
ATOM     47  O   UNL     1      78.099  96.066  71.082  1.00  0.00    -0.508 OA
ATOM     48  H   UNL     1      77.271  96.573  71.146  1.00  0.00     0.293 HD
ENDBRANCH  46  47
ENDBRANCH  40  41
ENDBRANCH  38  40
ENDBRANCH  37  38
ENDBRANCH   1  37
TORSDOF 10
ENDMDL
MODEL 3
REMARK VINA RESULT:    -7.213      3.720      8.387
REMARK INTER + INTRA:         -12.657
REMARK INTER:                 -12.371
REMARK INTRA:                  -0.286
REMARK UNBOUND:                -0.383
REMARK SMILES C=C(C)[C@]12C[C@@H](C)[C@@]34O[C@](Cc5ccccc5)(O[C@@H]1[C@@H]3C=C(COC(=O)Cc1ccc(O)cc1)C[C@]1(O)C(=O)C(C)=C[C@@H]41)O2
REMARK SMILES IDX 23 1 22 2 21 3 20 4 9 5 8 6 10 7 6 8 18 10 44 11 19 12 5 13
REMARK SMILES IDX 7 14 4 15 11 16 12 17 13 18 17 19 14 20 16 21 15 22 2 23
REMARK SMILES IDX 3 24 1 25 35 26 36 27 43 28 38 29 42 30 39 32 40 33 41 34
REMARK SMILES IDX 37 35 24 37 25 38 26 39 27 40 28 41 29 42 34 43 30 44 33 45
REMARK SMILES IDX 31 46 32 47
REMARK H PARENT 37 36 32 48
REMARK Flexibility Score: 90.00
ROOT
ATOM      1  C   UNL     1      96.450  82.381  84.218  1.00  0.00     0.264 C 
ENDROOT
BRANCH   1   2
ATOM      2  C   UNL     1      95.165  82.601  84.983  1.00  0.00    -0.033 C 
ATOM      3  C   UNL     1      94.154  81.719  84.842  1.00  0.00    -0.015 C 
BRANCH   3   4
ATOM      4  C   UNL     1      92.754  81.753  85.432  1.00  0.00     0.078 C 
ATOM      5  O   UNL     1      92.827  80.458  87.537  1.00  0.00    -0.319 OA
ATOM      6  C   UNL     1      92.602  81.797  86.997  1.00  0.00     0.095 CG0
ATOM      7  C   UNL     1      92.211  79.385  86.798  1.00  0.00     0.289 C 
ATOM      8  C   UNL     1      91.119  82.251  87.323  1.00  0.00     0.023 C 
ATOM      9  G   UNL     1      93.723  82.667  87.638  1.00  0.00     0.000 G0
ATOM     10  O   UNL     1      92.647  79.374  85.442  1.00  0.00    -0.320 OA
ATOM     11  O   UNL     1      90.792  79.507  86.746  1.00  0.00    -0.313 OA
ATOM     12  C   UNL     1      91.947  80.525  84.944  1.00  0.00     0.170 C 
ATOM     13  C   UNL     1      90.114  81.734  86.249  1.00  0.00     0.049 C 
ATOM     14  C   UNL     1      90.606  81.877  88.724  1.00  0.00     0.011 C 
ATOM     15  C   UNL     1      90.569  80.406  85.640  1.00  0.00     0.122 C 
BRANCH   7  16
ATOM     16  C   UNL     1      92.580  78.075  87.467  1.00  0.00     0.135 C 
BRANCH  16  17
ATOM     17  C   UNL     1      92.819  76.975  86.463  1.00  0.00    -0.040 A 
ATOM     18  C   UNL     1      93.986  76.967  85.701  1.00  0.00     0.004 A 
ATOM     19  C   UNL     1      91.870  75.966  86.298  1.00  0.00     0.004 A 
ATOM     20  C   UNL     1      94.206  75.948  84.773  1.00  0.00     0.000 A 
ATOM     21  C   UNL     1      92.091  74.947  85.370  1.00  0.00     0.000 A 
ATOM     22  C   UNL     1      93.258  74.939  84.608  1.00  0.00     0.000 A 
ENDBRANCH  16  17
ENDBRANCH   7  16
BRANCH  15  23
ATOM     23  C   UNL     1      89.537  79.802  84.744  1.00  0.00    -0.046 C 
ATOM     24  C   UNL     1      88.214  80.506  84.690  1.00  0.00     0.042 C 
ATOM     25  C   UNL     1      89.780  78.694  84.029  1.00  0.00     0.010 C 
ENDBRANCH  15  23
ENDBRANCH   3   4
BRANCH   2  26
ATOM     26  C   UNL     1      95.196  83.843  85.854  1.00  0.00     0.078 C 
BRANCH  26  27
ATOM     27  C   UNL     1      94.078  84.003  86.882  1.00  0.00     0.140 C 
ATOM     28  C   UNL     1      93.752  82.677  87.601  1.00  0.00     0.086 CG0
ATOM     29  C   UNL     1      94.470  84.908  88.030  1.00  0.00     0.190 C 
ATOM     30  C   UNL     1      93.672  83.075  89.049  1.00  0.00    -0.010 C 
ATOM     31  G   UNL     1      92.608  81.823  86.980  1.00  0.00     0.000 G0
ATOM     32  O   UNL     1      94.984  86.011  87.919  1.00  0.00    -0.291 OA
ATOM     33  C   UNL     1      94.095  84.312  89.326  1.00  0.00    -0.008 C 
ATOM     34  C   UNL     1      94.235  85.000  90.626  1.00  0.00     0.048 C 
BRANCH  27  35
ATOM     35  O   UNL     1      92.944  84.643  86.319  1.00  0.00    -0.381 OA
ATOM     36  H   UNL     1      92.422  83.976  85.840  1.00  0.00     0.212 HD
ENDBRANCH  27  35
ENDBRANCH  26  27
ENDBRANCH   2  26
ENDBRANCH   1   2
BRANCH   1  37
ATOM     37  O   UNL     1      96.212  81.483  83.155  1.00  0.00    -0.461 OA
BRANCH  37  38
ATOM     38  C   UNL     1      97.286  81.205  82.342  1.00  0.00     0.310 C 
ATOM     39  O   UNL     1      97.716  80.085  82.103  1.00  0.00    -0.252 OA
BRANCH  38  40
ATOM     40  C   UNL     1      97.848  82.494  81.793  1.00  0.00     0.158 C 
BRANCH  40  41
ATOM     41  C   UNL     1      97.774  82.575  80.290  1.00  0.00    -0.037 A 
ATOM     42  C   UNL     1      96.534  82.565  79.652  1.00  0.00     0.008 A 
ATOM     43  C   UNL     1      98.944  82.660  79.537  1.00  0.00     0.008 A 
ATOM     44  C   UNL     1      96.465  82.639  78.260  1.00  0.00     0.046 A 
ATOM     45  C   UNL     1      98.876  82.735  78.146  1.00  0.00     0.046 A 
ATOM     46  C   UNL     1      97.636  82.724  77.507  1.00  0.00     0.115 A 
BRANCH  46  47
ATOM     47  O   UNL     1      97.569  82.796  76.150  1.00  0.00    -0.508 OA
ATOM     48  H   UNL     1      96.748  82.366  75.852  1.00  0.00     0.293 HD
ENDBRANCH  46  47
ENDBRANCH  40  41
ENDBRANCH  38  40
ENDBRANCH  37  38
ENDBRANCH   1  37
TORSDOF 10
ENDMDL
MODEL 4
REMARK VINA RESULT:    -7.122     29.110     32.907
REMARK INTER + INTRA:         -12.501
REMARK INTER:                 -11.443
REMARK INTRA:                  -1.058
REMARK UNBOUND:                -0.383
REMARK SMILES C=C(C)[C@]12C[C@@H](C)[C@@]34O[C@](Cc5ccccc5)(O[C@@H]1[C@@H]3C=C(COC(=O)Cc1ccc(O)cc1)C[C@]1(O)C(=O)C(C)=C[C@@H]41)O2
REMARK SMILES IDX 23 1 22 2 21 3 20 4 9 5 8 6 10 7 6 8 18 10 44 11 19 12 5 13
REMARK SMILES IDX 7 14 4 15 11 16 12 17 13 18 17 19 14 20 16 21 15 22 2 23
REMARK SMILES IDX 3 24 1 25 35 26 36 27 43 28 38 29 42 30 39 32 40 33 41 34
REMARK SMILES IDX 37 35 24 37 25 38 26 39 27 40 28 41 29 42 34 43 30 44 33 45
REMARK SMILES IDX 31 46 32 47
REMARK H PARENT 37 36 32 48
REMARK Flexibility Score: 90.00
ROOT
ATOM      1  C   UNL     1      67.049  85.643  80.020  1.00  0.00     0.264 C 
ENDROOT
BRANCH   1   2
ATOM      2  C   UNL     1      66.080  86.408  79.149  1.00  0.00    -0.033 C 
ATOM      3  C   UNL     1      65.914  86.036  77.863  1.00  0.00    -0.015 C 
BRANCH   3   4
ATOM      4  C   UNL     1      65.070  86.678  76.774  1.00  0.00     0.078 C 
ATOM      5  O   UNL     1      62.861  85.567  76.826  1.00  0.00    -0.319 OA
ATOM      6  C   UNL     1      63.527  86.852  77.028  1.00  0.00     0.095 CG0
ATOM      7  C   UNL     1      63.307  84.816  75.680  1.00  0.00     0.289 C 
ATOM      8  C   UNL     1      62.982  87.897  75.968  1.00  0.00     0.023 C 
ATOM      9  G   UNL     1      63.248  87.204  78.518  1.00  0.00     0.000 G0
ATOM     10  O   UNL     1      64.708  84.562  75.741  1.00  0.00    -0.320 OA
ATOM     11  O   UNL     1      63.095  85.516  74.456  1.00  0.00    -0.313 OA
ATOM     12  C   UNL     1      65.213  85.877  75.456  1.00  0.00     0.170 C 
ATOM     13  C   UNL     1      63.754  87.797  74.617  1.00  0.00     0.049 C 
ATOM     14  C   UNL     1      61.469  87.835  75.697  1.00  0.00     0.011 C 
ATOM     15  C   UNL     1      64.249  86.375  74.352  1.00  0.00     0.122 C 
BRANCH   7  16
ATOM     16  C   UNL     1      62.549  83.504  75.648  1.00  0.00     0.135 C 
BRANCH  16  17
ATOM     17  C   UNL     1      63.161  82.519  74.683  1.00  0.00    -0.040 A 
ATOM     18  C   UNL     1      62.935  82.653  73.314  1.00  0.00     0.004 A 
ATOM     19  C   UNL     1      63.952  81.476  75.161  1.00  0.00     0.004 A 
ATOM     20  C   UNL     1      63.502  81.742  72.421  1.00  0.00     0.000 A 
ATOM     21  C   UNL     1      64.519  80.565  74.269  1.00  0.00     0.000 A 
ATOM     22  C   UNL     1      64.293  80.699  72.899  1.00  0.00     0.000 A 
ENDBRANCH  16  17
ENDBRANCH   7  16
BRANCH  15  23
ATOM     23  C   UNL     1      64.831  86.215  72.985  1.00  0.00    -0.046 C 
ATOM     24  C   UNL     1      66.327  86.277  72.891  1.00  0.00     0.042 C 
ATOM     25  C   UNL     1      64.061  86.028  71.903  1.00  0.00     0.010 C 
ENDBRANCH  15  23
ENDBRANCH   3   4
BRANCH   2  26
ATOM     26  C   UNL     1      65.386  87.541  79.883  1.00  0.00     0.078 C 
BRANCH  26  27
ATOM     27  C   UNL     1      64.226  88.229  79.166  1.00  0.00     0.140 C 
ATOM     28  C   UNL     1      63.259  87.218  78.517  1.00  0.00     0.086 CG0
ATOM     29  C   UNL     1      63.320  88.981  80.119  1.00  0.00     0.190 C 
ATOM     30  C   UNL     1      61.901  87.728  78.915  1.00  0.00    -0.010 C 
ATOM     31  G   UNL     1      63.535  86.865  77.027  1.00  0.00     0.000 G0
ATOM     32  O   UNL     1      63.693  89.761  80.983  1.00  0.00    -0.291 OA
ATOM     33  C   UNL     1      61.901  88.698  79.834  1.00  0.00    -0.008 C 
ATOM     34  C   UNL     1      60.771  89.369  80.509  1.00  0.00     0.048 C 
BRANCH  27  35
ATOM     35  O   UNL     1      64.688  89.232  78.277  1.00  0.00    -0.381 OA
ATOM     36  H   UNL     1      64.634  88.886  77.370  1.00  0.00     0.212 HD
ENDBRANCH  27  35
ENDBRANCH  26  27
ENDBRANCH   2  26
ENDBRANCH   1   2
BRANCH   1  37
ATOM     37  O   UNL     1      66.548  85.587  81.339  1.00  0.00    -0.461 OA
BRANCH  37  38
ATOM     38  C   UNL     1      67.190  84.724  82.197  1.00  0.00     0.310 C 
ATOM     39  O   UNL     1      68.042  83.911  81.868  1.00  0.00    -0.252 OA
BRANCH  38  40
ATOM     40  C   UNL     1      66.680  84.939  83.602  1.00  0.00     0.158 C 
BRANCH  40  41
ATOM     41  C   UNL     1      65.614  86.000  83.684  1.00  0.00    -0.037 A 
ATOM     42  C   UNL     1      64.309  85.711  83.283  1.00  0.00     0.008 A 
ATOM     43  C   UNL     1      65.929  87.272  84.162  1.00  0.00     0.008 A 
ATOM     44  C   UNL     1      63.322  86.693  83.358  1.00  0.00     0.046 A 
ATOM     45  C   UNL     1      64.942  88.255  84.238  1.00  0.00     0.046 A 
ATOM     46  C   UNL     1      63.639  87.966  83.836  1.00  0.00     0.115 A 
BRANCH  46  47
ATOM     47  O   UNL     1      62.675  88.924  83.909  1.00  0.00    -0.508 OA
ATOM     48  H   UNL     1      62.092  88.845  83.134  1.00  0.00     0.293 HD
ENDBRANCH  46  47
ENDBRANCH  40  41
ENDBRANCH  38  40
ENDBRANCH  37  38
ENDBRANCH   1  37
TORSDOF 10
ENDMDL
MODEL 5
REMARK VINA RESULT:    -6.919     31.708     35.829
REMARK INTER + INTRA:         -12.156
REMARK INTER:                 -12.206
REMARK INTRA:                   0.050
REMARK UNBOUND:                -0.383
REMARK SMILES C=C(C)[C@]12C[C@@H](C)[C@@]34O[C@](Cc5ccccc5)(O[C@@H]1[C@@H]3C=C(COC(=O)Cc1ccc(O)cc1)C[C@]1(O)C(=O)C(C)=C[C@@H]41)O2
REMARK SMILES IDX 23 1 22 2 21 3 20 4 9 5 8 6 10 7 6 8 18 10 44 11 19 12 5 13
REMARK SMILES IDX 7 14 4 15 11 16 12 17 13 18 17 19 14 20 16 21 15 22 2 23
REMARK SMILES IDX 3 24 1 25 35 26 36 27 43 28 38 29 42 30 39 32 40 33 41 34
REMARK SMILES IDX 37 35 24 37 25 38 26 39 27 40 28 41 29 42 34 43 30 44 33 45
REMARK SMILES IDX 31 46 32 47
REMARK H PARENT 37 36 32 48
REMARK Flexibility Score: 90.00
ROOT
ATOM      1  C   UNL     1      62.556  86.703  77.321  1.00  0.00     0.264 C 
ENDROOT
BRANCH   1   2
ATOM      2  C   UNL     1      62.236  85.709  76.229  1.00  0.00    -0.033 C 
ATOM      3  C   UNL     1      61.447  86.088  75.202  1.00  0.00    -0.015 C 
BRANCH   3   4
ATOM      4  C   UNL     1      60.921  85.268  74.035  1.00  0.00     0.078 C 
ATOM      5  O   UNL     1      62.528  85.548  72.176  1.00  0.00    -0.319 OA
ATOM      6  C   UNL     1      61.959  84.559  73.091  1.00  0.00     0.095 CG0
ATOM      7  C   UNL     1      61.584  86.480  71.614  1.00  0.00     0.289 C 
ATOM      8  C   UNL     1      61.178  83.463  72.256  1.00  0.00     0.023 C 
ATOM      9  G   UNL     1      63.179  84.036  73.904  1.00  0.00     0.000 G0
ATOM     10  O   UNL     1      60.891  87.194  72.633  1.00  0.00    -0.320 OA
ATOM     11  O   UNL     1      60.575  85.831  70.844  1.00  0.00    -0.313 OA
ATOM     12  C   UNL     1      60.032  86.155  73.128  1.00  0.00     0.170 C 
ATOM     13  C   UNL     1      59.715  83.909  71.953  1.00  0.00     0.049 C 
ATOM     14  C   UNL     1      61.856  83.019  70.948  1.00  0.00     0.011 C 
ATOM     15  C   UNL     1      59.601  85.430  71.830  1.00  0.00     0.122 C 
BRANCH   7  16
ATOM     16  C   UNL     1      62.344  87.451  70.732  1.00  0.00     0.135 C 
BRANCH  16  17
ATOM     17  C   UNL     1      61.425  88.234  69.828  1.00  0.00    -0.040 A 
ATOM     18  C   UNL     1      60.943  89.478  70.232  1.00  0.00     0.004 A 
ATOM     19  C   UNL     1      61.059  87.712  68.588  1.00  0.00     0.004 A 
ATOM     20  C   UNL     1      60.093  90.202  69.396  1.00  0.00     0.000 A 
ATOM     21  C   UNL     1      60.209  88.437  67.751  1.00  0.00     0.000 A 
ATOM     22  C   UNL     1      59.726  89.681  68.155  1.00  0.00     0.000 A 
ENDBRANCH  16  17
ENDBRANCH   7  16
BRANCH  15  23
ATOM     23  C   UNL     1      58.251  85.868  71.363  1.00  0.00    -0.046 C 
ATOM     24  C   UNL     1      58.093  87.333  71.078  1.00  0.00     0.042 C 
ATOM     25  C   UNL     1      57.239  85.003  71.207  1.00  0.00     0.010 C 
ENDBRANCH  15  23
ENDBRANCH   3   4
BRANCH   2  26
ATOM     26  C   UNL     1      62.887  84.356  76.446  1.00  0.00     0.078 C 
BRANCH  26  27
ATOM     27  C   UNL     1      62.819  83.356  75.293  1.00  0.00     0.140 C 
ATOM     28  C   UNL     1      63.170  84.003  73.937  1.00  0.00     0.086 CG0
ATOM     29  C   UNL     1      63.861  82.263  75.411  1.00  0.00     0.190 C 
ATOM     30  C   UNL     1      64.118  83.017  73.314  1.00  0.00    -0.010 C 
ATOM     31  G   UNL     1      61.971  84.541  73.104  1.00  0.00     0.000 G0
ATOM     32  O   UNL     1      64.085  81.604  76.416  1.00  0.00    -0.291 OA
ATOM     33  C   UNL     1      64.547  82.044  74.124  1.00  0.00    -0.008 C 
ATOM     34  C   UNL     1      65.529  80.968  73.881  1.00  0.00     0.048 C 
BRANCH  27  35
ATOM     35  O   UNL     1      61.589  82.651  75.290  1.00  0.00    -0.381 OA
ATOM     36  H   UNL     1      61.353  82.451  74.368  1.00  0.00     0.212 HD
ENDBRANCH  27  35
ENDBRANCH  26  27
ENDBRANCH   2  26
ENDBRANCH   1   2
BRANCH   1  37
ATOM     37  O   UNL     1      63.913  86.575  77.686  1.00  0.00    -0.461 OA
BRANCH  37  38
ATOM     38  C   UNL     1      64.234  86.941  78.973  1.00  0.00     0.310 C 
ATOM     39  O   UNL     1      63.434  87.327  79.813  1.00  0.00    -0.252 OA
BRANCH  38  40
ATOM     40  C   UNL     1      65.722  86.794  79.183  1.00  0.00     0.158 C 
BRANCH  40  41
ATOM     41  C   UNL     1      66.066  86.042  80.442  1.00  0.00    -0.037 A 
ATOM     42  C   UNL     1      65.326  86.255  81.606  1.00  0.00     0.008 A 
ATOM     43  C   UNL     1      67.124  85.133  80.446  1.00  0.00     0.008 A 
ATOM     44  C   UNL     1      65.645  85.560  82.773  1.00  0.00     0.046 A 
ATOM     45  C   UNL     1      67.443  84.437  81.613  1.00  0.00     0.046 A 
ATOM     46  C   UNL     1      66.704  84.651  82.776  1.00  0.00     0.115 A 
BRANCH  46  47
ATOM     47  O   UNL     1      67.015  83.973  83.914  1.00  0.00    -0.508 OA
ATOM     48  H   UNL     1      66.361  84.192  84.601  1.00  0.00     0.293 HD
ENDBRANCH  46  47
ENDBRANCH  40  41
ENDBRANCH  38  40
ENDBRANCH  37  38
ENDBRANCH   1  37
TORSDOF 10
ENDMDL
MODEL 6
REMARK VINA RESULT:    -6.711     30.904     34.873
REMARK INTER + INTRA:         -11.803
REMARK INTER:                 -10.022
REMARK INTRA:                  -1.781
REMARK UNBOUND:                -0.383
REMARK SMILES C=C(C)[C@]12C[C@@H](C)[C@@]34O[C@](Cc5ccccc5)(O[C@@H]1[C@@H]3C=C(COC(=O)Cc1ccc(O)cc1)C[C@]1(O)C(=O)C(C)=C[C@@H]41)O2
REMARK SMILES IDX 23 1 22 2 21 3 20 4 9 5 8 6 10 7 6 8 18 10 44 11 19 12 5 13
REMARK SMILES IDX 7 14 4 15 11 16 12 17 13 18 17 19 14 20 16 21 15 22 2 23
REMARK SMILES IDX 3 24 1 25 35 26 36 27 43 28 38 29 42 30 39 32 40 33 41 34
REMARK SMILES IDX 37 35 24 37 25 38 26 39 27 40 28 41 29 42 34 43 30 44 33 45
REMARK SMILES IDX 31 46 32 47
REMARK H PARENT 37 36 32 48
REMARK Flexibility Score: 90.00
ROOT
ATOM      1  C   UNL     1      62.244  90.552  73.374  1.00  0.00     0.264 C 
ENDROOT
BRANCH   1   2
ATOM      2  C   UNL     1      63.476  89.689  73.523  1.00  0.00    -0.033 C 
ATOM      3  C   UNL     1      63.636  88.956  74.644  1.00  0.00    -0.015 C 
BRANCH   3   4
ATOM      4  C   UNL     1      64.805  88.079  75.064  1.00  0.00     0.078 C 
ATOM      5  O   UNL     1      64.293  85.782  74.303  1.00  0.00    -0.319 OA
ATOM      6  C   UNL     1      65.227  86.892  74.122  1.00  0.00     0.095 CG0
ATOM      7  C   UNL     1      63.925  85.504  75.668  1.00  0.00     0.289 C 
ATOM      8  C   UNL     1      66.679  86.430  74.555  1.00  0.00     0.023 C 
ATOM      9  G   UNL     1      65.071  87.291  72.626  1.00  0.00     0.000 G0
ATOM     10  O   UNL     1      63.351  86.647  76.293  1.00  0.00    -0.320 OA
ATOM     11  O   UNL     1      65.049  85.149  76.470  1.00  0.00    -0.313 OA
ATOM     12  C   UNL     1      64.524  87.460  76.456  1.00  0.00     0.170 C 
ATOM     13  C   UNL     1      66.899  86.596  76.090  1.00  0.00     0.049 C 
ATOM     14  C   UNL     1      67.071  85.002  74.136  1.00  0.00     0.011 C 
ATOM     15  C   UNL     1      65.595  86.423  76.871  1.00  0.00     0.122 C 
BRANCH   7  16
ATOM     16  C   UNL     1      62.926  84.363  75.666  1.00  0.00     0.135 C 
BRANCH  16  17
ATOM     17  C   UNL     1      63.445  83.156  74.925  1.00  0.00    -0.040 A 
ATOM     18  C   UNL     1      64.187  82.188  75.601  1.00  0.00     0.004 A 
ATOM     19  C   UNL     1      63.182  83.010  73.564  1.00  0.00     0.004 A 
ATOM     20  C   UNL     1      64.666  81.072  74.915  1.00  0.00     0.000 A 
ATOM     21  C   UNL     1      63.661  81.893  72.878  1.00  0.00     0.000 A 
ATOM     22  C   UNL     1      64.403  80.925  73.553  1.00  0.00     0.000 A 
ENDBRANCH  16  17
ENDBRANCH   7  16
BRANCH  15  23
ATOM     23  C   UNL     1      65.811  86.398  78.349  1.00  0.00    -0.046 C 
ATOM     24  C   UNL     1      64.657  86.853  79.193  1.00  0.00     0.042 C 
ATOM     25  C   UNL     1      66.968  85.992  78.890  1.00  0.00     0.010 C 
ENDBRANCH  15  23
ENDBRANCH   3   4
BRANCH   2  26
ATOM     26  C   UNL     1      64.404  89.766  72.325  1.00  0.00     0.078 C 
BRANCH  26  27
ATOM     27  C   UNL     1      65.526  88.732  72.244  1.00  0.00     0.140 C 
ATOM     28  C   UNL     1      65.046  87.319  72.636  1.00  0.00     0.086 CG0
ATOM     29  C   UNL     1      66.023  88.526  70.829  1.00  0.00     0.190 C 
ATOM     30  C   UNL     1      65.623  86.443  71.559  1.00  0.00    -0.010 C 
ATOM     31  G   UNL     1      65.236  86.920  74.129  1.00  0.00     0.000 G0
ATOM     32  O   UNL     1      66.329  89.415  70.049  1.00  0.00    -0.291 OA
ATOM     33  C   UNL     1      66.153  87.090  70.517  1.00  0.00    -0.008 C 
ATOM     34  C   UNL     1      66.726  86.563  69.261  1.00  0.00     0.048 C 
BRANCH  27  35
ATOM     35  O   UNL     1      66.679  89.161  72.948  1.00  0.00    -0.381 OA
ATOM     36  H   UNL     1      67.446  89.088  72.355  1.00  0.00     0.212 HD
ENDBRANCH  27  35
ENDBRANCH  26  27
ENDBRANCH   2  26
ENDBRANCH   1   2
BRANCH   1  37
ATOM     37  O   UNL     1      61.315  90.215  74.382  1.00  0.00    -0.461 OA
BRANCH  37  38
ATOM     38  C   UNL     1      60.019  90.004  73.969  1.00  0.00     0.310 C 
ATOM     39  O   UNL     1      59.395  90.737  73.214  1.00  0.00    -0.252 OA
BRANCH  38  40
ATOM     40  C   UNL     1      59.492  88.734  74.591  1.00  0.00     0.158 C 
BRANCH  40  41
ATOM     41  C   UNL     1      59.539  87.556  73.652  1.00  0.00    -0.037 A 
ATOM     42  C   UNL     1      58.527  87.376  72.708  1.00  0.00     0.008 A 
ATOM     43  C   UNL     1      60.592  86.646  73.726  1.00  0.00     0.008 A 
ATOM     44  C   UNL     1      58.570  86.286  71.839  1.00  0.00     0.046 A 
ATOM     45  C   UNL     1      60.636  85.555  72.857  1.00  0.00     0.046 A 
ATOM     46  C   UNL     1      59.625  85.375  71.914  1.00  0.00     0.115 A 
BRANCH  46  47
ATOM     47  O   UNL     1      59.666  84.311  71.066  1.00  0.00    -0.508 OA
ATOM     48  H   UNL     1      60.346  83.688  71.375  1.00  0.00     0.293 HD
ENDBRANCH  46  47
ENDBRANCH  40  41
ENDBRANCH  38  40
ENDBRANCH  37  38
ENDBRANCH   1  37
TORSDOF 10
ENDMDL
MODEL 7
REMARK VINA RESULT:    -6.623     29.948     34.099
REMARK INTER + INTRA:         -11.653
REMARK INTER:                 -10.538
REMARK INTRA:                  -1.115
REMARK UNBOUND:                -0.383
REMARK SMILES C=C(C)[C@]12C[C@@H](C)[C@@]34O[C@](Cc5ccccc5)(O[C@@H]1[C@@H]3C=C(COC(=O)Cc1ccc(O)cc1)C[C@]1(O)C(=O)C(C)=C[C@@H]41)O2
REMARK SMILES IDX 23 1 22 2 21 3 20 4 9 5 8 6 10 7 6 8 18 10 44 11 19 12 5 13
REMARK SMILES IDX 7 14 4 15 11 16 12 17 13 18 17 19 14 20 16 21 15 22 2 23
REMARK SMILES IDX 3 24 1 25 35 26 36 27 43 28 38 29 42 30 39 32 40 33 41 34
REMARK SMILES IDX 37 35 24 37 25 38 26 39 27 40 28 41 29 42 34 43 30 44 33 45
REMARK SMILES IDX 31 46 32 47
REMARK H PARENT 37 36 32 48
REMARK Flexibility Score: 90.00
ROOT
ATOM      1  C   UNL     1      61.913  88.082  79.064  1.00  0.00     0.264 C 
ENDROOT
BRANCH   1   2
ATOM      2  C   UNL     1      62.858  87.628  77.975  1.00  0.00    -0.033 C 
ATOM      3  C   UNL     1      62.652  86.435  77.379  1.00  0.00    -0.015 C 
BRANCH   3   4
ATOM      4  C   UNL     1      63.489  85.726  76.326  1.00  0.00     0.078 C 
ATOM      5  O   UNL     1      62.579  86.380  74.122  1.00  0.00    -0.319 OA
ATOM      6  C   UNL     1      63.768  86.467  74.967  1.00  0.00     0.095 CG0
ATOM      7  C   UNL     1      61.930  85.094  74.103  1.00  0.00     0.289 C 
ATOM      8  C   UNL     1      64.973  85.725  74.255  1.00  0.00     0.023 C 
ATOM      9  G   UNL     1      63.967  87.993  75.200  1.00  0.00     0.000 G0
ATOM     10  O   UNL     1      61.549  84.688  75.415  1.00  0.00    -0.320 OA
ATOM     11  O   UNL     1      62.784  84.063  73.614  1.00  0.00    -0.313 OA
ATOM     12  C   UNL     1      62.837  84.369  75.964  1.00  0.00     0.170 C 
ATOM     13  C   UNL     1      64.963  84.196  74.560  1.00  0.00     0.049 C 
ATOM     14  C   UNL     1      65.077  85.941  72.735  1.00  0.00     0.011 C 
ATOM     15  C   UNL     1      63.544  83.670  74.776  1.00  0.00     0.122 C 
BRANCH   7  16
ATOM     16  C   UNL     1      60.702  85.194  73.220  1.00  0.00     0.135 C 
BRANCH  16  17
ATOM     17  C   UNL     1      61.045  85.060  71.757  1.00  0.00    -0.040 A 
ATOM     18  C   UNL     1      60.884  83.835  71.112  1.00  0.00     0.004 A 
ATOM     19  C   UNL     1      61.524  86.163  71.050  1.00  0.00     0.004 A 
ATOM     20  C   UNL     1      61.200  83.712  69.758  1.00  0.00     0.000 A 
ATOM     21  C   UNL     1      61.840  86.040  69.697  1.00  0.00     0.000 A 
ATOM     22  C   UNL     1      61.679  84.815  69.052  1.00  0.00     0.000 A 
ENDBRANCH  16  17
ENDBRANCH   7  16
BRANCH  15  23
ATOM     23  C   UNL     1      63.494  82.182  74.890  1.00  0.00    -0.046 C 
ATOM     24  C   UNL     1      64.295  81.576  76.004  1.00  0.00     0.042 C 
ATOM     25  C   UNL     1      62.774  81.429  74.044  1.00  0.00     0.010 C 
ENDBRANCH  15  23
ENDBRANCH   3   4
BRANCH   2  26
ATOM     26  C   UNL     1      63.957  88.633  77.683  1.00  0.00     0.078 C 
BRANCH  26  27
ATOM     27  C   UNL     1      64.817  88.386  76.446  1.00  0.00     0.140 C 
ATOM     28  C   UNL     1      63.972  87.998  75.214  1.00  0.00     0.086 CG0
ATOM     29  C   UNL     1      65.526  89.637  75.973  1.00  0.00     0.190 C 
ATOM     30  C   UNL     1      64.543  88.850  74.116  1.00  0.00    -0.010 C 
ATOM     31  G   UNL     1      63.773  86.473  74.973  1.00  0.00     0.000 G0
ATOM     32  O   UNL     1      66.167  90.399  76.681  1.00  0.00    -0.291 OA
ATOM     33  C   UNL     1      65.397  89.799  74.512  1.00  0.00    -0.008 C 
ATOM     34  C   UNL     1      66.077  90.854  73.732  1.00  0.00     0.048 C 
BRANCH  27  35
ATOM     35  O   UNL     1      65.875  87.482  76.722  1.00  0.00    -0.381 OA
ATOM     36  H   UNL     1      65.489  86.629  76.982  1.00  0.00     0.212 HD
ENDBRANCH  27  35
ENDBRANCH  26  27
ENDBRANCH   2  26
ENDBRANCH   1   2
BRANCH   1  37
ATOM     37  O   UNL     1      62.631  88.827  80.024  1.00  0.00    -0.461 OA
BRANCH  37  38
ATOM     38  C   UNL     1      63.076  88.130  81.124  1.00  0.00     0.310 C 
ATOM     39  O   UNL     1      62.377  87.427  81.840  1.00  0.00    -0.252 OA
BRANCH  38  40
ATOM     40  C   UNL     1      64.556  88.369  81.307  1.00  0.00     0.158 C 
BRANCH  40  41
ATOM     41  C   UNL     1      65.331  87.099  81.544  1.00  0.00    -0.037 A 
ATOM     42  C   UNL     1      65.913  86.426  80.470  1.00  0.00     0.008 A 
ATOM     43  C   UNL     1      65.468  86.596  82.838  1.00  0.00     0.008 A 
ATOM     44  C   UNL     1      66.630  85.249  80.690  1.00  0.00     0.046 A 
ATOM     45  C   UNL     1      66.186  85.420  83.058  1.00  0.00     0.046 A 
ATOM     46  C   UNL     1      66.766  84.747  81.984  1.00  0.00     0.115 A 
BRANCH  46  47
ATOM     47  O   UNL     1      67.466  83.599  82.198  1.00  0.00    -0.508 OA
ATOM     48  H   UNL     1      67.291  82.982  81.466  1.00  0.00     0.293 HD
ENDBRANCH  46  47
ENDBRANCH  40  41
ENDBRANCH  38  40
ENDBRANCH  37  38
ENDBRANCH   1  37
TORSDOF 10
ENDMDL
MODEL 8
REMARK VINA RESULT:    -6.572     27.763     30.587
REMARK INTER + INTRA:         -11.565
REMARK INTER:                 -10.506
REMARK INTRA:                  -1.059
REMARK UNBOUND:                -0.383
REMARK SMILES C=C(C)[C@]12C[C@@H](C)[C@@]34O[C@](Cc5ccccc5)(O[C@@H]1[C@@H]3C=C(COC(=O)Cc1ccc(O)cc1)C[C@]1(O)C(=O)C(C)=C[C@@H]41)O2
REMARK SMILES IDX 23 1 22 2 21 3 20 4 9 5 8 6 10 7 6 8 18 10 44 11 19 12 5 13
REMARK SMILES IDX 7 14 4 15 11 16 12 17 13 18 17 19 14 20 16 21 15 22 2 23
REMARK SMILES IDX 3 24 1 25 35 26 36 27 43 28 38 29 42 30 39 32 40 33 41 34
REMARK SMILES IDX 37 35 24 37 25 38 26 39 27 40 28 41 29 42 34 43 30 44 33 45
REMARK SMILES IDX 31 46 32 47
REMARK H PARENT 37 36 32 48
REMARK Flexibility Score: 90.00
ROOT
ATOM      1  C   UNL     1      71.113  90.232  66.576  1.00  0.00     0.264 C 
ENDROOT
BRANCH   1   2
ATOM      2  C   UNL     1      72.588  89.910  66.642  1.00  0.00    -0.033 C 
ATOM      3  C   UNL     1      72.975  88.643  66.898  1.00  0.00    -0.015 C 
BRANCH   3   4
ATOM      4  C   UNL     1      74.375  88.082  67.090  1.00  0.00     0.078 C 
ATOM      5  O   UNL     1      75.161  87.331  64.868  1.00  0.00    -0.319 OA
ATOM      6  C   UNL     1      75.428  88.289  65.940  1.00  0.00     0.095 CG0
ATOM      7  C   UNL     1      74.844  85.995  65.302  1.00  0.00     0.289 C 
ATOM      8  C   UNL     1      76.864  88.006  66.548  1.00  0.00     0.023 C 
ATOM      9  G   UNL     1      75.249  89.682  65.269  1.00  0.00     0.000 G0
ATOM     10  O   UNL     1      73.713  85.987  66.170  1.00  0.00    -0.320 OA
ATOM     11  O   UNL     1      75.905  85.400  66.046  1.00  0.00    -0.313 OA
ATOM     12  C   UNL     1      74.299  86.557  67.351  1.00  0.00     0.170 C 
ATOM     13  C   UNL     1      76.812  86.905  67.650  1.00  0.00     0.049 C 
ATOM     14  C   UNL     1      77.957  87.652  65.525  1.00  0.00     0.011 C 
ATOM     15  C   UNL     1      75.697  85.892  67.386  1.00  0.00     0.122 C 
BRANCH   7  16
ATOM     16  C   UNL     1      74.554  85.153  64.075  1.00  0.00     0.135 C 
BRANCH  16  17
ATOM     17  C   UNL     1      74.719  83.679  64.347  1.00  0.00    -0.040 A 
ATOM     18  C   UNL     1      73.611  82.834  64.310  1.00  0.00     0.004 A 
ATOM     19  C   UNL     1      75.982  83.162  64.637  1.00  0.00     0.004 A 
ATOM     20  C   UNL     1      73.764  81.470  64.561  1.00  0.00     0.000 A 
ATOM     21  C   UNL     1      76.135  81.798  64.889  1.00  0.00     0.000 A 
ATOM     22  C   UNL     1      75.026  80.953  64.851  1.00  0.00     0.000 A 
ENDBRANCH  16  17
ENDBRANCH   7  16
BRANCH  15  23
ATOM     23  C   UNL     1      75.742  84.731  68.325  1.00  0.00    -0.046 C 
ATOM     24  C   UNL     1      74.520  84.511  69.166  1.00  0.00     0.042 C 
ATOM     25  C   UNL     1      76.815  83.930  68.412  1.00  0.00     0.010 C 
ENDBRANCH  15  23
ENDBRANCH   3   4
BRANCH   2  26
ATOM     26  C   UNL     1      73.473  91.116  66.391  1.00  0.00     0.078 C 
BRANCH  26  27
ATOM     27  C   UNL     1      74.972  90.863  66.240  1.00  0.00     0.140 C 
ATOM     28  C   UNL     1      75.272  89.693  65.280  1.00  0.00     0.086 CG0
ATOM     29  C   UNL     1      75.691  92.019  65.578  1.00  0.00     0.190 C 
ATOM     30  C   UNL     1      76.369  90.232  64.404  1.00  0.00    -0.010 C 
ATOM     31  G   UNL     1      75.438  88.292  65.937  1.00  0.00     0.000 G0
ATOM     32  O   UNL     1      75.579  93.195  65.891  1.00  0.00    -0.291 OA
ATOM     33  C   UNL     1      76.609  91.541  64.527  1.00  0.00    -0.008 C 
ATOM     34  C   UNL     1      77.541  92.411  63.781  1.00  0.00     0.048 C 
BRANCH  27  35
ATOM     35  O   UNL     1      75.608  90.746  67.501  1.00  0.00    -0.381 OA
ATOM     36  H   UNL     1      75.279  89.942  67.937  1.00  0.00     0.212 HD
ENDBRANCH  27  35
ENDBRANCH  26  27
ENDBRANCH   2  26
ENDBRANCH   1   2
BRANCH   1  37
ATOM     37  O   UNL     1      70.368  89.069  66.869  1.00  0.00    -0.461 OA
BRANCH  37  38
ATOM     38  C   UNL     1      69.522  89.147  67.952  1.00  0.00     0.310 C 
ATOM     39  O   UNL     1      68.577  89.917  68.051  1.00  0.00    -0.252 OA
BRANCH  38  40
ATOM     40  C   UNL     1      69.942  88.136  68.992  1.00  0.00     0.158 C 
BRANCH  40  41
ATOM     41  C   UNL     1      69.676  86.714  68.571  1.00  0.00    -0.037 A 
ATOM     42  C   UNL     1      68.366  86.283  68.360  1.00  0.00     0.008 A 
ATOM     43  C   UNL     1      70.738  85.829  68.394  1.00  0.00     0.008 A 
ATOM     44  C   UNL     1      68.120  84.966  67.971  1.00  0.00     0.046 A 
ATOM     45  C   UNL     1      70.492  84.512  68.005  1.00  0.00     0.046 A 
ATOM     46  C   UNL     1      69.184  84.080  67.794  1.00  0.00     0.115 A 
BRANCH  46  47
ATOM     47  O   UNL     1      68.943  82.796  67.415  1.00  0.00    -0.508 OA
ATOM     48  H   UNL     1      69.412  82.195  68.020  1.00  0.00     0.293 HD
ENDBRANCH  46  47
ENDBRANCH  40  41
ENDBRANCH  38  40
ENDBRANCH  37  38
ENDBRANCH   1  37
TORSDOF 10
ENDMDL
MODEL 9
REMARK VINA RESULT:    -6.503     31.857     35.545
REMARK INTER + INTRA:         -11.448
REMARK INTER:                 -10.832
REMARK INTRA:                  -0.616
REMARK UNBOUND:                -0.383
REMARK SMILES C=C(C)[C@]12C[C@@H](C)[C@@]34O[C@](Cc5ccccc5)(O[C@@H]1[C@@H]3C=C(COC(=O)Cc1ccc(O)cc1)C[C@]1(O)C(=O)C(C)=C[C@@H]41)O2
REMARK SMILES IDX 23 1 22 2 21 3 20 4 9 5 8 6 10 7 6 8 18 10 44 11 19 12 5 13
REMARK SMILES IDX 7 14 4 15 11 16 12 17 13 18 17 19 14 20 16 21 15 22 2 23
REMARK SMILES IDX 3 24 1 25 35 26 36 27 43 28 38 29 42 30 39 32 40 33 41 34
REMARK SMILES IDX 37 35 24 37 25 38 26 39 27 40 28 41 29 42 34 43 30 44 33 45
REMARK SMILES IDX 31 46 32 47
REMARK H PARENT 37 36 32 48
REMARK Flexibility Score: 90.00
ROOT
ATOM      1  C   UNL     1      60.883  89.255  77.800  1.00  0.00     0.264 C 
ENDROOT
BRANCH   1   2
ATOM      2  C   UNL     1      61.328  88.771  76.439  1.00  0.00    -0.033 C 
ATOM      3  C   UNL     1      62.426  87.993  76.344  1.00  0.00    -0.015 C 
BRANCH   3   4
ATOM      4  C   UNL     1      63.117  87.447  75.104  1.00  0.00     0.078 C 
ATOM      5  O   UNL     1      62.163  85.206  74.676  1.00  0.00    -0.319 OA
ATOM      6  C   UNL     1      62.283  86.551  74.116  1.00  0.00     0.095 CG0
ATOM      7  C   UNL     1      63.365  84.675  75.266  1.00  0.00     0.289 C 
ATOM      8  C   UNL     1      63.077  86.479  72.747  1.00  0.00     0.023 C 
ATOM      9  G   UNL     1      60.816  87.060  74.012  1.00  0.00     0.000 G0
ATOM     10  O   UNL     1      63.852  85.524  76.302  1.00  0.00    -0.320 OA
ATOM     11  O   UNL     1      64.430  84.568  74.324  1.00  0.00    -0.313 OA
ATOM     12  C   UNL     1      64.357  86.615  75.516  1.00  0.00     0.170 C 
ATOM     13  C   UNL     1      64.619  86.521  72.978  1.00  0.00     0.049 C 
ATOM     14  C   UNL     1      62.730  85.284  71.843  1.00  0.00     0.011 C 
ATOM     15  C   UNL     1      65.009  85.889  74.315  1.00  0.00     0.122 C 
BRANCH   7  16
ATOM     16  C   UNL     1      63.052  83.304  75.831  1.00  0.00     0.135 C 
BRANCH  16  17
ATOM     17  C   UNL     1      63.674  82.199  75.014  1.00  0.00    -0.040 A 
ATOM     18  C   UNL     1      63.082  81.798  73.817  1.00  0.00     0.004 A 
ATOM     19  C   UNL     1      64.842  81.580  75.457  1.00  0.00     0.004 A 
ATOM     20  C   UNL     1      63.658  80.776  73.062  1.00  0.00     0.000 A 
ATOM     21  C   UNL     1      65.419  80.558  74.701  1.00  0.00     0.000 A 
ATOM     22  C   UNL     1      64.826  80.156  73.504  1.00  0.00     0.000 A 
ENDBRANCH  16  17
ENDBRANCH   7  16
BRANCH  15  23
ATOM     23  C   UNL     1      66.489  85.755  74.476  1.00  0.00    -0.046 C 
ATOM     24  C   UNL     1      67.152  86.764  75.365  1.00  0.00     0.042 C 
ATOM     25  C   UNL     1      67.184  84.787  73.860  1.00  0.00     0.010 C 
ENDBRANCH  15  23
ENDBRANCH   3   4
BRANCH   2  26
ATOM     26  C   UNL     1      60.429  89.246  75.314  1.00  0.00     0.078 C 
BRANCH  26  27
ATOM     27  C   UNL     1      60.633  88.610  73.941  1.00  0.00     0.140 C 
ATOM     28  C   UNL     1      60.813  87.080  74.028  1.00  0.00     0.086 CG0
ATOM     29  C   UNL     1      59.414  88.743  73.053  1.00  0.00     0.190 C 
ATOM     30  C   UNL     1      59.914  86.559  72.941  1.00  0.00    -0.010 C 
ATOM     31  G   UNL     1      62.280  86.566  74.117  1.00  0.00     0.000 G0
ATOM     32  O   UNL     1      58.792  89.776  72.855  1.00  0.00    -0.291 OA
ATOM     33  C   UNL     1      59.096  87.463  72.393  1.00  0.00    -0.008 C 
ATOM     34  C   UNL     1      58.039  87.295  71.375  1.00  0.00     0.048 C 
BRANCH  27  35
ATOM     35  O   UNL     1      61.656  89.266  73.212  1.00  0.00    -0.381 OA
ATOM     36  H   UNL     1      62.440  88.690  73.197  1.00  0.00     0.212 HD
ENDBRANCH  27  35
ENDBRANCH  26  27
ENDBRANCH   2  26
ENDBRANCH   1   2
BRANCH   1  37
ATOM     37  O   UNL     1      61.970  89.190  78.698  1.00  0.00    -0.461 OA
BRANCH  37  38
ATOM     38  C   UNL     1      61.653  89.021  80.026  1.00  0.00     0.310 C 
ATOM     39  O   UNL     1      62.230  89.561  80.960  1.00  0.00    -0.252 OA
BRANCH  38  40
ATOM     40  C   UNL     1      60.486  88.071  80.148  1.00  0.00     0.158 C 
BRANCH  40  41
ATOM     41  C   UNL     1      59.381  88.606  81.022  1.00  0.00    -0.037 A 
ATOM     42  C   UNL     1      58.871  89.885  80.798  1.00  0.00     0.008 A 
ATOM     43  C   UNL     1      58.869  87.824  82.057  1.00  0.00     0.008 A 
ATOM     44  C   UNL     1      57.849  90.381  81.607  1.00  0.00     0.046 A 
ATOM     45  C   UNL     1      57.846  88.320  82.867  1.00  0.00     0.046 A 
ATOM     46  C   UNL     1      57.337  89.598  82.642  1.00  0.00     0.115 A 
BRANCH  46  47
ATOM     47  O   UNL     1      56.340  90.082  83.432  1.00  0.00    -0.508 OA
ATOM     48  H   UNL     1      56.155  89.438  84.138  1.00  0.00     0.293 HD
ENDBRANCH  46  47
ENDBRANCH  40  41
ENDBRANCH  38  40
ENDBRANCH  37  38
ENDBRANCH   1  37
TORSDOF 10
ENDMDL
MODEL 10
REMARK VINA RESULT:    -6.482     20.585     24.612
REMARK INTER + INTRA:         -11.412
REMARK INTER:                  -9.749
REMARK INTRA:                  -1.662
REMARK UNBOUND:                -0.383
REMARK SMILES C=C(C)[C@]12C[C@@H](C)[C@@]34O[C@](Cc5ccccc5)(O[C@@H]1[C@@H]3C=C(COC(=O)Cc1ccc(O)cc1)C[C@]1(O)C(=O)C(C)=C[C@@H]41)O2
REMARK SMILES IDX 23 1 22 2 21 3 20 4 9 5 8 6 10 7 6 8 18 10 44 11 19 12 5 13
REMARK SMILES IDX 7 14 4 15 11 16 12 17 13 18 17 19 14 20 16 21 15 22 2 23
REMARK SMILES IDX 3 24 1 25 35 26 36 27 43 28 38 29 42 30 39 32 40 33 41 34
REMARK SMILES IDX 37 35 24 37 25 38 26 39 27 40 28 41 29 42 34 43 30 44 33 45
REMARK SMILES IDX 31 46 32 47
REMARK H PARENT 37 36 32 48
REMARK Flexibility Score: 90.00
ROOT
ATOM      1  C   UNL     1      86.534  64.793  76.699  1.00  0.00     0.264 C 
ENDROOT
BRANCH   1   2
ATOM      2  C   UNL     1      85.638  65.564  75.758  1.00  0.00    -0.033 C 
ATOM      3  C   UNL     1      86.190  66.248  74.734  1.00  0.00    -0.015 C 
BRANCH   3   4
ATOM      4  C   UNL     1      85.526  67.151  73.707  1.00  0.00     0.078 C 
ATOM      5  O   UNL     1      84.973  65.737  71.755  1.00  0.00    -0.319 OA
ATOM      6  C   UNL     1      84.379  66.551  72.814  1.00  0.00     0.095 CG0
ATOM      7  C   UNL     1      86.136  66.304  71.122  1.00  0.00     0.289 C 
ATOM      8  C   UNL     1      83.594  67.764  72.163  1.00  0.00     0.023 C 
ATOM      9  G   UNL     1      83.508  65.552  73.629  1.00  0.00     0.000 G0
ATOM     10  O   UNL     1      87.161  66.577  72.073  1.00  0.00    -0.320 OA
ATOM     11  O   UNL     1      85.856  67.550  70.489  1.00  0.00    -0.313 OA
ATOM     12  C   UNL     1      86.592  67.717  72.736  1.00  0.00     0.170 C 
ATOM     13  C   UNL     1      84.540  68.969  71.874  1.00  0.00     0.049 C 
ATOM     14  C   UNL     1      82.793  67.428  70.893  1.00  0.00     0.011 C 
ATOM     15  C   UNL     1      85.965  68.508  71.563  1.00  0.00     0.122 C 
BRANCH   7  16
ATOM     16  C   UNL     1      86.643  65.316  70.090  1.00  0.00     0.135 C 
BRANCH  16  17
ATOM     17  C   UNL     1      86.400  65.796  68.681  1.00  0.00    -0.040 A 
ATOM     18  C   UNL     1      87.330  66.626  68.056  1.00  0.00     0.004 A 
ATOM     19  C   UNL     1      85.245  65.407  68.003  1.00  0.00     0.004 A 
ATOM     20  C   UNL     1      87.105  67.068  66.751  1.00  0.00     0.000 A 
ATOM     21  C   UNL     1      85.019  65.850  66.699  1.00  0.00     0.000 A 
ATOM     22  C   UNL     1      85.949  66.680  66.074  1.00  0.00     0.000 A 
ENDBRANCH  16  17
ENDBRANCH   7  16
BRANCH  15  23
ATOM     23  C   UNL     1      86.843  69.627  71.107  1.00  0.00    -0.046 C 
ATOM     24  C   UNL     1      87.916  70.058  72.063  1.00  0.00     0.042 C 
ATOM     25  C   UNL     1      86.683  70.213  69.911  1.00  0.00     0.010 C 
ENDBRANCH  15  23
ENDBRANCH   3   4
BRANCH   2  26
ATOM     26  C   UNL     1      84.166  65.449  76.108  1.00  0.00     0.078 C 
BRANCH  26  27
ATOM     27  C   UNL     1      83.162  65.980  75.086  1.00  0.00     0.140 C 
ATOM     28  C   UNL     1      83.513  65.552  73.646  1.00  0.00     0.086 CG0
ATOM     29  C   UNL     1      81.779  65.391  75.272  1.00  0.00     0.190 C 
ATOM     30  C   UNL     1      82.197  65.083  73.090  1.00  0.00    -0.010 C 
ATOM     31  G   UNL     1      84.376  66.553  72.825  1.00  0.00     0.000 G0
ATOM     32  O   UNL     1      81.176  65.323  76.333  1.00  0.00    -0.291 OA
ATOM     33  C   UNL     1      81.211  64.955  73.983  1.00  0.00    -0.008 C 
ATOM     34  C   UNL     1      79.833  64.451  73.813  1.00  0.00     0.048 C 
BRANCH  27  35
ATOM     35  O   UNL     1      82.959  67.375  75.236  1.00  0.00    -0.381 OA
ATOM     36  H   UNL     1      82.029  67.525  75.478  1.00  0.00     0.212 HD
ENDBRANCH  27  35
ENDBRANCH  26  27
ENDBRANCH   2  26
ENDBRANCH   1   2
BRANCH   1  37
ATOM     37  O   UNL     1      87.589  65.628  77.126  1.00  0.00    -0.461 OA
BRANCH  37  38
ATOM     38  C   UNL     1      87.729  65.783  78.486  1.00  0.00     0.310 C 
ATOM     39  O   UNL     1      88.393  65.056  79.212  1.00  0.00    -0.252 OA
BRANCH  38  40
ATOM     40  C   UNL     1      86.937  66.986  78.940  1.00  0.00     0.158 C 
BRANCH  40  41
ATOM     41  C   UNL     1      86.834  68.054  77.883  1.00  0.00    -0.037 A 
ATOM     42  C   UNL     1      87.982  68.503  77.229  1.00  0.00     0.008 A 
ATOM     43  C   UNL     1      85.591  68.596  77.556  1.00  0.00     0.008 A 
ATOM     44  C   UNL     1      87.887  69.493  76.251  1.00  0.00     0.046 A 
ATOM     45  C   UNL     1      85.495  69.586  76.577  1.00  0.00     0.046 A 
ATOM     46  C   UNL     1      86.643  70.034  75.925  1.00  0.00     0.115 A 
BRANCH  46  47
ATOM     47  O   UNL     1      86.551  71.000  74.971  1.00  0.00    -0.508 OA
ATOM     48  H   UNL     1      87.286  70.894  74.342  1.00  0.00     0.293 HD
ENDBRANCH  46  47
ENDBRANCH  40  41
ENDBRANCH  38  40
ENDBRANCH  37  38
ENDBRANCH   1  37
TORSDOF 10
ENDMDL
