MODEL 1
REMARK VINA RESULT:    -6.121      0.000      0.000
REMARK INTER + INTRA:         -10.546
REMARK INTER:                  -9.878
REMARK INTRA:                  -0.668
REMARK UNBOUND:                -0.668
REMARK SMILES CCCCCCCCC(=O)NCc1ccc(O)c(OC)c1
REMARK SMILES IDX 7 1 6 2 5 3 4 4 3 5 2 6 1 7 8 8 9 9 10 10 11 11 12 13 13 14
REMARK SMILES IDX 21 15 14 16 18 17 15 18 16 19 19 20 20 21 17 22
REMARK H PARENT 11 12 17 23
REMARK Flexibility Score: inf
ROOT
ATOM      1  C   UNL     1      94.285  98.018  75.153  1.00  0.00     0.010 C 
ENDROOT
BRANCH   1   2
ATOM      2  C   UNL     1      94.321  97.115  76.419  1.00  0.00     0.001 C 
BRANCH   2   3
ATOM      3  C   UNL     1      93.544  95.781  76.214  1.00  0.00     0.000 C 
BRANCH   3   4
ATOM      4  C   UNL     1      92.679  95.365  77.437  1.00  0.00    -0.000 C 
BRANCH   4   5
ATOM      5  C   UNL     1      91.347  96.163  77.529  1.00  0.00    -0.000 C 
BRANCH   5   6
ATOM      6  C   UNL     1      90.099  95.240  77.532  1.00  0.00    -0.003 C 
ATOM      7  C   UNL     1      90.335  93.914  78.287  1.00  0.00     0.004 C 
ENDBRANCH   5   6
ENDBRANCH   4   5
ENDBRANCH   3   4
ENDBRANCH   2   3
ENDBRANCH   1   2
BRANCH   1   8
ATOM      8  C   UNL     1      93.032  98.934  75.069  1.00  0.00     0.100 C 
BRANCH   8   9
ATOM      9  C   UNL     1      92.993  99.679  73.787  1.00  0.00     0.220 C 
ATOM     10  O   UNL     1      94.054 100.204  73.372  1.00  0.00    -0.275 OA
ATOM     11  N   UNL     1      91.835  99.764  73.069  1.00  0.00    -0.352 N 
ATOM     12  H   UNL     1      91.025  99.382  73.535  1.00  0.00     0.163 HD
BRANCH  11  13
ATOM     13  C   UNL     1      91.703 100.329  71.761  1.00  0.00     0.151 C 
BRANCH  13  14
ATOM     14  C   UNL     1      90.693  99.645  70.909  1.00  0.00    -0.025 A 
ATOM     15  C   UNL     1      90.260 100.240  69.701  1.00  0.00     0.056 A 
ATOM     16  C   UNL     1      90.147  98.397  71.290  1.00  0.00     0.009 A 
ATOM     17  C   UNL     1      89.313  99.594  68.873  1.00  0.00     0.160 A 
ATOM     18  C   UNL     1      89.206  97.749  70.470  1.00  0.00     0.050 A 
ATOM     19  C   UNL     1      88.781  98.346  69.268  1.00  0.00     0.157 A 
BRANCH  17  20
ATOM     20  O   UNL     1      88.863 100.192  67.723  1.00  0.00    -0.493 OA
ATOM     21  C   UNL     1      88.595 101.599  67.857  1.00  0.00     0.278 C 
ENDBRANCH  17  20
BRANCH  19  22
ATOM     22  O   UNL     1      87.852  97.725  68.497  1.00  0.00    -0.504 OA
ATOM     23  H   UNL     1      87.169  97.350  69.058  1.00  0.00     0.293 HD
ENDBRANCH  19  22
ENDBRANCH  13  14
ENDBRANCH  11  13
ENDBRANCH   8   9
ENDBRANCH   1   8
TORSDOF 11
ENDMDL
MODEL 2
REMARK VINA RESULT:    -5.915     20.216     22.615
REMARK INTER + INTRA:         -10.213
REMARK INTER:                  -9.572
REMARK INTRA:                  -0.641
REMARK UNBOUND:                -0.668
REMARK SMILES CCCCCCCCC(=O)NCc1ccc(O)c(OC)c1
REMARK SMILES IDX 7 1 6 2 5 3 4 4 3 5 2 6 1 7 8 8 9 9 10 10 11 11 12 13 13 14
REMARK SMILES IDX 21 15 14 16 18 17 15 18 16 19 19 20 20 21 17 22
REMARK H PARENT 11 12 17 23
REMARK Flexibility Score: inf
ROOT
ATOM      1  C   UNL     1      78.126  85.956  68.470  1.00  0.00     0.010 C 
ENDROOT
BRANCH   1   2
ATOM      2  C   UNL     1      77.262  86.904  69.350  1.00  0.00     0.001 C 
BRANCH   2   3
ATOM      3  C   UNL     1      75.940  86.228  69.821  1.00  0.00     0.000 C 
BRANCH   3   4
ATOM      4  C   UNL     1      75.037  87.153  70.686  1.00  0.00    -0.000 C 
BRANCH   4   5
ATOM      5  C   UNL     1      74.862  88.569  70.067  1.00  0.00    -0.000 C 
BRANCH   5   6
ATOM      6  C   UNL     1      74.677  89.671  71.145  1.00  0.00    -0.003 C 
ATOM      7  C   UNL     1      75.689  90.828  70.999  1.00  0.00     0.004 C 
ENDBRANCH   5   6
ENDBRANCH   4   5
ENDBRANCH   3   4
ENDBRANCH   2   3
ENDBRANCH   1   2
BRANCH   1   8
ATOM      8  C   UNL     1      77.757  84.453  68.614  1.00  0.00     0.100 C 
BRANCH   8   9
ATOM      9  C   UNL     1      77.899  83.736  67.324  1.00  0.00     0.220 C 
ATOM     10  O   UNL     1      78.994  83.812  66.718  1.00  0.00    -0.275 OA
ATOM     11  N   UNL     1      76.869  82.989  66.828  1.00  0.00    -0.352 N 
ATOM     12  H   UNL     1      76.008  83.067  67.349  1.00  0.00     0.163 HD
BRANCH  11  13
ATOM     13  C   UNL     1      76.928  82.144  65.675  1.00  0.00     0.151 C 
BRANCH  13  14
ATOM     14  C   UNL     1      75.597  81.689  65.193  1.00  0.00    -0.025 A 
ATOM     15  C   UNL     1      74.438  81.931  65.969  1.00  0.00     0.056 A 
ATOM     16  C   UNL     1      75.464  81.009  63.960  1.00  0.00     0.009 A 
ATOM     17  C   UNL     1      73.163  81.520  65.515  1.00  0.00     0.160 A 
ATOM     18  C   UNL     1      74.199  80.599  63.503  1.00  0.00     0.050 A 
ATOM     19  C   UNL     1      73.049  80.844  64.279  1.00  0.00     0.157 A 
BRANCH  17  20
ATOM     20  O   UNL     1      72.047  81.717  66.288  1.00  0.00    -0.493 OA
ATOM     21  C   UNL     1      71.903  83.060  66.782  1.00  0.00     0.278 C 
ENDBRANCH  17  20
BRANCH  19  22
ATOM     22  O   UNL     1      71.836  80.420  63.842  1.00  0.00    -0.504 OA
ATOM     23  H   UNL     1      71.659  80.795  62.976  1.00  0.00     0.293 HD
ENDBRANCH  19  22
ENDBRANCH  13  14
ENDBRANCH  11  13
ENDBRANCH   8   9
ENDBRANCH   1   8
TORSDOF 11
ENDMDL
MODEL 3
REMARK VINA RESULT:    -5.911     20.246     22.852
REMARK INTER + INTRA:         -10.207
REMARK INTER:                  -9.247
REMARK INTRA:                  -0.960
REMARK UNBOUND:                -0.668
REMARK SMILES CCCCCCCCC(=O)NCc1ccc(O)c(OC)c1
REMARK SMILES IDX 7 1 6 2 5 3 4 4 3 5 2 6 1 7 8 8 9 9 10 10 11 11 12 13 13 14
REMARK SMILES IDX 21 15 14 16 18 17 15 18 16 19 19 20 20 21 17 22
REMARK H PARENT 11 12 17 23
REMARK Flexibility Score: inf
ROOT
ATOM      1  C   UNL     1      76.442  86.800  65.958  1.00  0.00     0.010 C 
ENDROOT
BRANCH   1   2
ATOM      2  C   UNL     1      77.623  87.370  66.795  1.00  0.00     0.001 C 
BRANCH   2   3
ATOM      3  C   UNL     1      78.038  86.415  67.953  1.00  0.00     0.000 C 
BRANCH   3   4
ATOM      4  C   UNL     1      77.618  86.921  69.363  1.00  0.00    -0.000 C 
BRANCH   4   5
ATOM      5  C   UNL     1      76.377  86.171  69.925  1.00  0.00    -0.000 C 
BRANCH   5   6
ATOM      6  C   UNL     1      75.214  87.132  70.289  1.00  0.00    -0.003 C 
ATOM      7  C   UNL     1      75.665  88.605  70.398  1.00  0.00     0.004 C 
ENDBRANCH   5   6
ENDBRANCH   4   5
ENDBRANCH   3   4
ENDBRANCH   2   3
ENDBRANCH   1   2
BRANCH   1   8
ATOM      8  C   UNL     1      76.813  86.479  64.483  1.00  0.00     0.100 C 
BRANCH   8   9
ATOM      9  C   UNL     1      76.849  85.017  64.240  1.00  0.00     0.220 C 
ATOM     10  O   UNL     1      77.065  84.612  63.073  1.00  0.00    -0.275 OA
ATOM     11  N   UNL     1      76.679  84.138  65.272  1.00  0.00    -0.352 N 
ATOM     12  H   UNL     1      76.426  84.568  66.149  1.00  0.00     0.163 HD
BRANCH  11  13
ATOM     13  C   UNL     1      76.831  82.718  65.193  1.00  0.00     0.151 C 
BRANCH  13  14
ATOM     14  C   UNL     1      75.580  81.998  64.835  1.00  0.00    -0.025 A 
ATOM     15  C   UNL     1      74.429  82.122  65.649  1.00  0.00     0.056 A 
ATOM     16  C   UNL     1      75.517  81.178  63.684  1.00  0.00     0.009 A 
ATOM     17  C   UNL     1      73.227  81.457  65.311  1.00  0.00     0.160 A 
ATOM     18  C   UNL     1      74.325  80.516  63.343  1.00  0.00     0.050 A 
ATOM     19  C   UNL     1      73.182  80.646  64.155  1.00  0.00     0.157 A 
BRANCH  17  20
ATOM     20  O   UNL     1      72.125  81.545  66.124  1.00  0.00    -0.493 OA
ATOM     21  C   UNL     1      71.912  82.851  66.689  1.00  0.00     0.278 C 
ENDBRANCH  17  20
BRANCH  19  22
ATOM     22  O   UNL     1      72.044  79.980  63.832  1.00  0.00    -0.504 OA
ATOM     23  H   UNL     1      72.069  79.099  64.213  1.00  0.00     0.293 HD
ENDBRANCH  19  22
ENDBRANCH  13  14
ENDBRANCH  11  13
ENDBRANCH   8   9
ENDBRANCH   1   8
TORSDOF 11
ENDMDL
MODEL 4
REMARK VINA RESULT:    -5.853     15.930     18.426
REMARK INTER + INTRA:         -10.114
REMARK INTER:                  -9.079
REMARK INTRA:                  -1.035
REMARK UNBOUND:                -0.668
REMARK SMILES CCCCCCCCC(=O)NCc1ccc(O)c(OC)c1
REMARK SMILES IDX 7 1 6 2 5 3 4 4 3 5 2 6 1 7 8 8 9 9 10 10 11 11 12 13 13 14
REMARK SMILES IDX 21 15 14 16 18 17 15 18 16 19 19 20 20 21 17 22
REMARK H PARENT 11 12 17 23
REMARK Flexibility Score: inf
ROOT
ATOM      1  C   UNL     1      76.424  88.138  70.022  1.00  0.00     0.010 C 
ENDROOT
BRANCH   1   2
ATOM      2  C   UNL     1      76.452  87.249  68.745  1.00  0.00     0.001 C 
BRANCH   2   3
ATOM      3  C   UNL     1      77.897  86.812  68.363  1.00  0.00     0.000 C 
BRANCH   3   4
ATOM      4  C   UNL     1      78.184  85.305  68.619  1.00  0.00    -0.000 C 
BRANCH   4   5
ATOM      5  C   UNL     1      76.964  84.556  69.226  1.00  0.00    -0.000 C 
BRANCH   5   6
ATOM      6  C   UNL     1      77.125  84.291  70.747  1.00  0.00    -0.003 C 
ATOM      7  C   UNL     1      75.773  84.230  71.492  1.00  0.00     0.004 C 
ENDBRANCH   5   6
ENDBRANCH   4   5
ENDBRANCH   3   4
ENDBRANCH   2   3
ENDBRANCH   1   2
BRANCH   1   8
ATOM      8  C   UNL     1      75.051  88.150  70.750  1.00  0.00     0.100 C 
BRANCH   8   9
ATOM      9  C   UNL     1      74.644  89.530  71.110  1.00  0.00     0.220 C 
ATOM     10  O   UNL     1      73.668  89.679  71.885  1.00  0.00    -0.275 OA
ATOM     11  N   UNL     1      75.335  90.605  70.631  1.00  0.00    -0.352 N 
ATOM     12  H   UNL     1      76.044  90.375  69.950  1.00  0.00     0.163 HD
BRANCH  11  13
ATOM     13  C   UNL     1      75.131  91.968  71.015  1.00  0.00     0.151 C 
BRANCH  13  14
ATOM     14  C   UNL     1      75.893  92.373  72.226  1.00  0.00    -0.025 A 
ATOM     15  C   UNL     1      75.222  92.575  73.456  1.00  0.00     0.056 A 
ATOM     16  C   UNL     1      77.293  92.566  72.174  1.00  0.00     0.009 A 
ATOM     17  C   UNL     1      75.935  92.942  74.620  1.00  0.00     0.160 A 
ATOM     18  C   UNL     1      78.008  92.930  73.328  1.00  0.00     0.050 A 
ATOM     19  C   UNL     1      77.334  93.127  74.549  1.00  0.00     0.157 A 
BRANCH  17  20
ATOM     20  O   UNL     1      75.277  93.178  75.800  1.00  0.00    -0.493 OA
ATOM     21  C   UNL     1      74.141  92.324  76.022  1.00  0.00     0.278 C 
ENDBRANCH  17  20
BRANCH  19  22
ATOM     22  O   UNL     1      78.030  93.505  75.651  1.00  0.00    -0.504 OA
ATOM     23  H   UNL     1      78.886  93.850  75.386  1.00  0.00     0.293 HD
ENDBRANCH  19  22
ENDBRANCH  13  14
ENDBRANCH  11  13
ENDBRANCH   8   9
ENDBRANCH   1   8
TORSDOF 11
ENDMDL
MODEL 5
REMARK VINA RESULT:    -5.680     17.616     20.794
REMARK INTER + INTRA:          -9.834
REMARK INTER:                  -8.912
REMARK INTRA:                  -0.922
REMARK UNBOUND:                -0.668
REMARK SMILES CCCCCCCCC(=O)NCc1ccc(O)c(OC)c1
REMARK SMILES IDX 7 1 6 2 5 3 4 4 3 5 2 6 1 7 8 8 9 9 10 10 11 11 12 13 13 14
REMARK SMILES IDX 21 15 14 16 18 17 15 18 16 19 19 20 20 21 17 22
REMARK H PARENT 11 12 17 23
REMARK Flexibility Score: inf
ROOT
ATOM      1  C   UNL     1      97.885  83.345  80.154  1.00  0.00     0.010 C 
ENDROOT
BRANCH   1   2
ATOM      2  C   UNL     1      97.304  83.102  78.732  1.00  0.00     0.001 C 
BRANCH   2   3
ATOM      3  C   UNL     1      97.619  84.276  77.758  1.00  0.00     0.000 C 
BRANCH   3   4
ATOM      4  C   UNL     1      98.006  83.815  76.325  1.00  0.00    -0.000 C 
BRANCH   4   5
ATOM      5  C   UNL     1      99.284  82.929  76.304  1.00  0.00    -0.000 C 
BRANCH   5   6
ATOM      6  C   UNL     1     100.571  83.746  76.013  1.00  0.00    -0.003 C 
ATOM      7  C   UNL     1     100.293  85.044  75.224  1.00  0.00     0.004 C 
ENDBRANCH   5   6
ENDBRANCH   4   5
ENDBRANCH   3   4
ENDBRANCH   2   3
ENDBRANCH   1   2
BRANCH   1   8
ATOM      8  C   UNL     1      99.414  83.087  80.262  1.00  0.00     0.100 C 
BRANCH   8   9
ATOM      9  C   UNL     1      99.745  82.308  81.480  1.00  0.00     0.220 C 
ATOM     10  O   UNL     1     100.896  82.425  81.966  1.00  0.00    -0.275 OA
ATOM     11  N   UNL     1      98.808  81.509  82.069  1.00  0.00    -0.352 N 
ATOM     12  H   UNL     1      97.948  81.421  81.548  1.00  0.00     0.163 HD
BRANCH  11  13
ATOM     13  C   UNL     1      98.959  80.823  83.315  1.00  0.00     0.151 C 
BRANCH  13  14
ATOM     14  C   UNL     1      97.995  81.257  84.361  1.00  0.00    -0.025 A 
ATOM     15  C   UNL     1      97.591  82.612  84.439  1.00  0.00     0.056 A 
ATOM     16  C   UNL     1      97.469  80.334  85.294  1.00  0.00     0.009 A 
ATOM     17  C   UNL     1      96.662  83.036  85.417  1.00  0.00     0.160 A 
ATOM     18  C   UNL     1      96.544  80.750  86.269  1.00  0.00     0.050 A 
ATOM     19  C   UNL     1      96.145  82.098  86.339  1.00  0.00     0.157 A 
BRANCH  17  20
ATOM     20  O   UNL     1      96.304  84.357  85.517  1.00  0.00    -0.493 OA
ATOM     21  C   UNL     1      97.344  85.279  85.147  1.00  0.00     0.278 C 
ENDBRANCH  17  20
BRANCH  19  22
ATOM     22  O   UNL     1      95.272  82.495  87.300  1.00  0.00    -0.504 OA
ATOM     23  H   UNL     1      95.686  82.409  88.162  1.00  0.00     0.293 HD
ENDBRANCH  19  22
ENDBRANCH  13  14
ENDBRANCH  11  13
ENDBRANCH   8   9
ENDBRANCH   1   8
TORSDOF 11
ENDMDL
MODEL 6
REMARK VINA RESULT:    -5.559     21.156     23.641
REMARK INTER + INTRA:          -9.638
REMARK INTER:                  -8.822
REMARK INTRA:                  -0.817
REMARK UNBOUND:                -0.668
REMARK SMILES CCCCCCCCC(=O)NCc1ccc(O)c(OC)c1
REMARK SMILES IDX 7 1 6 2 5 3 4 4 3 5 2 6 1 7 8 8 9 9 10 10 11 11 12 13 13 14
REMARK SMILES IDX 21 15 14 16 18 17 15 18 16 19 19 20 20 21 17 22
REMARK H PARENT 11 12 17 23
REMARK Flexibility Score: inf
ROOT
ATOM      1  C   UNL     1      77.089  84.822  65.978  1.00  0.00     0.010 C 
ENDROOT
BRANCH   1   2
ATOM      2  C   UNL     1      78.011  85.008  67.218  1.00  0.00     0.001 C 
BRANCH   2   3
ATOM      3  C   UNL     1      77.975  86.465  67.765  1.00  0.00     0.000 C 
BRANCH   3   4
ATOM      4  C   UNL     1      77.415  86.579  69.211  1.00  0.00    -0.000 C 
BRANCH   4   5
ATOM      5  C   UNL     1      77.864  85.401  70.122  1.00  0.00    -0.000 C 
BRANCH   5   6
ATOM      6  C   UNL     1      76.691  84.454  70.493  1.00  0.00    -0.003 C 
ATOM      7  C   UNL     1      75.333  85.186  70.579  1.00  0.00     0.004 C 
ENDBRANCH   5   6
ENDBRANCH   4   5
ENDBRANCH   3   4
ENDBRANCH   2   3
ENDBRANCH   1   2
BRANCH   1   8
ATOM      8  C   UNL     1      77.756  84.044  64.809  1.00  0.00     0.100 C 
BRANCH   8   9
ATOM      9  C   UNL     1      76.802  83.105  64.172  1.00  0.00     0.220 C 
ATOM     10  O   UNL     1      76.496  83.292  62.970  1.00  0.00    -0.275 OA
ATOM     11  N   UNL     1      76.295  82.049  64.874  1.00  0.00    -0.352 N 
ATOM     12  H   UNL     1      76.538  82.043  65.853  1.00  0.00     0.163 HD
BRANCH  11  13
ATOM     13  C   UNL     1      75.483  81.000  64.335  1.00  0.00     0.151 C 
BRANCH  13  14
ATOM     14  C   UNL     1      74.035  81.335  64.269  1.00  0.00    -0.025 A 
ATOM     15  C   UNL     1      73.295  81.533  65.460  1.00  0.00     0.056 A 
ATOM     16  C   UNL     1      73.373  81.457  63.026  1.00  0.00     0.009 A 
ATOM     17  C   UNL     1      71.922  81.868  65.412  1.00  0.00     0.160 A 
ATOM     18  C   UNL     1      72.008  81.791  62.972  1.00  0.00     0.050 A 
ATOM     19  C   UNL     1      71.279  81.989  64.160  1.00  0.00     0.157 A 
BRANCH  17  20
ATOM     20  O   UNL     1      71.197  82.018  66.567  1.00  0.00    -0.493 OA
ATOM     21  C   UNL     1      71.223  83.350  67.110  1.00  0.00     0.278 C 
ENDBRANCH  17  20
BRANCH  19  22
ATOM     22  O   UNL     1      69.955  82.285  64.098  1.00  0.00    -0.504 OA
ATOM     23  H   UNL     1      69.668  82.648  64.940  1.00  0.00     0.293 HD
ENDBRANCH  19  22
ENDBRANCH  13  14
ENDBRANCH  11  13
ENDBRANCH   8   9
ENDBRANCH   1   8
TORSDOF 11
ENDMDL
MODEL 7
REMARK VINA RESULT:    -5.467     17.578     20.822
REMARK INTER + INTRA:          -9.491
REMARK INTER:                  -8.450
REMARK INTRA:                  -1.041
REMARK UNBOUND:                -0.668
REMARK SMILES CCCCCCCCC(=O)NCc1ccc(O)c(OC)c1
REMARK SMILES IDX 7 1 6 2 5 3 4 4 3 5 2 6 1 7 8 8 9 9 10 10 11 11 12 13 13 14
REMARK SMILES IDX 21 15 14 16 18 17 15 18 16 19 19 20 20 21 17 22
REMARK H PARENT 11 12 17 23
REMARK Flexibility Score: inf
ROOT
ATOM      1  C   UNL     1      98.569  81.695  79.428  1.00  0.00     0.010 C 
ENDROOT
BRANCH   1   2
ATOM      2  C   UNL     1      98.151  82.193  78.014  1.00  0.00     0.001 C 
BRANCH   2   3
ATOM      3  C   UNL     1      97.926  83.734  77.976  1.00  0.00     0.000 C 
BRANCH   3   4
ATOM      4  C   UNL     1      98.163  84.367  76.575  1.00  0.00    -0.000 C 
BRANCH   4   5
ATOM      5  C   UNL     1      99.332  83.694  75.802  1.00  0.00    -0.000 C 
BRANCH   5   6
ATOM      6  C   UNL     1     100.685  84.425  76.014  1.00  0.00    -0.003 C 
ATOM      7  C   UNL     1     101.687  83.601  76.854  1.00  0.00     0.004 C 
ENDBRANCH   5   6
ENDBRANCH   4   5
ENDBRANCH   3   4
ENDBRANCH   2   3
ENDBRANCH   1   2
BRANCH   1   8
ATOM      8  C   UNL     1      99.941  82.244  79.909  1.00  0.00     0.100 C 
BRANCH   8   9
ATOM      9  C   UNL     1     100.126  82.035  81.365  1.00  0.00     0.220 C 
ATOM     10  O   UNL     1     101.193  82.431  81.892  1.00  0.00    -0.275 OA
ATOM     11  N   UNL     1      99.143  81.451  82.112  1.00  0.00    -0.352 N 
ATOM     12  H   UNL     1      98.367  81.093  81.575  1.00  0.00     0.163 HD
BRANCH  11  13
ATOM     13  C   UNL     1      99.142  81.322  83.537  1.00  0.00     0.151 C 
BRANCH  13  14
ATOM     14  C   UNL     1      98.595  82.508  84.248  1.00  0.00    -0.025 A 
ATOM     15  C   UNL     1      99.101  82.873  85.519  1.00  0.00     0.056 A 
ATOM     16  C   UNL     1      97.564  83.287  83.675  1.00  0.00     0.009 A 
ATOM     17  C   UNL     1      98.603  84.008  86.199  1.00  0.00     0.160 A 
ATOM     18  C   UNL     1      97.065  84.418  84.345  1.00  0.00     0.050 A 
ATOM     19  C   UNL     1      97.575  84.777  85.608  1.00  0.00     0.157 A 
BRANCH  17  20
ATOM     20  O   UNL     1      99.064  84.335  87.449  1.00  0.00    -0.493 OA
ATOM     21  C   UNL     1     100.461  84.058  87.652  1.00  0.00     0.278 C 
ENDBRANCH  17  20
BRANCH  19  22
ATOM     22  O   UNL     1      97.067  85.854  86.260  1.00  0.00    -0.504 OA
ATOM     23  H   UNL     1      96.579  85.560  87.032  1.00  0.00     0.293 HD
ENDBRANCH  19  22
ENDBRANCH  13  14
ENDBRANCH  11  13
ENDBRANCH   8   9
ENDBRANCH   1   8
TORSDOF 11
ENDMDL
MODEL 8
REMARK VINA RESULT:    -5.323     17.317     19.634
REMARK INTER + INTRA:          -9.257
REMARK INTER:                  -8.505
REMARK INTRA:                  -0.753
REMARK UNBOUND:                -0.668
REMARK SMILES CCCCCCCCC(=O)NCc1ccc(O)c(OC)c1
REMARK SMILES IDX 7 1 6 2 5 3 4 4 3 5 2 6 1 7 8 8 9 9 10 10 11 11 12 13 13 14
REMARK SMILES IDX 21 15 14 16 18 17 15 18 16 19 19 20 20 21 17 22
REMARK H PARENT 11 12 17 23
REMARK Flexibility Score: inf
ROOT
ATOM      1  C   UNL     1      97.839  80.742  85.778  1.00  0.00     0.010 C 
ENDROOT
BRANCH   1   2
ATOM      2  C   UNL     1      96.559  81.610  85.954  1.00  0.00     0.001 C 
BRANCH   2   3
ATOM      3  C   UNL     1      96.473  82.251  87.370  1.00  0.00     0.000 C 
BRANCH   3   4
ATOM      4  C   UNL     1      97.077  83.682  87.449  1.00  0.00    -0.000 C 
BRANCH   4   5
ATOM      5  C   UNL     1      95.995  84.796  87.357  1.00  0.00    -0.000 C 
BRANCH   5   6
ATOM      6  C   UNL     1      96.203  85.730  86.136  1.00  0.00    -0.003 C 
ATOM      7  C   UNL     1      97.305  85.228  85.177  1.00  0.00     0.004 C 
ENDBRANCH   5   6
ENDBRANCH   4   5
ENDBRANCH   3   4
ENDBRANCH   2   3
ENDBRANCH   1   2
BRANCH   1   8
ATOM      8  C   UNL     1      98.152  80.376  84.300  1.00  0.00     0.100 C 
BRANCH   8   9
ATOM      9  C   UNL     1      98.836  81.491  83.601  1.00  0.00     0.220 C 
ATOM     10  O   UNL     1      99.310  82.425  84.292  1.00  0.00    -0.275 OA
ATOM     11  N   UNL     1      98.967  81.482  82.242  1.00  0.00    -0.352 N 
ATOM     12  H   UNL     1      98.475  80.731  81.780  1.00  0.00     0.163 HD
BRANCH  11  13
ATOM     13  C   UNL     1      99.722  82.420  81.469  1.00  0.00     0.151 C 
BRANCH  13  14
ATOM     14  C   UNL     1      99.024  82.887  80.242  1.00  0.00    -0.025 A 
ATOM     15  C   UNL     1      99.701  82.902  78.999  1.00  0.00     0.056 A 
ATOM     16  C   UNL     1      97.681  83.326  80.292  1.00  0.00     0.009 A 
ATOM     17  C   UNL     1      99.045  83.327  77.821  1.00  0.00     0.160 A 
ATOM     18  C   UNL     1      97.022  83.749  79.124  1.00  0.00     0.050 A 
ATOM     19  C   UNL     1      97.701  83.759  77.890  1.00  0.00     0.157 A 
BRANCH  17  20
ATOM     20  O   UNL     1      99.716  83.381  76.625  1.00  0.00    -0.493 OA
ATOM     21  C   UNL     1     100.122  82.097  76.119  1.00  0.00     0.278 C 
ENDBRANCH  17  20
BRANCH  19  22
ATOM     22  O   UNL     1      97.065  84.195  76.773  1.00  0.00    -0.504 OA
ATOM     23  H   UNL     1      96.402  83.553  76.511  1.00  0.00     0.293 HD
ENDBRANCH  19  22
ENDBRANCH  13  14
ENDBRANCH  11  13
ENDBRANCH   8   9
ENDBRANCH   1   8
TORSDOF 11
ENDMDL
MODEL 9
REMARK VINA RESULT:    -5.285      7.854     11.927
REMARK INTER + INTRA:          -9.196
REMARK INTER:                  -8.498
REMARK INTRA:                  -0.698
REMARK UNBOUND:                -0.668
REMARK SMILES CCCCCCCCC(=O)NCc1ccc(O)c(OC)c1
REMARK SMILES IDX 7 1 6 2 5 3 4 4 3 5 2 6 1 7 8 8 9 9 10 10 11 11 12 13 13 14
REMARK SMILES IDX 21 15 14 16 18 17 15 18 16 19 19 20 20 21 17 22
REMARK H PARENT 11 12 17 23
REMARK Flexibility Score: inf
ROOT
ATOM      1  C   UNL     1      94.549  94.753  78.214  1.00  0.00     0.010 C 
ENDROOT
BRANCH   1   2
ATOM      2  C   UNL     1      93.291  95.056  77.350  1.00  0.00     0.001 C 
BRANCH   2   3
ATOM      3  C   UNL     1      92.017  95.271  78.220  1.00  0.00     0.000 C 
BRANCH   3   4
ATOM      4  C   UNL     1      90.905  96.093  77.510  1.00  0.00    -0.000 C 
BRANCH   4   5
ATOM      5  C   UNL     1      89.536  95.356  77.487  1.00  0.00    -0.000 C 
BRANCH   5   6
ATOM      6  C   UNL     1      89.691  93.812  77.457  1.00  0.00    -0.003 C 
ATOM      7  C   UNL     1      89.921  93.259  76.034  1.00  0.00     0.004 C 
ENDBRANCH   5   6
ENDBRANCH   4   5
ENDBRANCH   3   4
ENDBRANCH   2   3
ENDBRANCH   1   2
BRANCH   1   8
ATOM      8  C   UNL     1      94.228  94.409  79.695  1.00  0.00     0.100 C 
BRANCH   8   9
ATOM      9  C   UNL     1      95.350  94.778  80.591  1.00  0.00     0.220 C 
ATOM     10  O   UNL     1      96.494  94.902  80.092  1.00  0.00    -0.275 OA
ATOM     11  N   UNL     1      95.131  95.006  81.919  1.00  0.00    -0.352 N 
ATOM     12  H   UNL     1      94.194  94.795  82.230  1.00  0.00     0.163 HD
BRANCH  11  13
ATOM     13  C   UNL     1      96.096  95.502  82.852  1.00  0.00     0.151 C 
BRANCH  13  14
ATOM     14  C   UNL     1      95.934  96.945  83.175  1.00  0.00    -0.025 A 
ATOM     15  C   UNL     1      96.514  97.482  84.349  1.00  0.00     0.056 A 
ATOM     16  C   UNL     1      95.198  97.802  82.324  1.00  0.00     0.009 A 
ATOM     17  C   UNL     1      96.383  98.855  84.660  1.00  0.00     0.160 A 
ATOM     18  C   UNL     1      95.065  99.169  82.627  1.00  0.00     0.050 A 
ATOM     19  C   UNL     1      95.648  99.697  83.795  1.00  0.00     0.157 A 
BRANCH  17  20
ATOM     20  O   UNL     1      96.911  99.365  85.819  1.00  0.00    -0.493 OA
ATOM     21  C   UNL     1      98.332  99.580  85.775  1.00  0.00     0.278 C 
ENDBRANCH  17  20
BRANCH  19  22
ATOM     22  O   UNL     1      95.490 101.012  84.093  1.00  0.00    -0.504 OA
ATOM     23  H   UNL     1      96.303 101.354  84.473  1.00  0.00     0.293 HD
ENDBRANCH  19  22
ENDBRANCH  13  14
ENDBRANCH  11  13
ENDBRANCH   8   9
ENDBRANCH   1   8
TORSDOF 11
ENDMDL
MODEL 10
REMARK VINA RESULT:    -5.228     20.020     22.502
REMARK INTER + INTRA:          -9.105
REMARK INTER:                  -7.904
REMARK INTRA:                  -1.201
REMARK UNBOUND:                -0.668
REMARK SMILES CCCCCCCCC(=O)NCc1ccc(O)c(OC)c1
REMARK SMILES IDX 7 1 6 2 5 3 4 4 3 5 2 6 1 7 8 8 9 9 10 10 11 11 12 13 13 14
REMARK SMILES IDX 21 15 14 16 18 17 15 18 16 19 19 20 20 21 17 22
REMARK H PARENT 11 12 17 23
REMARK Flexibility Score: inf
ROOT
ATOM      1  C   UNL     1      76.719  87.187  66.789  1.00  0.00     0.010 C 
ENDROOT
BRANCH   1   2
ATOM      2  C   UNL     1      77.964  87.270  67.718  1.00  0.00     0.001 C 
BRANCH   2   3
ATOM      3  C   UNL     1      77.625  86.905  69.193  1.00  0.00     0.000 C 
BRANCH   3   4
ATOM      4  C   UNL     1      76.325  87.575  69.721  1.00  0.00    -0.000 C 
BRANCH   4   5
ATOM      5  C   UNL     1      75.368  86.565  70.415  1.00  0.00    -0.000 C 
BRANCH   5   6
ATOM      6  C   UNL     1      75.673  85.092  70.028  1.00  0.00    -0.003 C 
ATOM      7  C   UNL     1      76.069  84.223  71.242  1.00  0.00     0.004 C 
ENDBRANCH   5   6
ENDBRANCH   4   5
ENDBRANCH   3   4
ENDBRANCH   2   3
ENDBRANCH   1   2
BRANCH   1   8
ATOM      8  C   UNL     1      77.035  86.669  65.358  1.00  0.00     0.100 C 
BRANCH   8   9
ATOM      9  C   UNL     1      76.441  85.331  65.125  1.00  0.00     0.220 C 
ATOM     10  O   UNL     1      76.191  84.988  63.944  1.00  0.00    -0.275 OA
ATOM     11  N   UNL     1      76.203  84.486  66.170  1.00  0.00    -0.352 N 
ATOM     12  H   UNL     1      76.359  84.893  67.080  1.00  0.00     0.163 HD
BRANCH  11  13
ATOM     13  C   UNL     1      75.768  83.126  66.064  1.00  0.00     0.151 C 
BRANCH  13  14
ATOM     14  C   UNL     1      74.303  82.947  66.243  1.00  0.00    -0.025 A 
ATOM     15  C   UNL     1      73.551  83.906  66.963  1.00  0.00     0.056 A 
ATOM     16  C   UNL     1      73.637  81.823  65.704  1.00  0.00     0.009 A 
ATOM     17  C   UNL     1      72.154  83.758  67.126  1.00  0.00     0.160 A 
ATOM     18  C   UNL     1      72.248  81.670  65.862  1.00  0.00     0.050 A 
ATOM     19  C   UNL     1      71.505  82.630  66.577  1.00  0.00     0.157 A 
BRANCH  17  20
ATOM     20  O   UNL     1      71.434  84.667  67.861  1.00  0.00    -0.493 OA
ATOM     21  C   UNL     1      71.183  85.908  67.179  1.00  0.00     0.278 C 
ENDBRANCH  17  20
BRANCH  19  22
ATOM     22  O   UNL     1      70.169  82.460  66.748  1.00  0.00    -0.504 OA
ATOM     23  H   UNL     1      69.923  81.572  66.478  1.00  0.00     0.293 HD
ENDBRANCH  19  22
ENDBRANCH  13  14
ENDBRANCH  11  13
ENDBRANCH   8   9
ENDBRANCH   1   8
TORSDOF 11
ENDMDL
