MODEL 1
REMARK VINA RESULT:    -6.008      0.000      0.000
REMARK INTER + INTRA:         -10.489
REMARK INTER:                  -9.695
REMARK INTRA:                  -0.794
REMARK UNBOUND:                -0.794
REMARK SMILES COc1cc(CNC(=O)CCCCC/C=C/C(C)C)ccc1O
REMARK SMILES IDX 11 1 10 2 8 3 7 4 9 6 6 7 5 8 3 9 22 10 4 11 21 12 20 13
REMARK SMILES IDX 2 14 1 15 23 16 12 18 13 19 14 20 15 21 16 22 17 23 18 24
REMARK SMILES IDX 19 25
REMARK H PARENT 7 5 23 17
REMARK Flexibility Score: inf
ROOT
ATOM      1  C   UNL     1      76.812  89.841  64.635  1.00  0.00     0.010 C 
ENDROOT
BRANCH   1   2
ATOM      2  C   UNL     1      77.537  90.974  63.863  1.00  0.00     0.100 C 
BRANCH   2   3
ATOM      3  C   UNL     1      77.048  92.328  64.184  1.00  0.00     0.220 C 
ATOM      4  N   UNL     1      76.735  92.648  65.470  1.00  0.00    -0.352 N 
ATOM      5  H   UNL     1      76.796  91.879  66.123  1.00  0.00     0.163 HD
ATOM      6  O   UNL     1      76.972  93.169  63.257  1.00  0.00    -0.275 OA
BRANCH   4   7
ATOM      7  C   UNL     1      76.347  93.941  65.931  1.00  0.00     0.151 C 
BRANCH   7   8
ATOM      8  C   UNL     1      77.387  94.583  66.776  1.00  0.00    -0.025 A 
ATOM      9  C   UNL     1      78.117  95.496  68.940  1.00  0.00     0.160 A 
ATOM     10  C   UNL     1      79.356  95.858  68.368  1.00  0.00     0.157 A 
ATOM     11  C   UNL     1      77.140  94.871  68.139  1.00  0.00     0.056 A 
ATOM     12  C   UNL     1      79.619  95.562  67.018  1.00  0.00     0.050 A 
ATOM     13  C   UNL     1      78.645  94.920  66.231  1.00  0.00     0.009 A 
BRANCH   9  14
ATOM     14  O   UNL     1      77.884  95.700  70.274  1.00  0.00    -0.493 OA
ATOM     15  C   UNL     1      76.527  96.055  70.587  1.00  0.00     0.278 C 
ENDBRANCH   9  14
BRANCH  10  16
ATOM     16  O   UNL     1      80.312  96.487  69.097  1.00  0.00    -0.504 OA
ATOM     17  H   UNL     1      81.152  96.438  68.633  1.00  0.00     0.293 HD
ENDBRANCH  10  16
ENDBRANCH   7   8
ENDBRANCH   4   7
ENDBRANCH   2   3
ENDBRANCH   1   2
BRANCH   1  18
ATOM     18  C   UNL     1      77.649  88.537  64.632  1.00  0.00     0.001 C 
BRANCH  18  19
ATOM     19  C   UNL     1      78.307  88.215  65.998  1.00  0.00     0.004 C 
BRANCH  19  20
ATOM     20  C   UNL     1      77.239  88.018  67.109  1.00  0.00     0.027 C 
BRANCH  20  21
ATOM     21  C   UNL     1      76.671  86.681  67.144  1.00  0.00    -0.031 C 
ATOM     22  C   UNL     1      77.239  85.676  67.833  1.00  0.00    -0.028 C 
BRANCH  22  23
ATOM     23  C   UNL     1      76.691  84.324  67.892  1.00  0.00     0.005 C 
ATOM     24  C   UNL     1      75.557  84.249  68.948  1.00  0.00     0.012 C 
ATOM     25  C   UNL     1      76.215  83.875  66.483  1.00  0.00     0.012 C 
ENDBRANCH  22  23
ENDBRANCH  20  21
ENDBRANCH  19  20
ENDBRANCH  18  19
ENDBRANCH   1  18
TORSDOF 11
ENDMDL
MODEL 2
REMARK VINA RESULT:    -5.894     19.564     21.913
REMARK INTER + INTRA:         -10.305
REMARK INTER:                  -8.184
REMARK INTRA:                  -2.121
REMARK UNBOUND:                -0.794
REMARK SMILES COc1cc(CNC(=O)CCCCC/C=C/C(C)C)ccc1O
REMARK SMILES IDX 11 1 10 2 8 3 7 4 9 6 6 7 5 8 3 9 22 10 4 11 21 12 20 13
REMARK SMILES IDX 2 14 1 15 23 16 12 18 13 19 14 20 15 21 16 22 17 23 18 24
REMARK SMILES IDX 19 25
REMARK H PARENT 7 5 23 17
REMARK Flexibility Score: inf
ROOT
ATOM      1  C   UNL     1      84.567  90.289  85.264  1.00  0.00     0.010 C 
ENDROOT
BRANCH   1   2
ATOM      2  C   UNL     1      84.669  91.522  86.199  1.00  0.00     0.100 C 
BRANCH   2   3
ATOM      3  C   UNL     1      83.964  91.360  87.484  1.00  0.00     0.220 C 
ATOM      4  N   UNL     1      83.950  90.147  88.103  1.00  0.00    -0.352 N 
ATOM      5  H   UNL     1      84.382  89.401  87.576  1.00  0.00     0.163 HD
ATOM      6  O   UNL     1      83.424  92.369  87.998  1.00  0.00    -0.275 OA
BRANCH   4   7
ATOM      7  C   UNL     1      83.392  89.877  89.387  1.00  0.00     0.151 C 
BRANCH   7   8
ATOM      8  C   UNL     1      82.078  89.188  89.307  1.00  0.00    -0.025 A 
ATOM      9  C   UNL     1      80.434  87.608  90.229  1.00  0.00     0.160 A 
ATOM     10  C   UNL     1      79.593  87.836  89.118  1.00  0.00     0.157 A 
ATOM     11  C   UNL     1      81.672  88.277  90.310  1.00  0.00     0.056 A 
ATOM     12  C   UNL     1      79.978  88.753  88.123  1.00  0.00     0.050 A 
ATOM     13  C   UNL     1      81.207  89.432  88.221  1.00  0.00     0.009 A 
BRANCH   9  14
ATOM     14  O   UNL     1      80.030  86.785  91.246  1.00  0.00    -0.493 OA
ATOM     15  C   UNL     1      80.178  87.355  92.557  1.00  0.00     0.278 C 
ENDBRANCH   9  14
BRANCH  10  16
ATOM     16  O   UNL     1      78.406  87.191  88.988  1.00  0.00    -0.504 OA
ATOM     17  H   UNL     1      78.046  87.006  89.859  1.00  0.00     0.293 HD
ENDBRANCH  10  16
ENDBRANCH   7   8
ENDBRANCH   4   7
ENDBRANCH   2   3
ENDBRANCH   1   2
BRANCH   1  18
ATOM     18  C   UNL     1      83.405  90.449  84.251  1.00  0.00     0.001 C 
BRANCH  18  19
ATOM     19  C   UNL     1      82.002  90.243  84.876  1.00  0.00     0.004 C 
BRANCH  19  20
ATOM     20  C   UNL     1      81.096  89.373  83.960  1.00  0.00     0.027 C 
BRANCH  20  21
ATOM     21  C   UNL     1      80.803  88.059  84.508  1.00  0.00    -0.031 C 
ATOM     22  C   UNL     1      81.723  87.335  85.170  1.00  0.00    -0.028 C 
BRANCH  22  23
ATOM     23  C   UNL     1      81.459  86.014  85.736  1.00  0.00     0.005 C 
ATOM     24  C   UNL     1      82.136  85.880  87.126  1.00  0.00     0.012 C 
ATOM     25  C   UNL     1      79.929  85.753  85.798  1.00  0.00     0.012 C 
ENDBRANCH  22  23
ENDBRANCH  20  21
ENDBRANCH  19  20
ENDBRANCH  18  19
ENDBRANCH   1  18
TORSDOF 11
ENDMDL
MODEL 3
REMARK VINA RESULT:    -5.842      3.621      7.138
REMARK INTER + INTRA:         -10.222
REMARK INTER:                  -8.510
REMARK INTRA:                  -1.712
REMARK UNBOUND:                -0.794
REMARK SMILES COc1cc(CNC(=O)CCCCC/C=C/C(C)C)ccc1O
REMARK SMILES IDX 11 1 10 2 8 3 7 4 9 6 6 7 5 8 3 9 22 10 4 11 21 12 20 13
REMARK SMILES IDX 2 14 1 15 23 16 12 18 13 19 14 20 15 21 16 22 17 23 18 24
REMARK SMILES IDX 19 25
REMARK H PARENT 7 5 23 17
REMARK Flexibility Score: inf
ROOT
ATOM      1  C   UNL     1      74.762  91.361  66.469  1.00  0.00     0.010 C 
ENDROOT
BRANCH   1   2
ATOM      2  C   UNL     1      75.651  92.238  65.549  1.00  0.00     0.100 C 
BRANCH   2   3
ATOM      3  C   UNL     1      76.655  91.478  64.781  1.00  0.00     0.220 C 
ATOM      4  N   UNL     1      76.728  90.125  64.916  1.00  0.00    -0.352 N 
ATOM      5  H   UNL     1      76.111  89.736  65.615  1.00  0.00     0.163 HD
ATOM      6  O   UNL     1      77.395  92.103  63.986  1.00  0.00    -0.275 OA
BRANCH   4   7
ATOM      7  C   UNL     1      77.581  89.262  64.165  1.00  0.00     0.151 C 
BRANCH   7   8
ATOM      8  C   UNL     1      77.771  87.939  64.814  1.00  0.00    -0.025 A 
ATOM      9  C   UNL     1      77.718  85.482  64.712  1.00  0.00     0.160 A 
ATOM     10  C   UNL     1      78.082  85.418  66.075  1.00  0.00     0.157 A 
ATOM     11  C   UNL     1      77.557  86.740  64.095  1.00  0.00     0.056 A 
ATOM     12  C   UNL     1      78.314  86.604  66.795  1.00  0.00     0.050 A 
ATOM     13  C   UNL     1      78.170  87.855  66.167  1.00  0.00     0.009 A 
BRANCH   9  14
ATOM     14  O   UNL     1      77.576  84.334  63.979  1.00  0.00    -0.493 OA
ATOM     15  C   UNL     1      76.228  84.070  63.556  1.00  0.00     0.278 C 
ENDBRANCH   9  14
BRANCH  10  16
ATOM     16  O   UNL     1      78.220  84.229  66.712  1.00  0.00    -0.504 OA
ATOM     17  H   UNL     1      77.909  83.522  66.141  1.00  0.00     0.293 HD
ENDBRANCH  10  16
ENDBRANCH   7   8
ENDBRANCH   4   7
ENDBRANCH   2   3
ENDBRANCH   1   2
BRANCH   1  18
ATOM     18  C   UNL     1      74.996  91.701  67.963  1.00  0.00     0.001 C 
BRANCH  18  19
ATOM     19  C   UNL     1      74.956  90.465  68.897  1.00  0.00     0.004 C 
BRANCH  19  20
ATOM     20  C   UNL     1      75.546  89.208  68.199  1.00  0.00     0.027 C 
BRANCH  20  21
ATOM     21  C   UNL     1      74.648  88.065  68.197  1.00  0.00    -0.031 C 
ATOM     22  C   UNL     1      75.071  86.820  67.916  1.00  0.00    -0.028 C 
BRANCH  22  23
ATOM     23  C   UNL     1      74.196  85.650  67.911  1.00  0.00     0.005 C 
ATOM     24  C   UNL     1      74.520  84.741  66.695  1.00  0.00     0.012 C 
ATOM     25  C   UNL     1      74.306  84.891  69.261  1.00  0.00     0.012 C 
ENDBRANCH  22  23
ENDBRANCH  20  21
ENDBRANCH  19  20
ENDBRANCH  18  19
ENDBRANCH   1  18
TORSDOF 11
ENDMDL
MODEL 4
REMARK VINA RESULT:    -5.714     17.227     18.354
REMARK INTER + INTRA:         -10.015
REMARK INTER:                  -9.023
REMARK INTRA:                  -0.992
REMARK UNBOUND:                -0.794
REMARK SMILES COc1cc(CNC(=O)CCCCC/C=C/C(C)C)ccc1O
REMARK SMILES IDX 11 1 10 2 8 3 7 4 9 6 6 7 5 8 3 9 22 10 4 11 21 12 20 13
REMARK SMILES IDX 2 14 1 15 23 16 12 18 13 19 14 20 15 21 16 22 17 23 18 24
REMARK SMILES IDX 19 25
REMARK H PARENT 7 5 23 17
REMARK Flexibility Score: inf
ROOT
ATOM      1  C   UNL     1      61.944  84.017  74.090  1.00  0.00     0.010 C 
ENDROOT
BRANCH   1   2
ATOM      2  C   UNL     1      61.450  85.466  74.341  1.00  0.00     0.100 C 
BRANCH   2   3
ATOM      3  C   UNL     1      61.489  85.876  75.757  1.00  0.00     0.220 C 
ATOM      4  N   UNL     1      62.568  86.554  76.237  1.00  0.00    -0.352 N 
ATOM      5  H   UNL     1      63.324  86.665  75.576  1.00  0.00     0.163 HD
ATOM      6  O   UNL     1      60.495  85.622  76.478  1.00  0.00    -0.275 OA
BRANCH   4   7
ATOM      7  C   UNL     1      62.691  87.091  77.553  1.00  0.00     0.151 C 
BRANCH   7   8
ATOM      8  C   UNL     1      63.973  86.718  78.206  1.00  0.00    -0.025 A 
ATOM      9  C   UNL     1      65.398  86.606  80.207  1.00  0.00     0.160 A 
ATOM     10  C   UNL     1      66.441  86.053  79.433  1.00  0.00     0.157 A 
ATOM     11  C   UNL     1      64.177  86.942  79.588  1.00  0.00     0.056 A 
ATOM     12  C   UNL     1      66.244  85.811  78.061  1.00  0.00     0.050 A 
ATOM     13  C   UNL     1      65.015  86.131  77.454  1.00  0.00     0.009 A 
BRANCH   9  14
ATOM     14  O   UNL     1      65.548  86.764  81.559  1.00  0.00    -0.493 OA
ATOM     15  C   UNL     1      64.352  86.518  82.317  1.00  0.00     0.278 C 
ENDBRANCH   9  14
BRANCH  10  16
ATOM     16  O   UNL     1      67.641  85.743  79.985  1.00  0.00    -0.504 OA
ATOM     17  H   UNL     1      67.912  84.871  79.689  1.00  0.00     0.293 HD
ENDBRANCH  10  16
ENDBRANCH   7   8
ENDBRANCH   4   7
ENDBRANCH   2   3
ENDBRANCH   1   2
BRANCH   1  18
ATOM     18  C   UNL     1      62.461  83.846  72.639  1.00  0.00     0.001 C 
BRANCH  18  19
ATOM     19  C   UNL     1      61.629  82.847  71.795  1.00  0.00     0.004 C 
BRANCH  19  20
ATOM     20  C   UNL     1      62.486  81.629  71.350  1.00  0.00     0.027 C 
BRANCH  20  21
ATOM     21  C   UNL     1      63.591  81.334  72.246  1.00  0.00    -0.031 C 
ATOM     22  C   UNL     1      63.447  80.560  73.336  1.00  0.00    -0.028 C 
BRANCH  22  23
ATOM     23  C   UNL     1      64.538  80.240  74.252  1.00  0.00     0.005 C 
ATOM     24  C   UNL     1      65.817  79.869  73.456  1.00  0.00     0.012 C 
ATOM     25  C   UNL     1      64.777  81.419  75.234  1.00  0.00     0.012 C 
ENDBRANCH  22  23
ENDBRANCH  20  21
ENDBRANCH  19  20
ENDBRANCH  18  19
ENDBRANCH   1  18
TORSDOF 11
ENDMDL
MODEL 5
REMARK VINA RESULT:    -5.647     19.574     22.640
REMARK INTER + INTRA:          -9.907
REMARK INTER:                  -8.388
REMARK INTRA:                  -1.519
REMARK UNBOUND:                -0.794
REMARK SMILES COc1cc(CNC(=O)CCCCC/C=C/C(C)C)ccc1O
REMARK SMILES IDX 11 1 10 2 8 3 7 4 9 6 6 7 5 8 3 9 22 10 4 11 21 12 20 13
REMARK SMILES IDX 2 14 1 15 23 16 12 18 13 19 14 20 15 21 16 22 17 23 18 24
REMARK SMILES IDX 19 25
REMARK H PARENT 7 5 23 17
REMARK Flexibility Score: inf
ROOT
ATOM      1  C   UNL     1      79.542  90.988  91.291  1.00  0.00     0.010 C 
ENDROOT
BRANCH   1   2
ATOM      2  C   UNL     1      78.316  90.124  90.900  1.00  0.00     0.100 C 
BRANCH   2   3
ATOM      3  C   UNL     1      78.647  88.724  90.574  1.00  0.00     0.220 C 
ATOM      4  N   UNL     1      78.691  88.323  89.274  1.00  0.00    -0.352 N 
ATOM      5  H   UNL     1      78.411  89.028  88.605  1.00  0.00     0.163 HD
ATOM      6  O   UNL     1      78.921  87.942  91.515  1.00  0.00    -0.275 OA
BRANCH   4   7
ATOM      7  C   UNL     1      79.090  87.031  88.817  1.00  0.00     0.151 C 
BRANCH   7   8
ATOM      8  C   UNL     1      80.260  87.084  87.903  1.00  0.00    -0.025 A 
ATOM      9  C   UNL     1      81.365  86.422  85.808  1.00  0.00     0.160 A 
ATOM     10  C   UNL     1      82.517  87.146  86.188  1.00  0.00     0.157 A 
ATOM     11  C   UNL     1      80.251  86.389  86.671  1.00  0.00     0.056 A 
ATOM     12  C   UNL     1      82.530  87.855  87.403  1.00  0.00     0.050 A 
ATOM     13  C   UNL     1      81.406  87.833  88.249  1.00  0.00     0.009 A 
BRANCH   9  14
ATOM     14  O   UNL     1      81.309  85.801  84.588  1.00  0.00    -0.493 OA
ATOM     15  C   UNL     1      80.614  86.551  83.578  1.00  0.00     0.278 C 
ENDBRANCH   9  14
BRANCH  10  16
ATOM     16  O   UNL     1      83.620  87.179  85.400  1.00  0.00    -0.504 OA
ATOM     17  H   UNL     1      83.526  87.877  84.747  1.00  0.00     0.293 HD
ENDBRANCH  10  16
ENDBRANCH   7   8
ENDBRANCH   4   7
ENDBRANCH   2   3
ENDBRANCH   1   2
BRANCH   1  18
ATOM     18  C   UNL     1      80.789  90.600  90.455  1.00  0.00     0.001 C 
BRANCH  18  19
ATOM     19  C   UNL     1      80.955  91.436  89.160  1.00  0.00     0.004 C 
BRANCH  19  20
ATOM     20  C   UNL     1      82.454  91.674  88.828  1.00  0.00     0.027 C 
BRANCH  20  21
ATOM     21  C   UNL     1      82.832  91.246  87.492  1.00  0.00    -0.031 C 
ATOM     22  C   UNL     1      83.956  91.675  86.891  1.00  0.00    -0.028 C 
BRANCH  22  23
ATOM     23  C   UNL     1      84.366  91.260  85.552  1.00  0.00     0.005 C 
ATOM     24  C   UNL     1      85.669  90.419  85.625  1.00  0.00     0.012 C 
ATOM     25  C   UNL     1      83.211  90.497  84.848  1.00  0.00     0.012 C 
ENDBRANCH  22  23
ENDBRANCH  20  21
ENDBRANCH  19  20
ENDBRANCH  18  19
ENDBRANCH   1  18
TORSDOF 11
ENDMDL
MODEL 6
REMARK VINA RESULT:    -5.643      2.992      8.858
REMARK INTER + INTRA:          -9.901
REMARK INTER:                  -9.238
REMARK INTRA:                  -0.664
REMARK UNBOUND:                -0.794
REMARK SMILES COc1cc(CNC(=O)CCCCC/C=C/C(C)C)ccc1O
REMARK SMILES IDX 11 1 10 2 8 3 7 4 9 6 6 7 5 8 3 9 22 10 4 11 21 12 20 13
REMARK SMILES IDX 2 14 1 15 23 16 12 18 13 19 14 20 15 21 16 22 17 23 18 24
REMARK SMILES IDX 19 25
REMARK H PARENT 7 5 23 17
REMARK Flexibility Score: inf
ROOT
ATOM      1  C   UNL     1      76.892  94.175  63.848  1.00  0.00     0.010 C 
ENDROOT
BRANCH   1   2
ATOM      2  C   UNL     1      76.450  92.876  64.571  1.00  0.00     0.100 C 
BRANCH   2   3
ATOM      3  C   UNL     1      77.071  91.650  64.035  1.00  0.00     0.220 C 
ATOM      4  N   UNL     1      76.345  90.501  63.957  1.00  0.00    -0.352 N 
ATOM      5  H   UNL     1      75.418  90.560  64.356  1.00  0.00     0.163 HD
ATOM      6  O   UNL     1      78.254  91.712  63.624  1.00  0.00    -0.275 OA
BRANCH   4   7
ATOM      7  C   UNL     1      76.789  89.277  63.374  1.00  0.00     0.151 C 
BRANCH   7   8
ATOM      8  C   UNL     1      77.341  88.332  64.380  1.00  0.00    -0.025 A 
ATOM      9  C   UNL     1      77.905  86.041  65.074  1.00  0.00     0.160 A 
ATOM     10  C   UNL     1      78.345  86.528  66.324  1.00  0.00     0.157 A 
ATOM     11  C   UNL     1      77.399  86.943  64.116  1.00  0.00     0.056 A 
ATOM     12  C   UNL     1      78.307  87.909  66.590  1.00  0.00     0.050 A 
ATOM     13  C   UNL     1      77.819  88.806  65.622  1.00  0.00     0.009 A 
BRANCH   9  14
ATOM     14  O   UNL     1      78.019  84.710  64.771  1.00  0.00    -0.493 OA
ATOM     15  C   UNL     1      77.042  84.236  63.829  1.00  0.00     0.278 C 
ENDBRANCH   9  14
BRANCH  10  16
ATOM     16  O   UNL     1      78.812  85.690  67.283  1.00  0.00    -0.504 OA
ATOM     17  H   UNL     1      79.730  85.475  67.099  1.00  0.00     0.293 HD
ENDBRANCH  10  16
ENDBRANCH   7   8
ENDBRANCH   4   7
ENDBRANCH   2   3
ENDBRANCH   1   2
BRANCH   1  18
ATOM     18  C   UNL     1      77.321  95.263  64.865  1.00  0.00     0.001 C 
BRANCH  18  19
ATOM     19  C   UNL     1      78.818  95.650  64.770  1.00  0.00     0.004 C 
BRANCH  19  20
ATOM     20  C   UNL     1      79.605  95.185  66.028  1.00  0.00     0.027 C 
BRANCH  20  21
ATOM     21  C   UNL     1      79.035  95.655  67.280  1.00  0.00    -0.031 C 
ATOM     22  C   UNL     1      79.790  95.905  68.364  1.00  0.00    -0.028 C 
BRANCH  22  23
ATOM     23  C   UNL     1      79.249  96.383  69.634  1.00  0.00     0.005 C 
ATOM     24  C   UNL     1      78.871  97.884  69.527  1.00  0.00     0.012 C 
ATOM     25  C   UNL     1      78.047  95.502  70.071  1.00  0.00     0.012 C 
ENDBRANCH  22  23
ENDBRANCH  20  21
ENDBRANCH  19  20
ENDBRANCH  18  19
ENDBRANCH   1  18
TORSDOF 11
ENDMDL
MODEL 7
REMARK VINA RESULT:    -5.615     24.134     27.584
REMARK INTER + INTRA:          -9.856
REMARK INTER:                  -8.125
REMARK INTRA:                  -1.731
REMARK UNBOUND:                -0.794
REMARK SMILES COc1cc(CNC(=O)CCCCC/C=C/C(C)C)ccc1O
REMARK SMILES IDX 11 1 10 2 8 3 7 4 9 6 6 7 5 8 3 9 22 10 4 11 21 12 20 13
REMARK SMILES IDX 2 14 1 15 23 16 12 18 13 19 14 20 15 21 16 22 17 23 18 24
REMARK SMILES IDX 19 25
REMARK H PARENT 7 5 23 17
REMARK Flexibility Score: inf
ROOT
ATOM      1  C   UNL     1      80.138  66.804  71.962  1.00  0.00     0.010 C 
ENDROOT
BRANCH   1   2
ATOM      2  C   UNL     1      80.085  65.337  72.463  1.00  0.00     0.100 C 
BRANCH   2   3
ATOM      3  C   UNL     1      80.550  65.159  73.851  1.00  0.00     0.220 C 
ATOM      4  N   UNL     1      81.040  66.224  74.543  1.00  0.00    -0.352 N 
ATOM      5  H   UNL     1      81.119  67.077  74.005  1.00  0.00     0.163 HD
ATOM      6  O   UNL     1      80.440  64.026  74.375  1.00  0.00    -0.275 OA
BRANCH   4   7
ATOM      7  C   UNL     1      81.431  66.213  75.915  1.00  0.00     0.151 C 
BRANCH   7   8
ATOM      8  C   UNL     1      82.887  65.974  76.094  1.00  0.00    -0.025 A 
ATOM      9  C   UNL     1      84.735  64.612  76.976  1.00  0.00     0.160 A 
ATOM     10  C   UNL     1      85.664  65.552  76.477  1.00  0.00     0.157 A 
ATOM     11  C   UNL     1      83.356  64.835  76.789  1.00  0.00     0.056 A 
ATOM     12  C   UNL     1      85.210  66.679  75.769  1.00  0.00     0.050 A 
ATOM     13  C   UNL     1      83.832  66.884  75.570  1.00  0.00     0.009 A 
BRANCH   9  14
ATOM     14  O   UNL     1      85.170  63.467  77.589  1.00  0.00    -0.493 OA
ATOM     15  C   UNL     1      84.967  63.449  79.012  1.00  0.00     0.278 C 
ENDBRANCH   9  14
BRANCH  10  16
ATOM     16  O   UNL     1      86.998  65.389  76.660  1.00  0.00    -0.504 OA
ATOM     17  H   UNL     1      87.164  64.535  77.066  1.00  0.00     0.293 HD
ENDBRANCH  10  16
ENDBRANCH   7   8
ENDBRANCH   4   7
ENDBRANCH   2   3
ENDBRANCH   1   2
BRANCH   1  18
ATOM     18  C   UNL     1      81.341  67.027  71.011  1.00  0.00     0.001 C 
BRANCH  18  19
ATOM     19  C   UNL     1      82.220  65.767  70.812  1.00  0.00     0.004 C 
BRANCH  19  20
ATOM     20  C   UNL     1      83.626  65.950  71.449  1.00  0.00     0.027 C 
BRANCH  20  21
ATOM     21  C   UNL     1      83.909  67.315  71.860  1.00  0.00    -0.031 C 
ATOM     22  C   UNL     1      84.795  68.092  71.212  1.00  0.00    -0.028 C 
BRANCH  22  23
ATOM     23  C   UNL     1      85.097  69.468  71.595  1.00  0.00     0.005 C 
ATOM     24  C   UNL     1      83.830  70.354  71.463  1.00  0.00     0.012 C 
ATOM     25  C   UNL     1      85.697  69.507  73.027  1.00  0.00     0.012 C 
ENDBRANCH  22  23
ENDBRANCH  20  21
ENDBRANCH  19  20
ENDBRANCH  18  19
ENDBRANCH   1  18
TORSDOF 11
ENDMDL
MODEL 8
REMARK VINA RESULT:    -5.604     24.981     28.322
REMARK INTER + INTRA:          -9.837
REMARK INTER:                  -8.972
REMARK INTRA:                  -0.866
REMARK UNBOUND:                -0.794
REMARK SMILES COc1cc(CNC(=O)CCCCC/C=C/C(C)C)ccc1O
REMARK SMILES IDX 11 1 10 2 8 3 7 4 9 6 6 7 5 8 3 9 22 10 4 11 21 12 20 13
REMARK SMILES IDX 2 14 1 15 23 16 12 18 13 19 14 20 15 21 16 22 17 23 18 24
REMARK SMILES IDX 19 25
REMARK H PARENT 7 5 23 17
REMARK Flexibility Score: inf
ROOT
ATOM      1  C   UNL     1      82.633  64.883  76.705  1.00  0.00     0.010 C 
ENDROOT
BRANCH   1   2
ATOM      2  C   UNL     1      81.590  65.984  76.384  1.00  0.00     0.100 C 
BRANCH   2   3
ATOM      3  C   UNL     1      81.020  65.893  75.027  1.00  0.00     0.220 C 
ATOM      4  N   UNL     1      80.790  67.029  74.311  1.00  0.00    -0.352 N 
ATOM      5  H   UNL     1      80.968  67.887  74.813  1.00  0.00     0.163 HD
ATOM      6  O   UNL     1      80.798  64.756  74.549  1.00  0.00    -0.275 OA
BRANCH   4   7
ATOM      7  C   UNL     1      80.335  67.079  72.959  1.00  0.00     0.151 C 
BRANCH   7   8
ATOM      8  C   UNL     1      81.427  66.842  71.979  1.00  0.00    -0.025 A 
ATOM      9  C   UNL     1      83.533  67.539  70.918  1.00  0.00     0.160 A 
ATOM     10  C   UNL     1      83.478  66.411  70.070  1.00  0.00     0.157 A 
ATOM     11  C   UNL     1      82.504  67.751  71.858  1.00  0.00     0.056 A 
ATOM     12  C   UNL     1      82.421  65.492  70.194  1.00  0.00     0.050 A 
ATOM     13  C   UNL     1      81.408  65.700  71.148  1.00  0.00     0.009 A 
BRANCH   9  14
ATOM     14  O   UNL     1      84.603  68.393  70.866  1.00  0.00    -0.493 OA
ATOM     15  C   UNL     1      85.153  68.725  72.152  1.00  0.00     0.278 C 
ENDBRANCH   9  14
BRANCH  10  16
ATOM     16  O   UNL     1      84.433  66.187  69.133  1.00  0.00    -0.504 OA
ATOM     17  H   UNL     1      85.069  66.906  69.146  1.00  0.00     0.293 HD
ENDBRANCH  10  16
ENDBRANCH   7   8
ENDBRANCH   4   7
ENDBRANCH   2   3
ENDBRANCH   1   2
BRANCH   1  18
ATOM     18  C   UNL     1      84.077  65.441  76.635  1.00  0.00     0.001 C 
BRANCH  18  19
ATOM     19  C   UNL     1      85.154  64.453  77.149  1.00  0.00     0.004 C 
BRANCH  19  20
ATOM     20  C   UNL     1      84.507  63.179  77.762  1.00  0.00     0.027 C 
BRANCH  20  21
ATOM     21  C   UNL     1      84.612  63.110  79.210  1.00  0.00    -0.031 C 
ATOM     22  C   UNL     1      85.770  63.328  79.858  1.00  0.00    -0.028 C 
BRANCH  22  23
ATOM     23  C   UNL     1      85.906  63.271  81.311  1.00  0.00     0.005 C 
ATOM     24  C   UNL     1      87.374  62.949  81.701  1.00  0.00     0.012 C 
ATOM     25  C   UNL     1      85.403  64.594  81.950  1.00  0.00     0.012 C 
ENDBRANCH  22  23
ENDBRANCH  20  21
ENDBRANCH  19  20
ENDBRANCH  18  19
ENDBRANCH   1  18
TORSDOF 11
ENDMDL
MODEL 9
REMARK VINA RESULT:    -5.487     24.610     27.007
REMARK INTER + INTRA:          -9.649
REMARK INTER:                  -8.479
REMARK INTRA:                  -1.170
REMARK UNBOUND:                -0.794
REMARK SMILES COc1cc(CNC(=O)CCCCC/C=C/C(C)C)ccc1O
REMARK SMILES IDX 11 1 10 2 8 3 7 4 9 6 6 7 5 8 3 9 22 10 4 11 21 12 20 13
REMARK SMILES IDX 2 14 1 15 23 16 12 18 13 19 14 20 15 21 16 22 17 23 18 24
REMARK SMILES IDX 19 25
REMARK H PARENT 7 5 23 17
REMARK Flexibility Score: inf
ROOT
ATOM      1  C   UNL     1      80.333  67.084  71.626  1.00  0.00     0.010 C 
ENDROOT
BRANCH   1   2
ATOM      2  C   UNL     1      80.228  65.562  71.903  1.00  0.00     0.100 C 
BRANCH   2   3
ATOM      3  C   UNL     1      80.317  65.205  73.331  1.00  0.00     0.220 C 
ATOM      4  N   UNL     1      80.875  66.078  74.215  1.00  0.00    -0.352 N 
ATOM      5  H   UNL     1      81.266  66.910  73.795  1.00  0.00     0.163 HD
ATOM      6  O   UNL     1      79.834  64.109  73.702  1.00  0.00    -0.275 OA
BRANCH   4   7
ATOM      7  C   UNL     1      80.936  65.900  75.629  1.00  0.00     0.151 C 
BRANCH   7   8
ATOM      8  C   UNL     1      82.331  65.798  76.133  1.00  0.00    -0.025 A 
ATOM      9  C   UNL     1      84.392  66.866  76.944  1.00  0.00     0.160 A 
ATOM     10  C   UNL     1      85.008  65.599  77.042  1.00  0.00     0.157 A 
ATOM     11  C   UNL     1      83.063  66.957  76.483  1.00  0.00     0.056 A 
ATOM     12  C   UNL     1      84.284  64.439  76.713  1.00  0.00     0.050 A 
ATOM     13  C   UNL     1      82.951  64.537  76.272  1.00  0.00     0.009 A 
BRANCH   9  14
ATOM     14  O   UNL     1      85.059  67.993  77.345  1.00  0.00    -0.493 OA
ATOM     15  C   UNL     1      85.471  68.847  76.265  1.00  0.00     0.278 C 
ENDBRANCH   9  14
BRANCH  10  16
ATOM     16  O   UNL     1      86.294  65.471  77.455  1.00  0.00    -0.504 OA
ATOM     17  H   UNL     1      86.433  66.007  78.239  1.00  0.00     0.293 HD
ENDBRANCH  10  16
ENDBRANCH   7   8
ENDBRANCH   4   7
ENDBRANCH   2   3
ENDBRANCH   1   2
BRANCH   1  18
ATOM     18  C   UNL     1      81.707  67.446  71.005  1.00  0.00     0.001 C 
BRANCH  18  19
ATOM     19  C   UNL     1      82.529  66.214  70.550  1.00  0.00     0.004 C 
BRANCH  19  20
ATOM     20  C   UNL     1      84.024  66.580  70.331  1.00  0.00     0.027 C 
BRANCH  20  21
ATOM     21  C   UNL     1      84.408  67.850  70.924  1.00  0.00    -0.031 C 
ATOM     22  C   UNL     1      85.489  68.537  70.514  1.00  0.00    -0.028 C 
BRANCH  22  23
ATOM     23  C   UNL     1      85.898  69.818  71.085  1.00  0.00     0.005 C 
ATOM     24  C   UNL     1      85.757  69.787  72.631  1.00  0.00     0.012 C 
ATOM     25  C   UNL     1      87.341  70.171  70.632  1.00  0.00     0.012 C 
ENDBRANCH  22  23
ENDBRANCH  20  21
ENDBRANCH  19  20
ENDBRANCH  18  19
ENDBRANCH   1  18
TORSDOF 11
ENDMDL
MODEL 10
REMARK VINA RESULT:    -5.427     18.841     21.447
REMARK INTER + INTRA:          -9.552
REMARK INTER:                  -8.897
REMARK INTRA:                  -0.655
REMARK UNBOUND:                -0.794
REMARK SMILES COc1cc(CNC(=O)CCCCC/C=C/C(C)C)ccc1O
REMARK SMILES IDX 11 1 10 2 8 3 7 4 9 6 6 7 5 8 3 9 22 10 4 11 21 12 20 13
REMARK SMILES IDX 2 14 1 15 23 16 12 18 13 19 14 20 15 21 16 22 17 23 18 24
REMARK SMILES IDX 19 25
REMARK H PARENT 7 5 23 17
REMARK Flexibility Score: inf
ROOT
ATOM      1  C   UNL     1      94.778  94.060  76.814  1.00  0.00     0.010 C 
ENDROOT
BRANCH   1   2
ATOM      2  C   UNL     1      94.337  94.436  78.252  1.00  0.00     0.100 C 
BRANCH   2   3
ATOM      3  C   UNL     1      95.456  94.761  79.157  1.00  0.00     0.220 C 
ATOM      4  N   UNL     1      95.226  94.917  80.490  1.00  0.00    -0.352 N 
ATOM      5  H   UNL     1      94.253  94.866  80.759  1.00  0.00     0.163 HD
ATOM      6  O   UNL     1      96.609  94.847  78.672  1.00  0.00    -0.275 OA
BRANCH   4   7
ATOM      7  C   UNL     1      96.226  95.136  81.484  1.00  0.00     0.151 C 
BRANCH   7   8
ATOM      8  C   UNL     1      96.296  96.554  81.922  1.00  0.00    -0.025 A 
ATOM      9  C   UNL     1      96.419  98.951  81.386  1.00  0.00     0.160 A 
ATOM     10  C   UNL     1      96.485  99.255  82.764  1.00  0.00     0.157 A 
ATOM     11  C   UNL     1      96.335  97.605  80.976  1.00  0.00     0.056 A 
ATOM     12  C   UNL     1      96.431  98.218  83.714  1.00  0.00     0.050 A 
ATOM     13  C   UNL     1      96.326  96.879  83.296  1.00  0.00     0.009 A 
BRANCH   9  14
ATOM     14  O   UNL     1      96.383  99.957  80.457  1.00  0.00    -0.493 OA
ATOM     15  C   UNL     1      97.585 100.081  79.678  1.00  0.00     0.278 C 
ENDBRANCH   9  14
BRANCH  10  16
ATOM     16  O   UNL     1      96.596 100.535  83.199  1.00  0.00    -0.504 OA
ATOM     17  H   UNL     1      97.524 100.780  83.238  1.00  0.00     0.293 HD
ENDBRANCH  10  16
ENDBRANCH   7   8
ENDBRANCH   4   7
ENDBRANCH   2   3
ENDBRANCH   1   2
BRANCH   1  18
ATOM     18  C   UNL     1      93.807  94.650  75.759  1.00  0.00     0.001 C 
BRANCH  18  19
ATOM     19  C   UNL     1      93.051  93.575  74.938  1.00  0.00     0.004 C 
BRANCH  19  20
ATOM     20  C   UNL     1      91.607  93.365  75.472  1.00  0.00     0.027 C 
BRANCH  20  21
ATOM     21  C   UNL     1      90.780  92.537  74.611  1.00  0.00    -0.031 C 
ATOM     22  C   UNL     1      90.252  92.996  73.462  1.00  0.00    -0.028 C 
BRANCH  22  23
ATOM     23  C   UNL     1      89.422  92.187  72.573  1.00  0.00     0.005 C 
ATOM     24  C   UNL     1      90.288  91.571  71.442  1.00  0.00     0.012 C 
ATOM     25  C   UNL     1      88.659  91.106  73.386  1.00  0.00     0.012 C 
ENDBRANCH  22  23
ENDBRANCH  20  21
ENDBRANCH  19  20
ENDBRANCH  18  19
ENDBRANCH   1  18
TORSDOF 11
ENDMDL
