MODEL 1
REMARK VINA RESULT:    -7.684      0.000      0.000
REMARK INTER + INTRA:         -14.635
REMARK INTER:                 -13.523
REMARK INTRA:                  -1.111
REMARK UNBOUND:                -1.111
REMARK SMILES C=C(C)[C@]12C[C@@H](C)[C@@]34O[C@](Cc5ccccc5)(O[C@@H]1[C@@H]3C=C(COC(=O)Cc1ccc(O)c(OC)c1)C[C@]1(O)C(=O)C(C)=C[C@@H]41)O2
REMARK SMILES IDX 23 1 22 2 21 3 20 4 9 5 8 6 10 7 6 8 18 9 46 10 19 11 5 12
REMARK SMILES IDX 7 13 4 14 45 15 38 16 44 17 40 18 42 20 41 21 43 22 39 23
REMARK SMILES IDX 11 25 12 26 13 27 17 28 14 29 16 30 15 31 2 32 3 33 1 34
REMARK SMILES IDX 37 35 24 37 25 38 26 39 27 40 28 41 36 42 29 43 33 44 30 45
REMARK SMILES IDX 31 46 34 47 35 48 32 49
REMARK H PARENT 39 24 32 50
REMARK Flexibility Score: 90.00
ROOT
ATOM      1  C   UNL     1      65.155  87.585  74.166  1.00  0.00     0.264 C 
ENDROOT
BRANCH   1   2
ATOM      2  C   UNL     1      63.936  87.251  73.339  1.00  0.00    -0.033 C 
ATOM      3  C   UNL     1      63.901  86.089  72.656  1.00  0.00    -0.015 C 
BRANCH   3   4
ATOM      4  C   UNL     1      62.839  85.561  71.705  1.00  0.00     0.078 C 
ATOM      5  O   UNL     1      61.281  84.191  73.051  1.00  0.00    -0.319 OA
ATOM      6  C   UNL     1      61.367  85.402  72.239  1.00  0.00     0.095 C 
ATOM      7  C   UNL     1      61.965  83.041  72.518  1.00  0.00     0.289 C 
ATOM      8  C   UNL     1      60.414  85.257  70.981  1.00  0.00     0.023 C 
ATOM      9  O   UNL     1      63.348  83.313  72.307  1.00  0.00    -0.320 OA
ATOM     10  O   UNL     1      61.452  82.648  71.248  1.00  0.00    -0.313 OA
ATOM     11  C   UNL     1      63.263  84.174  71.161  1.00  0.00     0.170 C 
ATOM     12  C   UNL     1      61.124  84.514  69.808  1.00  0.00     0.049 C 
ATOM     13  C   UNL     1      59.053  84.596  71.257  1.00  0.00     0.011 C 
ATOM     14  C   UNL     1      62.150  83.502  70.319  1.00  0.00     0.122 C 
BRANCH   6  15
ATOM     15  C   UNL     1      61.009  86.555  73.221  1.00  0.00     0.086 C 
ATOM     16  C   UNL     1      61.468  87.968  72.806  1.00  0.00     0.140 CG0
ATOM     17  C   UNL     1      59.576  86.758  73.627  1.00  0.00    -0.010 C 
ATOM     18  C   UNL     1      60.355  88.843  73.344  1.00  0.00     0.190 C 
ATOM     19  G   UNL     1      62.831  88.328  73.395  1.00  0.00     0.000 G0
ATOM     20  C   UNL     1      59.185  88.032  73.732  1.00  0.00    -0.008 C 
ATOM     21  O   UNL     1      60.381  90.063  73.408  1.00  0.00    -0.291 OA
ATOM     22  C   UNL     1      57.897  88.599  74.180  1.00  0.00     0.048 C 
BRANCH  16  23
ATOM     23  O   UNL     1      61.432  88.196  71.407  1.00  0.00    -0.381 OA
ATOM     24  H   UNL     1      62.246  87.839  71.017  1.00  0.00     0.212 HD
ENDBRANCH  16  23
ENDBRANCH   6  15
BRANCH   7  25
ATOM     25  C   UNL     1      61.812  81.898  73.501  1.00  0.00     0.135 C 
BRANCH  25  26
ATOM     26  C   UNL     1      63.145  81.405  74.006  1.00  0.00    -0.040 A 
ATOM     27  C   UNL     1      63.965  80.640  73.177  1.00  0.00     0.004 A 
ATOM     28  C   UNL     1      63.558  81.715  75.302  1.00  0.00     0.004 A 
ATOM     29  C   UNL     1      65.198  80.183  73.643  1.00  0.00     0.000 A 
ATOM     30  C   UNL     1      64.791  81.258  75.768  1.00  0.00     0.000 A 
ATOM     31  C   UNL     1      65.611  80.493  74.939  1.00  0.00     0.000 A 
ENDBRANCH  25  26
ENDBRANCH   7  25
BRANCH  14  32
ATOM     32  C   UNL     1      62.710  82.651  69.226  1.00  0.00    -0.046 C 
ATOM     33  C   UNL     1      63.427  83.374  68.125  1.00  0.00     0.042 C 
ATOM     34  C   UNL     1      62.579  81.316  69.229  1.00  0.00     0.010 C 
ENDBRANCH  14  32
ENDBRANCH   3   4
BRANCH   2  35
ATOM     35  C   UNL     1      62.863  88.321  73.403  1.00  0.00     0.078 CG0
ATOM     36  G   UNL     1      61.489  87.968  72.834  1.00  0.00     0.000 G0
ENDBRANCH   2  35
ENDBRANCH   1   2
BRANCH   1  37
ATOM     37  O   UNL     1      64.857  87.401  75.534  1.00  0.00    -0.461 OA
BRANCH  37  38
ATOM     38  C   UNL     1      65.282  86.218  76.095  1.00  0.00     0.310 C 
ATOM     39  O   UNL     1      64.819  85.115  75.841  1.00  0.00    -0.252 OA
BRANCH  38  40
ATOM     40  C   UNL     1      66.403  86.496  77.068  1.00  0.00     0.158 C 
BRANCH  40  41
ATOM     41  C   UNL     1      65.970  86.394  78.508  1.00  0.00    -0.033 A 
ATOM     42  C   UNL     1      64.805  87.035  78.933  1.00  0.00     0.054 A 
ATOM     43  C   UNL     1      66.732  85.660  79.416  1.00  0.00     0.008 A 
ATOM     44  C   UNL     1      64.404  86.942  80.265  1.00  0.00     0.160 A 
ATOM     45  C   UNL     1      66.331  85.566  80.749  1.00  0.00     0.050 A 
ATOM     46  C   UNL     1      65.168  86.207  81.174  1.00  0.00     0.157 A 
BRANCH  44  47
ATOM     47  O   UNL     1      63.266  87.572  80.668  1.00  0.00    -0.493 OA
ATOM     48  C   UNL     1      63.284  88.998  80.679  1.00  0.00     0.278 C 
ENDBRANCH  44  47
BRANCH  46  49
ATOM     49  O   UNL     1      64.786  86.108  82.477  1.00  0.00    -0.504 OA
ATOM     50  H   UNL     1      65.459  85.607  82.967  1.00  0.00     0.293 HD
ENDBRANCH  46  49
ENDBRANCH  40  41
ENDBRANCH  38  40
ENDBRANCH  37  38
ENDBRANCH   1  37
TORSDOF 11
ENDMDL
MODEL 2
REMARK VINA RESULT:    -6.813      2.061      5.166
REMARK INTER + INTRA:         -13.103
REMARK INTER:                 -12.307
REMARK INTRA:                  -0.796
REMARK UNBOUND:                -1.111
REMARK SMILES C=C(C)[C@]12C[C@@H](C)[C@@]34O[C@](Cc5ccccc5)(O[C@@H]1[C@@H]3C=C(COC(=O)Cc1ccc(O)c(OC)c1)C[C@]1(O)C(=O)C(C)=C[C@@H]41)O2
REMARK SMILES IDX 23 1 22 2 21 3 20 4 9 5 8 6 10 7 6 8 18 9 46 10 19 11 5 12
REMARK SMILES IDX 7 13 4 14 45 15 38 16 44 17 40 18 42 20 41 21 43 22 39 23
REMARK SMILES IDX 11 25 12 26 13 27 17 28 14 29 16 30 15 31 2 32 3 33 1 34
REMARK SMILES IDX 37 35 24 37 25 38 26 39 27 40 28 41 36 42 29 43 33 44 30 45
REMARK SMILES IDX 31 46 34 47 35 48 32 49
REMARK H PARENT 39 24 32 50
REMARK Flexibility Score: 90.00
ROOT
ATOM      1  C   UNL     1      64.179  87.245  75.966  1.00  0.00     0.264 C 
ENDROOT
BRANCH   1   2
ATOM      2  C   UNL     1      63.414  86.181  75.214  1.00  0.00    -0.033 C 
ATOM      3  C   UNL     1      62.528  86.550  74.268  1.00  0.00    -0.015 C 
BRANCH   3   4
ATOM      4  C   UNL     1      61.590  85.691  73.436  1.00  0.00     0.078 C 
ATOM      5  O   UNL     1      62.785  85.140  71.341  1.00  0.00    -0.319 OA
ATOM      6  C   UNL     1      62.211  84.549  72.547  1.00  0.00     0.095 C 
ATOM      7  C   UNL     1      61.987  86.163  70.716  1.00  0.00     0.289 C 
ATOM      8  C   UNL     1      61.037  83.565  72.141  1.00  0.00     0.023 C 
ATOM      9  O   UNL     1      61.711  87.229  71.621  1.00  0.00    -0.320 OA
ATOM     10  O   UNL     1      60.715  85.676  70.296  1.00  0.00    -0.313 OA
ATOM     11  C   UNL     1      60.760  86.587  72.484  1.00  0.00     0.170 C 
ATOM     12  C   UNL     1      59.688  84.328  71.967  1.00  0.00     0.049 C 
ATOM     13  C   UNL     1      61.301  82.702  70.897  1.00  0.00     0.011 C 
ATOM     14  C   UNL     1      59.907  85.763  71.488  1.00  0.00     0.122 C 
BRANCH   6  15
ATOM     15  C   UNL     1      63.421  83.885  73.268  1.00  0.00     0.086 C 
ATOM     16  C   UNL     1      63.244  83.604  74.774  1.00  0.00     0.140 CG0
ATOM     17  C   UNL     1      63.978  82.595  72.734  1.00  0.00    -0.010 C 
ATOM     18  C   UNL     1      64.030  82.324  74.962  1.00  0.00     0.190 C 
ATOM     19  G   UNL     1      63.772  84.747  75.641  1.00  0.00     0.000 G0
ATOM     20  C   UNL     1      64.355  81.708  73.661  1.00  0.00    -0.008 C 
ATOM     21  O   UNL     1      64.322  81.822  76.037  1.00  0.00    -0.291 OA
ATOM     22  C   UNL     1      65.010  80.393  73.508  1.00  0.00     0.048 C 
BRANCH  16  23
ATOM     23  O   UNL     1      61.921  83.246  75.140  1.00  0.00    -0.381 OA
ATOM     24  H   UNL     1      61.879  83.174  76.108  1.00  0.00     0.212 HD
ENDBRANCH  16  23
ENDBRANCH   6  15
BRANCH   7  25
ATOM     25  C   UNL     1      62.746  86.693  69.517  1.00  0.00     0.135 C 
BRANCH  25  26
ATOM     26  C   UNL     1      63.365  85.583  68.704  1.00  0.00    -0.040 A 
ATOM     27  C   UNL     1      62.549  84.643  68.073  1.00  0.00     0.004 A 
ATOM     28  C   UNL     1      64.751  85.497  68.581  1.00  0.00     0.004 A 
ATOM     29  C   UNL     1      63.120  83.616  67.321  1.00  0.00     0.000 A 
ATOM     30  C   UNL     1      65.323  84.470  67.829  1.00  0.00     0.000 A 
ATOM     31  C   UNL     1      64.507  83.530  67.199  1.00  0.00     0.000 A 
ENDBRANCH  25  26
ENDBRANCH   7  25
BRANCH  14  32
ATOM     32  C   UNL     1      58.628  86.454  71.140  1.00  0.00    -0.046 C 
ATOM     33  C   UNL     1      57.398  85.596  71.115  1.00  0.00     0.042 C 
ATOM     34  C   UNL     1      58.583  87.766  70.864  1.00  0.00     0.010 C 
ENDBRANCH  14  32
ENDBRANCH   3   4
BRANCH   2  35
ATOM     35  C   UNL     1      63.774  84.772  75.647  1.00  0.00     0.078 CG0
ATOM     36  G   UNL     1      63.264  83.623  74.779  1.00  0.00     0.000 G0
ENDBRANCH   2  35
ENDBRANCH   1   2
BRANCH   1  37
ATOM     37  O   UNL     1      64.790  86.668  77.100  1.00  0.00    -0.461 OA
BRANCH  37  38
ATOM     38  C   UNL     1      65.070  87.523  78.141  1.00  0.00     0.310 C 
ATOM     39  O   UNL     1      65.829  88.480  78.079  1.00  0.00    -0.252 OA
BRANCH  38  40
ATOM     40  C   UNL     1      64.297  87.095  79.366  1.00  0.00     0.158 C 
BRANCH  40  41
ATOM     41  C   UNL     1      65.158  86.407  80.394  1.00  0.00    -0.033 A 
ATOM     42  C   UNL     1      64.777  86.406  81.736  1.00  0.00     0.054 A 
ATOM     43  C   UNL     1      66.336  85.770  80.004  1.00  0.00     0.008 A 
ATOM     44  C   UNL     1      65.574  85.769  82.688  1.00  0.00     0.160 A 
ATOM     45  C   UNL     1      67.133  85.133  80.955  1.00  0.00     0.050 A 
ATOM     46  C   UNL     1      66.753  85.133  82.297  1.00  0.00     0.157 A 
BRANCH  44  47
ATOM     47  O   UNL     1      65.191  85.776  83.995  1.00  0.00    -0.493 OA
ATOM     48  C   UNL     1      63.868  85.328  84.285  1.00  0.00     0.278 C 
ENDBRANCH  44  47
BRANCH  46  49
ATOM     49  O   UNL     1      67.538  84.507  83.216  1.00  0.00    -0.504 OA
ATOM     50  H   UNL     1      68.424  84.907  83.201  1.00  0.00     0.293 HD
ENDBRANCH  46  49
ENDBRANCH  40  41
ENDBRANCH  38  40
ENDBRANCH  37  38
ENDBRANCH   1  37
TORSDOF 11
ENDMDL
MODEL 3
REMARK VINA RESULT:    -6.763      2.615      4.797
REMARK INTER + INTRA:         -13.015
REMARK INTER:                 -11.495
REMARK INTRA:                  -1.519
REMARK UNBOUND:                -1.111
REMARK SMILES C=C(C)[C@]12C[C@@H](C)[C@@]34O[C@](Cc5ccccc5)(O[C@@H]1[C@@H]3C=C(COC(=O)Cc1ccc(O)c(OC)c1)C[C@]1(O)C(=O)C(C)=C[C@@H]41)O2
REMARK SMILES IDX 23 1 22 2 21 3 20 4 9 5 8 6 10 7 6 8 18 9 46 10 19 11 5 12
REMARK SMILES IDX 7 13 4 14 45 15 38 16 44 17 40 18 42 20 41 21 43 22 39 23
REMARK SMILES IDX 11 25 12 26 13 27 17 28 14 29 16 30 15 31 2 32 3 33 1 34
REMARK SMILES IDX 37 35 24 37 25 38 26 39 27 40 28 41 36 42 29 43 33 44 30 45
REMARK SMILES IDX 31 46 34 47 35 48 32 49
REMARK H PARENT 39 24 32 50
REMARK Flexibility Score: 90.00
ROOT
ATOM      1  C   UNL     1      64.199  88.021  74.839  1.00  0.00     0.264 C 
ENDROOT
BRANCH   1   2
ATOM      2  C   UNL     1      63.127  87.578  73.871  1.00  0.00    -0.033 C 
ATOM      3  C   UNL     1      63.319  86.460  73.141  1.00  0.00    -0.015 C 
BRANCH   3   4
ATOM      4  C   UNL     1      62.442  85.853  72.059  1.00  0.00     0.078 C 
ATOM      5  O   UNL     1      60.937  84.236  73.173  1.00  0.00    -0.319 OA
ATOM      6  C   UNL     1      60.953  85.487  72.419  1.00  0.00     0.095 C 
ATOM      7  C   UNL     1      61.816  83.207  72.680  1.00  0.00     0.289 C 
ATOM      8  C   UNL     1      60.166  85.287  71.058  1.00  0.00     0.023 C 
ATOM      9  O   UNL     1      63.167  83.658  72.635  1.00  0.00    -0.320 OA
ATOM     10  O   UNL     1      61.496  82.816  71.347  1.00  0.00    -0.313 OA
ATOM     11  C   UNL     1      63.095  84.557  71.518  1.00  0.00     0.170 C 
ATOM     12  C   UNL     1      61.087  84.695  69.947  1.00  0.00     0.049 C 
ATOM     13  C   UNL     1      58.880  84.450  71.156  1.00  0.00     0.011 C 
ATOM     14  C   UNL     1      62.174  83.795  70.533  1.00  0.00     0.122 C 
BRANCH   6  15
ATOM     15  C   UNL     1      60.347  86.537  73.394  1.00  0.00     0.086 C 
ATOM     16  C   UNL     1      60.676  88.014  73.093  1.00  0.00     0.140 CG0
ATOM     17  C   UNL     1      58.863  86.550  73.633  1.00  0.00    -0.010 C 
ATOM     18  C   UNL     1      59.411  88.724  73.526  1.00  0.00     0.190 C 
ATOM     19  G   UNL     1      61.909  88.498  73.854  1.00  0.00     0.000 G0
ATOM     20  C   UNL     1      58.312  87.764  73.739  1.00  0.00    -0.008 C 
ATOM     21  O   UNL     1      59.281  89.934  73.640  1.00  0.00    -0.291 OA
ATOM     22  C   UNL     1      56.921  88.152  74.050  1.00  0.00     0.048 C 
BRANCH  16  23
ATOM     23  O   UNL     1      60.773  88.310  71.709  1.00  0.00    -0.381 OA
ATOM     24  H   UNL     1      60.150  89.027  71.504  1.00  0.00     0.212 HD
ENDBRANCH  16  23
ENDBRANCH   6  15
BRANCH   7  25
ATOM     25  C   UNL     1      61.707  82.007  73.599  1.00  0.00     0.135 C 
BRANCH  25  26
ATOM     26  C   UNL     1      63.061  81.463  73.981  1.00  0.00    -0.040 A 
ATOM     27  C   UNL     1      63.586  81.727  75.247  1.00  0.00     0.004 A 
ATOM     28  C   UNL     1      63.787  80.695  73.071  1.00  0.00     0.004 A 
ATOM     29  C   UNL     1      64.838  81.224  75.601  1.00  0.00     0.000 A 
ATOM     30  C   UNL     1      65.039  80.192  73.426  1.00  0.00     0.000 A 
ATOM     31  C   UNL     1      65.564  80.457  74.690  1.00  0.00     0.000 A 
ENDBRANCH  25  26
ENDBRANCH   7  25
BRANCH  14  32
ATOM     32  C   UNL     1      62.952  83.074  69.481  1.00  0.00    -0.046 C 
ATOM     33  C   UNL     1      63.736  83.932  68.533  1.00  0.00     0.042 C 
ATOM     34  C   UNL     1      62.950  81.736  69.389  1.00  0.00     0.010 C 
ENDBRANCH  14  32
ENDBRANCH   3   4
BRANCH   2  35
ATOM     35  C   UNL     1      61.919  88.496  73.859  1.00  0.00     0.078 CG0
ATOM     36  G   UNL     1      60.687  88.020  73.091  1.00  0.00     0.000 G0
ENDBRANCH   2  35
ENDBRANCH   1   2
BRANCH   1  37
ATOM     37  O   UNL     1      65.232  87.060  74.864  1.00  0.00    -0.461 OA
BRANCH  37  38
ATOM     38  C   UNL     1      66.517  87.549  74.908  1.00  0.00     0.310 C 
ATOM     39  O   UNL     1      67.412  87.109  75.616  1.00  0.00    -0.252 OA
BRANCH  38  40
ATOM     40  C   UNL     1      66.649  88.708  73.949  1.00  0.00     0.158 C 
BRANCH  40  41
ATOM     41  C   UNL     1      67.005  88.277  72.549  1.00  0.00    -0.033 A 
ATOM     42  C   UNL     1      67.581  89.188  71.663  1.00  0.00     0.054 A 
ATOM     43  C   UNL     1      66.759  86.966  72.140  1.00  0.00     0.008 A 
ATOM     44  C   UNL     1      67.910  88.788  70.368  1.00  0.00     0.160 A 
ATOM     45  C   UNL     1      67.088  86.567  70.844  1.00  0.00     0.050 A 
ATOM     46  C   UNL     1      67.663  87.477  69.958  1.00  0.00     0.157 A 
BRANCH  44  47
ATOM     47  O   UNL     1      68.471  89.687  69.512  1.00  0.00    -0.493 OA
ATOM     48  C   UNL     1      69.896  89.702  69.430  1.00  0.00     0.278 C 
ENDBRANCH  44  47
BRANCH  46  49
ATOM     49  O   UNL     1      67.981  87.076  68.697  1.00  0.00    -0.504 OA
ATOM     50  H   UNL     1      68.755  87.578  68.390  1.00  0.00     0.293 HD
ENDBRANCH  46  49
ENDBRANCH  40  41
ENDBRANCH  38  40
ENDBRANCH  37  38
ENDBRANCH   1  37
TORSDOF 11
ENDMDL
MODEL 4
REMARK VINA RESULT:    -6.408     32.683     35.054
REMARK INTER + INTRA:         -12.390
REMARK INTER:                 -11.310
REMARK INTRA:                  -1.080
REMARK UNBOUND:                -1.111
REMARK SMILES C=C(C)[C@]12C[C@@H](C)[C@@]34O[C@](Cc5ccccc5)(O[C@@H]1[C@@H]3C=C(COC(=O)Cc1ccc(O)c(OC)c1)C[C@]1(O)C(=O)C(C)=C[C@@H]41)O2
REMARK SMILES IDX 23 1 22 2 21 3 20 4 9 5 8 6 10 7 6 8 18 9 46 10 19 11 5 12
REMARK SMILES IDX 7 13 4 14 45 15 38 16 44 17 40 18 42 20 41 21 43 22 39 23
REMARK SMILES IDX 11 25 12 26 13 27 17 28 14 29 16 30 15 31 2 32 3 33 1 34
REMARK SMILES IDX 37 35 24 37 25 38 26 39 27 40 28 41 36 42 29 43 33 44 30 45
REMARK SMILES IDX 31 46 34 47 35 48 32 49
REMARK H PARENT 39 24 32 50
REMARK Flexibility Score: 90.00
ROOT
ATOM      1  C   UNL     1      95.229  87.346  86.807  1.00  0.00     0.264 C 
ENDROOT
BRANCH   1   2
ATOM      2  C   UNL     1      94.857  85.927  86.444  1.00  0.00    -0.033 C 
ATOM      3  C   UNL     1      95.648  85.233  85.602  1.00  0.00    -0.015 C 
BRANCH   3   4
ATOM      4  C   UNL     1      95.457  83.839  85.027  1.00  0.00     0.078 C 
ATOM      5  O   UNL     1      96.624  82.269  86.541  1.00  0.00    -0.319 OA
ATOM      6  C   UNL     1      95.306  82.631  86.026  1.00  0.00     0.095 C 
ATOM      7  C   UNL     1      97.683  82.247  85.565  1.00  0.00     0.289 C 
ATOM      8  C   UNL     1      94.707  81.409  85.215  1.00  0.00     0.023 C 
ATOM      9  O   UNL     1      97.813  83.508  84.915  1.00  0.00    -0.320 OA
ATOM     10  O   UNL     1      97.441  81.302  84.526  1.00  0.00    -0.313 OA
ATOM     11  C   UNL     1      96.638  83.489  84.089  1.00  0.00     0.170 C 
ATOM     12  C   UNL     1      95.199  81.409  83.735  1.00  0.00     0.049 C 
ATOM     13  C   UNL     1      94.950  80.023  85.834  1.00  0.00     0.011 C 
ATOM     14  C   UNL     1      96.595  82.019  83.603  1.00  0.00     0.122 C 
BRANCH   6  15
ATOM     15  C   UNL     1      94.499  83.056  87.288  1.00  0.00     0.086 C 
ATOM     16  C   UNL     1      93.262  83.943  87.036  1.00  0.00     0.140 CG0
ATOM     17  C   UNL     1      93.988  81.999  88.225  1.00  0.00    -0.010 C 
ATOM     18  C   UNL     1      92.305  83.480  88.115  1.00  0.00     0.190 C 
ATOM     19  G   UNL     1      93.587  85.432  87.142  1.00  0.00     0.000 G0
ATOM     20  C   UNL     1      92.769  82.222  88.729  1.00  0.00    -0.008 C 
ATOM     21  O   UNL     1      91.258  84.032  88.417  1.00  0.00    -0.291 OA
ATOM     22  C   UNL     1      91.997  81.453  89.727  1.00  0.00     0.048 C 
BRANCH  16  23
ATOM     23  O   UNL     1      92.579  83.647  85.829  1.00  0.00    -0.381 OA
ATOM     24  H   UNL     1      91.738  84.132  85.825  1.00  0.00     0.212 HD
ENDBRANCH  16  23
ENDBRANCH   6  15
BRANCH   7  25
ATOM     25  C   UNL     1      98.976  81.900  86.274  1.00  0.00     0.135 C 
BRANCH  25  26
ATOM     26  C   UNL     1      99.685  80.740  85.620  1.00  0.00    -0.040 A 
ATOM     27  C   UNL     1      99.343  79.431  85.963  1.00  0.00     0.004 A 
ATOM     28  C   UNL     1     100.681  80.974  84.672  1.00  0.00     0.004 A 
ATOM     29  C   UNL     1      99.998  78.358  85.358  1.00  0.00     0.000 A 
ATOM     30  C   UNL     1     101.336  79.901  84.068  1.00  0.00     0.000 A 
ATOM     31  C   UNL     1     100.995  78.593  84.412  1.00  0.00     0.000 A 
ENDBRANCH  25  26
ENDBRANCH   7  25
BRANCH  14  32
ATOM     32  C   UNL     1      97.162  81.865  82.229  1.00  0.00    -0.046 C 
ATOM     33  C   UNL     1      98.066  80.688  82.013  1.00  0.00     0.042 C 
ATOM     34  C   UNL     1      96.878  82.731  81.244  1.00  0.00     0.010 C 
ENDBRANCH  14  32
ENDBRANCH   3   4
BRANCH   2  35
ATOM     35  C   UNL     1      93.583  85.455  87.119  1.00  0.00     0.078 CG0
ATOM     36  G   UNL     1      93.270  83.961  87.055  1.00  0.00     0.000 G0
ENDBRANCH   2  35
ENDBRANCH   1   2
BRANCH   1  37
ATOM     37  O   UNL     1      95.045  87.537  88.193  1.00  0.00    -0.461 OA
BRANCH  37  38
ATOM     38  C   UNL     1      94.796  88.827  88.601  1.00  0.00     0.310 C 
ATOM     39  O   UNL     1      95.627  89.724  88.642  1.00  0.00    -0.252 OA
BRANCH  38  40
ATOM     40  C   UNL     1      93.342  88.961  88.990  1.00  0.00     0.158 C 
BRANCH  40  41
ATOM     41  C   UNL     1      93.118  89.970  90.087  1.00  0.00    -0.033 A 
ATOM     42  C   UNL     1      92.497  91.186  89.799  1.00  0.00     0.054 A 
ATOM     43  C   UNL     1      93.529  89.687  91.389  1.00  0.00     0.008 A 
ATOM     44  C   UNL     1      92.289  92.120  90.815  1.00  0.00     0.160 A 
ATOM     45  C   UNL     1      93.321  90.621  92.404  1.00  0.00     0.050 A 
ATOM     46  C   UNL     1      92.702  91.837  92.118  1.00  0.00     0.157 A 
BRANCH  44  47
ATOM     47  O   UNL     1      91.683  93.304  90.522  1.00  0.00    -0.493 OA
ATOM     48  C   UNL     1      92.180  94.026  89.396  1.00  0.00     0.278 C 
ENDBRANCH  44  47
BRANCH  46  49
ATOM     49  O   UNL     1      92.503  92.740  93.117  1.00  0.00    -0.504 OA
ATOM     50  H   UNL     1      93.349  92.907  93.566  1.00  0.00     0.293 HD
ENDBRANCH  46  49
ENDBRANCH  40  41
ENDBRANCH  38  40
ENDBRANCH  37  38
ENDBRANCH   1  37
TORSDOF 11
ENDMDL
MODEL 5
REMARK VINA RESULT:    -6.331     29.604     34.269
REMARK INTER + INTRA:         -12.253
REMARK INTER:                 -10.545
REMARK INTRA:                  -1.708
REMARK UNBOUND:                -1.111
REMARK SMILES C=C(C)[C@]12C[C@@H](C)[C@@]34O[C@](Cc5ccccc5)(O[C@@H]1[C@@H]3C=C(COC(=O)Cc1ccc(O)c(OC)c1)C[C@]1(O)C(=O)C(C)=C[C@@H]41)O2
REMARK SMILES IDX 23 1 22 2 21 3 20 4 9 5 8 6 10 7 6 8 18 9 46 10 19 11 5 12
REMARK SMILES IDX 7 13 4 14 45 15 38 16 44 17 40 18 42 20 41 21 43 22 39 23
REMARK SMILES IDX 11 25 12 26 13 27 17 28 14 29 16 30 15 31 2 32 3 33 1 34
REMARK SMILES IDX 37 35 24 37 25 38 26 39 27 40 28 41 36 42 29 43 33 44 30 45
REMARK SMILES IDX 31 46 34 47 35 48 32 49
REMARK H PARENT 39 24 32 50
REMARK Flexibility Score: 90.00
ROOT
ATOM      1  C   UNL     1      90.924  81.689  84.844  1.00  0.00     0.264 C 
ENDROOT
BRANCH   1   2
ATOM      2  C   UNL     1      92.254  81.999  85.491  1.00  0.00    -0.033 C 
ATOM      3  C   UNL     1      93.343  81.290  85.133  1.00  0.00    -0.015 C 
BRANCH   3   4
ATOM      4  C   UNL     1      94.759  81.353  85.681  1.00  0.00     0.078 C 
ATOM      5  O   UNL     1      96.001  82.974  84.285  1.00  0.00    -0.319 OA
ATOM      6  C   UNL     1      95.516  82.733  85.642  1.00  0.00     0.095 C 
ATOM      7  C   UNL     1      96.583  81.834  83.626  1.00  0.00     0.289 C 
ATOM      8  C   UNL     1      96.752  82.630  86.629  1.00  0.00     0.023 C 
ATOM      9  O   UNL     1      95.660  80.749  83.561  1.00  0.00    -0.320 OA
ATOM     10  O   UNL     1      97.721  81.330  84.320  1.00  0.00    -0.313 OA
ATOM     11  C   UNL     1      95.658  80.336  84.936  1.00  0.00     0.170 C 
ATOM     12  C   UNL     1      97.337  81.185  86.664  1.00  0.00     0.049 C 
ATOM     13  C   UNL     1      97.887  83.635  86.372  1.00  0.00     0.011 C 
ATOM     14  C   UNL     1      97.152  80.467  85.327  1.00  0.00     0.122 C 
BRANCH   6  15
ATOM     15  C   UNL     1      94.535  83.909  85.919  1.00  0.00     0.086 C 
ATOM     16  C   UNL     1      93.508  83.686  87.048  1.00  0.00     0.140 CG0
ATOM     17  C   UNL     1      95.088  85.275  86.215  1.00  0.00    -0.010 C 
ATOM     18  C   UNL     1      93.364  85.073  87.638  1.00  0.00     0.190 C 
ATOM     19  G   UNL     1      92.184  83.133  86.522  1.00  0.00     0.000 G0
ATOM     20  C   UNL     1      94.436  85.965  87.156  1.00  0.00    -0.008 C 
ATOM     21  O   UNL     1      92.514  85.414  88.446  1.00  0.00    -0.291 OA
ATOM     22  C   UNL     1      94.642  87.346  87.638  1.00  0.00     0.048 C 
BRANCH  16  23
ATOM     23  O   UNL     1      94.001  82.909  88.127  1.00  0.00    -0.381 OA
ATOM     24  H   UNL     1      93.478  83.116  88.919  1.00  0.00     0.212 HD
ENDBRANCH  16  23
ENDBRANCH   6  15
BRANCH   7  25
ATOM     25  C   UNL     1      96.986  82.248  82.226  1.00  0.00     0.135 C 
BRANCH  25  26
ATOM     26  C   UNL     1      97.924  81.252  81.590  1.00  0.00    -0.040 A 
ATOM     27  C   UNL     1      97.493  79.947  81.345  1.00  0.00     0.004 A 
ATOM     28  C   UNL     1      99.219  81.634  81.245  1.00  0.00     0.004 A 
ATOM     29  C   UNL     1      98.359  79.025  80.756  1.00  0.00     0.000 A 
ATOM     30  C   UNL     1     100.086  80.712  80.656  1.00  0.00     0.000 A 
ATOM     31  C   UNL     1      99.655  79.408  80.413  1.00  0.00     0.000 A 
ENDBRANCH  25  26
ENDBRANCH   7  25
BRANCH  14  32
ATOM     32  C   UNL     1      97.862  79.154  85.277  1.00  0.00    -0.046 C 
ATOM     33  C   UNL     1      99.082  79.093  84.406  1.00  0.00     0.042 C 
ATOM     34  C   UNL     1      97.433  78.089  85.971  1.00  0.00     0.010 C 
ENDBRANCH  14  32
ENDBRANCH   3   4
BRANCH   2  35
ATOM     35  C   UNL     1      92.175  83.129  86.500  1.00  0.00     0.078 CG0
ATOM     36  G   UNL     1      93.495  83.685  87.032  1.00  0.00     0.000 G0
ENDBRANCH   2  35
ENDBRANCH   1   2
BRANCH   1  37
ATOM     37  O   UNL     1      90.011  81.268  85.834  1.00  0.00    -0.461 OA
BRANCH  37  38
ATOM     38  C   UNL     1      89.239  80.173  85.523  1.00  0.00     0.310 C 
ATOM     39  O   UNL     1      88.192  79.870  86.078  1.00  0.00    -0.252 OA
BRANCH  38  40
ATOM     40  C   UNL     1      89.884  79.405  84.393  1.00  0.00     0.158 C 
BRANCH  40  41
ATOM     41  C   UNL     1      90.588  78.156  84.857  1.00  0.00    -0.033 A 
ATOM     42  C   UNL     1      91.540  78.230  85.874  1.00  0.00     0.054 A 
ATOM     43  C   UNL     1      90.288  76.927  84.270  1.00  0.00     0.008 A 
ATOM     44  C   UNL     1      92.192  77.074  86.304  1.00  0.00     0.160 A 
ATOM     45  C   UNL     1      90.940  75.771  84.700  1.00  0.00     0.050 A 
ATOM     46  C   UNL     1      91.892  75.844  85.716  1.00  0.00     0.157 A 
BRANCH  44  47
ATOM     47  O   UNL     1      93.120  77.158  87.298  1.00  0.00    -0.493 OA
ATOM     48  C   UNL     1      92.632  77.321  88.628  1.00  0.00     0.278 C 
ENDBRANCH  44  47
BRANCH  46  49
ATOM     49  O   UNL     1      92.521  74.709  86.128  1.00  0.00    -0.504 OA
ATOM     50  H   UNL     1      92.581  74.091  85.380  1.00  0.00     0.293 HD
ENDBRANCH  46  49
ENDBRANCH  40  41
ENDBRANCH  38  40
ENDBRANCH  37  38
ENDBRANCH   1  37
TORSDOF 11
ENDMDL
MODEL 6
REMARK VINA RESULT:    -6.214      2.898      6.006
REMARK INTER + INTRA:         -12.048
REMARK INTER:                 -11.473
REMARK INTRA:                  -0.575
REMARK UNBOUND:                -1.111
REMARK SMILES C=C(C)[C@]12C[C@@H](C)[C@@]34O[C@](Cc5ccccc5)(O[C@@H]1[C@@H]3C=C(COC(=O)Cc1ccc(O)c(OC)c1)C[C@]1(O)C(=O)C(C)=C[C@@H]41)O2
REMARK SMILES IDX 23 1 22 2 21 3 20 4 9 5 8 6 10 7 6 8 18 9 46 10 19 11 5 12
REMARK SMILES IDX 7 13 4 14 45 15 38 16 44 17 40 18 42 20 41 21 43 22 39 23
REMARK SMILES IDX 11 25 12 26 13 27 17 28 14 29 16 30 15 31 2 32 3 33 1 34
REMARK SMILES IDX 37 35 24 37 25 38 26 39 27 40 28 41 36 42 29 43 33 44 30 45
REMARK SMILES IDX 31 46 34 47 35 48 32 49
REMARK H PARENT 39 24 32 50
REMARK Flexibility Score: 90.00
ROOT
ATOM      1  C   UNL     1      63.280  86.622  76.781  1.00  0.00     0.264 C 
ENDROOT
BRANCH   1   2
ATOM      2  C   UNL     1      62.771  85.569  75.825  1.00  0.00    -0.033 C 
ATOM      3  C   UNL     1      61.943  85.932  74.825  1.00  0.00    -0.015 C 
BRANCH   3   4
ATOM      4  C   UNL     1      61.240  85.066  73.792  1.00  0.00     0.078 C 
ATOM      5  O   UNL     1      62.710  84.982  71.804  1.00  0.00    -0.319 OA
ATOM      6  C   UNL     1      62.119  84.157  72.855  1.00  0.00     0.095 C 
ATOM      7  C   UNL     1      61.826  85.954  71.213  1.00  0.00     0.289 C 
ATOM      8  C   UNL     1      61.162  83.078  72.198  1.00  0.00     0.023 C 
ATOM      9  O   UNL     1      61.296  86.837  72.199  1.00  0.00    -0.320 OA
ATOM     10  O   UNL     1      60.696  85.349  70.591  1.00  0.00    -0.313 OA
ATOM     11  C   UNL     1      60.378  85.954  72.861  1.00  0.00     0.170 C 
ATOM     12  C   UNL     1      59.733  83.654  71.955  1.00  0.00     0.049 C 
ATOM     13  C   UNL     1      61.682  82.437  70.900  1.00  0.00     0.011 C 
ATOM     14  C   UNL     1      59.769  85.158  71.679  1.00  0.00     0.122 C 
BRANCH   6  15
ATOM     15  C   UNL     1      63.341  83.583  73.630  1.00  0.00     0.086 C 
ATOM     16  C   UNL     1      63.060  83.074  75.060  1.00  0.00     0.140 CG0
ATOM     17  C   UNL     1      64.148  82.474  73.017  1.00  0.00    -0.010 C 
ATOM     18  C   UNL     1      64.018  81.908  75.184  1.00  0.00     0.190 C 
ATOM     19  G   UNL     1      63.309  84.151  76.115  1.00  0.00     0.000 G0
ATOM     20  C   UNL     1      64.567  81.532  73.868  1.00  0.00    -0.008 C 
ATOM     21  O   UNL     1      64.276  81.312  76.219  1.00  0.00    -0.291 OA
ATOM     22  C   UNL     1      65.436  80.359  73.638  1.00  0.00     0.048 C 
BRANCH  16  23
ATOM     23  O   UNL     1      61.782  82.481  75.217  1.00  0.00    -0.381 OA
ATOM     24  H   UNL     1      61.904  81.544  75.442  1.00  0.00     0.212 HD
ENDBRANCH  16  23
ENDBRANCH   6  15
BRANCH   7  25
ATOM     25  C   UNL     1      62.608  86.745  70.184  1.00  0.00     0.135 C 
BRANCH  25  26
ATOM     26  C   UNL     1      63.006  85.896  69.002  1.00  0.00    -0.040 A 
ATOM     27  C   UNL     1      62.161  85.803  67.895  1.00  0.00     0.004 A 
ATOM     28  C   UNL     1      64.218  85.207  69.014  1.00  0.00     0.004 A 
ATOM     29  C   UNL     1      62.529  85.019  66.802  1.00  0.00     0.000 A 
ATOM     30  C   UNL     1      64.585  84.422  67.920  1.00  0.00     0.000 A 
ATOM     31  C   UNL     1      63.740  84.329  66.814  1.00  0.00     0.000 A 
ENDBRANCH  25  26
ENDBRANCH   7  25
BRANCH  14  32
ATOM     32  C   UNL     1      58.439  85.697  71.265  1.00  0.00    -0.046 C 
ATOM     33  C   UNL     1      57.316  84.706  71.190  1.00  0.00     0.042 C 
ATOM     34  C   UNL     1      58.258  86.995  70.977  1.00  0.00     0.010 C 
ENDBRANCH  14  32
ENDBRANCH   3   4
BRANCH   2  35
ATOM     35  C   UNL     1      63.295  84.179  76.135  1.00  0.00     0.078 CG0
ATOM     36  G   UNL     1      63.059  83.093  75.087  1.00  0.00     0.000 G0
ENDBRANCH   2  35
ENDBRANCH   1   2
BRANCH   1  37
ATOM     37  O   UNL     1      62.423  87.742  76.742  1.00  0.00    -0.461 OA
BRANCH  37  38
ATOM     38  C   UNL     1      61.381  87.743  77.639  1.00  0.00     0.310 C 
ATOM     39  O   UNL     1      60.342  87.109  77.510  1.00  0.00    -0.252 OA
BRANCH  38  40
ATOM     40  C   UNL     1      61.718  88.644  78.804  1.00  0.00     0.158 C 
BRANCH  40  41
ATOM     41  C   UNL     1      60.613  88.721  79.827  1.00  0.00    -0.033 A 
ATOM     42  C   UNL     1      60.394  87.653  80.698  1.00  0.00     0.054 A 
ATOM     43  C   UNL     1      59.811  89.859  79.903  1.00  0.00     0.008 A 
ATOM     44  C   UNL     1      59.372  87.725  81.644  1.00  0.00     0.160 A 
ATOM     45  C   UNL     1      58.789  89.931  80.850  1.00  0.00     0.050 A 
ATOM     46  C   UNL     1      58.569  88.864  81.720  1.00  0.00     0.157 A 
BRANCH  44  47
ATOM     47  O   UNL     1      59.167  86.676  82.489  1.00  0.00    -0.493 OA
ATOM     48  C   UNL     1      60.001  86.601  83.644  1.00  0.00     0.278 C 
ENDBRANCH  44  47
BRANCH  46  49
ATOM     49  O   UNL     1      57.569  88.945  82.641  1.00  0.00    -0.504 OA
ATOM     50  H   UNL     1      56.738  89.165  82.187  1.00  0.00     0.293 HD
ENDBRANCH  46  49
ENDBRANCH  40  41
ENDBRANCH  38  40
ENDBRANCH  37  38
ENDBRANCH   1  37
TORSDOF 11
ENDMDL
MODEL 7
REMARK VINA RESULT:    -6.074      2.343      5.536
REMARK INTER + INTRA:         -11.802
REMARK INTER:                 -11.095
REMARK INTRA:                  -0.707
REMARK UNBOUND:                -1.111
REMARK SMILES C=C(C)[C@]12C[C@@H](C)[C@@]34O[C@](Cc5ccccc5)(O[C@@H]1[C@@H]3C=C(COC(=O)Cc1ccc(O)c(OC)c1)C[C@]1(O)C(=O)C(C)=C[C@@H]41)O2
REMARK SMILES IDX 23 1 22 2 21 3 20 4 9 5 8 6 10 7 6 8 18 9 46 10 19 11 5 12
REMARK SMILES IDX 7 13 4 14 45 15 38 16 44 17 40 18 42 20 41 21 43 22 39 23
REMARK SMILES IDX 11 25 12 26 13 27 17 28 14 29 16 30 15 31 2 32 3 33 1 34
REMARK SMILES IDX 37 35 24 37 25 38 26 39 27 40 28 41 36 42 29 43 33 44 30 45
REMARK SMILES IDX 31 46 34 47 35 48 32 49
REMARK H PARENT 39 24 32 50
REMARK Flexibility Score: 90.00
ROOT
ATOM      1  C   UNL     1      65.206  86.584  75.932  1.00  0.00     0.264 C 
ENDROOT
BRANCH   1   2
ATOM      2  C   UNL     1      64.241  85.616  75.288  1.00  0.00    -0.033 C 
ATOM      3  C   UNL     1      63.406  86.059  74.327  1.00  0.00    -0.015 C 
BRANCH   3   4
ATOM      4  C   UNL     1      62.305  85.315  73.589  1.00  0.00     0.078 C 
ATOM      5  O   UNL     1      63.312  84.403  71.522  1.00  0.00    -0.319 OA
ATOM      6  C   UNL     1      62.686  84.017  72.785  1.00  0.00     0.095 C 
ATOM      7  C   UNL     1      62.682  85.498  70.831  1.00  0.00     0.289 C 
ATOM      8  C   UNL     1      61.346  83.227  72.485  1.00  0.00     0.023 C 
ATOM      9  O   UNL     1      62.627  86.663  71.651  1.00  0.00    -0.320 OA
ATOM     10  O   UNL     1      61.331  85.211  70.480  1.00  0.00    -0.313 OA
ATOM     11  C   UNL     1      61.610  86.267  72.584  1.00  0.00     0.170 C 
ATOM     12  C   UNL     1      60.144  84.199  72.277  1.00  0.00     0.049 C 
ATOM     13  C   UNL     1      61.412  82.236  71.311  1.00  0.00     0.011 C 
ATOM     14  C   UNL     1      60.592  85.532  71.677  1.00  0.00     0.122 C 
BRANCH   6  15
ATOM     15  C   UNL     1      63.786  83.209  73.532  1.00  0.00     0.086 C 
ATOM     16  C   UNL     1      63.612  83.074  75.059  1.00  0.00     0.140 CG0
ATOM     17  C   UNL     1      64.097  81.806  73.091  1.00  0.00    -0.010 C 
ATOM     18  C   UNL     1      64.172  81.694  75.331  1.00  0.00     0.190 C 
ATOM     19  G   UNL     1      64.355  84.169  75.823  1.00  0.00     0.000 G0
ATOM     20  C   UNL     1      64.346  80.937  74.077  1.00  0.00    -0.008 C 
ATOM     21  O   UNL     1      64.408  81.231  76.436  1.00  0.00    -0.291 OA
ATOM     22  C   UNL     1      64.761  79.521  74.015  1.00  0.00     0.048 C 
BRANCH  16  23
ATOM     23  O   UNL     1      62.260  82.979  75.476  1.00  0.00    -0.381 OA
ATOM     24  H   UNL     1      61.797  83.788  75.204  1.00  0.00     0.212 HD
ENDBRANCH  16  23
ENDBRANCH   6  15
BRANCH   7  25
ATOM     25  C   UNL     1      63.479  85.792  69.577  1.00  0.00     0.135 C 
BRANCH  25  26
ATOM     26  C   UNL     1      62.783  85.293  68.335  1.00  0.00    -0.040 A 
ATOM     27  C   UNL     1      62.314  86.203  67.386  1.00  0.00     0.004 A 
ATOM     28  C   UNL     1      62.609  83.924  68.134  1.00  0.00     0.004 A 
ATOM     29  C   UNL     1      61.670  85.742  66.237  1.00  0.00     0.000 A 
ATOM     30  C   UNL     1      61.966  83.464  66.985  1.00  0.00     0.000 A 
ATOM     31  C   UNL     1      61.496  84.374  66.037  1.00  0.00     0.000 A 
ENDBRANCH  25  26
ENDBRANCH   7  25
BRANCH  14  32
ATOM     32  C   UNL     1      59.442  86.407  71.299  1.00  0.00    -0.046 C 
ATOM     33  C   UNL     1      58.179  86.217  72.085  1.00  0.00     0.042 C 
ATOM     34  C   UNL     1      59.533  87.313  70.314  1.00  0.00     0.010 C 
ENDBRANCH  14  32
ENDBRANCH   3   4
BRANCH   2  35
ATOM     35  C   UNL     1      64.357  84.207  75.838  1.00  0.00     0.078 CG0
ATOM     36  G   UNL     1      63.617  83.101  75.087  1.00  0.00     0.000 G0
ENDBRANCH   2  35
ENDBRANCH   1   2
BRANCH   1  37
ATOM     37  O   UNL     1      64.490  87.486  76.747  1.00  0.00    -0.461 OA
BRANCH  37  38
ATOM     38  C   UNL     1      64.020  86.987  77.939  1.00  0.00     0.310 C 
ATOM     39  O   UNL     1      62.851  87.011  78.299  1.00  0.00    -0.252 OA
BRANCH  38  40
ATOM     40  C   UNL     1      65.168  86.408  78.731  1.00  0.00     0.158 C 
BRANCH  40  41
ATOM     41  C   UNL     1      65.342  87.061  80.078  1.00  0.00    -0.033 A 
ATOM     42  C   UNL     1      66.589  87.559  80.456  1.00  0.00     0.054 A 
ATOM     43  C   UNL     1      64.256  87.167  80.947  1.00  0.00     0.008 A 
ATOM     44  C   UNL     1      66.750  88.164  81.703  1.00  0.00     0.160 A 
ATOM     45  C   UNL     1      64.417  87.772  82.194  1.00  0.00     0.050 A 
ATOM     46  C   UNL     1      65.664  88.270  82.572  1.00  0.00     0.157 A 
BRANCH  44  47
ATOM     47  O   UNL     1      67.973  88.647  82.060  1.00  0.00    -0.493 OA
ATOM     48  C   UNL     1      68.392  89.867  81.451  1.00  0.00     0.278 C 
ENDBRANCH  44  47
BRANCH  46  49
ATOM     49  O   UNL     1      65.809  88.859  83.791  1.00  0.00    -0.504 OA
ATOM     50  H   UNL     1      65.830  88.169  84.476  1.00  0.00     0.293 HD
ENDBRANCH  46  49
ENDBRANCH  40  41
ENDBRANCH  38  40
ENDBRANCH  37  38
ENDBRANCH   1  37
TORSDOF 11
ENDMDL
MODEL 8
REMARK VINA RESULT:    -5.807     13.049     15.195
REMARK INTER + INTRA:         -11.331
REMARK INTER:                  -9.605
REMARK INTRA:                  -1.726
REMARK UNBOUND:                -1.111
REMARK SMILES C=C(C)[C@]12C[C@@H](C)[C@@]34O[C@](Cc5ccccc5)(O[C@@H]1[C@@H]3C=C(COC(=O)Cc1ccc(O)c(OC)c1)C[C@]1(O)C(=O)C(C)=C[C@@H]41)O2
REMARK SMILES IDX 23 1 22 2 21 3 20 4 9 5 8 6 10 7 6 8 18 9 46 10 19 11 5 12
REMARK SMILES IDX 7 13 4 14 45 15 38 16 44 17 40 18 42 20 41 21 43 22 39 23
REMARK SMILES IDX 11 25 12 26 13 27 17 28 14 29 16 30 15 31 2 32 3 33 1 34
REMARK SMILES IDX 37 35 24 37 25 38 26 39 27 40 28 41 36 42 29 43 33 44 30 45
REMARK SMILES IDX 31 46 34 47 35 48 32 49
REMARK H PARENT 39 24 32 50
REMARK Flexibility Score: 90.00
ROOT
ATOM      1  C   UNL     1      74.509  94.635  66.631  1.00  0.00     0.264 C 
ENDROOT
BRANCH   1   2
ATOM      2  C   UNL     1      73.911  93.314  67.053  1.00  0.00    -0.033 C 
ATOM      3  C   UNL     1      74.169  92.210  66.324  1.00  0.00    -0.015 C 
BRANCH   3   4
ATOM      4  C   UNL     1      73.635  90.797  66.490  1.00  0.00     0.078 C 
ATOM      5  O   UNL     1      75.234  89.587  67.938  1.00  0.00    -0.319 OA
ATOM      6  C   UNL     1      73.856  90.069  67.868  1.00  0.00     0.095 C 
ATOM      7  C   UNL     1      75.737  88.980  66.733  1.00  0.00     0.289 C 
ATOM      8  C   UNL     1      72.866  88.834  67.924  1.00  0.00     0.023 C 
ATOM      9  O   UNL     1      75.657  89.878  65.630  1.00  0.00    -0.320 OA
ATOM     10  O   UNL     1      74.983  87.832  66.350  1.00  0.00    -0.313 OA
ATOM     11  C   UNL     1      74.239  89.874  65.403  1.00  0.00     0.170 C 
ATOM     12  C   UNL     1      72.640  88.218  66.508  1.00  0.00     0.049 C 
ATOM     13  C   UNL     1      73.254  87.720  68.909  1.00  0.00     0.011 C 
ATOM     14  C   UNL     1      73.871  88.385  65.616  1.00  0.00     0.122 C 
BRANCH   6  15
ATOM     15  C   UNL     1      73.736  91.076  69.049  1.00  0.00     0.086 C 
ATOM     16  C   UNL     1      72.595  92.109  68.948  1.00  0.00     0.140 CG0
ATOM     17  C   UNL     1      73.612  90.553  70.453  1.00  0.00    -0.010 C 
ATOM     18  C   UNL     1      72.186  92.285  70.396  1.00  0.00     0.190 C 
ATOM     19  G   UNL     1      73.056  93.417  68.307  1.00  0.00     0.000 G0
ATOM     20  C   UNL     1      72.770  91.228  71.242  1.00  0.00    -0.008 C 
ATOM     21  O   UNL     1      71.434  93.150  70.819  1.00  0.00    -0.291 OA
ATOM     22  C   UNL     1      72.465  91.053  72.677  1.00  0.00     0.048 C 
BRANCH  16  23
ATOM     23  O   UNL     1      71.423  91.611  68.324  1.00  0.00    -0.381 OA
ATOM     24  H   UNL     1      71.666  90.839  67.786  1.00  0.00     0.212 HD
ENDBRANCH  16  23
ENDBRANCH   6  15
BRANCH   7  25
ATOM     25  C   UNL     1      77.180  88.582  66.967  1.00  0.00     0.135 C 
BRANCH  25  26
ATOM     26  C   UNL     1      77.438  87.144  66.590  1.00  0.00    -0.040 A 
ATOM     27  C   UNL     1      77.039  86.117  67.446  1.00  0.00     0.004 A 
ATOM     28  C   UNL     1      78.074  86.842  65.386  1.00  0.00     0.004 A 
ATOM     29  C   UNL     1      77.278  84.787  67.097  1.00  0.00     0.000 A 
ATOM     30  C   UNL     1      78.313  85.512  65.038  1.00  0.00     0.000 A 
ATOM     31  C   UNL     1      77.915  84.485  65.894  1.00  0.00     0.000 A 
ENDBRANCH  25  26
ENDBRANCH   7  25
BRANCH  14  32
ATOM     32  C   UNL     1      73.747  87.647  64.323  1.00  0.00    -0.046 C 
ATOM     33  C   UNL     1      74.481  86.342  64.233  1.00  0.00     0.042 C 
ATOM     34  C   UNL     1      73.021  88.123  63.301  1.00  0.00     0.010 C 
ENDBRANCH  14  32
ENDBRANCH   3   4
BRANCH   2  35
ATOM     35  C   UNL     1      73.065  93.417  68.309  1.00  0.00     0.078 CG0
ATOM     36  G   UNL     1      72.579  92.111  68.934  1.00  0.00     0.000 G0
ENDBRANCH   2  35
ENDBRANCH   1   2
BRANCH   1  37
ATOM     37  O   UNL     1      75.907  94.493  66.497  1.00  0.00    -0.461 OA
BRANCH  37  38
ATOM     38  C   UNL     1      76.670  95.553  66.929  1.00  0.00     0.310 C 
ATOM     39  O   UNL     1      76.379  96.732  66.788  1.00  0.00    -0.252 OA
BRANCH  38  40
ATOM     40  C   UNL     1      77.919  95.033  67.602  1.00  0.00     0.158 C 
BRANCH  40  41
ATOM     41  C   UNL     1      77.819  95.034  69.106  1.00  0.00    -0.033 A 
ATOM     42  C   UNL     1      76.800  94.320  69.738  1.00  0.00     0.054 A 
ATOM     43  C   UNL     1      78.746  95.746  69.866  1.00  0.00     0.008 A 
ATOM     44  C   UNL     1      76.708  94.320  71.130  1.00  0.00     0.160 A 
ATOM     45  C   UNL     1      78.654  95.747  71.258  1.00  0.00     0.050 A 
ATOM     46  C   UNL     1      77.635  95.034  71.890  1.00  0.00     0.157 A 
BRANCH  44  47
ATOM     47  O   UNL     1      75.709  93.620  71.735  1.00  0.00    -0.493 OA
ATOM     48  C   UNL     1      74.528  94.343  72.081  1.00  0.00     0.278 C 
ENDBRANCH  44  47
BRANCH  46  49
ATOM     49  O   UNL     1      77.556  95.041  73.250  1.00  0.00    -0.504 OA
ATOM     50  H   UNL     1      78.441  95.202  73.618  1.00  0.00     0.293 HD
ENDBRANCH  46  49
ENDBRANCH  40  41
ENDBRANCH  38  40
ENDBRANCH  37  38
ENDBRANCH   1  37
TORSDOF 11
ENDMDL
MODEL 9
REMARK VINA RESULT:    -5.692     11.311     13.420
REMARK INTER + INTRA:         -11.129
REMARK INTER:                  -9.621
REMARK INTRA:                  -1.508
REMARK UNBOUND:                -1.111
REMARK SMILES C=C(C)[C@]12C[C@@H](C)[C@@]34O[C@](Cc5ccccc5)(O[C@@H]1[C@@H]3C=C(COC(=O)Cc1ccc(O)c(OC)c1)C[C@]1(O)C(=O)C(C)=C[C@@H]41)O2
REMARK SMILES IDX 23 1 22 2 21 3 20 4 9 5 8 6 10 7 6 8 18 9 46 10 19 11 5 12
REMARK SMILES IDX 7 13 4 14 45 15 38 16 44 17 40 18 42 20 41 21 43 22 39 23
REMARK SMILES IDX 11 25 12 26 13 27 17 28 14 29 16 30 15 31 2 32 3 33 1 34
REMARK SMILES IDX 37 35 24 37 25 38 26 39 27 40 28 41 36 42 29 43 33 44 30 45
REMARK SMILES IDX 31 46 34 47 35 48 32 49
REMARK H PARENT 39 24 32 50
REMARK Flexibility Score: 90.00
ROOT
ATOM      1  C   UNL     1      72.690  90.649  71.976  1.00  0.00     0.264 C 
ENDROOT
BRANCH   1   2
ATOM      2  C   UNL     1      72.227  90.059  70.664  1.00  0.00    -0.033 C 
ATOM      3  C   UNL     1      73.144  89.707  69.740  1.00  0.00    -0.015 C 
BRANCH   3   4
ATOM      4  C   UNL     1      72.938  89.173  68.332  1.00  0.00     0.078 C 
ATOM      5  O   UNL     1      72.928  86.704  68.494  1.00  0.00    -0.319 OA
ATOM      6  C   UNL     1      72.097  87.855  68.147  1.00  0.00     0.095 C 
ATOM      7  C   UNL     1      74.281  86.751  68.002  1.00  0.00     0.289 C 
ATOM      8  C   UNL     1      71.682  87.760  66.621  1.00  0.00     0.023 C 
ATOM      9  O   UNL     1      74.959  87.917  68.461  1.00  0.00    -0.320 OA
ATOM     10  O   UNL     1      74.338  86.808  66.579  1.00  0.00    -0.313 OA
ATOM     11  C   UNL     1      74.310  88.917  67.661  1.00  0.00     0.170 C 
ATOM     12  C   UNL     1      72.777  88.371  65.693  1.00  0.00     0.049 C 
ATOM     13  C   UNL     1      71.315  86.353  66.122  1.00  0.00     0.011 C 
ATOM     14  C   UNL     1      74.176  88.212  66.288  1.00  0.00     0.122 C 
BRANCH   6  15
ATOM     15  C   UNL     1      70.920  87.804  69.164  1.00  0.00     0.086 C 
ATOM     16  C   UNL     1      70.148  89.122  69.378  1.00  0.00     0.140 CG0
ATOM     17  C   UNL     1      69.830  86.786  68.979  1.00  0.00    -0.010 C 
ATOM     18  C   UNL     1      68.735  88.637  69.621  1.00  0.00     0.190 C 
ATOM     19  G   UNL     1      70.700  89.931  70.551  1.00  0.00     0.000 G0
ATOM     20  C   UNL     1      68.593  87.216  69.253  1.00  0.00    -0.008 C 
ATOM     21  O   UNL     1      67.808  89.327  70.018  1.00  0.00    -0.291 OA
ATOM     22  C   UNL     1      67.311  86.482  69.262  1.00  0.00     0.048 C 
BRANCH  16  23
ATOM     23  O   UNL     1      70.037  89.918  68.209  1.00  0.00    -0.381 OA
ATOM     24  H   UNL     1      70.769  90.556  68.201  1.00  0.00     0.212 HD
ENDBRANCH  16  23
ENDBRANCH   6  15
BRANCH   7  25
ATOM     25  C   UNL     1      75.007  85.512  68.487  1.00  0.00     0.135 C 
BRANCH  25  26
ATOM     26  C   UNL     1      76.150  85.134  67.579  1.00  0.00    -0.040 A 
ATOM     27  C   UNL     1      76.102  83.942  66.856  1.00  0.00     0.004 A 
ATOM     28  C   UNL     1      77.255  85.977  67.460  1.00  0.00     0.004 A 
ATOM     29  C   UNL     1      77.159  83.592  66.015  1.00  0.00     0.000 A 
ATOM     30  C   UNL     1      78.312  85.627  66.620  1.00  0.00     0.000 A 
ATOM     31  C   UNL     1      78.264  84.435  65.898  1.00  0.00     0.000 A 
ENDBRANCH  25  26
ENDBRANCH   7  25
BRANCH  14  32
ATOM     32  C   UNL     1      75.254  88.623  65.339  1.00  0.00    -0.046 C 
ATOM     33  C   UNL     1      75.340  87.848  64.058  1.00  0.00     0.042 C 
ATOM     34  C   UNL     1      76.099  89.628  65.616  1.00  0.00     0.010 C 
ENDBRANCH  14  32
ENDBRANCH   3   4
BRANCH   2  35
ATOM     35  C   UNL     1      70.719  89.932  70.568  1.00  0.00     0.078 CG0
ATOM     36  G   UNL     1      70.157  89.160  69.376  1.00  0.00     0.000 G0
ENDBRANCH   2  35
ENDBRANCH   1   2
BRANCH   1  37
ATOM     37  O   UNL     1      72.294  92.002  72.045  1.00  0.00    -0.461 OA
BRANCH  37  38
ATOM     38  C   UNL     1      73.197  92.872  72.611  1.00  0.00     0.310 C 
ATOM     39  O   UNL     1      72.903  93.884  73.232  1.00  0.00    -0.252 OA
BRANCH  38  40
ATOM     40  C   UNL     1      74.602  92.384  72.347  1.00  0.00     0.158 C 
BRANCH  40  41
ATOM     41  C   UNL     1      75.245  93.057  71.162  1.00  0.00    -0.033 A 
ATOM     42  C   UNL     1      76.247  94.009  71.360  1.00  0.00     0.054 A 
ATOM     43  C   UNL     1      74.841  92.729  69.869  1.00  0.00     0.008 A 
ATOM     44  C   UNL     1      76.842  94.632  70.264  1.00  0.00     0.160 A 
ATOM     45  C   UNL     1      75.436  93.353  68.772  1.00  0.00     0.050 A 
ATOM     46  C   UNL     1      76.437  94.304  68.969  1.00  0.00     0.157 A 
BRANCH  44  47
ATOM     47  O   UNL     1      77.818  95.559  70.469  1.00  0.00    -0.493 OA
ATOM     48  C   UNL     1      78.042  95.978  71.814  1.00  0.00     0.278 C 
ENDBRANCH  44  47
BRANCH  46  49
ATOM     49  O   UNL     1      77.012  94.905  67.891  1.00  0.00    -0.504 OA
ATOM     50  H   UNL     1      76.321  95.343  67.366  1.00  0.00     0.293 HD
ENDBRANCH  46  49
ENDBRANCH  40  41
ENDBRANCH  38  40
ENDBRANCH  37  38
ENDBRANCH   1  37
TORSDOF 11
ENDMDL
MODEL 10
REMARK VINA RESULT:    -5.525     31.894     35.605
REMARK INTER + INTRA:         -10.836
REMARK INTER:                 -10.126
REMARK INTRA:                  -0.710
REMARK UNBOUND:                -1.111
REMARK SMILES C=C(C)[C@]12C[C@@H](C)[C@@]34O[C@](Cc5ccccc5)(O[C@@H]1[C@@H]3C=C(COC(=O)Cc1ccc(O)c(OC)c1)C[C@]1(O)C(=O)C(C)=C[C@@H]41)O2
REMARK SMILES IDX 23 1 22 2 21 3 20 4 9 5 8 6 10 7 6 8 18 9 46 10 19 11 5 12
REMARK SMILES IDX 7 13 4 14 45 15 38 16 44 17 40 18 42 20 41 21 43 22 39 23
REMARK SMILES IDX 11 25 12 26 13 27 17 28 14 29 16 30 15 31 2 32 3 33 1 34
REMARK SMILES IDX 37 35 24 37 25 38 26 39 27 40 28 41 36 42 29 43 33 44 30 45
REMARK SMILES IDX 31 46 34 47 35 48 32 49
REMARK H PARENT 39 24 32 50
REMARK Flexibility Score: 90.00
ROOT
ATOM      1  C   UNL     1      94.365  85.379  86.884  1.00  0.00     0.264 C 
ENDROOT
BRANCH   1   2
ATOM      2  C   UNL     1      94.502  84.032  86.214  1.00  0.00    -0.033 C 
ATOM      3  C   UNL     1      95.710  83.640  85.762  1.00  0.00    -0.015 C 
BRANCH   3   4
ATOM      4  C   UNL     1      96.092  82.384  84.995  1.00  0.00     0.078 C 
ATOM      5  O   UNL     1      96.783  80.700  86.670  1.00  0.00    -0.319 OA
ATOM      6  C   UNL     1      95.781  80.985  85.647  1.00  0.00     0.095 C 
ATOM      7  C   UNL     1      98.140  81.023  86.311  1.00  0.00     0.289 C 
ATOM      8  C   UNL     1      95.874  79.892  84.503  1.00  0.00     0.023 C 
ATOM      9  O   UNL     1      98.270  82.398  85.962  1.00  0.00    -0.320 OA
ATOM     10  O   UNL     1      98.586  80.293  85.171  1.00  0.00    -0.313 OA
ATOM     11  C   UNL     1      97.610  82.398  84.687  1.00  0.00     0.170 C 
ATOM     12  C   UNL     1      96.953  80.268  83.441  1.00  0.00     0.049 C 
ATOM     13  C   UNL     1      96.111  78.452  84.985  1.00  0.00     0.011 C 
ATOM     14  C   UNL     1      98.099  81.070  84.058  1.00  0.00     0.122 C 
BRANCH   6  15
ATOM     15  C   UNL     1      94.433  81.027  86.424  1.00  0.00     0.086 C 
ATOM     16  C   UNL     1      93.271  81.767  85.731  1.00  0.00     0.140 CG0
ATOM     17  C   UNL     1      93.805  79.739  86.878  1.00  0.00    -0.010 C 
ATOM     18  C   UNL     1      92.064  80.966  86.171  1.00  0.00     0.190 C 
ATOM     19  G   UNL     1      93.186  83.233  86.155  1.00  0.00     0.000 G0
ATOM     20  C   UNL     1      92.473  79.683  86.775  1.00  0.00    -0.008 C 
ATOM     21  O   UNL     1      90.899  81.295  86.011  1.00  0.00    -0.291 OA
ATOM     22  C   UNL     1      91.529  78.627  87.194  1.00  0.00     0.048 C 
BRANCH  16  23
ATOM     23  O   UNL     1      93.267  81.636  84.319  1.00  0.00    -0.381 OA
ATOM     24  H   UNL     1      92.562  81.017  84.070  1.00  0.00     0.212 HD
ENDBRANCH  16  23
ENDBRANCH   6  15
BRANCH   7  25
ATOM     25  C   UNL     1      99.033  80.708  87.494  1.00  0.00     0.135 C 
BRANCH  25  26
ATOM     26  C   UNL     1     100.475  81.058  87.223  1.00  0.00    -0.040 A 
ATOM     27  C   UNL     1     101.336  80.100  86.686  1.00  0.00     0.004 A 
ATOM     28  C   UNL     1     100.948  82.339  87.507  1.00  0.00     0.004 A 
ATOM     29  C   UNL     1     102.670  80.424  86.434  1.00  0.00     0.000 A 
ATOM     30  C   UNL     1     102.282  82.662  87.256  1.00  0.00     0.000 A 
ATOM     31  C   UNL     1     103.142  81.704  86.720  1.00  0.00     0.000 A 
ENDBRANCH  25  26
ENDBRANCH   7  25
BRANCH  14  32
ATOM     32  C   UNL     1      99.229  81.283  83.103  1.00  0.00    -0.046 C 
ATOM     33  C   UNL     1      98.900  82.028  81.844  1.00  0.00     0.042 C 
ATOM     34  C   UNL     1     100.467  80.835  83.358  1.00  0.00     0.010 C 
ENDBRANCH  14  32
ENDBRANCH   3   4
BRANCH   2  35
ATOM     35  C   UNL     1      93.194  83.265  86.148  1.00  0.00     0.078 CG0
ATOM     36  G   UNL     1      93.267  81.793  85.745  1.00  0.00     0.000 G0
ENDBRANCH   2  35
ENDBRANCH   1   2
BRANCH   1  37
ATOM     37  O   UNL     1      93.574  85.246  88.045  1.00  0.00    -0.461 OA
BRANCH  37  38
ATOM     38  C   UNL     1      93.294  86.407  88.727  1.00  0.00     0.310 C 
ATOM     39  O   UNL     1      92.184  86.741  89.119  1.00  0.00    -0.252 OA
BRANCH  38  40
ATOM     40  C   UNL     1      94.565  87.200  88.915  1.00  0.00     0.158 C 
BRANCH  40  41
ATOM     41  C   UNL     1      94.313  88.666  89.159  1.00  0.00    -0.033 A 
ATOM     42  C   UNL     1      93.823  89.093  90.395  1.00  0.00     0.054 A 
ATOM     43  C   UNL     1      94.568  89.595  88.152  1.00  0.00     0.008 A 
ATOM     44  C   UNL     1      93.589  90.450  90.621  1.00  0.00     0.160 A 
ATOM     45  C   UNL     1      94.335  90.952  88.378  1.00  0.00     0.050 A 
ATOM     46  C   UNL     1      93.845  91.379  89.612  1.00  0.00     0.157 A 
BRANCH  44  47
ATOM     47  O   UNL     1      93.111  90.854  91.830  1.00  0.00    -0.493 OA
ATOM     48  C   UNL     1      91.701  90.774  92.029  1.00  0.00     0.278 C 
ENDBRANCH  44  47
BRANCH  46  49
ATOM     49  O   UNL     1      93.622  92.706  89.821  1.00  0.00    -0.504 OA
ATOM     50  H   UNL     1      93.137  92.818  90.657  1.00  0.00     0.293 HD
ENDBRANCH  46  49
ENDBRANCH  40  41
ENDBRANCH  38  40
ENDBRANCH  37  38
ENDBRANCH   1  37
TORSDOF 11
ENDMDL
