MODEL 1
REMARK VINA RESULT:    -6.102      0.000      0.000
REMARK INTER + INTRA:         -10.868
REMARK INTER:                 -10.026
REMARK INTRA:                  -0.842
REMARK UNBOUND:                -0.842
REMARK SMILES CCCCC[C@H](O)CC(=O)CCc1ccc(O)c(OC)c1
REMARK SMILES IDX 8 1 6 2 7 3 5 5 4 6 3 7 2 8 1 9 9 10 10 11 11 12 12 13 13 14
REMARK SMILES IDX 21 15 14 16 18 17 15 18 16 19 19 20 20 21 17 22
REMARK H PARENT 7 4 17 23
REMARK Flexibility Score: inf
ROOT
ATOM      1  C   UNL     1      95.621  94.728  75.909  1.00  0.00     0.107 C 
ENDROOT
BRANCH   1   2
ATOM      2  C   UNL     1      95.397  94.270  77.352  1.00  0.00     0.121 C 
BRANCH   2   3
ATOM      3  O   UNL     1      95.861  92.932  77.513  1.00  0.00    -0.393 OA
ATOM      4  H   UNL     1      96.202  92.842  78.420  1.00  0.00     0.210 HD
ENDBRANCH   2   3
BRANCH   2   5
ATOM      5  C   UNL     1      96.090  95.172  78.382  1.00  0.00     0.032 C 
BRANCH   5   6
ATOM      6  C   UNL     1      95.401  95.118  79.751  1.00  0.00     0.003 C 
BRANCH   6   7
ATOM      7  C   UNL     1      96.386  95.063  80.923  1.00  0.00    -0.000 C 
BRANCH   7   8
ATOM      8  C   UNL     1      95.998  95.967  82.092  1.00  0.00    -0.003 C 
ATOM      9  C   UNL     1      96.284  97.428  81.781  1.00  0.00     0.004 C 
ENDBRANCH   7   8
ENDBRANCH   6   7
ENDBRANCH   5   6
ENDBRANCH   2   5
ENDBRANCH   1   2
BRANCH   1  10
ATOM     10  C   UNL     1      94.418  95.445  75.317  1.00  0.00     0.135 C 
ATOM     11  O   UNL     1      94.558  96.465  74.643  1.00  0.00    -0.300 OA
BRANCH  10  12
ATOM     12  C   UNL     1      93.058  94.812  75.565  1.00  0.00     0.080 C 
BRANCH  12  13
ATOM     13  C   UNL     1      92.890  93.438  74.912  1.00  0.00     0.043 C 
BRANCH  13  14
ATOM     14  C   UNL     1      92.018  92.503  75.716  1.00  0.00    -0.044 A 
ATOM     15  C   UNL     1      91.486  91.360  75.120  1.00  0.00     0.054 A 
ATOM     16  C   UNL     1      91.746  92.783  77.056  1.00  0.00     0.008 A 
ATOM     17  C   UNL     1      90.681  90.497  75.864  1.00  0.00     0.160 A 
ATOM     18  C   UNL     1      90.941  91.919  77.799  1.00  0.00     0.050 A 
ATOM     19  C   UNL     1      90.409  90.777  77.203  1.00  0.00     0.157 A 
BRANCH  17  20
ATOM     20  O   UNL     1      90.166  89.384  75.270  1.00  0.00    -0.493 OA
ATOM     21  C   UNL     1      89.033  89.566  74.423  1.00  0.00     0.278 C 
ENDBRANCH  17  20
BRANCH  19  22
ATOM     22  O   UNL     1      89.625  89.941  77.939  1.00  0.00    -0.504 OA
ATOM     23  H   UNL     1      90.194  89.337  78.446  1.00  0.00     0.293 HD
ENDBRANCH  19  22
ENDBRANCH  13  14
ENDBRANCH  12  13
ENDBRANCH  10  12
ENDBRANCH   1  10
TORSDOF 12
ENDMDL
MODEL 2
REMARK VINA RESULT:    -6.025     12.947     15.445
REMARK INTER + INTRA:         -10.741
REMARK INTER:                  -8.671
REMARK INTRA:                  -2.070
REMARK UNBOUND:                -0.842
REMARK SMILES CCCCC[C@H](O)CC(=O)CCc1ccc(O)c(OC)c1
REMARK SMILES IDX 8 1 6 2 7 3 5 5 4 6 3 7 2 8 1 9 9 10 10 11 11 12 12 13 13 14
REMARK SMILES IDX 21 15 14 16 18 17 15 18 16 19 19 20 20 21 17 22
REMARK H PARENT 7 4 17 23
REMARK Flexibility Score: inf
ROOT
ATOM      1  C   UNL     1      83.884  91.909  87.408  1.00  0.00     0.107 C 
ENDROOT
BRANCH   1   2
ATOM      2  C   UNL     1      83.480  90.840  88.427  1.00  0.00     0.121 C 
BRANCH   2   3
ATOM      3  O   UNL     1      84.255  90.986  89.614  1.00  0.00    -0.393 OA
ATOM      4  H   UNL     1      84.472  91.929  89.714  1.00  0.00     0.210 HD
ENDBRANCH   2   3
BRANCH   2   5
ATOM      5  C   UNL     1      81.990  90.887  88.788  1.00  0.00     0.032 C 
BRANCH   5   6
ATOM      6  C   UNL     1      81.095  90.555  87.588  1.00  0.00     0.003 C 
BRANCH   6   7
ATOM      7  C   UNL     1      80.388  89.201  87.715  1.00  0.00    -0.000 C 
BRANCH   7   8
ATOM      8  C   UNL     1      80.672  88.484  89.033  1.00  0.00    -0.003 C 
ATOM      9  C   UNL     1      80.139  87.060  89.015  1.00  0.00     0.004 C 
ENDBRANCH   7   8
ENDBRANCH   6   7
ENDBRANCH   5   6
ENDBRANCH   2   5
ENDBRANCH   1   2
BRANCH   1  10
ATOM     10  C   UNL     1      84.818  91.382  86.331  1.00  0.00     0.135 C 
ATOM     11  O   UNL     1      85.696  92.098  85.850  1.00  0.00    -0.300 OA
BRANCH  10  12
ATOM     12  C   UNL     1      84.637  89.929  85.922  1.00  0.00     0.080 C 
BRANCH  12  13
ATOM     13  C   UNL     1      83.604  89.726  84.812  1.00  0.00     0.043 C 
BRANCH  13  14
ATOM     14  C   UNL     1      82.741  88.505  85.022  1.00  0.00    -0.044 A 
ATOM     15  C   UNL     1      81.541  88.370  84.324  1.00  0.00     0.054 A 
ATOM     16  C   UNL     1      83.144  87.512  85.915  1.00  0.00     0.008 A 
ATOM     17  C   UNL     1      80.745  87.241  84.518  1.00  0.00     0.160 A 
ATOM     18  C   UNL     1      82.348  86.383  86.109  1.00  0.00     0.050 A 
ATOM     19  C   UNL     1      81.148  86.248  85.411  1.00  0.00     0.157 A 
BRANCH  17  20
ATOM     20  O   UNL     1      79.575  87.120  83.831  1.00  0.00    -0.493 OA
ATOM     21  C   UNL     1      79.666  87.000  82.412  1.00  0.00     0.278 C 
ENDBRANCH  17  20
BRANCH  19  22
ATOM     22  O   UNL     1      80.380  85.141  85.609  1.00  0.00    -0.504 OA
ATOM     23  H   UNL     1      79.487  85.419  85.878  1.00  0.00     0.293 HD
ENDBRANCH  19  22
ENDBRANCH  13  14
ENDBRANCH  12  13
ENDBRANCH  10  12
ENDBRANCH   1  10
TORSDOF 12
ENDMDL
MODEL 3
REMARK VINA RESULT:    -5.725     12.998     15.774
REMARK INTER + INTRA:         -10.249
REMARK INTER:                  -8.657
REMARK INTRA:                  -1.592
REMARK UNBOUND:                -0.842
REMARK SMILES CCCCC[C@H](O)CC(=O)CCc1ccc(O)c(OC)c1
REMARK SMILES IDX 8 1 6 2 7 3 5 5 4 6 3 7 2 8 1 9 9 10 10 11 11 12 12 13 13 14
REMARK SMILES IDX 21 15 14 16 18 17 15 18 16 19 19 20 20 21 17 22
REMARK H PARENT 7 4 17 23
REMARK Flexibility Score: inf
ROOT
ATOM      1  C   UNL     1      84.005  91.987  87.044  1.00  0.00     0.107 C 
ENDROOT
BRANCH   1   2
ATOM      2  C   UNL     1      83.506  91.012  88.115  1.00  0.00     0.121 C 
BRANCH   2   3
ATOM      3  O   UNL     1      84.369  91.057  89.249  1.00  0.00    -0.393 OA
ATOM      4  H   UNL     1      84.734  91.957  89.309  1.00  0.00     0.210 HD
ENDBRANCH   2   3
BRANCH   2   5
ATOM      5  C   UNL     1      82.068  91.298  88.563  1.00  0.00     0.032 C 
BRANCH   5   6
ATOM      6  C   UNL     1      81.037  90.807  87.540  1.00  0.00     0.003 C 
BRANCH   6   7
ATOM      7  C   UNL     1      80.019  89.824  88.128  1.00  0.00    -0.000 C 
BRANCH   7   8
ATOM      8  C   UNL     1      79.994  89.811  89.655  1.00  0.00    -0.003 C 
ATOM      9  C   UNL     1      79.093  88.706  90.185  1.00  0.00     0.004 C 
ENDBRANCH   7   8
ENDBRANCH   6   7
ENDBRANCH   5   6
ENDBRANCH   2   5
ENDBRANCH   1   2
BRANCH   1  10
ATOM     10  C   UNL     1      84.594  91.287  85.830  1.00  0.00     0.135 C 
ATOM     11  O   UNL     1      85.430  91.847  85.121  1.00  0.00    -0.300 OA
BRANCH  10  12
ATOM     12  C   UNL     1      84.131  89.861  85.574  1.00  0.00     0.080 C 
BRANCH  12  13
ATOM     13  C   UNL     1      82.940  89.763  84.620  1.00  0.00     0.043 C 
BRANCH  13  14
ATOM     14  C   UNL     1      82.101  88.528  84.845  1.00  0.00    -0.044 A 
ATOM     15  C   UNL     1      82.308  87.740  85.977  1.00  0.00     0.054 A 
ATOM     16  C   UNL     1      81.118  88.175  83.920  1.00  0.00     0.008 A 
ATOM     17  C   UNL     1      81.532  86.600  86.185  1.00  0.00     0.160 A 
ATOM     18  C   UNL     1      80.342  87.034  84.127  1.00  0.00     0.050 A 
ATOM     19  C   UNL     1      80.549  86.247  85.260  1.00  0.00     0.157 A 
BRANCH  17  20
ATOM     20  O   UNL     1      81.744  85.838  87.294  1.00  0.00    -0.493 OA
ATOM     21  C   UNL     1      81.662  86.496  88.558  1.00  0.00     0.278 C 
ENDBRANCH  17  20
BRANCH  19  22
ATOM     22  O   UNL     1      79.785  85.135  85.452  1.00  0.00    -0.504 OA
ATOM     23  H   UNL     1      80.368  84.375  85.616  1.00  0.00     0.293 HD
ENDBRANCH  19  22
ENDBRANCH  13  14
ENDBRANCH  12  13
ENDBRANCH  10  12
ENDBRANCH   1  10
TORSDOF 12
ENDMDL
MODEL 4
REMARK VINA RESULT:    -5.701     12.802     15.288
REMARK INTER + INTRA:         -10.210
REMARK INTER:                  -8.931
REMARK INTRA:                  -1.280
REMARK UNBOUND:                -0.842
REMARK SMILES CCCCC[C@H](O)CC(=O)CCc1ccc(O)c(OC)c1
REMARK SMILES IDX 8 1 6 2 7 3 5 5 4 6 3 7 2 8 1 9 9 10 10 11 11 12 12 13 13 14
REMARK SMILES IDX 21 15 14 16 18 17 15 18 16 19 19 20 20 21 17 22
REMARK H PARENT 7 4 17 23
REMARK Flexibility Score: inf
ROOT
ATOM      1  C   UNL     1      83.894  91.879  86.925  1.00  0.00     0.107 C 
ENDROOT
BRANCH   1   2
ATOM      2  C   UNL     1      83.625  90.808  87.985  1.00  0.00     0.121 C 
BRANCH   2   3
ATOM      3  O   UNL     1      84.405  91.075  89.149  1.00  0.00    -0.393 OA
ATOM      4  H   UNL     1      85.220  91.523  88.865  1.00  0.00     0.210 HD
ENDBRANCH   2   3
BRANCH   2   5
ATOM      5  C   UNL     1      82.147  90.712  88.379  1.00  0.00     0.032 C 
BRANCH   5   6
ATOM      6  C   UNL     1      81.860  91.403  89.718  1.00  0.00     0.003 C 
BRANCH   6   7
ATOM      7  C   UNL     1      81.289  92.816  89.561  1.00  0.00    -0.000 C 
BRANCH   7   8
ATOM      8  C   UNL     1      82.322  93.921  89.772  1.00  0.00    -0.003 C 
ATOM      9  C   UNL     1      82.420  94.828  88.555  1.00  0.00     0.004 C 
ENDBRANCH   7   8
ENDBRANCH   6   7
ENDBRANCH   5   6
ENDBRANCH   2   5
ENDBRANCH   1   2
BRANCH   1  10
ATOM     10  C   UNL     1      84.526  91.319  85.660  1.00  0.00     0.135 C 
ATOM     11  O   UNL     1      85.433  91.921  85.086  1.00  0.00    -0.300 OA
BRANCH  10  12
ATOM     12  C   UNL     1      84.011  89.970  85.180  1.00  0.00     0.080 C 
BRANCH  12  13
ATOM     13  C   UNL     1      82.570  90.009  84.668  1.00  0.00     0.043 C 
BRANCH  13  14
ATOM     14  C   UNL     1      81.832  88.708  84.879  1.00  0.00    -0.044 A 
ATOM     15  C   UNL     1      82.061  87.955  86.031  1.00  0.00     0.054 A 
ATOM     16  C   UNL     1      80.921  88.261  83.922  1.00  0.00     0.008 A 
ATOM     17  C   UNL     1      81.378  86.754  86.225  1.00  0.00     0.160 A 
ATOM     18  C   UNL     1      80.238  87.060  84.116  1.00  0.00     0.050 A 
ATOM     19  C   UNL     1      80.467  86.307  85.268  1.00  0.00     0.157 A 
BRANCH  17  20
ATOM     20  O   UNL     1      81.610  86.027  87.353  1.00  0.00    -0.493 OA
ATOM     21  C   UNL     1      81.533  86.719  88.598  1.00  0.00     0.278 C 
ENDBRANCH  17  20
BRANCH  19  22
ATOM     22  O   UNL     1      79.794  85.136  85.446  1.00  0.00    -0.504 OA
ATOM     23  H   UNL     1      79.851  84.878  86.382  1.00  0.00     0.293 HD
ENDBRANCH  19  22
ENDBRANCH  13  14
ENDBRANCH  12  13
ENDBRANCH  10  12
ENDBRANCH   1  10
TORSDOF 12
ENDMDL
MODEL 5
REMARK VINA RESULT:    -5.642     12.314     13.636
REMARK INTER + INTRA:         -10.113
REMARK INTER:                  -8.867
REMARK INTRA:                  -1.246
REMARK UNBOUND:                -0.842
REMARK SMILES CCCCC[C@H](O)CC(=O)CCc1ccc(O)c(OC)c1
REMARK SMILES IDX 8 1 6 2 7 3 5 5 4 6 3 7 2 8 1 9 9 10 10 11 11 12 12 13 13 14
REMARK SMILES IDX 21 15 14 16 18 17 15 18 16 19 19 20 20 21 17 22
REMARK H PARENT 7 4 17 23
REMARK Flexibility Score: inf
ROOT
ATOM      1  C   UNL     1      98.896  82.894  76.851  1.00  0.00     0.107 C 
ENDROOT
BRANCH   1   2
ATOM      2  C   UNL     1      99.735  82.881  75.570  1.00  0.00     0.121 C 
BRANCH   2   3
ATOM      3  O   UNL     1      99.618  84.135  74.902  1.00  0.00    -0.393 OA
ATOM      4  H   UNL     1     100.383  84.680  75.157  1.00  0.00     0.210 HD
ENDBRANCH   2   3
BRANCH   2   5
ATOM      5  C   UNL     1     101.217  82.581  75.827  1.00  0.00     0.032 C 
BRANCH   5   6
ATOM      6  C   UNL     1     101.421  81.701  77.066  1.00  0.00     0.003 C 
BRANCH   6   7
ATOM      7  C   UNL     1     102.692  80.848  77.001  1.00  0.00    -0.000 C 
BRANCH   7   8
ATOM      8  C   UNL     1     103.148  80.325  78.361  1.00  0.00    -0.003 C 
ATOM      9  C   UNL     1     102.132  80.645  79.447  1.00  0.00     0.004 C 
ENDBRANCH   7   8
ENDBRANCH   6   7
ENDBRANCH   5   6
ENDBRANCH   2   5
ENDBRANCH   1   2
BRANCH   1  10
ATOM     10  C   UNL     1      97.431  82.572  76.606  1.00  0.00     0.135 C 
ATOM     11  O   UNL     1      96.856  82.970  75.593  1.00  0.00    -0.300 OA
BRANCH  10  12
ATOM     12  C   UNL     1      96.741  81.705  77.648  1.00  0.00     0.080 C 
BRANCH  12  13
ATOM     13  C   UNL     1      96.222  82.488  78.855  1.00  0.00     0.043 C 
BRANCH  13  14
ATOM     14  C   UNL     1      97.052  82.277  80.099  1.00  0.00    -0.044 A 
ATOM     15  C   UNL     1      96.693  82.904  81.292  1.00  0.00     0.054 A 
ATOM     16  C   UNL     1      98.177  81.453  80.054  1.00  0.00     0.008 A 
ATOM     17  C   UNL     1      97.460  82.707  82.441  1.00  0.00     0.160 A 
ATOM     18  C   UNL     1      98.944  81.256  81.203  1.00  0.00     0.050 A 
ATOM     19  C   UNL     1      98.585  81.884  82.396  1.00  0.00     0.157 A 
BRANCH  17  20
ATOM     20  O   UNL     1      97.100  83.326  83.600  1.00  0.00    -0.493 OA
ATOM     21  C   UNL     1      97.185  84.749  83.628  1.00  0.00     0.278 C 
ENDBRANCH  17  20
BRANCH  19  22
ATOM     22  O   UNL     1      99.341  81.684  83.511  1.00  0.00    -0.504 OA
ATOM     23  H   UNL     1      98.808  81.217  84.176  1.00  0.00     0.293 HD
ENDBRANCH  19  22
ENDBRANCH  13  14
ENDBRANCH  12  13
ENDBRANCH  10  12
ENDBRANCH   1  10
TORSDOF 12
ENDMDL
MODEL 6
REMARK VINA RESULT:    -5.465     19.990     22.559
REMARK INTER + INTRA:          -9.821
REMARK INTER:                  -8.621
REMARK INTRA:                  -1.200
REMARK UNBOUND:                -0.842
REMARK SMILES CCCCC[C@H](O)CC(=O)CCc1ccc(O)c(OC)c1
REMARK SMILES IDX 8 1 6 2 7 3 5 5 4 6 3 7 2 8 1 9 9 10 10 11 11 12 12 13 13 14
REMARK SMILES IDX 21 15 14 16 18 17 15 18 16 19 19 20 20 21 17 22
REMARK H PARENT 7 4 17 23
REMARK Flexibility Score: inf
ROOT
ATOM      1  C   UNL     1      77.471  86.261  64.333  1.00  0.00     0.107 C 
ENDROOT
BRANCH   1   2
ATOM      2  C   UNL     1      76.491  85.223  63.781  1.00  0.00     0.121 C 
BRANCH   2   3
ATOM      3  O   UNL     1      77.208  84.084  63.309  1.00  0.00    -0.393 OA
ATOM      4  H   UNL     1      76.880  83.874  62.417  1.00  0.00     0.210 HD
ENDBRANCH   2   3
BRANCH   2   5
ATOM      5  C   UNL     1      75.450  84.772  64.812  1.00  0.00     0.032 C 
BRANCH   5   6
ATOM      6  C   UNL     1      74.800  83.436  64.430  1.00  0.00     0.003 C 
BRANCH   6   7
ATOM      7  C   UNL     1      75.287  82.259  65.281  1.00  0.00    -0.000 C 
BRANCH   7   8
ATOM      8  C   UNL     1      75.339  80.934  64.522  1.00  0.00    -0.003 C 
ATOM      9  C   UNL     1      76.719  80.686  63.932  1.00  0.00     0.004 C 
ENDBRANCH   7   8
ENDBRANCH   6   7
ENDBRANCH   5   6
ENDBRANCH   2   5
ENDBRANCH   1   2
BRANCH   1  10
ATOM     10  C   UNL     1      78.193  85.791  65.586  1.00  0.00     0.135 C 
ATOM     11  O   UNL     1      78.728  84.684  65.630  1.00  0.00    -0.300 OA
BRANCH  10  12
ATOM     12  C   UNL     1      78.253  86.772  66.746  1.00  0.00     0.080 C 
BRANCH  12  13
ATOM     13  C   UNL     1      77.526  88.091  66.475  1.00  0.00     0.043 C 
BRANCH  13  14
ATOM     14  C   UNL     1      76.310  88.287  67.349  1.00  0.00    -0.044 A 
ATOM     15  C   UNL     1      75.454  87.215  67.605  1.00  0.00     0.054 A 
ATOM     16  C   UNL     1      76.042  89.540  67.900  1.00  0.00     0.008 A 
ATOM     17  C   UNL     1      74.332  87.397  68.413  1.00  0.00     0.160 A 
ATOM     18  C   UNL     1      74.920  89.723  68.708  1.00  0.00     0.050 A 
ATOM     19  C   UNL     1      74.064  88.651  68.964  1.00  0.00     0.157 A 
BRANCH  17  20
ATOM     20  O   UNL     1      73.503  86.344  68.655  1.00  0.00    -0.493 OA
ATOM     21  C   UNL     1      74.116  85.106  69.014  1.00  0.00     0.278 C 
ENDBRANCH  17  20
BRANCH  19  22
ATOM     22  O   UNL     1      72.971  88.841  69.754  1.00  0.00    -0.504 OA
ATOM     23  H   UNL     1      73.242  88.789  70.687  1.00  0.00     0.293 HD
ENDBRANCH  19  22
ENDBRANCH  13  14
ENDBRANCH  12  13
ENDBRANCH  10  12
ENDBRANCH   1  10
TORSDOF 12
ENDMDL
MODEL 7
REMARK VINA RESULT:    -5.444     26.056     29.497
REMARK INTER + INTRA:          -9.787
REMARK INTER:                  -7.406
REMARK INTRA:                  -2.381
REMARK UNBOUND:                -0.842
REMARK SMILES CCCCC[C@H](O)CC(=O)CCc1ccc(O)c(OC)c1
REMARK SMILES IDX 8 1 6 2 7 3 5 5 4 6 3 7 2 8 1 9 9 10 10 11 11 12 12 13 13 14
REMARK SMILES IDX 21 15 14 16 18 17 15 18 16 19 19 20 20 21 17 22
REMARK H PARENT 7 4 17 23
REMARK Flexibility Score: inf
ROOT
ATOM      1  C   UNL     1      82.459  64.283  75.243  1.00  0.00     0.107 C 
ENDROOT
BRANCH   1   2
ATOM      2  C   UNL     1      82.272  65.475  76.186  1.00  0.00     0.121 C 
BRANCH   2   3
ATOM      3  O   UNL     1      83.536  65.881  76.706  1.00  0.00    -0.393 OA
ATOM      4  H   UNL     1      83.378  66.596  77.348  1.00  0.00     0.210 HD
ENDBRANCH   2   3
BRANCH   2   5
ATOM      5  C   UNL     1      81.595  66.674  75.511  1.00  0.00     0.032 C 
BRANCH   5   6
ATOM      6  C   UNL     1      80.448  66.244  74.588  1.00  0.00     0.003 C 
BRANCH   6   7
ATOM      7  C   UNL     1      80.514  66.886  73.199  1.00  0.00    -0.000 C 
BRANCH   7   8
ATOM      8  C   UNL     1      80.190  65.920  72.061  1.00  0.00    -0.003 C 
ATOM      9  C   UNL     1      80.020  66.655  70.741  1.00  0.00     0.004 C 
ENDBRANCH   7   8
ENDBRANCH   6   7
ENDBRANCH   5   6
ENDBRANCH   2   5
ENDBRANCH   1   2
BRANCH   1  10
ATOM     10  C   UNL     1      83.898  63.802  75.168  1.00  0.00     0.135 C 
ATOM     11  O   UNL     1      84.371  63.080  76.046  1.00  0.00    -0.300 OA
BRANCH  10  12
ATOM     12  C   UNL     1      84.694  64.220  73.941  1.00  0.00     0.080 C 
BRANCH  12  13
ATOM     13  C   UNL     1      83.831  64.784  72.811  1.00  0.00     0.043 C 
BRANCH  13  14
ATOM     14  C   UNL     1      84.085  66.250  72.548  1.00  0.00    -0.044 A 
ATOM     15  C   UNL     1      84.706  67.036  73.518  1.00  0.00     0.054 A 
ATOM     16  C   UNL     1      83.699  66.816  71.332  1.00  0.00     0.008 A 
ATOM     17  C   UNL     1      84.941  68.389  73.273  1.00  0.00     0.160 A 
ATOM     18  C   UNL     1      83.934  68.169  71.087  1.00  0.00     0.050 A 
ATOM     19  C   UNL     1      84.555  68.955  72.058  1.00  0.00     0.157 A 
BRANCH  17  20
ATOM     20  O   UNL     1      85.547  69.147  74.229  1.00  0.00    -0.493 OA
ATOM     21  C   UNL     1      85.523  68.648  75.565  1.00  0.00     0.278 C 
ENDBRANCH  17  20
BRANCH  19  22
ATOM     22  O   UNL     1      84.779  70.275  71.807  1.00  0.00    -0.504 OA
ATOM     23  H   UNL     1      84.551  70.465  70.881  1.00  0.00     0.293 HD
ENDBRANCH  19  22
ENDBRANCH  13  14
ENDBRANCH  12  13
ENDBRANCH  10  12
ENDBRANCH   1  10
TORSDOF 12
ENDMDL
MODEL 8
REMARK VINA RESULT:    -5.399     14.331     17.471
REMARK INTER + INTRA:          -9.713
REMARK INTER:                  -7.746
REMARK INTRA:                  -1.967
REMARK UNBOUND:                -0.842
REMARK SMILES CCCCC[C@H](O)CC(=O)CCc1ccc(O)c(OC)c1
REMARK SMILES IDX 8 1 6 2 7 3 5 5 4 6 3 7 2 8 1 9 9 10 10 11 11 12 12 13 13 14
REMARK SMILES IDX 21 15 14 16 18 17 15 18 16 19 19 20 20 21 17 22
REMARK H PARENT 7 4 17 23
REMARK Flexibility Score: inf
ROOT
ATOM      1  C   UNL     1      83.538  91.099  86.809  1.00  0.00     0.107 C 
ENDROOT
BRANCH   1   2
ATOM      2  C   UNL     1      83.924  89.724  86.258  1.00  0.00     0.121 C 
BRANCH   2   3
ATOM      3  O   UNL     1      83.562  88.710  87.192  1.00  0.00    -0.393 OA
ATOM      4  H   UNL     1      83.456  87.877  86.701  1.00  0.00     0.210 HD
ENDBRANCH   2   3
BRANCH   2   5
ATOM      5  C   UNL     1      83.274  89.417  84.903  1.00  0.00     0.032 C 
BRANCH   5   6
ATOM      6  C   UNL     1      81.923  90.122  84.739  1.00  0.00     0.003 C 
BRANCH   6   7
ATOM      7  C   UNL     1      80.817  89.200  84.214  1.00  0.00    -0.000 C 
BRANCH   7   8
ATOM      8  C   UNL     1      81.178  87.717  84.273  1.00  0.00    -0.003 C 
ATOM      9  C   UNL     1      80.037  86.848  83.768  1.00  0.00     0.004 C 
ENDBRANCH   7   8
ENDBRANCH   6   7
ENDBRANCH   5   6
ENDBRANCH   2   5
ENDBRANCH   1   2
BRANCH   1  10
ATOM     10  C   UNL     1      83.126  91.061  88.271  1.00  0.00     0.135 C 
ATOM     11  O   UNL     1      83.933  90.755  89.149  1.00  0.00    -0.300 OA
BRANCH  10  12
ATOM     12  C   UNL     1      81.692  91.461  88.586  1.00  0.00     0.080 C 
BRANCH  12  13
ATOM     13  C   UNL     1      80.644  90.598  87.882  1.00  0.00     0.043 C 
BRANCH  13  14
ATOM     14  C   UNL     1      80.394  89.283  88.581  1.00  0.00    -0.044 A 
ATOM     15  C   UNL     1      80.422  89.216  89.974  1.00  0.00     0.054 A 
ATOM     16  C   UNL     1      80.133  88.135  87.832  1.00  0.00     0.008 A 
ATOM     17  C   UNL     1      80.190  88.001  90.618  1.00  0.00     0.160 A 
ATOM     18  C   UNL     1      79.901  86.919  88.477  1.00  0.00     0.050 A 
ATOM     19  C   UNL     1      79.930  86.853  89.870  1.00  0.00     0.157 A 
BRANCH  17  20
ATOM     20  O   UNL     1      80.221  87.948  91.979  1.00  0.00    -0.493 OA
ATOM     21  C   UNL     1      79.080  88.449  92.673  1.00  0.00     0.278 C 
ENDBRANCH  17  20
BRANCH  19  22
ATOM     22  O   UNL     1      79.701  85.661  90.488  1.00  0.00    -0.504 OA
ATOM     23  H   UNL     1      80.012  85.716  91.408  1.00  0.00     0.293 HD
ENDBRANCH  19  22
ENDBRANCH  13  14
ENDBRANCH  12  13
ENDBRANCH  10  12
ENDBRANCH   1  10
TORSDOF 12
ENDMDL
MODEL 9
REMARK VINA RESULT:    -5.387     26.488     30.003
REMARK INTER + INTRA:          -9.694
REMARK INTER:                  -8.026
REMARK INTRA:                  -1.668
REMARK UNBOUND:                -0.842
REMARK SMILES CCCCC[C@H](O)CC(=O)CCc1ccc(O)c(OC)c1
REMARK SMILES IDX 8 1 6 2 7 3 5 5 4 6 3 7 2 8 1 9 9 10 10 11 11 12 12 13 13 14
REMARK SMILES IDX 21 15 14 16 18 17 15 18 16 19 19 20 20 21 17 22
REMARK H PARENT 7 4 17 23
REMARK Flexibility Score: inf
ROOT
ATOM      1  C   UNL     1      81.172  64.969  75.167  1.00  0.00     0.107 C 
ENDROOT
BRANCH   1   2
ATOM      2  C   UNL     1      82.230  65.685  76.011  1.00  0.00     0.121 C 
BRANCH   2   3
ATOM      3  O   UNL     1      81.613  66.700  76.799  1.00  0.00    -0.393 OA
ATOM      4  H   UNL     1      80.657  66.520  76.822  1.00  0.00     0.210 HD
ENDBRANCH   2   3
BRANCH   2   5
ATOM      5  C   UNL     1      83.008  64.735  76.929  1.00  0.00     0.032 C 
BRANCH   5   6
ATOM      6  C   UNL     1      84.500  64.687  76.578  1.00  0.00     0.003 C 
BRANCH   6   7
ATOM      7  C   UNL     1      84.819  63.745  75.413  1.00  0.00    -0.000 C 
BRANCH   7   8
ATOM      8  C   UNL     1      85.214  64.471  74.129  1.00  0.00    -0.003 C 
ATOM      9  C   UNL     1      84.126  64.359  73.071  1.00  0.00     0.004 C 
ENDBRANCH   7   8
ENDBRANCH   6   7
ENDBRANCH   5   6
ENDBRANCH   2   5
ENDBRANCH   1   2
BRANCH   1  10
ATOM     10  C   UNL     1      80.544  65.866  74.113  1.00  0.00     0.135 C 
ATOM     11  O   UNL     1      80.403  67.073  74.311  1.00  0.00    -0.300 OA
BRANCH  10  12
ATOM     12  C   UNL     1      80.146  65.204  72.802  1.00  0.00     0.080 C 
BRANCH  12  13
ATOM     13  C   UNL     1      80.199  66.145  71.597  1.00  0.00     0.043 C 
BRANCH  13  14
ATOM     14  C   UNL     1      81.586  66.285  71.016  1.00  0.00    -0.044 A 
ATOM     15  C   UNL     1      82.359  67.406  71.316  1.00  0.00     0.054 A 
ATOM     16  C   UNL     1      82.094  65.292  70.178  1.00  0.00     0.008 A 
ATOM     17  C   UNL     1      83.641  67.534  70.779  1.00  0.00     0.160 A 
ATOM     18  C   UNL     1      83.375  65.419  69.641  1.00  0.00     0.050 A 
ATOM     19  C   UNL     1      84.148  66.540  69.941  1.00  0.00     0.157 A 
BRANCH  17  20
ATOM     20  O   UNL     1      84.386  68.634  71.080  1.00  0.00    -0.493 OA
ATOM     21  C   UNL     1      83.678  69.838  71.367  1.00  0.00     0.278 C 
ENDBRANCH  17  20
BRANCH  19  22
ATOM     22  O   UNL     1      85.397  66.654  69.411  1.00  0.00    -0.504 OA
ATOM     23  H   UNL     1      85.913  65.862  69.643  1.00  0.00     0.293 HD
ENDBRANCH  19  22
ENDBRANCH  13  14
ENDBRANCH  12  13
ENDBRANCH  10  12
ENDBRANCH   1  10
TORSDOF 12
ENDMDL
MODEL 10
REMARK VINA RESULT:    -5.338     26.797     29.700
REMARK INTER + INTRA:          -9.614
REMARK INTER:                  -7.226
REMARK INTRA:                  -2.387
REMARK UNBOUND:                -0.842
REMARK SMILES CCCCC[C@H](O)CC(=O)CCc1ccc(O)c(OC)c1
REMARK SMILES IDX 8 1 6 2 7 3 5 5 4 6 3 7 2 8 1 9 9 10 10 11 11 12 12 13 13 14
REMARK SMILES IDX 21 15 14 16 18 17 15 18 16 19 19 20 20 21 17 22
REMARK H PARENT 7 4 17 23
REMARK Flexibility Score: inf
ROOT
ATOM      1  C   UNL     1      81.813  64.587  75.372  1.00  0.00     0.107 C 
ENDROOT
BRANCH   1   2
ATOM      2  C   UNL     1      80.987  65.861  75.560  1.00  0.00     0.121 C 
BRANCH   2   3
ATOM      3  O   UNL     1      81.768  66.850  76.228  1.00  0.00    -0.393 OA
ATOM      4  H   UNL     1      81.476  66.882  77.156  1.00  0.00     0.210 HD
ENDBRANCH   2   3
BRANCH   2   5
ATOM      5  C   UNL     1      80.465  66.439  74.239  1.00  0.00     0.032 C 
BRANCH   5   6
ATOM      6  C   UNL     1      80.083  65.339  73.240  1.00  0.00     0.003 C 
BRANCH   6   7
ATOM      7  C   UNL     1      80.693  65.545  71.850  1.00  0.00    -0.000 C 
BRANCH   7   8
ATOM      8  C   UNL     1      80.198  66.807  71.145  1.00  0.00    -0.003 C 
ATOM      9  C   UNL     1      81.341  67.768  70.862  1.00  0.00     0.004 C 
ENDBRANCH   7   8
ENDBRANCH   6   7
ENDBRANCH   5   6
ENDBRANCH   2   5
ENDBRANCH   1   2
BRANCH   1  10
ATOM     10  C   UNL     1      83.210  64.690  75.963  1.00  0.00     0.135 C 
ATOM     11  O   UNL     1      83.383  64.699  77.181  1.00  0.00    -0.300 OA
BRANCH  10  12
ATOM     12  C   UNL     1      84.366  64.734  74.975  1.00  0.00     0.080 C 
BRANCH  12  13
ATOM     13  C   UNL     1      83.924  64.798  73.512  1.00  0.00     0.043 C 
BRANCH  13  14
ATOM     14  C   UNL     1      84.266  66.109  72.847  1.00  0.00    -0.044 A 
ATOM     15  C   UNL     1      84.824  66.119  71.569  1.00  0.00     0.054 A 
ATOM     16  C   UNL     1      84.023  67.312  73.511  1.00  0.00     0.008 A 
ATOM     17  C   UNL     1      85.139  67.331  70.954  1.00  0.00     0.160 A 
ATOM     18  C   UNL     1      84.338  68.524  72.897  1.00  0.00     0.050 A 
ATOM     19  C   UNL     1      84.896  68.534  71.619  1.00  0.00     0.157 A 
BRANCH  17  20
ATOM     20  O   UNL     1      85.684  67.328  69.706  1.00  0.00    -0.493 OA
ATOM     21  C   UNL     1      86.401  66.158  69.315  1.00  0.00     0.278 C 
ENDBRANCH  17  20
BRANCH  19  22
ATOM     22  O   UNL     1      85.199  69.723  71.029  1.00  0.00    -0.504 OA
ATOM     23  H   UNL     1      86.141  69.726  70.787  1.00  0.00     0.293 HD
ENDBRANCH  19  22
ENDBRANCH  13  14
ENDBRANCH  12  13
ENDBRANCH  10  12
ENDBRANCH   1  10
TORSDOF 12
ENDMDL
