MODEL 1
REMARK VINA RESULT:    -5.979      0.000      0.000
REMARK INTER + INTRA:         -10.147
REMARK INTER:                  -9.300
REMARK INTRA:                  -0.848
REMARK UNBOUND:                -0.848
REMARK SMILES COc1cc(CNC(=O)CCCCCC(C)C)ccc1O
REMARK SMILES IDX 10 1 8 2 7 3 9 5 6 6 5 7 3 8 20 9 4 10 19 11 18 12 2 13 1 14
REMARK SMILES IDX 21 15 11 17 12 18 13 19 14 20 15 21 16 22 17 23
REMARK H PARENT 7 4 21 16
REMARK Flexibility Score: inf
ROOT
ATOM      1  C   UNL     1      93.870  93.213  78.843  1.00  0.00     0.100 C 
ENDROOT
BRANCH   1   2
ATOM      2  C   UNL     1      94.968  93.143  79.829  1.00  0.00     0.220 C 
ATOM      3  N   UNL     1      96.110  93.854  79.611  1.00  0.00    -0.352 N 
ATOM      4  H   UNL     1      96.174  94.286  78.701  1.00  0.00     0.163 HD
ATOM      5  O   UNL     1      94.808  92.461  80.871  1.00  0.00    -0.275 OA
BRANCH   3   6
ATOM      6  C   UNL     1      97.171  94.014  80.554  1.00  0.00     0.151 C 
BRANCH   6   7
ATOM      7  C   UNL     1      97.108  95.306  81.289  1.00  0.00    -0.025 A 
ATOM      8  C   UNL     1      98.092  96.906  82.876  1.00  0.00     0.160 A 
ATOM      9  C   UNL     1      97.024  97.796  82.638  1.00  0.00     0.157 A 
ATOM     10  C   UNL     1      98.118  95.660  82.215  1.00  0.00     0.056 A 
ATOM     11  C   UNL     1      96.000  97.444  81.740  1.00  0.00     0.050 A 
ATOM     12  C   UNL     1      96.044  96.211  81.066  1.00  0.00     0.009 A 
BRANCH   8  13
ATOM     13  O   UNL     1      99.089  97.222  83.762  1.00  0.00    -0.493 OA
ATOM     14  C   UNL     1      98.877  96.698  85.088  1.00  0.00     0.278 C 
ENDBRANCH   8  13
BRANCH   9  15
ATOM     15  O   UNL     1      96.988  98.996  83.271  1.00  0.00    -0.504 OA
ATOM     16  H   UNL     1      97.341  98.901  84.158  1.00  0.00     0.293 HD
ENDBRANCH   9  15
ENDBRANCH   6   7
ENDBRANCH   3   6
ENDBRANCH   1   2
BRANCH   1  17
ATOM     17  C   UNL     1      94.123  94.204  77.675  1.00  0.00     0.010 C 
BRANCH  17  18
ATOM     18  C   UNL     1      92.959  95.221  77.524  1.00  0.00     0.001 C 
BRANCH  18  19
ATOM     19  C   UNL     1      91.570  94.549  77.360  1.00  0.00     0.000 C 
BRANCH  19  20
ATOM     20  C   UNL     1      91.482  93.691  76.064  1.00  0.00     0.003 C 
BRANCH  20  21
ATOM     21  C   UNL     1      90.432  92.533  76.109  1.00  0.00    -0.017 C 
ATOM     22  C   UNL     1      89.981  92.250  77.573  1.00  0.00     0.007 C 
ATOM     23  C   UNL     1      90.949  91.223  75.447  1.00  0.00     0.007 C 
ENDBRANCH  20  21
ENDBRANCH  19  20
ENDBRANCH  18  19
ENDBRANCH  17  18
ENDBRANCH   1  17
TORSDOF 10
ENDMDL
MODEL 2
REMARK VINA RESULT:    -5.956      3.446      4.321
REMARK INTER + INTRA:         -10.111
REMARK INTER:                  -9.084
REMARK INTRA:                  -1.028
REMARK UNBOUND:                -0.848
REMARK SMILES COc1cc(CNC(=O)CCCCCC(C)C)ccc1O
REMARK SMILES IDX 10 1 8 2 7 3 9 5 6 6 5 7 3 8 20 9 4 10 19 11 18 12 2 13 1 14
REMARK SMILES IDX 21 15 11 17 12 18 13 19 14 20 15 21 16 22 17 23
REMARK H PARENT 7 4 21 16
REMARK Flexibility Score: inf
ROOT
ATOM      1  C   UNL     1      96.873  97.150  74.239  1.00  0.00     0.100 C 
ENDROOT
BRANCH   1   2
ATOM      2  C   UNL     1      97.858  97.072  75.338  1.00  0.00     0.220 C 
ATOM      3  N   UNL     1      97.420  96.934  76.621  1.00  0.00    -0.352 N 
ATOM      4  H   UNL     1      96.421  97.028  76.742  1.00  0.00     0.163 HD
ATOM      5  O   UNL     1      99.082  97.093  75.061  1.00  0.00    -0.275 OA
BRANCH   3   6
ATOM      6  C   UNL     1      98.254  96.674  77.751  1.00  0.00     0.151 C 
BRANCH   6   7
ATOM      7  C   UNL     1      97.591  95.835  78.785  1.00  0.00    -0.025 A 
ATOM      8  C   UNL     1      97.737  94.352  80.742  1.00  0.00     0.160 A 
ATOM      9  C   UNL     1      96.328  94.290  80.797  1.00  0.00     0.157 A 
ATOM     10  C   UNL     1      98.359  95.108  79.726  1.00  0.00     0.056 A 
ATOM     11  C   UNL     1      95.555  94.987  79.850  1.00  0.00     0.050 A 
ATOM     12  C   UNL     1      96.181  95.758  78.856  1.00  0.00     0.009 A 
BRANCH   8  13
ATOM     13  O   UNL     1      98.508  93.665  81.642  1.00  0.00    -0.493 OA
ATOM     14  C   UNL     1      99.231  94.513  82.555  1.00  0.00     0.278 C 
ENDBRANCH   8  13
BRANCH   9  15
ATOM     15  O   UNL     1      95.720  93.564  81.768  1.00  0.00    -0.504 OA
ATOM     16  H   UNL     1      95.417  94.151  82.465  1.00  0.00     0.293 HD
ENDBRANCH   9  15
ENDBRANCH   6   7
ENDBRANCH   3   6
ENDBRANCH   1   2
BRANCH   1  17
ATOM     17  C   UNL     1      95.395  97.028  74.697  1.00  0.00     0.010 C 
BRANCH  17  18
ATOM     18  C   UNL     1      94.828  95.607  74.431  1.00  0.00     0.001 C 
BRANCH  18  19
ATOM     19  C   UNL     1      93.464  95.347  75.123  1.00  0.00     0.000 C 
BRANCH  19  20
ATOM     20  C   UNL     1      93.441  93.993  75.889  1.00  0.00     0.003 C 
BRANCH  20  21
ATOM     21  C   UNL     1      92.197  93.777  76.811  1.00  0.00    -0.017 C 
ATOM     22  C   UNL     1      91.362  95.086  76.933  1.00  0.00     0.007 C 
ATOM     23  C   UNL     1      92.578  93.252  78.226  1.00  0.00     0.007 C 
ENDBRANCH  20  21
ENDBRANCH  19  20
ENDBRANCH  18  19
ENDBRANCH  17  18
ENDBRANCH   1  17
TORSDOF 10
ENDMDL
MODEL 3
REMARK VINA RESULT:    -5.726     24.016     27.404
REMARK INTER + INTRA:          -9.754
REMARK INTER:                  -8.397
REMARK INTRA:                  -1.356
REMARK UNBOUND:                -0.848
REMARK SMILES COc1cc(CNC(=O)CCCCCC(C)C)ccc1O
REMARK SMILES IDX 10 1 8 2 7 3 9 5 6 6 5 7 3 8 20 9 4 10 19 11 18 12 2 13 1 14
REMARK SMILES IDX 21 15 11 17 12 18 13 19 14 20 15 21 16 22 17 23
REMARK H PARENT 7 4 21 16
REMARK Flexibility Score: inf
ROOT
ATOM      1  C   UNL     1      77.278  86.241  67.859  1.00  0.00     0.100 C 
ENDROOT
BRANCH   1   2
ATOM      2  C   UNL     1      76.810  85.883  66.504  1.00  0.00     0.220 C 
ATOM      3  N   UNL     1      77.081  84.643  66.008  1.00  0.00    -0.352 N 
ATOM      4  H   UNL     1      77.713  84.090  66.569  1.00  0.00     0.163 HD
ATOM      5  O   UNL     1      76.133  86.716  65.854  1.00  0.00    -0.275 OA
BRANCH   3   6
ATOM      6  C   UNL     1      76.546  84.107  64.798  1.00  0.00     0.151 C 
BRANCH   6   7
ATOM      7  C   UNL     1      75.293  83.332  65.005  1.00  0.00    -0.025 A 
ATOM      8  C   UNL     1      72.837  83.229  65.081  1.00  0.00     0.160 A 
ATOM      9  C   UNL     1      72.905  81.843  65.334  1.00  0.00     0.157 A 
ATOM     10  C   UNL     1      74.031  83.968  64.937  1.00  0.00     0.056 A 
ATOM     11  C   UNL     1      74.155  81.205  65.431  1.00  0.00     0.050 A 
ATOM     12  C   UNL     1      75.340  81.942  65.263  1.00  0.00     0.009 A 
BRANCH   8  13
ATOM     13  O   UNL     1      71.630  83.874  65.002  1.00  0.00    -0.493 OA
ATOM     14  C   UNL     1      71.251  84.549  66.217  1.00  0.00     0.278 C 
ENDBRANCH   8  13
BRANCH   9  15
ATOM     15  O   UNL     1      71.764  81.124  65.477  1.00  0.00    -0.504 OA
ATOM     16  H   UNL     1      71.119  81.640  65.967  1.00  0.00     0.293 HD
ENDBRANCH   9  15
ENDBRANCH   6   7
ENDBRANCH   3   6
ENDBRANCH   1   2
BRANCH   1  17
ATOM     17  C   UNL     1      76.847  85.244  68.968  1.00  0.00     0.010 C 
BRANCH  17  18
ATOM     18  C   UNL     1      75.340  84.883  68.859  1.00  0.00     0.001 C 
BRANCH  18  19
ATOM     19  C   UNL     1      74.401  85.975  69.434  1.00  0.00     0.000 C 
BRANCH  19  20
ATOM     20  C   UNL     1      73.565  86.676  68.324  1.00  0.00     0.003 C 
BRANCH  20  21
ATOM     21  C   UNL     1      73.584  88.239  68.371  1.00  0.00    -0.017 C 
ATOM     22  C   UNL     1      75.016  88.768  68.676  1.00  0.00     0.007 C 
ATOM     23  C   UNL     1      72.569  88.826  69.395  1.00  0.00     0.007 C 
ENDBRANCH  20  21
ENDBRANCH  19  20
ENDBRANCH  18  19
ENDBRANCH  17  18
ENDBRANCH   1  17
TORSDOF 10
ENDMDL
MODEL 4
REMARK VINA RESULT:    -5.656      4.117      5.962
REMARK INTER + INTRA:          -9.645
REMARK INTER:                  -8.375
REMARK INTRA:                  -1.270
REMARK UNBOUND:                -0.848
REMARK SMILES COc1cc(CNC(=O)CCCCCC(C)C)ccc1O
REMARK SMILES IDX 10 1 8 2 7 3 9 5 6 6 5 7 3 8 20 9 4 10 19 11 18 12 2 13 1 14
REMARK SMILES IDX 21 15 11 17 12 18 13 19 14 20 15 21 16 22 17 23
REMARK H PARENT 7 4 21 16
REMARK Flexibility Score: inf
ROOT
ATOM      1  C   UNL     1      96.463  93.963  80.350  1.00  0.00     0.100 C 
ENDROOT
BRANCH   1   2
ATOM      2  C   UNL     1      97.015  95.168  79.696  1.00  0.00     0.220 C 
ATOM      3  N   UNL     1      97.256  95.150  78.355  1.00  0.00    -0.352 N 
ATOM      4  H   UNL     1      97.159  94.245  77.917  1.00  0.00     0.163 HD
ATOM      5  O   UNL     1      97.210  96.199  80.385  1.00  0.00    -0.275 OA
BRANCH   3   6
ATOM      6  C   UNL     1      97.621  96.286  77.571  1.00  0.00     0.151 C 
BRANCH   6   7
ATOM      7  C   UNL     1      96.594  96.652  76.558  1.00  0.00    -0.025 A 
ATOM      8  C   UNL     1      95.857  98.057  74.680  1.00  0.00     0.160 A 
ATOM      9  C   UNL     1      94.667  97.305  74.587  1.00  0.00     0.157 A 
ATOM     10  C   UNL     1      96.804  97.738  75.676  1.00  0.00     0.056 A 
ATOM     11  C   UNL     1      94.435  96.240  75.477  1.00  0.00     0.050 A 
ATOM     12  C   UNL     1      95.393  95.912  76.451  1.00  0.00     0.009 A 
BRANCH   8  13
ATOM     13  O   UNL     1      96.093  99.111  73.836  1.00  0.00    -0.493 OA
ATOM     14  C   UNL     1      97.110  98.850  72.850  1.00  0.00     0.278 C 
ENDBRANCH   8  13
BRANCH   9  15
ATOM     15  O   UNL     1      93.749  97.605  73.634  1.00  0.00    -0.504 OA
ATOM     16  H   UNL     1      93.948  97.116  72.833  1.00  0.00     0.293 HD
ENDBRANCH   9  15
ENDBRANCH   6   7
ENDBRANCH   3   6
ENDBRANCH   1   2
BRANCH   1  17
ATOM     17  C   UNL     1      95.787  92.961  79.375  1.00  0.00     0.010 C 
BRANCH  17  18
ATOM     18  C   UNL     1      94.242  93.125  79.366  1.00  0.00     0.001 C 
BRANCH  18  19
ATOM     19  C   UNL     1      93.641  93.222  77.939  1.00  0.00     0.000 C 
BRANCH  19  20
ATOM     20  C   UNL     1      92.388  94.143  77.889  1.00  0.00     0.003 C 
BRANCH  20  21
ATOM     21  C   UNL     1      91.225  93.626  76.982  1.00  0.00    -0.017 C 
ATOM     22  C   UNL     1      90.198  92.800  77.811  1.00  0.00     0.007 C 
ATOM     23  C   UNL     1      91.729  92.788  75.770  1.00  0.00     0.007 C 
ENDBRANCH  20  21
ENDBRANCH  19  20
ENDBRANCH  18  19
ENDBRANCH  17  18
ENDBRANCH   1  17
TORSDOF 10
ENDMDL
MODEL 5
REMARK VINA RESULT:    -5.603     13.177     15.042
REMARK INTER + INTRA:          -9.562
REMARK INTER:                  -8.981
REMARK INTRA:                  -0.581
REMARK UNBOUND:                -0.848
REMARK SMILES COc1cc(CNC(=O)CCCCCC(C)C)ccc1O
REMARK SMILES IDX 10 1 8 2 7 3 9 5 6 6 5 7 3 8 20 9 4 10 19 11 18 12 2 13 1 14
REMARK SMILES IDX 21 15 11 17 12 18 13 19 14 20 15 21 16 22 17 23
REMARK H PARENT 7 4 21 16
REMARK Flexibility Score: inf
ROOT
ATOM      1  C   UNL     1      97.971  80.498  81.917  1.00  0.00     0.100 C 
ENDROOT
BRANCH   1   2
ATOM      2  C   UNL     1      97.975  80.189  80.472  1.00  0.00     0.220 C 
ATOM      3  N   UNL     1      98.562  81.060  79.603  1.00  0.00    -0.352 N 
ATOM      4  H   UNL     1      98.844  81.940  80.009  1.00  0.00     0.163 HD
ATOM      5  O   UNL     1      97.474  79.108  80.079  1.00  0.00    -0.275 OA
BRANCH   3   6
ATOM      6  C   UNL     1      98.790  80.809  78.216  1.00  0.00     0.151 C 
BRANCH   6   7
ATOM      7  C   UNL     1      97.946  81.649  77.324  1.00  0.00    -0.025 A 
ATOM      8  C   UNL     1      97.595  82.786  75.172  1.00  0.00     0.160 A 
ATOM      9  C   UNL     1      96.313  83.193  75.599  1.00  0.00     0.157 A 
ATOM     10  C   UNL     1      98.410  82.033  76.043  1.00  0.00     0.056 A 
ATOM     11  C   UNL     1      95.852  82.839  76.880  1.00  0.00     0.050 A 
ATOM     12  C   UNL     1      96.659  82.069  77.734  1.00  0.00     0.009 A 
BRANCH   8  13
ATOM     13  O   UNL     1      98.070  83.137  73.936  1.00  0.00    -0.493 OA
ATOM     14  C   UNL     1      99.009  82.194  73.384  1.00  0.00     0.278 C 
ENDBRANCH   8  13
BRANCH   9  15
ATOM     15  O   UNL     1      95.522  83.919  74.770  1.00  0.00    -0.504 OA
ATOM     16  H   UNL     1      95.924  84.776  74.613  1.00  0.00     0.293 HD
ENDBRANCH   9  15
ENDBRANCH   6   7
ENDBRANCH   3   6
ENDBRANCH   1   2
BRANCH   1  17
ATOM     17  C   UNL     1      97.030  81.666  82.317  1.00  0.00     0.010 C 
BRANCH  17  18
ATOM     18  C   UNL     1      95.830  81.168  83.170  1.00  0.00     0.001 C 
BRANCH  18  19
ATOM     19  C   UNL     1      95.433  82.147  84.306  1.00  0.00     0.000 C 
BRANCH  19  20
ATOM     20  C   UNL     1      94.535  81.468  85.381  1.00  0.00     0.003 C 
BRANCH  20  21
ATOM     21  C   UNL     1      93.081  81.135  84.911  1.00  0.00    -0.017 C 
ATOM     22  C   UNL     1      92.046  82.067  85.606  1.00  0.00     0.007 C 
ATOM     23  C   UNL     1      92.698  79.644  85.143  1.00  0.00     0.007 C 
ENDBRANCH  20  21
ENDBRANCH  19  20
ENDBRANCH  18  19
ENDBRANCH  17  18
ENDBRANCH   1  17
TORSDOF 10
ENDMDL
MODEL 6
REMARK VINA RESULT:    -5.576     13.056     16.220
REMARK INTER + INTRA:          -9.520
REMARK INTER:                  -8.131
REMARK INTRA:                  -1.390
REMARK UNBOUND:                -0.848
REMARK SMILES COc1cc(CNC(=O)CCCCCC(C)C)ccc1O
REMARK SMILES IDX 10 1 8 2 7 3 9 5 6 6 5 7 3 8 20 9 4 10 19 11 18 12 2 13 1 14
REMARK SMILES IDX 21 15 11 17 12 18 13 19 14 20 15 21 16 22 17 23
REMARK H PARENT 7 4 21 16
REMARK Flexibility Score: inf
ROOT
ATOM      1  C   UNL     1      89.568  98.155  69.367  1.00  0.00     0.100 C 
ENDROOT
BRANCH   1   2
ATOM      2  C   UNL     1      89.263  98.487  67.960  1.00  0.00     0.220 C 
ATOM      3  N   UNL     1      88.104  99.140  67.662  1.00  0.00    -0.352 N 
ATOM      4  H   UNL     1      87.460  99.236  68.434  1.00  0.00     0.163 HD
ATOM      5  O   UNL     1      90.100  98.198  67.071  1.00  0.00    -0.275 OA
BRANCH   3   6
ATOM      6  C   UNL     1      87.766  99.672  66.381  1.00  0.00     0.151 C 
BRANCH   6   7
ATOM      7  C   UNL     1      87.761 101.160  66.349  1.00  0.00    -0.025 A 
ATOM      8  C   UNL     1      88.977 103.297  66.339  1.00  0.00     0.160 A 
ATOM      9  C   UNL     1      87.754 103.990  66.221  1.00  0.00     0.157 A 
ATOM     10  C   UNL     1      88.972 101.888  66.421  1.00  0.00     0.056 A 
ATOM     11  C   UNL     1      86.542 103.277  66.176  1.00  0.00     0.050 A 
ATOM     12  C   UNL     1      86.545 101.873  66.234  1.00  0.00     0.009 A 
BRANCH   8  13
ATOM     13  O   UNL     1      90.167 103.973  66.405  1.00  0.00    -0.493 OA
ATOM     14  C   UNL     1      91.143 103.529  65.443  1.00  0.00     0.278 C 
ENDBRANCH   8  13
BRANCH   9  15
ATOM     15  O   UNL     1      87.747 105.344  66.143  1.00  0.00    -0.504 OA
ATOM     16  H   UNL     1      86.886 105.676  66.405  1.00  0.00     0.293 HD
ENDBRANCH   9  15
ENDBRANCH   6   7
ENDBRANCH   3   6
ENDBRANCH   1   2
BRANCH   1  17
ATOM     17  C   UNL     1      89.699  99.388  70.301  1.00  0.00     0.010 C 
BRANCH  17  18
ATOM     18  C   UNL     1      90.974  99.305  71.184  1.00  0.00     0.001 C 
BRANCH  18  19
ATOM     19  C   UNL     1      91.623 100.687  71.460  1.00  0.00     0.000 C 
BRANCH  19  20
ATOM     20  C   UNL     1      91.259 101.737  70.371  1.00  0.00     0.003 C 
BRANCH  20  21
ATOM     21  C   UNL     1      92.383 102.015  69.320  1.00  0.00    -0.017 C 
ATOM     22  C   UNL     1      92.478 103.536  68.998  1.00  0.00     0.007 C 
ATOM     23  C   UNL     1      92.198 101.202  68.006  1.00  0.00     0.007 C 
ENDBRANCH  20  21
ENDBRANCH  19  20
ENDBRANCH  18  19
ENDBRANCH  17  18
ENDBRANCH   1  17
TORSDOF 10
ENDMDL
MODEL 7
REMARK VINA RESULT:    -5.493      8.204     11.230
REMARK INTER + INTRA:          -9.392
REMARK INTER:                  -8.848
REMARK INTRA:                  -0.544
REMARK UNBOUND:                -0.848
REMARK SMILES COc1cc(CNC(=O)CCCCCC(C)C)ccc1O
REMARK SMILES IDX 10 1 8 2 7 3 9 5 6 6 5 7 3 8 20 9 4 10 19 11 18 12 2 13 1 14
REMARK SMILES IDX 21 15 11 17 12 18 13 19 14 20 15 21 16 22 17 23
REMARK H PARENT 7 4 21 16
REMARK Flexibility Score: inf
ROOT
ATOM      1  C   UNL     1      94.588  97.045  73.959  1.00  0.00     0.100 C 
ENDROOT
BRANCH   1   2
ATOM      2  C   UNL     1      94.537  98.050  72.876  1.00  0.00     0.220 C 
ATOM      3  N   UNL     1      93.421  98.818  72.727  1.00  0.00    -0.352 N 
ATOM      4  H   UNL     1      92.637  98.545  73.303  1.00  0.00     0.163 HD
ATOM      5  O   UNL     1      95.543  98.205  72.141  1.00  0.00    -0.275 OA
BRANCH   3   6
ATOM      6  C   UNL     1      93.303  99.934  71.844  1.00  0.00     0.151 C 
BRANCH   6   7
ATOM      7  C   UNL     1      92.141  99.828  70.920  1.00  0.00    -0.025 A 
ATOM      8  C   UNL     1      91.088 100.322  68.754  1.00  0.00     0.160 A 
ATOM      9  C   UNL     1      89.956  99.569  69.135  1.00  0.00     0.157 A 
ATOM     10  C   UNL     1      92.164 100.462  69.655  1.00  0.00     0.056 A 
ATOM     11  C   UNL     1      89.911  98.957  70.401  1.00  0.00     0.050 A 
ATOM     12  C   UNL     1      90.997  99.080  71.285  1.00  0.00     0.009 A 
BRANCH   8  13
ATOM     13  O   UNL     1      91.143 100.942  67.534  1.00  0.00    -0.493 OA
ATOM     14  C   UNL     1      91.751 102.248  67.572  1.00  0.00     0.278 C 
ENDBRANCH   8  13
BRANCH   9  15
ATOM     15  O   UNL     1      88.915  99.431  68.277  1.00  0.00    -0.504 OA
ATOM     16  H   UNL     1      89.249  99.256  67.394  1.00  0.00     0.293 HD
ENDBRANCH   9  15
ENDBRANCH   6   7
ENDBRANCH   3   6
ENDBRANCH   1   2
BRANCH   1  17
ATOM     17  C   UNL     1      93.315  96.998  74.846  1.00  0.00     0.010 C 
BRANCH  17  18
ATOM     18  C   UNL     1      93.443  95.938  75.975  1.00  0.00     0.001 C 
BRANCH  18  19
ATOM     19  C   UNL     1      92.196  95.865  76.895  1.00  0.00     0.000 C 
BRANCH  19  20
ATOM     20  C   UNL     1      91.204  94.749  76.456  1.00  0.00     0.003 C 
BRANCH  20  21
ATOM     21  C   UNL     1      91.467  93.345  77.091  1.00  0.00    -0.017 C 
ATOM     22  C   UNL     1      90.136  92.692  77.567  1.00  0.00     0.007 C 
ATOM     23  C   UNL     1      92.487  93.394  78.265  1.00  0.00     0.007 C 
ENDBRANCH  20  21
ENDBRANCH  19  20
ENDBRANCH  18  19
ENDBRANCH  17  18
ENDBRANCH   1  17
TORSDOF 10
ENDMDL
MODEL 8
REMARK VINA RESULT:    -5.368     23.203     24.908
REMARK INTER + INTRA:          -9.198
REMARK INTER:                  -8.088
REMARK INTRA:                  -1.110
REMARK UNBOUND:                -0.848
REMARK SMILES COc1cc(CNC(=O)CCCCCC(C)C)ccc1O
REMARK SMILES IDX 10 1 8 2 7 3 9 5 6 6 5 7 3 8 20 9 4 10 19 11 18 12 2 13 1 14
REMARK SMILES IDX 21 15 11 17 12 18 13 19 14 20 15 21 16 22 17 23
REMARK H PARENT 7 4 21 16
REMARK Flexibility Score: inf
ROOT
ATOM      1  C   UNL     1      76.064  84.651  69.009  1.00  0.00     0.100 C 
ENDROOT
BRANCH   1   2
ATOM      2  C   UNL     1      74.921  85.500  69.405  1.00  0.00     0.220 C 
ATOM      3  N   UNL     1      74.659  86.639  68.704  1.00  0.00    -0.352 N 
ATOM      4  H   UNL     1      75.364  86.893  68.027  1.00  0.00     0.163 HD
ATOM      5  O   UNL     1      74.188  85.131  70.355  1.00  0.00    -0.275 OA
BRANCH   3   6
ATOM      6  C   UNL     1      73.497  87.454  68.864  1.00  0.00     0.151 C 
BRANCH   6   7
ATOM      7  C   UNL     1      73.815  88.851  69.266  1.00  0.00    -0.025 A 
ATOM      8  C   UNL     1      73.186  90.937  70.405  1.00  0.00     0.160 A 
ATOM      9  C   UNL     1      74.446  91.487  70.089  1.00  0.00     0.157 A 
ATOM     10  C   UNL     1      72.871  89.630  69.976  1.00  0.00     0.056 A 
ATOM     11  C   UNL     1      75.382  90.731  69.360  1.00  0.00     0.050 A 
ATOM     12  C   UNL     1      75.072  89.421  68.957  1.00  0.00     0.009 A 
BRANCH   8  13
ATOM     13  O   UNL     1      72.252  91.664  71.097  1.00  0.00    -0.493 OA
ATOM     14  C   UNL     1      70.894  91.259  70.843  1.00  0.00     0.278 C 
ENDBRANCH   8  13
BRANCH   9  15
ATOM     15  O   UNL     1      74.757  92.744  70.495  1.00  0.00    -0.504 OA
ATOM     16  H   UNL     1      74.109  93.362  70.150  1.00  0.00     0.293 HD
ENDBRANCH   9  15
ENDBRANCH   6   7
ENDBRANCH   3   6
ENDBRANCH   1   2
BRANCH   1  17
ATOM     17  C   UNL     1      77.307  85.441  68.519  1.00  0.00     0.010 C 
BRANCH  17  18
ATOM     18  C   UNL     1      77.504  85.303  66.984  1.00  0.00     0.001 C 
BRANCH  18  19
ATOM     19  C   UNL     1      77.426  83.837  66.482  1.00  0.00     0.000 C 
BRANCH  19  20
ATOM     20  C   UNL     1      76.487  83.687  65.250  1.00  0.00     0.003 C 
BRANCH  20  21
ATOM     21  C   UNL     1      75.312  84.716  65.186  1.00  0.00    -0.017 C 
ATOM     22  C   UNL     1      74.046  84.160  65.903  1.00  0.00     0.007 C 
ATOM     23  C   UNL     1      74.958  85.140  63.731  1.00  0.00     0.007 C 
ENDBRANCH  20  21
ENDBRANCH  19  20
ENDBRANCH  18  19
ENDBRANCH  17  18
ENDBRANCH   1  17
TORSDOF 10
ENDMDL
MODEL 9
REMARK VINA RESULT:    -5.303      7.320      9.645
REMARK INTER + INTRA:          -9.097
REMARK INTER:                  -8.299
REMARK INTRA:                  -0.798
REMARK UNBOUND:                -0.848
REMARK SMILES COc1cc(CNC(=O)CCCCCC(C)C)ccc1O
REMARK SMILES IDX 10 1 8 2 7 3 9 5 6 6 5 7 3 8 20 9 4 10 19 11 18 12 2 13 1 14
REMARK SMILES IDX 21 15 11 17 12 18 13 19 14 20 15 21 16 22 17 23
REMARK H PARENT 7 4 21 16
REMARK Flexibility Score: inf
ROOT
ATOM      1  C   UNL     1      94.791  95.343  74.552  1.00  0.00     0.100 C 
ENDROOT
BRANCH   1   2
ATOM      2  C   UNL     1      95.157  96.459  73.655  1.00  0.00     0.220 C 
ATOM      3  N   UNL     1      94.824  97.734  74.003  1.00  0.00    -0.352 N 
ATOM      4  H   UNL     1      94.220  97.811  74.808  1.00  0.00     0.163 HD
ATOM      5  O   UNL     1      95.805  96.212  72.609  1.00  0.00    -0.275 OA
BRANCH   3   6
ATOM      6  C   UNL     1      95.261  98.912  73.324  1.00  0.00     0.151 C 
BRANCH   6   7
ATOM      7  C   UNL     1      94.324  99.353  72.256  1.00  0.00    -0.025 A 
ATOM      8  C   UNL     1      93.931 100.259  70.004  1.00  0.00     0.160 A 
ATOM      9  C   UNL     1      92.539 100.130  70.197  1.00  0.00     0.157 A 
ATOM     10  C   UNL     1      94.813  99.888  71.041  1.00  0.00     0.056 A 
ATOM     11  C   UNL     1      92.041  99.624  71.411  1.00  0.00     0.050 A 
ATOM     12  C   UNL     1      92.925  99.233  72.431  1.00  0.00     0.009 A 
BRANCH   8  13
ATOM     13  O   UNL     1      94.437 100.768  68.836  1.00  0.00    -0.493 OA
ATOM     14  C   UNL     1      95.871 100.676  68.734  1.00  0.00     0.278 C 
ENDBRANCH   8  13
BRANCH   9  15
ATOM     15  O   UNL     1      91.683 100.486  69.207  1.00  0.00    -0.504 OA
ATOM     16  H   UNL     1      91.558 101.438  69.219  1.00  0.00     0.293 HD
ENDBRANCH   9  15
ENDBRANCH   6   7
ENDBRANCH   3   6
ENDBRANCH   1   2
BRANCH   1  17
ATOM     17  C   UNL     1      94.341  95.786  75.971  1.00  0.00     0.010 C 
BRANCH  17  18
ATOM     18  C   UNL     1      94.417  94.613  76.987  1.00  0.00     0.001 C 
BRANCH  18  19
ATOM     19  C   UNL     1      93.283  94.641  78.046  1.00  0.00     0.000 C 
BRANCH  19  20
ATOM     20  C   UNL     1      92.474  93.312  78.077  1.00  0.00     0.003 C 
BRANCH  20  21
ATOM     21  C   UNL     1      91.039  93.398  77.463  1.00  0.00    -0.017 C 
ATOM     22  C   UNL     1      90.857  92.349  76.326  1.00  0.00     0.007 C 
ATOM     23  C   UNL     1      90.690  94.821  76.937  1.00  0.00     0.007 C 
ENDBRANCH  20  21
ENDBRANCH  19  20
ENDBRANCH  18  19
ENDBRANCH  17  18
ENDBRANCH   1  17
TORSDOF 10
ENDMDL
MODEL 10
REMARK VINA RESULT:    -5.287     13.480     15.414
REMARK INTER + INTRA:          -9.072
REMARK INTER:                  -8.562
REMARK INTRA:                  -0.510
REMARK UNBOUND:                -0.848
REMARK SMILES COc1cc(CNC(=O)CCCCCC(C)C)ccc1O
REMARK SMILES IDX 10 1 8 2 7 3 9 5 6 6 5 7 3 8 20 9 4 10 19 11 18 12 2 13 1 14
REMARK SMILES IDX 21 15 11 17 12 18 13 19 14 20 15 21 16 22 17 23
REMARK H PARENT 7 4 21 16
REMARK Flexibility Score: inf
ROOT
ATOM      1  C   UNL     1     101.002  84.132  70.517  1.00  0.00     0.100 C 
ENDROOT
BRANCH   1   2
ATOM      2  C   UNL     1     100.838  82.933  71.365  1.00  0.00     0.220 C 
ATOM      3  N   UNL     1     100.468  83.081  72.669  1.00  0.00    -0.352 N 
ATOM      4  H   UNL     1     100.459  84.034  73.002  1.00  0.00     0.163 HD
ATOM      5  O   UNL     1     101.002  81.798  70.855  1.00  0.00    -0.275 OA
BRANCH   3   6
ATOM      6  C   UNL     1     100.108  82.014  73.547  1.00  0.00     0.151 C 
BRANCH   6   7
ATOM      7  C   UNL     1      98.894  82.308  74.356  1.00  0.00    -0.025 A 
ATOM      8  C   UNL     1      97.723  82.312  76.518  1.00  0.00     0.160 A 
ATOM      9  C   UNL     1      96.608  82.928  75.911  1.00  0.00     0.157 A 
ATOM     10  C   UNL     1      98.851  81.988  75.734  1.00  0.00     0.056 A 
ATOM     11  C   UNL     1      96.631  83.226  74.536  1.00  0.00     0.050 A 
ATOM     12  C   UNL     1      97.766  82.924  73.765  1.00  0.00     0.009 A 
BRANCH   8  13
ATOM     13  O   UNL     1      97.713  81.995  77.851  1.00  0.00    -0.493 OA
ATOM     14  C   UNL     1      97.450  80.604  78.118  1.00  0.00     0.278 C 
ENDBRANCH   8  13
BRANCH   9  15
ATOM     15  O   UNL     1      95.518  83.241  76.655  1.00  0.00    -0.504 OA
ATOM     16  H   UNL     1      95.431  84.196  76.710  1.00  0.00     0.293 HD
ENDBRANCH   9  15
ENDBRANCH   6   7
ENDBRANCH   3   6
ENDBRANCH   1   2
BRANCH   1  17
ATOM     17  C   UNL     1     101.478  83.829  69.071  1.00  0.00     0.010 C 
BRANCH  17  18
ATOM     18  C   UNL     1     101.303  85.062  68.141  1.00  0.00     0.001 C 
BRANCH  18  19
ATOM     19  C   UNL     1     100.340  84.805  66.952  1.00  0.00     0.000 C 
BRANCH  19  20
ATOM     20  C   UNL     1      99.908  86.124  66.248  1.00  0.00     0.003 C 
BRANCH  20  21
ATOM     21  C   UNL     1      98.422  86.159  65.766  1.00  0.00    -0.017 C 
ATOM     22  C   UNL     1      97.476  86.620  66.914  1.00  0.00     0.007 C 
ATOM     23  C   UNL     1      97.940  84.794  65.193  1.00  0.00     0.007 C 
ENDBRANCH  20  21
ENDBRANCH  19  20
ENDBRANCH  18  19
ENDBRANCH  17  18
ENDBRANCH   1  17
TORSDOF 10
ENDMDL
