MODEL 1
REMARK VINA RESULT:    -6.540      0.000      0.000
REMARK INTER + INTRA:         -11.219
REMARK INTER:                 -10.555
REMARK INTRA:                  -0.665
REMARK UNBOUND:                -0.665
REMARK SMILES COc1cc(CNC(=O)CCCCCCC(C)C)ccc1O
REMARK SMILES IDX 11 1 10 2 8 3 7 4 9 6 6 7 5 8 3 9 21 10 4 11 20 12 19 13
REMARK SMILES IDX 2 14 1 15 22 16 12 18 13 19 14 20 15 21 16 22 17 23 18 24
REMARK H PARENT 7 5 22 17
REMARK Flexibility Score: inf
ROOT
ATOM      1  C   UNL     1      92.293  81.556  84.728  1.00  0.00     0.010 C 
ENDROOT
BRANCH   1   2
ATOM      2  C   UNL     1      92.970  82.921  85.033  1.00  0.00     0.100 C 
BRANCH   2   3
ATOM      3  C   UNL     1      94.424  82.927  84.759  1.00  0.00     0.220 C 
ATOM      4  N   UNL     1      94.907  83.482  83.610  1.00  0.00    -0.352 N 
ATOM      5  H   UNL     1      94.198  83.828  82.979  1.00  0.00     0.163 HD
ATOM      6  O   UNL     1      95.200  82.435  85.615  1.00  0.00    -0.275 OA
BRANCH   4   7
ATOM      7  C   UNL     1      96.291  83.597  83.265  1.00  0.00     0.151 C 
BRANCH   7   8
ATOM      8  C   UNL     1      96.691  82.712  82.137  1.00  0.00    -0.025 A 
ATOM      9  C   UNL     1      97.456  82.434  79.816  1.00  0.00     0.160 A 
ATOM     10  C   UNL     1      97.496  81.034  79.995  1.00  0.00     0.157 A 
ATOM     11  C   UNL     1      97.036  83.259  80.880  1.00  0.00     0.056 A 
ATOM     12  C   UNL     1      97.117  80.474  81.228  1.00  0.00     0.050 A 
ATOM     13  C   UNL     1      96.727  81.306  82.296  1.00  0.00     0.009 A 
BRANCH   9  14
ATOM     14  O   UNL     1      97.784  82.986  78.608  1.00  0.00    -0.493 OA
ATOM     15  C   UNL     1      96.674  83.602  77.931  1.00  0.00     0.278 C 
ENDBRANCH   9  14
BRANCH  10  16
ATOM     16  O   UNL     1      97.894  80.214  78.986  1.00  0.00    -0.504 OA
ATOM     17  H   UNL     1      98.620  79.664  79.290  1.00  0.00     0.293 HD
ENDBRANCH  10  16
ENDBRANCH   7   8
ENDBRANCH   4   7
ENDBRANCH   2   3
ENDBRANCH   1   2
BRANCH   1  18
ATOM     18  C   UNL     1      90.752  81.689  84.563  1.00  0.00     0.001 C 
BRANCH  18  19
ATOM     19  C   UNL     1      90.124  80.598  83.651  1.00  0.00     0.000 C 
BRANCH  19  20
ATOM     20  C   UNL     1      88.571  80.605  83.737  1.00  0.00     0.000 C 
BRANCH  20  21
ATOM     21  C   UNL     1      87.993  81.663  84.718  1.00  0.00     0.003 C 
BRANCH  21  22
ATOM     22  C   UNL     1      87.526  82.992  84.040  1.00  0.00    -0.017 C 
ATOM     23  C   UNL     1      87.108  84.034  85.115  1.00  0.00     0.007 C 
ATOM     24  C   UNL     1      86.384  82.796  82.999  1.00  0.00     0.007 C 
ENDBRANCH  21  22
ENDBRANCH  20  21
ENDBRANCH  19  20
ENDBRANCH  18  19
ENDBRANCH   1  18
TORSDOF 11
ENDMDL
MODEL 2
REMARK VINA RESULT:    -5.852      5.381      9.135
REMARK INTER + INTRA:         -10.108
REMARK INTER:                  -9.432
REMARK INTRA:                  -0.676
REMARK UNBOUND:                -0.665
REMARK SMILES COc1cc(CNC(=O)CCCCCCC(C)C)ccc1O
REMARK SMILES IDX 11 1 10 2 8 3 7 4 9 6 6 7 5 8 3 9 21 10 4 11 20 12 19 13
REMARK SMILES IDX 2 14 1 15 22 16 12 18 13 19 14 20 15 21 16 22 17 23 18 24
REMARK H PARENT 7 5 22 17
REMARK Flexibility Score: inf
ROOT
ATOM      1  C   UNL     1      97.801  82.495  77.485  1.00  0.00     0.010 C 
ENDROOT
BRANCH   1   2
ATOM      2  C   UNL     1      96.881  83.736  77.317  1.00  0.00     0.100 C 
BRANCH   2   3
ATOM      3  C   UNL     1      97.074  84.437  76.027  1.00  0.00     0.220 C 
ATOM      4  N   UNL     1      98.280  84.387  75.390  1.00  0.00    -0.352 N 
ATOM      5  H   UNL     1      99.000  83.886  75.889  1.00  0.00     0.163 HD
ATOM      6  O   UNL     1      96.103  85.054  75.526  1.00  0.00    -0.275 OA
BRANCH   4   7
ATOM      7  C   UNL     1      98.566  84.975  74.117  1.00  0.00     0.151 C 
BRANCH   7   8
ATOM      8  C   UNL     1      98.909  83.972  73.071  1.00  0.00    -0.025 A 
ATOM      9  C   UNL     1     100.374  83.213  71.247  1.00  0.00     0.160 A 
ATOM     10  C   UNL     1      99.595  82.044  71.105  1.00  0.00     0.157 A 
ATOM     11  C   UNL     1     100.015  84.175  72.214  1.00  0.00     0.056 A 
ATOM     12  C   UNL     1      98.469  81.849  71.926  1.00  0.00     0.050 A 
ATOM     13  C   UNL     1      98.134  82.800  72.909  1.00  0.00     0.009 A 
BRANCH   9  14
ATOM     14  O   UNL     1     101.448  83.431  70.428  1.00  0.00    -0.493 OA
ATOM     15  C   UNL     1     101.570  84.795  69.983  1.00  0.00     0.278 C 
ENDBRANCH   9  14
BRANCH  10  16
ATOM     16  O   UNL     1      99.917  81.101  70.181  1.00  0.00    -0.504 OA
ATOM     17  H   UNL     1      99.307  81.157  69.442  1.00  0.00     0.293 HD
ENDBRANCH  10  16
ENDBRANCH   7   8
ENDBRANCH   4   7
ENDBRANCH   2   3
ENDBRANCH   1   2
BRANCH   1  18
ATOM     18  C   UNL     1      97.837  81.987  78.955  1.00  0.00     0.001 C 
BRANCH  18  19
ATOM     19  C   UNL     1      97.120  82.930  79.962  1.00  0.00     0.000 C 
BRANCH  19  20
ATOM     20  C   UNL     1      97.510  82.600  81.430  1.00  0.00     0.000 C 
BRANCH  20  21
ATOM     21  C   UNL     1      96.360  81.979  82.271  1.00  0.00     0.003 C 
BRANCH  21  22
ATOM     22  C   UNL     1      95.885  82.859  83.473  1.00  0.00    -0.017 C 
ATOM     23  C   UNL     1      94.473  82.413  83.948  1.00  0.00     0.007 C 
ATOM     24  C   UNL     1      95.903  84.387  83.176  1.00  0.00     0.007 C 
ENDBRANCH  21  22
ENDBRANCH  20  21
ENDBRANCH  19  20
ENDBRANCH  18  19
ENDBRANCH   1  18
TORSDOF 11
ENDMDL
MODEL 3
REMARK VINA RESULT:    -5.749      5.426      8.349
REMARK INTER + INTRA:          -9.943
REMARK INTER:                  -9.318
REMARK INTRA:                  -0.626
REMARK UNBOUND:                -0.665
REMARK SMILES COc1cc(CNC(=O)CCCCCCC(C)C)ccc1O
REMARK SMILES IDX 11 1 10 2 8 3 7 4 9 6 6 7 5 8 3 9 21 10 4 11 20 12 19 13
REMARK SMILES IDX 2 14 1 15 22 16 12 18 13 19 14 20 15 21 16 22 17 23 18 24
REMARK H PARENT 7 5 22 17
REMARK Flexibility Score: inf
ROOT
ATOM      1  C   UNL     1      97.516  83.173  78.888  1.00  0.00     0.010 C 
ENDROOT
BRANCH   1   2
ATOM      2  C   UNL     1      96.431  83.600  77.861  1.00  0.00     0.100 C 
BRANCH   2   3
ATOM      3  C   UNL     1      96.989  84.278  76.669  1.00  0.00     0.220 C 
ATOM      4  N   UNL     1      98.235  83.960  76.215  1.00  0.00    -0.352 N 
ATOM      5  H   UNL     1      98.728  83.281  76.777  1.00  0.00     0.163 HD
ATOM      6  O   UNL     1      96.282  85.129  76.076  1.00  0.00    -0.275 OA
BRANCH   4   7
ATOM      7  C   UNL     1      98.852  84.505  75.044  1.00  0.00     0.151 C 
BRANCH   7   8
ATOM      8  C   UNL     1     100.323  84.276  74.995  1.00  0.00    -0.025 A 
ATOM      9  C   UNL     1     102.589  85.092  74.501  1.00  0.00     0.160 A 
ATOM     10  C   UNL     1     103.130  83.863  74.940  1.00  0.00     0.157 A 
ATOM     11  C   UNL     1     101.192  85.281  74.514  1.00  0.00     0.056 A 
ATOM     12  C   UNL     1     102.272  82.840  75.384  1.00  0.00     0.050 A 
ATOM     13  C   UNL     1     100.880  83.047  75.422  1.00  0.00     0.009 A 
BRANCH   9  14
ATOM     14  O   UNL     1     103.412  86.079  74.030  1.00  0.00    -0.493 OA
ATOM     15  C   UNL     1     103.801  87.036  75.031  1.00  0.00     0.278 C 
ENDBRANCH   9  14
BRANCH  10  16
ATOM     16  O   UNL     1     104.472  83.652  74.937  1.00  0.00    -0.504 OA
ATOM     17  H   UNL     1     104.790  83.630  74.031  1.00  0.00     0.293 HD
ENDBRANCH  10  16
ENDBRANCH   7   8
ENDBRANCH   4   7
ENDBRANCH   2   3
ENDBRANCH   1   2
BRANCH   1  18
ATOM     18  C   UNL     1      96.988  83.214  80.350  1.00  0.00     0.001 C 
BRANCH  18  19
ATOM     19  C   UNL     1      97.197  81.885  81.129  1.00  0.00     0.000 C 
BRANCH  19  20
ATOM     20  C   UNL     1      96.766  82.020  82.617  1.00  0.00     0.000 C 
BRANCH  20  21
ATOM     21  C   UNL     1      95.747  83.162  82.884  1.00  0.00     0.003 C 
BRANCH  21  22
ATOM     22  C   UNL     1      96.149  84.135  84.040  1.00  0.00    -0.017 C 
ATOM     23  C   UNL     1      95.374  83.783  85.341  1.00  0.00     0.007 C 
ATOM     24  C   UNL     1      95.962  85.640  83.685  1.00  0.00     0.007 C 
ENDBRANCH  21  22
ENDBRANCH  20  21
ENDBRANCH  19  20
ENDBRANCH  18  19
ENDBRANCH   1  18
TORSDOF 11
ENDMDL
MODEL 4
REMARK VINA RESULT:    -5.741     14.982     17.771
REMARK INTER + INTRA:          -9.930
REMARK INTER:                  -9.025
REMARK INTRA:                  -0.904
REMARK UNBOUND:                -0.665
REMARK SMILES COc1cc(CNC(=O)CCCCCCC(C)C)ccc1O
REMARK SMILES IDX 11 1 10 2 8 3 7 4 9 6 6 7 5 8 3 9 21 10 4 11 20 12 19 13
REMARK SMILES IDX 2 14 1 15 22 16 12 18 13 19 14 20 15 21 16 22 17 23 18 24
REMARK H PARENT 7 5 22 17
REMARK Flexibility Score: inf
ROOT
ATOM      1  C   UNL     1      94.504  96.644  74.171  1.00  0.00     0.010 C 
ENDROOT
BRANCH   1   2
ATOM      2  C   UNL     1      93.925  97.827  73.347  1.00  0.00     0.100 C 
BRANCH   2   3
ATOM      3  C   UNL     1      94.594  98.011  72.040  1.00  0.00     0.220 C 
ATOM      4  N   UNL     1      95.451  97.062  71.564  1.00  0.00    -0.352 N 
ATOM      5  H   UNL     1      95.607  96.285  72.189  1.00  0.00     0.163 HD
ATOM      6  O   UNL     1      94.336  99.042  71.372  1.00  0.00    -0.275 OA
BRANCH   4   7
ATOM      7  C   UNL     1      96.108  97.104  70.293  1.00  0.00     0.151 C 
BRANCH   7   8
ATOM      8  C   UNL     1      97.590  97.181  70.401  1.00  0.00    -0.025 A 
ATOM      9  C   UNL     1      99.821  96.515  69.607  1.00  0.00     0.160 A 
ATOM     10  C   UNL     1     100.418  97.356  70.571  1.00  0.00     0.157 A 
ATOM     11  C   UNL     1      98.415  96.419  69.542  1.00  0.00     0.056 A 
ATOM     12  C   UNL     1      99.608  98.090  71.457  1.00  0.00     0.050 A 
ATOM     13  C   UNL     1      98.205  98.012  71.367  1.00  0.00     0.009 A 
BRANCH   9  14
ATOM     14  O   UNL     1     100.599  95.767  68.766  1.00  0.00    -0.493 OA
ATOM     15  C   UNL     1     100.777  94.406  69.198  1.00  0.00     0.278 C 
ENDBRANCH   9  14
BRANCH  10  16
ATOM     16  O   UNL     1     101.769  97.467  70.657  1.00  0.00    -0.504 OA
ATOM     17  H   UNL     1     102.077  98.123  70.027  1.00  0.00     0.293 HD
ENDBRANCH  10  16
ENDBRANCH   7   8
ENDBRANCH   4   7
ENDBRANCH   2   3
ENDBRANCH   1   2
BRANCH   1  18
ATOM     18  C   UNL     1      93.387  95.728  74.748  1.00  0.00     0.001 C 
BRANCH  18  19
ATOM     19  C   UNL     1      93.791  94.996  76.058  1.00  0.00     0.000 C 
BRANCH  19  20
ATOM     20  C   UNL     1      92.786  95.283  77.209  1.00  0.00     0.000 C 
BRANCH  20  21
ATOM     21  C   UNL     1      91.431  95.880  76.736  1.00  0.00     0.003 C 
BRANCH  21  22
ATOM     22  C   UNL     1      90.260  94.847  76.651  1.00  0.00    -0.017 C 
ATOM     23  C   UNL     1      90.437  93.735  77.722  1.00  0.00     0.007 C 
ATOM     24  C   UNL     1      90.081  94.219  75.237  1.00  0.00     0.007 C 
ENDBRANCH  21  22
ENDBRANCH  20  21
ENDBRANCH  19  20
ENDBRANCH  18  19
ENDBRANCH   1  18
TORSDOF 11
ENDMDL
MODEL 5
REMARK VINA RESULT:    -5.715      7.151     10.379
REMARK INTER + INTRA:          -9.888
REMARK INTER:                  -8.544
REMARK INTRA:                  -1.345
REMARK UNBOUND:                -0.665
REMARK SMILES COc1cc(CNC(=O)CCCCCCC(C)C)ccc1O
REMARK SMILES IDX 11 1 10 2 8 3 7 4 9 6 6 7 5 8 3 9 21 10 4 11 20 12 19 13
REMARK SMILES IDX 2 14 1 15 22 16 12 18 13 19 14 20 15 21 16 22 17 23 18 24
REMARK H PARENT 7 5 22 17
REMARK Flexibility Score: inf
ROOT
ATOM      1  C   UNL     1      97.425  83.045  78.276  1.00  0.00     0.010 C 
ENDROOT
BRANCH   1   2
ATOM      2  C   UNL     1      96.284  83.887  77.641  1.00  0.00     0.100 C 
BRANCH   2   3
ATOM      3  C   UNL     1      96.629  84.428  76.307  1.00  0.00     0.220 C 
ATOM      4  N   UNL     1      97.392  83.698  75.444  1.00  0.00    -0.352 N 
ATOM      5  H   UNL     1      97.717  82.816  75.812  1.00  0.00     0.163 HD
ATOM      6  O   UNL     1      96.184  85.556  75.983  1.00  0.00    -0.275 OA
BRANCH   4   7
ATOM      7  C   UNL     1      97.738  84.092  74.112  1.00  0.00     0.151 C 
BRANCH   7   8
ATOM      8  C   UNL     1      99.178  84.437  73.958  1.00  0.00    -0.025 A 
ATOM      9  C   UNL     1     101.031  85.276  72.576  1.00  0.00     0.160 A 
ATOM     10  C   UNL     1     101.913  85.139  73.671  1.00  0.00     0.157 A 
ATOM     11  C   UNL     1      99.678  84.907  72.722  1.00  0.00     0.056 A 
ATOM     12  C   UNL     1     101.436  84.636  74.895  1.00  0.00     0.050 A 
ATOM     13  C   UNL     1     100.077  84.297  75.042  1.00  0.00     0.009 A 
BRANCH   9  14
ATOM     14  O   UNL     1     101.493  85.728  71.370  1.00  0.00    -0.493 OA
ATOM     15  C   UNL     1     101.411  84.751  70.315  1.00  0.00     0.278 C 
ENDBRANCH   9  14
BRANCH  10  16
ATOM     16  O   UNL     1     103.222  85.486  73.558  1.00  0.00    -0.504 OA
ATOM     17  H   UNL     1     103.572  85.147  72.731  1.00  0.00     0.293 HD
ENDBRANCH  10  16
ENDBRANCH   7   8
ENDBRANCH   4   7
ENDBRANCH   2   3
ENDBRANCH   1   2
BRANCH   1  18
ATOM     18  C   UNL     1      97.384  83.077  79.830  1.00  0.00     0.001 C 
BRANCH  18  19
ATOM     19  C   UNL     1      98.037  81.835  80.500  1.00  0.00     0.000 C 
BRANCH  19  20
ATOM     20  C   UNL     1      98.898  81.027  79.489  1.00  0.00     0.000 C 
BRANCH  20  21
ATOM     21  C   UNL     1     100.397  81.437  79.457  1.00  0.00     0.003 C 
BRANCH  21  22
ATOM     22  C   UNL     1     100.974  81.679  78.025  1.00  0.00    -0.017 C 
ATOM     23  C   UNL     1     100.122  80.932  76.961  1.00  0.00     0.007 C 
ATOM     24  C   UNL     1     102.478  81.299  77.884  1.00  0.00     0.007 C 
ENDBRANCH  21  22
ENDBRANCH  20  21
ENDBRANCH  19  20
ENDBRANCH  18  19
ENDBRANCH   1  18
TORSDOF 11
ENDMDL
MODEL 6
REMARK VINA RESULT:    -5.566      5.608      8.945
REMARK INTER + INTRA:          -9.647
REMARK INTER:                  -8.855
REMARK INTRA:                  -0.792
REMARK UNBOUND:                -0.665
REMARK SMILES COc1cc(CNC(=O)CCCCCCC(C)C)ccc1O
REMARK SMILES IDX 11 1 10 2 8 3 7 4 9 6 6 7 5 8 3 9 21 10 4 11 20 12 19 13
REMARK SMILES IDX 2 14 1 15 22 16 12 18 13 19 14 20 15 21 16 22 17 23 18 24
REMARK H PARENT 7 5 22 17
REMARK Flexibility Score: inf
ROOT
ATOM      1  C   UNL     1      97.157  82.230  77.922  1.00  0.00     0.010 C 
ENDROOT
BRANCH   1   2
ATOM      2  C   UNL     1      96.528  83.648  77.846  1.00  0.00     0.100 C 
BRANCH   2   3
ATOM      3  C   UNL     1      96.667  84.279  76.515  1.00  0.00     0.220 C 
ATOM      4  N   UNL     1      97.389  83.665  75.533  1.00  0.00    -0.352 N 
ATOM      5  H   UNL     1      97.833  82.803  75.814  1.00  0.00     0.163 HD
ATOM      6  O   UNL     1      96.088  85.373  76.304  1.00  0.00    -0.275 OA
BRANCH   4   7
ATOM      7  C   UNL     1      97.544  84.150  74.195  1.00  0.00     0.151 C 
BRANCH   7   8
ATOM      8  C   UNL     1      98.958  84.450  73.840  1.00  0.00    -0.025 A 
ATOM      9  C   UNL     1     100.659  84.996  72.150  1.00  0.00     0.160 A 
ATOM     10  C   UNL     1     101.644  85.065  73.160  1.00  0.00     0.157 A 
ATOM     11  C   UNL     1      99.330  84.671  72.495  1.00  0.00     0.056 A 
ATOM     12  C   UNL     1     101.293  84.808  74.498  1.00  0.00     0.050 A 
ATOM     13  C   UNL     1      99.959  84.513  74.838  1.00  0.00     0.009 A 
BRANCH   9  14
ATOM     14  O   UNL     1     100.997  85.205  70.841  1.00  0.00    -0.493 OA
ATOM     15  C   UNL     1     101.204  83.992  70.094  1.00  0.00     0.278 C 
ENDBRANCH   9  14
BRANCH  10  16
ATOM     16  O   UNL     1     102.932  85.374  72.857  1.00  0.00    -0.504 OA
ATOM     17  H   UNL     1     103.141  86.246  73.201  1.00  0.00     0.293 HD
ENDBRANCH  10  16
ENDBRANCH   7   8
ENDBRANCH   4   7
ENDBRANCH   2   3
ENDBRANCH   1   2
BRANCH   1  18
ATOM     18  C   UNL     1      97.941  82.005  79.247  1.00  0.00     0.001 C 
BRANCH  18  19
ATOM     19  C   UNL     1      97.505  80.733  80.026  1.00  0.00     0.000 C 
BRANCH  19  20
ATOM     20  C   UNL     1      97.559  80.957  81.563  1.00  0.00     0.000 C 
BRANCH  20  21
ATOM     21  C   UNL     1      97.415  82.442  81.996  1.00  0.00     0.003 C 
BRANCH  21  22
ATOM     22  C   UNL     1      96.107  82.764  82.791  1.00  0.00    -0.017 C 
ATOM     23  C   UNL     1      95.919  84.301  82.929  1.00  0.00     0.007 C 
ATOM     24  C   UNL     1      96.040  82.079  84.188  1.00  0.00     0.007 C 
ENDBRANCH  21  22
ENDBRANCH  20  21
ENDBRANCH  19  20
ENDBRANCH  18  19
ENDBRANCH   1  18
TORSDOF 11
ENDMDL
MODEL 7
REMARK VINA RESULT:    -5.220      3.106      4.793
REMARK INTER + INTRA:          -9.088
REMARK INTER:                  -7.534
REMARK INTRA:                  -1.554
REMARK UNBOUND:                -0.665
REMARK SMILES COc1cc(CNC(=O)CCCCCCC(C)C)ccc1O
REMARK SMILES IDX 11 1 10 2 8 3 7 4 9 6 6 7 5 8 3 9 21 10 4 11 20 12 19 13
REMARK SMILES IDX 2 14 1 15 22 16 12 18 13 19 14 20 15 21 16 22 17 23 18 24
REMARK H PARENT 7 5 22 17
REMARK Flexibility Score: inf
ROOT
ATOM      1  C   UNL     1      92.892  77.232  83.663  1.00  0.00     0.010 C 
ENDROOT
BRANCH   1   2
ATOM      2  C   UNL     1      93.881  76.585  84.671  1.00  0.00     0.100 C 
BRANCH   2   3
ATOM      3  C   UNL     1      95.070  77.423  84.944  1.00  0.00     0.220 C 
ATOM      4  N   UNL     1      94.923  78.731  85.303  1.00  0.00    -0.352 N 
ATOM      5  H   UNL     1      93.969  79.060  85.317  1.00  0.00     0.163 HD
ATOM      6  O   UNL     1      96.208  76.898  84.862  1.00  0.00    -0.275 OA
BRANCH   4   7
ATOM      7  C   UNL     1      95.993  79.618  85.647  1.00  0.00     0.151 C 
BRANCH   7   8
ATOM      8  C   UNL     1      96.184  80.716  84.659  1.00  0.00    -0.025 A 
ATOM      9  C   UNL     1      96.532  83.100  84.166  1.00  0.00     0.160 A 
ATOM     10  C   UNL     1      96.594  82.808  82.786  1.00  0.00     0.157 A 
ATOM     11  C   UNL     1      96.309  82.057  85.089  1.00  0.00     0.056 A 
ATOM     12  C   UNL     1      96.432  81.483  82.343  1.00  0.00     0.050 A 
ATOM     13  C   UNL     1      96.239  80.442  83.272  1.00  0.00     0.009 A 
BRANCH   9  14
ATOM     14  O   UNL     1      96.649  84.391  84.604  1.00  0.00    -0.493 OA
ATOM     15  C   UNL     1      95.387  85.030  84.870  1.00  0.00     0.278 C 
ENDBRANCH   9  14
BRANCH  10  16
ATOM     16  O   UNL     1      96.805  83.793  81.874  1.00  0.00    -0.504 OA
ATOM     17  H   UNL     1      97.316  84.499  82.279  1.00  0.00     0.293 HD
ENDBRANCH  10  16
ENDBRANCH   7   8
ENDBRANCH   4   7
ENDBRANCH   2   3
ENDBRANCH   1   2
BRANCH   1  18
ATOM     18  C   UNL     1      91.409  76.923  84.015  1.00  0.00     0.001 C 
BRANCH  18  19
ATOM     19  C   UNL     1      90.592  78.174  84.444  1.00  0.00     0.000 C 
BRANCH  19  20
ATOM     20  C   UNL     1      91.205  79.482  83.868  1.00  0.00     0.000 C 
BRANCH  20  21
ATOM     21  C   UNL     1      90.630  80.783  84.493  1.00  0.00     0.003 C 
BRANCH  21  22
ATOM     22  C   UNL     1      91.664  81.622  85.313  1.00  0.00    -0.017 C 
ATOM     23  C   UNL     1      92.755  82.209  84.375  1.00  0.00     0.007 C 
ATOM     24  C   UNL     1      92.320  80.833  86.485  1.00  0.00     0.007 C 
ENDBRANCH  21  22
ENDBRANCH  20  21
ENDBRANCH  19  20
ENDBRANCH  18  19
ENDBRANCH   1  18
TORSDOF 11
ENDMDL
MODEL 8
REMARK VINA RESULT:    -5.084      5.858      9.283
REMARK INTER + INTRA:          -8.869
REMARK INTER:                  -8.040
REMARK INTRA:                  -0.829
REMARK UNBOUND:                -0.665
REMARK SMILES COc1cc(CNC(=O)CCCCCCC(C)C)ccc1O
REMARK SMILES IDX 11 1 10 2 8 3 7 4 9 6 6 7 5 8 3 9 21 10 4 11 20 12 19 13
REMARK SMILES IDX 2 14 1 15 22 16 12 18 13 19 14 20 15 21 16 22 17 23 18 24
REMARK H PARENT 7 5 22 17
REMARK Flexibility Score: inf
ROOT
ATOM      1  C   UNL     1      99.212  81.644  77.928  1.00  0.00     0.010 C 
ENDROOT
BRANCH   1   2
ATOM      2  C   UNL     1      97.830  82.274  78.255  1.00  0.00     0.100 C 
BRANCH   2   3
ATOM      3  C   UNL     1      97.413  83.307  77.281  1.00  0.00     0.220 C 
ATOM      4  N   UNL     1      97.787  83.211  75.972  1.00  0.00    -0.352 N 
ATOM      5  H   UNL     1      98.386  82.426  75.762  1.00  0.00     0.163 HD
ATOM      6  O   UNL     1      96.692  84.254  77.679  1.00  0.00    -0.275 OA
BRANCH   4   7
ATOM      7  C   UNL     1      97.398  84.115  74.933  1.00  0.00     0.151 C 
BRANCH   7   8
ATOM      8  C   UNL     1      98.358  84.150  73.795  1.00  0.00    -0.025 A 
ATOM      9  C   UNL     1      99.442  83.037  71.889  1.00  0.00     0.160 A 
ATOM     10  C   UNL     1     100.152  84.222  71.598  1.00  0.00     0.157 A 
ATOM     11  C   UNL     1      98.566  83.004  72.994  1.00  0.00     0.056 A 
ATOM     12  C   UNL     1      99.983  85.357  72.412  1.00  0.00     0.050 A 
ATOM     13  C   UNL     1      99.085  85.326  73.496  1.00  0.00     0.009 A 
BRANCH   9  14
ATOM     14  O   UNL     1      99.628  81.916  71.127  1.00  0.00    -0.493 OA
ATOM     15  C   UNL     1      98.514  81.006  71.152  1.00  0.00     0.278 C 
ENDBRANCH   9  14
BRANCH  10  16
ATOM     16  O   UNL     1     101.004  84.282  70.541  1.00  0.00    -0.504 OA
ATOM     17  H   UNL     1     101.844  83.886  70.785  1.00  0.00     0.293 HD
ENDBRANCH  10  16
ENDBRANCH   7   8
ENDBRANCH   4   7
ENDBRANCH   2   3
ENDBRANCH   1   2
BRANCH   1  18
ATOM     18  C   UNL     1     100.063  81.401  79.207  1.00  0.00     0.001 C 
BRANCH  18  19
ATOM     19  C   UNL     1      99.595  82.228  80.438  1.00  0.00     0.000 C 
BRANCH  19  20
ATOM     20  C   UNL     1      99.072  81.309  81.578  1.00  0.00     0.000 C 
BRANCH  20  21
ATOM     21  C   UNL     1      97.539  81.061  81.544  1.00  0.00     0.003 C 
BRANCH  21  22
ATOM     22  C   UNL     1      96.697  82.076  82.384  1.00  0.00    -0.017 C 
ATOM     23  C   UNL     1      96.478  83.392  81.585  1.00  0.00     0.007 C 
ATOM     24  C   UNL     1      97.302  82.383  83.785  1.00  0.00     0.007 C 
ENDBRANCH  21  22
ENDBRANCH  20  21
ENDBRANCH  19  20
ENDBRANCH  18  19
ENDBRANCH   1  18
TORSDOF 11
ENDMDL
MODEL 9
REMARK VINA RESULT:    -5.067     11.321     13.637
REMARK INTER + INTRA:          -8.841
REMARK INTER:                  -7.463
REMARK INTRA:                  -1.378
REMARK UNBOUND:                -0.665
REMARK SMILES COc1cc(CNC(=O)CCCCCCC(C)C)ccc1O
REMARK SMILES IDX 11 1 10 2 8 3 7 4 9 6 6 7 5 8 3 9 21 10 4 11 20 12 19 13
REMARK SMILES IDX 2 14 1 15 22 16 12 18 13 19 14 20 15 21 16 22 17 23 18 24
REMARK H PARENT 7 5 22 17
REMARK Flexibility Score: inf
ROOT
ATOM      1  C   UNL     1      93.361  94.391  93.686  1.00  0.00     0.010 C 
ENDROOT
BRANCH   1   2
ATOM      2  C   UNL     1      93.355  92.838  93.640  1.00  0.00     0.100 C 
BRANCH   2   3
ATOM      3  C   UNL     1      92.503  92.288  92.562  1.00  0.00     0.220 C 
ATOM      4  N   UNL     1      93.008  91.375  91.683  1.00  0.00    -0.352 N 
ATOM      5  H   UNL     1      93.986  91.161  91.813  1.00  0.00     0.163 HD
ATOM      6  O   UNL     1      91.307  92.662  92.490  1.00  0.00    -0.275 OA
BRANCH   4   7
ATOM      7  C   UNL     1      92.266  90.733  90.640  1.00  0.00     0.151 C 
BRANCH   7   8
ATOM      8  C   UNL     1      93.097  90.391  89.454  1.00  0.00    -0.025 A 
ATOM      9  C   UNL     1      94.122  88.705  87.986  1.00  0.00     0.160 A 
ATOM     10  C   UNL     1      94.644  89.730  87.168  1.00  0.00     0.157 A 
ATOM     11  C   UNL     1      93.370  89.043  89.131  1.00  0.00     0.056 A 
ATOM     12  C   UNL     1      94.412  91.077  87.500  1.00  0.00     0.050 A 
ATOM     13  C   UNL     1      93.635  91.407  88.628  1.00  0.00     0.009 A 
BRANCH   9  14
ATOM     14  O   UNL     1      94.376  87.392  87.694  1.00  0.00    -0.493 OA
ATOM     15  C   UNL     1      93.291  86.505  88.022  1.00  0.00     0.278 C 
ENDBRANCH   9  14
BRANCH  10  16
ATOM     16  O   UNL     1      95.373  89.435  86.060  1.00  0.00    -0.504 OA
ATOM     17  H   UNL     1      96.087  90.070  85.969  1.00  0.00     0.293 HD
ENDBRANCH  10  16
ENDBRANCH   7   8
ENDBRANCH   4   7
ENDBRANCH   2   3
ENDBRANCH   1   2
BRANCH   1  18
ATOM     18  C   UNL     1      94.804  94.973  93.673  1.00  0.00     0.001 C 
BRANCH  18  19
ATOM     19  C   UNL     1      95.799  94.160  92.797  1.00  0.00     0.000 C 
BRANCH  19  20
ATOM     20  C   UNL     1      95.817  94.670  91.329  1.00  0.00     0.000 C 
BRANCH  20  21
ATOM     21  C   UNL     1      95.183  96.075  91.134  1.00  0.00     0.003 C 
BRANCH  21  22
ATOM     22  C   UNL     1      94.111  96.152  89.998  1.00  0.00    -0.017 C 
ATOM     23  C   UNL     1      93.280  97.460  90.123  1.00  0.00     0.007 C 
ATOM     24  C   UNL     1      93.170  94.913  89.940  1.00  0.00     0.007 C 
ENDBRANCH  21  22
ENDBRANCH  20  21
ENDBRANCH  19  20
ENDBRANCH  18  19
ENDBRANCH   1  18
TORSDOF 11
ENDMDL
MODEL 10
REMARK VINA RESULT:    -5.020      6.884     10.520
REMARK INTER + INTRA:          -8.767
REMARK INTER:                  -7.681
REMARK INTRA:                  -1.086
REMARK UNBOUND:                -0.665
REMARK SMILES COc1cc(CNC(=O)CCCCCCC(C)C)ccc1O
REMARK SMILES IDX 11 1 10 2 8 3 7 4 9 6 6 7 5 8 3 9 21 10 4 11 20 12 19 13
REMARK SMILES IDX 2 14 1 15 22 16 12 18 13 19 14 20 15 21 16 22 17 23 18 24
REMARK H PARENT 7 5 22 17
REMARK Flexibility Score: inf
ROOT
ATOM      1  C   UNL     1      99.651  79.438  80.381  1.00  0.00     0.010 C 
ENDROOT
BRANCH   1   2
ATOM      2  C   UNL     1      98.198  79.988  80.394  1.00  0.00     0.100 C 
BRANCH   2   3
ATOM      3  C   UNL     1      98.124  81.452  80.193  1.00  0.00     0.220 C 
ATOM      4  N   UNL     1      97.485  81.967  79.104  1.00  0.00    -0.352 N 
ATOM      5  H   UNL     1      97.127  81.277  78.460  1.00  0.00     0.163 HD
ATOM      6  O   UNL     1      98.640  82.204  81.057  1.00  0.00    -0.275 OA
BRANCH   4   7
ATOM      7  C   UNL     1      97.301  83.362  78.836  1.00  0.00     0.151 C 
BRANCH   7   8
ATOM      8  C   UNL     1      97.488  83.713  77.402  1.00  0.00    -0.025 A 
ATOM      9  C   UNL     1      98.793  83.557  75.323  1.00  0.00     0.160 A 
ATOM     10  C   UNL     1      97.829  84.343  74.656  1.00  0.00     0.157 A 
ATOM     11  C   UNL     1      98.625  83.264  76.693  1.00  0.00     0.056 A 
ATOM     12  C   UNL     1      96.712  84.828  75.360  1.00  0.00     0.050 A 
ATOM     13  C   UNL     1      96.536  84.508  76.720  1.00  0.00     0.009 A 
BRANCH   9  14
ATOM     14  O   UNL     1      99.903  83.112  74.657  1.00  0.00    -0.493 OA
ATOM     15  C   UNL     1      99.844  81.721  74.295  1.00  0.00     0.278 C 
ENDBRANCH   9  14
BRANCH  10  16
ATOM     16  O   UNL     1      97.965  84.641  73.337  1.00  0.00    -0.504 OA
ATOM     17  H   UNL     1      98.113  83.833  72.840  1.00  0.00     0.293 HD
ENDBRANCH  10  16
ENDBRANCH   7   8
ENDBRANCH   4   7
ENDBRANCH   2   3
ENDBRANCH   1   2
BRANCH   1  18
ATOM     18  C   UNL     1     100.369  79.711  79.029  1.00  0.00     0.001 C 
BRANCH  18  19
ATOM     19  C   UNL     1     101.417  80.858  79.096  1.00  0.00     0.000 C 
BRANCH  19  20
ATOM     20  C   UNL     1     101.820  81.348  77.677  1.00  0.00     0.000 C 
BRANCH  20  21
ATOM     21  C   UNL     1     103.337  81.640  77.511  1.00  0.00     0.003 C 
BRANCH  21  22
ATOM     22  C   UNL     1     103.836  81.666  76.029  1.00  0.00    -0.017 C 
ATOM     23  C   UNL     1     105.385  81.539  75.975  1.00  0.00     0.007 C 
ATOM     24  C   UNL     1     103.363  82.918  75.232  1.00  0.00     0.007 C 
ENDBRANCH  21  22
ENDBRANCH  20  21
ENDBRANCH  19  20
ENDBRANCH  18  19
ENDBRANCH   1  18
TORSDOF 11
ENDMDL
