MODEL 1
REMARK VINA RESULT:    -7.137      0.000      0.000
REMARK INTER + INTRA:          -8.778
REMARK INTER:                  -8.389
REMARK INTRA:                  -0.389
REMARK UNBOUND:                -0.389
REMARK SMILES O=C(/C=C/C=C/c1ccc2c(c1)OCO2)N1CCCCC1
REMARK SMILES IDX 3 1 4 2 2 3 1 4 16 5 17 6 21 7 18 8 20 9 19 10 5 11 6 12
REMARK SMILES IDX 7 13 12 14 8 15 11 16 9 17 13 18 10 19 14 20 15 21
REMARK H PARENT
REMARK Flexibility Score: inf
ROOT
ATOM      1  C   UNL     1      97.432  80.596  78.516  1.00  0.00     0.071 C 
ATOM      2  C   UNL     1      98.130  80.755  79.639  1.00  0.00     0.006 C 
ENDROOT
BRANCH   1   3
ATOM      3  C   UNL     1      98.177  80.377  77.260  1.00  0.00     0.246 C 
ATOM      4  O   UNL     1      98.884  79.371  77.186  1.00  0.00    -0.270 OA
ATOM      5  N   UNL     1      98.034  81.323  76.246  1.00  0.00    -0.339 N 
ATOM      6  C   UNL     1      98.766  81.135  74.989  1.00  0.00     0.120 C 
ATOM      7  C   UNL     1      97.237  82.556  76.314  1.00  0.00     0.120 C 
ATOM      8  C   UNL     1      97.833  81.209  73.786  1.00  0.00     0.022 C 
ATOM      9  C   UNL     1      96.289  82.669  75.120  1.00  0.00     0.022 C 
ATOM     10  C   UNL     1      97.030  82.506  73.796  1.00  0.00     0.004 C 
ENDBRANCH   1   3
BRANCH   2  11
ATOM     11  C   UNL     1      97.490  80.976  80.918  1.00  0.00     0.001 C 
ATOM     12  C   UNL     1      96.879  82.128  81.235  1.00  0.00     0.008 C 
BRANCH  12  13
ATOM     13  C   UNL     1      96.221  82.409  82.522  1.00  0.00    -0.022 A 
ATOM     14  C   UNL     1      96.101  83.725  82.948  1.00  0.00     0.058 A 
ATOM     15  C   UNL     1      95.734  81.341  83.281  1.00  0.00     0.012 A 
ATOM     16  C   UNL     1      95.477  83.937  84.160  1.00  0.00     0.166 A 
ATOM     17  C   UNL     1      95.106  81.584  84.504  1.00  0.00     0.051 A 
ATOM     18  O   UNL     1      95.264  85.146  84.747  1.00  0.00    -0.454 OA
ATOM     19  C   UNL     1      94.992  82.895  84.918  1.00  0.00     0.165 A 
ATOM     20  C   UNL     1      94.592  84.749  85.959  1.00  0.00     0.468 C 
ATOM     21  O   UNL     1      94.416  83.322  86.074  1.00  0.00    -0.454 OA
ENDBRANCH  12  13
ENDBRANCH   2  11
TORSDOF 3
ENDMDL
MODEL 2
REMARK VINA RESULT:    -7.074     12.364     14.154
REMARK INTER + INTRA:          -8.703
REMARK INTER:                  -8.347
REMARK INTRA:                  -0.356
REMARK UNBOUND:                -0.389
REMARK SMILES O=C(/C=C/C=C/c1ccc2c(c1)OCO2)N1CCCCC1
REMARK SMILES IDX 3 1 4 2 2 3 1 4 16 5 17 6 21 7 18 8 20 9 19 10 5 11 6 12
REMARK SMILES IDX 7 13 12 14 8 15 11 16 9 17 13 18 10 19 14 20 15 21
REMARK H PARENT
REMARK Flexibility Score: inf
ROOT
ATOM      1  C   UNL     1      96.267  94.173  78.901  1.00  0.00     0.071 C 
ATOM      2  C   UNL     1      95.018  94.100  79.358  1.00  0.00     0.006 C 
ENDROOT
BRANCH   1   3
ATOM      3  C   UNL     1      97.225  95.027  79.630  1.00  0.00     0.246 C 
ATOM      4  O   UNL     1      97.554  94.674  80.763  1.00  0.00    -0.270 OA
ATOM      5  N   UNL     1      97.688  96.176  78.991  1.00  0.00    -0.339 N 
ATOM      6  C   UNL     1      98.636  97.047  79.692  1.00  0.00     0.120 C 
ATOM      7  C   UNL     1      97.284  96.652  77.660  1.00  0.00     0.120 C 
ATOM      8  C   UNL     1      99.876  97.316  78.846  1.00  0.00     0.022 C 
ATOM      9  C   UNL     1      98.501  96.937  76.781  1.00  0.00     0.022 C 
ATOM     10  C   UNL     1      99.493  97.866  77.476  1.00  0.00     0.004 C 
ENDBRANCH   1   3
BRANCH   2  11
ATOM     11  C   UNL     1      94.008  93.290  78.712  1.00  0.00     0.001 C 
ATOM     12  C   UNL     1      93.033  93.814  77.951  1.00  0.00     0.008 C 
BRANCH  12  13
ATOM     13  C   UNL     1      91.978  93.039  77.278  1.00  0.00    -0.022 A 
ATOM     14  C   UNL     1      92.225  92.512  76.018  1.00  0.00     0.058 A 
ATOM     15  C   UNL     1      90.755  92.854  77.928  1.00  0.00     0.012 A 
ATOM     16  C   UNL     1      91.206  91.793  75.429  1.00  0.00     0.166 A 
ATOM     17  C   UNL     1      89.740  92.121  77.308  1.00  0.00     0.051 A 
ATOM     18  O   UNL     1      91.252  91.201  74.203  1.00  0.00    -0.454 OA
ATOM     19  C   UNL     1      89.996  91.602  76.056  1.00  0.00     0.165 A 
ATOM     20  C   UNL     1      89.935  90.617  74.130  1.00  0.00     0.468 C 
ATOM     21  O   UNL     1      89.133  90.868  75.303  1.00  0.00    -0.454 OA
ENDBRANCH  12  13
ENDBRANCH   2  11
TORSDOF 3
ENDMDL
MODEL 3
REMARK VINA RESULT:    -7.017      3.031      8.886
REMARK INTER + INTRA:          -8.636
REMARK INTER:                  -8.242
REMARK INTRA:                  -0.394
REMARK UNBOUND:                -0.389
REMARK SMILES O=C(/C=C/C=C/c1ccc2c(c1)OCO2)N1CCCCC1
REMARK SMILES IDX 3 1 4 2 2 3 1 4 16 5 17 6 21 7 18 8 20 9 19 10 5 11 6 12
REMARK SMILES IDX 7 13 12 14 8 15 11 16 9 17 13 18 10 19 14 20 15 21
REMARK H PARENT
REMARK Flexibility Score: inf
ROOT
ATOM      1  C   UNL     1      96.323  80.763  82.639  1.00  0.00     0.071 C 
ATOM      2  C   UNL     1      96.892  81.863  82.149  1.00  0.00     0.006 C 
ENDROOT
BRANCH   1   3
ATOM      3  C   UNL     1      96.575  80.421  84.053  1.00  0.00     0.246 C 
ATOM      4  O   UNL     1      97.699  80.012  84.347  1.00  0.00    -0.270 OA
ATOM      5  N   UNL     1      95.526  80.579  84.956  1.00  0.00    -0.339 N 
ATOM      6  C   UNL     1      95.745  80.242  86.367  1.00  0.00     0.120 C 
ATOM      7  C   UNL     1      94.161  81.020  84.635  1.00  0.00     0.120 C 
ATOM      8  C   UNL     1      95.350  81.396  87.282  1.00  0.00     0.022 C 
ATOM      9  C   UNL     1      93.726  82.176  85.536  1.00  0.00     0.022 C 
ATOM     10  C   UNL     1      93.917  81.842  87.013  1.00  0.00     0.004 C 
ENDBRANCH   1   3
BRANCH   2  11
ATOM     11  C   UNL     1      96.704  82.280  80.775  1.00  0.00     0.001 C 
ATOM     12  C   UNL     1      97.274  81.644  79.739  1.00  0.00     0.008 C 
BRANCH  12  13
ATOM     13  C   UNL     1      97.123  82.030  78.326  1.00  0.00    -0.022 A 
ATOM     14  C   UNL     1      98.174  81.803  77.447  1.00  0.00     0.058 A 
ATOM     15  C   UNL     1      95.926  82.616  77.907  1.00  0.00     0.012 A 
ATOM     16  C   UNL     1      97.985  82.181  76.134  1.00  0.00     0.166 A 
ATOM     17  C   UNL     1      95.762  82.990  76.572  1.00  0.00     0.051 A 
ATOM     18  O   UNL     1      98.890  82.044  75.126  1.00  0.00    -0.454 OA
ATOM     19  C   UNL     1      96.811  82.759  75.707  1.00  0.00     0.165 A 
ATOM     20  C   UNL     1      98.154  82.600  74.018  1.00  0.00     0.468 C 
ATOM     21  O   UNL     1      96.834  83.055  74.379  1.00  0.00    -0.454 OA
ENDBRANCH  12  13
ENDBRANCH   2  11
TORSDOF 3
ENDMDL
MODEL 4
REMARK VINA RESULT:    -6.920     13.953     15.429
REMARK INTER + INTRA:          -8.522
REMARK INTER:                  -8.122
REMARK INTRA:                  -0.400
REMARK UNBOUND:                -0.389
REMARK SMILES O=C(/C=C/C=C/c1ccc2c(c1)OCO2)N1CCCCC1
REMARK SMILES IDX 3 1 4 2 2 3 1 4 16 5 17 6 21 7 18 8 20 9 19 10 5 11 6 12
REMARK SMILES IDX 7 13 12 14 8 15 11 16 9 17 13 18 10 19 14 20 15 21
REMARK H PARENT
REMARK Flexibility Score: inf
ROOT
ATOM      1  C   UNL     1      94.859  97.765  73.568  1.00  0.00     0.071 C 
ATOM      2  C   UNL     1      93.688  97.431  74.108  1.00  0.00     0.006 C 
ENDROOT
BRANCH   1   3
ATOM      3  C   UNL     1      94.848  98.570  72.330  1.00  0.00     0.246 C 
ATOM      4  O   UNL     1      94.359  99.699  72.390  1.00  0.00    -0.270 OA
ATOM      5  N   UNL     1      95.386  97.998  71.179  1.00  0.00    -0.339 N 
ATOM      6  C   UNL     1      95.384  98.771  69.933  1.00  0.00     0.120 C 
ATOM      7  C   UNL     1      95.936  96.640  71.058  1.00  0.00     0.120 C 
ATOM      8  C   UNL     1      96.777  98.835  69.315  1.00  0.00     0.022 C 
ATOM      9  C   UNL     1      97.333  96.662  70.439  1.00  0.00     0.022 C 
ATOM     10  C   UNL     1      97.355  97.437  69.124  1.00  0.00     0.004 C 
ENDBRANCH   1   3
BRANCH   2  11
ATOM     11  C   UNL     1      93.597  96.644  75.320  1.00  0.00     0.001 C 
ATOM     12  C   UNL     1      94.522  95.735  75.667  1.00  0.00     0.008 C 
BRANCH  12  13
ATOM     13  C   UNL     1      94.474  94.903  76.881  1.00  0.00    -0.022 A 
ATOM     14  C   UNL     1      95.584  94.858  77.714  1.00  0.00     0.058 A 
ATOM     15  C   UNL     1      93.311  94.181  77.163  1.00  0.00     0.012 A 
ATOM     16  C   UNL     1      95.491  94.065  78.839  1.00  0.00     0.166 A 
ATOM     17  C   UNL     1      93.244  93.386  78.309  1.00  0.00     0.051 A 
ATOM     18  O   UNL     1      96.465  93.888  79.774  1.00  0.00    -0.454 OA
ATOM     19  C   UNL     1      94.352  93.349  79.129  1.00  0.00     0.165 A 
ATOM     20  C   UNL     1      95.811  92.981  80.684  1.00  0.00     0.468 C 
ATOM     21  O   UNL     1      94.470  92.634  80.281  1.00  0.00    -0.454 OA
ENDBRANCH  12  13
ENDBRANCH   2  11
TORSDOF 3
ENDMDL
MODEL 5
REMARK VINA RESULT:    -6.842      2.209      2.987
REMARK INTER + INTRA:          -8.431
REMARK INTER:                  -8.105
REMARK INTRA:                  -0.326
REMARK UNBOUND:                -0.389
REMARK SMILES O=C(/C=C/C=C/c1ccc2c(c1)OCO2)N1CCCCC1
REMARK SMILES IDX 3 1 4 2 2 3 1 4 16 5 17 6 21 7 18 8 20 9 19 10 5 11 6 12
REMARK SMILES IDX 7 13 12 14 8 15 11 16 9 17 13 18 10 19 14 20 15 21
REMARK H PARENT
REMARK Flexibility Score: inf
ROOT
ATOM      1  C   UNL     1      97.723  81.911  77.445  1.00  0.00     0.071 C 
ATOM      2  C   UNL     1      96.962  82.177  78.504  1.00  0.00     0.006 C 
ENDROOT
BRANCH   1   3
ATOM      3  C   UNL     1      97.346  82.511  76.150  1.00  0.00     0.246 C 
ATOM      4  O   UNL     1      96.287  83.137  76.100  1.00  0.00    -0.270 OA
ATOM      5  N   UNL     1      98.209  82.324  75.071  1.00  0.00    -0.339 N 
ATOM      6  C   UNL     1      97.858  82.904  73.771  1.00  0.00     0.120 C 
ATOM      7  C   UNL     1      99.457  81.547  75.081  1.00  0.00     0.120 C 
ATOM      8  C   UNL     1      98.995  83.753  73.214  1.00  0.00     0.022 C 
ATOM      9  C   UNL     1     100.623  82.364  74.526  1.00  0.00     0.022 C 
ATOM     10  C   UNL     1     100.295  82.957  73.158  1.00  0.00     0.004 C 
ENDBRANCH   1   3
BRANCH   2  11
ATOM     11  C   UNL     1      97.251  81.635  79.815  1.00  0.00     0.001 C 
ATOM     12  C   UNL     1      96.623  82.050  80.927  1.00  0.00     0.008 C 
BRANCH  12  13
ATOM     13  C   UNL     1      96.884  81.540  82.284  1.00  0.00    -0.022 A 
ATOM     14  C   UNL     1      95.975  81.817  83.296  1.00  0.00     0.058 A 
ATOM     15  C   UNL     1      98.040  80.790  82.516  1.00  0.00     0.012 A 
ATOM     16  C   UNL     1      96.262  81.318  84.550  1.00  0.00     0.166 A 
ATOM     17  C   UNL     1      98.305  80.297  83.795  1.00  0.00     0.051 A 
ATOM     18  O   UNL     1      95.501  81.480  85.667  1.00  0.00    -0.454 OA
ATOM     19  C   UNL     1      97.396  80.578  84.793  1.00  0.00     0.165 A 
ATOM     20  C   UNL     1      96.284  80.759  86.640  1.00  0.00     0.468 C 
ATOM     21  O   UNL     1      97.488  80.184  86.092  1.00  0.00    -0.454 OA
ENDBRANCH  12  13
ENDBRANCH   2  11
TORSDOF 3
ENDMDL
MODEL 6
REMARK VINA RESULT:    -6.774     17.336     19.953
REMARK INTER + INTRA:          -8.351
REMARK INTER:                  -7.948
REMARK INTRA:                  -0.403
REMARK UNBOUND:                -0.389
REMARK SMILES O=C(/C=C/C=C/c1ccc2c(c1)OCO2)N1CCCCC1
REMARK SMILES IDX 3 1 4 2 2 3 1 4 16 5 17 6 21 7 18 8 20 9 19 10 5 11 6 12
REMARK SMILES IDX 7 13 12 14 8 15 11 16 9 17 13 18 10 19 14 20 15 21
REMARK H PARENT
REMARK Flexibility Score: inf
ROOT
ATOM      1  C   UNL     1      93.707  97.663  73.900  1.00  0.00     0.071 C 
ATOM      2  C   UNL     1      94.027  98.857  73.404  1.00  0.00     0.006 C 
ENDROOT
BRANCH   1   3
ATOM      3  C   UNL     1      94.580  97.085  74.940  1.00  0.00     0.246 C 
ATOM      4  O   UNL     1      95.678  97.614  75.120  1.00  0.00    -0.270 OA
ATOM      5  N   UNL     1      94.108  95.979  75.644  1.00  0.00    -0.339 N 
ATOM      6  C   UNL     1      94.955  95.379  76.680  1.00  0.00     0.120 C 
ATOM      7  C   UNL     1      92.825  95.294  75.427  1.00  0.00     0.120 C 
ATOM      8  C   UNL     1      94.211  95.254  78.004  1.00  0.00     0.022 C 
ATOM      9  C   UNL     1      92.049  95.144  76.736  1.00  0.00     0.022 C 
ATOM     10  C   UNL     1      92.899  94.496  77.825  1.00  0.00     0.004 C 
ENDBRANCH   1   3
BRANCH   2  11
ATOM     11  C   UNL     1      93.233  99.505  72.382  1.00  0.00     0.001 C 
ATOM     12  C   UNL     1      92.173  98.917  71.805  1.00  0.00     0.008 C 
BRANCH  12  13
ATOM     13  C   UNL     1      91.337  99.526  70.756  1.00  0.00    -0.022 A 
ATOM     14  C   UNL     1      90.284  98.796  70.223  1.00  0.00     0.058 A 
ATOM     15  C   UNL     1      91.627 100.823  70.327  1.00  0.00     0.012 A 
ATOM     16  C   UNL     1      89.529  99.409  69.244  1.00  0.00     0.166 A 
ATOM     17  C   UNL     1      90.847 101.420  69.334  1.00  0.00     0.051 A 
ATOM     18  O   UNL     1      88.461  98.862  68.600  1.00  0.00    -0.454 OA
ATOM     19  C   UNL     1      89.803 100.686  68.811  1.00  0.00     0.165 A 
ATOM     20  C   UNL     1      88.094  99.939  67.714  1.00  0.00     0.468 C 
ATOM     21  O   UNL     1      88.941 101.099  67.842  1.00  0.00    -0.454 OA
ENDBRANCH  12  13
ENDBRANCH   2  11
TORSDOF 3
ENDMDL
MODEL 7
REMARK VINA RESULT:    -6.696      2.256      3.275
REMARK INTER + INTRA:          -8.259
REMARK INTER:                  -7.842
REMARK INTRA:                  -0.417
REMARK UNBOUND:                -0.389
REMARK SMILES O=C(/C=C/C=C/c1ccc2c(c1)OCO2)N1CCCCC1
REMARK SMILES IDX 3 1 4 2 2 3 1 4 16 5 17 6 21 7 18 8 20 9 19 10 5 11 6 12
REMARK SMILES IDX 7 13 12 14 8 15 11 16 9 17 13 18 10 19 14 20 15 21
REMARK H PARENT
REMARK Flexibility Score: inf
ROOT
ATOM      1  C   UNL     1      97.893  81.468  75.957  1.00  0.00     0.071 C 
ATOM      2  C   UNL     1      96.916  82.180  76.515  1.00  0.00     0.006 C 
ENDROOT
BRANCH   1   3
ATOM      3  C   UNL     1      98.012  81.486  74.486  1.00  0.00     0.246 C 
ATOM      4  O   UNL     1      97.043  81.102  73.831  1.00  0.00    -0.270 OA
ATOM      5  N   UNL     1      99.214  81.931  73.937  1.00  0.00    -0.339 N 
ATOM      6  C   UNL     1      99.365  81.955  72.479  1.00  0.00     0.120 C 
ATOM      7  C   UNL     1     100.407  82.353  74.685  1.00  0.00     0.120 C 
ATOM      8  C   UNL     1      99.818  83.326  71.988  1.00  0.00     0.022 C 
ATOM      9  C   UNL     1     100.896  83.725  74.219  1.00  0.00     0.022 C 
ATOM     10  C   UNL     1     101.089  83.770  72.706  1.00  0.00     0.004 C 
ENDBRANCH   1   3
BRANCH   2  11
ATOM     11  C   UNL     1      96.718  82.224  77.948  1.00  0.00     0.001 C 
ATOM     12  C   UNL     1      97.578  81.670  78.818  1.00  0.00     0.008 C 
BRANCH  12  13
ATOM     13  C   UNL     1      97.422  81.679  80.282  1.00  0.00    -0.022 A 
ATOM     14  C   UNL     1      96.589  82.624  80.867  1.00  0.00     0.058 A 
ATOM     15  C   UNL     1      98.117  80.736  81.044  1.00  0.00     0.012 A 
ATOM     16  C   UNL     1      96.474  82.592  82.242  1.00  0.00     0.166 A 
ATOM     17  C   UNL     1      97.982  80.727  82.434  1.00  0.00     0.051 A 
ATOM     18  O   UNL     1      95.713  83.429  82.999  1.00  0.00    -0.454 OA
ATOM     19  C   UNL     1      97.152  81.669  83.005  1.00  0.00     0.165 A 
ATOM     20  C   UNL     1      95.988  82.929  84.323  1.00  0.00     0.468 C 
ATOM     21  O   UNL     1      96.901  81.812  84.334  1.00  0.00    -0.454 OA
ENDBRANCH  12  13
ENDBRANCH   2  11
TORSDOF 3
ENDMDL
MODEL 8
REMARK VINA RESULT:    -6.683      1.965      2.880
REMARK INTER + INTRA:          -8.243
REMARK INTER:                  -7.862
REMARK INTRA:                  -0.382
REMARK UNBOUND:                -0.389
REMARK SMILES O=C(/C=C/C=C/c1ccc2c(c1)OCO2)N1CCCCC1
REMARK SMILES IDX 3 1 4 2 2 3 1 4 16 5 17 6 21 7 18 8 20 9 19 10 5 11 6 12
REMARK SMILES IDX 7 13 12 14 8 15 11 16 9 17 13 18 10 19 14 20 15 21
REMARK H PARENT
REMARK Flexibility Score: inf
ROOT
ATOM      1  C   UNL     1      97.666  80.884  77.301  1.00  0.00     0.071 C 
ATOM      2  C   UNL     1      97.773  81.947  78.097  1.00  0.00     0.006 C 
ENDROOT
BRANCH   1   3
ATOM      3  C   UNL     1      98.455  80.868  76.054  1.00  0.00     0.246 C 
ATOM      4  O   UNL     1      98.002  81.481  75.086  1.00  0.00    -0.270 OA
ATOM      5  N   UNL     1      99.655  80.157  76.052  1.00  0.00    -0.339 N 
ATOM      6  C   UNL     1     100.457  80.119  74.826  1.00  0.00     0.120 C 
ATOM      7  C   UNL     1     100.205  79.378  77.171  1.00  0.00     0.120 C 
ATOM      8  C   UNL     1     101.897  80.546  75.089  1.00  0.00     0.022 C 
ATOM      9  C   UNL     1     101.651  79.775  77.464  1.00  0.00     0.022 C 
ATOM     10  C   UNL     1     102.517  79.717  76.209  1.00  0.00     0.004 C 
ENDBRANCH   1   3
BRANCH   2  11
ATOM     11  C   UNL     1      97.040  82.054  79.340  1.00  0.00     0.001 C 
ATOM     12  C   UNL     1      97.432  81.443  80.470  1.00  0.00     0.008 C 
BRANCH  12  13
ATOM     13  C   UNL     1      96.720  81.512  81.757  1.00  0.00    -0.022 A 
ATOM     14  C   UNL     1      96.495  82.752  82.339  1.00  0.00     0.058 A 
ATOM     15  C   UNL     1      96.291  80.326  82.358  1.00  0.00     0.012 A 
ATOM     16  C   UNL     1      95.824  82.766  83.545  1.00  0.00     0.166 A 
ATOM     17  C   UNL     1      95.614  80.369  83.579  1.00  0.00     0.051 A 
ATOM     18  O   UNL     1      95.510  83.874  84.271  1.00  0.00    -0.454 OA
ATOM     19  C   UNL     1      95.395  81.606  84.149  1.00  0.00     0.165 A 
ATOM     20  C   UNL     1      94.835  83.280  85.399  1.00  0.00     0.468 C 
ATOM     21  O   UNL     1      94.759  81.842  85.328  1.00  0.00    -0.454 OA
ENDBRANCH  12  13
ENDBRANCH   2  11
TORSDOF 3
ENDMDL
MODEL 9
REMARK VINA RESULT:    -6.627      3.430      8.526
REMARK INTER + INTRA:          -8.178
REMARK INTER:                  -7.853
REMARK INTRA:                  -0.325
REMARK UNBOUND:                -0.389
REMARK SMILES O=C(/C=C/C=C/c1ccc2c(c1)OCO2)N1CCCCC1
REMARK SMILES IDX 3 1 4 2 2 3 1 4 16 5 17 6 21 7 18 8 20 9 19 10 5 11 6 12
REMARK SMILES IDX 7 13 12 14 8 15 11 16 9 17 13 18 10 19 14 20 15 21
REMARK H PARENT
REMARK Flexibility Score: inf
ROOT
ATOM      1  C   UNL     1      96.666  80.309  82.040  1.00  0.00     0.071 C 
ATOM      2  C   UNL     1      96.899  81.588  81.750  1.00  0.00     0.006 C 
ENDROOT
BRANCH   1   3
ATOM      3  C   UNL     1      96.851  79.868  83.437  1.00  0.00     0.246 C 
ATOM      4  O   UNL     1      95.873  79.916  84.183  1.00  0.00    -0.270 OA
ATOM      5  N   UNL     1      98.120  79.434  83.818  1.00  0.00    -0.339 N 
ATOM      6  C   UNL     1      98.336  78.995  85.200  1.00  0.00     0.120 C 
ATOM      7  C   UNL     1      99.320  79.406  82.970  1.00  0.00     0.120 C 
ATOM      8  C   UNL     1      98.967  77.609  85.253  1.00  0.00     0.022 C 
ATOM      9  C   UNL     1      99.986  78.030  82.998  1.00  0.00     0.022 C 
ATOM     10  C   UNL     1     100.249  77.560  84.426  1.00  0.00     0.004 C 
ENDBRANCH   1   3
BRANCH   2  11
ATOM     11  C   UNL     1      96.745  82.114  80.411  1.00  0.00     0.001 C 
ATOM     12  C   UNL     1      97.259  81.507  79.329  1.00  0.00     0.008 C 
BRANCH  12  13
ATOM     13  C   UNL     1      97.140  82.002  77.947  1.00  0.00    -0.022 A 
ATOM     14  C   UNL     1      98.195  81.807  77.066  1.00  0.00     0.058 A 
ATOM     15  C   UNL     1      95.967  82.654  77.560  1.00  0.00     0.012 A 
ATOM     16  C   UNL     1      98.036  82.288  75.782  1.00  0.00     0.166 A 
ATOM     17  C   UNL     1      95.832  83.131  76.254  1.00  0.00     0.051 A 
ATOM     18  O   UNL     1      98.950  82.197  74.777  1.00  0.00    -0.454 OA
ATOM     19  C   UNL     1      96.886  82.932  75.387  1.00  0.00     0.165 A 
ATOM     20  C   UNL     1      98.246  82.857  73.705  1.00  0.00     0.468 C 
ATOM     21  O   UNL     1      96.936  83.326  74.085  1.00  0.00    -0.454 OA
ENDBRANCH  12  13
ENDBRANCH   2  11
TORSDOF 3
ENDMDL
MODEL 10
REMARK VINA RESULT:    -6.420     14.207     15.704
REMARK INTER + INTRA:          -7.935
REMARK INTER:                  -7.543
REMARK INTRA:                  -0.392
REMARK UNBOUND:                -0.389
REMARK SMILES O=C(/C=C/C=C/c1ccc2c(c1)OCO2)N1CCCCC1
REMARK SMILES IDX 3 1 4 2 2 3 1 4 16 5 17 6 21 7 18 8 20 9 19 10 5 11 6 12
REMARK SMILES IDX 7 13 12 14 8 15 11 16 9 17 13 18 10 19 14 20 15 21
REMARK H PARENT
REMARK Flexibility Score: inf
ROOT
ATOM      1  C   UNL     1      96.439  97.027  73.197  1.00  0.00     0.071 C 
ATOM      2  C   UNL     1      96.311  97.256  74.503  1.00  0.00     0.006 C 
ENDROOT
BRANCH   1   3
ATOM      3  C   UNL     1      97.556  97.679  72.484  1.00  0.00     0.246 C 
ATOM      4  O   UNL     1      98.630  97.778  73.079  1.00  0.00    -0.270 OA
ATOM      5  N   UNL     1      97.319  98.141  71.191  1.00  0.00    -0.339 N 
ATOM      6  C   UNL     1      98.408  98.797  70.460  1.00  0.00     0.120 C 
ATOM      7  C   UNL     1      96.041  98.081  70.467  1.00  0.00     0.120 C 
ATOM      8  C   UNL     1      98.623  98.159  69.092  1.00  0.00     0.022 C 
ATOM      9  C   UNL     1      96.216  97.450  69.086  1.00  0.00     0.022 C 
ATOM     10  C   UNL     1      97.326  98.133  68.290  1.00  0.00     0.004 C 
ENDBRANCH   1   3
BRANCH   2  11
ATOM     11  C   UNL     1      95.249  96.664  75.287  1.00  0.00     0.001 C 
ATOM     12  C   UNL     1      94.837  95.397  75.114  1.00  0.00     0.008 C 
BRANCH  12  13
ATOM     13  C   UNL     1      93.758  94.748  75.877  1.00  0.00    -0.022 A 
ATOM     14  C   UNL     1      93.032  93.724  75.284  1.00  0.00     0.058 A 
ATOM     15  C   UNL     1      93.494  95.181  77.179  1.00  0.00     0.012 A 
ATOM     16  C   UNL     1      92.032  93.147  76.038  1.00  0.00     0.166 A 
ATOM     17  C   UNL     1      92.475  94.578  77.921  1.00  0.00     0.051 A 
ATOM     18  O   UNL     1      91.213  92.136  75.638  1.00  0.00    -0.454 OA
ATOM     19  C   UNL     1      91.760  93.562  77.322  1.00  0.00     0.165 A 
ATOM     20  C   UNL     1      90.396  91.962  76.814  1.00  0.00     0.468 C 
ATOM     21  O   UNL     1      90.738  92.864  77.886  1.00  0.00    -0.454 OA
ENDBRANCH  12  13
ENDBRANCH   2  11
TORSDOF 3
ENDMDL
