MODEL 1
REMARK VINA RESULT:    -5.856      0.000      0.000
REMARK INTER + INTRA:         -10.465
REMARK INTER:                  -9.622
REMARK INTRA:                  -0.843
REMARK UNBOUND:                -0.843
REMARK SMILES CCCCC[C@H](O)CC(=O)CCc1ccc(O)c(OC)c1
REMARK SMILES IDX 8 1 6 2 7 3 5 5 4 6 3 7 2 8 1 9 9 10 10 11 11 12 12 13 13 14
REMARK SMILES IDX 21 15 14 16 18 17 15 18 16 19 19 20 20 21 17 22
REMARK H PARENT 7 4 17 23
REMARK Flexibility Score: inf
ROOT
ATOM      1  C   UNL     1      96.410  95.531  82.033  1.00  0.00     0.107 C 
ENDROOT
BRANCH   1   2
ATOM      2  C   UNL     1      95.518  96.657  82.561  1.00  0.00     0.121 C 
BRANCH   2   3
ATOM      3  O   UNL     1      94.673  96.159  83.596  1.00  0.00    -0.393 OA
ATOM      4  H   UNL     1      94.424  95.248  83.364  1.00  0.00     0.210 HD
ENDBRANCH   2   3
BRANCH   2   5
ATOM      5  C   UNL     1      96.314  97.855  83.091  1.00  0.00     0.032 C 
BRANCH   5   6
ATOM      6  C   UNL     1      95.498  99.152  83.055  1.00  0.00     0.003 C 
BRANCH   6   7
ATOM      7  C   UNL     1      95.902 100.154  84.141  1.00  0.00    -0.000 C 
BRANCH   7   8
ATOM      8  C   UNL     1      94.833 101.207  84.431  1.00  0.00    -0.003 C 
ATOM      9  C   UNL     1      94.085 101.600  83.167  1.00  0.00     0.004 C 
ENDBRANCH   7   8
ENDBRANCH   6   7
ENDBRANCH   5   6
ENDBRANCH   2   5
ENDBRANCH   1   2
BRANCH   1  10
ATOM     10  C   UNL     1      95.666  94.217  81.851  1.00  0.00     0.135 C 
ATOM     11  O   UNL     1      95.243  93.590  82.821  1.00  0.00    -0.300 OA
BRANCH  10  12
ATOM     12  C   UNL     1      95.440  93.755  80.420  1.00  0.00     0.080 C 
BRANCH  12  13
ATOM     13  C   UNL     1      93.965  93.697  80.018  1.00  0.00     0.043 C 
BRANCH  13  14
ATOM     14  C   UNL     1      93.632  94.601  78.856  1.00  0.00    -0.044 A 
ATOM     15  C   UNL     1      92.320  95.034  78.662  1.00  0.00     0.054 A 
ATOM     16  C   UNL     1      94.637  95.004  77.976  1.00  0.00     0.008 A 
ATOM     17  C   UNL     1      92.014  95.870  77.588  1.00  0.00     0.160 A 
ATOM     18  C   UNL     1      94.330  95.840  76.902  1.00  0.00     0.050 A 
ATOM     19  C   UNL     1      93.019  96.272  76.708  1.00  0.00     0.157 A 
BRANCH  17  20
ATOM     20  O   UNL     1      90.729  96.285  77.408  1.00  0.00    -0.493 OA
ATOM     21  C   UNL     1      89.708  95.292  77.495  1.00  0.00     0.278 C 
ENDBRANCH  17  20
BRANCH  19  22
ATOM     22  O   UNL     1      92.732  97.088  75.656  1.00  0.00    -0.504 OA
ATOM     23  H   UNL     1      93.153  96.732  74.854  1.00  0.00     0.293 HD
ENDBRANCH  19  22
ENDBRANCH  13  14
ENDBRANCH  12  13
ENDBRANCH  10  12
ENDBRANCH   1  10
TORSDOF 12
ENDMDL
MODEL 2
REMARK VINA RESULT:    -5.749      2.083      7.376
REMARK INTER + INTRA:         -10.290
REMARK INTER:                  -9.296
REMARK INTRA:                  -0.994
REMARK UNBOUND:                -0.843
REMARK SMILES CCCCC[C@H](O)CC(=O)CCc1ccc(O)c(OC)c1
REMARK SMILES IDX 8 1 6 2 7 3 5 5 4 6 3 7 2 8 1 9 9 10 10 11 11 12 12 13 13 14
REMARK SMILES IDX 21 15 14 16 18 17 15 18 16 19 19 20 20 21 17 22
REMARK H PARENT 7 4 17 23
REMARK Flexibility Score: inf
ROOT
ATOM      1  C   UNL     1      95.194  93.972  79.500  1.00  0.00     0.107 C 
ENDROOT
BRANCH   1   2
ATOM      2  C   UNL     1      93.785  94.074  78.911  1.00  0.00     0.121 C 
BRANCH   2   3
ATOM      3  O   UNL     1      92.820  93.733  79.904  1.00  0.00    -0.393 OA
ATOM      4  H   UNL     1      93.289  93.634  80.752  1.00  0.00     0.210 HD
ENDBRANCH   2   3
BRANCH   2   5
ATOM      5  C   UNL     1      93.466  95.466  78.354  1.00  0.00     0.032 C 
BRANCH   5   6
ATOM      6  C   UNL     1      92.336  95.428  77.318  1.00  0.00     0.003 C 
BRANCH   6   7
ATOM      7  C   UNL     1      91.018  96.013  77.836  1.00  0.00    -0.000 C 
BRANCH   7   8
ATOM      8  C   UNL     1      89.787  95.206  77.426  1.00  0.00    -0.003 C 
ATOM      9  C   UNL     1      89.767  93.843  78.101  1.00  0.00     0.004 C 
ENDBRANCH   7   8
ENDBRANCH   6   7
ENDBRANCH   5   6
ENDBRANCH   2   5
ENDBRANCH   1   2
BRANCH   1  10
ATOM     10  C   UNL     1      95.204  93.936  81.019  1.00  0.00     0.135 C 
ATOM     11  O   UNL     1      94.756  92.968  81.632  1.00  0.00    -0.300 OA
BRANCH  10  12
ATOM     12  C   UNL     1      95.832  95.128  81.725  1.00  0.00     0.080 C 
BRANCH  12  13
ATOM     13  C   UNL     1      94.916  96.351  81.801  1.00  0.00     0.043 C 
BRANCH  13  14
ATOM     14  C   UNL     1      95.500  97.479  82.617  1.00  0.00    -0.044 A 
ATOM     15  C   UNL     1      95.957  97.239  83.913  1.00  0.00     0.054 A 
ATOM     16  C   UNL     1      95.584  98.762  82.074  1.00  0.00     0.008 A 
ATOM     17  C   UNL     1      96.497  98.282  84.666  1.00  0.00     0.160 A 
ATOM     18  C   UNL     1      96.124  99.804  82.827  1.00  0.00     0.050 A 
ATOM     19  C   UNL     1      96.581  99.564  84.123  1.00  0.00     0.157 A 
BRANCH  17  20
ATOM     20  O   UNL     1      96.939  98.035  85.931  1.00  0.00    -0.493 OA
ATOM     21  C   UNL     1      95.976  98.112  86.980  1.00  0.00     0.278 C 
ENDBRANCH  17  20
BRANCH  19  22
ATOM     22  O   UNL     1      97.106 100.590  84.848  1.00  0.00    -0.504 OA
ATOM     23  H   UNL     1      96.765 101.432  84.500  1.00  0.00     0.293 HD
ENDBRANCH  19  22
ENDBRANCH  13  14
ENDBRANCH  12  13
ENDBRANCH  10  12
ENDBRANCH   1  10
TORSDOF 12
ENDMDL
MODEL 3
REMARK VINA RESULT:    -5.641      2.751      5.669
REMARK INTER + INTRA:         -10.111
REMARK INTER:                  -8.483
REMARK INTRA:                  -1.628
REMARK UNBOUND:                -0.843
REMARK SMILES CCCCC[C@H](O)CC(=O)CCc1ccc(O)c(OC)c1
REMARK SMILES IDX 8 1 6 2 7 3 5 5 4 6 3 7 2 8 1 9 9 10 10 11 11 12 12 13 13 14
REMARK SMILES IDX 21 15 14 16 18 17 15 18 16 19 19 20 20 21 17 22
REMARK H PARENT 7 4 17 23
REMARK Flexibility Score: inf
ROOT
ATOM      1  C   UNL     1      95.370  94.298  79.569  1.00  0.00     0.107 C 
ENDROOT
BRANCH   1   2
ATOM      2  C   UNL     1      94.023  93.788  79.051  1.00  0.00     0.121 C 
BRANCH   2   3
ATOM      3  O   UNL     1      93.081  93.739  80.119  1.00  0.00    -0.393 OA
ATOM      4  H   UNL     1      93.455  93.178  80.821  1.00  0.00     0.210 HD
ENDBRANCH   2   3
BRANCH   2   5
ATOM      5  C   UNL     1      93.454  94.645  77.914  1.00  0.00     0.032 C 
BRANCH   5   6
ATOM      6  C   UNL     1      92.454  95.689  78.424  1.00  0.00     0.003 C 
BRANCH   6   7
ATOM      7  C   UNL     1      91.060  95.547  77.804  1.00  0.00    -0.000 C 
BRANCH   7   8
ATOM      8  C   UNL     1      90.731  94.125  77.355  1.00  0.00    -0.003 C 
ATOM      9  C   UNL     1      89.843  93.416  78.366  1.00  0.00     0.004 C 
ENDBRANCH   7   8
ENDBRANCH   6   7
ENDBRANCH   5   6
ENDBRANCH   2   5
ENDBRANCH   1   2
BRANCH   1  10
ATOM     10  C   UNL     1      95.253  95.069  80.874  1.00  0.00     0.135 C 
ATOM     11  O   UNL     1      95.163  94.480  81.951  1.00  0.00    -0.300 OA
BRANCH  10  12
ATOM     12  C   UNL     1      95.298  96.586  80.776  1.00  0.00     0.080 C 
BRANCH  12  13
ATOM     13  C   UNL     1      96.464  97.114  79.938  1.00  0.00     0.043 C 
BRANCH  13  14
ATOM     14  C   UNL     1      96.023  98.032  78.823  1.00  0.00    -0.044 A 
ATOM     15  C   UNL     1      95.483  97.500  77.652  1.00  0.00     0.054 A 
ATOM     16  C   UNL     1      96.155  99.414  78.965  1.00  0.00     0.008 A 
ATOM     17  C   UNL     1      95.075  98.349  76.623  1.00  0.00     0.160 A 
ATOM     18  C   UNL     1      95.747 100.263  77.936  1.00  0.00     0.050 A 
ATOM     19  C   UNL     1      95.208  99.731  76.766  1.00  0.00     0.157 A 
BRANCH  17  20
ATOM     20  O   UNL     1      94.551  97.818  75.484  1.00  0.00    -0.493 OA
ATOM     21  C   UNL     1      95.460  97.184  74.586  1.00  0.00     0.278 C 
ENDBRANCH  17  20
BRANCH  19  22
ATOM     22  O   UNL     1      94.813 100.570  75.768  1.00  0.00    -0.504 OA
ATOM     23  H   UNL     1      95.510 101.232  75.616  1.00  0.00     0.293 HD
ENDBRANCH  19  22
ENDBRANCH  13  14
ENDBRANCH  12  13
ENDBRANCH  10  12
ENDBRANCH   1  10
TORSDOF 12
ENDMDL
MODEL 4
REMARK VINA RESULT:    -5.605      2.081      7.289
REMARK INTER + INTRA:         -10.052
REMARK INTER:                  -8.584
REMARK INTRA:                  -1.469
REMARK UNBOUND:                -0.843
REMARK SMILES CCCCC[C@H](O)CC(=O)CCc1ccc(O)c(OC)c1
REMARK SMILES IDX 8 1 6 2 7 3 5 5 4 6 3 7 2 8 1 9 9 10 10 11 11 12 12 13 13 14
REMARK SMILES IDX 21 15 14 16 18 17 15 18 16 19 19 20 20 21 17 22
REMARK H PARENT 7 4 17 23
REMARK Flexibility Score: inf
ROOT
ATOM      1  C   UNL     1      93.748  97.823  76.205  1.00  0.00     0.107 C 
ENDROOT
BRANCH   1   2
ATOM      2  C   UNL     1      93.953  96.423  75.621  1.00  0.00     0.121 C 
BRANCH   2   3
ATOM      3  O   UNL     1      95.173  96.380  74.885  1.00  0.00    -0.393 OA
ATOM      4  H   UNL     1      95.002  95.902  74.054  1.00  0.00     0.210 HD
ENDBRANCH   2   3
BRANCH   2   5
ATOM      5  C   UNL     1      93.969  95.324  76.690  1.00  0.00     0.032 C 
BRANCH   5   6
ATOM      6  C   UNL     1      92.582  94.707  76.904  1.00  0.00     0.003 C 
BRANCH   6   7
ATOM      7  C   UNL     1      92.321  94.288  78.355  1.00  0.00    -0.000 C 
BRANCH   7   8
ATOM      8  C   UNL     1      90.851  93.997  78.652  1.00  0.00    -0.003 C 
ATOM      9  C   UNL     1      89.952  94.472  77.522  1.00  0.00     0.004 C 
ENDBRANCH   7   8
ENDBRANCH   6   7
ENDBRANCH   5   6
ENDBRANCH   2   5
ENDBRANCH   1   2
BRANCH   1  10
ATOM     10  C   UNL     1      95.049  98.588  76.388  1.00  0.00     0.135 C 
ATOM     11  O   UNL     1      95.656  99.045  75.419  1.00  0.00    -0.300 OA
BRANCH  10  12
ATOM     12  C   UNL     1      95.525  98.792  77.818  1.00  0.00     0.080 C 
BRANCH  12  13
ATOM     13  C   UNL     1      96.356  97.629  78.361  1.00  0.00     0.043 C 
BRANCH  13  14
ATOM     14  C   UNL     1      95.936  97.197  79.746  1.00  0.00    -0.044 A 
ATOM     15  C   UNL     1      96.096  98.065  80.826  1.00  0.00     0.054 A 
ATOM     16  C   UNL     1      95.389  95.929  79.945  1.00  0.00     0.008 A 
ATOM     17  C   UNL     1      95.707  97.665  82.105  1.00  0.00     0.160 A 
ATOM     18  C   UNL     1      95.000  95.529  81.223  1.00  0.00     0.050 A 
ATOM     19  C   UNL     1      95.159  96.397  82.303  1.00  0.00     0.157 A 
BRANCH  17  20
ATOM     20  O   UNL     1      95.868  98.521  83.152  1.00  0.00    -0.493 OA
ATOM     21  C   UNL     1      95.171  99.764  83.087  1.00  0.00     0.278 C 
ENDBRANCH  17  20
BRANCH  19  22
ATOM     22  O   UNL     1      94.775  95.996  83.547  1.00  0.00    -0.504 OA
ATOM     23  H   UNL     1      93.899  95.577  83.489  1.00  0.00     0.293 HD
ENDBRANCH  19  22
ENDBRANCH  13  14
ENDBRANCH  12  13
ENDBRANCH  10  12
ENDBRANCH   1  10
TORSDOF 12
ENDMDL
MODEL 5
REMARK VINA RESULT:    -5.591     22.723     25.983
REMARK INTER + INTRA:         -10.029
REMARK INTER:                  -8.106
REMARK INTRA:                  -1.923
REMARK UNBOUND:                -0.843
REMARK SMILES CCCCC[C@H](O)CC(=O)CCc1ccc(O)c(OC)c1
REMARK SMILES IDX 8 1 6 2 7 3 5 5 4 6 3 7 2 8 1 9 9 10 10 11 11 12 12 13 13 14
REMARK SMILES IDX 21 15 14 16 18 17 15 18 16 19 19 20 20 21 17 22
REMARK H PARENT 7 4 17 23
REMARK Flexibility Score: inf
ROOT
ATOM      1  C   UNL     1      75.060  81.491  66.057  1.00  0.00     0.107 C 
ENDROOT
BRANCH   1   2
ATOM      2  C   UNL     1      73.777  82.119  65.509  1.00  0.00     0.121 C 
BRANCH   2   3
ATOM      3  O   UNL     1      72.644  81.552  66.163  1.00  0.00    -0.393 OA
ATOM      4  H   UNL     1      71.859  81.747  65.621  1.00  0.00     0.210 HD
ENDBRANCH   2   3
BRANCH   2   5
ATOM      5  C   UNL     1      73.740  83.644  65.666  1.00  0.00     0.032 C 
BRANCH   5   6
ATOM      6  C   UNL     1      73.157  84.070  67.019  1.00  0.00     0.003 C 
BRANCH   6   7
ATOM      7  C   UNL     1      74.149  84.849  67.888  1.00  0.00    -0.000 C 
BRANCH   7   8
ATOM      8  C   UNL     1      73.873  86.350  67.936  1.00  0.00    -0.003 C 
ATOM      9  C   UNL     1      73.778  86.852  69.369  1.00  0.00     0.004 C 
ENDBRANCH   7   8
ENDBRANCH   6   7
ENDBRANCH   5   6
ENDBRANCH   2   5
ENDBRANCH   1   2
BRANCH   1  10
ATOM     10  C   UNL     1      76.306  81.924  65.300  1.00  0.00     0.135 C 
ATOM     11  O   UNL     1      76.339  81.899  64.070  1.00  0.00    -0.300 OA
BRANCH  10  12
ATOM     12  C   UNL     1      77.473  82.424  66.137  1.00  0.00     0.080 C 
BRANCH  12  13
ATOM     13  C   UNL     1      77.954  83.823  65.747  1.00  0.00     0.043 C 
BRANCH  13  14
ATOM     14  C   UNL     1      77.766  84.842  66.846  1.00  0.00    -0.044 A 
ATOM     15  C   UNL     1      77.757  84.436  68.180  1.00  0.00     0.054 A 
ATOM     16  C   UNL     1      77.601  86.190  66.525  1.00  0.00     0.008 A 
ATOM     17  C   UNL     1      77.584  85.378  69.194  1.00  0.00     0.160 A 
ATOM     18  C   UNL     1      77.427  87.132  67.539  1.00  0.00     0.050 A 
ATOM     19  C   UNL     1      77.419  86.726  68.873  1.00  0.00     0.157 A 
BRANCH  17  20
ATOM     20  O   UNL     1      77.576  84.970  70.494  1.00  0.00    -0.493 OA
ATOM     21  C   UNL     1      76.413  84.282  70.950  1.00  0.00     0.278 C 
ENDBRANCH  17  20
BRANCH  19  22
ATOM     22  O   UNL     1      77.249  87.655  69.855  1.00  0.00    -0.504 OA
ATOM     23  H   UNL     1      77.352  88.543  69.471  1.00  0.00     0.293 HD
ENDBRANCH  19  22
ENDBRANCH  13  14
ENDBRANCH  12  13
ENDBRANCH  10  12
ENDBRANCH   1  10
TORSDOF 12
ENDMDL
MODEL 6
REMARK VINA RESULT:    -5.541     23.088     27.187
REMARK INTER + INTRA:          -9.947
REMARK INTER:                  -8.727
REMARK INTRA:                  -1.220
REMARK UNBOUND:                -0.843
REMARK SMILES CCCCC[C@H](O)CC(=O)CCc1ccc(O)c(OC)c1
REMARK SMILES IDX 8 1 6 2 7 3 5 5 4 6 3 7 2 8 1 9 9 10 10 11 11 12 12 13 13 14
REMARK SMILES IDX 21 15 14 16 18 17 15 18 16 19 19 20 20 21 17 22
REMARK H PARENT 7 4 17 23
REMARK Flexibility Score: inf
ROOT
ATOM      1  C   UNL     1      77.919  84.182  66.519  1.00  0.00     0.107 C 
ENDROOT
BRANCH   1   2
ATOM      2  C   UNL     1      77.461  85.558  66.029  1.00  0.00     0.121 C 
BRANCH   2   3
ATOM      3  O   UNL     1      76.120  85.480  65.554  1.00  0.00    -0.393 OA
ATOM      4  H   UNL     1      75.547  85.272  66.312  1.00  0.00     0.210 HD
ENDBRANCH   2   3
BRANCH   2   5
ATOM      5  C   UNL     1      77.551  86.641  67.112  1.00  0.00     0.032 C 
BRANCH   5   6
ATOM      6  C   UNL     1      78.233  86.127  68.386  1.00  0.00     0.003 C 
BRANCH   6   7
ATOM      7  C   UNL     1      77.559  86.614  69.673  1.00  0.00    -0.000 C 
BRANCH   7   8
ATOM      8  C   UNL     1      76.407  85.724  70.135  1.00  0.00    -0.003 C 
ATOM      9  C   UNL     1      76.914  84.395  70.674  1.00  0.00     0.004 C 
ENDBRANCH   7   8
ENDBRANCH   6   7
ENDBRANCH   5   6
ENDBRANCH   2   5
ENDBRANCH   1   2
BRANCH   1  10
ATOM     10  C   UNL     1      76.775  83.195  66.679  1.00  0.00     0.135 C 
ATOM     11  O   UNL     1      75.928  83.345  67.560  1.00  0.00    -0.300 OA
BRANCH  10  12
ATOM     12  C   UNL     1      76.711  82.056  65.673  1.00  0.00     0.080 C 
BRANCH  12  13
ATOM     13  C   UNL     1      75.633  81.017  65.988  1.00  0.00     0.043 C 
BRANCH  13  14
ATOM     14  C   UNL     1      74.321  81.299  65.295  1.00  0.00    -0.044 A 
ATOM     15  C   UNL     1      73.233  81.777  66.026  1.00  0.00     0.054 A 
ATOM     16  C   UNL     1      74.197  81.080  63.922  1.00  0.00     0.008 A 
ATOM     17  C   UNL     1      72.022  82.037  65.385  1.00  0.00     0.160 A 
ATOM     18  C   UNL     1      72.986  81.340  63.281  1.00  0.00     0.050 A 
ATOM     19  C   UNL     1      71.898  81.818  64.012  1.00  0.00     0.157 A 
BRANCH  17  20
ATOM     20  O   UNL     1      70.967  82.503  66.109  1.00  0.00    -0.493 OA
ATOM     21  C   UNL     1      71.170  83.706  66.849  1.00  0.00     0.278 C 
ENDBRANCH  17  20
BRANCH  19  22
ATOM     22  O   UNL     1      70.721  82.069  63.375  1.00  0.00    -0.504 OA
ATOM     23  H   UNL     1      70.646  83.025  63.211  1.00  0.00     0.293 HD
ENDBRANCH  19  22
ENDBRANCH  13  14
ENDBRANCH  12  13
ENDBRANCH  10  12
ENDBRANCH   1  10
TORSDOF 12
ENDMDL
MODEL 7
REMARK VINA RESULT:    -5.435      2.642      6.318
REMARK INTER + INTRA:          -9.773
REMARK INTER:                  -8.374
REMARK INTRA:                  -1.400
REMARK UNBOUND:                -0.843
REMARK SMILES CCCCC[C@H](O)CC(=O)CCc1ccc(O)c(OC)c1
REMARK SMILES IDX 8 1 6 2 7 3 5 5 4 6 3 7 2 8 1 9 9 10 10 11 11 12 12 13 13 14
REMARK SMILES IDX 21 15 14 16 18 17 15 18 16 19 19 20 20 21 17 22
REMARK H PARENT 7 4 17 23
REMARK Flexibility Score: inf
ROOT
ATOM      1  C   UNL     1      95.806  94.182  80.256  1.00  0.00     0.107 C 
ENDROOT
BRANCH   1   2
ATOM      2  C   UNL     1      94.520  94.026  79.440  1.00  0.00     0.121 C 
BRANCH   2   3
ATOM      3  O   UNL     1      93.446  93.650  80.299  1.00  0.00    -0.393 OA
ATOM      4  H   UNL     1      92.621  93.985  79.907  1.00  0.00     0.210 HD
ENDBRANCH   2   3
BRANCH   2   5
ATOM      5  C   UNL     1      94.135  95.300  78.678  1.00  0.00     0.032 C 
BRANCH   5   6
ATOM      6  C   UNL     1      93.610  94.993  77.270  1.00  0.00     0.003 C 
BRANCH   6   7
ATOM      7  C   UNL     1      92.081  95.025  77.173  1.00  0.00    -0.000 C 
BRANCH   7   8
ATOM      8  C   UNL     1      91.428  93.655  77.343  1.00  0.00    -0.003 C 
ATOM      9  C   UNL     1      90.401  93.665  78.464  1.00  0.00     0.004 C 
ENDBRANCH   7   8
ENDBRANCH   6   7
ENDBRANCH   5   6
ENDBRANCH   2   5
ENDBRANCH   1   2
BRANCH   1  10
ATOM     10  C   UNL     1      95.555  94.275  81.752  1.00  0.00     0.135 C 
ATOM     11  O   UNL     1      95.145  93.303  82.386  1.00  0.00    -0.300 OA
BRANCH  10  12
ATOM     12  C   UNL     1      95.879  95.604  82.417  1.00  0.00     0.080 C 
BRANCH  12  13
ATOM     13  C   UNL     1      94.797  96.668  82.223  1.00  0.00     0.043 C 
BRANCH  13  14
ATOM     14  C   UNL     1      95.345  97.985  81.727  1.00  0.00    -0.044 A 
ATOM     15  C   UNL     1      95.844  98.090  80.429  1.00  0.00     0.054 A 
ATOM     16  C   UNL     1      95.351  99.098  82.569  1.00  0.00     0.008 A 
ATOM     17  C   UNL     1      96.348  99.307  79.972  1.00  0.00     0.160 A 
ATOM     18  C   UNL     1      95.855 100.316  82.112  1.00  0.00     0.050 A 
ATOM     19  C   UNL     1      96.354 100.420  80.813  1.00  0.00     0.157 A 
BRANCH  17  20
ATOM     20  O   UNL     1      96.834  99.397  78.702  1.00  0.00    -0.493 OA
ATOM     21  C   UNL     1      95.886  99.625  77.661  1.00  0.00     0.278 C 
ENDBRANCH  17  20
BRANCH  19  22
ATOM     22  O   UNL     1      96.844 101.614  80.378  1.00  0.00    -0.504 OA
ATOM     23  H   UNL     1      96.848 101.620  79.406  1.00  0.00     0.293 HD
ENDBRANCH  19  22
ENDBRANCH  13  14
ENDBRANCH  12  13
ENDBRANCH  10  12
ENDBRANCH   1  10
TORSDOF 12
ENDMDL
MODEL 8
REMARK VINA RESULT:    -5.428      1.841      7.108
REMARK INTER + INTRA:          -9.762
REMARK INTER:                  -8.997
REMARK INTRA:                  -0.764
REMARK UNBOUND:                -0.843
REMARK SMILES CCCCC[C@H](O)CC(=O)CCc1ccc(O)c(OC)c1
REMARK SMILES IDX 8 1 6 2 7 3 5 5 4 6 3 7 2 8 1 9 9 10 10 11 11 12 12 13 13 14
REMARK SMILES IDX 21 15 14 16 18 17 15 18 16 19 19 20 20 21 17 22
REMARK H PARENT 7 4 17 23
REMARK Flexibility Score: inf
ROOT
ATOM      1  C   UNL     1      94.203  94.601  78.118  1.00  0.00     0.107 C 
ENDROOT
BRANCH   1   2
ATOM      2  C   UNL     1      93.758  96.062  78.018  1.00  0.00     0.121 C 
BRANCH   2   3
ATOM      3  O   UNL     1      94.700  96.803  77.247  1.00  0.00    -0.393 OA
ATOM      4  H   UNL     1      95.446  97.033  77.828  1.00  0.00     0.210 HD
ENDBRANCH   2   3
BRANCH   2   5
ATOM      5  C   UNL     1      92.363  96.223  77.401  1.00  0.00     0.032 C 
BRANCH   5   6
ATOM      6  C   UNL     1      91.477  94.997  77.652  1.00  0.00     0.003 C 
BRANCH   6   7
ATOM      7  C   UNL     1      89.983  95.280  77.466  1.00  0.00    -0.000 C 
BRANCH   7   8
ATOM      8  C   UNL     1      89.088  94.086  77.793  1.00  0.00    -0.003 C 
ATOM      9  C   UNL     1      89.826  93.053  78.631  1.00  0.00     0.004 C 
ENDBRANCH   7   8
ENDBRANCH   6   7
ENDBRANCH   5   6
ENDBRANCH   2   5
ENDBRANCH   1   2
BRANCH   1  10
ATOM     10  C   UNL     1      94.374  94.128  79.553  1.00  0.00     0.135 C 
ATOM     11  O   UNL     1      93.401  93.803  80.232  1.00  0.00    -0.300 OA
BRANCH  10  12
ATOM     12  C   UNL     1      95.800  94.037  80.076  1.00  0.00     0.080 C 
BRANCH  12  13
ATOM     13  C   UNL     1      96.569  95.357  79.996  1.00  0.00     0.043 C 
BRANCH  13  14
ATOM     14  C   UNL     1      96.711  96.042  81.334  1.00  0.00    -0.044 A 
ATOM     15  C   UNL     1      95.981  97.199  81.606  1.00  0.00     0.054 A 
ATOM     16  C   UNL     1      97.571  95.516  82.299  1.00  0.00     0.008 A 
ATOM     17  C   UNL     1      96.112  97.830  82.844  1.00  0.00     0.160 A 
ATOM     18  C   UNL     1      97.701  96.147  83.536  1.00  0.00     0.050 A 
ATOM     19  C   UNL     1      96.972  97.304  83.808  1.00  0.00     0.157 A 
BRANCH  17  20
ATOM     20  O   UNL     1      95.395  98.961  83.098  1.00  0.00    -0.493 OA
ATOM     21  C   UNL     1      95.617 100.076  82.237  1.00  0.00     0.278 C 
ENDBRANCH  17  20
BRANCH  19  22
ATOM     22  O   UNL     1      97.108  97.912  85.020  1.00  0.00    -0.504 OA
ATOM     23  H   UNL     1      96.326  97.714  85.563  1.00  0.00     0.293 HD
ENDBRANCH  19  22
ENDBRANCH  13  14
ENDBRANCH  12  13
ENDBRANCH  10  12
ENDBRANCH   1  10
TORSDOF 12
ENDMDL
MODEL 9
REMARK VINA RESULT:    -5.241      4.069      8.674
REMARK INTER + INTRA:          -9.454
REMARK INTER:                  -8.535
REMARK INTRA:                  -0.919
REMARK UNBOUND:                -0.843
REMARK SMILES CCCCC[C@H](O)CC(=O)CCc1ccc(O)c(OC)c1
REMARK SMILES IDX 8 1 6 2 7 3 5 5 4 6 3 7 2 8 1 9 9 10 10 11 11 12 12 13 13 14
REMARK SMILES IDX 21 15 14 16 18 17 15 18 16 19 19 20 20 21 17 22
REMARK H PARENT 7 4 17 23
REMARK Flexibility Score: inf
ROOT
ATOM      1  C   UNL     1      92.846  99.944  74.517  1.00  0.00     0.107 C 
ENDROOT
BRANCH   1   2
ATOM      2  C   UNL     1      93.571 100.287  73.214  1.00  0.00     0.121 C 
BRANCH   2   3
ATOM      3  O   UNL     1      94.764  99.514  73.107  1.00  0.00    -0.393 OA
ATOM      4  H   UNL     1      94.516  98.575  73.163  1.00  0.00     0.210 HD
ENDBRANCH   2   3
BRANCH   2   5
ATOM      5  C   UNL     1      92.708 100.058  71.968  1.00  0.00     0.032 C 
BRANCH   5   6
ATOM      6  C   UNL     1      91.428 100.903  71.990  1.00  0.00     0.003 C 
BRANCH   6   7
ATOM      7  C   UNL     1      90.177 100.120  71.576  1.00  0.00    -0.000 C 
BRANCH   7   8
ATOM      8  C   UNL     1      90.470  98.950  70.639  1.00  0.00    -0.003 C 
ATOM      9  C   UNL     1      89.487  97.809  70.853  1.00  0.00     0.004 C 
ENDBRANCH   7   8
ENDBRANCH   6   7
ENDBRANCH   5   6
ENDBRANCH   2   5
ENDBRANCH   1   2
BRANCH   1  10
ATOM     10  C   UNL     1      93.627  98.984  75.399  1.00  0.00     0.135 C 
ATOM     11  O   UNL     1      94.692  99.323  75.915  1.00  0.00    -0.300 OA
BRANCH  10  12
ATOM     12  C   UNL     1      93.004  97.618  75.640  1.00  0.00     0.080 C 
BRANCH  12  13
ATOM     13  C   UNL     1      94.026  96.485  75.746  1.00  0.00     0.043 C 
BRANCH  13  14
ATOM     14  C   UNL     1      93.900  95.691  77.024  1.00  0.00    -0.044 A 
ATOM     15  C   UNL     1      94.722  95.985  78.112  1.00  0.00     0.054 A 
ATOM     16  C   UNL     1      92.961  94.663  77.116  1.00  0.00     0.008 A 
ATOM     17  C   UNL     1      94.604  95.251  79.293  1.00  0.00     0.160 A 
ATOM     18  C   UNL     1      92.843  93.929  78.297  1.00  0.00     0.050 A 
ATOM     19  C   UNL     1      93.665  94.223  79.385  1.00  0.00     0.157 A 
BRANCH  17  20
ATOM     20  O   UNL     1      95.412  95.547  80.349  1.00  0.00    -0.493 OA
ATOM     21  C   UNL     1      96.817  95.577  80.102  1.00  0.00     0.278 C 
ENDBRANCH  17  20
BRANCH  19  22
ATOM     22  O   UNL     1      93.540  93.500  80.532  1.00  0.00    -0.504 OA
ATOM     23  H   UNL     1      93.255  94.091  81.250  1.00  0.00     0.293 HD
ENDBRANCH  19  22
ENDBRANCH  13  14
ENDBRANCH  12  13
ENDBRANCH  10  12
ENDBRANCH   1  10
TORSDOF 12
ENDMDL
MODEL 10
REMARK VINA RESULT:    -5.241     22.642     27.653
REMARK INTER + INTRA:          -9.454
REMARK INTER:                  -8.123
REMARK INTRA:                  -1.330
REMARK UNBOUND:                -0.843
REMARK SMILES CCCCC[C@H](O)CC(=O)CCc1ccc(O)c(OC)c1
REMARK SMILES IDX 8 1 6 2 7 3 5 5 4 6 3 7 2 8 1 9 9 10 10 11 11 12 12 13 13 14
REMARK SMILES IDX 21 15 14 16 18 17 15 18 16 19 19 20 20 21 17 22
REMARK H PARENT 7 4 17 23
REMARK Flexibility Score: inf
ROOT
ATOM      1  C   UNL     1      73.149  81.295  65.119  1.00  0.00     0.107 C 
ENDROOT
BRANCH   1   2
ATOM      2  C   UNL     1      72.594  82.525  64.396  1.00  0.00     0.121 C 
BRANCH   2   3
ATOM      3  O   UNL     1      71.210  82.334  64.112  1.00  0.00    -0.393 OA
ATOM      4  H   UNL     1      70.724  83.094  64.477  1.00  0.00     0.210 HD
ENDBRANCH   2   3
BRANCH   2   5
ATOM      5  C   UNL     1      72.771  83.822  65.195  1.00  0.00     0.032 C 
BRANCH   5   6
ATOM      6  C   UNL     1      72.689  83.583  66.707  1.00  0.00     0.003 C 
BRANCH   6   7
ATOM      7  C   UNL     1      71.697  84.513  67.415  1.00  0.00    -0.000 C 
BRANCH   7   8
ATOM      8  C   UNL     1      70.619  83.772  68.203  1.00  0.00    -0.003 C 
ATOM      9  C   UNL     1      70.166  82.515  67.476  1.00  0.00     0.004 C 
ENDBRANCH   7   8
ENDBRANCH   6   7
ENDBRANCH   5   6
ENDBRANCH   2   5
ENDBRANCH   1   2
BRANCH   1  10
ATOM     10  C   UNL     1      74.638  81.091  64.889  1.00  0.00     0.135 C 
ATOM     11  O   UNL     1      75.071  80.796  63.775  1.00  0.00    -0.300 OA
BRANCH  10  12
ATOM     12  C   UNL     1      75.550  81.314  66.085  1.00  0.00     0.080 C 
BRANCH  12  13
ATOM     13  C   UNL     1      76.945  81.816  65.710  1.00  0.00     0.043 C 
BRANCH  13  14
ATOM     14  C   UNL     1      77.154  83.277  66.029  1.00  0.00    -0.044 A 
ATOM     15  C   UNL     1      77.819  83.648  67.197  1.00  0.00     0.054 A 
ATOM     16  C   UNL     1      76.681  84.256  65.154  1.00  0.00     0.008 A 
ATOM     17  C   UNL     1      78.012  84.998  67.490  1.00  0.00     0.160 A 
ATOM     18  C   UNL     1      76.874  85.606  65.447  1.00  0.00     0.050 A 
ATOM     19  C   UNL     1      77.539  85.977  66.616  1.00  0.00     0.157 A 
BRANCH  17  20
ATOM     20  O   UNL     1      78.663  85.349  68.635  1.00  0.00    -0.493 OA
ATOM     21  C   UNL     1      77.870  85.505  69.810  1.00  0.00     0.278 C 
ENDBRANCH  17  20
BRANCH  19  22
ATOM     22  O   UNL     1      77.721  87.298  66.891  1.00  0.00    -0.504 OA
ATOM     23  H   UNL     1      78.591  87.418  67.310  1.00  0.00     0.293 HD
ENDBRANCH  19  22
ENDBRANCH  13  14
ENDBRANCH  12  13
ENDBRANCH  10  12
ENDBRANCH   1  10
TORSDOF 12
ENDMDL
