MODEL 1
REMARK VINA RESULT:    -7.195      0.000      0.000
REMARK INTER + INTRA:         -12.879
REMARK INTER:                 -12.663
REMARK INTRA:                  -0.216
REMARK UNBOUND:                -0.216
REMARK SMILES C=C(C)[C@]12C[C@@H](C)[C@@]34O[C@](Cc5ccccc5)(O[C@@H]1[C@@H]3C=C(COC(=O)Cc1ccc(O)c(OC)c1)C[C@]1(O)C(=O)C(C)=C[C@@H]41)O2
REMARK SMILES IDX 23 1 22 2 21 3 20 4 9 5 8 6 10 7 6 8 18 9 46 10 19 11 5 12
REMARK SMILES IDX 7 13 4 14 45 15 38 16 44 17 40 18 42 20 41 21 43 22 39 23
REMARK SMILES IDX 11 25 12 26 13 27 17 28 14 29 16 30 15 31 2 32 3 33 1 34
REMARK SMILES IDX 37 35 24 37 25 38 26 39 27 40 28 41 36 42 29 43 33 44 30 45
REMARK SMILES IDX 31 46 34 47 35 48 32 49
REMARK H PARENT 39 24 32 50
REMARK Flexibility Score: 90.00
ROOT
ATOM      1  C   UNL     1      95.909  95.083  74.885  1.00  0.00     0.264 C 
ENDROOT
BRANCH   1   2
ATOM      2  C   UNL     1      96.104  96.516  74.445  1.00  0.00    -0.033 C 
ATOM      3  C   UNL     1      96.074  96.812  73.130  1.00  0.00    -0.015 C 
BRANCH   3   4
ATOM      4  C   UNL     1      96.317  98.141  72.435  1.00  0.00     0.078 C 
ATOM      5  O   UNL     1      94.113  99.235  72.183  1.00  0.00    -0.319 OA
ATOM      6  C   UNL     1      95.415  99.369  72.831  1.00  0.00     0.095 C 
ATOM      7  C   UNL     1      94.149  98.803  70.809  1.00  0.00     0.289 C 
ATOM      8  C   UNL     1      96.131 100.681  72.303  1.00  0.00     0.023 C 
ATOM      9  O   UNL     1      94.819  97.552  70.679  1.00  0.00    -0.320 OA
ATOM     10  O   UNL     1      94.864  99.711  69.976  1.00  0.00    -0.313 OA
ATOM     11  C   UNL     1      96.175  97.967  70.903  1.00  0.00     0.170 C 
ATOM     12  C   UNL     1      96.906 100.413  70.976  1.00  0.00     0.049 C 
ATOM     13  C   UNL     1      95.217 101.904  72.124  1.00  0.00     0.011 C 
ATOM     14  C   UNL     1      96.241  99.316  70.144  1.00  0.00     0.122 C 
BRANCH   6  15
ATOM     15  C   UNL     1      95.094  99.350  74.354  1.00  0.00     0.086 C 
ATOM     16  C   UNL     1      96.268  98.999  75.292  1.00  0.00     0.140 CG0
ATOM     17  C   UNL     1      94.487 100.566  74.995  1.00  0.00    -0.010 C 
ATOM     18  C   UNL     1      95.976  99.846  76.512  1.00  0.00     0.190 C 
ATOM     19  G   UNL     1      96.322  97.506  75.615  1.00  0.00     0.000 G0
ATOM     20  C   UNL     1      94.941 100.856  76.219  1.00  0.00    -0.008 C 
ATOM     21  O   UNL     1      96.545  99.756  77.589  1.00  0.00    -0.291 OA
ATOM     22  C   UNL     1      94.521 101.910  77.165  1.00  0.00     0.048 C 
BRANCH  16  23
ATOM     23  O   UNL     1      97.525  99.476  74.841  1.00  0.00    -0.381 OA
ATOM     24  H   UNL     1      98.034  98.724  74.496  1.00  0.00     0.212 HD
ENDBRANCH  16  23
ENDBRANCH   6  15
BRANCH   7  25
ATOM     25  C   UNL     1      92.723  98.676  70.313  1.00  0.00     0.135 C 
BRANCH  25  26
ATOM     26  C   UNL     1      92.271  99.909  69.571  1.00  0.00    -0.040 A 
ATOM     27  C   UNL     1      92.132  99.876  68.183  1.00  0.00     0.004 A 
ATOM     28  C   UNL     1      91.989 101.081  70.272  1.00  0.00     0.004 A 
ATOM     29  C   UNL     1      91.713 101.016  67.497  1.00  0.00     0.000 A 
ATOM     30  C   UNL     1      91.570 102.221  69.586  1.00  0.00     0.000 A 
ATOM     31  C   UNL     1      91.433 102.188  68.198  1.00  0.00     0.000 A 
ENDBRANCH  25  26
ENDBRANCH   7  25
BRANCH  14  32
ATOM     32  C   UNL     1      96.857  99.169  68.791  1.00  0.00    -0.046 C 
ATOM     33  C   UNL     1      97.337  97.795  68.427  1.00  0.00     0.042 C 
ATOM     34  C   UNL     1      96.976 100.207  67.949  1.00  0.00     0.010 C 
ENDBRANCH  14  32
ENDBRANCH   3   4
BRANCH   2  35
ATOM     35  C   UNL     1      96.311  97.471  75.606  1.00  0.00     0.078 CG0
ATOM     36  G   UNL     1      96.261  98.966  75.297  1.00  0.00     0.000 G0
ENDBRANCH   2  35
ENDBRANCH   1   2
BRANCH   1  37
ATOM     37  O   UNL     1      95.075  95.054  76.024  1.00  0.00    -0.461 OA
BRANCH  37  38
ATOM     38  C   UNL     1      93.749  94.769  75.800  1.00  0.00     0.310 C 
ATOM     39  O   UNL     1      93.139  95.023  74.770  1.00  0.00    -0.252 OA
BRANCH  38  40
ATOM     40  C   UNL     1      93.164  94.096  77.020  1.00  0.00     0.158 C 
BRANCH  40  41
ATOM     41  C   UNL     1      91.987  93.213  76.696  1.00  0.00    -0.033 A 
ATOM     42  C   UNL     1      91.649  92.960  75.366  1.00  0.00     0.054 A 
ATOM     43  C   UNL     1      91.235  92.648  77.726  1.00  0.00     0.008 A 
ATOM     44  C   UNL     1      90.559  92.143  75.067  1.00  0.00     0.160 A 
ATOM     45  C   UNL     1      90.145  91.830  77.427  1.00  0.00     0.050 A 
ATOM     46  C   UNL     1      89.806  91.578  76.098  1.00  0.00     0.157 A 
BRANCH  44  47
ATOM     47  O   UNL     1      90.238  91.904  73.765  1.00  0.00    -0.493 OA
ATOM     48  C   UNL     1      91.307  91.553  72.888  1.00  0.00     0.278 C 
ENDBRANCH  44  47
BRANCH  46  49
ATOM     49  O   UNL     1      88.741  90.777  75.818  1.00  0.00    -0.504 OA
ATOM     50  H   UNL     1      87.992  91.332  75.543  1.00  0.00     0.293 HD
ENDBRANCH  46  49
ENDBRANCH  40  41
ENDBRANCH  38  40
ENDBRANCH  37  38
ENDBRANCH   1  37
TORSDOF 11
ENDMDL
MODEL 2
REMARK VINA RESULT:    -6.592     16.029     20.083
REMARK INTER + INTRA:         -11.818
REMARK INTER:                 -10.354
REMARK INTRA:                  -1.464
REMARK UNBOUND:                -0.216
REMARK SMILES C=C(C)[C@]12C[C@@H](C)[C@@]34O[C@](Cc5ccccc5)(O[C@@H]1[C@@H]3C=C(COC(=O)Cc1ccc(O)c(OC)c1)C[C@]1(O)C(=O)C(C)=C[C@@H]41)O2
REMARK SMILES IDX 23 1 22 2 21 3 20 4 9 5 8 6 10 7 6 8 18 9 46 10 19 11 5 12
REMARK SMILES IDX 7 13 4 14 45 15 38 16 44 17 40 18 42 20 41 21 43 22 39 23
REMARK SMILES IDX 11 25 12 26 13 27 17 28 14 29 16 30 15 31 2 32 3 33 1 34
REMARK SMILES IDX 37 35 24 37 25 38 26 39 27 40 28 41 36 42 29 43 33 44 30 45
REMARK SMILES IDX 31 46 34 47 35 48 32 49
REMARK H PARENT 39 24 32 50
REMARK Flexibility Score: 90.00
ROOT
ATOM      1  C   UNL     1     100.366  77.575  81.350  1.00  0.00     0.264 C 
ENDROOT
BRANCH   1   2
ATOM      2  C   UNL     1      99.809  77.739  79.955  1.00  0.00    -0.033 C 
ATOM      3  C   UNL     1      99.476  78.971  79.519  1.00  0.00    -0.015 C 
BRANCH   3   4
ATOM      4  C   UNL     1      98.834  79.389  78.206  1.00  0.00     0.078 C 
ATOM      5  O   UNL     1     100.673  79.883  76.628  1.00  0.00    -0.319 OA
ATOM      6  C   UNL     1      99.545  78.984  76.862  1.00  0.00     0.095 C 
ATOM      7  C   UNL     1     100.419  81.274  76.899  1.00  0.00     0.289 C 
ATOM      8  C   UNL     1      98.491  79.152  75.691  1.00  0.00     0.023 C 
ATOM      9  O   UNL     1      99.993  81.470  78.245  1.00  0.00    -0.320 OA
ATOM     10  O   UNL     1      99.376  81.802  76.084  1.00  0.00    -0.313 OA
ATOM     11  C   UNL     1      98.665  80.928  78.170  1.00  0.00     0.170 C 
ATOM     12  C   UNL     1      97.509  80.331  75.972  1.00  0.00     0.049 C 
ATOM     13  C   UNL     1      99.087  79.308  74.283  1.00  0.00     0.011 C 
ATOM     14  C   UNL     1      98.173  81.438  76.792  1.00  0.00     0.122 C 
BRANCH   6  15
ATOM     15  C   UNL     1     100.191  77.573  76.982  1.00  0.00     0.086 C 
ATOM     16  C   UNL     1      99.350  76.500  77.704  1.00  0.00     0.140 CG0
ATOM     17  C   UNL     1     100.663  76.870  75.740  1.00  0.00    -0.010 C 
ATOM     18  C   UNL     1      99.725  75.236  76.960  1.00  0.00     0.190 C 
ATOM     19  G   UNL     1      99.675  76.419  79.195  1.00  0.00     0.000 G0
ATOM     20  C   UNL     1     100.440  75.552  75.709  1.00  0.00    -0.008 C 
ATOM     21  O   UNL     1      99.439  74.100  77.304  1.00  0.00    -0.291 OA
ATOM     22  C   UNL     1     100.835  74.545  74.703  1.00  0.00     0.048 C 
BRANCH  16  23
ATOM     23  O   UNL     1      97.954  76.621  77.485  1.00  0.00    -0.381 OA
ATOM     24  H   UNL     1      97.677  75.915  76.877  1.00  0.00     0.212 HD
ENDBRANCH  16  23
ENDBRANCH   6  15
BRANCH   7  25
ATOM     25  C   UNL     1     101.698  82.049  76.649  1.00  0.00     0.135 C 
BRANCH  25  26
ATOM     26  C   UNL     1     101.777  82.567  75.235  1.00  0.00    -0.040 A 
ATOM     27  C   UNL     1     101.389  83.876  74.949  1.00  0.00     0.004 A 
ATOM     28  C   UNL     1     102.240  81.739  74.213  1.00  0.00     0.004 A 
ATOM     29  C   UNL     1     101.462  84.356  73.641  1.00  0.00     0.000 A 
ATOM     30  C   UNL     1     102.314  82.219  72.905  1.00  0.00     0.000 A 
ATOM     31  C   UNL     1     101.925  83.528  72.620  1.00  0.00     0.000 A 
ENDBRANCH  25  26
ENDBRANCH   7  25
BRANCH  14  32
ATOM     32  C   UNL     1      97.315  82.654  76.918  1.00  0.00    -0.046 C 
ATOM     33  C   UNL     1      97.469  83.688  75.842  1.00  0.00     0.042 C 
ATOM     34  C   UNL     1      96.454  82.813  77.934  1.00  0.00     0.010 C 
ENDBRANCH  14  32
ENDBRANCH   3   4
BRANCH   2  35
ATOM     35  C   UNL     1      99.702  76.429  79.199  1.00  0.00     0.078 CG0
ATOM     36  G   UNL     1      99.370  76.506  77.709  1.00  0.00     0.000 G0
ENDBRANCH   2  35
ENDBRANCH   1   2
BRANCH   1  37
ATOM     37  O   UNL     1      99.870  78.606  82.176  1.00  0.00    -0.461 OA
BRANCH  37  38
ATOM     38  C   UNL     1      98.982  78.226  83.155  1.00  0.00     0.310 C 
ATOM     39  O   UNL     1      99.292  77.740  84.234  1.00  0.00    -0.252 OA
BRANCH  38  40
ATOM     40  C   UNL     1      97.571  78.500  82.691  1.00  0.00     0.158 C 
BRANCH  40  41
ATOM     41  C   UNL     1      97.126  79.914  82.966  1.00  0.00    -0.033 A 
ATOM     42  C   UNL     1      97.684  80.972  82.246  1.00  0.00     0.054 A 
ATOM     43  C   UNL     1      96.158  80.165  83.937  1.00  0.00     0.008 A 
ATOM     44  C   UNL     1      97.272  82.281  82.500  1.00  0.00     0.160 A 
ATOM     45  C   UNL     1      95.746  81.474  84.191  1.00  0.00     0.050 A 
ATOM     46  C   UNL     1      96.303  82.531  83.473  1.00  0.00     0.157 A 
BRANCH  44  47
ATOM     47  O   UNL     1      97.824  83.305  81.792  1.00  0.00    -0.493 OA
ATOM     48  C   UNL     1      98.801  82.963  80.811  1.00  0.00     0.278 C 
ENDBRANCH  44  47
BRANCH  46  49
ATOM     49  O   UNL     1      95.893  83.805  83.729  1.00  0.00    -0.504 OA
ATOM     50  H   UNL     1      95.095  83.775  84.283  1.00  0.00     0.293 HD
ENDBRANCH  46  49
ENDBRANCH  40  41
ENDBRANCH  38  40
ENDBRANCH  37  38
ENDBRANCH   1  37
TORSDOF 11
ENDMDL
MODEL 3
REMARK VINA RESULT:    -6.546     16.502     19.767
REMARK INTER + INTRA:         -11.737
REMARK INTER:                 -10.260
REMARK INTRA:                  -1.476
REMARK UNBOUND:                -0.216
REMARK SMILES C=C(C)[C@]12C[C@@H](C)[C@@]34O[C@](Cc5ccccc5)(O[C@@H]1[C@@H]3C=C(COC(=O)Cc1ccc(O)c(OC)c1)C[C@]1(O)C(=O)C(C)=C[C@@H]41)O2
REMARK SMILES IDX 23 1 22 2 21 3 20 4 9 5 8 6 10 7 6 8 18 9 46 10 19 11 5 12
REMARK SMILES IDX 7 13 4 14 45 15 38 16 44 17 40 18 42 20 41 21 43 22 39 23
REMARK SMILES IDX 11 25 12 26 13 27 17 28 14 29 16 30 15 31 2 32 3 33 1 34
REMARK SMILES IDX 37 35 24 37 25 38 26 39 27 40 28 41 36 42 29 43 33 44 30 45
REMARK SMILES IDX 31 46 34 47 35 48 32 49
REMARK H PARENT 39 24 32 50
REMARK Flexibility Score: 90.00
ROOT
ATOM      1  C   UNL     1      96.189  78.250  84.782  1.00  0.00     0.264 C 
ENDROOT
BRANCH   1   2
ATOM      2  C   UNL     1      97.166  79.209  84.144  1.00  0.00    -0.033 C 
ATOM      3  C   UNL     1      97.860  78.817  83.056  1.00  0.00    -0.015 C 
BRANCH   3   4
ATOM      4  C   UNL     1      98.943  79.553  82.285  1.00  0.00     0.078 C 
ATOM      5  O   UNL     1      97.819  80.768  80.446  1.00  0.00    -0.319 OA
ATOM      6  C   UNL     1      98.598  80.960  81.668  1.00  0.00     0.095 C 
ATOM      7  C   UNL     1      98.280  79.713  79.581  1.00  0.00     0.289 C 
ATOM      8  C   UNL     1      99.965  81.675  81.310  1.00  0.00     0.023 C 
ATOM      9  O   UNL     1      98.314  78.462  80.263  1.00  0.00    -0.320 OA
ATOM     10  O   UNL     1      99.609  79.935  79.118  1.00  0.00    -0.313 OA
ATOM     11  C   UNL     1      99.449  78.672  81.117  1.00  0.00     0.170 C 
ATOM     12  C   UNL     1     101.052  80.645  80.872  1.00  0.00     0.049 C 
ATOM     13  C   UNL     1      99.869  82.795  80.260  1.00  0.00     0.011 C 
ATOM     14  C   UNL     1     100.432  79.426  80.188  1.00  0.00     0.122 C 
BRANCH   6  15
ATOM     15  C   UNL     1      97.651  81.759  82.610  1.00  0.00     0.086 C 
ATOM     16  C   UNL     1      97.994  81.715  84.114  1.00  0.00     0.140 CG0
ATOM     17  C   UNL     1      97.413  83.219  82.348  1.00  0.00    -0.010 C 
ATOM     18  C   UNL     1      97.580  83.094  84.582  1.00  0.00     0.190 C 
ATOM     19  G   UNL     1      97.247  80.600  84.844  1.00  0.00     0.000 G0
ATOM     20  C   UNL     1      97.340  83.992  83.437  1.00  0.00    -0.008 C 
ATOM     21  O   UNL     1      97.499  83.452  85.748  1.00  0.00    -0.291 OA
ATOM     22  C   UNL     1      97.039  85.433  83.563  1.00  0.00     0.048 C 
BRANCH  16  23
ATOM     23  O   UNL     1      99.385  81.670  84.384  1.00  0.00    -0.381 OA
ATOM     24  H   UNL     1      99.520  81.853  85.329  1.00  0.00     0.212 HD
ENDBRANCH  16  23
ENDBRANCH   6  15
BRANCH   7  25
ATOM     25  C   UNL     1      97.339  79.624  78.396  1.00  0.00     0.135 C 
BRANCH  25  26
ATOM     26  C   UNL     1      97.291  80.914  77.615  1.00  0.00    -0.040 A 
ATOM     27  C   UNL     1      97.803  80.962  76.318  1.00  0.00     0.004 A 
ATOM     28  C   UNL     1      96.735  82.057  78.188  1.00  0.00     0.004 A 
ATOM     29  C   UNL     1      97.759  82.155  75.595  1.00  0.00     0.000 A 
ATOM     30  C   UNL     1      96.691  83.249  77.465  1.00  0.00     0.000 A 
ATOM     31  C   UNL     1      97.203  83.298  76.169  1.00  0.00     0.000 A 
ENDBRANCH  25  26
ENDBRANCH   7  25
BRANCH  14  32
ATOM     32  C   UNL     1     101.459  78.515  79.599  1.00  0.00    -0.046 C 
ATOM     33  C   UNL     1     102.495  77.984  80.545  1.00  0.00     0.042 C 
ATOM     34  C   UNL     1     101.456  78.189  78.297  1.00  0.00     0.010 C 
ENDBRANCH  14  32
ENDBRANCH   3   4
BRANCH   2  35
ATOM     35  C   UNL     1      97.227  80.552  84.847  1.00  0.00     0.078 CG0
ATOM     36  G   UNL     1      97.972  81.681  84.135  1.00  0.00     0.000 G0
ENDBRANCH   2  35
ENDBRANCH   1   2
BRANCH   1  37
ATOM     37  O   UNL     1      94.876  78.742  84.616  1.00  0.00    -0.461 OA
BRANCH  37  38
ATOM     38  C   UNL     1      94.111  78.831  85.756  1.00  0.00     0.310 C 
ATOM     39  O   UNL     1      94.341  78.243  86.804  1.00  0.00    -0.252 OA
BRANCH  38  40
ATOM     40  C   UNL     1      92.948  79.763  85.512  1.00  0.00     0.158 C 
BRANCH  40  41
ATOM     41  C   UNL     1      92.935  80.945  86.446  1.00  0.00    -0.033 A 
ATOM     42  C   UNL     1      93.747  82.049  86.185  1.00  0.00     0.054 A 
ATOM     43  C   UNL     1      92.112  80.936  87.572  1.00  0.00     0.008 A 
ATOM     44  C   UNL     1      93.736  83.144  87.050  1.00  0.00     0.160 A 
ATOM     45  C   UNL     1      92.100  82.030  88.437  1.00  0.00     0.050 A 
ATOM     46  C   UNL     1      92.912  83.134  88.176  1.00  0.00     0.157 A 
BRANCH  44  47
ATOM     47  O   UNL     1      94.533  84.216  86.784  1.00  0.00    -0.493 OA
ATOM     48  C   UNL     1      94.063  85.148  85.812  1.00  0.00     0.278 C 
ENDBRANCH  44  47
BRANCH  46  49
ATOM     49  O   UNL     1      92.891  84.197  89.027  1.00  0.00    -0.504 OA
ATOM     50  H   UNL     1      92.928  85.018  88.509  1.00  0.00     0.293 HD
ENDBRANCH  46  49
ENDBRANCH  40  41
ENDBRANCH  38  40
ENDBRANCH  37  38
ENDBRANCH   1  37
TORSDOF 11
ENDMDL
MODEL 4
REMARK VINA RESULT:    -6.503      3.091      8.124
REMARK INTER + INTRA:         -11.661
REMARK INTER:                 -10.676
REMARK INTRA:                  -0.986
REMARK UNBOUND:                -0.216
REMARK SMILES C=C(C)[C@]12C[C@@H](C)[C@@]34O[C@](Cc5ccccc5)(O[C@@H]1[C@@H]3C=C(COC(=O)Cc1ccc(O)c(OC)c1)C[C@]1(O)C(=O)C(C)=C[C@@H]41)O2
REMARK SMILES IDX 23 1 22 2 21 3 20 4 9 5 8 6 10 7 6 8 18 9 46 10 19 11 5 12
REMARK SMILES IDX 7 13 4 14 45 15 38 16 44 17 40 18 42 20 41 21 43 22 39 23
REMARK SMILES IDX 11 25 12 26 13 27 17 28 14 29 16 30 15 31 2 32 3 33 1 34
REMARK SMILES IDX 37 35 24 37 25 38 26 39 27 40 28 41 36 42 29 43 33 44 30 45
REMARK SMILES IDX 31 46 34 47 35 48 32 49
REMARK H PARENT 39 24 32 50
REMARK Flexibility Score: 90.00
ROOT
ATOM      1  C   UNL     1      94.514 101.136  72.174  1.00  0.00     0.264 C 
ENDROOT
BRANCH   1   2
ATOM      2  C   UNL     1      95.884 100.540  72.400  1.00  0.00    -0.033 C 
ATOM      3  C   UNL     1      96.102  99.784  73.494  1.00  0.00    -0.015 C 
BRANCH   3   4
ATOM      4  C   UNL     1      97.391  99.144  73.983  1.00  0.00     0.078 C 
ATOM      5  O   UNL     1      97.449  96.847  73.066  1.00  0.00    -0.319 OA
ATOM      6  C   UNL     1      98.136  98.136  73.030  1.00  0.00     0.095 C 
ATOM      7  C   UNL     1      97.035  96.405  74.373  1.00  0.00     0.289 C 
ATOM      8  C   UNL     1      99.612  97.958  73.579  1.00  0.00     0.023 C 
ATOM      9  O   UNL     1      96.179  97.360  74.995  1.00  0.00    -0.320 OA
ATOM     10  O   UNL     1      98.137  96.240  75.262  1.00  0.00    -0.313 OA
ATOM     11  C   UNL     1      97.132  98.386  75.309  1.00  0.00     0.170 C 
ATOM     12  C   UNL     1      99.660  98.064  75.134  1.00  0.00     0.049 C 
ATOM     13  C   UNL     1     100.332  96.676  73.131  1.00  0.00     0.011 C 
ATOM     14  C   UNL     1      98.363  97.569  75.775  1.00  0.00     0.122 C 
BRANCH   6  15
ATOM     15  C   UNL     1      98.024  98.595  71.547  1.00  0.00     0.086 C 
ATOM     16  C   UNL     1      98.234 100.100  71.283  1.00  0.00     0.140 CG0
ATOM     17  C   UNL     1      98.883  97.935  70.505  1.00  0.00    -0.010 C 
ATOM     18  C   UNL     1      98.910 100.103  69.928  1.00  0.00     0.190 C 
ATOM     19  G   UNL     1      96.917 100.875  71.282  1.00  0.00     0.000 G0
ATOM     20  C   UNL     1      99.373  98.750  69.566  1.00  0.00    -0.008 C 
ATOM     21  O   UNL     1      99.102 101.090  69.235  1.00  0.00    -0.291 OA
ATOM     22  C   UNL     1     100.173  98.444  68.363  1.00  0.00     0.048 C 
BRANCH  16  23
ATOM     23  O   UNL     1      99.189 100.705  72.139  1.00  0.00    -0.381 OA
ATOM     24  H   UNL     1      99.289 100.149  72.929  1.00  0.00     0.212 HD
ENDBRANCH  16  23
ENDBRANCH   6  15
BRANCH   7  25
ATOM     25  C   UNL     1      96.306  95.086  74.220  1.00  0.00     0.135 C 
BRANCH  25  26
ATOM     26  C   UNL     1      95.444  94.774  75.418  1.00  0.00    -0.040 A 
ATOM     27  C   UNL     1      96.031  94.317  76.599  1.00  0.00     0.004 A 
ATOM     28  C   UNL     1      94.062  94.944  75.347  1.00  0.00     0.004 A 
ATOM     29  C   UNL     1      95.234  94.029  77.707  1.00  0.00     0.000 A 
ATOM     30  C   UNL     1      93.265  94.656  76.455  1.00  0.00     0.000 A 
ATOM     31  C   UNL     1      93.852  94.198  77.635  1.00  0.00     0.000 A 
ENDBRANCH  25  26
ENDBRANCH   7  25
BRANCH  14  32
ATOM     32  C   UNL     1      98.452  97.489  77.264  1.00  0.00    -0.046 C 
ATOM     33  C   UNL     1      97.149  97.420  78.003  1.00  0.00     0.042 C 
ATOM     34  C   UNL     1      99.631  97.479  77.904  1.00  0.00     0.010 C 
ENDBRANCH  14  32
ENDBRANCH   3   4
BRANCH   2  35
ATOM     35  C   UNL     1      96.872 100.888  71.302  1.00  0.00     0.078 CG0
ATOM     36  G   UNL     1      98.199 100.131  71.291  1.00  0.00     0.000 G0
ENDBRANCH   2  35
ENDBRANCH   1   2
BRANCH   1  37
ATOM     37  O   UNL     1      93.529 100.197  72.549  1.00  0.00    -0.461 OA
BRANCH  37  38
ATOM     38  C   UNL     1      92.964  99.468  71.529  1.00  0.00     0.310 C 
ATOM     39  O   UNL     1      93.241  98.308  71.256  1.00  0.00    -0.252 OA
BRANCH  38  40
ATOM     40  C   UNL     1      91.951 100.321  70.801  1.00  0.00     0.158 C 
BRANCH  40  41
ATOM     41  C   UNL     1      91.492  99.709  69.502  1.00  0.00    -0.033 A 
ATOM     42  C   UNL     1      91.875 100.281  68.288  1.00  0.00     0.054 A 
ATOM     43  C   UNL     1      90.686  98.571  69.513  1.00  0.00     0.008 A 
ATOM     44  C   UNL     1      91.451  99.715  67.086  1.00  0.00     0.160 A 
ATOM     45  C   UNL     1      90.262  98.005  68.311  1.00  0.00     0.050 A 
ATOM     46  C   UNL     1      90.643  98.576  67.098  1.00  0.00     0.157 A 
BRANCH  44  47
ATOM     47  O   UNL     1      91.830 100.282  65.907  1.00  0.00    -0.493 OA
ATOM     48  C   UNL     1      92.941 101.177  65.947  1.00  0.00     0.278 C 
ENDBRANCH  44  47
BRANCH  46  49
ATOM     49  O   UNL     1      90.224  98.014  65.931  1.00  0.00    -0.504 OA
ATOM     50  H   UNL     1      89.258  98.101  65.866  1.00  0.00     0.293 HD
ENDBRANCH  46  49
ENDBRANCH  40  41
ENDBRANCH  38  40
ENDBRANCH  37  38
ENDBRANCH   1  37
TORSDOF 11
ENDMDL
MODEL 5
REMARK VINA RESULT:    -5.618     17.534     20.404
REMARK INTER + INTRA:         -10.105
REMARK INTER:                  -8.949
REMARK INTRA:                  -1.156
REMARK UNBOUND:                -0.216
REMARK SMILES C=C(C)[C@]12C[C@@H](C)[C@@]34O[C@](Cc5ccccc5)(O[C@@H]1[C@@H]3C=C(COC(=O)Cc1ccc(O)c(OC)c1)C[C@]1(O)C(=O)C(C)=C[C@@H]41)O2
REMARK SMILES IDX 23 1 22 2 21 3 20 4 9 5 8 6 10 7 6 8 18 9 46 10 19 11 5 12
REMARK SMILES IDX 7 13 4 14 45 15 38 16 44 17 40 18 42 20 41 21 43 22 39 23
REMARK SMILES IDX 11 25 12 26 13 27 17 28 14 29 16 30 15 31 2 32 3 33 1 34
REMARK SMILES IDX 37 35 24 37 25 38 26 39 27 40 28 41 36 42 29 43 33 44 30 45
REMARK SMILES IDX 31 46 34 47 35 48 32 49
REMARK H PARENT 39 24 32 50
REMARK Flexibility Score: 90.00
ROOT
ATOM      1  C   UNL     1      97.669  78.359  86.069  1.00  0.00     0.264 C 
ENDROOT
BRANCH   1   2
ATOM      2  C   UNL     1      98.152  79.496  85.199  1.00  0.00    -0.033 C 
ATOM      3  C   UNL     1      98.888  79.221  84.104  1.00  0.00    -0.015 C 
BRANCH   3   4
ATOM      4  C   UNL     1      99.549  80.175  83.122  1.00  0.00     0.078 C 
ATOM      5  O   UNL     1      97.926  80.571  81.298  1.00  0.00    -0.319 OA
ATOM      6  C   UNL     1      98.647  81.232  82.382  1.00  0.00     0.095 C 
ATOM      7  C   UNL     1      98.702  79.640  80.519  1.00  0.00     0.289 C 
ATOM      8  C   UNL     1      99.605  82.339  81.775  1.00  0.00     0.023 C 
ATOM      9  O   UNL     1      99.261  78.619  81.341  1.00  0.00    -0.320 OA
ATOM     10  O   UNL     1      99.808  80.264  79.874  1.00  0.00    -0.313 OA
ATOM     11  C   UNL     1     100.280  79.371  82.019  1.00  0.00     0.170 C 
ATOM     12  C   UNL     1     100.974  81.733  81.339  1.00  0.00     0.049 C 
ATOM     13  C   UNL     1      99.016  83.158  80.615  1.00  0.00     0.011 C 
ATOM     14  C   UNL     1     100.832  80.278  80.891  1.00  0.00     0.122 C 
BRANCH   6  15
ATOM     15  C   UNL     1      97.529  81.761  83.327  1.00  0.00     0.086 C 
ATOM     16  C   UNL     1      97.952  82.060  84.780  1.00  0.00     0.140 CG0
ATOM     17  C   UNL     1      96.748  82.983  82.932  1.00  0.00    -0.010 C 
ATOM     18  C   UNL     1      97.082  83.247  85.135  1.00  0.00     0.190 C 
ATOM     19  G   UNL     1      97.719  80.866  85.706  1.00  0.00     0.000 G0
ATOM     20  C   UNL     1      96.457  83.824  83.930  1.00  0.00    -0.008 C 
ATOM     21  O   UNL     1      96.944  83.714  86.256  1.00  0.00    -0.291 OA
ATOM     22  C   UNL     1      95.648  85.060  83.927  1.00  0.00     0.048 C 
BRANCH  16  23
ATOM     23  O   UNL     1      99.273  82.559  84.902  1.00  0.00    -0.381 OA
ATOM     24  H   UNL     1      99.276  83.491  84.628  1.00  0.00     0.212 HD
ENDBRANCH  16  23
ENDBRANCH   6  15
BRANCH   7  25
ATOM     25  C   UNL     1      97.793  79.018  79.478  1.00  0.00     0.135 C 
BRANCH  25  26
ATOM     26  C   UNL     1      97.804  79.794  78.184  1.00  0.00    -0.040 A 
ATOM     27  C   UNL     1      98.556  79.334  77.102  1.00  0.00     0.004 A 
ATOM     28  C   UNL     1      97.061  80.968  78.068  1.00  0.00     0.004 A 
ATOM     29  C   UNL     1      98.565  80.051  75.905  1.00  0.00     0.000 A 
ATOM     30  C   UNL     1      97.071  81.685  76.871  1.00  0.00     0.000 A 
ATOM     31  C   UNL     1      97.823  81.226  75.790  1.00  0.00     0.000 A 
ENDBRANCH  25  26
ENDBRANCH   7  25
BRANCH  14  32
ATOM     32  C   UNL     1     102.090  79.734  80.298  1.00  0.00    -0.046 C 
ATOM     33  C   UNL     1     102.166  79.721  78.800  1.00  0.00     0.042 C 
ATOM     34  C   UNL     1     103.097  79.282  81.062  1.00  0.00     0.010 C 
ENDBRANCH  14  32
ENDBRANCH   3   4
BRANCH   2  35
ATOM     35  C   UNL     1      97.711  80.858  85.702  1.00  0.00     0.078 CG0
ATOM     36  G   UNL     1      97.964  82.056  84.788  1.00  0.00     0.000 G0
ENDBRANCH   2  35
ENDBRANCH   1   2
BRANCH   1  37
ATOM     37  O   UNL     1      96.517  77.784  85.490  1.00  0.00    -0.461 OA
BRANCH  37  38
ATOM     38  C   UNL     1      95.346  77.923  86.199  1.00  0.00     0.310 C 
ATOM     39  O   UNL     1      95.265  78.334  87.348  1.00  0.00    -0.252 OA
BRANCH  38  40
ATOM     40  C   UNL     1      94.182  77.489  85.339  1.00  0.00     0.158 C 
BRANCH  40  41
ATOM     41  C   UNL     1      92.845  77.824  85.949  1.00  0.00    -0.033 A 
ATOM     42  C   UNL     1      92.420  79.151  86.012  1.00  0.00     0.054 A 
ATOM     43  C   UNL     1      92.032  76.807  86.448  1.00  0.00     0.008 A 
ATOM     44  C   UNL     1      91.182  79.461  86.576  1.00  0.00     0.160 A 
ATOM     45  C   UNL     1      90.794  77.116  87.012  1.00  0.00     0.050 A 
ATOM     46  C   UNL     1      90.369  78.443  87.077  1.00  0.00     0.157 A 
BRANCH  44  47
ATOM     47  O   UNL     1      90.778  80.760  86.633  1.00  0.00    -0.493 OA
ATOM     48  C   UNL     1      90.106  81.281  85.488  1.00  0.00     0.278 C 
ENDBRANCH  44  47
BRANCH  46  49
ATOM     49  O   UNL     1      89.158  78.733  87.628  1.00  0.00    -0.504 OA
ATOM     50  H   UNL     1      89.017  79.694  87.594  1.00  0.00     0.293 HD
ENDBRANCH  46  49
ENDBRANCH  40  41
ENDBRANCH  38  40
ENDBRANCH  37  38
ENDBRANCH   1  37
TORSDOF 11
ENDMDL
MODEL 6
REMARK VINA RESULT:    -5.572     19.357     23.159
REMARK INTER + INTRA:         -10.024
REMARK INTER:                  -8.596
REMARK INTRA:                  -1.428
REMARK UNBOUND:                -0.216
REMARK SMILES C=C(C)[C@]12C[C@@H](C)[C@@]34O[C@](Cc5ccccc5)(O[C@@H]1[C@@H]3C=C(COC(=O)Cc1ccc(O)c(OC)c1)C[C@]1(O)C(=O)C(C)=C[C@@H]41)O2
REMARK SMILES IDX 23 1 22 2 21 3 20 4 9 5 8 6 10 7 6 8 18 9 46 10 19 11 5 12
REMARK SMILES IDX 7 13 4 14 45 15 38 16 44 17 40 18 42 20 41 21 43 22 39 23
REMARK SMILES IDX 11 25 12 26 13 27 17 28 14 29 16 30 15 31 2 32 3 33 1 34
REMARK SMILES IDX 37 35 24 37 25 38 26 39 27 40 28 41 36 42 29 43 33 44 30 45
REMARK SMILES IDX 31 46 34 47 35 48 32 49
REMARK H PARENT 39 24 32 50
REMARK Flexibility Score: 90.00
ROOT
ATOM      1  C   UNL     1      90.149  80.838  89.874  1.00  0.00     0.264 C 
ENDROOT
BRANCH   1   2
ATOM      2  C   UNL     1      90.944  81.854  89.088  1.00  0.00    -0.033 C 
ATOM      3  C   UNL     1      91.407  82.955  89.713  1.00  0.00    -0.015 C 
BRANCH   3   4
ATOM      4  C   UNL     1      92.155  84.147  89.139  1.00  0.00     0.078 C 
ATOM      5  O   UNL     1      94.570  83.669  89.384  1.00  0.00    -0.319 OA
ATOM      6  C   UNL     1      93.518  83.889  88.394  1.00  0.00     0.095 C 
ATOM      7  C   UNL     1      94.545  84.557  90.518  1.00  0.00     0.289 C 
ATOM      8  C   UNL     1      93.857  85.186  87.549  1.00  0.00     0.023 C 
ATOM      9  O   UNL     1      93.296  84.486  91.202  1.00  0.00    -0.320 OA
ATOM     10  O   UNL     1      94.699  85.922  90.139  1.00  0.00    -0.313 OA
ATOM     11  C   UNL     1      92.454  85.171  90.262  1.00  0.00     0.170 C 
ATOM     12  C   UNL     1      93.350  86.479  88.260  1.00  0.00     0.049 C 
ATOM     13  C   UNL     1      95.336  85.357  87.168  1.00  0.00     0.011 C 
ATOM     14  C   UNL     1      93.363  86.330  89.781  1.00  0.00     0.122 C 
BRANCH   6  15
ATOM     15  C   UNL     1      93.461  82.560  87.586  1.00  0.00     0.086 C 
ATOM     16  C   UNL     1      92.158  82.294  86.804  1.00  0.00     0.140 CG0
ATOM     17  C   UNL     1      94.538  82.263  86.581  1.00  0.00    -0.010 C 
ATOM     18  C   UNL     1      92.657  81.564  85.576  1.00  0.00     0.190 C 
ATOM     19  G   UNL     1      91.159  81.466  87.612  1.00  0.00     0.000 G0
ATOM     20  C   UNL     1      94.123  81.678  85.452  1.00  0.00    -0.008 C 
ATOM     21  O   UNL     1      91.954  80.994  84.756  1.00  0.00    -0.291 OA
ATOM     22  C   UNL     1      94.898  81.176  84.300  1.00  0.00     0.048 C 
BRANCH  16  23
ATOM     23  O   UNL     1      91.555  83.465  86.280  1.00  0.00    -0.381 OA
ATOM     24  H   UNL     1      90.936  83.204  85.578  1.00  0.00     0.212 HD
ENDBRANCH  16  23
ENDBRANCH   6  15
BRANCH   7  25
ATOM     25  C   UNL     1      95.667  84.162  91.456  1.00  0.00     0.135 C 
BRANCH  25  26
ATOM     26  C   UNL     1      95.367  84.540  92.886  1.00  0.00    -0.040 A 
ATOM     27  C   UNL     1      94.830  83.594  93.759  1.00  0.00     0.004 A 
ATOM     28  C   UNL     1      95.629  85.834  93.335  1.00  0.00     0.004 A 
ATOM     29  C   UNL     1      94.553  83.943  95.082  1.00  0.00     0.000 A 
ATOM     30  C   UNL     1      95.352  86.183  94.657  1.00  0.00     0.000 A 
ATOM     31  C   UNL     1      94.814  85.237  95.530  1.00  0.00     0.000 A 
ENDBRANCH  25  26
ENDBRANCH   7  25
BRANCH  14  32
ATOM     32  C   UNL     1      93.057  87.611  90.486  1.00  0.00    -0.046 C 
ATOM     33  C   UNL     1      92.989  88.839  89.628  1.00  0.00     0.042 C 
ATOM     34  C   UNL     1      92.856  87.662  91.811  1.00  0.00     0.010 C 
ENDBRANCH  14  32
ENDBRANCH   3   4
BRANCH   2  35
ATOM     35  C   UNL     1      91.125  81.470  87.632  1.00  0.00     0.078 CG0
ATOM     36  G   UNL     1      92.130  82.281  86.815  1.00  0.00     0.000 G0
ENDBRANCH   2  35
ENDBRANCH   1   2
BRANCH   1  37
ATOM     37  O   UNL     1      89.371  81.503  90.846  1.00  0.00    -0.461 OA
BRANCH  37  38
ATOM     38  C   UNL     1      88.056  81.113  90.945  1.00  0.00     0.310 C 
ATOM     39  O   UNL     1      87.334  80.832  89.999  1.00  0.00    -0.252 OA
BRANCH  38  40
ATOM     40  C   UNL     1      87.646  81.086  92.398  1.00  0.00     0.158 C 
BRANCH  40  41
ATOM     41  C   UNL     1      87.508  82.462  92.996  1.00  0.00    -0.033 A 
ATOM     42  C   UNL     1      88.501  82.958  93.842  1.00  0.00     0.054 A 
ATOM     43  C   UNL     1      86.388  83.241  92.704  1.00  0.00     0.008 A 
ATOM     44  C   UNL     1      88.373  84.233  94.395  1.00  0.00     0.160 A 
ATOM     45  C   UNL     1      86.260  84.515  93.257  1.00  0.00     0.050 A 
ATOM     46  C   UNL     1      87.252  85.011  94.102  1.00  0.00     0.157 A 
BRANCH  44  47
ATOM     47  O   UNL     1      89.348  84.706  95.219  1.00  0.00    -0.493 OA
ATOM     48  C   UNL     1      90.555  85.154  94.605  1.00  0.00     0.278 C 
ENDBRANCH  44  47
BRANCH  46  49
ATOM     49  O   UNL     1      87.117  86.257  94.636  1.00  0.00    -0.504 OA
ATOM     50  H   UNL     1      87.269  86.918  93.939  1.00  0.00     0.293 HD
ENDBRANCH  46  49
ENDBRANCH  40  41
ENDBRANCH  38  40
ENDBRANCH  37  38
ENDBRANCH   1  37
TORSDOF 11
ENDMDL
MODEL 7
REMARK VINA RESULT:    -5.529     16.319     20.206
REMARK INTER + INTRA:          -9.947
REMARK INTER:                  -9.419
REMARK INTRA:                  -0.528
REMARK UNBOUND:                -0.216
REMARK SMILES C=C(C)[C@]12C[C@@H](C)[C@@]34O[C@](Cc5ccccc5)(O[C@@H]1[C@@H]3C=C(COC(=O)Cc1ccc(O)c(OC)c1)C[C@]1(O)C(=O)C(C)=C[C@@H]41)O2
REMARK SMILES IDX 23 1 22 2 21 3 20 4 9 5 8 6 10 7 6 8 18 9 46 10 19 11 5 12
REMARK SMILES IDX 7 13 4 14 45 15 38 16 44 17 40 18 42 20 41 21 43 22 39 23
REMARK SMILES IDX 11 25 12 26 13 27 17 28 14 29 16 30 15 31 2 32 3 33 1 34
REMARK SMILES IDX 37 35 24 37 25 38 26 39 27 40 28 41 36 42 29 43 33 44 30 45
REMARK SMILES IDX 31 46 34 47 35 48 32 49
REMARK H PARENT 39 24 32 50
REMARK Flexibility Score: 90.00
ROOT
ATOM      1  C   UNL     1      98.517  79.002  84.314  1.00  0.00     0.264 C 
ENDROOT
BRANCH   1   2
ATOM      2  C   UNL     1      99.587  78.905  83.251  1.00  0.00    -0.033 C 
ATOM      3  C   UNL     1      99.239  79.012  81.953  1.00  0.00    -0.015 C 
BRANCH   3   4
ATOM      4  C   UNL     1     100.100  78.875  80.709  1.00  0.00     0.078 C 
ATOM      5  O   UNL     1     100.899  81.144  80.131  1.00  0.00    -0.319 OA
ATOM      6  C   UNL     1     101.350  79.821  80.555  1.00  0.00     0.095 C 
ATOM      7  C   UNL     1      99.880  81.152  79.113  1.00  0.00     0.289 C 
ATOM      8  C   UNL     1     102.284  79.203  79.434  1.00  0.00     0.023 C 
ATOM      9  O   UNL     1      98.728  80.424  79.529  1.00  0.00    -0.320 OA
ATOM     10  O   UNL     1     100.316  80.528  77.908  1.00  0.00    -0.313 OA
ATOM     11  C   UNL     1      99.233  79.082  79.443  1.00  0.00     0.170 C 
ATOM     12  C   UNL     1     101.452  78.481  78.331  1.00  0.00     0.049 C 
ATOM     13  C   UNL     1     103.263  80.188  78.774  1.00  0.00     0.011 C 
ATOM     14  C   UNL     1     100.078  79.126  78.145  1.00  0.00     0.122 C 
BRANCH   6  15
ATOM     15  C   UNL     1     102.030  80.065  81.933  1.00  0.00     0.086 C 
ATOM     16  C   UNL     1     102.170  78.832  82.850  1.00  0.00     0.140 CG0
ATOM     17  C   UNL     1     103.395  80.691  81.980  1.00  0.00    -0.010 C 
ATOM     18  C   UNL     1     103.480  79.100  83.560  1.00  0.00     0.190 C 
ATOM     19  G   UNL     1     100.996  78.698  83.819  1.00  0.00     0.000 G0
ATOM     20  C   UNL     1     104.224  80.191  82.902  1.00  0.00    -0.008 C 
ATOM     21  O   UNL     1     103.906  78.476  84.519  1.00  0.00    -0.291 OA
ATOM     22  C   UNL     1     105.589  80.609  83.282  1.00  0.00     0.048 C 
BRANCH  16  23
ATOM     23  O   UNL     1     102.405  77.621  82.152  1.00  0.00    -0.381 OA
ATOM     24  H   UNL     1     101.691  76.998  82.367  1.00  0.00     0.212 HD
ENDBRANCH  16  23
ENDBRANCH   6  15
BRANCH   7  25
ATOM     25  C   UNL     1      99.502  82.592  78.829  1.00  0.00     0.135 C 
BRANCH  25  26
ATOM     26  C   UNL     1      98.917  82.761  77.449  1.00  0.00    -0.040 A 
ATOM     27  C   UNL     1      99.690  82.474  76.324  1.00  0.00     0.004 A 
ATOM     28  C   UNL     1      97.603  83.203  77.298  1.00  0.00     0.004 A 
ATOM     29  C   UNL     1      99.149  82.630  75.048  1.00  0.00     0.000 A 
ATOM     30  C   UNL     1      97.062  83.359  76.021  1.00  0.00     0.000 A 
ATOM     31  C   UNL     1      97.836  83.073  74.897  1.00  0.00     0.000 A 
ENDBRANCH  25  26
ENDBRANCH   7  25
BRANCH  14  32
ATOM     32  C   UNL     1      99.336  78.570  76.974  1.00  0.00    -0.046 C 
ATOM     33  C   UNL     1      98.008  77.938  77.270  1.00  0.00     0.042 C 
ATOM     34  C   UNL     1      99.829  78.631  75.728  1.00  0.00     0.010 C 
ENDBRANCH  14  32
ENDBRANCH   3   4
BRANCH   2  35
ATOM     35  C   UNL     1     100.977  78.698  83.824  1.00  0.00     0.078 CG0
ATOM     36  G   UNL     1     102.155  78.820  82.859  1.00  0.00     0.000 G0
ENDBRANCH   2  35
ENDBRANCH   1   2
BRANCH   1  37
ATOM     37  O   UNL     1      97.912  80.275  84.253  1.00  0.00    -0.461 OA
BRANCH  37  38
ATOM     38  C   UNL     1      98.563  81.291  84.914  1.00  0.00     0.310 C 
ATOM     39  O   UNL     1      99.372  82.055  84.406  1.00  0.00    -0.252 OA
BRANCH  38  40
ATOM     40  C   UNL     1      98.124  81.314  86.359  1.00  0.00     0.158 C 
BRANCH  40  41
ATOM     41  C   UNL     1      97.046  82.332  86.630  1.00  0.00    -0.033 A 
ATOM     42  C   UNL     1      96.769  83.322  85.686  1.00  0.00     0.054 A 
ATOM     43  C   UNL     1      96.325  82.285  87.823  1.00  0.00     0.008 A 
ATOM     44  C   UNL     1      95.771  84.265  85.936  1.00  0.00     0.160 A 
ATOM     45  C   UNL     1      95.327  83.227  88.073  1.00  0.00     0.050 A 
ATOM     46  C   UNL     1      95.051  84.217  87.131  1.00  0.00     0.157 A 
BRANCH  44  47
ATOM     47  O   UNL     1      95.510  85.226  85.008  1.00  0.00    -0.493 OA
ATOM     48  C   UNL     1      96.169  85.107  83.748  1.00  0.00     0.278 C 
ENDBRANCH  44  47
BRANCH  46  49
ATOM     49  O   UNL     1      94.074  85.131  87.385  1.00  0.00    -0.504 OA
ATOM     50  H   UNL     1      93.255  84.851  86.942  1.00  0.00     0.293 HD
ENDBRANCH  46  49
ENDBRANCH  40  41
ENDBRANCH  38  40
ENDBRANCH  37  38
ENDBRANCH   1  37
TORSDOF 11
ENDMDL
MODEL 8
REMARK VINA RESULT:    -5.494      3.245      8.142
REMARK INTER + INTRA:          -9.886
REMARK INTER:                 -10.004
REMARK INTRA:                   0.118
REMARK UNBOUND:                -0.216
REMARK SMILES C=C(C)[C@]12C[C@@H](C)[C@@]34O[C@](Cc5ccccc5)(O[C@@H]1[C@@H]3C=C(COC(=O)Cc1ccc(O)c(OC)c1)C[C@]1(O)C(=O)C(C)=C[C@@H]41)O2
REMARK SMILES IDX 23 1 22 2 21 3 20 4 9 5 8 6 10 7 6 8 18 9 46 10 19 11 5 12
REMARK SMILES IDX 7 13 4 14 45 15 38 16 44 17 40 18 42 20 41 21 43 22 39 23
REMARK SMILES IDX 11 25 12 26 13 27 17 28 14 29 16 30 15 31 2 32 3 33 1 34
REMARK SMILES IDX 37 35 24 37 25 38 26 39 27 40 28 41 36 42 29 43 33 44 30 45
REMARK SMILES IDX 31 46 34 47 35 48 32 49
REMARK H PARENT 39 24 32 50
REMARK Flexibility Score: 90.00
ROOT
ATOM      1  C   UNL     1      95.241 101.116  68.695  1.00  0.00     0.264 C 
ENDROOT
BRANCH   1   2
ATOM      2  C   UNL     1      96.307 100.499  69.569  1.00  0.00    -0.033 C 
ATOM      3  C   UNL     1      96.170 100.546  70.910  1.00  0.00    -0.015 C 
BRANCH   3   4
ATOM      4  C   UNL     1      97.124 100.074  71.994  1.00  0.00     0.078 C 
ATOM      5  O   UNL     1      96.518  97.734  72.520  1.00  0.00    -0.319 OA
ATOM      6  C   UNL     1      97.589  98.570  71.981  1.00  0.00     0.095 C 
ATOM      7  C   UNL     1      95.857  98.256  73.688  1.00  0.00     0.289 C 
ATOM      8  C   UNL     1      98.864  98.453  72.914  1.00  0.00     0.023 C 
ATOM      9  O   UNL     1      95.303  99.545  73.435  1.00  0.00    -0.320 OA
ATOM     10  O   UNL     1      96.752  98.430  74.784  1.00  0.00    -0.313 OA
ATOM     11  C   UNL     1      96.504 100.331  73.390  1.00  0.00     0.170 C 
ATOM     12  C   UNL     1      98.791  99.453  74.109  1.00  0.00     0.049 C 
ATOM     13  C   UNL     1      99.167  97.043  73.445  1.00  0.00     0.011 C 
ATOM     14  C   UNL     1      97.347  99.720  74.536  1.00  0.00     0.122 C 
BRANCH   6  15
ATOM     15  C   UNL     1      97.779  98.064  70.522  1.00  0.00     0.086 C 
ATOM     16  C   UNL     1      98.471  99.041  69.548  1.00  0.00     0.140 CG0
ATOM     17  C   UNL     1      98.495  96.765  70.280  1.00  0.00    -0.010 C 
ATOM     18  C   UNL     1      99.251  98.107  68.648  1.00  0.00     0.190 C 
ATOM     19  G   UNL     1      97.466  99.894  68.776  1.00  0.00     0.000 G0
ATOM     20  C   UNL     1      99.308  96.748  69.219  1.00  0.00    -0.008 C 
ATOM     21  O   UNL     1      99.810  98.427  67.610  1.00  0.00    -0.291 OA
ATOM     22  C   UNL     1     100.095  95.639  68.640  1.00  0.00     0.048 C 
BRANCH  16  23
ATOM     23  O   UNL     1      99.472  99.842  70.154  1.00  0.00    -0.381 OA
ATOM     24  H   UNL     1      99.154 100.760  70.186  1.00  0.00     0.212 HD
ENDBRANCH  16  23
ENDBRANCH   6  15
BRANCH   7  25
ATOM     25  C   UNL     1      94.756  97.293  74.081  1.00  0.00     0.135 C 
BRANCH  25  26
ATOM     26  C   UNL     1      95.226  96.280  75.095  1.00  0.00    -0.040 A 
ATOM     27  C   UNL     1      94.731  94.976  75.059  1.00  0.00     0.004 A 
ATOM     28  C   UNL     1      96.157  96.645  76.067  1.00  0.00     0.004 A 
ATOM     29  C   UNL     1      95.166  94.038  75.996  1.00  0.00     0.000 A 
ATOM     30  C   UNL     1      96.592  95.708  77.004  1.00  0.00     0.000 A 
ATOM     31  C   UNL     1      96.096  94.405  76.968  1.00  0.00     0.000 A 
ENDBRANCH  25  26
ENDBRANCH   7  25
BRANCH  14  32
ATOM     32  C   UNL     1      97.259 100.528  75.790  1.00  0.00    -0.046 C 
ATOM     33  C   UNL     1      95.898 100.644  76.408  1.00  0.00     0.042 C 
ATOM     34  C   UNL     1      98.336 101.116  76.332  1.00  0.00     0.010 C 
ENDBRANCH  14  32
ENDBRANCH   3   4
BRANCH   2  35
ATOM     35  C   UNL     1      97.438  99.873  68.775  1.00  0.00     0.078 CG0
ATOM     36  G   UNL     1      98.468  99.054  69.552  1.00  0.00     0.000 G0
ENDBRANCH   2  35
ENDBRANCH   1   2
BRANCH   1  37
ATOM     37  O   UNL     1      94.324 101.821  69.504  1.00  0.00    -0.461 OA
BRANCH  37  38
ATOM     38  C   UNL     1      93.138 102.181  68.908  1.00  0.00     0.310 C 
ATOM     39  O   UNL     1      92.429 103.113  69.261  1.00  0.00    -0.252 OA
BRANCH  38  40
ATOM     40  C   UNL     1      92.850 101.249  67.755  1.00  0.00     0.158 C 
BRANCH  40  41
ATOM     41  C   UNL     1      91.987 100.077  68.147  1.00  0.00    -0.033 A 
ATOM     42  C   UNL     1      91.055  99.564  67.244  1.00  0.00     0.054 A 
ATOM     43  C   UNL     1      92.121  99.505  69.412  1.00  0.00     0.008 A 
ATOM     44  C   UNL     1      90.257  98.479  67.607  1.00  0.00     0.160 A 
ATOM     45  C   UNL     1      91.322  98.420  69.775  1.00  0.00     0.050 A 
ATOM     46  C   UNL     1      90.390  97.907  68.874  1.00  0.00     0.157 A 
BRANCH  44  47
ATOM     47  O   UNL     1      89.350  97.987  66.718  1.00  0.00    -0.493 OA
ATOM     48  C   UNL     1      88.614  98.938  65.950  1.00  0.00     0.278 C 
ENDBRANCH  44  47
BRANCH  46  49
ATOM     49  O   UNL     1      89.617  96.847  69.239  1.00  0.00    -0.504 OA
ATOM     50  H   UNL     1      90.165  96.044  69.248  1.00  0.00     0.293 HD
ENDBRANCH  46  49
ENDBRANCH  40  41
ENDBRANCH  38  40
ENDBRANCH  37  38
ENDBRANCH   1  37
TORSDOF 11
ENDMDL
MODEL 9
REMARK VINA RESULT:    -5.347     18.590     22.982
REMARK INTER + INTRA:          -9.627
REMARK INTER:                  -6.797
REMARK INTRA:                  -2.830
REMARK UNBOUND:                -0.216
REMARK SMILES C=C(C)[C@]12C[C@@H](C)[C@@]34O[C@](Cc5ccccc5)(O[C@@H]1[C@@H]3C=C(COC(=O)Cc1ccc(O)c(OC)c1)C[C@]1(O)C(=O)C(C)=C[C@@H]41)O2
REMARK SMILES IDX 23 1 22 2 21 3 20 4 9 5 8 6 10 7 6 8 18 9 46 10 19 11 5 12
REMARK SMILES IDX 7 13 4 14 45 15 38 16 44 17 40 18 42 20 41 21 43 22 39 23
REMARK SMILES IDX 11 25 12 26 13 27 17 28 14 29 16 30 15 31 2 32 3 33 1 34
REMARK SMILES IDX 37 35 24 37 25 38 26 39 27 40 28 41 36 42 29 43 33 44 30 45
REMARK SMILES IDX 31 46 34 47 35 48 32 49
REMARK H PARENT 39 24 32 50
REMARK Flexibility Score: 90.00
ROOT
ATOM      1  C   UNL     1      94.696  83.051  93.597  1.00  0.00     0.264 C 
ENDROOT
BRANCH   1   2
ATOM      2  C   UNL     1      93.734  83.384  92.480  1.00  0.00    -0.033 C 
ATOM      3  C   UNL     1      94.222  83.767  91.282  1.00  0.00    -0.015 C 
BRANCH   3   4
ATOM      4  C   UNL     1      93.478  84.224  90.039  1.00  0.00     0.078 C 
ATOM      5  O   UNL     1      93.111  82.216  88.640  1.00  0.00    -0.319 OA
ATOM      6  C   UNL     1      92.416  83.251  89.402  1.00  0.00     0.095 C 
ATOM      7  C   UNL     1      94.213  82.678  87.837  1.00  0.00     0.289 C 
ATOM      8  C   UNL     1      91.511  84.105  88.420  1.00  0.00     0.023 C 
ATOM      9  O   UNL     1      95.189  83.346  88.632  1.00  0.00    -0.320 OA
ATOM     10  O   UNL     1      93.806  83.624  86.852  1.00  0.00    -0.313 OA
ATOM     11  C   UNL     1      94.488  84.567  88.917  1.00  0.00     0.170 C 
ATOM     12  C   UNL     1      92.324  85.255  87.749  1.00  0.00     0.049 C 
ATOM     13  C   UNL     1      90.771  83.302  87.338  1.00  0.00     0.011 C 
ATOM     14  C   UNL     1      93.794  84.877  87.567  1.00  0.00     0.122 C 
BRANCH   6  15
ATOM     15  C   UNL     1      91.649  82.470  90.509  1.00  0.00     0.086 C 
ATOM     16  C   UNL     1      91.225  83.287  91.747  1.00  0.00     0.140 CG0
ATOM     17  C   UNL     1      90.403  81.712  90.146  1.00  0.00    -0.010 C 
ATOM     18  C   UNL     1      89.910  82.640  92.129  1.00  0.00     0.190 C 
ATOM     19  G   UNL     1      92.261  83.214  92.868  1.00  0.00     0.000 G0
ATOM     20  C   UNL     1      89.418  81.765  91.049  1.00  0.00    -0.008 C 
ATOM     21  O   UNL     1      89.297  82.842  93.166  1.00  0.00    -0.291 OA
ATOM     22  C   UNL     1      88.106  81.086  91.066  1.00  0.00     0.048 C 
BRANCH  16  23
ATOM     23  O   UNL     1      90.871  84.629  91.456  1.00  0.00    -0.381 OA
ATOM     24  H   UNL     1      90.123  84.879  92.024  1.00  0.00     0.212 HD
ENDBRANCH  16  23
ENDBRANCH   6  15
BRANCH   7  25
ATOM     25  C   UNL     1      94.841  81.478  87.157  1.00  0.00     0.135 C 
BRANCH  25  26
ATOM     26  C   UNL     1      95.638  81.872  85.938  1.00  0.00    -0.040 A 
ATOM     27  C   UNL     1      96.910  82.427  86.085  1.00  0.00     0.004 A 
ATOM     28  C   UNL     1      95.105  81.681  84.664  1.00  0.00     0.004 A 
ATOM     29  C   UNL     1      97.647  82.791  84.958  1.00  0.00     0.000 A 
ATOM     30  C   UNL     1      95.842  82.045  83.536  1.00  0.00     0.000 A 
ATOM     31  C   UNL     1      97.113  82.601  83.685  1.00  0.00     0.000 A 
ENDBRANCH  25  26
ENDBRANCH   7  25
BRANCH  14  32
ATOM     32  C   UNL     1      94.551  85.884  86.765  1.00  0.00    -0.046 C 
ATOM     33  C   UNL     1      94.849  87.186  87.447  1.00  0.00     0.042 C 
ATOM     34  C   UNL     1      94.942  85.639  85.505  1.00  0.00     0.010 C 
ENDBRANCH  14  32
ENDBRANCH   3   4
BRANCH   2  35
ATOM     35  C   UNL     1      92.280  83.228  92.880  1.00  0.00     0.078 CG0
ATOM     36  G   UNL     1      91.238  83.286  91.764  1.00  0.00     0.000 G0
ENDBRANCH   2  35
ENDBRANCH   1   2
BRANCH   1  37
ATOM     37  O   UNL     1      95.741  82.250  93.089  1.00  0.00    -0.461 OA
BRANCH  37  38
ATOM     38  C   UNL     1      96.172  81.226  93.900  1.00  0.00     0.310 C 
ATOM     39  O   UNL     1      97.191  81.246  94.576  1.00  0.00    -0.252 OA
BRANCH  38  40
ATOM     40  C   UNL     1      95.193  80.078  93.826  1.00  0.00     0.158 C 
BRANCH  40  41
ATOM     41  C   UNL     1      94.905  79.641  92.413  1.00  0.00    -0.033 A 
ATOM     42  C   UNL     1      95.947  79.211  91.590  1.00  0.00     0.054 A 
ATOM     43  C   UNL     1      93.598  79.666  91.927  1.00  0.00     0.008 A 
ATOM     44  C   UNL     1      95.680  78.807  90.281  1.00  0.00     0.160 A 
ATOM     45  C   UNL     1      93.331  79.261  90.619  1.00  0.00     0.050 A 
ATOM     46  C   UNL     1      94.372  78.832  89.796  1.00  0.00     0.157 A 
BRANCH  44  47
ATOM     47  O   UNL     1      96.705  78.390  89.488  1.00  0.00    -0.493 OA
ATOM     48  C   UNL     1      97.649  79.377  89.075  1.00  0.00     0.278 C 
ENDBRANCH  44  47
BRANCH  46  49
ATOM     49  O   UNL     1      94.100  78.439  88.521  1.00  0.00    -0.504 OA
ATOM     50  H   UNL     1      93.141  78.309  88.427  1.00  0.00     0.293 HD
ENDBRANCH  46  49
ENDBRANCH  40  41
ENDBRANCH  38  40
ENDBRANCH  37  38
ENDBRANCH   1  37
TORSDOF 11
ENDMDL
MODEL 10
REMARK VINA RESULT:    -5.318     39.031     43.904
REMARK INTER + INTRA:          -9.575
REMARK INTER:                  -7.507
REMARK INTRA:                  -2.069
REMARK UNBOUND:                -0.216
REMARK SMILES C=C(C)[C@]12C[C@@H](C)[C@@]34O[C@](Cc5ccccc5)(O[C@@H]1[C@@H]3C=C(COC(=O)Cc1ccc(O)c(OC)c1)C[C@]1(O)C(=O)C(C)=C[C@@H]41)O2
REMARK SMILES IDX 23 1 22 2 21 3 20 4 9 5 8 6 10 7 6 8 18 9 46 10 19 11 5 12
REMARK SMILES IDX 7 13 4 14 45 15 38 16 44 17 40 18 42 20 41 21 43 22 39 23
REMARK SMILES IDX 11 25 12 26 13 27 17 28 14 29 16 30 15 31 2 32 3 33 1 34
REMARK SMILES IDX 37 35 24 37 25 38 26 39 27 40 28 41 36 42 29 43 33 44 30 45
REMARK SMILES IDX 31 46 34 47 35 48 32 49
REMARK H PARENT 39 24 32 50
REMARK Flexibility Score: 90.00
ROOT
ATOM      1  C   UNL     1      63.823  65.619  86.669  1.00  0.00     0.264 C 
ENDROOT
BRANCH   1   2
ATOM      2  C   UNL     1      64.365  65.131  85.347  1.00  0.00    -0.033 C 
ATOM      3  C   UNL     1      63.630  65.300  84.229  1.00  0.00    -0.015 C 
BRANCH   3   4
ATOM      4  C   UNL     1      63.911  64.836  82.810  1.00  0.00     0.078 C 
ATOM      5  O   UNL     1      65.097  66.684  81.670  1.00  0.00    -0.319 OA
ATOM      6  C   UNL     1      65.248  65.303  82.121  1.00  0.00     0.095 C 
ATOM      7  C   UNL     1      63.837  66.995  81.045  1.00  0.00     0.289 C 
ATOM      8  C   UNL     1      65.493  64.367  80.866  1.00  0.00     0.023 C 
ATOM      9  O   UNL     1      62.744  66.710  81.914  1.00  0.00    -0.320 OA
ATOM     10  O   UNL     1      63.609  66.217  79.872  1.00  0.00    -0.313 OA
ATOM     11  C   UNL     1      62.758  65.275  81.874  1.00  0.00     0.170 C 
ATOM     12  C   UNL     1      64.148  63.924  80.212  1.00  0.00     0.049 C 
ATOM     13  C   UNL     1      66.423  64.942  79.785  1.00  0.00     0.011 C 
ATOM     14  C   UNL     1      63.060  64.985  80.383  1.00  0.00     0.122 C 
BRANCH   6  15
ATOM     15  C   UNL     1      66.411  65.356  83.153  1.00  0.00     0.086 C 
ATOM     16  C   UNL     1      66.486  64.184  84.154  1.00  0.00     0.140 CG0
ATOM     17  C   UNL     1      67.826  65.487  82.663  1.00  0.00    -0.010 C 
ATOM     18  C   UNL     1      67.978  64.022  84.356  1.00  0.00     0.190 C 
ATOM     19  G   UNL     1      65.749  64.491  85.457  1.00  0.00     0.000 G0
ATOM     20  C   UNL     1      68.734  64.772  83.335  1.00  0.00    -0.008 C 
ATOM     21  O   UNL     1      68.505  63.327  85.211  1.00  0.00    -0.291 OA
ATOM     22  C   UNL     1      70.203  64.720  83.188  1.00  0.00     0.048 C 
BRANCH  16  23
ATOM     23  O   UNL     1      66.081  62.938  83.611  1.00  0.00    -0.381 OA
ATOM     24  H   UNL     1      66.776  62.625  83.009  1.00  0.00     0.212 HD
ENDBRANCH  16  23
ENDBRANCH   6  15
BRANCH   7  25
ATOM     25  C   UNL     1      63.835  68.466  80.684  1.00  0.00     0.135 C 
BRANCH  25  26
ATOM     26  C   UNL     1      63.614  69.344  81.891  1.00  0.00    -0.040 A 
ATOM     27  C   UNL     1      62.697  70.394  81.831  1.00  0.00     0.004 A 
ATOM     28  C   UNL     1      64.325  69.106  83.066  1.00  0.00     0.004 A 
ATOM     29  C   UNL     1      62.492  71.206  82.947  1.00  0.00     0.000 A 
ATOM     30  C   UNL     1      64.120  69.918  84.183  1.00  0.00     0.000 A 
ATOM     31  C   UNL     1      63.204  70.968  84.122  1.00  0.00     0.000 A 
ENDBRANCH  25  26
ENDBRANCH   7  25
BRANCH  14  32
ATOM     32  C   UNL     1      61.821  64.666  79.611  1.00  0.00    -0.046 C 
ATOM     33  C   UNL     1      62.024  64.051  78.258  1.00  0.00     0.042 C 
ATOM     34  C   UNL     1      60.597  64.916  80.099  1.00  0.00     0.010 C 
ENDBRANCH  14  32
ENDBRANCH   3   4
BRANCH   2  35
ATOM     35  C   UNL     1      65.737  64.493  85.465  1.00  0.00     0.078 CG0
ATOM     36  G   UNL     1      66.480  64.188  84.166  1.00  0.00     0.000 G0
ENDBRANCH   2  35
ENDBRANCH   1   2
BRANCH   1  37
ATOM     37  O   UNL     1      64.285  66.931  86.908  1.00  0.00    -0.461 OA
BRANCH  37  38
ATOM     38  C   UNL     1      65.480  67.042  87.582  1.00  0.00     0.310 C 
ATOM     39  O   UNL     1      65.955  66.185  88.315  1.00  0.00    -0.252 OA
BRANCH  38  40
ATOM     40  C   UNL     1      66.109  68.381  87.276  1.00  0.00     0.158 C 
BRANCH  40  41
ATOM     41  C   UNL     1      67.327  68.270  86.396  1.00  0.00    -0.033 A 
ATOM     42  C   UNL     1      67.401  69.005  85.212  1.00  0.00     0.054 A 
ATOM     43  C   UNL     1      68.381  67.435  86.765  1.00  0.00     0.008 A 
ATOM     44  C   UNL     1      68.529  68.903  84.397  1.00  0.00     0.160 A 
ATOM     45  C   UNL     1      69.509  67.333  85.951  1.00  0.00     0.050 A 
ATOM     46  C   UNL     1      69.583  68.066  84.767  1.00  0.00     0.157 A 
BRANCH  44  47
ATOM     47  O   UNL     1      68.589  69.624  83.244  1.00  0.00    -0.493 OA
ATOM     48  C   UNL     1      68.594  71.045  83.367  1.00  0.00     0.278 C 
ENDBRANCH  44  47
BRANCH  46  49
ATOM     49  O   UNL     1      70.690  67.959  83.980  1.00  0.00    -0.504 OA
ATOM     50  H   UNL     1      70.570  68.510  83.188  1.00  0.00     0.293 HD
ENDBRANCH  46  49
ENDBRANCH  40  41
ENDBRANCH  38  40
ENDBRANCH  37  38
ENDBRANCH   1  37
TORSDOF 11
ENDMDL
