MODEL 1
REMARK VINA RESULT:    -7.042      0.000      0.000
REMARK INTER + INTRA:          -8.710
REMARK INTER:                  -8.277
REMARK INTRA:                  -0.433
REMARK UNBOUND:                -0.433
REMARK SMILES O=C(/C=C/C=C/c1ccc2c(c1)OCO2)N1CCCCC1
REMARK SMILES IDX 3 1 4 2 2 3 1 4 16 5 17 6 21 7 18 8 20 9 19 10 5 11 6 12
REMARK SMILES IDX 7 13 12 14 8 15 11 16 9 17 13 18 10 19 14 20 15 21
REMARK H PARENT
REMARK Flexibility Score: inf
ROOT
ATOM      1  C   UNL     1      75.809  91.774  71.210  1.00  0.00     0.071 C 
ATOM      2  C   UNL     1      74.858  90.881  71.476  1.00  0.00     0.006 C 
ENDROOT
BRANCH   1   3
ATOM      3  C   UNL     1      75.614  93.160  71.680  1.00  0.00     0.246 C 
ATOM      4  O   UNL     1      74.683  93.801  71.191  1.00  0.00    -0.270 OA
ATOM      5  N   UNL     1      76.497  93.650  72.641  1.00  0.00    -0.339 N 
ATOM      6  C   UNL     1      76.331  95.025  73.124  1.00  0.00     0.120 C 
ATOM      7  C   UNL     1      77.644  92.932  73.214  1.00  0.00     0.120 C 
ATOM      8  C   UNL     1      76.259  95.076  74.646  1.00  0.00     0.022 C 
ATOM      9  C   UNL     1      77.610  92.963  74.742  1.00  0.00     0.022 C 
ATOM     10  C   UNL     1      77.466  94.387  75.274  1.00  0.00     0.004 C 
ENDBRANCH   1   3
BRANCH   2  11
ATOM     11  C   UNL     1      74.959  89.500  71.056  1.00  0.00     0.001 C 
ATOM     12  C   UNL     1      76.053  89.000  70.460  1.00  0.00     0.008 C 
BRANCH  12  13
ATOM     13  C   UNL     1      76.206  87.608  70.006  1.00  0.00    -0.022 A 
ATOM     14  C   UNL     1      77.373  87.234  69.354  1.00  0.00     0.058 A 
ATOM     15  C   UNL     1      75.171  86.700  70.245  1.00  0.00     0.012 A 
ATOM     16  C   UNL     1      77.470  85.918  68.949  1.00  0.00     0.166 A 
ATOM     17  C   UNL     1      75.296  85.374  69.823  1.00  0.00     0.051 A 
ATOM     18  O   UNL     1      78.527  85.360  68.297  1.00  0.00    -0.454 OA
ATOM     19  C   UNL     1      76.459  85.013  69.176  1.00  0.00     0.165 A 
ATOM     20  C   UNL     1      78.067  84.002  68.140  1.00  0.00     0.468 C 
ATOM     21  O   UNL     1      76.756  83.775  68.696  1.00  0.00    -0.454 OA
ENDBRANCH  12  13
ENDBRANCH   2  11
TORSDOF 3
ENDMDL
MODEL 2
REMARK VINA RESULT:    -6.936     24.022     25.493
REMARK INTER + INTRA:          -8.586
REMARK INTER:                  -8.248
REMARK INTRA:                  -0.339
REMARK UNBOUND:                -0.433
REMARK SMILES O=C(/C=C/C=C/c1ccc2c(c1)OCO2)N1CCCCC1
REMARK SMILES IDX 3 1 4 2 2 3 1 4 16 5 17 6 21 7 18 8 20 9 19 10 5 11 6 12
REMARK SMILES IDX 7 13 12 14 8 15 11 16 9 17 13 18 10 19 14 20 15 21
REMARK H PARENT
REMARK Flexibility Score: inf
ROOT
ATOM      1  C   UNL     1      97.684  84.043  84.941  1.00  0.00     0.071 C 
ATOM      2  C   UNL     1      97.804  83.109  84.000  1.00  0.00     0.006 C 
ENDROOT
BRANCH   1   3
ATOM      3  C   UNL     1      97.731  83.615  86.354  1.00  0.00     0.246 C 
ATOM      4  O   UNL     1      98.800  83.177  86.781  1.00  0.00    -0.270 OA
ATOM      5  N   UNL     1      96.564  83.730  87.106  1.00  0.00    -0.339 N 
ATOM      6  C   UNL     1      96.578  83.308  88.510  1.00  0.00     0.120 C 
ATOM      7  C   UNL     1      95.259  84.205  86.620  1.00  0.00     0.120 C 
ATOM      8  C   UNL     1      96.059  84.409  89.428  1.00  0.00     0.022 C 
ATOM      9  C   UNL     1      94.703  85.309  87.519  1.00  0.00     0.022 C 
ATOM     10  C   UNL     1      94.679  84.886  88.984  1.00  0.00     0.004 C 
ENDBRANCH   1   3
BRANCH   2  11
ATOM     11  C   UNL     1      97.770  83.431  82.589  1.00  0.00     0.001 C 
ATOM     12  C   UNL     1      98.535  82.803  81.682  1.00  0.00     0.008 C 
BRANCH  12  13
ATOM     13  C   UNL     1      98.546  83.095  80.238  1.00  0.00    -0.022 A 
ATOM     14  C   UNL     1      99.739  82.985  79.536  1.00  0.00     0.058 A 
ATOM     15  C   UNL     1      97.355  83.476  79.615  1.00  0.00     0.012 A 
ATOM     16  C   UNL     1      99.699  83.269  78.186  1.00  0.00     0.166 A 
ATOM     17  C   UNL     1      97.344  83.758  78.247  1.00  0.00     0.051 A 
ATOM     18  O   UNL     1     100.755  83.220  77.329  1.00  0.00    -0.454 OA
ATOM     19  C   UNL     1      98.533  83.645  77.559  1.00  0.00     0.165 A 
ATOM     20  C   UNL     1     100.123  83.608  76.092  1.00  0.00     0.468 C 
ATOM     21  O   UNL     1      98.713  83.879  76.230  1.00  0.00    -0.454 OA
ENDBRANCH  12  13
ENDBRANCH   2  11
TORSDOF 3
ENDMDL
MODEL 3
REMARK VINA RESULT:    -6.849     23.783     25.882
REMARK INTER + INTRA:          -8.484
REMARK INTER:                  -8.188
REMARK INTRA:                  -0.295
REMARK UNBOUND:                -0.433
REMARK SMILES O=C(/C=C/C=C/c1ccc2c(c1)OCO2)N1CCCCC1
REMARK SMILES IDX 3 1 4 2 2 3 1 4 16 5 17 6 21 7 18 8 20 9 19 10 5 11 6 12
REMARK SMILES IDX 7 13 12 14 8 15 11 16 9 17 13 18 10 19 14 20 15 21
REMARK H PARENT
REMARK Flexibility Score: inf
ROOT
ATOM      1  C   UNL     1      98.233  83.194  80.837  1.00  0.00     0.071 C 
ATOM      2  C   UNL     1      98.463  83.214  82.149  1.00  0.00     0.006 C 
ENDROOT
BRANCH   1   3
ATOM      3  C   UNL     1      99.353  82.845  79.941  1.00  0.00     0.246 C 
ATOM      4  O   UNL     1     100.304  82.234  80.429  1.00  0.00    -0.270 OA
ATOM      5  N   UNL     1      99.261  83.235  78.605  1.00  0.00    -0.339 N 
ATOM      6  C   UNL     1     100.360  82.907  77.692  1.00  0.00     0.120 C 
ATOM      7  C   UNL     1      98.165  84.003  77.997  1.00  0.00     0.120 C 
ATOM      8  C   UNL     1      99.855  82.182  76.449  1.00  0.00     0.022 C 
ATOM      9  C   UNL     1      97.632  83.309  76.744  1.00  0.00     0.022 C 
ATOM     10  C   UNL     1      98.753  82.982  75.761  1.00  0.00     0.004 C 
ENDBRANCH   1   3
BRANCH   2  11
ATOM     11  C   UNL     1      97.430  83.545  83.107  1.00  0.00     0.001 C 
ATOM     12  C   UNL     1      97.698  83.868  84.382  1.00  0.00     0.008 C 
BRANCH  12  13
ATOM     13  C   UNL     1      96.686  84.204  85.398  1.00  0.00    -0.022 A 
ATOM     14  C   UNL     1      95.914  83.188  85.945  1.00  0.00     0.058 A 
ATOM     15  C   UNL     1      96.531  85.537  85.785  1.00  0.00     0.012 A 
ATOM     16  C   UNL     1      94.981  83.552  86.894  1.00  0.00     0.166 A 
ATOM     17  C   UNL     1      95.578  85.878  86.747  1.00  0.00     0.051 A 
ATOM     18  O   UNL     1      94.131  82.708  87.543  1.00  0.00    -0.454 OA
ATOM     19  C   UNL     1      94.816  84.861  87.284  1.00  0.00     0.165 A 
ATOM     20  C   UNL     1      93.415  83.634  88.385  1.00  0.00     0.468 C 
ATOM     21  O   UNL     1      93.845  85.002  88.226  1.00  0.00    -0.454 OA
ENDBRANCH  12  13
ENDBRANCH   2  11
TORSDOF 3
ENDMDL
MODEL 4
REMARK VINA RESULT:    -6.801      3.378      9.516
REMARK INTER + INTRA:          -8.427
REMARK INTER:                  -8.049
REMARK INTRA:                  -0.378
REMARK UNBOUND:                -0.433
REMARK SMILES O=C(/C=C/C=C/c1ccc2c(c1)OCO2)N1CCCCC1
REMARK SMILES IDX 3 1 4 2 2 3 1 4 16 5 17 6 21 7 18 8 20 9 19 10 5 11 6 12
REMARK SMILES IDX 7 13 12 14 8 15 11 16 9 17 13 18 10 19 14 20 15 21
REMARK H PARENT
REMARK Flexibility Score: inf
ROOT
ATOM      1  C   UNL     1      77.092  85.719  67.745  1.00  0.00     0.071 C 
ATOM      2  C   UNL     1      77.210  85.922  69.056  1.00  0.00     0.006 C 
ENDROOT
BRANCH   1   3
ATOM      3  C   UNL     1      77.543  84.423  67.200  1.00  0.00     0.246 C 
ATOM      4  O   UNL     1      78.666  84.032  67.518  1.00  0.00    -0.270 OA
ATOM      5  N   UNL     1      76.671  83.734  66.359  1.00  0.00    -0.339 N 
ATOM      6  C   UNL     1      77.093  82.446  65.798  1.00  0.00     0.120 C 
ATOM      7  C   UNL     1      75.343  84.189  65.921  1.00  0.00     0.120 C 
ATOM      8  C   UNL     1      76.062  81.356  66.068  1.00  0.00     0.022 C 
ATOM      9  C   UNL     1      74.280  83.120  66.172  1.00  0.00     0.022 C 
ATOM     10  C   UNL     1      74.681  81.775  65.573  1.00  0.00     0.004 C 
ENDBRANCH   1   3
BRANCH   2  11
ATOM     11  C   UNL     1      76.797  87.160  69.683  1.00  0.00     0.001 C 
ATOM     12  C   UNL     1      75.549  87.364  70.134  1.00  0.00     0.008 C 
BRANCH  12  13
ATOM     13  C   UNL     1      75.073  88.604  70.771  1.00  0.00    -0.022 A 
ATOM     14  C   UNL     1      75.812  89.769  70.617  1.00  0.00     0.058 A 
ATOM     15  C   UNL     1      73.890  88.573  71.514  1.00  0.00     0.012 A 
ATOM     16  C   UNL     1      75.326  90.904  71.232  1.00  0.00     0.166 A 
ATOM     17  C   UNL     1      73.421  89.737  72.126  1.00  0.00     0.051 A 
ATOM     18  O   UNL     1      75.902  92.137  71.201  1.00  0.00    -0.454 OA
ATOM     19  C   UNL     1      74.163  90.889  71.967  1.00  0.00     0.165 A 
ATOM     20  C   UNL     1      74.970  92.896  71.998  1.00  0.00     0.468 C 
ATOM     21  O   UNL     1      73.864  92.111  72.487  1.00  0.00    -0.454 OA
ENDBRANCH  12  13
ENDBRANCH   2  11
TORSDOF 3
ENDMDL
MODEL 5
REMARK VINA RESULT:    -6.689     23.861     25.346
REMARK INTER + INTRA:          -8.296
REMARK INTER:                  -7.920
REMARK INTRA:                  -0.376
REMARK UNBOUND:                -0.433
REMARK SMILES O=C(/C=C/C=C/c1ccc2c(c1)OCO2)N1CCCCC1
REMARK SMILES IDX 3 1 4 2 2 3 1 4 16 5 17 6 21 7 18 8 20 9 19 10 5 11 6 12
REMARK SMILES IDX 7 13 12 14 8 15 11 16 9 17 13 18 10 19 14 20 15 21
REMARK H PARENT
REMARK Flexibility Score: inf
ROOT
ATOM      1  C   UNL     1      95.598  83.407  86.186  1.00  0.00     0.071 C 
ATOM      2  C   UNL     1      96.353  84.306  85.556  1.00  0.00     0.006 C 
ENDROOT
BRANCH   1   3
ATOM      3  C   UNL     1      94.927  83.817  87.436  1.00  0.00     0.246 C 
ATOM      4  O   UNL     1      95.463  84.701  88.105  1.00  0.00    -0.270 OA
ATOM      5  N   UNL     1      93.738  83.174  87.776  1.00  0.00    -0.339 N 
ATOM      6  C   UNL     1      93.052  83.556  89.014  1.00  0.00     0.120 C 
ATOM      7  C   UNL     1      93.094  82.086  87.026  1.00  0.00     0.120 C 
ATOM      8  C   UNL     1      91.591  83.907  88.756  1.00  0.00     0.022 C 
ATOM      9  C   UNL     1      91.624  82.399  86.750  1.00  0.00     0.022 C 
ATOM     10  C   UNL     1      90.877  82.773  88.028  1.00  0.00     0.004 C 
ENDBRANCH   1   3
BRANCH   2  11
ATOM     11  C   UNL     1      97.050  83.998  84.326  1.00  0.00     0.001 C 
ATOM     12  C   UNL     1      97.544  82.779  84.056  1.00  0.00     0.008 C 
BRANCH  12  13
ATOM     13  C   UNL     1      98.267  82.414  82.826  1.00  0.00    -0.022 A 
ATOM     14  C   UNL     1      98.245  83.286  81.746  1.00  0.00     0.058 A 
ATOM     15  C   UNL     1      98.957  81.199  82.780  1.00  0.00     0.012 A 
ATOM     16  C   UNL     1      98.938  82.900  80.616  1.00  0.00     0.166 A 
ATOM     17  C   UNL     1      99.649  80.834  81.624  1.00  0.00     0.051 A 
ATOM     18  O   UNL     1      99.036  83.611  79.459  1.00  0.00    -0.454 OA
ATOM     19  C   UNL     1      99.621  81.707  80.556  1.00  0.00     0.165 A 
ATOM     20  C   UNL     1      99.857  82.731  78.665  1.00  0.00     0.468 C 
ATOM     21  O   UNL     1     100.233  81.521  79.355  1.00  0.00    -0.454 OA
ENDBRANCH  12  13
ENDBRANCH   2  11
TORSDOF 3
ENDMDL
MODEL 6
REMARK VINA RESULT:    -6.650     17.314     19.289
REMARK INTER + INTRA:          -8.250
REMARK INTER:                  -7.888
REMARK INTRA:                  -0.362
REMARK UNBOUND:                -0.433
REMARK SMILES O=C(/C=C/C=C/c1ccc2c(c1)OCO2)N1CCCCC1
REMARK SMILES IDX 3 1 4 2 2 3 1 4 16 5 17 6 21 7 18 8 20 9 19 10 5 11 6 12
REMARK SMILES IDX 7 13 12 14 8 15 11 16 9 17 13 18 10 19 14 20 15 21
REMARK H PARENT
REMARK Flexibility Score: inf
ROOT
ATOM      1  C   UNL     1      92.105  99.660  73.232  1.00  0.00     0.071 C 
ATOM      2  C   UNL     1      93.003  99.793  74.206  1.00  0.00     0.006 C 
ENDROOT
BRANCH   1   3
ATOM      3  C   UNL     1      92.190 100.578  72.079  1.00  0.00     0.246 C 
ATOM      4  O   UNL     1      93.271 101.132  71.872  1.00  0.00    -0.270 OA
ATOM      5  N   UNL     1      91.044 100.759  71.306  1.00  0.00    -0.339 N 
ATOM      6  C   UNL     1      91.097 101.668  70.158  1.00  0.00     0.120 C 
ATOM      7  C   UNL     1      89.728 100.151  71.549  1.00  0.00     0.120 C 
ATOM      8  C   UNL     1      90.605 100.988  68.885  1.00  0.00     0.022 C 
ATOM      9  C   UNL     1      89.197  99.460  70.293  1.00  0.00     0.022 C 
ATOM     10  C   UNL     1      89.214 100.394  69.086  1.00  0.00     0.004 C 
ENDBRANCH   1   3
BRANCH   2  11
ATOM     11  C   UNL     1      93.000  98.941  75.377  1.00  0.00     0.001 C 
ATOM     12  C   UNL     1      93.084  97.603  75.302  1.00  0.00     0.008 C 
BRANCH  12  13
ATOM     13  C   UNL     1      93.077  96.690  76.457  1.00  0.00    -0.022 A 
ATOM     14  C   UNL     1      94.286  96.237  76.968  1.00  0.00     0.058 A 
ATOM     15  C   UNL     1      91.853  96.305  77.009  1.00  0.00     0.012 A 
ATOM     16  C   UNL     1      94.228  95.385  78.051  1.00  0.00     0.166 A 
ATOM     17  C   UNL     1      91.824  95.440  78.106  1.00  0.00     0.051 A 
ATOM     18  O   UNL     1      95.297  94.834  78.691  1.00  0.00    -0.454 OA
ATOM     19  C   UNL     1      93.030  94.996  78.605  1.00  0.00     0.165 A 
ATOM     20  C   UNL     1      94.636  94.056  79.709  1.00  0.00     0.468 C 
ATOM     21  O   UNL     1      93.197  94.154  79.661  1.00  0.00    -0.454 OA
ENDBRANCH  12  13
ENDBRANCH   2  11
TORSDOF 3
ENDMDL
MODEL 7
REMARK VINA RESULT:    -6.633      2.697      8.755
REMARK INTER + INTRA:          -8.230
REMARK INTER:                  -7.840
REMARK INTRA:                  -0.390
REMARK UNBOUND:                -0.433
REMARK SMILES O=C(/C=C/C=C/c1ccc2c(c1)OCO2)N1CCCCC1
REMARK SMILES IDX 3 1 4 2 2 3 1 4 16 5 17 6 21 7 18 8 20 9 19 10 5 11 6 12
REMARK SMILES IDX 7 13 12 14 8 15 11 16 9 17 13 18 10 19 14 20 15 21
REMARK H PARENT
REMARK Flexibility Score: inf
ROOT
ATOM      1  C   UNL     1      75.497  87.986  70.287  1.00  0.00     0.071 C 
ATOM      2  C   UNL     1      74.588  88.662  70.988  1.00  0.00     0.006 C 
ENDROOT
BRANCH   1   3
ATOM      3  C   UNL     1      75.281  86.540  70.083  1.00  0.00     0.246 C 
ATOM      4  O   UNL     1      74.146  86.101  70.272  1.00  0.00    -0.270 OA
ATOM      5  N   UNL     1      76.376  85.768  69.695  1.00  0.00    -0.339 N 
ATOM      6  C   UNL     1      76.194  84.328  69.490  1.00  0.00     0.120 C 
ATOM      7  C   UNL     1      77.753  86.247  69.504  1.00  0.00     0.120 C 
ATOM      8  C   UNL     1      76.703  83.892  68.120  1.00  0.00     0.022 C 
ATOM      9  C   UNL     1      78.301  85.826  68.141  1.00  0.00     0.022 C 
ATOM     10  C   UNL     1      78.151  84.325  67.912  1.00  0.00     0.004 C 
ENDBRANCH   1   3
BRANCH   2  11
ATOM     11  C   UNL     1      74.712  90.082  71.241  1.00  0.00     0.001 C 
ATOM     12  C   UNL     1      75.873  90.744  71.112  1.00  0.00     0.008 C 
BRANCH  12  13
ATOM     13  C   UNL     1      76.057  92.183  71.364  1.00  0.00    -0.022 A 
ATOM     14  C   UNL     1      77.143  92.603  72.120  1.00  0.00     0.058 A 
ATOM     15  C   UNL     1      75.131  93.087  70.837  1.00  0.00     0.012 A 
ATOM     16  C   UNL     1      77.273  93.961  72.328  1.00  0.00     0.166 A 
ATOM     17  C   UNL     1      75.286  94.456  71.064  1.00  0.00     0.051 A 
ATOM     18  O   UNL     1      78.263  94.568  73.039  1.00  0.00    -0.454 OA
ATOM     19  C   UNL     1      76.369  94.863  71.815  1.00  0.00     0.165 A 
ATOM     20  C   UNL     1      77.881  95.953  72.914  1.00  0.00     0.468 C 
ATOM     21  O   UNL     1      76.680  96.148  72.139  1.00  0.00    -0.454 OA
ENDBRANCH  12  13
ENDBRANCH   2  11
TORSDOF 3
ENDMDL
MODEL 8
REMARK VINA RESULT:    -6.622     24.721     26.698
REMARK INTER + INTRA:          -8.217
REMARK INTER:                  -7.890
REMARK INTRA:                  -0.327
REMARK UNBOUND:                -0.433
REMARK SMILES O=C(/C=C/C=C/c1ccc2c(c1)OCO2)N1CCCCC1
REMARK SMILES IDX 3 1 4 2 2 3 1 4 16 5 17 6 21 7 18 8 20 9 19 10 5 11 6 12
REMARK SMILES IDX 7 13 12 14 8 15 11 16 9 17 13 18 10 19 14 20 15 21
REMARK H PARENT
REMARK Flexibility Score: inf
ROOT
ATOM      1  C   UNL     1      98.636  83.061  80.082  1.00  0.00     0.071 C 
ATOM      2  C   UNL     1      97.847  83.414  81.095  1.00  0.00     0.006 C 
ENDROOT
BRANCH   1   3
ATOM      3  C   UNL     1      98.194  83.385  78.711  1.00  0.00     0.246 C 
ATOM      4  O   UNL     1      97.041  83.793  78.567  1.00  0.00    -0.270 OA
ATOM      5  N   UNL     1      99.107  83.203  77.674  1.00  0.00    -0.339 N 
ATOM      6  C   UNL     1      98.695  83.512  76.301  1.00  0.00     0.120 C 
ATOM      7  C   UNL     1     100.474  82.677  77.801  1.00  0.00     0.120 C 
ATOM      8  C   UNL     1      99.676  84.464  75.626  1.00  0.00     0.022 C 
ATOM      9  C   UNL     1     101.489  83.603  77.132  1.00  0.00     0.022 C 
ATOM     10  C   UNL     1     101.099  83.919  75.691  1.00  0.00     0.004 C 
ENDBRANCH   1   3
BRANCH   2  11
ATOM     11  C   UNL     1      98.195  83.139  82.473  1.00  0.00     0.001 C 
ATOM     12  C   UNL     1      97.435  83.536  83.507  1.00  0.00     0.008 C 
BRANCH  12  13
ATOM     13  C   UNL     1      97.745  83.290  84.925  1.00  0.00    -0.022 A 
ATOM     14  C   UNL     1      96.783  83.572  85.886  1.00  0.00     0.058 A 
ATOM     15  C   UNL     1      99.001  82.780  85.266  1.00  0.00     0.012 A 
ATOM     16  C   UNL     1      97.120  83.325  87.201  1.00  0.00     0.166 A 
ATOM     17  C   UNL     1      99.315  82.539  86.605  1.00  0.00     0.051 A 
ATOM     18  O   UNL     1      96.321  83.535  88.282  1.00  0.00    -0.454 OA
ATOM     19  C   UNL     1      98.352  82.823  87.551  1.00  0.00     0.165 A 
ATOM     20  C   UNL     1      97.188  83.109  89.352  1.00  0.00     0.468 C 
ATOM     21  O   UNL     1      98.479  82.655  88.896  1.00  0.00    -0.454 OA
ENDBRANCH  12  13
ENDBRANCH   2  11
TORSDOF 3
ENDMDL
MODEL 9
REMARK VINA RESULT:    -6.594     24.348     26.617
REMARK INTER + INTRA:          -8.184
REMARK INTER:                  -7.800
REMARK INTRA:                  -0.383
REMARK UNBOUND:                -0.433
REMARK SMILES O=C(/C=C/C=C/c1ccc2c(c1)OCO2)N1CCCCC1
REMARK SMILES IDX 3 1 4 2 2 3 1 4 16 5 17 6 21 7 18 8 20 9 19 10 5 11 6 12
REMARK SMILES IDX 7 13 12 14 8 15 11 16 9 17 13 18 10 19 14 20 15 21
REMARK H PARENT
REMARK Flexibility Score: inf
ROOT
ATOM      1  C   UNL     1     100.050  81.853  80.657  1.00  0.00     0.071 C 
ATOM      2  C   UNL     1      98.974  81.493  81.354  1.00  0.00     0.006 C 
ENDROOT
BRANCH   1   3
ATOM      3  C   UNL     1     100.199  81.323  79.287  1.00  0.00     0.246 C 
ATOM      4  O   UNL     1     100.726  80.217  79.159  1.00  0.00    -0.270 OA
ATOM      5  N   UNL     1      99.740  82.110  78.232  1.00  0.00    -0.339 N 
ATOM      6  C   UNL     1      99.880  81.613  76.860  1.00  0.00     0.120 C 
ATOM      7  C   UNL     1      99.148  83.452  78.342  1.00  0.00     0.120 C 
ATOM      8  C   UNL     1      98.549  81.648  76.116  1.00  0.00     0.022 C 
ATOM      9  C   UNL     1      97.811  83.529  77.605  1.00  0.00     0.022 C 
ATOM     10  C   UNL     1      97.933  83.043  76.163  1.00  0.00     0.004 C 
ENDBRANCH   1   3
BRANCH   2  11
ATOM     11  C   UNL     1      98.740  81.960  82.704  1.00  0.00     0.001 C 
ATOM     12  C   UNL     1      98.055  83.083  82.975  1.00  0.00     0.008 C 
BRANCH  12  13
ATOM     13  C   UNL     1      97.796  83.608  84.327  1.00  0.00    -0.022 A 
ATOM     14  C   UNL     1      96.834  84.595  84.495  1.00  0.00     0.058 A 
ATOM     15  C   UNL     1      98.524  83.096  85.404  1.00  0.00     0.012 A 
ATOM     16  C   UNL     1      96.627  85.054  85.780  1.00  0.00     0.166 A 
ATOM     17  C   UNL     1      98.294  83.579  86.694  1.00  0.00     0.051 A 
ATOM     18  O   UNL     1      95.735  86.014  86.150  1.00  0.00    -0.454 OA
ATOM     19  C   UNL     1      97.337  84.560  86.850  1.00  0.00     0.165 A 
ATOM     20  C   UNL     1      95.964  86.068  87.572  1.00  0.00     0.468 C 
ATOM     21  O   UNL     1      96.979  85.148  88.024  1.00  0.00    -0.454 OA
ENDBRANCH  12  13
ENDBRANCH   2  11
TORSDOF 3
ENDMDL
MODEL 10
REMARK VINA RESULT:    -6.434     25.337     26.831
REMARK INTER + INTRA:          -7.996
REMARK INTER:                  -7.655
REMARK INTRA:                  -0.341
REMARK UNBOUND:                -0.433
REMARK SMILES O=C(/C=C/C=C/c1ccc2c(c1)OCO2)N1CCCCC1
REMARK SMILES IDX 3 1 4 2 2 3 1 4 16 5 17 6 21 7 18 8 20 9 19 10 5 11 6 12
REMARK SMILES IDX 7 13 12 14 8 15 11 16 9 17 13 18 10 19 14 20 15 21
REMARK H PARENT
REMARK Flexibility Score: inf
ROOT
ATOM      1  C   UNL     1      98.664  82.031  84.906  1.00  0.00     0.071 C 
ATOM      2  C   UNL     1      97.803  82.809  84.252  1.00  0.00     0.006 C 
ENDROOT
BRANCH   1   3
ATOM      3  C   UNL     1      98.377  81.710  86.318  1.00  0.00     0.246 C 
ATOM      4  O   UNL     1      97.635  80.753  86.544  1.00  0.00    -0.270 OA
ATOM      5  N   UNL     1      98.958  82.512  87.298  1.00  0.00    -0.339 N 
ATOM      6  C   UNL     1      98.687  82.221  88.709  1.00  0.00     0.120 C 
ATOM      7  C   UNL     1      99.810  83.688  87.065  1.00  0.00     0.120 C 
ATOM      8  C   UNL     1      99.979  82.084  89.508  1.00  0.00     0.022 C 
ATOM      9  C   UNL     1     101.116  83.589  87.854  1.00  0.00     0.022 C 
ATOM     10  C   UNL     1     100.863  83.315  89.333  1.00  0.00     0.004 C 
ENDBRANCH   1   3
BRANCH   2  11
ATOM     11  C   UNL     1      97.998  83.179  82.867  1.00  0.00     0.001 C 
ATOM     12  C   UNL     1      98.560  82.355  81.967  1.00  0.00     0.008 C 
BRANCH  12  13
ATOM     13  C   UNL     1      98.790  82.683  80.550  1.00  0.00    -0.022 A 
ATOM     14  C   UNL     1      97.775  83.292  79.824  1.00  0.00     0.058 A 
ATOM     15  C   UNL     1     100.025  82.372  79.974  1.00  0.00     0.012 A 
ATOM     16  C   UNL     1      98.038  83.580  78.501  1.00  0.00     0.166 A 
ATOM     17  C   UNL     1     100.263  82.675  78.632  1.00  0.00     0.051 A 
ATOM     18  O   UNL     1      97.178  84.172  77.627  1.00  0.00    -0.454 OA
ATOM     19  C   UNL     1      99.249  83.280  77.920  1.00  0.00     0.165 A 
ATOM     20  C   UNL     1      97.984  84.209  76.431  1.00  0.00     0.468 C 
ATOM     21  O   UNL     1      99.299  83.645  76.610  1.00  0.00    -0.454 OA
ENDBRANCH  12  13
ENDBRANCH   2  11
TORSDOF 3
ENDMDL
