MODEL 1
REMARK VINA RESULT:    -6.996      0.000      0.000
REMARK INTER + INTRA:         -13.526
REMARK INTER:                 -11.903
REMARK INTRA:                  -1.623
REMARK UNBOUND:                -1.623
REMARK SMILES C=C(C)[C@]12C[C@@H](C)[C@@]34O[C@](Cc5ccccc5)(O[C@@H]1[C@@H]3C=C(COC(=O)Cc1ccc(O)cc1)C[C@]1(O)C(=O)C(C)=C[C@@H]41)O2
REMARK SMILES IDX 23 1 22 2 21 3 20 4 9 5 8 6 10 7 6 8 18 10 44 11 19 12 5 13
REMARK SMILES IDX 7 14 4 15 11 16 12 17 13 18 17 19 14 20 16 21 15 22 2 23
REMARK SMILES IDX 3 24 1 25 35 26 36 27 43 28 38 29 42 30 39 32 40 33 41 34
REMARK SMILES IDX 37 35 24 37 25 38 26 39 27 40 28 41 29 42 34 43 30 44 33 45
REMARK SMILES IDX 31 46 32 47
REMARK H PARENT 37 36 32 48
REMARK Flexibility Score: 90.00
ROOT
ATOM      1  C   UNL     1      67.936  87.164  72.901  1.00  0.00     0.264 C 
ENDROOT
BRANCH   1   2
ATOM      2  C   UNL     1      67.444  85.885  72.264  1.00  0.00    -0.033 C 
ATOM      3  C   UNL     1      66.192  85.457  72.528  1.00  0.00    -0.015 C 
BRANCH   3   4
ATOM      4  C   UNL     1      65.493  84.183  72.081  1.00  0.00     0.078 C 
ATOM      5  O   UNL     1      64.257  84.728  70.009  1.00  0.00    -0.319 OA
ATOM      6  C   UNL     1      65.348  83.911  70.538  1.00  0.00     0.095 CG0
ATOM      7  C   UNL     1      63.075  84.782  70.831  1.00  0.00     0.289 C 
ATOM      8  C   UNL     1      64.991  82.379  70.353  1.00  0.00     0.023 C 
ATOM      9  G   UNL     1      66.608  84.402  69.768  1.00  0.00     0.000 G0
ATOM     10  O   UNL     1      63.373  85.268  72.137  1.00  0.00    -0.320 OA
ATOM     11  O   UNL     1      62.488  83.497  71.022  1.00  0.00    -0.313 OA
ATOM     12  C   UNL     1      64.064  84.130  72.676  1.00  0.00     0.170 C 
ATOM     13  C   UNL     1      64.123  81.846  71.534  1.00  0.00     0.049 C 
ATOM     14  C   UNL     1      64.316  82.013  69.019  1.00  0.00     0.011 C 
ATOM     15  C   UNL     1      63.237  82.943  72.124  1.00  0.00     0.122 C 
BRANCH   7  16
ATOM     16  C   UNL     1      62.072  85.700  70.160  1.00  0.00     0.135 C 
BRANCH  16  17
ATOM     17  C   UNL     1      60.666  85.458  70.650  1.00  0.00    -0.040 A 
ATOM     18  C   UNL     1      60.184  86.154  71.758  1.00  0.00     0.004 A 
ATOM     19  C   UNL     1      59.849  84.537  69.994  1.00  0.00     0.004 A 
ATOM     20  C   UNL     1      58.883  85.930  72.211  1.00  0.00     0.000 A 
ATOM     21  C   UNL     1      58.548  84.314  70.447  1.00  0.00     0.000 A 
ATOM     22  C   UNL     1      58.066  85.010  71.555  1.00  0.00     0.000 A 
ENDBRANCH  16  17
ENDBRANCH   7  16
BRANCH  15  23
ATOM     23  C   UNL     1      62.268  82.417  73.133  1.00  0.00    -0.046 C 
ATOM     24  C   UNL     1      61.035  83.241  73.359  1.00  0.00     0.042 C 
ATOM     25  C   UNL     1      62.489  81.275  73.800  1.00  0.00     0.010 C 
ENDBRANCH  15  23
ENDBRANCH   3   4
BRANCH   2  26
ATOM     26  C   UNL     1      68.476  85.232  71.364  1.00  0.00     0.078 C 
BRANCH  26  27
ATOM     27  C   UNL     1      67.999  84.088  70.471  1.00  0.00     0.140 C 
ATOM     28  C   UNL     1      66.654  84.405  69.784  1.00  0.00     0.086 CG0
ATOM     29  C   UNL     1      68.918  83.852  69.291  1.00  0.00     0.190 C 
ATOM     30  C   UNL     1      66.883  83.989  68.358  1.00  0.00    -0.010 C 
ATOM     31  G   UNL     1      65.375  83.919  70.525  1.00  0.00     0.000 G0
ATOM     32  O   UNL     1      70.134  83.747  69.352  1.00  0.00    -0.291 OA
ATOM     33  C   UNL     1      68.149  83.699  68.042  1.00  0.00    -0.008 C 
ATOM     34  C   UNL     1      68.747  83.340  66.740  1.00  0.00     0.048 C 
BRANCH  27  35
ATOM     35  O   UNL     1      68.011  82.851  71.163  1.00  0.00    -0.381 OA
ATOM     36  H   UNL     1      68.771  82.846  71.769  1.00  0.00     0.212 HD
ENDBRANCH  27  35
ENDBRANCH  26  27
ENDBRANCH   2  26
ENDBRANCH   1   2
BRANCH   1  37
ATOM     37  O   UNL     1      66.884  87.756  73.633  1.00  0.00    -0.461 OA
BRANCH  37  38
ATOM     38  C   UNL     1      67.100  87.920  74.982  1.00  0.00     0.310 C 
ATOM     39  O   UNL     1      67.178  88.998  75.555  1.00  0.00    -0.252 OA
BRANCH  38  40
ATOM     40  C   UNL     1      67.225  86.567  75.641  1.00  0.00     0.158 C 
BRANCH  40  41
ATOM     41  C   UNL     1      65.893  85.902  75.875  1.00  0.00    -0.037 A 
ATOM     42  C   UNL     1      64.715  86.642  75.764  1.00  0.00     0.008 A 
ATOM     43  C   UNL     1      65.837  84.548  76.202  1.00  0.00     0.008 A 
ATOM     44  C   UNL     1      63.482  86.026  75.981  1.00  0.00     0.046 A 
ATOM     45  C   UNL     1      64.604  83.932  76.418  1.00  0.00     0.046 A 
ATOM     46  C   UNL     1      63.427  84.671  76.309  1.00  0.00     0.115 A 
BRANCH  46  47
ATOM     47  O   UNL     1      62.224  84.071  76.521  1.00  0.00    -0.508 OA
ATOM     48  H   UNL     1      62.348  83.106  76.519  1.00  0.00     0.293 HD
ENDBRANCH  46  47
ENDBRANCH  40  41
ENDBRANCH  38  40
ENDBRANCH  37  38
ENDBRANCH   1  37
TORSDOF 10
ENDMDL
MODEL 2
REMARK VINA RESULT:    -6.713      4.018      6.589
REMARK INTER + INTRA:         -13.046
REMARK INTER:                 -12.872
REMARK INTRA:                  -0.173
REMARK UNBOUND:                -1.623
REMARK SMILES C=C(C)[C@]12C[C@@H](C)[C@@]34O[C@](Cc5ccccc5)(O[C@@H]1[C@@H]3C=C(COC(=O)Cc1ccc(O)cc1)C[C@]1(O)C(=O)C(C)=C[C@@H]41)O2
REMARK SMILES IDX 23 1 22 2 21 3 20 4 9 5 8 6 10 7 6 8 18 10 44 11 19 12 5 13
REMARK SMILES IDX 7 14 4 15 11 16 12 17 13 18 17 19 14 20 16 21 15 22 2 23
REMARK SMILES IDX 3 24 1 25 35 26 36 27 43 28 38 29 42 30 39 32 40 33 41 34
REMARK SMILES IDX 37 35 24 37 25 38 26 39 27 40 28 41 29 42 34 43 30 44 33 45
REMARK SMILES IDX 31 46 32 47
REMARK H PARENT 37 36 32 48
REMARK Flexibility Score: 90.00
ROOT
ATOM      1  C   UNL     1      64.544  84.578  80.104  1.00  0.00     0.264 C 
ENDROOT
BRANCH   1   2
ATOM      2  C   UNL     1      64.860  84.893  78.660  1.00  0.00    -0.033 C 
ATOM      3  C   UNL     1      64.258  84.183  77.683  1.00  0.00    -0.015 C 
BRANCH   3   4
ATOM      4  C   UNL     1      64.457  84.250  76.178  1.00  0.00     0.078 C 
ATOM      5  O   UNL     1      62.788  85.850  75.301  1.00  0.00    -0.319 OA
ATOM      6  C   UNL     1      64.224  85.627  75.453  1.00  0.00     0.095 CG0
ATOM      7  C   UNL     1      62.026  84.699  74.890  1.00  0.00     0.289 C 
ATOM      8  C   UNL     1      64.894  85.533  74.020  1.00  0.00     0.023 C 
ATOM      9  G   UNL     1      64.709  86.809  76.341  1.00  0.00     0.000 G0
ATOM     10  O   UNL     1      62.192  83.616  75.801  1.00  0.00    -0.320 OA
ATOM     11  O   UNL     1      62.439  84.201  73.619  1.00  0.00    -0.313 OA
ATOM     12  C   UNL     1      63.535  83.221  75.478  1.00  0.00     0.170 C 
ATOM     13  C   UNL     1      64.809  84.088  73.442  1.00  0.00     0.049 C 
ATOM     14  C   UNL     1      64.365  86.532  72.976  1.00  0.00     0.011 C 
ATOM     15  C   UNL     1      63.562  83.353  73.936  1.00  0.00     0.122 C 
BRANCH   7  16
ATOM     16  C   UNL     1      60.564  85.095  74.825  1.00  0.00     0.135 C 
BRANCH  16  17
ATOM     17  C   UNL     1      60.151  85.510  73.435  1.00  0.00    -0.040 A 
ATOM     18  C   UNL     1      59.685  84.555  72.532  1.00  0.00     0.004 A 
ATOM     19  C   UNL     1      60.234  86.848  73.054  1.00  0.00     0.004 A 
ATOM     20  C   UNL     1      59.302  84.939  71.246  1.00  0.00     0.000 A 
ATOM     21  C   UNL     1      59.851  87.232  71.768  1.00  0.00     0.000 A 
ATOM     22  C   UNL     1      59.386  86.278  70.865  1.00  0.00     0.000 A 
ENDBRANCH  16  17
ENDBRANCH   7  16
BRANCH  15  23
ATOM     23  C   UNL     1      63.365  82.037  73.256  1.00  0.00    -0.046 C 
ATOM     24  C   UNL     1      64.248  81.763  72.075  1.00  0.00     0.042 C 
ATOM     25  C   UNL     1      62.450  81.151  73.678  1.00  0.00     0.010 C 
ENDBRANCH  15  23
ENDBRANCH   3   4
BRANCH   2  26
ATOM     26  C   UNL     1      65.855  86.027  78.501  1.00  0.00     0.078 C 
BRANCH  26  27
ATOM     27  C   UNL     1      66.068  86.577  77.092  1.00  0.00     0.140 C 
ATOM     28  C   UNL     1      64.736  86.807  76.348  1.00  0.00     0.086 CG0
ATOM     29  C   UNL     1      66.681  87.961  77.096  1.00  0.00     0.190 C 
ATOM     30  C   UNL     1      64.905  88.172  75.742  1.00  0.00    -0.010 C 
ATOM     31  G   UNL     1      64.238  85.632  75.456  1.00  0.00     0.000 G0
ATOM     32  O   UNL     1      67.663  88.299  77.741  1.00  0.00    -0.291 OA
ATOM     33  C   UNL     1      65.972  88.857  76.163  1.00  0.00    -0.008 C 
ATOM     34  C   UNL     1      66.401  90.236  75.851  1.00  0.00     0.048 C 
BRANCH  27  35
ATOM     35  O   UNL     1      67.002  85.796  76.366  1.00  0.00    -0.381 OA
ATOM     36  H   UNL     1      67.613  85.381  76.999  1.00  0.00     0.212 HD
ENDBRANCH  27  35
ENDBRANCH  26  27
ENDBRANCH   2  26
ENDBRANCH   1   2
BRANCH   1  37
ATOM     37  O   UNL     1      65.279  83.442  80.505  1.00  0.00    -0.461 OA
BRANCH  37  38
ATOM     38  C   UNL     1      65.633  83.385  81.833  1.00  0.00     0.310 C 
ATOM     39  O   UNL     1      65.234  84.151  82.700  1.00  0.00    -0.252 OA
BRANCH  38  40
ATOM     40  C   UNL     1      66.587  82.236  82.052  1.00  0.00     0.158 C 
BRANCH  40  41
ATOM     41  C   UNL     1      65.888  80.907  82.177  1.00  0.00    -0.037 A 
ATOM     42  C   UNL     1      64.551  80.857  82.573  1.00  0.00     0.008 A 
ATOM     43  C   UNL     1      66.576  79.727  81.897  1.00  0.00     0.008 A 
ATOM     44  C   UNL     1      63.903  79.627  82.690  1.00  0.00     0.046 A 
ATOM     45  C   UNL     1      65.928  78.496  82.013  1.00  0.00     0.046 A 
ATOM     46  C   UNL     1      64.592  78.446  82.409  1.00  0.00     0.115 A 
BRANCH  46  47
ATOM     47  O   UNL     1      63.960  77.247  82.523  1.00  0.00    -0.508 OA
ATOM     48  H   UNL     1      63.504  77.050  81.687  1.00  0.00     0.293 HD
ENDBRANCH  46  47
ENDBRANCH  40  41
ENDBRANCH  38  40
ENDBRANCH  37  38
ENDBRANCH   1  37
TORSDOF 10
ENDMDL
MODEL 3
REMARK VINA RESULT:    -6.625     32.248     35.956
REMARK INTER + INTRA:         -12.896
REMARK INTER:                 -12.067
REMARK INTRA:                  -0.829
REMARK UNBOUND:                -1.623
REMARK SMILES C=C(C)[C@]12C[C@@H](C)[C@@]34O[C@](Cc5ccccc5)(O[C@@H]1[C@@H]3C=C(COC(=O)Cc1ccc(O)cc1)C[C@]1(O)C(=O)C(C)=C[C@@H]41)O2
REMARK SMILES IDX 23 1 22 2 21 3 20 4 9 5 8 6 10 7 6 8 18 10 44 11 19 12 5 13
REMARK SMILES IDX 7 14 4 15 11 16 12 17 13 18 17 19 14 20 16 21 15 22 2 23
REMARK SMILES IDX 3 24 1 25 35 26 36 27 43 28 38 29 42 30 39 32 40 33 41 34
REMARK SMILES IDX 37 35 24 37 25 38 26 39 27 40 28 41 29 42 34 43 30 44 33 45
REMARK SMILES IDX 31 46 32 47
REMARK H PARENT 37 36 32 48
REMARK Flexibility Score: 90.00
ROOT
ATOM      1  C   UNL     1      98.932  80.915  82.837  1.00  0.00     0.264 C 
ENDROOT
BRANCH   1   2
ATOM      2  C   UNL     1      98.905  81.412  84.264  1.00  0.00    -0.033 C 
ATOM      3  C   UNL     1      97.798  82.029  84.726  1.00  0.00    -0.015 C 
BRANCH   3   4
ATOM      4  C   UNL     1      97.548  82.678  86.077  1.00  0.00     0.078 C 
ATOM      5  O   UNL     1      96.524  80.955  87.526  1.00  0.00    -0.319 OA
ATOM      6  C   UNL     1      97.708  81.798  87.371  1.00  0.00     0.095 CG0
ATOM      7  C   UNL     1      95.266  81.608  87.268  1.00  0.00     0.289 C 
ATOM      8  C   UNL     1      97.816  82.781  88.609  1.00  0.00     0.023 C 
ATOM      9  G   UNL     1      98.884  80.791  87.213  1.00  0.00     0.000 G0
ATOM     10  O   UNL     1      95.227  82.156  85.954  1.00  0.00    -0.320 OA
ATOM     11  O   UNL     1      95.033  82.703  88.150  1.00  0.00    -0.313 OA
ATOM     12  C   UNL     1      96.118  83.270  86.120  1.00  0.00     0.170 C 
ATOM     13  C   UNL     1      96.966  84.070  88.392  1.00  0.00     0.049 C 
ATOM     14  C   UNL     1      97.469  82.165  89.975  1.00  0.00     0.011 C 
ATOM     15  C   UNL     1      95.736  83.797  87.525  1.00  0.00     0.122 C 
BRANCH   7  16
ATOM     16  C   UNL     1      94.159  80.585  87.430  1.00  0.00     0.135 C 
BRANCH  16  17
ATOM     17  C   UNL     1      92.815  81.235  87.643  1.00  0.00    -0.040 A 
ATOM     18  C   UNL     1      92.305  81.379  88.933  1.00  0.00     0.004 A 
ATOM     19  C   UNL     1      92.081  81.691  86.548  1.00  0.00     0.004 A 
ATOM     20  C   UNL     1      91.062  81.981  89.129  1.00  0.00     0.000 A 
ATOM     21  C   UNL     1      90.838  82.293  86.744  1.00  0.00     0.000 A 
ATOM     22  C   UNL     1      90.328  82.437  88.034  1.00  0.00     0.000 A 
ENDBRANCH  16  17
ENDBRANCH   7  16
BRANCH  15  23
ATOM     23  C   UNL     1      94.813  84.970  87.453  1.00  0.00    -0.046 C 
ATOM     24  C   UNL     1      95.218  86.076  86.525  1.00  0.00     0.042 C 
ATOM     25  C   UNL     1      93.686  85.031  88.178  1.00  0.00     0.010 C 
ENDBRANCH  15  23
ENDBRANCH   3   4
BRANCH   2  26
ATOM     26  C   UNL     1     100.190  81.126  85.018  1.00  0.00     0.078 C 
BRANCH  26  27
ATOM     27  C   UNL     1     100.187  81.383  86.524  1.00  0.00     0.140 C 
ATOM     28  C   UNL     1      98.927  80.815  87.210  1.00  0.00     0.086 CG0
ATOM     29  C   UNL     1     101.304  80.653  87.239  1.00  0.00     0.190 C 
ATOM     30  C   UNL     1      99.475  80.112  88.421  1.00  0.00    -0.010 C 
ATOM     31  G   UNL     1      97.733  81.799  87.374  1.00  0.00     0.000 G0
ATOM     32  O   UNL     1     102.478  80.651  86.901  1.00  0.00    -0.291 OA
ATOM     33  C   UNL     1     100.805  79.980  88.453  1.00  0.00    -0.008 C 
ATOM     34  C   UNL     1     101.668  79.285  89.430  1.00  0.00     0.048 C 
BRANCH  27  35
ATOM     35  O   UNL     1     100.432  82.748  86.818  1.00  0.00    -0.381 OA
ATOM     36  H   UNL     1      99.634  83.258  86.595  1.00  0.00     0.212 HD
ENDBRANCH  27  35
ENDBRANCH  26  27
ENDBRANCH   2  26
ENDBRANCH   1   2
BRANCH   1  37
ATOM     37  O   UNL     1     100.273  80.758  82.423  1.00  0.00    -0.461 OA
BRANCH  37  38
ATOM     38  C   UNL     1     100.514  80.903  81.076  1.00  0.00     0.310 C 
ATOM     39  O   UNL     1     100.621  79.981  80.279  1.00  0.00    -0.252 OA
BRANCH  38  40
ATOM     40  C   UNL     1     100.624  82.370  80.738  1.00  0.00     0.158 C 
BRANCH  40  41
ATOM     41  C   UNL     1      99.651  82.803  79.673  1.00  0.00    -0.037 A 
ATOM     42  C   UNL     1      98.348  83.161  80.023  1.00  0.00     0.008 A 
ATOM     43  C   UNL     1     100.050  82.847  78.338  1.00  0.00     0.008 A 
ATOM     44  C   UNL     1      97.446  83.561  79.037  1.00  0.00     0.046 A 
ATOM     45  C   UNL     1      99.149  83.248  77.352  1.00  0.00     0.046 A 
ATOM     46  C   UNL     1      97.847  83.605  77.701  1.00  0.00     0.115 A 
BRANCH  46  47
ATOM     47  O   UNL     1      96.966  83.995  76.740  1.00  0.00    -0.508 OA
ATOM     48  H   UNL     1      97.106  83.451  75.944  1.00  0.00     0.293 HD
ENDBRANCH  46  47
ENDBRANCH  40  41
ENDBRANCH  38  40
ENDBRANCH  37  38
ENDBRANCH   1  37
TORSDOF 10
ENDMDL
MODEL 4
REMARK VINA RESULT:    -6.460     28.547     32.158
REMARK INTER + INTRA:         -12.615
REMARK INTER:                 -12.544
REMARK INTRA:                  -0.070
REMARK UNBOUND:                -1.623
REMARK SMILES C=C(C)[C@]12C[C@@H](C)[C@@]34O[C@](Cc5ccccc5)(O[C@@H]1[C@@H]3C=C(COC(=O)Cc1ccc(O)cc1)C[C@]1(O)C(=O)C(C)=C[C@@H]41)O2
REMARK SMILES IDX 23 1 22 2 21 3 20 4 9 5 8 6 10 7 6 8 18 10 44 11 19 12 5 13
REMARK SMILES IDX 7 14 4 15 11 16 12 17 13 18 17 19 14 20 16 21 15 22 2 23
REMARK SMILES IDX 3 24 1 25 35 26 36 27 43 28 38 29 42 30 39 32 40 33 41 34
REMARK SMILES IDX 37 35 24 37 25 38 26 39 27 40 28 41 29 42 34 43 30 44 33 45
REMARK SMILES IDX 31 46 32 47
REMARK H PARENT 37 36 32 48
REMARK Flexibility Score: 90.00
ROOT
ATOM      1  C   UNL     1      92.856  99.069  75.030  1.00  0.00     0.264 C 
ENDROOT
BRANCH   1   2
ATOM      2  C   UNL     1      92.742 100.419  74.360  1.00  0.00    -0.033 C 
ATOM      3  C   UNL     1      92.717 100.486  73.013  1.00  0.00    -0.015 C 
BRANCH   3   4
ATOM      4  C   UNL     1      92.685 101.707  72.108  1.00  0.00     0.078 C 
ATOM      5  O   UNL     1      90.305 102.212  71.663  1.00  0.00    -0.319 OA
ATOM      6  C   UNL     1      91.515 102.742  72.289  1.00  0.00     0.095 CG0
ATOM      7  C   UNL     1      90.500 101.585  70.380  1.00  0.00     0.289 C 
ATOM      8  C   UNL     1      91.940 104.080  71.555  1.00  0.00     0.023 C 
ATOM      9  G   UNL     1      91.139 102.895  73.791  1.00  0.00     0.000 G0
ATOM     10  O   UNL     1      91.438 100.516  70.464  1.00  0.00    -0.320 OA
ATOM     11  O   UNL     1      91.029 102.487  69.411  1.00  0.00    -0.313 OA
ATOM     12  C   UNL     1      92.655 101.262  70.625  1.00  0.00     0.170 C 
ATOM     13  C   UNL     1      92.813 103.789  70.296  1.00  0.00     0.049 C 
ATOM     14  C   UNL     1      90.785 105.019  71.168  1.00  0.00     0.011 C 
ATOM     15  C   UNL     1      92.451 102.450  69.653  1.00  0.00     0.122 C 
BRANCH   7  16
ATOM     16  C   UNL     1      89.162 101.058  69.902  1.00  0.00     0.135 C 
BRANCH  16  17
ATOM     17  C   UNL     1      89.216  99.585  69.581  1.00  0.00    -0.040 A 
ATOM     18  C   UNL     1      89.118  99.155  68.258  1.00  0.00     0.004 A 
ATOM     19  C   UNL     1      89.364  98.654  70.608  1.00  0.00     0.004 A 
ATOM     20  C   UNL     1      89.168  97.792  67.962  1.00  0.00     0.000 A 
ATOM     21  C   UNL     1      89.414  97.291  70.312  1.00  0.00     0.000 A 
ATOM     22  C   UNL     1      89.316  96.861  68.989  1.00  0.00     0.000 A 
ENDBRANCH  16  17
ENDBRANCH   7  16
BRANCH  15  23
ATOM     23  C   UNL     1      93.144 102.233  68.348  1.00  0.00    -0.046 C 
ATOM     24  C   UNL     1      94.518 101.634  68.419  1.00  0.00     0.042 C 
ATOM     25  C   UNL     1      92.573 102.556  67.178  1.00  0.00     0.010 C 
ENDBRANCH  15  23
ENDBRANCH   3   4
BRANCH   2  26
ATOM     26  C   UNL     1      92.659 101.569  75.346  1.00  0.00     0.078 C 
BRANCH  26  27
ATOM     27  C   UNL     1      92.335 102.951  74.782  1.00  0.00     0.140 C 
ATOM     28  C   UNL     1      91.155 102.913  73.788  1.00  0.00     0.086 CG0
ATOM     29  C   UNL     1      91.835 103.908  75.843  1.00  0.00     0.190 C 
ATOM     30  C   UNL     1      90.301 104.074  74.215  1.00  0.00    -0.010 C 
ATOM     31  G   UNL     1      91.529 102.752  72.286  1.00  0.00     0.000 G0
ATOM     32  O   UNL     1      92.366 104.103  76.927  1.00  0.00    -0.291 OA
ATOM     33  C   UNL     1      90.639 104.636  75.379  1.00  0.00    -0.008 C 
ATOM     34  C   UNL     1      89.987 105.725  76.135  1.00  0.00     0.048 C 
BRANCH  27  35
ATOM     35  O   UNL     1      93.494 103.587  74.271  1.00  0.00    -0.381 OA
ATOM     36  H   UNL     1      94.276 103.115  74.605  1.00  0.00     0.212 HD
ENDBRANCH  27  35
ENDBRANCH  26  27
ENDBRANCH   2  26
ENDBRANCH   1   2
BRANCH   1  37
ATOM     37  O   UNL     1      94.166  98.572  74.857  1.00  0.00    -0.461 OA
BRANCH  37  38
ATOM     38  C   UNL     1      94.850  98.250  76.006  1.00  0.00     0.310 C 
ATOM     39  O   UNL     1      95.132  99.036  76.900  1.00  0.00    -0.252 OA
BRANCH  38  40
ATOM     40  C   UNL     1      95.198  96.780  75.990  1.00  0.00     0.158 C 
BRANCH  40  41
ATOM     41  C   UNL     1      94.341  95.964  76.922  1.00  0.00    -0.037 A 
ATOM     42  C   UNL     1      92.950  96.021  76.822  1.00  0.00     0.008 A 
ATOM     43  C   UNL     1      94.936  95.150  77.885  1.00  0.00     0.008 A 
ATOM     44  C   UNL     1      92.156  95.266  77.685  1.00  0.00     0.046 A 
ATOM     45  C   UNL     1      94.142  94.394  78.749  1.00  0.00     0.046 A 
ATOM     46  C   UNL     1      92.753  94.452  78.649  1.00  0.00     0.115 A 
BRANCH  46  47
ATOM     47  O   UNL     1      91.978  93.716  79.491  1.00  0.00    -0.508 OA
ATOM     48  H   UNL     1      91.600  94.304  80.167  1.00  0.00     0.293 HD
ENDBRANCH  46  47
ENDBRANCH  40  41
ENDBRANCH  38  40
ENDBRANCH  37  38
ENDBRANCH   1  37
TORSDOF 10
ENDMDL
MODEL 5
REMARK VINA RESULT:    -6.431      2.693      7.687
REMARK INTER + INTRA:         -12.566
REMARK INTER:                 -11.025
REMARK INTRA:                  -1.542
REMARK UNBOUND:                -1.623
REMARK SMILES C=C(C)[C@]12C[C@@H](C)[C@@]34O[C@](Cc5ccccc5)(O[C@@H]1[C@@H]3C=C(COC(=O)Cc1ccc(O)cc1)C[C@]1(O)C(=O)C(C)=C[C@@H]41)O2
REMARK SMILES IDX 23 1 22 2 21 3 20 4 9 5 8 6 10 7 6 8 18 10 44 11 19 12 5 13
REMARK SMILES IDX 7 14 4 15 11 16 12 17 13 18 17 19 14 20 16 21 15 22 2 23
REMARK SMILES IDX 3 24 1 25 35 26 36 27 43 28 38 29 42 30 39 32 40 33 41 34
REMARK SMILES IDX 37 35 24 37 25 38 26 39 27 40 28 41 29 42 34 43 30 44 33 45
REMARK SMILES IDX 31 46 32 47
REMARK H PARENT 37 36 32 48
REMARK Flexibility Score: 90.00
ROOT
ATOM      1  C   UNL     1      61.958  83.214  75.328  1.00  0.00     0.264 C 
ENDROOT
BRANCH   1   2
ATOM      2  C   UNL     1      61.785  84.600  74.751  1.00  0.00    -0.033 C 
ATOM      3  C   UNL     1      62.290  85.659  75.417  1.00  0.00    -0.015 C 
BRANCH   3   4
ATOM      4  C   UNL     1      62.186  87.141  75.095  1.00  0.00     0.078 C 
ATOM      5  O   UNL     1      64.192  87.733  73.774  1.00  0.00    -0.319 OA
ATOM      6  C   UNL     1      62.734  87.645  73.709  1.00  0.00     0.095 CG0
ATOM      7  C   UNL     1      64.721  88.297  74.990  1.00  0.00     0.289 C 
ATOM      8  C   UNL     1      62.134  89.089  73.453  1.00  0.00     0.023 C 
ATOM      9  G   UNL     1      62.458  86.598  72.591  1.00  0.00     0.000 G0
ATOM     10  O   UNL     1      64.288  87.563  76.132  1.00  0.00    -0.320 OA
ATOM     11  O   UNL     1      64.280  89.636  75.203  1.00  0.00    -0.313 OA
ATOM     12  C   UNL     1      62.911  87.968  76.184  1.00  0.00     0.170 C 
ATOM     13  C   UNL     1      61.950  89.877  74.786  1.00  0.00     0.049 C 
ATOM     14  C   UNL     1      62.911  89.959  72.450  1.00  0.00     0.011 C 
ATOM     15  C   UNL     1      62.991  89.473  75.830  1.00  0.00     0.122 C 
BRANCH   7  16
ATOM     16  C   UNL     1      66.234  88.271  74.906  1.00  0.00     0.135 C 
BRANCH  16  17
ATOM     17  C   UNL     1      66.812  87.008  75.495  1.00  0.00    -0.040 A 
ATOM     18  C   UNL     1      66.928  85.862  74.709  1.00  0.00     0.004 A 
ATOM     19  C   UNL     1      67.231  86.989  76.824  1.00  0.00     0.004 A 
ATOM     20  C   UNL     1      67.464  84.694  75.254  1.00  0.00     0.000 A 
ATOM     21  C   UNL     1      67.767  85.821  77.369  1.00  0.00     0.000 A 
ATOM     22  C   UNL     1      67.883  84.675  76.584  1.00  0.00     0.000 A 
ENDBRANCH  16  17
ENDBRANCH   7  16
BRANCH  15  23
ATOM     23  C   UNL     1      62.949  90.340  77.047  1.00  0.00    -0.046 C 
ATOM     24  C   UNL     1      64.236  91.009  77.428  1.00  0.00     0.042 C 
ATOM     25  C   UNL     1      61.824  90.509  77.758  1.00  0.00     0.010 C 
ENDBRANCH  15  23
ENDBRANCH   3   4
BRANCH   2  26
ATOM     26  C   UNL     1      61.036  84.607  73.432  1.00  0.00     0.078 C 
BRANCH  26  27
ATOM     27  C   UNL     1      61.049  85.906  72.628  1.00  0.00     0.140 C 
ATOM     28  C   UNL     1      62.442  86.569  72.614  1.00  0.00     0.086 CG0
ATOM     29  C   UNL     1      60.781  85.680  71.156  1.00  0.00     0.190 C 
ATOM     30  C   UNL     1      62.639  86.937  71.169  1.00  0.00    -0.010 C 
ATOM     31  G   UNL     1      62.705  87.636  73.716  1.00  0.00     0.000 G0
ATOM     32  O   UNL     1      59.868  85.010  70.697  1.00  0.00    -0.291 OA
ATOM     33  C   UNL     1      61.740  86.429  70.322  1.00  0.00    -0.008 C 
ATOM     34  C   UNL     1      61.668  86.512  68.848  1.00  0.00     0.048 C 
BRANCH  27  35
ATOM     35  O   UNL     1      60.005  86.776  73.033  1.00  0.00    -0.381 OA
ATOM     36  H   UNL     1      59.654  87.221  72.243  1.00  0.00     0.212 HD
ENDBRANCH  27  35
ENDBRANCH  26  27
ENDBRANCH   2  26
ENDBRANCH   1   2
BRANCH   1  37
ATOM     37  O   UNL     1      63.049  82.578  74.696  1.00  0.00    -0.461 OA
BRANCH  37  38
ATOM     38  C   UNL     1      62.741  81.520  73.872  1.00  0.00     0.310 C 
ATOM     39  O   UNL     1      61.639  80.997  73.782  1.00  0.00    -0.252 OA
BRANCH  38  40
ATOM     40  C   UNL     1      63.973  81.106  73.102  1.00  0.00     0.158 C 
BRANCH  40  41
ATOM     41  C   UNL     1      64.105  81.817  71.780  1.00  0.00    -0.037 A 
ATOM     42  C   UNL     1      65.337  81.853  71.127  1.00  0.00     0.008 A 
ATOM     43  C   UNL     1      62.995  82.439  71.208  1.00  0.00     0.008 A 
ATOM     44  C   UNL     1      65.460  82.512  69.904  1.00  0.00     0.046 A 
ATOM     45  C   UNL     1      63.117  83.097  69.984  1.00  0.00     0.046 A 
ATOM     46  C   UNL     1      64.349  83.134  69.332  1.00  0.00     0.115 A 
BRANCH  46  47
ATOM     47  O   UNL     1      64.469  83.776  68.139  1.00  0.00    -0.508 OA
ATOM     48  H   UNL     1      63.582  84.010  67.815  1.00  0.00     0.293 HD
ENDBRANCH  46  47
ENDBRANCH  40  41
ENDBRANCH  38  40
ENDBRANCH  37  38
ENDBRANCH   1  37
TORSDOF 10
ENDMDL
MODEL 6
REMARK VINA RESULT:    -6.424      2.658      5.670
REMARK INTER + INTRA:         -12.555
REMARK INTER:                 -10.785
REMARK INTRA:                  -1.770
REMARK UNBOUND:                -1.623
REMARK SMILES C=C(C)[C@]12C[C@@H](C)[C@@]34O[C@](Cc5ccccc5)(O[C@@H]1[C@@H]3C=C(COC(=O)Cc1ccc(O)cc1)C[C@]1(O)C(=O)C(C)=C[C@@H]41)O2
REMARK SMILES IDX 23 1 22 2 21 3 20 4 9 5 8 6 10 7 6 8 18 10 44 11 19 12 5 13
REMARK SMILES IDX 7 14 4 15 11 16 12 17 13 18 17 19 14 20 16 21 15 22 2 23
REMARK SMILES IDX 3 24 1 25 35 26 36 27 43 28 38 29 42 30 39 32 40 33 41 34
REMARK SMILES IDX 37 35 24 37 25 38 26 39 27 40 28 41 29 42 34 43 30 44 33 45
REMARK SMILES IDX 31 46 32 47
REMARK H PARENT 37 36 32 48
REMARK Flexibility Score: 90.00
ROOT
ATOM      1  C   UNL     1      63.048  89.851  74.946  1.00  0.00     0.264 C 
ENDROOT
BRANCH   1   2
ATOM      2  C   UNL     1      62.585  88.416  74.842  1.00  0.00    -0.033 C 
ATOM      3  C   UNL     1      61.952  88.007  73.723  1.00  0.00    -0.015 C 
BRANCH   3   4
ATOM      4  C   UNL     1      61.330  86.657  73.405  1.00  0.00     0.078 C 
ATOM      5  O   UNL     1      63.057  85.324  72.240  1.00  0.00    -0.319 OA
ATOM      6  C   UNL     1      62.247  85.380  73.456  1.00  0.00     0.095 CG0
ATOM      7  C   UNL     1      62.359  85.644  71.021  1.00  0.00     0.289 C 
ATOM      8  C   UNL     1      61.299  84.111  73.512  1.00  0.00     0.023 C 
ATOM      9  G   UNL     1      63.286  85.490  74.609  1.00  0.00     0.000 G0
ATOM     10  O   UNL     1      61.777  86.943  71.083  1.00  0.00    -0.320 OA
ATOM     11  O   UNL     1      61.279  84.750  70.763  1.00  0.00    -0.313 OA
ATOM     12  C   UNL     1      60.695  86.690  71.993  1.00  0.00     0.170 C 
ATOM     13  C   UNL     1      59.980  84.347  72.715  1.00  0.00     0.049 C 
ATOM     14  C   UNL     1      61.939  82.787  73.059  1.00  0.00     0.011 C 
ATOM     15  C   UNL     1      60.192  85.299  71.537  1.00  0.00     0.122 C 
BRANCH   7  16
ATOM     16  C   UNL     1      63.351  85.581  69.876  1.00  0.00     0.135 C 
BRANCH  16  17
ATOM     17  C   UNL     1      63.577  84.167  69.400  1.00  0.00    -0.040 A 
ATOM     18  C   UNL     1      62.662  83.568  68.536  1.00  0.00     0.004 A 
ATOM     19  C   UNL     1      64.702  83.461  69.826  1.00  0.00     0.004 A 
ATOM     20  C   UNL     1      62.872  82.261  68.095  1.00  0.00     0.000 A 
ATOM     21  C   UNL     1      64.911  82.154  69.385  1.00  0.00     0.000 A 
ATOM     22  C   UNL     1      63.996  81.554  68.520  1.00  0.00     0.000 A 
ENDBRANCH  16  17
ENDBRANCH   7  16
BRANCH  15  23
ATOM     23  C   UNL     1      58.991  85.397  70.655  1.00  0.00    -0.046 C 
ATOM     24  C   UNL     1      58.437  86.775  70.442  1.00  0.00     0.042 C 
ATOM     25  C   UNL     1      58.438  84.316  70.086  1.00  0.00     0.010 C 
ENDBRANCH  15  23
ENDBRANCH   3   4
BRANCH   2  26
ATOM     26  C   UNL     1      62.921  87.592  76.071  1.00  0.00     0.078 C 
BRANCH  26  27
ATOM     27  C   UNL     1      62.761  86.077  75.960  1.00  0.00     0.140 C 
ATOM     28  C   UNL     1      63.285  85.531  74.615  1.00  0.00     0.086 CG0
ATOM     29  C   UNL     1      63.609  85.328  76.966  1.00  0.00     0.190 C 
ATOM     30  C   UNL     1      64.099  84.333  75.016  1.00  0.00    -0.010 C 
ATOM     31  G   UNL     1      62.234  85.393  73.475  1.00  0.00     0.000 G0
ATOM     32  O   UNL     1      63.670  85.573  78.162  1.00  0.00    -0.291 OA
ATOM     33  C   UNL     1      64.323  84.207  76.327  1.00  0.00    -0.008 C 
ATOM     34  C   UNL     1      65.136  83.215  77.062  1.00  0.00     0.048 C 
BRANCH  27  35
ATOM     35  O   UNL     1      61.437  85.671  76.265  1.00  0.00    -0.381 OA
ATOM     36  H   UNL     1      60.833  86.099  75.635  1.00  0.00     0.212 HD
ENDBRANCH  27  35
ENDBRANCH  26  27
ENDBRANCH   2  26
ENDBRANCH   1   2
BRANCH   1  37
ATOM     37  O   UNL     1      63.982  90.116  73.921  1.00  0.00    -0.461 OA
BRANCH  37  38
ATOM     38  C   UNL     1      65.308  89.970  74.255  1.00  0.00     0.310 C 
ATOM     39  O   UNL     1      65.914  90.676  75.049  1.00  0.00    -0.252 OA
BRANCH  38  40
ATOM     40  C   UNL     1      65.896  88.808  73.491  1.00  0.00     0.158 C 
BRANCH  40  41
ATOM     41  C   UNL     1      66.466  87.742  74.390  1.00  0.00    -0.037 A 
ATOM     42  C   UNL     1      66.905  86.534  73.848  1.00  0.00     0.008 A 
ATOM     43  C   UNL     1      66.556  87.963  75.764  1.00  0.00     0.008 A 
ATOM     44  C   UNL     1      67.433  85.546  74.681  1.00  0.00     0.046 A 
ATOM     45  C   UNL     1      67.084  86.976  76.597  1.00  0.00     0.046 A 
ATOM     46  C   UNL     1      67.522  85.768  76.056  1.00  0.00     0.115 A 
BRANCH  46  47
ATOM     47  O   UNL     1      68.036  84.804  76.868  1.00  0.00    -0.508 OA
ATOM     48  H   UNL     1      67.315  84.415  77.392  1.00  0.00     0.293 HD
ENDBRANCH  46  47
ENDBRANCH  40  41
ENDBRANCH  38  40
ENDBRANCH  37  38
ENDBRANCH   1  37
TORSDOF 10
ENDMDL
MODEL 7
REMARK VINA RESULT:    -6.302     28.485     32.213
REMARK INTER + INTRA:         -12.346
REMARK INTER:                 -11.880
REMARK INTRA:                  -0.466
REMARK UNBOUND:                -1.623
REMARK SMILES C=C(C)[C@]12C[C@@H](C)[C@@]34O[C@](Cc5ccccc5)(O[C@@H]1[C@@H]3C=C(COC(=O)Cc1ccc(O)cc1)C[C@]1(O)C(=O)C(C)=C[C@@H]41)O2
REMARK SMILES IDX 23 1 22 2 21 3 20 4 9 5 8 6 10 7 6 8 18 10 44 11 19 12 5 13
REMARK SMILES IDX 7 14 4 15 11 16 12 17 13 18 17 19 14 20 16 21 15 22 2 23
REMARK SMILES IDX 3 24 1 25 35 26 36 27 43 28 38 29 42 30 39 32 40 33 41 34
REMARK SMILES IDX 37 35 24 37 25 38 26 39 27 40 28 41 29 42 34 43 30 44 33 45
REMARK SMILES IDX 31 46 32 47
REMARK H PARENT 37 36 32 48
REMARK Flexibility Score: 90.00
ROOT
ATOM      1  C   UNL     1      95.188 100.773  73.132  1.00  0.00     0.264 C 
ENDROOT
BRANCH   1   2
ATOM      2  C   UNL     1      94.163 101.802  72.714  1.00  0.00    -0.033 C 
ATOM      3  C   UNL     1      93.377 101.554  71.646  1.00  0.00    -0.015 C 
BRANCH   3   4
ATOM      4  C   UNL     1      92.337 102.444  70.985  1.00  0.00     0.078 C 
ATOM      5  O   UNL     1      90.161 101.909  72.030  1.00  0.00    -0.319 OA
ATOM      6  C   UNL     1      91.144 102.977  71.860  1.00  0.00     0.095 CG0
ATOM      7  C   UNL     1      89.879 101.138  70.847  1.00  0.00     0.289 C 
ATOM      8  C   UNL     1      90.476 104.182  71.077  1.00  0.00     0.023 C 
ATOM      9  G   UNL     1      91.619 103.301  73.306  1.00  0.00     0.000 G0
ATOM     10  O   UNL     1      91.063 100.545  70.320  1.00  0.00    -0.320 OA
ATOM     11  O   UNL     1      89.347 101.937  69.793  1.00  0.00    -0.313 OA
ATOM     12  C   UNL     1      91.706 101.709  69.777  1.00  0.00     0.170 C 
ATOM     13  C   UNL     1      90.551 103.973  69.534  1.00  0.00     0.049 C 
ATOM     14  C   UNL     1      89.027 104.510  71.478  1.00  0.00     0.011 C 
ATOM     15  C   UNL     1      90.520 102.490  69.161  1.00  0.00     0.122 C 
BRANCH   7  16
ATOM     16  C   UNL     1      88.882 100.056  71.211  1.00  0.00     0.135 C 
BRANCH  16  17
ATOM     17  C   UNL     1      88.967  98.871  70.282  1.00  0.00    -0.040 A 
ATOM     18  C   UNL     1      89.571  97.690  70.711  1.00  0.00     0.004 A 
ATOM     19  C   UNL     1      88.440  98.958  68.993  1.00  0.00     0.004 A 
ATOM     20  C   UNL     1      89.649  96.593  69.851  1.00  0.00     0.000 A 
ATOM     21  C   UNL     1      88.518  97.861  68.134  1.00  0.00     0.000 A 
ATOM     22  C   UNL     1      89.122  96.680  68.562  1.00  0.00     0.000 A 
ENDBRANCH  16  17
ENDBRANCH   7  16
BRANCH  15  23
ATOM     23  C   UNL     1      90.408 102.271  67.687  1.00  0.00    -0.046 C 
ATOM     24  C   UNL     1      90.318 103.506  66.840  1.00  0.00     0.042 C 
ATOM     25  C   UNL     1      90.389 101.042  67.153  1.00  0.00     0.010 C 
ENDBRANCH  15  23
ENDBRANCH   3   4
BRANCH   2  26
ATOM     26  C   UNL     1      94.155 103.030  73.605  1.00  0.00     0.078 C 
BRANCH  26  27
ATOM     27  C   UNL     1      92.997 104.012  73.430  1.00  0.00     0.140 C 
ATOM     28  C   UNL     1      91.637 103.294  73.308  1.00  0.00     0.086 CG0
ATOM     29  C   UNL     1      92.794 104.891  74.645  1.00  0.00     0.190 C 
ATOM     30  C   UNL     1      90.745 104.078  74.230  1.00  0.00    -0.010 C 
ATOM     31  G   UNL     1      91.154 102.980  71.862  1.00  0.00     0.000 G0
ATOM     32  O   UNL     1      93.673 105.508  75.228  1.00  0.00    -0.291 OA
ATOM     33  C   UNL     1      91.367 104.963  75.014  1.00  0.00    -0.008 C 
ATOM     34  C   UNL     1      90.830 105.833  76.080  1.00  0.00     0.048 C 
BRANCH  27  35
ATOM     35  O   UNL     1      93.254 104.934  72.384  1.00  0.00    -0.381 OA
ATOM     36  H   UNL     1      92.667 104.723  71.638  1.00  0.00     0.212 HD
ENDBRANCH  27  35
ENDBRANCH  26  27
ENDBRANCH   2  26
ENDBRANCH   1   2
BRANCH   1  37
ATOM     37  O   UNL     1      94.632  99.482  73.003  1.00  0.00    -0.461 OA
BRANCH  37  38
ATOM     38  C   UNL     1      94.981  98.570  73.973  1.00  0.00     0.310 C 
ATOM     39  O   UNL     1      95.930  97.803  73.906  1.00  0.00    -0.252 OA
BRANCH  38  40
ATOM     40  C   UNL     1      94.013  98.667  75.128  1.00  0.00     0.158 C 
BRANCH  40  41
ATOM     41  C   UNL     1      94.139  97.522  76.098  1.00  0.00    -0.037 A 
ATOM     42  C   UNL     1      95.070  97.585  77.135  1.00  0.00     0.008 A 
ATOM     43  C   UNL     1      93.324  96.398  75.961  1.00  0.00     0.008 A 
ATOM     44  C   UNL     1      95.188  96.524  78.033  1.00  0.00     0.046 A 
ATOM     45  C   UNL     1      93.441  95.337  76.859  1.00  0.00     0.046 A 
ATOM     46  C   UNL     1      94.373  95.400  77.895  1.00  0.00     0.115 A 
BRANCH  46  47
ATOM     47  O   UNL     1      94.487  94.365  78.771  1.00  0.00    -0.508 OA
ATOM     48  H   UNL     1      95.413  94.066  78.787  1.00  0.00     0.293 HD
ENDBRANCH  46  47
ENDBRANCH  40  41
ENDBRANCH  38  40
ENDBRANCH  37  38
ENDBRANCH   1  37
TORSDOF 10
ENDMDL
MODEL 8
REMARK VINA RESULT:    -6.199      5.983     10.949
REMARK INTER + INTRA:         -12.172
REMARK INTER:                 -12.032
REMARK INTRA:                  -0.140
REMARK UNBOUND:                -1.623
REMARK SMILES C=C(C)[C@]12C[C@@H](C)[C@@]34O[C@](Cc5ccccc5)(O[C@@H]1[C@@H]3C=C(COC(=O)Cc1ccc(O)cc1)C[C@]1(O)C(=O)C(C)=C[C@@H]41)O2
REMARK SMILES IDX 23 1 22 2 21 3 20 4 9 5 8 6 10 7 6 8 18 10 44 11 19 12 5 13
REMARK SMILES IDX 7 14 4 15 11 16 12 17 13 18 17 19 14 20 16 21 15 22 2 23
REMARK SMILES IDX 3 24 1 25 35 26 36 27 43 28 38 29 42 30 39 32 40 33 41 34
REMARK SMILES IDX 37 35 24 37 25 38 26 39 27 40 28 41 29 42 34 43 30 44 33 45
REMARK SMILES IDX 31 46 32 47
REMARK H PARENT 37 36 32 48
REMARK Flexibility Score: 90.00
ROOT
ATOM      1  C   UNL     1      69.506  86.071  68.870  1.00  0.00     0.264 C 
ENDROOT
BRANCH   1   2
ATOM      2  C   UNL     1      70.642  86.097  67.873  1.00  0.00    -0.033 C 
ATOM      3  C   UNL     1      71.430  87.189  67.799  1.00  0.00    -0.015 C 
BRANCH   3   4
ATOM      4  C   UNL     1      72.574  87.492  66.844  1.00  0.00     0.078 C 
ATOM      5  O   UNL     1      74.654  86.743  67.952  1.00  0.00    -0.319 OA
ATOM      6  C   UNL     1      73.792  86.498  66.797  1.00  0.00     0.095 CG0
ATOM      7  C   UNL     1      74.887  88.131  68.262  1.00  0.00     0.289 C 
ATOM      8  C   UNL     1      74.601  86.794  65.468  1.00  0.00     0.023 C 
ATOM      9  G   UNL     1      73.314  85.027  66.976  1.00  0.00     0.000 G0
ATOM     10  O   UNL     1      73.663  88.822  68.493  1.00  0.00    -0.320 OA
ATOM     11  O   UNL     1      75.527  88.825  67.194  1.00  0.00    -0.313 OA
ATOM     12  C   UNL     1      73.158  88.893  67.150  1.00  0.00     0.170 C 
ATOM     13  C   UNL     1      74.547  88.305  65.089  1.00  0.00     0.049 C 
ATOM     14  C   UNL     1      76.065  86.320  65.465  1.00  0.00     0.011 C 
ATOM     15  C   UNL     1      74.434  89.195  66.327  1.00  0.00     0.122 C 
BRANCH   7  16
ATOM     16  C   UNL     1      75.757  88.200  69.502  1.00  0.00     0.135 C 
BRANCH  16  17
ATOM     17  C   UNL     1      76.215  86.835  69.950  1.00  0.00    -0.040 A 
ATOM     18  C   UNL     1      75.335  85.991  70.626  1.00  0.00     0.004 A 
ATOM     19  C   UNL     1      77.519  86.417  69.687  1.00  0.00     0.004 A 
ATOM     20  C   UNL     1      75.758  84.728  71.040  1.00  0.00     0.000 A 
ATOM     21  C   UNL     1      77.943  85.154  70.101  1.00  0.00     0.000 A 
ATOM     22  C   UNL     1      77.063  84.310  70.777  1.00  0.00     0.000 A 
ENDBRANCH  16  17
ENDBRANCH   7  16
BRANCH  15  23
ATOM     23  C   UNL     1      74.562  90.648  66.003  1.00  0.00    -0.046 C 
ATOM     24  C   UNL     1      74.359  91.026  64.566  1.00  0.00     0.042 C 
ATOM     25  C   UNL     1      74.843  91.562  66.944  1.00  0.00     0.010 C 
ENDBRANCH  15  23
ENDBRANCH   3   4
BRANCH   2  26
ATOM     26  C   UNL     1      70.747  84.822  67.057  1.00  0.00     0.078 C 
BRANCH  26  27
ATOM     27  C   UNL     1      72.010  84.631  66.220  1.00  0.00     0.140 C 
ATOM     28  C   UNL     1      73.287  85.028  66.990  1.00  0.00     0.086 CG0
ATOM     29  C   UNL     1      72.271  83.178  65.886  1.00  0.00     0.190 C 
ATOM     30  C   UNL     1      74.230  83.891  66.713  1.00  0.00    -0.010 C 
ATOM     31  G   UNL     1      73.777  86.493  66.795  1.00  0.00     0.000 G0
ATOM     32  O   UNL     1      71.447  82.396  65.434  1.00  0.00    -0.291 OA
ATOM     33  C   UNL     1      73.684  82.826  66.119  1.00  0.00    -0.008 C 
ATOM     34  C   UNL     1      74.280  81.518  65.776  1.00  0.00     0.048 C 
BRANCH  27  35
ATOM     35  O   UNL     1      71.890  85.253  64.951  1.00  0.00    -0.381 OA
ATOM     36  H   UNL     1      71.106  84.890  64.505  1.00  0.00     0.212 HD
ENDBRANCH  27  35
ENDBRANCH  26  27
ENDBRANCH   2  26
ENDBRANCH   1   2
BRANCH   1  37
ATOM     37  O   UNL     1      69.376  84.767  69.395  1.00  0.00    -0.461 OA
BRANCH  37  38
ATOM     38  C   UNL     1      68.144  84.172  69.243  1.00  0.00     0.310 C 
ATOM     39  O   UNL     1      67.297  84.508  68.427  1.00  0.00    -0.252 OA
BRANCH  38  40
ATOM     40  C   UNL     1      68.004  83.045  70.238  1.00  0.00     0.158 C 
BRANCH  40  41
ATOM     41  C   UNL     1      66.640  82.989  70.874  1.00  0.00    -0.037 A 
ATOM     42  C   UNL     1      65.855  81.843  70.743  1.00  0.00     0.008 A 
ATOM     43  C   UNL     1      66.160  84.083  71.595  1.00  0.00     0.008 A 
ATOM     44  C   UNL     1      64.591  81.792  71.332  1.00  0.00     0.046 A 
ATOM     45  C   UNL     1      64.897  84.032  72.184  1.00  0.00     0.046 A 
ATOM     46  C   UNL     1      64.112  82.887  72.052  1.00  0.00     0.115 A 
BRANCH  46  47
ATOM     47  O   UNL     1      62.879  82.836  72.626  1.00  0.00    -0.508 OA
ATOM     48  H   UNL     1      62.899  83.334  73.462  1.00  0.00     0.293 HD
ENDBRANCH  46  47
ENDBRANCH  40  41
ENDBRANCH  38  40
ENDBRANCH  37  38
ENDBRANCH   1  37
TORSDOF 10
ENDMDL
MODEL 9
REMARK VINA RESULT:    -5.881     33.072     36.325
REMARK INTER + INTRA:         -11.630
REMARK INTER:                 -10.986
REMARK INTRA:                  -0.644
REMARK UNBOUND:                -1.623
REMARK SMILES C=C(C)[C@]12C[C@@H](C)[C@@]34O[C@](Cc5ccccc5)(O[C@@H]1[C@@H]3C=C(COC(=O)Cc1ccc(O)cc1)C[C@]1(O)C(=O)C(C)=C[C@@H]41)O2
REMARK SMILES IDX 23 1 22 2 21 3 20 4 9 5 8 6 10 7 6 8 18 10 44 11 19 12 5 13
REMARK SMILES IDX 7 14 4 15 11 16 12 17 13 18 17 19 14 20 16 21 15 22 2 23
REMARK SMILES IDX 3 24 1 25 35 26 36 27 43 28 38 29 42 30 39 32 40 33 41 34
REMARK SMILES IDX 37 35 24 37 25 38 26 39 27 40 28 41 29 42 34 43 30 44 33 45
REMARK SMILES IDX 31 46 32 47
REMARK H PARENT 37 36 32 48
REMARK Flexibility Score: 90.00
ROOT
ATOM      1  C   UNL     1      98.298  80.947  83.419  1.00  0.00     0.264 C 
ENDROOT
BRANCH   1   2
ATOM      2  C   UNL     1      98.317  81.602  84.781  1.00  0.00    -0.033 C 
ATOM      3  C   UNL     1      97.151  81.825  85.422  1.00  0.00    -0.015 C 
BRANCH   3   4
ATOM      4  C   UNL     1      96.897  82.525  86.747  1.00  0.00     0.078 C 
ATOM      5  O   UNL     1      96.887  80.777  88.496  1.00  0.00    -0.319 OA
ATOM      6  C   UNL     1      97.603  81.965  88.037  1.00  0.00     0.095 CG0
ATOM      7  C   UNL     1      95.450  80.873  88.463  1.00  0.00     0.289 C 
ATOM      8  C   UNL     1      97.523  83.088  89.152  1.00  0.00     0.023 C 
ATOM      9  G   UNL     1      99.034  81.452  87.706  1.00  0.00     0.000 G0
ATOM     10  O   UNL     1      94.981  81.170  87.151  1.00  0.00    -0.320 OA
ATOM     11  O   UNL     1      94.957  81.921  89.295  1.00  0.00    -0.313 OA
ATOM     12  C   UNL     1      95.378  82.546  87.048  1.00  0.00     0.170 C 
ATOM     13  C   UNL     1      96.213  83.925  89.030  1.00  0.00     0.049 C 
ATOM     14  C   UNL     1      97.678  82.593  90.601  1.00  0.00     0.011 C 
ATOM     15  C   UNL     1      95.062  83.094  88.461  1.00  0.00     0.122 C 
BRANCH   7  16
ATOM     16  C   UNL     1      94.875  79.549  88.926  1.00  0.00     0.135 C 
BRANCH  16  17
ATOM     17  C   UNL     1      94.777  78.549  87.801  1.00  0.00    -0.040 A 
ATOM     18  C   UNL     1      95.909  77.845  87.393  1.00  0.00     0.004 A 
ATOM     19  C   UNL     1      93.553  78.330  87.169  1.00  0.00     0.004 A 
ATOM     20  C   UNL     1      95.818  76.920  86.352  1.00  0.00     0.000 A 
ATOM     21  C   UNL     1      93.462  77.405  86.128  1.00  0.00     0.000 A 
ATOM     22  C   UNL     1      94.594  76.701  85.720  1.00  0.00     0.000 A 
ENDBRANCH  16  17
ENDBRANCH   7  16
BRANCH  15  23
ATOM     23  C   UNL     1      93.756  83.818  88.503  1.00  0.00    -0.046 C 
ATOM     24  C   UNL     1      93.663  85.064  87.674  1.00  0.00     0.042 C 
ATOM     25  C   UNL     1      92.725  83.379  89.241  1.00  0.00     0.010 C 
ENDBRANCH  15  23
ENDBRANCH   3   4
BRANCH   2  26
ATOM     26  C   UNL     1      99.718  81.927  85.265  1.00  0.00     0.078 C 
BRANCH  26  27
ATOM     27  C   UNL     1      99.868  82.374  86.718  1.00  0.00     0.140 C 
ATOM     28  C   UNL     1      99.060  81.486  87.688  1.00  0.00     0.086 CG0
ATOM     29  C   UNL     1     101.283  82.212  87.232  1.00  0.00     0.190 C 
ATOM     30  C   UNL     1     100.032  81.211  88.802  1.00  0.00    -0.010 C 
ATOM     31  G   UNL     1      97.624  81.977  88.032  1.00  0.00     0.000 G0
ATOM     32  O   UNL     1     102.292  82.593  86.657  1.00  0.00    -0.291 OA
ATOM     33  C   UNL     1     101.294  81.581  88.565  1.00  0.00    -0.008 C 
ATOM     34  C   UNL     1     102.510  81.396  89.384  1.00  0.00     0.048 C 
BRANCH  27  35
ATOM     35  O   UNL     1      99.611  83.760  86.863  1.00  0.00    -0.381 OA
ATOM     36  H   UNL     1      98.662  83.913  86.718  1.00  0.00     0.212 HD
ENDBRANCH  27  35
ENDBRANCH  26  27
ENDBRANCH   2  26
ENDBRANCH   1   2
BRANCH   1  37
ATOM     37  O   UNL     1      99.624  80.729  82.987  1.00  0.00    -0.461 OA
BRANCH  37  38
ATOM     38  C   UNL     1      99.843  80.813  81.631  1.00  0.00     0.310 C 
ATOM     39  O   UNL     1      99.795  79.871  80.852  1.00  0.00    -0.252 OA
BRANCH  38  40
ATOM     40  C   UNL     1     100.149  82.244  81.257  1.00  0.00     0.158 C 
BRANCH  40  41
ATOM     41  C   UNL     1      99.327  82.736  80.095  1.00  0.00    -0.037 A 
ATOM     42  C   UNL     1      98.016  83.167  80.299  1.00  0.00     0.008 A 
ATOM     43  C   UNL     1      99.877  82.762  78.813  1.00  0.00     0.008 A 
ATOM     44  C   UNL     1      97.255  83.622  79.222  1.00  0.00     0.046 A 
ATOM     45  C   UNL     1      99.116  83.218  77.736  1.00  0.00     0.046 A 
ATOM     46  C   UNL     1      97.806  83.647  77.940  1.00  0.00     0.115 A 
BRANCH  46  47
ATOM     47  O   UNL     1      97.063  84.091  76.890  1.00  0.00    -0.508 OA
ATOM     48  H   UNL     1      97.365  84.983  76.644  1.00  0.00     0.293 HD
ENDBRANCH  46  47
ENDBRANCH  40  41
ENDBRANCH  38  40
ENDBRANCH  37  38
ENDBRANCH   1  37
TORSDOF 10
ENDMDL
MODEL 10
REMARK VINA RESULT:    -5.759     33.949     37.044
REMARK INTER + INTRA:         -11.423
REMARK INTER:                 -11.134
REMARK INTRA:                  -0.288
REMARK UNBOUND:                -1.623
REMARK SMILES C=C(C)[C@]12C[C@@H](C)[C@@]34O[C@](Cc5ccccc5)(O[C@@H]1[C@@H]3C=C(COC(=O)Cc1ccc(O)cc1)C[C@]1(O)C(=O)C(C)=C[C@@H]41)O2
REMARK SMILES IDX 23 1 22 2 21 3 20 4 9 5 8 6 10 7 6 8 18 10 44 11 19 12 5 13
REMARK SMILES IDX 7 14 4 15 11 16 12 17 13 18 17 19 14 20 16 21 15 22 2 23
REMARK SMILES IDX 3 24 1 25 35 26 36 27 43 28 38 29 42 30 39 32 40 33 41 34
REMARK SMILES IDX 37 35 24 37 25 38 26 39 27 40 28 41 29 42 34 43 30 44 33 45
REMARK SMILES IDX 31 46 32 47
REMARK H PARENT 37 36 32 48
REMARK Flexibility Score: 90.00
ROOT
ATOM      1  C   UNL     1      99.084  81.480  81.741  1.00  0.00     0.264 C 
ENDROOT
BRANCH   1   2
ATOM      2  C   UNL     1      99.970  80.919  80.653  1.00  0.00    -0.033 C 
ATOM      3  C   UNL     1      99.487  80.816  79.398  1.00  0.00    -0.015 C 
BRANCH   3   4
ATOM      4  C   UNL     1     100.140  80.224  78.158  1.00  0.00     0.078 C 
ATOM      5  O   UNL     1     101.299  82.077  77.000  1.00  0.00    -0.319 OA
ATOM      6  C   UNL     1     101.523  80.807  77.690  1.00  0.00     0.095 CG0
ATOM      7  C   UNL     1     100.182  82.093  76.090  1.00  0.00     0.289 C 
ATOM      8  C   UNL     1     102.164  79.769  76.680  1.00  0.00     0.023 C 
ATOM      9  G   UNL     1     102.408  81.183  78.914  1.00  0.00     0.000 G0
ATOM     10  O   UNL     1      98.969  81.751  76.754  1.00  0.00    -0.320 OA
ATOM     11  O   UNL     1     100.326  81.143  75.037  1.00  0.00    -0.313 OA
ATOM     12  C   UNL     1      99.178  80.343  76.950  1.00  0.00     0.170 C 
ATOM     13  C   UNL     1     101.071  79.033  75.846  1.00  0.00     0.049 C 
ATOM     14  C   UNL     1     103.231  80.341  75.730  1.00  0.00     0.011 C 
ATOM     15  C   UNL     1      99.843  79.915  75.619  1.00  0.00     0.122 C 
BRANCH   7  16
ATOM     16  C   UNL     1     100.070  83.486  75.502  1.00  0.00     0.135 C 
BRANCH  16  17
ATOM     17  C   UNL     1     101.407  84.019  75.051  1.00  0.00    -0.040 A 
ATOM     18  C   UNL     1     101.924  83.648  73.811  1.00  0.00     0.004 A 
ATOM     19  C   UNL     1     102.125  84.884  75.876  1.00  0.00     0.004 A 
ATOM     20  C   UNL     1     103.161  84.142  73.394  1.00  0.00     0.000 A 
ATOM     21  C   UNL     1     103.361  85.379  75.459  1.00  0.00     0.000 A 
ATOM     22  C   UNL     1     103.879  85.008  74.219  1.00  0.00     0.000 A 
ENDBRANCH  16  17
ENDBRANCH   7  16
BRANCH  15  23
ATOM     23  C   UNL     1      98.862  79.301  74.674  1.00  0.00    -0.046 C 
ATOM     24  C   UNL     1      97.834  80.226  74.093  1.00  0.00     0.042 C 
ATOM     25  C   UNL     1      98.898  77.997  74.362  1.00  0.00     0.010 C 
ENDBRANCH  15  23
ENDBRANCH   3   4
BRANCH   2  26
ATOM     26  C   UNL     1     101.353  80.538  81.148  1.00  0.00     0.078 C 
BRANCH  26  27
ATOM     27  C   UNL     1     102.392  80.159  80.094  1.00  0.00     0.140 C 
ATOM     28  C   UNL     1     102.424  81.160  78.920  1.00  0.00     0.086 CG0
ATOM     29  C   UNL     1     103.808  80.234  80.624  1.00  0.00     0.190 C 
ATOM     30  C   UNL     1     103.891  81.416  78.719  1.00  0.00    -0.010 C 
ATOM     31  G   UNL     1     101.535  80.805  77.693  1.00  0.00     0.000 G0
ATOM     32  O   UNL     1     104.199  79.743  81.672  1.00  0.00    -0.291 OA
ATOM     33  C   UNL     1     104.693  80.933  79.673  1.00  0.00    -0.008 C 
ATOM     34  C   UNL     1     106.155  81.064  79.843  1.00  0.00     0.048 C 
BRANCH  27  35
ATOM     35  O   UNL     1     102.252  78.807  79.691  1.00  0.00    -0.381 OA
ATOM     36  H   UNL     1     101.329  78.662  79.420  1.00  0.00     0.212 HD
ENDBRANCH  27  35
ENDBRANCH  26  27
ENDBRANCH   2  26
ENDBRANCH   1   2
BRANCH   1  37
ATOM     37  O   UNL     1      99.890  82.016  82.769  1.00  0.00    -0.461 OA
BRANCH  37  38
ATOM     38  C   UNL     1      99.276  82.206  83.986  1.00  0.00     0.310 C 
ATOM     39  O   UNL     1      99.848  82.223  85.066  1.00  0.00    -0.252 OA
BRANCH  38  40
ATOM     40  C   UNL     1      97.792  82.392  83.777  1.00  0.00     0.158 C 
BRANCH  40  41
ATOM     41  C   UNL     1      97.160  83.286  84.812  1.00  0.00    -0.037 A 
ATOM     42  C   UNL     1      97.367  84.664  84.763  1.00  0.00     0.008 A 
ATOM     43  C   UNL     1      96.368  82.736  85.819  1.00  0.00     0.008 A 
ATOM     44  C   UNL     1      96.782  85.492  85.722  1.00  0.00     0.046 A 
ATOM     45  C   UNL     1      95.783  83.563  86.778  1.00  0.00     0.046 A 
ATOM     46  C   UNL     1      95.990  84.941  86.730  1.00  0.00     0.115 A 
BRANCH  46  47
ATOM     47  O   UNL     1      95.421  85.748  87.665  1.00  0.00    -0.508 OA
ATOM     48  H   UNL     1      94.587  86.104  87.310  1.00  0.00     0.293 HD
ENDBRANCH  46  47
ENDBRANCH  40  41
ENDBRANCH  38  40
ENDBRANCH  37  38
ENDBRANCH   1  37
TORSDOF 10
ENDMDL
