MODEL 1
REMARK VINA RESULT:    -5.777      0.000      0.000
REMARK INTER + INTRA:          -9.878
REMARK INTER:                  -9.322
REMARK INTRA:                  -0.556
REMARK UNBOUND:                -0.556
REMARK SMILES CCCCCCCCC(=O)NCc1ccc(O)c(OC)c1
REMARK SMILES IDX 7 1 6 2 5 3 4 4 3 5 2 6 1 7 8 8 9 9 10 10 11 11 12 13 13 14
REMARK SMILES IDX 21 15 14 16 18 17 15 18 16 19 19 20 20 21 17 22
REMARK H PARENT 11 12 17 23
REMARK Flexibility Score: inf
ROOT
ATOM      1  C   UNL     1      95.745  96.819  75.067  1.00  0.00     0.010 C 
ENDROOT
BRANCH   1   2
ATOM      2  C   UNL     1      95.317  97.447  73.710  1.00  0.00     0.001 C 
BRANCH   2   3
ATOM      3  C   UNL     1      93.862  98.000  73.749  1.00  0.00     0.000 C 
BRANCH   3   4
ATOM      4  C   UNL     1      93.574  99.084  72.672  1.00  0.00    -0.000 C 
BRANCH   4   5
ATOM      5  C   UNL     1      93.286  98.475  71.270  1.00  0.00    -0.000 C 
BRANCH   5   6
ATOM      6  C   UNL     1      92.325  99.354  70.425  1.00  0.00    -0.003 C 
ATOM      7  C   UNL     1      91.217  98.533  69.729  1.00  0.00     0.004 C 
ENDBRANCH   5   6
ENDBRANCH   4   5
ENDBRANCH   3   4
ENDBRANCH   2   3
ENDBRANCH   1   2
BRANCH   1   8
ATOM      8  C   UNL     1      95.836  95.267  75.043  1.00  0.00     0.100 C 
BRANCH   8   9
ATOM      9  C   UNL     1      95.122  94.667  76.195  1.00  0.00     0.220 C 
ATOM     10  O   UNL     1      95.757  94.490  77.262  1.00  0.00    -0.275 OA
ATOM     11  N   UNL     1      93.799  94.344  76.100  1.00  0.00    -0.352 N 
ATOM     12  H   UNL     1      93.410  94.446  75.174  1.00  0.00     0.163 HD
BRANCH  11  13
ATOM     13  C   UNL     1      92.969  93.893  77.175  1.00  0.00     0.151 C 
BRANCH  13  14
ATOM     14  C   UNL     1      91.970  92.867  76.774  1.00  0.00    -0.025 A 
ATOM     15  C   UNL     1      92.082  92.214  75.523  1.00  0.00     0.056 A 
ATOM     16  C   UNL     1      90.894  92.528  77.627  1.00  0.00     0.009 A 
ATOM     17  C   UNL     1      91.149  91.224  75.136  1.00  0.00     0.160 A 
ATOM     18  C   UNL     1      89.964  91.544  77.248  1.00  0.00     0.050 A 
ATOM     19  C   UNL     1      90.083  90.896  76.003  1.00  0.00     0.157 A 
BRANCH  17  20
ATOM     20  O   UNL     1      91.236  90.623  73.906  1.00  0.00    -0.493 OA
ATOM     21  C   UNL     1      90.984  91.507  72.799  1.00  0.00     0.278 C 
ENDBRANCH  17  20
BRANCH  19  22
ATOM     22  O   UNL     1      89.164  89.967  75.634  1.00  0.00    -0.504 OA
ATOM     23  H   UNL     1      88.753  90.234  74.809  1.00  0.00     0.293 HD
ENDBRANCH  19  22
ENDBRANCH  13  14
ENDBRANCH  11  13
ENDBRANCH   8   9
ENDBRANCH   1   8
TORSDOF 11
ENDMDL
MODEL 2
REMARK VINA RESULT:    -5.766     15.345     18.614
REMARK INTER + INTRA:          -9.862
REMARK INTER:                  -8.233
REMARK INTRA:                  -1.629
REMARK UNBOUND:                -0.556
REMARK SMILES CCCCCCCCC(=O)NCc1ccc(O)c(OC)c1
REMARK SMILES IDX 7 1 6 2 5 3 4 4 3 5 2 6 1 7 8 8 9 9 10 10 11 11 12 13 13 14
REMARK SMILES IDX 21 15 14 16 18 17 15 18 16 19 19 20 20 21 17 22
REMARK H PARENT 11 12 17 23
REMARK Flexibility Score: inf
ROOT
ATOM      1  C   UNL     1      82.987  89.414  84.693  1.00  0.00     0.010 C 
ENDROOT
BRANCH   1   2
ATOM      2  C   UNL     1      81.709  90.200  84.281  1.00  0.00     0.001 C 
BRANCH   2   3
ATOM      3  C   UNL     1      80.512  89.919  85.237  1.00  0.00     0.000 C 
BRANCH   3   4
ATOM      4  C   UNL     1      79.943  88.477  85.123  1.00  0.00    -0.000 C 
BRANCH   4   5
ATOM      5  C   UNL     1      79.948  87.943  83.662  1.00  0.00    -0.000 C 
BRANCH   5   6
ATOM      6  C   UNL     1      80.496  86.494  83.559  1.00  0.00    -0.003 C 
ATOM      7  C   UNL     1      80.991  85.942  84.914  1.00  0.00     0.004 C 
ENDBRANCH   5   6
ENDBRANCH   4   5
ENDBRANCH   3   4
ENDBRANCH   2   3
ENDBRANCH   1   2
BRANCH   1   8
ATOM      8  C   UNL     1      84.040  90.274  85.446  1.00  0.00     0.100 C 
BRANCH   8   9
ATOM      9  C   UNL     1      83.658  90.472  86.866  1.00  0.00     0.220 C 
ATOM     10  O   UNL     1      83.453  91.642  87.269  1.00  0.00    -0.275 OA
ATOM     11  N   UNL     1      83.508  89.401  87.700  1.00  0.00    -0.352 N 
ATOM     12  H   UNL     1      83.781  88.517  87.297  1.00  0.00     0.163 HD
BRANCH  11  13
ATOM     13  C   UNL     1      83.010  89.450  89.040  1.00  0.00     0.151 C 
BRANCH  13  14
ATOM     14  C   UNL     1      81.616  88.953  89.183  1.00  0.00    -0.025 A 
ATOM     15  C   UNL     1      80.690  89.652  89.994  1.00  0.00     0.056 A 
ATOM     16  C   UNL     1      81.191  87.780  88.518  1.00  0.00     0.009 A 
ATOM     17  C   UNL     1      79.356  89.202  90.125  1.00  0.00     0.160 A 
ATOM     18  C   UNL     1      79.865  87.327  88.643  1.00  0.00     0.050 A 
ATOM     19  C   UNL     1      78.948  88.029  89.450  1.00  0.00     0.157 A 
BRANCH  17  20
ATOM     20  O   UNL     1      78.472  89.857  90.945  1.00  0.00    -0.493 OA
ATOM     21  C   UNL     1      77.902  91.045  90.367  1.00  0.00     0.278 C 
ENDBRANCH  17  20
BRANCH  19  22
ATOM     22  O   UNL     1      77.679  87.569  89.586  1.00  0.00    -0.504 OA
ATOM     23  H   UNL     1      77.613  86.691  89.202  1.00  0.00     0.293 HD
ENDBRANCH  19  22
ENDBRANCH  13  14
ENDBRANCH  11  13
ENDBRANCH   8   9
ENDBRANCH   1   8
TORSDOF 11
ENDMDL
MODEL 3
REMARK VINA RESULT:    -5.614     26.229     29.610
REMARK INTER + INTRA:          -9.615
REMARK INTER:                  -8.245
REMARK INTRA:                  -1.369
REMARK UNBOUND:                -0.556
REMARK SMILES CCCCCCCCC(=O)NCc1ccc(O)c(OC)c1
REMARK SMILES IDX 7 1 6 2 5 3 4 4 3 5 2 6 1 7 8 8 9 9 10 10 11 11 12 13 13 14
REMARK SMILES IDX 21 15 14 16 18 17 15 18 16 19 19 20 20 21 17 22
REMARK H PARENT 11 12 17 23
REMARK Flexibility Score: inf
ROOT
ATOM      1  C   UNL     1      83.630  64.598  76.318  1.00  0.00     0.010 C 
ENDROOT
BRANCH   1   2
ATOM      2  C   UNL     1      82.130  64.927  76.567  1.00  0.00     0.001 C 
BRANCH   2   3
ATOM      3  C   UNL     1      81.772  66.386  76.158  1.00  0.00     0.000 C 
BRANCH   3   4
ATOM      4  C   UNL     1      80.892  66.480  74.879  1.00  0.00    -0.000 C 
BRANCH   4   5
ATOM      5  C   UNL     1      81.246  65.391  73.826  1.00  0.00    -0.000 C 
BRANCH   5   6
ATOM      6  C   UNL     1      79.993  64.634  73.308  1.00  0.00    -0.003 C 
ATOM      7  C   UNL     1      79.748  63.302  74.051  1.00  0.00     0.004 C 
ENDBRANCH   5   6
ENDBRANCH   4   5
ENDBRANCH   3   4
ENDBRANCH   2   3
ENDBRANCH   1   2
BRANCH   1   8
ATOM      8  C   UNL     1      84.607  65.361  77.257  1.00  0.00     0.100 C 
BRANCH   8   9
ATOM      9  C   UNL     1      85.441  66.325  76.499  1.00  0.00     0.220 C 
ATOM     10  O   UNL     1      86.384  66.895  77.099  1.00  0.00    -0.275 OA
ATOM     11  N   UNL     1      85.202  66.559  75.175  1.00  0.00    -0.352 N 
ATOM     12  H   UNL     1      84.370  66.115  74.817  1.00  0.00     0.163 HD
BRANCH  11  13
ATOM     13  C   UNL     1      86.017  67.352  74.307  1.00  0.00     0.151 C 
BRANCH  13  14
ATOM     14  C   UNL     1      85.241  68.193  73.357  1.00  0.00    -0.025 A 
ATOM     15  C   UNL     1      83.899  67.867  73.048  1.00  0.00     0.056 A 
ATOM     16  C   UNL     1      85.826  69.325  72.744  1.00  0.00     0.009 A 
ATOM     17  C   UNL     1      83.144  68.667  72.160  1.00  0.00     0.160 A 
ATOM     18  C   UNL     1      85.080  70.126  71.860  1.00  0.00     0.050 A 
ATOM     19  C   UNL     1      83.744  69.797  71.561  1.00  0.00     0.157 A 
BRANCH  17  20
ATOM     20  O   UNL     1      81.857  68.325  71.830  1.00  0.00    -0.493 OA
ATOM     21  C   UNL     1      81.759  67.267  70.861  1.00  0.00     0.278 C 
ENDBRANCH  17  20
BRANCH  19  22
ATOM     22  O   UNL     1      83.041  70.560  70.685  1.00  0.00    -0.504 OA
ATOM     23  H   UNL     1      82.784  71.381  71.112  1.00  0.00     0.293 HD
ENDBRANCH  19  22
ENDBRANCH  13  14
ENDBRANCH  11  13
ENDBRANCH   8   9
ENDBRANCH   1   8
TORSDOF 11
ENDMDL
MODEL 4
REMARK VINA RESULT:    -5.613      3.575      6.271
REMARK INTER + INTRA:          -9.614
REMARK INTER:                  -8.961
REMARK INTRA:                  -0.653
REMARK UNBOUND:                -0.556
REMARK SMILES CCCCCCCCC(=O)NCc1ccc(O)c(OC)c1
REMARK SMILES IDX 7 1 6 2 5 3 4 4 3 5 2 6 1 7 8 8 9 9 10 10 11 11 12 13 13 14
REMARK SMILES IDX 21 15 14 16 18 17 15 18 16 19 19 20 20 21 17 22
REMARK H PARENT 11 12 17 23
REMARK Flexibility Score: inf
ROOT
ATOM      1  C   UNL     1      95.678  94.705  78.609  1.00  0.00     0.010 C 
ENDROOT
BRANCH   1   2
ATOM      2  C   UNL     1      95.570  93.725  79.813  1.00  0.00     0.001 C 
BRANCH   2   3
ATOM      3  C   UNL     1      96.112  94.350  81.132  1.00  0.00     0.000 C 
BRANCH   3   4
ATOM      4  C   UNL     1      97.236  95.402  80.912  1.00  0.00    -0.000 C 
BRANCH   4   5
ATOM      5  C   UNL     1      97.729  96.040  82.242  1.00  0.00    -0.000 C 
BRANCH   5   6
ATOM      6  C   UNL     1      96.987  97.361  82.580  1.00  0.00    -0.003 C 
ATOM      7  C   UNL     1      96.297  97.994  81.351  1.00  0.00     0.004 C 
ENDBRANCH   5   6
ENDBRANCH   4   5
ENDBRANCH   3   4
ENDBRANCH   2   3
ENDBRANCH   1   2
BRANCH   1   8
ATOM      8  C   UNL     1      95.594  94.010  77.222  1.00  0.00     0.100 C 
BRANCH   8   9
ATOM      9  C   UNL     1      94.202  93.990  76.712  1.00  0.00     0.220 C 
ATOM     10  O   UNL     1      93.288  94.411  77.460  1.00  0.00    -0.275 OA
ATOM     11  N   UNL     1      93.933  93.551  75.447  1.00  0.00    -0.352 N 
ATOM     12  H   UNL     1      94.726  93.156  74.965  1.00  0.00     0.163 HD
BRANCH  11  13
ATOM     13  C   UNL     1      92.661  93.615  74.793  1.00  0.00     0.151 C 
BRANCH  13  14
ATOM     14  C   UNL     1      91.855  92.371  74.923  1.00  0.00    -0.025 A 
ATOM     15  C   UNL     1      91.096  92.134  76.094  1.00  0.00     0.056 A 
ATOM     16  C   UNL     1      91.835  91.407  73.890  1.00  0.00     0.009 A 
ATOM     17  C   UNL     1      90.312  90.965  76.225  1.00  0.00     0.160 A 
ATOM     18  C   UNL     1      91.057  90.243  74.013  1.00  0.00     0.050 A 
ATOM     19  C   UNL     1      90.301  90.014  75.179  1.00  0.00     0.157 A 
BRANCH  17  20
ATOM     20  O   UNL     1      89.609  90.717  77.377  1.00  0.00    -0.493 OA
ATOM     21  C   UNL     1      90.320  91.050  78.583  1.00  0.00     0.278 C 
ENDBRANCH  17  20
BRANCH  19  22
ATOM     22  O   UNL     1      89.574  88.874  75.300  1.00  0.00    -0.504 OA
ATOM     23  H   UNL     1      88.699  89.087  75.634  1.00  0.00     0.293 HD
ENDBRANCH  19  22
ENDBRANCH  13  14
ENDBRANCH  11  13
ENDBRANCH   8   9
ENDBRANCH   1   8
TORSDOF 11
ENDMDL
MODEL 5
REMARK VINA RESULT:    -5.560     28.166     30.233
REMARK INTER + INTRA:          -9.529
REMARK INTER:                  -8.877
REMARK INTRA:                  -0.652
REMARK UNBOUND:                -0.556
REMARK SMILES CCCCCCCCC(=O)NCc1ccc(O)c(OC)c1
REMARK SMILES IDX 7 1 6 2 5 3 4 4 3 5 2 6 1 7 8 8 9 9 10 10 11 11 12 13 13 14
REMARK SMILES IDX 21 15 14 16 18 17 15 18 16 19 19 20 20 21 17 22
REMARK H PARENT 11 12 17 23
REMARK Flexibility Score: inf
ROOT
ATOM      1  C   UNL     1      64.382  84.321  76.044  1.00  0.00     0.010 C 
ENDROOT
BRANCH   1   2
ATOM      2  C   UNL     1      64.481  83.238  74.931  1.00  0.00     0.001 C 
BRANCH   2   3
ATOM      3  C   UNL     1      64.237  81.802  75.483  1.00  0.00     0.000 C 
BRANCH   3   4
ATOM      4  C   UNL     1      63.418  80.893  74.524  1.00  0.00    -0.000 C 
BRANCH   4   5
ATOM      5  C   UNL     1      64.148  80.629  73.177  1.00  0.00    -0.000 C 
BRANCH   5   6
ATOM      6  C   UNL     1      63.408  81.256  71.965  1.00  0.00    -0.003 C 
ATOM      7  C   UNL     1      61.915  81.528  72.249  1.00  0.00     0.004 C 
ENDBRANCH   5   6
ENDBRANCH   4   5
ENDBRANCH   3   4
ENDBRANCH   2   3
ENDBRANCH   1   2
BRANCH   1   8
ATOM      8  C   UNL     1      64.683  85.763  75.548  1.00  0.00     0.100 C 
BRANCH   8   9
ATOM      9  C   UNL     1      65.174  86.622  76.652  1.00  0.00     0.220 C 
ATOM     10  O   UNL     1      65.711  87.717  76.360  1.00  0.00    -0.275 OA
ATOM     11  N   UNL     1      65.016  86.238  77.953  1.00  0.00    -0.352 N 
ATOM     12  H   UNL     1      64.652  85.304  78.071  1.00  0.00     0.163 HD
BRANCH  11  13
ATOM     13  C   UNL     1      65.317  87.036  79.102  1.00  0.00     0.151 C 
BRANCH  13  14
ATOM     14  C   UNL     1      65.817  86.253  80.264  1.00  0.00    -0.025 A 
ATOM     15  C   UNL     1      65.087  86.232  81.476  1.00  0.00     0.056 A 
ATOM     16  C   UNL     1      67.024  85.522  80.182  1.00  0.00     0.009 A 
ATOM     17  C   UNL     1      65.540  85.478  82.583  1.00  0.00     0.160 A 
ATOM     18  C   UNL     1      67.481  84.769  81.279  1.00  0.00     0.050 A 
ATOM     19  C   UNL     1      66.748  84.751  82.481  1.00  0.00     0.157 A 
BRANCH  17  20
ATOM     20  O   UNL     1      64.854  85.493  83.771  1.00  0.00    -0.493 OA
ATOM     21  C   UNL     1      65.014  86.705  84.529  1.00  0.00     0.278 C 
ENDBRANCH  17  20
BRANCH  19  22
ATOM     22  O   UNL     1      67.211  84.043  83.543  1.00  0.00    -0.504 OA
ATOM     23  H   UNL     1      66.820  84.387  84.351  1.00  0.00     0.293 HD
ENDBRANCH  19  22
ENDBRANCH  13  14
ENDBRANCH  11  13
ENDBRANCH   8   9
ENDBRANCH   1   8
TORSDOF 11
ENDMDL
MODEL 6
REMARK VINA RESULT:    -5.499     15.507     18.034
REMARK INTER + INTRA:          -9.430
REMARK INTER:                  -8.740
REMARK INTRA:                  -0.691
REMARK UNBOUND:                -0.556
REMARK SMILES CCCCCCCCC(=O)NCc1ccc(O)c(OC)c1
REMARK SMILES IDX 7 1 6 2 5 3 4 4 3 5 2 6 1 7 8 8 9 9 10 10 11 11 12 13 13 14
REMARK SMILES IDX 21 15 14 16 18 17 15 18 16 19 19 20 20 21 17 22
REMARK H PARENT 11 12 17 23
REMARK Flexibility Score: inf
ROOT
ATOM      1  C   UNL     1      82.647  89.015  84.743  1.00  0.00     0.010 C 
ENDROOT
BRANCH   1   2
ATOM      2  C   UNL     1      81.317  89.689  84.299  1.00  0.00     0.001 C 
BRANCH   2   3
ATOM      3  C   UNL     1      80.074  88.809  84.624  1.00  0.00     0.000 C 
BRANCH   3   4
ATOM      4  C   UNL     1      79.824  87.671  83.594  1.00  0.00    -0.000 C 
BRANCH   4   5
ATOM      5  C   UNL     1      80.573  86.358  83.958  1.00  0.00    -0.000 C 
BRANCH   5   6
ATOM      6  C   UNL     1      80.340  85.927  85.431  1.00  0.00    -0.003 C 
ATOM      7  C   UNL     1      81.651  85.816  86.239  1.00  0.00     0.004 C 
ENDBRANCH   5   6
ENDBRANCH   4   5
ENDBRANCH   3   4
ENDBRANCH   2   3
ENDBRANCH   1   2
BRANCH   1   8
ATOM      8  C   UNL     1      83.671  89.999  85.374  1.00  0.00     0.100 C 
BRANCH   8   9
ATOM      9  C   UNL     1      83.161  90.567  86.645  1.00  0.00     0.220 C 
ATOM     10  O   UNL     1      82.448  89.841  87.379  1.00  0.00    -0.275 OA
ATOM     11  N   UNL     1      83.487  91.840  87.016  1.00  0.00    -0.352 N 
ATOM     12  H   UNL     1      83.990  92.364  86.315  1.00  0.00     0.163 HD
BRANCH  11  13
ATOM     13  C   UNL     1      83.177  92.450  88.273  1.00  0.00     0.151 C 
BRANCH  13  14
ATOM     14  C   UNL     1      83.016  93.927  88.202  1.00  0.00    -0.025 A 
ATOM     15  C   UNL     1      81.993  94.568  88.940  1.00  0.00     0.056 A 
ATOM     16  C   UNL     1      83.874  94.713  87.399  1.00  0.00     0.009 A 
ATOM     17  C   UNL     1      81.839  95.973  88.896  1.00  0.00     0.160 A 
ATOM     18  C   UNL     1      83.727  96.111  87.352  1.00  0.00     0.050 A 
ATOM     19  C   UNL     1      82.708  96.743  88.091  1.00  0.00     0.157 A 
BRANCH  17  20
ATOM     20  O   UNL     1      80.820  96.589  89.579  1.00  0.00    -0.493 OA
ATOM     21  C   UNL     1      81.039  96.692  90.997  1.00  0.00     0.278 C 
ENDBRANCH  17  20
BRANCH  19  22
ATOM     22  O   UNL     1      82.557  98.090  88.017  1.00  0.00    -0.504 OA
ATOM     23  H   UNL     1      82.025  98.393  88.757  1.00  0.00     0.293 HD
ENDBRANCH  19  22
ENDBRANCH  13  14
ENDBRANCH  11  13
ENDBRANCH   8   9
ENDBRANCH   1   8
TORSDOF 11
ENDMDL
MODEL 7
REMARK VINA RESULT:    -5.440     28.264     31.141
REMARK INTER + INTRA:          -9.335
REMARK INTER:                  -8.658
REMARK INTRA:                  -0.677
REMARK UNBOUND:                -0.556
REMARK SMILES CCCCCCCCC(=O)NCc1ccc(O)c(OC)c1
REMARK SMILES IDX 7 1 6 2 5 3 4 4 3 5 2 6 1 7 8 8 9 9 10 10 11 11 12 13 13 14
REMARK SMILES IDX 21 15 14 16 18 17 15 18 16 19 19 20 20 21 17 22
REMARK H PARENT 11 12 17 23
REMARK Flexibility Score: inf
ROOT
ATOM      1  C   UNL     1      82.055  64.199  74.371  1.00  0.00     0.010 C 
ENDROOT
BRANCH   1   2
ATOM      2  C   UNL     1      80.576  63.752  74.188  1.00  0.00     0.001 C 
BRANCH   2   3
ATOM      3  C   UNL     1      79.856  64.547  73.059  1.00  0.00     0.000 C 
BRANCH   3   4
ATOM      4  C   UNL     1      80.280  66.041  72.976  1.00  0.00    -0.000 C 
BRANCH   4   5
ATOM      5  C   UNL     1      80.209  66.605  71.529  1.00  0.00    -0.000 C 
BRANCH   5   6
ATOM      6  C   UNL     1      81.498  67.371  71.124  1.00  0.00    -0.003 C 
ATOM      7  C   UNL     1      82.179  68.073  72.319  1.00  0.00     0.004 C 
ENDBRANCH   5   6
ENDBRANCH   4   5
ENDBRANCH   3   4
ENDBRANCH   2   3
ENDBRANCH   1   2
BRANCH   1   8
ATOM      8  C   UNL     1      82.358  64.818  75.764  1.00  0.00     0.100 C 
BRANCH   8   9
ATOM      9  C   UNL     1      83.573  64.221  76.368  1.00  0.00     0.220 C 
ATOM     10  O   UNL     1      83.879  63.046  76.052  1.00  0.00    -0.275 OA
ATOM     11  N   UNL     1      84.352  64.946  77.223  1.00  0.00    -0.352 N 
ATOM     12  H   UNL     1      83.969  65.846  77.475  1.00  0.00     0.163 HD
BRANCH  11  13
ATOM     13  C   UNL     1      85.615  64.536  77.757  1.00  0.00     0.151 C 
BRANCH  13  14
ATOM     14  C   UNL     1      85.713  64.663  79.235  1.00  0.00    -0.025 A 
ATOM     15  C   UNL     1      86.398  65.760  79.812  1.00  0.00     0.056 A 
ATOM     16  C   UNL     1      85.131  63.697  80.088  1.00  0.00     0.009 A 
ATOM     17  C   UNL     1      86.485  65.904  81.215  1.00  0.00     0.160 A 
ATOM     18  C   UNL     1      85.213  63.835  81.486  1.00  0.00     0.050 A 
ATOM     19  C   UNL     1      85.894  64.930  82.052  1.00  0.00     0.157 A 
BRANCH  17  20
ATOM     20  O   UNL     1      87.185  66.944  81.772  1.00  0.00    -0.493 OA
ATOM     21  C   UNL     1      87.645  67.920  80.820  1.00  0.00     0.278 C 
ENDBRANCH  17  20
BRANCH  19  22
ATOM     22  O   UNL     1      85.991  65.040  83.402  1.00  0.00    -0.504 OA
ATOM     23  H   UNL     1      85.116  64.976  83.792  1.00  0.00     0.293 HD
ENDBRANCH  19  22
ENDBRANCH  13  14
ENDBRANCH  11  13
ENDBRANCH   8   9
ENDBRANCH   1   8
TORSDOF 11
ENDMDL
MODEL 8
REMARK VINA RESULT:    -5.368      2.784      3.682
REMARK INTER + INTRA:          -9.218
REMARK INTER:                  -8.662
REMARK INTRA:                  -0.556
REMARK UNBOUND:                -0.556
REMARK SMILES CCCCCCCCC(=O)NCc1ccc(O)c(OC)c1
REMARK SMILES IDX 7 1 6 2 5 3 4 4 3 5 2 6 1 7 8 8 9 9 10 10 11 11 12 13 13 14
REMARK SMILES IDX 21 15 14 16 18 17 15 18 16 19 19 20 20 21 17 22
REMARK H PARENT 11 12 17 23
REMARK Flexibility Score: inf
ROOT
ATOM      1  C   UNL     1      96.524  96.129  74.422  1.00  0.00     0.010 C 
ENDROOT
BRANCH   1   2
ATOM      2  C   UNL     1      96.768  96.711  73.000  1.00  0.00     0.001 C 
BRANCH   2   3
ATOM      3  C   UNL     1      97.858  95.920  72.218  1.00  0.00     0.000 C 
BRANCH   3   4
ATOM      4  C   UNL     1      97.474  95.612  70.744  1.00  0.00    -0.000 C 
BRANCH   4   5
ATOM      5  C   UNL     1      98.645  95.868  69.752  1.00  0.00    -0.000 C 
BRANCH   5   6
ATOM      6  C   UNL     1      99.944  96.323  70.470  1.00  0.00    -0.003 C 
ATOM      7  C   UNL     1     101.218  96.028  69.648  1.00  0.00     0.004 C 
ENDBRANCH   5   6
ENDBRANCH   4   5
ENDBRANCH   3   4
ENDBRANCH   2   3
ENDBRANCH   1   2
BRANCH   1   8
ATOM      8  C   UNL     1      95.031  96.126  74.854  1.00  0.00     0.100 C 
BRANCH   8   9
ATOM      9  C   UNL     1      94.681  94.881  75.578  1.00  0.00     0.220 C 
ATOM     10  O   UNL     1      95.463  93.904  75.494  1.00  0.00    -0.275 OA
ATOM     11  N   UNL     1      93.549  94.815  76.338  1.00  0.00    -0.352 N 
ATOM     12  H   UNL     1      92.950  95.624  76.266  1.00  0.00     0.163 HD
BRANCH  11  13
ATOM     13  C   UNL     1      93.176  93.728  77.191  1.00  0.00     0.151 C 
BRANCH  13  14
ATOM     14  C   UNL     1      91.953  93.007  76.747  1.00  0.00    -0.025 A 
ATOM     15  C   UNL     1      91.608  92.969  75.374  1.00  0.00     0.056 A 
ATOM     16  C   UNL     1      91.115  92.354  77.680  1.00  0.00     0.009 A 
ATOM     17  C   UNL     1      90.458  92.273  74.935  1.00  0.00     0.160 A 
ATOM     18  C   UNL     1      89.971  91.660  77.249  1.00  0.00     0.050 A 
ATOM     19  C   UNL     1      89.635  91.623  75.882  1.00  0.00     0.157 A 
BRANCH  17  20
ATOM     20  O   UNL     1      90.102  92.272  73.610  1.00  0.00    -0.493 OA
ATOM     21  C   UNL     1      90.728  91.236  72.833  1.00  0.00     0.278 C 
ENDBRANCH  17  20
BRANCH  19  22
ATOM     22  O   UNL     1      88.513  90.973  75.480  1.00  0.00    -0.504 OA
ATOM     23  H   UNL     1      88.699  90.482  74.676  1.00  0.00     0.293 HD
ENDBRANCH  19  22
ENDBRANCH  13  14
ENDBRANCH  11  13
ENDBRANCH   8   9
ENDBRANCH   1   8
TORSDOF 11
ENDMDL
MODEL 9
REMARK VINA RESULT:    -5.354     25.882     29.334
REMARK INTER + INTRA:          -9.196
REMARK INTER:                  -7.983
REMARK INTRA:                  -1.213
REMARK UNBOUND:                -0.556
REMARK SMILES CCCCCCCCC(=O)NCc1ccc(O)c(OC)c1
REMARK SMILES IDX 7 1 6 2 5 3 4 4 3 5 2 6 1 7 8 8 9 9 10 10 11 11 12 13 13 14
REMARK SMILES IDX 21 15 14 16 18 17 15 18 16 19 19 20 20 21 17 22
REMARK H PARENT 11 12 17 23
REMARK Flexibility Score: inf
ROOT
ATOM      1  C   UNL     1      81.349  67.311  71.171  1.00  0.00     0.010 C 
ENDROOT
BRANCH   1   2
ATOM      2  C   UNL     1      80.397  66.115  71.457  1.00  0.00     0.001 C 
BRANCH   2   3
ATOM      3  C   UNL     1      80.115  65.937  72.978  1.00  0.00     0.000 C 
BRANCH   3   4
ATOM      4  C   UNL     1      80.098  64.454  73.443  1.00  0.00    -0.000 C 
BRANCH   4   5
ATOM      5  C   UNL     1      80.945  64.217  74.726  1.00  0.00    -0.000 C 
BRANCH   5   6
ATOM      6  C   UNL     1      81.934  65.380  75.009  1.00  0.00    -0.003 C 
ATOM      7  C   UNL     1      81.684  66.061  76.373  1.00  0.00     0.004 C 
ENDBRANCH   5   6
ENDBRANCH   4   5
ENDBRANCH   3   4
ENDBRANCH   2   3
ENDBRANCH   1   2
BRANCH   1   8
ATOM      8  C   UNL     1      81.720  68.137  72.434  1.00  0.00     0.100 C 
BRANCH   8   9
ATOM      9  C   UNL     1      83.182  68.363  72.522  1.00  0.00     0.220 C 
ATOM     10  O   UNL     1      83.659  69.393  71.987  1.00  0.00    -0.275 OA
ATOM     11  N   UNL     1      83.981  67.484  73.195  1.00  0.00    -0.352 N 
ATOM     12  H   UNL     1      83.510  66.649  73.511  1.00  0.00     0.163 HD
BRANCH  11  13
ATOM     13  C   UNL     1      85.374  67.662  73.470  1.00  0.00     0.151 C 
BRANCH  13  14
ATOM     14  C   UNL     1      85.656  68.194  74.829  1.00  0.00    -0.025 A 
ATOM     15  C   UNL     1      85.590  67.341  75.957  1.00  0.00     0.056 A 
ATOM     16  C   UNL     1      85.990  69.555  75.022  1.00  0.00     0.009 A 
ATOM     17  C   UNL     1      85.872  67.829  77.253  1.00  0.00     0.160 A 
ATOM     18  C   UNL     1      86.273  70.046  76.309  1.00  0.00     0.050 A 
ATOM     19  C   UNL     1      86.208  69.191  77.426  1.00  0.00     0.157 A 
BRANCH  17  20
ATOM     20  O   UNL     1      85.766  67.010  78.349  1.00  0.00    -0.493 OA
ATOM     21  C   UNL     1      85.469  65.639  78.033  1.00  0.00     0.278 C 
ENDBRANCH  17  20
BRANCH  19  22
ATOM     22  O   UNL     1      86.455  69.681  78.668  1.00  0.00    -0.504 OA
ATOM     23  H   UNL     1      86.696  68.960  79.254  1.00  0.00     0.293 HD
ENDBRANCH  19  22
ENDBRANCH  13  14
ENDBRANCH  11  13
ENDBRANCH   8   9
ENDBRANCH   1   8
TORSDOF 11
ENDMDL
MODEL 10
REMARK VINA RESULT:    -5.330      2.572      3.452
REMARK INTER + INTRA:          -9.157
REMARK INTER:                  -8.467
REMARK INTRA:                  -0.690
REMARK UNBOUND:                -0.556
REMARK SMILES CCCCCCCCC(=O)NCc1ccc(O)c(OC)c1
REMARK SMILES IDX 7 1 6 2 5 3 4 4 3 5 2 6 1 7 8 8 9 9 10 10 11 11 12 13 13 14
REMARK SMILES IDX 21 15 14 16 18 17 15 18 16 19 19 20 20 21 17 22
REMARK H PARENT 11 12 17 23
REMARK Flexibility Score: inf
ROOT
ATOM      1  C   UNL     1      97.513  96.431  74.394  1.00  0.00     0.010 C 
ENDROOT
BRANCH   1   2
ATOM      2  C   UNL     1      98.070  96.905  73.021  1.00  0.00     0.001 C 
BRANCH   2   3
ATOM      3  C   UNL     1      97.454  96.112  71.831  1.00  0.00     0.000 C 
BRANCH   3   4
ATOM      4  C   UNL     1      96.772  97.013  70.762  1.00  0.00    -0.000 C 
BRANCH   4   5
ATOM      5  C   UNL     1      96.603  96.296  69.392  1.00  0.00    -0.000 C 
BRANCH   5   6
ATOM      6  C   UNL     1      97.482  96.927  68.278  1.00  0.00    -0.003 C 
ATOM      7  C   UNL     1      98.155  98.245  68.719  1.00  0.00     0.004 C 
ENDBRANCH   5   6
ENDBRANCH   4   5
ENDBRANCH   3   4
ENDBRANCH   2   3
ENDBRANCH   1   2
BRANCH   1   8
ATOM      8  C   UNL     1      95.961  96.372  74.457  1.00  0.00     0.100 C 
BRANCH   8   9
ATOM      9  C   UNL     1      95.494  95.131  75.121  1.00  0.00     0.220 C 
ATOM     10  O   UNL     1      96.209  94.104  75.031  1.00  0.00    -0.275 OA
ATOM     11  N   UNL     1      94.330  95.120  75.834  1.00  0.00    -0.352 N 
ATOM     12  H   UNL     1      93.793  95.973  75.768  1.00  0.00     0.163 HD
BRANCH  11  13
ATOM     13  C   UNL     1      93.847  94.034  76.630  1.00  0.00     0.151 C 
BRANCH  13  14
ATOM     14  C   UNL     1      92.652  93.356  76.061  1.00  0.00    -0.025 A 
ATOM     15  C   UNL     1      91.751  92.669  76.909  1.00  0.00     0.056 A 
ATOM     16  C   UNL     1      92.396  93.380  74.670  1.00  0.00     0.009 A 
ATOM     17  C   UNL     1      90.601  92.035  76.385  1.00  0.00     0.160 A 
ATOM     18  C   UNL     1      91.254  92.752  74.142  1.00  0.00     0.050 A 
ATOM     19  C   UNL     1      90.360  92.073  74.993  1.00  0.00     0.157 A 
BRANCH  17  20
ATOM     20  O   UNL     1      89.752  91.334  77.203  1.00  0.00    -0.493 OA
ATOM     21  C   UNL     1      90.247  91.143  78.540  1.00  0.00     0.278 C 
ENDBRANCH  17  20
BRANCH  19  22
ATOM     22  O   UNL     1      89.275  91.446  74.470  1.00  0.00    -0.504 OA
ATOM     23  H   UNL     1      88.514  91.601  75.034  1.00  0.00     0.293 HD
ENDBRANCH  19  22
ENDBRANCH  13  14
ENDBRANCH  11  13
ENDBRANCH   8   9
ENDBRANCH   1   8
TORSDOF 11
ENDMDL
