MODEL 1
REMARK VINA RESULT:    -6.336      0.000      0.000
REMARK INTER + INTRA:         -11.615
REMARK INTER:                 -10.225
REMARK INTRA:                  -1.389
REMARK UNBOUND:                -1.389
REMARK SMILES CCCCCCCCC(=O)NCc1ccc(O)c(OC)c1
REMARK SMILES IDX 7 1 6 2 5 3 4 4 3 5 2 6 1 7 8 8 9 9 10 10 11 11 12 13 13 14
REMARK SMILES IDX 21 15 14 16 18 17 15 18 16 19 19 20 20 21 17 22
REMARK H PARENT 11 12 17 23
REMARK Flexibility Score: inf
ROOT
ATOM      1  C   UNL     1      90.713  87.868  77.330  1.00  0.00     0.010 C 
ENDROOT
BRANCH   1   2
ATOM      2  C   UNL     1      90.461  87.687  75.806  1.00  0.00     0.001 C 
BRANCH   2   3
ATOM      3  C   UNL     1      91.094  88.833  74.963  1.00  0.00     0.000 C 
BRANCH   3   4
ATOM      4  C   UNL     1      90.344  89.121  73.632  1.00  0.00    -0.000 C 
BRANCH   4   5
ATOM      5  C   UNL     1      89.109  90.046  73.828  1.00  0.00    -0.000 C 
BRANCH   5   6
ATOM      6  C   UNL     1      88.935  91.062  72.667  1.00  0.00    -0.003 C 
ATOM      7  C   UNL     1      89.750  90.683  71.411  1.00  0.00     0.004 C 
ENDBRANCH   5   6
ENDBRANCH   4   5
ENDBRANCH   3   4
ENDBRANCH   2   3
ENDBRANCH   1   2
BRANCH   1   8
ATOM      8  C   UNL     1      89.527  88.524  78.091  1.00  0.00     0.100 C 
BRANCH   8   9
ATOM      9  C   UNL     1      89.842  89.920  78.480  1.00  0.00     0.220 C 
ATOM     10  O   UNL     1      90.127  90.155  79.679  1.00  0.00    -0.275 OA
ATOM     11  N   UNL     1      89.847  90.916  77.545  1.00  0.00    -0.352 N 
ATOM     12  H   UNL     1      89.520  90.635  76.633  1.00  0.00     0.163 HD
BRANCH  11  13
ATOM     13  C   UNL     1      90.268  92.266  77.765  1.00  0.00     0.151 C 
BRANCH  13  14
ATOM     14  C   UNL     1      91.436  92.674  76.939  1.00  0.00    -0.025 A 
ATOM     15  C   UNL     1      92.557  93.291  77.545  1.00  0.00     0.056 A 
ATOM     16  C   UNL     1      91.448  92.459  75.541  1.00  0.00     0.009 A 
ATOM     17  C   UNL     1      93.681  93.668  76.775  1.00  0.00     0.160 A 
ATOM     18  C   UNL     1      92.563  92.831  74.770  1.00  0.00     0.050 A 
ATOM     19  C   UNL     1      93.676  93.442  75.380  1.00  0.00     0.157 A 
BRANCH  17  20
ATOM     20  O   UNL     1      94.748  94.304  77.357  1.00  0.00    -0.493 OA
ATOM     21  C   UNL     1      94.674  94.385  78.791  1.00  0.00     0.278 C 
ENDBRANCH  17  20
BRANCH  19  22
ATOM     22  O   UNL     1      94.737  93.822  74.622  1.00  0.00    -0.504 OA
ATOM     23  H   UNL     1      95.349  94.329  75.161  1.00  0.00     0.293 HD
ENDBRANCH  19  22
ENDBRANCH  13  14
ENDBRANCH  11  13
ENDBRANCH   8   9
ENDBRANCH   1   8
TORSDOF 11
ENDMDL
MODEL 2
REMARK VINA RESULT:    -5.903      2.909      6.978
REMARK INTER + INTRA:         -10.916
REMARK INTER:                 -10.141
REMARK INTRA:                  -0.775
REMARK UNBOUND:                -1.389
REMARK SMILES CCCCCCCCC(=O)NCc1ccc(O)c(OC)c1
REMARK SMILES IDX 7 1 6 2 5 3 4 4 3 5 2 6 1 7 8 8 9 9 10 10 11 11 12 13 13 14
REMARK SMILES IDX 21 15 14 16 18 17 15 18 16 19 19 20 20 21 17 22
REMARK H PARENT 11 12 17 23
REMARK Flexibility Score: inf
ROOT
ATOM      1  C   UNL     1      93.381  93.687  76.603  1.00  0.00     0.010 C 
ENDROOT
BRANCH   1   2
ATOM      2  C   UNL     1      94.217  93.843  75.299  1.00  0.00     0.001 C 
BRANCH   2   3
ATOM      3  C   UNL     1      95.404  94.835  75.475  1.00  0.00     0.000 C 
BRANCH   3   4
ATOM      4  C   UNL     1      96.619  94.230  76.233  1.00  0.00    -0.000 C 
BRANCH   4   5
ATOM      5  C   UNL     1      97.587  95.317  76.781  1.00  0.00    -0.000 C 
BRANCH   5   6
ATOM      6  C   UNL     1      96.859  96.379  77.650  1.00  0.00    -0.003 C 
ATOM      7  C   UNL     1      97.013  97.813  77.098  1.00  0.00     0.004 C 
ENDBRANCH   5   6
ENDBRANCH   4   5
ENDBRANCH   3   4
ENDBRANCH   2   3
ENDBRANCH   1   2
BRANCH   1   8
ATOM      8  C   UNL     1      92.131  94.609  76.662  1.00  0.00     0.100 C 
BRANCH   8   9
ATOM      9  C   UNL     1      90.883  93.817  76.783  1.00  0.00     0.220 C 
ATOM     10  O   UNL     1      89.860  94.223  76.181  1.00  0.00    -0.275 OA
ATOM     11  N   UNL     1      90.862  92.661  77.510  1.00  0.00    -0.352 N 
ATOM     12  H   UNL     1      91.711  92.475  78.022  1.00  0.00     0.163 HD
BRANCH  11  13
ATOM     13  C   UNL     1      89.768  91.742  77.587  1.00  0.00     0.151 C 
BRANCH  13  14
ATOM     14  C   UNL     1      90.007  90.461  76.870  1.00  0.00    -0.025 A 
ATOM     15  C   UNL     1      90.197  90.455  75.467  1.00  0.00     0.056 A 
ATOM     16  C   UNL     1      90.045  89.233  77.569  1.00  0.00     0.009 A 
ATOM     17  C   UNL     1      90.442  89.247  74.774  1.00  0.00     0.160 A 
ATOM     18  C   UNL     1      90.290  88.029  76.886  1.00  0.00     0.050 A 
ATOM     19  C   UNL     1      90.481  88.030  75.491  1.00  0.00     0.157 A 
BRANCH  17  20
ATOM     20  O   UNL     1      90.584  89.238  73.410  1.00  0.00    -0.493 OA
ATOM     21  C   UNL     1      90.171  90.457  72.767  1.00  0.00     0.278 C 
ENDBRANCH  17  20
BRANCH  19  22
ATOM     22  O   UNL     1      90.690  86.859  74.837  1.00  0.00    -0.504 OA
ATOM     23  H   UNL     1      91.531  86.895  74.376  1.00  0.00     0.293 HD
ENDBRANCH  19  22
ENDBRANCH  13  14
ENDBRANCH  11  13
ENDBRANCH   8   9
ENDBRANCH   1   8
TORSDOF 11
ENDMDL
MODEL 3
REMARK VINA RESULT:    -5.806      2.969      5.955
REMARK INTER + INTRA:         -10.760
REMARK INTER:                 -10.002
REMARK INTRA:                  -0.758
REMARK UNBOUND:                -1.389
REMARK SMILES CCCCCCCCC(=O)NCc1ccc(O)c(OC)c1
REMARK SMILES IDX 7 1 6 2 5 3 4 4 3 5 2 6 1 7 8 8 9 9 10 10 11 11 12 13 13 14
REMARK SMILES IDX 21 15 14 16 18 17 15 18 16 19 19 20 20 21 17 22
REMARK H PARENT 11 12 17 23
REMARK Flexibility Score: inf
ROOT
ATOM      1  C   UNL     1      91.671  94.725  76.534  1.00  0.00     0.010 C 
ENDROOT
BRANCH   1   2
ATOM      2  C   UNL     1      90.207  94.221  76.384  1.00  0.00     0.001 C 
BRANCH   2   3
ATOM      3  C   UNL     1      89.921  92.969  77.265  1.00  0.00     0.000 C 
BRANCH   3   4
ATOM      4  C   UNL     1      89.510  91.710  76.450  1.00  0.00    -0.000 C 
BRANCH   4   5
ATOM      5  C   UNL     1      90.525  90.542  76.597  1.00  0.00    -0.000 C 
BRANCH   5   6
ATOM      6  C   UNL     1      89.858  89.232  77.095  1.00  0.00    -0.003 C 
ATOM      7  C   UNL     1      90.606  87.963  76.630  1.00  0.00     0.004 C 
ENDBRANCH   5   6
ENDBRANCH   4   5
ENDBRANCH   3   4
ENDBRANCH   2   3
ENDBRANCH   1   2
BRANCH   1   8
ATOM      8  C   UNL     1      92.572  94.418  75.305  1.00  0.00     0.100 C 
BRANCH   8   9
ATOM      9  C   UNL     1      93.998  94.699  75.597  1.00  0.00     0.220 C 
ATOM     10  O   UNL     1      94.514  95.732  75.107  1.00  0.00    -0.275 OA
ATOM     11  N   UNL     1      94.718  93.865  76.404  1.00  0.00    -0.352 N 
ATOM     12  H   UNL     1      94.233  93.022  76.673  1.00  0.00     0.163 HD
BRANCH  11  13
ATOM     13  C   UNL     1      96.050  94.100  76.872  1.00  0.00     0.151 C 
BRANCH  13  14
ATOM     14  C   UNL     1      96.116  94.916  78.114  1.00  0.00    -0.025 A 
ATOM     15  C   UNL     1      95.550  94.429  79.317  1.00  0.00     0.056 A 
ATOM     16  C   UNL     1      96.737  96.186  78.117  1.00  0.00     0.009 A 
ATOM     17  C   UNL     1      95.620  95.186  80.509  1.00  0.00     0.160 A 
ATOM     18  C   UNL     1      96.811  96.943  79.300  1.00  0.00     0.050 A 
ATOM     19  C   UNL     1      96.248  96.451  80.494  1.00  0.00     0.157 A 
BRANCH  17  20
ATOM     20  O   UNL     1      95.034  94.731  81.664  1.00  0.00    -0.493 OA
ATOM     21  C   UNL     1      95.586  93.498  82.158  1.00  0.00     0.278 C 
ENDBRANCH  17  20
BRANCH  19  22
ATOM     22  O   UNL     1      96.301  97.202  81.624  1.00  0.00    -0.504 OA
ATOM     23  H   UNL     1      95.632  96.896  82.242  1.00  0.00     0.293 HD
ENDBRANCH  19  22
ENDBRANCH  13  14
ENDBRANCH  11  13
ENDBRANCH   8   9
ENDBRANCH   1   8
TORSDOF 11
ENDMDL
MODEL 4
REMARK VINA RESULT:    -5.713      2.474      7.934
REMARK INTER + INTRA:         -10.609
REMARK INTER:                  -9.927
REMARK INTRA:                  -0.682
REMARK UNBOUND:                -1.389
REMARK SMILES CCCCCCCCC(=O)NCc1ccc(O)c(OC)c1
REMARK SMILES IDX 7 1 6 2 5 3 4 4 3 5 2 6 1 7 8 8 9 9 10 10 11 11 12 13 13 14
REMARK SMILES IDX 21 15 14 16 18 17 15 18 16 19 19 20 20 21 17 22
REMARK H PARENT 11 12 17 23
REMARK Flexibility Score: inf
ROOT
ATOM      1  C   UNL     1      96.359  94.969  76.518  1.00  0.00     0.010 C 
ENDROOT
BRANCH   1   2
ATOM      2  C   UNL     1      95.697  94.269  77.740  1.00  0.00     0.001 C 
BRANCH   2   3
ATOM      3  C   UNL     1      96.025  94.989  79.081  1.00  0.00     0.000 C 
BRANCH   3   4
ATOM      4  C   UNL     1      95.550  94.212  80.342  1.00  0.00    -0.000 C 
BRANCH   4   5
ATOM      5  C   UNL     1      95.527  95.099  81.619  1.00  0.00    -0.000 C 
BRANCH   5   6
ATOM      6  C   UNL     1      95.889  96.580  81.323  1.00  0.00    -0.003 C 
ATOM      7  C   UNL     1      96.853  97.182  82.369  1.00  0.00     0.004 C 
ENDBRANCH   5   6
ENDBRANCH   4   5
ENDBRANCH   3   4
ENDBRANCH   2   3
ENDBRANCH   1   2
BRANCH   1   8
ATOM      8  C   UNL     1      95.846  94.456  75.144  1.00  0.00     0.100 C 
BRANCH   8   9
ATOM      9  C   UNL     1      94.365  94.469  75.081  1.00  0.00     0.220 C 
ATOM     10  O   UNL     1      93.778  95.577  75.118  1.00  0.00    -0.275 OA
ATOM     11  N   UNL     1      93.665  93.303  74.957  1.00  0.00    -0.352 N 
ATOM     12  H   UNL     1      94.229  92.469  75.025  1.00  0.00     0.163 HD
BRANCH  11  13
ATOM     13  C   UNL     1      92.254  93.194  74.746  1.00  0.00     0.151 C 
BRANCH  13  14
ATOM     14  C   UNL     1      91.570  92.292  75.711  1.00  0.00    -0.025 A 
ATOM     15  C   UNL     1      91.237  90.968  75.336  1.00  0.00     0.056 A 
ATOM     16  C   UNL     1      91.237  92.737  77.012  1.00  0.00     0.009 A 
ATOM     17  C   UNL     1      90.602  90.094  76.248  1.00  0.00     0.160 A 
ATOM     18  C   UNL     1      90.607  91.872  77.924  1.00  0.00     0.050 A 
ATOM     19  C   UNL     1      90.281  90.556  77.545  1.00  0.00     0.157 A 
BRANCH  17  20
ATOM     20  O   UNL     1      90.242  88.826  75.869  1.00  0.00    -0.493 OA
ATOM     21  C   UNL     1      91.183  88.185  74.989  1.00  0.00     0.278 C 
ENDBRANCH  17  20
BRANCH  19  22
ATOM     22  O   UNL     1      89.648  89.737  78.424  1.00  0.00    -0.504 OA
ATOM     23  H   UNL     1      89.880  88.825  78.236  1.00  0.00     0.293 HD
ENDBRANCH  19  22
ENDBRANCH  13  14
ENDBRANCH  11  13
ENDBRANCH   8   9
ENDBRANCH   1   8
TORSDOF 11
ENDMDL
MODEL 5
REMARK VINA RESULT:    -5.633      2.281      4.005
REMARK INTER + INTRA:         -10.480
REMARK INTER:                  -9.464
REMARK INTRA:                  -1.016
REMARK UNBOUND:                -1.389
REMARK SMILES CCCCCCCCC(=O)NCc1ccc(O)c(OC)c1
REMARK SMILES IDX 7 1 6 2 5 3 4 4 3 5 2 6 1 7 8 8 9 9 10 10 11 11 12 13 13 14
REMARK SMILES IDX 21 15 14 16 18 17 15 18 16 19 19 20 20 21 17 22
REMARK H PARENT 11 12 17 23
REMARK Flexibility Score: inf
ROOT
ATOM      1  C   UNL     1      90.971  91.965  73.315  1.00  0.00     0.010 C 
ENDROOT
BRANCH   1   2
ATOM      2  C   UNL     1      90.355  91.324  72.039  1.00  0.00     0.001 C 
BRANCH   2   3
ATOM      3  C   UNL     1      89.504  90.061  72.366  1.00  0.00     0.000 C 
BRANCH   3   4
ATOM      4  C   UNL     1      89.379  89.766  73.887  1.00  0.00    -0.000 C 
BRANCH   4   5
ATOM      5  C   UNL     1      90.243  88.553  74.336  1.00  0.00    -0.000 C 
BRANCH   5   6
ATOM      6  C   UNL     1      90.738  88.684  75.802  1.00  0.00    -0.003 C 
ATOM      7  C   UNL     1      90.341  90.028  76.452  1.00  0.00     0.004 C 
ENDBRANCH   5   6
ENDBRANCH   4   5
ENDBRANCH   3   4
ENDBRANCH   2   3
ENDBRANCH   1   2
BRANCH   1   8
ATOM      8  C   UNL     1      90.285  93.291  73.747  1.00  0.00     0.100 C 
BRANCH   8   9
ATOM      9  C   UNL     1      90.692  93.688  75.117  1.00  0.00     0.220 C 
ATOM     10  O   UNL     1      89.904  94.394  75.791  1.00  0.00    -0.275 OA
ATOM     11  N   UNL     1      91.883  93.269  75.635  1.00  0.00    -0.352 N 
ATOM     12  H   UNL     1      92.476  92.781  74.980  1.00  0.00     0.163 HD
BRANCH  11  13
ATOM     13  C   UNL     1      92.323  93.465  76.983  1.00  0.00     0.151 C 
BRANCH  13  14
ATOM     14  C   UNL     1      93.686  94.050  77.091  1.00  0.00    -0.025 A 
ATOM     15  C   UNL     1      94.323  94.144  78.352  1.00  0.00     0.056 A 
ATOM     16  C   UNL     1      94.366  94.525  75.946  1.00  0.00     0.009 A 
ATOM     17  C   UNL     1      95.626  94.682  78.468  1.00  0.00     0.160 A 
ATOM     18  C   UNL     1      95.662  95.061  76.055  1.00  0.00     0.050 A 
ATOM     19  C   UNL     1      96.291  95.148  77.312  1.00  0.00     0.157 A 
BRANCH  17  20
ATOM     20  O   UNL     1      96.224  94.811  79.696  1.00  0.00    -0.493 OA
ATOM     21  C   UNL     1      95.489  95.624  80.627  1.00  0.00     0.278 C 
ENDBRANCH  17  20
BRANCH  19  22
ATOM     22  O   UNL     1      97.531  95.692  77.410  1.00  0.00    -0.504 OA
ATOM     23  H   UNL     1      97.484  96.632  77.220  1.00  0.00     0.293 HD
ENDBRANCH  19  22
ENDBRANCH  13  14
ENDBRANCH  11  13
ENDBRANCH   8   9
ENDBRANCH   1   8
TORSDOF 11
ENDMDL
MODEL 6
REMARK VINA RESULT:    -5.626      2.926      7.505
REMARK INTER + INTRA:         -10.469
REMARK INTER:                  -9.731
REMARK INTRA:                  -0.738
REMARK UNBOUND:                -1.389
REMARK SMILES CCCCCCCCC(=O)NCc1ccc(O)c(OC)c1
REMARK SMILES IDX 7 1 6 2 5 3 4 4 3 5 2 6 1 7 8 8 9 9 10 10 11 11 12 13 13 14
REMARK SMILES IDX 21 15 14 16 18 17 15 18 16 19 19 20 20 21 17 22
REMARK H PARENT 11 12 17 23
REMARK Flexibility Score: inf
ROOT
ATOM      1  C   UNL     1      95.485  94.449  75.343  1.00  0.00     0.010 C 
ENDROOT
BRANCH   1   2
ATOM      2  C   UNL     1      96.280  94.756  76.644  1.00  0.00     0.001 C 
BRANCH   2   3
ATOM      3  C   UNL     1      95.935  93.762  77.793  1.00  0.00     0.000 C 
BRANCH   3   4
ATOM      4  C   UNL     1      95.080  94.391  78.929  1.00  0.00    -0.000 C 
BRANCH   4   5
ATOM      5  C   UNL     1      95.787  94.336  80.313  1.00  0.00    -0.000 C 
BRANCH   5   6
ATOM      6  C   UNL     1      95.261  95.417  81.295  1.00  0.00    -0.003 C 
ATOM      7  C   UNL     1      96.098  96.715  81.264  1.00  0.00     0.004 C 
ENDBRANCH   5   6
ENDBRANCH   4   5
ENDBRANCH   3   4
ENDBRANCH   2   3
ENDBRANCH   1   2
BRANCH   1   8
ATOM      8  C   UNL     1      94.078  95.109  75.295  1.00  0.00     0.100 C 
BRANCH   8   9
ATOM      9  C   UNL     1      93.003  94.098  75.434  1.00  0.00     0.220 C 
ATOM     10  O   UNL     1      93.331  92.895  75.571  1.00  0.00    -0.275 OA
ATOM     11  N   UNL     1      91.691  94.477  75.442  1.00  0.00    -0.352 N 
ATOM     12  H   UNL     1      91.537  95.454  75.238  1.00  0.00     0.163 HD
BRANCH  11  13
ATOM     13  C   UNL     1      90.575  93.622  75.709  1.00  0.00     0.151 C 
BRANCH  13  14
ATOM     14  C   UNL     1      90.158  92.796  74.544  1.00  0.00    -0.025 A 
ATOM     15  C   UNL     1      90.000  91.397  74.682  1.00  0.00     0.056 A 
ATOM     16  C   UNL     1      89.917  93.389  73.283  1.00  0.00     0.009 A 
ATOM     17  C   UNL     1      89.588  90.602  73.588  1.00  0.00     0.160 A 
ATOM     18  C   UNL     1      89.505  92.604  72.191  1.00  0.00     0.050 A 
ATOM     19  C   UNL     1      89.347  91.212  72.337  1.00  0.00     0.157 A 
BRANCH  17  20
ATOM     20  O   UNL     1      89.476  89.240  73.714  1.00  0.00    -0.493 OA
ATOM     21  C   UNL     1      90.649  88.600  74.247  1.00  0.00     0.278 C 
ENDBRANCH  17  20
BRANCH  19  22
ATOM     22  O   UNL     1      88.976  90.459  71.270  1.00  0.00    -0.504 OA
ATOM     23  H   UNL     1      89.756  90.075  70.862  1.00  0.00     0.293 HD
ENDBRANCH  19  22
ENDBRANCH  13  14
ENDBRANCH  11  13
ENDBRANCH   8   9
ENDBRANCH   1   8
TORSDOF 11
ENDMDL
MODEL 7
REMARK VINA RESULT:    -5.393     23.530     26.711
REMARK INTER + INTRA:         -10.092
REMARK INTER:                  -8.208
REMARK INTRA:                  -1.884
REMARK UNBOUND:                -1.389
REMARK SMILES CCCCCCCCC(=O)NCc1ccc(O)c(OC)c1
REMARK SMILES IDX 7 1 6 2 5 3 4 4 3 5 2 6 1 7 8 8 9 9 10 10 11 11 12 13 13 14
REMARK SMILES IDX 21 15 14 16 18 17 15 18 16 19 19 20 20 21 17 22
REMARK H PARENT 11 12 17 23
REMARK Flexibility Score: inf
ROOT
ATOM      1  C   UNL     1      83.200  64.584  76.986  1.00  0.00     0.010 C 
ENDROOT
BRANCH   1   2
ATOM      2  C   UNL     1      81.809  65.118  76.537  1.00  0.00     0.001 C 
BRANCH   2   3
ATOM      3  C   UNL     1      81.872  66.600  76.063  1.00  0.00     0.000 C 
BRANCH   3   4
ATOM      4  C   UNL     1      81.468  66.801  74.575  1.00  0.00    -0.000 C 
BRANCH   4   5
ATOM      5  C   UNL     1      80.106  66.136  74.229  1.00  0.00    -0.000 C 
BRANCH   5   6
ATOM      6  C   UNL     1      80.255  64.957  73.230  1.00  0.00    -0.003 C 
ATOM      7  C   UNL     1      79.891  63.592  73.854  1.00  0.00     0.004 C 
ENDBRANCH   5   6
ENDBRANCH   4   5
ENDBRANCH   3   4
ENDBRANCH   2   3
ENDBRANCH   1   2
BRANCH   1   8
ATOM      8  C   UNL     1      83.783  63.486  76.054  1.00  0.00     0.100 C 
BRANCH   8   9
ATOM      9  C   UNL     1      84.434  64.080  74.862  1.00  0.00     0.220 C 
ATOM     10  O   UNL     1      85.620  64.475  74.966  1.00  0.00    -0.275 OA
ATOM     11  N   UNL     1      83.764  64.165  73.675  1.00  0.00    -0.352 N 
ATOM     12  H   UNL     1      82.791  63.899  73.725  1.00  0.00     0.163 HD
BRANCH  11  13
ATOM     13  C   UNL     1      84.324  64.584  72.427  1.00  0.00     0.151 C 
BRANCH  13  14
ATOM     14  C   UNL     1      84.027  66.000  72.080  1.00  0.00    -0.025 A 
ATOM     15  C   UNL     1      84.764  67.049  72.679  1.00  0.00     0.056 A 
ATOM     16  C   UNL     1      83.008  66.323  71.154  1.00  0.00     0.009 A 
ATOM     17  C   UNL     1      84.505  68.399  72.345  1.00  0.00     0.160 A 
ATOM     18  C   UNL     1      82.746  67.663  70.817  1.00  0.00     0.050 A 
ATOM     19  C   UNL     1      83.485  68.702  71.415  1.00  0.00     0.157 A 
BRANCH  17  20
ATOM     20  O   UNL     1      85.191  69.417  72.958  1.00  0.00    -0.493 OA
ATOM     21  C   UNL     1      86.539  69.586  72.486  1.00  0.00     0.278 C 
ENDBRANCH  17  20
BRANCH  19  22
ATOM     22  O   UNL     1      83.206  69.994  71.104  1.00  0.00    -0.504 OA
ATOM     23  H   UNL     1      83.780  70.282  70.390  1.00  0.00     0.293 HD
ENDBRANCH  19  22
ENDBRANCH  13  14
ENDBRANCH  11  13
ENDBRANCH   8   9
ENDBRANCH   1   8
TORSDOF 11
ENDMDL
MODEL 8
REMARK VINA RESULT:    -5.383      2.813      7.967
REMARK INTER + INTRA:         -10.077
REMARK INTER:                  -9.451
REMARK INTRA:                  -0.626
REMARK UNBOUND:                -1.389
REMARK SMILES CCCCCCCCC(=O)NCc1ccc(O)c(OC)c1
REMARK SMILES IDX 7 1 6 2 5 3 4 4 3 5 2 6 1 7 8 8 9 9 10 10 11 11 12 13 13 14
REMARK SMILES IDX 21 15 14 16 18 17 15 18 16 19 19 20 20 21 17 22
REMARK H PARENT 11 12 17 23
REMARK Flexibility Score: inf
ROOT
ATOM      1  C   UNL     1      96.439  94.965  77.757  1.00  0.00     0.010 C 
ENDROOT
BRANCH   1   2
ATOM      2  C   UNL     1      95.863  95.208  79.181  1.00  0.00     0.001 C 
BRANCH   2   3
ATOM      3  C   UNL     1      95.889  93.920  80.056  1.00  0.00     0.000 C 
BRANCH   3   4
ATOM      4  C   UNL     1      96.123  94.194  81.569  1.00  0.00    -0.000 C 
BRANCH   4   5
ATOM      5  C   UNL     1      95.381  95.466  82.070  1.00  0.00    -0.000 C 
BRANCH   5   6
ATOM      6  C   UNL     1      96.354  96.553  82.601  1.00  0.00    -0.003 C 
ATOM      7  C   UNL     1      96.337  97.842  81.750  1.00  0.00     0.004 C 
ENDBRANCH   5   6
ENDBRANCH   4   5
ENDBRANCH   3   4
ENDBRANCH   2   3
ENDBRANCH   1   2
BRANCH   1   8
ATOM      8  C   UNL     1      95.954  93.643  77.099  1.00  0.00     0.100 C 
BRANCH   8   9
ATOM      9  C   UNL     1      95.192  93.907  75.854  1.00  0.00     0.220 C 
ATOM     10  O   UNL     1      95.828  94.257  74.831  1.00  0.00    -0.275 OA
ATOM     11  N   UNL     1      93.837  93.744  75.822  1.00  0.00    -0.352 N 
ATOM     12  H   UNL     1      93.419  93.545  76.719  1.00  0.00     0.163 HD
BRANCH  11  13
ATOM     13  C   UNL     1      93.013  93.829  74.656  1.00  0.00     0.151 C 
BRANCH  13  14
ATOM     14  C   UNL     1      91.838  92.918  74.681  1.00  0.00    -0.025 A 
ATOM     15  C   UNL     1      91.792  91.841  75.599  1.00  0.00     0.056 A 
ATOM     16  C   UNL     1      90.753  93.105  73.794  1.00  0.00     0.009 A 
ATOM     17  C   UNL     1      90.674  90.976  75.647  1.00  0.00     0.160 A 
ATOM     18  C   UNL     1      89.638  92.249  73.837  1.00  0.00     0.050 A 
ATOM     19  C   UNL     1      89.597  91.181  74.754  1.00  0.00     0.157 A 
BRANCH  17  20
ATOM     20  O   UNL     1      90.650  89.908  76.508  1.00  0.00    -0.493 OA
ATOM     21  C   UNL     1      89.932  90.153  77.730  1.00  0.00     0.278 C 
ENDBRANCH  17  20
BRANCH  19  22
ATOM     22  O   UNL     1      88.529  90.344  74.770  1.00  0.00    -0.504 OA
ATOM     23  H   UNL     1      88.208  90.219  73.873  1.00  0.00     0.293 HD
ENDBRANCH  19  22
ENDBRANCH  13  14
ENDBRANCH  11  13
ENDBRANCH   8   9
ENDBRANCH   1   8
TORSDOF 11
ENDMDL
MODEL 9
REMARK VINA RESULT:    -5.321      2.306      4.473
REMARK INTER + INTRA:          -9.977
REMARK INTER:                  -8.992
REMARK INTRA:                  -0.985
REMARK UNBOUND:                -1.389
REMARK SMILES CCCCCCCCC(=O)NCc1ccc(O)c(OC)c1
REMARK SMILES IDX 7 1 6 2 5 3 4 4 3 5 2 6 1 7 8 8 9 9 10 10 11 11 12 13 13 14
REMARK SMILES IDX 21 15 14 16 18 17 15 18 16 19 19 20 20 21 17 22
REMARK H PARENT 11 12 17 23
REMARK Flexibility Score: inf
ROOT
ATOM      1  C   UNL     1      91.523  91.931  73.490  1.00  0.00     0.010 C 
ENDROOT
BRANCH   1   2
ATOM      2  C   UNL     1      90.605  91.086  72.561  1.00  0.00     0.001 C 
BRANCH   2   3
ATOM      3  C   UNL     1      89.829  89.985  73.343  1.00  0.00     0.000 C 
BRANCH   3   4
ATOM      4  C   UNL     1      90.379  89.727  74.774  1.00  0.00    -0.000 C 
BRANCH   4   5
ATOM      5  C   UNL     1      89.403  90.202  75.887  1.00  0.00    -0.000 C 
BRANCH   5   6
ATOM      6  C   UNL     1      90.010  90.067  77.310  1.00  0.00    -0.003 C 
ATOM      7  C   UNL     1      90.079  91.413  78.064  1.00  0.00     0.004 C 
ENDBRANCH   5   6
ENDBRANCH   4   5
ENDBRANCH   3   4
ENDBRANCH   2   3
ENDBRANCH   1   2
BRANCH   1   8
ATOM      8  C   UNL     1      90.929  93.316  73.870  1.00  0.00     0.100 C 
BRANCH   8   9
ATOM      9  C   UNL     1      91.249  93.674  75.273  1.00  0.00     0.220 C 
ATOM     10  O   UNL     1      90.396  94.312  75.935  1.00  0.00    -0.275 OA
ATOM     11  N   UNL     1      92.434  93.290  75.834  1.00  0.00    -0.352 N 
ATOM     12  H   UNL     1      93.080  92.859  75.189  1.00  0.00     0.163 HD
BRANCH  11  13
ATOM     13  C   UNL     1      92.798  93.449  77.208  1.00  0.00     0.151 C 
BRANCH  13  14
ATOM     14  C   UNL     1      94.075  94.186  77.410  1.00  0.00    -0.025 A 
ATOM     15  C   UNL     1      94.663  94.899  76.338  1.00  0.00     0.056 A 
ATOM     16  C   UNL     1      94.723  94.186  78.667  1.00  0.00     0.009 A 
ATOM     17  C   UNL     1      95.866  95.618  76.520  1.00  0.00     0.160 A 
ATOM     18  C   UNL     1      95.920  94.900  78.854  1.00  0.00     0.050 A 
ATOM     19  C   UNL     1      96.498  95.610  77.784  1.00  0.00     0.157 A 
BRANCH  17  20
ATOM     20  O   UNL     1      96.457  96.274  75.469  1.00  0.00    -0.493 OA
ATOM     21  C   UNL     1      96.588  95.479  74.278  1.00  0.00     0.278 C 
ENDBRANCH  17  20
BRANCH  19  22
ATOM     22  O   UNL     1      97.668  96.273  77.968  1.00  0.00    -0.504 OA
ATOM     23  H   UNL     1      97.710  97.020  77.365  1.00  0.00     0.293 HD
ENDBRANCH  19  22
ENDBRANCH  13  14
ENDBRANCH  11  13
ENDBRANCH   8   9
ENDBRANCH   1   8
TORSDOF 11
ENDMDL
MODEL 10
REMARK VINA RESULT:    -5.027      3.800      8.213
REMARK INTER + INTRA:          -9.502
REMARK INTER:                  -8.770
REMARK INTRA:                  -0.732
REMARK UNBOUND:                -1.389
REMARK SMILES CCCCCCCCC(=O)NCc1ccc(O)c(OC)c1
REMARK SMILES IDX 7 1 6 2 5 3 4 4 3 5 2 6 1 7 8 8 9 9 10 10 11 11 12 13 13 14
REMARK SMILES IDX 21 15 14 16 18 17 15 18 16 19 19 20 20 21 17 22
REMARK H PARENT 11 12 17 23
REMARK Flexibility Score: inf
ROOT
ATOM      1  C   UNL     1      96.560  95.403  75.571  1.00  0.00     0.010 C 
ENDROOT
BRANCH   1   2
ATOM      2  C   UNL     1      97.440  95.403  76.854  1.00  0.00     0.001 C 
BRANCH   2   3
ATOM      3  C   UNL     1      98.228  96.735  77.027  1.00  0.00     0.000 C 
BRANCH   3   4
ATOM      4  C   UNL     1      99.607  96.746  76.310  1.00  0.00    -0.000 C 
BRANCH   4   5
ATOM      5  C   UNL     1      99.684  97.803  75.171  1.00  0.00    -0.000 C 
BRANCH   5   6
ATOM      6  C   UNL     1      99.228  97.236  73.800  1.00  0.00    -0.003 C 
ATOM      7  C   UNL     1     100.402  96.702  72.951  1.00  0.00     0.004 C 
ENDBRANCH   5   6
ENDBRANCH   4   5
ENDBRANCH   3   4
ENDBRANCH   2   3
ENDBRANCH   1   2
BRANCH   1   8
ATOM      8  C   UNL     1      95.867  94.041  75.284  1.00  0.00     0.100 C 
BRANCH   8   9
ATOM      9  C   UNL     1      94.398  94.136  75.462  1.00  0.00     0.220 C 
ATOM     10  O   UNL     1      93.937  95.112  76.102  1.00  0.00    -0.275 OA
ATOM     11  N   UNL     1      93.571  93.197  74.915  1.00  0.00    -0.352 N 
ATOM     12  H   UNL     1      94.049  92.412  74.497  1.00  0.00     0.163 HD
BRANCH  11  13
ATOM     13  C   UNL     1      92.141  93.253  74.895  1.00  0.00     0.151 C 
BRANCH  13  14
ATOM     14  C   UNL     1      91.490  92.306  75.840  1.00  0.00    -0.025 A 
ATOM     15  C   UNL     1      91.092  91.021  75.400  1.00  0.00     0.056 A 
ATOM     16  C   UNL     1      91.254  92.670  77.186  1.00  0.00     0.009 A 
ATOM     17  C   UNL     1      90.487  90.105  76.291  1.00  0.00     0.160 A 
ATOM     18  C   UNL     1      90.654  91.763  78.077  1.00  0.00     0.050 A 
ATOM     19  C   UNL     1      90.263  90.485  77.633  1.00  0.00     0.157 A 
BRANCH  17  20
ATOM     20  O   UNL     1      90.064  88.876  75.852  1.00  0.00    -0.493 OA
ATOM     21  C   UNL     1      91.088  87.866  75.850  1.00  0.00     0.278 C 
ENDBRANCH  17  20
BRANCH  19  22
ATOM     22  O   UNL     1      89.660  89.626  78.494  1.00  0.00    -0.504 OA
ATOM     23  H   UNL     1      90.327  89.100  78.941  1.00  0.00     0.293 HD
ENDBRANCH  19  22
ENDBRANCH  13  14
ENDBRANCH  11  13
ENDBRANCH   8   9
ENDBRANCH   1   8
TORSDOF 11
ENDMDL
