MODEL 1
REMARK VINA RESULT:    -5.235      0.000      0.000
REMARK INTER + INTRA:         -10.618
REMARK INTER:                  -8.755
REMARK INTRA:                  -1.863
REMARK UNBOUND:                -1.863
REMARK SMILES COc1cc(CNC(=O)CCCCCCCC(C)C)ccc1O
REMARK SMILES IDX 11 1 10 2 8 3 9 4 7 5 6 7 5 8 4 9 20 10 3 11 21 12 22 13
REMARK SMILES IDX 2 14 1 15 23 16 12 18 13 19 14 20 15 21 16 22 17 23 18 24
REMARK SMILES IDX 19 25
REMARK H PARENT 7 6 23 17
REMARK Flexibility Score: inf
ROOT
ATOM      1  C   UNL     1      81.320  66.344  75.772  1.00  0.00     0.010 C 
ENDROOT
BRANCH   1   2
ATOM      2  C   UNL     1      82.213  65.114  75.927  1.00  0.00     0.100 C 
BRANCH   2   3
ATOM      3  C   UNL     1      83.588  65.315  75.311  1.00  0.00     0.220 C 
ATOM      4  O   UNL     1      84.336  64.388  75.016  1.00  0.00    -0.275 OA
ATOM      5  N   UNL     1      83.877  66.661  75.140  1.00  0.00    -0.352 N 
ATOM      6  H   UNL     1      83.198  67.361  75.425  1.00  0.00     0.163 HD
BRANCH   5   7
ATOM      7  C   UNL     1      85.125  67.129  74.580  1.00  0.00     0.151 C 
BRANCH   7   8
ATOM      8  C   UNL     1      84.913  68.214  73.565  1.00  0.00    -0.025 A 
ATOM      9  C   UNL     1      85.207  69.531  73.896  1.00  0.00     0.056 A 
ATOM     10  C   UNL     1      84.425  67.890  72.305  1.00  0.00     0.009 A 
ATOM     11  C   UNL     1      85.010  70.540  72.952  1.00  0.00     0.160 A 
ATOM     12  C   UNL     1      84.227  68.899  71.362  1.00  0.00     0.050 A 
ATOM     13  C   UNL     1      84.519  70.224  71.685  1.00  0.00     0.157 A 
BRANCH  11  14
ATOM     14  O   UNL     1      85.298  71.830  73.280  1.00  0.00    -0.493 OA
ATOM     15  C   UNL     1      86.562  72.075  73.897  1.00  0.00     0.278 C 
ENDBRANCH  11  14
BRANCH  13  16
ATOM     16  O   UNL     1      84.323  71.199  70.755  1.00  0.00    -0.504 OA
ATOM     17  H   UNL     1      84.984  71.101  70.049  1.00  0.00     0.293 HD
ENDBRANCH  13  16
ENDBRANCH   7   8
ENDBRANCH   5   7
ENDBRANCH   2   3
ENDBRANCH   1   2
BRANCH   1  18
ATOM     18  C   UNL     1      80.164  66.138  74.789  1.00  0.00     0.001 C 
BRANCH  18  19
ATOM     19  C   UNL     1      80.469  65.244  73.583  1.00  0.00     0.000 C 
BRANCH  19  20
ATOM     20  C   UNL     1      81.209  65.975  72.459  1.00  0.00     0.000 C 
BRANCH  20  21
ATOM     21  C   UNL     1      82.235  65.097  71.733  1.00  0.00     0.000 C 
BRANCH  21  22
ATOM     22  C   UNL     1      82.405  65.461  70.254  1.00  0.00     0.003 C 
BRANCH  22  23
ATOM     23  C   UNL     1      81.192  66.204  69.661  1.00  0.00    -0.017 C 
ATOM     24  C   UNL     1      80.297  65.216  68.909  1.00  0.00     0.007 C 
ATOM     25  C   UNL     1      81.602  67.341  68.724  1.00  0.00     0.007 C 
ENDBRANCH  22  23
ENDBRANCH  21  22
ENDBRANCH  20  21
ENDBRANCH  19  20
ENDBRANCH  18  19
ENDBRANCH   1  18
TORSDOF 12
ENDMDL
MODEL 2
REMARK VINA RESULT:    -5.218     19.321     22.057
REMARK INTER + INTRA:         -10.590
REMARK INTER:                  -8.766
REMARK INTRA:                  -1.824
REMARK UNBOUND:                -1.863
REMARK SMILES COc1cc(CNC(=O)CCCCCCCC(C)C)ccc1O
REMARK SMILES IDX 11 1 10 2 8 3 9 4 7 5 6 7 5 8 4 9 20 10 3 11 21 12 22 13
REMARK SMILES IDX 2 14 1 15 23 16 12 18 13 19 14 20 15 21 16 22 17 23 18 24
REMARK SMILES IDX 19 25
REMARK H PARENT 7 6 23 17
REMARK Flexibility Score: inf
ROOT
ATOM      1  C   UNL     1      75.076  87.873  64.023  1.00  0.00     0.010 C 
ENDROOT
BRANCH   1   2
ATOM      2  C   UNL     1      75.654  86.903  62.995  1.00  0.00     0.100 C 
BRANCH   2   3
ATOM      3  C   UNL     1      75.960  85.540  63.593  1.00  0.00     0.220 C 
ATOM      4  O   UNL     1      76.436  84.611  62.946  1.00  0.00    -0.275 OA
ATOM      5  N   UNL     1      75.627  85.487  64.938  1.00  0.00    -0.352 N 
ATOM      6  H   UNL     1      75.226  86.306  65.388  1.00  0.00     0.163 HD
BRANCH   5   7
ATOM      7  C   UNL     1      75.810  84.302  65.745  1.00  0.00     0.151 C 
BRANCH   7   8
ATOM      8  C   UNL     1      74.666  83.342  65.598  1.00  0.00    -0.025 A 
ATOM      9  C   UNL     1      73.360  83.810  65.680  1.00  0.00     0.056 A 
ATOM     10  C   UNL     1      74.924  81.994  65.382  1.00  0.00     0.009 A 
ATOM     11  C   UNL     1      72.297  82.917  65.544  1.00  0.00     0.160 A 
ATOM     12  C   UNL     1      73.861  81.101  65.247  1.00  0.00     0.050 A 
ATOM     13  C   UNL     1      72.547  81.562  65.327  1.00  0.00     0.157 A 
BRANCH  11  14
ATOM     14  O   UNL     1      71.018  83.380  65.625  1.00  0.00    -0.493 OA
ATOM     15  C   UNL     1      70.756  84.391  66.597  1.00  0.00     0.278 C 
ENDBRANCH  11  14
BRANCH  13  16
ATOM     16  O   UNL     1      71.518  80.681  65.192  1.00  0.00    -0.504 OA
ATOM     17  H   UNL     1      71.348  80.257  66.052  1.00  0.00     0.293 HD
ENDBRANCH  13  16
ENDBRANCH   7   8
ENDBRANCH   5   7
ENDBRANCH   2   3
ENDBRANCH   1   2
BRANCH   1  18
ATOM     18  C   UNL     1      76.085  88.914  64.515  1.00  0.00     0.001 C 
BRANCH  18  19
ATOM     19  C   UNL     1      75.746  89.589  65.848  1.00  0.00     0.000 C 
BRANCH  19  20
ATOM     20  C   UNL     1      76.875  89.493  66.878  1.00  0.00     0.000 C 
BRANCH  20  21
ATOM     21  C   UNL     1      76.468  88.761  68.162  1.00  0.00     0.000 C 
BRANCH  21  22
ATOM     22  C   UNL     1      76.113  87.288  67.934  1.00  0.00     0.003 C 
BRANCH  22  23
ATOM     23  C   UNL     1      74.812  86.853  68.638  1.00  0.00    -0.017 C 
ATOM     24  C   UNL     1      74.987  85.452  69.229  1.00  0.00     0.007 C 
ATOM     25  C   UNL     1      73.605  86.868  67.699  1.00  0.00     0.007 C 
ENDBRANCH  22  23
ENDBRANCH  21  22
ENDBRANCH  20  21
ENDBRANCH  19  20
ENDBRANCH  18  19
ENDBRANCH   1  18
TORSDOF 12
ENDMDL
MODEL 3
REMARK VINA RESULT:    -5.086     28.025     32.632
REMARK INTER + INTRA:         -10.368
REMARK INTER:                  -9.051
REMARK INTRA:                  -1.317
REMARK UNBOUND:                -1.863
REMARK SMILES COc1cc(CNC(=O)CCCCCCCC(C)C)ccc1O
REMARK SMILES IDX 11 1 10 2 8 3 9 4 7 5 6 7 5 8 4 9 20 10 3 11 21 12 22 13
REMARK SMILES IDX 2 14 1 15 23 16 12 18 13 19 14 20 15 21 16 22 17 23 18 24
REMARK SMILES IDX 19 25
REMARK H PARENT 7 6 23 17
REMARK Flexibility Score: inf
ROOT
ATOM      1  C   UNL     1      96.849  94.334  78.907  1.00  0.00     0.010 C 
ENDROOT
BRANCH   1   2
ATOM      2  C   UNL     1      97.399  94.185  80.324  1.00  0.00     0.100 C 
BRANCH   2   3
ATOM      3  C   UNL     1      96.732  95.133  81.307  1.00  0.00     0.220 C 
ATOM      4  O   UNL     1      95.545  95.060  81.614  1.00  0.00    -0.275 OA
ATOM      5  N   UNL     1      97.626  96.075  81.792  1.00  0.00    -0.352 N 
ATOM      6  H   UNL     1      98.591  96.065  81.471  1.00  0.00     0.163 HD
BRANCH   5   7
ATOM      7  C   UNL     1      97.248  97.102  82.736  1.00  0.00     0.151 C 
BRANCH   7   8
ATOM      8  C   UNL     1      96.915  98.397  82.054  1.00  0.00    -0.025 A 
ATOM      9  C   UNL     1      95.974  99.249  82.619  1.00  0.00     0.056 A 
ATOM     10  C   UNL     1      97.550  98.729  80.864  1.00  0.00     0.009 A 
ATOM     11  C   UNL     1      95.665 100.453  81.985  1.00  0.00     0.160 A 
ATOM     12  C   UNL     1      97.240  99.933  80.230  1.00  0.00     0.050 A 
ATOM     13  C   UNL     1      96.297 100.795  80.790  1.00  0.00     0.157 A 
BRANCH  11  14
ATOM     14  O   UNL     1      94.742 101.286  82.542  1.00  0.00    -0.493 OA
ATOM     15  C   UNL     1      94.950 101.668  83.901  1.00  0.00     0.278 C 
ENDBRANCH  11  14
BRANCH  13  16
ATOM     16  O   UNL     1      96.004 101.967  80.162  1.00  0.00    -0.504 OA
ATOM     17  H   UNL     1      95.580 102.569  80.797  1.00  0.00     0.293 HD
ENDBRANCH  13  16
ENDBRANCH   7   8
ENDBRANCH   5   7
ENDBRANCH   2   3
ENDBRANCH   1   2
BRANCH   1  18
ATOM     18  C   UNL     1      95.918  93.193  78.490  1.00  0.00     0.001 C 
BRANCH  18  19
ATOM     19  C   UNL     1      94.418  93.479  78.618  1.00  0.00     0.000 C 
BRANCH  19  20
ATOM     20  C   UNL     1      94.049  94.930  78.300  1.00  0.00     0.000 C 
BRANCH  20  21
ATOM     21  C   UNL     1      93.312  95.095  76.966  1.00  0.00     0.000 C 
BRANCH  21  22
ATOM     22  C   UNL     1      92.714  93.786  76.439  1.00  0.00     0.003 C 
BRANCH  22  23
ATOM     23  C   UNL     1      91.187  93.690  76.626  1.00  0.00    -0.017 C 
ATOM     24  C   UNL     1      90.595  95.094  76.776  1.00  0.00     0.007 C 
ATOM     25  C   UNL     1      90.797  92.836  77.833  1.00  0.00     0.007 C 
ENDBRANCH  22  23
ENDBRANCH  21  22
ENDBRANCH  20  21
ENDBRANCH  19  20
ENDBRANCH  18  19
ENDBRANCH   1  18
TORSDOF 12
ENDMDL
MODEL 4
REMARK VINA RESULT:    -4.983     27.729     33.271
REMARK INTER + INTRA:         -10.197
REMARK INTER:                  -9.677
REMARK INTRA:                  -0.520
REMARK UNBOUND:                -1.863
REMARK SMILES COc1cc(CNC(=O)CCCCCCCC(C)C)ccc1O
REMARK SMILES IDX 11 1 10 2 8 3 9 4 7 5 6 7 5 8 4 9 20 10 3 11 21 12 22 13
REMARK SMILES IDX 2 14 1 15 23 16 12 18 13 19 14 20 15 21 16 22 17 23 18 24
REMARK SMILES IDX 19 25
REMARK H PARENT 7 6 23 17
REMARK Flexibility Score: inf
ROOT
ATOM      1  C   UNL     1      96.561  97.693  82.016  1.00  0.00     0.010 C 
ENDROOT
BRANCH   1   2
ATOM      2  C   UNL     1      96.670  96.999  80.660  1.00  0.00     0.100 C 
BRANCH   2   3
ATOM      3  C   UNL     1      95.922  95.677  80.625  1.00  0.00     0.220 C 
ATOM      4  O   UNL     1      95.585  95.066  81.635  1.00  0.00    -0.275 OA
ATOM      5  N   UNL     1      95.686  95.259  79.324  1.00  0.00    -0.352 N 
ATOM      6  H   UNL     1      96.014  95.827  78.547  1.00  0.00     0.163 HD
BRANCH   5   7
ATOM      7  C   UNL     1      95.000  94.027  79.009  1.00  0.00     0.151 C 
BRANCH   7   8
ATOM      8  C   UNL     1      93.680  94.276  78.337  1.00  0.00    -0.025 A 
ATOM      9  C   UNL     1      92.698  93.293  78.365  1.00  0.00     0.056 A 
ATOM     10  C   UNL     1      93.455  95.486  77.693  1.00  0.00     0.009 A 
ATOM     11  C   UNL     1      91.473  93.524  77.741  1.00  0.00     0.160 A 
ATOM     12  C   UNL     1      92.229  95.717  77.067  1.00  0.00     0.050 A 
ATOM     13  C   UNL     1      91.238  94.736  77.091  1.00  0.00     0.157 A 
BRANCH  11  14
ATOM     14  O   UNL     1      90.512  92.558  77.771  1.00  0.00    -0.493 OA
ATOM     15  C   UNL     1      90.335  91.784  76.585  1.00  0.00     0.278 C 
ENDBRANCH  11  14
BRANCH  13  16
ATOM     16  O   UNL     1      90.045  94.974  76.478  1.00  0.00    -0.504 OA
ATOM     17  H   UNL     1      90.127  94.762  75.533  1.00  0.00     0.293 HD
ENDBRANCH  13  16
ENDBRANCH   7   8
ENDBRANCH   5   7
ENDBRANCH   2   3
ENDBRANCH   1   2
BRANCH   1  18
ATOM     18  C   UNL     1      96.798  99.204  81.949  1.00  0.00     0.001 C 
BRANCH  18  19
ATOM     19  C   UNL     1      95.552 100.080  82.112  1.00  0.00     0.000 C 
BRANCH  19  20
ATOM     20  C   UNL     1      95.752 101.515  81.617  1.00  0.00     0.000 C 
BRANCH  20  21
ATOM     21  C   UNL     1      94.479 102.144  81.039  1.00  0.00     0.000 C 
BRANCH  21  22
ATOM     22  C   UNL     1      93.382 102.363  82.086  1.00  0.00     0.003 C 
BRANCH  22  23
ATOM     23  C   UNL     1      92.860 103.813  82.135  1.00  0.00    -0.017 C 
ATOM     24  C   UNL     1      94.031 104.789  82.002  1.00  0.00     0.007 C 
ATOM     25  C   UNL     1      92.083 104.113  83.417  1.00  0.00     0.007 C 
ENDBRANCH  22  23
ENDBRANCH  21  22
ENDBRANCH  20  21
ENDBRANCH  19  20
ENDBRANCH  18  19
ENDBRANCH   1  18
TORSDOF 12
ENDMDL
MODEL 5
REMARK VINA RESULT:    -4.949     19.370     21.143
REMARK INTER + INTRA:         -10.139
REMARK INTER:                  -8.711
REMARK INTRA:                  -1.429
REMARK UNBOUND:                -1.863
REMARK SMILES COc1cc(CNC(=O)CCCCCCCC(C)C)ccc1O
REMARK SMILES IDX 11 1 10 2 8 3 9 4 7 5 6 7 5 8 4 9 20 10 3 11 21 12 22 13
REMARK SMILES IDX 2 14 1 15 23 16 12 18 13 19 14 20 15 21 16 22 17 23 18 24
REMARK SMILES IDX 19 25
REMARK H PARENT 7 6 23 17
REMARK Flexibility Score: inf
ROOT
ATOM      1  C   UNL     1      99.662  78.691  81.366  1.00  0.00     0.010 C 
ENDROOT
BRANCH   1   2
ATOM      2  C   UNL     1      99.810  79.855  80.388  1.00  0.00     0.100 C 
BRANCH   2   3
ATOM      3  C   UNL     1      99.406  79.477  78.973  1.00  0.00     0.220 C 
ATOM      4  O   UNL     1     100.206  79.095  78.123  1.00  0.00    -0.275 OA
ATOM      5  N   UNL     1      98.041  79.627  78.775  1.00  0.00    -0.352 N 
ATOM      6  H   UNL     1      97.457  79.962  79.537  1.00  0.00     0.163 HD
BRANCH   5   7
ATOM      7  C   UNL     1      97.397  79.343  77.513  1.00  0.00     0.151 C 
BRANCH   7   8
ATOM      8  C   UNL     1      96.945  80.595  76.819  1.00  0.00    -0.025 A 
ATOM      9  C   UNL     1      97.121  80.722  75.447  1.00  0.00     0.056 A 
ATOM     10  C   UNL     1      96.355  81.615  77.557  1.00  0.00     0.009 A 
ATOM     11  C   UNL     1      96.701  81.886  74.802  1.00  0.00     0.160 A 
ATOM     12  C   UNL     1      95.936  82.779  76.912  1.00  0.00     0.050 A 
ATOM     13  C   UNL     1      96.108  82.915  75.535  1.00  0.00     0.157 A 
BRANCH  11  14
ATOM     14  O   UNL     1      96.875  82.007  73.457  1.00  0.00    -0.493 OA
ATOM     15  C   UNL     1      96.991  80.799  72.707  1.00  0.00     0.278 C 
ENDBRANCH  11  14
BRANCH  13  16
ATOM     16  O   UNL     1      95.694  84.056  74.917  1.00  0.00    -0.504 OA
ATOM     17  H   UNL     1      94.751  84.197  75.112  1.00  0.00     0.293 HD
ENDBRANCH  13  16
ENDBRANCH   7   8
ENDBRANCH   5   7
ENDBRANCH   2   3
ENDBRANCH   1   2
BRANCH   1  18
ATOM     18  C   UNL     1      99.897  79.086  82.826  1.00  0.00     0.001 C 
BRANCH  18  19
ATOM     19  C   UNL     1      98.644  79.471  83.620  1.00  0.00     0.000 C 
BRANCH  19  20
ATOM     20  C   UNL     1      97.375  78.773  83.123  1.00  0.00     0.000 C 
BRANCH  20  21
ATOM     21  C   UNL     1      96.391  79.719  82.428  1.00  0.00     0.000 C 
BRANCH  21  22
ATOM     22  C   UNL     1      96.110  80.996  83.227  1.00  0.00     0.003 C 
BRANCH  22  23
ATOM     23  C   UNL     1      96.747  82.258  82.613  1.00  0.00    -0.017 C 
ATOM     24  C   UNL     1      95.928  83.492  82.999  1.00  0.00     0.007 C 
ATOM     25  C   UNL     1      96.864  82.174  81.091  1.00  0.00     0.007 C 
ENDBRANCH  22  23
ENDBRANCH  21  22
ENDBRANCH  20  21
ENDBRANCH  19  20
ENDBRANCH  18  19
ENDBRANCH   1  18
TORSDOF 12
ENDMDL
MODEL 6
REMARK VINA RESULT:    -4.700     20.467     22.973
REMARK INTER + INTRA:          -9.724
REMARK INTER:                  -7.949
REMARK INTRA:                  -1.774
REMARK UNBOUND:                -1.863
REMARK SMILES COc1cc(CNC(=O)CCCCCCCC(C)C)ccc1O
REMARK SMILES IDX 11 1 10 2 8 3 9 4 7 5 6 7 5 8 4 9 20 10 3 11 21 12 22 13
REMARK SMILES IDX 2 14 1 15 23 16 12 18 13 19 14 20 15 21 16 22 17 23 18 24
REMARK SMILES IDX 19 25
REMARK H PARENT 7 6 23 17
REMARK Flexibility Score: inf
ROOT
ATOM      1  C   UNL     1      71.529  90.224  68.499  1.00  0.00     0.010 C 
ENDROOT
BRANCH   1   2
ATOM      2  C   UNL     1      71.420  88.966  67.640  1.00  0.00     0.100 C 
BRANCH   2   3
ATOM      3  C   UNL     1      71.622  87.694  68.448  1.00  0.00     0.220 C 
ATOM      4  O   UNL     1      70.780  87.246  69.221  1.00  0.00    -0.275 OA
ATOM      5  N   UNL     1      72.864  87.128  68.204  1.00  0.00    -0.352 N 
ATOM      6  H   UNL     1      73.502  87.578  67.553  1.00  0.00     0.163 HD
BRANCH   5   7
ATOM      7  C   UNL     1      73.313  85.916  68.850  1.00  0.00     0.151 C 
BRANCH   7   8
ATOM      8  C   UNL     1      74.577  85.388  68.237  1.00  0.00    -0.025 A 
ATOM      9  C   UNL     1      74.633  85.157  66.868  1.00  0.00     0.056 A 
ATOM     10  C   UNL     1      75.678  85.134  69.045  1.00  0.00     0.009 A 
ATOM     11  C   UNL     1      75.807  84.666  66.298  1.00  0.00     0.160 A 
ATOM     12  C   UNL     1      76.853  84.642  68.475  1.00  0.00     0.050 A 
ATOM     13  C   UNL     1      76.918  84.408  67.102  1.00  0.00     0.157 A 
BRANCH  11  14
ATOM     14  O   UNL     1      75.858  84.441  64.955  1.00  0.00    -0.493 OA
ATOM     15  C   UNL     1      75.089  85.308  64.123  1.00  0.00     0.278 C 
ENDBRANCH  11  14
BRANCH  13  16
ATOM     16  O   UNL     1      78.071  83.928  66.557  1.00  0.00    -0.504 OA
ATOM     17  H   UNL     1      78.385  83.179  67.091  1.00  0.00     0.293 HD
ENDBRANCH  13  16
ENDBRANCH   7   8
ENDBRANCH   5   7
ENDBRANCH   2   3
ENDBRANCH   1   2
BRANCH   1  18
ATOM     18  C   UNL     1      72.488  91.272  67.927  1.00  0.00     0.001 C 
BRANCH  18  19
ATOM     19  C   UNL     1      73.765  91.515  68.738  1.00  0.00     0.000 C 
BRANCH  19  20
ATOM     20  C   UNL     1      74.240  90.277  69.505  1.00  0.00     0.000 C 
BRANCH  20  21
ATOM     21  C   UNL     1      75.318  89.478  68.764  1.00  0.00     0.000 C 
BRANCH  21  22
ATOM     22  C   UNL     1      75.575  89.981  67.340  1.00  0.00     0.003 C 
BRANCH  22  23
ATOM     23  C   UNL     1      76.753  89.273  66.642  1.00  0.00    -0.017 C 
ATOM     24  C   UNL     1      76.261  88.587  65.365  1.00  0.00     0.007 C 
ATOM     25  C   UNL     1      77.438  88.246  67.544  1.00  0.00     0.007 C 
ENDBRANCH  22  23
ENDBRANCH  21  22
ENDBRANCH  20  21
ENDBRANCH  19  20
ENDBRANCH  18  19
ENDBRANCH   1  18
TORSDOF 12
ENDMDL
MODEL 7
REMARK VINA RESULT:    -4.683      1.412      2.807
REMARK INTER + INTRA:          -9.694
REMARK INTER:                  -8.494
REMARK INTRA:                  -1.200
REMARK UNBOUND:                -1.863
REMARK SMILES COc1cc(CNC(=O)CCCCCCCC(C)C)ccc1O
REMARK SMILES IDX 11 1 10 2 8 3 9 4 7 5 6 7 5 8 4 9 20 10 3 11 21 12 22 13
REMARK SMILES IDX 2 14 1 15 23 16 12 18 13 19 14 20 15 21 16 22 17 23 18 24
REMARK SMILES IDX 19 25
REMARK H PARENT 7 6 23 17
REMARK Flexibility Score: inf
ROOT
ATOM      1  C   UNL     1      82.573  63.780  76.576  1.00  0.00     0.010 C 
ENDROOT
BRANCH   1   2
ATOM      2  C   UNL     1      83.495  64.533  75.620  1.00  0.00     0.100 C 
BRANCH   2   3
ATOM      3  C   UNL     1      84.458  65.455  76.350  1.00  0.00     0.220 C 
ATOM      4  O   UNL     1      85.335  65.050  77.107  1.00  0.00    -0.275 OA
ATOM      5  N   UNL     1      84.208  66.788  76.057  1.00  0.00    -0.352 N 
ATOM      6  H   UNL     1      83.450  67.029  75.425  1.00  0.00     0.163 HD
BRANCH   5   7
ATOM      7  C   UNL     1      84.975  67.872  76.626  1.00  0.00     0.151 C 
BRANCH   7   8
ATOM      8  C   UNL     1      85.245  68.956  75.623  1.00  0.00    -0.025 A 
ATOM      9  C   UNL     1      84.913  68.755  74.288  1.00  0.00     0.056 A 
ATOM     10  C   UNL     1      85.824  70.148  76.039  1.00  0.00     0.009 A 
ATOM     11  C   UNL     1      85.164  69.762  73.356  1.00  0.00     0.160 A 
ATOM     12  C   UNL     1      86.075  71.155  75.107  1.00  0.00     0.050 A 
ATOM     13  C   UNL     1      85.746  70.963  73.765  1.00  0.00     0.157 A 
BRANCH  11  14
ATOM     14  O   UNL     1      84.838  69.562  72.049  1.00  0.00    -0.493 OA
ATOM     15  C   UNL     1      85.037  68.250  71.525  1.00  0.00     0.278 C 
ENDBRANCH  11  14
BRANCH  13  16
ATOM     16  O   UNL     1      85.995  71.954  72.865  1.00  0.00    -0.504 OA
ATOM     17  H   UNL     1      85.149  72.333  72.569  1.00  0.00     0.293 HD
ENDBRANCH  13  16
ENDBRANCH   7   8
ENDBRANCH   5   7
ENDBRANCH   2   3
ENDBRANCH   1   2
BRANCH   1  18
ATOM     18  C   UNL     1      81.117  63.728  76.106  1.00  0.00     0.001 C 
BRANCH  18  19
ATOM     19  C   UNL     1      80.272  64.967  76.420  1.00  0.00     0.000 C 
BRANCH  19  20
ATOM     20  C   UNL     1      80.158  65.936  75.240  1.00  0.00     0.000 C 
BRANCH  20  21
ATOM     21  C   UNL     1      80.313  65.257  73.875  1.00  0.00     0.000 C 
BRANCH  21  22
ATOM     22  C   UNL     1      80.816  66.204  72.780  1.00  0.00     0.003 C 
BRANCH  22  23
ATOM     23  C   UNL     1      81.188  65.484  71.469  1.00  0.00    -0.017 C 
ATOM     24  C   UNL     1      82.691  65.197  71.446  1.00  0.00     0.007 C 
ATOM     25  C   UNL     1      80.799  66.288  70.228  1.00  0.00     0.007 C 
ENDBRANCH  22  23
ENDBRANCH  21  22
ENDBRANCH  20  21
ENDBRANCH  19  20
ENDBRANCH  18  19
ENDBRANCH   1  18
TORSDOF 12
ENDMDL
MODEL 8
REMARK VINA RESULT:    -4.492     21.622     23.973
REMARK INTER + INTRA:          -9.376
REMARK INTER:                  -8.373
REMARK INTRA:                  -1.003
REMARK UNBOUND:                -1.863
REMARK SMILES COc1cc(CNC(=O)CCCCCCCC(C)C)ccc1O
REMARK SMILES IDX 11 1 10 2 8 3 9 4 7 5 6 7 5 8 4 9 20 10 3 11 21 12 22 13
REMARK SMILES IDX 2 14 1 15 23 16 12 18 13 19 14 20 15 21 16 22 17 23 18 24
REMARK SMILES IDX 19 25
REMARK H PARENT 7 6 23 17
REMARK Flexibility Score: inf
ROOT
ATOM      1  C   UNL     1      74.500  90.224  69.624  1.00  0.00     0.010 C 
ENDROOT
BRANCH   1   2
ATOM      2  C   UNL     1      73.374  89.226  69.362  1.00  0.00     0.100 C 
BRANCH   2   3
ATOM      3  C   UNL     1      72.062  89.653  69.998  1.00  0.00     0.220 C 
ATOM      4  O   UNL     1      71.970  90.586  70.791  1.00  0.00    -0.275 OA
ATOM      5  N   UNL     1      71.008  88.857  69.575  1.00  0.00    -0.352 N 
ATOM      6  H   UNL     1      71.182  88.097  68.923  1.00  0.00     0.163 HD
BRANCH   5   7
ATOM      7  C   UNL     1      69.651  89.044  70.035  1.00  0.00     0.151 C 
BRANCH   7   8
ATOM      8  C   UNL     1      68.938  87.738  70.228  1.00  0.00    -0.025 A 
ATOM      9  C   UNL     1      69.482  86.573  69.700  1.00  0.00     0.056 A 
ATOM     10  C   UNL     1      67.740  87.706  70.932  1.00  0.00     0.009 A 
ATOM     11  C   UNL     1      68.819  85.359  69.879  1.00  0.00     0.160 A 
ATOM     12  C   UNL     1      67.077  86.491  71.111  1.00  0.00     0.050 A 
ATOM     13  C   UNL     1      67.616  85.318  70.584  1.00  0.00     0.157 A 
BRANCH  11  14
ATOM     14  O   UNL     1      69.355  84.219  69.359  1.00  0.00    -0.493 OA
ATOM     15  C   UNL     1      69.239  84.033  67.950  1.00  0.00     0.278 C 
ENDBRANCH  11  14
BRANCH  13  16
ATOM     16  O   UNL     1      66.960  84.138  70.766  1.00  0.00    -0.504 OA
ATOM     17  H   UNL     1      67.554  83.511  71.212  1.00  0.00     0.293 HD
ENDBRANCH  13  16
ENDBRANCH   7   8
ENDBRANCH   5   7
ENDBRANCH   2   3
ENDBRANCH   1   2
BRANCH   1  18
ATOM     18  C   UNL     1      75.713  90.029  68.710  1.00  0.00     0.001 C 
BRANCH  18  19
ATOM     19  C   UNL     1      75.466  89.203  67.444  1.00  0.00     0.000 C 
BRANCH  19  20
ATOM     20  C   UNL     1      76.725  88.508  66.919  1.00  0.00     0.000 C 
BRANCH  20  21
ATOM     21  C   UNL     1      77.212  87.367  67.819  1.00  0.00     0.000 C 
BRANCH  21  22
ATOM     22  C   UNL     1      77.227  86.005  67.117  1.00  0.00     0.003 C 
BRANCH  22  23
ATOM     23  C   UNL     1      76.327  84.954  67.797  1.00  0.00    -0.017 C 
ATOM     24  C   UNL     1      74.867  85.188  67.400  1.00  0.00     0.007 C 
ATOM     25  C   UNL     1      76.454  84.972  69.321  1.00  0.00     0.007 C 
ENDBRANCH  22  23
ENDBRANCH  21  22
ENDBRANCH  20  21
ENDBRANCH  19  20
ENDBRANCH  18  19
ENDBRANCH   1  18
TORSDOF 12
ENDMDL
MODEL 9
REMARK VINA RESULT:    -4.492     28.285     33.795
REMARK INTER + INTRA:          -9.375
REMARK INTER:                  -8.490
REMARK INTRA:                  -0.885
REMARK UNBOUND:                -1.863
REMARK SMILES COc1cc(CNC(=O)CCCCCCCC(C)C)ccc1O
REMARK SMILES IDX 11 1 10 2 8 3 9 4 7 5 6 7 5 8 4 9 20 10 3 11 21 12 22 13
REMARK SMILES IDX 2 14 1 15 23 16 12 18 13 19 14 20 15 21 16 22 17 23 18 24
REMARK SMILES IDX 19 25
REMARK H PARENT 7 6 23 17
REMARK Flexibility Score: inf
ROOT
ATOM      1  C   UNL     1      96.307  98.071  82.185  1.00  0.00     0.010 C 
ENDROOT
BRANCH   1   2
ATOM      2  C   UNL     1      96.713  97.258  80.958  1.00  0.00     0.100 C 
BRANCH   2   3
ATOM      3  C   UNL     1      96.029  95.901  80.910  1.00  0.00     0.220 C 
ATOM      4  O   UNL     1      95.509  95.374  81.890  1.00  0.00    -0.275 OA
ATOM      5  N   UNL     1      96.080  95.349  79.639  1.00  0.00    -0.352 N 
ATOM      6  H   UNL     1      96.543  95.856  78.890  1.00  0.00     0.163 HD
BRANCH   5   7
ATOM      7  C   UNL     1      95.510  94.060  79.322  1.00  0.00     0.151 C 
BRANCH   7   8
ATOM      8  C   UNL     1      94.242  94.186  78.529  1.00  0.00    -0.025 A 
ATOM      9  C   UNL     1      94.099  95.229  77.622  1.00  0.00     0.056 A 
ATOM     10  C   UNL     1      93.223  93.259  78.712  1.00  0.00     0.009 A 
ATOM     11  C   UNL     1      92.919  95.346  76.886  1.00  0.00     0.160 A 
ATOM     12  C   UNL     1      92.043  93.377  77.976  1.00  0.00     0.050 A 
ATOM     13  C   UNL     1      91.891  94.420  77.063  1.00  0.00     0.157 A 
BRANCH  11  14
ATOM     14  O   UNL     1      92.783  96.369  75.997  1.00  0.00    -0.493 OA
ATOM     15  C   UNL     1      93.608  96.332  74.834  1.00  0.00     0.278 C 
ENDBRANCH  11  14
BRANCH  13  16
ATOM     16  O   UNL     1      90.735  94.523  76.350  1.00  0.00    -0.504 OA
ATOM     17  H   UNL     1      89.981  94.487  76.963  1.00  0.00     0.293 HD
ENDBRANCH  13  16
ENDBRANCH   7   8
ENDBRANCH   5   7
ENDBRANCH   2   3
ENDBRANCH   1   2
BRANCH   1  18
ATOM     18  C   UNL     1      96.414  99.584  81.977  1.00  0.00     0.001 C 
BRANCH  18  19
ATOM     19  C   UNL     1      95.171 100.396  82.358  1.00  0.00     0.000 C 
BRANCH  19  20
ATOM     20  C   UNL     1      95.346 101.903  82.148  1.00  0.00     0.000 C 
BRANCH  20  21
ATOM     21  C   UNL     1      94.985 102.736  83.383  1.00  0.00     0.000 C 
BRANCH  21  22
ATOM     22  C   UNL     1      96.074 102.724  84.462  1.00  0.00     0.003 C 
BRANCH  22  23
ATOM     23  C   UNL     1      95.548 102.347  85.861  1.00  0.00    -0.017 C 
ATOM     24  C   UNL     1      96.627 101.580  86.629  1.00  0.00     0.007 C 
ATOM     25  C   UNL     1      94.269 101.512  85.800  1.00  0.00     0.007 C 
ENDBRANCH  22  23
ENDBRANCH  21  22
ENDBRANCH  20  21
ENDBRANCH  19  20
ENDBRANCH  18  19
ENDBRANCH   1  18
TORSDOF 12
ENDMDL
MODEL 10
REMARK VINA RESULT:    -4.476     26.984     28.511
REMARK INTER + INTRA:          -9.349
REMARK INTER:                  -8.014
REMARK INTRA:                  -1.335
REMARK UNBOUND:                -1.863
REMARK SMILES COc1cc(CNC(=O)CCCCCCCC(C)C)ccc1O
REMARK SMILES IDX 11 1 10 2 8 3 9 4 7 5 6 7 5 8 4 9 20 10 3 11 21 12 22 13
REMARK SMILES IDX 2 14 1 15 23 16 12 18 13 19 14 20 15 21 16 22 17 23 18 24
REMARK SMILES IDX 19 25
REMARK H PARENT 7 6 23 17
REMARK Flexibility Score: inf
ROOT
ATOM      1  C   UNL     1      64.240  81.693  70.560  1.00  0.00     0.010 C 
ENDROOT
BRANCH   1   2
ATOM      2  C   UNL     1      63.213  81.939  69.457  1.00  0.00     0.100 C 
BRANCH   2   3
ATOM      3  C   UNL     1      63.143  83.401  69.046  1.00  0.00     0.220 C 
ATOM      4  O   UNL     1      64.110  84.028  68.623  1.00  0.00    -0.275 OA
ATOM      5  N   UNL     1      61.869  83.919  69.220  1.00  0.00    -0.352 N 
ATOM      6  H   UNL     1      61.131  83.324  69.589  1.00  0.00     0.163 HD
BRANCH   5   7
ATOM      7  C   UNL     1      61.532  85.290  68.913  1.00  0.00     0.151 C 
BRANCH   7   8
ATOM      8  C   UNL     1      60.234  85.704  69.544  1.00  0.00    -0.025 A 
ATOM      9  C   UNL     1      60.068  87.013  69.978  1.00  0.00     0.056 A 
ATOM     10  C   UNL     1      59.213  84.773  69.688  1.00  0.00     0.009 A 
ATOM     11  C   UNL     1      58.862  87.398  70.564  1.00  0.00     0.160 A 
ATOM     12  C   UNL     1      58.007  85.158  70.275  1.00  0.00     0.050 A 
ATOM     13  C   UNL     1      57.831  86.470  70.714  1.00  0.00     0.157 A 
BRANCH  11  14
ATOM     14  O   UNL     1      58.703  88.683  70.989  1.00  0.00    -0.493 OA
ATOM     15  C   UNL     1      59.509  89.678  70.360  1.00  0.00     0.278 C 
ENDBRANCH  11  14
BRANCH  13  16
ATOM     16  O   UNL     1      56.649  86.834  71.284  1.00  0.00    -0.504 OA
ATOM     17  H   UNL     1      56.309  86.088  71.809  1.00  0.00     0.293 HD
ENDBRANCH  13  16
ENDBRANCH   7   8
ENDBRANCH   5   7
ENDBRANCH   2   3
ENDBRANCH   1   2
BRANCH   1  18
ATOM     18  C   UNL     1      63.616  81.513  71.947  1.00  0.00     0.001 C 
BRANCH  18  19
ATOM     19  C   UNL     1      62.093  81.339  71.972  1.00  0.00     0.000 C 
BRANCH  19  20
ATOM     20  C   UNL     1      61.399  82.241  72.996  1.00  0.00     0.000 C 
BRANCH  20  21
ATOM     21  C   UNL     1      62.152  82.346  74.327  1.00  0.00     0.000 C 
BRANCH  21  22
ATOM     22  C   UNL     1      62.136  83.757  74.924  1.00  0.00     0.003 C 
BRANCH  22  23
ATOM     23  C   UNL     1      63.470  84.510  74.755  1.00  0.00    -0.017 C 
ATOM     24  C   UNL     1      63.473  85.761  75.637  1.00  0.00     0.007 C 
ATOM     25  C   UNL     1      63.740  84.906  73.302  1.00  0.00     0.007 C 
ENDBRANCH  22  23
ENDBRANCH  21  22
ENDBRANCH  20  21
ENDBRANCH  19  20
ENDBRANCH  18  19
ENDBRANCH   1  18
TORSDOF 12
ENDMDL
