MODEL 1
REMARK VINA RESULT:    -6.030      0.000      0.000
REMARK INTER + INTRA:         -10.583
REMARK INTER:                  -9.732
REMARK INTRA:                  -0.851
REMARK UNBOUND:                -0.851
REMARK SMILES CCCCCCCCC(=O)NCc1ccc(O)c(OC)c1
REMARK SMILES IDX 7 1 6 2 5 3 4 4 3 5 2 6 1 7 8 8 9 9 10 10 11 11 12 13 13 14
REMARK SMILES IDX 21 15 14 16 18 17 15 18 16 19 19 20 20 21 17 22
REMARK H PARENT 11 12 17 23
REMARK Flexibility Score: inf
ROOT
ATOM      1  C   UNL     1      94.505  93.898  76.634  1.00  0.00     0.010 C 
ENDROOT
BRANCH   1   2
ATOM      2  C   UNL     1      95.777  94.036  75.748  1.00  0.00     0.001 C 
BRANCH   2   3
ATOM      3  C   UNL     1      96.360  95.480  75.775  1.00  0.00     0.000 C 
BRANCH   3   4
ATOM      4  C   UNL     1      96.247  96.228  74.417  1.00  0.00    -0.000 C 
BRANCH   4   5
ATOM      5  C   UNL     1      95.389  97.522  74.513  1.00  0.00    -0.000 C 
BRANCH   5   6
ATOM      6  C   UNL     1      94.040  97.400  73.754  1.00  0.00    -0.003 C 
ATOM      7  C   UNL     1      94.053  98.121  72.388  1.00  0.00     0.004 C 
ENDBRANCH   5   6
ENDBRANCH   4   5
ENDBRANCH   3   4
ENDBRANCH   2   3
ENDBRANCH   1   2
BRANCH   1   8
ATOM      8  C   UNL     1      93.236  94.549  76.017  1.00  0.00     0.100 C 
BRANCH   8   9
ATOM      9  C   UNL     1      91.999  94.007  76.631  1.00  0.00     0.220 C 
ATOM     10  O   UNL     1      90.924  94.628  76.451  1.00  0.00    -0.275 OA
ATOM     11  N   UNL     1      92.032  92.847  77.350  1.00  0.00    -0.352 N 
ATOM     12  H   UNL     1      92.959  92.478  77.506  1.00  0.00     0.163 HD
BRANCH  11  13
ATOM     13  C   UNL     1      90.894  92.152  77.869  1.00  0.00     0.151 C 
BRANCH  13  14
ATOM     14  C   UNL     1      90.597  90.875  77.167  1.00  0.00    -0.025 A 
ATOM     15  C   UNL     1      90.911  90.727  75.795  1.00  0.00     0.056 A 
ATOM     16  C   UNL     1      89.996  89.793  77.850  1.00  0.00     0.009 A 
ATOM     17  C   UNL     1      90.651  89.513  75.118  1.00  0.00     0.160 A 
ATOM     18  C   UNL     1      89.735  88.583  77.183  1.00  0.00     0.050 A 
ATOM     19  C   UNL     1      90.053  88.441  75.819  1.00  0.00     0.157 A 
BRANCH  17  20
ATOM     20  O   UNL     1      90.918  89.385  73.778  1.00  0.00    -0.493 OA
ATOM     21  C   UNL     1      89.943  90.007  72.922  1.00  0.00     0.278 C 
ENDBRANCH  17  20
BRANCH  19  22
ATOM     22  O   UNL     1      89.772  87.278  75.177  1.00  0.00    -0.504 OA
ATOM     23  H   UNL     1      88.979  87.388  74.648  1.00  0.00     0.293 HD
ENDBRANCH  19  22
ENDBRANCH  13  14
ENDBRANCH  11  13
ENDBRANCH   8   9
ENDBRANCH   1   8
TORSDOF 11
ENDMDL
MODEL 2
REMARK VINA RESULT:    -5.544     23.608     27.233
REMARK INTER + INTRA:          -9.798
REMARK INTER:                  -8.542
REMARK INTRA:                  -1.256
REMARK UNBOUND:                -0.851
REMARK SMILES CCCCCCCCC(=O)NCc1ccc(O)c(OC)c1
REMARK SMILES IDX 7 1 6 2 5 3 4 4 3 5 2 6 1 7 8 8 9 9 10 10 11 11 12 13 13 14
REMARK SMILES IDX 21 15 14 16 18 17 15 18 16 19 19 20 20 21 17 22
REMARK H PARENT 11 12 17 23
REMARK Flexibility Score: inf
ROOT
ATOM      1  C   UNL     1      81.548  67.798  72.218  1.00  0.00     0.010 C 
ENDROOT
BRANCH   1   2
ATOM      2  C   UNL     1      80.215  67.031  71.987  1.00  0.00     0.001 C 
BRANCH   2   3
ATOM      3  C   UNL     1      80.378  65.494  72.178  1.00  0.00     0.000 C 
BRANCH   3   4
ATOM      4  C   UNL     1      80.024  64.999  73.609  1.00  0.00    -0.000 C 
BRANCH   4   5
ATOM      5  C   UNL     1      81.152  64.134  74.241  1.00  0.00    -0.000 C 
BRANCH   5   6
ATOM      6  C   UNL     1      82.006  64.926  75.268  1.00  0.00    -0.003 C 
ATOM      7  C   UNL     1      81.360  66.268  75.677  1.00  0.00     0.004 C 
ENDBRANCH   5   6
ENDBRANCH   4   5
ENDBRANCH   3   4
ENDBRANCH   2   3
ENDBRANCH   1   2
BRANCH   1   8
ATOM      8  C   UNL     1      82.261  68.231  70.907  1.00  0.00     0.100 C 
BRANCH   8   9
ATOM      9  C   UNL     1      83.499  68.995  71.192  1.00  0.00     0.220 C 
ATOM     10  O   UNL     1      83.537  70.207  70.872  1.00  0.00    -0.275 OA
ATOM     11  N   UNL     1      84.556  68.397  71.816  1.00  0.00    -0.352 N 
ATOM     12  H   UNL     1      84.453  67.401  71.950  1.00  0.00     0.163 HD
BRANCH  11  13
ATOM     13  C   UNL     1      85.742  69.057  72.270  1.00  0.00     0.151 C 
BRANCH  13  14
ATOM     14  C   UNL     1      85.806  69.230  73.746  1.00  0.00    -0.025 A 
ATOM     15  C   UNL     1      85.060  68.380  74.596  1.00  0.00     0.056 A 
ATOM     16  C   UNL     1      86.604  70.244  74.324  1.00  0.00     0.009 A 
ATOM     17  C   UNL     1      85.124  68.522  76.001  1.00  0.00     0.160 A 
ATOM     18  C   UNL     1      86.673  70.390  75.721  1.00  0.00     0.050 A 
ATOM     19  C   UNL     1      85.930  69.538  76.561  1.00  0.00     0.157 A 
BRANCH  17  20
ATOM     20  O   UNL     1      84.367  67.723  76.822  1.00  0.00    -0.493 OA
ATOM     21  C   UNL     1      84.939  66.427  77.073  1.00  0.00     0.278 C 
ENDBRANCH  17  20
BRANCH  19  22
ATOM     22  O   UNL     1      85.982  69.704  77.908  1.00  0.00    -0.504 OA
ATOM     23  H   UNL     1      86.809  69.350  78.242  1.00  0.00     0.293 HD
ENDBRANCH  19  22
ENDBRANCH  13  14
ENDBRANCH  11  13
ENDBRANCH   8   9
ENDBRANCH   1   8
TORSDOF 11
ENDMDL
MODEL 3
REMARK VINA RESULT:    -5.474     13.855     17.232
REMARK INTER + INTRA:          -9.685
REMARK INTER:                  -8.054
REMARK INTRA:                  -1.631
REMARK UNBOUND:                -0.851
REMARK SMILES CCCCCCCCC(=O)NCc1ccc(O)c(OC)c1
REMARK SMILES IDX 7 1 6 2 5 3 4 4 3 5 2 6 1 7 8 8 9 9 10 10 11 11 12 13 13 14
REMARK SMILES IDX 21 15 14 16 18 17 15 18 16 19 19 20 20 21 17 22
REMARK H PARENT 11 12 17 23
REMARK Flexibility Score: inf
ROOT
ATOM      1  C   UNL     1      83.383  89.038  85.022  1.00  0.00     0.010 C 
ENDROOT
BRANCH   1   2
ATOM      2  C   UNL     1      82.094  89.826  84.651  1.00  0.00     0.001 C 
BRANCH   2   3
ATOM      3  C   UNL     1      80.939  89.579  85.666  1.00  0.00     0.000 C 
BRANCH   3   4
ATOM      4  C   UNL     1      79.857  88.587  85.155  1.00  0.00    -0.000 C 
BRANCH   4   5
ATOM      5  C   UNL     1      80.149  88.068  83.719  1.00  0.00    -0.000 C 
BRANCH   5   6
ATOM      6  C   UNL     1      80.643  86.596  83.706  1.00  0.00    -0.003 C 
ATOM      7  C   UNL     1      80.600  85.936  85.102  1.00  0.00     0.004 C 
ENDBRANCH   5   6
ENDBRANCH   4   5
ENDBRANCH   3   4
ENDBRANCH   2   3
ENDBRANCH   1   2
BRANCH   1   8
ATOM      8  C   UNL     1      84.530  89.930  85.571  1.00  0.00     0.100 C 
BRANCH   8   9
ATOM      9  C   UNL     1      84.158  90.553  86.864  1.00  0.00     0.220 C 
ATOM     10  O   UNL     1      84.039  91.801  86.911  1.00  0.00    -0.275 OA
ATOM     11  N   UNL     1      83.923  89.780  87.965  1.00  0.00    -0.352 N 
ATOM     12  H   UNL     1      84.131  88.800  87.839  1.00  0.00     0.163 HD
BRANCH  11  13
ATOM     13  C   UNL     1      83.423  90.246  89.222  1.00  0.00     0.151 C 
BRANCH  13  14
ATOM     14  C   UNL     1      81.938  90.286  89.302  1.00  0.00    -0.025 A 
ATOM     15  C   UNL     1      81.198  89.084  89.406  1.00  0.00     0.056 A 
ATOM     16  C   UNL     1      81.242  91.516  89.273  1.00  0.00     0.009 A 
ATOM     17  C   UNL     1      79.788  89.107  89.500  1.00  0.00     0.160 A 
ATOM     18  C   UNL     1      79.839  91.546  89.367  1.00  0.00     0.050 A 
ATOM     19  C   UNL     1      79.109  90.346  89.472  1.00  0.00     0.157 A 
BRANCH  17  20
ATOM     20  O   UNL     1      79.069  87.939  89.557  1.00  0.00    -0.493 OA
ATOM     21  C   UNL     1      79.465  86.956  88.585  1.00  0.00     0.278 C 
ENDBRANCH  17  20
BRANCH  19  22
ATOM     22  O   UNL     1      77.753  90.384  89.535  1.00  0.00    -0.504 OA
ATOM     23  H   UNL     1      77.385  89.870  88.813  1.00  0.00     0.293 HD
ENDBRANCH  19  22
ENDBRANCH  13  14
ENDBRANCH  11  13
ENDBRANCH   8   9
ENDBRANCH   1   8
TORSDOF 11
ENDMDL
MODEL 4
REMARK VINA RESULT:    -5.465     26.421     29.466
REMARK INTER + INTRA:          -9.670
REMARK INTER:                  -8.995
REMARK INTRA:                  -0.675
REMARK UNBOUND:                -0.851
REMARK SMILES CCCCCCCCC(=O)NCc1ccc(O)c(OC)c1
REMARK SMILES IDX 7 1 6 2 5 3 4 4 3 5 2 6 1 7 8 8 9 9 10 10 11 11 12 13 13 14
REMARK SMILES IDX 21 15 14 16 18 17 15 18 16 19 19 20 20 21 17 22
REMARK H PARENT 11 12 17 23
REMARK Flexibility Score: inf
ROOT
ATOM      1  C   UNL     1      82.018  63.862  74.358  1.00  0.00     0.010 C 
ENDROOT
BRANCH   1   2
ATOM      2  C   UNL     1      80.480  63.961  74.141  1.00  0.00     0.001 C 
BRANCH   2   3
ATOM      3  C   UNL     1      80.052  65.354  73.592  1.00  0.00     0.000 C 
BRANCH   3   4
ATOM      4  C   UNL     1      80.254  65.513  72.059  1.00  0.00    -0.000 C 
BRANCH   4   5
ATOM      5  C   UNL     1      80.211  66.998  71.599  1.00  0.00    -0.000 C 
BRANCH   5   6
ATOM      6  C   UNL     1      81.612  67.543  71.210  1.00  0.00    -0.003 C 
ATOM      7  C   UNL     1      82.436  68.005  72.432  1.00  0.00     0.004 C 
ENDBRANCH   5   6
ENDBRANCH   4   5
ENDBRANCH   3   4
ENDBRANCH   2   3
ENDBRANCH   1   2
BRANCH   1   8
ATOM      8  C   UNL     1      82.528  64.638  75.605  1.00  0.00     0.100 C 
BRANCH   8   9
ATOM      9  C   UNL     1      83.769  64.033  76.146  1.00  0.00     0.220 C 
ATOM     10  O   UNL     1      84.800  64.050  75.432  1.00  0.00    -0.275 OA
ATOM     11  N   UNL     1      83.790  63.498  77.402  1.00  0.00    -0.352 N 
ATOM     12  H   UNL     1      82.888  63.458  77.854  1.00  0.00     0.163 HD
BRANCH  11  13
ATOM     13  C   UNL     1      84.950  63.016  78.087  1.00  0.00     0.151 C 
BRANCH  13  14
ATOM     14  C   UNL     1      85.329  63.829  79.273  1.00  0.00    -0.025 A 
ATOM     15  C   UNL     1      86.050  65.036  79.109  1.00  0.00     0.056 A 
ATOM     16  C   UNL     1      84.983  63.413  80.579  1.00  0.00     0.009 A 
ATOM     17  C   UNL     1      86.403  65.828  80.226  1.00  0.00     0.160 A 
ATOM     18  C   UNL     1      85.330  64.197  81.694  1.00  0.00     0.050 A 
ATOM     19  C   UNL     1      86.045  65.398  81.524  1.00  0.00     0.157 A 
BRANCH  17  20
ATOM     20  O   UNL     1      87.138  66.976  80.068  1.00  0.00    -0.493 OA
ATOM     21  C   UNL     1      86.824  67.716  78.875  1.00  0.00     0.278 C 
ENDBRANCH  17  20
BRANCH  19  22
ATOM     22  O   UNL     1      86.399  66.134  82.608  1.00  0.00    -0.504 OA
ATOM     23  H   UNL     1      86.709  65.549  83.304  1.00  0.00     0.293 HD
ENDBRANCH  19  22
ENDBRANCH  13  14
ENDBRANCH  11  13
ENDBRANCH   8   9
ENDBRANCH   1   8
TORSDOF 11
ENDMDL
MODEL 5
REMARK VINA RESULT:    -5.457     14.628     17.230
REMARK INTER + INTRA:          -9.657
REMARK INTER:                  -8.010
REMARK INTRA:                  -1.648
REMARK UNBOUND:                -0.851
REMARK SMILES CCCCCCCCC(=O)NCc1ccc(O)c(OC)c1
REMARK SMILES IDX 7 1 6 2 5 3 4 4 3 5 2 6 1 7 8 8 9 9 10 10 11 11 12 13 13 14
REMARK SMILES IDX 21 15 14 16 18 17 15 18 16 19 19 20 20 21 17 22
REMARK H PARENT 11 12 17 23
REMARK Flexibility Score: inf
ROOT
ATOM      1  C   UNL     1      80.107  86.258  86.673  1.00  0.00     0.010 C 
ENDROOT
BRANCH   1   2
ATOM      2  C   UNL     1      81.072  86.158  85.457  1.00  0.00     0.001 C 
BRANCH   2   3
ATOM      3  C   UNL     1      82.469  86.775  85.761  1.00  0.00     0.000 C 
BRANCH   3   4
ATOM      4  C   UNL     1      82.666  88.202  85.175  1.00  0.00    -0.000 C 
BRANCH   4   5
ATOM      5  C   UNL     1      81.596  88.564  84.107  1.00  0.00    -0.000 C 
BRANCH   5   6
ATOM      6  C   UNL     1      80.993  89.978  84.323  1.00  0.00    -0.003 C 
ATOM      7  C   UNL     1      79.607  89.942  85.004  1.00  0.00     0.004 C 
ENDBRANCH   5   6
ENDBRANCH   4   5
ENDBRANCH   3   4
ENDBRANCH   2   3
ENDBRANCH   1   2
BRANCH   1   8
ATOM      8  C   UNL     1      80.831  86.297  88.048  1.00  0.00     0.100 C 
BRANCH   8   9
ATOM      9  C   UNL     1      80.413  87.476  88.845  1.00  0.00     0.220 C 
ATOM     10  O   UNL     1      80.424  87.384  90.095  1.00  0.00    -0.275 OA
ATOM     11  N   UNL     1      80.055  88.639  88.226  1.00  0.00    -0.352 N 
ATOM     12  H   UNL     1      79.998  88.577  87.220  1.00  0.00     0.163 HD
BRANCH  11  13
ATOM     13  C   UNL     1      79.771  89.880  88.879  1.00  0.00     0.151 C 
BRANCH  13  14
ATOM     14  C   UNL     1      80.841  90.901  88.722  1.00  0.00    -0.025 A 
ATOM     15  C   UNL     1      81.901  90.687  87.808  1.00  0.00     0.056 A 
ATOM     16  C   UNL     1      80.823  92.095  89.479  1.00  0.00     0.009 A 
ATOM     17  C   UNL     1      82.915  91.657  87.635  1.00  0.00     0.160 A 
ATOM     18  C   UNL     1      81.829  93.064  89.310  1.00  0.00     0.050 A 
ATOM     19  C   UNL     1      82.879  92.846  88.397  1.00  0.00     0.157 A 
BRANCH  17  20
ATOM     20  O   UNL     1      83.964  91.429  86.780  1.00  0.00    -0.493 OA
ATOM     21  C   UNL     1      84.745  90.265  87.102  1.00  0.00     0.278 C 
ENDBRANCH  17  20
BRANCH  19  22
ATOM     22  O   UNL     1      83.860  93.774  88.262  1.00  0.00    -0.504 OA
ATOM     23  H   UNL     1      83.844  94.369  89.016  1.00  0.00     0.293 HD
ENDBRANCH  19  22
ENDBRANCH  13  14
ENDBRANCH  11  13
ENDBRANCH   8   9
ENDBRANCH   1   8
TORSDOF 11
ENDMDL
MODEL 6
REMARK VINA RESULT:    -5.382      2.564      4.213
REMARK INTER + INTRA:          -9.537
REMARK INTER:                  -8.887
REMARK INTRA:                  -0.650
REMARK UNBOUND:                -0.851
REMARK SMILES CCCCCCCCC(=O)NCc1ccc(O)c(OC)c1
REMARK SMILES IDX 7 1 6 2 5 3 4 4 3 5 2 6 1 7 8 8 9 9 10 10 11 11 12 13 13 14
REMARK SMILES IDX 21 15 14 16 18 17 15 18 16 19 19 20 20 21 17 22
REMARK H PARENT 11 12 17 23
REMARK Flexibility Score: inf
ROOT
ATOM      1  C   UNL     1      95.459  94.338  77.162  1.00  0.00     0.010 C 
ENDROOT
BRANCH   1   2
ATOM      2  C   UNL     1      96.095  95.749  77.005  1.00  0.00     0.001 C 
BRANCH   2   3
ATOM      3  C   UNL     1      97.229  96.002  78.042  1.00  0.00     0.000 C 
BRANCH   3   4
ATOM      4  C   UNL     1      96.734  96.039  79.515  1.00  0.00    -0.000 C 
BRANCH   4   5
ATOM      5  C   UNL     1      97.365  94.916  80.388  1.00  0.00    -0.000 C 
BRANCH   5   6
ATOM      6  C   UNL     1      96.443  94.485  81.560  1.00  0.00    -0.003 C 
ATOM      7  C   UNL     1      95.098  95.244  81.577  1.00  0.00     0.004 C 
ENDBRANCH   5   6
ENDBRANCH   4   5
ENDBRANCH   3   4
ENDBRANCH   2   3
ENDBRANCH   1   2
BRANCH   1   8
ATOM      8  C   UNL     1      93.906  94.353  77.242  1.00  0.00     0.100 C 
BRANCH   8   9
ATOM      9  C   UNL     1      93.295  94.128  75.910  1.00  0.00     0.220 C 
ATOM     10  O   UNL     1      93.318  95.066  75.078  1.00  0.00    -0.275 OA
ATOM     11  N   UNL     1      92.749  92.917  75.593  1.00  0.00    -0.352 N 
ATOM     12  H   UNL     1      92.706  92.264  76.362  1.00  0.00     0.163 HD
BRANCH  11  13
ATOM     13  C   UNL     1      92.259  92.532  74.304  1.00  0.00     0.151 C 
BRANCH  13  14
ATOM     14  C   UNL     1      91.298  91.398  74.340  1.00  0.00    -0.025 A 
ATOM     15  C   UNL     1      90.914  90.829  75.578  1.00  0.00     0.056 A 
ATOM     16  C   UNL     1      90.756  90.866  73.147  1.00  0.00     0.009 A 
ATOM     17  C   UNL     1      89.988  89.761  75.629  1.00  0.00     0.160 A 
ATOM     18  C   UNL     1      89.834  89.805  73.192  1.00  0.00     0.050 A 
ATOM     19  C   UNL     1      89.454  89.246  74.427  1.00  0.00     0.157 A 
BRANCH  17  20
ATOM     20  O   UNL     1      89.649  89.183  76.827  1.00  0.00    -0.493 OA
ATOM     21  C   UNL     1      90.433  88.025  77.164  1.00  0.00     0.278 C 
ENDBRANCH  17  20
BRANCH  19  22
ATOM     22  O   UNL     1      88.584  88.204  74.457  1.00  0.00    -0.504 OA
ATOM     23  H   UNL     1      88.629  87.775  75.315  1.00  0.00     0.293 HD
ENDBRANCH  19  22
ENDBRANCH  13  14
ENDBRANCH  11  13
ENDBRANCH   8   9
ENDBRANCH   1   8
TORSDOF 11
ENDMDL
MODEL 7
REMARK VINA RESULT:    -5.331     13.499     17.019
REMARK INTER + INTRA:          -9.454
REMARK INTER:                  -8.152
REMARK INTRA:                  -1.302
REMARK UNBOUND:                -0.851
REMARK SMILES CCCCCCCCC(=O)NCc1ccc(O)c(OC)c1
REMARK SMILES IDX 7 1 6 2 5 3 4 4 3 5 2 6 1 7 8 8 9 9 10 10 11 11 12 13 13 14
REMARK SMILES IDX 21 15 14 16 18 17 15 18 16 19 19 20 20 21 17 22
REMARK H PARENT 11 12 17 23
REMARK Flexibility Score: inf
ROOT
ATOM      1  C   UNL     1      79.981  88.209  85.090  1.00  0.00     0.010 C 
ENDROOT
BRANCH   1   2
ATOM      2  C   UNL     1      81.037  88.730  84.072  1.00  0.00     0.001 C 
BRANCH   2   3
ATOM      3  C   UNL     1      82.479  88.717  84.661  1.00  0.00     0.000 C 
BRANCH   3   4
ATOM      4  C   UNL     1      83.039  90.132  84.977  1.00  0.00    -0.000 C 
BRANCH   4   5
ATOM      5  C   UNL     1      84.592  90.159  85.054  1.00  0.00    -0.000 C 
BRANCH   5   6
ATOM      6  C   UNL     1      85.157  91.597  85.207  1.00  0.00    -0.003 C 
ATOM      7  C   UNL     1      84.512  92.374  86.376  1.00  0.00     0.004 C 
ENDBRANCH   5   6
ENDBRANCH   4   5
ENDBRANCH   3   4
ENDBRANCH   2   3
ENDBRANCH   1   2
BRANCH   1   8
ATOM      8  C   UNL     1      80.061  86.679  85.353  1.00  0.00     0.100 C 
BRANCH   8   9
ATOM      9  C   UNL     1      80.739  86.387  86.639  1.00  0.00     0.220 C 
ATOM     10  O   UNL     1      81.746  85.639  86.624  1.00  0.00    -0.275 OA
ATOM     11  N   UNL     1      80.291  86.944  87.802  1.00  0.00    -0.352 N 
ATOM     12  H   UNL     1      79.426  87.456  87.713  1.00  0.00     0.163 HD
BRANCH  11  13
ATOM     13  C   UNL     1      80.937  86.853  89.075  1.00  0.00     0.151 C 
BRANCH  13  14
ATOM     14  C   UNL     1      81.836  88.000  89.376  1.00  0.00    -0.025 A 
ATOM     15  C   UNL     1      82.476  88.092  90.635  1.00  0.00     0.056 A 
ATOM     16  C   UNL     1      82.063  89.016  88.419  1.00  0.00     0.009 A 
ATOM     17  C   UNL     1      83.346  89.167  90.929  1.00  0.00     0.160 A 
ATOM     18  C   UNL     1      82.928  90.087  88.705  1.00  0.00     0.050 A 
ATOM     19  C   UNL     1      83.565  90.170  89.959  1.00  0.00     0.157 A 
BRANCH  17  20
ATOM     20  O   UNL     1      83.933  89.276  92.165  1.00  0.00    -0.493 OA
ATOM     21  C   UNL     1      83.016  89.596  93.226  1.00  0.00     0.278 C 
ENDBRANCH  17  20
BRANCH  19  22
ATOM     22  O   UNL     1      84.376  91.223  90.235  1.00  0.00    -0.504 OA
ATOM     23  H   UNL     1      85.170  91.165  89.697  1.00  0.00     0.293 HD
ENDBRANCH  19  22
ENDBRANCH  13  14
ENDBRANCH  11  13
ENDBRANCH   8   9
ENDBRANCH   1   8
TORSDOF 11
ENDMDL
MODEL 8
REMARK VINA RESULT:    -5.307     24.392     27.578
REMARK INTER + INTRA:          -9.415
REMARK INTER:                  -8.450
REMARK INTRA:                  -0.965
REMARK UNBOUND:                -0.851
REMARK SMILES CCCCCCCCC(=O)NCc1ccc(O)c(OC)c1
REMARK SMILES IDX 7 1 6 2 5 3 4 4 3 5 2 6 1 7 8 8 9 9 10 10 11 11 12 13 13 14
REMARK SMILES IDX 21 15 14 16 18 17 15 18 16 19 19 20 20 21 17 22
REMARK H PARENT 11 12 17 23
REMARK Flexibility Score: inf
ROOT
ATOM      1  C   UNL     1      79.945  65.580  74.049  1.00  0.00     0.010 C 
ENDROOT
BRANCH   1   2
ATOM      2  C   UNL     1      80.295  65.057  72.627  1.00  0.00     0.001 C 
BRANCH   2   3
ATOM      3  C   UNL     1      80.115  66.153  71.535  1.00  0.00     0.000 C 
BRANCH   3   4
ATOM      4  C   UNL     1      81.438  66.552  70.824  1.00  0.00    -0.000 C 
BRANCH   4   5
ATOM      5  C   UNL     1      81.722  68.080  70.898  1.00  0.00    -0.000 C 
BRANCH   5   6
ATOM      6  C   UNL     1      83.216  68.395  71.177  1.00  0.00    -0.003 C 
ATOM      7  C   UNL     1      83.569  68.350  72.680  1.00  0.00     0.004 C 
ENDBRANCH   5   6
ENDBRANCH   4   5
ENDBRANCH   3   4
ENDBRANCH   2   3
ENDBRANCH   1   2
BRANCH   1   8
ATOM      8  C   UNL     1      80.914  66.678  74.572  1.00  0.00     0.100 C 
BRANCH   8   9
ATOM      9  C   UNL     1      81.860  66.130  75.575  1.00  0.00     0.220 C 
ATOM     10  O   UNL     1      81.569  65.048  76.137  1.00  0.00    -0.275 OA
ATOM     11  N   UNL     1      83.029  66.779  75.853  1.00  0.00    -0.352 N 
ATOM     12  H   UNL     1      83.121  67.681  75.410  1.00  0.00     0.163 HD
BRANCH  11  13
ATOM     13  C   UNL     1      84.080  66.285  76.688  1.00  0.00     0.151 C 
BRANCH  13  14
ATOM     14  C   UNL     1      84.971  67.348  77.225  1.00  0.00    -0.025 A 
ATOM     15  C   UNL     1      85.885  67.054  78.265  1.00  0.00     0.056 A 
ATOM     16  C   UNL     1      84.921  68.665  76.713  1.00  0.00     0.009 A 
ATOM     17  C   UNL     1      86.751  68.049  78.773  1.00  0.00     0.160 A 
ATOM     18  C   UNL     1      85.780  69.660  77.214  1.00  0.00     0.050 A 
ATOM     19  C   UNL     1      86.689  69.359  78.246  1.00  0.00     0.157 A 
BRANCH  17  20
ATOM     20  O   UNL     1      87.606  67.773  79.810  1.00  0.00    -0.493 OA
ATOM     21  C   UNL     1      87.150  66.728  80.687  1.00  0.00     0.278 C 
ENDBRANCH  17  20
BRANCH  19  22
ATOM     22  O   UNL     1      87.495  70.333  78.742  1.00  0.00    -0.504 OA
ATOM     23  H   UNL     1      87.015  71.165  78.763  1.00  0.00     0.293 HD
ENDBRANCH  19  22
ENDBRANCH  13  14
ENDBRANCH  11  13
ENDBRANCH   8   9
ENDBRANCH   1   8
TORSDOF 11
ENDMDL
MODEL 9
REMARK VINA RESULT:    -5.264      2.738      3.938
REMARK INTER + INTRA:          -9.347
REMARK INTER:                  -8.739
REMARK INTRA:                  -0.608
REMARK UNBOUND:                -0.851
REMARK SMILES CCCCCCCCC(=O)NCc1ccc(O)c(OC)c1
REMARK SMILES IDX 7 1 6 2 5 3 4 4 3 5 2 6 1 7 8 8 9 9 10 10 11 11 12 13 13 14
REMARK SMILES IDX 21 15 14 16 18 17 15 18 16 19 19 20 20 21 17 22
REMARK H PARENT 11 12 17 23
REMARK Flexibility Score: inf
ROOT
ATOM      1  C   UNL     1      96.714  95.917  75.557  1.00  0.00     0.010 C 
ENDROOT
BRANCH   1   2
ATOM      2  C   UNL     1      97.953  95.932  76.499  1.00  0.00     0.001 C 
BRANCH   2   3
ATOM      3  C   UNL     1      97.591  95.514  77.955  1.00  0.00     0.000 C 
BRANCH   3   4
ATOM      4  C   UNL     1      96.473  96.384  78.597  1.00  0.00    -0.000 C 
BRANCH   4   5
ATOM      5  C   UNL     1      97.016  97.715  79.191  1.00  0.00    -0.000 C 
BRANCH   5   6
ATOM      6  C   UNL     1      97.387  97.590  80.693  1.00  0.00    -0.003 C 
ATOM      7  C   UNL     1      96.246  98.041  81.632  1.00  0.00     0.004 C 
ENDBRANCH   5   6
ENDBRANCH   4   5
ENDBRANCH   3   4
ENDBRANCH   2   3
ENDBRANCH   1   2
BRANCH   1   8
ATOM      8  C   UNL     1      96.061  94.516  75.399  1.00  0.00     0.100 C 
BRANCH   8   9
ATOM      9  C   UNL     1      94.589  94.620  75.251  1.00  0.00     0.220 C 
ATOM     10  O   UNL     1      94.090  95.753  75.051  1.00  0.00    -0.275 OA
ATOM     11  N   UNL     1      93.806  93.503  75.303  1.00  0.00    -0.352 N 
ATOM     12  H   UNL     1      94.299  92.658  75.554  1.00  0.00     0.163 HD
BRANCH  11  13
ATOM     13  C   UNL     1      92.401  93.454  75.035  1.00  0.00     0.151 C 
BRANCH  13  14
ATOM     14  C   UNL     1      91.668  92.452  75.855  1.00  0.00    -0.025 A 
ATOM     15  C   UNL     1      91.397  91.165  75.331  1.00  0.00     0.056 A 
ATOM     16  C   UNL     1      91.226  92.765  77.161  1.00  0.00     0.009 A 
ATOM     17  C   UNL     1      90.716  90.197  76.105  1.00  0.00     0.160 A 
ATOM     18  C   UNL     1      90.549  91.806  77.936  1.00  0.00     0.050 A 
ATOM     19  C   UNL     1      90.286  90.526  77.410  1.00  0.00     0.157 A 
BRANCH  17  20
ATOM     20  O   UNL     1      90.417  88.965  75.581  1.00  0.00    -0.493 OA
ATOM     21  C   UNL     1      90.662  88.850  74.168  1.00  0.00     0.278 C 
ENDBRANCH  17  20
BRANCH  19  22
ATOM     22  O   UNL     1      89.607  89.617  78.155  1.00  0.00    -0.504 OA
ATOM     23  H   UNL     1      90.213  88.937  78.460  1.00  0.00     0.293 HD
ENDBRANCH  19  22
ENDBRANCH  13  14
ENDBRANCH  11  13
ENDBRANCH   8   9
ENDBRANCH   1   8
TORSDOF 11
ENDMDL
MODEL 10
REMARK VINA RESULT:    -5.184      1.912      2.546
REMARK INTER + INTRA:          -9.217
REMARK INTER:                  -8.718
REMARK INTRA:                  -0.499
REMARK UNBOUND:                -0.851
REMARK SMILES CCCCCCCCC(=O)NCc1ccc(O)c(OC)c1
REMARK SMILES IDX 7 1 6 2 5 3 4 4 3 5 2 6 1 7 8 8 9 9 10 10 11 11 12 13 13 14
REMARK SMILES IDX 21 15 14 16 18 17 15 18 16 19 19 20 20 21 17 22
REMARK H PARENT 11 12 17 23
REMARK Flexibility Score: inf
ROOT
ATOM      1  C   UNL     1      95.112  94.409  76.731  1.00  0.00     0.010 C 
ENDROOT
BRANCH   1   2
ATOM      2  C   UNL     1      95.106  95.524  75.645  1.00  0.00     0.001 C 
BRANCH   2   3
ATOM      3  C   UNL     1      96.539  96.041  75.324  1.00  0.00     0.000 C 
BRANCH   3   4
ATOM      4  C   UNL     1      96.940  95.888  73.829  1.00  0.00    -0.000 C 
BRANCH   4   5
ATOM      5  C   UNL     1      98.078  96.862  73.411  1.00  0.00    -0.000 C 
BRANCH   5   6
ATOM      6  C   UNL     1      98.670  96.523  72.017  1.00  0.00    -0.003 C 
ATOM      7  C   UNL     1      97.624  96.608  70.884  1.00  0.00     0.004 C 
ENDBRANCH   5   6
ENDBRANCH   4   5
ENDBRANCH   3   4
ENDBRANCH   2   3
ENDBRANCH   1   2
BRANCH   1   8
ATOM      8  C   UNL     1      93.727  94.169  77.394  1.00  0.00     0.100 C 
BRANCH   8   9
ATOM      9  C   UNL     1      92.662  94.000  76.376  1.00  0.00     0.220 C 
ATOM     10  O   UNL     1      91.667  94.762  76.423  1.00  0.00    -0.275 OA
ATOM     11  N   UNL     1      92.783  93.056  75.397  1.00  0.00    -0.352 N 
ATOM     12  H   UNL     1      93.577  92.442  75.504  1.00  0.00     0.163 HD
BRANCH  11  13
ATOM     13  C   UNL     1      91.900  92.889  74.284  1.00  0.00     0.151 C 
BRANCH  13  14
ATOM     14  C   UNL     1      91.082  91.649  74.345  1.00  0.00    -0.025 A 
ATOM     15  C   UNL     1      90.051  91.428  73.400  1.00  0.00     0.056 A 
ATOM     16  C   UNL     1      91.314  90.674  75.342  1.00  0.00     0.009 A 
ATOM     17  C   UNL     1      89.277  90.245  73.435  1.00  0.00     0.160 A 
ATOM     18  C   UNL     1      90.548  89.495  75.381  1.00  0.00     0.050 A 
ATOM     19  C   UNL     1      89.526  89.280  74.437  1.00  0.00     0.157 A 
BRANCH  17  20
ATOM     20  O   UNL     1      88.250  90.052  72.545  1.00  0.00    -0.493 OA
ATOM     21  C   UNL     1      87.032  90.732  72.895  1.00  0.00     0.278 C 
ENDBRANCH  17  20
BRANCH  19  22
ATOM     22  O   UNL     1      88.774  88.151  74.500  1.00  0.00    -0.504 OA
ATOM     23  H   UNL     1      88.405  87.964  73.634  1.00  0.00     0.293 HD
ENDBRANCH  19  22
ENDBRANCH  13  14
ENDBRANCH  11  13
ENDBRANCH   8   9
ENDBRANCH   1   8
TORSDOF 11
ENDMDL
