MODEL 1
REMARK VINA RESULT:    -6.666      0.000      0.000
REMARK INTER + INTRA:         -10.874
REMARK INTER:                 -10.369
REMARK INTRA:                  -0.506
REMARK UNBOUND:                -0.506
REMARK SMILES COc1cc(CNC(=O)CCCCCC(C)C)ccc1O
REMARK SMILES IDX 10 1 8 2 7 3 9 5 6 6 5 7 3 8 20 9 4 10 19 11 18 12 2 13 1 14
REMARK SMILES IDX 21 15 11 17 12 18 13 19 14 20 15 21 16 22 17 23
REMARK H PARENT 7 4 21 16
REMARK Flexibility Score: inf
ROOT
ATOM      1  C   UNL     1      95.684  81.346  83.594  1.00  0.00     0.100 C 
ENDROOT
BRANCH   1   2
ATOM      2  C   UNL     1      94.573  82.253  83.950  1.00  0.00     0.220 C 
ATOM      3  N   UNL     1      93.331  81.736  84.172  1.00  0.00    -0.352 N 
ATOM      4  H   UNL     1      93.231  80.758  83.943  1.00  0.00     0.163 HD
ATOM      5  O   UNL     1      94.806  83.480  84.081  1.00  0.00    -0.275 OA
BRANCH   3   6
ATOM      6  C   UNL     1      92.217  82.466  84.686  1.00  0.00     0.151 C 
BRANCH   6   7
ATOM      7  C   UNL     1      90.916  81.779  84.465  1.00  0.00    -0.025 A 
ATOM      8  C   UNL     1      88.457  81.807  84.498  1.00  0.00     0.160 A 
ATOM      9  C   UNL     1      88.438  80.494  83.980  1.00  0.00     0.157 A 
ATOM     10  C   UNL     1      89.695  82.433  84.755  1.00  0.00     0.056 A 
ATOM     11  C   UNL     1      89.646  79.824  83.713  1.00  0.00     0.050 A 
ATOM     12  C   UNL     1      90.875  80.463  83.948  1.00  0.00     0.009 A 
BRANCH   8  13
ATOM     13  O   UNL     1      87.292  82.469  84.783  1.00  0.00    -0.493 OA
ATOM     14  C   UNL     1      87.491  83.767  85.376  1.00  0.00     0.278 C 
ENDBRANCH   8  13
BRANCH   9  15
ATOM     15  O   UNL     1      87.253  79.882  83.732  1.00  0.00    -0.504 OA
ATOM     16  H   UNL     1      87.052  79.941  82.795  1.00  0.00     0.293 HD
ENDBRANCH   9  15
ENDBRANCH   6   7
ENDBRANCH   3   6
ENDBRANCH   1   2
BRANCH   1  17
ATOM     17  C   UNL     1      96.860  82.038  82.854  1.00  0.00     0.010 C 
BRANCH  17  18
ATOM     18  C   UNL     1      96.880  81.673  81.344  1.00  0.00     0.001 C 
BRANCH  18  19
ATOM     19  C   UNL     1      97.748  82.634  80.489  1.00  0.00     0.000 C 
BRANCH  19  20
ATOM     20  C   UNL     1      96.901  83.425  79.450  1.00  0.00     0.003 C 
BRANCH  20  21
ATOM     21  C   UNL     1      97.009  82.907  77.979  1.00  0.00    -0.017 C 
ATOM     22  C   UNL     1      98.416  82.299  77.705  1.00  0.00     0.007 C 
ATOM     23  C   UNL     1      96.689  84.007  76.926  1.00  0.00     0.007 C 
ENDBRANCH  20  21
ENDBRANCH  19  20
ENDBRANCH  18  19
ENDBRANCH  17  18
ENDBRANCH   1  17
TORSDOF 10
ENDMDL
MODEL 2
REMARK VINA RESULT:    -6.552     21.515     24.663
REMARK INTER + INTRA:         -10.696
REMARK INTER:                 -10.191
REMARK INTRA:                  -0.506
REMARK UNBOUND:                -0.506
REMARK SMILES COc1cc(CNC(=O)CCCCCC(C)C)ccc1O
REMARK SMILES IDX 10 1 8 2 7 3 9 5 6 6 5 7 3 8 20 9 4 10 19 11 18 12 2 13 1 14
REMARK SMILES IDX 21 15 11 17 12 18 13 19 14 20 15 21 16 22 17 23
REMARK H PARENT 7 4 21 16
REMARK Flexibility Score: inf
ROOT
ATOM      1  C   UNL     1      80.123  64.748  69.432  1.00  0.00     0.100 C 
ENDROOT
BRANCH   1   2
ATOM      2  C   UNL     1      79.956  65.478  70.706  1.00  0.00     0.220 C 
ATOM      3  N   UNL     1      80.814  65.232  71.736  1.00  0.00    -0.352 N 
ATOM      4  H   UNL     1      81.439  64.451  71.591  1.00  0.00     0.163 HD
ATOM      5  O   UNL     1      79.051  66.343  70.798  1.00  0.00    -0.275 OA
BRANCH   3   6
ATOM      6  C   UNL     1      80.877  65.981  72.950  1.00  0.00     0.151 C 
BRANCH   6   7
ATOM      7  C   UNL     1      82.263  66.137  73.468  1.00  0.00    -0.025 A 
ATOM      8  C   UNL     1      84.259  67.526  73.833  1.00  0.00     0.160 A 
ATOM      9  C   UNL     1      84.876  66.456  74.515  1.00  0.00     0.157 A 
ATOM     10  C   UNL     1      82.965  67.354  73.298  1.00  0.00     0.056 A 
ATOM     11  C   UNL     1      84.198  65.233  74.667  1.00  0.00     0.050 A 
ATOM     12  C   UNL     1      82.900  65.076  74.153  1.00  0.00     0.009 A 
BRANCH   8  13
ATOM     13  O   UNL     1      84.910  68.719  73.657  1.00  0.00    -0.493 OA
ATOM     14  C   UNL     1      85.373  68.936  72.310  1.00  0.00     0.278 C 
ENDBRANCH   8  13
BRANCH   9  15
ATOM     15  O   UNL     1      86.121  66.610  75.032  1.00  0.00    -0.504 OA
ATOM     16  H   UNL     1      86.669  65.865  74.775  1.00  0.00     0.293 HD
ENDBRANCH   9  15
ENDBRANCH   6   7
ENDBRANCH   3   6
ENDBRANCH   1   2
BRANCH   1  17
ATOM     17  C   UNL     1      79.254  63.467  69.312  1.00  0.00     0.010 C 
BRANCH  17  18
ATOM     18  C   UNL     1      77.800  63.800  68.878  1.00  0.00     0.001 C 
BRANCH  18  19
ATOM     19  C   UNL     1      77.556  63.630  67.355  1.00  0.00     0.000 C 
BRANCH  19  20
ATOM     20  C   UNL     1      76.058  63.370  67.025  1.00  0.00     0.003 C 
BRANCH  20  21
ATOM     21  C   UNL     1      75.186  64.658  66.856  1.00  0.00    -0.017 C 
ATOM     22  C   UNL     1      76.079  65.895  66.545  1.00  0.00     0.007 C 
ATOM     23  C   UNL     1      74.287  64.945  68.092  1.00  0.00     0.007 C 
ENDBRANCH  20  21
ENDBRANCH  19  20
ENDBRANCH  18  19
ENDBRANCH  17  18
ENDBRANCH   1  17
TORSDOF 10
ENDMDL
MODEL 3
REMARK VINA RESULT:    -6.219      5.194      6.723
REMARK INTER + INTRA:         -10.178
REMARK INTER:                  -9.752
REMARK INTRA:                  -0.426
REMARK UNBOUND:                -0.506
REMARK SMILES COc1cc(CNC(=O)CCCCCC(C)C)ccc1O
REMARK SMILES IDX 10 1 8 2 7 3 9 5 6 6 5 7 3 8 20 9 4 10 19 11 18 12 2 13 1 14
REMARK SMILES IDX 21 15 11 17 12 18 13 19 14 20 15 21 16 22 17 23
REMARK H PARENT 7 4 21 16
REMARK Flexibility Score: inf
ROOT
ATOM      1  C   UNL     1      92.118  75.310  81.118  1.00  0.00     0.100 C 
ENDROOT
BRANCH   1   2
ATOM      2  C   UNL     1      91.329  75.733  82.293  1.00  0.00     0.220 C 
ATOM      3  N   UNL     1      91.793  76.742  83.084  1.00  0.00    -0.352 N 
ATOM      4  H   UNL     1      92.733  77.046  82.875  1.00  0.00     0.163 HD
ATOM      5  O   UNL     1      90.223  75.181  82.515  1.00  0.00    -0.275 OA
BRANCH   3   6
ATOM      6  C   UNL     1      91.059  77.363  84.139  1.00  0.00     0.151 C 
BRANCH   6   7
ATOM      7  C   UNL     1      91.311  78.825  84.244  1.00  0.00    -0.025 A 
ATOM      8  C   UNL     1      90.481  81.140  84.221  1.00  0.00     0.160 A 
ATOM      9  C   UNL     1      91.780  81.607  84.511  1.00  0.00     0.157 A 
ATOM     10  C   UNL     1      90.258  79.754  84.071  1.00  0.00     0.056 A 
ATOM     11  C   UNL     1      92.840  80.694  84.660  1.00  0.00     0.050 A 
ATOM     12  C   UNL     1      92.607  79.314  84.533  1.00  0.00     0.009 A 
BRANCH   8  13
ATOM     13  O   UNL     1      89.439  82.013  84.053  1.00  0.00    -0.493 OA
ATOM     14  C   UNL     1      88.510  82.030  85.153  1.00  0.00     0.278 C 
ENDBRANCH   8  13
BRANCH   9  15
ATOM     15  O   UNL     1      92.005  82.937  84.655  1.00  0.00    -0.504 OA
ATOM     16  H   UNL     1      91.170  83.409  84.619  1.00  0.00     0.293 HD
ENDBRANCH   9  15
ENDBRANCH   6   7
ENDBRANCH   3   6
ENDBRANCH   1   2
BRANCH   1  17
ATOM     17  C   UNL     1      91.264  74.930  79.878  1.00  0.00     0.010 C 
BRANCH  17  18
ATOM     18  C   UNL     1      91.141  76.116  78.882  1.00  0.00     0.001 C 
BRANCH  18  19
ATOM     19  C   UNL     1      91.321  75.696  77.399  1.00  0.00     0.000 C 
BRANCH  19  20
ATOM     20  C   UNL     1      90.164  76.215  76.496  1.00  0.00     0.003 C 
BRANCH  20  21
ATOM     21  C   UNL     1      90.512  77.472  75.634  1.00  0.00    -0.017 C 
ATOM     22  C   UNL     1      90.942  77.056  74.196  1.00  0.00     0.007 C 
ATOM     23  C   UNL     1      91.610  78.364  76.282  1.00  0.00     0.007 C 
ENDBRANCH  20  21
ENDBRANCH  19  20
ENDBRANCH  18  19
ENDBRANCH  17  18
ENDBRANCH   1  17
TORSDOF 10
ENDMDL
MODEL 4
REMARK VINA RESULT:    -5.940     21.011     24.211
REMARK INTER + INTRA:          -9.745
REMARK INTER:                  -8.995
REMARK INTRA:                  -0.749
REMARK UNBOUND:                -0.506
REMARK SMILES COc1cc(CNC(=O)CCCCCC(C)C)ccc1O
REMARK SMILES IDX 10 1 8 2 7 3 9 5 6 6 5 7 3 8 20 9 4 10 19 11 18 12 2 13 1 14
REMARK SMILES IDX 21 15 11 17 12 18 13 19 14 20 15 21 16 22 17 23
REMARK H PARENT 7 4 21 16
REMARK Flexibility Score: inf
ROOT
ATOM      1  C   UNL     1      79.490  66.077  71.400  1.00  0.00     0.100 C 
ENDROOT
BRANCH   1   2
ATOM      2  C   UNL     1      80.484  66.137  72.492  1.00  0.00     0.220 C 
ATOM      3  N   UNL     1      81.540  65.275  72.484  1.00  0.00    -0.352 N 
ATOM      4  H   UNL     1      81.493  64.551  71.782  1.00  0.00     0.163 HD
ATOM      5  O   UNL     1      80.357  67.012  73.383  1.00  0.00    -0.275 OA
BRANCH   3   6
ATOM      6  C   UNL     1      82.657  65.336  73.372  1.00  0.00     0.151 C 
BRANCH   6   7
ATOM      7  C   UNL     1      83.695  66.309  72.939  1.00  0.00    -0.025 A 
ATOM      8  C   UNL     1      85.388  67.037  71.310  1.00  0.00     0.160 A 
ATOM      9  C   UNL     1      85.626  68.197  72.079  1.00  0.00     0.157 A 
ATOM     10  C   UNL     1      84.438  66.092  71.754  1.00  0.00     0.056 A 
ATOM     11  C   UNL     1      84.911  68.409  73.272  1.00  0.00     0.050 A 
ATOM     12  C   UNL     1      83.950  67.476  73.696  1.00  0.00     0.009 A 
BRANCH   8  13
ATOM     13  O   UNL     1      86.087  66.802  70.155  1.00  0.00    -0.493 OA
ATOM     14  C   UNL     1      85.396  65.951  69.221  1.00  0.00     0.278 C 
ENDBRANCH   8  13
BRANCH   9  15
ATOM     15  O   UNL     1      86.538  69.110  71.662  1.00  0.00    -0.504 OA
ATOM     16  H   UNL     1      86.601  69.817  72.308  1.00  0.00     0.293 HD
ENDBRANCH   9  15
ENDBRANCH   6   7
ENDBRANCH   3   6
ENDBRANCH   1   2
BRANCH   1  17
ATOM     17  C   UNL     1      79.629  64.835  70.479  1.00  0.00     0.010 C 
BRANCH  17  18
ATOM     18  C   UNL     1      78.719  64.949  69.224  1.00  0.00     0.001 C 
BRANCH  18  19
ATOM     19  C   UNL     1      78.070  63.602  68.809  1.00  0.00     0.000 C 
BRANCH  19  20
ATOM     20  C   UNL     1      76.770  63.806  67.980  1.00  0.00     0.003 C 
BRANCH  20  21
ATOM     21  C   UNL     1      76.184  65.255  68.017  1.00  0.00    -0.017 C 
ATOM     22  C   UNL     1      74.809  65.280  68.748  1.00  0.00     0.007 C 
ATOM     23  C   UNL     1      76.047  65.888  66.601  1.00  0.00     0.007 C 
ENDBRANCH  20  21
ENDBRANCH  19  20
ENDBRANCH  18  19
ENDBRANCH  17  18
ENDBRANCH   1  17
TORSDOF 10
ENDMDL
MODEL 5
REMARK VINA RESULT:    -5.907     20.816     24.008
REMARK INTER + INTRA:          -9.694
REMARK INTER:                  -9.188
REMARK INTRA:                  -0.506
REMARK UNBOUND:                -0.506
REMARK SMILES COc1cc(CNC(=O)CCCCCC(C)C)ccc1O
REMARK SMILES IDX 10 1 8 2 7 3 9 5 6 6 5 7 3 8 20 9 4 10 19 11 18 12 2 13 1 14
REMARK SMILES IDX 21 15 11 17 12 18 13 19 14 20 15 21 16 22 17 23
REMARK H PARENT 7 4 21 16
REMARK Flexibility Score: inf
ROOT
ATOM      1  C   UNL     1      79.576  65.798  70.595  1.00  0.00     0.100 C 
ENDROOT
BRANCH   1   2
ATOM      2  C   UNL     1      80.402  65.506  71.785  1.00  0.00     0.220 C 
ATOM      3  N   UNL     1      81.749  65.353  71.643  1.00  0.00    -0.352 N 
ATOM      4  H   UNL     1      82.075  65.320  70.688  1.00  0.00     0.163 HD
ATOM      5  O   UNL     1      79.850  65.448  72.911  1.00  0.00    -0.275 OA
BRANCH   3   6
ATOM      6  C   UNL     1      82.681  65.241  72.719  1.00  0.00     0.151 C 
BRANCH   6   7
ATOM      7  C   UNL     1      83.479  66.478  72.931  1.00  0.00    -0.025 A 
ATOM      8  C   UNL     1      85.354  67.647  74.011  1.00  0.00     0.160 A 
ATOM      9  C   UNL     1      85.041  68.815  73.285  1.00  0.00     0.157 A 
ATOM     10  C   UNL     1      84.560  66.492  73.844  1.00  0.00     0.056 A 
ATOM     11  C   UNL     1      83.952  68.821  72.394  1.00  0.00     0.050 A 
ATOM     12  C   UNL     1      83.181  67.660  72.214  1.00  0.00     0.009 A 
BRANCH   8  13
ATOM     13  O   UNL     1      86.398  67.627  74.898  1.00  0.00    -0.493 OA
ATOM     14  C   UNL     1      87.011  66.332  75.047  1.00  0.00     0.278 C 
ENDBRANCH   8  13
BRANCH   9  15
ATOM     15  O   UNL     1      85.796  69.932  73.439  1.00  0.00    -0.504 OA
ATOM     16  H   UNL     1      86.628  69.700  73.859  1.00  0.00     0.293 HD
ENDBRANCH   9  15
ENDBRANCH   6   7
ENDBRANCH   3   6
ENDBRANCH   1   2
BRANCH   1  17
ATOM     17  C   UNL     1      79.872  64.888  69.373  1.00  0.00     0.010 C 
BRANCH  17  18
ATOM     18  C   UNL     1      78.941  63.644  69.347  1.00  0.00     0.001 C 
BRANCH  18  19
ATOM     19  C   UNL     1      77.765  63.775  68.343  1.00  0.00     0.000 C 
BRANCH  19  20
ATOM     20  C   UNL     1      76.839  64.981  68.676  1.00  0.00     0.003 C 
BRANCH  20  21
ATOM     21  C   UNL     1      75.608  65.148  67.727  1.00  0.00    -0.017 C 
ATOM     22  C   UNL     1      75.058  63.762  67.280  1.00  0.00     0.007 C 
ATOM     23  C   UNL     1      75.921  66.026  66.480  1.00  0.00     0.007 C 
ENDBRANCH  20  21
ENDBRANCH  19  20
ENDBRANCH  18  19
ENDBRANCH  17  18
ENDBRANCH   1  17
TORSDOF 10
ENDMDL
MODEL 6
REMARK VINA RESULT:    -5.855      1.643      2.904
REMARK INTER + INTRA:          -9.613
REMARK INTER:                  -8.819
REMARK INTRA:                  -0.794
REMARK UNBOUND:                -0.506
REMARK SMILES COc1cc(CNC(=O)CCCCCC(C)C)ccc1O
REMARK SMILES IDX 10 1 8 2 7 3 9 5 6 6 5 7 3 8 20 9 4 10 19 11 18 12 2 13 1 14
REMARK SMILES IDX 21 15 11 17 12 18 13 19 14 20 15 21 16 22 17 23
REMARK H PARENT 7 4 21 16
REMARK Flexibility Score: inf
ROOT
ATOM      1  C   UNL     1      96.899  81.081  82.234  1.00  0.00     0.100 C 
ENDROOT
BRANCH   1   2
ATOM      2  C   UNL     1      95.852  81.554  83.163  1.00  0.00     0.220 C 
ATOM      3  N   UNL     1      95.262  80.668  84.015  1.00  0.00    -0.352 N 
ATOM      4  H   UNL     1      95.499  79.700  83.852  1.00  0.00     0.163 HD
ATOM      5  O   UNL     1      95.557  82.774  83.178  1.00  0.00    -0.275 OA
BRANCH   3   6
ATOM      6  C   UNL     1      94.370  81.016  85.074  1.00  0.00     0.151 C 
BRANCH   6   7
ATOM      7  C   UNL     1      92.937  80.936  84.681  1.00  0.00    -0.025 A 
ATOM      8  C   UNL     1      90.919  79.602  84.239  1.00  0.00     0.160 A 
ATOM      9  C   UNL     1      90.191  80.786  83.998  1.00  0.00     0.157 A 
ATOM     10  C   UNL     1      92.291  79.682  84.560  1.00  0.00     0.056 A 
ATOM     11  C   UNL     1      90.830  82.036  84.090  1.00  0.00     0.050 A 
ATOM     12  C   UNL     1      92.190  82.111  84.434  1.00  0.00     0.009 A 
BRANCH   8  13
ATOM     13  O   UNL     1      90.321  78.373  84.135  1.00  0.00    -0.493 OA
ATOM     14  C   UNL     1      91.236  77.304  83.829  1.00  0.00     0.278 C 
ENDBRANCH   8  13
BRANCH   9  15
ATOM     15  O   UNL     1      88.873  80.719  83.687  1.00  0.00    -0.504 OA
ATOM     16  H   UNL     1      88.439  81.533  83.954  1.00  0.00     0.293 HD
ENDBRANCH   9  15
ENDBRANCH   6   7
ENDBRANCH   3   6
ENDBRANCH   1   2
BRANCH   1  17
ATOM     17  C   UNL     1      98.024  82.115  81.960  1.00  0.00     0.010 C 
BRANCH  17  18
ATOM     18  C   UNL     1      98.582  81.984  80.516  1.00  0.00     0.001 C 
BRANCH  18  19
ATOM     19  C   UNL     1      97.740  81.045  79.613  1.00  0.00     0.000 C 
BRANCH  19  20
ATOM     20  C   UNL     1      97.625  81.578  78.155  1.00  0.00     0.003 C 
BRANCH  20  21
ATOM     21  C   UNL     1      97.662  83.134  78.017  1.00  0.00    -0.017 C 
ATOM     22  C   UNL     1      96.244  83.744  78.222  1.00  0.00     0.007 C 
ATOM     23  C   UNL     1      98.254  83.606  76.657  1.00  0.00     0.007 C 
ENDBRANCH  20  21
ENDBRANCH  19  20
ENDBRANCH  18  19
ENDBRANCH  17  18
ENDBRANCH   1  17
TORSDOF 10
ENDMDL
MODEL 7
REMARK VINA RESULT:    -5.731      2.598      4.783
REMARK INTER + INTRA:          -9.419
REMARK INTER:                  -8.751
REMARK INTRA:                  -0.668
REMARK UNBOUND:                -0.506
REMARK SMILES COc1cc(CNC(=O)CCCCCC(C)C)ccc1O
REMARK SMILES IDX 10 1 8 2 7 3 9 5 6 6 5 7 3 8 20 9 4 10 19 11 18 12 2 13 1 14
REMARK SMILES IDX 21 15 11 17 12 18 13 19 14 20 15 21 16 22 17 23
REMARK H PARENT 7 4 21 16
REMARK Flexibility Score: inf
ROOT
ATOM      1  C   UNL     1      97.803  80.708  79.774  1.00  0.00     0.100 C 
ENDROOT
BRANCH   1   2
ATOM      2  C   UNL     1      97.226  80.201  81.036  1.00  0.00     0.220 C 
ATOM      3  N   UNL     1      96.884  81.083  82.018  1.00  0.00    -0.352 N 
ATOM      4  H   UNL     1      97.179  82.035  81.855  1.00  0.00     0.163 HD
ATOM      5  O   UNL     1      97.024  78.968  81.161  1.00  0.00    -0.275 OA
BRANCH   3   6
ATOM      6  C   UNL     1      96.165  80.751  83.206  1.00  0.00     0.151 C 
BRANCH   6   7
ATOM      7  C   UNL     1      95.376  81.890  83.748  1.00  0.00    -0.025 A 
ATOM      8  C   UNL     1      93.354  82.749  84.853  1.00  0.00     0.160 A 
ATOM      9  C   UNL     1      93.903  84.049  84.842  1.00  0.00     0.157 A 
ATOM     10  C   UNL     1      94.085  81.682  84.290  1.00  0.00     0.056 A 
ATOM     11  C   UNL     1      95.174  84.272  84.281  1.00  0.00     0.050 A 
ATOM     12  C   UNL     1      95.907  83.201  83.744  1.00  0.00     0.009 A 
BRANCH   8  13
ATOM     13  O   UNL     1      92.110  82.514  85.376  1.00  0.00    -0.493 OA
ATOM     14  C   UNL     1      91.146  82.061  84.406  1.00  0.00     0.278 C 
ENDBRANCH   8  13
BRANCH   9  15
ATOM     15  O   UNL     1      93.207  85.082  85.379  1.00  0.00    -0.504 OA
ATOM     16  H   UNL     1      92.314  85.085  85.026  1.00  0.00     0.293 HD
ENDBRANCH   9  15
ENDBRANCH   6   7
ENDBRANCH   3   6
ENDBRANCH   1   2
BRANCH   1  17
ATOM     17  C   UNL     1      97.442  82.184  79.454  1.00  0.00     0.010 C 
BRANCH  17  18
ATOM     18  C   UNL     1      97.140  82.385  77.944  1.00  0.00     0.001 C 
BRANCH  18  19
ATOM     19  C   UNL     1      96.400  83.713  77.635  1.00  0.00     0.000 C 
BRANCH  19  20
ATOM     20  C   UNL     1      97.023  84.467  76.424  1.00  0.00     0.003 C 
BRANCH  20  21
ATOM     21  C   UNL     1      97.880  83.579  75.464  1.00  0.00    -0.017 C 
ATOM     22  C   UNL     1      99.384  83.975  75.536  1.00  0.00     0.007 C 
ATOM     23  C   UNL     1      97.384  83.630  73.990  1.00  0.00     0.007 C 
ENDBRANCH  20  21
ENDBRANCH  19  20
ENDBRANCH  18  19
ENDBRANCH  17  18
ENDBRANCH   1  17
TORSDOF 10
ENDMDL
MODEL 8
REMARK VINA RESULT:    -5.727     20.686     23.770
REMARK INTER + INTRA:          -9.413
REMARK INTER:                  -8.872
REMARK INTRA:                  -0.541
REMARK UNBOUND:                -0.506
REMARK SMILES COc1cc(CNC(=O)CCCCCC(C)C)ccc1O
REMARK SMILES IDX 10 1 8 2 7 3 9 5 6 6 5 7 3 8 20 9 4 10 19 11 18 12 2 13 1 14
REMARK SMILES IDX 21 15 11 17 12 18 13 19 14 20 15 21 16 22 17 23
REMARK H PARENT 7 4 21 16
REMARK Flexibility Score: inf
ROOT
ATOM      1  C   UNL     1      81.448  65.226  70.216  1.00  0.00     0.100 C 
ENDROOT
BRANCH   1   2
ATOM      2  C   UNL     1      81.970  66.081  71.303  1.00  0.00     0.220 C 
ATOM      3  N   UNL     1      81.470  65.942  72.563  1.00  0.00    -0.352 N 
ATOM      4  H   UNL     1      80.664  65.337  72.636  1.00  0.00     0.163 HD
ATOM      5  O   UNL     1      82.896  66.890  71.050  1.00  0.00    -0.275 OA
BRANCH   3   6
ATOM      6  C   UNL     1      81.997  66.572  73.730  1.00  0.00     0.151 C 
BRANCH   6   7
ATOM      7  C   UNL     1      83.322  66.033  74.138  1.00  0.00    -0.025 A 
ATOM      8  C   UNL     1      85.688  66.392  74.705  1.00  0.00     0.160 A 
ATOM      9  C   UNL     1      85.829  65.015  74.980  1.00  0.00     0.157 A 
ATOM     10  C   UNL     1      84.441  66.889  74.269  1.00  0.00     0.056 A 
ATOM     11  C   UNL     1      84.729  64.150  74.827  1.00  0.00     0.050 A 
ATOM     12  C   UNL     1      83.484  64.655  74.416  1.00  0.00     0.009 A 
BRANCH   8  13
ATOM     13  O   UNL     1      86.751  67.248  74.828  1.00  0.00    -0.493 OA
ATOM     14  C   UNL     1      86.490  68.382  75.678  1.00  0.00     0.278 C 
ENDBRANCH   8  13
BRANCH   9  15
ATOM     15  O   UNL     1      87.023  64.527  75.398  1.00  0.00    -0.504 OA
ATOM     16  H   UNL     1      87.100  63.605  75.141  1.00  0.00     0.293 HD
ENDBRANCH   9  15
ENDBRANCH   6   7
ENDBRANCH   3   6
ENDBRANCH   1   2
BRANCH   1  17
ATOM     17  C   UNL     1      79.898  65.152  70.151  1.00  0.00     0.010 C 
BRANCH  17  18
ATOM     18  C   UNL     1      79.419  64.105  69.107  1.00  0.00     0.001 C 
BRANCH  18  19
ATOM     19  C   UNL     1      77.918  63.740  69.246  1.00  0.00     0.000 C 
BRANCH  19  20
ATOM     20  C   UNL     1      77.128  63.982  67.927  1.00  0.00     0.003 C 
BRANCH  20  21
ATOM     21  C   UNL     1      76.445  65.384  67.814  1.00  0.00    -0.017 C 
ATOM     22  C   UNL     1      75.243  65.496  68.798  1.00  0.00     0.007 C 
ATOM     23  C   UNL     1      75.982  65.716  66.366  1.00  0.00     0.007 C 
ENDBRANCH  20  21
ENDBRANCH  19  20
ENDBRANCH  18  19
ENDBRANCH  17  18
ENDBRANCH   1  17
TORSDOF 10
ENDMDL
MODEL 9
REMARK VINA RESULT:    -5.626      4.326      5.434
REMARK INTER + INTRA:          -9.256
REMARK INTER:                  -8.331
REMARK INTRA:                  -0.926
REMARK UNBOUND:                -0.506
REMARK SMILES COc1cc(CNC(=O)CCCCCC(C)C)ccc1O
REMARK SMILES IDX 10 1 8 2 7 3 9 5 6 6 5 7 3 8 20 9 4 10 19 11 18 12 2 13 1 14
REMARK SMILES IDX 21 15 11 17 12 18 13 19 14 20 15 21 16 22 17 23
REMARK H PARENT 7 4 21 16
REMARK Flexibility Score: inf
ROOT
ATOM      1  C   UNL     1      99.102  80.569  81.363  1.00  0.00     0.100 C 
ENDROOT
BRANCH   1   2
ATOM      2  C   UNL     1      97.732  80.509  81.915  1.00  0.00     0.220 C 
ATOM      3  N   UNL     1      97.244  81.573  82.612  1.00  0.00    -0.352 N 
ATOM      4  H   UNL     1      97.921  82.294  82.817  1.00  0.00     0.163 HD
ATOM      5  O   UNL     1      97.031  79.492  81.694  1.00  0.00    -0.275 OA
BRANCH   3   6
ATOM      6  C   UNL     1      95.892  81.720  83.049  1.00  0.00     0.151 C 
BRANCH   6   7
ATOM      7  C   UNL     1      95.595  83.076  83.584  1.00  0.00    -0.025 A 
ATOM      8  C   UNL     1      94.486  84.519  85.237  1.00  0.00     0.160 A 
ATOM      9  C   UNL     1      95.082  85.653  84.644  1.00  0.00     0.157 A 
ATOM     10  C   UNL     1      94.731  83.241  84.692  1.00  0.00     0.056 A 
ATOM     11  C   UNL     1      95.922  85.502  83.525  1.00  0.00     0.050 A 
ATOM     12  C   UNL     1      96.181  84.224  83.002  1.00  0.00     0.009 A 
BRANCH   8  13
ATOM     13  O   UNL     1      93.650  84.646  86.315  1.00  0.00    -0.493 OA
ATOM     14  C   UNL     1      93.771  83.578  87.274  1.00  0.00     0.278 C 
ENDBRANCH   8  13
BRANCH   9  15
ATOM     15  O   UNL     1      94.852  86.886  85.159  1.00  0.00    -0.504 OA
ATOM     16  H   UNL     1      94.040  86.873  85.671  1.00  0.00     0.293 HD
ENDBRANCH   9  15
ENDBRANCH   6   7
ENDBRANCH   3   6
ENDBRANCH   1   2
BRANCH   1  17
ATOM     17  C   UNL     1      99.494  81.953  80.779  1.00  0.00     0.010 C 
BRANCH  17  18
ATOM     18  C   UNL     1      99.624  81.906  79.232  1.00  0.00     0.001 C 
BRANCH  18  19
ATOM     19  C   UNL     1      98.586  80.973  78.555  1.00  0.00     0.000 C 
BRANCH  19  20
ATOM     20  C   UNL     1      97.523  81.767  77.742  1.00  0.00     0.003 C 
BRANCH  20  21
ATOM     21  C   UNL     1      97.422  83.287  78.094  1.00  0.00    -0.017 C 
ATOM     22  C   UNL     1      96.584  83.503  79.389  1.00  0.00     0.007 C 
ATOM     23  C   UNL     1      96.837  84.140  76.931  1.00  0.00     0.007 C 
ENDBRANCH  20  21
ENDBRANCH  19  20
ENDBRANCH  18  19
ENDBRANCH  17  18
ENDBRANCH   1  17
TORSDOF 10
ENDMDL
MODEL 10
REMARK VINA RESULT:    -5.618     15.091     18.433
REMARK INTER + INTRA:          -9.244
REMARK INTER:                  -8.551
REMARK INTRA:                  -0.694
REMARK UNBOUND:                -0.506
REMARK SMILES COc1cc(CNC(=O)CCCCCC(C)C)ccc1O
REMARK SMILES IDX 10 1 8 2 7 3 9 5 6 6 5 7 3 8 20 9 4 10 19 11 18 12 2 13 1 14
REMARK SMILES IDX 21 15 11 17 12 18 13 19 14 20 15 21 16 22 17 23
REMARK H PARENT 7 4 21 16
REMARK Flexibility Score: inf
ROOT
ATOM      1  C   UNL     1      96.578  96.426  78.747  1.00  0.00     0.100 C 
ENDROOT
BRANCH   1   2
ATOM      2  C   UNL     1      96.294  97.637  77.948  1.00  0.00     0.220 C 
ATOM      3  N   UNL     1      96.699  97.692  76.648  1.00  0.00    -0.352 N 
ATOM      4  H   UNL     1      97.296  96.931  76.357  1.00  0.00     0.163 HD
ATOM      5  O   UNL     1      95.645  98.574  78.474  1.00  0.00    -0.275 OA
BRANCH   3   6
ATOM      6  C   UNL     1      96.344  98.716  75.719  1.00  0.00     0.151 C 
BRANCH   6   7
ATOM      7  C   UNL     1      96.311  98.241  74.310  1.00  0.00    -0.025 A 
ATOM      8  C   UNL     1      97.343  98.099  72.082  1.00  0.00     0.160 A 
ATOM      9  C   UNL     1      96.281  97.280  71.645  1.00  0.00     0.157 A 
ATOM     10  C   UNL     1      97.342  98.590  73.406  1.00  0.00     0.056 A 
ATOM     11  C   UNL     1      95.236  96.949  72.528  1.00  0.00     0.050 A 
ATOM     12  C   UNL     1      95.254  97.421  73.851  1.00  0.00     0.009 A 
BRANCH   8  13
ATOM     13  O   UNL     1      98.359  98.450  71.233  1.00  0.00    -0.493 OA
ATOM     14  C   UNL     1      99.626  97.847  71.561  1.00  0.00     0.278 C 
ENDBRANCH   8  13
BRANCH   9  15
ATOM     15  O   UNL     1      96.271  96.805  70.374  1.00  0.00    -0.504 OA
ATOM     16  H   UNL     1      97.153  96.868  70.002  1.00  0.00     0.293 HD
ENDBRANCH   9  15
ENDBRANCH   6   7
ENDBRANCH   3   6
ENDBRANCH   1   2
BRANCH   1  17
ATOM     17  C   UNL     1      95.338  95.828  79.464  1.00  0.00     0.010 C 
BRANCH  17  18
ATOM     18  C   UNL     1      94.496  94.941  78.506  1.00  0.00     0.001 C 
BRANCH  18  19
ATOM     19  C   UNL     1      93.429  95.735  77.708  1.00  0.00     0.000 C 
BRANCH  19  20
ATOM     20  C   UNL     1      92.051  95.012  77.685  1.00  0.00     0.003 C 
BRANCH  20  21
ATOM     21  C   UNL     1      91.166  95.317  76.432  1.00  0.00    -0.017 C 
ATOM     22  C   UNL     1      89.797  94.580  76.527  1.00  0.00     0.007 C 
ATOM     23  C   UNL     1      91.873  94.960  75.092  1.00  0.00     0.007 C 
ENDBRANCH  20  21
ENDBRANCH  19  20
ENDBRANCH  18  19
ENDBRANCH  17  18
ENDBRANCH   1  17
TORSDOF 10
ENDMDL
