MODEL 1
REMARK VINA RESULT:    -5.783      0.000      0.000
REMARK INTER + INTRA:         -10.881
REMARK INTER:                  -9.333
REMARK INTRA:                  -1.548
REMARK UNBOUND:                -1.548
REMARK SMILES COc1cc(CNC(=O)CCCCCCC(C)C)ccc1O
REMARK SMILES IDX 11 1 10 2 8 3 7 4 9 6 6 7 5 8 3 9 21 10 4 11 20 12 19 13
REMARK SMILES IDX 2 14 1 15 22 16 12 18 13 19 14 20 15 21 16 22 17 23 18 24
REMARK H PARENT 7 5 22 17
REMARK Flexibility Score: inf
ROOT
ATOM      1  C   UNL     1      80.219  89.628  84.824  1.00  0.00     0.010 C 
ENDROOT
BRANCH   1   2
ATOM      2  C   UNL     1      81.625  89.680  84.165  1.00  0.00     0.100 C 
BRANCH   2   3
ATOM      3  C   UNL     1      82.733  89.635  85.145  1.00  0.00     0.220 C 
ATOM      4  N   UNL     1      82.506  89.938  86.456  1.00  0.00    -0.352 N 
ATOM      5  H   UNL     1      81.561  90.225  86.664  1.00  0.00     0.163 HD
ATOM      6  O   UNL     1      83.874  89.291  84.750  1.00  0.00    -0.275 OA
BRANCH   4   7
ATOM      7  C   UNL     1      83.483  89.873  87.501  1.00  0.00     0.151 C 
BRANCH   7   8
ATOM      8  C   UNL     1      83.426  91.035  88.430  1.00  0.00    -0.025 A 
ATOM      9  C   UNL     1      82.951  93.413  88.840  1.00  0.00     0.160 A 
ATOM     10  C   UNL     1      83.274  93.244  90.204  1.00  0.00     0.157 A 
ATOM     11  C   UNL     1      83.048  92.313  87.961  1.00  0.00     0.056 A 
ATOM     12  C   UNL     1      83.689  91.985  90.675  1.00  0.00     0.050 A 
ATOM     13  C   UNL     1      83.755  90.885  89.798  1.00  0.00     0.009 A 
BRANCH   9  14
ATOM     14  O   UNL     1      82.584  94.642  88.363  1.00  0.00    -0.493 OA
ATOM     15  C   UNL     1      83.540  95.222  87.457  1.00  0.00     0.278 C 
ENDBRANCH   9  14
BRANCH  10  16
ATOM     16  O   UNL     1      83.191  94.286  91.073  1.00  0.00    -0.504 OA
ATOM     17  H   UNL     1      84.055  94.696  91.163  1.00  0.00     0.293 HD
ENDBRANCH  10  16
ENDBRANCH   7   8
ENDBRANCH   4   7
ENDBRANCH   2   3
ENDBRANCH   1   2
BRANCH   1  18
ATOM     18  C   UNL     1      79.405  88.383  84.370  1.00  0.00     0.001 C 
BRANCH  18  19
ATOM     19  C   UNL     1      80.155  87.481  83.350  1.00  0.00     0.000 C 
BRANCH  19  20
ATOM     20  C   UNL     1      80.806  86.251  84.044  1.00  0.00     0.000 C 
BRANCH  20  21
ATOM     21  C   UNL     1      80.171  85.883  85.414  1.00  0.00     0.003 C 
BRANCH  21  22
ATOM     22  C   UNL     1      81.153  85.959  86.628  1.00  0.00    -0.017 C 
ATOM     23  C   UNL     1      80.718  87.083  87.610  1.00  0.00     0.007 C 
ATOM     24  C   UNL     1      82.644  86.142  86.216  1.00  0.00     0.007 C 
ENDBRANCH  21  22
ENDBRANCH  20  21
ENDBRANCH  19  20
ENDBRANCH  18  19
ENDBRANCH   1  18
TORSDOF 11
ENDMDL
MODEL 2
REMARK VINA RESULT:    -5.663     14.952     17.431
REMARK INTER + INTRA:         -10.687
REMARK INTER:                  -9.317
REMARK INTRA:                  -1.369
REMARK UNBOUND:                -1.548
REMARK SMILES COc1cc(CNC(=O)CCCCCCC(C)C)ccc1O
REMARK SMILES IDX 11 1 10 2 8 3 7 4 9 6 6 7 5 8 3 9 21 10 4 11 20 12 19 13
REMARK SMILES IDX 2 14 1 15 22 16 12 18 13 19 14 20 15 21 16 22 17 23 18 24
REMARK H PARENT 7 5 22 17
REMARK Flexibility Score: inf
ROOT
ATOM      1  C   UNL     1      96.664  96.162  77.208  1.00  0.00     0.010 C 
ENDROOT
BRANCH   1   2
ATOM      2  C   UNL     1      96.502  97.019  75.923  1.00  0.00     0.100 C 
BRANCH   2   3
ATOM      3  C   UNL     1      95.473  96.497  74.996  1.00  0.00     0.220 C 
ATOM      4  N   UNL     1      94.393  95.816  75.478  1.00  0.00    -0.352 N 
ATOM      5  H   UNL     1      94.396  95.676  76.478  1.00  0.00     0.163 HD
ATOM      6  O   UNL     1      95.605  96.714  73.767  1.00  0.00    -0.275 OA
BRANCH   4   7
ATOM      7  C   UNL     1      93.310  95.317  74.686  1.00  0.00     0.151 C 
BRANCH   7   8
ATOM      8  C   UNL     1      92.606  94.166  75.315  1.00  0.00    -0.025 A 
ATOM      9  C   UNL     1      91.782  91.852  75.196  1.00  0.00     0.160 A 
ATOM     10  C   UNL     1      91.303  91.952  76.521  1.00  0.00     0.157 A 
ATOM     11  C   UNL     1      92.411  92.963  74.598  1.00  0.00     0.056 A 
ATOM     12  C   UNL     1      91.456  93.156  77.231  1.00  0.00     0.050 A 
ATOM     13  C   UNL     1      92.112  94.253  76.638  1.00  0.00     0.009 A 
BRANCH   9  14
ATOM     14  O   UNL     1      91.603  90.698  74.483  1.00  0.00    -0.493 OA
ATOM     15  C   UNL     1      90.700  90.837  73.371  1.00  0.00     0.278 C 
ENDBRANCH   9  14
BRANCH  10  16
ATOM     16  O   UNL     1      90.692  90.898  77.122  1.00  0.00    -0.504 OA
ATOM     17  H   UNL     1      90.523  90.213  76.471  1.00  0.00     0.293 HD
ENDBRANCH  10  16
ENDBRANCH   7   8
ENDBRANCH   4   7
ENDBRANCH   2   3
ENDBRANCH   1   2
BRANCH   1  18
ATOM     18  C   UNL     1      96.944  94.666  76.885  1.00  0.00     0.001 C 
BRANCH  18  19
ATOM     19  C   UNL     1      95.958  93.681  77.574  1.00  0.00     0.000 C 
BRANCH  19  20
ATOM     20  C   UNL     1      95.205  94.357  78.754  1.00  0.00     0.000 C 
BRANCH  20  21
ATOM     21  C   UNL     1      95.630  93.846  80.158  1.00  0.00     0.003 C 
BRANCH  21  22
ATOM     22  C   UNL     1      96.320  94.921  81.060  1.00  0.00    -0.017 C 
ATOM     23  C   UNL     1      95.571  96.279  80.957  1.00  0.00     0.007 C 
ATOM     24  C   UNL     1      97.836  95.111  80.758  1.00  0.00     0.007 C 
ENDBRANCH  21  22
ENDBRANCH  20  21
ENDBRANCH  19  20
ENDBRANCH  18  19
ENDBRANCH   1  18
TORSDOF 11
ENDMDL
MODEL 3
REMARK VINA RESULT:    -5.553      2.845      3.689
REMARK INTER + INTRA:         -10.509
REMARK INTER:                  -8.389
REMARK INTRA:                  -2.120
REMARK UNBOUND:                -1.548
REMARK SMILES COc1cc(CNC(=O)CCCCCCC(C)C)ccc1O
REMARK SMILES IDX 11 1 10 2 8 3 7 4 9 6 6 7 5 8 3 9 21 10 4 11 20 12 19 13
REMARK SMILES IDX 2 14 1 15 22 16 12 18 13 19 14 20 15 21 16 22 17 23 18 24
REMARK H PARENT 7 5 22 17
REMARK Flexibility Score: inf
ROOT
ATOM      1  C   UNL     1      80.035  89.650  84.920  1.00  0.00     0.010 C 
ENDROOT
BRANCH   1   2
ATOM      2  C   UNL     1      81.564  89.763  84.668  1.00  0.00     0.100 C 
BRANCH   2   3
ATOM      3  C   UNL     1      82.334  90.101  85.885  1.00  0.00     0.220 C 
ATOM      4  N   UNL     1      81.714  90.677  86.956  1.00  0.00    -0.352 N 
ATOM      5  H   UNL     1      80.735  90.878  86.817  1.00  0.00     0.163 HD
ATOM      6  O   UNL     1      83.559  89.826  85.918  1.00  0.00    -0.275 OA
BRANCH   4   7
ATOM      7  C   UNL     1      82.343  90.994  88.202  1.00  0.00     0.151 C 
BRANCH   7   8
ATOM      8  C   UNL     1      82.016  90.027  89.286  1.00  0.00    -0.025 A 
ATOM      9  C   UNL     1      80.365  88.969  90.770  1.00  0.00     0.160 A 
ATOM     10  C   UNL     1      81.378  88.155  91.322  1.00  0.00     0.157 A 
ATOM     11  C   UNL     1      80.694  89.910  89.772  1.00  0.00     0.056 A 
ATOM     12  C   UNL     1      82.705  88.290  90.874  1.00  0.00     0.050 A 
ATOM     13  C   UNL     1      83.021  89.211  89.857  1.00  0.00     0.009 A 
BRANCH   9  14
ATOM     14  O   UNL     1      79.078  88.874  91.226  1.00  0.00    -0.493 OA
ATOM     15  C   UNL     1      78.174  88.263  90.287  1.00  0.00     0.278 C 
ENDBRANCH   9  14
BRANCH  10  16
ATOM     16  O   UNL     1      81.090  87.242  92.286  1.00  0.00    -0.504 OA
ATOM     17  H   UNL     1      80.695  87.686  93.039  1.00  0.00     0.293 HD
ENDBRANCH  10  16
ENDBRANCH   7   8
ENDBRANCH   4   7
ENDBRANCH   2   3
ENDBRANCH   1   2
BRANCH   1  18
ATOM     18  C   UNL     1      79.436  88.343  84.327  1.00  0.00     0.001 C 
BRANCH  18  19
ATOM     19  C   UNL     1      80.404  87.588  83.373  1.00  0.00     0.000 C 
BRANCH  19  20
ATOM     20  C   UNL     1      80.843  86.220  83.968  1.00  0.00     0.000 C 
BRANCH  20  21
ATOM     21  C   UNL     1      80.202  85.889  85.344  1.00  0.00     0.003 C 
BRANCH  21  22
ATOM     22  C   UNL     1      81.186  85.973  86.557  1.00  0.00    -0.017 C 
ATOM     23  C   UNL     1      80.635  86.943  87.639  1.00  0.00     0.007 C 
ATOM     24  C   UNL     1      82.638  86.370  86.158  1.00  0.00     0.007 C 
ENDBRANCH  21  22
ENDBRANCH  20  21
ENDBRANCH  19  20
ENDBRANCH  18  19
ENDBRANCH   1  18
TORSDOF 11
ENDMDL
MODEL 4
REMARK VINA RESULT:    -5.365     14.363     17.165
REMARK INTER + INTRA:         -10.207
REMARK INTER:                  -9.507
REMARK INTRA:                  -0.699
REMARK UNBOUND:                -1.548
REMARK SMILES COc1cc(CNC(=O)CCCCCCC(C)C)ccc1O
REMARK SMILES IDX 11 1 10 2 8 3 7 4 9 6 6 7 5 8 3 9 21 10 4 11 20 12 19 13
REMARK SMILES IDX 2 14 1 15 22 16 12 18 13 19 14 20 15 21 16 22 17 23 18 24
REMARK H PARENT 7 5 22 17
REMARK Flexibility Score: inf
ROOT
ATOM      1  C   UNL     1      95.013  94.669  77.472  1.00  0.00     0.010 C 
ENDROOT
BRANCH   1   2
ATOM      2  C   UNL     1      93.826  93.737  77.104  1.00  0.00     0.100 C 
BRANCH   2   3
ATOM      3  C   UNL     1      93.286  93.986  75.748  1.00  0.00     0.220 C 
ATOM      4  N   UNL     1      92.039  93.546  75.411  1.00  0.00    -0.352 N 
ATOM      5  H   UNL     1      91.569  93.019  76.133  1.00  0.00     0.163 HD
ATOM      6  O   UNL     1      93.987  94.629  74.930  1.00  0.00    -0.275 OA
BRANCH   4   7
ATOM      7  C   UNL     1      91.392  93.777  74.155  1.00  0.00     0.151 C 
BRANCH   7   8
ATOM      8  C   UNL     1      90.355  92.759  73.833  1.00  0.00    -0.025 A 
ATOM      9  C   UNL     1      89.179  90.670  74.381  1.00  0.00     0.160 A 
ATOM     10  C   UNL     1      88.352  90.836  73.249  1.00  0.00     0.157 A 
ATOM     11  C   UNL     1      90.185  91.621  74.653  1.00  0.00     0.056 A 
ATOM     12  C   UNL     1      88.537  91.944  72.403  1.00  0.00     0.050 A 
ATOM     13  C   UNL     1      89.524  92.905  72.697  1.00  0.00     0.009 A 
BRANCH   9  14
ATOM     14  O   UNL     1      89.033  89.575  75.188  1.00  0.00    -0.493 OA
ATOM     15  C   UNL     1      89.899  88.479  74.842  1.00  0.00     0.278 C 
ENDBRANCH   9  14
BRANCH  10  16
ATOM     16  O   UNL     1      87.376  89.935  72.961  1.00  0.00    -0.504 OA
ATOM     17  H   UNL     1      87.765  89.167  72.536  1.00  0.00     0.293 HD
ENDBRANCH  10  16
ENDBRANCH   7   8
ENDBRANCH   4   7
ENDBRANCH   2   3
ENDBRANCH   1   2
BRANCH   1  18
ATOM     18  C   UNL     1      95.908  94.064  78.592  1.00  0.00     0.001 C 
BRANCH  18  19
ATOM     19  C   UNL     1      95.230  94.039  79.991  1.00  0.00     0.000 C 
BRANCH  19  20
ATOM     20  C   UNL     1      95.083  95.469  80.581  1.00  0.00     0.000 C 
BRANCH  20  21
ATOM     21  C   UNL     1      95.831  95.684  81.926  1.00  0.00     0.003 C 
BRANCH  21  22
ATOM     22  C   UNL     1      96.894  96.830  81.903  1.00  0.00    -0.017 C 
ATOM     23  C   UNL     1      96.211  98.200  81.630  1.00  0.00     0.007 C 
ATOM     24  C   UNL     1      98.053  96.588  80.892  1.00  0.00     0.007 C 
ENDBRANCH  21  22
ENDBRANCH  20  21
ENDBRANCH  19  20
ENDBRANCH  18  19
ENDBRANCH   1  18
TORSDOF 11
ENDMDL
MODEL 5
REMARK VINA RESULT:    -5.316      2.263      3.830
REMARK INTER + INTRA:         -10.128
REMARK INTER:                  -8.389
REMARK INTRA:                  -1.738
REMARK UNBOUND:                -1.548
REMARK SMILES COc1cc(CNC(=O)CCCCCCC(C)C)ccc1O
REMARK SMILES IDX 11 1 10 2 8 3 7 4 9 6 6 7 5 8 3 9 21 10 4 11 20 12 19 13
REMARK SMILES IDX 2 14 1 15 22 16 12 18 13 19 14 20 15 21 16 22 17 23 18 24
REMARK H PARENT 7 5 22 17
REMARK Flexibility Score: inf
ROOT
ATOM      1  C   UNL     1      80.201  86.682  87.267  1.00  0.00     0.010 C 
ENDROOT
BRANCH   1   2
ATOM      2  C   UNL     1      80.516  86.681  88.789  1.00  0.00     0.100 C 
BRANCH   2   3
ATOM      3  C   UNL     1      80.386  88.017  89.413  1.00  0.00     0.220 C 
ATOM      4  N   UNL     1      80.217  89.127  88.638  1.00  0.00    -0.352 N 
ATOM      5  H   UNL     1      80.235  88.953  87.644  1.00  0.00     0.163 HD
ATOM      6  O   UNL     1      80.410  88.100  90.666  1.00  0.00    -0.275 OA
BRANCH   4   7
ATOM      7  C   UNL     1      80.023  90.457  89.131  1.00  0.00     0.151 C 
BRANCH   7   8
ATOM      8  C   UNL     1      81.147  91.375  88.800  1.00  0.00    -0.025 A 
ATOM      9  C   UNL     1      83.298  91.791  87.683  1.00  0.00     0.160 A 
ATOM     10  C   UNL     1      83.273  93.130  88.128  1.00  0.00     0.157 A 
ATOM     11  C   UNL     1      82.247  90.919  88.037  1.00  0.00     0.056 A 
ATOM     12  C   UNL     1      82.203  93.585  88.920  1.00  0.00     0.050 A 
ATOM     13  C   UNL     1      81.142  92.717  89.246  1.00  0.00     0.009 A 
BRANCH   9  14
ATOM     14  O   UNL     1      84.354  91.328  86.945  1.00  0.00    -0.493 OA
ATOM     15  C   UNL     1      84.099  91.291  85.529  1.00  0.00     0.278 C 
ENDBRANCH   9  14
BRANCH  10  16
ATOM     16  O   UNL     1      84.273  93.991  87.803  1.00  0.00    -0.504 OA
ATOM     17  H   UNL     1      84.022  94.493  87.023  1.00  0.00     0.293 HD
ENDBRANCH  10  16
ENDBRANCH   7   8
ENDBRANCH   4   7
ENDBRANCH   2   3
ENDBRANCH   1   2
BRANCH   1  18
ATOM     18  C   UNL     1      81.177  85.774  86.466  1.00  0.00     0.001 C 
BRANCH  18  19
ATOM     19  C   UNL     1      82.472  86.500  86.004  1.00  0.00     0.000 C 
BRANCH  19  20
ATOM     20  C   UNL     1      82.251  88.033  85.870  1.00  0.00     0.000 C 
BRANCH  20  21
ATOM     21  C   UNL     1      82.107  88.530  84.405  1.00  0.00     0.003 C 
BRANCH  21  22
ATOM     22  C   UNL     1      80.635  88.791  83.949  1.00  0.00    -0.017 C 
ATOM     23  C   UNL     1      79.852  89.558  85.051  1.00  0.00     0.007 C 
ATOM     24  C   UNL     1      79.870  87.499  83.535  1.00  0.00     0.007 C 
ENDBRANCH  21  22
ENDBRANCH  20  21
ENDBRANCH  19  20
ENDBRANCH  18  19
ENDBRANCH   1  18
TORSDOF 11
ENDMDL
MODEL 6
REMARK VINA RESULT:    -5.043      2.199      4.062
REMARK INTER + INTRA:          -9.687
REMARK INTER:                  -8.776
REMARK INTRA:                  -0.911
REMARK UNBOUND:                -1.548
REMARK SMILES COc1cc(CNC(=O)CCCCCCC(C)C)ccc1O
REMARK SMILES IDX 11 1 10 2 8 3 7 4 9 6 6 7 5 8 3 9 21 10 4 11 20 12 19 13
REMARK SMILES IDX 2 14 1 15 22 16 12 18 13 19 14 20 15 21 16 22 17 23 18 24
REMARK H PARENT 7 5 22 17
REMARK Flexibility Score: inf
ROOT
ATOM      1  C   UNL     1      83.449  90.618  86.154  1.00  0.00     0.010 C 
ENDROOT
BRANCH   1   2
ATOM      2  C   UNL     1      83.325  90.055  87.597  1.00  0.00     0.100 C 
BRANCH   2   3
ATOM      3  C   UNL     1      82.824  91.050  88.572  1.00  0.00     0.220 C 
ATOM      4  N   UNL     1      83.538  92.184  88.827  1.00  0.00    -0.352 N 
ATOM      5  H   UNL     1      84.420  92.246  88.339  1.00  0.00     0.163 HD
ATOM      6  O   UNL     1      81.723  90.838  89.136  1.00  0.00    -0.275 OA
BRANCH   4   7
ATOM      7  C   UNL     1      83.128  93.240  89.702  1.00  0.00     0.151 C 
BRANCH   7   8
ATOM      8  C   UNL     1      82.760  94.490  88.982  1.00  0.00    -0.025 A 
ATOM      9  C   UNL     1      81.433  96.556  88.843  1.00  0.00     0.160 A 
ATOM     10  C   UNL     1      82.084  96.896  87.637  1.00  0.00     0.157 A 
ATOM     11  C   UNL     1      81.761  95.349  89.495  1.00  0.00     0.056 A 
ATOM     12  C   UNL     1      83.051  96.030  87.096  1.00  0.00     0.050 A 
ATOM     13  C   UNL     1      83.396  94.841  87.768  1.00  0.00     0.009 A 
BRANCH   9  14
ATOM     14  O   UNL     1      80.462  97.371  89.358  1.00  0.00    -0.493 OA
ATOM     15  C   UNL     1      79.154  96.771  89.384  1.00  0.00     0.278 C 
ENDBRANCH   9  14
BRANCH  10  16
ATOM     16  O   UNL     1      81.786  98.051  86.987  1.00  0.00    -0.504 OA
ATOM     17  H   UNL     1      81.091  97.887  86.346  1.00  0.00     0.293 HD
ENDBRANCH  10  16
ENDBRANCH   7   8
ENDBRANCH   4   7
ENDBRANCH   2   3
ENDBRANCH   1   2
BRANCH   1  18
ATOM     18  C   UNL     1      82.983  89.592  85.082  1.00  0.00     0.001 C 
BRANCH  18  19
ATOM     19  C   UNL     1      81.715  90.037  84.300  1.00  0.00     0.000 C 
BRANCH  19  20
ATOM     20  C   UNL     1      80.422  89.818  85.135  1.00  0.00     0.000 C 
BRANCH  20  21
ATOM     21  C   UNL     1      79.536  88.641  84.641  1.00  0.00     0.003 C 
BRANCH  21  22
ATOM     22  C   UNL     1      80.328  87.352  84.246  1.00  0.00    -0.017 C 
ATOM     23  C   UNL     1      79.995  86.934  82.786  1.00  0.00     0.007 C 
ATOM     24  C   UNL     1      80.103  86.157  85.219  1.00  0.00     0.007 C 
ENDBRANCH  21  22
ENDBRANCH  20  21
ENDBRANCH  19  20
ENDBRANCH  18  19
ENDBRANCH   1  18
TORSDOF 11
ENDMDL
MODEL 7
REMARK VINA RESULT:    -5.042     23.394     26.201
REMARK INTER + INTRA:          -9.686
REMARK INTER:                  -8.515
REMARK INTRA:                  -1.171
REMARK UNBOUND:                -1.548
REMARK SMILES COc1cc(CNC(=O)CCCCCCC(C)C)ccc1O
REMARK SMILES IDX 11 1 10 2 8 3 7 4 9 6 6 7 5 8 3 9 21 10 4 11 20 12 19 13
REMARK SMILES IDX 2 14 1 15 22 16 12 18 13 19 14 20 15 21 16 22 17 23 18 24
REMARK H PARENT 7 5 22 17
REMARK Flexibility Score: inf
ROOT
ATOM      1  C   UNL     1      81.656  66.139  74.937  1.00  0.00     0.010 C 
ENDROOT
BRANCH   1   2
ATOM      2  C   UNL     1      81.875  64.850  75.775  1.00  0.00     0.100 C 
BRANCH   2   3
ATOM      3  C   UNL     1      83.221  64.770  76.386  1.00  0.00     0.220 C 
ATOM      4  N   UNL     1      84.278  65.411  75.809  1.00  0.00    -0.352 N 
ATOM      5  H   UNL     1      84.063  65.881  74.942  1.00  0.00     0.163 HD
ATOM      6  O   UNL     1      83.360  64.124  77.453  1.00  0.00    -0.275 OA
BRANCH   4   7
ATOM      7  C   UNL     1      85.608  65.453  76.338  1.00  0.00     0.151 C 
BRANCH   7   8
ATOM      8  C   UNL     1      85.900  66.704  77.091  1.00  0.00    -0.025 A 
ATOM      9  C   UNL     1      86.870  67.833  79.048  1.00  0.00     0.160 A 
ATOM     10  C   UNL     1      86.500  69.086  78.511  1.00  0.00     0.157 A 
ATOM     11  C   UNL     1      86.551  66.653  78.344  1.00  0.00     0.056 A 
ATOM     12  C   UNL     1      85.817  69.147  77.283  1.00  0.00     0.050 A 
ATOM     13  C   UNL     1      85.528  67.966  76.572  1.00  0.00     0.009 A 
BRANCH   9  14
ATOM     14  O   UNL     1      87.500  67.760  80.261  1.00  0.00    -0.493 OA
ATOM     15  C   UNL     1      87.930  66.433  80.612  1.00  0.00     0.278 C 
ENDBRANCH   9  14
BRANCH  10  16
ATOM     16  O   UNL     1      86.793  70.239  79.168  1.00  0.00    -0.504 OA
ATOM     17  H   UNL     1      85.979  70.698  79.386  1.00  0.00     0.293 HD
ENDBRANCH  10  16
ENDBRANCH   7   8
ENDBRANCH   4   7
ENDBRANCH   2   3
ENDBRANCH   1   2
BRANCH   1  18
ATOM     18  C   UNL     1      80.271  66.151  74.230  1.00  0.00     0.001 C 
BRANCH  18  19
ATOM     19  C   UNL     1      80.150  65.121  73.072  1.00  0.00     0.000 C 
BRANCH  19  20
ATOM     20  C   UNL     1      80.122  65.822  71.684  1.00  0.00     0.000 C 
BRANCH  20  21
ATOM     21  C   UNL     1      80.452  67.339  71.729  1.00  0.00     0.003 C 
BRANCH  21  22
ATOM     22  C   UNL     1      81.862  67.716  71.168  1.00  0.00    -0.017 C 
ATOM     23  C   UNL     1      82.598  66.448  70.651  1.00  0.00     0.007 C 
ATOM     24  C   UNL     1      82.754  68.487  72.184  1.00  0.00     0.007 C 
ENDBRANCH  21  22
ENDBRANCH  20  21
ENDBRANCH  19  20
ENDBRANCH  18  19
ENDBRANCH   1  18
TORSDOF 11
ENDMDL
MODEL 8
REMARK VINA RESULT:    -4.966     17.748     20.706
REMARK INTER + INTRA:          -9.562
REMARK INTER:                  -8.855
REMARK INTRA:                  -0.707
REMARK UNBOUND:                -1.548
REMARK SMILES COc1cc(CNC(=O)CCCCCCC(C)C)ccc1O
REMARK SMILES IDX 11 1 10 2 8 3 7 4 9 6 6 7 5 8 3 9 21 10 4 11 20 12 19 13
REMARK SMILES IDX 2 14 1 15 22 16 12 18 13 19 14 20 15 21 16 22 17 23 18 24
REMARK H PARENT 7 5 22 17
REMARK Flexibility Score: inf
ROOT
ATOM      1  C   UNL     1      62.141  85.538  76.853  1.00  0.00     0.010 C 
ENDROOT
BRANCH   1   2
ATOM      2  C   UNL     1      63.388  86.294  76.317  1.00  0.00     0.100 C 
BRANCH   2   3
ATOM      3  C   UNL     1      64.104  87.059  77.363  1.00  0.00     0.220 C 
ATOM      4  N   UNL     1      63.721  86.963  78.670  1.00  0.00    -0.352 N 
ATOM      5  H   UNL     1      62.912  86.381  78.830  1.00  0.00     0.163 HD
ATOM      6  O   UNL     1      65.079  87.773  77.026  1.00  0.00    -0.275 OA
BRANCH   4   7
ATOM      7  C   UNL     1      64.371  87.607  79.770  1.00  0.00     0.151 C 
BRANCH   7   8
ATOM      8  C   UNL     1      65.167  86.671  80.611  1.00  0.00    -0.025 A 
ATOM      9  C   UNL     1      65.586  85.589  82.780  1.00  0.00     0.160 A 
ATOM     10  C   UNL     1      66.649  84.855  82.211  1.00  0.00     0.157 A 
ATOM     11  C   UNL     1      64.866  86.504  81.983  1.00  0.00     0.056 A 
ATOM     12  C   UNL     1      66.983  85.041  80.857  1.00  0.00     0.050 A 
ATOM     13  C   UNL     1      66.241  85.934  80.059  1.00  0.00     0.009 A 
BRANCH   9  14
ATOM     14  O   UNL     1      65.278  85.445  84.106  1.00  0.00    -0.493 OA
ATOM     15  C   UNL     1      63.888  85.169  84.352  1.00  0.00     0.278 C 
ENDBRANCH   9  14
BRANCH  10  16
ATOM     16  O   UNL     1      67.360  83.969  82.956  1.00  0.00    -0.504 OA
ATOM     17  H   UNL     1      68.240  84.319  83.115  1.00  0.00     0.293 HD
ENDBRANCH  10  16
ENDBRANCH   7   8
ENDBRANCH   4   7
ENDBRANCH   2   3
ENDBRANCH   1   2
BRANCH   1  18
ATOM     18  C   UNL     1      61.754  84.332  75.951  1.00  0.00     0.001 C 
BRANCH  18  19
ATOM     19  C   UNL     1      62.913  83.828  75.046  1.00  0.00     0.000 C 
BRANCH  19  20
ATOM     20  C   UNL     1      62.589  82.443  74.419  1.00  0.00     0.000 C 
BRANCH  20  21
ATOM     21  C   UNL     1      63.457  81.276  74.967  1.00  0.00     0.003 C 
BRANCH  21  22
ATOM     22  C   UNL     1      64.080  80.356  73.867  1.00  0.00    -0.017 C 
ATOM     23  C   UNL     1      65.590  80.117  74.148  1.00  0.00     0.007 C 
ATOM     24  C   UNL     1      63.872  80.886  72.418  1.00  0.00     0.007 C 
ENDBRANCH  21  22
ENDBRANCH  20  21
ENDBRANCH  19  20
ENDBRANCH  18  19
ENDBRANCH   1  18
TORSDOF 11
ENDMDL
MODEL 9
REMARK VINA RESULT:    -4.946      2.622      4.422
REMARK INTER + INTRA:          -9.529
REMARK INTER:                  -8.098
REMARK INTRA:                  -1.432
REMARK UNBOUND:                -1.548
REMARK SMILES COc1cc(CNC(=O)CCCCCCC(C)C)ccc1O
REMARK SMILES IDX 11 1 10 2 8 3 7 4 9 6 6 7 5 8 3 9 21 10 4 11 20 12 19 13
REMARK SMILES IDX 2 14 1 15 22 16 12 18 13 19 14 20 15 21 16 22 17 23 18 24
REMARK H PARENT 7 5 22 17
REMARK Flexibility Score: inf
ROOT
ATOM      1  C   UNL     1      80.985  86.966  85.731  1.00  0.00     0.010 C 
ENDROOT
BRANCH   1   2
ATOM      2  C   UNL     1      79.984  86.428  86.791  1.00  0.00     0.100 C 
BRANCH   2   3
ATOM      3  C   UNL     1      79.879  87.291  87.988  1.00  0.00     0.220 C 
ATOM      4  N   UNL     1      79.855  88.649  87.859  1.00  0.00    -0.352 N 
ATOM      5  H   UNL     1      79.956  88.984  86.912  1.00  0.00     0.163 HD
ATOM      6  O   UNL     1      79.790  86.747  89.116  1.00  0.00    -0.275 OA
BRANCH   4   7
ATOM      7  C   UNL     1      79.699  89.579  88.936  1.00  0.00     0.151 C 
BRANCH   7   8
ATOM      8  C   UNL     1      80.985  90.184  89.379  1.00  0.00    -0.025 A 
ATOM      9  C   UNL     1      83.000  90.109  90.787  1.00  0.00     0.160 A 
ATOM     10  C   UNL     1      83.458  91.308  90.199  1.00  0.00     0.157 A 
ATOM     11  C   UNL     1      81.760  89.567  90.387  1.00  0.00     0.056 A 
ATOM     12  C   UNL     1      82.677  91.952  89.222  1.00  0.00     0.050 A 
ATOM     13  C   UNL     1      81.454  91.390  88.807  1.00  0.00     0.009 A 
BRANCH   9  14
ATOM     14  O   UNL     1      83.733  89.495  91.765  1.00  0.00    -0.493 OA
ATOM     15  C   UNL     1      83.596  88.063  91.781  1.00  0.00     0.278 C 
ENDBRANCH   9  14
BRANCH  10  16
ATOM     16  O   UNL     1      84.648  91.854  90.565  1.00  0.00    -0.504 OA
ATOM     17  H   UNL     1      85.099  91.259  91.169  1.00  0.00     0.293 HD
ENDBRANCH  10  16
ENDBRANCH   7   8
ENDBRANCH   4   7
ENDBRANCH   2   3
ENDBRANCH   1   2
BRANCH   1  18
ATOM     18  C   UNL     1      80.264  87.688  84.557  1.00  0.00     0.001 C 
BRANCH  18  19
ATOM     19  C   UNL     1      80.775  89.134  84.303  1.00  0.00     0.000 C 
BRANCH  19  20
ATOM     20  C   UNL     1      82.320  89.228  84.445  1.00  0.00     0.000 C 
BRANCH  20  21
ATOM     21  C   UNL     1      82.802  90.290  85.473  1.00  0.00     0.003 C 
BRANCH  21  22
ATOM     22  C   UNL     1      84.344  90.549  85.466  1.00  0.00    -0.017 C 
ATOM     23  C   UNL     1      85.034  89.753  86.610  1.00  0.00     0.007 C 
ATOM     24  C   UNL     1      84.725  92.056  85.544  1.00  0.00     0.007 C 
ENDBRANCH  21  22
ENDBRANCH  20  21
ENDBRANCH  19  20
ENDBRANCH  18  19
ENDBRANCH   1  18
TORSDOF 11
ENDMDL
MODEL 10
REMARK VINA RESULT:    -4.871     15.401     17.033
REMARK INTER + INTRA:          -9.409
REMARK INTER:                  -8.588
REMARK INTRA:                  -0.821
REMARK UNBOUND:                -1.548
REMARK SMILES COc1cc(CNC(=O)CCCCCCC(C)C)ccc1O
REMARK SMILES IDX 11 1 10 2 8 3 7 4 9 6 6 7 5 8 3 9 21 10 4 11 20 12 19 13
REMARK SMILES IDX 2 14 1 15 22 16 12 18 13 19 14 20 15 21 16 22 17 23 18 24
REMARK H PARENT 7 5 22 17
REMARK Flexibility Score: inf
ROOT
ATOM      1  C   UNL     1      96.714  94.539  76.243  1.00  0.00     0.010 C 
ENDROOT
BRANCH   1   2
ATOM      2  C   UNL     1      96.668  95.952  75.599  1.00  0.00     0.100 C 
BRANCH   2   3
ATOM      3  C   UNL     1      97.174  97.019  76.492  1.00  0.00     0.220 C 
ATOM      4  N   UNL     1      96.871  97.005  77.822  1.00  0.00    -0.352 N 
ATOM      5  H   UNL     1      96.259  96.254  78.107  1.00  0.00     0.163 HD
ATOM      6  O   UNL     1      97.903  97.917  76.004  1.00  0.00    -0.275 OA
BRANCH   4   7
ATOM      7  C   UNL     1      97.349  97.947  78.788  1.00  0.00     0.151 C 
BRANCH   7   8
ATOM      8  C   UNL     1      96.940  97.618  80.181  1.00  0.00    -0.025 A 
ATOM      9  C   UNL     1      95.847  96.099  81.777  1.00  0.00     0.160 A 
ATOM     10  C   UNL     1      96.193  96.962  82.840  1.00  0.00     0.157 A 
ATOM     11  C   UNL     1      96.205  96.442  80.457  1.00  0.00     0.056 A 
ATOM     12  C   UNL     1      96.890  98.155  82.574  1.00  0.00     0.050 A 
ATOM     13  C   UNL     1      97.271  98.476  81.256  1.00  0.00     0.009 A 
BRANCH   9  14
ATOM     14  O   UNL     1      95.134  94.956  82.020  1.00  0.00    -0.493 OA
ATOM     15  C   UNL     1      95.841  93.749  81.682  1.00  0.00     0.278 C 
ENDBRANCH   9  14
BRANCH  10  16
ATOM     16  O   UNL     1      95.860  96.658  84.121  1.00  0.00    -0.504 OA
ATOM     17  H   UNL     1      94.945  96.367  84.153  1.00  0.00     0.293 HD
ENDBRANCH  10  16
ENDBRANCH   7   8
ENDBRANCH   4   7
ENDBRANCH   2   3
ENDBRANCH   1   2
BRANCH   1  18
ATOM     18  C   UNL     1      95.293  93.982  76.539  1.00  0.00     0.001 C 
BRANCH  18  19
ATOM     19  C   UNL     1      94.342  94.004  75.308  1.00  0.00     0.000 C 
BRANCH  19  20
ATOM     20  C   UNL     1      93.014  94.748  75.625  1.00  0.00     0.000 C 
BRANCH  20  21
ATOM     21  C   UNL     1      91.747  93.852  75.544  1.00  0.00     0.003 C 
BRANCH  21  22
ATOM     22  C   UNL     1      91.609  93.040  74.215  1.00  0.00    -0.017 C 
ATOM     23  C   UNL     1      90.239  93.331  73.541  1.00  0.00     0.007 C 
ATOM     24  C   UNL     1      91.812  91.507  74.395  1.00  0.00     0.007 C 
ENDBRANCH  21  22
ENDBRANCH  20  21
ENDBRANCH  19  20
ENDBRANCH  18  19
ENDBRANCH   1  18
TORSDOF 11
ENDMDL
