MODEL 1
REMARK VINA RESULT:    -6.252      0.000      0.000
REMARK INTER + INTRA:         -10.328
REMARK INTER:                  -9.725
REMARK INTRA:                  -0.603
REMARK UNBOUND:                -0.603
REMARK SMILES COc1cc(CNC(=O)CCCCCC(C)C)ccc1O
REMARK SMILES IDX 10 1 8 2 7 3 9 5 6 6 5 7 3 8 20 9 4 10 19 11 18 12 2 13 1 14
REMARK SMILES IDX 21 15 11 17 12 18 13 19 14 20 15 21 16 22 17 23
REMARK H PARENT 7 4 21 16
REMARK Flexibility Score: inf
ROOT
ATOM      1  C   UNL     1      94.328  82.459  84.166  1.00  0.00     0.100 C 
ENDROOT
BRANCH   1   2
ATOM      2  C   UNL     1      92.990  82.521  84.791  1.00  0.00     0.220 C 
ATOM      3  N   UNL     1      91.892  82.181  84.059  1.00  0.00    -0.352 N 
ATOM      4  H   UNL     1      92.067  82.031  83.075  1.00  0.00     0.163 HD
ATOM      5  O   UNL     1      92.897  82.847  86.000  1.00  0.00    -0.275 OA
BRANCH   3   6
ATOM      6  C   UNL     1      90.572  82.030  84.580  1.00  0.00     0.151 C 
BRANCH   6   7
ATOM      7  C   UNL     1      90.034  80.652  84.419  1.00  0.00    -0.025 A 
ATOM      8  C   UNL     1      90.389  78.220  84.342  1.00  0.00     0.160 A 
ATOM      9  C   UNL     1      89.001  78.025  84.180  1.00  0.00     0.157 A 
ATOM     10  C   UNL     1      90.899  79.532  84.442  1.00  0.00     0.056 A 
ATOM     11  C   UNL     1      88.135  79.132  84.128  1.00  0.00     0.050 A 
ATOM     12  C   UNL     1      88.646  80.435  84.253  1.00  0.00     0.009 A 
BRANCH   8  13
ATOM     13  O   UNL     1      91.252  77.156  84.375  1.00  0.00    -0.493 OA
ATOM     14  C   UNL     1      92.612  77.499  84.049  1.00  0.00     0.278 C 
ENDBRANCH   8  13
BRANCH   9  15
ATOM     15  O   UNL     1      88.501  76.767  84.081  1.00  0.00    -0.504 OA
ATOM     16  H   UNL     1      88.554  76.472  83.169  1.00  0.00     0.293 HD
ENDBRANCH   9  15
ENDBRANCH   6   7
ENDBRANCH   3   6
ENDBRANCH   1   2
BRANCH   1  17
ATOM     17  C   UNL     1      95.271  83.628  84.559  1.00  0.00     0.010 C 
BRANCH  17  18
ATOM     18  C   UNL     1      96.569  83.627  83.705  1.00  0.00     0.001 C 
BRANCH  18  19
ATOM     19  C   UNL     1      96.317  83.337  82.201  1.00  0.00     0.000 C 
BRANCH  19  20
ATOM     20  C   UNL     1      97.133  82.113  81.694  1.00  0.00     0.003 C 
BRANCH  20  21
ATOM     21  C   UNL     1      97.508  82.152  80.177  1.00  0.00    -0.017 C 
ATOM     22  C   UNL     1      99.045  82.000  79.980  1.00  0.00     0.007 C 
ATOM     23  C   UNL     1      97.004  83.440  79.463  1.00  0.00     0.007 C 
ENDBRANCH  20  21
ENDBRANCH  19  20
ENDBRANCH  18  19
ENDBRANCH  17  18
ENDBRANCH   1  17
TORSDOF 10
ENDMDL
MODEL 2
REMARK VINA RESULT:    -5.923      3.621      6.810
REMARK INTER + INTRA:          -9.815
REMARK INTER:                  -9.326
REMARK INTRA:                  -0.489
REMARK UNBOUND:                -0.603
REMARK SMILES COc1cc(CNC(=O)CCCCCC(C)C)ccc1O
REMARK SMILES IDX 10 1 8 2 7 3 9 5 6 6 5 7 3 8 20 9 4 10 19 11 18 12 2 13 1 14
REMARK SMILES IDX 21 15 11 17 12 18 13 19 14 20 15 21 16 22 17 23
REMARK H PARENT 7 4 21 16
REMARK Flexibility Score: inf
ROOT
ATOM      1  C   UNL     1      97.595  83.285  79.316  1.00  0.00     0.100 C 
ENDROOT
BRANCH   1   2
ATOM      2  C   UNL     1      97.333  82.445  80.504  1.00  0.00     0.220 C 
ATOM      3  N   UNL     1      97.028  83.041  81.691  1.00  0.00    -0.352 N 
ATOM      4  H   UNL     1      97.135  84.046  81.702  1.00  0.00     0.163 HD
ATOM      5  O   UNL     1      97.355  81.196  80.383  1.00  0.00    -0.275 OA
BRANCH   3   6
ATOM      6  C   UNL     1      96.587  82.358  82.864  1.00  0.00     0.151 C 
BRANCH   6   7
ATOM      7  C   UNL     1      95.599  83.137  83.658  1.00  0.00    -0.025 A 
ATOM      8  C   UNL     1      93.457  83.269  84.859  1.00  0.00     0.160 A 
ATOM      9  C   UNL     1      93.748  84.601  85.226  1.00  0.00     0.157 A 
ATOM     10  C   UNL     1      94.375  82.553  84.063  1.00  0.00     0.056 A 
ATOM     11  C   UNL     1      94.950  85.200  84.807  1.00  0.00     0.050 A 
ATOM     12  C   UNL     1      95.871  84.473  84.034  1.00  0.00     0.009 A 
BRANCH   8  13
ATOM     13  O   UNL     1      92.284  82.673  85.241  1.00  0.00    -0.493 OA
ATOM     14  C   UNL     1      91.901  81.559  84.412  1.00  0.00     0.278 C 
ENDBRANCH   8  13
BRANCH   9  15
ATOM     15  O   UNL     1      92.871  85.299  85.990  1.00  0.00    -0.504 OA
ATOM     16  H   UNL     1      92.888  86.224  85.732  1.00  0.00     0.293 HD
ENDBRANCH   9  15
ENDBRANCH   6   7
ENDBRANCH   3   6
ENDBRANCH   1   2
BRANCH   1  17
ATOM     17  C   UNL     1      96.657  82.998  78.113  1.00  0.00     0.010 C 
BRANCH  17  18
ATOM     18  C   UNL     1      96.795  84.084  77.009  1.00  0.00     0.001 C 
BRANCH  18  19
ATOM     19  C   UNL     1      98.130  83.999  76.225  1.00  0.00     0.000 C 
BRANCH  19  20
ATOM     20  C   UNL     1      98.060  82.978  75.052  1.00  0.00     0.003 C 
BRANCH  20  21
ATOM     21  C   UNL     1      97.839  83.610  73.639  1.00  0.00    -0.017 C 
ATOM     22  C   UNL     1      98.179  82.588  72.514  1.00  0.00     0.007 C 
ATOM     23  C   UNL     1      98.648  84.923  73.430  1.00  0.00     0.007 C 
ENDBRANCH  20  21
ENDBRANCH  19  20
ENDBRANCH  18  19
ENDBRANCH  17  18
ENDBRANCH   1  17
TORSDOF 10
ENDMDL
MODEL 3
REMARK VINA RESULT:    -5.721      3.573      5.567
REMARK INTER + INTRA:          -9.502
REMARK INTER:                  -9.059
REMARK INTRA:                  -0.442
REMARK UNBOUND:                -0.603
REMARK SMILES COc1cc(CNC(=O)CCCCCC(C)C)ccc1O
REMARK SMILES IDX 10 1 8 2 7 3 9 5 6 6 5 7 3 8 20 9 4 10 19 11 18 12 2 13 1 14
REMARK SMILES IDX 21 15 11 17 12 18 13 19 14 20 15 21 16 22 17 23
REMARK H PARENT 7 4 21 16
REMARK Flexibility Score: inf
ROOT
ATOM      1  C   UNL     1      96.753  83.520  79.990  1.00  0.00     0.100 C 
ENDROOT
BRANCH   1   2
ATOM      2  C   UNL     1      97.012  82.595  81.113  1.00  0.00     0.220 C 
ATOM      3  N   UNL     1      96.489  82.870  82.341  1.00  0.00    -0.352 N 
ATOM      4  H   UNL     1      96.059  83.780  82.426  1.00  0.00     0.163 HD
ATOM      5  O   UNL     1      97.675  81.551  80.901  1.00  0.00    -0.275 OA
BRANCH   3   6
ATOM      6  C   UNL     1      96.514  81.986  83.462  1.00  0.00     0.151 C 
BRANCH   6   7
ATOM      7  C   UNL     1      95.156  81.602  83.933  1.00  0.00    -0.025 A 
ATOM      8  C   UNL     1      93.567  79.882  84.684  1.00  0.00     0.160 A 
ATOM      9  C   UNL     1      92.591  80.879  84.895  1.00  0.00     0.157 A 
ATOM     10  C   UNL     1      94.836  80.247  84.186  1.00  0.00     0.056 A 
ATOM     11  C   UNL     1      92.890  82.227  84.622  1.00  0.00     0.050 A 
ATOM     12  C   UNL     1      94.164  82.586  84.150  1.00  0.00     0.009 A 
BRANCH   8  13
ATOM     13  O   UNL     1      93.289  78.562  84.925  1.00  0.00    -0.493 OA
ATOM     14  C   UNL     1      94.335  77.662  84.510  1.00  0.00     0.278 C 
ENDBRANCH   8  13
BRANCH   9  15
ATOM     15  O   UNL     1      91.367  80.539  85.371  1.00  0.00    -0.504 OA
ATOM     16  H   UNL     1      90.893  81.332  85.631  1.00  0.00     0.293 HD
ENDBRANCH   9  15
ENDBRANCH   6   7
ENDBRANCH   3   6
ENDBRANCH   1   2
BRANCH   1  17
ATOM     17  C   UNL     1      97.406  83.094  78.648  1.00  0.00     0.010 C 
BRANCH  17  18
ATOM     18  C   UNL     1      96.751  83.815  77.438  1.00  0.00     0.001 C 
BRANCH  18  19
ATOM     19  C   UNL     1      97.696  83.949  76.215  1.00  0.00     0.000 C 
BRANCH  19  20
ATOM     20  C   UNL     1      96.948  84.448  74.945  1.00  0.00     0.003 C 
BRANCH  20  21
ATOM     21  C   UNL     1      97.809  84.476  73.640  1.00  0.00    -0.017 C 
ATOM     22  C   UNL     1      98.000  83.039  73.070  1.00  0.00     0.007 C 
ATOM     23  C   UNL     1      99.193  85.158  73.842  1.00  0.00     0.007 C 
ENDBRANCH  20  21
ENDBRANCH  19  20
ENDBRANCH  18  19
ENDBRANCH  17  18
ENDBRANCH   1  17
TORSDOF 10
ENDMDL
MODEL 4
REMARK VINA RESULT:    -5.548      6.250     10.132
REMARK INTER + INTRA:          -9.232
REMARK INTER:                  -8.690
REMARK INTRA:                  -0.541
REMARK UNBOUND:                -0.603
REMARK SMILES COc1cc(CNC(=O)CCCCCC(C)C)ccc1O
REMARK SMILES IDX 10 1 8 2 7 3 9 5 6 6 5 7 3 8 20 9 4 10 19 11 18 12 2 13 1 14
REMARK SMILES IDX 21 15 11 17 12 18 13 19 14 20 15 21 16 22 17 23
REMARK H PARENT 7 4 21 16
REMARK Flexibility Score: inf
ROOT
ATOM      1  C   UNL     1      93.510  85.295  86.086  1.00  0.00     0.100 C 
ENDROOT
BRANCH   1   2
ATOM      2  C   UNL     1      93.988  86.671  85.838  1.00  0.00     0.220 C 
ATOM      3  N   UNL     1      94.105  87.538  86.884  1.00  0.00    -0.352 N 
ATOM      4  H   UNL     1      93.722  87.204  87.757  1.00  0.00     0.163 HD
ATOM      5  O   UNL     1      94.316  87.001  84.673  1.00  0.00    -0.275 OA
BRANCH   3   6
ATOM      6  C   UNL     1      94.711  88.829  86.817  1.00  0.00     0.151 C 
BRANCH   6   7
ATOM      7  C   UNL     1      94.212  89.764  87.861  1.00  0.00    -0.025 A 
ATOM      8  C   UNL     1      93.069  90.154  90.003  1.00  0.00     0.160 A 
ATOM      9  C   UNL     1      93.319  91.538  89.882  1.00  0.00     0.157 A 
ATOM     10  C   UNL     1      93.500  89.279  88.984  1.00  0.00     0.056 A 
ATOM     11  C   UNL     1      94.002  92.034  88.756  1.00  0.00     0.050 A 
ATOM     12  C   UNL     1      94.450  91.154  87.757  1.00  0.00     0.009 A 
BRANCH   8  13
ATOM     13  O   UNL     1      92.387  89.653  91.081  1.00  0.00    -0.493 OA
ATOM     14  C   UNL     1      92.149  88.234  91.010  1.00  0.00     0.278 C 
ENDBRANCH   8  13
BRANCH   9  15
ATOM     15  O   UNL     1      92.907  92.388  90.855  1.00  0.00    -0.504 OA
ATOM     16  H   UNL     1      92.830  93.274  90.494  1.00  0.00     0.293 HD
ENDBRANCH   9  15
ENDBRANCH   6   7
ENDBRANCH   3   6
ENDBRANCH   1   2
BRANCH   1  17
ATOM     17  C   UNL     1      94.609  84.205  85.957  1.00  0.00     0.010 C 
BRANCH  17  18
ATOM     18  C   UNL     1      94.084  82.950  85.208  1.00  0.00     0.001 C 
BRANCH  18  19
ATOM     19  C   UNL     1      92.536  82.849  85.182  1.00  0.00     0.000 C 
BRANCH  19  20
ATOM     20  C   UNL     1      92.035  81.742  84.210  1.00  0.00     0.003 C 
BRANCH  20  21
ATOM     21  C   UNL     1      91.451  80.469  84.905  1.00  0.00    -0.017 C 
ATOM     22  C   UNL     1      92.589  79.489  85.317  1.00  0.00     0.007 C 
ATOM     23  C   UNL     1      90.401  79.728  84.027  1.00  0.00     0.007 C 
ENDBRANCH  20  21
ENDBRANCH  19  20
ENDBRANCH  18  19
ENDBRANCH  17  18
ENDBRANCH   1  17
TORSDOF 10
ENDMDL
MODEL 5
REMARK VINA RESULT:    -5.542      5.672      9.531
REMARK INTER + INTRA:          -9.222
REMARK INTER:                  -8.577
REMARK INTRA:                  -0.645
REMARK UNBOUND:                -0.603
REMARK SMILES COc1cc(CNC(=O)CCCCCC(C)C)ccc1O
REMARK SMILES IDX 10 1 8 2 7 3 9 5 6 6 5 7 3 8 20 9 4 10 19 11 18 12 2 13 1 14
REMARK SMILES IDX 21 15 11 17 12 18 13 19 14 20 15 21 16 22 17 23
REMARK H PARENT 7 4 21 16
REMARK Flexibility Score: inf
ROOT
ATOM      1  C   UNL     1      97.655  83.489  74.726  1.00  0.00     0.100 C 
ENDROOT
BRANCH   1   2
ATOM      2  C   UNL     1      96.962  83.948  75.948  1.00  0.00     0.220 C 
ATOM      3  N   UNL     1      97.059  83.211  77.090  1.00  0.00    -0.352 N 
ATOM      4  H   UNL     1      97.504  82.311  76.978  1.00  0.00     0.163 HD
ATOM      5  O   UNL     1      96.331  85.034  75.919  1.00  0.00    -0.275 OA
BRANCH   3   6
ATOM      6  C   UNL     1      96.591  83.621  78.375  1.00  0.00     0.151 C 
BRANCH   6   7
ATOM      7  C   UNL     1      97.342  82.996  79.497  1.00  0.00    -0.025 A 
ATOM      8  C   UNL     1      97.572  82.502  81.895  1.00  0.00     0.160 A 
ATOM      9  C   UNL     1      98.735  81.750  81.626  1.00  0.00     0.157 A 
ATOM     10  C   UNL     1      96.894  83.136  80.832  1.00  0.00     0.056 A 
ATOM     11  C   UNL     1      99.204  81.626  80.305  1.00  0.00     0.050 A 
ATOM     12  C   UNL     1      98.511  82.239  79.248  1.00  0.00     0.009 A 
BRANCH   8  13
ATOM     13  O   UNL     1      97.109  82.651  83.176  1.00  0.00    -0.493 OA
ATOM     14  C   UNL     1      95.673  82.668  83.278  1.00  0.00     0.278 C 
ENDBRANCH   8  13
BRANCH   9  15
ATOM     15  O   UNL     1      99.396  81.139  82.641  1.00  0.00    -0.504 OA
ATOM     16  H   UNL     1      98.847  80.440  83.006  1.00  0.00     0.293 HD
ENDBRANCH   9  15
ENDBRANCH   6   7
ENDBRANCH   3   6
ENDBRANCH   1   2
BRANCH   1  17
ATOM     17  C   UNL     1      97.720  84.548  73.593  1.00  0.00     0.010 C 
BRANCH  17  18
ATOM     18  C   UNL     1      99.181  84.798  73.126  1.00  0.00     0.001 C 
BRANCH  18  19
ATOM     19  C   UNL     1     100.056  85.507  74.193  1.00  0.00     0.000 C 
BRANCH  19  20
ATOM     20  C   UNL     1     100.982  84.511  74.950  1.00  0.00     0.003 C 
BRANCH  20  21
ATOM     21  C   UNL     1     102.514  84.747  74.743  1.00  0.00    -0.017 C 
ATOM     22  C   UNL     1     102.843  86.269  74.714  1.00  0.00     0.007 C 
ATOM     23  C   UNL     1     103.064  84.057  73.461  1.00  0.00     0.007 C 
ENDBRANCH  20  21
ENDBRANCH  19  20
ENDBRANCH  18  19
ENDBRANCH  17  18
ENDBRANCH   1  17
TORSDOF 10
ENDMDL
MODEL 6
REMARK VINA RESULT:    -5.498     15.246     17.393
REMARK INTER + INTRA:          -9.155
REMARK INTER:                  -8.174
REMARK INTRA:                  -0.980
REMARK UNBOUND:                -0.603
REMARK SMILES COc1cc(CNC(=O)CCCCCC(C)C)ccc1O
REMARK SMILES IDX 10 1 8 2 7 3 9 5 6 6 5 7 3 8 20 9 4 10 19 11 18 12 2 13 1 14
REMARK SMILES IDX 21 15 11 17 12 18 13 19 14 20 15 21 16 22 17 23
REMARK H PARENT 7 4 21 16
REMARK Flexibility Score: inf
ROOT
ATOM      1  C   UNL     1      96.694  99.486  76.567  1.00  0.00     0.100 C 
ENDROOT
BRANCH   1   2
ATOM      2  C   UNL     1      95.658  99.002  75.631  1.00  0.00     0.220 C 
ATOM      3  N   UNL     1      95.445  97.662  75.502  1.00  0.00    -0.352 N 
ATOM      4  H   UNL     1      96.119  97.077  75.974  1.00  0.00     0.163 HD
ATOM      5  O   UNL     1      94.966  99.840  75.003  1.00  0.00    -0.275 OA
BRANCH   3   6
ATOM      6  C   UNL     1      94.371  97.068  74.772  1.00  0.00     0.151 C 
BRANCH   6   7
ATOM      7  C   UNL     1      93.497  96.208  75.616  1.00  0.00    -0.025 A 
ATOM      8  C   UNL     1      91.901  94.350  75.829  1.00  0.00     0.160 A 
ATOM      9  C   UNL     1      91.885  94.526  77.229  1.00  0.00     0.157 A 
ATOM     10  C   UNL     1      92.692  95.203  75.030  1.00  0.00     0.056 A 
ATOM     11  C   UNL     1      92.662  95.540  77.819  1.00  0.00     0.050 A 
ATOM     12  C   UNL     1      93.466  96.370  77.020  1.00  0.00     0.009 A 
BRANCH   8  13
ATOM     13  O   UNL     1      91.136  93.381  75.232  1.00  0.00    -0.493 OA
ATOM     14  C   UNL     1      89.872  93.862  74.736  1.00  0.00     0.278 C 
ENDBRANCH   8  13
BRANCH   9  15
ATOM     15  O   UNL     1      91.127  93.713  78.006  1.00  0.00    -0.504 OA
ATOM     16  H   UNL     1      90.871  94.181  78.804  1.00  0.00     0.293 HD
ENDBRANCH   9  15
ENDBRANCH   6   7
ENDBRANCH   3   6
ENDBRANCH   1   2
BRANCH   1  17
ATOM     17  C   UNL     1      97.785  98.436  76.910  1.00  0.00     0.010 C 
BRANCH  17  18
ATOM     18  C   UNL     1      97.816  98.118  78.430  1.00  0.00     0.001 C 
BRANCH  18  19
ATOM     19  C   UNL     1      97.476  96.640  78.758  1.00  0.00     0.000 C 
BRANCH  19  20
ATOM     20  C   UNL     1      96.432  96.517  79.906  1.00  0.00     0.003 C 
BRANCH  20  21
ATOM     21  C   UNL     1      97.037  96.481  81.347  1.00  0.00    -0.017 C 
ATOM     22  C   UNL     1      96.572  95.207  82.113  1.00  0.00     0.007 C 
ATOM     23  C   UNL     1      96.700  97.755  82.176  1.00  0.00     0.007 C 
ENDBRANCH  20  21
ENDBRANCH  19  20
ENDBRANCH  18  19
ENDBRANCH  17  18
ENDBRANCH   1  17
TORSDOF 10
ENDMDL
MODEL 7
REMARK VINA RESULT:    -5.402     22.866     25.445
REMARK INTER + INTRA:          -9.006
REMARK INTER:                  -8.051
REMARK INTRA:                  -0.955
REMARK UNBOUND:                -0.603
REMARK SMILES COc1cc(CNC(=O)CCCCCC(C)C)ccc1O
REMARK SMILES IDX 10 1 8 2 7 3 9 5 6 6 5 7 3 8 20 9 4 10 19 11 18 12 2 13 1 14
REMARK SMILES IDX 21 15 11 17 12 18 13 19 14 20 15 21 16 22 17 23
REMARK H PARENT 7 4 21 16
REMARK Flexibility Score: inf
ROOT
ATOM      1  C   UNL     1      76.113  89.574  68.856  1.00  0.00     0.100 C 
ENDROOT
BRANCH   1   2
ATOM      2  C   UNL     1      77.035  88.527  68.370  1.00  0.00     0.220 C 
ATOM      3  N   UNL     1      76.909  87.253  68.838  1.00  0.00    -0.352 N 
ATOM      4  H   UNL     1      76.259  87.145  69.603  1.00  0.00     0.163 HD
ATOM      5  O   UNL     1      77.890  88.825  67.500  1.00  0.00    -0.275 OA
BRANCH   3   6
ATOM      6  C   UNL     1      77.611  86.118  68.331  1.00  0.00     0.151 C 
BRANCH   6   7
ATOM      7  C   UNL     1      76.777  85.264  67.444  1.00  0.00    -0.025 A 
ATOM      8  C   UNL     1      74.571  84.591  66.591  1.00  0.00     0.160 A 
ATOM      9  C   UNL     1      75.192  83.684  65.706  1.00  0.00     0.157 A 
ATOM     10  C   UNL     1      75.365  85.361  67.467  1.00  0.00     0.056 A 
ATOM     11  C   UNL     1      76.594  83.560  65.693  1.00  0.00     0.050 A 
ATOM     12  C   UNL     1      77.380  84.347  66.551  1.00  0.00     0.009 A 
BRANCH   8  13
ATOM     13  O   UNL     1      73.207  84.712  66.633  1.00  0.00    -0.493 OA
ATOM     14  C   UNL     1      72.697  85.817  65.862  1.00  0.00     0.278 C 
ENDBRANCH   8  13
BRANCH   9  15
ATOM     15  O   UNL     1      74.437  82.938  64.861  1.00  0.00    -0.504 OA
ATOM     16  H   UNL     1      74.657  83.160  63.954  1.00  0.00     0.293 HD
ENDBRANCH   9  15
ENDBRANCH   6   7
ENDBRANCH   3   6
ENDBRANCH   1   2
BRANCH   1  17
ATOM     17  C   UNL     1      74.898  89.033  69.656  1.00  0.00     0.010 C 
BRANCH  17  18
ATOM     18  C   UNL     1      74.139  90.175  70.388  1.00  0.00     0.001 C 
BRANCH  18  19
ATOM     19  C   UNL     1      72.776  89.729  70.979  1.00  0.00     0.000 C 
BRANCH  19  20
ATOM     20  C   UNL     1      71.574  90.218  70.119  1.00  0.00     0.003 C 
BRANCH  20  21
ATOM     21  C   UNL     1      70.693  89.081  69.508  1.00  0.00    -0.017 C 
ATOM     22  C   UNL     1      69.655  88.563  70.547  1.00  0.00     0.007 C 
ATOM     23  C   UNL     1      71.535  87.893  68.957  1.00  0.00     0.007 C 
ENDBRANCH  20  21
ENDBRANCH  19  20
ENDBRANCH  18  19
ENDBRANCH  17  18
ENDBRANCH   1  17
TORSDOF 10
ENDMDL
MODEL 8
REMARK VINA RESULT:    -5.366      8.593     11.619
REMARK INTER + INTRA:          -8.950
REMARK INTER:                  -7.476
REMARK INTRA:                  -1.474
REMARK UNBOUND:                -0.603
REMARK SMILES COc1cc(CNC(=O)CCCCCC(C)C)ccc1O
REMARK SMILES IDX 10 1 8 2 7 3 9 5 6 6 5 7 3 8 20 9 4 10 19 11 18 12 2 13 1 14
REMARK SMILES IDX 21 15 11 17 12 18 13 19 14 20 15 21 16 22 17 23
REMARK H PARENT 7 4 21 16
REMARK Flexibility Score: inf
ROOT
ATOM      1  C   UNL     1     100.902  82.138  72.486  1.00  0.00     0.100 C 
ENDROOT
BRANCH   1   2
ATOM      2  C   UNL     1     100.322  81.174  73.444  1.00  0.00     0.220 C 
ATOM      3  N   UNL     1     100.431  81.410  74.781  1.00  0.00    -0.352 N 
ATOM      4  H   UNL     1     101.032  82.184  75.029  1.00  0.00     0.163 HD
ATOM      5  O   UNL     1      99.702  80.176  73.002  1.00  0.00    -0.275 OA
BRANCH   3   6
ATOM      6  C   UNL     1      99.774  80.661  75.804  1.00  0.00     0.151 C 
BRANCH   6   7
ATOM      7  C   UNL     1      99.205  81.516  76.880  1.00  0.00    -0.025 A 
ATOM      8  C   UNL     1      97.594  83.220  77.621  1.00  0.00     0.160 A 
ATOM      9  C   UNL     1      98.074  83.096  78.942  1.00  0.00     0.157 A 
ATOM     10  C   UNL     1      98.174  82.443  76.596  1.00  0.00     0.056 A 
ATOM     11  C   UNL     1      99.116  82.196  79.232  1.00  0.00     0.050 A 
ATOM     12  C   UNL     1      99.674  81.408  78.210  1.00  0.00     0.009 A 
BRANCH   8  13
ATOM     13  O   UNL     1      96.593  84.104  77.315  1.00  0.00    -0.493 OA
ATOM     14  C   UNL     1      96.710  84.683  76.001  1.00  0.00     0.278 C 
ENDBRANCH   8  13
BRANCH   9  15
ATOM     15  O   UNL     1      97.524  83.839  79.935  1.00  0.00    -0.504 OA
ATOM     16  H   UNL     1      97.352  84.727  79.613  1.00  0.00     0.293 HD
ENDBRANCH   9  15
ENDBRANCH   6   7
ENDBRANCH   3   6
ENDBRANCH   1   2
BRANCH   1  17
ATOM     17  C   UNL     1      99.852  82.967  71.699  1.00  0.00     0.010 C 
BRANCH  17  18
ATOM     18  C   UNL     1      98.947  83.797  72.652  1.00  0.00     0.001 C 
BRANCH  18  19
ATOM     19  C   UNL     1      99.321  85.302  72.703  1.00  0.00     0.000 C 
BRANCH  19  20
ATOM     20  C   UNL     1      99.849  85.729  74.103  1.00  0.00     0.003 C 
BRANCH  20  21
ATOM     21  C   UNL     1     101.405  85.810  74.226  1.00  0.00    -0.017 C 
ATOM     22  C   UNL     1     102.069  85.910  72.821  1.00  0.00     0.007 C 
ATOM     23  C   UNL     1     102.012  84.616  75.019  1.00  0.00     0.007 C 
ENDBRANCH  20  21
ENDBRANCH  19  20
ENDBRANCH  18  19
ENDBRANCH  17  18
ENDBRANCH   1  17
TORSDOF 10
ENDMDL
MODEL 9
REMARK VINA RESULT:    -5.238      3.955      8.427
REMARK INTER + INTRA:          -8.750
REMARK INTER:                  -7.964
REMARK INTRA:                  -0.786
REMARK UNBOUND:                -0.603
REMARK SMILES COc1cc(CNC(=O)CCCCCC(C)C)ccc1O
REMARK SMILES IDX 10 1 8 2 7 3 9 5 6 6 5 7 3 8 20 9 4 10 19 11 18 12 2 13 1 14
REMARK SMILES IDX 21 15 11 17 12 18 13 19 14 20 15 21 16 22 17 23
REMARK H PARENT 7 4 21 16
REMARK Flexibility Score: inf
ROOT
ATOM      1  C   UNL     1      95.338  82.327  84.426  1.00  0.00     0.100 C 
ENDROOT
BRANCH   1   2
ATOM      2  C   UNL     1      96.015  83.212  83.456  1.00  0.00     0.220 C 
ATOM      3  N   UNL     1      96.342  82.729  82.224  1.00  0.00    -0.352 N 
ATOM      4  H   UNL     1      96.210  81.734  82.109  1.00  0.00     0.163 HD
ATOM      5  O   UNL     1      96.237  84.406  83.772  1.00  0.00    -0.275 OA
BRANCH   3   6
ATOM      6  C   UNL     1      96.837  83.514  81.138  1.00  0.00     0.151 C 
BRANCH   6   7
ATOM      7  C   UNL     1      97.291  82.693  79.984  1.00  0.00    -0.025 A 
ATOM      8  C   UNL     1      97.662  82.433  77.566  1.00  0.00     0.160 A 
ATOM      9  C   UNL     1      98.217  81.156  77.791  1.00  0.00     0.157 A 
ATOM     10  C   UNL     1      97.185  83.186  78.661  1.00  0.00     0.056 A 
ATOM     11  C   UNL     1      98.302  80.645  79.099  1.00  0.00     0.050 A 
ATOM     12  C   UNL     1      97.848  81.409  80.187  1.00  0.00     0.009 A 
BRANCH   8  13
ATOM     13  O   UNL     1      97.551  82.941  76.299  1.00  0.00    -0.493 OA
ATOM     14  C   UNL     1      98.594  83.873  75.952  1.00  0.00     0.278 C 
ENDBRANCH   8  13
BRANCH   9  15
ATOM     15  O   UNL     1      98.676  80.424  76.745  1.00  0.00    -0.504 OA
ATOM     16  H   UNL     1      99.635  80.444  76.737  1.00  0.00     0.293 HD
ENDBRANCH   9  15
ENDBRANCH   6   7
ENDBRANCH   3   6
ENDBRANCH   1   2
BRANCH   1  17
ATOM     17  C   UNL     1      94.505  83.077  85.501  1.00  0.00     0.010 C 
BRANCH  17  18
ATOM     18  C   UNL     1      92.991  83.082  85.151  1.00  0.00     0.001 C 
BRANCH  18  19
ATOM     19  C   UNL     1      92.551  81.860  84.302  1.00  0.00     0.000 C 
BRANCH  19  20
ATOM     20  C   UNL     1      91.564  80.935  85.071  1.00  0.00     0.003 C 
BRANCH  20  21
ATOM     21  C   UNL     1      91.941  79.418  85.066  1.00  0.00    -0.017 C 
ATOM     22  C   UNL     1      93.477  79.228  84.889  1.00  0.00     0.007 C 
ATOM     23  C   UNL     1      91.174  78.608  83.980  1.00  0.00     0.007 C 
ENDBRANCH  20  21
ENDBRANCH  19  20
ENDBRANCH  18  19
ENDBRANCH  17  18
ENDBRANCH   1  17
TORSDOF 10
ENDMDL
MODEL 10
REMARK VINA RESULT:    -5.213      3.484      7.451
REMARK INTER + INTRA:          -8.712
REMARK INTER:                  -7.424
REMARK INTRA:                  -1.288
REMARK UNBOUND:                -0.603
REMARK SMILES COc1cc(CNC(=O)CCCCCC(C)C)ccc1O
REMARK SMILES IDX 10 1 8 2 7 3 9 5 6 6 5 7 3 8 20 9 4 10 19 11 18 12 2 13 1 14
REMARK SMILES IDX 21 15 11 17 12 18 13 19 14 20 15 21 16 22 17 23
REMARK H PARENT 7 4 21 16
REMARK Flexibility Score: inf
ROOT
ATOM      1  C   UNL     1      94.482  78.648  85.473  1.00  0.00     0.100 C 
ENDROOT
BRANCH   1   2
ATOM      2  C   UNL     1      94.978  78.397  84.104  1.00  0.00     0.220 C 
ATOM      3  N   UNL     1      95.865  79.267  83.544  1.00  0.00    -0.352 N 
ATOM      4  H   UNL     1      96.022  80.114  84.072  1.00  0.00     0.163 HD
ATOM      5  O   UNL     1      94.604  77.363  83.500  1.00  0.00    -0.275 OA
BRANCH   3   6
ATOM      6  C   UNL     1      96.553  79.059  82.310  1.00  0.00     0.151 C 
BRANCH   6   7
ATOM      7  C   UNL     1      96.918  80.327  81.623  1.00  0.00    -0.025 A 
ATOM      8  C   UNL     1      97.892  81.505  79.696  1.00  0.00     0.160 A 
ATOM      9  C   UNL     1      97.553  82.742  80.284  1.00  0.00     0.157 A 
ATOM     10  C   UNL     1      97.589  80.306  80.377  1.00  0.00     0.056 A 
ATOM     11  C   UNL     1      96.909  82.775  81.534  1.00  0.00     0.050 A 
ATOM     12  C   UNL     1      96.589  81.578  82.196  1.00  0.00     0.009 A 
BRANCH   8  13
ATOM     13  O   UNL     1      98.537  81.451  78.488  1.00  0.00    -0.493 OA
ATOM     14  C   UNL     1      97.741  80.886  77.428  1.00  0.00     0.278 C 
ENDBRANCH   8  13
BRANCH   9  15
ATOM     15  O   UNL     1      97.841  83.900  79.638  1.00  0.00    -0.504 OA
ATOM     16  H   UNL     1      97.392  84.629  80.072  1.00  0.00     0.293 HD
ENDBRANCH   9  15
ENDBRANCH   6   7
ENDBRANCH   3   6
ENDBRANCH   1   2
BRANCH   1  17
ATOM     17  C   UNL     1      94.125  80.131  85.761  1.00  0.00     0.010 C 
BRANCH  17  18
ATOM     18  C   UNL     1      93.080  80.676  84.749  1.00  0.00     0.001 C 
BRANCH  18  19
ATOM     19  C   UNL     1      93.355  82.136  84.304  1.00  0.00     0.000 C 
BRANCH  19  20
ATOM     20  C   UNL     1      94.567  82.762  85.055  1.00  0.00     0.003 C 
BRANCH  20  21
ATOM     21  C   UNL     1      94.868  84.253  84.695  1.00  0.00    -0.017 C 
ATOM     22  C   UNL     1      96.400  84.532  84.722  1.00  0.00     0.007 C 
ATOM     23  C   UNL     1      94.125  85.260  85.621  1.00  0.00     0.007 C 
ENDBRANCH  20  21
ENDBRANCH  19  20
ENDBRANCH  18  19
ENDBRANCH  17  18
ENDBRANCH   1  17
TORSDOF 10
ENDMDL
