MODEL 1
REMARK VINA RESULT:    -5.124      0.000      0.000
REMARK INTER + INTRA:         -10.313
REMARK INTER:                  -8.569
REMARK INTRA:                  -1.743
REMARK UNBOUND:                -1.743
REMARK SMILES COc1cc(CNC(=O)CCCCCCCC(C)C)ccc1O
REMARK SMILES IDX 11 1 10 2 8 3 9 4 7 5 6 7 5 8 4 9 20 10 3 11 21 12 22 13
REMARK SMILES IDX 2 14 1 15 23 16 12 18 13 19 14 20 15 21 16 22 17 23 18 24
REMARK SMILES IDX 19 25
REMARK H PARENT 7 6 23 17
REMARK Flexibility Score: inf
ROOT
ATOM      1  C   UNL     1      63.667  85.685  69.099  1.00  0.00     0.010 C 
ENDROOT
BRANCH   1   2
ATOM      2  C   UNL     1      63.476  84.476  68.185  1.00  0.00     0.100 C 
BRANCH   2   3
ATOM      3  C   UNL     1      63.328  83.180  68.964  1.00  0.00     0.220 C 
ATOM      4  O   UNL     1      62.541  82.291  68.650  1.00  0.00    -0.275 OA
ATOM      5  N   UNL     1      64.179  83.143  70.059  1.00  0.00    -0.352 N 
ATOM      6  H   UNL     1      64.789  83.933  70.247  1.00  0.00     0.163 HD
BRANCH   5   7
ATOM      7  C   UNL     1      64.232  82.025  70.972  1.00  0.00     0.151 C 
BRANCH   7   8
ATOM      8  C   UNL     1      63.560  82.334  72.279  1.00  0.00    -0.025 A 
ATOM      9  C   UNL     1      63.625  83.622  72.797  1.00  0.00     0.056 A 
ATOM     10  C   UNL     1      62.880  81.330  72.956  1.00  0.00     0.009 A 
ATOM     11  C   UNL     1      63.001  83.910  74.011  1.00  0.00     0.160 A 
ATOM     12  C   UNL     1      62.256  81.618  74.171  1.00  0.00     0.050 A 
ATOM     13  C   UNL     1      62.316  82.907  74.698  1.00  0.00     0.157 A 
BRANCH  11  14
ATOM     14  O   UNL     1      63.068  85.173  74.516  1.00  0.00    -0.493 OA
ATOM     15  C   UNL     1      64.058  85.421  75.513  1.00  0.00     0.278 C 
ENDBRANCH  11  14
BRANCH  13  16
ATOM     16  O   UNL     1      61.702  83.176  75.884  1.00  0.00    -0.504 OA
ATOM     17  H   UNL     1      60.770  82.906  75.826  1.00  0.00     0.293 HD
ENDBRANCH  13  16
ENDBRANCH   7   8
ENDBRANCH   5   7
ENDBRANCH   2   3
ENDBRANCH   1   2
BRANCH   1  18
ATOM     18  C   UNL     1      62.427  86.024  69.930  1.00  0.00     0.001 C 
BRANCH  18  19
ATOM     19  C   UNL     1      61.230  86.572  69.145  1.00  0.00     0.000 C 
BRANCH  19  20
ATOM     20  C   UNL     1      60.410  87.598  69.930  1.00  0.00     0.000 C 
BRANCH  20  21
ATOM     21  C   UNL     1      58.974  87.144  70.213  1.00  0.00     0.000 C 
BRANCH  21  22
ATOM     22  C   UNL     1      58.784  86.576  71.623  1.00  0.00     0.003 C 
BRANCH  22  23
ATOM     23  C   UNL     1      58.648  85.041  71.655  1.00  0.00    -0.017 C 
ATOM     24  C   UNL     1      59.911  84.423  72.260  1.00  0.00     0.007 C 
ATOM     25  C   UNL     1      58.399  84.446  70.268  1.00  0.00     0.007 C 
ENDBRANCH  22  23
ENDBRANCH  21  22
ENDBRANCH  20  21
ENDBRANCH  19  20
ENDBRANCH  18  19
ENDBRANCH   1  18
TORSDOF 12
ENDMDL
MODEL 2
REMARK VINA RESULT:    -5.107     35.770     37.974
REMARK INTER + INTRA:         -10.283
REMARK INTER:                  -9.293
REMARK INTRA:                  -0.990
REMARK UNBOUND:                -1.743
REMARK SMILES COc1cc(CNC(=O)CCCCCCCC(C)C)ccc1O
REMARK SMILES IDX 11 1 10 2 8 3 9 4 7 5 6 7 5 8 4 9 20 10 3 11 21 12 22 13
REMARK SMILES IDX 2 14 1 15 23 16 12 18 13 19 14 20 15 21 16 22 17 23 18 24
REMARK SMILES IDX 19 25
REMARK H PARENT 7 6 23 17
REMARK Flexibility Score: inf
ROOT
ATOM      1  C   UNL     1      97.816  81.490  84.097  1.00  0.00     0.010 C 
ENDROOT
BRANCH   1   2
ATOM      2  C   UNL     1      98.515  80.268  83.504  1.00  0.00     0.100 C 
BRANCH   2   3
ATOM      3  C   UNL     1      99.312  80.606  82.255  1.00  0.00     0.220 C 
ATOM      4  O   UNL     1      99.702  79.760  81.456  1.00  0.00    -0.275 OA
ATOM      5  N   UNL     1      99.540  81.970  82.150  1.00  0.00    -0.352 N 
ATOM      6  H   UNL     1      99.187  82.595  82.869  1.00  0.00     0.163 HD
BRANCH   5   7
ATOM      7  C   UNL     1     100.282  82.558  81.058  1.00  0.00     0.151 C 
BRANCH   7   8
ATOM      8  C   UNL     1      99.388  82.943  79.916  1.00  0.00    -0.025 A 
ATOM      9  C   UNL     1      99.911  83.028  78.631  1.00  0.00     0.056 A 
ATOM     10  C   UNL     1      98.045  83.210  80.154  1.00  0.00     0.009 A 
ATOM     11  C   UNL     1      99.081  83.385  77.569  1.00  0.00     0.160 A 
ATOM     12  C   UNL     1      97.214  83.569  79.091  1.00  0.00     0.050 A 
ATOM     13  C   UNL     1      97.731  83.656  77.799  1.00  0.00     0.157 A 
BRANCH  11  14
ATOM     14  O   UNL     1      99.598  83.468  76.312  1.00  0.00    -0.493 OA
ATOM     15  C   UNL     1     100.919  83.993  76.188  1.00  0.00     0.278 C 
ENDBRANCH  11  14
BRANCH  13  16
ATOM     16  O   UNL     1      96.910  84.006  76.771  1.00  0.00    -0.504 OA
ATOM     17  H   UNL     1      96.843  84.976  76.735  1.00  0.00     0.293 HD
ENDBRANCH  13  16
ENDBRANCH   7   8
ENDBRANCH   5   7
ENDBRANCH   2   3
ENDBRANCH   1   2
BRANCH   1  18
ATOM     18  C   UNL     1      97.752  81.474  85.627  1.00  0.00     0.001 C 
BRANCH  18  19
ATOM     19  C   UNL     1      96.351  81.613  86.234  1.00  0.00     0.000 C 
BRANCH  19  20
ATOM     20  C   UNL     1      96.320  82.491  87.487  1.00  0.00     0.000 C 
BRANCH  20  21
ATOM     21  C   UNL     1      96.838  83.914  87.249  1.00  0.00     0.000 C 
BRANCH  21  22
ATOM     22  C   UNL     1      95.875  84.780  86.430  1.00  0.00     0.003 C 
BRANCH  22  23
ATOM     23  C   UNL     1      94.996  85.706  87.295  1.00  0.00    -0.017 C 
ATOM     24  C   UNL     1      95.773  86.141  88.540  1.00  0.00     0.007 C 
ATOM     25  C   UNL     1      93.682  85.045  87.713  1.00  0.00     0.007 C 
ENDBRANCH  22  23
ENDBRANCH  21  22
ENDBRANCH  20  21
ENDBRANCH  19  20
ENDBRANCH  18  19
ENDBRANCH   1  18
TORSDOF 12
ENDMDL
MODEL 3
REMARK VINA RESULT:    -5.024     32.563     35.698
REMARK INTER + INTRA:         -10.145
REMARK INTER:                  -9.497
REMARK INTRA:                  -0.647
REMARK UNBOUND:                -1.743
REMARK SMILES COc1cc(CNC(=O)CCCCCCCC(C)C)ccc1O
REMARK SMILES IDX 11 1 10 2 8 3 9 4 7 5 6 7 5 8 4 9 20 10 3 11 21 12 22 13
REMARK SMILES IDX 2 14 1 15 23 16 12 18 13 19 14 20 15 21 16 22 17 23 18 24
REMARK SMILES IDX 19 25
REMARK H PARENT 7 6 23 17
REMARK Flexibility Score: inf
ROOT
ATOM      1  C   UNL     1      96.093  83.094  85.798  1.00  0.00     0.010 C 
ENDROOT
BRANCH   1   2
ATOM      2  C   UNL     1      96.240  84.012  87.010  1.00  0.00     0.100 C 
BRANCH   2   3
ATOM      3  C   UNL     1      94.911  84.603  87.453  1.00  0.00     0.220 C 
ATOM      4  O   UNL     1      94.791  85.749  87.877  1.00  0.00    -0.275 OA
ATOM      5  N   UNL     1      93.878  83.687  87.323  1.00  0.00    -0.352 N 
ATOM      6  H   UNL     1      94.075  82.754  86.972  1.00  0.00     0.163 HD
BRANCH   5   7
ATOM      7  C   UNL     1      92.512  83.992  87.682  1.00  0.00     0.151 C 
BRANCH   7   8
ATOM      8  C   UNL     1      91.723  82.752  87.990  1.00  0.00    -0.025 A 
ATOM      9  C   UNL     1      90.433  82.617  87.491  1.00  0.00     0.056 A 
ATOM     10  C   UNL     1      92.291  81.753  88.771  1.00  0.00     0.009 A 
ATOM     11  C   UNL     1      89.700  81.465  87.777  1.00  0.00     0.160 A 
ATOM     12  C   UNL     1      91.557  80.601  89.057  1.00  0.00     0.050 A 
ATOM     13  C   UNL     1      90.262  80.457  88.561  1.00  0.00     0.157 A 
BRANCH  11  14
ATOM     14  O   UNL     1      88.435  81.336  87.286  1.00  0.00    -0.493 OA
ATOM     15  C   UNL     1      88.242  81.638  85.905  1.00  0.00     0.278 C 
ENDBRANCH  11  14
BRANCH  13  16
ATOM     16  O   UNL     1      89.556  79.327  88.846  1.00  0.00    -0.504 OA
ATOM     17  H   UNL     1      90.179  78.608  89.050  1.00  0.00     0.293 HD
ENDBRANCH  13  16
ENDBRANCH   7   8
ENDBRANCH   5   7
ENDBRANCH   2   3
ENDBRANCH   1   2
BRANCH   1  18
ATOM     18  C   UNL     1      97.022  83.462  84.638  1.00  0.00     0.001 C 
BRANCH  18  19
ATOM     19  C   UNL     1      98.286  82.607  84.502  1.00  0.00     0.000 C 
BRANCH  19  20
ATOM     20  C   UNL     1      98.321  81.779  83.215  1.00  0.00     0.000 C 
BRANCH  20  21
ATOM     21  C   UNL     1      99.073  82.463  82.069  1.00  0.00     0.000 C 
BRANCH  21  22
ATOM     22  C   UNL     1      98.158  83.264  81.136  1.00  0.00     0.003 C 
BRANCH  22  23
ATOM     23  C   UNL     1      98.241  82.818  79.663  1.00  0.00    -0.017 C 
ATOM     24  C   UNL     1      99.690  82.902  79.178  1.00  0.00     0.007 C 
ATOM     25  C   UNL     1      97.343  83.650  78.747  1.00  0.00     0.007 C 
ENDBRANCH  22  23
ENDBRANCH  21  22
ENDBRANCH  20  21
ENDBRANCH  19  20
ENDBRANCH  18  19
ENDBRANCH   1  18
TORSDOF 12
ENDMDL
MODEL 4
REMARK VINA RESULT:    -4.996     11.769     14.308
REMARK INTER + INTRA:         -10.098
REMARK INTER:                  -8.443
REMARK INTRA:                  -1.655
REMARK UNBOUND:                -1.743
REMARK SMILES COc1cc(CNC(=O)CCCCCCCC(C)C)ccc1O
REMARK SMILES IDX 11 1 10 2 8 3 9 4 7 5 6 7 5 8 4 9 20 10 3 11 21 12 22 13
REMARK SMILES IDX 2 14 1 15 23 16 12 18 13 19 14 20 15 21 16 22 17 23 18 24
REMARK SMILES IDX 19 25
REMARK H PARENT 7 6 23 17
REMARK Flexibility Score: inf
ROOT
ATOM      1  C   UNL     1      77.746  85.790  66.958  1.00  0.00     0.010 C 
ENDROOT
BRANCH   1   2
ATOM      2  C   UNL     1      77.091  84.512  67.477  1.00  0.00     0.100 C 
BRANCH   2   3
ATOM      3  C   UNL     1      76.914  83.468  66.387  1.00  0.00     0.220 C 
ATOM      4  O   UNL     1      77.421  83.565  65.273  1.00  0.00    -0.275 OA
ATOM      5  N   UNL     1      76.112  82.419  66.811  1.00  0.00    -0.352 N 
ATOM      6  H   UNL     1      75.726  82.431  67.751  1.00  0.00     0.163 HD
BRANCH   5   7
ATOM      7  C   UNL     1      75.777  81.297  65.965  1.00  0.00     0.151 C 
BRANCH   7   8
ATOM      8  C   UNL     1      74.444  81.474  65.298  1.00  0.00    -0.025 A 
ATOM      9  C   UNL     1      73.446  82.198  65.939  1.00  0.00     0.056 A 
ATOM     10  C   UNL     1      74.222  80.912  64.047  1.00  0.00     0.009 A 
ATOM     11  C   UNL     1      72.207  82.362  65.320  1.00  0.00     0.160 A 
ATOM     12  C   UNL     1      72.982  81.077  63.428  1.00  0.00     0.050 A 
ATOM     13  C   UNL     1      71.974  81.801  64.064  1.00  0.00     0.157 A 
BRANCH  11  14
ATOM     14  O   UNL     1      71.230  83.072  65.952  1.00  0.00    -0.493 OA
ATOM     15  C   UNL     1      70.602  82.453  67.073  1.00  0.00     0.278 C 
ENDBRANCH  11  14
BRANCH  13  16
ATOM     16  O   UNL     1      70.769  81.956  63.449  1.00  0.00    -0.504 OA
ATOM     17  H   UNL     1      70.755  82.813  62.990  1.00  0.00     0.293 HD
ENDBRANCH  13  16
ENDBRANCH   7   8
ENDBRANCH   5   7
ENDBRANCH   2   3
ENDBRANCH   1   2
BRANCH   1  18
ATOM     18  C   UNL     1      77.870  86.887  68.019  1.00  0.00     0.001 C 
BRANCH  18  19
ATOM     19  C   UNL     1      76.597  87.697  68.288  1.00  0.00     0.000 C 
BRANCH  19  20
ATOM     20  C   UNL     1      76.514  88.236  69.718  1.00  0.00     0.000 C 
BRANCH  20  21
ATOM     21  C   UNL     1      75.346  87.654  70.522  1.00  0.00     0.000 C 
BRANCH  21  22
ATOM     22  C   UNL     1      74.156  87.240  69.650  1.00  0.00     0.003 C 
BRANCH  22  23
ATOM     23  C   UNL     1      73.859  85.728  69.693  1.00  0.00    -0.017 C 
ATOM     24  C   UNL     1      75.033  84.989  70.341  1.00  0.00     0.007 C 
ATOM     25  C   UNL     1      73.588  85.145  68.306  1.00  0.00     0.007 C 
ENDBRANCH  22  23
ENDBRANCH  21  22
ENDBRANCH  20  21
ENDBRANCH  19  20
ENDBRANCH  18  19
ENDBRANCH   1  18
TORSDOF 12
ENDMDL
MODEL 5
REMARK VINA RESULT:    -4.968     12.964     15.556
REMARK INTER + INTRA:         -10.052
REMARK INTER:                  -8.225
REMARK INTRA:                  -1.827
REMARK UNBOUND:                -1.743
REMARK SMILES COc1cc(CNC(=O)CCCCCCCC(C)C)ccc1O
REMARK SMILES IDX 11 1 10 2 8 3 9 4 7 5 6 7 5 8 4 9 20 10 3 11 21 12 22 13
REMARK SMILES IDX 2 14 1 15 23 16 12 18 13 19 14 20 15 21 16 22 17 23 18 24
REMARK SMILES IDX 19 25
REMARK H PARENT 7 6 23 17
REMARK Flexibility Score: inf
ROOT
ATOM      1  C   UNL     1      74.669  85.737  70.358  1.00  0.00     0.010 C 
ENDROOT
BRANCH   1   2
ATOM      2  C   UNL     1      75.228  87.155  70.443  1.00  0.00     0.100 C 
BRANCH   2   3
ATOM      3  C   UNL     1      76.179  87.473  69.301  1.00  0.00     0.220 C 
ATOM      4  O   UNL     1      76.049  88.449  68.568  1.00  0.00    -0.275 OA
ATOM      5  N   UNL     1      77.185  86.524  69.197  1.00  0.00    -0.352 N 
ATOM      6  H   UNL     1      77.205  85.741  69.845  1.00  0.00     0.163 HD
BRANCH   5   7
ATOM      7  C   UNL     1      78.218  86.585  68.188  1.00  0.00     0.151 C 
BRANCH   7   8
ATOM      8  C   UNL     1      77.859  85.784  66.970  1.00  0.00    -0.025 A 
ATOM      9  C   UNL     1      77.187  86.394  65.919  1.00  0.00     0.056 A 
ATOM     10  C   UNL     1      78.204  84.439  66.907  1.00  0.00     0.009 A 
ATOM     11  C   UNL     1      76.854  85.650  64.787  1.00  0.00     0.160 A 
ATOM     12  C   UNL     1      77.870  83.694  65.775  1.00  0.00     0.050 A 
ATOM     13  C   UNL     1      77.195  84.299  64.715  1.00  0.00     0.157 A 
BRANCH  11  14
ATOM     14  O   UNL     1      76.194  86.252  63.758  1.00  0.00    -0.493 OA
ATOM     15  C   UNL     1      74.810  86.535  63.954  1.00  0.00     0.278 C 
ENDBRANCH  11  14
BRANCH  13  16
ATOM     16  O   UNL     1      76.876  83.561  63.616  1.00  0.00    -0.504 OA
ATOM     17  H   UNL     1      76.004  83.842  63.288  1.00  0.00     0.293 HD
ENDBRANCH  13  16
ENDBRANCH   7   8
ENDBRANCH   5   7
ENDBRANCH   2   3
ENDBRANCH   1   2
BRANCH   1  18
ATOM     18  C   UNL     1      73.673  85.541  69.212  1.00  0.00     0.001 C 
BRANCH  18  19
ATOM     19  C   UNL     1      74.250  84.940  67.926  1.00  0.00     0.000 C 
BRANCH  19  20
ATOM     20  C   UNL     1      73.198  84.243  67.059  1.00  0.00     0.000 C 
BRANCH  20  21
ATOM     21  C   UNL     1      73.787  83.545  65.828  1.00  0.00     0.000 C 
BRANCH  21  22
ATOM     22  C   UNL     1      73.019  82.283  65.421  1.00  0.00     0.003 C 
BRANCH  22  23
ATOM     23  C   UNL     1      73.923  81.051  65.222  1.00  0.00    -0.017 C 
ATOM     24  C   UNL     1      75.239  81.248  65.978  1.00  0.00     0.007 C 
ATOM     25  C   UNL     1      74.215  80.770  63.748  1.00  0.00     0.007 C 
ENDBRANCH  22  23
ENDBRANCH  21  22
ENDBRANCH  20  21
ENDBRANCH  19  20
ENDBRANCH  18  19
ENDBRANCH   1  18
TORSDOF 12
ENDMDL
MODEL 6
REMARK VINA RESULT:    -4.965     33.342     35.666
REMARK INTER + INTRA:         -10.046
REMARK INTER:                  -8.357
REMARK INTRA:                  -1.689
REMARK UNBOUND:                -1.743
REMARK SMILES COc1cc(CNC(=O)CCCCCCCC(C)C)ccc1O
REMARK SMILES IDX 11 1 10 2 8 3 9 4 7 5 6 7 5 8 4 9 20 10 3 11 21 12 22 13
REMARK SMILES IDX 2 14 1 15 23 16 12 18 13 19 14 20 15 21 16 22 17 23 18 24
REMARK SMILES IDX 19 25
REMARK H PARENT 7 6 23 17
REMARK Flexibility Score: inf
ROOT
ATOM      1  C   UNL     1      94.541  97.840  76.526  1.00  0.00     0.010 C 
ENDROOT
BRANCH   1   2
ATOM      2  C   UNL     1      93.283  97.212  75.929  1.00  0.00     0.100 C 
BRANCH   2   3
ATOM      3  C   UNL     1      92.683  96.148  76.832  1.00  0.00     0.220 C 
ATOM      4  O   UNL     1      91.554  95.691  76.678  1.00  0.00    -0.275 OA
ATOM      5  N   UNL     1      93.564  95.777  77.837  1.00  0.00    -0.352 N 
ATOM      6  H   UNL     1      94.477  96.219  77.893  1.00  0.00     0.163 HD
BRANCH   5   7
ATOM      7  C   UNL     1      93.238  94.787  78.838  1.00  0.00     0.151 C 
BRANCH   7   8
ATOM      8  C   UNL     1      94.187  94.832  80.001  1.00  0.00    -0.025 A 
ATOM      9  C   UNL     1      94.682  96.054  80.438  1.00  0.00     0.056 A 
ATOM     10  C   UNL     1      94.560  93.649  80.628  1.00  0.00     0.009 A 
ATOM     11  C   UNL     1      95.564  96.095  81.518  1.00  0.00     0.160 A 
ATOM     12  C   UNL     1      95.442  93.690  81.709  1.00  0.00     0.050 A 
ATOM     13  C   UNL     1      95.944  94.913  82.154  1.00  0.00     0.157 A 
BRANCH  11  14
ATOM     14  O   UNL     1      96.048  97.296  81.943  1.00  0.00    -0.493 OA
ATOM     15  C   UNL     1      95.128  98.172  82.592  1.00  0.00     0.278 C 
ENDBRANCH  11  14
BRANCH  13  16
ATOM     16  O   UNL     1      96.804  94.940  83.210  1.00  0.00    -0.504 OA
ATOM     17  H   UNL     1      97.687  94.669  82.906  1.00  0.00     0.293 HD
ENDBRANCH  13  16
ENDBRANCH   7   8
ENDBRANCH   5   7
ENDBRANCH   2   3
ENDBRANCH   1   2
BRANCH   1  18
ATOM     18  C   UNL     1      95.788  97.651  75.658  1.00  0.00     0.001 C 
BRANCH  18  19
ATOM     19  C   UNL     1      95.540  97.109  74.246  1.00  0.00     0.000 C 
BRANCH  19  20
ATOM     20  C   UNL     1      96.283  97.890  73.159  1.00  0.00     0.000 C 
BRANCH  20  21
ATOM     21  C   UNL     1      95.966  99.389  73.161  1.00  0.00     0.000 C 
BRANCH  21  22
ATOM     22  C   UNL     1      94.663  99.735  72.433  1.00  0.00     0.003 C 
BRANCH  22  23
ATOM     23  C   UNL     1      93.680 100.557  73.290  1.00  0.00    -0.017 C 
ATOM     24  C   UNL     1      94.364 100.988  74.590  1.00  0.00     0.007 C 
ATOM     25  C   UNL     1      92.399  99.787  73.614  1.00  0.00     0.007 C 
ENDBRANCH  22  23
ENDBRANCH  21  22
ENDBRANCH  20  21
ENDBRANCH  19  20
ENDBRANCH  18  19
ENDBRANCH   1  18
TORSDOF 12
ENDMDL
MODEL 7
REMARK VINA RESULT:    -4.933     33.454     36.115
REMARK INTER + INTRA:          -9.994
REMARK INTER:                  -9.298
REMARK INTRA:                  -0.696
REMARK UNBOUND:                -1.743
REMARK SMILES COc1cc(CNC(=O)CCCCCCCC(C)C)ccc1O
REMARK SMILES IDX 11 1 10 2 8 3 9 4 7 5 6 7 5 8 4 9 20 10 3 11 21 12 22 13
REMARK SMILES IDX 2 14 1 15 23 16 12 18 13 19 14 20 15 21 16 22 17 23 18 24
REMARK SMILES IDX 19 25
REMARK H PARENT 7 6 23 17
REMARK Flexibility Score: inf
ROOT
ATOM      1  C   UNL     1      96.836  83.330  85.221  1.00  0.00     0.010 C 
ENDROOT
BRANCH   1   2
ATOM      2  C   UNL     1      97.076  84.517  86.152  1.00  0.00     0.100 C 
BRANCH   2   3
ATOM      3  C   UNL     1      95.793  85.255  86.491  1.00  0.00     0.220 C 
ATOM      4  O   UNL     1      95.624  86.451  86.267  1.00  0.00    -0.275 OA
ATOM      5  N   UNL     1      94.862  84.415  87.083  1.00  0.00    -0.352 N 
ATOM      6  H   UNL     1      95.096  83.438  87.240  1.00  0.00     0.163 HD
BRANCH   5   7
ATOM      7  C   UNL     1      93.559  84.867  87.512  1.00  0.00     0.151 C 
BRANCH   7   8
ATOM      8  C   UNL     1      92.598  83.727  87.686  1.00  0.00    -0.025 A 
ATOM      9  C   UNL     1      91.585  83.820  88.633  1.00  0.00     0.056 A 
ATOM     10  C   UNL     1      92.732  82.590  86.898  1.00  0.00     0.009 A 
ATOM     11  C   UNL     1      90.692  82.760  88.794  1.00  0.00     0.160 A 
ATOM     12  C   UNL     1      91.839  81.530  87.061  1.00  0.00     0.050 A 
ATOM     13  C   UNL     1      90.819  81.614  88.009  1.00  0.00     0.157 A 
BRANCH  11  14
ATOM     14  O   UNL     1      89.701  82.854  89.724  1.00  0.00    -0.493 OA
ATOM     15  C   UNL     1      90.091  82.799  91.096  1.00  0.00     0.278 C 
ENDBRANCH  11  14
BRANCH  13  16
ATOM     16  O   UNL     1      89.954  80.573  88.157  1.00  0.00    -0.504 OA
ATOM     17  H   UNL     1      89.122  80.905  88.536  1.00  0.00     0.293 HD
ENDBRANCH  13  16
ENDBRANCH   7   8
ENDBRANCH   5   7
ENDBRANCH   2   3
ENDBRANCH   1   2
BRANCH   1  18
ATOM     18  C   UNL     1      97.590  83.434  83.892  1.00  0.00     0.001 C 
BRANCH  18  19
ATOM     19  C   UNL     1      98.868  82.594  83.787  1.00  0.00     0.000 C 
BRANCH  19  20
ATOM     20  C   UNL     1      99.161  82.116  82.362  1.00  0.00     0.000 C 
BRANCH  20  21
ATOM     21  C   UNL     1      98.595  83.041  81.279  1.00  0.00     0.000 C 
BRANCH  21  22
ATOM     22  C   UNL     1      99.339  82.938  79.944  1.00  0.00     0.003 C 
BRANCH  22  23
ATOM     23  C   UNL     1      98.562  83.545  78.759  1.00  0.00    -0.017 C 
ATOM     24  C   UNL     1      97.063  83.538  79.067  1.00  0.00     0.007 C 
ATOM     25  C   UNL     1      98.821  82.803  77.447  1.00  0.00     0.007 C 
ENDBRANCH  22  23
ENDBRANCH  21  22
ENDBRANCH  20  21
ENDBRANCH  19  20
ENDBRANCH  18  19
ENDBRANCH   1  18
TORSDOF 12
ENDMDL
MODEL 8
REMARK VINA RESULT:    -4.925      2.292      5.636
REMARK INTER + INTRA:          -9.980
REMARK INTER:                  -8.091
REMARK INTRA:                  -1.889
REMARK UNBOUND:                -1.743
REMARK SMILES COc1cc(CNC(=O)CCCCCCCC(C)C)ccc1O
REMARK SMILES IDX 11 1 10 2 8 3 9 4 7 5 6 7 5 8 4 9 20 10 3 11 21 12 22 13
REMARK SMILES IDX 2 14 1 15 23 16 12 18 13 19 14 20 15 21 16 22 17 23 18 24
REMARK SMILES IDX 19 25
REMARK H PARENT 7 6 23 17
REMARK Flexibility Score: inf
ROOT
ATOM      1  C   UNL     1      64.053  81.490  73.132  1.00  0.00     0.010 C 
ENDROOT
BRANCH   1   2
ATOM      2  C   UNL     1      64.470  81.555  71.664  1.00  0.00     0.100 C 
BRANCH   2   3
ATOM      3  C   UNL     1      63.839  82.730  70.935  1.00  0.00     0.220 C 
ATOM      4  O   UNL     1      63.284  82.626  69.844  1.00  0.00    -0.275 OA
ATOM      5  N   UNL     1      63.979  83.909  71.651  1.00  0.00    -0.352 N 
ATOM      6  H   UNL     1      64.465  83.900  72.543  1.00  0.00     0.163 HD
BRANCH   5   7
ATOM      7  C   UNL     1      63.475  85.178  71.177  1.00  0.00     0.151 C 
BRANCH   7   8
ATOM      8  C   UNL     1      62.139  85.510  71.777  1.00  0.00    -0.025 A 
ATOM      9  C   UNL     1      61.010  84.808  71.372  1.00  0.00     0.056 A 
ATOM     10  C   UNL     1      62.045  86.516  72.730  1.00  0.00     0.009 A 
ATOM     11  C   UNL     1      59.769  85.117  71.929  1.00  0.00     0.160 A 
ATOM     12  C   UNL     1      60.804  86.825  73.287  1.00  0.00     0.050 A 
ATOM     13  C   UNL     1      59.665  86.126  72.886  1.00  0.00     0.157 A 
BRANCH  11  14
ATOM     14  O   UNL     1      58.664  84.427  71.529  1.00  0.00    -0.493 OA
ATOM     15  C   UNL     1      58.402  84.380  70.127  1.00  0.00     0.278 C 
ENDBRANCH  11  14
BRANCH  13  16
ATOM     16  O   UNL     1      58.459  86.436  73.438  1.00  0.00    -0.504 OA
ATOM     17  H   UNL     1      58.277  85.819  74.167  1.00  0.00     0.293 HD
ENDBRANCH  13  16
ENDBRANCH   7   8
ENDBRANCH   5   7
ENDBRANCH   2   3
ENDBRANCH   1   2
BRANCH   1  18
ATOM     18  C   UNL     1      62.552  81.259  73.330  1.00  0.00     0.001 C 
BRANCH  18  19
ATOM     19  C   UNL     1      61.804  82.365  74.082  1.00  0.00     0.000 C 
BRANCH  19  20
ATOM     20  C   UNL     1      62.618  82.976  75.226  1.00  0.00     0.000 C 
BRANCH  20  21
ATOM     21  C   UNL     1      61.969  84.224  75.836  1.00  0.00     0.000 C 
BRANCH  21  22
ATOM     22  C   UNL     1      62.973  85.340  76.144  1.00  0.00     0.003 C 
BRANCH  22  23
ATOM     23  C   UNL     1      63.267  85.504  77.648  1.00  0.00    -0.017 C 
ATOM     24  C   UNL     1      64.777  85.601  77.873  1.00  0.00     0.007 C 
ATOM     25  C   UNL     1      62.695  84.360  78.486  1.00  0.00     0.007 C 
ENDBRANCH  22  23
ENDBRANCH  21  22
ENDBRANCH  20  21
ENDBRANCH  19  20
ENDBRANCH  18  19
ENDBRANCH   1  18
TORSDOF 12
ENDMDL
MODEL 9
REMARK VINA RESULT:    -4.899      2.105      4.431
REMARK INTER + INTRA:          -9.936
REMARK INTER:                  -7.898
REMARK INTRA:                  -2.039
REMARK UNBOUND:                -1.743
REMARK SMILES COc1cc(CNC(=O)CCCCCCCC(C)C)ccc1O
REMARK SMILES IDX 11 1 10 2 8 3 9 4 7 5 6 7 5 8 4 9 20 10 3 11 21 12 22 13
REMARK SMILES IDX 2 14 1 15 23 16 12 18 13 19 14 20 15 21 16 22 17 23 18 24
REMARK SMILES IDX 19 25
REMARK H PARENT 7 6 23 17
REMARK Flexibility Score: inf
ROOT
ATOM      1  C   UNL     1      60.742  85.806  73.590  1.00  0.00     0.010 C 
ENDROOT
BRANCH   1   2
ATOM      2  C   UNL     1      60.709  85.026  74.903  1.00  0.00     0.100 C 
BRANCH   2   3
ATOM      3  C   UNL     1      61.490  83.725  74.824  1.00  0.00     0.220 C 
ATOM      4  O   UNL     1      61.849  83.094  75.814  1.00  0.00    -0.275 OA
ATOM      5  N   UNL     1      61.745  83.363  73.510  1.00  0.00    -0.352 N 
ATOM      6  H   UNL     1      61.417  83.957  72.753  1.00  0.00     0.163 HD
BRANCH   5   7
ATOM      7  C   UNL     1      62.479  82.170  73.154  1.00  0.00     0.151 C 
BRANCH   7   8
ATOM      8  C   UNL     1      63.741  82.490  72.407  1.00  0.00    -0.025 A 
ATOM      9  C   UNL     1      64.428  83.664  72.689  1.00  0.00     0.056 A 
ATOM     10  C   UNL     1      64.208  81.608  71.440  1.00  0.00     0.009 A 
ATOM     11  C   UNL     1      65.601  83.960  71.994  1.00  0.00     0.160 A 
ATOM     12  C   UNL     1      65.380  81.906  70.744  1.00  0.00     0.050 A 
ATOM     13  C   UNL     1      66.077  83.081  71.021  1.00  0.00     0.157 A 
BRANCH  11  14
ATOM     14  O   UNL     1      66.272  85.113  72.273  1.00  0.00    -0.493 OA
ATOM     15  C   UNL     1      65.764  85.918  73.336  1.00  0.00     0.278 C 
ENDBRANCH  11  14
BRANCH  13  16
ATOM     16  O   UNL     1      67.221  83.360  70.336  1.00  0.00    -0.504 OA
ATOM     17  H   UNL     1      67.629  82.525  70.048  1.00  0.00     0.293 HD
ENDBRANCH  13  16
ENDBRANCH   7   8
ENDBRANCH   5   7
ENDBRANCH   2   3
ENDBRANCH   1   2
BRANCH   1  18
ATOM     18  C   UNL     1      59.352  86.130  73.037  1.00  0.00     0.001 C 
BRANCH  18  19
ATOM     19  C   UNL     1      58.874  85.248  71.879  1.00  0.00     0.000 C 
BRANCH  19  20
ATOM     20  C   UNL     1      58.880  85.968  70.528  1.00  0.00     0.000 C 
BRANCH  20  21
ATOM     21  C   UNL     1      60.066  86.923  70.351  1.00  0.00     0.000 C 
BRANCH  21  22
ATOM     22  C   UNL     1      60.940  86.586  69.137  1.00  0.00     0.003 C 
BRANCH  22  23
ATOM     23  C   UNL     1      62.224  85.815  69.500  1.00  0.00    -0.017 C 
ATOM     24  C   UNL     1      61.898  84.334  69.705  1.00  0.00     0.007 C 
ATOM     25  C   UNL     1      62.907  86.369  70.751  1.00  0.00     0.007 C 
ENDBRANCH  22  23
ENDBRANCH  21  22
ENDBRANCH  20  21
ENDBRANCH  19  20
ENDBRANCH  18  19
ENDBRANCH   1  18
TORSDOF 12
ENDMDL
MODEL 10
REMARK VINA RESULT:    -4.786     36.871     38.070
REMARK INTER + INTRA:          -9.748
REMARK INTER:                  -8.755
REMARK INTRA:                  -0.993
REMARK UNBOUND:                -1.743
REMARK SMILES COc1cc(CNC(=O)CCCCCCCC(C)C)ccc1O
REMARK SMILES IDX 11 1 10 2 8 3 9 4 7 5 6 7 5 8 4 9 20 10 3 11 21 12 22 13
REMARK SMILES IDX 2 14 1 15 23 16 12 18 13 19 14 20 15 21 16 22 17 23 18 24
REMARK SMILES IDX 19 25
REMARK H PARENT 7 6 23 17
REMARK Flexibility Score: inf
ROOT
ATOM      1  C   UNL     1      99.775  81.166  81.877  1.00  0.00     0.010 C 
ENDROOT
BRANCH   1   2
ATOM      2  C   UNL     1     100.569  80.994  83.170  1.00  0.00     0.100 C 
BRANCH   2   3
ATOM      3  C   UNL     1      99.700  81.144  84.408  1.00  0.00     0.220 C 
ATOM      4  O   UNL     1     100.154  81.223  85.545  1.00  0.00    -0.275 OA
ATOM      5  N   UNL     1      98.352  81.171  84.083  1.00  0.00    -0.352 N 
ATOM      6  H   UNL     1      98.068  81.088  83.110  1.00  0.00     0.163 HD
BRANCH   5   7
ATOM      7  C   UNL     1      97.309  81.298  85.075  1.00  0.00     0.151 C 
BRANCH   7   8
ATOM      8  C   UNL     1      97.047  82.732  85.434  1.00  0.00    -0.025 A 
ATOM      9  C   UNL     1      96.245  83.031  86.528  1.00  0.00     0.056 A 
ATOM     10  C   UNL     1      97.610  83.745  84.668  1.00  0.00     0.009 A 
ATOM     11  C   UNL     1      96.002  84.363  86.862  1.00  0.00     0.160 A 
ATOM     12  C   UNL     1      97.366  85.078  85.001  1.00  0.00     0.050 A 
ATOM     13  C   UNL     1      96.562  85.388  86.098  1.00  0.00     0.157 A 
BRANCH  11  14
ATOM     14  O   UNL     1      95.214  84.653  87.935  1.00  0.00    -0.493 OA
ATOM     15  C   UNL     1      95.823  84.582  89.224  1.00  0.00     0.278 C 
ENDBRANCH  11  14
BRANCH  13  16
ATOM     16  O   UNL     1      96.332  86.692  86.414  1.00  0.00    -0.504 OA
ATOM     17  H   UNL     1      96.160  87.190  85.596  1.00  0.00     0.293 HD
ENDBRANCH  13  16
ENDBRANCH   7   8
ENDBRANCH   5   7
ENDBRANCH   2   3
ENDBRANCH   1   2
BRANCH   1  18
ATOM     18  C   UNL     1      99.767  82.605  81.353  1.00  0.00     0.001 C 
BRANCH  18  19
ATOM     19  C   UNL     1      98.385  83.249  81.202  1.00  0.00     0.000 C 
BRANCH  19  20
ATOM     20  C   UNL     1      97.901  83.307  79.750  1.00  0.00     0.000 C 
BRANCH  20  21
ATOM     21  C   UNL     1      99.006  83.025  78.727  1.00  0.00     0.000 C 
BRANCH  21  22
ATOM     22  C   UNL     1      98.660  81.891  77.756  1.00  0.00     0.003 C 
BRANCH  22  23
ATOM     23  C   UNL     1      98.330  82.380  76.333  1.00  0.00    -0.017 C 
ATOM     24  C   UNL     1      98.822  81.357  75.307  1.00  0.00     0.007 C 
ATOM     25  C   UNL     1      98.940  83.749  76.027  1.00  0.00     0.007 C 
ENDBRANCH  22  23
ENDBRANCH  21  22
ENDBRANCH  20  21
ENDBRANCH  19  20
ENDBRANCH  18  19
ENDBRANCH   1  18
TORSDOF 12
ENDMDL
