MODEL 1
REMARK VINA RESULT:    -5.302      0.000      0.000
REMARK INTER + INTRA:         -11.092
REMARK INTER:                  -8.556
REMARK INTRA:                  -2.535
REMARK UNBOUND:                -2.535
REMARK SMILES COc1cc(CNC(=O)CCCCC/C=C/C(C)C)ccc1O
REMARK SMILES IDX 11 1 10 2 8 3 7 4 9 6 6 7 5 8 3 9 22 10 4 11 21 12 20 13
REMARK SMILES IDX 2 14 1 15 23 16 12 18 13 19 14 20 15 21 16 22 17 23 18 24
REMARK SMILES IDX 19 25
REMARK H PARENT 7 5 23 17
REMARK Flexibility Score: inf
ROOT
ATOM      1  C   UNL     1      78.305  86.408  68.289  1.00  0.00     0.010 C 
ENDROOT
BRANCH   1   2
ATOM      2  C   UNL     1      77.467  87.095  67.180  1.00  0.00     0.100 C 
BRANCH   2   3
ATOM      3  C   UNL     1      77.271  86.266  65.976  1.00  0.00     0.220 C 
ATOM      4  N   UNL     1      77.647  84.957  65.985  1.00  0.00    -0.352 N 
ATOM      5  H   UNL     1      78.117  84.660  66.829  1.00  0.00     0.163 HD
ATOM      6  O   UNL     1      76.720  86.788  64.978  1.00  0.00    -0.275 OA
BRANCH   4   7
ATOM      7  C   UNL     1      77.427  84.024  64.928  1.00  0.00     0.151 C 
BRANCH   7   8
ATOM      8  C   UNL     1      76.215  83.192  65.143  1.00  0.00    -0.025 A 
ATOM      9  C   UNL     1      73.874  82.653  64.616  1.00  0.00     0.160 A 
ATOM     10  C   UNL     1      73.889  81.636  65.595  1.00  0.00     0.157 A 
ATOM     11  C   UNL     1      75.032  83.428  64.404  1.00  0.00     0.056 A 
ATOM     12  C   UNL     1      75.065  81.381  66.324  1.00  0.00     0.050 A 
ATOM     13  C   UNL     1      76.223  82.146  66.092  1.00  0.00     0.009 A 
BRANCH   9  14
ATOM     14  O   UNL     1      72.762  82.852  63.841  1.00  0.00    -0.493 OA
ATOM     15  C   UNL     1      72.404  84.233  63.669  1.00  0.00     0.278 C 
ENDBRANCH   9  14
BRANCH  10  16
ATOM     16  O   UNL     1      72.787  80.886  65.850  1.00  0.00    -0.504 OA
ATOM     17  H   UNL     1      72.029  81.464  65.973  1.00  0.00     0.293 HD
ENDBRANCH  10  16
ENDBRANCH   7   8
ENDBRANCH   4   7
ENDBRANCH   2   3
ENDBRANCH   1   2
BRANCH   1  18
ATOM     18  C   UNL     1      77.584  86.479  69.660  1.00  0.00     0.001 C 
BRANCH  18  19
ATOM     19  C   UNL     1      77.331  85.093  70.304  1.00  0.00     0.004 C 
BRANCH  19  20
ATOM     20  C   UNL     1      75.835  84.908  70.683  1.00  0.00     0.027 C 
BRANCH  20  21
ATOM     21  C   UNL     1      74.912  85.352  69.653  1.00  0.00    -0.031 C 
ATOM     22  C   UNL     1      74.849  84.767  68.444  1.00  0.00    -0.028 C 
BRANCH  22  23
ATOM     23  C   UNL     1      73.929  85.186  67.389  1.00  0.00     0.005 C 
ATOM     24  C   UNL     1      72.550  84.498  67.574  1.00  0.00     0.012 C 
ATOM     25  C   UNL     1      73.817  86.734  67.358  1.00  0.00     0.012 C 
ENDBRANCH  22  23
ENDBRANCH  20  21
ENDBRANCH  19  20
ENDBRANCH  18  19
ENDBRANCH   1  18
TORSDOF 11
ENDMDL
MODEL 2
REMARK VINA RESULT:    -4.948     20.518     24.173
REMARK INTER + INTRA:         -10.521
REMARK INTER:                  -9.669
REMARK INTRA:                  -0.852
REMARK UNBOUND:                -2.535
REMARK SMILES COc1cc(CNC(=O)CCCCC/C=C/C(C)C)ccc1O
REMARK SMILES IDX 11 1 10 2 8 3 7 4 9 6 6 7 5 8 3 9 22 10 4 11 21 12 20 13
REMARK SMILES IDX 2 14 1 15 23 16 12 18 13 19 14 20 15 21 16 22 17 23 18 24
REMARK SMILES IDX 19 25
REMARK H PARENT 7 5 23 17
REMARK Flexibility Score: inf
ROOT
ATOM      1  C   UNL     1      91.682  96.701  76.866  1.00  0.00     0.010 C 
ENDROOT
BRANCH   1   2
ATOM      2  C   UNL     1      92.899  97.206  76.049  1.00  0.00     0.100 C 
BRANCH   2   3
ATOM      3  C   UNL     1      94.161  96.509  76.358  1.00  0.00     0.220 C 
ATOM      4  N   UNL     1      94.534  96.326  77.655  1.00  0.00    -0.352 N 
ATOM      5  H   UNL     1      93.927  96.763  78.334  1.00  0.00     0.163 HD
ATOM      6  O   UNL     1      94.844  96.064  75.406  1.00  0.00    -0.275 OA
BRANCH   4   7
ATOM      7  C   UNL     1      95.674  95.589  78.094  1.00  0.00     0.151 C 
BRANCH   7   8
ATOM      8  C   UNL     1      95.525  95.075  79.480  1.00  0.00    -0.025 A 
ATOM      9  C   UNL     1      95.518  95.456  81.910  1.00  0.00     0.160 A 
ATOM     10  C   UNL     1      95.291  94.079  82.124  1.00  0.00     0.157 A 
ATOM     11  C   UNL     1      95.642  95.942  80.592  1.00  0.00     0.056 A 
ATOM     12  C   UNL     1      95.155  93.211  81.026  1.00  0.00     0.050 A 
ATOM     13  C   UNL     1      95.261  93.707  79.713  1.00  0.00     0.009 A 
BRANCH   9  14
ATOM     14  O   UNL     1      95.564  96.324  82.969  1.00  0.00    -0.493 OA
ATOM     15  C   UNL     1      95.167  97.667  82.647  1.00  0.00     0.278 C 
ENDBRANCH   9  14
BRANCH  10  16
ATOM     16  O   UNL     1      95.194  93.568  83.377  1.00  0.00    -0.504 OA
ATOM     17  H   UNL     1      96.034  93.672  83.831  1.00  0.00     0.293 HD
ENDBRANCH  10  16
ENDBRANCH   7   8
ENDBRANCH   4   7
ENDBRANCH   2   3
ENDBRANCH   1   2
BRANCH   1  18
ATOM     18  C   UNL     1      91.359  95.222  76.531  1.00  0.00     0.001 C 
BRANCH  18  19
ATOM     19  C   UNL     1      90.835  94.409  77.742  1.00  0.00     0.004 C 
BRANCH  19  20
ATOM     20  C   UNL     1      90.131  93.101  77.285  1.00  0.00     0.027 C 
BRANCH  20  21
ATOM     21  C   UNL     1      89.499  93.203  75.981  1.00  0.00    -0.031 C 
ATOM     22  C   UNL     1      89.564  92.214  75.071  1.00  0.00    -0.028 C 
BRANCH  22  23
ATOM     23  C   UNL     1      88.935  92.283  73.755  1.00  0.00     0.005 C 
ATOM     24  C   UNL     1      89.888  91.710  72.672  1.00  0.00     0.012 C 
ATOM     25  C   UNL     1      87.563  91.556  73.776  1.00  0.00     0.012 C 
ENDBRANCH  22  23
ENDBRANCH  20  21
ENDBRANCH  19  20
ENDBRANCH  18  19
ENDBRANCH   1  18
TORSDOF 11
ENDMDL
MODEL 3
REMARK VINA RESULT:    -4.885     22.776     26.419
REMARK INTER + INTRA:         -10.419
REMARK INTER:                  -9.605
REMARK INTRA:                  -0.814
REMARK UNBOUND:                -2.535
REMARK SMILES COc1cc(CNC(=O)CCCCC/C=C/C(C)C)ccc1O
REMARK SMILES IDX 11 1 10 2 8 3 7 4 9 6 6 7 5 8 3 9 22 10 4 11 21 12 20 13
REMARK SMILES IDX 2 14 1 15 23 16 12 18 13 19 14 20 15 21 16 22 17 23 18 24
REMARK SMILES IDX 19 25
REMARK H PARENT 7 5 23 17
REMARK Flexibility Score: inf
ROOT
ATOM      1  C   UNL     1      96.150  98.372  74.904  1.00  0.00     0.010 C 
ENDROOT
BRANCH   1   2
ATOM      2  C   UNL     1      97.210  98.518  76.027  1.00  0.00     0.100 C 
BRANCH   2   3
ATOM      3  C   UNL     1      96.736  99.267  77.206  1.00  0.00     0.220 C 
ATOM      4  N   UNL     1      96.732  98.672  78.431  1.00  0.00    -0.352 N 
ATOM      5  H   UNL     1      96.997  97.697  78.426  1.00  0.00     0.163 HD
ATOM      6  O   UNL     1      96.385 100.461  77.051  1.00  0.00    -0.275 OA
BRANCH   4   7
ATOM      7  C   UNL     1      96.393  99.310  79.661  1.00  0.00     0.151 C 
BRANCH   7   8
ATOM      8  C   UNL     1      95.983  98.343  80.712  1.00  0.00    -0.025 A 
ATOM      9  C   UNL     1      95.073  96.152  81.362  1.00  0.00     0.160 A 
ATOM     10  C   UNL     1      95.153  96.524  82.722  1.00  0.00     0.157 A 
ATOM     11  C   UNL     1      95.480  97.066  80.369  1.00  0.00     0.056 A 
ATOM     12  C   UNL     1      95.668  97.784  83.076  1.00  0.00     0.050 A 
ATOM     13  C   UNL     1      96.090  98.683  82.079  1.00  0.00     0.009 A 
BRANCH   9  14
ATOM     14  O   UNL     1      94.656  94.896  81.011  1.00  0.00    -0.493 OA
ATOM     15  C   UNL     1      94.755  94.616  79.604  1.00  0.00     0.278 C 
ENDBRANCH   9  14
BRANCH  10  16
ATOM     16  O   UNL     1      94.745  95.684  83.707  1.00  0.00    -0.504 OA
ATOM     17  H   UNL     1      94.117  95.052  83.349  1.00  0.00     0.293 HD
ENDBRANCH  10  16
ENDBRANCH   7   8
ENDBRANCH   4   7
ENDBRANCH   2   3
ENDBRANCH   1   2
BRANCH   1  18
ATOM     18  C   UNL     1      95.323  97.073  75.080  1.00  0.00     0.001 C 
BRANCH  18  19
ATOM     19  C   UNL     1      94.453  97.057  76.362  1.00  0.00     0.004 C 
BRANCH  19  20
ATOM     20  C   UNL     1      92.959  96.785  76.030  1.00  0.00     0.027 C 
BRANCH  20  21
ATOM     21  C   UNL     1      92.328  95.824  76.919  1.00  0.00    -0.031 C 
ATOM     22  C   UNL     1      90.998  95.791  77.114  1.00  0.00    -0.028 C 
BRANCH  22  23
ATOM     23  C   UNL     1      90.333  94.835  77.996  1.00  0.00     0.005 C 
ATOM     24  C   UNL     1      89.201  94.097  77.233  1.00  0.00     0.012 C 
ATOM     25  C   UNL     1      91.372  93.853  78.604  1.00  0.00     0.012 C 
ENDBRANCH  22  23
ENDBRANCH  20  21
ENDBRANCH  19  20
ENDBRANCH  18  19
ENDBRANCH   1  18
TORSDOF 11
ENDMDL
MODEL 4
REMARK VINA RESULT:    -4.859      2.405      3.300
REMARK INTER + INTRA:         -10.377
REMARK INTER:                  -9.597
REMARK INTRA:                  -0.780
REMARK UNBOUND:                -2.535
REMARK SMILES COc1cc(CNC(=O)CCCCC/C=C/C(C)C)ccc1O
REMARK SMILES IDX 11 1 10 2 8 3 7 4 9 6 6 7 5 8 3 9 22 10 4 11 21 12 20 13
REMARK SMILES IDX 2 14 1 15 23 16 12 18 13 19 14 20 15 21 16 22 17 23 18 24
REMARK SMILES IDX 19 25
REMARK H PARENT 7 5 23 17
REMARK Flexibility Score: inf
ROOT
ATOM      1  C   UNL     1      77.188  86.204  66.036  1.00  0.00     0.010 C 
ENDROOT
BRANCH   1   2
ATOM      2  C   UNL     1      77.889  84.899  66.495  1.00  0.00     0.100 C 
BRANCH   2   3
ATOM      3  C   UNL     1      77.695  83.759  65.579  1.00  0.00     0.220 C 
ATOM      4  N   UNL     1      77.343  82.542  66.077  1.00  0.00    -0.352 N 
ATOM      5  H   UNL     1      77.311  82.492  67.086  1.00  0.00     0.163 HD
ATOM      6  O   UNL     1      77.821  83.957  64.347  1.00  0.00    -0.275 OA
BRANCH   4   7
ATOM      7  C   UNL     1      77.031  81.386  65.300  1.00  0.00     0.151 C 
BRANCH   7   8
ATOM      8  C   UNL     1      75.605  81.342  64.888  1.00  0.00    -0.025 A 
ATOM      9  C   UNL     1      73.216  81.569  65.431  1.00  0.00     0.160 A 
ATOM     10  C   UNL     1      72.882  81.203  64.109  1.00  0.00     0.157 A 
ATOM     11  C   UNL     1      74.572  81.627  65.813  1.00  0.00     0.056 A 
ATOM     12  C   UNL     1      73.901  80.935  63.176  1.00  0.00     0.050 A 
ATOM     13  C   UNL     1      75.252  81.014  63.560  1.00  0.00     0.009 A 
BRANCH   9  14
ATOM     14  O   UNL     1      72.236  81.917  66.322  1.00  0.00    -0.493 OA
ATOM     15  C   UNL     1      72.240  83.308  66.685  1.00  0.00     0.278 C 
ENDBRANCH   9  14
BRANCH  10  16
ATOM     16  O   UNL     1      71.589  81.108  63.709  1.00  0.00    -0.504 OA
ATOM     17  H   UNL     1      71.118  81.908  63.958  1.00  0.00     0.293 HD
ENDBRANCH  10  16
ENDBRANCH   7   8
ENDBRANCH   4   7
ENDBRANCH   2   3
ENDBRANCH   1   2
BRANCH   1  18
ATOM     18  C   UNL     1      77.092  87.225  67.198  1.00  0.00     0.001 C 
BRANCH  18  19
ATOM     19  C   UNL     1      76.945  86.569  68.594  1.00  0.00     0.004 C 
BRANCH  19  20
ATOM     20  C   UNL     1      76.856  87.640  69.717  1.00  0.00     0.027 C 
BRANCH  20  21
ATOM     21  C   UNL     1      75.569  87.675  70.391  1.00  0.00    -0.031 C 
ATOM     22  C   UNL     1      75.076  88.798  70.943  1.00  0.00    -0.028 C 
BRANCH  22  23
ATOM     23  C   UNL     1      73.785  88.867  71.621  1.00  0.00     0.005 C 
ATOM     24  C   UNL     1      73.416  90.344  71.926  1.00  0.00     0.012 C 
ATOM     25  C   UNL     1      72.696  88.149  70.778  1.00  0.00     0.012 C 
ENDBRANCH  22  23
ENDBRANCH  20  21
ENDBRANCH  19  20
ENDBRANCH  18  19
ENDBRANCH   1  18
TORSDOF 11
ENDMDL
MODEL 5
REMARK VINA RESULT:    -4.788     25.491     27.968
REMARK INTER + INTRA:         -10.262
REMARK INTER:                  -9.462
REMARK INTRA:                  -0.800
REMARK UNBOUND:                -2.535
REMARK SMILES COc1cc(CNC(=O)CCCCC/C=C/C(C)C)ccc1O
REMARK SMILES IDX 11 1 10 2 8 3 7 4 9 6 6 7 5 8 3 9 22 10 4 11 21 12 20 13
REMARK SMILES IDX 2 14 1 15 23 16 12 18 13 19 14 20 15 21 16 22 17 23 18 24
REMARK SMILES IDX 19 25
REMARK H PARENT 7 5 23 17
REMARK Flexibility Score: inf
ROOT
ATOM      1  C   UNL     1      99.362  82.165  79.726  1.00  0.00     0.010 C 
ENDROOT
BRANCH   1   2
ATOM      2  C   UNL     1      98.666  83.132  80.718  1.00  0.00     0.100 C 
BRANCH   2   3
ATOM      3  C   UNL     1      98.999  82.882  82.133  1.00  0.00     0.220 C 
ATOM      4  N   UNL     1      98.168  83.332  83.114  1.00  0.00    -0.352 N 
ATOM      5  H   UNL     1      97.391  83.888  82.786  1.00  0.00     0.163 HD
ATOM      6  O   UNL     1     100.030  82.219  82.394  1.00  0.00    -0.275 OA
BRANCH   4   7
ATOM      7  C   UNL     1      98.319  83.077  84.510  1.00  0.00     0.151 C 
BRANCH   7   8
ATOM      8  C   UNL     1      97.231  83.679  85.323  1.00  0.00    -0.025 A 
ATOM      9  C   UNL     1      95.249  83.431  86.757  1.00  0.00     0.160 A 
ATOM     10  C   UNL     1      95.125  84.836  86.827  1.00  0.00     0.157 A 
ATOM     11  C   UNL     1      96.293  82.864  85.999  1.00  0.00     0.056 A 
ATOM     12  C   UNL     1      96.062  85.656  86.173  1.00  0.00     0.050 A 
ATOM     13  C   UNL     1      97.114  85.082  85.435  1.00  0.00     0.009 A 
BRANCH   9  14
ATOM     14  O   UNL     1      94.395  82.625  87.461  1.00  0.00    -0.493 OA
ATOM     15  C   UNL     1      93.382  81.997  86.657  1.00  0.00     0.278 C 
ENDBRANCH   9  14
BRANCH  10  16
ATOM     16  O   UNL     1      94.118  85.421  87.522  1.00  0.00    -0.504 OA
ATOM     17  H   UNL     1      93.289  85.289  87.056  1.00  0.00     0.293 HD
ENDBRANCH  10  16
ENDBRANCH   7   8
ENDBRANCH   4   7
ENDBRANCH   2   3
ENDBRANCH   1   2
BRANCH   1  18
ATOM     18  C   UNL     1      98.580  82.076  78.390  1.00  0.00     0.001 C 
BRANCH  18  19
ATOM     19  C   UNL     1      97.444  83.123  78.262  1.00  0.00     0.004 C 
BRANCH  19  20
ATOM     20  C   UNL     1      97.662  84.047  77.030  1.00  0.00     0.027 C 
BRANCH  20  21
ATOM     21  C   UNL     1      98.782  83.651  76.194  1.00  0.00    -0.031 C 
ATOM     22  C   UNL     1      99.765  84.505  75.858  1.00  0.00    -0.028 C 
BRANCH  22  23
ATOM     23  C   UNL     1     100.907  84.137  75.024  1.00  0.00     0.005 C 
ATOM     24  C   UNL     1     101.277  85.307  74.074  1.00  0.00     0.012 C 
ATOM     25  C   UNL     1     102.102  83.698  75.913  1.00  0.00     0.012 C 
ENDBRANCH  22  23
ENDBRANCH  20  21
ENDBRANCH  19  20
ENDBRANCH  18  19
ENDBRANCH   1  18
TORSDOF 11
ENDMDL
MODEL 6
REMARK VINA RESULT:    -4.740     20.433     23.980
REMARK INTER + INTRA:         -10.185
REMARK INTER:                  -9.380
REMARK INTRA:                  -0.805
REMARK UNBOUND:                -2.535
REMARK SMILES COc1cc(CNC(=O)CCCCC/C=C/C(C)C)ccc1O
REMARK SMILES IDX 11 1 10 2 8 3 7 4 9 6 6 7 5 8 3 9 22 10 4 11 21 12 20 13
REMARK SMILES IDX 2 14 1 15 23 16 12 18 13 19 14 20 15 21 16 22 17 23 18 24
REMARK SMILES IDX 19 25
REMARK H PARENT 7 5 23 17
REMARK Flexibility Score: inf
ROOT
ATOM      1  C   UNL     1      93.309 100.387  73.823  1.00  0.00     0.010 C 
ENDROOT
BRANCH   1   2
ATOM      2  C   UNL     1      92.997  99.385  74.965  1.00  0.00     0.100 C 
BRANCH   2   3
ATOM      3  C   UNL     1      94.141  98.538  75.349  1.00  0.00     0.220 C 
ATOM      4  N   UNL     1      94.498  98.434  76.659  1.00  0.00    -0.352 N 
ATOM      5  H   UNL     1      93.974  99.027  77.287  1.00  0.00     0.163 HD
ATOM      6  O   UNL     1      94.736  97.896  74.450  1.00  0.00    -0.275 OA
BRANCH   4   7
ATOM      7  C   UNL     1      95.517  97.579  77.176  1.00  0.00     0.151 C 
BRANCH   7   8
ATOM      8  C   UNL     1      94.970  96.471  78.001  1.00  0.00    -0.025 A 
ATOM      9  C   UNL     1      93.144  94.918  78.551  1.00  0.00     0.160 A 
ATOM     10  C   UNL     1      93.912  94.393  79.613  1.00  0.00     0.157 A 
ATOM     11  C   UNL     1      93.674  95.957  77.760  1.00  0.00     0.056 A 
ATOM     12  C   UNL     1      95.209  94.884  79.851  1.00  0.00     0.050 A 
ATOM     13  C   UNL     1      95.738  95.908  79.044  1.00  0.00     0.009 A 
BRANCH   9  14
ATOM     14  O   UNL     1      91.916  94.387  78.256  1.00  0.00    -0.493 OA
ATOM     15  C   UNL     1      91.886  93.615  77.044  1.00  0.00     0.278 C 
ENDBRANCH   9  14
BRANCH  10  16
ATOM     16  O   UNL     1      93.427  93.412  80.416  1.00  0.00    -0.504 OA
ATOM     17  H   UNL     1      92.631  93.044  80.025  1.00  0.00     0.293 HD
ENDBRANCH  10  16
ENDBRANCH   7   8
ENDBRANCH   4   7
ENDBRANCH   2   3
ENDBRANCH   1   2
BRANCH   1  18
ATOM     18  C   UNL     1      92.166 101.421  73.658  1.00  0.00     0.001 C 
BRANCH  18  19
ATOM     19  C   UNL     1      91.268 101.164  72.422  1.00  0.00     0.004 C 
BRANCH  19  20
ATOM     20  C   UNL     1      91.911 100.128  71.459  1.00  0.00     0.027 C 
BRANCH  20  21
ATOM     21  C   UNL     1      90.981  99.123  70.975  1.00  0.00    -0.031 C 
ATOM     22  C   UNL     1      89.781  99.443  70.459  1.00  0.00    -0.028 C 
BRANCH  22  23
ATOM     23  C   UNL     1      88.825  98.457  69.960  1.00  0.00     0.005 C 
ATOM     24  C   UNL     1      88.304  98.875  68.560  1.00  0.00     0.012 C 
ATOM     25  C   UNL     1      89.468  97.043  69.953  1.00  0.00     0.012 C 
ENDBRANCH  22  23
ENDBRANCH  20  21
ENDBRANCH  19  20
ENDBRANCH  18  19
ENDBRANCH   1  18
TORSDOF 11
ENDMDL
MODEL 7
REMARK VINA RESULT:    -4.735     19.849     23.301
REMARK INTER + INTRA:         -10.177
REMARK INTER:                  -9.330
REMARK INTRA:                  -0.847
REMARK UNBOUND:                -2.535
REMARK SMILES COc1cc(CNC(=O)CCCCC/C=C/C(C)C)ccc1O
REMARK SMILES IDX 11 1 10 2 8 3 7 4 9 6 6 7 5 8 3 9 22 10 4 11 21 12 20 13
REMARK SMILES IDX 2 14 1 15 23 16 12 18 13 19 14 20 15 21 16 22 17 23 18 24
REMARK SMILES IDX 19 25
REMARK H PARENT 7 5 23 17
REMARK Flexibility Score: inf
ROOT
ATOM      1  C   UNL     1      95.718  99.695  70.632  1.00  0.00     0.010 C 
ENDROOT
BRANCH   1   2
ATOM      2  C   UNL     1      94.487 100.269  71.380  1.00  0.00     0.100 C 
BRANCH   2   3
ATOM      3  C   UNL     1      93.525 100.966  70.507  1.00  0.00     0.220 C 
ATOM      4  N   UNL     1      92.207 101.009  70.849  1.00  0.00    -0.352 N 
ATOM      5  H   UNL     1      91.968 100.476  71.673  1.00  0.00     0.163 HD
ATOM      6  O   UNL     1      93.959 101.542  69.482  1.00  0.00    -0.275 OA
BRANCH   4   7
ATOM      7  C   UNL     1      91.192 101.727  70.149  1.00  0.00     0.151 C 
BRANCH   7   8
ATOM      8  C   UNL     1      90.190 100.830  69.517  1.00  0.00    -0.025 A 
ATOM      9  C   UNL     1      88.958  98.702  69.467  1.00  0.00     0.160 A 
ATOM     10  C   UNL     1      88.316  99.103  68.275  1.00  0.00     0.157 A 
ATOM     11  C   UNL     1      89.895  99.564  70.073  1.00  0.00     0.056 A 
ATOM     12  C   UNL     1      88.589 100.368  67.722  1.00  0.00     0.050 A 
ATOM     13  C   UNL     1      89.511 101.230  68.344  1.00  0.00     0.009 A 
BRANCH   9  14
ATOM     14  O   UNL     1      88.635  97.511  70.060  1.00  0.00    -0.493 OA
ATOM     15  C   UNL     1      89.771  96.721  70.449  1.00  0.00     0.278 C 
ENDBRANCH   9  14
BRANCH  10  16
ATOM     16  O   UNL     1      87.429  98.292  67.644  1.00  0.00    -0.504 OA
ATOM     17  H   UNL     1      87.042  98.760  66.900  1.00  0.00     0.293 HD
ENDBRANCH  10  16
ENDBRANCH   7   8
ENDBRANCH   4   7
ENDBRANCH   2   3
ENDBRANCH   1   2
BRANCH   1  18
ATOM     18  C   UNL     1      95.627  98.153  70.507  1.00  0.00     0.001 C 
BRANCH  18  19
ATOM     19  C   UNL     1      96.644  97.395  71.397  1.00  0.00     0.004 C 
BRANCH  19  20
ATOM     20  C   UNL     1      96.777  98.058  72.796  1.00  0.00     0.027 C 
BRANCH  20  21
ATOM     21  C   UNL     1      95.656  97.787  73.680  1.00  0.00    -0.031 C 
ATOM     22  C   UNL     1      95.811  97.615  75.005  1.00  0.00    -0.028 C 
BRANCH  22  23
ATOM     23  C   UNL     1      94.704  97.347  75.921  1.00  0.00     0.005 C 
ATOM     24  C   UNL     1      93.456  98.173  75.511  1.00  0.00     0.012 C 
ATOM     25  C   UNL     1      94.411  95.823  75.978  1.00  0.00     0.012 C 
ENDBRANCH  22  23
ENDBRANCH  20  21
ENDBRANCH  19  20
ENDBRANCH  18  19
ENDBRANCH   1  18
TORSDOF 11
ENDMDL
MODEL 8
REMARK VINA RESULT:    -4.619     25.370     27.541
REMARK INTER + INTRA:          -9.989
REMARK INTER:                  -9.265
REMARK INTRA:                  -0.724
REMARK UNBOUND:                -2.535
REMARK SMILES COc1cc(CNC(=O)CCCCC/C=C/C(C)C)ccc1O
REMARK SMILES IDX 11 1 10 2 8 3 7 4 9 6 6 7 5 8 3 9 22 10 4 11 21 12 20 13
REMARK SMILES IDX 2 14 1 15 23 16 12 18 13 19 14 20 15 21 16 22 17 23 18 24
REMARK SMILES IDX 19 25
REMARK H PARENT 7 5 23 17
REMARK Flexibility Score: inf
ROOT
ATOM      1  C   UNL     1      97.134  82.293  86.538  1.00  0.00     0.010 C 
ENDROOT
BRANCH   1   2
ATOM      2  C   UNL     1      96.330  83.597  86.298  1.00  0.00     0.100 C 
BRANCH   2   3
ATOM      3  C   UNL     1      95.347  83.899  87.356  1.00  0.00     0.220 C 
ATOM      4  N   UNL     1      94.108  84.355  87.020  1.00  0.00    -0.352 N 
ATOM      5  H   UNL     1      93.976  84.527  86.033  1.00  0.00     0.163 HD
ATOM      6  O   UNL     1      95.671  83.685  88.548  1.00  0.00    -0.275 OA
BRANCH   4   7
ATOM      7  C   UNL     1      93.037  84.592  87.932  1.00  0.00     0.151 C 
BRANCH   7   8
ATOM      8  C   UNL     1      91.980  83.550  87.856  1.00  0.00    -0.025 A 
ATOM      9  C   UNL     1      90.978  81.601  86.739  1.00  0.00     0.160 A 
ATOM     10  C   UNL     1      89.930  81.599  87.685  1.00  0.00     0.157 A 
ATOM     11  C   UNL     1      91.989  82.580  86.826  1.00  0.00     0.056 A 
ATOM     12  C   UNL     1      89.920  82.549  88.723  1.00  0.00     0.050 A 
ATOM     13  C   UNL     1      90.943  83.511  88.814  1.00  0.00     0.009 A 
BRANCH   9  14
ATOM     14  O   UNL     1      91.045  80.628  85.777  1.00  0.00    -0.493 OA
ATOM     15  C   UNL     1      91.916  79.534  86.108  1.00  0.00     0.278 C 
ENDBRANCH   9  14
BRANCH  10  16
ATOM     16  O   UNL     1      88.924  80.692  87.620  1.00  0.00    -0.504 OA
ATOM     17  H   UNL     1      88.526  80.593  88.489  1.00  0.00     0.293 HD
ENDBRANCH  10  16
ENDBRANCH   7   8
ENDBRANCH   4   7
ENDBRANCH   2   3
ENDBRANCH   1   2
BRANCH   1  18
ATOM     18  C   UNL     1      97.274  81.474  85.229  1.00  0.00     0.001 C 
BRANCH  18  19
ATOM     19  C   UNL     1      98.702  81.502  84.626  1.00  0.00     0.004 C 
BRANCH  19  20
ATOM     20  C   UNL     1      98.864  82.665  83.608  1.00  0.00     0.027 C 
BRANCH  20  21
ATOM     21  C   UNL     1      98.629  82.272  82.229  1.00  0.00    -0.031 C 
ATOM     22  C   UNL     1      98.553  83.167  81.229  1.00  0.00    -0.028 C 
BRANCH  22  23
ATOM     23  C   UNL     1      98.323  82.804  79.833  1.00  0.00     0.005 C 
ATOM     24  C   UNL     1      97.130  83.612  79.257  1.00  0.00     0.012 C 
ATOM     25  C   UNL     1      99.622  83.000  79.006  1.00  0.00     0.012 C 
ENDBRANCH  22  23
ENDBRANCH  20  21
ENDBRANCH  19  20
ENDBRANCH  18  19
ENDBRANCH   1  18
TORSDOF 11
ENDMDL
MODEL 9
REMARK VINA RESULT:    -4.589     20.880     24.513
REMARK INTER + INTRA:          -9.941
REMARK INTER:                  -9.197
REMARK INTRA:                  -0.744
REMARK UNBOUND:                -2.535
REMARK SMILES COc1cc(CNC(=O)CCCCC/C=C/C(C)C)ccc1O
REMARK SMILES IDX 11 1 10 2 8 3 7 4 9 6 6 7 5 8 3 9 22 10 4 11 21 12 20 13
REMARK SMILES IDX 2 14 1 15 23 16 12 18 13 19 14 20 15 21 16 22 17 23 18 24
REMARK SMILES IDX 19 25
REMARK H PARENT 7 5 23 17
REMARK Flexibility Score: inf
ROOT
ATOM      1  C   UNL     1      94.006 100.097  73.879  1.00  0.00     0.010 C 
ENDROOT
BRANCH   1   2
ATOM      2  C   UNL     1      93.360  99.321  75.055  1.00  0.00     0.100 C 
BRANCH   2   3
ATOM      3  C   UNL     1      93.963  97.998  75.306  1.00  0.00     0.220 C 
ATOM      4  N   UNL     1      93.236  97.028  75.927  1.00  0.00    -0.352 N 
ATOM      5  H   UNL     1      92.324  97.325  76.246  1.00  0.00     0.163 HD
ATOM      6  O   UNL     1      95.130  97.789  74.898  1.00  0.00    -0.275 OA
BRANCH   4   7
ATOM      7  C   UNL     1      93.661  95.684  76.143  1.00  0.00     0.151 C 
BRANCH   7   8
ATOM      8  C   UNL     1      93.981  95.407  77.567  1.00  0.00    -0.025 A 
ATOM      9  C   UNL     1      95.381  95.785  79.554  1.00  0.00     0.160 A 
ATOM     10  C   UNL     1      94.621  94.834  80.269  1.00  0.00     0.157 A 
ATOM     11  C   UNL     1      95.062  96.057  78.208  1.00  0.00     0.056 A 
ATOM     12  C   UNL     1      93.533  94.194  79.647  1.00  0.00     0.050 A 
ATOM     13  C   UNL     1      93.209  94.486  78.309  1.00  0.00     0.009 A 
BRANCH   9  14
ATOM     14  O   UNL     1      96.386  96.477  80.175  1.00  0.00    -0.493 OA
ATOM     15  C   UNL     1      96.009  97.793  80.614  1.00  0.00     0.278 C 
ENDBRANCH   9  14
BRANCH  10  16
ATOM     16  O   UNL     1      94.913  94.522  81.557  1.00  0.00    -0.504 OA
ATOM     17  H   UNL     1      95.384  95.254  81.963  1.00  0.00     0.293 HD
ENDBRANCH  10  16
ENDBRANCH   7   8
ENDBRANCH   4   7
ENDBRANCH   2   3
ENDBRANCH   1   2
BRANCH   1  18
ATOM     18  C   UNL     1      93.166 101.344  73.502  1.00  0.00     0.001 C 
BRANCH  18  19
ATOM     19  C   UNL     1      91.670 101.033  73.247  1.00  0.00     0.004 C 
BRANCH  19  20
ATOM     20  C   UNL     1      91.409 100.690  71.753  1.00  0.00     0.027 C 
BRANCH  20  21
ATOM     21  C   UNL     1      90.297  99.777  71.549  1.00  0.00    -0.031 C 
ATOM     22  C   UNL     1      90.280  98.878  70.548  1.00  0.00    -0.028 C 
BRANCH  22  23
ATOM     23  C   UNL     1      89.181  97.943  70.319  1.00  0.00     0.005 C 
ATOM     24  C   UNL     1      88.505  98.232  68.953  1.00  0.00     0.012 C 
ATOM     25  C   UNL     1      89.690  96.480  70.428  1.00  0.00     0.012 C 
ENDBRANCH  22  23
ENDBRANCH  20  21
ENDBRANCH  19  20
ENDBRANCH  18  19
ENDBRANCH   1  18
TORSDOF 11
ENDMDL
MODEL 10
REMARK VINA RESULT:    -4.517     24.993     26.709
REMARK INTER + INTRA:          -9.826
REMARK INTER:                  -8.322
REMARK INTRA:                  -1.503
REMARK UNBOUND:                -2.535
REMARK SMILES COc1cc(CNC(=O)CCCCC/C=C/C(C)C)ccc1O
REMARK SMILES IDX 11 1 10 2 8 3 7 4 9 6 6 7 5 8 3 9 22 10 4 11 21 12 20 13
REMARK SMILES IDX 2 14 1 15 23 16 12 18 13 19 14 20 15 21 16 22 17 23 18 24
REMARK SMILES IDX 19 25
REMARK H PARENT 7 5 23 17
REMARK Flexibility Score: inf
ROOT
ATOM      1  C   UNL     1     100.905  78.933  73.135  1.00  0.00     0.010 C 
ENDROOT
BRANCH   1   2
ATOM      2  C   UNL     1      99.428  78.523  73.371  1.00  0.00     0.100 C 
BRANCH   2   3
ATOM      3  C   UNL     1      98.996  78.620  74.778  1.00  0.00     0.220 C 
ATOM      4  N   UNL     1      99.467  79.628  75.563  1.00  0.00    -0.352 N 
ATOM      5  H   UNL     1     100.162  80.215  75.124  1.00  0.00     0.163 HD
ATOM      6  O   UNL     1      98.164  77.785  75.204  1.00  0.00    -0.275 OA
BRANCH   4   7
ATOM      7  C   UNL     1      99.059  79.895  76.904  1.00  0.00     0.151 C 
BRANCH   7   8
ATOM      8  C   UNL     1      98.670  81.314  77.112  1.00  0.00    -0.025 A 
ATOM      9  C   UNL     1      97.964  83.138  78.602  1.00  0.00     0.160 A 
ATOM     10  C   UNL     1      97.877  84.009  77.494  1.00  0.00     0.157 A 
ATOM     11  C   UNL     1      98.351  81.797  78.403  1.00  0.00     0.056 A 
ATOM     12  C   UNL     1      98.209  83.543  76.209  1.00  0.00     0.050 A 
ATOM     13  C   UNL     1      98.613  82.208  76.020  1.00  0.00     0.009 A 
BRANCH   9  14
ATOM     14  O   UNL     1      97.729  83.604  79.869  1.00  0.00    -0.493 OA
ATOM     15  C   UNL     1      98.644  83.106  80.858  1.00  0.00     0.278 C 
ENDBRANCH   9  14
BRANCH  10  16
ATOM     16  O   UNL     1      97.482  85.298  77.639  1.00  0.00    -0.504 OA
ATOM     17  H   UNL     1      96.523  85.344  77.608  1.00  0.00     0.293 HD
ENDBRANCH  10  16
ENDBRANCH   7   8
ENDBRANCH   4   7
ENDBRANCH   2   3
ENDBRANCH   1   2
BRANCH   1  18
ATOM     18  C   UNL     1     101.014  80.017  72.033  1.00  0.00     0.001 C 
BRANCH  18  19
ATOM     19  C   UNL     1     101.712  81.318  72.505  1.00  0.00     0.004 C 
BRANCH  19  20
ATOM     20  C   UNL     1     101.736  81.417  74.056  1.00  0.00     0.027 C 
BRANCH  20  21
ATOM     21  C   UNL     1     101.646  82.778  74.557  1.00  0.00    -0.031 C 
ATOM     22  C   UNL     1     102.123  83.830  73.869  1.00  0.00    -0.028 C 
BRANCH  22  23
ATOM     23  C   UNL     1     102.042  85.210  74.342  1.00  0.00     0.005 C 
ATOM     24  C   UNL     1     100.695  85.848  73.911  1.00  0.00     0.012 C 
ATOM     25  C   UNL     1     102.255  85.264  75.879  1.00  0.00     0.012 C 
ENDBRANCH  22  23
ENDBRANCH  20  21
ENDBRANCH  19  20
ENDBRANCH  18  19
ENDBRANCH   1  18
TORSDOF 11
ENDMDL
