MODEL 1
REMARK VINA RESULT:    -5.996      0.000      0.000
REMARK INTER + INTRA:         -10.614
REMARK INTER:                  -9.851
REMARK INTRA:                  -0.763
REMARK UNBOUND:                -0.763
REMARK SMILES CCCCC[C@H](O)CC(=O)CCc1ccc(O)c(OC)c1
REMARK SMILES IDX 8 1 6 2 7 3 5 5 4 6 3 7 2 8 1 9 9 10 10 11 11 12 12 13 13 14
REMARK SMILES IDX 21 15 14 16 18 17 15 18 16 19 19 20 20 21 17 22
REMARK H PARENT 7 4 17 23
REMARK Flexibility Score: inf
ROOT
ATOM      1  C   UNL     1      91.459  80.776  83.934  1.00  0.00     0.107 C 
ENDROOT
BRANCH   1   2
ATOM      2  C   UNL     1      90.063  81.266  84.327  1.00  0.00     0.121 C 
BRANCH   2   3
ATOM      3  O   UNL     1      89.846  82.575  83.806  1.00  0.00    -0.393 OA
ATOM      4  H   UNL     1      88.894  82.670  83.627  1.00  0.00     0.210 HD
ENDBRANCH   2   3
BRANCH   2   5
ATOM      5  C   UNL     1      88.943  80.337  83.842  1.00  0.00     0.032 C 
BRANCH   5   6
ATOM      6  C   UNL     1      87.552  80.906  84.145  1.00  0.00     0.003 C 
BRANCH   6   7
ATOM      7  C   UNL     1      86.809  81.391  82.896  1.00  0.00    -0.000 C 
BRANCH   7   8
ATOM      8  C   UNL     1      86.290  82.823  83.009  1.00  0.00    -0.003 C 
ATOM      9  C   UNL     1      86.476  83.370  84.416  1.00  0.00     0.004 C 
ENDBRANCH   7   8
ENDBRANCH   6   7
ENDBRANCH   5   6
ENDBRANCH   2   5
ENDBRANCH   1   2
BRANCH   1  10
ATOM     10  C   UNL     1      92.197  80.099  85.078  1.00  0.00     0.135 C 
ATOM     11  O   UNL     1      92.016  78.908  85.330  1.00  0.00    -0.300 OA
BRANCH  10  12
ATOM     12  C   UNL     1      93.189  80.954  85.851  1.00  0.00     0.080 C 
BRANCH  12  13
ATOM     13  C   UNL     1      92.763  82.416  85.991  1.00  0.00     0.043 C 
BRANCH  13  14
ATOM     14  C   UNL     1      93.740  83.381  85.362  1.00  0.00    -0.044 A 
ATOM     15  C   UNL     1      94.633  82.934  84.388  1.00  0.00     0.054 A 
ATOM     16  C   UNL     1      93.750  84.719  85.756  1.00  0.00     0.008 A 
ATOM     17  C   UNL     1      95.535  83.825  83.808  1.00  0.00     0.160 A 
ATOM     18  C   UNL     1      94.652  85.611  85.176  1.00  0.00     0.050 A 
ATOM     19  C   UNL     1      95.545  85.164  84.202  1.00  0.00     0.157 A 
BRANCH  17  20
ATOM     20  O   UNL     1      96.403  83.377  82.858  1.00  0.00    -0.493 OA
ATOM     21  C   UNL     1      97.316  82.352  83.246  1.00  0.00     0.278 C 
ENDBRANCH  17  20
BRANCH  19  22
ATOM     22  O   UNL     1      96.421  86.044  83.642  1.00  0.00    -0.504 OA
ATOM     23  H   UNL     1      97.188  85.553  83.301  1.00  0.00     0.293 HD
ENDBRANCH  19  22
ENDBRANCH  13  14
ENDBRANCH  12  13
ENDBRANCH  10  12
ENDBRANCH   1  10
TORSDOF 12
ENDMDL
MODEL 2
REMARK VINA RESULT:    -5.830      6.913     10.972
REMARK INTER + INTRA:         -10.342
REMARK INTER:                  -9.540
REMARK INTRA:                  -0.802
REMARK UNBOUND:                -0.763
REMARK SMILES CCCCC[C@H](O)CC(=O)CCc1ccc(O)c(OC)c1
REMARK SMILES IDX 8 1 6 2 7 3 5 5 4 6 3 7 2 8 1 9 9 10 10 11 11 12 12 13 13 14
REMARK SMILES IDX 21 15 14 16 18 17 15 18 16 19 19 20 20 21 17 22
REMARK H PARENT 7 4 17 23
REMARK Flexibility Score: inf
ROOT
ATOM      1  C   UNL     1      98.034  83.937  75.965  1.00  0.00     0.107 C 
ENDROOT
BRANCH   1   2
ATOM      2  C   UNL     1      97.779  83.595  74.495  1.00  0.00     0.121 C 
BRANCH   2   3
ATOM      3  O   UNL     1      97.032  84.641  73.878  1.00  0.00    -0.393 OA
ATOM      4  H   UNL     1      97.556  85.459  73.943  1.00  0.00     0.210 HD
ENDBRANCH   2   3
BRANCH   2   5
ATOM      5  C   UNL     1      99.069  83.359  73.701  1.00  0.00     0.032 C 
BRANCH   5   6
ATOM      6  C   UNL     1      99.342  84.486  72.698  1.00  0.00     0.003 C 
BRANCH   6   7
ATOM      7  C   UNL     1     100.462  85.434  73.140  1.00  0.00    -0.000 C 
BRANCH   7   8
ATOM      8  C   UNL     1     101.220  84.951  74.375  1.00  0.00    -0.003 C 
ATOM      9  C   UNL     1     102.198  86.004  74.873  1.00  0.00     0.004 C 
ENDBRANCH   7   8
ENDBRANCH   6   7
ENDBRANCH   5   6
ENDBRANCH   2   5
ENDBRANCH   1   2
BRANCH   1  10
ATOM     10  C   UNL     1      96.778  84.376  76.701  1.00  0.00     0.135 C 
ATOM     11  O   UNL     1      96.069  85.279  76.259  1.00  0.00    -0.300 OA
BRANCH  10  12
ATOM     12  C   UNL     1      96.432  83.615  77.972  1.00  0.00     0.080 C 
BRANCH  12  13
ATOM     13  C   UNL     1      97.651  83.238  78.815  1.00  0.00     0.043 C 
BRANCH  13  14
ATOM     14  C   UNL     1      97.292  82.469  80.064  1.00  0.00    -0.044 A 
ATOM     15  C   UNL     1      97.395  81.078  80.080  1.00  0.00     0.054 A 
ATOM     16  C   UNL     1      96.857  83.150  81.201  1.00  0.00     0.008 A 
ATOM     17  C   UNL     1      97.064  80.368  81.235  1.00  0.00     0.160 A 
ATOM     18  C   UNL     1      96.527  82.440  82.356  1.00  0.00     0.050 A 
ATOM     19  C   UNL     1      96.630  81.049  82.372  1.00  0.00     0.157 A 
BRANCH  17  20
ATOM     20  O   UNL     1      97.168  79.010  81.239  1.00  0.00    -0.493 OA
ATOM     21  C   UNL     1      97.779  78.403  80.101  1.00  0.00     0.278 C 
ENDBRANCH  17  20
BRANCH  19  22
ATOM     22  O   UNL     1      96.304  80.367  83.505  1.00  0.00    -0.504 OA
ATOM     23  H   UNL     1      97.088  79.889  83.824  1.00  0.00     0.293 HD
ENDBRANCH  19  22
ENDBRANCH  13  14
ENDBRANCH  12  13
ENDBRANCH  10  12
ENDBRANCH   1  10
TORSDOF 12
ENDMDL
MODEL 3
REMARK VINA RESULT:    -5.750      4.898      7.584
REMARK INTER + INTRA:         -10.210
REMARK INTER:                  -9.278
REMARK INTRA:                  -0.933
REMARK UNBOUND:                -0.763
REMARK SMILES CCCCC[C@H](O)CC(=O)CCc1ccc(O)c(OC)c1
REMARK SMILES IDX 8 1 6 2 7 3 5 5 4 6 3 7 2 8 1 9 9 10 10 11 11 12 12 13 13 14
REMARK SMILES IDX 21 15 14 16 18 17 15 18 16 19 19 20 20 21 17 22
REMARK H PARENT 7 4 17 23
REMARK Flexibility Score: inf
ROOT
ATOM      1  C   UNL     1      92.432  75.362  82.020  1.00  0.00     0.107 C 
ENDROOT
BRANCH   1   2
ATOM      2  C   UNL     1      91.543  74.855  80.882  1.00  0.00     0.121 C 
BRANCH   2   3
ATOM      3  O   UNL     1      90.246  74.542  81.385  1.00  0.00    -0.393 OA
ATOM      4  H   UNL     1      90.135  73.576  81.340  1.00  0.00     0.210 HD
ENDBRANCH   2   3
BRANCH   2   5
ATOM      5  C   UNL     1      91.409  75.860  79.732  1.00  0.00     0.032 C 
BRANCH   5   6
ATOM      6  C   UNL     1      90.945  75.191  78.432  1.00  0.00     0.003 C 
BRANCH   6   7
ATOM      7  C   UNL     1      90.591  76.191  77.328  1.00  0.00    -0.000 C 
BRANCH   7   8
ATOM      8  C   UNL     1      91.811  76.798  76.637  1.00  0.00    -0.003 C 
ATOM      9  C   UNL     1      91.701  78.312  76.547  1.00  0.00     0.004 C 
ENDBRANCH   7   8
ENDBRANCH   6   7
ENDBRANCH   5   6
ENDBRANCH   2   5
ENDBRANCH   1   2
BRANCH   1  10
ATOM     10  C   UNL     1      91.781  75.231  83.388  1.00  0.00     0.135 C 
ATOM     11  O   UNL     1      91.416  74.135  83.813  1.00  0.00    -0.300 OA
BRANCH  10  12
ATOM     12  C   UNL     1      91.652  76.506  84.207  1.00  0.00     0.080 C 
BRANCH  12  13
ATOM     13  C   UNL     1      90.213  77.010  84.336  1.00  0.00     0.043 C 
BRANCH  13  14
ATOM     14  C   UNL     1      90.100  78.512  84.226  1.00  0.00    -0.044 A 
ATOM     15  C   UNL     1      88.847  79.110  84.094  1.00  0.00     0.054 A 
ATOM     16  C   UNL     1      91.250  79.302  84.257  1.00  0.00     0.008 A 
ATOM     17  C   UNL     1      88.744  80.498  83.993  1.00  0.00     0.160 A 
ATOM     18  C   UNL     1      91.148  80.689  84.157  1.00  0.00     0.050 A 
ATOM     19  C   UNL     1      89.894  81.287  84.024  1.00  0.00     0.157 A 
BRANCH  17  20
ATOM     20  O   UNL     1      87.515  81.071  83.864  1.00  0.00    -0.493 OA
ATOM     21  C   UNL     1      86.869  80.940  82.599  1.00  0.00     0.278 C 
ENDBRANCH  17  20
BRANCH  19  22
ATOM     22  O   UNL     1      89.806  82.643  83.927  1.00  0.00    -0.504 OA
ATOM     23  H   UNL     1      89.726  82.889  82.989  1.00  0.00     0.293 HD
ENDBRANCH  19  22
ENDBRANCH  13  14
ENDBRANCH  12  13
ENDBRANCH  10  12
ENDBRANCH   1  10
TORSDOF 12
ENDMDL
MODEL 4
REMARK VINA RESULT:    -5.696      8.977     12.363
REMARK INTER + INTRA:         -10.121
REMARK INTER:                  -8.729
REMARK INTRA:                  -1.393
REMARK UNBOUND:                -0.763
REMARK SMILES CCCCC[C@H](O)CC(=O)CCc1ccc(O)c(OC)c1
REMARK SMILES IDX 8 1 6 2 7 3 5 5 4 6 3 7 2 8 1 9 9 10 10 11 11 12 12 13 13 14
REMARK SMILES IDX 21 15 14 16 18 17 15 18 16 19 19 20 20 21 17 22
REMARK H PARENT 7 4 17 23
REMARK Flexibility Score: inf
ROOT
ATOM      1  C   UNL     1      91.256  94.524  91.842  1.00  0.00     0.107 C 
ENDROOT
BRANCH   1   2
ATOM      2  C   UNL     1      91.102  95.047  90.412  1.00  0.00     0.121 C 
BRANCH   2   3
ATOM      3  O   UNL     1      89.787  95.567  90.226  1.00  0.00    -0.393 OA
ATOM      4  H   UNL     1      89.416  95.157  89.425  1.00  0.00     0.210 HD
ENDBRANCH   2   3
BRANCH   2   5
ATOM      5  C   UNL     1      92.128  96.129  90.054  1.00  0.00     0.032 C 
BRANCH   5   6
ATOM      6  C   UNL     1      93.457  95.529  89.581  1.00  0.00     0.003 C 
BRANCH   6   7
ATOM      7  C   UNL     1      94.592  95.690  90.597  1.00  0.00    -0.000 C 
BRANCH   7   8
ATOM      8  C   UNL     1      95.191  94.364  91.063  1.00  0.00    -0.003 C 
ATOM      9  C   UNL     1      95.351  93.391  89.904  1.00  0.00     0.004 C 
ENDBRANCH   7   8
ENDBRANCH   6   7
ENDBRANCH   5   6
ENDBRANCH   2   5
ENDBRANCH   1   2
BRANCH   1  10
ATOM     10  C   UNL     1      91.736  93.083  91.901  1.00  0.00     0.135 C 
ATOM     11  O   UNL     1      92.007  92.550  92.977  1.00  0.00    -0.300 OA
BRANCH  10  12
ATOM     12  C   UNL     1      91.817  92.336  90.579  1.00  0.00     0.080 C 
BRANCH  12  13
ATOM     13  C   UNL     1      91.895  90.816  90.735  1.00  0.00     0.043 C 
BRANCH  13  14
ATOM     14  C   UNL     1      92.747  90.156  89.677  1.00  0.00    -0.044 A 
ATOM     15  C   UNL     1      92.998  88.785  89.739  1.00  0.00     0.054 A 
ATOM     16  C   UNL     1      93.283  90.917  88.638  1.00  0.00     0.008 A 
ATOM     17  C   UNL     1      93.784  88.176  88.761  1.00  0.00     0.160 A 
ATOM     18  C   UNL     1      94.069  90.308  87.660  1.00  0.00     0.050 A 
ATOM     19  C   UNL     1      94.320  88.938  87.722  1.00  0.00     0.157 A 
BRANCH  17  20
ATOM     20  O   UNL     1      94.023  86.837  88.832  1.00  0.00    -0.493 OA
ATOM     21  C   UNL     1      93.923  86.228  90.118  1.00  0.00     0.278 C 
ENDBRANCH  17  20
BRANCH  19  22
ATOM     22  O   UNL     1      95.090  88.354  86.762  1.00  0.00    -0.504 OA
ATOM     23  H   UNL     1      94.511  87.898  86.126  1.00  0.00     0.293 HD
ENDBRANCH  19  22
ENDBRANCH  13  14
ENDBRANCH  12  13
ENDBRANCH  10  12
ENDBRANCH   1  10
TORSDOF 12
ENDMDL
MODEL 5
REMARK VINA RESULT:    -5.637      1.244      2.498
REMARK INTER + INTRA:         -10.025
REMARK INTER:                  -9.295
REMARK INTRA:                  -0.730
REMARK UNBOUND:                -0.763
REMARK SMILES CCCCC[C@H](O)CC(=O)CCc1ccc(O)c(OC)c1
REMARK SMILES IDX 8 1 6 2 7 3 5 5 4 6 3 7 2 8 1 9 9 10 10 11 11 12 12 13 13 14
REMARK SMILES IDX 21 15 14 16 18 17 15 18 16 19 19 20 20 21 17 22
REMARK H PARENT 7 4 17 23
REMARK Flexibility Score: inf
ROOT
ATOM      1  C   UNL     1      90.967  80.567  83.652  1.00  0.00     0.107 C 
ENDROOT
BRANCH   1   2
ATOM      2  C   UNL     1      89.999  79.421  83.955  1.00  0.00     0.121 C 
BRANCH   2   3
ATOM      3  O   UNL     1      90.463  78.681  85.081  1.00  0.00    -0.393 OA
ATOM      4  H   UNL     1      90.544  77.749  84.812  1.00  0.00     0.210 HD
ENDBRANCH   2   3
BRANCH   2   5
ATOM      5  C   UNL     1      88.567  79.901  84.222  1.00  0.00     0.032 C 
BRANCH   5   6
ATOM      6  C   UNL     1      88.084  80.894  83.159  1.00  0.00     0.003 C 
BRANCH   6   7
ATOM      7  C   UNL     1      86.661  81.406  83.408  1.00  0.00    -0.000 C 
BRANCH   7   8
ATOM      8  C   UNL     1      86.549  82.929  83.406  1.00  0.00    -0.003 C 
ATOM      9  C   UNL     1      87.474  83.554  84.439  1.00  0.00     0.004 C 
ENDBRANCH   7   8
ENDBRANCH   6   7
ENDBRANCH   5   6
ENDBRANCH   2   5
ENDBRANCH   1   2
BRANCH   1  10
ATOM     10  C   UNL     1      91.336  81.377  84.884  1.00  0.00     0.135 C 
ATOM     11  O   UNL     1      90.526  82.144  85.404  1.00  0.00    -0.300 OA
BRANCH  10  12
ATOM     12  C   UNL     1      92.728  81.152  85.456  1.00  0.00     0.080 C 
BRANCH  12  13
ATOM     13  C   UNL     1      93.839  81.201  84.406  1.00  0.00     0.043 C 
BRANCH  13  14
ATOM     14  C   UNL     1      94.481  82.563  84.286  1.00  0.00    -0.044 A 
ATOM     15  C   UNL     1      94.222  83.544  85.244  1.00  0.00     0.054 A 
ATOM     16  C   UNL     1      95.334  82.840  83.217  1.00  0.00     0.008 A 
ATOM     17  C   UNL     1      94.816  84.801  85.133  1.00  0.00     0.160 A 
ATOM     18  C   UNL     1      95.928  84.098  83.106  1.00  0.00     0.050 A 
ATOM     19  C   UNL     1      95.668  85.078  84.064  1.00  0.00     0.157 A 
BRANCH  17  20
ATOM     20  O   UNL     1      94.554  85.751  86.074  1.00  0.00    -0.493 OA
ATOM     21  C   UNL     1      93.403  85.552  86.893  1.00  0.00     0.278 C 
ENDBRANCH  17  20
BRANCH  19  22
ATOM     22  O   UNL     1      96.254  86.302  83.945  1.00  0.00    -0.504 OA
ATOM     23  H   UNL     1      95.595  86.938  83.618  1.00  0.00     0.293 HD
ENDBRANCH  19  22
ENDBRANCH  13  14
ENDBRANCH  12  13
ENDBRANCH  10  12
ENDBRANCH   1  10
TORSDOF 12
ENDMDL
MODEL 6
REMARK VINA RESULT:    -5.589      1.404      2.562
REMARK INTER + INTRA:          -9.946
REMARK INTER:                  -8.961
REMARK INTRA:                  -0.985
REMARK UNBOUND:                -0.763
REMARK SMILES CCCCC[C@H](O)CC(=O)CCc1ccc(O)c(OC)c1
REMARK SMILES IDX 8 1 6 2 7 3 5 5 4 6 3 7 2 8 1 9 9 10 10 11 11 12 12 13 13 14
REMARK SMILES IDX 21 15 14 16 18 17 15 18 16 19 19 20 20 21 17 22
REMARK H PARENT 7 4 17 23
REMARK Flexibility Score: inf
ROOT
ATOM      1  C   UNL     1      92.639  80.947  84.190  1.00  0.00     0.107 C 
ENDROOT
BRANCH   1   2
ATOM      2  C   UNL     1      91.123  80.739  84.166  1.00  0.00     0.121 C 
BRANCH   2   3
ATOM      3  O   UNL     1      90.738  79.865  85.223  1.00  0.00    -0.393 OA
ATOM      4  H   UNL     1      90.247  79.122  84.831  1.00  0.00     0.210 HD
ENDBRANCH   2   3
BRANCH   2   5
ATOM      5  C   UNL     1      90.336  82.050  84.283  1.00  0.00     0.032 C 
BRANCH   5   6
ATOM      6  C   UNL     1      88.990  81.854  84.991  1.00  0.00     0.003 C 
BRANCH   6   7
ATOM      7  C   UNL     1      87.856  82.680  84.378  1.00  0.00    -0.000 C 
BRANCH   7   8
ATOM      8  C   UNL     1      86.923  81.869  83.481  1.00  0.00    -0.003 C 
ATOM      9  C   UNL     1      87.468  80.471  83.235  1.00  0.00     0.004 C 
ENDBRANCH   7   8
ENDBRANCH   6   7
ENDBRANCH   5   6
ENDBRANCH   2   5
ENDBRANCH   1   2
BRANCH   1  10
ATOM     10  C   UNL     1      93.336  80.126  85.263  1.00  0.00     0.135 C 
ATOM     11  O   UNL     1      93.262  78.897  85.267  1.00  0.00    -0.300 OA
BRANCH  10  12
ATOM     12  C   UNL     1      94.154  80.896  86.288  1.00  0.00     0.080 C 
BRANCH  12  13
ATOM     13  C   UNL     1      93.625  82.305  86.564  1.00  0.00     0.043 C 
BRANCH  13  14
ATOM     14  C   UNL     1      94.354  83.374  85.785  1.00  0.00    -0.044 A 
ATOM     15  C   UNL     1      93.873  84.683  85.780  1.00  0.00     0.054 A 
ATOM     16  C   UNL     1      95.509  83.051  85.072  1.00  0.00     0.008 A 
ATOM     17  C   UNL     1      94.548  85.670  85.061  1.00  0.00     0.160 A 
ATOM     18  C   UNL     1      96.184  84.038  84.353  1.00  0.00     0.050 A 
ATOM     19  C   UNL     1      95.703  85.348  84.348  1.00  0.00     0.157 A 
BRANCH  17  20
ATOM     20  O   UNL     1      94.069  86.946  85.062  1.00  0.00    -0.493 OA
ATOM     21  C   UNL     1      94.379  87.753  86.197  1.00  0.00     0.278 C 
ENDBRANCH  17  20
BRANCH  19  22
ATOM     22  O   UNL     1      96.371  86.303  83.642  1.00  0.00    -0.504 OA
ATOM     23  H   UNL     1      97.273  86.385  83.996  1.00  0.00     0.293 HD
ENDBRANCH  19  22
ENDBRANCH  13  14
ENDBRANCH  12  13
ENDBRANCH  10  12
ENDBRANCH   1  10
TORSDOF 12
ENDMDL
MODEL 7
REMARK VINA RESULT:    -5.479      7.851     10.988
REMARK INTER + INTRA:          -9.765
REMARK INTER:                  -8.831
REMARK INTRA:                  -0.934
REMARK UNBOUND:                -0.763
REMARK SMILES CCCCC[C@H](O)CC(=O)CCc1ccc(O)c(OC)c1
REMARK SMILES IDX 8 1 6 2 7 3 5 5 4 6 3 7 2 8 1 9 9 10 10 11 11 12 12 13 13 14
REMARK SMILES IDX 21 15 14 16 18 17 15 18 16 19 19 20 20 21 17 22
REMARK H PARENT 7 4 17 23
REMARK Flexibility Score: inf
ROOT
ATOM      1  C   UNL     1      97.536  82.253  78.363  1.00  0.00     0.107 C 
ENDROOT
BRANCH   1   2
ATOM      2  C   UNL     1      98.042  82.559  79.774  1.00  0.00     0.121 C 
BRANCH   2   3
ATOM      3  O   UNL     1      98.205  83.967  79.935  1.00  0.00    -0.393 OA
ATOM      4  H   UNL     1      97.324  84.376  79.881  1.00  0.00     0.210 HD
ENDBRANCH   2   3
BRANCH   2   5
ATOM      5  C   UNL     1      97.113  82.030  80.873  1.00  0.00     0.032 C 
BRANCH   5   6
ATOM      6  C   UNL     1      97.749  82.131  82.265  1.00  0.00     0.003 C 
BRANCH   6   7
ATOM      7  C   UNL     1      96.849  82.822  83.294  1.00  0.00    -0.000 C 
BRANCH   7   8
ATOM      8  C   UNL     1      95.998  83.947  82.707  1.00  0.00    -0.003 C 
ATOM      9  C   UNL     1      95.987  85.166  83.616  1.00  0.00     0.004 C 
ENDBRANCH   7   8
ENDBRANCH   6   7
ENDBRANCH   5   6
ENDBRANCH   2   5
ENDBRANCH   1   2
BRANCH   1  10
ATOM     10  C   UNL     1      96.810  83.425  77.723  1.00  0.00     0.135 C 
ATOM     11  O   UNL     1      95.858  83.963  78.287  1.00  0.00    -0.300 OA
BRANCH  10  12
ATOM     12  C   UNL     1      97.350  83.915  76.388  1.00  0.00     0.080 C 
BRANCH  12  13
ATOM     13  C   UNL     1      98.821  83.567  76.154  1.00  0.00     0.043 C 
BRANCH  13  14
ATOM     14  C   UNL     1      99.294  83.902  74.760  1.00  0.00    -0.044 A 
ATOM     15  C   UNL     1     100.196  83.061  74.108  1.00  0.00     0.054 A 
ATOM     16  C   UNL     1      98.828  85.053  74.123  1.00  0.00     0.008 A 
ATOM     17  C   UNL     1     100.632  83.371  72.819  1.00  0.00     0.160 A 
ATOM     18  C   UNL     1      99.264  85.363  72.835  1.00  0.00     0.050 A 
ATOM     19  C   UNL     1     100.166  84.522  72.183  1.00  0.00     0.157 A 
BRANCH  17  20
ATOM     20  O   UNL     1     101.513  82.542  72.193  1.00  0.00    -0.493 OA
ATOM     21  C   UNL     1     101.316  81.139  72.361  1.00  0.00     0.278 C 
ENDBRANCH  17  20
BRANCH  19  22
ATOM     22  O   UNL     1     100.584  84.834  70.925  1.00  0.00    -0.504 OA
ATOM     23  H   UNL     1     101.014  85.706  70.942  1.00  0.00     0.293 HD
ENDBRANCH  19  22
ENDBRANCH  13  14
ENDBRANCH  12  13
ENDBRANCH  10  12
ENDBRANCH   1  10
TORSDOF 12
ENDMDL
MODEL 8
REMARK VINA RESULT:    -5.368      5.762      8.233
REMARK INTER + INTRA:          -9.583
REMARK INTER:                  -8.691
REMARK INTRA:                  -0.892
REMARK UNBOUND:                -0.763
REMARK SMILES CCCCC[C@H](O)CC(=O)CCc1ccc(O)c(OC)c1
REMARK SMILES IDX 8 1 6 2 7 3 5 5 4 6 3 7 2 8 1 9 9 10 10 11 11 12 12 13 13 14
REMARK SMILES IDX 21 15 14 16 18 17 15 18 16 19 19 20 20 21 17 22
REMARK H PARENT 7 4 17 23
REMARK Flexibility Score: inf
ROOT
ATOM      1  C   UNL     1      99.018  81.854  80.388  1.00  0.00     0.107 C 
ENDROOT
BRANCH   1   2
ATOM      2  C   UNL     1      98.121  82.570  79.375  1.00  0.00     0.121 C 
BRANCH   2   3
ATOM      3  O   UNL     1      98.001  83.947  79.725  1.00  0.00    -0.393 OA
ATOM      4  H   UNL     1      97.295  84.333  79.176  1.00  0.00     0.210 HD
ENDBRANCH   2   3
BRANCH   2   5
ATOM      5  C   UNL     1      98.634  82.458  77.934  1.00  0.00     0.032 C 
BRANCH   5   6
ATOM      6  C   UNL     1      97.961  83.473  77.002  1.00  0.00     0.003 C 
BRANCH   6   7
ATOM      7  C   UNL     1      98.483  83.414  75.563  1.00  0.00    -0.000 C 
BRANCH   7   8
ATOM      8  C   UNL     1      97.740  84.342  74.604  1.00  0.00    -0.003 C 
ATOM      9  C   UNL     1      96.617  85.086  75.311  1.00  0.00     0.004 C 
ENDBRANCH   7   8
ENDBRANCH   6   7
ENDBRANCH   5   6
ENDBRANCH   2   5
ENDBRANCH   1   2
BRANCH   1  10
ATOM     10  C   UNL     1      98.507  80.473  80.765  1.00  0.00     0.135 C 
ATOM     11  O   UNL     1      99.256  79.496  80.752  1.00  0.00    -0.300 OA
BRANCH  10  12
ATOM     12  C   UNL     1      97.051  80.379  81.195  1.00  0.00     0.080 C 
BRANCH  12  13
ATOM     13  C   UNL     1      96.859  80.367  82.713  1.00  0.00     0.043 C 
BRANCH  13  14
ATOM     14  C   UNL     1      96.689  81.748  83.299  1.00  0.00    -0.044 A 
ATOM     15  C   UNL     1      97.017  81.985  84.634  1.00  0.00     0.054 A 
ATOM     16  C   UNL     1      96.203  82.787  82.505  1.00  0.00     0.008 A 
ATOM     17  C   UNL     1      96.860  83.262  85.174  1.00  0.00     0.160 A 
ATOM     18  C   UNL     1      96.046  84.064  83.045  1.00  0.00     0.050 A 
ATOM     19  C   UNL     1      96.374  84.301  84.379  1.00  0.00     0.157 A 
BRANCH  17  20
ATOM     20  O   UNL     1      97.184  83.481  86.479  1.00  0.00    -0.493 OA
ATOM     21  C   UNL     1      97.144  82.356  87.354  1.00  0.00     0.278 C 
ENDBRANCH  17  20
BRANCH  19  22
ATOM     22  O   UNL     1      96.217  85.551  84.896  1.00  0.00    -0.504 OA
ATOM     23  H   UNL     1      95.818  86.125  84.219  1.00  0.00     0.293 HD
ENDBRANCH  19  22
ENDBRANCH  13  14
ENDBRANCH  12  13
ENDBRANCH  10  12
ENDBRANCH   1  10
TORSDOF 12
ENDMDL
MODEL 9
REMARK VINA RESULT:    -5.343      4.425      8.416
REMARK INTER + INTRA:          -9.542
REMARK INTER:                  -8.281
REMARK INTRA:                  -1.260
REMARK UNBOUND:                -0.763
REMARK SMILES CCCCC[C@H](O)CC(=O)CCc1ccc(O)c(OC)c1
REMARK SMILES IDX 8 1 6 2 7 3 5 5 4 6 3 7 2 8 1 9 9 10 10 11 11 12 12 13 13 14
REMARK SMILES IDX 21 15 14 16 18 17 15 18 16 19 19 20 20 21 17 22
REMARK H PARENT 7 4 17 23
REMARK Flexibility Score: inf
ROOT
ATOM      1  C   UNL     1      99.721  79.631  78.828  1.00  0.00     0.107 C 
ENDROOT
BRANCH   1   2
ATOM      2  C   UNL     1      99.579  81.154  78.774  1.00  0.00     0.121 C 
BRANCH   2   3
ATOM      3  O   UNL     1     100.641  81.765  79.505  1.00  0.00    -0.393 OA
ATOM      4  H   UNL     1     101.230  81.058  79.820  1.00  0.00     0.210 HD
ENDBRANCH   2   3
BRANCH   2   5
ATOM      5  C   UNL     1      99.569  81.706  77.343  1.00  0.00     0.032 C 
BRANCH   5   6
ATOM      6  C   UNL     1      98.176  82.187  76.921  1.00  0.00     0.003 C 
BRANCH   6   7
ATOM      7  C   UNL     1      97.409  82.887  78.047  1.00  0.00    -0.000 C 
BRANCH   7   8
ATOM      8  C   UNL     1      96.407  83.928  77.550  1.00  0.00    -0.003 C 
ATOM      9  C   UNL     1      96.797  84.462  76.181  1.00  0.00     0.004 C 
ENDBRANCH   7   8
ENDBRANCH   6   7
ENDBRANCH   5   6
ENDBRANCH   2   5
ENDBRANCH   1   2
BRANCH   1  10
ATOM     10  C   UNL     1      98.759  78.978  79.806  1.00  0.00     0.135 C 
ATOM     11  O   UNL     1      99.026  77.896  80.331  1.00  0.00    -0.300 OA
BRANCH  10  12
ATOM     12  C   UNL     1      97.487  79.747  80.129  1.00  0.00     0.080 C 
BRANCH  12  13
ATOM     13  C   UNL     1      97.169  79.810  81.624  1.00  0.00     0.043 C 
BRANCH  13  14
ATOM     14  C   UNL     1      96.715  81.178  82.076  1.00  0.00    -0.044 A 
ATOM     15  C   UNL     1      95.913  81.308  83.210  1.00  0.00     0.054 A 
ATOM     16  C   UNL     1      97.099  82.311  81.359  1.00  0.00     0.008 A 
ATOM     17  C   UNL     1      95.496  82.572  83.627  1.00  0.00     0.160 A 
ATOM     18  C   UNL     1      96.681  83.575  81.776  1.00  0.00     0.050 A 
ATOM     19  C   UNL     1      95.880  83.705  82.910  1.00  0.00     0.157 A 
BRANCH  17  20
ATOM     20  O   UNL     1      94.713  82.686  84.736  1.00  0.00    -0.493 OA
ATOM     21  C   UNL     1      93.319  82.428  84.574  1.00  0.00     0.278 C 
ENDBRANCH  17  20
BRANCH  19  22
ATOM     22  O   UNL     1      95.478  84.945  83.307  1.00  0.00    -0.504 OA
ATOM     23  H   UNL     1      96.220  85.565  83.207  1.00  0.00     0.293 HD
ENDBRANCH  19  22
ENDBRANCH  13  14
ENDBRANCH  12  13
ENDBRANCH  10  12
ENDBRANCH   1  10
TORSDOF 12
ENDMDL
MODEL 10
REMARK VINA RESULT:    -5.328     22.554     24.767
REMARK INTER + INTRA:          -9.517
REMARK INTER:                  -8.586
REMARK INTRA:                  -0.930
REMARK UNBOUND:                -0.763
REMARK SMILES CCCCC[C@H](O)CC(=O)CCc1ccc(O)c(OC)c1
REMARK SMILES IDX 8 1 6 2 7 3 5 5 4 6 3 7 2 8 1 9 9 10 10 11 11 12 12 13 13 14
REMARK SMILES IDX 21 15 14 16 18 17 15 18 16 19 19 20 20 21 17 22
REMARK H PARENT 7 4 17 23
REMARK Flexibility Score: inf
ROOT
ATOM      1  C   UNL     1      76.848  87.132  66.978  1.00  0.00     0.107 C 
ENDROOT
BRANCH   1   2
ATOM      2  C   UNL     1      77.581  86.018  67.729  1.00  0.00     0.121 C 
BRANCH   2   3
ATOM      3  O   UNL     1      77.608  86.313  69.124  1.00  0.00    -0.393 OA
ATOM      4  H   UNL     1      77.919  85.517  69.590  1.00  0.00     0.210 HD
ENDBRANCH   2   3
BRANCH   2   5
ATOM      5  C   UNL     1      76.951  84.636  67.517  1.00  0.00     0.032 C 
BRANCH   5   6
ATOM      6  C   UNL     1      77.563  83.902  66.318  1.00  0.00     0.003 C 
BRANCH   6   7
ATOM      7  C   UNL     1      76.588  83.736  65.147  1.00  0.00    -0.000 C 
BRANCH   7   8
ATOM      8  C   UNL     1      75.153  84.136  65.484  1.00  0.00    -0.003 C 
ATOM      9  C   UNL     1      74.186  82.988  65.242  1.00  0.00     0.004 C 
ENDBRANCH   7   8
ENDBRANCH   6   7
ENDBRANCH   5   6
ENDBRANCH   2   5
ENDBRANCH   1   2
BRANCH   1  10
ATOM     10  C   UNL     1      76.901  88.471  67.697  1.00  0.00     0.135 C 
ATOM     11  O   UNL     1      77.956  89.097  67.791  1.00  0.00    -0.300 OA
BRANCH  10  12
ATOM     12  C   UNL     1      75.585  89.003  68.244  1.00  0.00     0.080 C 
BRANCH  12  13
ATOM     13  C   UNL     1      75.752  89.944  69.439  1.00  0.00     0.043 C 
BRANCH  13  14
ATOM     14  C   UNL     1      74.446  90.267  70.125  1.00  0.00    -0.044 A 
ATOM     15  C   UNL     1      73.298  89.535  69.821  1.00  0.00     0.054 A 
ATOM     16  C   UNL     1      74.388  91.297  71.064  1.00  0.00     0.008 A 
ATOM     17  C   UNL     1      72.093  89.833  70.456  1.00  0.00     0.160 A 
ATOM     18  C   UNL     1      73.182  91.596  71.699  1.00  0.00     0.050 A 
ATOM     19  C   UNL     1      72.035  90.863  71.395  1.00  0.00     0.157 A 
BRANCH  17  20
ATOM     20  O   UNL     1      70.978  89.111  70.150  1.00  0.00    -0.493 OA
ATOM     21  C   UNL     1      71.148  87.993  69.282  1.00  0.00     0.278 C 
ENDBRANCH  17  20
BRANCH  19  22
ATOM     22  O   UNL     1      70.863  91.164  72.022  1.00  0.00    -0.504 OA
ATOM     23  H   UNL     1      71.047  91.760  72.768  1.00  0.00     0.293 HD
ENDBRANCH  19  22
ENDBRANCH  13  14
ENDBRANCH  12  13
ENDBRANCH  10  12
ENDBRANCH   1  10
TORSDOF 12
ENDMDL
