MODEL 1
REMARK VINA RESULT:    -6.359      0.000      0.000
REMARK INTER + INTRA:         -11.096
REMARK INTER:                 -10.262
REMARK INTRA:                  -0.834
REMARK UNBOUND:                -0.834
REMARK SMILES COc1cc(CNC(=O)CCCCC/C=C/C(C)C)ccc1O
REMARK SMILES IDX 11 1 10 2 8 3 7 4 9 6 6 7 5 8 3 9 22 10 4 11 21 12 20 13
REMARK SMILES IDX 2 14 1 15 23 16 12 18 13 19 14 20 15 21 16 22 17 23 18 24
REMARK SMILES IDX 19 25
REMARK H PARENT 7 5 23 17
REMARK Flexibility Score: inf
ROOT
ATOM      1  C   UNL     1      92.585  98.040  75.415  1.00  0.00     0.010 C 
ENDROOT
BRANCH   1   2
ATOM      2  C   UNL     1      93.459  99.107  74.706  1.00  0.00     0.100 C 
BRANCH   2   3
ATOM      3  C   UNL     1      92.689 100.080  73.908  1.00  0.00     0.220 C 
ATOM      4  N   UNL     1      92.026  99.669  72.792  1.00  0.00    -0.352 N 
ATOM      5  H   UNL     1      92.177  98.700  72.545  1.00  0.00     0.163 HD
ATOM      6  O   UNL     1      92.633 101.267  74.309  1.00  0.00    -0.275 OA
BRANCH   4   7
ATOM      7  C   UNL     1      91.171 100.480  71.989  1.00  0.00     0.151 C 
BRANCH   7   8
ATOM      8  C   UNL     1      90.328  99.681  71.062  1.00  0.00    -0.025 A 
ATOM      9  C   UNL     1      88.949  99.517  69.033  1.00  0.00     0.160 A 
ATOM     10  C   UNL     1      88.678  98.163  69.327  1.00  0.00     0.157 A 
ATOM     11  C   UNL     1      89.763 100.267  69.906  1.00  0.00     0.056 A 
ATOM     12  C   UNL     1      89.248  97.565  70.465  1.00  0.00     0.050 A 
ATOM     13  C   UNL     1      90.076  98.315  71.321  1.00  0.00     0.009 A 
BRANCH   9  14
ATOM     14  O   UNL     1      88.471 100.085  67.881  1.00  0.00    -0.493 OA
ATOM     15  C   UNL     1      88.547 101.520  67.858  1.00  0.00     0.278 C 
ENDBRANCH   9  14
BRANCH  10  16
ATOM     16  O   UNL     1      87.877  97.415  68.528  1.00  0.00    -0.504 OA
ATOM     17  H   UNL     1      88.277  97.335  67.659  1.00  0.00     0.293 HD
ENDBRANCH  10  16
ENDBRANCH   7   8
ENDBRANCH   4   7
ENDBRANCH   2   3
ENDBRANCH   1   2
BRANCH   1  18
ATOM     18  C   UNL     1      93.452  96.871  75.948  1.00  0.00     0.001 C 
BRANCH  18  19
ATOM     19  C   UNL     1      94.974  97.161  75.922  1.00  0.00     0.004 C 
BRANCH  19  20
ATOM     20  C   UNL     1      95.540  97.348  77.357  1.00  0.00     0.027 C 
BRANCH  20  21
ATOM     21  C   UNL     1      94.822  96.595  78.371  1.00  0.00    -0.031 C 
ATOM     22  C   UNL     1      95.221  95.378  78.780  1.00  0.00    -0.028 C 
BRANCH  22  23
ATOM     23  C   UNL     1      94.524  94.598  79.800  1.00  0.00     0.005 C 
ATOM     24  C   UNL     1      93.096  94.233  79.316  1.00  0.00     0.012 C 
ATOM     25  C   UNL     1      95.357  93.344  80.179  1.00  0.00     0.012 C 
ENDBRANCH  22  23
ENDBRANCH  20  21
ENDBRANCH  19  20
ENDBRANCH  18  19
ENDBRANCH   1  18
TORSDOF 11
ENDMDL
MODEL 2
REMARK VINA RESULT:    -6.204     19.830     23.866
REMARK INTER + INTRA:         -10.846
REMARK INTER:                  -9.235
REMARK INTRA:                  -1.611
REMARK UNBOUND:                -0.834
REMARK SMILES COc1cc(CNC(=O)CCCCC/C=C/C(C)C)ccc1O
REMARK SMILES IDX 11 1 10 2 8 3 7 4 9 6 6 7 5 8 3 9 22 10 4 11 21 12 20 13
REMARK SMILES IDX 2 14 1 15 23 16 12 18 13 19 14 20 15 21 16 22 17 23 18 24
REMARK SMILES IDX 19 25
REMARK H PARENT 7 5 23 17
REMARK Flexibility Score: inf
ROOT
ATOM      1  C   UNL     1      75.786  81.087  63.488  1.00  0.00     0.010 C 
ENDROOT
BRANCH   1   2
ATOM      2  C   UNL     1      76.060  81.499  64.958  1.00  0.00     0.100 C 
BRANCH   2   3
ATOM      3  C   UNL     1      76.931  82.681  65.097  1.00  0.00     0.220 C 
ATOM      4  N   UNL     1      77.585  82.906  66.270  1.00  0.00    -0.352 N 
ATOM      5  H   UNL     1      77.357  82.258  67.011  1.00  0.00     0.163 HD
ATOM      6  O   UNL     1      77.079  83.432  64.105  1.00  0.00    -0.275 OA
BRANCH   4   7
ATOM      7  C   UNL     1      78.527  83.951  66.507  1.00  0.00     0.151 C 
BRANCH   7   8
ATOM      8  C   UNL     1      77.994  85.011  67.401  1.00  0.00    -0.025 A 
ATOM      9  C   UNL     1      76.795  87.135  67.716  1.00  0.00     0.160 A 
ATOM     10  C   UNL     1      77.026  87.058  69.107  1.00  0.00     0.157 A 
ATOM     11  C   UNL     1      77.288  86.118  66.874  1.00  0.00     0.056 A 
ATOM     12  C   UNL     1      77.712  85.954  69.644  1.00  0.00     0.050 A 
ATOM     13  C   UNL     1      78.184  84.932  68.798  1.00  0.00     0.009 A 
BRANCH   9  14
ATOM     14  O   UNL     1      76.052  88.161  67.193  1.00  0.00    -0.493 OA
ATOM     15  C   UNL     1      75.716  87.994  65.805  1.00  0.00     0.278 C 
ENDBRANCH   9  14
BRANCH  10  16
ATOM     16  O   UNL     1      76.593  88.031  69.948  1.00  0.00    -0.504 OA
ATOM     17  H   UNL     1      77.345  88.540  70.261  1.00  0.00     0.293 HD
ENDBRANCH  10  16
ENDBRANCH   7   8
ENDBRANCH   4   7
ENDBRANCH   2   3
ENDBRANCH   1   2
BRANCH   1  18
ATOM     18  C   UNL     1      74.300  81.315  63.110  1.00  0.00     0.001 C 
BRANCH  18  19
ATOM     19  C   UNL     1      73.384  80.106  63.427  1.00  0.00     0.004 C 
BRANCH  19  20
ATOM     20  C   UNL     1      72.413  80.422  64.599  1.00  0.00     0.027 C 
BRANCH  20  21
ATOM     21  C   UNL     1      72.343  81.833  64.935  1.00  0.00    -0.031 C 
ATOM     22  C   UNL     1      72.785  82.315  66.111  1.00  0.00    -0.028 C 
BRANCH  22  23
ATOM     23  C   UNL     1      72.733  83.728  66.477  1.00  0.00     0.005 C 
ATOM     24  C   UNL     1      74.101  84.185  67.050  1.00  0.00     0.012 C 
ATOM     25  C   UNL     1      72.289  84.583  65.259  1.00  0.00     0.012 C 
ENDBRANCH  22  23
ENDBRANCH  20  21
ENDBRANCH  19  20
ENDBRANCH  18  19
ENDBRANCH   1  18
TORSDOF 11
ENDMDL
MODEL 3
REMARK VINA RESULT:    -6.084     31.963     33.581
REMARK INTER + INTRA:         -10.652
REMARK INTER:                  -8.917
REMARK INTRA:                  -1.735
REMARK UNBOUND:                -0.834
REMARK SMILES COc1cc(CNC(=O)CCCCC/C=C/C(C)C)ccc1O
REMARK SMILES IDX 11 1 10 2 8 3 7 4 9 6 6 7 5 8 3 9 22 10 4 11 21 12 20 13
REMARK SMILES IDX 2 14 1 15 23 16 12 18 13 19 14 20 15 21 16 22 17 23 18 24
REMARK SMILES IDX 19 25
REMARK H PARENT 7 5 23 17
REMARK Flexibility Score: inf
ROOT
ATOM      1  C   UNL     1      63.987  82.882  75.168  1.00  0.00     0.010 C 
ENDROOT
BRANCH   1   2
ATOM      2  C   UNL     1      63.896  84.023  76.214  1.00  0.00     0.100 C 
BRANCH   2   3
ATOM      3  C   UNL     1      62.955  85.099  75.850  1.00  0.00     0.220 C 
ATOM      4  N   UNL     1      63.027  85.674  74.617  1.00  0.00    -0.352 N 
ATOM      5  H   UNL     1      63.800  85.355  74.048  1.00  0.00     0.163 HD
ATOM      6  O   UNL     1      62.077  85.430  76.681  1.00  0.00    -0.275 OA
BRANCH   4   7
ATOM      7  C   UNL     1      62.123  86.650  74.103  1.00  0.00     0.151 C 
BRANCH   7   8
ATOM      8  C   UNL     1      61.073  86.056  73.235  1.00  0.00    -0.025 A 
ATOM      9  C   UNL     1      59.191  86.321  71.674  1.00  0.00     0.160 A 
ATOM     10  C   UNL     1      59.038  84.918  71.623  1.00  0.00     0.157 A 
ATOM     11  C   UNL     1      60.200  86.879  72.485  1.00  0.00     0.056 A 
ATOM     12  C   UNL     1      59.911  84.090  72.352  1.00  0.00     0.050 A 
ATOM     13  C   UNL     1      60.928  84.654  73.144  1.00  0.00     0.009 A 
BRANCH   9  14
ATOM     14  O   UNL     1      58.404  87.132  70.901  1.00  0.00    -0.493 OA
ATOM     15  C   UNL     1      59.014  88.386  70.553  1.00  0.00     0.278 C 
ENDBRANCH   9  14
BRANCH  10  16
ATOM     16  O   UNL     1      58.061  84.342  70.878  1.00  0.00    -0.504 OA
ATOM     17  H   UNL     1      57.609  83.677  71.402  1.00  0.00     0.293 HD
ENDBRANCH  10  16
ENDBRANCH   7   8
ENDBRANCH   4   7
ENDBRANCH   2   3
ENDBRANCH   1   2
BRANCH   1  18
ATOM     18  C   UNL     1      62.587  82.295  74.859  1.00  0.00     0.001 C 
BRANCH  18  19
ATOM     19  C   UNL     1      62.565  81.349  73.631  1.00  0.00     0.004 C 
BRANCH  19  20
ATOM     20  C   UNL     1      63.986  81.172  73.027  1.00  0.00     0.027 C 
BRANCH  20  21
ATOM     21  C   UNL     1      64.113  81.680  71.672  1.00  0.00    -0.031 C 
ATOM     22  C   UNL     1      63.164  82.441  71.098  1.00  0.00    -0.028 C 
BRANCH  22  23
ATOM     23  C   UNL     1      63.263  82.972  69.741  1.00  0.00     0.005 C 
ATOM     24  C   UNL     1      63.573  81.829  68.738  1.00  0.00     0.012 C 
ATOM     25  C   UNL     1      61.969  83.747  69.372  1.00  0.00     0.012 C 
ENDBRANCH  22  23
ENDBRANCH  20  21
ENDBRANCH  19  20
ENDBRANCH  18  19
ENDBRANCH   1  18
TORSDOF 11
ENDMDL
MODEL 4
REMARK VINA RESULT:    -5.831      7.839     11.948
REMARK INTER + INTRA:         -10.243
REMARK INTER:                  -9.302
REMARK INTRA:                  -0.942
REMARK UNBOUND:                -0.834
REMARK SMILES COc1cc(CNC(=O)CCCCC/C=C/C(C)C)ccc1O
REMARK SMILES IDX 11 1 10 2 8 3 7 4 9 6 6 7 5 8 3 9 22 10 4 11 21 12 20 13
REMARK SMILES IDX 2 14 1 15 23 16 12 18 13 19 14 20 15 21 16 22 17 23 18 24
REMARK SMILES IDX 19 25
REMARK H PARENT 7 5 23 17
REMARK Flexibility Score: inf
ROOT
ATOM      1  C   UNL     1      95.669  94.813  79.291  1.00  0.00     0.010 C 
ENDROOT
BRANCH   1   2
ATOM      2  C   UNL     1      95.259  93.862  80.446  1.00  0.00     0.100 C 
BRANCH   2   3
ATOM      3  C   UNL     1      95.732  94.292  81.774  1.00  0.00     0.220 C 
ATOM      4  N   UNL     1      96.682  95.263  81.874  1.00  0.00    -0.352 N 
ATOM      5  H   UNL     1      97.058  95.578  80.990  1.00  0.00     0.163 HD
ATOM      6  O   UNL     1      95.210  93.773  82.789  1.00  0.00    -0.275 OA
BRANCH   4   7
ATOM      7  C   UNL     1      97.156  95.838  83.091  1.00  0.00     0.151 C 
BRANCH   7   8
ATOM      8  C   UNL     1      96.611  97.199  83.332  1.00  0.00    -0.025 A 
ATOM      9  C   UNL     1      96.311  99.152  84.796  1.00  0.00     0.160 A 
ATOM     10  C   UNL     1      95.522  99.774  83.803  1.00  0.00     0.157 A 
ATOM     11  C   UNL     1      96.841  97.868  84.556  1.00  0.00     0.056 A 
ATOM     12  C   UNL     1      95.301  99.125  82.575  1.00  0.00     0.050 A 
ATOM     13  C   UNL     1      95.850  97.852  82.336  1.00  0.00     0.009 A 
BRANCH   9  14
ATOM     14  O   UNL     1      96.606  99.811  85.960  1.00  0.00    -0.493 OA
ATOM     15  C   UNL     1      97.822  99.375  86.590  1.00  0.00     0.278 C 
ENDBRANCH   9  14
BRANCH  10  16
ATOM     16  O   UNL     1      94.971 100.997  84.005  1.00  0.00    -0.504 OA
ATOM     17  H   UNL     1      94.924 101.175  84.948  1.00  0.00     0.293 HD
ENDBRANCH  10  16
ENDBRANCH   7   8
ENDBRANCH   4   7
ENDBRANCH   2   3
ENDBRANCH   1   2
BRANCH   1  18
ATOM     18  C   UNL     1      94.553  94.906  78.220  1.00  0.00     0.001 C 
BRANCH  18  19
ATOM     19  C   UNL     1      93.967  96.331  78.053  1.00  0.00     0.004 C 
BRANCH  19  20
ATOM     20  C   UNL     1      92.921  96.383  76.904  1.00  0.00     0.027 C 
BRANCH  20  21
ATOM     21  C   UNL     1      92.131  95.170  76.778  1.00  0.00    -0.031 C 
ATOM     22  C   UNL     1      90.895  95.060  77.295  1.00  0.00    -0.028 C 
BRANCH  22  23
ATOM     23  C   UNL     1      90.074  93.857  77.181  1.00  0.00     0.005 C 
ATOM     24  C   UNL     1      90.747  92.836  76.226  1.00  0.00     0.012 C 
ATOM     25  C   UNL     1      89.800  93.258  78.587  1.00  0.00     0.012 C 
ENDBRANCH  22  23
ENDBRANCH  20  21
ENDBRANCH  19  20
ENDBRANCH  18  19
ENDBRANCH   1  18
TORSDOF 11
ENDMDL
MODEL 5
REMARK VINA RESULT:    -5.788      4.205      5.851
REMARK INTER + INTRA:         -10.175
REMARK INTER:                  -9.118
REMARK INTRA:                  -1.057
REMARK UNBOUND:                -0.834
REMARK SMILES COc1cc(CNC(=O)CCCCC/C=C/C(C)C)ccc1O
REMARK SMILES IDX 11 1 10 2 8 3 7 4 9 6 6 7 5 8 3 9 22 10 4 11 21 12 20 13
REMARK SMILES IDX 2 14 1 15 23 16 12 18 13 19 14 20 15 21 16 22 17 23 18 24
REMARK SMILES IDX 19 25
REMARK H PARENT 7 5 23 17
REMARK Flexibility Score: inf
ROOT
ATOM      1  C   UNL     1      94.451  96.283  75.788  1.00  0.00     0.010 C 
ENDROOT
BRANCH   1   2
ATOM      2  C   UNL     1      93.278  97.295  75.855  1.00  0.00     0.100 C 
BRANCH   2   3
ATOM      3  C   UNL     1      93.580  98.606  75.251  1.00  0.00     0.220 C 
ATOM      4  N   UNL     1      94.864  98.924  74.928  1.00  0.00    -0.352 N 
ATOM      5  H   UNL     1      95.551  98.236  75.205  1.00  0.00     0.163 HD
ATOM      6  O   UNL     1      92.627  99.385  75.011  1.00  0.00    -0.275 OA
BRANCH   4   7
ATOM      7  C   UNL     1      95.281 100.110  74.254  1.00  0.00     0.151 C 
BRANCH   7   8
ATOM      8  C   UNL     1      95.516  99.892  72.803  1.00  0.00    -0.025 A 
ATOM      9  C   UNL     1      97.034  99.370  70.940  1.00  0.00     0.160 A 
ATOM     10  C   UNL     1      95.968  99.529  70.028  1.00  0.00     0.157 A 
ATOM     11  C   UNL     1      96.802  99.561  72.318  1.00  0.00     0.056 A 
ATOM     12  C   UNL     1      94.680  99.841  70.502  1.00  0.00     0.050 A 
ATOM     13  C   UNL     1      94.453 100.011  71.880  1.00  0.00     0.009 A 
BRANCH   9  14
ATOM     14  O   UNL     1      98.271  98.980  70.499  1.00  0.00    -0.493 OA
ATOM     15  C   UNL     1      98.935  98.043  71.363  1.00  0.00     0.278 C 
ENDBRANCH   9  14
BRANCH  10  16
ATOM     16  O   UNL     1      96.155  99.382  68.693  1.00  0.00    -0.504 OA
ATOM     17  H   UNL     1      96.946  99.856  68.427  1.00  0.00     0.293 HD
ENDBRANCH  10  16
ENDBRANCH   7   8
ENDBRANCH   4   7
ENDBRANCH   2   3
ENDBRANCH   1   2
BRANCH   1  18
ATOM     18  C   UNL     1      94.342  95.223  76.913  1.00  0.00     0.001 C 
BRANCH  18  19
ATOM     19  C   UNL     1      93.689  95.759  78.213  1.00  0.00     0.004 C 
BRANCH  19  20
ATOM     20  C   UNL     1      93.158  94.600  79.101  1.00  0.00     0.027 C 
BRANCH  20  21
ATOM     21  C   UNL     1      91.813  94.170  78.759  1.00  0.00    -0.031 C 
ATOM     22  C   UNL     1      90.971  94.941  78.048  1.00  0.00    -0.028 C 
BRANCH  22  23
ATOM     23  C   UNL     1      89.616  94.536  77.684  1.00  0.00     0.005 C 
ATOM     24  C   UNL     1      89.495  94.385  76.144  1.00  0.00     0.012 C 
ATOM     25  C   UNL     1      89.223  93.236  78.436  1.00  0.00     0.012 C 
ENDBRANCH  22  23
ENDBRANCH  20  21
ENDBRANCH  19  20
ENDBRANCH  18  19
ENDBRANCH   1  18
TORSDOF 11
ENDMDL
MODEL 6
REMARK VINA RESULT:    -5.775     16.908     20.565
REMARK INTER + INTRA:         -10.153
REMARK INTER:                  -8.981
REMARK INTRA:                  -1.172
REMARK UNBOUND:                -0.834
REMARK SMILES COc1cc(CNC(=O)CCCCC/C=C/C(C)C)ccc1O
REMARK SMILES IDX 11 1 10 2 8 3 7 4 9 6 6 7 5 8 3 9 22 10 4 11 21 12 20 13
REMARK SMILES IDX 2 14 1 15 23 16 12 18 13 19 14 20 15 21 16 22 17 23 18 24
REMARK SMILES IDX 19 25
REMARK H PARENT 7 5 23 17
REMARK Flexibility Score: inf
ROOT
ATOM      1  C   UNL     1     101.574  80.825  81.301  1.00  0.00     0.010 C 
ENDROOT
BRANCH   1   2
ATOM      2  C   UNL     1     100.974  82.187  81.737  1.00  0.00     0.100 C 
BRANCH   2   3
ATOM      3  C   UNL     1      99.622  82.089  82.318  1.00  0.00     0.220 C 
ATOM      4  N   UNL     1      98.967  83.218  82.706  1.00  0.00    -0.352 N 
ATOM      5  H   UNL     1      99.509  84.067  82.630  1.00  0.00     0.163 HD
ATOM      6  O   UNL     1      99.090  80.956  82.401  1.00  0.00    -0.275 OA
BRANCH   4   7
ATOM      7  C   UNL     1      97.626  83.274  83.189  1.00  0.00     0.151 C 
BRANCH   7   8
ATOM      8  C   UNL     1      97.535  83.836  84.562  1.00  0.00    -0.025 A 
ATOM      9  C   UNL     1      98.344  83.948  86.882  1.00  0.00     0.160 A 
ATOM     10  C   UNL     1      97.324  84.872  87.193  1.00  0.00     0.157 A 
ATOM     11  C   UNL     1      98.437  83.430  85.574  1.00  0.00     0.056 A 
ATOM     12  C   UNL     1      96.432  85.296  86.190  1.00  0.00     0.050 A 
ATOM     13  C   UNL     1      96.543  84.789  84.882  1.00  0.00     0.009 A 
BRANCH   9  14
ATOM     14  O   UNL     1      99.271  83.596  87.827  1.00  0.00    -0.493 OA
ATOM     15  C   UNL     1     100.522  84.294  87.712  1.00  0.00     0.278 C 
ENDBRANCH   9  14
BRANCH  10  16
ATOM     16  O   UNL     1      97.182  85.372  88.446  1.00  0.00    -0.504 OA
ATOM     17  H   UNL     1      96.788  84.705  89.013  1.00  0.00     0.293 HD
ENDBRANCH  10  16
ENDBRANCH   7   8
ENDBRANCH   4   7
ENDBRANCH   2   3
ENDBRANCH   1   2
BRANCH   1  18
ATOM     18  C   UNL     1     101.514  80.655  79.762  1.00  0.00     0.001 C 
BRANCH  18  19
ATOM     19  C   UNL     1     102.328  81.721  78.985  1.00  0.00     0.004 C 
BRANCH  19  20
ATOM     20  C   UNL     1     101.489  82.348  77.836  1.00  0.00     0.027 C 
BRANCH  20  21
ATOM     21  C   UNL     1     100.150  82.742  78.238  1.00  0.00    -0.031 C 
ATOM     22  C   UNL     1      99.175  82.991  77.346  1.00  0.00    -0.028 C 
BRANCH  22  23
ATOM     23  C   UNL     1      97.818  83.383  77.718  1.00  0.00     0.005 C 
ATOM     24  C   UNL     1      97.651  83.347  79.260  1.00  0.00     0.012 C 
ATOM     25  C   UNL     1      97.479  84.776  77.120  1.00  0.00     0.012 C 
ENDBRANCH  22  23
ENDBRANCH  20  21
ENDBRANCH  19  20
ENDBRANCH  18  19
ENDBRANCH   1  18
TORSDOF 11
ENDMDL
MODEL 7
REMARK VINA RESULT:    -5.702     17.398     20.121
REMARK INTER + INTRA:         -10.036
REMARK INTER:                  -9.381
REMARK INTRA:                  -0.655
REMARK UNBOUND:                -0.834
REMARK SMILES COc1cc(CNC(=O)CCCCC/C=C/C(C)C)ccc1O
REMARK SMILES IDX 11 1 10 2 8 3 7 4 9 6 6 7 5 8 3 9 22 10 4 11 21 12 20 13
REMARK SMILES IDX 2 14 1 15 23 16 12 18 13 19 14 20 15 21 16 22 17 23 18 24
REMARK SMILES IDX 19 25
REMARK H PARENT 7 5 23 17
REMARK Flexibility Score: inf
ROOT
ATOM      1  C   UNL     1      96.610  82.868  85.812  1.00  0.00     0.010 C 
ENDROOT
BRANCH   1   2
ATOM      2  C   UNL     1      95.872  84.228  85.908  1.00  0.00     0.100 C 
BRANCH   2   3
ATOM      3  C   UNL     1      95.363  84.541  87.256  1.00  0.00     0.220 C 
ATOM      4  N   UNL     1      95.984  85.489  88.012  1.00  0.00    -0.352 N 
ATOM      5  H   UNL     1      96.825  85.870  87.602  1.00  0.00     0.163 HD
ATOM      6  O   UNL     1      94.335  83.947  87.657  1.00  0.00    -0.275 OA
BRANCH   4   7
ATOM      7  C   UNL     1      95.542  85.955  89.286  1.00  0.00     0.151 C 
BRANCH   7   8
ATOM      8  C   UNL     1      95.440  87.436  89.349  1.00  0.00    -0.025 A 
ATOM      9  C   UNL     1      94.468  89.470  90.332  1.00  0.00     0.160 A 
ATOM     10  C   UNL     1      95.211  90.261  89.428  1.00  0.00     0.157 A 
ATOM     11  C   UNL     1      94.581  88.066  90.280  1.00  0.00     0.056 A 
ATOM     12  C   UNL     1      96.082  89.646  88.510  1.00  0.00     0.050 A 
ATOM     13  C   UNL     1      96.204  88.244  88.478  1.00  0.00     0.009 A 
BRANCH   9  14
ATOM     14  O   UNL     1      93.685  90.062  91.287  1.00  0.00    -0.493 OA
ATOM     15  C   UNL     1      94.290  90.119  92.590  1.00  0.00     0.278 C 
ENDBRANCH   9  14
BRANCH  10  16
ATOM     16  O   UNL     1      95.110  91.613  89.426  1.00  0.00    -0.504 OA
ATOM     17  H   UNL     1      94.497  91.887  88.739  1.00  0.00     0.293 HD
ENDBRANCH  10  16
ENDBRANCH   7   8
ENDBRANCH   4   7
ENDBRANCH   2   3
ENDBRANCH   1   2
BRANCH   1  18
ATOM     18  C   UNL     1      97.997  83.031  85.138  1.00  0.00     0.001 C 
BRANCH  18  19
ATOM     19  C   UNL     1      97.939  83.050  83.590  1.00  0.00     0.004 C 
BRANCH  19  20
ATOM     20  C   UNL     1      98.924  82.017  82.973  1.00  0.00     0.027 C 
BRANCH  20  21
ATOM     21  C   UNL     1      98.936  82.016  81.521  1.00  0.00    -0.031 C 
ATOM     22  C   UNL     1      98.664  83.118  80.799  1.00  0.00    -0.028 C 
BRANCH  22  23
ATOM     23  C   UNL     1      98.672  83.151  79.338  1.00  0.00     0.005 C 
ATOM     24  C   UNL     1      99.032  81.752  78.771  1.00  0.00     0.012 C 
ATOM     25  C   UNL     1      97.310  83.672  78.805  1.00  0.00     0.012 C 
ENDBRANCH  22  23
ENDBRANCH  20  21
ENDBRANCH  19  20
ENDBRANCH  18  19
ENDBRANCH   1  18
TORSDOF 11
ENDMDL
MODEL 8
REMARK VINA RESULT:    -5.680     17.590     20.223
REMARK INTER + INTRA:         -10.000
REMARK INTER:                  -9.149
REMARK INTRA:                  -0.851
REMARK UNBOUND:                -0.834
REMARK SMILES COc1cc(CNC(=O)CCCCC/C=C/C(C)C)ccc1O
REMARK SMILES IDX 11 1 10 2 8 3 7 4 9 6 6 7 5 8 3 9 22 10 4 11 21 12 20 13
REMARK SMILES IDX 2 14 1 15 23 16 12 18 13 19 14 20 15 21 16 22 17 23 18 24
REMARK SMILES IDX 19 25
REMARK H PARENT 7 5 23 17
REMARK Flexibility Score: inf
ROOT
ATOM      1  C   UNL     1      99.561  81.402  82.460  1.00  0.00     0.010 C 
ENDROOT
BRANCH   1   2
ATOM      2  C   UNL     1      98.381  81.510  83.460  1.00  0.00     0.100 C 
BRANCH   2   3
ATOM      3  C   UNL     1      98.434  82.702  84.326  1.00  0.00     0.220 C 
ATOM      4  N   UNL     1      97.530  83.706  84.154  1.00  0.00    -0.352 N 
ATOM      5  H   UNL     1      96.909  83.583  83.365  1.00  0.00     0.163 HD
ATOM      6  O   UNL     1      99.298  82.741  85.234  1.00  0.00    -0.275 OA
BRANCH   4   7
ATOM      7  C   UNL     1      97.409  84.863  84.979  1.00  0.00     0.151 C 
BRANCH   7   8
ATOM      8  C   UNL     1      96.281  84.764  85.941  1.00  0.00    -0.025 A 
ATOM      9  C   UNL     1      94.546  83.435  87.069  1.00  0.00     0.160 A 
ATOM     10  C   UNL     1      94.095  84.594  87.738  1.00  0.00     0.157 A 
ATOM     11  C   UNL     1      95.628  83.531  86.170  1.00  0.00     0.056 A 
ATOM     12  C   UNL     1      94.748  85.823  87.531  1.00  0.00     0.050 A 
ATOM     13  C   UNL     1      95.839  85.906  86.647  1.00  0.00     0.009 A 
BRANCH   9  14
ATOM     14  O   UNL     1      93.974  82.218  87.330  1.00  0.00    -0.493 OA
ATOM     15  C   UNL     1      94.686  81.430  88.299  1.00  0.00     0.278 C 
ENDBRANCH   9  14
BRANCH  10  16
ATOM     16  O   UNL     1      93.039  84.551  88.590  1.00  0.00    -0.504 OA
ATOM     17  H   UNL     1      93.229  83.935  89.302  1.00  0.00     0.293 HD
ENDBRANCH  10  16
ENDBRANCH   7   8
ENDBRANCH   4   7
ENDBRANCH   2   3
ENDBRANCH   1   2
BRANCH   1  18
ATOM     18  C   UNL     1      99.089  81.663  81.007  1.00  0.00     0.001 C 
BRANCH  18  19
ATOM     19  C   UNL     1      98.901  83.164  80.672  1.00  0.00     0.004 C 
BRANCH  19  20
ATOM     20  C   UNL     1      97.487  83.442  80.089  1.00  0.00     0.027 C 
BRANCH  20  21
ATOM     21  C   UNL     1      97.423  83.345  78.641  1.00  0.00    -0.031 C 
ATOM     22  C   UNL     1      98.477  83.628  77.854  1.00  0.00    -0.028 C 
BRANCH  22  23
ATOM     23  C   UNL     1      98.446  83.536  76.397  1.00  0.00     0.005 C 
ATOM     24  C   UNL     1      99.589  84.385  75.780  1.00  0.00     0.012 C 
ATOM     25  C   UNL     1      98.510  82.049  75.952  1.00  0.00     0.012 C 
ENDBRANCH  22  23
ENDBRANCH  20  21
ENDBRANCH  19  20
ENDBRANCH  18  19
ENDBRANCH   1  18
TORSDOF 11
ENDMDL
MODEL 9
REMARK VINA RESULT:    -5.677     29.862     31.722
REMARK INTER + INTRA:          -9.996
REMARK INTER:                  -7.404
REMARK INTRA:                  -2.592
REMARK UNBOUND:                -0.834
REMARK SMILES COc1cc(CNC(=O)CCCCC/C=C/C(C)C)ccc1O
REMARK SMILES IDX 11 1 10 2 8 3 7 4 9 6 6 7 5 8 3 9 22 10 4 11 21 12 20 13
REMARK SMILES IDX 2 14 1 15 23 16 12 18 13 19 14 20 15 21 16 22 17 23 18 24
REMARK SMILES IDX 19 25
REMARK H PARENT 7 5 23 17
REMARK Flexibility Score: inf
ROOT
ATOM      1  C   UNL     1      64.087  82.804  75.743  1.00  0.00     0.010 C 
ENDROOT
BRANCH   1   2
ATOM      2  C   UNL     1      64.717  84.128  76.247  1.00  0.00     0.100 C 
BRANCH   2   3
ATOM      3  C   UNL     1      65.079  85.068  75.170  1.00  0.00     0.220 C 
ATOM      4  N   UNL     1      65.166  84.626  73.884  1.00  0.00    -0.352 N 
ATOM      5  H   UNL     1      65.039  83.629  73.772  1.00  0.00     0.163 HD
ATOM      6  O   UNL     1      65.261  86.272  75.466  1.00  0.00    -0.275 OA
BRANCH   4   7
ATOM      7  C   UNL     1      65.410  85.443  72.741  1.00  0.00     0.151 C 
BRANCH   7   8
ATOM      8  C   UNL     1      64.242  85.509  71.824  1.00  0.00    -0.025 A 
ATOM      9  C   UNL     1      63.275  86.066  69.633  1.00  0.00     0.160 A 
ATOM     10  C   UNL     1      61.999  85.683  70.099  1.00  0.00     0.157 A 
ATOM     11  C   UNL     1      64.384  85.985  70.500  1.00  0.00     0.056 A 
ATOM     12  C   UNL     1      61.849  85.192  71.409  1.00  0.00     0.050 A 
ATOM     13  C   UNL     1      62.964  85.096  72.263  1.00  0.00     0.009 A 
BRANCH   9  14
ATOM     14  O   UNL     1      63.447  86.462  68.333  1.00  0.00    -0.493 OA
ATOM     15  C   UNL     1      64.012  85.451  67.481  1.00  0.00     0.278 C 
ENDBRANCH   9  14
BRANCH  10  16
ATOM     16  O   UNL     1      60.902  85.772  69.306  1.00  0.00    -0.504 OA
ATOM     17  H   UNL     1      61.176  85.915  68.397  1.00  0.00     0.293 HD
ENDBRANCH  10  16
ENDBRANCH   7   8
ENDBRANCH   4   7
ENDBRANCH   2   3
ENDBRANCH   1   2
BRANCH   1  18
ATOM     18  C   UNL     1      62.593  82.999  75.377  1.00  0.00     0.001 C 
BRANCH  18  19
ATOM     19  C   UNL     1      62.099  82.054  74.252  1.00  0.00     0.004 C 
BRANCH  19  20
ATOM     20  C   UNL     1      63.275  81.256  73.624  1.00  0.00     0.027 C 
BRANCH  20  21
ATOM     21  C   UNL     1      63.552  81.612  72.243  1.00  0.00    -0.031 C 
ATOM     22  C   UNL     1      64.770  81.462  71.692  1.00  0.00    -0.028 C 
BRANCH  22  23
ATOM     23  C   UNL     1      65.079  81.805  70.307  1.00  0.00     0.005 C 
ATOM     24  C   UNL     1      63.809  82.332  69.587  1.00  0.00     0.012 C 
ATOM     25  C   UNL     1      66.252  82.822  70.255  1.00  0.00     0.012 C 
ENDBRANCH  22  23
ENDBRANCH  20  21
ENDBRANCH  19  20
ENDBRANCH  18  19
ENDBRANCH   1  18
TORSDOF 11
ENDMDL
MODEL 10
REMARK VINA RESULT:    -5.624     27.624     30.763
REMARK INTER + INTRA:          -9.909
REMARK INTER:                  -8.884
REMARK INTRA:                  -1.025
REMARK UNBOUND:                -0.834
REMARK SMILES COc1cc(CNC(=O)CCCCC/C=C/C(C)C)ccc1O
REMARK SMILES IDX 11 1 10 2 8 3 7 4 9 6 6 7 5 8 3 9 22 10 4 11 21 12 20 13
REMARK SMILES IDX 2 14 1 15 23 16 12 18 13 19 14 20 15 21 16 22 17 23 18 24
REMARK SMILES IDX 19 25
REMARK H PARENT 7 5 23 17
REMARK Flexibility Score: inf
ROOT
ATOM      1  C   UNL     1      67.514  84.497  71.478  1.00  0.00     0.010 C 
ENDROOT
BRANCH   1   2
ATOM      2  C   UNL     1      67.314  83.659  70.190  1.00  0.00     0.100 C 
BRANCH   2   3
ATOM      3  C   UNL     1      65.941  83.152  70.010  1.00  0.00     0.220 C 
ATOM      4  N   UNL     1      65.459  82.190  70.845  1.00  0.00    -0.352 N 
ATOM      5  H   UNL     1      66.132  81.831  71.507  1.00  0.00     0.163 HD
ATOM      6  O   UNL     1      65.233  83.657  69.106  1.00  0.00    -0.275 OA
BRANCH   4   7
ATOM      7  C   UNL     1      64.125  81.684  70.844  1.00  0.00     0.151 C 
BRANCH   7   8
ATOM      8  C   UNL     1      63.375  82.043  72.075  1.00  0.00    -0.025 A 
ATOM      9  C   UNL     1      61.778  83.492  73.257  1.00  0.00     0.160 A 
ATOM     10  C   UNL     1      61.989  82.757  74.443  1.00  0.00     0.157 A 
ATOM     11  C   UNL     1      62.478  83.137  72.086  1.00  0.00     0.056 A 
ATOM     12  C   UNL     1      62.866  81.657  74.440  1.00  0.00     0.050 A 
ATOM     13  C   UNL     1      63.547  81.296  73.262  1.00  0.00     0.009 A 
BRANCH   9  14
ATOM     14  O   UNL     1      60.860  84.509  73.227  1.00  0.00    -0.493 OA
ATOM     15  C   UNL     1      61.238  85.617  72.392  1.00  0.00     0.278 C 
ENDBRANCH   9  14
BRANCH  10  16
ATOM     16  O   UNL     1      61.357  83.084  75.598  1.00  0.00    -0.504 OA
ATOM     17  H   UNL     1      61.639  83.958  75.880  1.00  0.00     0.293 HD
ENDBRANCH  10  16
ENDBRANCH   7   8
ENDBRANCH   4   7
ENDBRANCH   2   3
ENDBRANCH   1   2
BRANCH   1  18
ATOM     18  C   UNL     1      69.014  84.588  71.860  1.00  0.00     0.001 C 
BRANCH  18  19
ATOM     19  C   UNL     1      69.935  83.703  70.982  1.00  0.00     0.004 C 
BRANCH  19  20
ATOM     20  C   UNL     1      70.856  84.568  70.076  1.00  0.00     0.027 C 
BRANCH  20  21
ATOM     21  C   UNL     1      70.982  84.062  68.720  1.00  0.00    -0.031 C 
ATOM     22  C   UNL     1      70.266  83.015  68.273  1.00  0.00    -0.028 C 
BRANCH  22  23
ATOM     23  C   UNL     1      70.366  82.487  66.915  1.00  0.00     0.005 C 
ATOM     24  C   UNL     1      69.345  83.196  65.986  1.00  0.00     0.012 C 
ATOM     25  C   UNL     1      71.823  82.613  66.396  1.00  0.00     0.012 C 
ENDBRANCH  22  23
ENDBRANCH  20  21
ENDBRANCH  19  20
ENDBRANCH  18  19
ENDBRANCH   1  18
TORSDOF 11
ENDMDL
