MODEL 1
REMARK VINA RESULT:    -6.397      0.000      0.000
REMARK INTER + INTRA:         -11.254
REMARK INTER:                 -10.324
REMARK INTRA:                  -0.930
REMARK UNBOUND:                -0.930
REMARK SMILES COc1cc(CNC(=O)CCCCC/C=C/C(C)C)ccc1O
REMARK SMILES IDX 11 1 10 2 8 3 7 4 9 6 6 7 5 8 3 9 22 10 4 11 21 12 20 13
REMARK SMILES IDX 2 14 1 15 23 16 12 18 13 19 14 20 15 21 16 22 17 23 18 24
REMARK SMILES IDX 19 25
REMARK H PARENT 7 5 23 17
REMARK Flexibility Score: inf
ROOT
ATOM      1  C   UNL     1      94.267  98.957  75.801  1.00  0.00     0.010 C 
ENDROOT
BRANCH   1   2
ATOM      2  C   UNL     1      92.913  98.685  75.095  1.00  0.00     0.100 C 
BRANCH   2   3
ATOM      3  C   UNL     1      92.498  99.749  74.162  1.00  0.00     0.220 C 
ATOM      4  N   UNL     1      91.977  99.421  72.948  1.00  0.00    -0.352 N 
ATOM      5  H   UNL     1      91.980  98.432  72.741  1.00  0.00     0.163 HD
ATOM      6  O   UNL     1      92.602 100.942  74.535  1.00  0.00    -0.275 OA
BRANCH   4   7
ATOM      7  C   UNL     1      91.449 100.343  71.995  1.00  0.00     0.151 C 
BRANCH   7   8
ATOM      8  C   UNL     1      90.504  99.704  71.044  1.00  0.00    -0.025 A 
ATOM      9  C   UNL     1      89.144  99.797  68.996  1.00  0.00     0.160 A 
ATOM     10  C   UNL     1      88.659  98.498  69.261  1.00  0.00     0.157 A 
ATOM     11  C   UNL     1      90.055 100.393  69.893  1.00  0.00     0.056 A 
ATOM     12  C   UNL     1      89.111  97.797  70.393  1.00  0.00     0.050 A 
ATOM     13  C   UNL     1      90.036  98.391  71.273  1.00  0.00     0.009 A 
BRANCH   9  14
ATOM     14  O   UNL     1      88.777 100.454  67.852  1.00  0.00    -0.493 OA
ATOM     15  C   UNL     1      89.871 101.072  67.153  1.00  0.00     0.278 C 
ENDBRANCH   9  14
BRANCH  10  16
ATOM     16  O   UNL     1      87.760  97.900  68.439  1.00  0.00    -0.504 OA
ATOM     17  H   UNL     1      88.185  97.683  67.605  1.00  0.00     0.293 HD
ENDBRANCH  10  16
ENDBRANCH   7   8
ENDBRANCH   4   7
ENDBRANCH   2   3
ENDBRANCH   1   2
BRANCH   1  18
ATOM     18  C   UNL     1      95.367  97.990  75.294  1.00  0.00     0.001 C 
BRANCH  18  19
ATOM     19  C   UNL     1      94.930  96.503  75.275  1.00  0.00     0.004 C 
BRANCH  19  20
ATOM     20  C   UNL     1      94.655  95.975  76.711  1.00  0.00     0.027 C 
BRANCH  20  21
ATOM     21  C   UNL     1      93.444  95.179  76.819  1.00  0.00    -0.031 C 
ATOM     22  C   UNL     1      92.524  95.398  77.775  1.00  0.00    -0.028 C 
BRANCH  22  23
ATOM     23  C   UNL     1      91.295  94.620  77.908  1.00  0.00     0.005 C 
ATOM     24  C   UNL     1      90.069  95.478  77.499  1.00  0.00     0.012 C 
ATOM     25  C   UNL     1      91.398  93.308  77.084  1.00  0.00     0.012 C 
ENDBRANCH  22  23
ENDBRANCH  20  21
ENDBRANCH  19  20
ENDBRANCH  18  19
ENDBRANCH   1  18
TORSDOF 11
ENDMDL
MODEL 2
REMARK VINA RESULT:    -5.956      3.585      8.614
REMARK INTER + INTRA:         -10.542
REMARK INTER:                  -9.810
REMARK INTRA:                  -0.732
REMARK UNBOUND:                -0.930
REMARK SMILES COc1cc(CNC(=O)CCCCC/C=C/C(C)C)ccc1O
REMARK SMILES IDX 11 1 10 2 8 3 7 4 9 6 6 7 5 8 3 9 22 10 4 11 21 12 20 13
REMARK SMILES IDX 2 14 1 15 23 16 12 18 13 19 14 20 15 21 16 22 17 23 18 24
REMARK SMILES IDX 19 25
REMARK H PARENT 7 5 23 17
REMARK Flexibility Score: inf
ROOT
ATOM      1  C   UNL     1      93.717 100.468  75.497  1.00  0.00     0.010 C 
ENDROOT
BRANCH   1   2
ATOM      2  C   UNL     1      95.097  99.794  75.714  1.00  0.00     0.100 C 
BRANCH   2   3
ATOM      3  C   UNL     1      95.082  98.329  75.545  1.00  0.00     0.220 C 
ATOM      4  N   UNL     1      93.972  97.619  75.887  1.00  0.00    -0.352 N 
ATOM      5  H   UNL     1      93.237  98.165  76.316  1.00  0.00     0.163 HD
ATOM      6  O   UNL     1      96.092  97.777  75.047  1.00  0.00    -0.275 OA
BRANCH   4   7
ATOM      7  C   UNL     1      93.789  96.218  75.686  1.00  0.00     0.151 C 
BRANCH   7   8
ATOM      8  C   UNL     1      93.673  95.467  76.963  1.00  0.00    -0.025 A 
ATOM      9  C   UNL     1      92.297  94.335  78.658  1.00  0.00     0.160 A 
ATOM     10  C   UNL     1      93.454  94.082  79.427  1.00  0.00     0.157 A 
ATOM     11  C   UNL     1      92.414  95.033  77.439  1.00  0.00     0.056 A 
ATOM     12  C   UNL     1      94.714  94.494  78.956  1.00  0.00     0.050 A 
ATOM     13  C   UNL     1      94.824  95.173  77.728  1.00  0.00     0.009 A 
BRANCH   9  14
ATOM     14  O   UNL     1      91.078  93.862  79.065  1.00  0.00    -0.493 OA
ATOM     15  C   UNL     1      90.211  93.469  77.988  1.00  0.00     0.278 C 
ENDBRANCH   9  14
BRANCH  10  16
ATOM     16  O   UNL     1      93.381  93.439  80.620  1.00  0.00    -0.504 OA
ATOM     17  H   UNL     1      94.244  93.083  80.844  1.00  0.00     0.293 HD
ENDBRANCH  10  16
ENDBRANCH   7   8
ENDBRANCH   4   7
ENDBRANCH   2   3
ENDBRANCH   1   2
BRANCH   1  18
ATOM     18  C   UNL     1      93.453 100.728  73.992  1.00  0.00     0.001 C 
BRANCH  18  19
ATOM     19  C   UNL     1      92.556  99.657  73.323  1.00  0.00     0.004 C 
BRANCH  19  20
ATOM     20  C   UNL     1      91.437 100.310  72.463  1.00  0.00     0.027 C 
BRANCH  20  21
ATOM     21  C   UNL     1      90.784  99.384  71.553  1.00  0.00    -0.031 C 
ATOM     22  C   UNL     1      89.499  99.528  71.182  1.00  0.00    -0.028 C 
BRANCH  22  23
ATOM     23  C   UNL     1      88.815  98.619  70.266  1.00  0.00     0.005 C 
ATOM     24  C   UNL     1      88.703  99.259  68.856  1.00  0.00     0.012 C 
ATOM     25  C   UNL     1      89.538  97.245  70.234  1.00  0.00     0.012 C 
ENDBRANCH  22  23
ENDBRANCH  20  21
ENDBRANCH  19  20
ENDBRANCH  18  19
ENDBRANCH   1  18
TORSDOF 11
ENDMDL
MODEL 3
REMARK VINA RESULT:    -5.725     17.090     20.165
REMARK INTER + INTRA:         -10.170
REMARK INTER:                  -9.451
REMARK INTRA:                  -0.718
REMARK UNBOUND:                -0.930
REMARK SMILES COc1cc(CNC(=O)CCCCC/C=C/C(C)C)ccc1O
REMARK SMILES IDX 11 1 10 2 8 3 7 4 9 6 6 7 5 8 3 9 22 10 4 11 21 12 20 13
REMARK SMILES IDX 2 14 1 15 23 16 12 18 13 19 14 20 15 21 16 22 17 23 18 24
REMARK SMILES IDX 19 25
REMARK H PARENT 7 5 23 17
REMARK Flexibility Score: inf
ROOT
ATOM      1  C   UNL     1      97.665  83.276  79.531  1.00  0.00     0.010 C 
ENDROOT
BRANCH   1   2
ATOM      2  C   UNL     1      99.181  83.185  79.843  1.00  0.00     0.100 C 
BRANCH   2   3
ATOM      3  C   UNL     1      99.492  82.514  81.119  1.00  0.00     0.220 C 
ATOM      4  N   UNL     1      98.486  82.194  81.979  1.00  0.00    -0.352 N 
ATOM      5  H   UNL     1      97.572  82.519  81.698  1.00  0.00     0.163 HD
ATOM      6  O   UNL     1     100.686  82.218  81.360  1.00  0.00    -0.275 OA
BRANCH   4   7
ATOM      7  C   UNL     1      98.636  81.463  83.195  1.00  0.00     0.151 C 
BRANCH   7   8
ATOM      8  C   UNL     1      98.667  82.343  84.392  1.00  0.00    -0.025 A 
ATOM      9  C   UNL     1      97.991  84.409  85.542  1.00  0.00     0.160 A 
ATOM     10  C   UNL     1      98.773  84.042  86.659  1.00  0.00     0.157 A 
ATOM     11  C   UNL     1      97.951  83.562  84.416  1.00  0.00     0.056 A 
ATOM     12  C   UNL     1      99.476  82.824  86.653  1.00  0.00     0.050 A 
ATOM     13  C   UNL     1      99.415  81.975  85.532  1.00  0.00     0.009 A 
BRANCH   9  14
ATOM     14  O   UNL     1      97.234  85.550  85.572  1.00  0.00    -0.493 OA
ATOM     15  C   UNL     1      95.910  85.363  86.100  1.00  0.00     0.278 C 
ENDBRANCH   9  14
BRANCH  10  16
ATOM     16  O   UNL     1      98.862  84.842  87.751  1.00  0.00    -0.504 OA
ATOM     17  H   UNL     1      98.431  85.681  87.568  1.00  0.00     0.293 HD
ENDBRANCH  10  16
ENDBRANCH   7   8
ENDBRANCH   4   7
ENDBRANCH   2   3
ENDBRANCH   1   2
BRANCH   1  18
ATOM     18  C   UNL     1      97.420  83.801  78.093  1.00  0.00     0.001 C 
BRANCH  18  19
ATOM     19  C   UNL     1      98.498  83.352  77.074  1.00  0.00     0.004 C 
BRANCH  19  20
ATOM     20  C   UNL     1      98.907  84.518  76.131  1.00  0.00     0.027 C 
BRANCH  20  21
ATOM     21  C   UNL     1     100.140  84.275  75.402  1.00  0.00    -0.031 C 
ATOM     22  C   UNL     1     100.857  85.270  74.851  1.00  0.00    -0.028 C 
BRANCH  22  23
ATOM     23  C   UNL     1     102.103  85.059  74.117  1.00  0.00     0.005 C 
ATOM     24  C   UNL     1     102.083  85.854  72.784  1.00  0.00     0.012 C 
ATOM     25  C   UNL     1     103.320  85.430  75.007  1.00  0.00     0.012 C 
ENDBRANCH  22  23
ENDBRANCH  20  21
ENDBRANCH  19  20
ENDBRANCH  18  19
ENDBRANCH   1  18
TORSDOF 11
ENDMDL
MODEL 4
REMARK VINA RESULT:    -5.672     17.019     20.699
REMARK INTER + INTRA:         -10.084
REMARK INTER:                  -8.949
REMARK INTRA:                  -1.136
REMARK UNBOUND:                -0.930
REMARK SMILES COc1cc(CNC(=O)CCCCC/C=C/C(C)C)ccc1O
REMARK SMILES IDX 11 1 10 2 8 3 7 4 9 6 6 7 5 8 3 9 22 10 4 11 21 12 20 13
REMARK SMILES IDX 2 14 1 15 23 16 12 18 13 19 14 20 15 21 16 22 17 23 18 24
REMARK SMILES IDX 19 25
REMARK H PARENT 7 5 23 17
REMARK Flexibility Score: inf
ROOT
ATOM      1  C   UNL     1      98.361  83.207  79.913  1.00  0.00     0.010 C 
ENDROOT
BRANCH   1   2
ATOM      2  C   UNL     1      99.268  81.949  79.906  1.00  0.00     0.100 C 
BRANCH   2   3
ATOM      3  C   UNL     1      99.259  81.197  81.174  1.00  0.00     0.220 C 
ATOM      4  N   UNL     1      98.754  81.771  82.300  1.00  0.00    -0.352 N 
ATOM      5  H   UNL     1      98.477  82.737  82.193  1.00  0.00     0.163 HD
ATOM      6  O   UNL     1      99.687  80.018  81.169  1.00  0.00    -0.275 OA
BRANCH   4   7
ATOM      7  C   UNL     1      98.598  81.125  83.563  1.00  0.00     0.151 C 
BRANCH   7   8
ATOM      8  C   UNL     1      98.696  82.071  84.705  1.00  0.00    -0.025 A 
ATOM      9  C   UNL     1      98.159  84.238  85.736  1.00  0.00     0.160 A 
ATOM     10  C   UNL     1      98.931  83.890  86.866  1.00  0.00     0.157 A 
ATOM     11  C   UNL     1      98.055  83.331  84.662  1.00  0.00     0.056 A 
ATOM     12  C   UNL     1      99.559  82.633  86.927  1.00  0.00     0.050 A 
ATOM     13  C   UNL     1      99.433  81.725  85.859  1.00  0.00     0.009 A 
BRANCH   9  14
ATOM     14  O   UNL     1      97.473  85.423  85.704  1.00  0.00    -0.493 OA
ATOM     15  C   UNL     1      96.064  85.293  85.954  1.00  0.00     0.278 C 
ENDBRANCH   9  14
BRANCH  10  16
ATOM     16  O   UNL     1      99.080  84.746  87.908  1.00  0.00    -0.504 OA
ATOM     17  H   UNL     1      98.631  84.392  88.680  1.00  0.00     0.293 HD
ENDBRANCH  10  16
ENDBRANCH   7   8
ENDBRANCH   4   7
ENDBRANCH   2   3
ENDBRANCH   1   2
BRANCH   1  18
ATOM     18  C   UNL     1      97.425  83.230  78.677  1.00  0.00     0.001 C 
BRANCH  18  19
ATOM     19  C   UNL     1      97.515  84.538  77.851  1.00  0.00     0.004 C 
BRANCH  19  20
ATOM     20  C   UNL     1      97.977  84.258  76.394  1.00  0.00     0.027 C 
BRANCH  20  21
ATOM     21  C   UNL     1      98.241  82.854  76.124  1.00  0.00    -0.031 C 
ATOM     22  C   UNL     1      99.462  82.405  75.784  1.00  0.00    -0.028 C 
BRANCH  22  23
ATOM     23  C   UNL     1      99.761  81.001  75.512  1.00  0.00     0.005 C 
ATOM     24  C   UNL     1     100.106  80.259  76.830  1.00  0.00     0.012 C 
ATOM     25  C   UNL     1      98.578  80.338  74.755  1.00  0.00     0.012 C 
ENDBRANCH  22  23
ENDBRANCH  20  21
ENDBRANCH  19  20
ENDBRANCH  18  19
ENDBRANCH   1  18
TORSDOF 11
ENDMDL
MODEL 5
REMARK VINA RESULT:    -5.526     30.620     32.549
REMARK INTER + INTRA:          -9.849
REMARK INTER:                  -8.083
REMARK INTRA:                  -1.766
REMARK UNBOUND:                -0.930
REMARK SMILES COc1cc(CNC(=O)CCCCC/C=C/C(C)C)ccc1O
REMARK SMILES IDX 11 1 10 2 8 3 7 4 9 6 6 7 5 8 3 9 22 10 4 11 21 12 20 13
REMARK SMILES IDX 2 14 1 15 23 16 12 18 13 19 14 20 15 21 16 22 17 23 18 24
REMARK SMILES IDX 19 25
REMARK H PARENT 7 5 23 17
REMARK Flexibility Score: inf
ROOT
ATOM      1  C   UNL     1      63.035  83.149  76.063  1.00  0.00     0.010 C 
ENDROOT
BRANCH   1   2
ATOM      2  C   UNL     1      64.067  84.298  75.926  1.00  0.00     0.100 C 
BRANCH   2   3
ATOM      3  C   UNL     1      63.599  85.429  75.103  1.00  0.00     0.220 C 
ATOM      4  N   UNL     1      63.862  85.450  73.767  1.00  0.00    -0.352 N 
ATOM      5  H   UNL     1      64.444  84.691  73.440  1.00  0.00     0.163 HD
ATOM      6  O   UNL     1      62.929  86.332  75.658  1.00  0.00    -0.275 OA
BRANCH   4   7
ATOM      7  C   UNL     1      63.388  86.429  72.843  1.00  0.00     0.151 C 
BRANCH   7   8
ATOM      8  C   UNL     1      62.024  86.124  72.337  1.00  0.00    -0.025 A 
ATOM      9  C   UNL     1      59.612  86.601  72.276  1.00  0.00     0.160 A 
ATOM     10  C   UNL     1      59.418  85.505  71.408  1.00  0.00     0.157 A 
ATOM     11  C   UNL     1      60.910  86.897  72.740  1.00  0.00     0.056 A 
ATOM     12  C   UNL     1      60.521  84.739  70.987  1.00  0.00     0.050 A 
ATOM     13  C   UNL     1      61.816  85.053  71.440  1.00  0.00     0.009 A 
BRANCH   9  14
ATOM     14  O   UNL     1      58.559  87.406  72.622  1.00  0.00    -0.493 OA
ATOM     15  C   UNL     1      58.533  88.668  71.935  1.00  0.00     0.278 C 
ENDBRANCH   9  14
BRANCH  10  16
ATOM     16  O   UNL     1      58.182  85.169  70.962  1.00  0.00    -0.504 OA
ATOM     17  H   UNL     1      58.258  84.730  70.111  1.00  0.00     0.293 HD
ENDBRANCH  10  16
ENDBRANCH   7   8
ENDBRANCH   4   7
ENDBRANCH   2   3
ENDBRANCH   1   2
BRANCH   1  18
ATOM     18  C   UNL     1      61.917  83.270  74.997  1.00  0.00     0.001 C 
BRANCH  18  19
ATOM     19  C   UNL     1      61.837  82.057  74.036  1.00  0.00     0.004 C 
BRANCH  19  20
ATOM     20  C   UNL     1      63.196  81.306  73.957  1.00  0.00     0.027 C 
BRANCH  20  21
ATOM     21  C   UNL     1      63.798  81.324  72.635  1.00  0.00    -0.031 C 
ATOM     22  C   UNL     1      64.125  82.468  72.009  1.00  0.00    -0.028 C 
BRANCH  22  23
ATOM     23  C   UNL     1      64.735  82.519  70.683  1.00  0.00     0.005 C 
ATOM     24  C   UNL     1      66.150  81.882  70.717  1.00  0.00     0.012 C 
ATOM     25  C   UNL     1      63.808  81.841  69.638  1.00  0.00     0.012 C 
ENDBRANCH  22  23
ENDBRANCH  20  21
ENDBRANCH  19  20
ENDBRANCH  18  19
ENDBRANCH   1  18
TORSDOF 11
ENDMDL
MODEL 6
REMARK VINA RESULT:    -5.525     17.076     19.565
REMARK INTER + INTRA:          -9.847
REMARK INTER:                  -8.643
REMARK INTRA:                  -1.204
REMARK UNBOUND:                -0.930
REMARK SMILES COc1cc(CNC(=O)CCCCC/C=C/C(C)C)ccc1O
REMARK SMILES IDX 11 1 10 2 8 3 7 4 9 6 6 7 5 8 3 9 22 10 4 11 21 12 20 13
REMARK SMILES IDX 2 14 1 15 23 16 12 18 13 19 14 20 15 21 16 22 17 23 18 24
REMARK SMILES IDX 19 25
REMARK H PARENT 7 5 23 17
REMARK Flexibility Score: inf
ROOT
ATOM      1  C   UNL     1      99.622  79.971  84.733  1.00  0.00     0.010 C 
ENDROOT
BRANCH   1   2
ATOM      2  C   UNL     1      98.602  80.340  83.625  1.00  0.00     0.100 C 
BRANCH   2   3
ATOM      3  C   UNL     1      99.221  80.809  82.371  1.00  0.00     0.220 C 
ATOM      4  N   UNL     1      99.561  82.120  82.232  1.00  0.00    -0.352 N 
ATOM      5  H   UNL     1      99.286  82.711  83.004  1.00  0.00     0.163 HD
ATOM      6  O   UNL     1      99.457  79.967  81.473  1.00  0.00    -0.275 OA
BRANCH   4   7
ATOM      7  C   UNL     1     100.250  82.684  81.117  1.00  0.00     0.151 C 
BRANCH   7   8
ATOM      8  C   UNL     1      99.346  82.978  79.975  1.00  0.00    -0.025 A 
ATOM      9  C   UNL     1      98.974  83.240  77.558  1.00  0.00     0.160 A 
ATOM     10  C   UNL     1      97.629  83.593  77.804  1.00  0.00     0.157 A 
ATOM     11  C   UNL     1      99.823  82.945  78.643  1.00  0.00     0.056 A 
ATOM     12  C   UNL     1      97.139  83.613  79.123  1.00  0.00     0.050 A 
ATOM     13  C   UNL     1      97.988  83.297  80.200  1.00  0.00     0.009 A 
BRANCH   9  14
ATOM     14  O   UNL     1      99.437  83.133  76.273  1.00  0.00    -0.493 OA
ATOM     15  C   UNL     1     100.380  84.153  75.901  1.00  0.00     0.278 C 
ENDBRANCH   9  14
BRANCH  10  16
ATOM     16  O   UNL     1      96.787  83.912  76.790  1.00  0.00    -0.504 OA
ATOM     17  H   UNL     1      96.968  83.347  76.035  1.00  0.00     0.293 HD
ENDBRANCH  10  16
ENDBRANCH   7   8
ENDBRANCH   4   7
ENDBRANCH   2   3
ENDBRANCH   1   2
BRANCH   1  18
ATOM     18  C   UNL     1      99.637  81.038  85.857  1.00  0.00     0.001 C 
BRANCH  18  19
ATOM     19  C   UNL     1      98.830  80.630  87.116  1.00  0.00     0.004 C 
BRANCH  19  20
ATOM     20  C   UNL     1      97.833  81.745  87.537  1.00  0.00     0.027 C 
BRANCH  20  21
ATOM     21  C   UNL     1      97.478  82.649  86.457  1.00  0.00    -0.031 C 
ATOM     22  C   UNL     1      97.684  83.976  86.533  1.00  0.00    -0.028 C 
BRANCH  22  23
ATOM     23  C   UNL     1      97.344  84.911  85.463  1.00  0.00     0.005 C 
ATOM     24  C   UNL     1      97.054  84.140  84.147  1.00  0.00     0.012 C 
ATOM     25  C   UNL     1      96.153  85.810  85.894  1.00  0.00     0.012 C 
ENDBRANCH  22  23
ENDBRANCH  20  21
ENDBRANCH  19  20
ENDBRANCH  18  19
ENDBRANCH   1  18
TORSDOF 11
ENDMDL
MODEL 7
REMARK VINA RESULT:    -5.477     27.627     30.244
REMARK INTER + INTRA:          -9.769
REMARK INTER:                  -8.577
REMARK INTRA:                  -1.192
REMARK UNBOUND:                -0.930
REMARK SMILES COc1cc(CNC(=O)CCCCC/C=C/C(C)C)ccc1O
REMARK SMILES IDX 11 1 10 2 8 3 7 4 9 6 6 7 5 8 3 9 22 10 4 11 21 12 20 13
REMARK SMILES IDX 2 14 1 15 23 16 12 18 13 19 14 20 15 21 16 22 17 23 18 24
REMARK SMILES IDX 19 25
REMARK H PARENT 7 5 23 17
REMARK Flexibility Score: inf
ROOT
ATOM      1  C   UNL     1      63.174  83.032  71.144  1.00  0.00     0.010 C 
ENDROOT
BRANCH   1   2
ATOM      2  C   UNL     1      62.817  83.178  69.642  1.00  0.00     0.100 C 
BRANCH   2   3
ATOM      3  C   UNL     1      63.982  83.120  68.740  1.00  0.00     0.220 C 
ATOM      4  N   UNL     1      64.891  84.134  68.741  1.00  0.00    -0.352 N 
ATOM      5  H   UNL     1      64.650  84.916  69.334  1.00  0.00     0.163 HD
ATOM      6  O   UNL     1      64.125  82.106  68.016  1.00  0.00    -0.275 OA
BRANCH   4   7
ATOM      7  C   UNL     1      66.106  84.159  67.993  1.00  0.00     0.151 C 
BRANCH   7   8
ATOM      8  C   UNL     1      67.308  83.981  68.849  1.00  0.00    -0.025 A 
ATOM      9  C   UNL     1      68.510  84.389  70.955  1.00  0.00     0.160 A 
ATOM     10  C   UNL     1      69.625  83.683  70.454  1.00  0.00     0.157 A 
ATOM     11  C   UNL     1      67.365  84.540  70.147  1.00  0.00     0.056 A 
ATOM     12  C   UNL     1      69.573  83.108  69.171  1.00  0.00     0.050 A 
ATOM     13  C   UNL     1      68.419  83.247  68.378  1.00  0.00     0.009 A 
BRANCH   9  14
ATOM     14  O   UNL     1      68.517  84.877  72.235  1.00  0.00    -0.493 OA
ATOM     15  C   UNL     1      67.209  85.045  72.807  1.00  0.00     0.278 C 
ENDBRANCH   9  14
BRANCH  10  16
ATOM     16  O   UNL     1      70.757  83.539  71.189  1.00  0.00    -0.504 OA
ATOM     17  H   UNL     1      70.609  82.886  71.878  1.00  0.00     0.293 HD
ENDBRANCH  10  16
ENDBRANCH   7   8
ENDBRANCH   4   7
ENDBRANCH   2   3
ENDBRANCH   1   2
BRANCH   1  18
ATOM     18  C   UNL     1      64.031  81.765  71.395  1.00  0.00     0.001 C 
BRANCH  18  19
ATOM     19  C   UNL     1      63.997  81.270  72.863  1.00  0.00     0.004 C 
BRANCH  19  20
ATOM     20  C   UNL     1      62.635  81.593  73.539  1.00  0.00     0.027 C 
BRANCH  20  21
ATOM     21  C   UNL     1      62.758  82.373  74.758  1.00  0.00    -0.031 C 
ATOM     22  C   UNL     1      63.948  82.627  75.332  1.00  0.00    -0.028 C 
BRANCH  22  23
ATOM     23  C   UNL     1      64.105  83.411  76.555  1.00  0.00     0.005 C 
ATOM     24  C   UNL     1      65.304  84.387  76.416  1.00  0.00     0.012 C 
ATOM     25  C   UNL     1      62.781  84.148  76.895  1.00  0.00     0.012 C 
ENDBRANCH  22  23
ENDBRANCH  20  21
ENDBRANCH  19  20
ENDBRANCH  18  19
ENDBRANCH   1  18
TORSDOF 11
ENDMDL
MODEL 8
REMARK VINA RESULT:    -5.432     17.862     20.863
REMARK INTER + INTRA:          -9.696
REMARK INTER:                  -8.585
REMARK INTRA:                  -1.112
REMARK UNBOUND:                -0.930
REMARK SMILES COc1cc(CNC(=O)CCCCC/C=C/C(C)C)ccc1O
REMARK SMILES IDX 11 1 10 2 8 3 7 4 9 6 6 7 5 8 3 9 22 10 4 11 21 12 20 13
REMARK SMILES IDX 2 14 1 15 23 16 12 18 13 19 14 20 15 21 16 22 17 23 18 24
REMARK SMILES IDX 19 25
REMARK H PARENT 7 5 23 17
REMARK Flexibility Score: inf
ROOT
ATOM      1  C   UNL     1     102.303  81.110  81.718  1.00  0.00     0.010 C 
ENDROOT
BRANCH   1   2
ATOM      2  C   UNL     1     101.307  82.298  81.689  1.00  0.00     0.100 C 
BRANCH   2   3
ATOM      3  C   UNL     1      99.998  81.999  82.298  1.00  0.00     0.220 C 
ATOM      4  N   UNL     1      99.201  83.017  82.726  1.00  0.00    -0.352 N 
ATOM      5  H   UNL     1      99.617  83.936  82.656  1.00  0.00     0.163 HD
ATOM      6  O   UNL     1      99.633  80.802  82.368  1.00  0.00    -0.275 OA
BRANCH   4   7
ATOM      7  C   UNL     1      97.878  82.875  83.241  1.00  0.00     0.151 C 
BRANCH   7   8
ATOM      8  C   UNL     1      97.691  83.576  84.538  1.00  0.00    -0.025 A 
ATOM      9  C   UNL     1      98.389  84.000  86.858  1.00  0.00     0.160 A 
ATOM     10  C   UNL     1      97.295  84.877  87.025  1.00  0.00     0.157 A 
ATOM     11  C   UNL     1      98.573  83.350  85.620  1.00  0.00     0.056 A 
ATOM     12  C   UNL     1      96.421  85.123  85.950  1.00  0.00     0.050 A 
ATOM     13  C   UNL     1      96.623  84.485  84.712  1.00  0.00     0.009 A 
BRANCH   9  14
ATOM     14  O   UNL     1      99.295  83.822  87.869  1.00  0.00    -0.493 OA
ATOM     15  C   UNL     1      99.639  82.448  88.115  1.00  0.00     0.278 C 
ENDBRANCH   9  14
BRANCH  10  16
ATOM     16  O   UNL     1      97.066  85.500  88.208  1.00  0.00    -0.504 OA
ATOM     17  H   UNL     1      97.822  85.373  88.788  1.00  0.00     0.293 HD
ENDBRANCH  10  16
ENDBRANCH   7   8
ENDBRANCH   4   7
ENDBRANCH   2   3
ENDBRANCH   1   2
BRANCH   1  18
ATOM     18  C   UNL     1     102.749  80.718  80.286  1.00  0.00     0.001 C 
BRANCH  18  19
ATOM     19  C   UNL     1     102.395  81.777  79.212  1.00  0.00     0.004 C 
BRANCH  19  20
ATOM     20  C   UNL     1     101.267  81.273  78.269  1.00  0.00     0.027 C 
BRANCH  20  21
ATOM     21  C   UNL     1     100.291  82.294  77.927  1.00  0.00    -0.031 C 
ATOM     22  C   UNL     1      99.267  82.610  78.739  1.00  0.00    -0.028 C 
BRANCH  22  23
ATOM     23  C   UNL     1      98.273  83.634  78.428  1.00  0.00     0.005 C 
ATOM     24  C   UNL     1      97.855  83.542  76.936  1.00  0.00     0.012 C 
ATOM     25  C   UNL     1      97.060  83.515  79.389  1.00  0.00     0.012 C 
ENDBRANCH  22  23
ENDBRANCH  20  21
ENDBRANCH  19  20
ENDBRANCH  18  19
ENDBRANCH   1  18
TORSDOF 11
ENDMDL
MODEL 9
REMARK VINA RESULT:    -5.379     16.045     18.689
REMARK INTER + INTRA:          -9.611
REMARK INTER:                  -8.860
REMARK INTRA:                  -0.751
REMARK UNBOUND:                -0.930
REMARK SMILES COc1cc(CNC(=O)CCCCC/C=C/C(C)C)ccc1O
REMARK SMILES IDX 11 1 10 2 8 3 7 4 9 6 6 7 5 8 3 9 22 10 4 11 21 12 20 13
REMARK SMILES IDX 2 14 1 15 23 16 12 18 13 19 14 20 15 21 16 22 17 23 18 24
REMARK SMILES IDX 19 25
REMARK H PARENT 7 5 23 17
REMARK Flexibility Score: inf
ROOT
ATOM      1  C   UNL     1      75.275  91.962  71.300  1.00  0.00     0.010 C 
ENDROOT
BRANCH   1   2
ATOM      2  C   UNL     1      76.109  90.666  71.131  1.00  0.00     0.100 C 
BRANCH   2   3
ATOM      3  C   UNL     1      75.308  89.478  70.784  1.00  0.00     0.220 C 
ATOM      4  N   UNL     1      75.928  88.342  70.360  1.00  0.00    -0.352 N 
ATOM      5  H   UNL     1      76.928  88.427  70.241  1.00  0.00     0.163 HD
ATOM      6  O   UNL     1      74.064  89.534  70.931  1.00  0.00    -0.275 OA
BRANCH   4   7
ATOM      7  C   UNL     1      75.285  87.098  70.086  1.00  0.00     0.151 C 
BRANCH   7   8
ATOM      8  C   UNL     1      76.169  86.142  69.370  1.00  0.00    -0.025 A 
ATOM      9  C   UNL     1      76.479  84.055  68.107  1.00  0.00     0.160 A 
ATOM     10  C   UNL     1      77.869  84.296  68.052  1.00  0.00     0.157 A 
ATOM     11  C   UNL     1      75.642  84.974  68.772  1.00  0.00     0.056 A 
ATOM     12  C   UNL     1      78.402  85.463  68.629  1.00  0.00     0.050 A 
ATOM     13  C   UNL     1      77.557  86.385  69.274  1.00  0.00     0.009 A 
BRANCH   9  14
ATOM     14  O   UNL     1      75.939  82.967  67.474  1.00  0.00    -0.493 OA
ATOM     15  C   UNL     1      75.341  83.265  66.201  1.00  0.00     0.278 C 
ENDBRANCH   9  14
BRANCH  10  16
ATOM     16  O   UNL     1      78.712  83.423  67.446  1.00  0.00    -0.504 OA
ATOM     17  H   UNL     1      78.215  82.662  67.136  1.00  0.00     0.293 HD
ENDBRANCH  10  16
ENDBRANCH   7   8
ENDBRANCH   4   7
ENDBRANCH   2   3
ENDBRANCH   1   2
BRANCH   1  18
ATOM     18  C   UNL     1      76.111  93.082  71.972  1.00  0.00     0.001 C 
BRANCH  18  19
ATOM     19  C   UNL     1      77.535  92.633  72.385  1.00  0.00     0.004 C 
BRANCH  19  20
ATOM     20  C   UNL     1      78.381  93.832  72.898  1.00  0.00     0.027 C 
BRANCH  20  21
ATOM     21  C   UNL     1      77.881  94.414  74.132  1.00  0.00    -0.031 C 
ATOM     22  C   UNL     1      77.919  93.756  75.304  1.00  0.00    -0.028 C 
BRANCH  22  23
ATOM     23  C   UNL     1      77.431  94.315  76.562  1.00  0.00     0.005 C 
ATOM     24  C   UNL     1      77.264  95.853  76.439  1.00  0.00     0.012 C 
ATOM     25  C   UNL     1      76.113  93.611  76.987  1.00  0.00     0.012 C 
ENDBRANCH  22  23
ENDBRANCH  20  21
ENDBRANCH  19  20
ENDBRANCH  18  19
ENDBRANCH   1  18
TORSDOF 11
ENDMDL
MODEL 10
REMARK VINA RESULT:    -5.312     31.897     34.841
REMARK INTER + INTRA:          -9.503
REMARK INTER:                  -8.727
REMARK INTRA:                  -0.776
REMARK UNBOUND:                -0.930
REMARK SMILES COc1cc(CNC(=O)CCCCC/C=C/C(C)C)ccc1O
REMARK SMILES IDX 11 1 10 2 8 3 7 4 9 6 6 7 5 8 3 9 22 10 4 11 21 12 20 13
REMARK SMILES IDX 2 14 1 15 23 16 12 18 13 19 14 20 15 21 16 22 17 23 18 24
REMARK SMILES IDX 19 25
REMARK H PARENT 7 5 23 17
REMARK Flexibility Score: inf
ROOT
ATOM      1  C   UNL     1      59.275  88.352  71.633  1.00  0.00     0.010 C 
ENDROOT
BRANCH   1   2
ATOM      2  C   UNL     1      58.898  87.066  72.413  1.00  0.00     0.100 C 
BRANCH   2   3
ATOM      3  C   UNL     1      60.047  86.386  73.040  1.00  0.00     0.220 C 
ATOM      4  N   UNL     1      60.111  85.026  73.043  1.00  0.00    -0.352 N 
ATOM      5  H   UNL     1      59.297  84.565  72.661  1.00  0.00     0.163 HD
ATOM      6  O   UNL     1      60.964  87.091  73.525  1.00  0.00    -0.275 OA
BRANCH   4   7
ATOM      7  C   UNL     1      61.205  84.249  73.526  1.00  0.00     0.151 C 
BRANCH   7   8
ATOM      8  C   UNL     1      61.989  83.621  72.431  1.00  0.00    -0.025 A 
ATOM      9  C   UNL     1      62.616  83.490  70.057  1.00  0.00     0.160 A 
ATOM     10  C   UNL     1      63.447  82.384  70.338  1.00  0.00     0.157 A 
ATOM     11  C   UNL     1      61.888  84.094  71.102  1.00  0.00     0.056 A 
ATOM     12  C   UNL     1      63.568  81.915  71.659  1.00  0.00     0.050 A 
ATOM     13  C   UNL     1      62.853  82.536  72.700  1.00  0.00     0.009 A 
BRANCH   9  14
ATOM     14  O   UNL     1      62.558  84.009  68.790  1.00  0.00    -0.493 OA
ATOM     15  C   UNL     1      63.268  85.249  68.630  1.00  0.00     0.278 C 
ENDBRANCH   9  14
BRANCH  10  16
ATOM     16  O   UNL     1      64.142  81.757  69.356  1.00  0.00    -0.504 OA
ATOM     17  H   UNL     1      64.015  80.808  69.431  1.00  0.00     0.293 HD
ENDBRANCH  10  16
ENDBRANCH   7   8
ENDBRANCH   4   7
ENDBRANCH   2   3
ENDBRANCH   1   2
BRANCH   1  18
ATOM     18  C   UNL     1      58.371  89.542  72.046  1.00  0.00     0.001 C 
BRANCH  18  19
ATOM     19  C   UNL     1      57.347  89.954  70.959  1.00  0.00     0.004 C 
BRANCH  19  20
ATOM     20  C   UNL     1      57.432  89.022  69.718  1.00  0.00     0.027 C 
BRANCH  20  21
ATOM     21  C   UNL     1      56.217  88.996  68.922  1.00  0.00    -0.031 C 
ATOM     22  C   UNL     1      56.212  88.626  67.629  1.00  0.00    -0.028 C 
BRANCH  22  23
ATOM     23  C   UNL     1      55.007  88.585  66.804  1.00  0.00     0.005 C 
ATOM     24  C   UNL     1      54.392  87.160  66.821  1.00  0.00     0.012 C 
ATOM     25  C   UNL     1      53.998  89.669  67.272  1.00  0.00     0.012 C 
ENDBRANCH  22  23
ENDBRANCH  20  21
ENDBRANCH  19  20
ENDBRANCH  18  19
ENDBRANCH   1  18
TORSDOF 11
ENDMDL
