MODEL 1
REMARK VINA RESULT:    -6.269      0.000      0.000
REMARK INTER + INTRA:         -10.794
REMARK INTER:                 -10.117
REMARK INTRA:                  -0.676
REMARK UNBOUND:                -0.676
REMARK SMILES COc1cc(CNC(=O)CCCCCCC(C)C)ccc1O
REMARK SMILES IDX 11 1 10 2 8 3 7 4 9 6 6 7 5 8 3 9 21 10 4 11 20 12 19 13
REMARK SMILES IDX 2 14 1 15 22 16 12 18 13 19 14 20 15 21 16 22 17 23 18 24
REMARK H PARENT 7 5 22 17
REMARK Flexibility Score: inf
ROOT
ATOM      1  C   UNL     1      96.009  80.062  83.306  1.00  0.00     0.010 C 
ENDROOT
BRANCH   1   2
ATOM      2  C   UNL     1      95.333  81.439  83.556  1.00  0.00     0.100 C 
BRANCH   2   3
ATOM      3  C   UNL     1      94.325  81.407  84.639  1.00  0.00     0.220 C 
ATOM      4  N   UNL     1      93.002  81.585  84.355  1.00  0.00    -0.352 N 
ATOM      5  H   UNL     1      92.802  81.776  83.385  1.00  0.00     0.163 HD
ATOM      6  O   UNL     1      94.711  81.189  85.814  1.00  0.00    -0.275 OA
BRANCH   4   7
ATOM      7  C   UNL     1      91.936  81.517  85.308  1.00  0.00     0.151 C 
BRANCH   7   8
ATOM      8  C   UNL     1      90.910  80.493  84.969  1.00  0.00    -0.025 A 
ATOM      9  C   UNL     1      88.560  79.878  84.587  1.00  0.00     0.160 A 
ATOM     10  C   UNL     1      88.953  78.557  84.281  1.00  0.00     0.157 A 
ATOM     11  C   UNL     1      89.538  80.829  84.947  1.00  0.00     0.056 A 
ATOM     12  C   UNL     1      90.312  78.200  84.337  1.00  0.00     0.050 A 
ATOM     13  C   UNL     1      91.286  79.162  84.669  1.00  0.00     0.009 A 
BRANCH   9  14
ATOM     14  O   UNL     1      87.237  80.226  84.573  1.00  0.00    -0.493 OA
ATOM     15  C   UNL     1      86.989  81.543  84.049  1.00  0.00     0.278 C 
ENDBRANCH   9  14
BRANCH  10  16
ATOM     16  O   UNL     1      88.032  77.620  83.933  1.00  0.00    -0.504 OA
ATOM     17  H   UNL     1      88.482  76.818  83.657  1.00  0.00     0.293 HD
ENDBRANCH  10  16
ENDBRANCH   7   8
ENDBRANCH   4   7
ENDBRANCH   2   3
ENDBRANCH   1   2
BRANCH   1  18
ATOM     18  C   UNL     1      96.526  79.919  81.846  1.00  0.00     0.001 C 
BRANCH  18  19
ATOM     19  C   UNL     1      96.914  81.271  81.183  1.00  0.00     0.000 C 
BRANCH  19  20
ATOM     20  C   UNL     1      97.785  81.056  79.914  1.00  0.00     0.000 C 
BRANCH  20  21
ATOM     21  C   UNL     1      97.735  82.233  78.900  1.00  0.00     0.003 C 
BRANCH  21  22
ATOM     22  C   UNL     1      97.034  81.893  77.544  1.00  0.00    -0.017 C 
ATOM     23  C   UNL     1      95.703  82.683  77.406  1.00  0.00     0.007 C 
ATOM     24  C   UNL     1      96.789  80.370  77.331  1.00  0.00     0.007 C 
ENDBRANCH  21  22
ENDBRANCH  20  21
ENDBRANCH  19  20
ENDBRANCH  18  19
ENDBRANCH   1  18
TORSDOF 11
ENDMDL
MODEL 2
REMARK VINA RESULT:    -6.176     18.472     21.639
REMARK INTER + INTRA:         -10.643
REMARK INTER:                  -9.945
REMARK INTRA:                  -0.697
REMARK UNBOUND:                -0.676
REMARK SMILES COc1cc(CNC(=O)CCCCCCC(C)C)ccc1O
REMARK SMILES IDX 11 1 10 2 8 3 7 4 9 6 6 7 5 8 3 9 21 10 4 11 20 12 19 13
REMARK SMILES IDX 2 14 1 15 22 16 12 18 13 19 14 20 15 21 16 22 17 23 18 24
REMARK H PARENT 7 5 22 17
REMARK Flexibility Score: inf
ROOT
ATOM      1  C   UNL     1      93.804  97.435  74.249  1.00  0.00     0.010 C 
ENDROOT
BRANCH   1   2
ATOM      2  C   UNL     1      94.350  98.483  73.240  1.00  0.00     0.100 C 
BRANCH   2   3
ATOM      3  C   UNL     1      93.372  99.545  72.914  1.00  0.00     0.220 C 
ATOM      4  N   UNL     1      92.435  99.345  71.943  1.00  0.00    -0.352 N 
ATOM      5  H   UNL     1      92.506  98.458  71.465  1.00  0.00     0.163 HD
ATOM      6  O   UNL     1      93.410 100.618  73.564  1.00  0.00    -0.275 OA
BRANCH   4   7
ATOM      7  C   UNL     1      91.406 100.273  71.583  1.00  0.00     0.151 C 
BRANCH   7   8
ATOM      8  C   UNL     1      90.580  99.816  70.432  1.00  0.00    -0.025 A 
ATOM      9  C   UNL     1      89.325 100.320  68.378  1.00  0.00     0.160 A 
ATOM     10  C   UNL     1      89.040  98.947  68.212  1.00  0.00     0.157 A 
ATOM     11  C   UNL     1      90.075 100.745  69.494  1.00  0.00     0.056 A 
ATOM     12  C   UNL     1      89.503  98.017  69.160  1.00  0.00     0.050 A 
ATOM     13  C   UNL     1      90.277  98.445  70.257  1.00  0.00     0.009 A 
BRANCH   9  14
ATOM     14  O   UNL     1      88.846 101.238  67.483  1.00  0.00    -0.493 OA
ATOM     15  C   UNL     1      89.487 102.523  67.571  1.00  0.00     0.278 C 
ENDBRANCH   9  14
BRANCH  10  16
ATOM     16  O   UNL     1      88.319  98.509  67.147  1.00  0.00    -0.504 OA
ATOM     17  H   UNL     1      87.387  98.681  67.300  1.00  0.00     0.293 HD
ENDBRANCH  10  16
ENDBRANCH   7   8
ENDBRANCH   4   7
ENDBRANCH   2   3
ENDBRANCH   1   2
BRANCH   1  18
ATOM     18  C   UNL     1      94.524  96.063  74.116  1.00  0.00     0.001 C 
BRANCH  18  19
ATOM     19  C   UNL     1      94.693  95.311  75.467  1.00  0.00     0.000 C 
BRANCH  19  20
ATOM     20  C   UNL     1      93.631  94.189  75.634  1.00  0.00     0.000 C 
BRANCH  20  21
ATOM     21  C   UNL     1      93.091  94.033  77.082  1.00  0.00     0.003 C 
BRANCH  21  22
ATOM     22  C   UNL     1      91.696  94.694  77.330  1.00  0.00    -0.017 C 
ATOM     23  C   UNL     1      90.593  93.961  76.515  1.00  0.00     0.007 C 
ATOM     24  C   UNL     1      91.667  96.223  77.035  1.00  0.00     0.007 C 
ENDBRANCH  21  22
ENDBRANCH  20  21
ENDBRANCH  19  20
ENDBRANCH  18  19
ENDBRANCH   1  18
TORSDOF 11
ENDMDL
MODEL 3
REMARK VINA RESULT:    -6.029      6.547     11.570
REMARK INTER + INTRA:         -10.405
REMARK INTER:                  -9.700
REMARK INTRA:                  -0.705
REMARK UNBOUND:                -0.676
REMARK SMILES COc1cc(CNC(=O)CCCCCCC(C)C)ccc1O
REMARK SMILES IDX 11 1 10 2 8 3 7 4 9 6 6 7 5 8 3 9 21 10 4 11 20 12 19 13
REMARK SMILES IDX 2 14 1 15 22 16 12 18 13 19 14 20 15 21 16 22 17 23 18 24
REMARK H PARENT 7 5 22 17
REMARK Flexibility Score: inf
ROOT
ATOM      1  C   UNL     1      96.915  81.764  78.103  1.00  0.00     0.010 C 
ENDROOT
BRANCH   1   2
ATOM      2  C   UNL     1      95.937  82.759  77.419  1.00  0.00     0.100 C 
BRANCH   2   3
ATOM      3  C   UNL     1      96.360  83.153  76.057  1.00  0.00     0.220 C 
ATOM      4  N   UNL     1      97.543  82.704  75.546  1.00  0.00    -0.352 N 
ATOM      5  H   UNL     1      98.091  82.143  76.182  1.00  0.00     0.163 HD
ATOM      6  O   UNL     1      95.598  83.884  75.378  1.00  0.00    -0.275 OA
BRANCH   4   7
ATOM      7  C   UNL     1      98.027  82.971  74.226  1.00  0.00     0.151 C 
BRANCH   7   8
ATOM      8  C   UNL     1      97.950  81.790  73.323  1.00  0.00    -0.025 A 
ATOM      9  C   UNL     1      99.038  80.213  71.781  1.00  0.00     0.160 A 
ATOM     10  C   UNL     1      97.821  79.513  71.634  1.00  0.00     0.157 A 
ATOM     11  C   UNL     1      99.089  81.355  72.608  1.00  0.00     0.056 A 
ATOM     12  C   UNL     1      96.670  79.960  72.309  1.00  0.00     0.050 A 
ATOM     13  C   UNL     1      96.735  81.083  73.156  1.00  0.00     0.009 A 
BRANCH   9  14
ATOM     14  O   UNL     1     100.153  79.811  71.097  1.00  0.00    -0.493 OA
ATOM     15  C   UNL     1     101.031  78.967  71.865  1.00  0.00     0.278 C 
ENDBRANCH   9  14
BRANCH  10  16
ATOM     16  O   UNL     1      97.742  78.411  70.842  1.00  0.00    -0.504 OA
ATOM     17  H   UNL     1      96.824  78.249  70.611  1.00  0.00     0.293 HD
ENDBRANCH  10  16
ENDBRANCH   7   8
ENDBRANCH   4   7
ENDBRANCH   2   3
ENDBRANCH   1   2
BRANCH   1  18
ATOM     18  C   UNL     1      97.050  82.029  79.629  1.00  0.00     0.001 C 
BRANCH  18  19
ATOM     19  C   UNL     1      97.828  80.919  80.391  1.00  0.00     0.000 C 
BRANCH  19  20
ATOM     20  C   UNL     1      96.928  80.205  81.438  1.00  0.00     0.000 C 
BRANCH  20  21
ATOM     21  C   UNL     1      96.902  80.892  82.831  1.00  0.00     0.003 C 
BRANCH  21  22
ATOM     22  C   UNL     1      95.850  82.040  82.971  1.00  0.00    -0.017 C 
ATOM     23  C   UNL     1      96.561  83.418  83.081  1.00  0.00     0.007 C 
ATOM     24  C   UNL     1      94.860  81.841  84.156  1.00  0.00     0.007 C 
ENDBRANCH  21  22
ENDBRANCH  20  21
ENDBRANCH  19  20
ENDBRANCH  18  19
ENDBRANCH   1  18
TORSDOF 11
ENDMDL
MODEL 4
REMARK VINA RESULT:    -5.792     14.069     17.108
REMARK INTER + INTRA:         -10.023
REMARK INTER:                  -9.225
REMARK INTRA:                  -0.797
REMARK UNBOUND:                -0.676
REMARK SMILES COc1cc(CNC(=O)CCCCCCC(C)C)ccc1O
REMARK SMILES IDX 11 1 10 2 8 3 7 4 9 6 6 7 5 8 3 9 21 10 4 11 20 12 19 13
REMARK SMILES IDX 2 14 1 15 22 16 12 18 13 19 14 20 15 21 16 22 17 23 18 24
REMARK H PARENT 7 5 22 17
REMARK Flexibility Score: inf
ROOT
ATOM      1  C   UNL     1      94.853  93.418  78.617  1.00  0.00     0.010 C 
ENDROOT
BRANCH   1   2
ATOM      2  C   UNL     1      95.425  92.801  79.923  1.00  0.00     0.100 C 
BRANCH   2   3
ATOM      3  C   UNL     1      96.075  93.797  80.804  1.00  0.00     0.220 C 
ATOM      4  N   UNL     1      95.499  95.016  81.008  1.00  0.00    -0.352 N 
ATOM      5  H   UNL     1      94.651  95.174  80.485  1.00  0.00     0.163 HD
ATOM      6  O   UNL     1      97.149  93.485  81.374  1.00  0.00    -0.275 OA
BRANCH   4   7
ATOM      7  C   UNL     1      96.004  96.033  81.881  1.00  0.00     0.151 C 
BRANCH   7   8
ATOM      8  C   UNL     1      96.541  97.216  81.154  1.00  0.00    -0.025 A 
ATOM      9  C   UNL     1      97.689  98.176  79.202  1.00  0.00     0.160 A 
ATOM     10  C   UNL     1      97.527  99.471  79.741  1.00  0.00     0.157 A 
ATOM     11  C   UNL     1      97.213  97.059  79.920  1.00  0.00     0.056 A 
ATOM     12  C   UNL     1      96.894  99.637  80.986  1.00  0.00     0.050 A 
ATOM     13  C   UNL     1      96.395  98.520  81.684  1.00  0.00     0.009 A 
BRANCH   9  14
ATOM     14  O   UNL     1      98.338  98.000  78.010  1.00  0.00    -0.493 OA
ATOM     15  C   UNL     1      97.455  97.755  76.900  1.00  0.00     0.278 C 
ENDBRANCH   9  14
BRANCH  10  16
ATOM     16  O   UNL     1      97.977 100.565  79.072  1.00  0.00    -0.504 OA
ATOM     17  H   UNL     1      97.701 101.359  79.536  1.00  0.00     0.293 HD
ENDBRANCH  10  16
ENDBRANCH   7   8
ENDBRANCH   4   7
ENDBRANCH   2   3
ENDBRANCH   1   2
BRANCH   1  18
ATOM     18  C   UNL     1      93.302  93.314  78.549  1.00  0.00     0.001 C 
BRANCH  18  19
ATOM     19  C   UNL     1      92.640  94.407  77.664  1.00  0.00     0.000 C 
BRANCH  19  20
ATOM     20  C   UNL     1      91.363  93.873  76.955  1.00  0.00     0.000 C 
BRANCH  20  21
ATOM     21  C   UNL     1      91.638  92.773  75.892  1.00  0.00     0.003 C 
BRANCH  21  22
ATOM     22  C   UNL     1      90.432  91.816  75.620  1.00  0.00    -0.017 C 
ATOM     23  C   UNL     1      89.717  91.449  76.951  1.00  0.00     0.007 C 
ATOM     24  C   UNL     1      90.820  90.528  74.837  1.00  0.00     0.007 C 
ENDBRANCH  21  22
ENDBRANCH  20  21
ENDBRANCH  19  20
ENDBRANCH  18  19
ENDBRANCH   1  18
TORSDOF 11
ENDMDL
MODEL 5
REMARK VINA RESULT:    -5.747      6.699     11.997
REMARK INTER + INTRA:          -9.951
REMARK INTER:                  -9.263
REMARK INTRA:                  -0.688
REMARK UNBOUND:                -0.676
REMARK SMILES COc1cc(CNC(=O)CCCCCCC(C)C)ccc1O
REMARK SMILES IDX 11 1 10 2 8 3 7 4 9 6 6 7 5 8 3 9 21 10 4 11 20 12 19 13
REMARK SMILES IDX 2 14 1 15 22 16 12 18 13 19 14 20 15 21 16 22 17 23 18 24
REMARK H PARENT 7 5 22 17
REMARK Flexibility Score: inf
ROOT
ATOM      1  C   UNL     1      97.475  81.155  77.541  1.00  0.00     0.010 C 
ENDROOT
BRANCH   1   2
ATOM      2  C   UNL     1      96.303  82.124  77.226  1.00  0.00     0.100 C 
BRANCH   2   3
ATOM      3  C   UNL     1      96.511  82.911  75.989  1.00  0.00     0.220 C 
ATOM      4  N   UNL     1      97.714  82.881  75.348  1.00  0.00    -0.352 N 
ATOM      5  H   UNL     1      98.423  82.330  75.808  1.00  0.00     0.163 HD
ATOM      6  O   UNL     1      95.552  83.583  75.536  1.00  0.00    -0.275 OA
BRANCH   4   7
ATOM      7  C   UNL     1      98.012  83.552  74.119  1.00  0.00     0.151 C 
BRANCH   7   8
ATOM      8  C   UNL     1      98.728  82.690  73.138  1.00  0.00    -0.025 A 
ATOM      9  C   UNL     1      99.012  80.516  72.023  1.00  0.00     0.160 A 
ATOM     10  C   UNL     1     100.058  81.052  71.240  1.00  0.00     0.157 A 
ATOM     11  C   UNL     1      98.369  81.332  72.977  1.00  0.00     0.056 A 
ATOM     12  C   UNL     1     100.451  82.391  71.419  1.00  0.00     0.050 A 
ATOM     13  C   UNL     1      99.784  83.208  72.353  1.00  0.00     0.009 A 
BRANCH   9  14
ATOM     14  O   UNL     1      98.648  79.204  71.885  1.00  0.00    -0.493 OA
ATOM     15  C   UNL     1      97.513  79.005  71.023  1.00  0.00     0.278 C 
ENDBRANCH   9  14
BRANCH  10  16
ATOM     16  O   UNL     1     100.696  80.289  70.314  1.00  0.00    -0.504 OA
ATOM     17  H   UNL     1     100.485  80.611  69.435  1.00  0.00     0.293 HD
ENDBRANCH  10  16
ENDBRANCH   7   8
ENDBRANCH   4   7
ENDBRANCH   2   3
ENDBRANCH   1   2
BRANCH   1  18
ATOM     18  C   UNL     1      98.060  81.385  78.964  1.00  0.00     0.001 C 
BRANCH  18  19
ATOM     19  C   UNL     1      97.062  82.052  79.951  1.00  0.00     0.000 C 
BRANCH  19  20
ATOM     20  C   UNL     1      97.155  81.424  81.371  1.00  0.00     0.000 C 
BRANCH  20  21
ATOM     21  C   UNL     1      96.250  82.109  82.432  1.00  0.00     0.003 C 
BRANCH  21  22
ATOM     22  C   UNL     1      95.864  81.199  83.643  1.00  0.00    -0.017 C 
ATOM     23  C   UNL     1      95.934  79.699  83.240  1.00  0.00     0.007 C 
ATOM     24  C   UNL     1      94.474  81.534  84.259  1.00  0.00     0.007 C 
ENDBRANCH  21  22
ENDBRANCH  20  21
ENDBRANCH  19  20
ENDBRANCH  18  19
ENDBRANCH   1  18
TORSDOF 11
ENDMDL
MODEL 6
REMARK VINA RESULT:    -5.600      1.228      2.227
REMARK INTER + INTRA:          -9.714
REMARK INTER:                  -9.018
REMARK INTRA:                  -0.696
REMARK UNBOUND:                -0.676
REMARK SMILES COc1cc(CNC(=O)CCCCCCC(C)C)ccc1O
REMARK SMILES IDX 11 1 10 2 8 3 7 4 9 6 6 7 5 8 3 9 21 10 4 11 20 12 19 13
REMARK SMILES IDX 2 14 1 15 22 16 12 18 13 19 14 20 15 21 16 22 17 23 18 24
REMARK H PARENT 7 5 22 17
REMARK Flexibility Score: inf
ROOT
ATOM      1  C   UNL     1      96.276  79.998  82.325  1.00  0.00     0.010 C 
ENDROOT
BRANCH   1   2
ATOM      2  C   UNL     1      95.902  81.397  82.887  1.00  0.00     0.100 C 
BRANCH   2   3
ATOM      3  C   UNL     1      95.174  81.336  84.174  1.00  0.00     0.220 C 
ATOM      4  N   UNL     1      93.861  81.699  84.241  1.00  0.00    -0.352 N 
ATOM      5  H   UNL     1      93.473  82.041  83.374  1.00  0.00     0.163 HD
ATOM      6  O   UNL     1      95.783  80.920  85.190  1.00  0.00    -0.275 OA
BRANCH   4   7
ATOM      7  C   UNL     1      93.042  81.626  85.413  1.00  0.00     0.151 C 
BRANCH   7   8
ATOM      8  C   UNL     1      91.758  80.906  85.188  1.00  0.00    -0.025 A 
ATOM      9  C   UNL     1      90.427  78.842  85.303  1.00  0.00     0.160 A 
ATOM     10  C   UNL     1      89.303  79.536  84.804  1.00  0.00     0.157 A 
ATOM     11  C   UNL     1      91.648  79.526  85.473  1.00  0.00     0.056 A 
ATOM     12  C   UNL     1      89.411  80.901  84.479  1.00  0.00     0.050 A 
ATOM     13  C   UNL     1      90.626  81.585  84.680  1.00  0.00     0.009 A 
BRANCH   9  14
ATOM     14  O   UNL     1      90.343  77.505  85.584  1.00  0.00    -0.493 OA
ATOM     15  C   UNL     1      90.003  77.221  86.953  1.00  0.00     0.278 C 
ENDBRANCH   9  14
BRANCH  10  16
ATOM     16  O   UNL     1      88.114  78.902  84.628  1.00  0.00    -0.504 OA
ATOM     17  H   UNL     1      87.701  78.756  85.482  1.00  0.00     0.293 HD
ENDBRANCH  10  16
ENDBRANCH   7   8
ENDBRANCH   4   7
ENDBRANCH   2   3
ENDBRANCH   1   2
BRANCH   1  18
ATOM     18  C   UNL     1      97.323  80.086  81.178  1.00  0.00     0.001 C 
BRANCH  18  19
ATOM     19  C   UNL     1      97.255  81.412  80.369  1.00  0.00     0.000 C 
BRANCH  19  20
ATOM     20  C   UNL     1      98.476  81.565  79.419  1.00  0.00     0.000 C 
BRANCH  20  21
ATOM     21  C   UNL     1      98.100  81.814  77.932  1.00  0.00     0.003 C 
BRANCH  21  22
ATOM     22  C   UNL     1      96.608  81.506  77.578  1.00  0.00    -0.017 C 
ATOM     23  C   UNL     1      96.510  80.228  76.699  1.00  0.00     0.007 C 
ATOM     24  C   UNL     1      95.869  82.695  76.897  1.00  0.00     0.007 C 
ENDBRANCH  21  22
ENDBRANCH  20  21
ENDBRANCH  19  20
ENDBRANCH  18  19
ENDBRANCH   1  18
TORSDOF 11
ENDMDL
MODEL 7
REMARK VINA RESULT:    -5.476      3.479      8.299
REMARK INTER + INTRA:          -9.513
REMARK INTER:                  -8.703
REMARK INTRA:                  -0.811
REMARK UNBOUND:                -0.676
REMARK SMILES COc1cc(CNC(=O)CCCCCCC(C)C)ccc1O
REMARK SMILES IDX 11 1 10 2 8 3 7 4 9 6 6 7 5 8 3 9 21 10 4 11 20 12 19 13
REMARK SMILES IDX 2 14 1 15 22 16 12 18 13 19 14 20 15 21 16 22 17 23 18 24
REMARK H PARENT 7 5 22 17
REMARK Flexibility Score: inf
ROOT
ATOM      1  C   UNL     1      93.865  84.688  87.269  1.00  0.00     0.010 C 
ENDROOT
BRANCH   1   2
ATOM      2  C   UNL     1      95.218  84.140  86.738  1.00  0.00     0.100 C 
BRANCH   2   3
ATOM      3  C   UNL     1      95.411  84.364  85.287  1.00  0.00     0.220 C 
ATOM      4  N   UNL     1      95.853  83.351  84.486  1.00  0.00    -0.352 N 
ATOM      5  H   UNL     1      96.067  82.493  84.972  1.00  0.00     0.163 HD
ATOM      6  O   UNL     1      95.137  85.492  84.811  1.00  0.00    -0.275 OA
BRANCH   4   7
ATOM      7  C   UNL     1      96.020  83.433  83.067  1.00  0.00     0.151 C 
BRANCH   7   8
ATOM      8  C   UNL     1      96.321  82.120  82.435  1.00  0.00    -0.025 A 
ATOM      9  C   UNL     1      97.244  80.819  80.563  1.00  0.00     0.160 A 
ATOM     10  C   UNL     1      96.937  79.620  81.242  1.00  0.00     0.157 A 
ATOM     11  C   UNL     1      96.917  82.057  81.155  1.00  0.00     0.056 A 
ATOM     12  C   UNL     1      96.308  79.668  82.499  1.00  0.00     0.050 A 
ATOM     13  C   UNL     1      96.011  80.908  83.097  1.00  0.00     0.009 A 
BRANCH   9  14
ATOM     14  O   UNL     1      97.820  80.782  79.322  1.00  0.00    -0.493 OA
ATOM     15  C   UNL     1      97.452  81.889  78.479  1.00  0.00     0.278 C 
ENDBRANCH   9  14
BRANCH  10  16
ATOM     16  O   UNL     1      97.239  78.413  80.695  1.00  0.00    -0.504 OA
ATOM     17  H   UNL     1      96.775  78.315  79.860  1.00  0.00     0.293 HD
ENDBRANCH  10  16
ENDBRANCH   7   8
ENDBRANCH   4   7
ENDBRANCH   2   3
ENDBRANCH   1   2
BRANCH   1  18
ATOM     18  C   UNL     1      92.646  84.010  86.581  1.00  0.00     0.001 C 
BRANCH  18  19
ATOM     19  C   UNL     1      91.532  83.570  87.572  1.00  0.00     0.000 C 
BRANCH  19  20
ATOM     20  C   UNL     1      91.256  82.043  87.480  1.00  0.00     0.000 C 
BRANCH  20  21
ATOM     21  C   UNL     1      89.844  81.683  86.939  1.00  0.00     0.003 C 
BRANCH  21  22
ATOM     22  C   UNL     1      89.840  81.035  85.515  1.00  0.00    -0.017 C 
ATOM     23  C   UNL     1      91.286  80.953  84.951  1.00  0.00     0.007 C 
ATOM     24  C   UNL     1      88.899  81.755  84.504  1.00  0.00     0.007 C 
ENDBRANCH  21  22
ENDBRANCH  20  21
ENDBRANCH  19  20
ENDBRANCH  18  19
ENDBRANCH   1  18
TORSDOF 11
ENDMDL
MODEL 8
REMARK VINA RESULT:    -5.434     14.335     16.845
REMARK INTER + INTRA:          -9.445
REMARK INTER:                  -8.634
REMARK INTRA:                  -0.811
REMARK UNBOUND:                -0.676
REMARK SMILES COc1cc(CNC(=O)CCCCCCC(C)C)ccc1O
REMARK SMILES IDX 11 1 10 2 8 3 7 4 9 6 6 7 5 8 3 9 21 10 4 11 20 12 19 13
REMARK SMILES IDX 2 14 1 15 22 16 12 18 13 19 14 20 15 21 16 22 17 23 18 24
REMARK H PARENT 7 5 22 17
REMARK Flexibility Score: inf
ROOT
ATOM      1  C   UNL     1      96.248  92.904  79.479  1.00  0.00     0.010 C 
ENDROOT
BRANCH   1   2
ATOM      2  C   UNL     1      95.897  93.475  80.881  1.00  0.00     0.100 C 
BRANCH   2   3
ATOM      3  C   UNL     1      96.425  94.839  81.107  1.00  0.00     0.220 C 
ATOM      4  N   UNL     1      95.868  95.645  82.056  1.00  0.00    -0.352 N 
ATOM      5  H   UNL     1      95.070  95.249  82.529  1.00  0.00     0.163 HD
ATOM      6  O   UNL     1      97.408  95.223  80.426  1.00  0.00    -0.275 OA
BRANCH   4   7
ATOM      7  C   UNL     1      96.330  96.955  82.401  1.00  0.00     0.151 C 
BRANCH   7   8
ATOM      8  C   UNL     1      97.213  96.969  83.600  1.00  0.00    -0.025 A 
ATOM      9  C   UNL     1      99.443  96.717  84.606  1.00  0.00     0.160 A 
ATOM     10  C   UNL     1      98.910  97.037  85.874  1.00  0.00     0.157 A 
ATOM     11  C   UNL     1      98.589  96.667  83.484  1.00  0.00     0.056 A 
ATOM     12  C   UNL     1      97.535  97.301  86.008  1.00  0.00     0.050 A 
ATOM     13  C   UNL     1      96.693  97.278  84.879  1.00  0.00     0.009 A 
BRANCH   9  14
ATOM     14  O   UNL     1     100.772  96.419  84.470  1.00  0.00    -0.493 OA
ATOM     15  C   UNL     1     101.036  95.016  84.286  1.00  0.00     0.278 C 
ENDBRANCH   9  14
BRANCH  10  16
ATOM     16  O   UNL     1      99.709  97.090  86.972  1.00  0.00    -0.504 OA
ATOM     17  H   UNL     1     100.501  97.592  86.766  1.00  0.00     0.293 HD
ENDBRANCH  10  16
ENDBRANCH   7   8
ENDBRANCH   4   7
ENDBRANCH   2   3
ENDBRANCH   1   2
BRANCH   1  18
ATOM     18  C   UNL     1      95.308  93.455  78.369  1.00  0.00     0.001 C 
BRANCH  18  19
ATOM     19  C   UNL     1      93.813  93.524  78.791  1.00  0.00     0.000 C 
BRANCH  19  20
ATOM     20  C   UNL     1      92.866  93.313  77.577  1.00  0.00     0.000 C 
BRANCH  20  21
ATOM     21  C   UNL     1      93.278  94.100  76.303  1.00  0.00     0.003 C 
BRANCH  21  22
ATOM     22  C   UNL     1      93.181  95.655  76.439  1.00  0.00    -0.017 C 
ATOM     23  C   UNL     1      91.786  96.067  76.987  1.00  0.00     0.007 C 
ATOM     24  C   UNL     1      93.496  96.420  75.119  1.00  0.00     0.007 C 
ENDBRANCH  21  22
ENDBRANCH  20  21
ENDBRANCH  19  20
ENDBRANCH  18  19
ENDBRANCH   1  18
TORSDOF 11
ENDMDL
MODEL 9
REMARK VINA RESULT:    -5.412      6.840     12.287
REMARK INTER + INTRA:          -9.410
REMARK INTER:                  -8.551
REMARK INTRA:                  -0.859
REMARK UNBOUND:                -0.676
REMARK SMILES COc1cc(CNC(=O)CCCCCCC(C)C)ccc1O
REMARK SMILES IDX 11 1 10 2 8 3 7 4 9 6 6 7 5 8 3 9 21 10 4 11 20 12 19 13
REMARK SMILES IDX 2 14 1 15 22 16 12 18 13 19 14 20 15 21 16 22 17 23 18 24
REMARK H PARENT 7 5 22 17
REMARK Flexibility Score: inf
ROOT
ATOM      1  C   UNL     1      97.323  81.165  77.861  1.00  0.00     0.010 C 
ENDROOT
BRANCH   1   2
ATOM      2  C   UNL     1      96.030  81.823  77.304  1.00  0.00     0.100 C 
BRANCH   2   3
ATOM      3  C   UNL     1      96.290  82.798  76.221  1.00  0.00     0.220 C 
ATOM      4  N   UNL     1      97.256  82.551  75.289  1.00  0.00    -0.352 N 
ATOM      5  H   UNL     1      97.777  81.700  75.438  1.00  0.00     0.163 HD
ATOM      6  O   UNL     1      95.589  83.838  76.167  1.00  0.00    -0.275 OA
BRANCH   4   7
ATOM      7  C   UNL     1      97.555  83.390  74.168  1.00  0.00     0.151 C 
BRANCH   7   8
ATOM      8  C   UNL     1      98.720  82.913  73.374  1.00  0.00    -0.025 A 
ATOM      9  C   UNL     1     100.938  83.321  72.391  1.00  0.00     0.160 A 
ATOM     10  C   UNL     1     100.965  81.998  71.898  1.00  0.00     0.157 A 
ATOM     11  C   UNL     1      99.810  83.774  73.107  1.00  0.00     0.056 A 
ATOM     12  C   UNL     1      99.870  81.145  72.123  1.00  0.00     0.050 A 
ATOM     13  C   UNL     1      98.760  81.594  72.864  1.00  0.00     0.009 A 
BRANCH   9  14
ATOM     14  O   UNL     1     101.980  84.172  72.144  1.00  0.00    -0.493 OA
ATOM     15  C   UNL     1     101.882  84.860  70.883  1.00  0.00     0.278 C 
ENDBRANCH   9  14
BRANCH  10  16
ATOM     16  O   UNL     1     102.037  81.536  71.203  1.00  0.00    -0.504 OA
ATOM     17  H   UNL     1     102.277  80.665  71.528  1.00  0.00     0.293 HD
ENDBRANCH  10  16
ENDBRANCH   7   8
ENDBRANCH   4   7
ENDBRANCH   2   3
ENDBRANCH   1   2
BRANCH   1  18
ATOM     18  C   UNL     1      97.804  81.840  79.178  1.00  0.00     0.001 C 
BRANCH  18  19
ATOM     19  C   UNL     1      96.646  82.379  80.064  1.00  0.00     0.000 C 
BRANCH  19  20
ATOM     20  C   UNL     1      96.844  81.998  81.558  1.00  0.00     0.000 C 
BRANCH  20  21
ATOM     21  C   UNL     1      97.611  80.665  81.779  1.00  0.00     0.003 C 
BRANCH  21  22
ATOM     22  C   UNL     1      96.755  79.376  81.551  1.00  0.00    -0.017 C 
ATOM     23  C   UNL     1      96.356  78.741  82.913  1.00  0.00     0.007 C 
ATOM     24  C   UNL     1      97.445  78.320  80.639  1.00  0.00     0.007 C 
ENDBRANCH  21  22
ENDBRANCH  20  21
ENDBRANCH  19  20
ENDBRANCH  18  19
ENDBRANCH   1  18
TORSDOF 11
ENDMDL
MODEL 10
REMARK VINA RESULT:    -5.387      2.480      3.664
REMARK INTER + INTRA:          -9.371
REMARK INTER:                  -8.639
REMARK INTRA:                  -0.732
REMARK UNBOUND:                -0.676
REMARK SMILES COc1cc(CNC(=O)CCCCCCC(C)C)ccc1O
REMARK SMILES IDX 11 1 10 2 8 3 7 4 9 6 6 7 5 8 3 9 21 10 4 11 20 12 19 13
REMARK SMILES IDX 2 14 1 15 22 16 12 18 13 19 14 20 15 21 16 22 17 23 18 24
REMARK H PARENT 7 5 22 17
REMARK Flexibility Score: inf
ROOT
ATOM      1  C   UNL     1      96.528  80.389  81.944  1.00  0.00     0.010 C 
ENDROOT
BRANCH   1   2
ATOM      2  C   UNL     1      96.570  81.940  82.011  1.00  0.00     0.100 C 
BRANCH   2   3
ATOM      3  C   UNL     1      96.482  82.469  83.391  1.00  0.00     0.220 C 
ATOM      4  N   UNL     1      95.309  82.987  83.856  1.00  0.00    -0.352 N 
ATOM      5  H   UNL     1      94.561  83.013  83.179  1.00  0.00     0.163 HD
ATOM      6  O   UNL     1      97.498  82.406  84.125  1.00  0.00    -0.275 OA
BRANCH   4   7
ATOM      7  C   UNL     1      95.090  83.472  85.185  1.00  0.00     0.151 C 
BRANCH   7   8
ATOM      8  C   UNL     1      93.756  83.101  85.733  1.00  0.00    -0.025 A 
ATOM      9  C   UNL     1      91.851  81.548  85.830  1.00  0.00     0.160 A 
ATOM     10  C   UNL     1      91.233  82.363  86.803  1.00  0.00     0.157 A 
ATOM     11  C   UNL     1      93.096  81.931  85.290  1.00  0.00     0.056 A 
ATOM     12  C   UNL     1      91.861  83.550  87.223  1.00  0.00     0.050 A 
ATOM     13  C   UNL     1      93.118  83.912  86.701  1.00  0.00     0.009 A 
BRANCH   9  14
ATOM     14  O   UNL     1      91.231  80.412  85.386  1.00  0.00    -0.493 OA
ATOM     15  C   UNL     1      92.078  79.249  85.389  1.00  0.00     0.278 C 
ENDBRANCH   9  14
BRANCH  10  16
ATOM     16  O   UNL     1      90.033  82.019  87.340  1.00  0.00    -0.504 OA
ATOM     17  H   UNL     1      89.615  81.354  86.788  1.00  0.00     0.293 HD
ENDBRANCH  10  16
ENDBRANCH   7   8
ENDBRANCH   4   7
ENDBRANCH   2   3
ENDBRANCH   1   2
BRANCH   1  18
ATOM     18  C   UNL     1      97.482  79.822  80.854  1.00  0.00     0.001 C 
BRANCH  18  19
ATOM     19  C   UNL     1      97.749  80.808  79.681  1.00  0.00     0.000 C 
BRANCH  19  20
ATOM     20  C   UNL     1      97.822  80.067  78.316  1.00  0.00     0.000 C 
BRANCH  20  21
ATOM     21  C   UNL     1      96.875  80.643  77.227  1.00  0.00     0.003 C 
BRANCH  21  22
ATOM     22  C   UNL     1      96.976  82.191  77.031  1.00  0.00    -0.017 C 
ATOM     23  C   UNL     1      95.633  82.876  77.412  1.00  0.00     0.007 C 
ATOM     24  C   UNL     1      97.415  82.613  75.598  1.00  0.00     0.007 C 
ENDBRANCH  21  22
ENDBRANCH  20  21
ENDBRANCH  19  20
ENDBRANCH  18  19
ENDBRANCH   1  18
TORSDOF 11
ENDMDL
