MODEL 1
REMARK VINA RESULT:    -5.810      0.000      0.000
REMARK INTER + INTRA:         -10.060
REMARK INTER:                  -9.376
REMARK INTRA:                  -0.684
REMARK UNBOUND:                -0.684
REMARK SMILES COc1cc(CNC(=O)CCCCCCC(C)C)ccc1O
REMARK SMILES IDX 11 1 10 2 8 3 7 4 9 6 6 7 5 8 3 9 21 10 4 11 20 12 19 13
REMARK SMILES IDX 2 14 1 15 22 16 12 18 13 19 14 20 15 21 16 22 17 23 18 24
REMARK H PARENT 7 5 22 17
REMARK Flexibility Score: inf
ROOT
ATOM      1  C   UNL     1      96.834  81.627  82.824  1.00  0.00     0.010 C 
ENDROOT
BRANCH   1   2
ATOM      2  C   UNL     1      95.905  80.504  83.361  1.00  0.00     0.100 C 
BRANCH   2   3
ATOM      3  C   UNL     1      94.693  81.020  84.037  1.00  0.00     0.220 C 
ATOM      4  N   UNL     1      93.779  80.158  84.567  1.00  0.00    -0.352 N 
ATOM      5  H   UNL     1      93.984  79.181  84.416  1.00  0.00     0.163 HD
ATOM      6  O   UNL     1      94.541  82.263  84.131  1.00  0.00    -0.275 OA
BRANCH   4   7
ATOM      7  C   UNL     1      92.604  80.541  85.290  1.00  0.00     0.151 C 
BRANCH   7   8
ATOM      8  C   UNL     1      91.415  79.708  84.961  1.00  0.00    -0.025 A 
ATOM      9  C   UNL     1      89.052  79.536  84.302  1.00  0.00     0.160 A 
ATOM     10  C   UNL     1      89.155  78.128  84.290  1.00  0.00     0.157 A 
ATOM     11  C   UNL     1      90.175  80.313  84.655  1.00  0.00     0.056 A 
ATOM     12  C   UNL     1      90.373  77.513  84.631  1.00  0.00     0.050 A 
ATOM     13  C   UNL     1      91.499  78.295  84.954  1.00  0.00     0.009 A 
BRANCH   9  14
ATOM     14  O   UNL     1      87.861  80.144  84.011  1.00  0.00    -0.493 OA
ATOM     15  C   UNL     1      87.485  81.165  84.953  1.00  0.00     0.278 C 
ENDBRANCH   9  14
BRANCH  10  16
ATOM     16  O   UNL     1      88.089  77.354  83.956  1.00  0.00    -0.504 OA
ATOM     17  H   UNL     1      88.323  76.428  84.055  1.00  0.00     0.293 HD
ENDBRANCH  10  16
ENDBRANCH   7   8
ENDBRANCH   4   7
ENDBRANCH   2   3
ENDBRANCH   1   2
BRANCH   1  18
ATOM     18  C   UNL     1      96.693  81.821  81.288  1.00  0.00     0.001 C 
BRANCH  18  19
ATOM     19  C   UNL     1      97.338  80.681  80.450  1.00  0.00     0.000 C 
BRANCH  19  20
ATOM     20  C   UNL     1      98.533  81.200  79.601  1.00  0.00     0.000 C 
BRANCH  20  21
ATOM     21  C   UNL     1      98.140  81.683  78.178  1.00  0.00     0.003 C 
BRANCH  21  22
ATOM     22  C   UNL     1      96.675  81.338  77.755  1.00  0.00    -0.017 C 
ATOM     23  C   UNL     1      96.665  80.169  76.730  1.00  0.00     0.007 C 
ATOM     24  C   UNL     1      95.881  82.557  77.199  1.00  0.00     0.007 C 
ENDBRANCH  21  22
ENDBRANCH  20  21
ENDBRANCH  19  20
ENDBRANCH  18  19
ENDBRANCH   1  18
TORSDOF 11
ENDMDL
MODEL 2
REMARK VINA RESULT:    -5.765     23.109     25.962
REMARK INTER + INTRA:          -9.987
REMARK INTER:                  -8.892
REMARK INTRA:                  -1.095
REMARK UNBOUND:                -0.684
REMARK SMILES COc1cc(CNC(=O)CCCCCCC(C)C)ccc1O
REMARK SMILES IDX 11 1 10 2 8 3 7 4 9 6 6 7 5 8 3 9 21 10 4 11 20 12 19 13
REMARK SMILES IDX 2 14 1 15 22 16 12 18 13 19 14 20 15 21 16 22 17 23 18 24
REMARK H PARENT 7 5 22 17
REMARK Flexibility Score: inf
ROOT
ATOM      1  C   UNL     1      74.539  82.782  65.279  1.00  0.00     0.010 C 
ENDROOT
BRANCH   1   2
ATOM      2  C   UNL     1      76.093  82.754  65.254  1.00  0.00     0.100 C 
BRANCH   2   3
ATOM      3  C   UNL     1      76.709  83.608  66.294  1.00  0.00     0.220 C 
ATOM      4  N   UNL     1      75.956  84.097  67.320  1.00  0.00    -0.352 N 
ATOM      5  H   UNL     1      74.975  83.864  67.271  1.00  0.00     0.163 HD
ATOM      6  O   UNL     1      77.939  83.850  66.222  1.00  0.00    -0.275 OA
BRANCH   4   7
ATOM      7  C   UNL     1      76.453  84.882  68.410  1.00  0.00     0.151 C 
BRANCH   7   8
ATOM      8  C   UNL     1      76.307  86.348  68.192  1.00  0.00    -0.025 A 
ATOM      9  C   UNL     1      74.996  88.415  68.427  1.00  0.00     0.160 A 
ATOM     10  C   UNL     1      76.039  89.148  67.820  1.00  0.00     0.157 A 
ATOM     11  C   UNL     1      75.130  87.020  68.591  1.00  0.00     0.056 A 
ATOM     12  C   UNL     1      77.199  88.484  67.382  1.00  0.00     0.050 A 
ATOM     13  C   UNL     1      77.338  87.095  67.576  1.00  0.00     0.009 A 
BRANCH   9  14
ATOM     14  O   UNL     1      73.847  89.045  68.820  1.00  0.00    -0.493 OA
ATOM     15  C   UNL     1      72.655  88.272  68.593  1.00  0.00     0.278 C 
ENDBRANCH   9  14
BRANCH  10  16
ATOM     16  O   UNL     1      75.937  90.492  67.647  1.00  0.00    -0.504 OA
ATOM     17  H   UNL     1      76.794  90.848  67.400  1.00  0.00     0.293 HD
ENDBRANCH  10  16
ENDBRANCH   7   8
ENDBRANCH   4   7
ENDBRANCH   2   3
ENDBRANCH   1   2
BRANCH   1  18
ATOM     18  C   UNL     1      73.932  81.376  65.550  1.00  0.00     0.001 C 
BRANCH  18  19
ATOM     19  C   UNL     1      72.542  81.156  64.888  1.00  0.00     0.000 C 
BRANCH  19  20
ATOM     20  C   UNL     1      71.746  82.487  64.774  1.00  0.00     0.000 C 
BRANCH  20  21
ATOM     21  C   UNL     1      70.475  82.548  65.666  1.00  0.00     0.003 C 
BRANCH  21  22
ATOM     22  C   UNL     1      70.189  83.951  66.294  1.00  0.00    -0.017 C 
ATOM     23  C   UNL     1      71.518  84.716  66.547  1.00  0.00     0.007 C 
ATOM     24  C   UNL     1      69.338  83.892  67.597  1.00  0.00     0.007 C 
ENDBRANCH  21  22
ENDBRANCH  20  21
ENDBRANCH  19  20
ENDBRANCH  18  19
ENDBRANCH   1  18
TORSDOF 11
ENDMDL
MODEL 3
REMARK VINA RESULT:    -5.606      5.699      9.163
REMARK INTER + INTRA:          -9.731
REMARK INTER:                  -8.805
REMARK INTRA:                  -0.927
REMARK UNBOUND:                -0.684
REMARK SMILES COc1cc(CNC(=O)CCCCCCC(C)C)ccc1O
REMARK SMILES IDX 11 1 10 2 8 3 7 4 9 6 6 7 5 8 3 9 21 10 4 11 20 12 19 13
REMARK SMILES IDX 2 14 1 15 22 16 12 18 13 19 14 20 15 21 16 22 17 23 18 24
REMARK H PARENT 7 5 22 17
REMARK Flexibility Score: inf
ROOT
ATOM      1  C   UNL     1      97.374  78.052  82.050  1.00  0.00     0.010 C 
ENDROOT
BRANCH   1   2
ATOM      2  C   UNL     1      97.456  78.071  80.499  1.00  0.00     0.100 C 
BRANCH   2   3
ATOM      3  C   UNL     1      98.256  79.199  79.969  1.00  0.00     0.220 C 
ATOM      4  N   UNL     1      98.211  79.512  78.642  1.00  0.00    -0.352 N 
ATOM      5  H   UNL     1      97.639  78.896  78.083  1.00  0.00     0.163 HD
ATOM      6  O   UNL     1      98.953  79.870  80.769  1.00  0.00    -0.275 OA
BRANCH   4   7
ATOM      7  C   UNL     1      98.892  80.612  78.030  1.00  0.00     0.151 C 
BRANCH   7   8
ATOM      8  C   UNL     1      97.993  81.487  77.229  1.00  0.00    -0.025 A 
ATOM      9  C   UNL     1      97.520  82.730  75.160  1.00  0.00     0.160 A 
ATOM     10  C   UNL     1      96.266  83.120  75.679  1.00  0.00     0.157 A 
ATOM     11  C   UNL     1      98.380  81.934  75.945  1.00  0.00     0.056 A 
ATOM     12  C   UNL     1      95.885  82.714  76.971  1.00  0.00     0.050 A 
ATOM     13  C   UNL     1      96.737  81.895  77.737  1.00  0.00     0.009 A 
BRANCH   9  14
ATOM     14  O   UNL     1      97.916  83.152  73.920  1.00  0.00    -0.493 OA
ATOM     15  C   UNL     1      98.433  82.099  73.087  1.00  0.00     0.278 C 
ENDBRANCH   9  14
BRANCH  10  16
ATOM     16  O   UNL     1      95.417  83.888  74.946  1.00  0.00    -0.504 OA
ATOM     17  H   UNL     1      94.792  83.323  74.485  1.00  0.00     0.293 HD
ENDBRANCH  10  16
ENDBRANCH   7   8
ENDBRANCH   4   7
ENDBRANCH   2   3
ENDBRANCH   1   2
BRANCH   1  18
ATOM     18  C   UNL     1      96.241  78.971  82.589  1.00  0.00     0.001 C 
BRANCH  18  19
ATOM     19  C   UNL     1      96.452  79.428  84.060  1.00  0.00     0.000 C 
BRANCH  19  20
ATOM     20  C   UNL     1      97.787  80.205  84.232  1.00  0.00     0.000 C 
BRANCH  20  21
ATOM     21  C   UNL     1      97.820  81.582  83.512  1.00  0.00     0.003 C 
BRANCH  21  22
ATOM     22  C   UNL     1      96.447  82.040  82.921  1.00  0.00    -0.017 C 
ATOM     23  C   UNL     1      96.589  82.377  81.410  1.00  0.00     0.007 C 
ATOM     24  C   UNL     1      95.803  83.233  83.687  1.00  0.00     0.007 C 
ENDBRANCH  21  22
ENDBRANCH  20  21
ENDBRANCH  19  20
ENDBRANCH  18  19
ENDBRANCH   1  18
TORSDOF 11
ENDMDL
MODEL 4
REMARK VINA RESULT:    -5.561     14.235     17.297
REMARK INTER + INTRA:          -9.658
REMARK INTER:                  -8.642
REMARK INTRA:                  -1.016
REMARK UNBOUND:                -0.684
REMARK SMILES COc1cc(CNC(=O)CCCCCCC(C)C)ccc1O
REMARK SMILES IDX 11 1 10 2 8 3 7 4 9 6 6 7 5 8 3 9 21 10 4 11 20 12 19 13
REMARK SMILES IDX 2 14 1 15 22 16 12 18 13 19 14 20 15 21 16 22 17 23 18 24
REMARK H PARENT 7 5 22 17
REMARK Flexibility Score: inf
ROOT
ATOM      1  C   UNL     1      96.314  98.494  74.743  1.00  0.00     0.010 C 
ENDROOT
BRANCH   1   2
ATOM      2  C   UNL     1      97.371  97.359  74.640  1.00  0.00     0.100 C 
BRANCH   2   3
ATOM      3  C   UNL     1      98.223  97.243  75.844  1.00  0.00     0.220 C 
ATOM      4  N   UNL     1      97.750  96.631  76.968  1.00  0.00    -0.352 N 
ATOM      5  H   UNL     1      96.790  96.323  76.907  1.00  0.00     0.163 HD
ATOM      6  O   UNL     1      99.393  97.697  75.799  1.00  0.00    -0.275 OA
BRANCH   4   7
ATOM      7  C   UNL     1      98.500  96.410  78.167  1.00  0.00     0.151 C 
BRANCH   7   8
ATOM      8  C   UNL     1      97.792  95.546  79.151  1.00  0.00    -0.025 A 
ATOM      9  C   UNL     1      96.286  93.663  79.635  1.00  0.00     0.160 A 
ATOM     10  C   UNL     1      96.473  93.866  81.020  1.00  0.00     0.157 A 
ATOM     11  C   UNL     1      96.931  94.514  78.713  1.00  0.00     0.056 A 
ATOM     12  C   UNL     1      97.297  94.915  81.468  1.00  0.00     0.050 A 
ATOM     13  C   UNL     1      97.961  95.743  80.542  1.00  0.00     0.009 A 
BRANCH   9  14
ATOM     14  O   UNL     1      95.456  92.671  79.189  1.00  0.00    -0.493 OA
ATOM     15  C   UNL     1      94.069  93.051  79.147  1.00  0.00     0.278 C 
ENDBRANCH   9  14
BRANCH  10  16
ATOM     16  O   UNL     1      95.864  93.063  81.931  1.00  0.00    -0.504 OA
ATOM     17  H   UNL     1      96.023  93.404  82.814  1.00  0.00     0.293 HD
ENDBRANCH  10  16
ENDBRANCH   7   8
ENDBRANCH   4   7
ENDBRANCH   2   3
ENDBRANCH   1   2
BRANCH   1  18
ATOM     18  C   UNL     1      95.192  98.350  73.675  1.00  0.00     0.001 C 
BRANCH  18  19
ATOM     19  C   UNL     1      93.813  97.942  74.266  1.00  0.00     0.000 C 
BRANCH  19  20
ATOM     20  C   UNL     1      93.719  96.407  74.494  1.00  0.00     0.000 C 
BRANCH  20  21
ATOM     21  C   UNL     1      94.048  95.957  75.944  1.00  0.00     0.003 C 
BRANCH  21  22
ATOM     22  C   UNL     1      92.827  95.396  76.744  1.00  0.00    -0.017 C 
ATOM     23  C   UNL     1      92.274  94.113  76.063  1.00  0.00     0.007 C 
ATOM     24  C   UNL     1      91.687  96.436  76.954  1.00  0.00     0.007 C 
ENDBRANCH  21  22
ENDBRANCH  20  21
ENDBRANCH  19  20
ENDBRANCH  18  19
ENDBRANCH   1  18
TORSDOF 11
ENDMDL
MODEL 5
REMARK VINA RESULT:    -5.559     24.287     26.538
REMARK INTER + INTRA:          -9.655
REMARK INTER:                  -8.850
REMARK INTRA:                  -0.806
REMARK UNBOUND:                -0.684
REMARK SMILES COc1cc(CNC(=O)CCCCCCC(C)C)ccc1O
REMARK SMILES IDX 11 1 10 2 8 3 7 4 9 6 6 7 5 8 3 9 21 10 4 11 20 12 19 13
REMARK SMILES IDX 2 14 1 15 22 16 12 18 13 19 14 20 15 21 16 22 17 23 18 24
REMARK H PARENT 7 5 22 17
REMARK Flexibility Score: inf
ROOT
ATOM      1  C   UNL     1      77.433  84.177  66.534  1.00  0.00     0.010 C 
ENDROOT
BRANCH   1   2
ATOM      2  C   UNL     1      76.288  84.293  65.491  1.00  0.00     0.100 C 
BRANCH   2   3
ATOM      3  C   UNL     1      75.677  82.990  65.145  1.00  0.00     0.220 C 
ATOM      4  N   UNL     1      74.620  82.512  65.863  1.00  0.00    -0.352 N 
ATOM      5  H   UNL     1      74.344  83.092  66.643  1.00  0.00     0.163 HD
ATOM      6  O   UNL     1      76.136  82.351  64.167  1.00  0.00    -0.275 OA
BRANCH   4   7
ATOM      7  C   UNL     1      73.914  81.298  65.587  1.00  0.00     0.151 C 
BRANCH   7   8
ATOM      8  C   UNL     1      72.607  81.520  64.910  1.00  0.00    -0.025 A 
ATOM      9  C   UNL     1      70.594  82.890  64.563  1.00  0.00     0.160 A 
ATOM     10  C   UNL     1      70.135  81.974  63.592  1.00  0.00     0.157 A 
ATOM     11  C   UNL     1      71.815  82.647  65.227  1.00  0.00     0.056 A 
ATOM     12  C   UNL     1      70.895  80.828  63.296  1.00  0.00     0.050 A 
ATOM     13  C   UNL     1      72.128  80.607  63.941  1.00  0.00     0.009 A 
BRANCH   9  14
ATOM     14  O   UNL     1      69.843  83.987  64.887  1.00  0.00    -0.493 OA
ATOM     15  C   UNL     1      69.087  83.834  66.102  1.00  0.00     0.278 C 
ENDBRANCH   9  14
BRANCH  10  16
ATOM     16  O   UNL     1      68.962  82.182  62.938  1.00  0.00    -0.504 OA
ATOM     17  H   UNL     1      68.509  81.344  62.821  1.00  0.00     0.293 HD
ENDBRANCH  10  16
ENDBRANCH   7   8
ENDBRANCH   4   7
ENDBRANCH   2   3
ENDBRANCH   1   2
BRANCH   1  18
ATOM     18  C   UNL     1      76.991  84.654  67.947  1.00  0.00     0.001 C 
BRANCH  18  19
ATOM     19  C   UNL     1      76.067  85.905  67.924  1.00  0.00     0.000 C 
BRANCH  19  20
ATOM     20  C   UNL     1      76.869  87.213  68.175  1.00  0.00     0.000 C 
BRANCH  20  21
ATOM     21  C   UNL     1      76.482  88.387  67.234  1.00  0.00     0.003 C 
BRANCH  21  22
ATOM     22  C   UNL     1      76.022  89.687  67.971  1.00  0.00    -0.017 C 
ATOM     23  C   UNL     1      74.833  89.380  68.925  1.00  0.00     0.007 C 
ATOM     24  C   UNL     1      75.661  90.858  67.009  1.00  0.00     0.007 C 
ENDBRANCH  21  22
ENDBRANCH  20  21
ENDBRANCH  19  20
ENDBRANCH  18  19
ENDBRANCH   1  18
TORSDOF 11
ENDMDL
MODEL 6
REMARK VINA RESULT:    -5.553     23.849     26.335
REMARK INTER + INTRA:          -9.646
REMARK INTER:                  -8.733
REMARK INTRA:                  -0.913
REMARK UNBOUND:                -0.684
REMARK SMILES COc1cc(CNC(=O)CCCCCCC(C)C)ccc1O
REMARK SMILES IDX 11 1 10 2 8 3 7 4 9 6 6 7 5 8 3 9 21 10 4 11 20 12 19 13
REMARK SMILES IDX 2 14 1 15 22 16 12 18 13 19 14 20 15 21 16 22 17 23 18 24
REMARK H PARENT 7 5 22 17
REMARK Flexibility Score: inf
ROOT
ATOM      1  C   UNL     1      75.902  83.367  65.512  1.00  0.00     0.010 C 
ENDROOT
BRANCH   1   2
ATOM      2  C   UNL     1      77.026  83.523  66.574  1.00  0.00     0.100 C 
BRANCH   2   3
ATOM      3  C   UNL     1      76.810  84.664  67.492  1.00  0.00     0.220 C 
ATOM      4  N   UNL     1      77.383  85.875  67.233  1.00  0.00    -0.352 N 
ATOM      5  H   UNL     1      77.976  85.894  66.416  1.00  0.00     0.163 HD
ATOM      6  O   UNL     1      76.073  84.498  68.494  1.00  0.00    -0.275 OA
BRANCH   4   7
ATOM      7  C   UNL     1      77.199  87.060  68.014  1.00  0.00     0.151 C 
BRANCH   7   8
ATOM      8  C   UNL     1      76.536  88.161  67.262  1.00  0.00    -0.025 A 
ATOM      9  C   UNL     1      75.313  88.951  65.280  1.00  0.00     0.160 A 
ATOM     10  C   UNL     1      75.233  90.244  65.842  1.00  0.00     0.157 A 
ATOM     11  C   UNL     1      75.979  87.926  65.984  1.00  0.00     0.056 A 
ATOM     12  C   UNL     1      75.818  90.500  67.095  1.00  0.00     0.050 A 
ATOM     13  C   UNL     1      76.456  89.464  67.806  1.00  0.00     0.009 A 
BRANCH   9  14
ATOM     14  O   UNL     1      74.782  88.701  64.044  1.00  0.00    -0.493 OA
ATOM     15  C   UNL     1      75.683  88.019  63.153  1.00  0.00     0.278 C 
ENDBRANCH   9  14
BRANCH  10  16
ATOM     16  O   UNL     1      74.599  91.251  65.185  1.00  0.00    -0.504 OA
ATOM     17  H   UNL     1      75.200  91.992  65.082  1.00  0.00     0.293 HD
ENDBRANCH  10  16
ENDBRANCH   7   8
ENDBRANCH   4   7
ENDBRANCH   2   3
ENDBRANCH   1   2
BRANCH   1  18
ATOM     18  C   UNL     1      76.062  82.067  64.675  1.00  0.00     0.001 C 
BRANCH  18  19
ATOM     19  C   UNL     1      74.718  81.343  64.380  1.00  0.00     0.000 C 
BRANCH  19  20
ATOM     20  C   UNL     1      73.696  81.542  65.534  1.00  0.00     0.000 C 
BRANCH  20  21
ATOM     21  C   UNL     1      72.211  81.550  65.075  1.00  0.00     0.003 C 
BRANCH  21  22
ATOM     22  C   UNL     1      72.006  81.397  63.532  1.00  0.00    -0.017 C 
ATOM     23  C   UNL     1      71.371  82.685  62.938  1.00  0.00     0.007 C 
ATOM     24  C   UNL     1      71.172  80.144  63.134  1.00  0.00     0.007 C 
ENDBRANCH  21  22
ENDBRANCH  20  21
ENDBRANCH  19  20
ENDBRANCH  18  19
ENDBRANCH   1  18
TORSDOF 11
ENDMDL
MODEL 7
REMARK VINA RESULT:    -5.421     16.606     19.696
REMARK INTER + INTRA:          -9.433
REMARK INTER:                  -7.959
REMARK INTRA:                  -1.474
REMARK UNBOUND:                -0.684
REMARK SMILES COc1cc(CNC(=O)CCCCCCC(C)C)ccc1O
REMARK SMILES IDX 11 1 10 2 8 3 7 4 9 6 6 7 5 8 3 9 21 10 4 11 20 12 19 13
REMARK SMILES IDX 2 14 1 15 22 16 12 18 13 19 14 20 15 21 16 22 17 23 18 24
REMARK H PARENT 7 5 22 17
REMARK Flexibility Score: inf
ROOT
ATOM      1  C   UNL     1      81.713  64.806  76.012  1.00  0.00     0.010 C 
ENDROOT
BRANCH   1   2
ATOM      2  C   UNL     1      83.234  64.756  75.700  1.00  0.00     0.100 C 
BRANCH   2   3
ATOM      3  C   UNL     1      83.909  66.062  75.870  1.00  0.00     0.220 C 
ATOM      4  N   UNL     1      84.904  66.440  75.016  1.00  0.00    -0.352 N 
ATOM      5  H   UNL     1      85.148  65.749  74.322  1.00  0.00     0.163 HD
ATOM      6  O   UNL     1      83.529  66.819  76.797  1.00  0.00    -0.275 OA
BRANCH   4   7
ATOM      7  C   UNL     1      85.586  67.698  75.048  1.00  0.00     0.151 C 
BRANCH   7   8
ATOM      8  C   UNL     1      85.185  68.611  73.941  1.00  0.00    -0.025 A 
ATOM      9  C   UNL     1      85.099  70.867  72.967  1.00  0.00     0.160 A 
ATOM     10  C   UNL     1      84.464  70.349  71.818  1.00  0.00     0.157 A 
ATOM     11  C   UNL     1      85.437  69.999  74.026  1.00  0.00     0.056 A 
ATOM     12  C   UNL     1      84.172  68.975  71.738  1.00  0.00     0.050 A 
ATOM     13  C   UNL     1      84.539  68.110  72.787  1.00  0.00     0.009 A 
BRANCH   9  14
ATOM     14  O   UNL     1      85.352  72.208  73.072  1.00  0.00    -0.493 OA
ATOM     15  C   UNL     1      85.687  72.632  74.405  1.00  0.00     0.278 C 
ENDBRANCH   9  14
BRANCH  10  16
ATOM     16  O   UNL     1      84.125  71.163  70.783  1.00  0.00    -0.504 OA
ATOM     17  H   UNL     1      83.168  71.223  70.724  1.00  0.00     0.293 HD
ENDBRANCH  10  16
ENDBRANCH   7   8
ENDBRANCH   4   7
ENDBRANCH   2   3
ENDBRANCH   1   2
BRANCH   1  18
ATOM     18  C   UNL     1      80.845  64.553  74.746  1.00  0.00     0.001 C 
BRANCH  18  19
ATOM     19  C   UNL     1      80.262  65.850  74.117  1.00  0.00     0.000 C 
BRANCH  19  20
ATOM     20  C   UNL     1      81.293  66.549  73.187  1.00  0.00     0.000 C 
BRANCH  20  21
ATOM     21  C   UNL     1      80.973  66.422  71.672  1.00  0.00     0.003 C 
BRANCH  21  22
ATOM     22  C   UNL     1      81.515  65.119  70.999  1.00  0.00    -0.017 C 
ATOM     23  C   UNL     1      83.061  65.184  70.853  1.00  0.00     0.007 C 
ATOM     24  C   UNL     1      80.851  64.800  69.628  1.00  0.00     0.007 C 
ENDBRANCH  21  22
ENDBRANCH  20  21
ENDBRANCH  19  20
ENDBRANCH  18  19
ENDBRANCH   1  18
TORSDOF 11
ENDMDL
MODEL 8
REMARK VINA RESULT:    -5.382     22.501     24.140
REMARK INTER + INTRA:          -9.369
REMARK INTER:                  -8.694
REMARK INTRA:                  -0.675
REMARK UNBOUND:                -0.684
REMARK SMILES COc1cc(CNC(=O)CCCCCCC(C)C)ccc1O
REMARK SMILES IDX 11 1 10 2 8 3 7 4 9 6 6 7 5 8 3 9 21 10 4 11 20 12 19 13
REMARK SMILES IDX 2 14 1 15 22 16 12 18 13 19 14 20 15 21 16 22 17 23 18 24
REMARK H PARENT 7 5 22 17
REMARK Flexibility Score: inf
ROOT
ATOM      1  C   UNL     1      75.689  90.561  69.021  1.00  0.00     0.010 C 
ENDROOT
BRANCH   1   2
ATOM      2  C   UNL     1      74.358  90.886  69.753  1.00  0.00     0.100 C 
BRANCH   2   3
ATOM      3  C   UNL     1      74.308  92.264  70.293  1.00  0.00     0.220 C 
ATOM      4  N   UNL     1      74.195  92.474  71.636  1.00  0.00    -0.352 N 
ATOM      5  H   UNL     1      74.108  91.634  72.188  1.00  0.00     0.163 HD
ATOM      6  O   UNL     1      74.396  93.227  69.492  1.00  0.00    -0.275 OA
BRANCH   4   7
ATOM      7  C   UNL     1      74.196  93.756  72.274  1.00  0.00     0.151 C 
BRANCH   7   8
ATOM      8  C   UNL     1      75.322  93.933  73.232  1.00  0.00    -0.025 A 
ATOM      9  C   UNL     1      76.132  94.503  75.483  1.00  0.00     0.160 A 
ATOM     10  C   UNL     1      77.457  94.232  75.077  1.00  0.00     0.157 A 
ATOM     11  C   UNL     1      75.079  94.370  74.554  1.00  0.00     0.056 A 
ATOM     12  C   UNL     1      77.716  93.834  73.753  1.00  0.00     0.050 A 
ATOM     13  C   UNL     1      76.656  93.675  72.839  1.00  0.00     0.009 A 
BRANCH   9  14
ATOM     14  O   UNL     1      75.874  94.929  76.758  1.00  0.00    -0.493 OA
ATOM     15  C   UNL     1      75.337  93.904  77.614  1.00  0.00     0.278 C 
ENDBRANCH   9  14
BRANCH  10  16
ATOM     16  O   UNL     1      78.491  94.353  75.950  1.00  0.00    -0.504 OA
ATOM     17  H   UNL     1      78.213  94.052  76.819  1.00  0.00     0.293 HD
ENDBRANCH  10  16
ENDBRANCH   7   8
ENDBRANCH   4   7
ENDBRANCH   2   3
ENDBRANCH   1   2
BRANCH   1  18
ATOM     18  C   UNL     1      75.675  89.144  68.381  1.00  0.00     0.001 C 
BRANCH  18  19
ATOM     19  C   UNL     1      77.040  88.721  67.766  1.00  0.00     0.000 C 
BRANCH  19  20
ATOM     20  C   UNL     1      76.848  87.878  66.474  1.00  0.00     0.000 C 
BRANCH  20  21
ATOM     21  C   UNL     1      76.297  86.447  66.723  1.00  0.00     0.003 C 
BRANCH  21  22
ATOM     22  C   UNL     1      77.225  85.534  67.590  1.00  0.00    -0.017 C 
ATOM     23  C   UNL     1      77.488  84.183  66.867  1.00  0.00     0.007 C 
ATOM     24  C   UNL     1      76.688  85.286  69.031  1.00  0.00     0.007 C 
ENDBRANCH  21  22
ENDBRANCH  20  21
ENDBRANCH  19  20
ENDBRANCH  18  19
ENDBRANCH   1  18
TORSDOF 11
ENDMDL
MODEL 9
REMARK VINA RESULT:    -5.374     15.074     18.556
REMARK INTER + INTRA:          -9.357
REMARK INTER:                  -8.285
REMARK INTRA:                  -1.072
REMARK UNBOUND:                -0.684
REMARK SMILES COc1cc(CNC(=O)CCCCCCC(C)C)ccc1O
REMARK SMILES IDX 11 1 10 2 8 3 7 4 9 6 6 7 5 8 3 9 21 10 4 11 20 12 19 13
REMARK SMILES IDX 2 14 1 15 22 16 12 18 13 19 14 20 15 21 16 22 17 23 18 24
REMARK H PARENT 7 5 22 17
REMARK Flexibility Score: inf
ROOT
ATOM      1  C   UNL     1      85.403  65.998  77.292  1.00  0.00     0.010 C 
ENDROOT
BRANCH   1   2
ATOM      2  C   UNL     1      85.052  67.110  78.318  1.00  0.00     0.100 C 
BRANCH   2   3
ATOM      3  C   UNL     1      85.562  68.444  77.933  1.00  0.00     0.220 C 
ATOM      4  N   UNL     1      85.869  68.715  76.631  1.00  0.00    -0.352 N 
ATOM      5  H   UNL     1      85.760  67.934  76.001  1.00  0.00     0.163 HD
ATOM      6  O   UNL     1      85.681  69.323  78.821  1.00  0.00    -0.275 OA
BRANCH   4   7
ATOM      7  C   UNL     1      86.313  69.981  76.133  1.00  0.00     0.151 C 
BRANCH   7   8
ATOM      8  C   UNL     1      85.750  70.317  74.797  1.00  0.00    -0.025 A 
ATOM      9  C   UNL     1      84.675  69.610  72.701  1.00  0.00     0.160 A 
ATOM     10  C   UNL     1      84.633  70.953  72.266  1.00  0.00     0.157 A 
ATOM     11  C   UNL     1      85.249  69.301  73.952  1.00  0.00     0.056 A 
ATOM     12  C   UNL     1      85.164  71.969  73.082  1.00  0.00     0.050 A 
ATOM     13  C   UNL     1      85.709  71.656  74.342  1.00  0.00     0.009 A 
BRANCH   9  14
ATOM     14  O   UNL     1      84.197  68.610  71.898  1.00  0.00    -0.493 OA
ATOM     15  C   UNL     1      83.540  67.552  72.620  1.00  0.00     0.278 C 
ENDBRANCH   9  14
BRANCH  10  16
ATOM     16  O   UNL     1      84.088  71.280  71.065  1.00  0.00    -0.504 OA
ATOM     17  H   UNL     1      84.349  72.174  70.829  1.00  0.00     0.293 HD
ENDBRANCH  10  16
ENDBRANCH   7   8
ENDBRANCH   4   7
ENDBRANCH   2   3
ENDBRANCH   1   2
BRANCH   1  18
ATOM     18  C   UNL     1      84.154  65.509  76.505  1.00  0.00     0.001 C 
BRANCH  18  19
ATOM     19  C   UNL     1      83.583  64.156  77.014  1.00  0.00     0.000 C 
BRANCH  19  20
ATOM     20  C   UNL     1      82.222  63.820  76.341  1.00  0.00     0.000 C 
BRANCH  20  21
ATOM     21  C   UNL     1      81.884  64.707  75.111  1.00  0.00     0.003 C 
BRANCH  21  22
ATOM     22  C   UNL     1      80.433  65.291  75.110  1.00  0.00    -0.017 C 
ATOM     23  C   UNL     1      80.454  66.798  74.731  1.00  0.00     0.007 C 
ATOM     24  C   UNL     1      79.671  65.076  76.451  1.00  0.00     0.007 C 
ENDBRANCH  21  22
ENDBRANCH  20  21
ENDBRANCH  19  20
ENDBRANCH  18  19
ENDBRANCH   1  18
TORSDOF 11
ENDMDL
MODEL 10
REMARK VINA RESULT:    -5.245      5.591      9.084
REMARK INTER + INTRA:          -9.149
REMARK INTER:                  -7.745
REMARK INTRA:                  -1.404
REMARK UNBOUND:                -0.684
REMARK SMILES COc1cc(CNC(=O)CCCCCCC(C)C)ccc1O
REMARK SMILES IDX 11 1 10 2 8 3 7 4 9 6 6 7 5 8 3 9 21 10 4 11 20 12 19 13
REMARK SMILES IDX 2 14 1 15 22 16 12 18 13 19 14 20 15 21 16 22 17 23 18 24
REMARK H PARENT 7 5 22 17
REMARK Flexibility Score: inf
ROOT
ATOM      1  C   UNL     1     101.307  78.430  81.764  1.00  0.00     0.010 C 
ENDROOT
BRANCH   1   2
ATOM      2  C   UNL     1     101.910  79.390  80.702  1.00  0.00     0.100 C 
BRANCH   2   3
ATOM      3  C   UNL     1     101.315  79.222  79.357  1.00  0.00     0.220 C 
ATOM      4  N   UNL     1     100.445  80.152  78.868  1.00  0.00    -0.352 N 
ATOM      5  H   UNL     1     100.227  80.903  79.507  1.00  0.00     0.163 HD
ATOM      6  O   UNL     1     101.647  78.223  78.672  1.00  0.00    -0.275 OA
BRANCH   4   7
ATOM      7  C   UNL     1      99.854  80.126  77.564  1.00  0.00     0.151 C 
BRANCH   7   8
ATOM      8  C   UNL     1      98.645  80.987  77.450  1.00  0.00    -0.025 A 
ATOM      9  C   UNL     1      97.130  82.360  76.084  1.00  0.00     0.160 A 
ATOM     10  C   UNL     1      96.318  82.594  77.215  1.00  0.00     0.157 A 
ATOM     11  C   UNL     1      98.295  81.576  76.214  1.00  0.00     0.056 A 
ATOM     12  C   UNL     1      96.677  82.045  78.460  1.00  0.00     0.050 A 
ATOM     13  C   UNL     1      97.826  81.238  78.576  1.00  0.00     0.009 A 
BRANCH   9  14
ATOM     14  O   UNL     1      96.812  82.922  74.877  1.00  0.00    -0.493 OA
ATOM     15  C   UNL     1      96.795  81.983  73.787  1.00  0.00     0.278 C 
ENDBRANCH   9  14
BRANCH  10  16
ATOM     16  O   UNL     1      95.191  83.347  77.120  1.00  0.00    -0.504 OA
ATOM     17  H   UNL     1      94.492  82.826  76.717  1.00  0.00     0.293 HD
ENDBRANCH  10  16
ENDBRANCH   7   8
ENDBRANCH   4   7
ENDBRANCH   2   3
ENDBRANCH   1   2
BRANCH   1  18
ATOM     18  C   UNL     1     100.507  79.193  82.858  1.00  0.00     0.001 C 
BRANCH  18  19
ATOM     19  C   UNL     1      98.981  78.896  82.841  1.00  0.00     0.000 C 
BRANCH  19  20
ATOM     20  C   UNL     1      98.262  79.662  81.694  1.00  0.00     0.000 C 
BRANCH  20  21
ATOM     21  C   UNL     1      96.712  79.655  81.798  1.00  0.00     0.003 C 
BRANCH  21  22
ATOM     22  C   UNL     1      96.102  80.914  82.499  1.00  0.00    -0.017 C 
ATOM     23  C   UNL     1      97.012  82.154  82.275  1.00  0.00     0.007 C 
ATOM     24  C   UNL     1      95.821  80.710  84.017  1.00  0.00     0.007 C 
ENDBRANCH  21  22
ENDBRANCH  20  21
ENDBRANCH  19  20
ENDBRANCH  18  19
ENDBRANCH   1  18
TORSDOF 11
ENDMDL
