MODEL 1
REMARK VINA RESULT:    -5.714      0.000      0.000
REMARK INTER + INTRA:         -10.605
REMARK INTER:                  -8.887
REMARK INTRA:                  -1.718
REMARK UNBOUND:                -1.718
REMARK SMILES CCCCC/C=C/C(=O)CCc1ccc(O)c(OC)c1
REMARK SMILES IDX 6 1 7 2 8 3 9 4 10 5 11 6 12 7 17 8 20 9 15 10 14 11 13 12
REMARK SMILES IDX 18 13 19 14 16 15 5 17 4 18 3 19 2 20 1 21
REMARK H PARENT 16 16
REMARK Flexibility Score: inf
ROOT
ATOM      1  C   UNL     1      80.125  86.844  87.235  1.00  0.00    -0.023 C 
ATOM      2  C   UNL     1      80.734  86.094  86.308  1.00  0.00     0.043 C 
ENDROOT
BRANCH   2   3
ATOM      3  C   UNL     1      80.635  86.466  84.871  1.00  0.00     0.155 C 
ATOM      4  O   UNL     1      81.193  85.813  83.991  1.00  0.00    -0.295 OA
BRANCH   3   5
ATOM      5  C   UNL     1      79.854  87.726  84.551  1.00  0.00     0.085 C 
BRANCH   5   6
ATOM      6  C   UNL     1      80.769  88.822  84.002  1.00  0.00     0.044 C 
BRANCH   6   7
ATOM      7  C   UNL     1      81.703  89.385  85.047  1.00  0.00    -0.044 A 
ATOM      8  C   UNL     1      83.931  89.709  85.879  1.00  0.00     0.160 A 
ATOM      9  C   UNL     1      83.068  89.188  84.914  1.00  0.00     0.054 A 
ATOM     10  C   UNL     1      83.418  90.419  86.963  1.00  0.00     0.157 A 
ATOM     11  C   UNL     1      82.040  90.608  87.084  1.00  0.00     0.050 A 
ATOM     12  C   UNL     1      81.178  90.088  86.119  1.00  0.00     0.008 A 
BRANCH   8  13
ATOM     13  O   UNL     1      85.274  89.516  85.750  1.00  0.00    -0.493 OA
ATOM     14  C   UNL     1      85.989  90.455  84.949  1.00  0.00     0.278 C 
ENDBRANCH   8  13
BRANCH  10  15
ATOM     15  O   UNL     1      84.250  90.932  87.912  1.00  0.00    -0.504 OA
ATOM     16  H   UNL     1      85.150  90.958  87.546  1.00  0.00     0.293 HD
ENDBRANCH  10  15
ENDBRANCH   6   7
ENDBRANCH   5   6
ENDBRANCH   3   5
ENDBRANCH   2   3
BRANCH   1  17
ATOM     17  C   UNL     1      80.176  86.535  88.703  1.00  0.00     0.027 C 
BRANCH  17  18
ATOM     18  C   UNL     1      79.608  87.660  89.575  1.00  0.00     0.004 C 
BRANCH  18  19
ATOM     19  C   UNL     1      80.648  88.713  89.972  1.00  0.00     0.000 C 
BRANCH  19  20
ATOM     20  C   UNL     1      82.023  88.078  90.185  1.00  0.00    -0.003 C 
ATOM     21  C   UNL     1      83.043  89.103  90.655  1.00  0.00     0.004 C 
ENDBRANCH  19  20
ENDBRANCH  18  19
ENDBRANCH  17  18
ENDBRANCH   1  17
TORSDOF 10
ENDMDL
MODEL 2
REMARK VINA RESULT:    -5.267      1.887      5.852
REMARK INTER + INTRA:          -9.909
REMARK INTER:                  -8.543
REMARK INTRA:                  -1.367
REMARK UNBOUND:                -1.718
REMARK SMILES CCCCC/C=C/C(=O)CCc1ccc(O)c(OC)c1
REMARK SMILES IDX 6 1 7 2 8 3 9 4 10 5 11 6 12 7 17 8 20 9 15 10 14 11 13 12
REMARK SMILES IDX 18 13 19 14 16 15 5 17 4 18 3 19 2 20 1 21
REMARK H PARENT 16 16
REMARK Flexibility Score: inf
ROOT
ATOM      1  C   UNL     1      83.383  90.860  87.274  1.00  0.00    -0.023 C 
ATOM      2  C   UNL     1      83.714  90.193  88.387  1.00  0.00     0.043 C 
ENDROOT
BRANCH   2   3
ATOM      3  C   UNL     1      82.679  89.917  89.421  1.00  0.00     0.155 C 
ATOM      4  O   UNL     1      82.335  90.769  90.238  1.00  0.00    -0.295 OA
BRANCH   3   5
ATOM      5  C   UNL     1      82.109  88.512  89.449  1.00  0.00     0.085 C 
BRANCH   5   6
ATOM      6  C   UNL     1      80.886  88.391  88.539  1.00  0.00     0.044 C 
BRANCH   6   7
ATOM      7  C   UNL     1      81.104  87.441  87.385  1.00  0.00    -0.044 A 
ATOM      8  C   UNL     1      80.402  86.551  85.270  1.00  0.00     0.160 A 
ATOM      9  C   UNL     1      80.199  87.428  86.336  1.00  0.00     0.054 A 
ATOM     10  C   UNL     1      81.505  85.698  85.268  1.00  0.00     0.157 A 
ATOM     11  C   UNL     1      82.407  85.723  86.332  1.00  0.00     0.050 A 
ATOM     12  C   UNL     1      82.205  86.600  87.398  1.00  0.00     0.008 A 
BRANCH   8  13
ATOM     13  O   UNL     1      79.513  86.536  84.237  1.00  0.00    -0.493 OA
ATOM     14  C   UNL     1      79.976  87.018  82.977  1.00  0.00     0.278 C 
ENDBRANCH   8  13
BRANCH  10  15
ATOM     15  O   UNL     1      81.713  84.837  84.233  1.00  0.00    -0.504 OA
ATOM     16  H   UNL     1      82.471  85.160  83.715  1.00  0.00     0.293 HD
ENDBRANCH  10  15
ENDBRANCH   6   7
ENDBRANCH   5   6
ENDBRANCH   3   5
ENDBRANCH   2   3
BRANCH   1  17
ATOM     17  C   UNL     1      84.367  91.178  86.186  1.00  0.00     0.027 C 
BRANCH  17  18
ATOM     18  C   UNL     1      83.856  90.814  84.788  1.00  0.00     0.004 C 
BRANCH  18  19
ATOM     19  C   UNL     1      82.982  89.556  84.763  1.00  0.00     0.000 C 
BRANCH  19  20
ATOM     20  C   UNL     1      81.639  89.831  84.084  1.00  0.00    -0.003 C 
ATOM     21  C   UNL     1      80.615  90.365  85.073  1.00  0.00     0.004 C 
ENDBRANCH  19  20
ENDBRANCH  18  19
ENDBRANCH  17  18
ENDBRANCH   1  17
TORSDOF 10
ENDMDL
MODEL 3
REMARK VINA RESULT:    -5.165      2.121      5.028
REMARK INTER + INTRA:          -9.751
REMARK INTER:                  -7.928
REMARK INTRA:                  -1.822
REMARK UNBOUND:                -1.718
REMARK SMILES CCCCC/C=C/C(=O)CCc1ccc(O)c(OC)c1
REMARK SMILES IDX 6 1 7 2 8 3 9 4 10 5 11 6 12 7 17 8 20 9 15 10 14 11 13 12
REMARK SMILES IDX 18 13 19 14 16 15 5 17 4 18 3 19 2 20 1 21
REMARK H PARENT 16 16
REMARK Flexibility Score: inf
ROOT
ATOM      1  C   UNL     1      81.859  89.631  84.505  1.00  0.00    -0.023 C 
ATOM      2  C   UNL     1      83.069  89.174  84.853  1.00  0.00     0.043 C 
ENDROOT
BRANCH   2   3
ATOM      3  C   UNL     1      84.157  90.134  85.184  1.00  0.00     0.155 C 
ATOM      4  O   UNL     1      85.231  90.127  84.587  1.00  0.00    -0.295 OA
BRANCH   3   5
ATOM      5  C   UNL     1      83.892  91.087  86.333  1.00  0.00     0.085 C 
BRANCH   5   6
ATOM      6  C   UNL     1      83.899  90.354  87.675  1.00  0.00     0.044 C 
BRANCH   6   7
ATOM      7  C   UNL     1      82.512  90.008  88.163  1.00  0.00    -0.044 A 
ATOM      8  C   UNL     1      81.073  88.684  89.554  1.00  0.00     0.160 A 
ATOM      9  C   UNL     1      82.354  89.002  89.103  1.00  0.00     0.054 A 
ATOM     10  C   UNL     1      79.967  89.374  89.059  1.00  0.00     0.157 A 
ATOM     11  C   UNL     1      80.143  90.385  88.113  1.00  0.00     0.050 A 
ATOM     12  C   UNL     1      81.424  90.703  87.662  1.00  0.00     0.008 A 
BRANCH   8  13
ATOM     13  O   UNL     1      80.915  87.695  90.478  1.00  0.00    -0.493 OA
ATOM     14  C   UNL     1      81.190  88.028  91.837  1.00  0.00     0.278 C 
ENDBRANCH   8  13
BRANCH  10  15
ATOM     15  O   UNL     1      78.712  89.073  89.492  1.00  0.00    -0.504 OA
ATOM     16  H   UNL     1      78.412  89.786  90.082  1.00  0.00     0.293 HD
ENDBRANCH  10  15
ENDBRANCH   6   7
ENDBRANCH   5   6
ENDBRANCH   3   5
ENDBRANCH   2   3
BRANCH   1  17
ATOM     17  C   UNL     1      80.711  88.730  84.156  1.00  0.00     0.027 C 
BRANCH  17  18
ATOM     18  C   UNL     1      80.930  87.278  84.595  1.00  0.00     0.004 C 
BRANCH  18  19
ATOM     19  C   UNL     1      80.242  86.926  85.917  1.00  0.00     0.000 C 
BRANCH  19  20
ATOM     20  C   UNL     1      81.223  86.280  86.895  1.00  0.00    -0.003 C 
ATOM     21  C   UNL     1      82.461  85.761  86.181  1.00  0.00     0.004 C 
ENDBRANCH  19  20
ENDBRANCH  18  19
ENDBRANCH  17  18
ENDBRANCH   1  17
TORSDOF 10
ENDMDL
MODEL 4
REMARK VINA RESULT:    -5.058      1.454      2.700
REMARK INTER + INTRA:          -9.585
REMARK INTER:                  -8.614
REMARK INTRA:                  -0.971
REMARK UNBOUND:                -1.718
REMARK SMILES CCCCC/C=C/C(=O)CCc1ccc(O)c(OC)c1
REMARK SMILES IDX 6 1 7 2 8 3 9 4 10 5 11 6 12 7 17 8 20 9 15 10 14 11 13 12
REMARK SMILES IDX 18 13 19 14 16 15 5 17 4 18 3 19 2 20 1 21
REMARK H PARENT 16 16
REMARK Flexibility Score: inf
ROOT
ATOM      1  C   UNL     1      80.643  86.847  87.103  1.00  0.00    -0.023 C 
ATOM      2  C   UNL     1      80.295  86.143  86.019  1.00  0.00     0.043 C 
ENDROOT
BRANCH   2   3
ATOM      3  C   UNL     1      80.409  86.756  84.668  1.00  0.00     0.155 C 
ATOM      4  O   UNL     1      80.982  86.185  83.742  1.00  0.00    -0.295 OA
BRANCH   3   5
ATOM      5  C   UNL     1      79.829  88.148  84.505  1.00  0.00     0.085 C 
BRANCH   5   6
ATOM      6  C   UNL     1      80.861  89.115  83.924  1.00  0.00     0.044 C 
BRANCH   6   7
ATOM      7  C   UNL     1      81.785  89.689  84.973  1.00  0.00    -0.044 A 
ATOM      8  C   UNL     1      82.120  90.595  87.169  1.00  0.00     0.160 A 
ATOM      9  C   UNL     1      81.267  90.066  86.201  1.00  0.00     0.054 A 
ATOM     10  C   UNL     1      83.480  90.740  86.896  1.00  0.00     0.157 A 
ATOM     11  C   UNL     1      83.987  90.357  85.654  1.00  0.00     0.050 A 
ATOM     12  C   UNL     1      83.133  89.828  84.686  1.00  0.00     0.008 A 
BRANCH   8  13
ATOM     13  O   UNL     1      81.613  90.966  88.378  1.00  0.00    -0.493 OA
ATOM     14  C   UNL     1      80.242  90.663  88.627  1.00  0.00     0.278 C 
ENDBRANCH   8  13
BRANCH  10  15
ATOM     15  O   UNL     1      84.324  91.255  87.833  1.00  0.00    -0.504 OA
ATOM     16  H   UNL     1      84.975  90.572  88.067  1.00  0.00     0.293 HD
ENDBRANCH  10  15
ENDBRANCH   6   7
ENDBRANCH   5   6
ENDBRANCH   3   5
ENDBRANCH   2   3
BRANCH   1  17
ATOM     17  C   UNL     1      80.557  86.301  88.499  1.00  0.00     0.027 C 
BRANCH  17  18
ATOM     18  C   UNL     1      79.397  86.894  89.306  1.00  0.00     0.004 C 
BRANCH  18  19
ATOM     19  C   UNL     1      79.684  87.000  90.807  1.00  0.00     0.000 C 
BRANCH  19  20
ATOM     20  C   UNL     1      78.952  85.908  91.587  1.00  0.00    -0.003 C 
ATOM     21  C   UNL     1      79.142  86.071  93.087  1.00  0.00     0.004 C 
ENDBRANCH  19  20
ENDBRANCH  18  19
ENDBRANCH  17  18
ENDBRANCH   1  17
TORSDOF 10
ENDMDL
MODEL 5
REMARK VINA RESULT:    -4.904     19.764     21.788
REMARK INTER + INTRA:          -9.345
REMARK INTER:                  -8.015
REMARK INTRA:                  -1.330
REMARK UNBOUND:                -1.718
REMARK SMILES CCCCC/C=C/C(=O)CCc1ccc(O)c(OC)c1
REMARK SMILES IDX 6 1 7 2 8 3 9 4 10 5 11 6 12 7 17 8 20 9 15 10 14 11 13 12
REMARK SMILES IDX 18 13 19 14 16 15 5 17 4 18 3 19 2 20 1 21
REMARK H PARENT 16 16
REMARK Flexibility Score: inf
ROOT
ATOM      1  C   UNL     1      75.479  89.619  67.620  1.00  0.00    -0.023 C 
ATOM      2  C   UNL     1      75.329  90.706  66.853  1.00  0.00     0.043 C 
ENDROOT
BRANCH   2   3
ATOM      3  C   UNL     1      76.061  90.809  65.562  1.00  0.00     0.155 C 
ATOM      4  O   UNL     1      76.420  91.892  65.104  1.00  0.00    -0.295 OA
BRANCH   3   5
ATOM      5  C   UNL     1      76.297  89.512  64.812  1.00  0.00     0.085 C 
BRANCH   5   6
ATOM      6  C   UNL     1      77.759  89.073  64.909  1.00  0.00     0.044 C 
BRANCH   6   7
ATOM      7  C   UNL     1      77.911  87.612  65.263  1.00  0.00    -0.044 A 
ATOM      8  C   UNL     1      77.830  85.302  64.618  1.00  0.00     0.160 A 
ATOM      9  C   UNL     1      77.689  86.651  64.290  1.00  0.00     0.054 A 
ATOM     10  C   UNL     1      78.191  84.933  65.913  1.00  0.00     0.157 A 
ATOM     11  C   UNL     1      78.410  85.912  66.882  1.00  0.00     0.050 A 
ATOM     12  C   UNL     1      78.269  87.261  66.554  1.00  0.00     0.008 A 
BRANCH   8  13
ATOM     13  O   UNL     1      77.612  84.355  63.662  1.00  0.00    -0.493 OA
ATOM     14  C   UNL     1      76.311  84.308  63.080  1.00  0.00     0.278 C 
ENDBRANCH   8  13
BRANCH  10  15
ATOM     15  O   UNL     1      78.332  83.619  66.245  1.00  0.00    -0.504 OA
ATOM     16  H   UNL     1      77.870  83.466  67.087  1.00  0.00     0.293 HD
ENDBRANCH  10  15
ENDBRANCH   6   7
ENDBRANCH   5   6
ENDBRANCH   3   5
ENDBRANCH   2   3
BRANCH   1  17
ATOM     17  C   UNL     1      74.777  89.439  68.935  1.00  0.00     0.027 C 
BRANCH  17  18
ATOM     18  C   UNL     1      73.397  88.787  68.795  1.00  0.00     0.004 C 
BRANCH  18  19
ATOM     19  C   UNL     1      73.422  87.262  68.939  1.00  0.00     0.000 C 
BRANCH  19  20
ATOM     20  C   UNL     1      73.744  86.587  67.604  1.00  0.00    -0.003 C 
ATOM     21  C   UNL     1      74.928  85.642  67.729  1.00  0.00     0.004 C 
ENDBRANCH  19  20
ENDBRANCH  18  19
ENDBRANCH  17  18
ENDBRANCH   1  17
TORSDOF 10
ENDMDL
MODEL 6
REMARK VINA RESULT:    -4.863      3.008      5.436
REMARK INTER + INTRA:          -9.282
REMARK INTER:                  -8.200
REMARK INTRA:                  -1.082
REMARK UNBOUND:                -1.718
REMARK SMILES CCCCC/C=C/C(=O)CCc1ccc(O)c(OC)c1
REMARK SMILES IDX 6 1 7 2 8 3 9 4 10 5 11 6 12 7 17 8 20 9 15 10 14 11 13 12
REMARK SMILES IDX 18 13 19 14 16 15 5 17 4 18 3 19 2 20 1 21
REMARK H PARENT 16 16
REMARK Flexibility Score: inf
ROOT
ATOM      1  C   UNL     1      82.806  89.112  85.906  1.00  0.00    -0.023 C 
ATOM      2  C   UNL     1      83.997  88.899  85.332  1.00  0.00     0.043 C 
ENDROOT
BRANCH   2   3
ATOM      3  C   UNL     1      84.825  90.053  84.889  1.00  0.00     0.155 C 
ATOM      4  O   UNL     1      85.984  89.911  84.507  1.00  0.00    -0.295 OA
BRANCH   3   5
ATOM      5  C   UNL     1      84.181  91.423  84.984  1.00  0.00     0.085 C 
BRANCH   5   6
ATOM      6  C   UNL     1      84.868  92.288  86.042  1.00  0.00     0.044 C 
BRANCH   6   7
ATOM      7  C   UNL     1      83.905  92.843  87.064  1.00  0.00    -0.044 A 
ATOM      8  C   UNL     1      82.862  94.727  88.123  1.00  0.00     0.160 A 
ATOM      9  C   UNL     1      83.753  94.215  87.179  1.00  0.00     0.054 A 
ATOM     10  C   UNL     1      82.136  93.860  88.939  1.00  0.00     0.157 A 
ATOM     11  C   UNL     1      82.300  92.480  88.811  1.00  0.00     0.050 A 
ATOM     12  C   UNL     1      83.191  91.968  87.867  1.00  0.00     0.008 A 
BRANCH   8  13
ATOM     13  O   UNL     1      82.711  96.076  88.238  1.00  0.00    -0.493 OA
ATOM     14  C   UNL     1      81.876  96.719  87.276  1.00  0.00     0.278 C 
ENDBRANCH   8  13
BRANCH  10  15
ATOM     15  O   UNL     1      81.263  94.348  89.864  1.00  0.00    -0.504 OA
ATOM     16  H   UNL     1      81.738  94.981  90.428  1.00  0.00     0.293 HD
ENDBRANCH  10  15
ENDBRANCH   6   7
ENDBRANCH   5   6
ENDBRANCH   3   5
ENDBRANCH   2   3
BRANCH   1  17
ATOM     17  C   UNL     1      81.913  88.003  86.379  1.00  0.00     0.027 C 
BRANCH  17  18
ATOM     18  C   UNL     1      80.426  88.373  86.346  1.00  0.00     0.004 C 
BRANCH  18  19
ATOM     19  C   UNL     1      79.833  88.405  84.934  1.00  0.00     0.000 C 
BRANCH  19  20
ATOM     20  C   UNL     1      79.814  87.008  84.312  1.00  0.00    -0.003 C 
ATOM     21  C   UNL     1      80.226  87.045  82.849  1.00  0.00     0.004 C 
ENDBRANCH  19  20
ENDBRANCH  18  19
ENDBRANCH  17  18
ENDBRANCH   1  17
TORSDOF 10
ENDMDL
MODEL 7
REMARK VINA RESULT:    -4.800     20.229     22.817
REMARK INTER + INTRA:          -9.183
REMARK INTER:                  -8.498
REMARK INTRA:                  -0.686
REMARK UNBOUND:                -1.718
REMARK SMILES CCCCC/C=C/C(=O)CCc1ccc(O)c(OC)c1
REMARK SMILES IDX 6 1 7 2 8 3 9 4 10 5 11 6 12 7 17 8 20 9 15 10 14 11 13 12
REMARK SMILES IDX 18 13 19 14 16 15 5 17 4 18 3 19 2 20 1 21
REMARK H PARENT 16 16
REMARK Flexibility Score: inf
ROOT
ATOM      1  C   UNL     1      77.650  94.448  64.476  1.00  0.00    -0.023 C 
ATOM      2  C   UNL     1      78.094  93.188  64.395  1.00  0.00     0.043 C 
ENDROOT
BRANCH   2   3
ATOM      3  C   UNL     1      77.216  92.126  63.832  1.00  0.00     0.155 C 
ATOM      4  O   UNL     1      76.119  92.385  63.341  1.00  0.00    -0.295 OA
BRANCH   3   5
ATOM      5  C   UNL     1      77.721  90.701  63.943  1.00  0.00     0.085 C 
BRANCH   5   6
ATOM      6  C   UNL     1      76.838  89.870  64.876  1.00  0.00     0.044 C 
BRANCH   6   7
ATOM      7  C   UNL     1      77.352  88.464  65.072  1.00  0.00    -0.044 A 
ATOM      8  C   UNL     1      77.738  86.257  64.211  1.00  0.00     0.160 A 
ATOM      9  C   UNL     1      77.262  87.556  64.029  1.00  0.00     0.054 A 
ATOM     10  C   UNL     1      78.296  85.883  65.433  1.00  0.00     0.157 A 
ATOM     11  C   UNL     1      78.379  86.808  66.474  1.00  0.00     0.050 A 
ATOM     12  C   UNL     1      77.903  88.107  66.292  1.00  0.00     0.008 A 
BRANCH   8  13
ATOM     13  O   UNL     1      77.651  85.363  63.187  1.00  0.00    -0.493 OA
ATOM     14  C   UNL     1      76.400  84.702  63.008  1.00  0.00     0.278 C 
ENDBRANCH   8  13
BRANCH  10  15
ATOM     15  O   UNL     1      78.763  84.618  65.623  1.00  0.00    -0.504 OA
ATOM     16  H   UNL     1      78.918  84.215  64.751  1.00  0.00     0.293 HD
ENDBRANCH  10  15
ENDBRANCH   6   7
ENDBRANCH   5   6
ENDBRANCH   3   5
ENDBRANCH   2   3
BRANCH   1  17
ATOM     17  C   UNL     1      78.473  95.574  65.031  1.00  0.00     0.027 C 
BRANCH  17  18
ATOM     18  C   UNL     1      79.538  95.106  66.029  1.00  0.00     0.004 C 
BRANCH  18  19
ATOM     19  C   UNL     1      79.594  95.949  67.306  1.00  0.00     0.000 C 
BRANCH  19  20
ATOM     20  C   UNL     1      78.191  96.226  67.847  1.00  0.00    -0.003 C 
ATOM     21  C   UNL     1      77.656  95.044  68.639  1.00  0.00     0.004 C 
ENDBRANCH  19  20
ENDBRANCH  18  19
ENDBRANCH  17  18
ENDBRANCH   1  17
TORSDOF 10
ENDMDL
MODEL 8
REMARK VINA RESULT:    -4.584     17.414     20.062
REMARK INTER + INTRA:          -8.847
REMARK INTER:                  -7.680
REMARK INTRA:                  -1.167
REMARK UNBOUND:                -1.718
REMARK SMILES CCCCC/C=C/C(=O)CCc1ccc(O)c(OC)c1
REMARK SMILES IDX 6 1 7 2 8 3 9 4 10 5 11 6 12 7 17 8 20 9 15 10 14 11 13 12
REMARK SMILES IDX 18 13 19 14 16 15 5 17 4 18 3 19 2 20 1 21
REMARK H PARENT 16 16
REMARK Flexibility Score: inf
ROOT
ATOM      1  C   UNL     1      77.965  87.648  66.047  1.00  0.00    -0.023 C 
ATOM      2  C   UNL     1      76.695  88.059  65.952  1.00  0.00     0.043 C 
ENDROOT
BRANCH   2   3
ATOM      3  C   UNL     1      76.395  89.501  65.736  1.00  0.00     0.155 C 
ATOM      4  O   UNL     1      76.833  90.116  64.766  1.00  0.00    -0.295 OA
BRANCH   3   5
ATOM      5  C   UNL     1      75.565  90.186  66.804  1.00  0.00     0.085 C 
BRANCH   5   6
ATOM      6  C   UNL     1      75.636  89.431  68.132  1.00  0.00     0.044 C 
BRANCH   6   7
ATOM      7  C   UNL     1      74.570  89.864  69.111  1.00  0.00    -0.044 A 
ATOM      8  C   UNL     1      73.642  91.536  70.561  1.00  0.00     0.160 A 
ATOM      9  C   UNL     1      74.627  91.136  69.657  1.00  0.00     0.054 A 
ATOM     10  C   UNL     1      72.615  90.659  70.908  1.00  0.00     0.157 A 
ATOM     11  C   UNL     1      72.572  89.380  70.350  1.00  0.00     0.050 A 
ATOM     12  C   UNL     1      73.557  88.981  69.446  1.00  0.00     0.008 A 
BRANCH   8  13
ATOM     13  O   UNL     1      73.695  92.787  71.099  1.00  0.00    -0.493 OA
ATOM     14  C   UNL     1      74.670  93.015  72.115  1.00  0.00     0.278 C 
ENDBRANCH   8  13
BRANCH  10  15
ATOM     15  O   UNL     1      71.648  91.038  71.789  1.00  0.00    -0.504 OA
ATOM     16  H   UNL     1      71.454  90.284  72.372  1.00  0.00     0.293 HD
ENDBRANCH  10  15
ENDBRANCH   6   7
ENDBRANCH   5   6
ENDBRANCH   3   5
ENDBRANCH   2   3
BRANCH   1  17
ATOM     17  C   UNL     1      78.350  86.214  66.265  1.00  0.00     0.027 C 
BRANCH  17  18
ATOM     18  C   UNL     1      77.957  85.689  67.650  1.00  0.00     0.004 C 
BRANCH  18  19
ATOM     19  C   UNL     1      77.019  84.478  67.603  1.00  0.00     0.000 C 
BRANCH  19  20
ATOM     20  C   UNL     1      75.885  84.619  68.619  1.00  0.00    -0.003 C 
ATOM     21  C   UNL     1      74.856  85.642  68.166  1.00  0.00     0.004 C 
ENDBRANCH  19  20
ENDBRANCH  18  19
ENDBRANCH  17  18
ENDBRANCH   1  17
TORSDOF 10
ENDMDL
MODEL 9
REMARK VINA RESULT:    -4.580      2.199      4.818
REMARK INTER + INTRA:          -8.841
REMARK INTER:                  -7.589
REMARK INTRA:                  -1.252
REMARK UNBOUND:                -1.718
REMARK SMILES CCCCC/C=C/C(=O)CCc1ccc(O)c(OC)c1
REMARK SMILES IDX 6 1 7 2 8 3 9 4 10 5 11 6 12 7 17 8 20 9 15 10 14 11 13 12
REMARK SMILES IDX 18 13 19 14 16 15 5 17 4 18 3 19 2 20 1 21
REMARK H PARENT 16 16
REMARK Flexibility Score: inf
ROOT
ATOM      1  C   UNL     1      82.247  87.893  86.856  1.00  0.00    -0.023 C 
ATOM      2  C   UNL     1      83.137  87.949  85.858  1.00  0.00     0.043 C 
ENDROOT
BRANCH   2   3
ATOM      3  C   UNL     1      84.008  89.146  85.707  1.00  0.00     0.155 C 
ATOM      4  O   UNL     1      85.234  89.057  85.672  1.00  0.00    -0.295 OA
BRANCH   3   5
ATOM      5  C   UNL     1      83.308  90.490  85.653  1.00  0.00     0.085 C 
BRANCH   5   6
ATOM      6  C   UNL     1      84.101  91.561  86.402  1.00  0.00     0.044 C 
BRANCH   6   7
ATOM      7  C   UNL     1      83.486  91.925  87.733  1.00  0.00    -0.044 A 
ATOM      8  C   UNL     1      82.775  91.285  89.933  1.00  0.00     0.160 A 
ATOM      9  C   UNL     1      83.343  90.948  88.705  1.00  0.00     0.054 A 
ATOM     10  C   UNL     1      82.358  92.593  90.174  1.00  0.00     0.157 A 
ATOM     11  C   UNL     1      82.508  93.566  89.185  1.00  0.00     0.050 A 
ATOM     12  C   UNL     1      83.076  93.229  87.956  1.00  0.00     0.008 A 
BRANCH   8  13
ATOM     13  O   UNL     1      82.633  90.325  90.891  1.00  0.00    -0.493 OA
ATOM     14  C   UNL     1      82.770  88.968  90.474  1.00  0.00     0.278 C 
ENDBRANCH   8  13
BRANCH  10  15
ATOM     15  O   UNL     1      81.802  92.934  91.370  1.00  0.00    -0.504 OA
ATOM     16  H   UNL     1      82.319  92.513  92.078  1.00  0.00     0.293 HD
ENDBRANCH  10  15
ENDBRANCH   6   7
ENDBRANCH   5   6
ENDBRANCH   3   5
ENDBRANCH   2   3
BRANCH   1  17
ATOM     17  C   UNL     1      81.333  86.722  87.075  1.00  0.00     0.027 C 
BRANCH  17  18
ATOM     18  C   UNL     1      81.225  85.806  85.852  1.00  0.00     0.004 C 
BRANCH  18  19
ATOM     19  C   UNL     1      79.910  85.965  85.081  1.00  0.00     0.000 C 
BRANCH  19  20
ATOM     20  C   UNL     1      80.075  86.924  83.901  1.00  0.00    -0.003 C 
ATOM     21  C   UNL     1      79.539  88.308  84.229  1.00  0.00     0.004 C 
ENDBRANCH  19  20
ENDBRANCH  18  19
ENDBRANCH  17  18
ENDBRANCH   1  17
TORSDOF 10
ENDMDL
MODEL 10
REMARK VINA RESULT:    -4.392     17.156     19.771
REMARK INTER + INTRA:          -8.549
REMARK INTER:                  -7.120
REMARK INTRA:                  -1.428
REMARK UNBOUND:                -1.718
REMARK SMILES CCCCC/C=C/C(=O)CCc1ccc(O)c(OC)c1
REMARK SMILES IDX 6 1 7 2 8 3 9 4 10 5 11 6 12 7 17 8 20 9 15 10 14 11 13 12
REMARK SMILES IDX 18 13 19 14 16 15 5 17 4 18 3 19 2 20 1 21
REMARK H PARENT 16 16
REMARK Flexibility Score: inf
ROOT
ATOM      1  C   UNL     1      99.479  80.920  84.157  1.00  0.00    -0.023 C 
ATOM      2  C   UNL     1      99.294  81.925  83.292  1.00  0.00     0.043 C 
ENDROOT
BRANCH   2   3
ATOM      3  C   UNL     1      97.960  82.578  83.188  1.00  0.00     0.155 C 
ATOM      4  O   UNL     1      97.656  83.546  83.883  1.00  0.00    -0.295 OA
BRANCH   3   5
ATOM      5  C   UNL     1      96.975  81.955  82.219  1.00  0.00     0.085 C 
BRANCH   5   6
ATOM      6  C   UNL     1      96.804  82.819  80.968  1.00  0.00     0.044 C 
BRANCH   6   7
ATOM      7  C   UNL     1      97.090  82.067  79.690  1.00  0.00    -0.044 A 
ATOM      8  C   UNL     1      96.980  81.927  77.297  1.00  0.00     0.160 A 
ATOM      9  C   UNL     1      96.716  82.622  78.477  1.00  0.00     0.054 A 
ATOM     10  C   UNL     1      97.615  80.686  77.345  1.00  0.00     0.157 A 
ATOM     11  C   UNL     1      97.985  80.140  78.575  1.00  0.00     0.050 A 
ATOM     12  C   UNL     1      97.721  80.835  79.755  1.00  0.00     0.008 A 
BRANCH   8  13
ATOM     13  O   UNL     1      96.613  82.471  76.103  1.00  0.00    -0.493 OA
ATOM     14  C   UNL     1      97.375  83.581  75.635  1.00  0.00     0.278 C 
ENDBRANCH   8  13
BRANCH  10  15
ATOM     15  O   UNL     1      97.879  79.998  76.200  1.00  0.00    -0.504 OA
ATOM     16  H   UNL     1      97.752  80.599  75.446  1.00  0.00     0.293 HD
ENDBRANCH  10  15
ENDBRANCH   6   7
ENDBRANCH   5   6
ENDBRANCH   3   5
ENDBRANCH   2   3
BRANCH   1  17
ATOM     17  C   UNL     1     100.792  80.210  84.321  1.00  0.00     0.027 C 
BRANCH  17  18
ATOM     18  C   UNL     1     101.806  80.561  83.227  1.00  0.00     0.004 C 
BRANCH  18  19
ATOM     19  C   UNL     1     102.038  79.431  82.220  1.00  0.00     0.000 C 
BRANCH  19  20
ATOM     20  C   UNL     1     101.170  79.615  80.974  1.00  0.00    -0.003 C 
ATOM     21  C   UNL     1     101.379  80.984  80.347  1.00  0.00     0.004 C 
ENDBRANCH  19  20
ENDBRANCH  18  19
ENDBRANCH  17  18
ENDBRANCH   1  17
TORSDOF 10
ENDMDL
