MODEL 1
REMARK VINA RESULT:    -5.630      0.000      0.000
REMARK INTER + INTRA:         -10.322
REMARK INTER:                  -9.087
REMARK INTRA:                  -1.236
REMARK UNBOUND:                -1.236
REMARK SMILES COc1cc(CNC(=O)CCCCC/C=C/C(C)C)ccc1O
REMARK SMILES IDX 11 1 10 2 8 3 7 4 9 6 6 7 5 8 3 9 22 10 4 11 21 12 20 13
REMARK SMILES IDX 2 14 1 15 23 16 12 18 13 19 14 20 15 21 16 22 17 23 18 24
REMARK SMILES IDX 19 25
REMARK H PARENT 7 5 23 17
REMARK Flexibility Score: inf
ROOT
ATOM      1  C   UNL     1      89.319  98.492  71.203  1.00  0.00     0.010 C 
ENDROOT
BRANCH   1   2
ATOM      2  C   UNL     1      90.660  99.268  71.123  1.00  0.00     0.100 C 
BRANCH   2   3
ATOM      3  C   UNL     1      90.559 100.682  71.528  1.00  0.00     0.220 C 
ATOM      4  N   UNL     1      91.590 101.271  72.195  1.00  0.00    -0.352 N 
ATOM      5  H   UNL     1      92.348 100.647  72.434  1.00  0.00     0.163 HD
ATOM      6  O   UNL     1      89.530 101.322  71.207  1.00  0.00    -0.275 OA
BRANCH   4   7
ATOM      7  C   UNL     1      91.664 102.649  72.558  1.00  0.00     0.151 C 
BRANCH   7   8
ATOM      8  C   UNL     1      91.115 102.913  73.913  1.00  0.00    -0.025 A 
ATOM      9  C   UNL     1      89.308 103.743  75.361  1.00  0.00     0.160 A 
ATOM     10  C   UNL     1      90.095 103.465  76.500  1.00  0.00     0.157 A 
ATOM     11  C   UNL     1      89.826 103.474  74.078  1.00  0.00     0.056 A 
ATOM     12  C   UNL     1      91.371 102.892  76.349  1.00  0.00     0.050 A 
ATOM     13  C   UNL     1      91.873 102.608  75.065  1.00  0.00     0.009 A 
BRANCH   9  14
ATOM     14  O   UNL     1      88.032 104.219  75.501  1.00  0.00    -0.493 OA
ATOM     15  C   UNL     1      87.405 104.592  74.262  1.00  0.00     0.278 C 
ENDBRANCH   9  14
BRANCH  10  16
ATOM     16  O   UNL     1      89.645 103.736  77.751  1.00  0.00    -0.504 OA
ATOM     17  H   UNL     1      89.728 102.950  78.297  1.00  0.00     0.293 HD
ENDBRANCH  10  16
ENDBRANCH   7   8
ENDBRANCH   4   7
ENDBRANCH   2   3
ENDBRANCH   1   2
BRANCH   1  18
ATOM     18  C   UNL     1      89.486  97.034  70.702  1.00  0.00     0.001 C 
BRANCH  18  19
ATOM     19  C   UNL     1      89.695  96.922  69.171  1.00  0.00     0.004 C 
BRANCH  19  20
ATOM     20  C   UNL     1      88.613  97.720  68.391  1.00  0.00     0.027 C 
BRANCH  20  21
ATOM     21  C   UNL     1      89.114  98.940  67.781  1.00  0.00    -0.031 C 
ATOM     22  C   UNL     1      88.594 100.149  68.059  1.00  0.00    -0.028 C 
BRANCH  22  23
ATOM     23  C   UNL     1      89.078 101.394  67.468  1.00  0.00     0.005 C 
ATOM     24  C   UNL     1      88.428 102.613  68.174  1.00  0.00     0.012 C 
ATOM     25  C   UNL     1      90.630 101.443  67.515  1.00  0.00     0.012 C 
ENDBRANCH  22  23
ENDBRANCH  20  21
ENDBRANCH  19  20
ENDBRANCH  18  19
ENDBRANCH   1  18
TORSDOF 11
ENDMDL
MODEL 2
REMARK VINA RESULT:    -5.355     21.262     23.907
REMARK INTER + INTRA:          -9.877
REMARK INTER:                  -7.712
REMARK INTRA:                  -2.166
REMARK UNBOUND:                -1.236
REMARK SMILES COc1cc(CNC(=O)CCCCC/C=C/C(C)C)ccc1O
REMARK SMILES IDX 11 1 10 2 8 3 7 4 9 6 6 7 5 8 3 9 22 10 4 11 21 12 20 13
REMARK SMILES IDX 2 14 1 15 23 16 12 18 13 19 14 20 15 21 16 22 17 23 18 24
REMARK SMILES IDX 19 25
REMARK H PARENT 7 5 23 17
REMARK Flexibility Score: inf
ROOT
ATOM      1  C   UNL     1     104.464  80.935  80.002  1.00  0.00     0.010 C 
ENDROOT
BRANCH   1   2
ATOM      2  C   UNL     1     103.344  80.487  80.977  1.00  0.00     0.100 C 
BRANCH   2   3
ATOM      3  C   UNL     1     102.403  81.561  81.344  1.00  0.00     0.220 C 
ATOM      4  N   UNL     1     101.159  81.591  80.791  1.00  0.00    -0.352 N 
ATOM      5  H   UNL     1     100.994  80.885  80.086  1.00  0.00     0.163 HD
ATOM      6  O   UNL     1     102.765  82.405  82.197  1.00  0.00    -0.275 OA
BRANCH   4   7
ATOM      7  C   UNL     1     100.122  82.511  81.128  1.00  0.00     0.151 C 
BRANCH   7   8
ATOM      8  C   UNL     1      99.308  82.913  79.952  1.00  0.00    -0.025 A 
ATOM      9  C   UNL     1      99.138  83.481  77.565  1.00  0.00     0.160 A 
ATOM     10  C   UNL     1      97.758  83.731  77.724  1.00  0.00     0.157 A 
ATOM     11  C   UNL     1      99.904  83.083  78.680  1.00  0.00     0.056 A 
ATOM     12  C   UNL     1      97.151  83.548  78.980  1.00  0.00     0.050 A 
ATOM     13  C   UNL     1      97.919  83.132  80.084  1.00  0.00     0.009 A 
BRANCH   9  14
ATOM     14  O   UNL     1      99.721  83.571  76.329  1.00  0.00    -0.493 OA
ATOM     15  C   UNL     1     101.052  84.111  76.344  1.00  0.00     0.278 C 
ENDBRANCH   9  14
BRANCH  10  16
ATOM     16  O   UNL     1      96.991  84.143  76.683  1.00  0.00    -0.504 OA
ATOM     17  H   UNL     1      96.243  83.549  76.582  1.00  0.00     0.293 HD
ENDBRANCH  10  16
ENDBRANCH   7   8
ENDBRANCH   4   7
ENDBRANCH   2   3
ENDBRANCH   1   2
BRANCH   1  18
ATOM     18  C   UNL     1     103.870  81.443  78.663  1.00  0.00     0.001 C 
BRANCH  18  19
ATOM     19  C   UNL     1     103.555  80.312  77.652  1.00  0.00     0.004 C 
BRANCH  19  20
ATOM     20  C   UNL     1     102.411  80.721  76.683  1.00  0.00     0.027 C 
BRANCH  20  21
ATOM     21  C   UNL     1     101.120  80.150  77.029  1.00  0.00    -0.031 C 
ATOM     22  C   UNL     1     100.912  79.488  78.181  1.00  0.00    -0.028 C 
BRANCH  22  23
ATOM     23  C   UNL     1      99.627  78.907  78.560  1.00  0.00     0.005 C 
ATOM     24  C   UNL     1      99.601  78.607  80.083  1.00  0.00     0.012 C 
ATOM     25  C   UNL     1      98.466  79.842  78.124  1.00  0.00     0.012 C 
ENDBRANCH  22  23
ENDBRANCH  20  21
ENDBRANCH  19  20
ENDBRANCH  18  19
ENDBRANCH   1  18
TORSDOF 11
ENDMDL
MODEL 3
REMARK VINA RESULT:    -5.341     21.185     23.488
REMARK INTER + INTRA:          -9.855
REMARK INTER:                  -8.353
REMARK INTRA:                  -1.503
REMARK UNBOUND:                -1.236
REMARK SMILES COc1cc(CNC(=O)CCCCC/C=C/C(C)C)ccc1O
REMARK SMILES IDX 11 1 10 2 8 3 7 4 9 6 6 7 5 8 3 9 22 10 4 11 21 12 20 13
REMARK SMILES IDX 2 14 1 15 23 16 12 18 13 19 14 20 15 21 16 22 17 23 18 24
REMARK SMILES IDX 19 25
REMARK H PARENT 7 5 23 17
REMARK Flexibility Score: inf
ROOT
ATOM      1  C   UNL     1     100.722  83.424  77.154  1.00  0.00     0.010 C 
ENDROOT
BRANCH   1   2
ATOM      2  C   UNL     1      99.293  83.617  76.584  1.00  0.00     0.100 C 
BRANCH   2   3
ATOM      3  C   UNL     1      98.234  83.632  77.611  1.00  0.00     0.220 C 
ATOM      4  N   UNL     1      98.558  83.453  78.922  1.00  0.00    -0.352 N 
ATOM      5  H   UNL     1      99.533  83.244  79.090  1.00  0.00     0.163 HD
ATOM      6  O   UNL     1      97.054  83.851  77.247  1.00  0.00    -0.275 OA
BRANCH   4   7
ATOM      7  C   UNL     1      97.652  83.540  80.020  1.00  0.00     0.151 C 
BRANCH   7   8
ATOM      8  C   UNL     1      98.259  83.094  81.300  1.00  0.00    -0.025 A 
ATOM      9  C   UNL     1      98.233  82.995  83.757  1.00  0.00     0.160 A 
ATOM     10  C   UNL     1      99.453  82.285  83.741  1.00  0.00     0.157 A 
ATOM     11  C   UNL     1      97.651  83.402  82.539  1.00  0.00     0.056 A 
ATOM     12  C   UNL     1     100.058  81.958  82.514  1.00  0.00     0.050 A 
ATOM     13  C   UNL     1      99.461  82.350  81.302  1.00  0.00     0.009 A 
BRANCH   9  14
ATOM     14  O   UNL     1      97.591  83.242  84.942  1.00  0.00    -0.493 OA
ATOM     15  C   UNL     1      96.609  84.289  84.871  1.00  0.00     0.278 C 
ENDBRANCH   9  14
BRANCH  10  16
ATOM     16  O   UNL     1     100.060  81.900  84.892  1.00  0.00    -0.504 OA
ATOM     17  H   UNL     1     100.386  81.002  84.796  1.00  0.00     0.293 HD
ENDBRANCH  10  16
ENDBRANCH   7   8
ENDBRANCH   4   7
ENDBRANCH   2   3
ENDBRANCH   1   2
BRANCH   1  18
ATOM     18  C   UNL     1     101.364  82.117  76.623  1.00  0.00     0.001 C 
BRANCH  18  19
ATOM     19  C   UNL     1     100.582  80.837  77.013  1.00  0.00     0.004 C 
BRANCH  19  20
ATOM     20  C   UNL     1     100.694  80.545  78.535  1.00  0.00     0.027 C 
BRANCH  20  21
ATOM     21  C   UNL     1     102.060  80.365  78.997  1.00  0.00    -0.031 C 
ATOM     22  C   UNL     1     102.773  81.367  79.541  1.00  0.00    -0.028 C 
BRANCH  22  23
ATOM     23  C   UNL     1     104.145  81.217  80.019  1.00  0.00     0.005 C 
ATOM     24  C   UNL     1     104.325  79.840  80.713  1.00  0.00     0.012 C 
ATOM     25  C   UNL     1     105.147  81.424  78.851  1.00  0.00     0.012 C 
ENDBRANCH  22  23
ENDBRANCH  20  21
ENDBRANCH  19  20
ENDBRANCH  18  19
ENDBRANCH   1  18
TORSDOF 11
ENDMDL
MODEL 4
REMARK VINA RESULT:    -5.315      2.707      4.158
REMARK INTER + INTRA:          -9.813
REMARK INTER:                  -7.992
REMARK INTRA:                  -1.821
REMARK UNBOUND:                -1.236
REMARK SMILES COc1cc(CNC(=O)CCCCC/C=C/C(C)C)ccc1O
REMARK SMILES IDX 11 1 10 2 8 3 7 4 9 6 6 7 5 8 3 9 22 10 4 11 21 12 20 13
REMARK SMILES IDX 2 14 1 15 23 16 12 18 13 19 14 20 15 21 16 22 17 23 18 24
REMARK SMILES IDX 19 25
REMARK H PARENT 7 5 23 17
REMARK Flexibility Score: inf
ROOT
ATOM      1  C   UNL     1      89.398  98.480  71.247  1.00  0.00     0.010 C 
ENDROOT
BRANCH   1   2
ATOM      2  C   UNL     1      90.719  99.256  71.006  1.00  0.00     0.100 C 
BRANCH   2   3
ATOM      3  C   UNL     1      90.788 100.555  71.699  1.00  0.00     0.220 C 
ATOM      4  N   UNL     1      89.698 101.371  71.719  1.00  0.00    -0.352 N 
ATOM      5  H   UNL     1      88.914 101.041  71.173  1.00  0.00     0.163 HD
ATOM      6  O   UNL     1      91.850 100.858  72.293  1.00  0.00    -0.275 OA
BRANCH   4   7
ATOM      7  C   UNL     1      89.597 102.604  72.431  1.00  0.00     0.151 C 
BRANCH   7   8
ATOM      8  C   UNL     1      89.218 103.742  71.553  1.00  0.00    -0.025 A 
ATOM      9  C   UNL     1      89.828 105.473  69.917  1.00  0.00     0.160 A 
ATOM     10  C   UNL     1      88.497 105.946  69.922  1.00  0.00     0.157 A 
ATOM     11  C   UNL     1      90.179 104.382  70.738  1.00  0.00     0.056 A 
ATOM     12  C   UNL     1      87.528 105.306  70.717  1.00  0.00     0.050 A 
ATOM     13  C   UNL     1      87.883 104.205  71.519  1.00  0.00     0.009 A 
BRANCH   9  14
ATOM     14  O   UNL     1      90.758 106.033  69.082  1.00  0.00    -0.493 OA
ATOM     15  C   UNL     1      91.146 105.189  67.985  1.00  0.00     0.278 C 
ENDBRANCH   9  14
BRANCH  10  16
ATOM     16  O   UNL     1      88.124 107.011  69.169  1.00  0.00    -0.504 OA
ATOM     17  H   UNL     1      87.628 107.628  69.712  1.00  0.00     0.293 HD
ENDBRANCH  10  16
ENDBRANCH   7   8
ENDBRANCH   4   7
ENDBRANCH   2   3
ENDBRANCH   1   2
BRANCH   1  18
ATOM     18  C   UNL     1      89.480  97.044  70.671  1.00  0.00     0.001 C 
BRANCH  18  19
ATOM     19  C   UNL     1      89.860  96.995  69.170  1.00  0.00     0.004 C 
BRANCH  19  20
ATOM     20  C   UNL     1      88.741  97.606  68.281  1.00  0.00     0.027 C 
BRANCH  20  21
ATOM     21  C   UNL     1      89.119  98.855  67.643  1.00  0.00    -0.031 C 
ATOM     22  C   UNL     1      88.691 100.049  68.090  1.00  0.00    -0.028 C 
BRANCH  22  23
ATOM     23  C   UNL     1      89.058 101.322  67.474  1.00  0.00     0.005 C 
ATOM     24  C   UNL     1      88.294 102.489  68.155  1.00  0.00     0.012 C 
ATOM     25  C   UNL     1      90.597 101.518  67.521  1.00  0.00     0.012 C 
ENDBRANCH  22  23
ENDBRANCH  20  21
ENDBRANCH  19  20
ENDBRANCH  18  19
ENDBRANCH   1  18
TORSDOF 11
ENDMDL
MODEL 5
REMARK VINA RESULT:    -5.247     30.149     32.458
REMARK INTER + INTRA:          -9.704
REMARK INTER:                  -8.455
REMARK INTRA:                  -1.249
REMARK UNBOUND:                -1.236
REMARK SMILES COc1cc(CNC(=O)CCCCC/C=C/C(C)C)ccc1O
REMARK SMILES IDX 11 1 10 2 8 3 7 4 9 6 6 7 5 8 3 9 22 10 4 11 21 12 20 13
REMARK SMILES IDX 2 14 1 15 23 16 12 18 13 19 14 20 15 21 16 22 17 23 18 24
REMARK SMILES IDX 19 25
REMARK H PARENT 7 5 23 17
REMARK Flexibility Score: inf
ROOT
ATOM      1  C   UNL     1      63.639  84.075  68.021  1.00  0.00     0.010 C 
ENDROOT
BRANCH   1   2
ATOM      2  C   UNL     1      65.096  84.278  68.511  1.00  0.00     0.100 C 
BRANCH   2   3
ATOM      3  C   UNL     1      65.375  83.676  69.828  1.00  0.00     0.220 C 
ATOM      4  N   UNL     1      64.733  82.535  70.203  1.00  0.00    -0.352 N 
ATOM      5  H   UNL     1      64.031  82.214  69.551  1.00  0.00     0.163 HD
ATOM      6  O   UNL     1      66.238  84.218  70.559  1.00  0.00    -0.275 OA
BRANCH   4   7
ATOM      7  C   UNL     1      64.980  81.800  71.400  1.00  0.00     0.151 C 
BRANCH   7   8
ATOM      8  C   UNL     1      64.044  82.161  72.496  1.00  0.00    -0.025 A 
ATOM      9  C   UNL     1      63.332  83.702  74.276  1.00  0.00     0.160 A 
ATOM     10  C   UNL     1      62.286  82.818  74.621  1.00  0.00     0.157 A 
ATOM     11  C   UNL     1      64.207  83.363  73.224  1.00  0.00     0.056 A 
ATOM     12  C   UNL     1      62.104  81.628  73.893  1.00  0.00     0.050 A 
ATOM     13  C   UNL     1      62.970  81.307  72.831  1.00  0.00     0.009 A 
BRANCH   9  14
ATOM     14  O   UNL     1      63.464  84.903  74.920  1.00  0.00    -0.493 OA
ATOM     15  C   UNL     1      64.134  85.913  74.148  1.00  0.00     0.278 C 
ENDBRANCH   9  14
BRANCH  10  16
ATOM     16  O   UNL     1      61.440  83.093  75.645  1.00  0.00    -0.504 OA
ATOM     17  H   UNL     1      60.989  83.924  75.473  1.00  0.00     0.293 HD
ENDBRANCH  10  16
ENDBRANCH   7   8
ENDBRANCH   4   7
ENDBRANCH   2   3
ENDBRANCH   1   2
BRANCH   1  18
ATOM     18  C   UNL     1      62.629  84.791  68.954  1.00  0.00     0.001 C 
BRANCH  18  19
ATOM     19  C   UNL     1      62.545  86.321  68.722  1.00  0.00     0.004 C 
BRANCH  19  20
ATOM     20  C   UNL     1      61.139  86.873  69.089  1.00  0.00     0.027 C 
BRANCH  20  21
ATOM     21  C   UNL     1      60.409  86.037  70.027  1.00  0.00    -0.031 C 
ATOM     22  C   UNL     1      59.728  86.549  71.068  1.00  0.00    -0.028 C 
BRANCH  22  23
ATOM     23  C   UNL     1      58.981  85.737  72.025  1.00  0.00     0.005 C 
ATOM     24  C   UNL     1      58.306  84.540  71.303  1.00  0.00     0.012 C 
ATOM     25  C   UNL     1      59.910  85.279  73.181  1.00  0.00     0.012 C 
ENDBRANCH  22  23
ENDBRANCH  20  21
ENDBRANCH  19  20
ENDBRANCH  18  19
ENDBRANCH   1  18
TORSDOF 11
ENDMDL
MODEL 6
REMARK VINA RESULT:    -5.224     31.108     34.796
REMARK INTER + INTRA:          -9.666
REMARK INTER:                  -8.466
REMARK INTRA:                  -1.200
REMARK UNBOUND:                -1.236
REMARK SMILES COc1cc(CNC(=O)CCCCC/C=C/C(C)C)ccc1O
REMARK SMILES IDX 11 1 10 2 8 3 7 4 9 6 6 7 5 8 3 9 22 10 4 11 21 12 20 13
REMARK SMILES IDX 2 14 1 15 23 16 12 18 13 19 14 20 15 21 16 22 17 23 18 24
REMARK SMILES IDX 19 25
REMARK H PARENT 7 5 23 17
REMARK Flexibility Score: inf
ROOT
ATOM      1  C   UNL     1      85.468  66.097  75.341  1.00  0.00     0.010 C 
ENDROOT
BRANCH   1   2
ATOM      2  C   UNL     1      85.802  67.469  74.700  1.00  0.00     0.100 C 
BRANCH   2   3
ATOM      3  C   UNL     1      85.768  67.467  73.226  1.00  0.00     0.220 C 
ATOM      4  N   UNL     1      85.470  68.612  72.553  1.00  0.00    -0.352 N 
ATOM      5  H   UNL     1      85.214  69.393  73.142  1.00  0.00     0.163 HD
ATOM      6  O   UNL     1      86.059  66.405  72.625  1.00  0.00    -0.275 OA
BRANCH   4   7
ATOM      7  C   UNL     1      85.498  68.773  71.135  1.00  0.00     0.151 C 
BRANCH   7   8
ATOM      8  C   UNL     1      86.844  69.143  70.628  1.00  0.00    -0.025 A 
ATOM      9  C   UNL     1      89.005  68.506  69.641  1.00  0.00     0.160 A 
ATOM     10  C   UNL     1      89.432  69.850  69.710  1.00  0.00     0.157 A 
ATOM     11  C   UNL     1      87.720  68.162  70.108  1.00  0.00     0.056 A 
ATOM     12  C   UNL     1      88.562  70.838  70.209  1.00  0.00     0.050 A 
ATOM     13  C   UNL     1      87.274  70.489  70.655  1.00  0.00     0.009 A 
BRANCH   9  14
ATOM     14  O   UNL     1      89.809  67.552  69.076  1.00  0.00    -0.493 OA
ATOM     15  C   UNL     1      90.421  66.663  70.025  1.00  0.00     0.278 C 
ENDBRANCH   9  14
BRANCH  10  16
ATOM     16  O   UNL     1      90.670  70.219  69.298  1.00  0.00    -0.504 OA
ATOM     17  H   UNL     1      90.757  70.050  68.356  1.00  0.00     0.293 HD
ENDBRANCH  10  16
ENDBRANCH   7   8
ENDBRANCH   4   7
ENDBRANCH   2   3
ENDBRANCH   1   2
BRANCH   1  18
ATOM     18  C   UNL     1      83.960  65.990  75.680  1.00  0.00     0.001 C 
BRANCH  18  19
ATOM     19  C   UNL     1      83.154  65.130  74.674  1.00  0.00     0.004 C 
BRANCH  19  20
ATOM     20  C   UNL     1      82.113  65.987  73.901  1.00  0.00     0.027 C 
BRANCH  20  21
ATOM     21  C   UNL     1      81.859  65.519  72.550  1.00  0.00    -0.031 C 
ATOM     22  C   UNL     1      82.828  65.446  71.620  1.00  0.00    -0.028 C 
BRANCH  22  23
ATOM     23  C   UNL     1      82.605  64.976  70.255  1.00  0.00     0.005 C 
ATOM     24  C   UNL     1      83.208  63.558  70.070  1.00  0.00     0.012 C 
ATOM     25  C   UNL     1      81.092  65.022  69.911  1.00  0.00     0.012 C 
ENDBRANCH  22  23
ENDBRANCH  20  21
ENDBRANCH  19  20
ENDBRANCH  18  19
ENDBRANCH   1  18
TORSDOF 11
ENDMDL
MODEL 7
REMARK VINA RESULT:    -5.119      1.916      2.409
REMARK INTER + INTRA:          -9.496
REMARK INTER:                  -8.292
REMARK INTRA:                  -1.204
REMARK UNBOUND:                -1.236
REMARK SMILES COc1cc(CNC(=O)CCCCC/C=C/C(C)C)ccc1O
REMARK SMILES IDX 11 1 10 2 8 3 7 4 9 6 6 7 5 8 3 9 22 10 4 11 21 12 20 13
REMARK SMILES IDX 2 14 1 15 23 16 12 18 13 19 14 20 15 21 16 22 17 23 18 24
REMARK SMILES IDX 19 25
REMARK H PARENT 7 5 23 17
REMARK Flexibility Score: inf
ROOT
ATOM      1  C   UNL     1      89.763  99.843  71.424  1.00  0.00     0.010 C 
ENDROOT
BRANCH   1   2
ATOM      2  C   UNL     1      91.117 100.093  70.711  1.00  0.00     0.100 C 
BRANCH   2   3
ATOM      3  C   UNL     1      92.290 100.005  71.601  1.00  0.00     0.220 C 
ATOM      4  N   UNL     1      92.117 100.009  72.952  1.00  0.00    -0.352 N 
ATOM      5  H   UNL     1      91.163 100.150  73.254  1.00  0.00     0.163 HD
ATOM      6  O   UNL     1      93.425  99.887  71.081  1.00  0.00    -0.275 OA
BRANCH   4   7
ATOM      7  C   UNL     1      93.150  99.833  73.921  1.00  0.00     0.151 C 
BRANCH   7   8
ATOM      8  C   UNL     1      93.116 100.868  74.987  1.00  0.00    -0.025 A 
ATOM      9  C   UNL     1      92.115 102.885  75.975  1.00  0.00     0.160 A 
ATOM     10  C   UNL     1      93.091 102.869  76.994  1.00  0.00     0.157 A 
ATOM     11  C   UNL     1      92.140 101.891  74.975  1.00  0.00     0.056 A 
ATOM     12  C   UNL     1      94.057 101.847  77.025  1.00  0.00     0.050 A 
ATOM     13  C   UNL     1      94.063 100.847  76.035  1.00  0.00     0.009 A 
BRANCH   9  14
ATOM     14  O   UNL     1      91.118 103.825  75.985  1.00  0.00    -0.493 OA
ATOM     15  C   UNL     1      89.840 103.321  76.407  1.00  0.00     0.278 C 
ENDBRANCH   9  14
BRANCH  10  16
ATOM     16  O   UNL     1      93.120 103.824  77.958  1.00  0.00    -0.504 OA
ATOM     17  H   UNL     1      94.021 104.133  78.075  1.00  0.00     0.293 HD
ENDBRANCH  10  16
ENDBRANCH   7   8
ENDBRANCH   4   7
ENDBRANCH   2   3
ENDBRANCH   1   2
BRANCH   1  18
ATOM     18  C   UNL     1      89.223  98.423  71.116  1.00  0.00     0.001 C 
BRANCH  18  19
ATOM     19  C   UNL     1      89.529  97.938  69.676  1.00  0.00     0.004 C 
BRANCH  19  20
ATOM     20  C   UNL     1      88.332  98.205  68.721  1.00  0.00     0.027 C 
BRANCH  20  21
ATOM     21  C   UNL     1      88.315  99.549  68.168  1.00  0.00    -0.031 C 
ATOM     22  C   UNL     1      89.434 100.175  67.766  1.00  0.00    -0.028 C 
BRANCH  22  23
ATOM     23  C   UNL     1      89.450 101.522  67.201  1.00  0.00     0.005 C 
ATOM     24  C   UNL     1      88.704 102.508  68.139  1.00  0.00     0.012 C 
ATOM     25  C   UNL     1      90.909 101.969  66.916  1.00  0.00     0.012 C 
ENDBRANCH  22  23
ENDBRANCH  20  21
ENDBRANCH  19  20
ENDBRANCH  18  19
ENDBRANCH   1  18
TORSDOF 11
ENDMDL
MODEL 8
REMARK VINA RESULT:    -5.093     20.480     23.004
REMARK INTER + INTRA:          -9.455
REMARK INTER:                  -8.416
REMARK INTRA:                  -1.040
REMARK UNBOUND:                -1.236
REMARK SMILES COc1cc(CNC(=O)CCCCC/C=C/C(C)C)ccc1O
REMARK SMILES IDX 11 1 10 2 8 3 7 4 9 6 6 7 5 8 3 9 22 10 4 11 21 12 20 13
REMARK SMILES IDX 2 14 1 15 23 16 12 18 13 19 14 20 15 21 16 22 17 23 18 24
REMARK SMILES IDX 19 25
REMARK H PARENT 7 5 23 17
REMARK Flexibility Score: inf
ROOT
ATOM      1  C   UNL     1     104.080  81.221  79.411  1.00  0.00     0.010 C 
ENDROOT
BRANCH   1   2
ATOM      2  C   UNL     1     103.437  80.718  80.730  1.00  0.00     0.100 C 
BRANCH   2   3
ATOM      3  C   UNL     1     102.238  81.473  81.140  1.00  0.00     0.220 C 
ATOM      4  N   UNL     1     101.011  81.093  80.688  1.00  0.00    -0.352 N 
ATOM      5  H   UNL     1     101.024  80.334  80.021  1.00  0.00     0.163 HD
ATOM      6  O   UNL     1     102.381  82.432  81.935  1.00  0.00    -0.275 OA
BRANCH   4   7
ATOM      7  C   UNL     1      99.767  81.671  81.080  1.00  0.00     0.151 C 
BRANCH   7   8
ATOM      8  C   UNL     1      99.035  82.280  79.940  1.00  0.00    -0.025 A 
ATOM      9  C   UNL     1      98.767  82.643  77.522  1.00  0.00     0.160 A 
ATOM     10  C   UNL     1      97.665  83.489  77.772  1.00  0.00     0.157 A 
ATOM     11  C   UNL     1      99.448  82.053  78.606  1.00  0.00     0.056 A 
ATOM     12  C   UNL     1      97.234  83.709  79.093  1.00  0.00     0.050 A 
ATOM     13  C   UNL     1      97.908  83.101  80.169  1.00  0.00     0.009 A 
BRANCH   9  14
ATOM     14  O   UNL     1      99.139  82.352  76.236  1.00  0.00    -0.493 OA
ATOM     15  C   UNL     1      98.580  81.131  75.724  1.00  0.00     0.278 C 
ENDBRANCH   9  14
BRANCH  10  16
ATOM     16  O   UNL     1      97.000  84.099  76.758  1.00  0.00    -0.504 OA
ATOM     17  H   UNL     1      96.667  83.435  76.150  1.00  0.00     0.293 HD
ENDBRANCH  10  16
ENDBRANCH   7   8
ENDBRANCH   4   7
ENDBRANCH   2   3
ENDBRANCH   1   2
BRANCH   1  18
ATOM     18  C   UNL     1     103.017  81.857  78.479  1.00  0.00     0.001 C 
BRANCH  18  19
ATOM     19  C   UNL     1     103.198  81.487  76.985  1.00  0.00     0.004 C 
BRANCH  19  20
ATOM     20  C   UNL     1     104.181  82.460  76.275  1.00  0.00     0.027 C 
BRANCH  20  21
ATOM     21  C   UNL     1     103.533  83.370  75.346  1.00  0.00    -0.031 C 
ATOM     22  C   UNL     1     102.614  84.269  75.743  1.00  0.00    -0.028 C 
BRANCH  22  23
ATOM     23  C   UNL     1     101.949  85.201  74.836  1.00  0.00     0.005 C 
ATOM     24  C   UNL     1     102.149  84.753  73.363  1.00  0.00     0.012 C 
ATOM     25  C   UNL     1     100.449  85.338  75.212  1.00  0.00     0.012 C 
ENDBRANCH  22  23
ENDBRANCH  20  21
ENDBRANCH  19  20
ENDBRANCH  18  19
ENDBRANCH   1  18
TORSDOF 11
ENDMDL
MODEL 9
REMARK VINA RESULT:    -5.091     21.211     24.024
REMARK INTER + INTRA:          -9.452
REMARK INTER:                  -8.753
REMARK INTRA:                  -0.698
REMARK UNBOUND:                -1.236
REMARK SMILES COc1cc(CNC(=O)CCCCC/C=C/C(C)C)ccc1O
REMARK SMILES IDX 11 1 10 2 8 3 7 4 9 6 6 7 5 8 3 9 22 10 4 11 21 12 20 13
REMARK SMILES IDX 2 14 1 15 23 16 12 18 13 19 14 20 15 21 16 22 17 23 18 24
REMARK SMILES IDX 19 25
REMARK H PARENT 7 5 23 17
REMARK Flexibility Score: inf
ROOT
ATOM      1  C   UNL     1      97.956  80.470  84.312  1.00  0.00     0.010 C 
ENDROOT
BRANCH   1   2
ATOM      2  C   UNL     1      99.357  79.974  83.870  1.00  0.00     0.100 C 
BRANCH   2   3
ATOM      3  C   UNL     1     100.122  80.959  83.084  1.00  0.00     0.220 C 
ATOM      4  N   UNL     1      99.580  81.494  81.955  1.00  0.00    -0.352 N 
ATOM      5  H   UNL     1      98.684  81.105  81.693  1.00  0.00     0.163 HD
ATOM      6  O   UNL     1     101.250  81.310  83.504  1.00  0.00    -0.275 OA
BRANCH   4   7
ATOM      7  C   UNL     1     100.167  82.522  81.159  1.00  0.00     0.151 C 
BRANCH   7   8
ATOM      8  C   UNL     1      99.335  82.879  79.981  1.00  0.00    -0.025 A 
ATOM      9  C   UNL     1      99.111  83.268  77.563  1.00  0.00     0.160 A 
ATOM     10  C   UNL     1      97.755  83.614  77.745  1.00  0.00     0.157 A 
ATOM     11  C   UNL     1      99.892  82.912  78.681  1.00  0.00     0.056 A 
ATOM     12  C   UNL     1      97.185  83.568  79.031  1.00  0.00     0.050 A 
ATOM     13  C   UNL     1      97.967  83.193  80.140  1.00  0.00     0.009 A 
BRANCH   9  14
ATOM     14  O   UNL     1      99.652  83.224  76.305  1.00  0.00    -0.493 OA
ATOM     15  C   UNL     1     100.757  84.122  76.109  1.00  0.00     0.278 C 
ENDBRANCH   9  14
BRANCH  10  16
ATOM     16  O   UNL     1      96.976  83.989  76.699  1.00  0.00    -0.504 OA
ATOM     17  H   UNL     1      97.441  83.816  75.877  1.00  0.00     0.293 HD
ENDBRANCH  10  16
ENDBRANCH   7   8
ENDBRANCH   4   7
ENDBRANCH   2   3
ENDBRANCH   1   2
BRANCH   1  18
ATOM     18  C   UNL     1      98.032  81.895  84.916  1.00  0.00     0.001 C 
BRANCH  18  19
ATOM     19  C   UNL     1      96.647  82.557  85.127  1.00  0.00     0.004 C 
BRANCH  19  20
ATOM     20  C   UNL     1      96.783  84.081  85.403  1.00  0.00     0.027 C 
BRANCH  20  21
ATOM     21  C   UNL     1      96.208  84.499  86.670  1.00  0.00    -0.031 C 
ATOM     22  C   UNL     1      95.297  83.758  87.326  1.00  0.00    -0.028 C 
BRANCH  22  23
ATOM     23  C   UNL     1      94.704  84.147  88.603  1.00  0.00     0.005 C 
ATOM     24  C   UNL     1      95.811  84.349  89.671  1.00  0.00     0.012 C 
ATOM     25  C   UNL     1      93.822  85.412  88.421  1.00  0.00     0.012 C 
ENDBRANCH  22  23
ENDBRANCH  20  21
ENDBRANCH  19  20
ENDBRANCH  18  19
ENDBRANCH   1  18
TORSDOF 11
ENDMDL
MODEL 10
REMARK VINA RESULT:    -5.091     28.808     31.265
REMARK INTER + INTRA:          -9.451
REMARK INTER:                  -8.599
REMARK INTRA:                  -0.852
REMARK UNBOUND:                -1.236
REMARK SMILES COc1cc(CNC(=O)CCCCC/C=C/C(C)C)ccc1O
REMARK SMILES IDX 11 1 10 2 8 3 7 4 9 6 6 7 5 8 3 9 22 10 4 11 21 12 20 13
REMARK SMILES IDX 2 14 1 15 23 16 12 18 13 19 14 20 15 21 16 22 17 23 18 24
REMARK SMILES IDX 19 25
REMARK H PARENT 7 5 23 17
REMARK Flexibility Score: inf
ROOT
ATOM      1  C   UNL     1      64.149  84.244  67.000  1.00  0.00     0.010 C 
ENDROOT
BRANCH   1   2
ATOM      2  C   UNL     1      63.184  83.097  67.396  1.00  0.00     0.100 C 
BRANCH   2   3
ATOM      3  C   UNL     1      63.716  82.197  68.436  1.00  0.00     0.220 C 
ATOM      4  N   UNL     1      63.803  82.627  69.725  1.00  0.00    -0.352 N 
ATOM      5  H   UNL     1      63.552  83.596  69.864  1.00  0.00     0.163 HD
ATOM      6  O   UNL     1      64.041  81.031  68.106  1.00  0.00    -0.275 OA
BRANCH   4   7
ATOM      7  C   UNL     1      64.206  81.832  70.840  1.00  0.00     0.151 C 
BRANCH   7   8
ATOM      8  C   UNL     1      63.440  82.146  72.073  1.00  0.00    -0.025 A 
ATOM      9  C   UNL     1      61.824  83.550  73.285  1.00  0.00     0.160 A 
ATOM     10  C   UNL     1      62.022  82.772  74.447  1.00  0.00     0.157 A 
ATOM     11  C   UNL     1      62.540  83.237  72.112  1.00  0.00     0.056 A 
ATOM     12  C   UNL     1      62.901  81.674  74.416  1.00  0.00     0.050 A 
ATOM     13  C   UNL     1      63.597  81.357  73.234  1.00  0.00     0.009 A 
BRANCH   9  14
ATOM     14  O   UNL     1      60.906  84.565  73.280  1.00  0.00    -0.493 OA
ATOM     15  C   UNL     1      61.466  85.866  73.526  1.00  0.00     0.278 C 
ENDBRANCH   9  14
BRANCH  10  16
ATOM     16  O   UNL     1      61.374  83.057  75.604  1.00  0.00    -0.504 OA
ATOM     17  H   UNL     1      60.488  82.686  75.574  1.00  0.00     0.293 HD
ENDBRANCH  10  16
ENDBRANCH   7   8
ENDBRANCH   4   7
ENDBRANCH   2   3
ENDBRANCH   1   2
BRANCH   1  18
ATOM     18  C   UNL     1      65.567  83.700  66.689  1.00  0.00     0.001 C 
BRANCH  18  19
ATOM     19  C   UNL     1      66.690  84.385  67.508  1.00  0.00     0.004 C 
BRANCH  19  20
ATOM     20  C   UNL     1      68.034  83.614  67.381  1.00  0.00     0.027 C 
BRANCH  20  21
ATOM     21  C   UNL     1      68.983  83.916  68.439  1.00  0.00    -0.031 C 
ATOM     22  C   UNL     1      68.914  83.338  69.652  1.00  0.00    -0.028 C 
BRANCH  22  23
ATOM     23  C   UNL     1      69.855  83.615  70.735  1.00  0.00     0.005 C 
ATOM     24  C   UNL     1      71.033  84.482  70.215  1.00  0.00     0.012 C 
ATOM     25  C   UNL     1      69.118  84.278  71.930  1.00  0.00     0.012 C 
ENDBRANCH  22  23
ENDBRANCH  20  21
ENDBRANCH  19  20
ENDBRANCH  18  19
ENDBRANCH   1  18
TORSDOF 11
ENDMDL
