MODEL 1
REMARK VINA RESULT:    -6.329      0.000      0.000
REMARK INTER + INTRA:         -12.517
REMARK INTER:                 -11.138
REMARK INTRA:                  -1.379
REMARK UNBOUND:                -1.379
REMARK SMILES C=C(C)[C@]12C[C@@H](C)[C@@]34O[C@](Cc5ccccc5)(O[C@@H]1[C@@H]3C=C(COC(=O)Cc1ccc(O)c(OC)c1)C[C@]1(O)C(=O)C(C)=C[C@@H]41)O2
REMARK SMILES IDX 23 1 22 2 21 3 20 4 9 5 8 6 10 7 6 8 18 9 46 10 19 11 5 12
REMARK SMILES IDX 7 13 4 14 45 15 38 16 44 17 40 18 42 20 41 21 43 22 39 23
REMARK SMILES IDX 11 25 12 26 13 27 17 28 14 29 16 30 15 31 2 32 3 33 1 34
REMARK SMILES IDX 37 35 24 37 25 38 26 39 27 40 28 41 36 42 29 43 33 44 30 45
REMARK SMILES IDX 31 46 34 47 35 48 32 49
REMARK H PARENT 39 24 32 50
REMARK Flexibility Score: 90.00
ROOT
ATOM      1  C   UNL     1      97.426  93.807  80.772  1.00  0.00     0.264 C 
ENDROOT
BRANCH   1   2
ATOM      2  C   UNL     1      98.173  95.120  80.779  1.00  0.00    -0.033 C 
ATOM      3  C   UNL     1      99.313  95.234  80.067  1.00  0.00    -0.015 C 
BRANCH   3   4
ATOM      4  C   UNL     1     100.277  96.405  79.971  1.00  0.00     0.078 C 
ATOM      5  O   UNL     1      99.571  97.763  78.028  1.00  0.00    -0.319 OA
ATOM      6  C   UNL     1      99.722  97.794  79.481  1.00  0.00     0.095 C 
ATOM      7  C   UNL     1     100.654  97.145  77.308  1.00  0.00     0.289 C 
ATOM      8  C   UNL     1     100.786  98.901  79.873  1.00  0.00     0.023 C 
ATOM      9  O   UNL     1     100.863  95.803  77.741  1.00  0.00    -0.320 OA
ATOM     10  O   UNL     1     101.894  97.814  77.517  1.00  0.00    -0.313 OA
ATOM     11  C   UNL     1     101.452  96.043  79.029  1.00  0.00     0.170 C 
ATOM     12  C   UNL     1     102.241  98.342  79.811  1.00  0.00     0.049 C 
ATOM     13  C   UNL     1     100.706 100.208  79.068  1.00  0.00     0.011 C 
ATOM     14  C   UNL     1     102.383  97.249  78.751  1.00  0.00     0.122 C 
BRANCH   6  15
ATOM     15  C   UNL     1      98.281  98.032  80.017  1.00  0.00     0.086 C 
ATOM     16  C   UNL     1      98.031  97.647  81.490  1.00  0.00     0.140 CG0
ATOM     17  C   UNL     1      97.671  99.401  79.905  1.00  0.00    -0.010 C 
ATOM     18  C   UNL     1      97.025  98.689  81.933  1.00  0.00     0.190 C 
ATOM     19  G   UNL     1      97.498  96.222  81.631  1.00  0.00     0.000 G0
ATOM     20  C   UNL     1      96.936  99.788  80.954  1.00  0.00    -0.008 C 
ATOM     21  O   UNL     1      96.399  98.667  82.982  1.00  0.00    -0.291 OA
ATOM     22  C   UNL     1      96.135 101.013  81.154  1.00  0.00     0.048 C 
BRANCH  16  23
ATOM     23  O   UNL     1      99.145  97.870  82.338  1.00  0.00    -0.381 OA
ATOM     24  H   UNL     1      98.851  98.397  83.100  1.00  0.00     0.212 HD
ENDBRANCH  16  23
ENDBRANCH   6  15
BRANCH   7  25
ATOM     25  C   UNL     1     100.313  97.159  75.832  1.00  0.00     0.135 C 
BRANCH  25  26
ATOM     26  C   UNL     1      98.936  97.717  75.575  1.00  0.00    -0.040 A 
ATOM     27  C   UNL     1      98.775  99.075  75.296  1.00  0.00     0.004 A 
ATOM     28  C   UNL     1      97.823  96.877  75.614  1.00  0.00     0.004 A 
ATOM     29  C   UNL     1      97.501  99.592  75.058  1.00  0.00     0.000 A 
ATOM     30  C   UNL     1      96.549  97.394  75.376  1.00  0.00     0.000 A 
ATOM     31  C   UNL     1      96.389  98.752  75.099  1.00  0.00     0.000 A 
ENDBRANCH  25  26
ENDBRANCH   7  25
BRANCH  14  32
ATOM     32  C   UNL     1     103.802  96.828  78.547  1.00  0.00    -0.046 C 
ATOM     33  C   UNL     1     104.565  96.450  79.781  1.00  0.00     0.042 C 
ATOM     34  C   UNL     1     104.362  96.790  77.328  1.00  0.00     0.010 C 
ENDBRANCH  14  32
ENDBRANCH   3   4
BRANCH   2  35
ATOM     35  C   UNL     1      97.498  96.184  81.623  1.00  0.00     0.078 CG0
ATOM     36  G   UNL     1      98.026  97.613  81.500  1.00  0.00     0.000 G0
ENDBRANCH   2  35
ENDBRANCH   1   2
BRANCH   1  37
ATOM     37  O   UNL     1      96.041  94.058  80.669  1.00  0.00    -0.461 OA
BRANCH  37  38
ATOM     38  C   UNL     1      95.268  93.021  80.200  1.00  0.00     0.310 C 
ATOM     39  O   UNL     1      94.725  92.178  80.900  1.00  0.00    -0.252 OA
BRANCH  38  40
ATOM     40  C   UNL     1      95.195  93.088  78.693  1.00  0.00     0.158 C 
BRANCH  40  41
ATOM     41  C   UNL     1      93.902  93.677  78.192  1.00  0.00    -0.033 A 
ATOM     42  C   UNL     1      92.775  92.867  78.049  1.00  0.00     0.054 A 
ATOM     43  C   UNL     1      93.832  95.033  77.871  1.00  0.00     0.008 A 
ATOM     44  C   UNL     1      91.578  93.413  77.585  1.00  0.00     0.160 A 
ATOM     45  C   UNL     1      92.634  95.579  77.408  1.00  0.00     0.050 A 
ATOM     46  C   UNL     1      91.508  94.769  77.264  1.00  0.00     0.157 A 
BRANCH  44  47
ATOM     47  O   UNL     1      90.485  92.612  77.449  1.00  0.00    -0.493 OA
ATOM     48  C   UNL     1      90.262  92.031  76.165  1.00  0.00     0.278 C 
ENDBRANCH  44  47
BRANCH  46  49
ATOM     49  O   UNL     1      90.345  95.313  76.812  1.00  0.00    -0.504 OA
ATOM     50  H   UNL     1      89.613  95.012  77.377  1.00  0.00     0.293 HD
ENDBRANCH  46  49
ENDBRANCH  40  41
ENDBRANCH  38  40
ENDBRANCH  37  38
ENDBRANCH   1  37
TORSDOF 11
ENDMDL
MODEL 2
REMARK VINA RESULT:    -6.324     14.487     18.382
REMARK INTER + INTRA:         -12.509
REMARK INTER:                 -11.688
REMARK INTRA:                  -0.821
REMARK UNBOUND:                -1.379
REMARK SMILES C=C(C)[C@]12C[C@@H](C)[C@@]34O[C@](Cc5ccccc5)(O[C@@H]1[C@@H]3C=C(COC(=O)Cc1ccc(O)c(OC)c1)C[C@]1(O)C(=O)C(C)=C[C@@H]41)O2
REMARK SMILES IDX 23 1 22 2 21 3 20 4 9 5 8 6 10 7 6 8 18 9 46 10 19 11 5 12
REMARK SMILES IDX 7 13 4 14 45 15 38 16 44 17 40 18 42 20 41 21 43 22 39 23
REMARK SMILES IDX 11 25 12 26 13 27 17 28 14 29 16 30 15 31 2 32 3 33 1 34
REMARK SMILES IDX 37 35 24 37 25 38 26 39 27 40 28 41 36 42 29 43 33 44 30 45
REMARK SMILES IDX 31 46 34 47 35 48 32 49
REMARK H PARENT 39 24 32 50
REMARK Flexibility Score: 90.00
ROOT
ATOM      1  C   UNL     1      97.406  79.493  81.777  1.00  0.00     0.264 C 
ENDROOT
BRANCH   1   2
ATOM      2  C   UNL     1      97.325  79.758  83.262  1.00  0.00    -0.033 C 
ATOM      3  C   UNL     1      96.279  80.455  83.751  1.00  0.00    -0.015 C 
BRANCH   3   4
ATOM      4  C   UNL     1      96.007  80.914  85.174  1.00  0.00     0.078 C 
ATOM      5  O   UNL     1      94.656  79.147  86.256  1.00  0.00    -0.319 OA
ATOM      6  C   UNL     1      95.947  79.829  86.313  1.00  0.00     0.095 C 
ATOM      7  C   UNL     1      93.517  80.001  86.036  1.00  0.00     0.289 C 
ATOM      8  C   UNL     1      96.081  80.582  87.701  1.00  0.00     0.023 C 
ATOM      9  O   UNL     1      93.656  80.748  84.831  1.00  0.00    -0.320 OA
ATOM     10  O   UNL     1      93.358  80.967  87.072  1.00  0.00    -0.313 OA
ATOM     11  C   UNL     1      94.666  81.687  85.230  1.00  0.00     0.170 C 
ATOM     12  C   UNL     1      95.424  81.996  87.650  1.00  0.00     0.049 C 
ATOM     13  C   UNL     1      95.548  79.815  88.922  1.00  0.00     0.011 C 
ATOM     14  C   UNL     1      94.243  82.036  86.679  1.00  0.00     0.122 C 
BRANCH   6  15
ATOM     15  C   UNL     1      96.992  78.704  86.059  1.00  0.00     0.086 C 
ATOM     16  C   UNL     1      98.387  79.166  85.589  1.00  0.00     0.140 CG0
ATOM     17  C   UNL     1      97.300  77.723  87.155  1.00  0.00    -0.010 C 
ATOM     18  C   UNL     1      99.303  78.149  86.238  1.00  0.00     0.190 C 
ATOM     19  G   UNL     1      98.509  79.175  84.066  1.00  0.00     0.000 G0
ATOM     20  C   UNL     1      98.585  77.370  87.264  1.00  0.00    -0.008 C 
ATOM     21  O   UNL     1     100.492  78.011  85.996  1.00  0.00    -0.291 OA
ATOM     22  C   UNL     1      99.228  76.384  88.156  1.00  0.00     0.048 C 
BRANCH  16  23
ATOM     23  O   UNL     1      98.802  80.401  86.149  1.00  0.00    -0.381 OA
ATOM     24  H   UNL     1      98.229  80.602  86.907  1.00  0.00     0.212 HD
ENDBRANCH  16  23
ENDBRANCH   6  15
BRANCH   7  25
ATOM     25  C   UNL     1      92.279  79.131  85.961  1.00  0.00     0.135 C 
BRANCH  25  26
ATOM     26  C   UNL     1      91.012  79.951  85.954  1.00  0.00    -0.040 A 
ATOM     27  C   UNL     1      90.553  80.515  84.763  1.00  0.00     0.004 A 
ATOM     28  C   UNL     1      90.299  80.144  87.137  1.00  0.00     0.004 A 
ATOM     29  C   UNL     1      89.382  81.273  84.756  1.00  0.00     0.000 A 
ATOM     30  C   UNL     1      89.128  80.902  87.130  1.00  0.00     0.000 A 
ATOM     31  C   UNL     1      88.670  81.466  85.939  1.00  0.00     0.000 A 
ENDBRANCH  25  26
ENDBRANCH   7  25
BRANCH  14  32
ATOM     32  C   UNL     1      93.487  83.323  86.748  1.00  0.00    -0.046 C 
ATOM     33  C   UNL     1      94.254  84.517  87.233  1.00  0.00     0.042 C 
ATOM     34  C   UNL     1      92.195  83.406  86.396  1.00  0.00     0.010 C 
ENDBRANCH  14  32
ENDBRANCH   3   4
BRANCH   2  35
ATOM     35  C   UNL     1      98.487  79.166  84.036  1.00  0.00     0.078 CG0
ATOM     36  G   UNL     1      98.380  79.158  85.560  1.00  0.00     0.000 G0
ENDBRANCH   2  35
ENDBRANCH   1   2
BRANCH   1  37
ATOM     37  O   UNL     1      96.522  80.360  81.099  1.00  0.00    -0.461 OA
BRANCH  37  38
ATOM     38  C   UNL     1      97.081  81.488  80.545  1.00  0.00     0.310 C 
ATOM     39  O   UNL     1      96.903  82.630  80.946  1.00  0.00    -0.252 OA
BRANCH  38  40
ATOM     40  C   UNL     1      97.946  81.097  79.369  1.00  0.00     0.158 C 
BRANCH  40  41
ATOM     41  C   UNL     1      97.472  81.692  78.068  1.00  0.00    -0.033 A 
ATOM     42  C   UNL     1      98.256  81.572  76.920  1.00  0.00     0.054 A 
ATOM     43  C   UNL     1      96.251  82.363  78.011  1.00  0.00     0.008 A 
ATOM     44  C   UNL     1      97.818  82.122  75.715  1.00  0.00     0.160 A 
ATOM     45  C   UNL     1      95.812  82.914  76.807  1.00  0.00     0.050 A 
ATOM     46  C   UNL     1      96.596  82.794  75.659  1.00  0.00     0.157 A 
BRANCH  44  47
ATOM     47  O   UNL     1      98.592  81.999  74.601  1.00  0.00    -0.493 OA
ATOM     48  C   UNL     1      99.695  82.894  74.476  1.00  0.00     0.278 C 
ENDBRANCH  44  47
BRANCH  46  49
ATOM     49  O   UNL     1      96.157  83.335  74.489  1.00  0.00    -0.504 OA
ATOM     50  H   UNL     1      96.408  82.748  73.755  1.00  0.00     0.293 HD
ENDBRANCH  46  49
ENDBRANCH  40  41
ENDBRANCH  38  40
ENDBRANCH  37  38
ENDBRANCH   1  37
TORSDOF 11
ENDMDL
MODEL 3
REMARK VINA RESULT:    -6.313      6.949     10.669
REMARK INTER + INTRA:         -12.490
REMARK INTER:                 -11.935
REMARK INTRA:                  -0.555
REMARK UNBOUND:                -1.379
REMARK SMILES C=C(C)[C@]12C[C@@H](C)[C@@]34O[C@](Cc5ccccc5)(O[C@@H]1[C@@H]3C=C(COC(=O)Cc1ccc(O)c(OC)c1)C[C@]1(O)C(=O)C(C)=C[C@@H]41)O2
REMARK SMILES IDX 23 1 22 2 21 3 20 4 9 5 8 6 10 7 6 8 18 9 46 10 19 11 5 12
REMARK SMILES IDX 7 13 4 14 45 15 38 16 44 17 40 18 42 20 41 21 43 22 39 23
REMARK SMILES IDX 11 25 12 26 13 27 17 28 14 29 16 30 15 31 2 32 3 33 1 34
REMARK SMILES IDX 37 35 24 37 25 38 26 39 27 40 28 41 36 42 29 43 33 44 30 45
REMARK SMILES IDX 31 46 34 47 35 48 32 49
REMARK H PARENT 39 24 32 50
REMARK Flexibility Score: 90.00
ROOT
ATOM      1  C   UNL     1      96.094  99.503  72.529  1.00  0.00     0.264 C 
ENDROOT
BRANCH   1   2
ATOM      2  C   UNL     1      95.179 100.705  72.474  1.00  0.00    -0.033 C 
ATOM      3  C   UNL     1      94.341 100.847  71.427  1.00  0.00    -0.015 C 
BRANCH   3   4
ATOM      4  C   UNL     1      93.389 101.987  71.102  1.00  0.00     0.078 C 
ATOM      5  O   UNL     1      91.201 101.407  72.099  1.00  0.00    -0.319 OA
ATOM      6  C   UNL     1      92.294 102.375  72.164  1.00  0.00     0.095 C 
ATOM      7  C   UNL     1      90.792 101.027  70.772  1.00  0.00     0.289 C 
ATOM      8  C   UNL     1      91.744 103.811  71.783  1.00  0.00     0.023 C 
ATOM      9  O   UNL     1      91.881 100.487  70.029  1.00  0.00    -0.320 OA
ATOM     10  O   UNL     1      90.321 102.138  70.012  1.00  0.00    -0.313 OA
ATOM     11  C   UNL     1      92.637 101.683  69.783  1.00  0.00     0.170 C 
ATOM     12  C   UNL     1      91.743 104.032  70.239  1.00  0.00     0.049 C 
ATOM     13  C   UNL     1      90.358 104.158  72.350  1.00  0.00     0.011 C 
ATOM     14  C   UNL     1      91.528 102.722  69.480  1.00  0.00     0.122 C 
BRANCH   6  15
ATOM     15  C   UNL     1      92.853 102.234  73.609  1.00  0.00     0.086 C 
ATOM     16  C   UNL     1      94.287 102.754  73.838  1.00  0.00     0.140 CG0
ATOM     17  C   UNL     1      92.081 102.822  74.758  1.00  0.00    -0.010 C 
ATOM     18  C   UNL     1      94.220 103.285  75.254  1.00  0.00     0.190 C 
ATOM     19  G   UNL     1      95.333 101.652  73.675  1.00  0.00     0.000 G0
ATOM     20  C   UNL     1      92.822 103.395  75.712  1.00  0.00    -0.008 C 
ATOM     21  O   UNL     1      95.179 103.631  75.927  1.00  0.00    -0.291 OA
ATOM     22  C   UNL     1      92.417 103.991  77.002  1.00  0.00     0.048 C 
BRANCH  16  23
ATOM     23  O   UNL     1      94.613 103.896  73.063  1.00  0.00    -0.381 OA
ATOM     24  H   UNL     1      94.125 103.848  72.224  1.00  0.00     0.212 HD
ENDBRANCH  16  23
ENDBRANCH   6  15
BRANCH   7  25
ATOM     25  C   UNL     1      89.691  99.993  70.891  1.00  0.00     0.135 C 
BRANCH  25  26
ATOM     26  C   UNL     1      89.464  99.256  69.594  1.00  0.00    -0.040 A 
ATOM     27  C   UNL     1      89.825  97.913  69.484  1.00  0.00     0.004 A 
ATOM     28  C   UNL     1      88.893  99.916  68.507  1.00  0.00     0.004 A 
ATOM     29  C   UNL     1      89.616  97.230  68.285  1.00  0.00     0.000 A 
ATOM     30  C   UNL     1      88.684  99.234  67.308  1.00  0.00     0.000 A 
ATOM     31  C   UNL     1      89.046  97.891  67.198  1.00  0.00     0.000 A 
ENDBRANCH  25  26
ENDBRANCH   7  25
BRANCH  14  32
ATOM     32  C   UNL     1      91.341 102.932  68.013  1.00  0.00    -0.046 C 
ATOM     33  C   UNL     1      90.079 103.629  67.599  1.00  0.00     0.042 C 
ATOM     34  C   UNL     1      92.251 102.522  67.116  1.00  0.00     0.010 C 
ENDBRANCH  14  32
ENDBRANCH   3   4
BRANCH   2  35
ATOM     35  C   UNL     1      95.334 101.626  73.669  1.00  0.00     0.078 CG0
ATOM     36  G   UNL     1      94.283 102.720  73.848  1.00  0.00     0.000 G0
ENDBRANCH   2  35
ENDBRANCH   1   2
BRANCH   1  37
ATOM     37  O   UNL     1      95.321  98.335  72.702  1.00  0.00    -0.461 OA
BRANCH  37  38
ATOM     38  C   UNL     1      95.947  97.277  73.320  1.00  0.00     0.310 C 
ATOM     39  O   UNL     1      97.123  97.256  73.656  1.00  0.00    -0.252 OA
BRANCH  38  40
ATOM     40  C   UNL     1      94.960  96.151  73.515  1.00  0.00     0.158 C 
BRANCH  40  41
ATOM     41  C   UNL     1      94.827  95.730  74.956  1.00  0.00    -0.033 A 
ATOM     42  C   UNL     1      93.845  94.809  75.325  1.00  0.00     0.054 A 
ATOM     43  C   UNL     1      95.684  96.259  75.920  1.00  0.00     0.008 A 
ATOM     44  C   UNL     1      93.722  94.418  76.659  1.00  0.00     0.160 A 
ATOM     45  C   UNL     1      95.561  95.869  77.254  1.00  0.00     0.050 A 
ATOM     46  C   UNL     1      94.580  94.949  77.624  1.00  0.00     0.157 A 
BRANCH  44  47
ATOM     47  O   UNL     1      92.760  93.519  77.008  1.00  0.00    -0.493 OA
ATOM     48  C   UNL     1      91.668  93.355  76.104  1.00  0.00     0.278 C 
ENDBRANCH  44  47
BRANCH  46  49
ATOM     49  O   UNL     1      94.470  94.575  78.928  1.00  0.00    -0.504 OA
ATOM     50  H   UNL     1      93.550  94.700  79.217  1.00  0.00     0.293 HD
ENDBRANCH  46  49
ENDBRANCH  40  41
ENDBRANCH  38  40
ENDBRANCH  37  38
ENDBRANCH   1  37
TORSDOF 11
ENDMDL
MODEL 4
REMARK VINA RESULT:    -6.302      7.055     11.338
REMARK INTER + INTRA:         -12.469
REMARK INTER:                 -11.614
REMARK INTRA:                  -0.855
REMARK UNBOUND:                -1.379
REMARK SMILES C=C(C)[C@]12C[C@@H](C)[C@@]34O[C@](Cc5ccccc5)(O[C@@H]1[C@@H]3C=C(COC(=O)Cc1ccc(O)c(OC)c1)C[C@]1(O)C(=O)C(C)=C[C@@H]41)O2
REMARK SMILES IDX 23 1 22 2 21 3 20 4 9 5 8 6 10 7 6 8 18 9 46 10 19 11 5 12
REMARK SMILES IDX 7 13 4 14 45 15 38 16 44 17 40 18 42 20 41 21 43 22 39 23
REMARK SMILES IDX 11 25 12 26 13 27 17 28 14 29 16 30 15 31 2 32 3 33 1 34
REMARK SMILES IDX 37 35 24 37 25 38 26 39 27 40 28 41 36 42 29 43 33 44 30 45
REMARK SMILES IDX 31 46 34 47 35 48 32 49
REMARK H PARENT 39 24 32 50
REMARK Flexibility Score: 90.00
ROOT
ATOM      1  C   UNL     1      94.364  98.930  73.514  1.00  0.00     0.264 C 
ENDROOT
BRANCH   1   2
ATOM      2  C   UNL     1      94.217  99.479  72.114  1.00  0.00    -0.033 C 
ATOM      3  C   UNL     1      92.982  99.668  71.606  1.00  0.00    -0.015 C 
BRANCH   3   4
ATOM      4  C   UNL     1      92.571 100.128  70.217  1.00  0.00     0.078 C 
ATOM      5  O   UNL     1      92.310 102.586  70.320  1.00  0.00    -0.319 OA
ATOM      6  C   UNL     1      93.096 101.520  69.703  1.00  0.00     0.095 C 
ATOM      7  C   UNL     1      90.891 102.348  70.382  1.00  0.00     0.289 C 
ATOM      8  C   UNL     1      92.891 101.561  68.132  1.00  0.00     0.023 C 
ATOM      9  O   UNL     1      90.598 101.143  71.085  1.00  0.00    -0.320 OA
ATOM     10  O   UNL     1      90.312 102.190  69.089  1.00  0.00    -0.313 OA
ATOM     11  C   UNL     1      91.026 100.175  70.114  1.00  0.00     0.170 C 
ATOM     12  C   UNL     1      91.620 100.766  67.702  1.00  0.00     0.049 C 
ATOM     13  C   UNL     1      92.852 102.965  67.508  1.00  0.00     0.011 C 
ATOM     14  C   UNL     1      90.539 100.799  68.783  1.00  0.00     0.122 C 
BRANCH   6  15
ATOM     15  C   UNL     1      94.551 101.776  70.194  1.00  0.00     0.086 C 
ATOM     16  C   UNL     1      95.519 100.579  70.106  1.00  0.00     0.140 CG0
ATOM     17  C   UNL     1      95.340 102.909  69.600  1.00  0.00    -0.010 C 
ATOM     18  C   UNL     1      96.839 101.249  69.788  1.00  0.00     0.190 C 
ATOM     19  G   UNL     1      95.567  99.778  71.406  1.00  0.00     0.000 G0
ATOM     20  C   UNL     1      96.635 102.654  69.385  1.00  0.00    -0.008 C 
ATOM     21  O   UNL     1      97.932 100.705  69.806  1.00  0.00    -0.291 OA
ATOM     22  C   UNL     1      97.712 103.541  68.899  1.00  0.00     0.048 C 
BRANCH  16  23
ATOM     23  O   UNL     1      95.290  99.737  68.988  1.00  0.00    -0.381 OA
ATOM     24  H   UNL     1      95.051  98.853  69.313  1.00  0.00     0.212 HD
ENDBRANCH  16  23
ENDBRANCH   6  15
BRANCH   7  25
ATOM     25  C   UNL     1      90.242 103.523  71.086  1.00  0.00     0.135 C 
BRANCH  25  26
ATOM     26  C   UNL     1      90.339 103.406  72.587  1.00  0.00    -0.040 A 
ATOM     27  C   UNL     1      89.192 103.165  73.343  1.00  0.00     0.004 A 
ATOM     28  C   UNL     1      91.576 103.537  73.218  1.00  0.00     0.004 A 
ATOM     29  C   UNL     1      89.282 103.057  74.732  1.00  0.00     0.000 A 
ATOM     30  C   UNL     1      91.666 103.429  74.606  1.00  0.00     0.000 A 
ATOM     31  C   UNL     1      90.518 103.189  75.362  1.00  0.00     0.000 A 
ENDBRANCH  25  26
ENDBRANCH   7  25
BRANCH  14  32
ATOM     32  C   UNL     1      89.249 100.202  68.323  1.00  0.00    -0.046 C 
ATOM     33  C   UNL     1      88.357 101.095  67.512  1.00  0.00     0.042 C 
ATOM     34  C   UNL     1      88.906  98.939  68.618  1.00  0.00     0.010 C 
ENDBRANCH  14  32
ENDBRANCH   3   4
BRANCH   2  35
ATOM     35  C   UNL     1      95.548  99.764  71.444  1.00  0.00     0.078 CG0
ATOM     36  G   UNL     1      95.518 100.560  70.140  1.00  0.00     0.000 G0
ENDBRANCH   2  35
ENDBRANCH   1   2
BRANCH   1  37
ATOM     37  O   UNL     1      94.271  97.522  73.475  1.00  0.00    -0.461 OA
BRANCH  37  38
ATOM     38  C   UNL     1      94.880  96.844  74.505  1.00  0.00     0.310 C 
ATOM     39  O   UNL     1      95.472  97.368  75.438  1.00  0.00    -0.252 OA
BRANCH  38  40
ATOM     40  C   UNL     1      94.704  95.357  74.304  1.00  0.00     0.158 C 
BRANCH  40  41
ATOM     41  C   UNL     1      94.024  94.683  75.468  1.00  0.00    -0.033 A 
ATOM     42  C   UNL     1      94.789  94.064  76.458  1.00  0.00     0.054 A 
ATOM     43  C   UNL     1      92.633  94.677  75.556  1.00  0.00     0.008 A 
ATOM     44  C   UNL     1      94.160  93.440  77.536  1.00  0.00     0.160 A 
ATOM     45  C   UNL     1      92.004  94.053  76.633  1.00  0.00     0.050 A 
ATOM     46  C   UNL     1      92.767  93.434  77.623  1.00  0.00     0.157 A 
BRANCH  44  47
ATOM     47  O   UNL     1      94.916  92.839  78.496  1.00  0.00    -0.493 OA
ATOM     48  C   UNL     1      96.229  93.357  78.706  1.00  0.00     0.278 C 
ENDBRANCH  44  47
BRANCH  46  49
ATOM     49  O   UNL     1      92.143  92.829  78.671  1.00  0.00    -0.504 OA
ATOM     50  H   UNL     1      92.647  93.002  79.483  1.00  0.00     0.293 HD
ENDBRANCH  46  49
ENDBRANCH  40  41
ENDBRANCH  38  40
ENDBRANCH  37  38
ENDBRANCH   1  37
TORSDOF 11
ENDMDL
MODEL 5
REMARK VINA RESULT:    -6.074      1.531      2.162
REMARK INTER + INTRA:         -12.068
REMARK INTER:                 -10.609
REMARK INTRA:                  -1.460
REMARK UNBOUND:                -1.379
REMARK SMILES C=C(C)[C@]12C[C@@H](C)[C@@]34O[C@](Cc5ccccc5)(O[C@@H]1[C@@H]3C=C(COC(=O)Cc1ccc(O)c(OC)c1)C[C@]1(O)C(=O)C(C)=C[C@@H]41)O2
REMARK SMILES IDX 23 1 22 2 21 3 20 4 9 5 8 6 10 7 6 8 18 9 46 10 19 11 5 12
REMARK SMILES IDX 7 13 4 14 45 15 38 16 44 17 40 18 42 20 41 21 43 22 39 23
REMARK SMILES IDX 11 25 12 26 13 27 17 28 14 29 16 30 15 31 2 32 3 33 1 34
REMARK SMILES IDX 37 35 24 37 25 38 26 39 27 40 28 41 36 42 29 43 33 44 30 45
REMARK SMILES IDX 31 46 34 47 35 48 32 49
REMARK H PARENT 39 24 32 50
REMARK Flexibility Score: 90.00
ROOT
ATOM      1  C   UNL     1      97.501  94.445  80.227  1.00  0.00     0.264 C 
ENDROOT
BRANCH   1   2
ATOM      2  C   UNL     1      98.013  95.846  80.462  1.00  0.00    -0.033 C 
ATOM      3  C   UNL     1      98.667  96.484  79.470  1.00  0.00    -0.015 C 
BRANCH   3   4
ATOM      4  C   UNL     1      99.338  97.848  79.477  1.00  0.00     0.078 C 
ATOM      5  O   UNL     1      97.660  99.481  78.681  1.00  0.00    -0.319 OA
ATOM      6  C   UNL     1      98.468  99.109  79.839  1.00  0.00     0.095 C 
ATOM      7  C   UNL     1      98.342  99.438  77.413  1.00  0.00     0.289 C 
ATOM      8  C   UNL     1      99.461 100.293  80.188  1.00  0.00     0.023 C 
ATOM      9  O   UNL     1      98.877  98.142  77.158  1.00  0.00    -0.320 OA
ATOM     10  O   UNL     1      99.454 100.329  77.367  1.00  0.00    -0.313 OA
ATOM     11  C   UNL     1      99.969  98.131  78.091  1.00  0.00     0.170 C 
ATOM     12  C   UNL     1     100.771 100.207  79.345  1.00  0.00     0.049 C 
ATOM     13  C   UNL     1      98.869 101.707  80.070  1.00  0.00     0.011 C 
ATOM     14  C   UNL     1     100.521  99.574  77.975  1.00  0.00     0.122 C 
BRANCH   6  15
ATOM     15  C   UNL     1      97.427  98.762  80.944  1.00  0.00     0.086 C 
ATOM     16  C   UNL     1      97.937  97.888  82.108  1.00  0.00     0.140 CG0
ATOM     17  C   UNL     1      96.692  99.874  81.638  1.00  0.00    -0.010 C 
ATOM     18  C   UNL     1      97.149  98.421  83.286  1.00  0.00     0.190 C 
ATOM     19  G   UNL     1      97.689  96.400  81.863  1.00  0.00     0.000 G0
ATOM     20  C   UNL     1      96.496  99.700  82.949  1.00  0.00    -0.008 C 
ATOM     21  O   UNL     1      97.091  97.905  84.391  1.00  0.00    -0.291 OA
ATOM     22  C   UNL     1      95.753 100.531  83.919  1.00  0.00     0.048 C 
BRANCH  16  23
ATOM     23  O   UNL     1      99.287  98.135  82.463  1.00  0.00    -0.381 OA
ATOM     24  H   UNL     1      99.328  98.299  83.420  1.00  0.00     0.212 HD
ENDBRANCH  16  23
ENDBRANCH   6  15
BRANCH   7  25
ATOM     25  C   UNL     1      97.352  99.806  76.327  1.00  0.00     0.135 C 
BRANCH  25  26
ATOM     26  C   UNL     1      96.975  98.617  75.479  1.00  0.00    -0.040 A 
ATOM     27  C   UNL     1      96.140  97.627  75.999  1.00  0.00     0.004 A 
ATOM     28  C   UNL     1      97.459  98.507  74.176  1.00  0.00     0.004 A 
ATOM     29  C   UNL     1      95.790  96.527  75.216  1.00  0.00     0.000 A 
ATOM     30  C   UNL     1      97.109  97.407  73.392  1.00  0.00     0.000 A 
ATOM     31  C   UNL     1      96.275  96.417  73.913  1.00  0.00     0.000 A 
ENDBRANCH  25  26
ENDBRANCH   7  25
BRANCH  14  32
ATOM     32  C   UNL     1     101.717  99.646  77.083  1.00  0.00    -0.046 C 
ATOM     33  C   UNL     1     102.569  98.414  77.015  1.00  0.00     0.042 C 
ATOM     34  C   UNL     1     102.013 100.751  76.382  1.00  0.00     0.010 C 
ENDBRANCH  14  32
ENDBRANCH   3   4
BRANCH   2  35
ATOM     35  C   UNL     1      97.698  96.371  81.850  1.00  0.00     0.078 CG0
ATOM     36  G   UNL     1      97.908  97.864  82.097  1.00  0.00     0.000 G0
ENDBRANCH   2  35
ENDBRANCH   1   2
BRANCH   1  37
ATOM     37  O   UNL     1      96.112  94.407  80.480  1.00  0.00    -0.461 OA
BRANCH  37  38
ATOM     38  C   UNL     1      95.488  93.200  80.264  1.00  0.00     0.310 C 
ATOM     39  O   UNL     1      95.155  92.415  81.141  1.00  0.00    -0.252 OA
BRANCH  38  40
ATOM     40  C   UNL     1      95.278  92.999  78.782  1.00  0.00     0.158 C 
BRANCH  40  41
ATOM     41  C   UNL     1      94.069  93.728  78.254  1.00  0.00    -0.033 A 
ATOM     42  C   UNL     1      92.948  93.009  77.837  1.00  0.00     0.054 A 
ATOM     43  C   UNL     1      94.070  95.121  78.184  1.00  0.00     0.008 A 
ATOM     44  C   UNL     1      91.829  93.684  77.349  1.00  0.00     0.160 A 
ATOM     45  C   UNL     1      92.951  95.796  77.696  1.00  0.00     0.050 A 
ATOM     46  C   UNL     1      91.831  95.078  77.278  1.00  0.00     0.157 A 
BRANCH  44  47
ATOM     47  O   UNL     1      90.741  92.972  76.944  1.00  0.00    -0.493 OA
ATOM     48  C   UNL     1      89.897  92.441  77.965  1.00  0.00     0.278 C 
ENDBRANCH  44  47
BRANCH  46  49
ATOM     49  O   UNL     1      90.744  95.748  76.805  1.00  0.00    -0.504 OA
ATOM     50  H   UNL     1      89.942  95.383  77.218  1.00  0.00     0.293 HD
ENDBRANCH  46  49
ENDBRANCH  40  41
ENDBRANCH  38  40
ENDBRANCH  37  38
ENDBRANCH   1  37
TORSDOF 11
ENDMDL
MODEL 6
REMARK VINA RESULT:    -5.984      8.294     11.693
REMARK INTER + INTRA:         -11.910
REMARK INTER:                  -9.992
REMARK INTRA:                  -1.919
REMARK UNBOUND:                -1.379
REMARK SMILES C=C(C)[C@]12C[C@@H](C)[C@@]34O[C@](Cc5ccccc5)(O[C@@H]1[C@@H]3C=C(COC(=O)Cc1ccc(O)c(OC)c1)C[C@]1(O)C(=O)C(C)=C[C@@H]41)O2
REMARK SMILES IDX 23 1 22 2 21 3 20 4 9 5 8 6 10 7 6 8 18 9 46 10 19 11 5 12
REMARK SMILES IDX 7 13 4 14 45 15 38 16 44 17 40 18 42 20 41 21 43 22 39 23
REMARK SMILES IDX 11 25 12 26 13 27 17 28 14 29 16 30 15 31 2 32 3 33 1 34
REMARK SMILES IDX 37 35 24 37 25 38 26 39 27 40 28 41 36 42 29 43 33 44 30 45
REMARK SMILES IDX 31 46 34 47 35 48 32 49
REMARK H PARENT 39 24 32 50
REMARK Flexibility Score: 90.00
ROOT
ATOM      1  C   UNL     1      89.571  99.169  70.546  1.00  0.00     0.264 C 
ENDROOT
BRANCH   1   2
ATOM      2  C   UNL     1      90.635 100.051  71.157  1.00  0.00    -0.033 C 
ATOM      3  C   UNL     1      91.832  99.518  71.471  1.00  0.00    -0.015 C 
BRANCH   3   4
ATOM      4  C   UNL     1      93.026 100.164  72.156  1.00  0.00     0.078 C 
ATOM      5  O   UNL     1      94.488 101.052  70.369  1.00  0.00    -0.319 OA
ATOM      6  C   UNL     1      93.658 101.450  71.504  1.00  0.00     0.095 C 
ATOM      7  C   UNL     1      95.316  99.894  70.587  1.00  0.00     0.289 C 
ATOM      8  C   UNL     1      94.567 102.145  72.599  1.00  0.00     0.023 C 
ATOM      9  O   UNL     1      94.534  98.762  70.958  1.00  0.00    -0.320 OA
ATOM     10  O   UNL     1      96.245 100.085  71.650  1.00  0.00    -0.313 OA
ATOM     11  C   UNL     1      94.173  99.132  72.297  1.00  0.00     0.170 C 
ATOM     12  C   UNL     1      95.224 101.096  73.547  1.00  0.00     0.049 C 
ATOM     13  C   UNL     1      95.650 103.091  72.054  1.00  0.00     0.011 C 
ATOM     14  C   UNL     1      95.480  99.769  72.832  1.00  0.00     0.122 C 
BRANCH   6  15
ATOM     15  C   UNL     1      92.554 102.352  70.880  1.00  0.00     0.086 C 
ATOM     16  C   UNL     1      91.270 102.532  71.718  1.00  0.00     0.140 CG0
ATOM     17  C   UNL     1      92.897 103.753  70.461  1.00  0.00    -0.010 C 
ATOM     18  C   UNL     1      90.864 103.953  71.389  1.00  0.00     0.190 C 
ATOM     19  G   UNL     1      90.192 101.515  71.348  1.00  0.00     0.000 G0
ATOM     20  C   UNL     1      91.958 104.672  70.708  1.00  0.00    -0.008 C 
ATOM     21  O   UNL     1      89.798 104.472  71.685  1.00  0.00    -0.291 OA
ATOM     22  C   UNL     1      91.917 106.108  70.363  1.00  0.00     0.048 C 
BRANCH  16  23
ATOM     23  O   UNL     1      91.497 102.560  73.117  1.00  0.00    -0.381 OA
ATOM     24  H   UNL     1      91.326 101.673  73.474  1.00  0.00     0.212 HD
ENDBRANCH  16  23
ENDBRANCH   6  15
BRANCH   7  25
ATOM     25  C   UNL     1      96.068  99.599  69.305  1.00  0.00     0.135 C 
BRANCH  25  26
ATOM     26  C   UNL     1      97.248  98.689  69.538  1.00  0.00    -0.040 A 
ATOM     27  C   UNL     1      98.508  99.233  69.792  1.00  0.00     0.004 A 
ATOM     28  C   UNL     1      97.080  97.305  69.502  1.00  0.00     0.004 A 
ATOM     29  C   UNL     1      99.600  98.391  70.008  1.00  0.00     0.000 A 
ATOM     30  C   UNL     1      98.172  96.464  69.718  1.00  0.00     0.000 A 
ATOM     31  C   UNL     1      99.432  97.008  69.971  1.00  0.00     0.000 A 
ENDBRANCH  25  26
ENDBRANCH   7  25
BRANCH  14  32
ATOM     32  C   UNL     1      96.271  98.812  73.662  1.00  0.00    -0.046 C 
ATOM     33  C   UNL     1      97.763  98.936  73.575  1.00  0.00     0.042 C 
ATOM     34  C   UNL     1      95.681  97.893  74.442  1.00  0.00     0.010 C 
ENDBRANCH  14  32
ENDBRANCH   3   4
BRANCH   2  35
ATOM     35  C   UNL     1      90.186 101.490  71.333  1.00  0.00     0.078 CG0
ATOM     36  G   UNL     1      91.255 102.514  71.711  1.00  0.00     0.000 G0
ENDBRANCH   2  35
ENDBRANCH   1   2
BRANCH   1  37
ATOM     37  O   UNL     1      90.148  98.376  69.532  1.00  0.00    -0.461 OA
BRANCH  37  38
ATOM     38  C   UNL     1      89.475  98.338  68.332  1.00  0.00     0.310 C 
ATOM     39  O   UNL     1      89.447  97.380  67.572  1.00  0.00    -0.252 OA
BRANCH  38  40
ATOM     40  C   UNL     1      88.781  99.660  68.102  1.00  0.00     0.158 C 
BRANCH  40  41
ATOM     41  C   UNL     1      89.620 100.636  67.318  1.00  0.00    -0.033 A 
ATOM     42  C   UNL     1      89.520 102.004  67.574  1.00  0.00     0.054 A 
ATOM     43  C   UNL     1      90.496 100.172  66.337  1.00  0.00     0.008 A 
ATOM     44  C   UNL     1      90.297 102.907  66.849  1.00  0.00     0.160 A 
ATOM     45  C   UNL     1      91.272 101.076  65.611  1.00  0.00     0.050 A 
ATOM     46  C   UNL     1      91.173 102.443  65.866  1.00  0.00     0.157 A 
BRANCH  44  47
ATOM     47  O   UNL     1      90.191 104.240  67.107  1.00  0.00    -0.493 OA
ATOM     48  C   UNL     1      89.090 104.659  67.913  1.00  0.00     0.278 C 
ENDBRANCH  44  47
BRANCH  46  49
ATOM     49  O   UNL     1      91.937 103.315  65.153  1.00  0.00    -0.504 OA
ATOM     50  H   UNL     1      91.664 103.286  64.220  1.00  0.00     0.293 HD
ENDBRANCH  46  49
ENDBRANCH  40  41
ENDBRANCH  38  40
ENDBRANCH  37  38
ENDBRANCH   1  37
TORSDOF 11
ENDMDL
MODEL 7
REMARK VINA RESULT:    -5.868      7.492     10.992
REMARK INTER + INTRA:         -11.707
REMARK INTER:                 -12.037
REMARK INTRA:                   0.330
REMARK UNBOUND:                -1.379
REMARK SMILES C=C(C)[C@]12C[C@@H](C)[C@@]34O[C@](Cc5ccccc5)(O[C@@H]1[C@@H]3C=C(COC(=O)Cc1ccc(O)c(OC)c1)C[C@]1(O)C(=O)C(C)=C[C@@H]41)O2
REMARK SMILES IDX 23 1 22 2 21 3 20 4 9 5 8 6 10 7 6 8 18 9 46 10 19 11 5 12
REMARK SMILES IDX 7 13 4 14 45 15 38 16 44 17 40 18 42 20 41 21 43 22 39 23
REMARK SMILES IDX 11 25 12 26 13 27 17 28 14 29 16 30 15 31 2 32 3 33 1 34
REMARK SMILES IDX 37 35 24 37 25 38 26 39 27 40 28 41 36 42 29 43 33 44 30 45
REMARK SMILES IDX 31 46 34 47 35 48 32 49
REMARK H PARENT 39 24 32 50
REMARK Flexibility Score: 90.00
ROOT
ATOM      1  C   UNL     1      95.731  99.109  72.802  1.00  0.00     0.264 C 
ENDROOT
BRANCH   1   2
ATOM      2  C   UNL     1      94.953 100.349  72.427  1.00  0.00    -0.033 C 
ATOM      3  C   UNL     1      94.523 100.498  71.158  1.00  0.00    -0.015 C 
BRANCH   3   4
ATOM      4  C   UNL     1      93.797 101.669  70.516  1.00  0.00     0.078 C 
ATOM      5  O   UNL     1      91.374 101.210  70.708  1.00  0.00    -0.319 OA
ATOM      6  C   UNL     1      92.425 102.130  71.135  1.00  0.00     0.095 C 
ATOM      7  C   UNL     1      91.425 100.815  69.324  1.00  0.00     0.289 C 
ATOM      8  C   UNL     1      92.110 103.580  70.577  1.00  0.00     0.023 C 
ATOM      9  O   UNL     1      92.675 100.210  69.004  1.00  0.00    -0.320 OA
ATOM     10  O   UNL     1      91.298 101.926  68.440  1.00  0.00    -0.313 OA
ATOM     11  C   UNL     1      93.527 101.366  69.022  1.00  0.00     0.170 C 
ATOM     12  C   UNL     1      92.648 103.762  69.125  1.00  0.00     0.049 C 
ATOM     13  C   UNL     1      90.632 104.001  70.632  1.00  0.00     0.011 C 
ATOM     14  C   UNL     1      92.641 102.444  68.349  1.00  0.00     0.122 C 
BRANCH   6  15
ATOM     15  C   UNL     1      92.449 102.001  72.686  1.00  0.00     0.086 C 
ATOM     16  C   UNL     1      93.746 102.454  73.387  1.00  0.00     0.140 CG0
ATOM     17  C   UNL     1      91.366 102.659  73.496  1.00  0.00    -0.010 C 
ATOM     18  C   UNL     1      93.231 103.027  74.690  1.00  0.00     0.190 C 
ATOM     19  G   UNL     1      94.720 101.297  73.601  1.00  0.00     0.000 G0
ATOM     20  C   UNL     1      91.769 103.220  74.641  1.00  0.00    -0.008 C 
ATOM     21  O   UNL     1      93.921 103.342  75.647  1.00  0.00    -0.291 OA
ATOM     22  C   UNL     1      90.983 103.870  75.710  1.00  0.00     0.048 C 
BRANCH  16  23
ATOM     23  O   UNL     1      94.382 103.556  72.761  1.00  0.00    -0.381 OA
ATOM     24  H   UNL     1      93.937 103.727  71.914  1.00  0.00     0.212 HD
ENDBRANCH  16  23
ENDBRANCH   6  15
BRANCH   7  25
ATOM     25  C   UNL     1      90.300  99.833  69.068  1.00  0.00     0.135 C 
BRANCH  25  26
ATOM     26  C   UNL     1      89.261 100.396  68.130  1.00  0.00    -0.040 A 
ATOM     27  C   UNL     1      89.180 101.774  67.925  1.00  0.00     0.004 A 
ATOM     28  C   UNL     1      88.382  99.540  67.468  1.00  0.00     0.004 A 
ATOM     29  C   UNL     1      88.219 102.295  67.059  1.00  0.00     0.000 A 
ATOM     30  C   UNL     1      87.421 100.062  66.601  1.00  0.00     0.000 A 
ATOM     31  C   UNL     1      87.340 101.439  66.397  1.00  0.00     0.000 A 
ENDBRANCH  25  26
ENDBRANCH   7  25
BRANCH  14  32
ATOM     32  C   UNL     1      92.978 102.626  66.905  1.00  0.00    -0.046 C 
ATOM     33  C   UNL     1      92.147 103.622  66.151  1.00  0.00     0.042 C 
ATOM     34  C   UNL     1      93.967 101.938  66.315  1.00  0.00     0.010 C 
ENDBRANCH  14  32
ENDBRANCH   3   4
BRANCH   2  35
ATOM     35  C   UNL     1      94.747 101.298  73.592  1.00  0.00     0.078 CG0
ATOM     36  G   UNL     1      93.776 102.459  73.385  1.00  0.00     0.000 G0
ENDBRANCH   2  35
ENDBRANCH   1   2
BRANCH   1  37
ATOM     37  O   UNL     1      94.830  98.069  73.114  1.00  0.00    -0.461 OA
BRANCH  37  38
ATOM     38  C   UNL     1      95.392  96.858  73.449  1.00  0.00     0.310 C 
ATOM     39  O   UNL     1      95.603  95.942  72.667  1.00  0.00    -0.252 OA
BRANCH  38  40
ATOM     40  C   UNL     1      95.704  96.839  74.927  1.00  0.00     0.158 C 
BRANCH  40  41
ATOM     41  C   UNL     1      94.695  96.061  75.731  1.00  0.00    -0.033 A 
ATOM     42  C   UNL     1      95.121  95.226  76.765  1.00  0.00     0.054 A 
ATOM     43  C   UNL     1      93.335  96.176  75.443  1.00  0.00     0.008 A 
ATOM     44  C   UNL     1      94.187  94.506  77.510  1.00  0.00     0.160 A 
ATOM     45  C   UNL     1      92.401  95.455  76.188  1.00  0.00     0.050 A 
ATOM     46  C   UNL     1      92.826  94.621  77.221  1.00  0.00     0.157 A 
BRANCH  44  47
ATOM     47  O   UNL     1      94.615  93.694  78.517  1.00  0.00    -0.493 OA
ATOM     48  C   UNL     1      95.940  93.906  79.002  1.00  0.00     0.278 C 
ENDBRANCH  44  47
BRANCH  46  49
ATOM     49  O   UNL     1      91.905  93.924  77.942  1.00  0.00    -0.504 OA
ATOM     50  H   UNL     1      91.753  94.380  78.787  1.00  0.00     0.293 HD
ENDBRANCH  46  49
ENDBRANCH  40  41
ENDBRANCH  38  40
ENDBRANCH  37  38
ENDBRANCH   1  37
TORSDOF 11
ENDMDL
MODEL 8
REMARK VINA RESULT:    -5.838     14.646     19.027
REMARK INTER + INTRA:         -11.654
REMARK INTER:                 -10.640
REMARK INTRA:                  -1.014
REMARK UNBOUND:                -1.379
REMARK SMILES C=C(C)[C@]12C[C@@H](C)[C@@]34O[C@](Cc5ccccc5)(O[C@@H]1[C@@H]3C=C(COC(=O)Cc1ccc(O)c(OC)c1)C[C@]1(O)C(=O)C(C)=C[C@@H]41)O2
REMARK SMILES IDX 23 1 22 2 21 3 20 4 9 5 8 6 10 7 6 8 18 9 46 10 19 11 5 12
REMARK SMILES IDX 7 13 4 14 45 15 38 16 44 17 40 18 42 20 41 21 43 22 39 23
REMARK SMILES IDX 11 25 12 26 13 27 17 28 14 29 16 30 15 31 2 32 3 33 1 34
REMARK SMILES IDX 37 35 24 37 25 38 26 39 27 40 28 41 36 42 29 43 33 44 30 45
REMARK SMILES IDX 31 46 34 47 35 48 32 49
REMARK H PARENT 39 24 32 50
REMARK Flexibility Score: 90.00
ROOT
ATOM      1  C   UNL     1      98.701  78.544  81.036  1.00  0.00     0.264 C 
ENDROOT
BRANCH   1   2
ATOM      2  C   UNL     1      98.382  79.151  82.382  1.00  0.00    -0.033 C 
ATOM      3  C   UNL     1      97.109  79.140  82.826  1.00  0.00    -0.015 C 
BRANCH   3   4
ATOM      4  C   UNL     1      96.523  79.745  84.091  1.00  0.00     0.078 C 
ATOM      5  O   UNL     1      96.578  77.982  85.826  1.00  0.00    -0.319 OA
ATOM      6  C   UNL     1      97.114  79.297  85.479  1.00  0.00     0.095 C 
ATOM      7  C   UNL     1      95.172  77.803  85.568  1.00  0.00     0.289 C 
ATOM      8  C   UNL     1      96.648  80.354  86.563  1.00  0.00     0.023 C 
ATOM      9  O   UNL     1      94.863  78.039  84.197  1.00  0.00    -0.320 OA
ATOM     10  O   UNL     1      94.366  78.716  86.307  1.00  0.00    -0.313 OA
ATOM     11  C   UNL     1      95.000  79.468  84.150  1.00  0.00     0.170 C 
ATOM     12  C   UNL     1      95.237  80.929  86.231  1.00  0.00     0.049 C 
ATOM     13  C   UNL     1      96.670  79.860  88.019  1.00  0.00     0.011 C 
ATOM     14  C   UNL     1      94.369  79.908  85.495  1.00  0.00     0.122 C 
BRANCH   6  15
ATOM     15  C   UNL     1      98.651  79.075  85.379  1.00  0.00     0.086 C 
ATOM     16  C   UNL     1      99.437  80.122  84.564  1.00  0.00     0.140 CG0
ATOM     17  C   UNL     1      99.459  78.934  86.638  1.00  0.00    -0.010 C 
ATOM     18  C   UNL     1     100.755  80.191  85.306  1.00  0.00     0.190 C 
ATOM     19  G   UNL     1      99.610  79.707  83.103  1.00  0.00     0.000 G0
ATOM     20  C   UNL     1     100.657  79.526  86.619  1.00  0.00    -0.008 C 
ATOM     21  O   UNL     1     101.761  80.761  84.912  1.00  0.00    -0.291 OA
ATOM     22  C   UNL     1     101.735  79.526  87.630  1.00  0.00     0.048 C 
BRANCH  16  23
ATOM     23  O   UNL     1      98.920  81.438  84.670  1.00  0.00    -0.381 OA
ATOM     24  H   UNL     1      99.056  81.891  83.821  1.00  0.00     0.212 HD
ENDBRANCH  16  23
ENDBRANCH   6  15
BRANCH   7  25
ATOM     25  C   UNL     1      94.798  76.382  85.940  1.00  0.00     0.135 C 
BRANCH  25  26
ATOM     26  C   UNL     1      93.324  76.120  85.758  1.00  0.00    -0.040 A 
ATOM     27  C   UNL     1      92.772  76.099  84.477  1.00  0.00     0.004 A 
ATOM     28  C   UNL     1      92.513  75.897  86.870  1.00  0.00     0.004 A 
ATOM     29  C   UNL     1      91.408  75.856  84.309  1.00  0.00     0.000 A 
ATOM     30  C   UNL     1      91.149  75.654  86.702  1.00  0.00     0.000 A 
ATOM     31  C   UNL     1      90.597  75.634  85.421  1.00  0.00     0.000 A 
ENDBRANCH  25  26
ENDBRANCH   7  25
BRANCH  14  32
ATOM     32  C   UNL     1      92.958  80.368  85.328  1.00  0.00    -0.046 C 
ATOM     33  C   UNL     1      91.899  79.484  85.917  1.00  0.00     0.042 C 
ATOM     34  C   UNL     1      92.654  81.507  84.688  1.00  0.00     0.010 C 
ENDBRANCH  14  32
ENDBRANCH   3   4
BRANCH   2  35
ATOM     35  C   UNL     1      99.604  79.711  83.087  1.00  0.00     0.078 CG0
ATOM     36  G   UNL     1      99.440  80.121  84.549  1.00  0.00     0.000 G0
ENDBRANCH   2  35
ENDBRANCH   1   2
BRANCH   1  37
ATOM     37  O   UNL     1      97.912  79.166  80.045  1.00  0.00    -0.461 OA
BRANCH  37  38
ATOM     38  C   UNL     1      98.574  80.006  79.180  1.00  0.00     0.310 C 
ATOM     39  O   UNL     1      99.380  80.864  79.512  1.00  0.00    -0.252 OA
BRANCH  38  40
ATOM     40  C   UNL     1      98.152  79.704  77.761  1.00  0.00     0.158 C 
BRANCH  40  41
ATOM     41  C   UNL     1      97.465  80.867  77.092  1.00  0.00    -0.033 A 
ATOM     42  C   UNL     1      97.733  81.159  75.754  1.00  0.00     0.054 A 
ATOM     43  C   UNL     1      96.561  81.650  77.809  1.00  0.00     0.008 A 
ATOM     44  C   UNL     1      97.097  82.235  75.135  1.00  0.00     0.160 A 
ATOM     45  C   UNL     1      95.925  82.726  77.190  1.00  0.00     0.050 A 
ATOM     46  C   UNL     1      96.193  83.019  75.853  1.00  0.00     0.157 A 
BRANCH  44  47
ATOM     47  O   UNL     1      97.366  82.511  73.828  1.00  0.00    -0.493 OA
ATOM     48  C   UNL     1      98.564  83.235  73.553  1.00  0.00     0.278 C 
ENDBRANCH  44  47
BRANCH  46  49
ATOM     49  O   UNL     1      95.565  84.071  75.259  1.00  0.00    -0.504 OA
ATOM     50  H   UNL     1      94.632  83.840  75.110  1.00  0.00     0.293 HD
ENDBRANCH  46  49
ENDBRANCH  40  41
ENDBRANCH  38  40
ENDBRANCH  37  38
ENDBRANCH   1  37
TORSDOF 11
ENDMDL
MODEL 9
REMARK VINA RESULT:    -5.676      9.209     13.243
REMARK INTER + INTRA:         -11.369
REMARK INTER:                  -9.931
REMARK INTRA:                  -1.437
REMARK UNBOUND:                -1.379
REMARK SMILES C=C(C)[C@]12C[C@@H](C)[C@@]34O[C@](Cc5ccccc5)(O[C@@H]1[C@@H]3C=C(COC(=O)Cc1ccc(O)c(OC)c1)C[C@]1(O)C(=O)C(C)=C[C@@H]41)O2
REMARK SMILES IDX 23 1 22 2 21 3 20 4 9 5 8 6 10 7 6 8 18 9 46 10 19 11 5 12
REMARK SMILES IDX 7 13 4 14 45 15 38 16 44 17 40 18 42 20 41 21 43 22 39 23
REMARK SMILES IDX 11 25 12 26 13 27 17 28 14 29 16 30 15 31 2 32 3 33 1 34
REMARK SMILES IDX 37 35 24 37 25 38 26 39 27 40 28 41 36 42 29 43 33 44 30 45
REMARK SMILES IDX 31 46 34 47 35 48 32 49
REMARK H PARENT 39 24 32 50
REMARK Flexibility Score: 90.00
ROOT
ATOM      1  C   UNL     1      89.571  99.038  70.527  1.00  0.00     0.264 C 
ENDROOT
BRANCH   1   2
ATOM      2  C   UNL     1      90.584 100.135  70.754  1.00  0.00    -0.033 C 
ATOM      3  C   UNL     1      90.199 101.422  70.644  1.00  0.00    -0.015 C 
BRANCH   3   4
ATOM      4  C   UNL     1      91.031 102.690  70.747  1.00  0.00     0.078 C 
ATOM      5  O   UNL     1      90.927 103.431  73.105  1.00  0.00    -0.319 OA
ATOM      6  C   UNL     1      91.840 102.949  72.072  1.00  0.00     0.095 C 
ATOM      7  C   UNL     1      89.961 104.407  72.668  1.00  0.00     0.289 C 
ATOM      8  C   UNL     1      92.919 104.069  71.764  1.00  0.00     0.023 C 
ATOM      9  O   UNL     1      89.165 103.903  71.598  1.00  0.00    -0.320 OA
ATOM     10  O   UNL     1      90.577 105.590  72.165  1.00  0.00    -0.313 OA
ATOM     11  C   UNL     1      90.128 103.930  70.533  1.00  0.00     0.170 C 
ATOM     12  C   UNL     1      92.394 105.094  70.712  1.00  0.00     0.049 C 
ATOM     13  C   UNL     1      93.455 104.824  72.991  1.00  0.00     0.011 C 
ATOM     14  C   UNL     1      90.876 105.261  70.793  1.00  0.00     0.122 C 
BRANCH   6  15
ATOM     15  C   UNL     1      92.405 101.616  72.643  1.00  0.00     0.086 C 
ATOM     16  C   UNL     1      93.016 100.641  71.616  1.00  0.00     0.140 CG0
ATOM     17  C   UNL     1      93.434 101.661  73.738  1.00  0.00    -0.010 C 
ATOM     18  C   UNL     1      94.142 100.003  72.402  1.00  0.00     0.190 C 
ATOM     19  G   UNL     1      91.998  99.617  71.115  1.00  0.00     0.000 G0
ATOM     20  C   UNL     1      94.408 100.750  73.646  1.00  0.00    -0.008 C 
ATOM     21  O   UNL     1      94.791  99.030  72.048  1.00  0.00    -0.291 OA
ATOM     22  C   UNL     1      95.521 100.450  74.570  1.00  0.00     0.048 C 
BRANCH  16  23
ATOM     23  O   UNL     1      93.678 101.283  70.538  1.00  0.00    -0.381 OA
ATOM     24  H   UNL     1      94.088 100.602  69.981  1.00  0.00     0.212 HD
ENDBRANCH  16  23
ENDBRANCH   6  15
BRANCH   7  25
ATOM     25  C   UNL     1      89.074 104.758  73.845  1.00  0.00     0.135 C 
BRANCH  25  26
ATOM     26  C   UNL     1      89.727 104.427  75.164  1.00  0.00    -0.040 A 
ATOM     27  C   UNL     1      89.139 103.492  76.017  1.00  0.00     0.004 A 
ATOM     28  C   UNL     1      90.918 105.052  75.530  1.00  0.00     0.004 A 
ATOM     29  C   UNL     1      89.743 103.185  77.237  1.00  0.00     0.000 A 
ATOM     30  C   UNL     1      91.522 104.745  76.749  1.00  0.00     0.000 A 
ATOM     31  C   UNL     1      90.934 103.812  77.603  1.00  0.00     0.000 A 
ENDBRANCH  25  26
ENDBRANCH   7  25
BRANCH  14  32
ATOM     32  C   UNL     1      90.373 106.367  69.924  1.00  0.00    -0.046 C 
ATOM     33  C   UNL     1      88.907 106.347  69.609  1.00  0.00     0.042 C 
ATOM     34  C   UNL     1      91.186 107.324  69.452  1.00  0.00     0.010 C 
ENDBRANCH  14  32
ENDBRANCH   3   4
BRANCH   2  35
ATOM     35  C   UNL     1      91.964  99.607  71.100  1.00  0.00     0.078 CG0
ATOM     36  G   UNL     1      92.993 100.618  71.604  1.00  0.00     0.000 G0
ENDBRANCH   2  35
ENDBRANCH   1   2
BRANCH   1  37
ATOM     37  O   UNL     1      90.141  98.036  69.713  1.00  0.00    -0.461 OA
BRANCH  37  38
ATOM     38  C   UNL     1      89.560  97.850  68.480  1.00  0.00     0.310 C 
ATOM     39  O   UNL     1      89.747  96.884  67.753  1.00  0.00    -0.252 OA
BRANCH  38  40
ATOM     40  C   UNL     1      88.658  99.020  68.166  1.00  0.00     0.158 C 
BRANCH  40  41
ATOM     41  C   UNL     1      89.358 100.114  67.401  1.00  0.00    -0.033 A 
ATOM     42  C   UNL     1      88.955 101.441  67.554  1.00  0.00     0.054 A 
ATOM     43  C   UNL     1      90.410  99.800  66.540  1.00  0.00     0.008 A 
ATOM     44  C   UNL     1      89.603 102.453  66.846  1.00  0.00     0.160 A 
ATOM     45  C   UNL     1      91.058 100.812  65.832  1.00  0.00     0.050 A 
ATOM     46  C   UNL     1      90.655 102.138  65.985  1.00  0.00     0.157 A 
BRANCH  44  47
ATOM     47  O   UNL     1      89.200 103.744  67.004  1.00  0.00    -0.493 OA
ATOM     48  C   UNL     1      88.156 104.207  66.148  1.00  0.00     0.278 C 
ENDBRANCH  44  47
BRANCH  46  49
ATOM     49  O   UNL     1      91.296 103.118  65.289  1.00  0.00    -0.504 OA
ATOM     50  H   UNL     1      91.135 102.989  64.339  1.00  0.00     0.293 HD
ENDBRANCH  46  49
ENDBRANCH  40  41
ENDBRANCH  38  40
ENDBRANCH  37  38
ENDBRANCH   1  37
TORSDOF 11
ENDMDL
MODEL 10
REMARK VINA RESULT:    -5.468      2.616      7.203
REMARK INTER + INTRA:         -11.002
REMARK INTER:                 -10.753
REMARK INTRA:                  -0.248
REMARK UNBOUND:                -1.379
REMARK SMILES C=C(C)[C@]12C[C@@H](C)[C@@]34O[C@](Cc5ccccc5)(O[C@@H]1[C@@H]3C=C(COC(=O)Cc1ccc(O)c(OC)c1)C[C@]1(O)C(=O)C(C)=C[C@@H]41)O2
REMARK SMILES IDX 23 1 22 2 21 3 20 4 9 5 8 6 10 7 6 8 18 9 46 10 19 11 5 12
REMARK SMILES IDX 7 13 4 14 45 15 38 16 44 17 40 18 42 20 41 21 43 22 39 23
REMARK SMILES IDX 11 25 12 26 13 27 17 28 14 29 16 30 15 31 2 32 3 33 1 34
REMARK SMILES IDX 37 35 24 37 25 38 26 39 27 40 28 41 36 42 29 43 33 44 30 45
REMARK SMILES IDX 31 46 34 47 35 48 32 49
REMARK H PARENT 39 24 32 50
REMARK Flexibility Score: 90.00
ROOT
ATOM      1  C   UNL     1      96.210 100.613  81.698  1.00  0.00     0.264 C 
ENDROOT
BRANCH   1   2
ATOM      2  C   UNL     1      97.166  99.483  81.397  1.00  0.00    -0.033 C 
ATOM      3  C   UNL     1      96.674  98.280  81.040  1.00  0.00    -0.015 C 
BRANCH   3   4
ATOM      4  C   UNL     1      97.411  96.979  80.764  1.00  0.00     0.078 C 
ATOM      5  O   UNL     1      97.873  96.914  78.335  1.00  0.00    -0.319 OA
ATOM      6  C   UNL     1      98.518  96.968  79.645  1.00  0.00     0.095 C 
ATOM      7  C   UNL     1      96.760  96.006  78.233  1.00  0.00     0.289 C 
ATOM      8  C   UNL     1      99.395  95.665  79.851  1.00  0.00     0.023 C 
ATOM      9  O   UNL     1      95.751  96.316  79.190  1.00  0.00    -0.320 OA
ATOM     10  O   UNL     1      97.137  94.656  78.494  1.00  0.00    -0.313 OA
ATOM     11  C   UNL     1      96.397  95.869  80.392  1.00  0.00     0.170 C 
ATOM     12  C   UNL     1      98.542  94.483  80.407  1.00  0.00     0.049 C 
ATOM     13  C   UNL     1     100.178  95.194  78.615  1.00  0.00     0.011 C 
ATOM     14  C   UNL     1      97.090  94.562  79.933  1.00  0.00     0.122 C 
BRANCH   6  15
ATOM     15  C   UNL     1      99.306  98.310  79.636  1.00  0.00     0.086 C 
ATOM     16  C   UNL     1      99.682  98.888  81.016  1.00  0.00     0.140 CG0
ATOM     17  C   UNL     1     100.587  98.406  78.855  1.00  0.00    -0.010 C 
ATOM     18  C   UNL     1     101.019  99.543  80.742  1.00  0.00     0.190 C 
ATOM     19  G   UNL     1      98.639  99.879  81.530  1.00  0.00     0.000 G0
ATOM     20  C   UNL     1     101.560  99.116  79.437  1.00  0.00    -0.008 C 
ATOM     21  O   UNL     1     101.613 100.287  81.507  1.00  0.00    -0.291 OA
ATOM     22  C   UNL     1     102.899  99.484  78.935  1.00  0.00     0.048 C 
BRANCH  16  23
ATOM     23  O   UNL     1      99.982  97.901  81.989  1.00  0.00    -0.381 OA
ATOM     24  H   UNL     1     100.936  97.928  82.170  1.00  0.00     0.212 HD
ENDBRANCH  16  23
ENDBRANCH   6  15
BRANCH   7  25
ATOM     25  C   UNL     1      96.189  96.110  76.833  1.00  0.00     0.135 C 
BRANCH  25  26
ATOM     26  C   UNL     1      94.911  95.323  76.685  1.00  0.00    -0.040 A 
ATOM     27  C   UNL     1      93.990  95.284  77.732  1.00  0.00     0.004 A 
ATOM     28  C   UNL     1      94.648  94.634  75.501  1.00  0.00     0.004 A 
ATOM     29  C   UNL     1      92.807  94.557  77.595  1.00  0.00     0.000 A 
ATOM     30  C   UNL     1      93.466  93.907  75.364  1.00  0.00     0.000 A 
ATOM     31  C   UNL     1      92.546  93.868  76.412  1.00  0.00     0.000 A 
ENDBRANCH  25  26
ENDBRANCH   7  25
BRANCH  14  32
ATOM     32  C   UNL     1      96.300  93.349  80.299  1.00  0.00    -0.046 C 
ATOM     33  C   UNL     1      96.281  92.985  81.754  1.00  0.00     0.042 C 
ATOM     34  C   UNL     1      95.643  92.625  79.380  1.00  0.00     0.010 C 
ENDBRANCH  14  32
ENDBRANCH   3   4
BRANCH   2  35
ATOM     35  C   UNL     1      98.623  99.883  81.540  1.00  0.00     0.078 CG0
ATOM     36  G   UNL     1      99.671  98.907  81.006  1.00  0.00     0.000 G0
ENDBRANCH   2  35
ENDBRANCH   1   2
BRANCH   1  37
ATOM     37  O   UNL     1      96.356 101.002  83.047  1.00  0.00    -0.461 OA
BRANCH  37  38
ATOM     38  C   UNL     1      95.193 101.254  83.737  1.00  0.00     0.310 C 
ATOM     39  O   UNL     1      94.140 101.615  83.230  1.00  0.00    -0.252 OA
BRANCH  38  40
ATOM     40  C   UNL     1      95.420 101.018  85.212  1.00  0.00     0.158 C 
BRANCH  40  41
ATOM     41  C   UNL     1      96.448  99.951  85.485  1.00  0.00    -0.033 A 
ATOM     42  C   UNL     1      96.078  98.780  86.147  1.00  0.00     0.054 A 
ATOM     43  C   UNL     1      97.768 100.134  85.077  1.00  0.00     0.008 A 
ATOM     44  C   UNL     1      97.029  97.791  86.400  1.00  0.00     0.160 A 
ATOM     45  C   UNL     1      98.720  99.146  85.330  1.00  0.00     0.050 A 
ATOM     46  C   UNL     1      98.351  97.975  85.992  1.00  0.00     0.157 A 
BRANCH  44  47
ATOM     47  O   UNL     1      96.656  96.653  87.047  1.00  0.00    -0.493 OA
ATOM     48  C   UNL     1      95.923  96.807  88.262  1.00  0.00     0.278 C 
ENDBRANCH  44  47
BRANCH  46  49
ATOM     49  O   UNL     1      99.288  97.017  86.232  1.00  0.00    -0.504 OA
ATOM     50  H   UNL     1     100.163  97.437  86.290  1.00  0.00     0.293 HD
ENDBRANCH  46  49
ENDBRANCH  40  41
ENDBRANCH  38  40
ENDBRANCH  37  38
ENDBRANCH   1  37
TORSDOF 11
ENDMDL
