MODEL 1
REMARK VINA RESULT:    -7.349      0.000      0.000
REMARK INTER + INTRA:         -13.043
REMARK INTER:                 -11.430
REMARK INTRA:                  -1.613
REMARK UNBOUND:                -1.613
REMARK SMILES CCCCC/C=C/C(=O)CCc1ccc(O)c(OC)c1
REMARK SMILES IDX 6 1 7 2 8 3 9 4 10 5 11 6 12 7 17 8 20 9 15 10 14 11 13 12
REMARK SMILES IDX 18 13 19 14 16 15 5 17 4 18 3 19 2 20 1 21
REMARK H PARENT 16 16
REMARK Flexibility Score: inf
ROOT
ATOM      1  C   UNL     1      89.700  93.130  76.921  1.00  0.00    -0.023 C 
ATOM      2  C   UNL     1      90.590  92.420  77.625  1.00  0.00     0.043 C 
ENDROOT
BRANCH   2   3
ATOM      3  C   UNL     1      90.209  91.090  78.174  1.00  0.00     0.155 C 
ATOM      4  O   UNL     1      90.405  90.793  79.351  1.00  0.00    -0.295 OA
BRANCH   3   5
ATOM      5  C   UNL     1      89.614  90.099  77.193  1.00  0.00     0.085 C 
BRANCH   5   6
ATOM      6  C   UNL     1      90.679  89.549  76.243  1.00  0.00     0.044 C 
BRANCH   6   7
ATOM      7  C   UNL     1      90.595  90.145  74.858  1.00  0.00    -0.044 A 
ATOM      8  C   UNL     1      89.367  90.509  72.828  1.00  0.00     0.160 A 
ATOM      9  C   UNL     1      89.445  89.959  74.107  1.00  0.00     0.054 A 
ATOM     10  C   UNL     1      90.440  91.239  72.316  1.00  0.00     0.157 A 
ATOM     11  C   UNL     1      91.591  91.417  73.084  1.00  0.00     0.050 A 
ATOM     12  C   UNL     1      91.669  90.866  74.363  1.00  0.00     0.008 A 
BRANCH   8  13
ATOM     13  O   UNL     1      88.237  90.328  72.088  1.00  0.00    -0.493 OA
ATOM     14  C   UNL     1      86.998  90.675  72.702  1.00  0.00     0.278 C 
ENDBRANCH   8  13
BRANCH  10  15
ATOM     15  O   UNL     1      90.376  91.782  71.068  1.00  0.00    -0.504 OA
ATOM     16  H   UNL     1      89.537  91.508  70.659  1.00  0.00     0.293 HD
ENDBRANCH  10  15
ENDBRANCH   6   7
ENDBRANCH   5   6
ENDBRANCH   3   5
ENDBRANCH   2   3
BRANCH   1  17
ATOM     17  C   UNL     1      90.006  94.478  76.335  1.00  0.00     0.027 C 
BRANCH  17  18
ATOM     18  C   UNL     1      91.484  94.865  76.455  1.00  0.00     0.004 C 
BRANCH  18  19
ATOM     19  C   UNL     1      92.333  94.423  75.259  1.00  0.00     0.000 C 
BRANCH  19  20
ATOM     20  C   UNL     1      93.823  94.438  75.604  1.00  0.00    -0.003 C 
ATOM     21  C   UNL     1      94.076  93.899  77.003  1.00  0.00     0.004 C 
ENDBRANCH  19  20
ENDBRANCH  18  19
ENDBRANCH  17  18
ENDBRANCH   1  17
TORSDOF 10
ENDMDL
MODEL 2
REMARK VINA RESULT:    -6.980      1.541      2.169
REMARK INTER + INTRA:         -12.470
REMARK INTER:                 -10.727
REMARK INTRA:                  -1.743
REMARK UNBOUND:                -1.613
REMARK SMILES CCCCC/C=C/C(=O)CCc1ccc(O)c(OC)c1
REMARK SMILES IDX 6 1 7 2 8 3 9 4 10 5 11 6 12 7 17 8 20 9 15 10 14 11 13 12
REMARK SMILES IDX 18 13 19 14 16 15 5 17 4 18 3 19 2 20 1 21
REMARK H PARENT 16 16
REMARK Flexibility Score: inf
ROOT
ATOM      1  C   UNL     1      89.751  90.539  77.419  1.00  0.00    -0.023 C 
ATOM      2  C   UNL     1      90.254  89.470  78.049  1.00  0.00     0.043 C 
ENDROOT
BRANCH   2   3
ATOM      3  C   UNL     1      90.054  88.110  77.478  1.00  0.00     0.155 C 
ATOM      4  O   UNL     1      89.177  87.355  77.893  1.00  0.00    -0.295 OA
BRANCH   3   5
ATOM      5  C   UNL     1      91.022  87.683  76.393  1.00  0.00     0.085 C 
BRANCH   5   6
ATOM      6  C   UNL     1      90.376  87.762  75.009  1.00  0.00     0.044 C 
BRANCH   6   7
ATOM      7  C   UNL     1      90.370  89.162  74.443  1.00  0.00    -0.044 A 
ATOM      8  C   UNL     1      89.179  90.992  73.447  1.00  0.00     0.160 A 
ATOM      9  C   UNL     1      89.184  89.699  73.969  1.00  0.00     0.054 A 
ATOM     10  C   UNL     1      90.361  91.732  73.404  1.00  0.00     0.157 A 
ATOM     11  C   UNL     1      91.548  91.177  73.884  1.00  0.00     0.050 A 
ATOM     12  C   UNL     1      91.552  89.884  74.407  1.00  0.00     0.008 A 
BRANCH   8  13
ATOM     13  O   UNL     1      88.014  91.522  72.980  1.00  0.00    -0.493 OA
ATOM     14  C   UNL     1      86.979  90.605  72.631  1.00  0.00     0.278 C 
ENDBRANCH   8  13
BRANCH  10  15
ATOM     15  O   UNL     1      90.369  92.996  72.897  1.00  0.00    -0.504 OA
ATOM     16  H   UNL     1      89.859  93.568  73.495  1.00  0.00     0.293 HD
ENDBRANCH  10  15
ENDBRANCH   6   7
ENDBRANCH   5   6
ENDBRANCH   3   5
ENDBRANCH   2   3
BRANCH   1  17
ATOM     17  C   UNL     1      89.909  91.941  77.930  1.00  0.00     0.027 C 
BRANCH  17  18
ATOM     18  C   UNL     1      89.617  93.005  76.866  1.00  0.00     0.004 C 
BRANCH  18  19
ATOM     19  C   UNL     1      90.798  93.941  76.593  1.00  0.00     0.000 C 
BRANCH  19  20
ATOM     20  C   UNL     1      92.123  93.287  76.988  1.00  0.00    -0.003 C 
ATOM     21  C   UNL     1      93.295  93.910  76.247  1.00  0.00     0.004 C 
ENDBRANCH  19  20
ENDBRANCH  18  19
ENDBRANCH  17  18
ENDBRANCH   1  17
TORSDOF 10
ENDMDL
MODEL 3
REMARK VINA RESULT:    -6.443      2.145      6.072
REMARK INTER + INTRA:         -11.635
REMARK INTER:                 -10.315
REMARK INTRA:                  -1.320
REMARK UNBOUND:                -1.613
REMARK SMILES CCCCC/C=C/C(=O)CCc1ccc(O)c(OC)c1
REMARK SMILES IDX 6 1 7 2 8 3 9 4 10 5 11 6 12 7 17 8 20 9 15 10 14 11 13 12
REMARK SMILES IDX 18 13 19 14 16 15 5 17 4 18 3 19 2 20 1 21
REMARK H PARENT 16 16
REMARK Flexibility Score: inf
ROOT
ATOM      1  C   UNL     1      88.646  89.789  74.124  1.00  0.00    -0.023 C 
ATOM      2  C   UNL     1      88.807  90.264  72.882  1.00  0.00     0.043 C 
ENDROOT
BRANCH   2   3
ATOM      3  C   UNL     1      88.372  91.650  72.557  1.00  0.00     0.155 C 
ATOM      4  O   UNL     1      87.302  91.879  71.996  1.00  0.00    -0.295 OA
BRANCH   3   5
ATOM      5  C   UNL     1      89.341  92.762  72.905  1.00  0.00     0.085 C 
BRANCH   5   6
ATOM      6  C   UNL     1      90.761  92.224  73.090  1.00  0.00     0.044 C 
BRANCH   6   7
ATOM      7  C   UNL     1      91.314  92.489  74.471  1.00  0.00    -0.044 A 
ATOM      8  C   UNL     1      93.130  93.176  75.881  1.00  0.00     0.160 A 
ATOM      9  C   UNL     1      92.620  92.931  74.606  1.00  0.00     0.054 A 
ATOM     10  C   UNL     1      92.328  92.974  77.004  1.00  0.00     0.157 A 
ATOM     11  C   UNL     1      91.015  92.528  76.852  1.00  0.00     0.050 A 
ATOM     12  C   UNL     1      90.505  92.284  75.576  1.00  0.00     0.008 A 
BRANCH   8  13
ATOM     13  O   UNL     1      94.414  93.611  76.017  1.00  0.00    -0.493 OA
ATOM     14  C   UNL     1      94.916  94.477  75.001  1.00  0.00     0.278 C 
ENDBRANCH   8  13
BRANCH  10  15
ATOM     15  O   UNL     1      92.814  93.210  78.254  1.00  0.00    -0.504 OA
ATOM     16  H   UNL     1      92.759  92.383  78.764  1.00  0.00     0.293 HD
ENDBRANCH  10  15
ENDBRANCH   6   7
ENDBRANCH   5   6
ENDBRANCH   3   5
ENDBRANCH   2   3
BRANCH   1  17
ATOM     17  C   UNL     1      89.058  88.404  74.532  1.00  0.00     0.027 C 
BRANCH  17  18
ATOM     18  C   UNL     1      90.560  88.281  74.811  1.00  0.00     0.004 C 
BRANCH  18  19
ATOM     19  C   UNL     1      90.892  88.056  76.289  1.00  0.00     0.000 C 
BRANCH  19  20
ATOM     20  C   UNL     1      90.025  88.936  77.190  1.00  0.00    -0.003 C 
ATOM     21  C   UNL     1      89.658  88.221  78.481  1.00  0.00     0.004 C 
ENDBRANCH  19  20
ENDBRANCH  18  19
ENDBRANCH  17  18
ENDBRANCH   1  17
TORSDOF 10
ENDMDL
MODEL 4
REMARK VINA RESULT:    -6.387      2.400      5.417
REMARK INTER + INTRA:         -11.548
REMARK INTER:                 -10.343
REMARK INTRA:                  -1.204
REMARK UNBOUND:                -1.613
REMARK SMILES CCCCC/C=C/C(=O)CCc1ccc(O)c(OC)c1
REMARK SMILES IDX 6 1 7 2 8 3 9 4 10 5 11 6 12 7 17 8 20 9 15 10 14 11 13 12
REMARK SMILES IDX 18 13 19 14 16 15 5 17 4 18 3 19 2 20 1 21
REMARK H PARENT 16 16
REMARK Flexibility Score: inf
ROOT
ATOM      1  C   UNL     1      90.636  92.555  74.101  1.00  0.00    -0.023 C 
ATOM      2  C   UNL     1      90.924  93.805  74.487  1.00  0.00     0.043 C 
ENDROOT
BRANCH   2   3
ATOM      3  C   UNL     1      90.797  94.185  75.920  1.00  0.00     0.155 C 
ATOM      4  O   UNL     1      91.395  95.152  76.390  1.00  0.00    -0.295 OA
BRANCH   3   5
ATOM      5  C   UNL     1      89.934  93.288  76.785  1.00  0.00     0.085 C 
BRANCH   5   6
ATOM      6  C   UNL     1      90.774  92.538  77.820  1.00  0.00     0.044 C 
BRANCH   6   7
ATOM      7  C   UNL     1      90.395  91.081  77.941  1.00  0.00    -0.044 A 
ATOM      8  C   UNL     1      89.891  88.976  76.905  1.00  0.00     0.160 A 
ATOM      9  C   UNL     1      90.241  90.322  76.792  1.00  0.00     0.054 A 
ATOM     10  C   UNL     1      89.699  88.408  78.163  1.00  0.00     0.157 A 
ATOM     11  C   UNL     1      89.856  89.186  79.311  1.00  0.00     0.050 A 
ATOM     12  C   UNL     1      90.206  90.532  79.199  1.00  0.00     0.008 A 
BRANCH   8  13
ATOM     13  O   UNL     1      89.740  88.227  75.777  1.00  0.00    -0.493 OA
ATOM     14  C   UNL     1      90.921  87.920  75.039  1.00  0.00     0.278 C 
ENDBRANCH   8  13
BRANCH  10  15
ATOM     15  O   UNL     1      89.357  87.095  78.286  1.00  0.00    -0.504 OA
ATOM     16  H   UNL     1      89.325  86.703  77.397  1.00  0.00     0.293 HD
ENDBRANCH  10  15
ENDBRANCH   6   7
ENDBRANCH   5   6
ENDBRANCH   3   5
ENDBRANCH   2   3
BRANCH   1  17
ATOM     17  C   UNL     1      90.737  92.093  72.676  1.00  0.00     0.027 C 
BRANCH  17  18
ATOM     18  C   UNL     1      90.357  90.620  72.493  1.00  0.00     0.004 C 
BRANCH  18  19
ATOM     19  C   UNL     1      89.283  90.391  71.425  1.00  0.00     0.000 C 
BRANCH  19  20
ATOM     20  C   UNL     1      87.902  90.805  71.935  1.00  0.00    -0.003 C 
ATOM     21  C   UNL     1      87.672  90.336  73.363  1.00  0.00     0.004 C 
ENDBRANCH  19  20
ENDBRANCH  18  19
ENDBRANCH  17  18
ENDBRANCH   1  17
TORSDOF 10
ENDMDL
MODEL 5
REMARK VINA RESULT:    -6.122      2.813      6.320
REMARK INTER + INTRA:         -11.136
REMARK INTER:                 -10.157
REMARK INTRA:                  -0.979
REMARK UNBOUND:                -1.613
REMARK SMILES CCCCC/C=C/C(=O)CCc1ccc(O)c(OC)c1
REMARK SMILES IDX 6 1 7 2 8 3 9 4 10 5 11 6 12 7 17 8 20 9 15 10 14 11 13 12
REMARK SMILES IDX 18 13 19 14 16 15 5 17 4 18 3 19 2 20 1 21
REMARK H PARENT 16 16
REMARK Flexibility Score: inf
ROOT
ATOM      1  C   UNL     1      89.145  90.279  75.679  1.00  0.00    -0.023 C 
ATOM      2  C   UNL     1      89.728  91.414  76.083  1.00  0.00     0.043 C 
ENDROOT
BRANCH   2   3
ATOM      3  C   UNL     1      90.337  91.494  77.438  1.00  0.00     0.155 C 
ATOM      4  O   UNL     1      89.964  90.770  78.360  1.00  0.00    -0.295 OA
BRANCH   3   5
ATOM      5  C   UNL     1      91.405  92.551  77.639  1.00  0.00     0.085 C 
BRANCH   5   6
ATOM      6  C   UNL     1      91.909  93.092  76.301  1.00  0.00     0.044 C 
BRANCH   6   7
ATOM      7  C   UNL     1      93.311  93.647  76.382  1.00  0.00    -0.044 A 
ATOM      8  C   UNL     1      95.105  94.569  77.684  1.00  0.00     0.160 A 
ATOM      9  C   UNL     1      93.809  94.056  77.609  1.00  0.00     0.054 A 
ATOM     10  C   UNL     1      95.885  94.666  76.532  1.00  0.00     0.157 A 
ATOM     11  C   UNL     1      95.369  94.251  75.304  1.00  0.00     0.050 A 
ATOM     12  C   UNL     1      94.073  93.739  75.229  1.00  0.00     0.008 A 
BRANCH   8  13
ATOM     13  O   UNL     1      95.597  94.971  78.889  1.00  0.00    -0.493 OA
ATOM     14  C   UNL     1      95.619  94.003  79.937  1.00  0.00     0.278 C 
ENDBRANCH   8  13
BRANCH  10  15
ATOM     15  O   UNL     1      97.151  95.165  76.593  1.00  0.00    -0.504 OA
ATOM     16  H   UNL     1      97.339  95.410  77.515  1.00  0.00     0.293 HD
ENDBRANCH  10  15
ENDBRANCH   6   7
ENDBRANCH   5   6
ENDBRANCH   3   5
ENDBRANCH   2   3
BRANCH   1  17
ATOM     17  C   UNL     1      88.509  90.118  74.328  1.00  0.00     0.027 C 
BRANCH  17  18
ATOM     18  C   UNL     1      89.526  90.115  73.181  1.00  0.00     0.004 C 
BRANCH  18  19
ATOM     19  C   UNL     1      89.097  90.962  71.979  1.00  0.00     0.000 C 
BRANCH  19  20
ATOM     20  C   UNL     1      90.019  92.169  71.798  1.00  0.00    -0.003 C 
ATOM     21  C   UNL     1      89.666  93.289  72.763  1.00  0.00     0.004 C 
ENDBRANCH  19  20
ENDBRANCH  18  19
ENDBRANCH  17  18
ENDBRANCH   1  17
TORSDOF 10
ENDMDL
MODEL 6
REMARK VINA RESULT:    -5.890      3.313      5.396
REMARK INTER + INTRA:         -10.774
REMARK INTER:                  -9.901
REMARK INTRA:                  -0.873
REMARK UNBOUND:                -1.613
REMARK SMILES CCCCC/C=C/C(=O)CCc1ccc(O)c(OC)c1
REMARK SMILES IDX 6 1 7 2 8 3 9 4 10 5 11 6 12 7 17 8 20 9 15 10 14 11 13 12
REMARK SMILES IDX 18 13 19 14 16 15 5 17 4 18 3 19 2 20 1 21
REMARK H PARENT 16 16
REMARK Flexibility Score: inf
ROOT
ATOM      1  C   UNL     1      96.088  95.140  77.749  1.00  0.00    -0.023 C 
ATOM      2  C   UNL     1      95.307  94.197  77.209  1.00  0.00     0.043 C 
ENDROOT
BRANCH   2   3
ATOM      3  C   UNL     1      95.022  94.215  75.749  1.00  0.00     0.155 C 
ATOM      4  O   UNL     1      95.869  93.894  74.918  1.00  0.00    -0.295 OA
BRANCH   3   5
ATOM      5  C   UNL     1      93.647  94.702  75.334  1.00  0.00     0.085 C 
BRANCH   5   6
ATOM      6  C   UNL     1      92.655  94.620  76.496  1.00  0.00     0.044 C 
BRANCH   6   7
ATOM      7  C   UNL     1      91.556  93.611  76.259  1.00  0.00    -0.044 A 
ATOM      8  C   UNL     1      90.242  92.293  74.744  1.00  0.00     0.160 A 
ATOM      9  C   UNL     1      91.257  93.225  74.962  1.00  0.00     0.054 A 
ATOM     10  C   UNL     1      89.539  91.761  75.824  1.00  0.00     0.157 A 
ATOM     11  C   UNL     1      89.851  92.161  77.125  1.00  0.00     0.050 A 
ATOM     12  C   UNL     1      90.866  93.093  77.343  1.00  0.00     0.008 A 
BRANCH   8  13
ATOM     13  O   UNL     1      89.946  91.911  73.470  1.00  0.00    -0.493 OA
ATOM     14  C   UNL     1      89.390  92.902  72.609  1.00  0.00     0.278 C 
ENDBRANCH   8  13
BRANCH  10  15
ATOM     15  O   UNL     1      88.546  90.850  75.624  1.00  0.00    -0.504 OA
ATOM     16  H   UNL     1      87.715  91.333  75.471  1.00  0.00     0.293 HD
ENDBRANCH  10  15
ENDBRANCH   6   7
ENDBRANCH   5   6
ENDBRANCH   3   5
ENDBRANCH   2   3
BRANCH   1  17
ATOM     17  C   UNL     1      96.423  95.191  79.212  1.00  0.00     0.027 C 
BRANCH  17  18
ATOM     18  C   UNL     1      95.250  94.787  80.111  1.00  0.00     0.004 C 
BRANCH  18  19
ATOM     19  C   UNL     1      95.208  95.544  81.442  1.00  0.00     0.000 C 
BRANCH  19  20
ATOM     20  C   UNL     1      96.471  96.383  81.640  1.00  0.00    -0.003 C 
ATOM     21  C   UNL     1      96.149  97.867  81.711  1.00  0.00     0.004 C 
ENDBRANCH  19  20
ENDBRANCH  18  19
ENDBRANCH  17  18
ENDBRANCH   1  17
TORSDOF 10
ENDMDL
MODEL 7
REMARK VINA RESULT:    -5.703      4.154      8.707
REMARK INTER + INTRA:         -10.484
REMARK INTER:                  -9.159
REMARK INTRA:                  -1.325
REMARK UNBOUND:                -1.613
REMARK SMILES CCCCC/C=C/C(=O)CCc1ccc(O)c(OC)c1
REMARK SMILES IDX 6 1 7 2 8 3 9 4 10 5 11 6 12 7 17 8 20 9 15 10 14 11 13 12
REMARK SMILES IDX 18 13 19 14 16 15 5 17 4 18 3 19 2 20 1 21
REMARK H PARENT 16 16
REMARK Flexibility Score: inf
ROOT
ATOM      1  C   UNL     1      93.447  94.567  76.516  1.00  0.00    -0.023 C 
ATOM      2  C   UNL     1      94.287  94.119  75.575  1.00  0.00     0.043 C 
ENDROOT
BRANCH   2   3
ATOM      3  C   UNL     1      95.550  94.856  75.296  1.00  0.00     0.155 C 
ATOM      4  O   UNL     1      96.283  94.553  74.357  1.00  0.00    -0.295 OA
BRANCH   3   5
ATOM      5  C   UNL     1      95.912  95.966  76.263  1.00  0.00     0.085 C 
BRANCH   5   6
ATOM      6  C   UNL     1      96.990  95.515  77.249  1.00  0.00     0.044 C 
BRANCH   6   7
ATOM      7  C   UNL     1      96.454  95.290  78.643  1.00  0.00    -0.044 A 
ATOM      8  C   UNL     1      95.986  96.124  80.844  1.00  0.00     0.160 A 
ATOM      9  C   UNL     1      96.481  96.331  79.557  1.00  0.00     0.054 A 
ATOM     10  C   UNL     1      95.469  94.878  81.201  1.00  0.00     0.157 A 
ATOM     11  C   UNL     1      95.449  93.839  80.269  1.00  0.00     0.050 A 
ATOM     12  C   UNL     1      95.945  94.047  78.982  1.00  0.00     0.008 A 
BRANCH   8  13
ATOM     13  O   UNL     1      96.011  97.146  81.745  1.00  0.00    -0.493 OA
ATOM     14  C   UNL     1      96.645  98.356  81.334  1.00  0.00     0.278 C 
ENDBRANCH   8  13
BRANCH  10  15
ATOM     15  O   UNL     1      94.982  94.663  82.454  1.00  0.00    -0.504 OA
ATOM     16  H   UNL     1      94.079  95.022  82.497  1.00  0.00     0.293 HD
ENDBRANCH  10  15
ENDBRANCH   6   7
ENDBRANCH   5   6
ENDBRANCH   3   5
ENDBRANCH   2   3
BRANCH   1  17
ATOM     17  C   UNL     1      92.155  93.882  76.856  1.00  0.00     0.027 C 
BRANCH  17  18
ATOM     18  C   UNL     1      90.959  94.429  76.069  1.00  0.00     0.004 C 
BRANCH  18  19
ATOM     19  C   UNL     1      90.466  93.484  74.968  1.00  0.00     0.000 C 
BRANCH  19  20
ATOM     20  C   UNL     1      91.149  92.119  75.066  1.00  0.00    -0.003 C 
ATOM     21  C   UNL     1      91.847  91.750  73.767  1.00  0.00     0.004 C 
ENDBRANCH  19  20
ENDBRANCH  18  19
ENDBRANCH  17  18
ENDBRANCH   1  17
TORSDOF 10
ENDMDL
MODEL 8
REMARK VINA RESULT:    -5.357     23.891     26.439
REMARK INTER + INTRA:          -9.945
REMARK INTER:                  -8.582
REMARK INTRA:                  -1.363
REMARK UNBOUND:                -1.613
REMARK SMILES CCCCC/C=C/C(=O)CCc1ccc(O)c(OC)c1
REMARK SMILES IDX 6 1 7 2 8 3 9 4 10 5 11 6 12 7 17 8 20 9 15 10 14 11 13 12
REMARK SMILES IDX 18 13 19 14 16 15 5 17 4 18 3 19 2 20 1 21
REMARK H PARENT 16 16
REMARK Flexibility Score: inf
ROOT
ATOM      1  C   UNL     1      80.171  64.860  73.096  1.00  0.00    -0.023 C 
ATOM      2  C   UNL     1      81.042  65.423  72.249  1.00  0.00     0.043 C 
ENDROOT
BRANCH   2   3
ATOM      3  C   UNL     1      80.551  66.323  71.171  1.00  0.00     0.155 C 
ATOM      4  O   UNL     1      79.809  65.921  70.277  1.00  0.00    -0.295 OA
BRANCH   3   5
ATOM      5  C   UNL     1      81.057  67.753  71.201  1.00  0.00     0.085 C 
BRANCH   5   6
ATOM      6  C   UNL     1      81.676  68.094  72.557  1.00  0.00     0.044 C 
BRANCH   6   7
ATOM      7  C   UNL     1      83.094  68.603  72.444  1.00  0.00    -0.044 A 
ATOM      8  C   UNL     1      85.347  68.667  73.267  1.00  0.00     0.160 A 
ATOM      9  C   UNL     1      84.038  68.196  73.372  1.00  0.00     0.054 A 
ATOM     10  C   UNL     1      85.694  69.539  72.235  1.00  0.00     0.157 A 
ATOM     11  C   UNL     1      84.731  69.941  71.309  1.00  0.00     0.050 A 
ATOM     12  C   UNL     1      83.422  69.470  71.414  1.00  0.00     0.008 A 
BRANCH   8  13
ATOM     13  O   UNL     1      86.278  68.267  74.178  1.00  0.00    -0.493 OA
ATOM     14  C   UNL     1      86.202  68.847  75.479  1.00  0.00     0.278 C 
ENDBRANCH   8  13
BRANCH  10  15
ATOM     15  O   UNL     1      86.969  70.005  72.122  1.00  0.00    -0.504 OA
ATOM     16  H   UNL     1      87.506  69.321  71.686  1.00  0.00     0.293 HD
ENDBRANCH  10  15
ENDBRANCH   6   7
ENDBRANCH   5   6
ENDBRANCH   3   5
ENDBRANCH   2   3
BRANCH   1  17
ATOM     17  C   UNL     1      80.585  63.941  74.208  1.00  0.00     0.027 C 
BRANCH  17  18
ATOM     18  C   UNL     1      82.104  63.770  74.314  1.00  0.00     0.004 C 
BRANCH  18  19
ATOM     19  C   UNL     1      82.713  64.446  75.547  1.00  0.00     0.000 C 
BRANCH  19  20
ATOM     20  C   UNL     1      81.653  65.219  76.332  1.00  0.00    -0.003 C 
ATOM     21  C   UNL     1      81.935  66.713  76.327  1.00  0.00     0.004 C 
ENDBRANCH  19  20
ENDBRANCH  18  19
ENDBRANCH  17  18
ENDBRANCH   1  17
TORSDOF 10
ENDMDL
MODEL 9
REMARK VINA RESULT:    -5.296      2.355      3.982
REMARK INTER + INTRA:          -9.850
REMARK INTER:                  -9.276
REMARK INTRA:                  -0.575
REMARK UNBOUND:                -1.613
REMARK SMILES CCCCC/C=C/C(=O)CCc1ccc(O)c(OC)c1
REMARK SMILES IDX 6 1 7 2 8 3 9 4 10 5 11 6 12 7 17 8 20 9 15 10 14 11 13 12
REMARK SMILES IDX 18 13 19 14 16 15 5 17 4 18 3 19 2 20 1 21
REMARK H PARENT 16 16
REMARK Flexibility Score: inf
ROOT
ATOM      1  C   UNL     1      94.232  93.907  75.652  1.00  0.00    -0.023 C 
ATOM      2  C   UNL     1      93.741  94.001  76.894  1.00  0.00     0.043 C 
ENDROOT
BRANCH   2   3
ATOM      3  C   UNL     1      92.372  93.498  77.191  1.00  0.00     0.155 C 
ATOM      4  O   UNL     1      92.135  92.808  78.179  1.00  0.00    -0.295 OA
BRANCH   3   5
ATOM      5  C   UNL     1      91.294  93.839  76.181  1.00  0.00     0.085 C 
BRANCH   5   6
ATOM      6  C   UNL     1      89.939  93.268  76.603  1.00  0.00     0.044 C 
BRANCH   6   7
ATOM      7  C   UNL     1      89.716  91.858  76.110  1.00  0.00    -0.044 A 
ATOM      8  C   UNL     1      89.283  90.334  74.307  1.00  0.00     0.160 A 
ATOM      9  C   UNL     1      89.488  91.637  74.761  1.00  0.00     0.054 A 
ATOM     10  C   UNL     1      89.308  89.269  75.207  1.00  0.00     0.157 A 
ATOM     11  C   UNL     1      89.538  89.508  76.563  1.00  0.00     0.050 A 
ATOM     12  C   UNL     1      89.743  90.811  77.017  1.00  0.00     0.008 A 
BRANCH   8  13
ATOM     13  O   UNL     1      89.059  90.115  72.981  1.00  0.00    -0.493 OA
ATOM     14  C   UNL     1      87.779  90.480  72.471  1.00  0.00     0.278 C 
ENDBRANCH   8  13
BRANCH  10  15
ATOM     15  O   UNL     1      89.110  87.993  74.776  1.00  0.00    -0.504 OA
ATOM     16  H   UNL     1      88.255  87.683  75.122  1.00  0.00     0.293 HD
ENDBRANCH  10  15
ENDBRANCH   6   7
ENDBRANCH   5   6
ENDBRANCH   3   5
ENDBRANCH   2   3
BRANCH   1  17
ATOM     17  C   UNL     1      95.601  94.390  75.271  1.00  0.00     0.027 C 
BRANCH  17  18
ATOM     18  C   UNL     1      96.653  94.131  76.356  1.00  0.00     0.004 C 
BRANCH  18  19
ATOM     19  C   UNL     1      97.062  95.391  77.127  1.00  0.00     0.000 C 
BRANCH  19  20
ATOM     20  C   UNL     1      98.517  95.764  76.841  1.00  0.00    -0.003 C 
ATOM     21  C   UNL     1      98.627  96.713  75.659  1.00  0.00     0.004 C 
ENDBRANCH  19  20
ENDBRANCH  18  19
ENDBRANCH  17  18
ENDBRANCH   1  17
TORSDOF 10
ENDMDL
MODEL 10
REMARK VINA RESULT:    -5.262     12.418     14.844
REMARK INTER + INTRA:          -9.797
REMARK INTER:                  -8.762
REMARK INTRA:                  -1.035
REMARK UNBOUND:                -1.613
REMARK SMILES CCCCC/C=C/C(=O)CCc1ccc(O)c(OC)c1
REMARK SMILES IDX 6 1 7 2 8 3 9 4 10 5 11 6 12 7 17 8 20 9 15 10 14 11 13 12
REMARK SMILES IDX 18 13 19 14 16 15 5 17 4 18 3 19 2 20 1 21
REMARK H PARENT 16 16
REMARK Flexibility Score: inf
ROOT
ATOM      1  C   UNL     1      83.349  90.925  87.849  1.00  0.00    -0.023 C 
ATOM      2  C   UNL     1      84.137  91.100  86.781  1.00  0.00     0.043 C 
ENDROOT
BRANCH   2   3
ATOM      3  C   UNL     1      84.177  90.066  85.711  1.00  0.00     0.155 C 
ATOM      4  O   UNL     1      84.896  89.073  85.795  1.00  0.00    -0.295 OA
BRANCH   3   5
ATOM      5  C   UNL     1      83.323  90.328  84.486  1.00  0.00     0.085 C 
BRANCH   5   6
ATOM      6  C   UNL     1      81.833  90.304  84.832  1.00  0.00     0.044 C 
BRANCH   6   7
ATOM      7  C   UNL     1      81.294  88.905  85.011  1.00  0.00    -0.044 A 
ATOM      8  C   UNL     1      80.666  87.093  86.455  1.00  0.00     0.160 A 
ATOM      9  C   UNL     1      81.165  88.386  86.290  1.00  0.00     0.054 A 
ATOM     10  C   UNL     1      80.305  86.337  85.340  1.00  0.00     0.157 A 
ATOM     11  C   UNL     1      80.442  86.873  84.059  1.00  0.00     0.050 A 
ATOM     12  C   UNL     1      80.940  88.166  83.894  1.00  0.00     0.008 A 
BRANCH   8  13
ATOM     13  O   UNL     1      80.537  86.581  87.710  1.00  0.00    -0.493 OA
ATOM     14  C   UNL     1      79.490  87.108  88.522  1.00  0.00     0.278 C 
ENDBRANCH   8  13
BRANCH  10  15
ATOM     15  O   UNL     1      79.817  85.074  85.489  1.00  0.00    -0.504 OA
ATOM     16  H   UNL     1      78.937  85.133  85.899  1.00  0.00     0.293 HD
ENDBRANCH  10  15
ENDBRANCH   6   7
ENDBRANCH   5   6
ENDBRANCH   3   5
ENDBRANCH   2   3
BRANCH   1  17
ATOM     17  C   UNL     1      83.253  91.919  88.970  1.00  0.00     0.027 C 
BRANCH  17  18
ATOM     18  C   UNL     1      81.921  92.675  88.990  1.00  0.00     0.004 C 
BRANCH  18  19
ATOM     19  C   UNL     1      82.069  94.185  88.779  1.00  0.00     0.000 C 
BRANCH  19  20
ATOM     20  C   UNL     1      83.511  94.554  88.425  1.00  0.00    -0.003 C 
ATOM     21  C   UNL     1      83.571  95.449  87.198  1.00  0.00     0.004 C 
ENDBRANCH  19  20
ENDBRANCH  18  19
ENDBRANCH  17  18
ENDBRANCH   1  17
TORSDOF 10
ENDMDL
