MODEL 1
REMARK VINA RESULT:    -5.733      0.000      0.000
REMARK INTER + INTRA:         -10.327
REMARK INTER:                  -8.917
REMARK INTRA:                  -1.411
REMARK UNBOUND:                -1.411
REMARK SMILES COc1cc(CNC(=O)CCCCCC(C)C)ccc1O
REMARK SMILES IDX 10 1 8 2 7 3 9 5 6 6 5 7 3 8 20 9 4 10 19 11 18 12 2 13 1 14
REMARK SMILES IDX 21 15 11 17 12 18 13 19 14 20 15 21 16 22 17 23
REMARK H PARENT 7 4 21 16
REMARK Flexibility Score: inf
ROOT
ATOM      1  C   UNL     1      77.981  86.989  67.678  1.00  0.00     0.100 C 
ENDROOT
BRANCH   1   2
ATOM      2  C   UNL     1      78.004  85.530  67.445  1.00  0.00     0.220 C 
ATOM      3  N   UNL     1      77.413  85.021  66.327  1.00  0.00    -0.352 N 
ATOM      4  H   UNL     1      76.875  85.686  65.791  1.00  0.00     0.163 HD
ATOM      5  O   UNL     1      78.606  84.792  68.263  1.00  0.00    -0.275 OA
BRANCH   3   6
ATOM      6  C   UNL     1      77.509  83.664  65.892  1.00  0.00     0.151 C 
BRANCH   6   7
ATOM      7  C   UNL     1      76.199  82.959  65.887  1.00  0.00    -0.025 A 
ATOM      8  C   UNL     1      73.792  82.927  66.387  1.00  0.00     0.160 A 
ATOM      9  C   UNL     1      73.692  81.641  65.816  1.00  0.00     0.157 A 
ATOM     10  C   UNL     1      75.048  83.570  66.436  1.00  0.00     0.056 A 
ATOM     11  C   UNL     1      74.836  81.013  65.291  1.00  0.00     0.050 A 
ATOM     12  C   UNL     1      76.079  81.668  65.321  1.00  0.00     0.009 A 
BRANCH   8  13
ATOM     13  O   UNL     1      72.694  83.549  66.922  1.00  0.00    -0.493 OA
ATOM     14  C   UNL     1      72.139  84.576  66.079  1.00  0.00     0.278 C 
ENDBRANCH   8  13
BRANCH   9  15
ATOM     15  O   UNL     1      72.490  81.014  65.766  1.00  0.00    -0.504 OA
ATOM     16  H   UNL     1      71.802  81.616  66.060  1.00  0.00     0.293 HD
ENDBRANCH   9  15
ENDBRANCH   6   7
ENDBRANCH   3   6
ENDBRANCH   1   2
BRANCH   1  17
ATOM     17  C   UNL     1      76.707  87.700  67.148  1.00  0.00     0.010 C 
BRANCH  17  18
ATOM     18  C   UNL     1      75.974  88.477  68.277  1.00  0.00     0.001 C 
BRANCH  18  19
ATOM     19  C   UNL     1      76.413  88.051  69.703  1.00  0.00     0.000 C 
BRANCH  19  20
ATOM     20  C   UNL     1      75.317  87.222  70.433  1.00  0.00     0.003 C 
BRANCH  20  21
ATOM     21  C   UNL     1      75.142  85.758  69.913  1.00  0.00    -0.017 C 
ATOM     22  C   UNL     1      73.641  85.437  69.651  1.00  0.00     0.007 C 
ATOM     23  C   UNL     1      75.754  84.698  70.875  1.00  0.00     0.007 C 
ENDBRANCH  20  21
ENDBRANCH  19  20
ENDBRANCH  18  19
ENDBRANCH  17  18
ENDBRANCH   1  17
TORSDOF 10
ENDMDL
MODEL 2
REMARK VINA RESULT:    -5.394      1.257      2.039
REMARK INTER + INTRA:          -9.800
REMARK INTER:                  -8.938
REMARK INTRA:                  -0.862
REMARK UNBOUND:                -1.411
REMARK SMILES COc1cc(CNC(=O)CCCCCC(C)C)ccc1O
REMARK SMILES IDX 10 1 8 2 7 3 9 5 6 6 5 7 3 8 20 9 4 10 19 11 18 12 2 13 1 14
REMARK SMILES IDX 21 15 11 17 12 18 13 19 14 20 15 21 16 22 17 23
REMARK H PARENT 7 4 21 16
REMARK Flexibility Score: inf
ROOT
ATOM      1  C   UNL     1      77.901  87.022  67.677  1.00  0.00     0.100 C 
ENDROOT
BRANCH   1   2
ATOM      2  C   UNL     1      78.066  85.556  67.601  1.00  0.00     0.220 C 
ATOM      3  N   UNL     1      77.567  84.880  66.528  1.00  0.00    -0.352 N 
ATOM      4  H   UNL     1      76.990  85.432  65.909  1.00  0.00     0.163 HD
ATOM      5  O   UNL     1      78.702  84.967  68.509  1.00  0.00    -0.275 OA
BRANCH   3   6
ATOM      6  C   UNL     1      77.803  83.501  66.243  1.00  0.00     0.151 C 
BRANCH   6   7
ATOM      7  C   UNL     1      76.561  82.753  65.908  1.00  0.00    -0.025 A 
ATOM      8  C   UNL     1      74.125  82.470  66.096  1.00  0.00     0.160 A 
ATOM      9  C   UNL     1      74.188  81.368  65.218  1.00  0.00     0.157 A 
ATOM     10  C   UNL     1      75.314  83.144  66.451  1.00  0.00     0.056 A 
ATOM     11  C   UNL     1      75.426  80.954  64.694  1.00  0.00     0.050 A 
ATOM     12  C   UNL     1      76.603  81.643  65.031  1.00  0.00     0.009 A 
BRANCH   8  13
ATOM     13  O   UNL     1      72.932  82.878  66.633  1.00  0.00    -0.493 OA
ATOM     14  C   UNL     1      72.910  84.266  67.017  1.00  0.00     0.278 C 
ENDBRANCH   8  13
BRANCH   9  15
ATOM     15  O   UNL     1      73.051  80.712  64.873  1.00  0.00    -0.504 OA
ATOM     16  H   UNL     1      73.014  80.617  63.918  1.00  0.00     0.293 HD
ENDBRANCH   9  15
ENDBRANCH   6   7
ENDBRANCH   3   6
ENDBRANCH   1   2
BRANCH   1  17
ATOM     17  C   UNL     1      76.423  87.498  67.695  1.00  0.00     0.010 C 
BRANCH  17  18
ATOM     18  C   UNL     1      75.557  86.638  68.656  1.00  0.00     0.001 C 
BRANCH  18  19
ATOM     19  C   UNL     1      75.660  87.078  70.140  1.00  0.00     0.000 C 
BRANCH  19  20
ATOM     20  C   UNL     1      76.075  88.571  70.283  1.00  0.00     0.003 C 
BRANCH  20  21
ATOM     21  C   UNL     1      74.899  89.556  70.589  1.00  0.00    -0.017 C 
ATOM     22  C   UNL     1      75.438  90.912  71.132  1.00  0.00     0.007 C 
ATOM     23  C   UNL     1      73.854  88.962  71.577  1.00  0.00     0.007 C 
ENDBRANCH  20  21
ENDBRANCH  19  20
ENDBRANCH  18  19
ENDBRANCH  17  18
ENDBRANCH   1  17
TORSDOF 10
ENDMDL
MODEL 3
REMARK VINA RESULT:    -5.393     19.905     23.150
REMARK INTER + INTRA:          -9.798
REMARK INTER:                  -9.223
REMARK INTRA:                  -0.575
REMARK UNBOUND:                -1.411
REMARK SMILES COc1cc(CNC(=O)CCCCCC(C)C)ccc1O
REMARK SMILES IDX 10 1 8 2 7 3 9 5 6 6 5 7 3 8 20 9 4 10 19 11 18 12 2 13 1 14
REMARK SMILES IDX 21 15 11 17 12 18 13 19 14 20 15 21 16 22 17 23
REMARK H PARENT 7 4 21 16
REMARK Flexibility Score: inf
ROOT
ATOM      1  C   UNL     1      93.096 100.246  74.922  1.00  0.00     0.100 C 
ENDROOT
BRANCH   1   2
ATOM      2  C   UNL     1      93.852  99.270  75.734  1.00  0.00     0.220 C 
ATOM      3  N   UNL     1      93.555  97.943  75.633  1.00  0.00    -0.352 N 
ATOM      4  H   UNL     1      92.729  97.733  75.092  1.00  0.00     0.163 HD
ATOM      5  O   UNL     1      94.783  99.680  76.469  1.00  0.00    -0.275 OA
BRANCH   3   6
ATOM      6  C   UNL     1      94.312  96.885  76.220  1.00  0.00     0.151 C 
BRANCH   6   7
ATOM      7  C   UNL     1      93.477  95.936  77.006  1.00  0.00    -0.025 A 
ATOM      8  C   UNL     1      93.150  94.526  78.994  1.00  0.00     0.160 A 
ATOM      9  C   UNL     1      91.861  94.182  78.534  1.00  0.00     0.157 A 
ATOM     10  C   UNL     1      93.957  95.385  78.218  1.00  0.00     0.056 A 
ATOM     11  C   UNL     1      91.384  94.703  77.317  1.00  0.00     0.050 A 
ATOM     12  C   UNL     1      92.183  95.577  76.561  1.00  0.00     0.009 A 
BRANCH   8  13
ATOM     13  O   UNL     1      93.640  94.014  80.166  1.00  0.00    -0.493 OA
ATOM     14  C   UNL     1      94.979  93.492  80.059  1.00  0.00     0.278 C 
ENDBRANCH   8  13
BRANCH   9  15
ATOM     15  O   UNL     1      91.078  93.355  79.271  1.00  0.00    -0.504 OA
ATOM     16  H   UNL     1      90.537  92.820  78.686  1.00  0.00     0.293 HD
ENDBRANCH   9  15
ENDBRANCH   6   7
ENDBRANCH   3   6
ENDBRANCH   1   2
BRANCH   1  17
ATOM     17  C   UNL     1      92.315  99.622  73.735  1.00  0.00     0.010 C 
BRANCH  17  18
ATOM     18  C   UNL     1      92.185 100.616  72.548  1.00  0.00     0.001 C 
BRANCH  18  19
ATOM     19  C   UNL     1      91.712  99.945  71.231  1.00  0.00     0.000 C 
BRANCH  19  20
ATOM     20  C   UNL     1      90.348  99.216  71.400  1.00  0.00     0.003 C 
BRANCH  20  21
ATOM     21  C   UNL     1      89.938  98.298  70.202  1.00  0.00    -0.017 C 
ATOM     22  C   UNL     1      88.706  98.883  69.451  1.00  0.00     0.007 C 
ATOM     23  C   UNL     1      89.652  96.831  70.636  1.00  0.00     0.007 C 
ENDBRANCH  20  21
ENDBRANCH  19  20
ENDBRANCH  18  19
ENDBRANCH  17  18
ENDBRANCH   1  17
TORSDOF 10
ENDMDL
MODEL 4
REMARK VINA RESULT:    -5.378      1.911      2.580
REMARK INTER + INTRA:          -9.775
REMARK INTER:                  -8.655
REMARK INTRA:                  -1.120
REMARK UNBOUND:                -1.411
REMARK SMILES COc1cc(CNC(=O)CCCCCC(C)C)ccc1O
REMARK SMILES IDX 10 1 8 2 7 3 9 5 6 6 5 7 3 8 20 9 4 10 19 11 18 12 2 13 1 14
REMARK SMILES IDX 21 15 11 17 12 18 13 19 14 20 15 21 16 22 17 23
REMARK H PARENT 7 4 21 16
REMARK Flexibility Score: inf
ROOT
ATOM      1  C   UNL     1      77.404  84.598  66.684  1.00  0.00     0.100 C 
ENDROOT
BRANCH   1   2
ATOM      2  C   UNL     1      77.239  83.554  65.651  1.00  0.00     0.220 C 
ATOM      3  N   UNL     1      76.667  82.364  65.988  1.00  0.00    -0.352 N 
ATOM      4  H   UNL     1      76.512  82.231  66.977  1.00  0.00     0.163 HD
ATOM      5  O   UNL     1      77.591  83.803  64.472  1.00  0.00    -0.275 OA
BRANCH   3   6
ATOM      6  C   UNL     1      76.291  81.342  65.064  1.00  0.00     0.151 C 
BRANCH   6   7
ATOM      7  C   UNL     1      74.874  81.447  64.622  1.00  0.00    -0.025 A 
ATOM      8  C   UNL     1      72.595  82.307  64.954  1.00  0.00     0.160 A 
ATOM      9  C   UNL     1      72.192  81.702  63.745  1.00  0.00     0.157 A 
ATOM     10  C   UNL     1      73.927  82.160  65.395  1.00  0.00     0.056 A 
ATOM     11  C   UNL     1      73.119  80.968  62.982  1.00  0.00     0.050 A 
ATOM     12  C   UNL     1      74.450  80.846  63.414  1.00  0.00     0.009 A 
BRANCH   8  13
ATOM     13  O   UNL     1      71.703  83.010  65.722  1.00  0.00    -0.493 OA
ATOM     14  C   UNL     1      71.132  82.243  66.799  1.00  0.00     0.278 C 
ENDBRANCH   8  13
BRANCH   9  15
ATOM     15  O   UNL     1      70.913  81.836  63.314  1.00  0.00    -0.504 OA
ATOM     16  H   UNL     1      70.504  80.970  63.251  1.00  0.00     0.293 HD
ENDBRANCH   9  15
ENDBRANCH   6   7
ENDBRANCH   3   6
ENDBRANCH   1   2
BRANCH   1  17
ATOM     17  C   UNL     1      77.199  86.047  66.166  1.00  0.00     0.010 C 
BRANCH  17  18
ATOM     18  C   UNL     1      77.655  87.100  67.214  1.00  0.00     0.001 C 
BRANCH  18  19
ATOM     19  C   UNL     1      78.102  86.474  68.561  1.00  0.00     0.000 C 
BRANCH  19  20
ATOM     20  C   UNL     1      77.172  86.886  69.739  1.00  0.00     0.003 C 
BRANCH  20  21
ATOM     21  C   UNL     1      76.297  85.731  70.325  1.00  0.00    -0.017 C 
ATOM     22  C   UNL     1      77.132  84.425  70.479  1.00  0.00     0.007 C 
ATOM     23  C   UNL     1      75.020  85.451  69.479  1.00  0.00     0.007 C 
ENDBRANCH  20  21
ENDBRANCH  19  20
ENDBRANCH  18  19
ENDBRANCH  17  18
ENDBRANCH   1  17
TORSDOF 10
ENDMDL
MODEL 5
REMARK VINA RESULT:    -5.309     19.803     22.784
REMARK INTER + INTRA:          -9.668
REMARK INTER:                  -9.227
REMARK INTRA:                  -0.441
REMARK UNBOUND:                -1.411
REMARK SMILES COc1cc(CNC(=O)CCCCCC(C)C)ccc1O
REMARK SMILES IDX 10 1 8 2 7 3 9 5 6 6 5 7 3 8 20 9 4 10 19 11 18 12 2 13 1 14
REMARK SMILES IDX 21 15 11 17 12 18 13 19 14 20 15 21 16 22 17 23
REMARK H PARENT 7 4 21 16
REMARK Flexibility Score: inf
ROOT
ATOM      1  C   UNL     1      93.712 100.128  74.778  1.00  0.00     0.100 C 
ENDROOT
BRANCH   1   2
ATOM      2  C   UNL     1      94.328  99.269  75.811  1.00  0.00     0.220 C 
ATOM      3  N   UNL     1      93.874  97.995  75.979  1.00  0.00    -0.352 N 
ATOM      4  H   UNL     1      93.039  97.769  75.459  1.00  0.00     0.163 HD
ATOM      5  O   UNL     1      95.287  99.719  76.484  1.00  0.00    -0.275 OA
BRANCH   3   6
ATOM      6  C   UNL     1      94.485  97.009  76.811  1.00  0.00     0.151 C 
BRANCH   6   7
ATOM      7  C   UNL     1      93.504  96.080  77.433  1.00  0.00    -0.025 A 
ATOM      8  C   UNL     1      91.296  94.997  77.432  1.00  0.00     0.160 A 
ATOM      9  C   UNL     1      91.659  94.260  78.580  1.00  0.00     0.157 A 
ATOM     10  C   UNL     1      92.213  95.915  76.877  1.00  0.00     0.056 A 
ATOM     11  C   UNL     1      92.931  94.436  79.156  1.00  0.00     0.050 A 
ATOM     12  C   UNL     1      93.848  95.334  78.585  1.00  0.00     0.009 A 
BRANCH   8  13
ATOM     13  O   UNL     1      90.056  94.855  76.867  1.00  0.00    -0.493 OA
ATOM     14  C   UNL     1      89.888  93.628  76.131  1.00  0.00     0.278 C 
ENDBRANCH   8  13
BRANCH   9  15
ATOM     15  O   UNL     1      90.785  93.376  79.122  1.00  0.00    -0.504 OA
ATOM     16  H   UNL     1      90.564  92.705  78.473  1.00  0.00     0.293 HD
ENDBRANCH   9  15
ENDBRANCH   6   7
ENDBRANCH   3   6
ENDBRANCH   1   2
BRANCH   1  17
ATOM     17  C   UNL     1      92.540  99.462  74.008  1.00  0.00     0.010 C 
BRANCH  17  18
ATOM     18  C   UNL     1      91.942 100.416  72.938  1.00  0.00     0.001 C 
BRANCH  18  19
ATOM     19  C   UNL     1      91.367  99.673  71.703  1.00  0.00     0.000 C 
BRANCH  19  20
ATOM     20  C   UNL     1      89.999 100.259  71.249  1.00  0.00     0.003 C 
BRANCH  20  21
ATOM     21  C   UNL     1      88.982  99.209  70.693  1.00  0.00    -0.017 C 
ATOM     22  C   UNL     1      89.513  97.760  70.898  1.00  0.00     0.007 C 
ATOM     23  C   UNL     1      88.631  99.442  69.194  1.00  0.00     0.007 C 
ENDBRANCH  20  21
ENDBRANCH  19  20
ENDBRANCH  18  19
ENDBRANCH  17  18
ENDBRANCH   1  17
TORSDOF 10
ENDMDL
MODEL 6
REMARK VINA RESULT:    -5.305     25.081     27.332
REMARK INTER + INTRA:          -9.662
REMARK INTER:                  -8.972
REMARK INTRA:                  -0.690
REMARK UNBOUND:                -1.411
REMARK SMILES COc1cc(CNC(=O)CCCCCC(C)C)ccc1O
REMARK SMILES IDX 10 1 8 2 7 3 9 5 6 6 5 7 3 8 20 9 4 10 19 11 18 12 2 13 1 14
REMARK SMILES IDX 21 15 11 17 12 18 13 19 14 20 15 21 16 22 17 23
REMARK H PARENT 7 4 21 16
REMARK Flexibility Score: inf
ROOT
ATOM      1  C   UNL     1      99.050  81.812  84.803  1.00  0.00     0.100 C 
ENDROOT
BRANCH   1   2
ATOM      2  C   UNL     1      99.923  81.832  83.611  1.00  0.00     0.220 C 
ATOM      3  N   UNL     1      99.427  82.286  82.426  1.00  0.00    -0.352 N 
ATOM      4  H   UNL     1      98.432  82.459  82.419  1.00  0.00     0.163 HD
ATOM      5  O   UNL     1     101.119  81.469  83.726  1.00  0.00    -0.275 OA
BRANCH   3   6
ATOM      6  C   UNL     1     100.199  82.522  81.248  1.00  0.00     0.151 C 
BRANCH   6   7
ATOM      7  C   UNL     1      99.372  82.921  80.077  1.00  0.00    -0.025 A 
ATOM      8  C   UNL     1      99.146  83.308  77.659  1.00  0.00     0.160 A 
ATOM      9  C   UNL     1      97.780  83.616  77.839  1.00  0.00     0.157 A 
ATOM     10  C   UNL     1      99.937  82.981  78.781  1.00  0.00     0.056 A 
ATOM     11  C   UNL     1      97.215  83.586  79.127  1.00  0.00     0.050 A 
ATOM     12  C   UNL     1      98.002  83.236  80.237  1.00  0.00     0.009 A 
BRANCH   8  13
ATOM     13  O   UNL     1      99.720  83.351  76.416  1.00  0.00    -0.493 OA
ATOM     14  C   UNL     1      99.789  82.069  75.762  1.00  0.00     0.278 C 
ENDBRANCH   8  13
BRANCH   9  15
ATOM     15  O   UNL     1      97.011  83.934  76.767  1.00  0.00    -0.504 OA
ATOM     16  H   UNL     1      96.751  84.857  76.822  1.00  0.00     0.293 HD
ENDBRANCH   9  15
ENDBRANCH   6   7
ENDBRANCH   3   6
ENDBRANCH   1   2
BRANCH   1  17
ATOM     17  C   UNL     1      97.548  82.060  84.499  1.00  0.00     0.010 C 
BRANCH  17  18
ATOM     18  C   UNL     1      97.259  83.561  84.224  1.00  0.00     0.001 C 
BRANCH  18  19
ATOM     19  C   UNL     1      97.859  84.510  85.296  1.00  0.00     0.000 C 
BRANCH  19  20
ATOM     20  C   UNL     1      96.761  85.314  86.050  1.00  0.00     0.003 C 
BRANCH  20  21
ATOM     21  C   UNL     1      95.643  84.443  86.712  1.00  0.00    -0.017 C 
ATOM     22  C   UNL     1      94.511  85.341  87.292  1.00  0.00     0.007 C 
ATOM     23  C   UNL     1      96.191  83.494  87.817  1.00  0.00     0.007 C 
ENDBRANCH  20  21
ENDBRANCH  19  20
ENDBRANCH  18  19
ENDBRANCH  17  18
ENDBRANCH   1  17
TORSDOF 10
ENDMDL
MODEL 7
REMARK VINA RESULT:    -5.234     19.421     22.094
REMARK INTER + INTRA:          -9.551
REMARK INTER:                  -8.962
REMARK INTRA:                  -0.588
REMARK UNBOUND:                -1.411
REMARK SMILES COc1cc(CNC(=O)CCCCCC(C)C)ccc1O
REMARK SMILES IDX 10 1 8 2 7 3 9 5 6 6 5 7 3 8 20 9 4 10 19 11 18 12 2 13 1 14
REMARK SMILES IDX 21 15 11 17 12 18 13 19 14 20 15 21 16 22 17 23
REMARK H PARENT 7 4 21 16
REMARK Flexibility Score: inf
ROOT
ATOM      1  C   UNL     1      93.163  98.275  75.524  1.00  0.00     0.100 C 
ENDROOT
BRANCH   1   2
ATOM      2  C   UNL     1      93.349  99.166  74.360  1.00  0.00     0.220 C 
ATOM      3  N   UNL     1      92.256  99.674  73.725  1.00  0.00    -0.352 N 
ATOM      4  H   UNL     1      91.372  99.289  74.026  1.00  0.00     0.163 HD
ATOM      5  O   UNL     1      94.514  99.470  74.006  1.00  0.00    -0.275 OA
BRANCH   3   6
ATOM      6  C   UNL     1      92.288 100.674  72.706  1.00  0.00     0.151 C 
BRANCH   6   7
ATOM      7  C   UNL     1      91.299 100.436  71.621  1.00  0.00    -0.025 A 
ATOM      8  C   UNL     1      89.641  98.985  70.528  1.00  0.00     0.160 A 
ATOM      9  C   UNL     1      89.366 100.007  69.594  1.00  0.00     0.157 A 
ATOM     10  C   UNL     1      90.618  99.199  71.524  1.00  0.00     0.056 A 
ATOM     11  C   UNL     1      90.056 101.231  69.666  1.00  0.00     0.050 A 
ATOM     12  C   UNL     1      91.011 101.446  70.674  1.00  0.00     0.009 A 
BRANCH   8  13
ATOM     13  O   UNL     1      88.994  97.779  70.464  1.00  0.00    -0.493 OA
ATOM     14  C   UNL     1      89.743  96.753  69.784  1.00  0.00     0.278 C 
ENDBRANCH   8  13
BRANCH   9  15
ATOM     15  O   UNL     1      88.430  99.811  68.632  1.00  0.00    -0.504 OA
ATOM     16  H   UNL     1      88.695 100.266  67.830  1.00  0.00     0.293 HD
ENDBRANCH   9  15
ENDBRANCH   6   7
ENDBRANCH   3   6
ENDBRANCH   1   2
BRANCH   1  17
ATOM     17  C   UNL     1      94.125  97.056  75.556  1.00  0.00     0.010 C 
BRANCH  17  18
ATOM     18  C   UNL     1      93.732  96.046  76.668  1.00  0.00     0.001 C 
BRANCH  18  19
ATOM     19  C   UNL     1      92.269  95.541  76.554  1.00  0.00     0.000 C 
BRANCH  19  20
ATOM     20  C   UNL     1      91.702  95.064  77.923  1.00  0.00     0.003 C 
BRANCH  20  21
ATOM     21  C   UNL     1      90.200  94.633  77.901  1.00  0.00    -0.017 C 
ATOM     22  C   UNL     1      90.013  93.238  78.567  1.00  0.00     0.007 C 
ATOM     23  C   UNL     1      89.594  94.625  76.467  1.00  0.00     0.007 C 
ENDBRANCH  20  21
ENDBRANCH  19  20
ENDBRANCH  18  19
ENDBRANCH  17  18
ENDBRANCH   1  17
TORSDOF 10
ENDMDL
MODEL 8
REMARK VINA RESULT:    -5.196      2.490      3.858
REMARK INTER + INTRA:          -9.493
REMARK INTER:                  -8.792
REMARK INTRA:                  -0.701
REMARK UNBOUND:                -1.411
REMARK SMILES COc1cc(CNC(=O)CCCCCC(C)C)ccc1O
REMARK SMILES IDX 10 1 8 2 7 3 9 5 6 6 5 7 3 8 20 9 4 10 19 11 18 12 2 13 1 14
REMARK SMILES IDX 21 15 11 17 12 18 13 19 14 20 15 21 16 22 17 23
REMARK H PARENT 7 4 21 16
REMARK Flexibility Score: inf
ROOT
ATOM      1  C   UNL     1      76.887  82.329  66.270  1.00  0.00     0.100 C 
ENDROOT
BRANCH   1   2
ATOM      2  C   UNL     1      76.166  82.000  65.022  1.00  0.00     0.220 C 
ATOM      3  N   UNL     1      75.152  81.090  65.055  1.00  0.00    -0.352 N 
ATOM      4  H   UNL     1      75.052  80.597  65.931  1.00  0.00     0.163 HD
ATOM      5  O   UNL     1      76.477  82.599  63.964  1.00  0.00    -0.275 OA
BRANCH   3   6
ATOM      6  C   UNL     1      74.266  80.808  63.971  1.00  0.00     0.151 C 
BRANCH   6   7
ATOM      7  C   UNL     1      72.933  81.450  64.125  1.00  0.00    -0.025 A 
ATOM      8  C   UNL     1      71.128  82.299  65.564  1.00  0.00     0.160 A 
ATOM      9  C   UNL     1      70.424  82.732  64.421  1.00  0.00     0.157 A 
ATOM     10  C   UNL     1      72.369  81.644  65.408  1.00  0.00     0.056 A 
ATOM     11  C   UNL     1      70.963  82.519  63.138  1.00  0.00     0.050 A 
ATOM     12  C   UNL     1      72.209  81.888  62.991  1.00  0.00     0.009 A 
BRANCH   8  13
ATOM     13  O   UNL     1      70.612  82.479  66.820  1.00  0.00    -0.493 OA
ATOM     14  C   UNL     1      71.056  83.688  67.465  1.00  0.00     0.278 C 
ENDBRANCH   8  13
BRANCH   9  15
ATOM     15  O   UNL     1      69.229  83.360  64.559  1.00  0.00    -0.504 OA
ATOM     16  H   UNL     1      68.760  82.994  65.312  1.00  0.00     0.293 HD
ENDBRANCH   9  15
ENDBRANCH   6   7
ENDBRANCH   3   6
ENDBRANCH   1   2
BRANCH   1  17
ATOM     17  C   UNL     1      77.707  83.645  66.205  1.00  0.00     0.010 C 
BRANCH  17  18
ATOM     18  C   UNL     1      78.395  83.958  67.563  1.00  0.00     0.001 C 
BRANCH  18  19
ATOM     19  C   UNL     1      77.924  85.294  68.198  1.00  0.00     0.000 C 
BRANCH  19  20
ATOM     20  C   UNL     1      77.652  85.156  69.724  1.00  0.00     0.003 C 
BRANCH  20  21
ATOM     21  C   UNL     1      76.145  85.011  70.115  1.00  0.00    -0.017 C 
ATOM     22  C   UNL     1      75.473  86.408  70.264  1.00  0.00     0.007 C 
ATOM     23  C   UNL     1      75.934  84.175  71.411  1.00  0.00     0.007 C 
ENDBRANCH  20  21
ENDBRANCH  19  20
ENDBRANCH  18  19
ENDBRANCH  17  18
ENDBRANCH   1  17
TORSDOF 10
ENDMDL
MODEL 9
REMARK VINA RESULT:    -5.050     19.847     23.605
REMARK INTER + INTRA:          -9.265
REMARK INTER:                  -8.211
REMARK INTRA:                  -1.054
REMARK UNBOUND:                -1.411
REMARK SMILES COc1cc(CNC(=O)CCCCCC(C)C)ccc1O
REMARK SMILES IDX 10 1 8 2 7 3 9 5 6 6 5 7 3 8 20 9 4 10 19 11 18 12 2 13 1 14
REMARK SMILES IDX 21 15 11 17 12 18 13 19 14 20 15 21 16 22 17 23
REMARK H PARENT 7 4 21 16
REMARK Flexibility Score: inf
ROOT
ATOM      1  C   UNL     1      88.799  98.990  71.093  1.00  0.00     0.100 C 
ENDROOT
BRANCH   1   2
ATOM      2  C   UNL     1      89.773 100.019  71.513  1.00  0.00     0.220 C 
ATOM      3  N   UNL     1      90.997  99.634  71.973  1.00  0.00    -0.352 N 
ATOM      4  H   UNL     1      91.103  98.640  72.119  1.00  0.00     0.163 HD
ATOM      5  O   UNL     1      89.467 101.231  71.397  1.00  0.00    -0.275 OA
BRANCH   3   6
ATOM      6  C   UNL     1      92.087 100.515  72.246  1.00  0.00     0.151 C 
BRANCH   6   7
ATOM      7  C   UNL     1      93.101  99.924  73.161  1.00  0.00    -0.025 A 
ATOM      8  C   UNL     1      95.428  99.293  73.643  1.00  0.00     0.160 A 
ATOM      9  C   UNL     1      95.042  98.861  74.930  1.00  0.00     0.157 A 
ATOM     10  C   UNL     1      94.452  99.804  72.760  1.00  0.00     0.056 A 
ATOM     11  C   UNL     1      93.696  98.952  75.329  1.00  0.00     0.050 A 
ATOM     12  C   UNL     1      92.734  99.484  74.454  1.00  0.00     0.009 A 
BRANCH   8  13
ATOM     13  O   UNL     1      96.730  99.196  73.227  1.00  0.00    -0.493 OA
ATOM     14  C   UNL     1      96.923  99.517  71.836  1.00  0.00     0.278 C 
ENDBRANCH   8  13
BRANCH   9  15
ATOM     15  O   UNL     1      95.972  98.366  75.785  1.00  0.00    -0.504 OA
ATOM     16  H   UNL     1      95.534  97.991  76.552  1.00  0.00     0.293 HD
ENDBRANCH   9  15
ENDBRANCH   6   7
ENDBRANCH   3   6
ENDBRANCH   1   2
BRANCH   1  17
ATOM     17  C   UNL     1      89.369  97.937  70.105  1.00  0.00     0.010 C 
BRANCH  17  18
ATOM     18  C   UNL     1      88.449  97.757  68.866  1.00  0.00     0.001 C 
BRANCH  18  19
ATOM     19  C   UNL     1      88.219  99.071  68.073  1.00  0.00     0.000 C 
BRANCH  19  20
ATOM     20  C   UNL     1      89.538  99.628  67.462  1.00  0.00     0.003 C 
BRANCH  20  21
ATOM     21  C   UNL     1      89.666 101.186  67.476  1.00  0.00    -0.017 C 
ATOM     22  C   UNL     1      90.924 101.632  68.278  1.00  0.00     0.007 C 
ATOM     23  C   UNL     1      88.397 101.891  68.038  1.00  0.00     0.007 C 
ENDBRANCH  20  21
ENDBRANCH  19  20
ENDBRANCH  18  19
ENDBRANCH  17  18
ENDBRANCH   1  17
TORSDOF 10
ENDMDL
MODEL 10
REMARK VINA RESULT:    -5.035     19.245     22.624
REMARK INTER + INTRA:          -9.241
REMARK INTER:                  -7.437
REMARK INTRA:                  -1.804
REMARK UNBOUND:                -1.411
REMARK SMILES COc1cc(CNC(=O)CCCCCC(C)C)ccc1O
REMARK SMILES IDX 10 1 8 2 7 3 9 5 6 6 5 7 3 8 20 9 4 10 19 11 18 12 2 13 1 14
REMARK SMILES IDX 21 15 11 17 12 18 13 19 14 20 15 21 16 22 17 23
REMARK H PARENT 7 4 21 16
REMARK Flexibility Score: inf
ROOT
ATOM      1  C   UNL     1      89.366  99.543  67.461  1.00  0.00     0.100 C 
ENDROOT
BRANCH   1   2
ATOM      2  C   UNL     1      89.259 100.914  68.001  1.00  0.00     0.220 C 
ATOM      3  N   UNL     1      90.360 101.508  68.543  1.00  0.00    -0.352 N 
ATOM      4  H   UNL     1      91.159 100.900  68.655  1.00  0.00     0.163 HD
ATOM      5  O   UNL     1      88.164 101.521  67.911  1.00  0.00    -0.275 OA
BRANCH   3   6
ATOM      6  C   UNL     1      90.444 102.877  68.940  1.00  0.00     0.151 C 
BRANCH   6   7
ATOM      7  C   UNL     1      90.170 103.083  70.388  1.00  0.00    -0.025 A 
ATOM      8  C   UNL     1      88.614 103.659  72.203  1.00  0.00     0.160 A 
ATOM      9  C   UNL     1      89.630 103.410  73.150  1.00  0.00     0.157 A 
ATOM     10  C   UNL     1      88.896 103.512  70.828  1.00  0.00     0.056 A 
ATOM     11  C   UNL     1      90.909 103.009  72.722  1.00  0.00     0.050 A 
ATOM     12  C   UNL     1      91.176 102.841  71.352  1.00  0.00     0.009 A 
BRANCH   8  13
ATOM     13  O   UNL     1      87.368 104.069  72.597  1.00  0.00    -0.493 OA
ATOM     14  C   UNL     1      86.727 104.962  71.665  1.00  0.00     0.278 C 
ENDBRANCH   8  13
BRANCH   9  15
ATOM     15  O   UNL     1      89.371 103.551  74.474  1.00  0.00    -0.504 OA
ATOM     16  H   UNL     1      90.057 104.086  74.879  1.00  0.00     0.293 HD
ENDBRANCH   9  15
ENDBRANCH   6   7
ENDBRANCH   3   6
ENDBRANCH   1   2
BRANCH   1  17
ATOM     17  C   UNL     1      88.171  98.620  67.823  1.00  0.00     0.010 C 
BRANCH  17  18
ATOM     18  C   UNL     1      88.650  97.207  68.256  1.00  0.00     0.001 C 
BRANCH  18  19
ATOM     19  C   UNL     1      89.890  97.236  69.189  1.00  0.00     0.000 C 
BRANCH  19  20
ATOM     20  C   UNL     1      89.495  97.350  70.690  1.00  0.00     0.003 C 
BRANCH  20  21
ATOM     21  C   UNL     1      89.939  98.674  71.391  1.00  0.00    -0.017 C 
ATOM     22  C   UNL     1      88.804  99.739  71.338  1.00  0.00     0.007 C 
ATOM     23  C   UNL     1      91.251  99.263  70.795  1.00  0.00     0.007 C 
ENDBRANCH  20  21
ENDBRANCH  19  20
ENDBRANCH  18  19
ENDBRANCH  17  18
ENDBRANCH   1  17
TORSDOF 10
ENDMDL
