MODEL 1
REMARK VINA RESULT:    -6.578      0.000      0.000
REMARK INTER + INTRA:         -11.319
REMARK INTER:                 -10.616
REMARK INTRA:                  -0.703
REMARK UNBOUND:                -0.703
REMARK SMILES COc1cc(CNC(=O)CCCCCCC(C)C)ccc1O
REMARK SMILES IDX 11 1 10 2 8 3 7 4 9 6 6 7 5 8 3 9 21 10 4 11 20 12 19 13
REMARK SMILES IDX 2 14 1 15 22 16 12 18 13 19 14 20 15 21 16 22 17 23 18 24
REMARK H PARENT 7 5 22 17
REMARK Flexibility Score: inf
ROOT
ATOM      1  C   UNL     1      93.595  94.810  75.584  1.00  0.00     0.010 C 
ENDROOT
BRANCH   1   2
ATOM      2  C   UNL     1      92.904  94.276  76.869  1.00  0.00     0.100 C 
BRANCH   2   3
ATOM      3  C   UNL     1      91.556  93.718  76.619  1.00  0.00     0.220 C 
ATOM      4  N   UNL     1      90.944  92.946  77.563  1.00  0.00    -0.352 N 
ATOM      5  H   UNL     1      91.499  92.768  78.386  1.00  0.00     0.163 HD
ATOM      6  O   UNL     1      90.983  93.992  75.536  1.00  0.00    -0.275 OA
BRANCH   4   7
ATOM      7  C   UNL     1      89.623  92.404  77.457  1.00  0.00     0.151 C 
BRANCH   7   8
ATOM      8  C   UNL     1      89.589  91.067  76.801  1.00  0.00    -0.025 A 
ATOM      9  C   UNL     1      89.175  89.681  74.813  1.00  0.00     0.160 A 
ATOM     10  C   UNL     1      89.563  88.530  75.532  1.00  0.00     0.157 A 
ATOM     11  C   UNL     1      89.173  90.936  75.457  1.00  0.00     0.056 A 
ATOM     12  C   UNL     1      89.942  88.642  76.882  1.00  0.00     0.050 A 
ATOM     13  C   UNL     1      89.966  89.902  77.510  1.00  0.00     0.009 A 
BRANCH   9  14
ATOM     14  O   UNL     1      88.767  89.577  73.511  1.00  0.00    -0.493 OA
ATOM     15  C   UNL     1      89.583  90.319  72.586  1.00  0.00     0.278 C 
ENDBRANCH   9  14
BRANCH  10  16
ATOM     16  O   UNL     1      89.573  87.307  74.937  1.00  0.00    -0.504 OA
ATOM     17  H   UNL     1      90.479  86.998  74.858  1.00  0.00     0.293 HD
ENDBRANCH  10  16
ENDBRANCH   7   8
ENDBRANCH   4   7
ENDBRANCH   2   3
ENDBRANCH   1   2
BRANCH   1  18
ATOM     18  C   UNL     1      95.145  94.830  75.716  1.00  0.00     0.001 C 
BRANCH  18  19
ATOM     19  C   UNL     1      95.683  93.984  76.904  1.00  0.00     0.000 C 
BRANCH  19  20
ATOM     20  C   UNL     1      96.232  94.885  78.045  1.00  0.00     0.000 C 
BRANCH  20  21
ATOM     21  C   UNL     1      95.413  94.814  79.363  1.00  0.00     0.003 C 
BRANCH  21  22
ATOM     22  C   UNL     1      96.243  95.084  80.661  1.00  0.00    -0.017 C 
ATOM     23  C   UNL     1      96.042  93.932  81.684  1.00  0.00     0.007 C 
ATOM     24  C   UNL     1      95.938  96.461  81.323  1.00  0.00     0.007 C 
ENDBRANCH  21  22
ENDBRANCH  20  21
ENDBRANCH  19  20
ENDBRANCH  18  19
ENDBRANCH   1  18
TORSDOF 11
ENDMDL
MODEL 2
REMARK VINA RESULT:    -6.463      3.539      9.129
REMARK INTER + INTRA:         -11.133
REMARK INTER:                 -10.148
REMARK INTRA:                  -0.985
REMARK UNBOUND:                -0.703
REMARK SMILES COc1cc(CNC(=O)CCCCCCC(C)C)ccc1O
REMARK SMILES IDX 11 1 10 2 8 3 7 4 9 6 6 7 5 8 3 9 21 10 4 11 20 12 19 13
REMARK SMILES IDX 2 14 1 15 22 16 12 18 13 19 14 20 15 21 16 22 17 23 18 24
REMARK H PARENT 7 5 22 17
REMARK Flexibility Score: inf
ROOT
ATOM      1  C   UNL     1      91.435  94.460  76.438  1.00  0.00     0.010 C 
ENDROOT
BRANCH   1   2
ATOM      2  C   UNL     1      92.526  93.358  76.536  1.00  0.00     0.100 C 
BRANCH   2   3
ATOM      3  C   UNL     1      93.904  93.898  76.549  1.00  0.00     0.220 C 
ATOM      4  N   UNL     1      94.450  94.366  77.709  1.00  0.00    -0.352 N 
ATOM      5  H   UNL     1      93.829  94.347  78.504  1.00  0.00     0.163 HD
ATOM      6  O   UNL     1      94.563  93.893  75.480  1.00  0.00    -0.275 OA
BRANCH   4   7
ATOM      7  C   UNL     1      95.787  94.855  77.854  1.00  0.00     0.151 C 
BRANCH   7   8
ATOM      8  C   UNL     1      96.164  95.122  79.269  1.00  0.00    -0.025 A 
ATOM      9  C   UNL     1      97.824  95.856  80.929  1.00  0.00     0.160 A 
ATOM     10  C   UNL     1      96.876  95.674  81.960  1.00  0.00     0.157 A 
ATOM     11  C   UNL     1      97.467  95.561  79.596  1.00  0.00     0.056 A 
ATOM     12  C   UNL     1      95.588  95.200  81.652  1.00  0.00     0.050 A 
ATOM     13  C   UNL     1      95.230  94.936  80.316  1.00  0.00     0.009 A 
BRANCH   9  14
ATOM     14  O   UNL     1      99.092  96.278  81.223  1.00  0.00    -0.493 OA
ATOM     15  C   UNL     1     100.073  95.893  80.243  1.00  0.00     0.278 C 
ENDBRANCH   9  14
BRANCH  10  16
ATOM     16  O   UNL     1      97.193  95.948  83.253  1.00  0.00    -0.504 OA
ATOM     17  H   UNL     1      97.629  95.187  83.644  1.00  0.00     0.293 HD
ENDBRANCH  10  16
ENDBRANCH   7   8
ENDBRANCH   4   7
ENDBRANCH   2   3
ENDBRANCH   1   2
BRANCH   1  18
ATOM     18  C   UNL     1      89.998  93.867  76.450  1.00  0.00     0.001 C 
BRANCH  18  19
ATOM     19  C   UNL     1      89.847  92.610  77.354  1.00  0.00     0.000 C 
BRANCH  19  20
ATOM     20  C   UNL     1      89.372  91.374  76.540  1.00  0.00     0.000 C 
BRANCH  20  21
ATOM     21  C   UNL     1      90.527  90.495  75.985  1.00  0.00     0.003 C 
BRANCH  21  22
ATOM     22  C   UNL     1      90.487  90.268  74.438  1.00  0.00    -0.017 C 
ATOM     23  C   UNL     1      91.339  91.344  73.709  1.00  0.00     0.007 C 
ATOM     24  C   UNL     1      89.046  90.223  73.850  1.00  0.00     0.007 C 
ENDBRANCH  21  22
ENDBRANCH  20  21
ENDBRANCH  19  20
ENDBRANCH  18  19
ENDBRANCH   1  18
TORSDOF 11
ENDMDL
MODEL 3
REMARK VINA RESULT:    -6.462      5.272      8.042
REMARK INTER + INTRA:         -11.131
REMARK INTER:                 -10.606
REMARK INTRA:                  -0.525
REMARK UNBOUND:                -0.703
REMARK SMILES COc1cc(CNC(=O)CCCCCCC(C)C)ccc1O
REMARK SMILES IDX 11 1 10 2 8 3 7 4 9 6 6 7 5 8 3 9 21 10 4 11 20 12 19 13
REMARK SMILES IDX 2 14 1 15 22 16 12 18 13 19 14 20 15 21 16 22 17 23 18 24
REMARK H PARENT 7 5 22 17
REMARK Flexibility Score: inf
ROOT
ATOM      1  C   UNL     1      93.785  97.879  72.074  1.00  0.00     0.010 C 
ENDROOT
BRANCH   1   2
ATOM      2  C   UNL     1      94.117  98.301  73.532  1.00  0.00     0.100 C 
BRANCH   2   3
ATOM      3  C   UNL     1      94.731  97.216  74.330  1.00  0.00     0.220 C 
ATOM      4  N   UNL     1      93.982  96.150  74.736  1.00  0.00    -0.352 N 
ATOM      5  H   UNL     1      93.006  96.203  74.486  1.00  0.00     0.163 HD
ATOM      6  O   UNL     1      95.955  97.287  74.600  1.00  0.00    -0.275 OA
BRANCH   4   7
ATOM      7  C   UNL     1      94.479  95.019  75.459  1.00  0.00     0.151 C 
BRANCH   7   8
ATOM      8  C   UNL     1      93.434  93.996  75.737  1.00  0.00    -0.025 A 
ATOM      9  C   UNL     1      92.054  92.103  74.987  1.00  0.00     0.160 A 
ATOM     10  C   UNL     1      91.475  92.014  76.271  1.00  0.00     0.157 A 
ATOM     11  C   UNL     1      93.014  93.103  74.724  1.00  0.00     0.056 A 
ATOM     12  C   UNL     1      91.856  92.921  77.276  1.00  0.00     0.050 A 
ATOM     13  C   UNL     1      92.836  93.899  77.015  1.00  0.00     0.009 A 
BRANCH   9  14
ATOM     14  O   UNL     1      91.661  91.251  73.991  1.00  0.00    -0.493 OA
ATOM     15  C   UNL     1      90.762  91.846  73.039  1.00  0.00     0.278 C 
ENDBRANCH   9  14
BRANCH  10  16
ATOM     16  O   UNL     1      90.547  91.061  76.552  1.00  0.00    -0.504 OA
ATOM     17  H   UNL     1      89.680  91.469  76.618  1.00  0.00     0.293 HD
ENDBRANCH  10  16
ENDBRANCH   7   8
ENDBRANCH   4   7
ENDBRANCH   2   3
ENDBRANCH   1   2
BRANCH   1  18
ATOM     18  C   UNL     1      93.573  99.105  71.142  1.00  0.00     0.001 C 
BRANCH  18  19
ATOM     19  C   UNL     1      92.098  99.302  70.691  1.00  0.00     0.000 C 
BRANCH  19  20
ATOM     20  C   UNL     1      91.788  98.515  69.387  1.00  0.00     0.000 C 
BRANCH  20  21
ATOM     21  C   UNL     1      90.289  98.151  69.203  1.00  0.00     0.003 C 
BRANCH  21  22
ATOM     22  C   UNL     1      89.806  98.112  67.716  1.00  0.00    -0.017 C 
ATOM     23  C   UNL     1      89.888  96.664  67.156  1.00  0.00     0.007 C 
ATOM     24  C   UNL     1      90.568  99.100  66.785  1.00  0.00     0.007 C 
ENDBRANCH  21  22
ENDBRANCH  20  21
ENDBRANCH  19  20
ENDBRANCH  18  19
ENDBRANCH   1  18
TORSDOF 11
ENDMDL
MODEL 4
REMARK VINA RESULT:    -6.390      2.199      3.222
REMARK INTER + INTRA:         -11.014
REMARK INTER:                  -9.842
REMARK INTRA:                  -1.172
REMARK UNBOUND:                -0.703
REMARK SMILES COc1cc(CNC(=O)CCCCCCC(C)C)ccc1O
REMARK SMILES IDX 11 1 10 2 8 3 7 4 9 6 6 7 5 8 3 9 21 10 4 11 20 12 19 13
REMARK SMILES IDX 2 14 1 15 22 16 12 18 13 19 14 20 15 21 16 22 17 23 18 24
REMARK H PARENT 7 5 22 17
REMARK Flexibility Score: inf
ROOT
ATOM      1  C   UNL     1      94.129  94.661  76.727  1.00  0.00     0.010 C 
ENDROOT
BRANCH   1   2
ATOM      2  C   UNL     1      92.710  94.530  76.107  1.00  0.00     0.100 C 
BRANCH   2   3
ATOM      3  C   UNL     1      91.808  93.655  76.890  1.00  0.00     0.220 C 
ATOM      4  N   UNL     1      90.481  93.582  76.582  1.00  0.00    -0.352 N 
ATOM      5  H   UNL     1      90.189  94.190  75.832  1.00  0.00     0.163 HD
ATOM      6  O   UNL     1      92.295  92.970  77.822  1.00  0.00    -0.275 OA
BRANCH   4   7
ATOM      7  C   UNL     1      89.529  92.731  77.229  1.00  0.00     0.151 C 
BRANCH   7   8
ATOM      8  C   UNL     1      89.509  91.348  76.678  1.00  0.00    -0.025 A 
ATOM      9  C   UNL     1      89.032  89.799  74.828  1.00  0.00     0.160 A 
ATOM     10  C   UNL     1      89.508  88.720  75.605  1.00  0.00     0.157 A 
ATOM     11  C   UNL     1      89.019  91.099  75.376  1.00  0.00     0.056 A 
ATOM     12  C   UNL     1      89.961  88.949  76.917  1.00  0.00     0.050 A 
ATOM     13  C   UNL     1      89.972  90.254  77.447  1.00  0.00     0.009 A 
BRANCH   9  14
ATOM     14  O   UNL     1      88.552  89.581  73.565  1.00  0.00    -0.493 OA
ATOM     15  C   UNL     1      87.871  90.716  73.001  1.00  0.00     0.278 C 
ENDBRANCH   9  14
BRANCH  10  16
ATOM     16  O   UNL     1      89.531  87.458  75.104  1.00  0.00    -0.504 OA
ATOM     17  H   UNL     1      88.636  87.182  74.892  1.00  0.00     0.293 HD
ENDBRANCH  10  16
ENDBRANCH   7   8
ENDBRANCH   4   7
ENDBRANCH   2   3
ENDBRANCH   1   2
BRANCH   1  18
ATOM     18  C   UNL     1      95.245  94.230  75.734  1.00  0.00     0.001 C 
BRANCH  18  19
ATOM     19  C   UNL     1      96.676  94.643  76.182  1.00  0.00     0.000 C 
BRANCH  19  20
ATOM     20  C   UNL     1      97.148  95.938  75.464  1.00  0.00     0.000 C 
BRANCH  20  21
ATOM     21  C   UNL     1      96.429  96.218  74.115  1.00  0.00     0.003 C 
BRANCH  21  22
ATOM     22  C   UNL     1      95.660  97.578  74.058  1.00  0.00    -0.017 C 
ATOM     23  C   UNL     1      95.925  98.407  75.346  1.00  0.00     0.007 C 
ATOM     24  C   UNL     1      94.130  97.421  73.815  1.00  0.00     0.007 C 
ENDBRANCH  21  22
ENDBRANCH  20  21
ENDBRANCH  19  20
ENDBRANCH  18  19
ENDBRANCH   1  18
TORSDOF 11
ENDMDL
MODEL 5
REMARK VINA RESULT:    -6.293      1.774      3.240
REMARK INTER + INTRA:         -10.859
REMARK INTER:                  -9.736
REMARK INTRA:                  -1.122
REMARK UNBOUND:                -0.703
REMARK SMILES COc1cc(CNC(=O)CCCCCCC(C)C)ccc1O
REMARK SMILES IDX 11 1 10 2 8 3 7 4 9 6 6 7 5 8 3 9 21 10 4 11 20 12 19 13
REMARK SMILES IDX 2 14 1 15 22 16 12 18 13 19 14 20 15 21 16 22 17 23 18 24
REMARK H PARENT 7 5 22 17
REMARK Flexibility Score: inf
ROOT
ATOM      1  C   UNL     1      94.294  94.295  78.007  1.00  0.00     0.010 C 
ENDROOT
BRANCH   1   2
ATOM      2  C   UNL     1      94.031  93.883  76.532  1.00  0.00     0.100 C 
BRANCH   2   3
ATOM      3  C   UNL     1      92.653  93.397  76.297  1.00  0.00     0.220 C 
ATOM      4  N   UNL     1      91.778  93.277  77.337  1.00  0.00    -0.352 N 
ATOM      5  H   UNL     1      92.166  93.499  78.242  1.00  0.00     0.163 HD
ATOM      6  O   UNL     1      92.304  93.124  75.122  1.00  0.00    -0.275 OA
BRANCH   4   7
ATOM      7  C   UNL     1      90.409  92.875  77.222  1.00  0.00     0.151 C 
BRANCH   7   8
ATOM      8  C   UNL     1      90.201  91.422  77.473  1.00  0.00    -0.025 A 
ATOM      9  C   UNL     1      89.911  89.134  76.621  1.00  0.00     0.160 A 
ATOM     10  C   UNL     1      89.850  88.646  77.944  1.00  0.00     0.157 A 
ATOM     11  C   UNL     1      90.067  90.517  76.396  1.00  0.00     0.056 A 
ATOM     12  C   UNL     1      89.943  89.541  79.025  1.00  0.00     0.050 A 
ATOM     13  C   UNL     1      90.128  90.918  78.793  1.00  0.00     0.009 A 
BRANCH   9  14
ATOM     14  O   UNL     1      89.782  88.276  75.562  1.00  0.00    -0.493 OA
ATOM     15  C   UNL     1      91.030  87.721  75.109  1.00  0.00     0.278 C 
ENDBRANCH   9  14
BRANCH  10  16
ATOM     16  O   UNL     1      89.698  87.318  78.191  1.00  0.00    -0.504 OA
ATOM     17  H   UNL     1      88.768  87.086  78.129  1.00  0.00     0.293 HD
ENDBRANCH  10  16
ENDBRANCH   7   8
ENDBRANCH   4   7
ENDBRANCH   2   3
ENDBRANCH   1   2
BRANCH   1  18
ATOM     18  C   UNL     1      95.794  94.163  78.395  1.00  0.00     0.001 C 
BRANCH  18  19
ATOM     19  C   UNL     1      96.415  95.475  78.952  1.00  0.00     0.000 C 
BRANCH  19  20
ATOM     20  C   UNL     1      97.024  96.347  77.817  1.00  0.00     0.000 C 
BRANCH  20  21
ATOM     21  C   UNL     1      97.509  95.537  76.583  1.00  0.00     0.003 C 
BRANCH  21  22
ATOM     22  C   UNL     1      97.060  96.124  75.204  1.00  0.00    -0.017 C 
ATOM     23  C   UNL     1      98.198  96.982  74.583  1.00  0.00     0.007 C 
ATOM     24  C   UNL     1      95.736  96.941  75.272  1.00  0.00     0.007 C 
ENDBRANCH  21  22
ENDBRANCH  20  21
ENDBRANCH  19  20
ENDBRANCH  18  19
ENDBRANCH   1  18
TORSDOF 11
ENDMDL
MODEL 6
REMARK VINA RESULT:    -6.129      2.032      2.910
REMARK INTER + INTRA:         -10.594
REMARK INTER:                  -9.633
REMARK INTRA:                  -0.961
REMARK UNBOUND:                -0.703
REMARK SMILES COc1cc(CNC(=O)CCCCCCC(C)C)ccc1O
REMARK SMILES IDX 11 1 10 2 8 3 7 4 9 6 6 7 5 8 3 9 21 10 4 11 20 12 19 13
REMARK SMILES IDX 2 14 1 15 22 16 12 18 13 19 14 20 15 21 16 22 17 23 18 24
REMARK H PARENT 7 5 22 17
REMARK Flexibility Score: inf
ROOT
ATOM      1  C   UNL     1      96.215  96.175  75.164  1.00  0.00     0.010 C 
ENDROOT
BRANCH   1   2
ATOM      2  C   UNL     1      95.904  94.670  74.935  1.00  0.00     0.100 C 
BRANCH   2   3
ATOM      3  C   UNL     1      95.229  94.031  76.087  1.00  0.00     0.220 C 
ATOM      4  N   UNL     1      93.892  94.211  76.288  1.00  0.00    -0.352 N 
ATOM      5  H   UNL     1      93.446  94.831  75.628  1.00  0.00     0.163 HD
ATOM      6  O   UNL     1      95.907  93.305  76.855  1.00  0.00    -0.275 OA
BRANCH   4   7
ATOM      7  C   UNL     1      93.123  93.599  77.330  1.00  0.00     0.151 C 
BRANCH   7   8
ATOM      8  C   UNL     1      91.986  92.786  76.819  1.00  0.00    -0.025 A 
ATOM      9  C   UNL     1      91.022  91.315  75.098  1.00  0.00     0.160 A 
ATOM     10  C   UNL     1      89.838  91.198  75.859  1.00  0.00     0.157 A 
ATOM     11  C   UNL     1      92.078  92.122  75.574  1.00  0.00     0.056 A 
ATOM     12  C   UNL     1      89.720  91.885  77.080  1.00  0.00     0.050 A 
ATOM     13  C   UNL     1      90.789  92.665  77.563  1.00  0.00     0.009 A 
BRANCH   9  14
ATOM     14  O   UNL     1      91.133  90.683  73.890  1.00  0.00    -0.493 OA
ATOM     15  C   UNL     1      90.981  91.561  72.760  1.00  0.00     0.278 C 
ENDBRANCH   9  14
BRANCH  10  16
ATOM     16  O   UNL     1      88.805  90.429  75.424  1.00  0.00    -0.504 OA
ATOM     17  H   UNL     1      89.005  89.504  75.586  1.00  0.00     0.293 HD
ENDBRANCH  10  16
ENDBRANCH   7   8
ENDBRANCH   4   7
ENDBRANCH   2   3
ENDBRANCH   1   2
BRANCH   1  18
ATOM     18  C   UNL     1      97.419  96.387  76.124  1.00  0.00     0.001 C 
BRANCH  18  19
ATOM     19  C   UNL     1      97.015  96.916  77.529  1.00  0.00     0.000 C 
BRANCH  19  20
ATOM     20  C   UNL     1      97.496  95.964  78.660  1.00  0.00     0.000 C 
BRANCH  20  21
ATOM     21  C   UNL     1      96.351  95.398  79.545  1.00  0.00     0.003 C 
BRANCH  21  22
ATOM     22  C   UNL     1      96.426  95.816  81.050  1.00  0.00    -0.017 C 
ATOM     23  C   UNL     1      95.315  95.101  81.869  1.00  0.00     0.007 C 
ATOM     24  C   UNL     1      96.362  97.356  81.275  1.00  0.00     0.007 C 
ENDBRANCH  21  22
ENDBRANCH  20  21
ENDBRANCH  19  20
ENDBRANCH  18  19
ENDBRANCH   1  18
TORSDOF 11
ENDMDL
MODEL 7
REMARK VINA RESULT:    -5.997      2.122      3.706
REMARK INTER + INTRA:         -10.381
REMARK INTER:                  -9.266
REMARK INTRA:                  -1.114
REMARK UNBOUND:                -0.703
REMARK SMILES COc1cc(CNC(=O)CCCCCCC(C)C)ccc1O
REMARK SMILES IDX 11 1 10 2 8 3 7 4 9 6 6 7 5 8 3 9 21 10 4 11 20 12 19 13
REMARK SMILES IDX 2 14 1 15 22 16 12 18 13 19 14 20 15 21 16 22 17 23 18 24
REMARK H PARENT 7 5 22 17
REMARK Flexibility Score: inf
ROOT
ATOM      1  C   UNL     1      95.049  94.480  79.126  1.00  0.00     0.010 C 
ENDROOT
BRANCH   1   2
ATOM      2  C   UNL     1      95.961  94.285  77.884  1.00  0.00     0.100 C 
BRANCH   2   3
ATOM      3  C   UNL     1      95.204  94.079  76.629  1.00  0.00     0.220 C 
ATOM      4  N   UNL     1      93.866  94.339  76.581  1.00  0.00    -0.352 N 
ATOM      5  H   UNL     1      93.461  94.628  77.459  1.00  0.00     0.163 HD
ATOM      6  O   UNL     1      95.823  93.685  75.611  1.00  0.00    -0.275 OA
BRANCH   4   7
ATOM      7  C   UNL     1      93.045  94.232  75.413  1.00  0.00     0.151 C 
BRANCH   7   8
ATOM      8  C   UNL     1      91.843  93.378  75.617  1.00  0.00    -0.025 A 
ATOM      9  C   UNL     1      90.496  91.415  74.998  1.00  0.00     0.160 A 
ATOM     10  C   UNL     1      89.578  91.718  76.027  1.00  0.00     0.157 A 
ATOM     11  C   UNL     1      91.609  92.256  74.789  1.00  0.00     0.056 A 
ATOM     12  C   UNL     1      89.779  92.854  76.832  1.00  0.00     0.050 A 
ATOM     13  C   UNL     1      90.908  93.673  76.637  1.00  0.00     0.009 A 
BRANCH   9  14
ATOM     14  O   UNL     1      90.289  90.335  74.183  1.00  0.00    -0.493 OA
ATOM     15  C   UNL     1      91.068  89.180  74.542  1.00  0.00     0.278 C 
ENDBRANCH   9  14
BRANCH  10  16
ATOM     16  O   UNL     1      88.496  90.927  76.250  1.00  0.00    -0.504 OA
ATOM     17  H   UNL     1      88.714  90.267  76.913  1.00  0.00     0.293 HD
ENDBRANCH  10  16
ENDBRANCH   7   8
ENDBRANCH   4   7
ENDBRANCH   2   3
ENDBRANCH   1   2
BRANCH   1  18
ATOM     18  C   UNL     1      95.664  93.855  80.411  1.00  0.00     0.001 C 
BRANCH  18  19
ATOM     19  C   UNL     1      95.573  94.776  81.661  1.00  0.00     0.000 C 
BRANCH  19  20
ATOM     20  C   UNL     1      96.261  96.148  81.412  1.00  0.00     0.000 C 
BRANCH  20  21
ATOM     21  C   UNL     1      97.767  96.048  81.044  1.00  0.00     0.003 C 
BRANCH  21  22
ATOM     22  C   UNL     1      98.235  97.055  79.942  1.00  0.00    -0.017 C 
ATOM     23  C   UNL     1      99.097  98.186  80.571  1.00  0.00     0.007 C 
ATOM     24  C   UNL     1      97.066  97.659  79.110  1.00  0.00     0.007 C 
ENDBRANCH  21  22
ENDBRANCH  20  21
ENDBRANCH  19  20
ENDBRANCH  18  19
ENDBRANCH   1  18
TORSDOF 11
ENDMDL
MODEL 8
REMARK VINA RESULT:    -5.645      2.299      3.832
REMARK INTER + INTRA:          -9.812
REMARK INTER:                  -8.743
REMARK INTRA:                  -1.069
REMARK UNBOUND:                -0.703
REMARK SMILES COc1cc(CNC(=O)CCCCCCC(C)C)ccc1O
REMARK SMILES IDX 11 1 10 2 8 3 7 4 9 6 6 7 5 8 3 9 21 10 4 11 20 12 19 13
REMARK SMILES IDX 2 14 1 15 22 16 12 18 13 19 14 20 15 21 16 22 17 23 18 24
REMARK H PARENT 7 5 22 17
REMARK Flexibility Score: inf
ROOT
ATOM      1  C   UNL     1      96.715  96.845  76.590  1.00  0.00     0.010 C 
ENDROOT
BRANCH   1   2
ATOM      2  C   UNL     1      96.255  95.753  75.585  1.00  0.00     0.100 C 
BRANCH   2   3
ATOM      3  C   UNL     1      95.551  94.623  76.231  1.00  0.00     0.220 C 
ATOM      4  N   UNL     1      94.261  94.765  76.654  1.00  0.00    -0.352 N 
ATOM      5  H   UNL     1      93.876  95.689  76.527  1.00  0.00     0.163 HD
ATOM      6  O   UNL     1      96.156  93.530  76.356  1.00  0.00    -0.275 OA
BRANCH   4   7
ATOM      7  C   UNL     1      93.464  93.729  77.236  1.00  0.00     0.151 C 
BRANCH   7   8
ATOM      8  C   UNL     1      92.394  93.232  76.329  1.00  0.00    -0.025 A 
ATOM      9  C   UNL     1      90.250  92.073  75.999  1.00  0.00     0.160 A 
ATOM     10  C   UNL     1      90.328  92.319  74.611  1.00  0.00     0.157 A 
ATOM     11  C   UNL     1      91.290  92.513  76.843  1.00  0.00     0.056 A 
ATOM     12  C   UNL     1      91.440  92.999  74.082  1.00  0.00     0.050 A 
ATOM     13  C   UNL     1      92.461  93.462  74.934  1.00  0.00     0.009 A 
BRANCH   9  14
ATOM     14  O   UNL     1      89.192  91.378  76.518  1.00  0.00    -0.493 OA
ATOM     15  C   UNL     1      89.502  90.013  76.852  1.00  0.00     0.278 C 
ENDBRANCH   9  14
BRANCH  10  16
ATOM     16  O   UNL     1      89.341  91.905  73.773  1.00  0.00    -0.504 OA
ATOM     17  H   UNL     1      88.592  92.503  73.841  1.00  0.00     0.293 HD
ENDBRANCH  10  16
ENDBRANCH   7   8
ENDBRANCH   4   7
ENDBRANCH   2   3
ENDBRANCH   1   2
BRANCH   1  18
ATOM     18  C   UNL     1      97.938  96.387  77.435  1.00  0.00     0.001 C 
BRANCH  18  19
ATOM     19  C   UNL     1      97.989  97.016  78.856  1.00  0.00     0.000 C 
BRANCH  19  20
ATOM     20  C   UNL     1      98.787  96.123  79.848  1.00  0.00     0.000 C 
BRANCH  20  21
ATOM     21  C   UNL     1      97.906  95.400  80.904  1.00  0.00     0.003 C 
BRANCH  21  22
ATOM     22  C   UNL     1      96.382  95.352  80.556  1.00  0.00    -0.017 C 
ATOM     23  C   UNL     1      95.527  95.681  81.812  1.00  0.00     0.007 C 
ATOM     24  C   UNL     1      95.927  94.003  79.926  1.00  0.00     0.007 C 
ENDBRANCH  21  22
ENDBRANCH  20  21
ENDBRANCH  19  20
ENDBRANCH  18  19
ENDBRANCH   1  18
TORSDOF 11
ENDMDL
MODEL 9
REMARK VINA RESULT:    -5.443     16.865     19.687
REMARK INTER + INTRA:          -9.487
REMARK INTER:                  -8.613
REMARK INTRA:                  -0.874
REMARK UNBOUND:                -0.703
REMARK SMILES COc1cc(CNC(=O)CCCCCCC(C)C)ccc1O
REMARK SMILES IDX 11 1 10 2 8 3 7 4 9 6 6 7 5 8 3 9 21 10 4 11 20 12 19 13
REMARK SMILES IDX 2 14 1 15 22 16 12 18 13 19 14 20 15 21 16 22 17 23 18 24
REMARK H PARENT 7 5 22 17
REMARK Flexibility Score: inf
ROOT
ATOM      1  C   UNL     1      76.215  89.547  65.999  1.00  0.00     0.010 C 
ENDROOT
BRANCH   1   2
ATOM      2  C   UNL     1      76.961  89.601  64.637  1.00  0.00     0.100 C 
BRANCH   2   3
ATOM      3  C   UNL     1      77.122  90.976  64.113  1.00  0.00     0.220 C 
ATOM      4  N   UNL     1      76.839  92.053  64.902  1.00  0.00    -0.352 N 
ATOM      5  H   UNL     1      76.482  91.821  65.818  1.00  0.00     0.163 HD
ATOM      6  O   UNL     1      77.547  91.127  62.941  1.00  0.00    -0.275 OA
BRANCH   4   7
ATOM      7  C   UNL     1      77.012  93.422  64.525  1.00  0.00     0.151 C 
BRANCH   7   8
ATOM      8  C   UNL     1      77.795  94.210  65.516  1.00  0.00    -0.025 A 
ATOM      9  C   UNL     1      78.023  95.178  67.765  1.00  0.00     0.160 A 
ATOM     10  C   UNL     1      79.301  95.672  67.425  1.00  0.00     0.157 A 
ATOM     11  C   UNL     1      77.273  94.469  66.803  1.00  0.00     0.056 A 
ATOM     12  C   UNL     1      79.815  95.455  66.134  1.00  0.00     0.050 A 
ATOM     13  C   UNL     1      79.074  94.720  65.188  1.00  0.00     0.009 A 
BRANCH   9  14
ATOM     14  O   UNL     1      77.497  95.418  69.005  1.00  0.00    -0.493 OA
ATOM     15  C   UNL     1      76.467  94.488  69.388  1.00  0.00     0.278 C 
ENDBRANCH   9  14
BRANCH  10  16
ATOM     16  O   UNL     1      80.045  96.361  68.330  1.00  0.00    -0.504 OA
ATOM     17  H   UNL     1      80.918  96.527  67.966  1.00  0.00     0.293 HD
ENDBRANCH  10  16
ENDBRANCH   7   8
ENDBRANCH   4   7
ENDBRANCH   2   3
ENDBRANCH   1   2
BRANCH   1  18
ATOM     18  C   UNL     1      76.421  88.189  66.728  1.00  0.00     0.001 C 
BRANCH  18  19
ATOM     19  C   UNL     1      77.906  87.878  67.065  1.00  0.00     0.000 C 
BRANCH  19  20
ATOM     20  C   UNL     1      78.290  86.424  66.670  1.00  0.00     0.000 C 
BRANCH  20  21
ATOM     21  C   UNL     1      77.111  85.585  66.105  1.00  0.00     0.003 C 
BRANCH  21  22
ATOM     22  C   UNL     1      76.860  84.232  66.848  1.00  0.00    -0.017 C 
ATOM     23  C   UNL     1      75.775  83.399  66.110  1.00  0.00     0.007 C 
ATOM     24  C   UNL     1      76.488  84.404  68.350  1.00  0.00     0.007 C 
ENDBRANCH  21  22
ENDBRANCH  20  21
ENDBRANCH  19  20
ENDBRANCH  18  19
ENDBRANCH   1  18
TORSDOF 11
ENDMDL
MODEL 10
REMARK VINA RESULT:    -5.430     26.885     30.373
REMARK INTER + INTRA:          -9.466
REMARK INTER:                  -8.295
REMARK INTRA:                  -1.170
REMARK UNBOUND:                -0.703
REMARK SMILES COc1cc(CNC(=O)CCCCCCC(C)C)ccc1O
REMARK SMILES IDX 11 1 10 2 8 3 7 4 9 6 6 7 5 8 3 9 21 10 4 11 20 12 19 13
REMARK SMILES IDX 2 14 1 15 22 16 12 18 13 19 14 20 15 21 16 22 17 23 18 24
REMARK H PARENT 7 5 22 17
REMARK Flexibility Score: inf
ROOT
ATOM      1  C   UNL     1      64.068  82.860  75.750  1.00  0.00     0.010 C 
ENDROOT
BRANCH   1   2
ATOM      2  C   UNL     1      64.119  81.355  75.365  1.00  0.00     0.100 C 
BRANCH   2   3
ATOM      3  C   UNL     1      63.451  81.058  74.078  1.00  0.00     0.220 C 
ATOM      4  N   UNL     1      62.175  81.484  73.850  1.00  0.00    -0.352 N 
ATOM      5  H   UNL     1      61.743  81.957  74.629  1.00  0.00     0.163 HD
ATOM      6  O   UNL     1      64.091  80.431  73.199  1.00  0.00    -0.275 OA
BRANCH   4   7
ATOM      7  C   UNL     1      61.452  81.306  72.627  1.00  0.00     0.151 C 
BRANCH   7   8
ATOM      8  C   UNL     1      61.747  82.355  71.613  1.00  0.00    -0.025 A 
ATOM      9  C   UNL     1      62.705  83.011  69.445  1.00  0.00     0.160 A 
ATOM     10  C   UNL     1      62.276  84.340  69.655  1.00  0.00     0.157 A 
ATOM     11  C   UNL     1      62.455  82.035  70.432  1.00  0.00     0.056 A 
ATOM     12  C   UNL     1      61.605  84.679  70.844  1.00  0.00     0.050 A 
ATOM     13  C   UNL     1      61.332  83.693  71.812  1.00  0.00     0.009 A 
BRANCH   9  14
ATOM     14  O   UNL     1      63.393  82.679  68.310  1.00  0.00    -0.493 OA
ATOM     15  C   UNL     1      63.280  81.290  67.949  1.00  0.00     0.278 C 
ENDBRANCH   9  14
BRANCH  10  16
ATOM     16  O   UNL     1      62.505  85.301  68.722  1.00  0.00    -0.504 OA
ATOM     17  H   UNL     1      61.791  85.943  68.743  1.00  0.00     0.293 HD
ENDBRANCH  10  16
ENDBRANCH   7   8
ENDBRANCH   4   7
ENDBRANCH   2   3
ENDBRANCH   1   2
BRANCH   1  18
ATOM     18  C   UNL     1      64.704  83.767  74.659  1.00  0.00     0.001 C 
BRANCH  18  19
ATOM     19  C   UNL     1      64.422  85.282  74.862  1.00  0.00     0.000 C 
BRANCH  19  20
ATOM     20  C   UNL     1      63.706  85.555  76.214  1.00  0.00     0.000 C 
BRANCH  20  21
ATOM     21  C   UNL     1      64.525  86.429  77.204  1.00  0.00     0.003 C 
BRANCH  21  22
ATOM     22  C   UNL     1      65.994  85.947  77.435  1.00  0.00    -0.017 C 
ATOM     23  C   UNL     1      66.278  85.776  78.953  1.00  0.00     0.007 C 
ATOM     24  C   UNL     1      67.065  86.870  76.781  1.00  0.00     0.007 C 
ENDBRANCH  21  22
ENDBRANCH  20  21
ENDBRANCH  19  20
ENDBRANCH  18  19
ENDBRANCH   1  18
TORSDOF 11
ENDMDL
