MODEL 1
REMARK VINA RESULT:    -5.778      0.000      0.000
REMARK INTER + INTRA:         -10.734
REMARK INTER:                  -9.493
REMARK INTRA:                  -1.241
REMARK UNBOUND:                -1.241
REMARK SMILES CCCCC[C@H](O)CC(=O)CCc1ccc(O)c(OC)c1
REMARK SMILES IDX 8 1 6 2 7 3 5 5 4 6 3 7 2 8 1 9 9 10 10 11 11 12 12 13 13 14
REMARK SMILES IDX 21 15 14 16 18 17 15 18 16 19 19 20 20 21 17 22
REMARK H PARENT 7 4 17 23
REMARK Flexibility Score: inf
ROOT
ATOM      1  C   UNL     1      95.190  94.449  79.610  1.00  0.00     0.107 C 
ENDROOT
BRANCH   1   2
ATOM      2  C   UNL     1      94.624  93.050  79.351  1.00  0.00     0.121 C 
BRANCH   2   3
ATOM      3  O   UNL     1      94.617  92.299  80.563  1.00  0.00    -0.393 OA
ATOM      4  H   UNL     1      95.533  92.033  80.753  1.00  0.00     0.210 HD
ENDBRANCH   2   3
BRANCH   2   5
ATOM      5  C   UNL     1      93.207  93.075  78.765  1.00  0.00     0.032 C 
BRANCH   5   6
ATOM      6  C   UNL     1      92.936  94.356  77.966  1.00  0.00     0.003 C 
BRANCH   6   7
ATOM      7  C   UNL     1      91.641  94.299  77.150  1.00  0.00    -0.000 C 
BRANCH   7   8
ATOM      8  C   UNL     1      90.714  93.153  77.551  1.00  0.00    -0.003 C 
ATOM      9  C   UNL     1      90.468  92.206  76.386  1.00  0.00     0.004 C 
ENDBRANCH   7   8
ENDBRANCH   6   7
ENDBRANCH   5   6
ENDBRANCH   2   5
ENDBRANCH   1   2
BRANCH   1  10
ATOM     10  C   UNL     1      96.709  94.481  79.632  1.00  0.00     0.135 C 
ATOM     11  O   UNL     1      97.341  93.942  80.540  1.00  0.00    -0.300 OA
BRANCH  10  12
ATOM     12  C   UNL     1      97.393  95.169  78.461  1.00  0.00     0.080 C 
BRANCH  12  13
ATOM     13  C   UNL     1      96.685  96.444  77.997  1.00  0.00     0.043 C 
BRANCH  13  14
ATOM     14  C   UNL     1      96.426  96.470  76.510  1.00  0.00    -0.044 A 
ATOM     15  C   UNL     1      97.299  97.150  75.661  1.00  0.00     0.054 A 
ATOM     16  C   UNL     1      95.313  95.812  75.985  1.00  0.00     0.008 A 
ATOM     17  C   UNL     1      97.059  97.173  74.287  1.00  0.00     0.160 A 
ATOM     18  C   UNL     1      95.073  95.834  74.611  1.00  0.00     0.050 A 
ATOM     19  C   UNL     1      95.946  96.515  73.762  1.00  0.00     0.157 A 
BRANCH  17  20
ATOM     20  O   UNL     1      97.918  97.841  73.468  1.00  0.00    -0.493 OA
ATOM     21  C   UNL     1      99.312  97.689  73.728  1.00  0.00     0.278 C 
ENDBRANCH  17  20
BRANCH  19  22
ATOM     22  O   UNL     1      95.701  96.530  72.422  1.00  0.00    -0.504 OA
ATOM     23  H   UNL     1      96.372  95.989  71.972  1.00  0.00     0.293 HD
ENDBRANCH  19  22
ENDBRANCH  13  14
ENDBRANCH  12  13
ENDBRANCH  10  12
ENDBRANCH   1  10
TORSDOF 12
ENDMDL
MODEL 2
REMARK VINA RESULT:    -5.418     22.314     25.094
REMARK INTER + INTRA:         -10.143
REMARK INTER:                  -8.995
REMARK INTRA:                  -1.148
REMARK UNBOUND:                -1.241
REMARK SMILES CCCCC[C@H](O)CC(=O)CCc1ccc(O)c(OC)c1
REMARK SMILES IDX 8 1 6 2 7 3 5 5 4 6 3 7 2 8 1 9 9 10 10 11 11 12 12 13 13 14
REMARK SMILES IDX 21 15 14 16 18 17 15 18 16 19 19 20 20 21 17 22
REMARK H PARENT 7 4 17 23
REMARK Flexibility Score: inf
ROOT
ATOM      1  C   UNL     1      76.370  84.572  65.625  1.00  0.00     0.107 C 
ENDROOT
BRANCH   1   2
ATOM      2  C   UNL     1      75.526  83.446  65.023  1.00  0.00     0.121 C 
BRANCH   2   3
ATOM      3  O   UNL     1      76.378  82.433  64.493  1.00  0.00    -0.393 OA
ATOM      4  H   UNL     1      77.002  82.859  63.880  1.00  0.00     0.210 HD
ENDBRANCH   2   3
BRANCH   2   5
ATOM      5  C   UNL     1      74.559  82.815  66.032  1.00  0.00     0.032 C 
BRANCH   5   6
ATOM      6  C   UNL     1      73.925  81.526  65.495  1.00  0.00     0.003 C 
BRANCH   6   7
ATOM      7  C   UNL     1      72.799  81.777  64.487  1.00  0.00    -0.000 C 
BRANCH   7   8
ATOM      8  C   UNL     1      71.683  80.736  64.545  1.00  0.00    -0.003 C 
ATOM      9  C   UNL     1      71.492  80.053  63.199  1.00  0.00     0.004 C 
ENDBRANCH   7   8
ENDBRANCH   6   7
ENDBRANCH   5   6
ENDBRANCH   2   5
ENDBRANCH   1   2
BRANCH   1  10
ATOM     10  C   UNL     1      77.261  84.104  66.764  1.00  0.00     0.135 C 
ATOM     11  O   UNL     1      77.979  83.112  66.639  1.00  0.00    -0.300 OA
BRANCH  10  12
ATOM     12  C   UNL     1      77.250  84.947  68.030  1.00  0.00     0.080 C 
BRANCH  12  13
ATOM     13  C   UNL     1      75.896  84.969  68.742  1.00  0.00     0.043 C 
BRANCH  13  14
ATOM     14  C   UNL     1      75.231  86.324  68.709  1.00  0.00    -0.044 A 
ATOM     15  C   UNL     1      75.973  87.458  68.376  1.00  0.00     0.054 A 
ATOM     16  C   UNL     1      73.874  86.443  69.011  1.00  0.00     0.008 A 
ATOM     17  C   UNL     1      75.358  88.709  68.345  1.00  0.00     0.160 A 
ATOM     18  C   UNL     1      73.259  87.694  68.980  1.00  0.00     0.050 A 
ATOM     19  C   UNL     1      74.001  88.827  68.647  1.00  0.00     0.157 A 
BRANCH  17  20
ATOM     20  O   UNL     1      76.093  89.809  68.019  1.00  0.00    -0.493 OA
ATOM     21  C   UNL     1      76.503  89.935  66.659  1.00  0.00     0.278 C 
ENDBRANCH  17  20
BRANCH  19  22
ATOM     22  O   UNL     1      73.389  90.044  68.620  1.00  0.00    -0.504 OA
ATOM     23  H   UNL     1      72.713  90.074  69.319  1.00  0.00     0.293 HD
ENDBRANCH  19  22
ENDBRANCH  13  14
ENDBRANCH  12  13
ENDBRANCH  10  12
ENDBRANCH   1  10
TORSDOF 12
ENDMDL
MODEL 3
REMARK VINA RESULT:    -5.274      9.030     12.260
REMARK INTER + INTRA:          -9.906
REMARK INTER:                  -8.047
REMARK INTRA:                  -1.860
REMARK UNBOUND:                -1.241
REMARK SMILES CCCCC[C@H](O)CC(=O)CCc1ccc(O)c(OC)c1
REMARK SMILES IDX 8 1 6 2 7 3 5 5 4 6 3 7 2 8 1 9 9 10 10 11 11 12 12 13 13 14
REMARK SMILES IDX 21 15 14 16 18 17 15 18 16 19 19 20 20 21 17 22
REMARK H PARENT 7 4 17 23
REMARK Flexibility Score: inf
ROOT
ATOM      1  C   UNL     1      88.100  99.595  67.860  1.00  0.00     0.107 C 
ENDROOT
BRANCH   1   2
ATOM      2  C   UNL     1      87.624 100.111  66.500  1.00  0.00     0.121 C 
BRANCH   2   3
ATOM      3  O   UNL     1      86.294  99.662  66.250  1.00  0.00    -0.393 OA
ATOM      4  H   UNL     1      85.692 100.198  66.796  1.00  0.00     0.210 HD
ENDBRANCH   2   3
BRANCH   2   5
ATOM      5  C   UNL     1      87.671 101.640  66.388  1.00  0.00     0.032 C 
BRANCH   5   6
ATOM      6  C   UNL     1      88.690 102.257  67.353  1.00  0.00     0.003 C 
BRANCH   6   7
ATOM      7  C   UNL     1      90.116 102.282  66.794  1.00  0.00    -0.000 C 
BRANCH   7   8
ATOM      8  C   UNL     1      91.187 102.522  67.858  1.00  0.00    -0.003 C 
ATOM      9  C   UNL     1      92.116 101.326  67.989  1.00  0.00     0.004 C 
ENDBRANCH   7   8
ENDBRANCH   6   7
ENDBRANCH   5   6
ENDBRANCH   2   5
ENDBRANCH   1   2
BRANCH   1  10
ATOM     10  C   UNL     1      89.170  98.521  67.749  1.00  0.00     0.135 C 
ATOM     11  O   UNL     1      89.282  97.843  66.728  1.00  0.00    -0.300 OA
BRANCH  10  12
ATOM     12  C   UNL     1      90.108  98.367  68.936  1.00  0.00     0.080 C 
BRANCH  12  13
ATOM     13  C   UNL     1      89.545  98.933  70.241  1.00  0.00     0.043 C 
BRANCH  13  14
ATOM     14  C   UNL     1      90.485  99.901  70.921  1.00  0.00    -0.044 A 
ATOM     15  C   UNL     1      90.091 101.222  71.135  1.00  0.00     0.054 A 
ATOM     16  C   UNL     1      91.747  99.473  71.334  1.00  0.00     0.008 A 
ATOM     17  C   UNL     1      90.959 102.115  71.763  1.00  0.00     0.160 A 
ATOM     18  C   UNL     1      92.615 100.366  71.962  1.00  0.00     0.050 A 
ATOM     19  C   UNL     1      92.221 101.687  72.176  1.00  0.00     0.157 A 
BRANCH  17  20
ATOM     20  O   UNL     1      90.563 103.402  71.967  1.00  0.00    -0.493 OA
ATOM     21  C   UNL     1      89.591 103.931  71.067  1.00  0.00     0.278 C 
ENDBRANCH  17  20
BRANCH  19  22
ATOM     22  O   UNL     1      93.078 102.550  72.791  1.00  0.00    -0.504 OA
ATOM     23  H   UNL     1      92.568 103.146  73.366  1.00  0.00     0.293 HD
ENDBRANCH  19  22
ENDBRANCH  13  14
ENDBRANCH  12  13
ENDBRANCH  10  12
ENDBRANCH   1  10
TORSDOF 12
ENDMDL
MODEL 4
REMARK VINA RESULT:    -5.272      3.696      6.683
REMARK INTER + INTRA:          -9.903
REMARK INTER:                  -9.104
REMARK INTRA:                  -0.800
REMARK UNBOUND:                -1.241
REMARK SMILES CCCCC[C@H](O)CC(=O)CCc1ccc(O)c(OC)c1
REMARK SMILES IDX 8 1 6 2 7 3 5 5 4 6 3 7 2 8 1 9 9 10 10 11 11 12 12 13 13 14
REMARK SMILES IDX 21 15 14 16 18 17 15 18 16 19 19 20 20 21 17 22
REMARK H PARENT 7 4 17 23
REMARK Flexibility Score: inf
ROOT
ATOM      1  C   UNL     1      95.005  94.806  78.344  1.00  0.00     0.107 C 
ENDROOT
BRANCH   1   2
ATOM      2  C   UNL     1      94.442  93.412  78.059  1.00  0.00     0.121 C 
BRANCH   2   3
ATOM      3  O   UNL     1      95.111  92.445  78.866  1.00  0.00    -0.393 OA
ATOM      4  H   UNL     1      95.123  92.779  79.781  1.00  0.00     0.210 HD
ENDBRANCH   2   3
BRANCH   2   5
ATOM      5  C   UNL     1      92.931  93.314  78.303  1.00  0.00     0.032 C 
BRANCH   5   6
ATOM      6  C   UNL     1      92.162  94.450  77.618  1.00  0.00     0.003 C 
BRANCH   6   7
ATOM      7  C   UNL     1      90.771  94.032  77.129  1.00  0.00    -0.000 C 
BRANCH   7   8
ATOM      8  C   UNL     1      90.316  92.676  77.664  1.00  0.00    -0.003 C 
ATOM      9  C   UNL     1      90.054  91.693  76.534  1.00  0.00     0.004 C 
ENDBRANCH   7   8
ENDBRANCH   6   7
ENDBRANCH   5   6
ENDBRANCH   2   5
ENDBRANCH   1   2
BRANCH   1  10
ATOM     10  C   UNL     1      95.751  94.888  79.666  1.00  0.00     0.135 C 
ATOM     11  O   UNL     1      95.255  94.442  80.701  1.00  0.00    -0.300 OA
BRANCH  10  12
ATOM     12  C   UNL     1      97.142  95.502  79.628  1.00  0.00     0.080 C 
BRANCH  12  13
ATOM     13  C   UNL     1      98.189  94.703  80.407  1.00  0.00     0.043 C 
BRANCH  13  14
ATOM     14  C   UNL     1      98.443  95.251  81.791  1.00  0.00    -0.044 A 
ATOM     15  C   UNL     1      99.402  94.658  82.611  1.00  0.00     0.054 A 
ATOM     16  C   UNL     1      97.717  96.351  82.248  1.00  0.00     0.008 A 
ATOM     17  C   UNL     1      99.637  95.166  83.889  1.00  0.00     0.160 A 
ATOM     18  C   UNL     1      97.951  96.859  83.526  1.00  0.00     0.050 A 
ATOM     19  C   UNL     1      98.911  96.266  84.347  1.00  0.00     0.157 A 
BRANCH  17  20
ATOM     20  O   UNL     1     100.576  94.579  84.682  1.00  0.00    -0.493 OA
ATOM     21  C   UNL     1     101.915  95.057  84.563  1.00  0.00     0.278 C 
ENDBRANCH  17  20
BRANCH  19  22
ATOM     22  O   UNL     1      99.130  96.771  85.592  1.00  0.00    -0.504 OA
ATOM     23  H   UNL     1     100.084  96.745  85.781  1.00  0.00     0.293 HD
ENDBRANCH  19  22
ENDBRANCH  13  14
ENDBRANCH  12  13
ENDBRANCH  10  12
ENDBRANCH   1  10
TORSDOF 12
ENDMDL
MODEL 5
REMARK VINA RESULT:    -5.216     23.122     27.504
REMARK INTER + INTRA:          -9.811
REMARK INTER:                  -8.855
REMARK INTRA:                  -0.956
REMARK UNBOUND:                -1.241
REMARK SMILES CCCCC[C@H](O)CC(=O)CCc1ccc(O)c(OC)c1
REMARK SMILES IDX 8 1 6 2 7 3 5 5 4 6 3 7 2 8 1 9 9 10 10 11 11 12 12 13 13 14
REMARK SMILES IDX 21 15 14 16 18 17 15 18 16 19 19 20 20 21 17 22
REMARK H PARENT 7 4 17 23
REMARK Flexibility Score: inf
ROOT
ATOM      1  C   UNL     1      71.714  82.685  64.094  1.00  0.00     0.107 C 
ENDROOT
BRANCH   1   2
ATOM      2  C   UNL     1      70.255  82.955  64.468  1.00  0.00     0.121 C 
BRANCH   2   3
ATOM      3  O   UNL     1      69.397  82.098  63.720  1.00  0.00    -0.393 OA
ATOM      4  H   UNL     1      69.814  81.219  63.681  1.00  0.00     0.210 HD
ENDBRANCH   2   3
BRANCH   2   5
ATOM      5  C   UNL     1      69.975  82.769  65.964  1.00  0.00     0.032 C 
BRANCH   5   6
ATOM      6  C   UNL     1      69.897  84.109  66.707  1.00  0.00     0.003 C 
BRANCH   6   7
ATOM      7  C   UNL     1      69.155  84.018  68.045  1.00  0.00    -0.000 C 
BRANCH   7   8
ATOM      8  C   UNL     1      69.805  84.832  69.162  1.00  0.00    -0.003 C 
ATOM      9  C   UNL     1      69.013  84.728  70.456  1.00  0.00     0.004 C 
ENDBRANCH   7   8
ENDBRANCH   6   7
ENDBRANCH   5   6
ENDBRANCH   2   5
ENDBRANCH   1   2
BRANCH   1  10
ATOM     10  C   UNL     1      72.265  81.414  64.721  1.00  0.00     0.135 C 
ATOM     11  O   UNL     1      71.702  80.332  64.556  1.00  0.00    -0.300 OA
BRANCH  10  12
ATOM     12  C   UNL     1      73.556  81.549  65.514  1.00  0.00     0.080 C 
BRANCH  12  13
ATOM     13  C   UNL     1      74.668  82.280  64.759  1.00  0.00     0.043 C 
BRANCH  13  14
ATOM     14  C   UNL     1      75.513  83.156  65.653  1.00  0.00    -0.044 A 
ATOM     15  C   UNL     1      75.032  83.550  66.901  1.00  0.00     0.054 A 
ATOM     16  C   UNL     1      76.775  83.572  65.228  1.00  0.00     0.008 A 
ATOM     17  C   UNL     1      75.814  84.359  67.726  1.00  0.00     0.160 A 
ATOM     18  C   UNL     1      77.557  84.381  66.053  1.00  0.00     0.050 A 
ATOM     19  C   UNL     1      77.076  84.774  67.302  1.00  0.00     0.157 A 
BRANCH  17  20
ATOM     20  O   UNL     1      75.333  84.737  68.943  1.00  0.00    -0.493 OA
ATOM     21  C   UNL     1      74.406  85.822  68.965  1.00  0.00     0.278 C 
ENDBRANCH  17  20
BRANCH  19  22
ATOM     22  O   UNL     1      77.849  85.564  68.098  1.00  0.00    -0.504 OA
ATOM     23  H   UNL     1      78.783  85.326  67.971  1.00  0.00     0.293 HD
ENDBRANCH  19  22
ENDBRANCH  13  14
ENDBRANCH  12  13
ENDBRANCH  10  12
ENDBRANCH   1  10
TORSDOF 12
ENDMDL
MODEL 6
REMARK VINA RESULT:    -5.201     13.448     15.818
REMARK INTER + INTRA:          -9.786
REMARK INTER:                  -8.954
REMARK INTRA:                  -0.832
REMARK UNBOUND:                -1.241
REMARK SMILES CCCCC[C@H](O)CC(=O)CCc1ccc(O)c(OC)c1
REMARK SMILES IDX 8 1 6 2 7 3 5 5 4 6 3 7 2 8 1 9 9 10 10 11 11 12 12 13 13 14
REMARK SMILES IDX 21 15 14 16 18 17 15 18 16 19 19 20 20 21 17 22
REMARK H PARENT 7 4 17 23
REMARK Flexibility Score: inf
ROOT
ATOM      1  C   UNL     1      98.015  82.060  76.356  1.00  0.00     0.107 C 
ENDROOT
BRANCH   1   2
ATOM      2  C   UNL     1      97.998  80.666  75.725  1.00  0.00     0.121 C 
BRANCH   2   3
ATOM      3  O   UNL     1      96.748  80.032  75.986  1.00  0.00    -0.393 OA
ATOM      4  H   UNL     1      96.042  80.668  75.777  1.00  0.00     0.210 HD
ENDBRANCH   2   3
BRANCH   2   5
ATOM      5  C   UNL     1      98.246  80.689  74.212  1.00  0.00     0.032 C 
BRANCH   5   6
ATOM      6  C   UNL     1      96.979  81.046  73.425  1.00  0.00     0.003 C 
BRANCH   6   7
ATOM      7  C   UNL     1      96.643  80.034  72.325  1.00  0.00    -0.000 C 
BRANCH   7   8
ATOM      8  C   UNL     1      97.806  79.755  71.374  1.00  0.00    -0.003 C 
ATOM      9  C   UNL     1      97.323  79.112  70.083  1.00  0.00     0.004 C 
ENDBRANCH   7   8
ENDBRANCH   6   7
ENDBRANCH   5   6
ENDBRANCH   2   5
ENDBRANCH   1   2
BRANCH   1  10
ATOM     10  C   UNL     1      97.328  82.109  77.711  1.00  0.00     0.135 C 
ATOM     11  O   UNL     1      96.143  82.427  77.809  1.00  0.00    -0.300 OA
BRANCH  10  12
ATOM     12  C   UNL     1      98.165  81.705  78.915  1.00  0.00     0.080 C 
BRANCH  12  13
ATOM     13  C   UNL     1      97.435  80.778  79.888  1.00  0.00     0.043 C 
BRANCH  13  14
ATOM     14  C   UNL     1      97.213  81.402  81.246  1.00  0.00    -0.044 A 
ATOM     15  C   UNL     1      97.871  80.891  82.365  1.00  0.00     0.054 A 
ATOM     16  C   UNL     1      96.349  82.489  81.380  1.00  0.00     0.008 A 
ATOM     17  C   UNL     1      97.665  81.468  83.618  1.00  0.00     0.160 A 
ATOM     18  C   UNL     1      96.143  83.066  82.633  1.00  0.00     0.050 A 
ATOM     19  C   UNL     1      96.801  82.556  83.752  1.00  0.00     0.157 A 
BRANCH  17  20
ATOM     20  O   UNL     1      98.313  80.961  84.703  1.00  0.00    -0.493 OA
ATOM     21  C   UNL     1      99.229  79.892  84.471  1.00  0.00     0.278 C 
ENDBRANCH  17  20
BRANCH  19  22
ATOM     22  O   UNL     1      96.593  83.128  84.970  1.00  0.00    -0.504 OA
ATOM     23  H   UNL     1      97.080  83.968  85.013  1.00  0.00     0.293 HD
ENDBRANCH  19  22
ENDBRANCH  13  14
ENDBRANCH  12  13
ENDBRANCH  10  12
ENDBRANCH   1  10
TORSDOF 12
ENDMDL
MODEL 7
REMARK VINA RESULT:    -5.155     12.593     15.818
REMARK INTER + INTRA:          -9.711
REMARK INTER:                  -8.975
REMARK INTRA:                  -0.736
REMARK UNBOUND:                -1.241
REMARK SMILES CCCCC[C@H](O)CC(=O)CCc1ccc(O)c(OC)c1
REMARK SMILES IDX 8 1 6 2 7 3 5 5 4 6 3 7 2 8 1 9 9 10 10 11 11 12 12 13 13 14
REMARK SMILES IDX 21 15 14 16 18 17 15 18 16 19 19 20 20 21 17 22
REMARK H PARENT 7 4 17 23
REMARK Flexibility Score: inf
ROOT
ATOM      1  C   UNL     1      98.017  82.013  76.161  1.00  0.00     0.107 C 
ENDROOT
BRANCH   1   2
ATOM      2  C   UNL     1      96.864  82.588  75.335  1.00  0.00     0.121 C 
BRANCH   2   3
ATOM      3  O   UNL     1      96.643  83.949  75.696  1.00  0.00    -0.393 OA
ATOM      4  H   UNL     1      95.751  84.196  75.393  1.00  0.00     0.210 HD
ENDBRANCH   2   3
BRANCH   2   5
ATOM      5  C   UNL     1      97.106  82.499  73.823  1.00  0.00     0.032 C 
BRANCH   5   6
ATOM      6  C   UNL     1      98.268  81.560  73.479  1.00  0.00     0.003 C 
BRANCH   6   7
ATOM      7  C   UNL     1      99.427  82.264  72.767  1.00  0.00    -0.000 C 
BRANCH   7   8
ATOM      8  C   UNL     1      99.702  83.672  73.291  1.00  0.00    -0.003 C 
ATOM      9  C   UNL     1      99.672  84.698  72.169  1.00  0.00     0.004 C 
ENDBRANCH   7   8
ENDBRANCH   6   7
ENDBRANCH   5   6
ENDBRANCH   2   5
ENDBRANCH   1   2
BRANCH   1  10
ATOM     10  C   UNL     1      97.547  81.148  77.319  1.00  0.00     0.135 C 
ATOM     11  O   UNL     1      97.738  79.932  77.318  1.00  0.00    -0.300 OA
BRANCH  10  12
ATOM     12  C   UNL     1      96.879  81.867  78.480  1.00  0.00     0.080 C 
BRANCH  12  13
ATOM     13  C   UNL     1      97.756  81.967  79.729  1.00  0.00     0.043 C 
BRANCH  13  14
ATOM     14  C   UNL     1      97.060  81.490  80.982  1.00  0.00    -0.044 A 
ATOM     15  C   UNL     1      96.945  80.124  81.239  1.00  0.00     0.054 A 
ATOM     16  C   UNL     1      96.533  82.417  81.881  1.00  0.00     0.008 A 
ATOM     17  C   UNL     1      96.302  79.685  82.397  1.00  0.00     0.160 A 
ATOM     18  C   UNL     1      95.891  81.978  83.039  1.00  0.00     0.050 A 
ATOM     19  C   UNL     1      95.775  80.612  83.296  1.00  0.00     0.157 A 
BRANCH  17  20
ATOM     20  O   UNL     1      96.194  78.349  82.637  1.00  0.00    -0.493 OA
ATOM     21  C   UNL     1      97.298  77.715  83.283  1.00  0.00     0.278 C 
ENDBRANCH  17  20
BRANCH  19  22
ATOM     22  O   UNL     1      95.145  80.195  84.430  1.00  0.00    -0.504 OA
ATOM     23  H   UNL     1      95.530  79.348  84.713  1.00  0.00     0.293 HD
ENDBRANCH  19  22
ENDBRANCH  13  14
ENDBRANCH  12  13
ENDBRANCH  10  12
ENDBRANCH   1  10
TORSDOF 12
ENDMDL
MODEL 8
REMARK VINA RESULT:    -5.090     24.222     28.916
REMARK INTER + INTRA:          -9.604
REMARK INTER:                  -8.371
REMARK INTRA:                  -1.233
REMARK UNBOUND:                -1.241
REMARK SMILES CCCCC[C@H](O)CC(=O)CCc1ccc(O)c(OC)c1
REMARK SMILES IDX 8 1 6 2 7 3 5 5 4 6 3 7 2 8 1 9 9 10 10 11 11 12 12 13 13 14
REMARK SMILES IDX 21 15 14 16 18 17 15 18 16 19 19 20 20 21 17 22
REMARK H PARENT 7 4 17 23
REMARK Flexibility Score: inf
ROOT
ATOM      1  C   UNL     1      74.383  81.358  65.093  1.00  0.00     0.107 C 
ENDROOT
BRANCH   1   2
ATOM      2  C   UNL     1      75.212  82.425  65.814  1.00  0.00     0.121 C 
BRANCH   2   3
ATOM      3  O   UNL     1      76.527  82.467  65.265  1.00  0.00    -0.393 OA
ATOM      4  H   UNL     1      76.941  81.600  65.417  1.00  0.00     0.210 HD
ENDBRANCH   2   3
BRANCH   2   5
ATOM      5  C   UNL     1      74.588  83.823  65.737  1.00  0.00     0.032 C 
BRANCH   5   6
ATOM      6  C   UNL     1      74.439  84.465  67.122  1.00  0.00     0.003 C 
BRANCH   6   7
ATOM      7  C   UNL     1      75.771  84.926  67.722  1.00  0.00    -0.000 C 
BRANCH   7   8
ATOM      8  C   UNL     1      75.886  84.672  69.224  1.00  0.00    -0.003 C 
ATOM      9  C   UNL     1      74.611  85.068  69.952  1.00  0.00     0.004 C 
ENDBRANCH   7   8
ENDBRANCH   6   7
ENDBRANCH   5   6
ENDBRANCH   2   5
ENDBRANCH   1   2
BRANCH   1  10
ATOM     10  C   UNL     1      74.300  81.582  63.592  1.00  0.00     0.135 C 
ATOM     11  O   UNL     1      75.303  81.864  62.938  1.00  0.00    -0.300 OA
BRANCH  10  12
ATOM     12  C   UNL     1      72.934  81.395  62.950  1.00  0.00     0.080 C 
BRANCH  12  13
ATOM     13  C   UNL     1      71.906  80.734  63.871  1.00  0.00     0.043 C 
BRANCH  13  14
ATOM     14  C   UNL     1      70.763  81.651  64.236  1.00  0.00    -0.044 A 
ATOM     15  C   UNL     1      70.683  82.190  65.520  1.00  0.00     0.054 A 
ATOM     16  C   UNL     1      69.786  81.958  63.288  1.00  0.00     0.008 A 
ATOM     17  C   UNL     1      69.626  83.037  65.855  1.00  0.00     0.160 A 
ATOM     18  C   UNL     1      68.730  82.805  63.623  1.00  0.00     0.050 A 
ATOM     19  C   UNL     1      68.650  83.344  64.907  1.00  0.00     0.157 A 
BRANCH  17  20
ATOM     20  O   UNL     1      69.558  83.557  67.112  1.00  0.00    -0.493 OA
ATOM     21  C   UNL     1      70.340  84.721  67.376  1.00  0.00     0.278 C 
ENDBRANCH  17  20
BRANCH  19  22
ATOM     22  O   UNL     1      67.614  84.170  65.223  1.00  0.00    -0.504 OA
ATOM     23  H   UNL     1      66.971  83.679  65.763  1.00  0.00     0.293 HD
ENDBRANCH  19  22
ENDBRANCH  13  14
ENDBRANCH  12  13
ENDBRANCH  10  12
ENDBRANCH   1  10
TORSDOF 12
ENDMDL
MODEL 9
REMARK VINA RESULT:    -5.090      3.146      4.437
REMARK INTER + INTRA:          -9.603
REMARK INTER:                  -8.696
REMARK INTRA:                  -0.907
REMARK UNBOUND:                -1.241
REMARK SMILES CCCCC[C@H](O)CC(=O)CCc1ccc(O)c(OC)c1
REMARK SMILES IDX 8 1 6 2 7 3 5 5 4 6 3 7 2 8 1 9 9 10 10 11 11 12 12 13 13 14
REMARK SMILES IDX 21 15 14 16 18 17 15 18 16 19 19 20 20 21 17 22
REMARK H PARENT 7 4 17 23
REMARK Flexibility Score: inf
ROOT
ATOM      1  C   UNL     1      94.296  94.034  76.122  1.00  0.00     0.107 C 
ENDROOT
BRANCH   1   2
ATOM      2  C   UNL     1      93.775  94.287  77.539  1.00  0.00     0.121 C 
BRANCH   2   3
ATOM      3  O   UNL     1      93.268  95.616  77.638  1.00  0.00    -0.393 OA
ATOM      4  H   UNL     1      93.981  96.181  77.985  1.00  0.00     0.210 HD
ENDBRANCH   2   3
BRANCH   2   5
ATOM      5  C   UNL     1      92.682  93.297  77.961  1.00  0.00     0.032 C 
BRANCH   5   6
ATOM      6  C   UNL     1      91.378  93.512  77.184  1.00  0.00     0.003 C 
BRANCH   6   7
ATOM      7  C   UNL     1      90.251  92.568  77.617  1.00  0.00    -0.000 C 
BRANCH   7   8
ATOM      8  C   UNL     1      89.951  91.467  76.601  1.00  0.00    -0.003 C 
ATOM      9  C   UNL     1      90.779  91.639  75.337  1.00  0.00     0.004 C 
ENDBRANCH   7   8
ENDBRANCH   6   7
ENDBRANCH   5   6
ENDBRANCH   2   5
ENDBRANCH   1   2
BRANCH   1  10
ATOM     10  C   UNL     1      94.003  95.179  75.166  1.00  0.00     0.135 C 
ATOM     11  O   UNL     1      92.849  95.559  74.969  1.00  0.00    -0.300 OA
BRANCH  10  12
ATOM     12  C   UNL     1      95.204  95.848  74.514  1.00  0.00     0.080 C 
BRANCH  12  13
ATOM     13  C   UNL     1      95.207  97.372  74.650  1.00  0.00     0.043 C 
BRANCH  13  14
ATOM     14  C   UNL     1      94.842  98.081  73.367  1.00  0.00    -0.044 A 
ATOM     15  C   UNL     1      93.786  98.991  73.349  1.00  0.00     0.054 A 
ATOM     16  C   UNL     1      95.562  97.824  72.200  1.00  0.00     0.008 A 
ATOM     17  C   UNL     1      93.450  99.646  72.164  1.00  0.00     0.160 A 
ATOM     18  C   UNL     1      95.226  98.479  71.015  1.00  0.00     0.050 A 
ATOM     19  C   UNL     1      94.170  99.390  70.997  1.00  0.00     0.157 A 
BRANCH  17  20
ATOM     20  O   UNL     1      92.416 100.533  72.159  1.00  0.00    -0.493 OA
ATOM     21  C   UNL     1      92.596 101.743  72.892  1.00  0.00     0.278 C 
ENDBRANCH  17  20
BRANCH  19  22
ATOM     22  O   UNL     1      93.851 100.023  69.834  1.00  0.00    -0.504 OA
ATOM     23  H   UNL     1      94.578  99.903  69.199  1.00  0.00     0.293 HD
ENDBRANCH  19  22
ENDBRANCH  13  14
ENDBRANCH  12  13
ENDBRANCH  10  12
ENDBRANCH   1  10
TORSDOF 12
ENDMDL
MODEL 10
REMARK VINA RESULT:    -5.066     12.516     15.487
REMARK INTER + INTRA:          -9.564
REMARK INTER:                  -8.801
REMARK INTRA:                  -0.764
REMARK UNBOUND:                -1.241
REMARK SMILES CCCCC[C@H](O)CC(=O)CCc1ccc(O)c(OC)c1
REMARK SMILES IDX 8 1 6 2 7 3 5 5 4 6 3 7 2 8 1 9 9 10 10 11 11 12 12 13 13 14
REMARK SMILES IDX 21 15 14 16 18 17 15 18 16 19 19 20 20 21 17 22
REMARK H PARENT 7 4 17 23
REMARK Flexibility Score: inf
ROOT
ATOM      1  C   UNL     1      97.735  81.983  76.187  1.00  0.00     0.107 C 
ENDROOT
BRANCH   1   2
ATOM      2  C   UNL     1      96.862  82.689  75.146  1.00  0.00     0.121 C 
BRANCH   2   3
ATOM      3  O   UNL     1      96.789  84.081  75.441  1.00  0.00    -0.393 OA
ATOM      4  H   UNL     1      97.164  84.566  74.685  1.00  0.00     0.210 HD
ENDBRANCH   2   3
BRANCH   2   5
ATOM      5  C   UNL     1      97.370  82.502  73.711  1.00  0.00     0.032 C 
BRANCH   5   6
ATOM      6  C   UNL     1      98.659  81.672  73.659  1.00  0.00     0.003 C 
BRANCH   6   7
ATOM      7  C   UNL     1      99.895  82.494  73.280  1.00  0.00    -0.000 C 
BRANCH   7   8
ATOM      8  C   UNL     1      99.599  83.975  73.051  1.00  0.00    -0.003 C 
ATOM      9  C   UNL     1     100.212  84.468  71.749  1.00  0.00     0.004 C 
ENDBRANCH   7   8
ENDBRANCH   6   7
ENDBRANCH   5   6
ENDBRANCH   2   5
ENDBRANCH   1   2
BRANCH   1  10
ATOM     10  C   UNL     1      96.926  81.248  77.243  1.00  0.00     0.135 C 
ATOM     11  O   UNL     1      96.596  80.074  77.084  1.00  0.00    -0.300 OA
BRANCH  10  12
ATOM     12  C   UNL     1      96.594  82.024  78.509  1.00  0.00     0.080 C 
BRANCH  12  13
ATOM     13  C   UNL     1      97.703  81.985  79.563  1.00  0.00     0.043 C 
BRANCH  13  14
ATOM     14  C   UNL     1      97.260  81.360  80.864  1.00  0.00    -0.044 A 
ATOM     15  C   UNL     1      97.126  82.148  82.007  1.00  0.00     0.054 A 
ATOM     16  C   UNL     1      96.986  79.993  80.923  1.00  0.00     0.008 A 
ATOM     17  C   UNL     1      96.717  81.569  83.209  1.00  0.00     0.160 A 
ATOM     18  C   UNL     1      96.576  79.414  82.124  1.00  0.00     0.050 A 
ATOM     19  C   UNL     1      96.442  80.202  83.267  1.00  0.00     0.157 A 
BRANCH  17  20
ATOM     20  O   UNL     1      96.590  82.349  84.319  1.00  0.00    -0.493 OA
ATOM     21  C   UNL     1      95.719  83.474  84.224  1.00  0.00     0.278 C 
ENDBRANCH  17  20
BRANCH  19  22
ATOM     22  O   UNL     1      96.042  79.626  84.434  1.00  0.00    -0.504 OA
ATOM     23  H   UNL     1      95.306  80.142  84.807  1.00  0.00     0.293 HD
ENDBRANCH  19  22
ENDBRANCH  13  14
ENDBRANCH  12  13
ENDBRANCH  10  12
ENDBRANCH   1  10
TORSDOF 12
ENDMDL
