MODEL 1
REMARK VINA RESULT:    -7.809      0.000      0.000
REMARK INTER + INTRA:         -14.337
REMARK INTER:                 -13.744
REMARK INTRA:                  -0.593
REMARK UNBOUND:                -0.593
REMARK SMILES C=C(C)[C@]12C[C@@H](C)[C@@]34O[C@](Cc5ccccc5)(O[C@@H]1[C@@H]3C=C(COC(=O)Cc1ccc(O)c(OC)c1)C[C@]1(O)C(=O)C(C)=C[C@@H]41)O2
REMARK SMILES IDX 23 1 22 2 21 3 20 4 9 5 8 6 10 7 6 8 18 9 46 10 19 11 5 12
REMARK SMILES IDX 7 13 4 14 45 15 38 16 44 17 40 18 42 20 41 21 43 22 39 23
REMARK SMILES IDX 11 25 12 26 13 27 17 28 14 29 16 30 15 31 2 32 3 33 1 34
REMARK SMILES IDX 37 35 24 37 25 38 26 39 27 40 28 41 36 42 29 43 33 44 30 45
REMARK SMILES IDX 31 46 34 47 35 48 32 49
REMARK H PARENT 39 24 32 50
REMARK Flexibility Score: 90.00
ROOT
ATOM      1  C   UNL     1      96.615  83.526  82.369  1.00  0.00     0.264 C 
ENDROOT
BRANCH   1   2
ATOM      2  C   UNL     1      95.583  83.031  83.355  1.00  0.00    -0.033 C 
ATOM      3  C   UNL     1      95.400  81.704  83.509  1.00  0.00    -0.015 C 
BRANCH   3   4
ATOM      4  C   UNL     1      94.388  80.963  84.366  1.00  0.00     0.078 C 
ATOM      5  O   UNL     1      95.467  80.539  86.551  1.00  0.00    -0.319 OA
ATOM      6  C   UNL     1      94.363  81.251  85.914  1.00  0.00     0.095 C 
ATOM      7  C   UNL     1      95.679  79.191  86.090  1.00  0.00     0.289 C 
ATOM      8  C   UNL     1      92.988  80.703  86.482  1.00  0.00     0.023 C 
ATOM      9  O   UNL     1      95.907  79.155  84.684  1.00  0.00    -0.320 OA
ATOM     10  O   UNL     1      94.546  78.357  86.318  1.00  0.00    -0.313 OA
ATOM     11  C   UNL     1      94.582  79.435  84.206  1.00  0.00     0.170 C 
ATOM     12  C   UNL     1      92.515  79.435  85.707  1.00  0.00     0.049 C 
ATOM     13  C   UNL     1      92.966  80.418  87.992  1.00  0.00     0.011 C 
ATOM     14  C   UNL     1      93.696  78.619  85.182  1.00  0.00     0.122 C 
BRANCH   6  15
ATOM     15  C   UNL     1      94.653  82.753  86.199  1.00  0.00     0.086 C 
ATOM     16  C   UNL     1      93.961  83.769  85.267  1.00  0.00     0.140 CG0
ATOM     17  C   UNL     1      94.392  83.306  87.573  1.00  0.00    -0.010 C 
ATOM     18  C   UNL     1      93.690  84.933  86.197  1.00  0.00     0.190 C 
ATOM     19  G   UNL     1      94.843  84.160  84.082  1.00  0.00     0.000 G0
ATOM     20  C   UNL     1      93.877  84.539  87.606  1.00  0.00    -0.008 C 
ATOM     21  O   UNL     1      93.315  86.043  85.851  1.00  0.00    -0.291 OA
ATOM     22  C   UNL     1      93.575  85.414  88.758  1.00  0.00     0.048 C 
BRANCH  16  23
ATOM     23  O   UNL     1      92.669  83.369  84.841  1.00  0.00    -0.381 OA
ATOM     24  H   UNL     1      92.768  82.660  84.184  1.00  0.00     0.212 HD
ENDBRANCH  16  23
ENDBRANCH   6  15
BRANCH   7  25
ATOM     25  C   UNL     1      96.880  78.622  86.818  1.00  0.00     0.135 C 
BRANCH  25  26
ATOM     26  C   UNL     1      98.013  79.615  86.900  1.00  0.00    -0.040 A 
ATOM     27  C   UNL     1      98.305  80.242  88.112  1.00  0.00     0.004 A 
ATOM     28  C   UNL     1      98.770  79.904  85.765  1.00  0.00     0.004 A 
ATOM     29  C   UNL     1      99.353  81.159  88.188  1.00  0.00     0.000 A 
ATOM     30  C   UNL     1      99.819  80.822  85.841  1.00  0.00     0.000 A 
ATOM     31  C   UNL     1     100.109  81.449  87.053  1.00  0.00     0.000 A 
ENDBRANCH  25  26
ENDBRANCH   7  25
BRANCH  14  32
ATOM     32  C   UNL     1      93.276  77.310  84.597  1.00  0.00    -0.046 C 
ATOM     33  C   UNL     1      94.366  76.307  84.364  1.00  0.00     0.042 C 
ATOM     34  C   UNL     1      91.995  77.047  84.296  1.00  0.00     0.010 C 
ENDBRANCH  14  32
ENDBRANCH   3   4
BRANCH   2  35
ATOM     35  C   UNL     1      94.865  84.155  84.078  1.00  0.00     0.078 CG0
ATOM     36  G   UNL     1      93.972  83.770  85.257  1.00  0.00     0.000 G0
ENDBRANCH   2  35
ENDBRANCH   1   2
BRANCH   1  37
ATOM     37  O   UNL     1      97.638  82.562  82.241  1.00  0.00    -0.461 OA
BRANCH  37  38
ATOM     38  C   UNL     1      97.701  81.897  81.038  1.00  0.00     0.310 C 
ATOM     39  O   UNL     1      97.047  80.905  80.749  1.00  0.00    -0.252 OA
BRANCH  38  40
ATOM     40  C   UNL     1      98.702  82.581  80.136  1.00  0.00     0.158 C 
BRANCH  40  41
ATOM     41  C   UNL     1      98.098  83.048  78.837  1.00  0.00    -0.033 A 
ATOM     42  C   UNL     1      98.845  82.986  77.659  1.00  0.00     0.054 A 
ATOM     43  C   UNL     1      96.794  83.541  78.810  1.00  0.00     0.008 A 
ATOM     44  C   UNL     1      98.287  83.418  76.456  1.00  0.00     0.160 A 
ATOM     45  C   UNL     1      96.236  83.974  77.607  1.00  0.00     0.050 A 
ATOM     46  C   UNL     1      96.982  83.912  76.430  1.00  0.00     0.157 A 
BRANCH  44  47
ATOM     47  O   UNL     1      99.025  83.353  75.313  1.00  0.00    -0.493 OA
ATOM     48  C   UNL     1      99.723  84.535  74.925  1.00  0.00     0.278 C 
ENDBRANCH  44  47
BRANCH  46  49
ATOM     49  O   UNL     1      96.426  84.336  75.262  1.00  0.00    -0.504 OA
ATOM     50  H   UNL     1      95.892  85.130  75.434  1.00  0.00     0.293 HD
ENDBRANCH  46  49
ENDBRANCH  40  41
ENDBRANCH  38  40
ENDBRANCH  37  38
ENDBRANCH   1  37
TORSDOF 11
ENDMDL
MODEL 2
REMARK VINA RESULT:    -6.840      2.067      5.297
REMARK INTER + INTRA:         -12.631
REMARK INTER:                 -12.025
REMARK INTRA:                  -0.606
REMARK UNBOUND:                -0.593
REMARK SMILES C=C(C)[C@]12C[C@@H](C)[C@@]34O[C@](Cc5ccccc5)(O[C@@H]1[C@@H]3C=C(COC(=O)Cc1ccc(O)c(OC)c1)C[C@]1(O)C(=O)C(C)=C[C@@H]41)O2
REMARK SMILES IDX 23 1 22 2 21 3 20 4 9 5 8 6 10 7 6 8 18 9 46 10 19 11 5 12
REMARK SMILES IDX 7 13 4 14 45 15 38 16 44 17 40 18 42 20 41 21 43 22 39 23
REMARK SMILES IDX 11 25 12 26 13 27 17 28 14 29 16 30 15 31 2 32 3 33 1 34
REMARK SMILES IDX 37 35 24 37 25 38 26 39 27 40 28 41 36 42 29 43 33 44 30 45
REMARK SMILES IDX 31 46 34 47 35 48 32 49
REMARK H PARENT 39 24 32 50
REMARK Flexibility Score: 90.00
ROOT
ATOM      1  C   UNL     1      97.074  82.533  81.568  1.00  0.00     0.264 C 
ENDROOT
BRANCH   1   2
ATOM      2  C   UNL     1      96.978  81.644  82.785  1.00  0.00    -0.033 C 
ATOM      3  C   UNL     1      97.138  82.183  84.010  1.00  0.00    -0.015 C 
BRANCH   3   4
ATOM      4  C   UNL     1      97.165  81.502  85.369  1.00  0.00     0.078 C 
ATOM      5  O   UNL     1      94.853  81.557  86.247  1.00  0.00    -0.319 OA
ATOM      6  C   UNL     1      95.913  80.653  85.805  1.00  0.00     0.095 C 
ATOM      7  C   UNL     1      95.283  82.653  87.076  1.00  0.00     0.289 C 
ATOM      8  C   UNL     1      96.355  79.733  87.017  1.00  0.00     0.023 C 
ATOM      9  O   UNL     1      96.267  83.445  86.415  1.00  0.00    -0.320 OA
ATOM     10  O   UNL     1      95.894  82.211  88.285  1.00  0.00    -0.313 OA
ATOM     11  C   UNL     1      97.392  82.555  86.481  1.00  0.00     0.170 C 
ATOM     12  C   UNL     1      97.430  80.434  87.904  1.00  0.00     0.049 C 
ATOM     13  C   UNL     1      95.213  79.220  87.908  1.00  0.00     0.011 C 
ATOM     14  C   UNL     1      97.260  81.954  87.903  1.00  0.00     0.122 C 
BRANCH   6  15
ATOM     15  C   UNL     1      95.301  79.905  84.586  1.00  0.00     0.086 C 
ATOM     16  C   UNL     1      96.307  79.251  83.615  1.00  0.00     0.140 CG0
ATOM     17  C   UNL     1      94.287  78.820  84.820  1.00  0.00    -0.010 C 
ATOM     18  C   UNL     1      95.564  78.012  83.161  1.00  0.00     0.190 C 
ATOM     19  G   UNL     1      96.670  80.175  82.453  1.00  0.00     0.000 G0
ATOM     20  C   UNL     1      94.391  77.756  84.017  1.00  0.00    -0.008 C 
ATOM     21  O   UNL     1      95.903  77.280  82.244  1.00  0.00    -0.291 OA
ATOM     22  C   UNL     1      93.532  76.559  83.908  1.00  0.00     0.048 C 
BRANCH  16  23
ATOM     23  O   UNL     1      97.466  78.738  84.249  1.00  0.00    -0.381 OA
ATOM     24  H   UNL     1      97.187  78.141  84.963  1.00  0.00     0.212 HD
ENDBRANCH  16  23
ENDBRANCH   6  15
BRANCH   7  25
ATOM     25  C   UNL     1      94.074  83.506  87.402  1.00  0.00     0.135 C 
BRANCH  25  26
ATOM     26  C   UNL     1      93.781  83.530  88.881  1.00  0.00    -0.040 A 
ATOM     27  C   UNL     1      93.608  82.333  89.577  1.00  0.00     0.004 A 
ATOM     28  C   UNL     1      93.686  84.748  89.554  1.00  0.00     0.004 A 
ATOM     29  C   UNL     1      93.337  82.355  90.946  1.00  0.00     0.000 A 
ATOM     30  C   UNL     1      93.416  84.769  90.923  1.00  0.00     0.000 A 
ATOM     31  C   UNL     1      93.241  83.572  91.618  1.00  0.00     0.000 A 
ENDBRANCH  25  26
ENDBRANCH   7  25
BRANCH  14  32
ATOM     32  C   UNL     1      98.159  82.633  88.885  1.00  0.00    -0.046 C 
ATOM     33  C   UNL     1      97.503  83.171  90.121  1.00  0.00     0.042 C 
ATOM     34  C   UNL     1      99.478  82.755  88.673  1.00  0.00     0.010 C 
ENDBRANCH  14  32
ENDBRANCH   3   4
BRANCH   2  35
ATOM     35  C   UNL     1      96.693  80.194  82.442  1.00  0.00     0.078 CG0
ATOM     36  G   UNL     1      96.311  79.265  83.593  1.00  0.00     0.000 G0
ENDBRANCH   2  35
ENDBRANCH   1   2
BRANCH   1  37
ATOM     37  O   UNL     1      97.411  81.750  80.443  1.00  0.00    -0.461 OA
BRANCH  37  38
ATOM     38  C   UNL     1      98.578  82.085  79.796  1.00  0.00     0.310 C 
ATOM     39  O   UNL     1      99.519  82.678  80.306  1.00  0.00    -0.252 OA
BRANCH  38  40
ATOM     40  C   UNL     1      98.515  81.609  78.364  1.00  0.00     0.158 C 
BRANCH  40  41
ATOM     41  C   UNL     1      97.933  82.636  77.427  1.00  0.00    -0.033 A 
ATOM     42  C   UNL     1      98.507  82.841  76.172  1.00  0.00     0.054 A 
ATOM     43  C   UNL     1      96.819  83.381  77.815  1.00  0.00     0.008 A 
ATOM     44  C   UNL     1      97.968  83.792  75.306  1.00  0.00     0.160 A 
ATOM     45  C   UNL     1      96.280  84.332  76.948  1.00  0.00     0.050 A 
ATOM     46  C   UNL     1      96.854  84.538  75.694  1.00  0.00     0.157 A 
BRANCH  44  47
ATOM     47  O   UNL     1      98.537  83.983  74.083  1.00  0.00    -0.493 OA
ATOM     48  C   UNL     1      99.729  84.767  74.039  1.00  0.00     0.278 C 
ENDBRANCH  44  47
BRANCH  46  49
ATOM     49  O   UNL     1      96.318  85.468  74.856  1.00  0.00    -0.504 OA
ATOM     50  H   UNL     1      97.028  85.852  74.314  1.00  0.00     0.293 HD
ENDBRANCH  46  49
ENDBRANCH  40  41
ENDBRANCH  38  40
ENDBRANCH  37  38
ENDBRANCH   1  37
TORSDOF 11
ENDMDL
MODEL 3
REMARK VINA RESULT:    -6.593     15.791     19.882
REMARK INTER + INTRA:         -12.197
REMARK INTER:                 -10.554
REMARK INTRA:                  -1.643
REMARK UNBOUND:                -0.593
REMARK SMILES C=C(C)[C@]12C[C@@H](C)[C@@]34O[C@](Cc5ccccc5)(O[C@@H]1[C@@H]3C=C(COC(=O)Cc1ccc(O)c(OC)c1)C[C@]1(O)C(=O)C(C)=C[C@@H]41)O2
REMARK SMILES IDX 23 1 22 2 21 3 20 4 9 5 8 6 10 7 6 8 18 9 46 10 19 11 5 12
REMARK SMILES IDX 7 13 4 14 45 15 38 16 44 17 40 18 42 20 41 21 43 22 39 23
REMARK SMILES IDX 11 25 12 26 13 27 17 28 14 29 16 30 15 31 2 32 3 33 1 34
REMARK SMILES IDX 37 35 24 37 25 38 26 39 27 40 28 41 36 42 29 43 33 44 30 45
REMARK SMILES IDX 31 46 34 47 35 48 32 49
REMARK H PARENT 39 24 32 50
REMARK Flexibility Score: 90.00
ROOT
ATOM      1  C   UNL     1      97.157  96.224  79.322  1.00  0.00     0.264 C 
ENDROOT
BRANCH   1   2
ATOM      2  C   UNL     1      96.215  96.815  78.299  1.00  0.00    -0.033 C 
ATOM      3  C   UNL     1      96.653  97.803  77.493  1.00  0.00    -0.015 C 
BRANCH   3   4
ATOM      4  C   UNL     1      95.892  98.606  76.450  1.00  0.00     0.078 C 
ATOM      5  O   UNL     1      96.170  97.431  74.292  1.00  0.00    -0.319 OA
ATOM      6  C   UNL     1      95.175  97.829  75.284  1.00  0.00     0.095 C 
ATOM      7  C   UNL     1      97.155  98.431  73.970  1.00  0.00     0.289 C 
ATOM      8  C   UNL     1      94.136  98.822  74.615  1.00  0.00     0.023 C 
ATOM      9  O   UNL     1      97.862  98.854  75.133  1.00  0.00    -0.320 OA
ATOM     10  O   UNL     1      96.570  99.611  73.425  1.00  0.00    -0.313 OA
ATOM     11  C   UNL     1      96.841  99.630  75.780  1.00  0.00     0.170 C 
ATOM     12  C   UNL     1      94.649 100.294  74.651  1.00  0.00     0.049 C 
ATOM     13  C   UNL     1      93.711  98.463  73.181  1.00  0.00     0.011 C 
ATOM     14  C   UNL     1      96.175 100.364  74.589  1.00  0.00     0.122 C 
BRANCH   6  15
ATOM     15  C   UNL     1      94.580  96.487  75.799  1.00  0.00     0.086 C 
ATOM     16  C   UNL     1      93.873  96.537  77.169  1.00  0.00     0.140 CG0
ATOM     17  C   UNL     1      93.612  95.730  74.934  1.00  0.00    -0.010 C 
ATOM     18  C   UNL     1      92.761  95.524  77.000  1.00  0.00     0.190 C 
ATOM     19  G   UNL     1      94.816  96.185  78.319  1.00  0.00     0.000 G0
ATOM     20  C   UNL     1      92.594  95.154  75.582  1.00  0.00    -0.008 C 
ATOM     21  O   UNL     1      92.051  95.095  77.897  1.00  0.00    -0.291 OA
ATOM     22  C   UNL     1      91.517  94.279  75.075  1.00  0.00     0.048 C 
BRANCH  16  23
ATOM     23  O   UNL     1      93.187  97.754  77.416  1.00  0.00    -0.381 OA
ATOM     24  H   UNL     1      92.817  97.721  78.314  1.00  0.00     0.212 HD
ENDBRANCH  16  23
ENDBRANCH   6  15
BRANCH   7  25
ATOM     25  C   UNL     1      98.125  97.838  72.968  1.00  0.00     0.135 C 
BRANCH  25  26
ATOM     26  C   UNL     1      97.666  98.044  71.546  1.00  0.00    -0.040 A 
ATOM     27  C   UNL     1      96.781  97.137  70.961  1.00  0.00     0.004 A 
ATOM     28  C   UNL     1      98.124  99.140  70.817  1.00  0.00     0.004 A 
ATOM     29  C   UNL     1      96.356  97.327  69.646  1.00  0.00     0.000 A 
ATOM     30  C   UNL     1      97.699  99.330  69.501  1.00  0.00     0.000 A 
ATOM     31  C   UNL     1      96.815  98.423  68.917  1.00  0.00     0.000 A 
ENDBRANCH  25  26
ENDBRANCH   7  25
BRANCH  14  32
ATOM     32  C   UNL     1      96.680 101.762  74.439  1.00  0.00    -0.046 C 
ATOM     33  C   UNL     1      97.387 102.076  73.154  1.00  0.00     0.042 C 
ATOM     34  C   UNL     1      96.511 102.685  75.398  1.00  0.00     0.010 C 
ENDBRANCH  14  32
ENDBRANCH   3   4
BRANCH   2  35
ATOM     35  C   UNL     1      94.840  96.175  78.317  1.00  0.00     0.078 CG0
ATOM     36  G   UNL     1      93.889  96.530  77.176  1.00  0.00     0.000 G0
ENDBRANCH   2  35
ENDBRANCH   1   2
BRANCH   1  37
ATOM     37  O   UNL     1      98.331  97.005  79.382  1.00  0.00    -0.461 OA
BRANCH  37  38
ATOM     38  C   UNL     1      98.787  97.323  80.640  1.00  0.00     0.310 C 
ATOM     39  O   UNL     1      99.954  97.547  80.929  1.00  0.00    -0.252 OA
BRANCH  38  40
ATOM     40  C   UNL     1      97.625  97.353  81.605  1.00  0.00     0.158 C 
BRANCH  40  41
ATOM     41  C   UNL     1      97.006  98.720  81.739  1.00  0.00    -0.033 A 
ATOM     42  C   UNL     1      97.443  99.766  80.924  1.00  0.00     0.054 A 
ATOM     43  C   UNL     1      95.998  98.941  82.676  1.00  0.00     0.008 A 
ATOM     44  C   UNL     1      96.871 101.032  81.048  1.00  0.00     0.160 A 
ATOM     45  C   UNL     1      95.426 100.208  82.800  1.00  0.00     0.050 A 
ATOM     46  C   UNL     1      95.862 101.253  81.987  1.00  0.00     0.157 A 
BRANCH  44  47
ATOM     47  O   UNL     1      97.305 102.045  80.248  1.00  0.00    -0.493 OA
ATOM     48  C   UNL     1      96.686 102.171  78.968  1.00  0.00     0.278 C 
ENDBRANCH  44  47
BRANCH  46  49
ATOM     49  O   UNL     1      95.295 102.484  82.116  1.00  0.00    -0.504 OA
ATOM     50  H   UNL     1      95.354 102.951  81.265  1.00  0.00     0.293 HD
ENDBRANCH  46  49
ENDBRANCH  40  41
ENDBRANCH  38  40
ENDBRANCH  37  38
ENDBRANCH   1  37
TORSDOF 11
ENDMDL
MODEL 4
REMARK VINA RESULT:    -6.556     15.201     19.512
REMARK INTER + INTRA:         -12.131
REMARK INTER:                 -11.190
REMARK INTRA:                  -0.942
REMARK UNBOUND:                -0.593
REMARK SMILES C=C(C)[C@]12C[C@@H](C)[C@@]34O[C@](Cc5ccccc5)(O[C@@H]1[C@@H]3C=C(COC(=O)Cc1ccc(O)c(OC)c1)C[C@]1(O)C(=O)C(C)=C[C@@H]41)O2
REMARK SMILES IDX 23 1 22 2 21 3 20 4 9 5 8 6 10 7 6 8 18 9 46 10 19 11 5 12
REMARK SMILES IDX 7 13 4 14 45 15 38 16 44 17 40 18 42 20 41 21 43 22 39 23
REMARK SMILES IDX 11 25 12 26 13 27 17 28 14 29 16 30 15 31 2 32 3 33 1 34
REMARK SMILES IDX 37 35 24 37 25 38 26 39 27 40 28 41 36 42 29 43 33 44 30 45
REMARK SMILES IDX 31 46 34 47 35 48 32 49
REMARK H PARENT 39 24 32 50
REMARK Flexibility Score: 90.00
ROOT
ATOM      1  C   UNL     1      87.639  70.574  76.990  1.00  0.00     0.264 C 
ENDROOT
BRANCH   1   2
ATOM      2  C   UNL     1      87.666  69.683  75.771  1.00  0.00    -0.033 C 
ATOM      3  C   UNL     1      86.921  68.560  75.758  1.00  0.00    -0.015 C 
BRANCH   3   4
ATOM      4  C   UNL     1      86.833  67.472  74.700  1.00  0.00     0.078 C 
ATOM      5  O   UNL     1      84.989  68.096  73.175  1.00  0.00    -0.319 OA
ATOM      6  C   UNL     1      86.433  67.883  73.234  1.00  0.00     0.095 C 
ATOM      7  C   UNL     1      84.192  67.122  73.875  1.00  0.00     0.289 C 
ATOM      8  C   UNL     1      86.825  66.684  72.276  1.00  0.00     0.023 C 
ATOM      9  O   UNL     1      84.554  67.051  75.252  1.00  0.00    -0.320 OA
ATOM     10  O   UNL     1      84.373  65.805  73.361  1.00  0.00    -0.313 OA
ATOM     11  C   UNL     1      85.822  66.386  75.145  1.00  0.00     0.170 C 
ATOM     12  C   UNL     1      86.670  65.306  72.991  1.00  0.00     0.049 C 
ATOM     13  C   UNL     1      86.084  66.646  70.929  1.00  0.00     0.011 C 
ATOM     14  C   UNL     1      85.557  65.335  74.039  1.00  0.00     0.122 C 
BRANCH   6  15
ATOM     15  C   UNL     1      87.045  69.264  72.862  1.00  0.00     0.086 C 
ATOM     16  C   UNL     1      88.507  69.499  73.296  1.00  0.00     0.140 CG0
ATOM     17  C   UNL     1      87.029  69.714  71.428  1.00  0.00    -0.010 C 
ATOM     18  C   UNL     1      89.047  70.358  72.171  1.00  0.00     0.190 C 
ATOM     19  G   UNL     1      88.602  70.189  74.656  1.00  0.00     0.000 G0
ATOM     20  C   UNL     1      88.128  70.356  71.017  1.00  0.00    -0.008 C 
ATOM     21  O   UNL     1      90.121  70.940  72.178  1.00  0.00    -0.291 OA
ATOM     22  C   UNL     1      88.425  71.001  69.722  1.00  0.00     0.048 C 
BRANCH  16  23
ATOM     23  O   UNL     1      89.314  68.334  73.249  1.00  0.00    -0.381 OA
ATOM     24  H   UNL     1      90.165  68.566  72.842  1.00  0.00     0.212 HD
ENDBRANCH  16  23
ENDBRANCH   6  15
BRANCH   7  25
ATOM     25  C   UNL     1      82.735  67.519  73.748  1.00  0.00     0.135 C 
BRANCH  25  26
ATOM     26  C   UNL     1      82.021  66.716  72.690  1.00  0.00    -0.040 A 
ATOM     27  C   UNL     1      80.945  65.900  73.042  1.00  0.00     0.004 A 
ATOM     28  C   UNL     1      82.434  66.789  71.360  1.00  0.00     0.004 A 
ATOM     29  C   UNL     1      80.283  65.157  72.063  1.00  0.00     0.000 A 
ATOM     30  C   UNL     1      81.772  66.047  70.382  1.00  0.00     0.000 A 
ATOM     31  C   UNL     1      80.697  65.230  70.734  1.00  0.00     0.000 A 
ENDBRANCH  25  26
ENDBRANCH   7  25
BRANCH  14  32
ATOM     32  C   UNL     1      85.268  63.983  74.607  1.00  0.00    -0.046 C 
ATOM     33  C   UNL     1      83.831  63.689  74.918  1.00  0.00     0.042 C 
ATOM     34  C   UNL     1      86.239  63.084  74.826  1.00  0.00     0.010 C 
ENDBRANCH  14  32
ENDBRANCH   3   4
BRANCH   2  35
ATOM     35  C   UNL     1      88.570  70.208  74.671  1.00  0.00     0.078 CG0
ATOM     36  G   UNL     1      88.499  69.507  73.315  1.00  0.00     0.000 G0
ENDBRANCH   2  35
ENDBRANCH   1   2
BRANCH   1  37
ATOM     37  O   UNL     1      88.257  69.907  78.070  1.00  0.00    -0.461 OA
BRANCH  37  38
ATOM     38  C   UNL     1      89.615  70.086  78.199  1.00  0.00     0.310 C 
ATOM     39  O   UNL     1      90.462  69.563  77.488  1.00  0.00    -0.252 OA
BRANCH  38  40
ATOM     40  C   UNL     1      89.893  71.024  79.350  1.00  0.00     0.158 C 
BRANCH  40  41
ATOM     41  C   UNL     1      90.196  72.431  78.902  1.00  0.00    -0.033 A 
ATOM     42  C   UNL     1      90.600  72.673  77.588  1.00  0.00     0.054 A 
ATOM     43  C   UNL     1      90.070  73.490  79.799  1.00  0.00     0.008 A 
ATOM     44  C   UNL     1      90.880  73.975  77.174  1.00  0.00     0.160 A 
ATOM     45  C   UNL     1      90.350  74.793  79.385  1.00  0.00     0.050 A 
ATOM     46  C   UNL     1      90.755  75.035  78.073  1.00  0.00     0.157 A 
BRANCH  44  47
ATOM     47  O   UNL     1      91.275  74.199  75.890  1.00  0.00    -0.493 OA
ATOM     48  C   UNL     1      91.190  73.099  74.984  1.00  0.00     0.278 C 
ENDBRANCH  44  47
BRANCH  46  49
ATOM     49  O   UNL     1      91.024  76.311  77.679  1.00  0.00    -0.504 OA
ATOM     50  H   UNL     1      90.189  76.758  77.460  1.00  0.00     0.293 HD
ENDBRANCH  46  49
ENDBRANCH  40  41
ENDBRANCH  38  40
ENDBRANCH  37  38
ENDBRANCH   1  37
TORSDOF 11
ENDMDL
MODEL 5
REMARK VINA RESULT:    -6.458      3.679      8.404
REMARK INTER + INTRA:         -11.958
REMARK INTER:                 -10.071
REMARK INTRA:                  -1.888
REMARK UNBOUND:                -0.593
REMARK SMILES C=C(C)[C@]12C[C@@H](C)[C@@]34O[C@](Cc5ccccc5)(O[C@@H]1[C@@H]3C=C(COC(=O)Cc1ccc(O)c(OC)c1)C[C@]1(O)C(=O)C(C)=C[C@@H]41)O2
REMARK SMILES IDX 23 1 22 2 21 3 20 4 9 5 8 6 10 7 6 8 18 9 46 10 19 11 5 12
REMARK SMILES IDX 7 13 4 14 45 15 38 16 44 17 40 18 42 20 41 21 43 22 39 23
REMARK SMILES IDX 11 25 12 26 13 27 17 28 14 29 16 30 15 31 2 32 3 33 1 34
REMARK SMILES IDX 37 35 24 37 25 38 26 39 27 40 28 41 36 42 29 43 33 44 30 45
REMARK SMILES IDX 31 46 34 47 35 48 32 49
REMARK H PARENT 39 24 32 50
REMARK Flexibility Score: 90.00
ROOT
ATOM      1  C   UNL     1      95.669  77.833  84.317  1.00  0.00     0.264 C 
ENDROOT
BRANCH   1   2
ATOM      2  C   UNL     1      96.322  77.778  82.956  1.00  0.00    -0.033 C 
ATOM      3  C   UNL     1      96.661  78.929  82.341  1.00  0.00    -0.015 C 
BRANCH   3   4
ATOM      4  C   UNL     1      97.250  79.145  80.957  1.00  0.00     0.078 C 
ATOM      5  O   UNL     1      99.709  79.210  81.222  1.00  0.00    -0.319 OA
ATOM      6  C   UNL     1      98.621  78.452  80.609  1.00  0.00     0.095 C 
ATOM      7  C   UNL     1      99.598  80.642  81.118  1.00  0.00     0.289 C 
ATOM      8  C   UNL     1      98.786  78.479  79.034  1.00  0.00     0.023 C 
ATOM      9  O   UNL     1      98.380  81.110  81.691  1.00  0.00    -0.320 OA
ATOM     10  O   UNL     1      99.582  81.086  79.764  1.00  0.00    -0.313 OA
ATOM     11  C   UNL     1      97.445  80.660  80.699  1.00  0.00     0.170 C 
ATOM     12  C   UNL     1      98.142  79.757  78.413  1.00  0.00     0.049 C 
ATOM     13  C   UNL     1     100.227  78.332  78.519  1.00  0.00     0.011 C 
ATOM     14  C   UNL     1      98.200  80.944  79.376  1.00  0.00     0.122 C 
BRANCH   6  15
ATOM     15  C   UNL     1      98.709  77.044  81.267  1.00  0.00     0.086 C 
ATOM     16  C   UNL     1      97.436  76.177  81.189  1.00  0.00     0.140 CG0
ATOM     17  C   UNL     1      99.801  76.101  80.844  1.00  0.00    -0.010 C 
ATOM     18  C   UNL     1      98.001  74.778  81.062  1.00  0.00     0.190 C 
ATOM     19  G   UNL     1      96.550  76.339  82.424  1.00  0.00     0.000 G0
ATOM     20  C   UNL     1      99.442  74.817  80.747  1.00  0.00    -0.008 C 
ATOM     21  O   UNL     1      97.359  73.743  81.153  1.00  0.00    -0.291 OA
ATOM     22  C   UNL     1     100.256  73.622  80.444  1.00  0.00     0.048 C 
BRANCH  16  23
ATOM     23  O   UNL     1      96.694  76.352  79.993  1.00  0.00    -0.381 OA
ATOM     24  H   UNL     1      96.661  77.301  79.788  1.00  0.00     0.212 HD
ENDBRANCH  16  23
ENDBRANCH   6  15
BRANCH   7  25
ATOM     25  C   UNL     1     100.777  81.264  81.840  1.00  0.00     0.135 C 
BRANCH  25  26
ATOM     26  C   UNL     1     101.286  80.383  82.953  1.00  0.00    -0.040 A 
ATOM     27  C   UNL     1     100.736  80.487  84.231  1.00  0.00     0.004 A 
ATOM     28  C   UNL     1     102.306  79.465  82.705  1.00  0.00     0.004 A 
ATOM     29  C   UNL     1     101.207  79.672  85.262  1.00  0.00     0.000 A 
ATOM     30  C   UNL     1     102.777  78.650  83.736  1.00  0.00     0.000 A 
ATOM     31  C   UNL     1     102.227  78.755  85.014  1.00  0.00     0.000 A 
ENDBRANCH  25  26
ENDBRANCH   7  25
BRANCH  14  32
ATOM     32  C   UNL     1      97.756  82.221  78.740  1.00  0.00    -0.046 C 
ATOM     33  C   UNL     1      97.923  83.464  79.563  1.00  0.00     0.042 C 
ATOM     34  C   UNL     1      97.237  82.255  77.503  1.00  0.00     0.010 C 
ENDBRANCH  14  32
ENDBRANCH   3   4
BRANCH   2  35
ATOM     35  C   UNL     1      96.521  76.363  82.448  1.00  0.00     0.078 CG0
ATOM     36  G   UNL     1      97.423  76.178  81.229  1.00  0.00     0.000 G0
ENDBRANCH   2  35
ENDBRANCH   1   2
BRANCH   1  37
ATOM     37  O   UNL     1      96.040  79.030  84.966  1.00  0.00    -0.461 OA
BRANCH  37  38
ATOM     38  C   UNL     1      95.044  79.684  85.653  1.00  0.00     0.310 C 
ATOM     39  O   UNL     1      94.847  79.596  86.857  1.00  0.00    -0.252 OA
BRANCH  38  40
ATOM     40  C   UNL     1      94.235  80.524  84.692  1.00  0.00     0.158 C 
BRANCH  40  41
ATOM     41  C   UNL     1      94.793  81.913  84.512  1.00  0.00    -0.033 A 
ATOM     42  C   UNL     1      94.538  82.896  85.469  1.00  0.00     0.054 A 
ATOM     43  C   UNL     1      95.563  82.215  83.390  1.00  0.00     0.008 A 
ATOM     44  C   UNL     1      95.054  84.181  85.303  1.00  0.00     0.160 A 
ATOM     45  C   UNL     1      96.079  83.500  83.223  1.00  0.00     0.050 A 
ATOM     46  C   UNL     1      95.825  84.483  84.179  1.00  0.00     0.157 A 
BRANCH  44  47
ATOM     47  O   UNL     1      94.799  85.132  86.243  1.00  0.00    -0.493 OA
ATOM     48  C   UNL     1      93.660  85.965  86.030  1.00  0.00     0.278 C 
ENDBRANCH  44  47
BRANCH  46  49
ATOM     49  O   UNL     1      96.335  85.734  84.006  1.00  0.00    -0.504 OA
ATOM     50  H   UNL     1      97.272  85.733  84.265  1.00  0.00     0.293 HD
ENDBRANCH  46  49
ENDBRANCH  40  41
ENDBRANCH  38  40
ENDBRANCH  37  38
ENDBRANCH   1  37
TORSDOF 11
ENDMDL
MODEL 6
REMARK VINA RESULT:    -6.202     32.186     35.685
REMARK INTER + INTRA:         -11.509
REMARK INTER:                  -8.696
REMARK INTRA:                  -2.814
REMARK UNBOUND:                -0.593
REMARK SMILES C=C(C)[C@]12C[C@@H](C)[C@@]34O[C@](Cc5ccccc5)(O[C@@H]1[C@@H]3C=C(COC(=O)Cc1ccc(O)c(OC)c1)C[C@]1(O)C(=O)C(C)=C[C@@H]41)O2
REMARK SMILES IDX 23 1 22 2 21 3 20 4 9 5 8 6 10 7 6 8 18 9 46 10 19 11 5 12
REMARK SMILES IDX 7 13 4 14 45 15 38 16 44 17 40 18 42 20 41 21 43 22 39 23
REMARK SMILES IDX 11 25 12 26 13 27 17 28 14 29 16 30 15 31 2 32 3 33 1 34
REMARK SMILES IDX 37 35 24 37 25 38 26 39 27 40 28 41 36 42 29 43 33 44 30 45
REMARK SMILES IDX 31 46 34 47 35 48 32 49
REMARK H PARENT 39 24 32 50
REMARK Flexibility Score: 90.00
ROOT
ATOM      1  C   UNL     1      61.235  83.072  85.834  1.00  0.00     0.264 C 
ENDROOT
BRANCH   1   2
ATOM      2  C   UNL     1      60.057  82.155  86.064  1.00  0.00    -0.033 C 
ATOM      3  C   UNL     1      60.203  80.830  85.863  1.00  0.00    -0.015 C 
BRANCH   3   4
ATOM      4  C   UNL     1      59.168  79.720  85.949  1.00  0.00     0.078 C 
ATOM      5  O   UNL     1      59.265  78.821  88.252  1.00  0.00    -0.319 OA
ATOM      6  C   UNL     1      58.397  79.520  87.307  1.00  0.00     0.095 C 
ATOM      7  C   UNL     1      60.019  77.724  87.702  1.00  0.00     0.289 C 
ATOM      8  C   UNL     1      57.123  78.626  87.008  1.00  0.00     0.023 C 
ATOM      9  O   UNL     1      60.833  78.151  86.613  1.00  0.00    -0.320 OA
ATOM     10  O   UNL     1      59.178  76.700  87.176  1.00  0.00    -0.313 OA
ATOM     11  C   UNL     1      59.825  78.360  85.611  1.00  0.00     0.170 C 
ATOM     12  C   UNL     1      57.402  77.596  85.870  1.00  0.00     0.049 C 
ATOM     13  C   UNL     1      56.528  77.896  88.223  1.00  0.00     0.011 C 
ATOM     14  C   UNL     1      58.869  77.164  85.845  1.00  0.00     0.122 C 
BRANCH   6  15
ATOM     15  C   UNL     1      58.107  80.890  87.985  1.00  0.00     0.086 C 
ATOM     16  C   UNL     1      57.615  82.018  87.055  1.00  0.00     0.140 CG0
ATOM     17  C   UNL     1      57.153  80.952  89.145  1.00  0.00    -0.010 C 
ATOM     18  C   UNL     1      56.666  82.788  87.950  1.00  0.00     0.190 C 
ATOM     19  G   UNL     1      58.764  82.884  86.539  1.00  0.00     0.000 G0
ATOM     20  C   UNL     1      56.349  82.019  89.168  1.00  0.00    -0.008 C 
ATOM     21  O   UNL     1      56.177  83.877  87.692  1.00  0.00    -0.291 OA
ATOM     22  C   UNL     1      55.361  82.445  90.181  1.00  0.00     0.048 C 
BRANCH  16  23
ATOM     23  O   UNL     1      56.790  81.568  85.994  1.00  0.00    -0.381 OA
ATOM     24  H   UNL     1      55.945  81.269  86.368  1.00  0.00     0.212 HD
ENDBRANCH  16  23
ENDBRANCH   6  15
BRANCH   7  25
ATOM     25  C   UNL     1      60.891  77.149  88.799  1.00  0.00     0.135 C 
BRANCH  25  26
ATOM     26  C   UNL     1      62.292  77.706  88.757  1.00  0.00    -0.040 A 
ATOM     27  C   UNL     1      62.513  79.059  89.016  1.00  0.00     0.004 A 
ATOM     28  C   UNL     1      63.368  76.868  88.462  1.00  0.00     0.004 A 
ATOM     29  C   UNL     1      63.809  79.574  88.977  1.00  0.00     0.000 A 
ATOM     30  C   UNL     1      64.664  77.384  88.424  1.00  0.00     0.000 A 
ATOM     31  C   UNL     1      64.883  78.737  88.682  1.00  0.00     0.000 A 
ENDBRANCH  25  26
ENDBRANCH   7  25
BRANCH  14  32
ATOM     32  C   UNL     1      59.122  76.046  84.887  1.00  0.00    -0.046 C 
ATOM     33  C   UNL     1      59.300  74.684  85.489  1.00  0.00     0.042 C 
ATOM     34  C   UNL     1      59.187  76.249  83.562  1.00  0.00     0.010 C 
ENDBRANCH  14  32
ENDBRANCH   3   4
BRANCH   2  35
ATOM     35  C   UNL     1      58.811  82.890  86.521  1.00  0.00     0.078 CG0
ATOM     36  G   UNL     1      57.652  82.043  87.044  1.00  0.00     0.000 G0
ENDBRANCH   2  35
ENDBRANCH   1   2
BRANCH   1  37
ATOM     37  O   UNL     1      62.422  82.310  85.809  1.00  0.00    -0.461 OA
BRANCH  37  38
ATOM     38  C   UNL     1      63.204  82.437  84.685  1.00  0.00     0.310 C 
ATOM     39  O   UNL     1      63.016  83.245  83.786  1.00  0.00    -0.252 OA
BRANCH  38  40
ATOM     40  C   UNL     1      64.326  81.427  84.733  1.00  0.00     0.158 C 
BRANCH  40  41
ATOM     41  C   UNL     1      63.919  80.070  84.219  1.00  0.00    -0.033 A 
ATOM     42  C   UNL     1      63.643  79.893  82.863  1.00  0.00     0.054 A 
ATOM     43  C   UNL     1      63.818  78.992  85.098  1.00  0.00     0.008 A 
ATOM     44  C   UNL     1      63.265  78.637  82.387  1.00  0.00     0.160 A 
ATOM     45  C   UNL     1      63.440  77.737  84.622  1.00  0.00     0.050 A 
ATOM     46  C   UNL     1      63.164  77.559  83.267  1.00  0.00     0.157 A 
BRANCH  44  47
ATOM     47  O   UNL     1      62.998  78.476  81.061  1.00  0.00    -0.493 OA
ATOM     48  C   UNL     1      64.073  78.036  80.232  1.00  0.00     0.278 C 
ENDBRANCH  44  47
BRANCH  46  49
ATOM     49  O   UNL     1      62.797  76.328  82.813  1.00  0.00    -0.504 OA
ATOM     50  H   UNL     1      61.838  76.320  82.659  1.00  0.00     0.293 HD
ENDBRANCH  46  49
ENDBRANCH  40  41
ENDBRANCH  38  40
ENDBRANCH  37  38
ENDBRANCH   1  37
TORSDOF 11
ENDMDL
MODEL 7
REMARK VINA RESULT:    -6.186      2.435      5.893
REMARK INTER + INTRA:         -11.481
REMARK INTER:                 -12.062
REMARK INTRA:                   0.581
REMARK UNBOUND:                -0.593
REMARK SMILES C=C(C)[C@]12C[C@@H](C)[C@@]34O[C@](Cc5ccccc5)(O[C@@H]1[C@@H]3C=C(COC(=O)Cc1ccc(O)c(OC)c1)C[C@]1(O)C(=O)C(C)=C[C@@H]41)O2
REMARK SMILES IDX 23 1 22 2 21 3 20 4 9 5 8 6 10 7 6 8 18 9 46 10 19 11 5 12
REMARK SMILES IDX 7 13 4 14 45 15 38 16 44 17 40 18 42 20 41 21 43 22 39 23
REMARK SMILES IDX 11 25 12 26 13 27 17 28 14 29 16 30 15 31 2 32 3 33 1 34
REMARK SMILES IDX 37 35 24 37 25 38 26 39 27 40 28 41 36 42 29 43 33 44 30 45
REMARK SMILES IDX 31 46 34 47 35 48 32 49
REMARK H PARENT 39 24 32 50
REMARK Flexibility Score: 90.00
ROOT
ATOM      1  C   UNL     1      96.962  83.193  81.116  1.00  0.00     0.264 C 
ENDROOT
BRANCH   1   2
ATOM      2  C   UNL     1      96.746  82.483  82.432  1.00  0.00    -0.033 C 
ATOM      3  C   UNL     1      95.925  83.031  83.349  1.00  0.00    -0.015 C 
BRANCH   3   4
ATOM      4  C   UNL     1      95.604  82.563  84.759  1.00  0.00     0.078 C 
ATOM      5  O   UNL     1      93.581  81.148  84.606  1.00  0.00    -0.319 OA
ATOM      6  C   UNL     1      95.000  81.122  84.951  1.00  0.00     0.095 C 
ATOM      7  C   UNL     1      92.849  82.288  85.095  1.00  0.00     0.289 C 
ATOM      8  C   UNL     1      95.161  80.733  86.478  1.00  0.00     0.023 C 
ATOM      9  O   UNL     1      93.421  83.508  84.629  1.00  0.00    -0.320 OA
ATOM     10  O   UNL     1      92.866  82.373  86.517  1.00  0.00    -0.313 OA
ATOM     11  C   UNL     1      94.613  83.548  85.428  1.00  0.00     0.170 C 
ATOM     12  C   UNL     1      95.040  81.984  87.402  1.00  0.00     0.049 C 
ATOM     13  C   UNL     1      94.214  79.632  86.982  1.00  0.00     0.011 C 
ATOM     14  C   UNL     1      94.111  83.042  86.804  1.00  0.00     0.122 C 
BRANCH   6  15
ATOM     15  C   UNL     1      95.628  80.122  83.937  1.00  0.00     0.086 C 
ATOM     16  C   UNL     1      97.152  80.231  83.729  1.00  0.00     0.140 CG0
ATOM     17  C   UNL     1      95.404  78.647  84.123  1.00  0.00    -0.010 C 
ATOM     18  C   UNL     1      97.552  78.790  83.489  1.00  0.00     0.190 C 
ATOM     19  G   UNL     1      97.512  81.141  82.556  1.00  0.00     0.000 G0
ATOM     20  C   UNL     1      96.458  77.870  83.852  1.00  0.00    -0.008 C 
ATOM     21  O   UNL     1      98.647  78.415  83.096  1.00  0.00    -0.291 OA
ATOM     22  C   UNL     1      96.578  76.398  83.845  1.00  0.00     0.048 C 
BRANCH  16  23
ATOM     23  O   UNL     1      97.867  80.589  84.901  1.00  0.00    -0.381 OA
ATOM     24  H   UNL     1      97.709  81.531  85.081  1.00  0.00     0.212 HD
ENDBRANCH  16  23
ENDBRANCH   6  15
BRANCH   7  25
ATOM     25  C   UNL     1      91.417  82.177  84.611  1.00  0.00     0.135 C 
BRANCH  25  26
ATOM     26  C   UNL     1      90.958  80.743  84.529  1.00  0.00    -0.040 A 
ATOM     27  C   UNL     1      91.840  79.709  84.846  1.00  0.00     0.004 A 
ATOM     28  C   UNL     1      89.652  80.449  84.138  1.00  0.00     0.004 A 
ATOM     29  C   UNL     1      91.415  78.382  84.771  1.00  0.00     0.000 A 
ATOM     30  C   UNL     1      89.227  79.122  84.063  1.00  0.00     0.000 A 
ATOM     31  C   UNL     1      90.110  78.089  84.379  1.00  0.00     0.000 A 
ENDBRANCH  25  26
ENDBRANCH   7  25
BRANCH  14  32
ATOM     32  C   UNL     1      93.836  84.165  87.749  1.00  0.00    -0.046 C 
ATOM     33  C   UNL     1      93.662  85.521  87.133  1.00  0.00     0.042 C 
ATOM     34  C   UNL     1      93.749  83.972  89.074  1.00  0.00     0.010 C 
ENDBRANCH  14  32
ENDBRANCH   3   4
BRANCH   2  35
ATOM     35  C   UNL     1      97.518  81.182  82.539  1.00  0.00     0.078 CG0
ATOM     36  G   UNL     1      97.164  80.253  83.699  1.00  0.00     0.000 G0
ENDBRANCH   2  35
ENDBRANCH   1   2
BRANCH   1  37
ATOM     37  O   UNL     1      96.921  82.252  80.065  1.00  0.00    -0.461 OA
BRANCH  37  38
ATOM     38  C   UNL     1      97.891  82.377  79.098  1.00  0.00     0.310 C 
ATOM     39  O   UNL     1      98.256  83.434  78.601  1.00  0.00    -0.252 OA
BRANCH  38  40
ATOM     40  C   UNL     1      98.433  81.011  78.747  1.00  0.00     0.158 C 
BRANCH  40  41
ATOM     41  C   UNL     1      99.729  81.071  77.980  1.00  0.00    -0.033 A 
ATOM     42  C   UNL     1      99.725  81.428  76.631  1.00  0.00     0.054 A 
ATOM     43  C   UNL     1     100.932  80.772  78.619  1.00  0.00     0.008 A 
ATOM     44  C   UNL     1     100.925  81.484  75.921  1.00  0.00     0.160 A 
ATOM     45  C   UNL     1     102.132  80.828  77.909  1.00  0.00     0.050 A 
ATOM     46  C   UNL     1     102.128  81.184  76.561  1.00  0.00     0.157 A 
BRANCH  44  47
ATOM     47  O   UNL     1     100.908  81.833  74.605  1.00  0.00    -0.493 OA
ATOM     48  C   UNL     1     100.249  80.943  73.706  1.00  0.00     0.278 C 
ENDBRANCH  44  47
BRANCH  46  49
ATOM     49  O   UNL     1     103.306  81.236  75.878  1.00  0.00    -0.504 OA
ATOM     50  H   UNL     1     103.465  80.376  75.455  1.00  0.00     0.293 HD
ENDBRANCH  46  49
ENDBRANCH  40  41
ENDBRANCH  38  40
ENDBRANCH  37  38
ENDBRANCH   1  37
TORSDOF 11
ENDMDL
MODEL 8
REMARK VINA RESULT:    -5.905      2.522      5.431
REMARK INTER + INTRA:         -10.985
REMARK INTER:                 -10.050
REMARK INTRA:                  -0.936
REMARK UNBOUND:                -0.593
REMARK SMILES C=C(C)[C@]12C[C@@H](C)[C@@]34O[C@](Cc5ccccc5)(O[C@@H]1[C@@H]3C=C(COC(=O)Cc1ccc(O)c(OC)c1)C[C@]1(O)C(=O)C(C)=C[C@@H]41)O2
REMARK SMILES IDX 23 1 22 2 21 3 20 4 9 5 8 6 10 7 6 8 18 9 46 10 19 11 5 12
REMARK SMILES IDX 7 13 4 14 45 15 38 16 44 17 40 18 42 20 41 21 43 22 39 23
REMARK SMILES IDX 11 25 12 26 13 27 17 28 14 29 16 30 15 31 2 32 3 33 1 34
REMARK SMILES IDX 37 35 24 37 25 38 26 39 27 40 28 41 36 42 29 43 33 44 30 45
REMARK SMILES IDX 31 46 34 47 35 48 32 49
REMARK H PARENT 39 24 32 50
REMARK Flexibility Score: 90.00
ROOT
ATOM      1  C   UNL     1      99.227  78.683  81.337  1.00  0.00     0.264 C 
ENDROOT
BRANCH   1   2
ATOM      2  C   UNL     1      98.587  78.438  82.683  1.00  0.00    -0.033 C 
ATOM      3  C   UNL     1      99.150  78.968  83.788  1.00  0.00    -0.015 C 
BRANCH   3   4
ATOM      4  C   UNL     1      98.751  78.807  85.246  1.00  0.00     0.078 C 
ATOM      5  O   UNL     1      97.235  80.685  85.789  1.00  0.00    -0.319 OA
ATOM      6  C   UNL     1      97.297  79.230  85.675  1.00  0.00     0.095 C 
ATOM      7  C   UNL     1      98.366  81.302  86.433  1.00  0.00     0.289 C 
ATOM      8  C   UNL     1      97.008  78.581  87.092  1.00  0.00     0.023 C 
ATOM      9  O   UNL     1      99.582  80.980  85.763  1.00  0.00    -0.320 OA
ATOM     10  O   UNL     1      98.536  80.852  87.775  1.00  0.00    -0.313 OA
ATOM     11  C   UNL     1      99.726  79.604  86.148  1.00  0.00     0.170 C 
ATOM     12  C   UNL     1      98.304  78.491  87.954  1.00  0.00     0.049 C 
ATOM     13  C   UNL     1      95.894  79.255  87.911  1.00  0.00     0.011 C 
ATOM     14  C   UNL     1      99.279  79.624  87.631  1.00  0.00     0.122 C 
BRANCH   6  15
ATOM     15  C   UNL     1      96.270  78.884  84.559  1.00  0.00     0.086 C 
ATOM     16  C   UNL     1      96.447  77.513  83.873  1.00  0.00     0.140 CG0
ATOM     17  C   UNL     1      94.800  78.931  84.870  1.00  0.00    -0.010 C 
ATOM     18  C   UNL     1      95.018  77.107  83.580  1.00  0.00     0.190 C 
ATOM     19  G   UNL     1      97.299  77.607  82.608  1.00  0.00     0.000 G0
ATOM     20  C   UNL     1      94.065  77.963  84.313  1.00  0.00    -0.008 C 
ATOM     21  O   UNL     1      94.678  76.169  82.877  1.00  0.00    -0.291 OA
ATOM     22  C   UNL     1      92.604  77.747  84.332  1.00  0.00     0.048 C 
BRANCH  16  23
ATOM     23  O   UNL     1      96.918  76.494  84.739  1.00  0.00    -0.381 OA
ATOM     24  H   UNL     1      97.678  76.840  85.235  1.00  0.00     0.212 HD
ENDBRANCH  16  23
ENDBRANCH   6  15
BRANCH   7  25
ATOM     25  C   UNL     1      98.159  82.803  86.425  1.00  0.00     0.135 C 
BRANCH  25  26
ATOM     26  C   UNL     1      96.945  83.201  85.623  1.00  0.00    -0.040 A 
ATOM     27  C   UNL     1      95.707  83.337  86.253  1.00  0.00     0.004 A 
ATOM     28  C   UNL     1      97.059  83.435  84.253  1.00  0.00     0.004 A 
ATOM     29  C   UNL     1      94.584  83.705  85.513  1.00  0.00     0.000 A 
ATOM     30  C   UNL     1      95.935  83.803  83.512  1.00  0.00     0.000 A 
ATOM     31  C   UNL     1      94.698  83.938  84.143  1.00  0.00     0.000 A 
ENDBRANCH  25  26
ENDBRANCH   7  25
BRANCH  14  32
ATOM     32  C   UNL     1     100.442  79.665  88.568  1.00  0.00    -0.046 C 
ATOM     33  C   UNL     1     100.114  79.704  90.031  1.00  0.00     0.042 C 
ATOM     34  C   UNL     1     101.709  79.668  88.126  1.00  0.00     0.010 C 
ENDBRANCH  14  32
ENDBRANCH   3   4
BRANCH   2  35
ATOM     35  C   UNL     1      97.330  77.593  82.599  1.00  0.00     0.078 CG0
ATOM     36  G   UNL     1      96.457  77.512  83.851  1.00  0.00     0.000 G0
ENDBRANCH   2  35
ENDBRANCH   1   2
BRANCH   1  37
ATOM     37  O   UNL     1      99.015  80.026  80.957  1.00  0.00    -0.461 OA
BRANCH  37  38
ATOM     38  C   UNL     1      97.972  80.256  80.090  1.00  0.00     0.310 C 
ATOM     39  O   UNL     1      97.531  79.442  79.290  1.00  0.00    -0.252 OA
BRANCH  38  40
ATOM     40  C   UNL     1      97.460  81.664  80.280  1.00  0.00     0.158 C 
BRANCH  40  41
ATOM     41  C   UNL     1      97.521  82.487  79.019  1.00  0.00    -0.033 A 
ATOM     42  C   UNL     1      98.595  82.338  78.141  1.00  0.00     0.054 A 
ATOM     43  C   UNL     1      96.505  83.397  78.729  1.00  0.00     0.008 A 
ATOM     44  C   UNL     1      98.652  83.100  76.973  1.00  0.00     0.160 A 
ATOM     45  C   UNL     1      96.562  84.159  77.562  1.00  0.00     0.050 A 
ATOM     46  C   UNL     1      97.635  84.011  76.684  1.00  0.00     0.157 A 
BRANCH  44  47
ATOM     47  O   UNL     1      99.706  82.946  76.124  1.00  0.00    -0.493 OA
ATOM     48  C   UNL     1      99.408  82.546  74.787  1.00  0.00     0.278 C 
ENDBRANCH  44  47
BRANCH  46  49
ATOM     49  O   UNL     1      97.679  84.759  75.547  1.00  0.00    -0.504 OA
ATOM     50  H   UNL     1      96.983  84.454  74.941  1.00  0.00     0.293 HD
ENDBRANCH  46  49
ENDBRANCH  40  41
ENDBRANCH  38  40
ENDBRANCH  37  38
ENDBRANCH   1  37
TORSDOF 11
ENDMDL
MODEL 9
REMARK VINA RESULT:    -5.900      3.066      8.882
REMARK INTER + INTRA:         -10.978
REMARK INTER:                  -9.748
REMARK INTRA:                  -1.230
REMARK UNBOUND:                -0.593
REMARK SMILES C=C(C)[C@]12C[C@@H](C)[C@@]34O[C@](Cc5ccccc5)(O[C@@H]1[C@@H]3C=C(COC(=O)Cc1ccc(O)c(OC)c1)C[C@]1(O)C(=O)C(C)=C[C@@H]41)O2
REMARK SMILES IDX 23 1 22 2 21 3 20 4 9 5 8 6 10 7 6 8 18 9 46 10 19 11 5 12
REMARK SMILES IDX 7 13 4 14 45 15 38 16 44 17 40 18 42 20 41 21 43 22 39 23
REMARK SMILES IDX 11 25 12 26 13 27 17 28 14 29 16 30 15 31 2 32 3 33 1 34
REMARK SMILES IDX 37 35 24 37 25 38 26 39 27 40 28 41 36 42 29 43 33 44 30 45
REMARK SMILES IDX 31 46 34 47 35 48 32 49
REMARK H PARENT 39 24 32 50
REMARK Flexibility Score: 90.00
ROOT
ATOM      1  C   UNL     1      96.637  75.535  82.958  1.00  0.00     0.264 C 
ENDROOT
BRANCH   1   2
ATOM      2  C   UNL     1      97.064  76.982  83.046  1.00  0.00    -0.033 C 
ATOM      3  C   UNL     1      97.951  77.463  82.153  1.00  0.00    -0.015 C 
BRANCH   3   4
ATOM      4  C   UNL     1      98.591  78.840  82.074  1.00  0.00     0.078 C 
ATOM      5  O   UNL     1      97.178  80.206  80.572  1.00  0.00    -0.319 OA
ATOM      6  C   UNL     1      97.651  80.096  81.950  1.00  0.00     0.095 C 
ATOM      7  C   UNL     1      98.173  79.969  79.558  1.00  0.00     0.289 C 
ATOM      8  C   UNL     1      98.511  81.377  82.312  1.00  0.00     0.023 C 
ATOM      9  O   UNL     1      98.762  78.679  79.704  1.00  0.00    -0.320 OA
ATOM     10  O   UNL     1      99.253  80.895  79.633  1.00  0.00    -0.313 OA
ATOM     11  C   UNL     1      99.566  78.899  80.873  1.00  0.00     0.170 C 
ATOM     12  C   UNL     1      99.998  81.210  81.871  1.00  0.00     0.049 C 
ATOM     13  C   UNL     1      97.966  82.711  81.777  1.00  0.00     0.011 C 
ATOM     14  C   UNL     1     100.124  80.324  80.631  1.00  0.00     0.122 C 
BRANCH   6  15
ATOM     15  C   UNL     1      96.356  79.902  82.791  1.00  0.00     0.086 C 
ATOM     16  C   UNL     1      96.540  79.278  84.190  1.00  0.00     0.140 CG0
ATOM     17  C   UNL     1      95.461  81.081  83.049  1.00  0.00    -0.010 C 
ATOM     18  C   UNL     1      95.468  79.974  85.001  1.00  0.00     0.190 C 
ATOM     19  G   UNL     1      96.368  77.760  84.172  1.00  0.00     0.000 G0
ATOM     20  C   UNL     1      94.925  81.136  84.273  1.00  0.00    -0.008 C 
ATOM     21  O   UNL     1      95.120  79.662  86.130  1.00  0.00    -0.291 OA
ATOM     22  C   UNL     1      93.951  82.089  84.844  1.00  0.00     0.048 C 
BRANCH  16  23
ATOM     23  O   UNL     1      97.748  79.654  84.831  1.00  0.00    -0.381 OA
ATOM     24  H   UNL     1      98.115  80.424  84.366  1.00  0.00     0.212 HD
ENDBRANCH  16  23
ENDBRANCH   6  15
BRANCH   7  25
ATOM     25  C   UNL     1      97.506  80.077  78.202  1.00  0.00     0.135 C 
BRANCH  25  26
ATOM     26  C   UNL     1      97.818  81.387  77.522  1.00  0.00    -0.040 A 
ATOM     27  C   UNL     1      98.822  81.449  76.555  1.00  0.00     0.004 A 
ATOM     28  C   UNL     1      97.102  82.536  77.858  1.00  0.00     0.004 A 
ATOM     29  C   UNL     1      99.110  82.660  75.926  1.00  0.00     0.000 A 
ATOM     30  C   UNL     1      97.391  83.747  77.229  1.00  0.00     0.000 A 
ATOM     31  C   UNL     1      98.395  83.809  76.263  1.00  0.00     0.000 A 
ENDBRANCH  25  26
ENDBRANCH   7  25
BRANCH  14  32
ATOM     32  C   UNL     1     101.514  80.297  80.084  1.00  0.00    -0.046 C 
ATOM     33  C   UNL     1     101.636  80.265  78.589  1.00  0.00     0.042 C 
ATOM     34  C   UNL     1     102.591  80.301  80.883  1.00  0.00     0.010 C 
ENDBRANCH  14  32
ENDBRANCH   3   4
BRANCH   2  35
ATOM     35  C   UNL     1      96.393  77.731  84.182  1.00  0.00     0.078 CG0
ATOM     36  G   UNL     1      96.532  79.253  84.193  1.00  0.00     0.000 G0
ENDBRANCH   2  35
ENDBRANCH   1   2
BRANCH   1  37
ATOM     37  O   UNL     1      95.283  75.471  82.564  1.00  0.00    -0.461 OA
BRANCH  37  38
ATOM     38  C   UNL     1      94.805  74.225  82.230  1.00  0.00     0.310 C 
ATOM     39  O   UNL     1      95.339  73.165  82.527  1.00  0.00    -0.252 OA
BRANCH  38  40
ATOM     40  C   UNL     1      93.524  74.370  81.444  1.00  0.00     0.158 C 
BRANCH  40  41
ATOM     41  C   UNL     1      92.367  74.845  82.286  1.00  0.00    -0.033 A 
ATOM     42  C   UNL     1      92.216  76.206  82.558  1.00  0.00     0.054 A 
ATOM     43  C   UNL     1      91.449  73.926  82.792  1.00  0.00     0.008 A 
ATOM     44  C   UNL     1      91.146  76.645  83.338  1.00  0.00     0.160 A 
ATOM     45  C   UNL     1      90.379  74.366  83.571  1.00  0.00     0.050 A 
ATOM     46  C   UNL     1      90.227  75.725  83.844  1.00  0.00     0.157 A 
BRANCH  44  47
ATOM     47  O   UNL     1      91.009  77.975  83.598  1.00  0.00    -0.493 OA
ATOM     48  C   UNL     1      91.841  78.526  84.618  1.00  0.00     0.278 C 
ENDBRANCH  44  47
BRANCH  46  49
ATOM     49  O   UNL     1      89.178  76.143  84.605  1.00  0.00    -0.504 OA
ATOM     50  H   UNL     1      88.870  75.402  85.154  1.00  0.00     0.293 HD
ENDBRANCH  46  49
ENDBRANCH  40  41
ENDBRANCH  38  40
ENDBRANCH  37  38
ENDBRANCH   1  37
TORSDOF 11
ENDMDL
MODEL 10
REMARK VINA RESULT:    -5.683     41.354     43.610
REMARK INTER + INTRA:         -10.595
REMARK INTER:                  -9.670
REMARK INTRA:                  -0.925
REMARK UNBOUND:                -0.593
REMARK SMILES C=C(C)[C@]12C[C@@H](C)[C@@]34O[C@](Cc5ccccc5)(O[C@@H]1[C@@H]3C=C(COC(=O)Cc1ccc(O)c(OC)c1)C[C@]1(O)C(=O)C(C)=C[C@@H]41)O2
REMARK SMILES IDX 23 1 22 2 21 3 20 4 9 5 8 6 10 7 6 8 18 9 46 10 19 11 5 12
REMARK SMILES IDX 7 13 4 14 45 15 38 16 44 17 40 18 42 20 41 21 43 22 39 23
REMARK SMILES IDX 11 25 12 26 13 27 17 28 14 29 16 30 15 31 2 32 3 33 1 34
REMARK SMILES IDX 37 35 24 37 25 38 26 39 27 40 28 41 36 42 29 43 33 44 30 45
REMARK SMILES IDX 31 46 34 47 35 48 32 49
REMARK H PARENT 39 24 32 50
REMARK Flexibility Score: 90.00
ROOT
ATOM      1  C   UNL     1      56.383  93.374  71.509  1.00  0.00     0.264 C 
ENDROOT
BRANCH   1   2
ATOM      2  C   UNL     1      55.126  93.589  72.318  1.00  0.00    -0.033 C 
ATOM      3  C   UNL     1      54.929  92.864  73.437  1.00  0.00    -0.015 C 
BRANCH   3   4
ATOM      4  C   UNL     1      53.730  92.836  74.371  1.00  0.00     0.078 C 
ATOM      5  O   UNL     1      54.173  94.484  76.162  1.00  0.00    -0.319 OA
ATOM      6  C   UNL     1      53.277  94.183  75.048  1.00  0.00     0.095 C 
ATOM      7  C   UNL     1      54.521  93.360  76.993  1.00  0.00     0.289 C 
ATOM      8  C   UNL     1      51.807  93.972  75.601  1.00  0.00     0.023 C 
ATOM      9  O   UNL     1      55.127  92.320  76.230  1.00  0.00    -0.320 OA
ATOM     10  O   UNL     1      53.380  92.770  77.611  1.00  0.00    -0.313 OA
ATOM     11  C   UNL     1      53.980  91.828  75.520  1.00  0.00     0.170 C 
ATOM     12  C   UNL     1      51.581  92.504  76.077  1.00  0.00     0.049 C 
ATOM     13  C   UNL     1      51.374  94.942  76.712  1.00  0.00     0.011 C 
ATOM     14  C   UNL     1      52.872  91.874  76.601  1.00  0.00     0.122 C 
BRANCH   6  15
ATOM     15  C   UNL     1      53.458  95.381  74.070  1.00  0.00     0.086 C 
ATOM     16  C   UNL     1      53.032  95.134  72.608  1.00  0.00     0.140 CG0
ATOM     17  C   UNL     1      52.825  96.703  74.400  1.00  0.00    -0.010 C 
ATOM     18  C   UNL     1      52.502  96.490  72.190  1.00  0.00     0.190 C 
ATOM     19  G   UNL     1      54.199  94.669  71.738  1.00  0.00     0.000 G0
ATOM     20  C   UNL     1      52.303  97.364  73.361  1.00  0.00    -0.008 C 
ATOM     21  O   UNL     1      52.221  96.818  71.047  1.00  0.00    -0.291 OA
ATOM     22  C   UNL     1      51.687  98.705  73.299  1.00  0.00     0.048 C 
BRANCH  16  23
ATOM     23  O   UNL     1      51.912  94.276  72.473  1.00  0.00    -0.381 OA
ATOM     24  H   UNL     1      51.238  94.547  73.118  1.00  0.00     0.212 HD
ENDBRANCH  16  23
ENDBRANCH   6  15
BRANCH   7  25
ATOM     25  C   UNL     1      55.484  93.839  78.061  1.00  0.00     0.135 C 
BRANCH  25  26
ATOM     26  C   UNL     1      55.811  92.753  79.056  1.00  0.00    -0.040 A 
ATOM     27  C   UNL     1      56.841  91.851  78.789  1.00  0.00     0.004 A 
ATOM     28  C   UNL     1      55.084  92.651  80.242  1.00  0.00     0.004 A 
ATOM     29  C   UNL     1      57.144  90.846  79.708  1.00  0.00     0.000 A 
ATOM     30  C   UNL     1      55.387  91.646  81.161  1.00  0.00     0.000 A 
ATOM     31  C   UNL     1      56.417  90.744  80.894  1.00  0.00     0.000 A 
ENDBRANCH  25  26
ENDBRANCH   7  25
BRANCH  14  32
ATOM     32  C   UNL     1      52.645  90.538  77.229  1.00  0.00    -0.046 C 
ATOM     33  C   UNL     1      53.181  90.359  78.619  1.00  0.00     0.042 C 
ATOM     34  C   UNL     1      51.999  89.553  76.587  1.00  0.00     0.010 C 
ENDBRANCH  14  32
ENDBRANCH   3   4
BRANCH   2  35
ATOM     35  C   UNL     1      54.216  94.653  71.732  1.00  0.00     0.078 CG0
ATOM     36  G   UNL     1      53.065  95.147  72.606  1.00  0.00     0.000 G0
ENDBRANCH   2  35
ENDBRANCH   1   2
BRANCH   1  37
ATOM     37  O   UNL     1      56.041  93.205  70.151  1.00  0.00    -0.461 OA
BRANCH  37  38
ATOM     38  C   UNL     1      55.843  91.910  69.730  1.00  0.00     0.310 C 
ATOM     39  O   UNL     1      55.171  91.581  68.762  1.00  0.00    -0.252 OA
BRANCH  38  40
ATOM     40  C   UNL     1      56.579  90.963  70.647  1.00  0.00     0.158 C 
BRANCH  40  41
ATOM     41  C   UNL     1      57.711  90.241  69.962  1.00  0.00    -0.033 A 
ATOM     42  C   UNL     1      57.943  88.892  70.231  1.00  0.00     0.054 A 
ATOM     43  C   UNL     1      58.526  90.922  69.058  1.00  0.00     0.008 A 
ATOM     44  C   UNL     1      58.990  88.224  69.597  1.00  0.00     0.160 A 
ATOM     45  C   UNL     1      59.574  90.254  68.423  1.00  0.00     0.050 A 
ATOM     46  C   UNL     1      59.806  88.906  68.693  1.00  0.00     0.157 A 
BRANCH  44  47
ATOM     47  O   UNL     1      59.207  86.907  69.868  1.00  0.00    -0.493 OA
ATOM     48  C   UNL     1      58.258  86.254  70.710  1.00  0.00     0.278 C 
ENDBRANCH  44  47
BRANCH  46  49
ATOM     49  O   UNL     1      60.831  88.264  68.066  1.00  0.00    -0.504 OA
ATOM     50  H   UNL     1      61.552  88.896  67.909  1.00  0.00     0.293 HD
ENDBRANCH  46  49
ENDBRANCH  40  41
ENDBRANCH  38  40
ENDBRANCH  37  38
ENDBRANCH   1  37
TORSDOF 11
ENDMDL
