MODEL 1
REMARK VINA RESULT:    -7.153      0.000      0.000
REMARK INTER + INTRA:         -13.981
REMARK INTER:                 -12.170
REMARK INTRA:                  -1.811
REMARK UNBOUND:                -1.811
REMARK SMILES C=C(C)[C@]12C[C@@H](C)[C@@]34O[C@](Cc5ccccc5)(O[C@@H]1[C@@H]3C=C(COC(=O)Cc1ccc(O)cc1)C[C@]1(O)C(=O)C(C)=C[C@@H]41)O2
REMARK SMILES IDX 23 1 22 2 21 3 20 4 9 5 8 6 10 7 6 8 18 10 44 11 19 12 5 13
REMARK SMILES IDX 7 14 4 15 11 16 12 17 13 18 17 19 14 20 16 21 15 22 2 23
REMARK SMILES IDX 3 24 1 25 35 26 36 27 43 28 38 29 42 30 39 32 40 33 41 34
REMARK SMILES IDX 37 35 24 37 25 38 26 39 27 40 28 41 29 42 34 43 30 44 33 45
REMARK SMILES IDX 31 46 32 47
REMARK H PARENT 37 36 32 48
REMARK Flexibility Score: 90.00
ROOT
ATOM      1  C   UNL     1      63.358  81.325  73.020  1.00  0.00     0.264 C 
ENDROOT
BRANCH   1   2
ATOM      2  C   UNL     1      62.981  82.466  73.937  1.00  0.00    -0.033 C 
ATOM      3  C   UNL     1      63.731  82.706  75.033  1.00  0.00    -0.015 C 
BRANCH   3   4
ATOM      4  C   UNL     1      63.525  83.729  76.139  1.00  0.00     0.078 C 
ATOM      5  O   UNL     1      64.843  85.729  75.526  1.00  0.00    -0.319 OA
ATOM      6  C   UNL     1      63.480  85.252  75.750  1.00  0.00     0.095 CG0
ATOM      7  C   UNL     1      65.820  85.274  76.481  1.00  0.00     0.289 C 
ATOM      8  C   UNL     1      62.844  86.039  76.970  1.00  0.00     0.023 C 
ATOM      9  G   UNL     1      62.768  85.454  74.381  1.00  0.00     0.000 G0
ATOM     10  O   UNL     1      65.871  83.851  76.530  1.00  0.00    -0.320 OA
ATOM     11  O   UNL     1      65.516  85.694  77.809  1.00  0.00    -0.313 OA
ATOM     12  C   UNL     1      64.634  83.578  77.208  1.00  0.00     0.170 C 
ATOM     13  C   UNL     1      63.217  85.380  78.333  1.00  0.00     0.049 C 
ATOM     14  C   UNL     1      63.165  87.543  77.026  1.00  0.00     0.011 C 
ATOM     15  C   UNL     1      64.584  84.697  78.277  1.00  0.00     0.122 C 
BRANCH   7  16
ATOM     16  C   UNL     1      67.173  85.822  76.075  1.00  0.00     0.135 C 
BRANCH  16  17
ATOM     17  C   UNL     1      67.077  87.231  75.544  1.00  0.00    -0.040 A 
ATOM     18  C   UNL     1      67.080  87.459  74.168  1.00  0.00     0.004 A 
ATOM     19  C   UNL     1      66.985  88.304  76.429  1.00  0.00     0.004 A 
ATOM     20  C   UNL     1      66.991  88.762  73.676  1.00  0.00     0.000 A 
ATOM     21  C   UNL     1      66.895  89.607  75.937  1.00  0.00     0.000 A 
ATOM     22  C   UNL     1      66.899  89.835  74.562  1.00  0.00     0.000 A 
ENDBRANCH  16  17
ENDBRANCH   7  16
BRANCH  15  23
ATOM     23  C   UNL     1      65.041  84.217  79.615  1.00  0.00    -0.046 C 
ATOM     24  C   UNL     1      63.966  83.969  80.632  1.00  0.00     0.042 C 
ATOM     25  C   UNL     1      66.338  84.019  79.893  1.00  0.00     0.010 C 
ENDBRANCH  15  23
ENDBRANCH   3   4
BRANCH   2  26
ATOM     26  C   UNL     1      61.754  83.226  73.470  1.00  0.00     0.078 C 
BRANCH  26  27
ATOM     27  C   UNL     1      61.471  84.571  74.136  1.00  0.00     0.140 C 
ATOM     28  C   UNL     1      62.755  85.399  74.349  1.00  0.00     0.086 CG0
ATOM     29  C   UNL     1      60.635  85.485  73.264  1.00  0.00     0.190 C 
ATOM     30  C   UNL     1      62.369  86.773  73.875  1.00  0.00    -0.010 C 
ATOM     31  G   UNL     1      63.454  85.237  75.731  1.00  0.00     0.000 G0
ATOM     32  O   UNL     1      59.603  85.169  72.692  1.00  0.00    -0.291 OA
ATOM     33  C   UNL     1      61.197  86.849  73.236  1.00  0.00    -0.008 C 
ATOM     34  C   UNL     1      60.548  87.999  72.574  1.00  0.00     0.048 C 
BRANCH  27  35
ATOM     35  O   UNL     1      60.689  84.414  75.308  1.00  0.00    -0.381 OA
ATOM     36  H   UNL     1      61.208  84.731  76.067  1.00  0.00     0.212 HD
ENDBRANCH  27  35
ENDBRANCH  26  27
ENDBRANCH   2  26
ENDBRANCH   1   2
BRANCH   1  37
ATOM     37  O   UNL     1      64.452  81.714  72.218  1.00  0.00    -0.461 OA
BRANCH  37  38
ATOM     38  C   UNL     1      64.152  82.452  71.096  1.00  0.00     0.310 C 
ATOM     39  O   UNL     1      63.480  82.056  70.154  1.00  0.00    -0.252 OA
BRANCH  38  40
ATOM     40  C   UNL     1      64.778  83.821  71.212  1.00  0.00     0.158 C 
BRANCH  40  41
ATOM     41  C   UNL     1      66.284  83.781  71.205  1.00  0.00    -0.037 A 
ATOM     42  C   UNL     1      66.961  83.144  70.164  1.00  0.00     0.008 A 
ATOM     43  C   UNL     1      67.003  84.379  72.239  1.00  0.00     0.008 A 
ATOM     44  C   UNL     1      68.355  83.105  70.159  1.00  0.00     0.046 A 
ATOM     45  C   UNL     1      68.398  84.342  72.234  1.00  0.00     0.046 A 
ATOM     46  C   UNL     1      69.074  83.705  71.194  1.00  0.00     0.115 A 
BRANCH  46  47
ATOM     47  O   UNL     1      70.434  83.667  71.188  1.00  0.00    -0.508 OA
ATOM     48  H   UNL     1      70.724  82.785  70.895  1.00  0.00     0.293 HD
ENDBRANCH  46  47
ENDBRANCH  40  41
ENDBRANCH  38  40
ENDBRANCH  37  38
ENDBRANCH   1  37
TORSDOF 10
ENDMDL
MODEL 2
REMARK VINA RESULT:    -6.707      2.513      7.688
REMARK INTER + INTRA:         -13.223
REMARK INTER:                 -11.570
REMARK INTRA:                  -1.653
REMARK UNBOUND:                -1.811
REMARK SMILES C=C(C)[C@]12C[C@@H](C)[C@@]34O[C@](Cc5ccccc5)(O[C@@H]1[C@@H]3C=C(COC(=O)Cc1ccc(O)cc1)C[C@]1(O)C(=O)C(C)=C[C@@H]41)O2
REMARK SMILES IDX 23 1 22 2 21 3 20 4 9 5 8 6 10 7 6 8 18 10 44 11 19 12 5 13
REMARK SMILES IDX 7 14 4 15 11 16 12 17 13 18 17 19 14 20 16 21 15 22 2 23
REMARK SMILES IDX 3 24 1 25 35 26 36 27 43 28 38 29 42 30 39 32 40 33 41 34
REMARK SMILES IDX 37 35 24 37 25 38 26 39 27 40 28 41 29 42 34 43 30 44 33 45
REMARK SMILES IDX 31 46 32 47
REMARK H PARENT 37 36 32 48
REMARK Flexibility Score: 90.00
ROOT
ATOM      1  C   UNL     1      67.849  87.548  71.877  1.00  0.00     0.264 C 
ENDROOT
BRANCH   1   2
ATOM      2  C   UNL     1      67.420  86.172  71.425  1.00  0.00    -0.033 C 
ATOM      3  C   UNL     1      66.212  85.701  71.800  1.00  0.00    -0.015 C 
BRANCH   3   4
ATOM      4  C   UNL     1      65.585  84.340  71.546  1.00  0.00     0.078 C 
ATOM      5  O   UNL     1      64.231  84.545  69.486  1.00  0.00    -0.319 OA
ATOM      6  C   UNL     1      65.396  83.870  70.056  1.00  0.00     0.095 CG0
ATOM      7  C   UNL     1      63.082  84.627  70.351  1.00  0.00     0.289 C 
ATOM      8  C   UNL     1      65.137  82.307  70.076  1.00  0.00     0.023 C 
ATOM      9  G   UNL     1      66.588  84.339  69.173  1.00  0.00     0.000 G0
ATOM     10  O   UNL     1      63.400  85.289  71.572  1.00  0.00    -0.320 OA
ATOM     11  O   UNL     1      62.593  83.341  70.725  1.00  0.00    -0.313 OA
ATOM     12  C   UNL     1      64.188  84.272  72.211  1.00  0.00     0.170 C 
ATOM     13  C   UNL     1      64.356  81.872  71.354  1.00  0.00     0.049 C 
ATOM     14  C   UNL     1      64.436  81.737  68.831  1.00  0.00     0.011 C 
ATOM     15  C   UNL     1      63.421  82.977  71.849  1.00  0.00     0.122 C 
BRANCH   7  16
ATOM     16  C   UNL     1      61.993  85.389  69.622  1.00  0.00     0.135 C 
BRANCH  16  17
ATOM     17  C   UNL     1      60.723  85.474  70.432  1.00  0.00    -0.040 A 
ATOM     18  C   UNL     1      59.672  84.595  70.176  1.00  0.00     0.004 A 
ATOM     19  C   UNL     1      60.602  86.434  71.437  1.00  0.00     0.004 A 
ATOM     20  C   UNL     1      58.498  84.675  70.926  1.00  0.00     0.000 A 
ATOM     21  C   UNL     1      59.428  86.513  72.186  1.00  0.00     0.000 A 
ATOM     22  C   UNL     1      58.376  85.634  71.931  1.00  0.00     0.000 A 
ENDBRANCH  16  17
ENDBRANCH   7  16
BRANCH  15  23
ATOM     23  C   UNL     1      62.532  82.521  72.960  1.00  0.00    -0.046 C 
ATOM     24  C   UNL     1      62.965  81.283  73.688  1.00  0.00     0.042 C 
ATOM     25  C   UNL     1      61.412  83.181  73.288  1.00  0.00     0.010 C 
ENDBRANCH  15  23
ENDBRANCH   3   4
BRANCH   2  26
ATOM     26  C   UNL     1      68.456  85.478  70.560  1.00  0.00     0.078 C 
BRANCH  26  27
ATOM     27  C   UNL     1      68.021  84.207  69.833  1.00  0.00     0.140 C 
ATOM     28  C   UNL     1      66.626  84.350  69.191  1.00  0.00     0.086 CG0
ATOM     29  C   UNL     1      68.898  83.893  68.640  1.00  0.00     0.190 C 
ATOM     30  C   UNL     1      66.816  83.784  67.811  1.00  0.00    -0.010 C 
ATOM     31  G   UNL     1      65.421  83.873  70.054  1.00  0.00     0.000 G0
ATOM     32  O   UNL     1      70.119  83.876  68.644  1.00  0.00    -0.291 OA
ATOM     33  C   UNL     1      68.082  83.542  67.461  1.00  0.00    -0.008 C 
ATOM     34  C   UNL     1      68.641  83.070  66.178  1.00  0.00     0.048 C 
BRANCH  27  35
ATOM     35  O   UNL     1      68.155  83.064  70.662  1.00  0.00    -0.381 OA
ATOM     36  H   UNL     1      68.677  83.312  71.444  1.00  0.00     0.212 HD
ENDBRANCH  27  35
ENDBRANCH  26  27
ENDBRANCH   2  26
ENDBRANCH   1   2
BRANCH   1  37
ATOM     37  O   UNL     1      67.905  87.579  73.288  1.00  0.00    -0.461 OA
BRANCH  37  38
ATOM     38  C   UNL     1      67.395  88.704  73.892  1.00  0.00     0.310 C 
ATOM     39  O   UNL     1      67.194  89.773  73.331  1.00  0.00    -0.252 OA
BRANCH  38  40
ATOM     40  C   UNL     1      67.121  88.415  75.348  1.00  0.00     0.158 C 
BRANCH  40  41
ATOM     41  C   UNL     1      66.594  87.023  75.582  1.00  0.00    -0.037 A 
ATOM     42  C   UNL     1      65.261  86.725  75.298  1.00  0.00     0.008 A 
ATOM     43  C   UNL     1      67.438  86.032  76.082  1.00  0.00     0.008 A 
ATOM     44  C   UNL     1      64.773  85.436  75.515  1.00  0.00     0.046 A 
ATOM     45  C   UNL     1      66.950  84.743  76.299  1.00  0.00     0.046 A 
ATOM     46  C   UNL     1      65.618  84.445  76.016  1.00  0.00     0.115 A 
BRANCH  46  47
ATOM     47  O   UNL     1      65.141  83.189  76.228  1.00  0.00    -0.508 OA
ATOM     48  H   UNL     1      65.855  82.637  76.593  1.00  0.00     0.293 HD
ENDBRANCH  46  47
ENDBRANCH  40  41
ENDBRANCH  38  40
ENDBRANCH  37  38
ENDBRANCH   1  37
TORSDOF 10
ENDMDL
MODEL 3
REMARK VINA RESULT:    -6.562      7.364     12.515
REMARK INTER + INTRA:         -12.976
REMARK INTER:                 -11.851
REMARK INTRA:                  -1.125
REMARK UNBOUND:                -1.811
REMARK SMILES C=C(C)[C@]12C[C@@H](C)[C@@]34O[C@](Cc5ccccc5)(O[C@@H]1[C@@H]3C=C(COC(=O)Cc1ccc(O)cc1)C[C@]1(O)C(=O)C(C)=C[C@@H]41)O2
REMARK SMILES IDX 23 1 22 2 21 3 20 4 9 5 8 6 10 7 6 8 18 10 44 11 19 12 5 13
REMARK SMILES IDX 7 14 4 15 11 16 12 17 13 18 17 19 14 20 16 21 15 22 2 23
REMARK SMILES IDX 3 24 1 25 35 26 36 27 43 28 38 29 42 30 39 32 40 33 41 34
REMARK SMILES IDX 37 35 24 37 25 38 26 39 27 40 28 41 29 42 34 43 30 44 33 45
REMARK SMILES IDX 31 46 32 47
REMARK H PARENT 37 36 32 48
REMARK Flexibility Score: 90.00
ROOT
ATOM      1  C   UNL     1      77.169  85.237  68.504  1.00  0.00     0.264 C 
ENDROOT
BRANCH   1   2
ATOM      2  C   UNL     1      75.896  86.043  68.387  1.00  0.00    -0.033 C 
ATOM      3  C   UNL     1      74.924  85.622  67.551  1.00  0.00    -0.015 C 
BRANCH   3   4
ATOM      4  C   UNL     1      73.601  86.283  67.200  1.00  0.00     0.078 C 
ATOM      5  O   UNL     1      71.903  85.358  68.742  1.00  0.00    -0.319 OA
ATOM      6  C   UNL     1      72.587  86.592  68.363  1.00  0.00     0.095 CG0
ATOM      7  C   UNL     1      71.484  84.524  67.644  1.00  0.00     0.289 C 
ATOM      8  C   UNL     1      71.526  87.631  67.810  1.00  0.00     0.023 C 
ATOM      9  G   UNL     1      73.342  87.030  69.652  1.00  0.00     0.000 G0
ATOM     10  O   UNL     1      72.587  84.161  66.820  1.00  0.00    -0.320 OA
ATOM     11  O   UNL     1      70.560  85.186  66.783  1.00  0.00    -0.313 OA
ATOM     12  C   UNL     1      72.838  85.417  66.168  1.00  0.00     0.170 C 
ATOM     13  C   UNL     1      71.247  87.411  66.292  1.00  0.00     0.049 C 
ATOM     14  C   UNL     1      70.190  87.680  68.572  1.00  0.00     0.011 C 
ATOM     15  C   UNL     1      71.408  85.943  65.894  1.00  0.00     0.122 C 
BRANCH   7  16
ATOM     16  C   UNL     1      70.837  83.278  68.215  1.00  0.00     0.135 C 
BRANCH  16  17
ATOM     17  C   UNL     1      69.899  83.596  69.352  1.00  0.00    -0.040 A 
ATOM     18  C   UNL     1      68.520  83.548  69.153  1.00  0.00     0.004 A 
ATOM     19  C   UNL     1      70.413  83.938  70.603  1.00  0.00     0.004 A 
ATOM     20  C   UNL     1      67.652  83.842  70.206  1.00  0.00     0.000 A 
ATOM     21  C   UNL     1      69.545  84.232  71.656  1.00  0.00     0.000 A 
ATOM     22  C   UNL     1      68.166  84.184  71.457  1.00  0.00     0.000 A 
ENDBRANCH  16  17
ENDBRANCH   7  16
BRANCH  15  23
ATOM     23  C   UNL     1      70.972  85.678  64.490  1.00  0.00    -0.046 C 
ATOM     24  C   UNL     1      69.547  85.243  64.310  1.00  0.00     0.042 C 
ATOM     25  C   UNL     1      71.805  85.820  63.449  1.00  0.00     0.010 C 
ENDBRANCH  15  23
ENDBRANCH   3   4
BRANCH   2  26
ATOM     26  C   UNL     1      75.885  87.270  69.278  1.00  0.00     0.078 C 
BRANCH  26  27
ATOM     27  C   UNL     1      74.555  88.006  69.436  1.00  0.00     0.140 C 
ATOM     28  C   UNL     1      73.373  87.036  69.644  1.00  0.00     0.086 CG0
ATOM     29  C   UNL     1      74.506  88.851  70.691  1.00  0.00     0.190 C 
ATOM     30  C   UNL     1      72.614  87.649  70.788  1.00  0.00    -0.010 C 
ATOM     31  G   UNL     1      72.604  86.608  68.360  1.00  0.00     0.000 G0
ATOM     32  O   UNL     1      75.370  89.638  71.049  1.00  0.00    -0.291 OA
ATOM     33  C   UNL     1      73.236  88.652  71.415  1.00  0.00    -0.008 C 
ATOM     34  C   UNL     1      72.833  89.422  72.610  1.00  0.00     0.048 C 
BRANCH  27  35
ATOM     35  O   UNL     1      74.352  88.941  68.390  1.00  0.00    -0.381 OA
ATOM     36  H   UNL     1      74.632  88.530  67.554  1.00  0.00     0.212 HD
ENDBRANCH  27  35
ENDBRANCH  26  27
ENDBRANCH   2  26
ENDBRANCH   1   2
BRANCH   1  37
ATOM     37  O   UNL     1      77.851  85.260  67.268  1.00  0.00    -0.461 OA
BRANCH  37  38
ATOM     38  C   UNL     1      78.230  84.039  66.760  1.00  0.00     0.310 C 
ATOM     39  O   UNL     1      78.843  83.181  67.379  1.00  0.00    -0.252 OA
BRANCH  38  40
ATOM     40  C   UNL     1      77.773  83.926  65.325  1.00  0.00     0.158 C 
BRANCH  40  41
ATOM     41  C   UNL     1      76.615  82.978  65.150  1.00  0.00    -0.037 A 
ATOM     42  C   UNL     1      76.017  82.394  66.267  1.00  0.00     0.008 A 
ATOM     43  C   UNL     1      76.142  82.683  63.872  1.00  0.00     0.008 A 
ATOM     44  C   UNL     1      74.945  81.515  66.105  1.00  0.00     0.046 A 
ATOM     45  C   UNL     1      75.070  81.804  63.710  1.00  0.00     0.046 A 
ATOM     46  C   UNL     1      74.472  81.221  64.826  1.00  0.00     0.115 A 
BRANCH  46  47
ATOM     47  O   UNL     1      73.427  80.363  64.669  1.00  0.00    -0.508 OA
ATOM     48  H   UNL     1      72.600  80.875  64.639  1.00  0.00     0.293 HD
ENDBRANCH  46  47
ENDBRANCH  40  41
ENDBRANCH  38  40
ENDBRANCH  37  38
ENDBRANCH   1  37
TORSDOF 10
ENDMDL
MODEL 4
REMARK VINA RESULT:    -6.399      6.524     11.540
REMARK INTER + INTRA:         -12.698
REMARK INTER:                 -11.716
REMARK INTRA:                  -0.983
REMARK UNBOUND:                -1.811
REMARK SMILES C=C(C)[C@]12C[C@@H](C)[C@@]34O[C@](Cc5ccccc5)(O[C@@H]1[C@@H]3C=C(COC(=O)Cc1ccc(O)cc1)C[C@]1(O)C(=O)C(C)=C[C@@H]41)O2
REMARK SMILES IDX 23 1 22 2 21 3 20 4 9 5 8 6 10 7 6 8 18 10 44 11 19 12 5 13
REMARK SMILES IDX 7 14 4 15 11 16 12 17 13 18 17 19 14 20 16 21 15 22 2 23
REMARK SMILES IDX 3 24 1 25 35 26 36 27 43 28 38 29 42 30 39 32 40 33 41 34
REMARK SMILES IDX 37 35 24 37 25 38 26 39 27 40 28 41 29 42 34 43 30 44 33 45
REMARK SMILES IDX 31 46 32 47
REMARK H PARENT 37 36 32 48
REMARK Flexibility Score: 90.00
ROOT
ATOM      1  C   UNL     1      76.565  85.912  70.092  1.00  0.00     0.264 C 
ENDROOT
BRANCH   1   2
ATOM      2  C   UNL     1      75.264  86.657  69.903  1.00  0.00    -0.033 C 
ATOM      3  C   UNL     1      74.230  86.034  69.300  1.00  0.00    -0.015 C 
BRANCH   3   4
ATOM      4  C   UNL     1      72.860  86.579  68.927  1.00  0.00     0.078 C 
ATOM      5  O   UNL     1      71.346  86.080  70.818  1.00  0.00    -0.319 OA
ATOM      6  C   UNL     1      71.956  87.176  70.068  1.00  0.00     0.095 CG0
ATOM      7  C   UNL     1      70.846  84.991  70.019  1.00  0.00     0.289 C 
ATOM      8  C   UNL     1      70.818  88.035  69.377  1.00  0.00     0.023 C 
ATOM      9  G   UNL     1      72.819  87.933  71.119  1.00  0.00     0.000 G0
ATOM     10  O   UNL     1      71.874  84.429  69.208  1.00  0.00    -0.320 OA
ATOM     11  O   UNL     1      69.826  85.406  69.115  1.00  0.00    -0.313 OA
ATOM     12  C   UNL     1      72.025  85.474  68.234  1.00  0.00     0.170 C 
ATOM     13  C   UNL     1      70.399  87.430  68.002  1.00  0.00     0.049 C 
ATOM     14  C   UNL     1      69.561  88.276  70.232  1.00  0.00     0.011 C 
ATOM     15  C   UNL     1      70.561  85.909  67.980  1.00  0.00     0.122 C 
BRANCH   7  16
ATOM     16  C   UNL     1      70.293  83.932  70.953  1.00  0.00     0.135 C 
BRANCH  16  17
ATOM     17  C   UNL     1      68.794  84.024  71.089  1.00  0.00    -0.040 A 
ATOM     18  C   UNL     1      68.232  84.732  72.150  1.00  0.00     0.004 A 
ATOM     19  C   UNL     1      67.971  83.401  70.152  1.00  0.00     0.004 A 
ATOM     20  C   UNL     1      66.845  84.818  72.275  1.00  0.00     0.000 A 
ATOM     21  C   UNL     1      66.583  83.486  70.277  1.00  0.00     0.000 A 
ATOM     22  C   UNL     1      66.021  84.194  71.338  1.00  0.00     0.000 A 
ENDBRANCH  16  17
ENDBRANCH   7  16
BRANCH  15  23
ATOM     23  C   UNL     1      69.998  85.290  66.743  1.00  0.00    -0.046 C 
ATOM     24  C   UNL     1      69.686  83.825  66.819  1.00  0.00     0.042 C 
ATOM     25  C   UNL     1      69.784  86.003  65.627  1.00  0.00     0.010 C 
ENDBRANCH  15  23
ENDBRANCH   3   4
BRANCH   2  26
ATOM     26  C   UNL     1      75.302  88.071  70.452  1.00  0.00     0.078 C 
BRANCH  26  27
ATOM     27  C   UNL     1      73.973  88.817  70.549  1.00  0.00     0.140 C 
ATOM     28  C   UNL     1      72.848  87.934  71.127  1.00  0.00     0.086 CG0
ATOM     29  C   UNL     1      74.024  89.965  71.535  1.00  0.00     0.190 C 
ATOM     30  C   UNL     1      72.189  88.826  72.143  1.00  0.00    -0.010 C 
ATOM     31  G   UNL     1      71.968  87.178  70.090  1.00  0.00     0.000 G0
ATOM     32  O   UNL     1      74.895  90.822  71.580  1.00  0.00    -0.291 OA
ATOM     33  C   UNL     1      72.840  89.961  72.415  1.00  0.00    -0.008 C 
ATOM     34  C   UNL     1      72.536  91.019  73.400  1.00  0.00     0.048 C 
BRANCH  27  35
ATOM     35  O   UNL     1      73.637  89.441  69.321  1.00  0.00    -0.381 OA
ATOM     36  H   UNL     1      74.194  90.231  69.215  1.00  0.00     0.212 HD
ENDBRANCH  27  35
ENDBRANCH  26  27
ENDBRANCH   2  26
ENDBRANCH   1   2
BRANCH   1  37
ATOM     37  O   UNL     1      77.605  86.619  69.450  1.00  0.00    -0.461 OA
BRANCH  37  38
ATOM     38  C   UNL     1      77.879  86.252  68.153  1.00  0.00     0.310 C 
ATOM     39  O   UNL     1      77.777  86.985  67.179  1.00  0.00    -0.252 OA
BRANCH  38  40
ATOM     40  C   UNL     1      78.324  84.809  68.121  1.00  0.00     0.158 C 
BRANCH  40  41
ATOM     41  C   UNL     1      77.530  83.971  67.153  1.00  0.00    -0.037 A 
ATOM     42  C   UNL     1      77.901  83.916  65.809  1.00  0.00     0.008 A 
ATOM     43  C   UNL     1      76.423  83.249  67.600  1.00  0.00     0.008 A 
ATOM     44  C   UNL     1      77.165  83.141  64.913  1.00  0.00     0.046 A 
ATOM     45  C   UNL     1      75.688  82.473  66.704  1.00  0.00     0.046 A 
ATOM     46  C   UNL     1      76.058  82.419  65.361  1.00  0.00     0.115 A 
BRANCH  46  47
ATOM     47  O   UNL     1      75.340  81.663  64.486  1.00  0.00    -0.508 OA
ATOM     48  H   UNL     1      75.332  82.105  63.620  1.00  0.00     0.293 HD
ENDBRANCH  46  47
ENDBRANCH  40  41
ENDBRANCH  38  40
ENDBRANCH  37  38
ENDBRANCH   1  37
TORSDOF 10
ENDMDL
MODEL 5
REMARK VINA RESULT:    -6.361      6.138     10.974
REMARK INTER + INTRA:         -12.634
REMARK INTER:                 -11.390
REMARK INTRA:                  -1.244
REMARK UNBOUND:                -1.811
REMARK SMILES C=C(C)[C@]12C[C@@H](C)[C@@]34O[C@](Cc5ccccc5)(O[C@@H]1[C@@H]3C=C(COC(=O)Cc1ccc(O)cc1)C[C@]1(O)C(=O)C(C)=C[C@@H]41)O2
REMARK SMILES IDX 23 1 22 2 21 3 20 4 9 5 8 6 10 7 6 8 18 10 44 11 19 12 5 13
REMARK SMILES IDX 7 14 4 15 11 16 12 17 13 18 17 19 14 20 16 21 15 22 2 23
REMARK SMILES IDX 3 24 1 25 35 26 36 27 43 28 38 29 42 30 39 32 40 33 41 34
REMARK SMILES IDX 37 35 24 37 25 38 26 39 27 40 28 41 29 42 34 43 30 44 33 45
REMARK SMILES IDX 31 46 32 47
REMARK H PARENT 37 36 32 48
REMARK Flexibility Score: 90.00
ROOT
ATOM      1  C   UNL     1      72.008  81.835  66.010  1.00  0.00     0.264 C 
ENDROOT
BRANCH   1   2
ATOM      2  C   UNL     1      71.922  83.213  66.624  1.00  0.00    -0.033 C 
ATOM      3  C   UNL     1      70.735  83.653  67.092  1.00  0.00    -0.015 C 
BRANCH   3   4
ATOM      4  C   UNL     1      70.372  85.008  67.678  1.00  0.00     0.078 C 
ATOM      5  O   UNL     1      70.623  84.823  70.131  1.00  0.00    -0.319 OA
ATOM      6  C   UNL     1      71.149  85.506  68.951  1.00  0.00     0.095 CG0
ATOM      7  C   UNL     1      69.188  84.703  70.183  1.00  0.00     0.289 C 
ATOM      8  C   UNL     1      70.894  87.063  69.090  1.00  0.00     0.023 C 
ATOM      9  G   UNL     1      72.644  85.076  68.890  1.00  0.00     0.000 G0
ATOM     10  O   UNL     1      68.684  84.021  69.038  1.00  0.00    -0.320 OA
ATOM     11  O   UNL     1      68.537  85.971  70.194  1.00  0.00    -0.313 OA
ATOM     12  C   UNL     1      68.866  85.037  68.040  1.00  0.00     0.170 C 
ATOM     13  C   UNL     1      69.472  87.457  68.587  1.00  0.00     0.049 C 
ATOM     14  C   UNL     1      71.118  87.647  70.496  1.00  0.00     0.011 C 
ATOM     15  C   UNL     1      68.464  86.327  68.797  1.00  0.00     0.122 C 
BRANCH   7  16
ATOM     16  C   UNL     1      68.821  83.938  71.439  1.00  0.00     0.135 C 
BRANCH  16  17
ATOM     17  C   UNL     1      67.339  83.673  71.528  1.00  0.00    -0.040 A 
ATOM     18  C   UNL     1      66.533  84.480  72.330  1.00  0.00     0.004 A 
ATOM     19  C   UNL     1      66.775  82.620  70.808  1.00  0.00     0.004 A 
ATOM     20  C   UNL     1      65.161  84.235  72.412  1.00  0.00     0.000 A 
ATOM     21  C   UNL     1      65.404  82.375  70.890  1.00  0.00     0.000 A 
ATOM     22  C   UNL     1      64.598  83.182  71.692  1.00  0.00     0.000 A 
ENDBRANCH  16  17
ENDBRANCH   7  16
BRANCH  15  23
ATOM     23  C   UNL     1      67.062  86.743  68.491  1.00  0.00    -0.046 C 
ATOM     24  C   UNL     1      66.042  85.645  68.440  1.00  0.00     0.042 C 
ATOM     25  C   UNL     1      66.735  88.025  68.274  1.00  0.00     0.010 C 
ENDBRANCH  15  23
ENDBRANCH   3   4
BRANCH   2  26
ATOM     26  C   UNL     1      73.251  83.943  66.637  1.00  0.00     0.078 C 
BRANCH  26  27
ATOM     27  C   UNL     1      73.345  85.207  67.490  1.00  0.00     0.140 C 
ATOM     28  C   UNL     1      72.649  85.042  68.857  1.00  0.00     0.086 CG0
ATOM     29  C   UNL     1      74.769  85.533  67.888  1.00  0.00     0.190 C 
ATOM     30  C   UNL     1      73.646  85.610  69.828  1.00  0.00    -0.010 C 
ATOM     31  G   UNL     1      71.164  85.502  68.929  1.00  0.00     0.000 G0
ATOM     32  O   UNL     1      75.726  85.568  67.129  1.00  0.00    -0.291 OA
ATOM     33  C   UNL     1      74.855  85.870  69.322  1.00  0.00    -0.008 C 
ATOM     34  C   UNL     1      76.083  86.348  69.989  1.00  0.00     0.048 C 
BRANCH  27  35
ATOM     35  O   UNL     1      72.925  86.352  66.768  1.00  0.00    -0.381 OA
ATOM     36  H   UNL     1      72.784  87.078  67.399  1.00  0.00     0.212 HD
ENDBRANCH  27  35
ENDBRANCH  26  27
ENDBRANCH   2  26
ENDBRANCH   1   2
BRANCH   1  37
ATOM     37  O   UNL     1      72.172  81.956  64.613  1.00  0.00    -0.461 OA
BRANCH  37  38
ATOM     38  C   UNL     1      72.720  80.871  63.969  1.00  0.00     0.310 C 
ATOM     39  O   UNL     1      72.313  79.721  64.060  1.00  0.00    -0.252 OA
BRANCH  38  40
ATOM     40  C   UNL     1      73.896  81.320  63.136  1.00  0.00     0.158 C 
BRANCH  40  41
ATOM     41  C   UNL     1      75.035  81.851  63.966  1.00  0.00    -0.037 A 
ATOM     42  C   UNL     1      75.650  83.054  63.618  1.00  0.00     0.008 A 
ATOM     43  C   UNL     1      75.477  81.140  65.081  1.00  0.00     0.008 A 
ATOM     44  C   UNL     1      76.706  83.546  64.386  1.00  0.00     0.046 A 
ATOM     45  C   UNL     1      76.532  81.632  65.850  1.00  0.00     0.046 A 
ATOM     46  C   UNL     1      77.147  82.834  65.503  1.00  0.00     0.115 A 
BRANCH  46  47
ATOM     47  O   UNL     1      78.177  83.313  66.251  1.00  0.00    -0.508 OA
ATOM     48  H   UNL     1      77.846  83.534  67.139  1.00  0.00     0.293 HD
ENDBRANCH  46  47
ENDBRANCH  40  41
ENDBRANCH  38  40
ENDBRANCH  37  38
ENDBRANCH   1  37
TORSDOF 10
ENDMDL
MODEL 6
REMARK VINA RESULT:    -6.361      2.552      6.816
REMARK INTER + INTRA:         -12.633
REMARK INTER:                 -10.659
REMARK INTRA:                  -1.974
REMARK UNBOUND:                -1.811
REMARK SMILES C=C(C)[C@]12C[C@@H](C)[C@@]34O[C@](Cc5ccccc5)(O[C@@H]1[C@@H]3C=C(COC(=O)Cc1ccc(O)cc1)C[C@]1(O)C(=O)C(C)=C[C@@H]41)O2
REMARK SMILES IDX 23 1 22 2 21 3 20 4 9 5 8 6 10 7 6 8 18 10 44 11 19 12 5 13
REMARK SMILES IDX 7 14 4 15 11 16 12 17 13 18 17 19 14 20 16 21 15 22 2 23
REMARK SMILES IDX 3 24 1 25 35 26 36 27 43 28 38 29 42 30 39 32 40 33 41 34
REMARK SMILES IDX 37 35 24 37 25 38 26 39 27 40 28 41 29 42 34 43 30 44 33 45
REMARK SMILES IDX 31 46 32 47
REMARK H PARENT 37 36 32 48
REMARK Flexibility Score: 90.00
ROOT
ATOM      1  C   UNL     1      63.116  88.454  75.167  1.00  0.00     0.264 C 
ENDROOT
BRANCH   1   2
ATOM      2  C   UNL     1      62.815  87.942  73.778  1.00  0.00    -0.033 C 
ATOM      3  C   UNL     1      63.835  87.701  72.929  1.00  0.00    -0.015 C 
BRANCH   3   4
ATOM      4  C   UNL     1      63.797  87.262  71.474  1.00  0.00     0.078 C 
ATOM      5  O   UNL     1      63.908  84.791  71.464  1.00  0.00    -0.319 OA
ATOM      6  C   UNL     1      63.052  85.924  71.115  1.00  0.00     0.095 CG0
ATOM      7  C   UNL     1      65.298  84.940  71.115  1.00  0.00     0.289 C 
ATOM      8  C   UNL     1      62.793  85.923  69.552  1.00  0.00     0.023 C 
ATOM      9  G   UNL     1      61.786  85.740  72.003  1.00  0.00     0.000 G0
ATOM     10  O   UNL     1      65.862  86.100  71.719  1.00  0.00    -0.320 OA
ATOM     11  O   UNL     1      65.490  85.105  69.712  1.00  0.00    -0.313 OA
ATOM     12  C   UNL     1      65.239  87.124  70.928  1.00  0.00     0.170 C 
ATOM     13  C   UNL     1      63.937  86.651  68.782  1.00  0.00     0.049 C 
ATOM     14  C   UNL     1      62.555  84.540  68.922  1.00  0.00     0.011 C 
ATOM     15  C   UNL     1      65.279  86.517  69.504  1.00  0.00     0.122 C 
BRANCH   7  16
ATOM     16  C   UNL     1      66.040  83.705  71.583  1.00  0.00     0.135 C 
BRANCH  16  17
ATOM     17  C   UNL     1      67.470  83.687  71.104  1.00  0.00    -0.040 A 
ATOM     18  C   UNL     1      67.780  83.162  69.850  1.00  0.00     0.004 A 
ATOM     19  C   UNL     1      68.483  84.197  71.917  1.00  0.00     0.004 A 
ATOM     20  C   UNL     1      69.103  83.147  69.407  1.00  0.00     0.000 A 
ATOM     21  C   UNL     1      69.806  84.182  71.474  1.00  0.00     0.000 A 
ATOM     22  C   UNL     1      70.115  83.656  70.220  1.00  0.00     0.000 A 
ENDBRANCH  16  17
ENDBRANCH   7  16
BRANCH  15  23
ATOM     23  C   UNL     1      66.419  87.049  68.698  1.00  0.00    -0.046 C 
ATOM     24  C   UNL     1      66.947  86.147  67.622  1.00  0.00     0.042 C 
ATOM     25  C   UNL     1      66.941  88.264  68.923  1.00  0.00     0.010 C 
ENDBRANCH  15  23
ENDBRANCH   3   4
BRANCH   2  26
ATOM     26  C   UNL     1      61.332  87.753  73.521  1.00  0.00     0.078 C 
BRANCH  26  27
ATOM     27  C   UNL     1      60.932  87.036  72.233  1.00  0.00     0.140 C 
ATOM     28  C   UNL     1      61.767  85.761  71.992  1.00  0.00     0.086 CG0
ATOM     29  C   UNL     1      59.519  86.493  72.285  1.00  0.00     0.190 C 
ATOM     30  C   UNL     1      60.737  84.735  71.609  1.00  0.00    -0.010 C 
ATOM     31  G   UNL     1      63.039  85.931  71.111  1.00  0.00     0.000 G0
ATOM     32  O   UNL     1      58.533  87.121  72.640  1.00  0.00    -0.291 OA
ATOM     33  C   UNL     1      59.466  85.105  71.789  1.00  0.00    -0.008 C 
ATOM     34  C   UNL     1      58.216  84.340  71.602  1.00  0.00     0.048 C 
BRANCH  27  35
ATOM     35  O   UNL     1      60.913  87.925  71.129  1.00  0.00    -0.381 OA
ATOM     36  H   UNL     1      60.657  87.423  70.336  1.00  0.00     0.212 HD
ENDBRANCH  27  35
ENDBRANCH  26  27
ENDBRANCH   2  26
ENDBRANCH   1   2
BRANCH   1  37
ATOM     37  O   UNL     1      64.146  87.676  75.738  1.00  0.00    -0.461 OA
BRANCH  37  38
ATOM     38  C   UNL     1      63.759  86.757  76.687  1.00  0.00     0.310 C 
ATOM     39  O   UNL     1      62.933  86.961  77.565  1.00  0.00    -0.252 OA
BRANCH  38  40
ATOM     40  C   UNL     1      64.512  85.466  76.474  1.00  0.00     0.158 C 
BRANCH  40  41
ATOM     41  C   UNL     1      63.701  84.426  75.747  1.00  0.00    -0.037 A 
ATOM     42  C   UNL     1      62.315  84.561  75.654  1.00  0.00     0.008 A 
ATOM     43  C   UNL     1      64.334  83.327  75.167  1.00  0.00     0.008 A 
ATOM     44  C   UNL     1      61.564  83.597  74.981  1.00  0.00     0.046 A 
ATOM     45  C   UNL     1      63.583  82.363  74.493  1.00  0.00     0.046 A 
ATOM     46  C   UNL     1      62.198  82.498  74.401  1.00  0.00     0.115 A 
BRANCH  46  47
ATOM     47  O   UNL     1      61.465  81.558  73.745  1.00  0.00    -0.508 OA
ATOM     48  H   UNL     1      61.750  80.675  74.036  1.00  0.00     0.293 HD
ENDBRANCH  46  47
ENDBRANCH  40  41
ENDBRANCH  38  40
ENDBRANCH  37  38
ENDBRANCH   1  37
TORSDOF 10
ENDMDL
MODEL 7
REMARK VINA RESULT:    -6.322      2.138      6.269
REMARK INTER + INTRA:         -12.568
REMARK INTER:                 -10.951
REMARK INTRA:                  -1.618
REMARK UNBOUND:                -1.811
REMARK SMILES C=C(C)[C@]12C[C@@H](C)[C@@]34O[C@](Cc5ccccc5)(O[C@@H]1[C@@H]3C=C(COC(=O)Cc1ccc(O)cc1)C[C@]1(O)C(=O)C(C)=C[C@@H]41)O2
REMARK SMILES IDX 23 1 22 2 21 3 20 4 9 5 8 6 10 7 6 8 18 10 44 11 19 12 5 13
REMARK SMILES IDX 7 14 4 15 11 16 12 17 13 18 17 19 14 20 16 21 15 22 2 23
REMARK SMILES IDX 3 24 1 25 35 26 36 27 43 28 38 29 42 30 39 32 40 33 41 34
REMARK SMILES IDX 37 35 24 37 25 38 26 39 27 40 28 41 29 42 34 43 30 44 33 45
REMARK SMILES IDX 31 46 32 47
REMARK H PARENT 37 36 32 48
REMARK Flexibility Score: 90.00
ROOT
ATOM      1  C   UNL     1      65.203  87.905  70.907  1.00  0.00     0.264 C 
ENDROOT
BRANCH   1   2
ATOM      2  C   UNL     1      65.016  86.472  71.350  1.00  0.00    -0.033 C 
ATOM      3  C   UNL     1      64.555  86.221  72.592  1.00  0.00    -0.015 C 
BRANCH   3   4
ATOM      4  C   UNL     1      64.354  84.888  73.296  1.00  0.00     0.078 C 
ATOM      5  O   UNL     1      62.008  84.212  72.901  1.00  0.00    -0.319 OA
ATOM      6  C   UNL     1      63.394  83.831  72.636  1.00  0.00     0.095 CG0
ATOM      7  C   UNL     1      61.741  84.668  74.242  1.00  0.00     0.289 C 
ATOM      8  C   UNL     1      63.690  82.428  73.311  1.00  0.00     0.023 C 
ATOM      9  G   UNL     1      63.516  83.865  71.085  1.00  0.00     0.000 G0
ATOM     10  O   UNL     1      62.559  85.783  74.582  1.00  0.00    -0.320 OA
ATOM     11  O   UNL     1      62.023  83.670  75.220  1.00  0.00    -0.313 OA
ATOM     12  C   UNL     1      63.828  85.126  74.733  1.00  0.00     0.170 C 
ATOM     13  C   UNL     1      64.102  82.588  74.807  1.00  0.00     0.049 C 
ATOM     14  C   UNL     1      62.560  81.390  73.202  1.00  0.00     0.011 C 
ATOM     15  C   UNL     1      63.441  83.809  75.448  1.00  0.00     0.122 C 
BRANCH   7  16
ATOM     16  C   UNL     1      60.279  85.059  74.327  1.00  0.00     0.135 C 
BRANCH  16  17
ATOM     17  C   UNL     1      59.749  85.562  73.007  1.00  0.00    -0.040 A 
ATOM     18  C   UNL     1      59.193  84.669  72.092  1.00  0.00     0.004 A 
ATOM     19  C   UNL     1      59.816  86.922  72.703  1.00  0.00     0.004 A 
ATOM     20  C   UNL     1      58.703  85.135  70.872  1.00  0.00     0.000 A 
ATOM     21  C   UNL     1      59.326  87.388  71.483  1.00  0.00     0.000 A 
ATOM     22  C   UNL     1      58.770  86.495  70.568  1.00  0.00     0.000 A 
ENDBRANCH  16  17
ENDBRANCH   7  16
BRANCH  15  23
ATOM     23  C   UNL     1      63.675  83.880  76.922  1.00  0.00    -0.046 C 
ATOM     24  C   UNL     1      65.077  83.613  77.383  1.00  0.00     0.042 C 
ATOM     25  C   UNL     1      62.688  84.167  77.784  1.00  0.00     0.010 C 
ENDBRANCH  15  23
ENDBRANCH   3   4
BRANCH   2  26
ATOM     26  C   UNL     1      65.385  85.465  70.277  1.00  0.00     0.078 C 
BRANCH  26  27
ATOM     27  C   UNL     1      64.985  84.011  70.518  1.00  0.00     0.140 C 
ATOM     28  C   UNL     1      63.551  83.884  71.073  1.00  0.00     0.086 CG0
ATOM     29  C   UNL     1      64.909  83.210  69.236  1.00  0.00     0.190 C 
ATOM     30  C   UNL     1      62.950  82.783  70.243  1.00  0.00    -0.010 C 
ATOM     31  G   UNL     1      63.418  83.831  72.623  1.00  0.00     0.000 G0
ATOM     32  O   UNL     1      65.767  83.182  68.366  1.00  0.00    -0.291 OA
ATOM     33  C   UNL     1      63.675  82.402  69.188  1.00  0.00    -0.008 C 
ATOM     34  C   UNL     1      63.366  81.424  68.125  1.00  0.00     0.048 C 
BRANCH  27  35
ATOM     35  O   UNL     1      65.959  83.326  71.288  1.00  0.00    -0.381 OA
ATOM     36  H   UNL     1      65.613  83.213  72.189  1.00  0.00     0.212 HD
ENDBRANCH  27  35
ENDBRANCH  26  27
ENDBRANCH   2  26
ENDBRANCH   1   2
BRANCH   1  37
ATOM     37  O   UNL     1      65.755  88.653  71.970  1.00  0.00    -0.461 OA
BRANCH  37  38
ATOM     38  C   UNL     1      67.126  88.639  72.075  1.00  0.00     0.310 C 
ATOM     39  O   UNL     1      67.887  88.113  71.274  1.00  0.00    -0.252 OA
BRANCH  38  40
ATOM     40  C   UNL     1      67.543  89.370  73.329  1.00  0.00     0.158 C 
BRANCH  40  41
ATOM     41  C   UNL     1      67.033  88.718  74.587  1.00  0.00    -0.037 A 
ATOM     42  C   UNL     1      67.519  87.468  74.971  1.00  0.00     0.008 A 
ATOM     43  C   UNL     1      66.074  89.362  75.368  1.00  0.00     0.008 A 
ATOM     44  C   UNL     1      67.045  86.863  76.136  1.00  0.00     0.046 A 
ATOM     45  C   UNL     1      65.601  88.758  76.533  1.00  0.00     0.046 A 
ATOM     46  C   UNL     1      66.086  87.509  76.917  1.00  0.00     0.115 A 
BRANCH  46  47
ATOM     47  O   UNL     1      65.624  86.918  78.053  1.00  0.00    -0.508 OA
ATOM     48  H   UNL     1      65.806  85.963  78.009  1.00  0.00     0.293 HD
ENDBRANCH  46  47
ENDBRANCH  40  41
ENDBRANCH  38  40
ENDBRANCH  37  38
ENDBRANCH   1  37
TORSDOF 10
ENDMDL
MODEL 8
REMARK VINA RESULT:    -6.254      6.025     11.401
REMARK INTER + INTRA:         -12.452
REMARK INTER:                 -12.127
REMARK INTRA:                  -0.325
REMARK UNBOUND:                -1.811
REMARK SMILES C=C(C)[C@]12C[C@@H](C)[C@@]34O[C@](Cc5ccccc5)(O[C@@H]1[C@@H]3C=C(COC(=O)Cc1ccc(O)cc1)C[C@]1(O)C(=O)C(C)=C[C@@H]41)O2
REMARK SMILES IDX 23 1 22 2 21 3 20 4 9 5 8 6 10 7 6 8 18 10 44 11 19 12 5 13
REMARK SMILES IDX 7 14 4 15 11 16 12 17 13 18 17 19 14 20 16 21 15 22 2 23
REMARK SMILES IDX 3 24 1 25 35 26 36 27 43 28 38 29 42 30 39 32 40 33 41 34
REMARK SMILES IDX 37 35 24 37 25 38 26 39 27 40 28 41 29 42 34 43 30 44 33 45
REMARK SMILES IDX 31 46 32 47
REMARK H PARENT 37 36 32 48
REMARK Flexibility Score: 90.00
ROOT
ATOM      1  C   UNL     1      69.054  83.038  69.420  1.00  0.00     0.264 C 
ENDROOT
BRANCH   1   2
ATOM      2  C   UNL     1      70.016  83.675  68.445  1.00  0.00    -0.033 C 
ATOM      3  C   UNL     1      70.334  84.978  68.588  1.00  0.00    -0.015 C 
BRANCH   3   4
ATOM      4  C   UNL     1      71.205  85.861  67.709  1.00  0.00     0.078 C 
ATOM      5  O   UNL     1      73.498  85.757  68.630  1.00  0.00    -0.319 OA
ATOM      6  C   UNL     1      72.695  85.426  67.454  1.00  0.00     0.095 CG0
ATOM      7  C   UNL     1      73.230  87.045  69.216  1.00  0.00     0.289 C 
ATOM      8  C   UNL     1      73.228  86.248  66.209  1.00  0.00     0.023 C 
ATOM      9  G   UNL     1      72.807  83.879  67.330  1.00  0.00     0.000 G0
ATOM     10  O   UNL     1      71.861  87.169  69.590  1.00  0.00    -0.320 OA
ATOM     11  O   UNL     1      73.481  88.116  68.310  1.00  0.00    -0.313 OA
ATOM     12  C   UNL     1      71.257  87.295  68.292  1.00  0.00     0.170 C 
ATOM     13  C   UNL     1      72.592  87.671  66.148  1.00  0.00     0.049 C 
ATOM     14  C   UNL     1      74.758  86.369  66.102  1.00  0.00     0.011 C 
ATOM     15  C   UNL     1      72.262  88.204  67.543  1.00  0.00     0.122 C 
BRANCH   7  16
ATOM     16  C   UNL     1      74.112  87.202  70.439  1.00  0.00     0.135 C 
BRANCH  16  17
ATOM     17  C   UNL     1      75.308  86.285  70.397  1.00  0.00    -0.040 A 
ATOM     18  C   UNL     1      76.442  86.649  69.673  1.00  0.00     0.004 A 
ATOM     19  C   UNL     1      75.279  85.071  71.084  1.00  0.00     0.004 A 
ATOM     20  C   UNL     1      77.549  85.800  69.634  1.00  0.00     0.000 A 
ATOM     21  C   UNL     1      76.386  84.222  71.045  1.00  0.00     0.000 A 
ATOM     22  C   UNL     1      77.520  84.587  70.321  1.00  0.00     0.000 A 
ENDBRANCH  16  17
ENDBRANCH   7  16
BRANCH  15  23
ATOM     23  C   UNL     1      71.821  89.631  67.522  1.00  0.00    -0.046 C 
ATOM     24  C   UNL     1      72.889  90.650  67.251  1.00  0.00     0.042 C 
ATOM     25  C   UNL     1      70.544  89.982  67.735  1.00  0.00     0.010 C 
ENDBRANCH  15  23
ENDBRANCH   3   4
BRANCH   2  26
ATOM     26  C   UNL     1      70.523  82.708  67.390  1.00  0.00     0.078 C 
BRANCH  26  27
ATOM     27  C   UNL     1      71.674  83.182  66.505  1.00  0.00     0.140 C 
ATOM     28  C   UNL     1      72.783  83.884  67.315  1.00  0.00     0.086 CG0
ATOM     29  C   UNL     1      72.420  82.033  65.860  1.00  0.00     0.190 C 
ATOM     30  C   UNL     1      74.048  83.273  66.780  1.00  0.00    -0.010 C 
ATOM     31  G   UNL     1      72.672  85.433  67.429  1.00  0.00     0.000 G0
ATOM     32  O   UNL     1      71.904  81.096  65.269  1.00  0.00    -0.291 OA
ATOM     33  C   UNL     1      73.879  82.214  65.983  1.00  0.00    -0.008 C 
ATOM     34  C   UNL     1      74.880  81.328  65.353  1.00  0.00     0.048 C 
BRANCH  27  35
ATOM     35  O   UNL     1      71.202  83.939  65.403  1.00  0.00    -0.381 OA
ATOM     36  H   UNL     1      71.862  84.623  65.196  1.00  0.00     0.212 HD
ENDBRANCH  27  35
ENDBRANCH  26  27
ENDBRANCH   2  26
ENDBRANCH   1   2
BRANCH   1  37
ATOM     37  O   UNL     1      67.783  83.637  69.280  1.00  0.00    -0.461 OA
BRANCH  37  38
ATOM     38  C   UNL     1      66.935  83.522  70.357  1.00  0.00     0.310 C 
ATOM     39  O   UNL     1      67.171  83.936  71.484  1.00  0.00    -0.252 OA
BRANCH  38  40
ATOM     40  C   UNL     1      65.674  82.809  69.932  1.00  0.00     0.158 C 
BRANCH  40  41
ATOM     41  C   UNL     1      64.690  82.632  71.059  1.00  0.00    -0.037 A 
ATOM     42  C   UNL     1      64.694  81.456  71.810  1.00  0.00     0.008 A 
ATOM     43  C   UNL     1      63.775  83.643  71.352  1.00  0.00     0.008 A 
ATOM     44  C   UNL     1      63.783  81.292  72.854  1.00  0.00     0.046 A 
ATOM     45  C   UNL     1      62.864  83.479  72.396  1.00  0.00     0.046 A 
ATOM     46  C   UNL     1      62.867  82.304  73.146  1.00  0.00     0.115 A 
BRANCH  46  47
ATOM     47  O   UNL     1      61.978  82.143  74.164  1.00  0.00    -0.508 OA
ATOM     48  H   UNL     1      62.461  81.881  74.967  1.00  0.00     0.293 HD
ENDBRANCH  46  47
ENDBRANCH  40  41
ENDBRANCH  38  40
ENDBRANCH  37  38
ENDBRANCH   1  37
TORSDOF 10
ENDMDL
MODEL 9
REMARK VINA RESULT:    -6.088     28.843     31.873
REMARK INTER + INTRA:         -12.169
REMARK INTER:                 -11.734
REMARK INTRA:                  -0.435
REMARK UNBOUND:                -1.811
REMARK SMILES C=C(C)[C@]12C[C@@H](C)[C@@]34O[C@](Cc5ccccc5)(O[C@@H]1[C@@H]3C=C(COC(=O)Cc1ccc(O)cc1)C[C@]1(O)C(=O)C(C)=C[C@@H]41)O2
REMARK SMILES IDX 23 1 22 2 21 3 20 4 9 5 8 6 10 7 6 8 18 10 44 11 19 12 5 13
REMARK SMILES IDX 7 14 4 15 11 16 12 17 13 18 17 19 14 20 16 21 15 22 2 23
REMARK SMILES IDX 3 24 1 25 35 26 36 27 43 28 38 29 42 30 39 32 40 33 41 34
REMARK SMILES IDX 37 35 24 37 25 38 26 39 27 40 28 41 29 42 34 43 30 44 33 45
REMARK SMILES IDX 31 46 32 47
REMARK H PARENT 37 36 32 48
REMARK Flexibility Score: 90.00
ROOT
ATOM      1  C   UNL     1      93.649 100.920  75.720  1.00  0.00     0.264 C 
ENDROOT
BRANCH   1   2
ATOM      2  C   UNL     1      92.825 101.932  74.959  1.00  0.00    -0.033 C 
ATOM      3  C   UNL     1      92.515 101.693  73.668  1.00  0.00    -0.015 C 
BRANCH   3   4
ATOM      4  C   UNL     1      91.774 102.574  72.674  1.00  0.00     0.078 C 
ATOM      5  O   UNL     1      89.387 101.938  72.788  1.00  0.00    -0.319 OA
ATOM      6  C   UNL     1      90.315 103.041  73.031  1.00  0.00     0.095 CG0
ATOM      7  C   UNL     1      89.614 101.199  71.572  1.00  0.00     0.289 C 
ATOM      8  C   UNL     1      89.952 104.251  72.075  1.00  0.00     0.023 C 
ATOM      9  G   UNL     1      90.183 103.330  74.554  1.00  0.00     0.000 G0
ATOM     10  O   UNL     1      90.932 100.661  71.532  1.00  0.00    -0.320 OA
ATOM     11  O   UNL     1      89.497 102.018  70.410  1.00  0.00    -0.313 OA
ATOM     12  C   UNL     1      91.687 101.861  71.302  1.00  0.00     0.170 C 
ATOM     13  C   UNL     1      90.623 104.097  70.676  1.00  0.00     0.049 C 
ATOM     14  C   UNL     1      88.448 104.521  71.891  1.00  0.00     0.011 C 
ATOM     15  C   UNL     1      90.799 102.627  70.291  1.00  0.00     0.122 C 
BRANCH   7  16
ATOM     16  C   UNL     1      88.598 100.076  71.502  1.00  0.00     0.135 C 
BRANCH  16  17
ATOM     17  C   UNL     1      88.815  99.191  70.300  1.00  0.00    -0.040 A 
ATOM     18  C   UNL     1      88.636  99.702  69.015  1.00  0.00     0.004 A 
ATOM     19  C   UNL     1      89.194  97.860  70.475  1.00  0.00     0.004 A 
ATOM     20  C   UNL     1      88.836  98.883  67.904  1.00  0.00     0.000 A 
ATOM     21  C   UNL     1      89.395  97.041  69.363  1.00  0.00     0.000 A 
ATOM     22  C   UNL     1      89.216  97.553  68.078  1.00  0.00     0.000 A 
ENDBRANCH  16  17
ENDBRANCH   7  16
BRANCH  15  23
ATOM     23  C   UNL     1      91.272 102.454  68.885  1.00  0.00    -0.046 C 
ATOM     24  C   UNL     1      92.670 101.937  68.716  1.00  0.00     0.042 C 
ATOM     25  C   UNL     1      90.492 102.745  67.833  1.00  0.00     0.010 C 
ENDBRANCH  15  23
ENDBRANCH   3   4
BRANCH   2  26
ATOM     26  C   UNL     1      92.435 103.134  75.798  1.00  0.00     0.078 C 
BRANCH  26  27
ATOM     27  C   UNL     1      91.386 104.081  75.217  1.00  0.00     0.140 C 
ATOM     28  C   UNL     1      90.210 103.321  74.568  1.00  0.00     0.086 CG0
ATOM     29  C   UNL     1      90.693 104.903  76.283  1.00  0.00     0.190 C 
ATOM     30  C   UNL     1      88.998 104.035  75.097  1.00  0.00    -0.010 C 
ATOM     31  G   UNL     1      90.330 103.048  73.040  1.00  0.00     0.000 G0
ATOM     32  O   UNL     1      91.253 105.527  77.171  1.00  0.00    -0.291 OA
ATOM     33  C   UNL     1      89.232 104.909  76.080  1.00  0.00    -0.008 C 
ATOM     34  C   UNL     1      88.288 105.717  76.880  1.00  0.00     0.048 C 
BRANCH  27  35
ATOM     35  O   UNL     1      91.977 105.053  74.371  1.00  0.00    -0.381 OA
ATOM     36  H   UNL     1      92.417 104.592  73.636  1.00  0.00     0.212 HD
ENDBRANCH  27  35
ENDBRANCH  26  27
ENDBRANCH   2  26
ENDBRANCH   1   2
BRANCH   1  37
ATOM     37  O   UNL     1      94.117  99.933  74.826  1.00  0.00    -0.461 OA
BRANCH  37  38
ATOM     38  C   UNL     1      93.623  98.662  75.011  1.00  0.00     0.310 C 
ATOM     39  O   UNL     1      92.437  98.364  75.025  1.00  0.00    -0.252 OA
BRANCH  38  40
ATOM     40  C   UNL     1      94.771  97.697  75.193  1.00  0.00     0.158 C 
BRANCH  40  41
ATOM     41  C   UNL     1      94.565  96.751  76.347  1.00  0.00    -0.037 A 
ATOM     42  C   UNL     1      93.890  95.546  76.149  1.00  0.00     0.008 A 
ATOM     43  C   UNL     1      95.048  97.078  77.613  1.00  0.00     0.008 A 
ATOM     44  C   UNL     1      93.698  94.670  77.218  1.00  0.00     0.046 A 
ATOM     45  C   UNL     1      94.858  96.202  78.682  1.00  0.00     0.046 A 
ATOM     46  C   UNL     1      94.182  94.998  78.485  1.00  0.00     0.115 A 
BRANCH  46  47
ATOM     47  O   UNL     1      93.995  94.144  79.527  1.00  0.00    -0.508 OA
ATOM     48  H   UNL     1      93.916  94.660  80.348  1.00  0.00     0.293 HD
ENDBRANCH  46  47
ENDBRANCH  40  41
ENDBRANCH  38  40
ENDBRANCH  37  38
ENDBRANCH   1  37
TORSDOF 10
ENDMDL
MODEL 10
REMARK VINA RESULT:    -6.043     28.793     31.833
REMARK INTER + INTRA:         -12.093
REMARK INTER:                 -11.904
REMARK INTRA:                  -0.188
REMARK UNBOUND:                -1.811
REMARK SMILES C=C(C)[C@]12C[C@@H](C)[C@@]34O[C@](Cc5ccccc5)(O[C@@H]1[C@@H]3C=C(COC(=O)Cc1ccc(O)cc1)C[C@]1(O)C(=O)C(C)=C[C@@H]41)O2
REMARK SMILES IDX 23 1 22 2 21 3 20 4 9 5 8 6 10 7 6 8 18 10 44 11 19 12 5 13
REMARK SMILES IDX 7 14 4 15 11 16 12 17 13 18 17 19 14 20 16 21 15 22 2 23
REMARK SMILES IDX 3 24 1 25 35 26 36 27 43 28 38 29 42 30 39 32 40 33 41 34
REMARK SMILES IDX 37 35 24 37 25 38 26 39 27 40 28 41 29 42 34 43 30 44 33 45
REMARK SMILES IDX 31 46 32 47
REMARK H PARENT 37 36 32 48
REMARK Flexibility Score: 90.00
ROOT
ATOM      1  C   UNL     1      92.203 101.476  73.652  1.00  0.00     0.264 C 
ENDROOT
BRANCH   1   2
ATOM      2  C   UNL     1      91.500 102.436  72.720  1.00  0.00    -0.033 C 
ATOM      3  C   UNL     1      91.611 102.261  71.387  1.00  0.00    -0.015 C 
BRANCH   3   4
ATOM      4  C   UNL     1      91.073 103.118  70.253  1.00  0.00     0.078 C 
ATOM      5  O   UNL     1      88.862 102.196  69.639  1.00  0.00    -0.319 OA
ATOM      6  C   UNL     1      89.523 103.380  70.183  1.00  0.00     0.095 CG0
ATOM      7  C   UNL     1      89.524 101.582  68.517  1.00  0.00     0.289 C 
ATOM      8  C   UNL     1      89.288 104.606  69.208  1.00  0.00     0.023 C 
ATOM      9  G   UNL     1      88.924 103.538  71.611  1.00  0.00     0.000 G0
ATOM     10  O   UNL     1      90.860 101.208  68.846  1.00  0.00    -0.320 OA
ATOM     11  O   UNL     1      89.634 102.464  67.403  1.00  0.00    -0.313 OA
ATOM     12  C   UNL     1      91.479 102.504  68.891  1.00  0.00     0.170 C 
ATOM     13  C   UNL     1      90.345 104.637  68.062  1.00  0.00     0.049 C 
ATOM     14  C   UNL     1      87.877 104.708  68.602  1.00  0.00     0.011 C 
ATOM     15  C   UNL     1      90.821 103.231  67.693  1.00  0.00     0.122 C 
BRANCH   7  16
ATOM     16  C   UNL     1      88.733 100.354  68.113  1.00  0.00     0.135 C 
BRANCH  16  17
ATOM     17  C   UNL     1      89.031  99.171  69.000  1.00  0.00    -0.040 A 
ATOM     18  C   UNL     1      89.289  97.923  68.434  1.00  0.00     0.004 A 
ATOM     19  C   UNL     1      89.047  99.326  70.385  1.00  0.00     0.004 A 
ATOM     20  C   UNL     1      89.565  96.828  69.255  1.00  0.00     0.000 A 
ATOM     21  C   UNL     1      89.322  98.232  71.206  1.00  0.00     0.000 A 
ATOM     22  C   UNL     1      89.581  96.984  70.641  1.00  0.00     0.000 A 
ENDBRANCH  16  17
ENDBRANCH   7  16
BRANCH  15  23
ATOM     23  C   UNL     1      91.695 103.221  66.481  1.00  0.00    -0.046 C 
ATOM     24  C   UNL     1      91.106 103.814  65.235  1.00  0.00     0.042 C 
ATOM     25  C   UNL     1      92.935 102.711  66.505  1.00  0.00     0.010 C 
ENDBRANCH  15  23
ENDBRANCH   3   4
BRANCH   2  26
ATOM     26  C   UNL     1      90.722 103.513  73.452  1.00  0.00     0.078 C 
BRANCH  26  27
ATOM     27  C   UNL     1      89.776 104.377  72.620  1.00  0.00     0.140 C 
ATOM     28  C   UNL     1      88.940 103.540  71.629  1.00  0.00     0.086 CG0
ATOM     29  C   UNL     1      88.709 105.045  73.462  1.00  0.00     0.190 C 
ATOM     30  C   UNL     1      87.548 104.080  71.802  1.00  0.00    -0.010 C 
ATOM     31  G   UNL     1      89.527 103.386  70.196  1.00  0.00     0.000 G0
ATOM     32  O   UNL     1      88.908 105.665  74.496  1.00  0.00    -0.291 OA
ATOM     33  C   UNL     1      87.379 104.906  72.839  1.00  0.00    -0.008 C 
ATOM     34  C   UNL     1      86.152 105.550  73.352  1.00  0.00     0.048 C 
BRANCH  27  35
ATOM     35  O   UNL     1      90.460 105.463  72.017  1.00  0.00    -0.381 OA
ATOM     36  H   UNL     1      90.312 105.423  71.057  1.00  0.00     0.212 HD
ENDBRANCH  27  35
ENDBRANCH  26  27
ENDBRANCH   2  26
ENDBRANCH   1   2
BRANCH   1  37
ATOM     37  O   UNL     1      93.175 100.751  72.929  1.00  0.00    -0.461 OA
BRANCH  37  38
ATOM     38  C   UNL     1      93.742  99.679  73.579  1.00  0.00     0.310 C 
ATOM     39  O   UNL     1      94.702  99.039  73.173  1.00  0.00    -0.252 OA
BRANCH  38  40
ATOM     40  C   UNL     1      92.996  99.418  74.865  1.00  0.00     0.158 C 
BRANCH  40  41
ATOM     41  C   UNL     1      93.557  98.258  75.645  1.00  0.00    -0.037 A 
ATOM     42  C   UNL     1      94.795  98.376  76.277  1.00  0.00     0.008 A 
ATOM     43  C   UNL     1      92.840  97.066  75.736  1.00  0.00     0.008 A 
ATOM     44  C   UNL     1      95.316  97.301  76.999  1.00  0.00     0.046 A 
ATOM     45  C   UNL     1      93.360  95.991  76.458  1.00  0.00     0.046 A 
ATOM     46  C   UNL     1      94.598  96.109  77.089  1.00  0.00     0.115 A 
BRANCH  46  47
ATOM     47  O   UNL     1      95.106  95.061  77.793  1.00  0.00    -0.508 OA
ATOM     48  H   UNL     1      95.212  95.327  78.723  1.00  0.00     0.293 HD
ENDBRANCH  46  47
ENDBRANCH  40  41
ENDBRANCH  38  40
ENDBRANCH  37  38
ENDBRANCH   1  37
TORSDOF 10
ENDMDL
