MODEL 1
REMARK VINA RESULT:    -6.489      0.000      0.000
REMARK INTER + INTRA:         -10.710
REMARK INTER:                 -10.093
REMARK INTRA:                  -0.617
REMARK UNBOUND:                -0.617
REMARK SMILES COc1cc(CNC(=O)CCCCCC(C)C)ccc1O
REMARK SMILES IDX 10 1 8 2 7 3 9 5 6 6 5 7 3 8 20 9 4 10 19 11 18 12 2 13 1 14
REMARK SMILES IDX 21 15 11 17 12 18 13 19 14 20 15 21 16 22 17 23
REMARK H PARENT 7 4 21 16
REMARK Flexibility Score: inf
ROOT
ATOM      1  C   UNL     1      80.152  64.984  69.357  1.00  0.00     0.100 C 
ENDROOT
BRANCH   1   2
ATOM      2  C   UNL     1      79.957  65.617  70.679  1.00  0.00     0.220 C 
ATOM      3  N   UNL     1      80.815  65.321  71.696  1.00  0.00    -0.352 N 
ATOM      4  H   UNL     1      81.462  64.570  71.501  1.00  0.00     0.163 HD
ATOM      5  O   UNL     1      79.027  66.447  70.825  1.00  0.00    -0.275 OA
BRANCH   3   6
ATOM      6  C   UNL     1      80.849  65.983  72.960  1.00  0.00     0.151 C 
BRANCH   6   7
ATOM      7  C   UNL     1      82.231  66.252  73.442  1.00  0.00    -0.025 A 
ATOM      8  C   UNL     1      84.225  67.690  73.504  1.00  0.00     0.160 A 
ATOM      9  C   UNL     1      84.837  66.798  74.411  1.00  0.00     0.157 A 
ATOM     10  C   UNL     1      82.934  67.402  73.011  1.00  0.00     0.056 A 
ATOM     11  C   UNL     1      84.157  65.638  74.825  1.00  0.00     0.050 A 
ATOM     12  C   UNL     1      82.862  65.370  74.349  1.00  0.00     0.009 A 
BRANCH   8  13
ATOM     13  O   UNL     1      84.878  68.815  73.073  1.00  0.00    -0.493 OA
ATOM     14  C   UNL     1      84.063  69.687  72.267  1.00  0.00     0.278 C 
ENDBRANCH   8  13
BRANCH   9  15
ATOM     15  O   UNL     1      86.078  67.065  74.889  1.00  0.00    -0.504 OA
ATOM     16  H   UNL     1      86.718  66.498  74.453  1.00  0.00     0.293 HD
ENDBRANCH   9  15
ENDBRANCH   6   7
ENDBRANCH   3   6
ENDBRANCH   1   2
BRANCH   1  17
ATOM     17  C   UNL     1      79.660  63.514  69.274  1.00  0.00     0.010 C 
BRANCH  17  18
ATOM     18  C   UNL     1      78.122  63.435  69.072  1.00  0.00     0.001 C 
BRANCH  18  19
ATOM     19  C   UNL     1      77.677  63.725  67.614  1.00  0.00     0.000 C 
BRANCH  19  20
ATOM     20  C   UNL     1      76.158  63.463  67.399  1.00  0.00     0.003 C 
BRANCH  20  21
ATOM     21  C   UNL     1      75.283  64.748  67.234  1.00  0.00    -0.017 C 
ATOM     22  C   UNL     1      76.128  65.926  66.667  1.00  0.00     0.007 C 
ATOM     23  C   UNL     1      74.586  65.178  68.558  1.00  0.00     0.007 C 
ENDBRANCH  20  21
ENDBRANCH  19  20
ENDBRANCH  18  19
ENDBRANCH  17  18
ENDBRANCH   1  17
TORSDOF 10
ENDMDL
MODEL 2
REMARK VINA RESULT:    -6.342     16.205     18.814
REMARK INTER + INTRA:         -10.481
REMARK INTER:                  -9.950
REMARK INTRA:                  -0.531
REMARK UNBOUND:                -0.617
REMARK SMILES COc1cc(CNC(=O)CCCCCC(C)C)ccc1O
REMARK SMILES IDX 10 1 8 2 7 3 9 5 6 6 5 7 3 8 20 9 4 10 19 11 18 12 2 13 1 14
REMARK SMILES IDX 21 15 11 17 12 18 13 19 14 20 15 21 16 22 17 23
REMARK H PARENT 7 4 21 16
REMARK Flexibility Score: inf
ROOT
ATOM      1  C   UNL     1      90.687  74.153  81.574  1.00  0.00     0.100 C 
ENDROOT
BRANCH   1   2
ATOM      2  C   UNL     1      90.813  75.018  82.765  1.00  0.00     0.220 C 
ATOM      3  N   UNL     1      89.702  75.622  83.274  1.00  0.00    -0.352 N 
ATOM      4  H   UNL     1      88.872  75.534  82.705  1.00  0.00     0.163 HD
ATOM      5  O   UNL     1      91.936  75.146  83.309  1.00  0.00    -0.275 OA
BRANCH   3   6
ATOM      6  C   UNL     1      89.648  76.337  84.509  1.00  0.00     0.151 C 
BRANCH   6   7
ATOM      7  C   UNL     1      89.733  77.812  84.334  1.00  0.00    -0.025 A 
ATOM      8  C   UNL     1      88.637  80.008  84.181  1.00  0.00     0.160 A 
ATOM      9  C   UNL     1      89.900  80.628  84.067  1.00  0.00     0.157 A 
ATOM     10  C   UNL     1      88.561  78.604  84.294  1.00  0.00     0.056 A 
ATOM     11  C   UNL     1      91.071  79.848  84.079  1.00  0.00     0.050 A 
ATOM     12  C   UNL     1      90.989  78.452  84.216  1.00  0.00     0.009 A 
BRANCH   8  13
ATOM     13  O   UNL     1      87.484  80.748  84.152  1.00  0.00    -0.493 OA
ATOM     14  C   UNL     1      86.956  80.951  82.827  1.00  0.00     0.278 C 
ENDBRANCH   8  13
BRANCH   9  15
ATOM     15  O   UNL     1      89.984  81.977  83.956  1.00  0.00    -0.504 OA
ATOM     16  H   UNL     1      90.100  82.364  84.827  1.00  0.00     0.293 HD
ENDBRANCH   9  15
ENDBRANCH   6   7
ENDBRANCH   3   6
ENDBRANCH   1   2
BRANCH   1  17
ATOM     17  C   UNL     1      91.227  74.787  80.264  1.00  0.00     0.010 C 
BRANCH  17  18
ATOM     18  C   UNL     1      90.289  74.499  79.059  1.00  0.00     0.001 C 
BRANCH  18  19
ATOM     19  C   UNL     1      90.913  74.872  77.689  1.00  0.00     0.000 C 
BRANCH  19  20
ATOM     20  C   UNL     1      90.316  76.187  77.108  1.00  0.00     0.003 C 
BRANCH  20  21
ATOM     21  C   UNL     1      91.186  76.878  76.008  1.00  0.00    -0.017 C 
ATOM     22  C   UNL     1      91.657  78.286  76.476  1.00  0.00     0.007 C 
ATOM     23  C   UNL     1      90.454  76.987  74.639  1.00  0.00     0.007 C 
ENDBRANCH  20  21
ENDBRANCH  19  20
ENDBRANCH  18  19
ENDBRANCH  17  18
ENDBRANCH   1  17
TORSDOF 10
ENDMDL
MODEL 3
REMARK VINA RESULT:    -6.033     28.912     33.517
REMARK INTER + INTRA:         -10.001
REMARK INTER:                  -9.357
REMARK INTRA:                  -0.643
REMARK UNBOUND:                -0.617
REMARK SMILES COc1cc(CNC(=O)CCCCCC(C)C)ccc1O
REMARK SMILES IDX 10 1 8 2 7 3 9 5 6 6 5 7 3 8 20 9 4 10 19 11 18 12 2 13 1 14
REMARK SMILES IDX 21 15 11 17 12 18 13 19 14 20 15 21 16 22 17 23
REMARK H PARENT 7 4 21 16
REMARK Flexibility Score: inf
ROOT
ATOM      1  C   UNL     1      93.761  95.466  77.277  1.00  0.00     0.100 C 
ENDROOT
BRANCH   1   2
ATOM      2  C   UNL     1      93.865  96.560  76.289  1.00  0.00     0.220 C 
ATOM      3  N   UNL     1      94.050  96.258  74.973  1.00  0.00    -0.352 N 
ATOM      4  H   UNL     1      94.238  95.284  74.783  1.00  0.00     0.163 HD
ATOM      5  O   UNL     1      93.739  97.747  76.679  1.00  0.00    -0.275 OA
BRANCH   3   6
ATOM      6  C   UNL     1      93.996  97.197  73.899  1.00  0.00     0.151 C 
BRANCH   6   7
ATOM      7  C   UNL     1      95.314  97.412  73.243  1.00  0.00    -0.025 A 
ATOM      8  C   UNL     1      96.720  97.396  71.226  1.00  0.00     0.160 A 
ATOM      9  C   UNL     1      97.806  97.886  71.982  1.00  0.00     0.157 A 
ATOM     10  C   UNL     1      95.487  97.144  71.865  1.00  0.00     0.056 A 
ATOM     11  C   UNL     1      97.652  98.131  73.359  1.00  0.00     0.050 A 
ATOM     12  C   UNL     1      96.415  97.901  73.984  1.00  0.00     0.009 A 
BRANCH   8  13
ATOM     13  O   UNL     1      96.854  97.132  69.888  1.00  0.00    -0.493 OA
ATOM     14  C   UNL     1      95.808  97.698  69.076  1.00  0.00     0.278 C 
ENDBRANCH   8  13
BRANCH   9  15
ATOM     15  O   UNL     1      98.996  98.129  71.378  1.00  0.00    -0.504 OA
ATOM     16  H   UNL     1      99.641  98.397  72.037  1.00  0.00     0.293 HD
ENDBRANCH   9  15
ENDBRANCH   6   7
ENDBRANCH   3   6
ENDBRANCH   1   2
BRANCH   1  17
ATOM     17  C   UNL     1      92.436  94.660  77.200  1.00  0.00     0.010 C 
BRANCH  17  18
ATOM     18  C   UNL     1      91.223  95.581  76.893  1.00  0.00     0.001 C 
BRANCH  18  19
ATOM     19  C   UNL     1      89.922  94.799  76.572  1.00  0.00     0.000 C 
BRANCH  19  20
ATOM     20  C   UNL     1      90.085  93.267  76.796  1.00  0.00     0.003 C 
BRANCH  20  21
ATOM     21  C   UNL     1      90.307  92.430  75.495  1.00  0.00    -0.017 C 
ATOM     22  C   UNL     1      89.937  93.260  74.230  1.00  0.00     0.007 C 
ATOM     23  C   UNL     1      89.521  91.086  75.500  1.00  0.00     0.007 C 
ENDBRANCH  20  21
ENDBRANCH  19  20
ENDBRANCH  18  19
ENDBRANCH  17  18
ENDBRANCH   1  17
TORSDOF 10
ENDMDL
MODEL 4
REMARK VINA RESULT:    -6.016     24.019     25.561
REMARK INTER + INTRA:          -9.974
REMARK INTER:                  -9.040
REMARK INTRA:                  -0.933
REMARK UNBOUND:                -0.617
REMARK SMILES COc1cc(CNC(=O)CCCCCC(C)C)ccc1O
REMARK SMILES IDX 10 1 8 2 7 3 9 5 6 6 5 7 3 8 20 9 4 10 19 11 18 12 2 13 1 14
REMARK SMILES IDX 21 15 11 17 12 18 13 19 14 20 15 21 16 22 17 23
REMARK H PARENT 7 4 21 16
REMARK Flexibility Score: inf
ROOT
ATOM      1  C   UNL     1      96.616  80.755  82.176  1.00  0.00     0.100 C 
ENDROOT
BRANCH   1   2
ATOM      2  C   UNL     1      97.331  80.676  80.885  1.00  0.00     0.220 C 
ATOM      3  N   UNL     1      97.686  81.827  80.246  1.00  0.00    -0.352 N 
ATOM      4  H   UNL     1      97.307  82.671  80.649  1.00  0.00     0.163 HD
ATOM      5  O   UNL     1      97.636  79.549  80.425  1.00  0.00    -0.275 OA
BRANCH   3   6
ATOM      6  C   UNL     1      98.524  81.900  79.092  1.00  0.00     0.151 C 
BRANCH   6   7
ATOM      7  C   UNL     1      97.944  82.730  78.001  1.00  0.00    -0.025 A 
ATOM      8  C   UNL     1      97.961  83.492  75.663  1.00  0.00     0.160 A 
ATOM      9  C   UNL     1      96.800  84.257  75.907  1.00  0.00     0.157 A 
ATOM     10  C   UNL     1      98.536  82.748  76.716  1.00  0.00     0.056 A 
ATOM     11  C   UNL     1      96.219  84.267  77.188  1.00  0.00     0.050 A 
ATOM     12  C   UNL     1      96.782  83.505  78.226  1.00  0.00     0.009 A 
BRANCH   8  13
ATOM     13  O   UNL     1      98.554  83.484  74.428  1.00  0.00    -0.493 OA
ATOM     14  C   UNL     1      99.788  84.226  74.370  1.00  0.00     0.278 C 
ENDBRANCH   8  13
BRANCH   9  15
ATOM     15  O   UNL     1      96.241  84.977  74.902  1.00  0.00    -0.504 OA
ATOM     16  H   UNL     1      95.592  85.584  75.266  1.00  0.00     0.293 HD
ENDBRANCH   9  15
ENDBRANCH   6   7
ENDBRANCH   3   6
ENDBRANCH   1   2
BRANCH   1  17
ATOM     17  C   UNL     1      96.224  82.195  82.602  1.00  0.00     0.010 C 
BRANCH  17  18
ATOM     18  C   UNL     1      96.778  82.546  84.010  1.00  0.00     0.001 C 
BRANCH  18  19
ATOM     19  C   UNL     1      95.688  82.569  85.114  1.00  0.00     0.000 C 
BRANCH  19  20
ATOM     20  C   UNL     1      94.261  82.778  84.527  1.00  0.00     0.003 C 
BRANCH  20  21
ATOM     21  C   UNL     1      93.199  81.725  84.983  1.00  0.00    -0.017 C 
ATOM     22  C   UNL     1      93.701  80.276  84.710  1.00  0.00     0.007 C 
ATOM     23  C   UNL     1      91.809  81.942  84.320  1.00  0.00     0.007 C 
ENDBRANCH  20  21
ENDBRANCH  19  20
ENDBRANCH  18  19
ENDBRANCH  17  18
ENDBRANCH   1  17
TORSDOF 10
ENDMDL
MODEL 5
REMARK VINA RESULT:    -5.752     12.036     14.706
REMARK INTER + INTRA:          -9.564
REMARK INTER:                  -8.980
REMARK INTRA:                  -0.584
REMARK UNBOUND:                -0.617
REMARK SMILES COc1cc(CNC(=O)CCCCCC(C)C)ccc1O
REMARK SMILES IDX 10 1 8 2 7 3 9 5 6 6 5 7 3 8 20 9 4 10 19 11 18 12 2 13 1 14
REMARK SMILES IDX 21 15 11 17 12 18 13 19 14 20 15 21 16 22 17 23
REMARK H PARENT 7 4 21 16
REMARK Flexibility Score: inf
ROOT
ATOM      1  C   UNL     1      92.874  75.637  70.020  1.00  0.00     0.100 C 
ENDROOT
BRANCH   1   2
ATOM      2  C   UNL     1      92.191  76.719  70.758  1.00  0.00     0.220 C 
ATOM      3  N   UNL     1      92.301  76.778  72.115  1.00  0.00    -0.352 N 
ATOM      4  H   UNL     1      92.749  75.978  72.540  1.00  0.00     0.163 HD
ATOM      5  O   UNL     1      91.555  77.588  70.113  1.00  0.00    -0.275 OA
BRANCH   3   6
ATOM      6  C   UNL     1      91.843  77.856  72.931  1.00  0.00     0.151 C 
BRANCH   6   7
ATOM      7  C   UNL     1      91.678  77.478  74.360  1.00  0.00    -0.025 A 
ATOM      8  C   UNL     1      91.459  75.751  76.098  1.00  0.00     0.160 A 
ATOM      9  C   UNL     1      91.432  76.755  77.089  1.00  0.00     0.157 A 
ATOM     10  C   UNL     1      91.562  76.119  74.739  1.00  0.00     0.056 A 
ATOM     11  C   UNL     1      91.520  78.111  76.721  1.00  0.00     0.050 A 
ATOM     12  C   UNL     1      91.647  78.469  75.369  1.00  0.00     0.009 A 
BRANCH   8  13
ATOM     13  O   UNL     1      91.355  74.427  76.433  1.00  0.00    -0.493 OA
ATOM     14  C   UNL     1      90.813  73.602  75.384  1.00  0.00     0.278 C 
ENDBRANCH   8  13
BRANCH   9  15
ATOM     15  O   UNL     1      91.331  76.412  78.398  1.00  0.00    -0.504 OA
ATOM     16  H   UNL     1      90.422  76.177  78.597  1.00  0.00     0.293 HD
ENDBRANCH   9  15
ENDBRANCH   6   7
ENDBRANCH   3   6
ENDBRANCH   1   2
BRANCH   1  17
ATOM     17  C   UNL     1      91.917  74.583  69.401  1.00  0.00     0.010 C 
BRANCH  17  18
ATOM     18  C   UNL     1      91.642  74.871  67.899  1.00  0.00     0.001 C 
BRANCH  18  19
ATOM     19  C   UNL     1      90.307  74.267  67.390  1.00  0.00     0.000 C 
BRANCH  19  20
ATOM     20  C   UNL     1      89.791  73.122  68.309  1.00  0.00     0.003 C 
BRANCH  20  21
ATOM     21  C   UNL     1      88.467  72.440  67.834  1.00  0.00    -0.017 C 
ATOM     22  C   UNL     1      88.771  71.187  66.960  1.00  0.00     0.007 C 
ATOM     23  C   UNL     1      87.528  73.413  67.063  1.00  0.00     0.007 C 
ENDBRANCH  20  21
ENDBRANCH  19  20
ENDBRANCH  18  19
ENDBRANCH  17  18
ENDBRANCH   1  17
TORSDOF 10
ENDMDL
MODEL 6
REMARK VINA RESULT:    -5.739     22.137     26.413
REMARK INTER + INTRA:          -9.542
REMARK INTER:                  -8.990
REMARK INTRA:                  -0.552
REMARK UNBOUND:                -0.617
REMARK SMILES COc1cc(CNC(=O)CCCCCC(C)C)ccc1O
REMARK SMILES IDX 10 1 8 2 7 3 9 5 6 6 5 7 3 8 20 9 4 10 19 11 18 12 2 13 1 14
REMARK SMILES IDX 21 15 11 17 12 18 13 19 14 20 15 21 16 22 17 23
REMARK H PARENT 7 4 21 16
REMARK Flexibility Score: inf
ROOT
ATOM      1  C   UNL     1      92.026  81.822  85.313  1.00  0.00     0.100 C 
ENDROOT
BRANCH   1   2
ATOM      2  C   UNL     1      92.952  82.929  84.995  1.00  0.00     0.220 C 
ATOM      3  N   UNL     1      92.732  84.162  85.534  1.00  0.00    -0.352 N 
ATOM      4  H   UNL     1      91.853  84.262  86.021  1.00  0.00     0.163 HD
ATOM      5  O   UNL     1      93.948  82.700  84.266  1.00  0.00    -0.275 OA
BRANCH   3   6
ATOM      6  C   UNL     1      93.632  85.267  85.452  1.00  0.00     0.151 C 
BRANCH   6   7
ATOM      7  C   UNL     1      93.672  86.081  86.696  1.00  0.00    -0.025 A 
ATOM      8  C   UNL     1      94.022  88.239  87.822  1.00  0.00     0.160 A 
ATOM      9  C   UNL     1      93.682  87.648  89.057  1.00  0.00     0.157 A 
ATOM     10  C   UNL     1      94.033  87.449  86.653  1.00  0.00     0.056 A 
ATOM     11  C   UNL     1      93.347  86.283  89.116  1.00  0.00     0.050 A 
ATOM     12  C   UNL     1      93.336  85.506  87.945  1.00  0.00     0.009 A 
BRANCH   8  13
ATOM     13  O   UNL     1      94.371  89.562  87.746  1.00  0.00    -0.493 OA
ATOM     14  C   UNL     1      95.107  89.903  86.556  1.00  0.00     0.278 C 
ENDBRANCH   8  13
BRANCH   9  15
ATOM     15  O   UNL     1      93.670  88.399  90.187  1.00  0.00    -0.504 OA
ATOM     16  H   UNL     1      92.917  88.152  90.728  1.00  0.00     0.293 HD
ENDBRANCH   9  15
ENDBRANCH   6   7
ENDBRANCH   3   6
ENDBRANCH   1   2
BRANCH   1  17
ATOM     17  C   UNL     1      90.583  82.022  84.777  1.00  0.00     0.010 C 
BRANCH  17  18
ATOM     18  C   UNL     1      90.125  80.822  83.903  1.00  0.00     0.001 C 
BRANCH  18  19
ATOM     19  C   UNL     1      91.138  79.647  83.891  1.00  0.00     0.000 C 
BRANCH  19  20
ATOM     20  C   UNL     1      90.540  78.349  84.506  1.00  0.00     0.003 C 
BRANCH  20  21
ATOM     21  C   UNL     1      90.994  77.021  83.817  1.00  0.00    -0.017 C 
ATOM     22  C   UNL     1      90.062  75.840  84.217  1.00  0.00     0.007 C 
ATOM     23  C   UNL     1      92.476  76.658  84.123  1.00  0.00     0.007 C 
ENDBRANCH  20  21
ENDBRANCH  19  20
ENDBRANCH  18  19
ENDBRANCH  17  18
ENDBRANCH   1  17
TORSDOF 10
ENDMDL
MODEL 7
REMARK VINA RESULT:    -5.617     29.165     33.568
REMARK INTER + INTRA:          -9.354
REMARK INTER:                  -8.971
REMARK INTRA:                  -0.383
REMARK UNBOUND:                -0.617
REMARK SMILES COc1cc(CNC(=O)CCCCCC(C)C)ccc1O
REMARK SMILES IDX 10 1 8 2 7 3 9 5 6 6 5 7 3 8 20 9 4 10 19 11 18 12 2 13 1 14
REMARK SMILES IDX 21 15 11 17 12 18 13 19 14 20 15 21 16 22 17 23
REMARK H PARENT 7 4 21 16
REMARK Flexibility Score: inf
ROOT
ATOM      1  C   UNL     1      93.470  96.260  76.463  1.00  0.00     0.100 C 
ENDROOT
BRANCH   1   2
ATOM      2  C   UNL     1      94.348  95.520  77.393  1.00  0.00     0.220 C 
ATOM      3  N   UNL     1      94.656  96.069  78.602  1.00  0.00    -0.352 N 
ATOM      4  H   UNL     1      94.359  97.026  78.722  1.00  0.00     0.163 HD
ATOM      5  O   UNL     1      94.757  94.379  77.067  1.00  0.00    -0.275 OA
BRANCH   3   6
ATOM      6  C   UNL     1      95.343  95.397  79.658  1.00  0.00     0.151 C 
BRANCH   6   7
ATOM      7  C   UNL     1      96.690  95.967  79.935  1.00  0.00    -0.025 A 
ATOM      8  C   UNL     1      98.663  96.166  81.388  1.00  0.00     0.160 A 
ATOM      9  C   UNL     1      99.281  96.998  80.431  1.00  0.00     0.157 A 
ATOM     10  C   UNL     1      97.365  95.671  81.143  1.00  0.00     0.056 A 
ATOM     11  C   UNL     1      98.608  97.320  79.238  1.00  0.00     0.050 A 
ATOM     12  C   UNL     1      97.325  96.805  78.989  1.00  0.00     0.009 A 
BRANCH   8  13
ATOM     13  O   UNL     1      99.293  95.856  82.565  1.00  0.00    -0.493 OA
ATOM     14  C   UNL     1      98.709  96.485  83.722  1.00  0.00     0.278 C 
ENDBRANCH   8  13
BRANCH   9  15
ATOM     15  O   UNL     1     100.528  97.481  80.658  1.00  0.00    -0.504 OA
ATOM     16  H   UNL     1     100.712  97.463  81.600  1.00  0.00     0.293 HD
ENDBRANCH   9  15
ENDBRANCH   6   7
ENDBRANCH   3   6
ENDBRANCH   1   2
BRANCH   1  17
ATOM     17  C   UNL     1      91.975  96.287  76.879  1.00  0.00     0.010 C 
BRANCH  17  18
ATOM     18  C   UNL     1      91.193  95.085  76.281  1.00  0.00     0.001 C 
BRANCH  18  19
ATOM     19  C   UNL     1      90.788  94.025  77.339  1.00  0.00     0.000 C 
BRANCH  19  20
ATOM     20  C   UNL     1      89.722  93.029  76.796  1.00  0.00     0.003 C 
BRANCH  20  21
ATOM     21  C   UNL     1      90.196  92.143  75.598  1.00  0.00    -0.017 C 
ATOM     22  C   UNL     1      89.961  92.871  74.242  1.00  0.00     0.007 C 
ATOM     23  C   UNL     1      89.518  90.743  75.576  1.00  0.00     0.007 C 
ENDBRANCH  20  21
ENDBRANCH  19  20
ENDBRANCH  18  19
ENDBRANCH  17  18
ENDBRANCH   1  17
TORSDOF 10
ENDMDL
MODEL 8
REMARK VINA RESULT:    -5.610     30.744     34.969
REMARK INTER + INTRA:          -9.342
REMARK INTER:                  -8.057
REMARK INTRA:                  -1.285
REMARK UNBOUND:                -0.617
REMARK SMILES COc1cc(CNC(=O)CCCCCC(C)C)ccc1O
REMARK SMILES IDX 10 1 8 2 7 3 9 5 6 6 5 7 3 8 20 9 4 10 19 11 18 12 2 13 1 14
REMARK SMILES IDX 21 15 11 17 12 18 13 19 14 20 15 21 16 22 17 23
REMARK H PARENT 7 4 21 16
REMARK Flexibility Score: inf
ROOT
ATOM      1  C   UNL     1      95.747  93.689  91.030  1.00  0.00     0.100 C 
ENDROOT
BRANCH   1   2
ATOM      2  C   UNL     1      95.122  93.419  89.719  1.00  0.00     0.220 C 
ATOM      3  N   UNL     1      95.167  92.159  89.202  1.00  0.00    -0.352 N 
ATOM      4  H   UNL     1      95.755  91.513  89.708  1.00  0.00     0.163 HD
ATOM      5  O   UNL     1      94.523  94.350  89.127  1.00  0.00    -0.275 OA
BRANCH   3   6
ATOM      6  C   UNL     1      94.462  91.722  88.039  1.00  0.00     0.151 C 
BRANCH   6   7
ATOM      7  C   UNL     1      94.074  90.287  88.097  1.00  0.00    -0.025 A 
ATOM      8  C   UNL     1      92.626  88.503  88.973  1.00  0.00     0.160 A 
ATOM      9  C   UNL     1      93.291  87.565  88.155  1.00  0.00     0.157 A 
ATOM     10  C   UNL     1      93.034  89.854  88.953  1.00  0.00     0.056 A 
ATOM     11  C   UNL     1      94.344  87.980  87.320  1.00  0.00     0.050 A 
ATOM     12  C   UNL     1      94.729  89.330  87.286  1.00  0.00     0.009 A 
BRANCH   8  13
ATOM     13  O   UNL     1      91.611  88.116  89.808  1.00  0.00    -0.493 OA
ATOM     14  C   UNL     1      92.034  87.873  91.164  1.00  0.00     0.278 C 
ENDBRANCH   8  13
BRANCH   9  15
ATOM     15  O   UNL     1      92.908  86.263  88.169  1.00  0.00    -0.504 OA
ATOM     16  H   UNL     1      93.582  85.736  88.603  1.00  0.00     0.293 HD
ENDBRANCH   9  15
ENDBRANCH   6   7
ENDBRANCH   3   6
ENDBRANCH   1   2
BRANCH   1  17
ATOM     17  C   UNL     1      95.499  95.121  91.574  1.00  0.00     0.010 C 
BRANCH  17  18
ATOM     18  C   UNL     1      94.231  95.182  92.470  1.00  0.00     0.001 C 
BRANCH  18  19
ATOM     19  C   UNL     1      93.120  96.105  91.903  1.00  0.00     0.000 C 
BRANCH  19  20
ATOM     20  C   UNL     1      91.898  95.298  91.375  1.00  0.00     0.003 C 
BRANCH  20  21
ATOM     21  C   UNL     1      91.806  93.825  91.893  1.00  0.00    -0.017 C 
ATOM     22  C   UNL     1      91.623  92.831  90.709  1.00  0.00     0.007 C 
ATOM     23  C   UNL     1      90.672  93.623  92.940  1.00  0.00     0.007 C 
ENDBRANCH  20  21
ENDBRANCH  19  20
ENDBRANCH  18  19
ENDBRANCH  17  18
ENDBRANCH   1  17
TORSDOF 10
ENDMDL
MODEL 9
REMARK VINA RESULT:    -5.565     32.201     35.085
REMARK INTER + INTRA:          -9.273
REMARK INTER:                  -8.250
REMARK INTRA:                  -1.023
REMARK UNBOUND:                -0.617
REMARK SMILES COc1cc(CNC(=O)CCCCCC(C)C)ccc1O
REMARK SMILES IDX 10 1 8 2 7 3 9 5 6 6 5 7 3 8 20 9 4 10 19 11 18 12 2 13 1 14
REMARK SMILES IDX 21 15 11 17 12 18 13 19 14 20 15 21 16 22 17 23
REMARK H PARENT 7 4 21 16
REMARK Flexibility Score: inf
ROOT
ATOM      1  C   UNL     1      95.543  97.880  76.960  1.00  0.00     0.100 C 
ENDROOT
BRANCH   1   2
ATOM      2  C   UNL     1      94.967  98.211  75.640  1.00  0.00     0.220 C 
ATOM      3  N   UNL     1      94.612  97.205  74.793  1.00  0.00    -0.352 N 
ATOM      4  H   UNL     1      94.897  96.281  75.087  1.00  0.00     0.163 HD
ATOM      5  O   UNL     1      94.779  99.416  75.344  1.00  0.00    -0.275 OA
BRANCH   3   6
ATOM      6  C   UNL     1      93.893  97.374  73.571  1.00  0.00     0.151 C 
BRANCH   6   7
ATOM      7  C   UNL     1      94.765  97.752  72.427  1.00  0.00    -0.025 A 
ATOM      8  C   UNL     1      95.259  99.219  70.516  1.00  0.00     0.160 A 
ATOM      9  C   UNL     1      96.460  98.514  70.289  1.00  0.00     0.157 A 
ATOM     10  C   UNL     1      94.411  98.822  71.571  1.00  0.00     0.056 A 
ATOM     11  C   UNL     1      96.810  97.432  71.117  1.00  0.00     0.050 A 
ATOM     12  C   UNL     1      95.972  97.057  72.181  1.00  0.00     0.009 A 
BRANCH   8  13
ATOM     13  O   UNL     1      94.891 100.263  69.709  1.00  0.00    -0.493 OA
ATOM     14  C   UNL     1      93.696 100.015  68.945  1.00  0.00     0.278 C 
ENDBRANCH   8  13
BRANCH   9  15
ATOM     15  O   UNL     1      97.282  98.886  69.276  1.00  0.00    -0.504 OA
ATOM     16  H   UNL     1      98.088  98.365  69.309  1.00  0.00     0.293 HD
ENDBRANCH   9  15
ENDBRANCH   6   7
ENDBRANCH   3   6
ENDBRANCH   1   2
BRANCH   1  17
ATOM     17  C   UNL     1      94.502  97.406  78.010  1.00  0.00     0.010 C 
BRANCH  17  18
ATOM     18  C   UNL     1      94.484  95.858  78.141  1.00  0.00     0.001 C 
BRANCH  18  19
ATOM     19  C   UNL     1      93.069  95.242  77.978  1.00  0.00     0.000 C 
BRANCH  19  20
ATOM     20  C   UNL     1      92.104  96.184  77.201  1.00  0.00     0.003 C 
BRANCH  20  21
ATOM     21  C   UNL     1      91.263  95.489  76.081  1.00  0.00    -0.017 C 
ATOM     22  C   UNL     1      90.005  94.794  76.680  1.00  0.00     0.007 C 
ATOM     23  C   UNL     1      92.092  94.467  75.249  1.00  0.00     0.007 C 
ENDBRANCH  20  21
ENDBRANCH  19  20
ENDBRANCH  18  19
ENDBRANCH  17  18
ENDBRANCH   1  17
TORSDOF 10
ENDMDL
MODEL 10
REMARK VINA RESULT:    -5.392     31.310     35.165
REMARK INTER + INTRA:          -9.004
REMARK INTER:                  -8.347
REMARK INTRA:                  -0.657
REMARK UNBOUND:                -0.617
REMARK SMILES COc1cc(CNC(=O)CCCCCC(C)C)ccc1O
REMARK SMILES IDX 10 1 8 2 7 3 9 5 6 6 5 7 3 8 20 9 4 10 19 11 18 12 2 13 1 14
REMARK SMILES IDX 21 15 11 17 12 18 13 19 14 20 15 21 16 22 17 23
REMARK H PARENT 7 4 21 16
REMARK Flexibility Score: inf
ROOT
ATOM      1  C   UNL     1      94.604  97.755  73.836  1.00  0.00     0.100 C 
ENDROOT
BRANCH   1   2
ATOM      2  C   UNL     1      94.490  98.073  72.398  1.00  0.00     0.220 C 
ATOM      3  N   UNL     1      93.724  99.129  72.004  1.00  0.00    -0.352 N 
ATOM      4  H   UNL     1      93.170  99.549  72.736  1.00  0.00     0.163 HD
ATOM      5  O   UNL     1      95.137  97.387  71.569  1.00  0.00    -0.275 OA
BRANCH   3   6
ATOM      6  C   UNL     1      93.664  99.650  70.676  1.00  0.00     0.151 C 
BRANCH   6   7
ATOM      7  C   UNL     1      92.303 100.113  70.291  1.00  0.00    -0.025 A 
ATOM      8  C   UNL     1      90.726 100.909  68.580  1.00  0.00     0.160 A 
ATOM      9  C   UNL     1      89.695 100.930  69.544  1.00  0.00     0.157 A 
ATOM     10  C   UNL     1      92.027 100.519  68.964  1.00  0.00     0.056 A 
ATOM     11  C   UNL     1      89.965 100.554  70.872  1.00  0.00     0.050 A 
ATOM     12  C   UNL     1      91.257 100.144  71.242  1.00  0.00     0.009 A 
BRANCH   8  13
ATOM     13  O   UNL     1      90.489 101.290  67.286  1.00  0.00    -0.493 OA
ATOM     14  C   UNL     1      91.676 101.674  66.565  1.00  0.00     0.278 C 
ENDBRANCH   8  13
BRANCH   9  15
ATOM     15  O   UNL     1      88.442 101.306  69.186  1.00  0.00    -0.504 OA
ATOM     16  H   UNL     1      88.490 101.939  68.466  1.00  0.00     0.293 HD
ENDBRANCH   9  15
ENDBRANCH   6   7
ENDBRANCH   3   6
ENDBRANCH   1   2
BRANCH   1  17
ATOM     17  C   UNL     1      94.046  96.361  74.228  1.00  0.00     0.010 C 
BRANCH  17  18
ATOM     18  C   UNL     1      93.585  96.325  75.711  1.00  0.00     0.001 C 
BRANCH  18  19
ATOM     19  C   UNL     1      93.484  94.889  76.291  1.00  0.00     0.000 C 
BRANCH  19  20
ATOM     20  C   UNL     1      92.097  94.612  76.939  1.00  0.00     0.003 C 
BRANCH  20  21
ATOM     21  C   UNL     1      90.877  94.749  75.972  1.00  0.00    -0.017 C 
ATOM     22  C   UNL     1      89.540  94.466  76.720  1.00  0.00     0.007 C 
ATOM     23  C   UNL     1      90.992  93.831  74.720  1.00  0.00     0.007 C 
ENDBRANCH  20  21
ENDBRANCH  19  20
ENDBRANCH  18  19
ENDBRANCH  17  18
ENDBRANCH   1  17
TORSDOF 10
ENDMDL
