MODEL 1
REMARK VINA RESULT:    -6.815      0.000      0.000
REMARK INTER + INTRA:         -12.504
REMARK INTER:                 -11.198
REMARK INTRA:                  -1.306
REMARK UNBOUND:                -1.306
REMARK SMILES CCCCC[C@H](O)CC(=O)CCc1ccc(O)c(OC)c1
REMARK SMILES IDX 8 1 6 2 7 3 5 5 4 6 3 7 2 8 1 9 9 10 10 11 11 12 12 13 13 14
REMARK SMILES IDX 21 15 14 16 18 17 15 18 16 19 19 20 20 21 17 22
REMARK H PARENT 7 4 17 23
REMARK Flexibility Score: inf
ROOT
ATOM      1  C   UNL     1      91.978  93.638  76.810  1.00  0.00     0.107 C 
ENDROOT
BRANCH   1   2
ATOM      2  C   UNL     1      92.704  93.827  75.475  1.00  0.00     0.121 C 
BRANCH   2   3
ATOM      3  O   UNL     1      91.825  93.508  74.398  1.00  0.00    -0.393 OA
ATOM      4  H   UNL     1      90.921  93.461  74.756  1.00  0.00     0.210 HD
ENDBRANCH   2   3
BRANCH   2   5
ATOM      5  C   UNL     1      93.243  95.249  75.282  1.00  0.00     0.032 C 
BRANCH   5   6
ATOM      6  C   UNL     1      94.776  95.291  75.294  1.00  0.00     0.003 C 
BRANCH   6   7
ATOM      7  C   UNL     1      95.419  93.915  75.499  1.00  0.00    -0.000 C 
BRANCH   7   8
ATOM      8  C   UNL     1      96.313  93.834  76.734  1.00  0.00    -0.003 C 
ATOM      9  C   UNL     1      95.517  94.056  78.011  1.00  0.00     0.004 C 
ENDBRANCH   7   8
ENDBRANCH   6   7
ENDBRANCH   5   6
ENDBRANCH   2   5
ENDBRANCH   1   2
BRANCH   1  10
ATOM     10  C   UNL     1      90.486  93.912  76.721  1.00  0.00     0.135 C 
ATOM     11  O   UNL     1      90.064  94.990  76.303  1.00  0.00    -0.300 OA
BRANCH  10  12
ATOM     12  C   UNL     1      89.559  92.777  77.129  1.00  0.00     0.080 C 
BRANCH  12  13
ATOM     13  C   UNL     1      90.262  91.652  77.890  1.00  0.00     0.043 C 
BRANCH  13  14
ATOM     14  C   UNL     1      90.334  90.362  77.107  1.00  0.00    -0.044 A 
ATOM     15  C   UNL     1      90.598  90.391  75.738  1.00  0.00     0.054 A 
ATOM     16  C   UNL     1      90.137  89.142  77.754  1.00  0.00     0.008 A 
ATOM     17  C   UNL     1      90.665  89.200  75.016  1.00  0.00     0.160 A 
ATOM     18  C   UNL     1      90.204  87.950  77.032  1.00  0.00     0.050 A 
ATOM     19  C   UNL     1      90.468  87.979  75.663  1.00  0.00     0.157 A 
BRANCH  17  20
ATOM     20  O   UNL     1      90.923  89.240  73.678  1.00  0.00    -0.493 OA
ATOM     21  C   UNL     1      89.938  89.852  72.847  1.00  0.00     0.278 C 
ENDBRANCH  17  20
BRANCH  19  22
ATOM     22  O   UNL     1      90.531  86.810  74.968  1.00  0.00    -0.504 OA
ATOM     23  H   UNL     1      89.779  86.248  75.224  1.00  0.00     0.293 HD
ENDBRANCH  19  22
ENDBRANCH  13  14
ENDBRANCH  12  13
ENDBRANCH  10  12
ENDBRANCH   1  10
TORSDOF 12
ENDMDL
MODEL 2
REMARK VINA RESULT:    -6.543      1.751      3.188
REMARK INTER + INTRA:         -12.057
REMARK INTER:                 -10.758
REMARK INTRA:                  -1.300
REMARK UNBOUND:                -1.306
REMARK SMILES CCCCC[C@H](O)CC(=O)CCc1ccc(O)c(OC)c1
REMARK SMILES IDX 8 1 6 2 7 3 5 5 4 6 3 7 2 8 1 9 9 10 10 11 11 12 12 13 13 14
REMARK SMILES IDX 21 15 14 16 18 17 15 18 16 19 19 20 20 21 17 22
REMARK H PARENT 7 4 17 23
REMARK Flexibility Score: inf
ROOT
ATOM      1  C   UNL     1      92.062  93.637  77.003  1.00  0.00     0.107 C 
ENDROOT
BRANCH   1   2
ATOM      2  C   UNL     1      92.930  93.980  75.790  1.00  0.00     0.121 C 
BRANCH   2   3
ATOM      3  O   UNL     1      94.284  94.162  76.200  1.00  0.00    -0.393 OA
ATOM      4  H   UNL     1      94.854  93.973  75.434  1.00  0.00     0.210 HD
ENDBRANCH   2   3
BRANCH   2   5
ATOM      5  C   UNL     1      92.875  92.911  74.692  1.00  0.00     0.032 C 
BRANCH   5   6
ATOM      6  C   UNL     1      91.514  92.882  73.984  1.00  0.00     0.003 C 
BRANCH   6   7
ATOM      7  C   UNL     1      91.407  91.784  72.921  1.00  0.00    -0.000 C 
BRANCH   7   8
ATOM      8  C   UNL     1      90.298  92.027  71.899  1.00  0.00    -0.003 C 
ATOM      9  C   UNL     1      89.430  93.212  72.295  1.00  0.00     0.004 C 
ENDBRANCH   7   8
ENDBRANCH   6   7
ENDBRANCH   5   6
ENDBRANCH   2   5
ENDBRANCH   1   2
BRANCH   1  10
ATOM     10  C   UNL     1      90.612  94.060  76.836  1.00  0.00     0.135 C 
ATOM     11  O   UNL     1      90.323  95.180  76.416  1.00  0.00    -0.300 OA
BRANCH  10  12
ATOM     12  C   UNL     1      89.555  93.017  77.170  1.00  0.00     0.080 C 
BRANCH  12  13
ATOM     13  C   UNL     1      90.121  91.756  77.825  1.00  0.00     0.043 C 
BRANCH  13  14
ATOM     14  C   UNL     1      89.880  90.507  77.011  1.00  0.00    -0.044 A 
ATOM     15  C   UNL     1      89.407  90.607  75.703  1.00  0.00     0.054 A 
ATOM     16  C   UNL     1      90.131  89.253  77.568  1.00  0.00     0.008 A 
ATOM     17  C   UNL     1      89.185  89.452  74.952  1.00  0.00     0.160 A 
ATOM     18  C   UNL     1      89.910  88.098  76.817  1.00  0.00     0.050 A 
ATOM     19  C   UNL     1      89.437  88.198  75.509  1.00  0.00     0.157 A 
BRANCH  17  20
ATOM     20  O   UNL     1      88.722  89.562  73.675  1.00  0.00    -0.493 OA
ATOM     21  C   UNL     1      87.515  90.298  73.485  1.00  0.00     0.278 C 
ENDBRANCH  17  20
BRANCH  19  22
ATOM     22  O   UNL     1      89.224  87.064  74.786  1.00  0.00    -0.504 OA
ATOM     23  H   UNL     1      88.406  87.166  74.270  1.00  0.00     0.293 HD
ENDBRANCH  19  22
ENDBRANCH  13  14
ENDBRANCH  12  13
ENDBRANCH  10  12
ENDBRANCH   1  10
TORSDOF 12
ENDMDL
MODEL 3
REMARK VINA RESULT:    -6.302     12.884     16.060
REMARK INTER + INTRA:         -11.661
REMARK INTER:                  -9.642
REMARK INTRA:                  -2.019
REMARK UNBOUND:                -1.306
REMARK SMILES CCCCC[C@H](O)CC(=O)CCc1ccc(O)c(OC)c1
REMARK SMILES IDX 8 1 6 2 7 3 5 5 4 6 3 7 2 8 1 9 9 10 10 11 11 12 12 13 13 14
REMARK SMILES IDX 21 15 14 16 18 17 15 18 16 19 19 20 20 21 17 22
REMARK H PARENT 7 4 17 23
REMARK Flexibility Score: inf
ROOT
ATOM      1  C   UNL     1      80.539  85.804  85.383  1.00  0.00     0.107 C 
ENDROOT
BRANCH   1   2
ATOM      2  C   UNL     1      81.839  85.835  86.192  1.00  0.00     0.121 C 
BRANCH   2   3
ATOM      3  O   UNL     1      82.834  86.565  85.479  1.00  0.00    -0.393 OA
ATOM      4  H   UNL     1      82.959  87.418  85.930  1.00  0.00     0.210 HD
ENDBRANCH   2   3
BRANCH   2   5
ATOM      5  C   UNL     1      81.663  86.450  87.586  1.00  0.00     0.032 C 
BRANCH   5   6
ATOM      6  C   UNL     1      80.186  86.607  87.965  1.00  0.00     0.003 C 
BRANCH   6   7
ATOM      7  C   UNL     1      79.945  86.611  89.478  1.00  0.00    -0.000 C 
BRANCH   7   8
ATOM      8  C   UNL     1      79.843  88.012  90.078  1.00  0.00    -0.003 C 
ATOM      9  C   UNL     1      78.413  88.530  90.035  1.00  0.00     0.004 C 
ENDBRANCH   7   8
ENDBRANCH   6   7
ENDBRANCH   5   6
ENDBRANCH   2   5
ENDBRANCH   1   2
BRANCH   1  10
ATOM     10  C   UNL     1      80.532  86.795  84.230  1.00  0.00     0.135 C 
ATOM     11  O   UNL     1      81.040  86.508  83.146  1.00  0.00    -0.300 OA
BRANCH  10  12
ATOM     12  C   UNL     1      79.829  88.121  84.476  1.00  0.00     0.080 C 
BRANCH  12  13
ATOM     13  C   UNL     1      80.673  89.342  84.104  1.00  0.00     0.043 C 
BRANCH  13  14
ATOM     14  C   UNL     1      81.506  89.858  85.253  1.00  0.00    -0.044 A 
ATOM     15  C   UNL     1      82.840  90.209  85.046  1.00  0.00     0.054 A 
ATOM     16  C   UNL     1      80.941  89.982  86.523  1.00  0.00     0.008 A 
ATOM     17  C   UNL     1      83.608  90.686  86.108  1.00  0.00     0.160 A 
ATOM     18  C   UNL     1      81.709  90.460  87.585  1.00  0.00     0.050 A 
ATOM     19  C   UNL     1      83.043  90.811  87.377  1.00  0.00     0.157 A 
BRANCH  17  20
ATOM     20  O   UNL     1      84.910  91.026  85.893  1.00  0.00    -0.493 OA
ATOM     21  C   UNL     1      85.853  89.959  85.810  1.00  0.00     0.278 C 
ENDBRANCH  17  20
BRANCH  19  22
ATOM     22  O   UNL     1      83.783  91.276  88.422  1.00  0.00    -0.504 OA
ATOM     23  H   UNL     1      84.519  90.662  88.587  1.00  0.00     0.293 HD
ENDBRANCH  19  22
ENDBRANCH  13  14
ENDBRANCH  12  13
ENDBRANCH  10  12
ENDBRANCH   1  10
TORSDOF 12
ENDMDL
MODEL 4
REMARK VINA RESULT:    -6.155     12.941     15.890
REMARK INTER + INTRA:         -11.419
REMARK INTER:                  -9.575
REMARK INTRA:                  -1.843
REMARK UNBOUND:                -1.306
REMARK SMILES CCCCC[C@H](O)CC(=O)CCc1ccc(O)c(OC)c1
REMARK SMILES IDX 8 1 6 2 7 3 5 5 4 6 3 7 2 8 1 9 9 10 10 11 11 12 12 13 13 14
REMARK SMILES IDX 21 15 14 16 18 17 15 18 16 19 19 20 20 21 17 22
REMARK H PARENT 7 4 17 23
REMARK Flexibility Score: inf
ROOT
ATOM      1  C   UNL     1      79.896  86.236  85.252  1.00  0.00     0.107 C 
ENDROOT
BRANCH   1   2
ATOM      2  C   UNL     1      81.220  85.498  85.466  1.00  0.00     0.121 C 
BRANCH   2   3
ATOM      3  O   UNL     1      81.694  84.985  84.224  1.00  0.00    -0.393 OA
ATOM      4  H   UNL     1      81.024  84.369  83.881  1.00  0.00     0.210 HD
ENDBRANCH   2   3
BRANCH   2   5
ATOM      5  C   UNL     1      82.305  86.381  86.095  1.00  0.00     0.032 C 
BRANCH   5   6
ATOM      6  C   UNL     1      81.796  87.121  87.338  1.00  0.00     0.003 C 
BRANCH   6   7
ATOM      7  C   UNL     1      81.455  86.186  88.503  1.00  0.00    -0.000 C 
BRANCH   7   8
ATOM      8  C   UNL     1      80.121  86.507  89.175  1.00  0.00    -0.003 C 
ATOM      9  C   UNL     1      80.212  87.775  90.010  1.00  0.00     0.004 C 
ENDBRANCH   7   8
ENDBRANCH   6   7
ENDBRANCH   5   6
ENDBRANCH   2   5
ENDBRANCH   1   2
BRANCH   1  10
ATOM     10  C   UNL     1      79.981  87.310  84.179  1.00  0.00     0.135 C 
ATOM     11  O   UNL     1      80.212  87.017  83.007  1.00  0.00    -0.300 OA
BRANCH  10  12
ATOM     12  C   UNL     1      79.722  88.741  84.626  1.00  0.00     0.080 C 
BRANCH  12  13
ATOM     13  C   UNL     1      80.747  89.746  84.097  1.00  0.00     0.043 C 
BRANCH  13  14
ATOM     14  C   UNL     1      81.891  89.984  85.054  1.00  0.00    -0.044 A 
ATOM     15  C   UNL     1      81.642  90.509  86.321  1.00  0.00     0.054 A 
ATOM     16  C   UNL     1      83.196  89.678  84.669  1.00  0.00     0.008 A 
ATOM     17  C   UNL     1      82.699  90.728  87.205  1.00  0.00     0.160 A 
ATOM     18  C   UNL     1      84.254  89.896  85.552  1.00  0.00     0.050 A 
ATOM     19  C   UNL     1      84.005  90.422  86.820  1.00  0.00     0.157 A 
BRANCH  17  20
ATOM     20  O   UNL     1      82.444  91.242  88.440  1.00  0.00    -0.493 OA
ATOM     21  C   UNL     1      82.427  92.663  88.560  1.00  0.00     0.278 C 
ENDBRANCH  17  20
BRANCH  19  22
ATOM     22  O   UNL     1      85.046  90.631  87.674  1.00  0.00    -0.504 OA
ATOM     23  H   UNL     1      84.834  91.384  88.252  1.00  0.00     0.293 HD
ENDBRANCH  19  22
ENDBRANCH  13  14
ENDBRANCH  12  13
ENDBRANCH  10  12
ENDBRANCH   1  10
TORSDOF 12
ENDMDL
MODEL 5
REMARK VINA RESULT:    -6.135      2.004      3.259
REMARK INTER + INTRA:         -11.386
REMARK INTER:                 -10.291
REMARK INTRA:                  -1.095
REMARK UNBOUND:                -1.306
REMARK SMILES CCCCC[C@H](O)CC(=O)CCc1ccc(O)c(OC)c1
REMARK SMILES IDX 8 1 6 2 7 3 5 5 4 6 3 7 2 8 1 9 9 10 10 11 11 12 12 13 13 14
REMARK SMILES IDX 21 15 14 16 18 17 15 18 16 19 19 20 20 21 17 22
REMARK H PARENT 7 4 17 23
REMARK Flexibility Score: inf
ROOT
ATOM      1  C   UNL     1      93.942  93.749  75.477  1.00  0.00     0.107 C 
ENDROOT
BRANCH   1   2
ATOM      2  C   UNL     1      94.520  94.400  76.735  1.00  0.00     0.121 C 
BRANCH   2   3
ATOM      3  O   UNL     1      95.065  93.399  77.591  1.00  0.00    -0.393 OA
ATOM      4  H   UNL     1      95.495  92.730  77.030  1.00  0.00     0.210 HD
ENDBRANCH   2   3
BRANCH   2   5
ATOM      5  C   UNL     1      95.601  95.444  76.428  1.00  0.00     0.032 C 
BRANCH   5   6
ATOM      6  C   UNL     1      95.682  95.766  74.931  1.00  0.00     0.003 C 
BRANCH   6   7
ATOM      7  C   UNL     1      95.318  97.218  74.602  1.00  0.00    -0.000 C 
BRANCH   7   8
ATOM      8  C   UNL     1      94.042  97.356  73.774  1.00  0.00    -0.003 C 
ATOM      9  C   UNL     1      94.319  98.025  72.437  1.00  0.00     0.004 C 
ENDBRANCH   7   8
ENDBRANCH   6   7
ENDBRANCH   5   6
ENDBRANCH   2   5
ENDBRANCH   1   2
BRANCH   1  10
ATOM     10  C   UNL     1      92.504  94.158  75.201  1.00  0.00     0.135 C 
ATOM     11  O   UNL     1      92.008  94.013  74.084  1.00  0.00    -0.300 OA
BRANCH  10  12
ATOM     12  C   UNL     1      91.714  94.706  76.380  1.00  0.00     0.080 C 
BRANCH  12  13
ATOM     13  C   UNL     1      90.253  94.252  76.405  1.00  0.00     0.043 C 
BRANCH  13  14
ATOM     14  C   UNL     1      90.095  92.787  76.736  1.00  0.00    -0.044 A 
ATOM     15  C   UNL     1      89.564  91.911  75.790  1.00  0.00     0.054 A 
ATOM     16  C   UNL     1      90.479  92.311  77.990  1.00  0.00     0.008 A 
ATOM     17  C   UNL     1      89.419  90.558  76.097  1.00  0.00     0.160 A 
ATOM     18  C   UNL     1      90.334  90.958  78.297  1.00  0.00     0.050 A 
ATOM     19  C   UNL     1      89.804  90.081  77.351  1.00  0.00     0.157 A 
BRANCH  17  20
ATOM     20  O   UNL     1      88.899  89.711  75.165  1.00  0.00    -0.493 OA
ATOM     21  C   UNL     1      88.867  90.174  73.816  1.00  0.00     0.278 C 
ENDBRANCH  17  20
BRANCH  19  22
ATOM     22  O   UNL     1      89.667  88.763  77.662  1.00  0.00    -0.504 OA
ATOM     23  H   UNL     1      89.814  88.645  78.617  1.00  0.00     0.293 HD
ENDBRANCH  19  22
ENDBRANCH  13  14
ENDBRANCH  12  13
ENDBRANCH  10  12
ENDBRANCH   1  10
TORSDOF 12
ENDMDL
MODEL 6
REMARK VINA RESULT:    -5.608      3.251      7.484
REMARK INTER + INTRA:         -10.520
REMARK INTER:                  -9.371
REMARK INTRA:                  -1.148
REMARK UNBOUND:                -1.306
REMARK SMILES CCCCC[C@H](O)CC(=O)CCc1ccc(O)c(OC)c1
REMARK SMILES IDX 8 1 6 2 7 3 5 5 4 6 3 7 2 8 1 9 9 10 10 11 11 12 12 13 13 14
REMARK SMILES IDX 21 15 14 16 18 17 15 18 16 19 19 20 20 21 17 22
REMARK H PARENT 7 4 17 23
REMARK Flexibility Score: inf
ROOT
ATOM      1  C   UNL     1      92.926  92.958  74.903  1.00  0.00     0.107 C 
ENDROOT
BRANCH   1   2
ATOM      2  C   UNL     1      91.880  92.663  73.825  1.00  0.00     0.121 C 
BRANCH   2   3
ATOM      3  O   UNL     1      92.144  91.396  73.229  1.00  0.00    -0.393 OA
ATOM      4  H   UNL     1      91.982  91.477  72.272  1.00  0.00     0.210 HD
ENDBRANCH   2   3
BRANCH   2   5
ATOM      5  C   UNL     1      90.444  92.678  74.364  1.00  0.00     0.032 C 
BRANCH   5   6
ATOM      6  C   UNL     1      89.942  91.270  74.706  1.00  0.00     0.003 C 
BRANCH   6   7
ATOM      7  C   UNL     1      89.234  91.191  76.063  1.00  0.00    -0.000 C 
BRANCH   7   8
ATOM      8  C   UNL     1      89.649  92.295  77.034  1.00  0.00    -0.003 C 
ATOM      9  C   UNL     1      90.645  91.782  78.063  1.00  0.00     0.004 C 
ENDBRANCH   7   8
ENDBRANCH   6   7
ENDBRANCH   5   6
ENDBRANCH   2   5
ENDBRANCH   1   2
BRANCH   1  10
ATOM     10  C   UNL     1      92.924  94.410  75.354  1.00  0.00     0.135 C 
ATOM     11  O   UNL     1      93.024  95.326  74.538  1.00  0.00    -0.300 OA
BRANCH  10  12
ATOM     12  C   UNL     1      92.749  94.661  76.843  1.00  0.00     0.080 C 
BRANCH  12  13
ATOM     13  C   UNL     1      93.622  93.767  77.725  1.00  0.00     0.043 C 
BRANCH  13  14
ATOM     14  C   UNL     1      94.896  94.443  78.175  1.00  0.00    -0.044 A 
ATOM     15  C   UNL     1      95.197  94.530  79.534  1.00  0.00     0.054 A 
ATOM     16  C   UNL     1      95.771  94.980  77.230  1.00  0.00     0.008 A 
ATOM     17  C   UNL     1      96.374  95.153  79.948  1.00  0.00     0.160 A 
ATOM     18  C   UNL     1      96.948  95.603  77.645  1.00  0.00     0.050 A 
ATOM     19  C   UNL     1      97.249  95.690  79.004  1.00  0.00     0.157 A 
BRANCH  17  20
ATOM     20  O   UNL     1      96.657  95.233  81.279  1.00  0.00    -0.493 OA
ATOM     21  C   UNL     1      96.173  96.379  81.977  1.00  0.00     0.278 C 
ENDBRANCH  17  20
BRANCH  19  22
ATOM     22  O   UNL     1      98.401  96.302  79.396  1.00  0.00    -0.504 OA
ATOM     23  H   UNL     1      98.182  97.146  79.826  1.00  0.00     0.293 HD
ENDBRANCH  19  22
ENDBRANCH  13  14
ENDBRANCH  12  13
ENDBRANCH  10  12
ENDBRANCH   1  10
TORSDOF 12
ENDMDL
MODEL 7
REMARK VINA RESULT:    -5.531     13.967     16.791
REMARK INTER + INTRA:         -10.394
REMARK INTER:                  -8.364
REMARK INTRA:                  -2.030
REMARK UNBOUND:                -1.306
REMARK SMILES CCCCC[C@H](O)CC(=O)CCc1ccc(O)c(OC)c1
REMARK SMILES IDX 8 1 6 2 7 3 5 5 4 6 3 7 2 8 1 9 9 10 10 11 11 12 12 13 13 14
REMARK SMILES IDX 21 15 14 16 18 17 15 18 16 19 19 20 20 21 17 22
REMARK H PARENT 7 4 17 23
REMARK Flexibility Score: inf
ROOT
ATOM      1  C   UNL     1      80.172  87.027  85.176  1.00  0.00     0.107 C 
ENDROOT
BRANCH   1   2
ATOM      2  C   UNL     1      80.966  85.770  85.540  1.00  0.00     0.121 C 
BRANCH   2   3
ATOM      3  O   UNL     1      81.370  85.094  84.352  1.00  0.00    -0.393 OA
ATOM      4  H   UNL     1      80.566  84.847  83.862  1.00  0.00     0.210 HD
ENDBRANCH   2   3
BRANCH   2   5
ATOM      5  C   UNL     1      82.202  86.068  86.396  1.00  0.00     0.032 C 
BRANCH   5   6
ATOM      6  C   UNL     1      81.857  86.899  87.638  1.00  0.00     0.003 C 
BRANCH   6   7
ATOM      7  C   UNL     1      80.956  86.158  88.632  1.00  0.00    -0.000 C 
BRANCH   7   8
ATOM      8  C   UNL     1      79.978  87.070  89.370  1.00  0.00    -0.003 C 
ATOM      9  C   UNL     1      80.657  87.795  90.522  1.00  0.00     0.004 C 
ENDBRANCH   7   8
ENDBRANCH   6   7
ENDBRANCH   5   6
ENDBRANCH   2   5
ENDBRANCH   1   2
BRANCH   1  10
ATOM     10  C   UNL     1      80.868  87.893  84.139  1.00  0.00     0.135 C 
ATOM     11  O   UNL     1      81.297  87.405  83.093  1.00  0.00    -0.300 OA
BRANCH  10  12
ATOM     12  C   UNL     1      80.961  89.380  84.443  1.00  0.00     0.080 C 
BRANCH  12  13
ATOM     13  C   UNL     1      82.088  89.740  85.412  1.00  0.00     0.043 C 
BRANCH  13  14
ATOM     14  C   UNL     1      81.586  90.274  86.732  1.00  0.00    -0.044 A 
ATOM     15  C   UNL     1      82.477  90.857  87.634  1.00  0.00     0.054 A 
ATOM     16  C   UNL     1      80.230  90.185  87.050  1.00  0.00     0.008 A 
ATOM     17  C   UNL     1      82.011  91.350  88.853  1.00  0.00     0.160 A 
ATOM     18  C   UNL     1      79.765  90.679  88.268  1.00  0.00     0.050 A 
ATOM     19  C   UNL     1      80.655  91.261  89.170  1.00  0.00     0.157 A 
BRANCH  17  20
ATOM     20  O   UNL     1      82.891  91.917  89.726  1.00  0.00    -0.493 OA
ATOM     21  C   UNL     1      83.904  91.070  90.266  1.00  0.00     0.278 C 
ENDBRANCH  17  20
BRANCH  19  22
ATOM     22  O   UNL     1      80.189  91.739  90.357  1.00  0.00    -0.504 OA
ATOM     23  H   UNL     1      80.889  91.659  91.028  1.00  0.00     0.293 HD
ENDBRANCH  19  22
ENDBRANCH  13  14
ENDBRANCH  12  13
ENDBRANCH  10  12
ENDBRANCH   1  10
TORSDOF 12
ENDMDL
MODEL 8
REMARK VINA RESULT:    -5.516     13.290     15.960
REMARK INTER + INTRA:         -10.369
REMARK INTER:                  -8.732
REMARK INTRA:                  -1.637
REMARK UNBOUND:                -1.306
REMARK SMILES CCCCC[C@H](O)CC(=O)CCc1ccc(O)c(OC)c1
REMARK SMILES IDX 8 1 6 2 7 3 5 5 4 6 3 7 2 8 1 9 9 10 10 11 11 12 12 13 13 14
REMARK SMILES IDX 21 15 14 16 18 17 15 18 16 19 19 20 20 21 17 22
REMARK H PARENT 7 4 17 23
REMARK Flexibility Score: inf
ROOT
ATOM      1  C   UNL     1      83.051  90.263  84.879  1.00  0.00     0.107 C 
ENDROOT
BRANCH   1   2
ATOM      2  C   UNL     1      82.881  88.742  84.859  1.00  0.00     0.121 C 
BRANCH   2   3
ATOM      3  O   UNL     1      84.019  88.121  85.452  1.00  0.00    -0.393 OA
ATOM      4  H   UNL     1      83.720  87.651  86.250  1.00  0.00     0.210 HD
ENDBRANCH   2   3
BRANCH   2   5
ATOM      5  C   UNL     1      81.614  88.270  85.582  1.00  0.00     0.032 C 
BRANCH   5   6
ATOM      6  C   UNL     1      80.396  89.135  85.234  1.00  0.00     0.003 C 
BRANCH   6   7
ATOM      7  C   UNL     1      79.346  88.396  84.398  1.00  0.00    -0.000 C 
BRANCH   7   8
ATOM      8  C   UNL     1      79.758  86.975  84.015  1.00  0.00    -0.003 C 
ATOM      9  C   UNL     1      80.115  86.880  82.540  1.00  0.00     0.004 C 
ENDBRANCH   7   8
ENDBRANCH   6   7
ENDBRANCH   5   6
ENDBRANCH   2   5
ENDBRANCH   1   2
BRANCH   1  10
ATOM     10  C   UNL     1      84.338  90.710  85.553  1.00  0.00     0.135 C 
ATOM     11  O   UNL     1      85.421  90.611  84.977  1.00  0.00    -0.300 OA
BRANCH  10  12
ATOM     12  C   UNL     1      84.205  91.320  86.940  1.00  0.00     0.080 C 
BRANCH  12  13
ATOM     13  C   UNL     1      82.763  91.384  87.448  1.00  0.00     0.043 C 
BRANCH  13  14
ATOM     14  C   UNL     1      82.473  90.376  88.534  1.00  0.00    -0.044 A 
ATOM     15  C   UNL     1      81.212  89.786  88.620  1.00  0.00     0.054 A 
ATOM     16  C   UNL     1      83.467  90.035  89.452  1.00  0.00     0.008 A 
ATOM     17  C   UNL     1      80.946  88.854  89.624  1.00  0.00     0.160 A 
ATOM     18  C   UNL     1      83.201  89.103  90.455  1.00  0.00     0.050 A 
ATOM     19  C   UNL     1      81.940  88.513  90.541  1.00  0.00     0.157 A 
BRANCH  17  20
ATOM     20  O   UNL     1      79.710  88.285  89.698  1.00  0.00    -0.493 OA
ATOM     21  C   UNL     1      79.419  87.245  88.767  1.00  0.00     0.278 C 
ENDBRANCH  17  20
BRANCH  19  22
ATOM     22  O   UNL     1      81.691  87.605  91.525  1.00  0.00    -0.504 OA
ATOM     23  H   UNL     1      81.184  86.864  91.151  1.00  0.00     0.293 HD
ENDBRANCH  19  22
ENDBRANCH  13  14
ENDBRANCH  12  13
ENDBRANCH  10  12
ENDBRANCH   1  10
TORSDOF 12
ENDMDL
MODEL 9
REMARK VINA RESULT:    -5.323     13.188     16.188
REMARK INTER + INTRA:         -10.051
REMARK INTER:                  -8.309
REMARK INTRA:                  -1.743
REMARK UNBOUND:                -1.306
REMARK SMILES CCCCC[C@H](O)CC(=O)CCc1ccc(O)c(OC)c1
REMARK SMILES IDX 8 1 6 2 7 3 5 5 4 6 3 7 2 8 1 9 9 10 10 11 11 12 12 13 13 14
REMARK SMILES IDX 21 15 14 16 18 17 15 18 16 19 19 20 20 21 17 22
REMARK H PARENT 7 4 17 23
REMARK Flexibility Score: inf
ROOT
ATOM      1  C   UNL     1      80.291  86.591  87.515  1.00  0.00     0.107 C 
ENDROOT
BRANCH   1   2
ATOM      2  C   UNL     1      81.707  86.525  86.936  1.00  0.00     0.121 C 
BRANCH   2   3
ATOM      3  O   UNL     1      82.411  85.424  87.505  1.00  0.00    -0.393 OA
ATOM      4  H   UNL     1      83.271  85.752  87.821  1.00  0.00     0.210 HD
ENDBRANCH   2   3
BRANCH   2   5
ATOM      5  C   UNL     1      81.725  86.400  85.408  1.00  0.00     0.032 C 
BRANCH   5   6
ATOM      6  C   UNL     1      82.064  87.731  84.725  1.00  0.00     0.003 C 
BRANCH   6   7
ATOM      7  C   UNL     1      80.846  88.421  84.102  1.00  0.00    -0.000 C 
BRANCH   7   8
ATOM      8  C   UNL     1      80.740  89.905  84.448  1.00  0.00    -0.003 C 
ATOM      9  C   UNL     1      79.437  90.214  85.168  1.00  0.00     0.004 C 
ENDBRANCH   7   8
ENDBRANCH   6   7
ENDBRANCH   5   6
ENDBRANCH   2   5
ENDBRANCH   1   2
BRANCH   1  10
ATOM     10  C   UNL     1      80.268  86.944  88.993  1.00  0.00     0.135 C 
ATOM     11  O   UNL     1      79.768  86.179  89.818  1.00  0.00    -0.300 OA
BRANCH  10  12
ATOM     12  C   UNL     1      80.930  88.254  89.393  1.00  0.00     0.080 C 
BRANCH  12  13
ATOM     13  C   UNL     1      80.376  89.473  88.653  1.00  0.00     0.043 C 
BRANCH  13  14
ATOM     14  C   UNL     1      81.441  90.483  88.298  1.00  0.00    -0.044 A 
ATOM     15  C   UNL     1      82.503  90.117  87.471  1.00  0.00     0.054 A 
ATOM     16  C   UNL     1      81.362  91.784  88.797  1.00  0.00     0.008 A 
ATOM     17  C   UNL     1      83.485  91.051  87.143  1.00  0.00     0.160 A 
ATOM     18  C   UNL     1      82.344  92.718  88.468  1.00  0.00     0.050 A 
ATOM     19  C   UNL     1      83.406  92.352  87.642  1.00  0.00     0.157 A 
BRANCH  17  20
ATOM     20  O   UNL     1      84.518  90.682  86.335  1.00  0.00    -0.493 OA
ATOM     21  C   UNL     1      84.322  90.820  84.928  1.00  0.00     0.278 C 
ENDBRANCH  17  20
BRANCH  19  22
ATOM     22  O   UNL     1      84.359  93.273  87.328  1.00  0.00    -0.504 OA
ATOM     23  H   UNL     1      84.863  92.958  86.558  1.00  0.00     0.293 HD
ENDBRANCH  19  22
ENDBRANCH  13  14
ENDBRANCH  12  13
ENDBRANCH  10  12
ENDBRANCH   1  10
TORSDOF 12
ENDMDL
MODEL 10
REMARK VINA RESULT:    -5.314      5.239      8.221
REMARK INTER + INTRA:         -10.038
REMARK INTER:                  -9.317
REMARK INTRA:                  -0.721
REMARK UNBOUND:                -1.306
REMARK SMILES CCCCC[C@H](O)CC(=O)CCc1ccc(O)c(OC)c1
REMARK SMILES IDX 8 1 6 2 7 3 5 5 4 6 3 7 2 8 1 9 9 10 10 11 11 12 12 13 13 14
REMARK SMILES IDX 21 15 14 16 18 17 15 18 16 19 19 20 20 21 17 22
REMARK H PARENT 7 4 17 23
REMARK Flexibility Score: inf
ROOT
ATOM      1  C   UNL     1      93.753  99.412  71.848  1.00  0.00     0.107 C 
ENDROOT
BRANCH   1   2
ATOM      2  C   UNL     1      93.326  98.965  70.448  1.00  0.00     0.121 C 
BRANCH   2   3
ATOM      3  O   UNL     1      94.075  97.817  70.057  1.00  0.00    -0.393 OA
ATOM      4  H   UNL     1      94.205  97.861  69.094  1.00  0.00     0.210 HD
ENDBRANCH   2   3
BRANCH   2   5
ATOM      5  C   UNL     1      91.828  98.649  70.350  1.00  0.00     0.032 C 
BRANCH   5   6
ATOM      6  C   UNL     1      91.284  98.868  68.933  1.00  0.00     0.003 C 
BRANCH   6   7
ATOM      7  C   UNL     1      90.304  97.779  68.484  1.00  0.00    -0.000 C 
BRANCH   7   8
ATOM      8  C   UNL     1      90.311  97.534  66.977  1.00  0.00    -0.003 C 
ATOM      9  C   UNL     1      89.219  98.331  66.280  1.00  0.00     0.004 C 
ENDBRANCH   7   8
ENDBRANCH   6   7
ENDBRANCH   5   6
ENDBRANCH   2   5
ENDBRANCH   1   2
BRANCH   1  10
ATOM     10  C   UNL     1      94.685  98.423  72.530  1.00  0.00     0.135 C 
ATOM     11  O   UNL     1      95.852  98.296  72.160  1.00  0.00    -0.300 OA
BRANCH  10  12
ATOM     12  C   UNL     1      94.114  97.647  73.707  1.00  0.00     0.080 C 
BRANCH  12  13
ATOM     13  C   UNL     1      95.096  96.647  74.319  1.00  0.00     0.043 C 
BRANCH  13  14
ATOM     14  C   UNL     1      94.438  95.680  75.275  1.00  0.00    -0.044 A 
ATOM     15  C   UNL     1      95.133  95.225  76.395  1.00  0.00     0.054 A 
ATOM     16  C   UNL     1      93.135  95.244  75.037  1.00  0.00     0.008 A 
ATOM     17  C   UNL     1      94.524  94.333  77.278  1.00  0.00     0.160 A 
ATOM     18  C   UNL     1      92.525  94.352  75.920  1.00  0.00     0.050 A 
ATOM     19  C   UNL     1      93.221  93.896  77.040  1.00  0.00     0.157 A 
BRANCH  17  20
ATOM     20  O   UNL     1      95.213  93.894  78.368  1.00  0.00    -0.493 OA
ATOM     21  C   UNL     1      95.244  94.755  79.505  1.00  0.00     0.278 C 
ENDBRANCH  17  20
BRANCH  19  22
ATOM     22  O   UNL     1      92.616  93.025  77.895  1.00  0.00    -0.504 OA
ATOM     23  H   UNL     1      93.284  92.658  78.498  1.00  0.00     0.293 HD
ENDBRANCH  19  22
ENDBRANCH  13  14
ENDBRANCH  12  13
ENDBRANCH  10  12
ENDBRANCH   1  10
TORSDOF 12
ENDMDL
