MODEL 1
REMARK VINA RESULT:    -6.634      0.000      0.000
REMARK INTER + INTRA:         -11.707
REMARK INTER:                 -10.707
REMARK INTRA:                  -1.001
REMARK UNBOUND:                -1.001
REMARK SMILES COc1cc(CNC(=O)CCCCC/C=C/C(C)C)ccc1O
REMARK SMILES IDX 11 1 10 2 8 3 7 4 9 6 6 7 5 8 3 9 22 10 4 11 21 12 20 13
REMARK SMILES IDX 2 14 1 15 23 16 12 18 13 19 14 20 15 21 16 22 17 23 18 24
REMARK SMILES IDX 19 25
REMARK H PARENT 7 5 23 17
REMARK Flexibility Score: inf
ROOT
ATOM      1  C   UNL     1      90.968  94.088  76.477  1.00  0.00     0.010 C 
ENDROOT
BRANCH   1   2
ATOM      2  C   UNL     1      92.125  93.323  77.170  1.00  0.00     0.100 C 
BRANCH   2   3
ATOM      3  C   UNL     1      93.412  94.043  77.158  1.00  0.00     0.220 C 
ATOM      4  N   UNL     1      94.374  93.727  78.068  1.00  0.00    -0.352 N 
ATOM      5  H   UNL     1      94.094  93.043  78.758  1.00  0.00     0.163 HD
ATOM      6  O   UNL     1      93.602  94.909  76.271  1.00  0.00    -0.275 OA
BRANCH   4   7
ATOM      7  C   UNL     1      95.692  94.273  78.107  1.00  0.00     0.151 C 
BRANCH   7   8
ATOM      8  C   UNL     1      96.042  94.828  79.440  1.00  0.00    -0.025 A 
ATOM      9  C   UNL     1      97.593  96.053  80.903  1.00  0.00     0.160 A 
ATOM     10  C   UNL     1      96.730  95.835  81.999  1.00  0.00     0.157 A 
ATOM     11  C   UNL     1      97.248  95.540  79.636  1.00  0.00     0.056 A 
ATOM     12  C   UNL     1      95.520  95.142  81.812  1.00  0.00     0.050 A 
ATOM     13  C   UNL     1      95.173  94.651  80.540  1.00  0.00     0.009 A 
BRANCH   9  14
ATOM     14  O   UNL     1      98.731  96.801  81.055  1.00  0.00    -0.493 OA
ATOM     15  C   UNL     1      99.947  96.036  81.019  1.00  0.00     0.278 C 
ENDBRANCH   9  14
BRANCH  10  16
ATOM     16  O   UNL     1      97.039  96.287  83.240  1.00  0.00    -0.504 OA
ATOM     17  H   UNL     1      96.522  97.074  83.432  1.00  0.00     0.293 HD
ENDBRANCH  10  16
ENDBRANCH   7   8
ENDBRANCH   4   7
ENDBRANCH   2   3
ENDBRANCH   1   2
BRANCH   1  18
ATOM     18  C   UNL     1      90.319  93.230  75.361  1.00  0.00     0.001 C 
BRANCH  18  19
ATOM     19  C   UNL     1      91.120  93.224  74.034  1.00  0.00     0.004 C 
BRANCH  19  20
ATOM     20  C   UNL     1      91.863  91.875  73.827  1.00  0.00     0.027 C 
BRANCH  20  21
ATOM     21  C   UNL     1      91.025  90.707  74.040  1.00  0.00    -0.031 C 
ATOM     22  C   UNL     1      91.330  89.759  74.943  1.00  0.00    -0.028 C 
BRANCH  22  23
ATOM     23  C   UNL     1      90.507  88.577  75.185  1.00  0.00     0.005 C 
ATOM     24  C   UNL     1      89.102  88.761  74.550  1.00  0.00     0.012 C 
ATOM     25  C   UNL     1      91.227  87.304  74.662  1.00  0.00     0.012 C 
ENDBRANCH  22  23
ENDBRANCH  20  21
ENDBRANCH  19  20
ENDBRANCH  18  19
ENDBRANCH   1  18
TORSDOF 11
ENDMDL
MODEL 2
REMARK VINA RESULT:    -6.621      1.786      2.719
REMARK INTER + INTRA:         -11.686
REMARK INTER:                 -10.754
REMARK INTRA:                  -0.932
REMARK UNBOUND:                -1.001
REMARK SMILES COc1cc(CNC(=O)CCCCC/C=C/C(C)C)ccc1O
REMARK SMILES IDX 11 1 10 2 8 3 7 4 9 6 6 7 5 8 3 9 22 10 4 11 21 12 20 13
REMARK SMILES IDX 2 14 1 15 23 16 12 18 13 19 14 20 15 21 16 22 17 23 18 24
REMARK SMILES IDX 19 25
REMARK H PARENT 7 5 23 17
REMARK Flexibility Score: inf
ROOT
ATOM      1  C   UNL     1      92.568  92.938  75.257  1.00  0.00     0.010 C 
ENDROOT
BRANCH   1   2
ATOM      2  C   UNL     1      92.755  94.466  75.075  1.00  0.00     0.100 C 
BRANCH   2   3
ATOM      3  C   UNL     1      94.077  94.964  75.499  1.00  0.00     0.220 C 
ATOM      4  N   UNL     1      94.847  94.214  76.335  1.00  0.00    -0.352 N 
ATOM      5  H   UNL     1      94.405  93.370  76.673  1.00  0.00     0.163 HD
ATOM      6  O   UNL     1      94.476  96.060  75.039  1.00  0.00    -0.275 OA
BRANCH   4   7
ATOM      7  C   UNL     1      96.177  94.530  76.744  1.00  0.00     0.151 C 
BRANCH   7   8
ATOM      8  C   UNL     1      96.224  95.205  78.067  1.00  0.00    -0.025 A 
ATOM      9  C   UNL     1      95.583  95.303  80.439  1.00  0.00     0.160 A 
ATOM     10  C   UNL     1      96.274  96.527  80.574  1.00  0.00     0.157 A 
ATOM     11  C   UNL     1      95.556  94.657  79.186  1.00  0.00     0.056 A 
ATOM     12  C   UNL     1      96.957  97.073  79.472  1.00  0.00     0.050 A 
ATOM     13  C   UNL     1      96.941  96.411  78.230  1.00  0.00     0.009 A 
BRANCH   9  14
ATOM     14  O   UNL     1      94.989  94.719  81.526  1.00  0.00    -0.493 OA
ATOM     15  C   UNL     1      95.681  93.561  82.022  1.00  0.00     0.278 C 
ENDBRANCH   9  14
BRANCH  10  16
ATOM     16  O   UNL     1      96.301  97.195  81.755  1.00  0.00    -0.504 OA
ATOM     17  H   UNL     1      96.745  98.038  81.635  1.00  0.00     0.293 HD
ENDBRANCH  10  16
ENDBRANCH   7   8
ENDBRANCH   4   7
ENDBRANCH   2   3
ENDBRANCH   1   2
BRANCH   1  18
ATOM     18  C   UNL     1      92.039  92.603  76.675  1.00  0.00     0.001 C 
BRANCH  18  19
ATOM     19  C   UNL     1      90.678  93.267  77.005  1.00  0.00     0.004 C 
BRANCH  19  20
ATOM     20  C   UNL     1      89.561  92.204  77.198  1.00  0.00     0.027 C 
BRANCH  20  21
ATOM     21  C   UNL     1      89.649  91.088  76.271  1.00  0.00    -0.031 C 
ATOM     22  C   UNL     1      88.772  90.919  75.266  1.00  0.00    -0.028 C 
BRANCH  22  23
ATOM     23  C   UNL     1      88.835  89.812  74.314  1.00  0.00     0.005 C 
ATOM     24  C   UNL     1      88.237  90.243  72.948  1.00  0.00     0.012 C 
ATOM     25  C   UNL     1      90.296  89.300  74.184  1.00  0.00     0.012 C 
ENDBRANCH  22  23
ENDBRANCH  20  21
ENDBRANCH  19  20
ENDBRANCH  18  19
ENDBRANCH   1  18
TORSDOF 11
ENDMDL
MODEL 3
REMARK VINA RESULT:    -6.574      1.674      2.148
REMARK INTER + INTRA:         -11.609
REMARK INTER:                 -10.882
REMARK INTRA:                  -0.728
REMARK UNBOUND:                -1.001
REMARK SMILES COc1cc(CNC(=O)CCCCC/C=C/C(C)C)ccc1O
REMARK SMILES IDX 11 1 10 2 8 3 7 4 9 6 6 7 5 8 3 9 22 10 4 11 21 12 20 13
REMARK SMILES IDX 2 14 1 15 23 16 12 18 13 19 14 20 15 21 16 22 17 23 18 24
REMARK SMILES IDX 19 25
REMARK H PARENT 7 5 23 17
REMARK Flexibility Score: inf
ROOT
ATOM      1  C   UNL     1      92.436  94.336  75.198  1.00  0.00     0.010 C 
ENDROOT
BRANCH   1   2
ATOM      2  C   UNL     1      93.557  95.395  75.029  1.00  0.00     0.100 C 
BRANCH   2   3
ATOM      3  C   UNL     1      94.798  95.076  75.758  1.00  0.00     0.220 C 
ATOM      4  N   UNL     1      94.739  94.373  76.923  1.00  0.00    -0.352 N 
ATOM      5  H   UNL     1      93.803  94.177  77.250  1.00  0.00     0.163 HD
ATOM      6  O   UNL     1      95.891  95.432  75.257  1.00  0.00    -0.275 OA
BRANCH   4   7
ATOM      7  C   UNL     1      95.863  93.917  77.675  1.00  0.00     0.151 C 
BRANCH   7   8
ATOM      8  C   UNL     1      95.901  94.483  79.048  1.00  0.00    -0.025 A 
ATOM      9  C   UNL     1      96.353  96.358  80.574  1.00  0.00     0.160 A 
ATOM     10  C   UNL     1      96.022  95.540  81.676  1.00  0.00     0.157 A 
ATOM     11  C   UNL     1      96.299  95.822  79.271  1.00  0.00     0.056 A 
ATOM     12  C   UNL     1      95.609  94.211  81.465  1.00  0.00     0.050 A 
ATOM     13  C   UNL     1      95.538  93.690  80.159  1.00  0.00     0.009 A 
BRANCH   9  14
ATOM     14  O   UNL     1      96.671  97.677  80.762  1.00  0.00    -0.493 OA
ATOM     15  C   UNL     1      98.082  97.951  80.732  1.00  0.00     0.278 C 
ENDBRANCH   9  14
BRANCH  10  16
ATOM     16  O   UNL     1      96.089  96.008  82.947  1.00  0.00    -0.504 OA
ATOM     17  H   UNL     1      95.247  96.404  83.187  1.00  0.00     0.293 HD
ENDBRANCH  10  16
ENDBRANCH   7   8
ENDBRANCH   4   7
ENDBRANCH   2   3
ENDBRANCH   1   2
BRANCH   1  18
ATOM     18  C   UNL     1      91.551  94.650  76.431  1.00  0.00     0.001 C 
BRANCH  18  19
ATOM     19  C   UNL     1      90.074  94.209  76.266  1.00  0.00     0.004 C 
BRANCH  19  20
ATOM     20  C   UNL     1      89.745  92.984  77.164  1.00  0.00     0.027 C 
BRANCH  20  21
ATOM     21  C   UNL     1      89.600  91.741  76.425  1.00  0.00    -0.031 C 
ATOM     22  C   UNL     1      90.511  90.753  76.495  1.00  0.00    -0.028 C 
BRANCH  22  23
ATOM     23  C   UNL     1      90.393  89.491  75.770  1.00  0.00     0.005 C 
ATOM     24  C   UNL     1      90.265  88.308  76.767  1.00  0.00     0.012 C 
ATOM     25  C   UNL     1      89.203  89.553  74.774  1.00  0.00     0.012 C 
ENDBRANCH  22  23
ENDBRANCH  20  21
ENDBRANCH  19  20
ENDBRANCH  18  19
ENDBRANCH   1  18
TORSDOF 11
ENDMDL
MODEL 4
REMARK VINA RESULT:    -6.324      5.184      8.488
REMARK INTER + INTRA:         -11.206
REMARK INTER:                 -10.471
REMARK INTRA:                  -0.736
REMARK UNBOUND:                -1.001
REMARK SMILES COc1cc(CNC(=O)CCCCC/C=C/C(C)C)ccc1O
REMARK SMILES IDX 11 1 10 2 8 3 7 4 9 6 6 7 5 8 3 9 22 10 4 11 21 12 20 13
REMARK SMILES IDX 2 14 1 15 23 16 12 18 13 19 14 20 15 21 16 22 17 23 18 24
REMARK SMILES IDX 19 25
REMARK H PARENT 7 5 23 17
REMARK Flexibility Score: inf
ROOT
ATOM      1  C   UNL     1      94.003  99.023  73.825  1.00  0.00     0.010 C 
ENDROOT
BRANCH   1   2
ATOM      2  C   UNL     1      94.615  97.684  73.340  1.00  0.00     0.100 C 
BRANCH   2   3
ATOM      3  C   UNL     1      94.847  96.704  74.418  1.00  0.00     0.220 C 
ATOM      4  N   UNL     1      93.815  95.943  74.876  1.00  0.00    -0.352 N 
ATOM      5  H   UNL     1      92.915  96.168  74.474  1.00  0.00     0.163 HD
ATOM      6  O   UNL     1      96.012  96.570  74.860  1.00  0.00    -0.275 OA
BRANCH   4   7
ATOM      7  C   UNL     1      93.919  94.897  75.840  1.00  0.00     0.151 C 
BRANCH   7   8
ATOM      8  C   UNL     1      92.651  94.140  76.004  1.00  0.00    -0.025 A 
ATOM      9  C   UNL     1      91.394  92.029  75.898  1.00  0.00     0.160 A 
ATOM     10  C   UNL     1      90.215  92.714  76.266  1.00  0.00     0.157 A 
ATOM     11  C   UNL     1      92.599  92.748  75.761  1.00  0.00     0.056 A 
ATOM     12  C   UNL     1      90.258  94.096  76.526  1.00  0.00     0.050 A 
ATOM     13  C   UNL     1      91.470  94.802  76.407  1.00  0.00     0.009 A 
BRANCH   9  14
ATOM     14  O   UNL     1      91.381  90.670  75.728  1.00  0.00    -0.493 OA
ATOM     15  C   UNL     1      91.407  90.250  74.354  1.00  0.00     0.278 C 
ENDBRANCH   9  14
BRANCH  10  16
ATOM     16  O   UNL     1      89.029  92.065  76.381  1.00  0.00    -0.504 OA
ATOM     17  H   UNL     1      88.331  92.702  76.549  1.00  0.00     0.293 HD
ENDBRANCH  10  16
ENDBRANCH   7   8
ENDBRANCH   4   7
ENDBRANCH   2   3
ENDBRANCH   1   2
BRANCH   1  18
ATOM     18  C   UNL     1      93.059  99.627  72.755  1.00  0.00     0.001 C 
BRANCH  18  19
ATOM     19  C   UNL     1      92.897  98.740  71.495  1.00  0.00     0.004 C 
BRANCH  19  20
ATOM     20  C   UNL     1      92.973  99.585  70.193  1.00  0.00     0.027 C 
BRANCH  20  21
ATOM     21  C   UNL     1      92.138  99.078  69.117  1.00  0.00    -0.031 C 
ATOM     22  C   UNL     1      90.937  98.517  69.344  1.00  0.00    -0.028 C 
BRANCH  22  23
ATOM     23  C   UNL     1      90.071  98.004  68.285  1.00  0.00     0.005 C 
ATOM     24  C   UNL     1      89.982  99.026  67.120  1.00  0.00     0.012 C 
ATOM     25  C   UNL     1      90.570  96.612  67.811  1.00  0.00     0.012 C 
ENDBRANCH  22  23
ENDBRANCH  20  21
ENDBRANCH  19  20
ENDBRANCH  18  19
ENDBRANCH   1  18
TORSDOF 11
ENDMDL
MODEL 5
REMARK VINA RESULT:    -6.232      3.167      9.444
REMARK INTER + INTRA:         -11.057
REMARK INTER:                 -10.035
REMARK INTRA:                  -1.022
REMARK UNBOUND:                -1.001
REMARK SMILES COc1cc(CNC(=O)CCCCC/C=C/C(C)C)ccc1O
REMARK SMILES IDX 11 1 10 2 8 3 7 4 9 6 6 7 5 8 3 9 22 10 4 11 21 12 20 13
REMARK SMILES IDX 2 14 1 15 23 16 12 18 13 19 14 20 15 21 16 22 17 23 18 24
REMARK SMILES IDX 19 25
REMARK H PARENT 7 5 23 17
REMARK Flexibility Score: inf
ROOT
ATOM      1  C   UNL     1      95.951  94.844  78.400  1.00  0.00     0.010 C 
ENDROOT
BRANCH   1   2
ATOM      2  C   UNL     1      96.159  93.865  77.216  1.00  0.00     0.100 C 
BRANCH   2   3
ATOM      3  C   UNL     1      95.149  93.990  76.149  1.00  0.00     0.220 C 
ATOM      4  N   UNL     1      93.871  94.340  76.463  1.00  0.00    -0.352 N 
ATOM      5  H   UNL     1      93.688  94.421  77.454  1.00  0.00     0.163 HD
ATOM      6  O   UNL     1      95.510  93.807  74.962  1.00  0.00    -0.275 OA
BRANCH   4   7
ATOM      7  C   UNL     1      92.825  94.589  75.526  1.00  0.00     0.151 C 
BRANCH   7   8
ATOM      8  C   UNL     1      91.725  93.593  75.618  1.00  0.00    -0.025 A 
ATOM      9  C   UNL     1      89.934  92.285  74.556  1.00  0.00     0.160 A 
ATOM     10  C   UNL     1      89.594  91.734  75.810  1.00  0.00     0.157 A 
ATOM     11  C   UNL     1      90.989  93.216  74.470  1.00  0.00     0.056 A 
ATOM     12  C   UNL     1      90.330  92.089  76.955  1.00  0.00     0.050 A 
ATOM     13  C   UNL     1      91.395  93.004  76.858  1.00  0.00     0.009 A 
BRANCH   9  14
ATOM     14  O   UNL     1      89.282  91.879  73.421  1.00  0.00    -0.493 OA
ATOM     15  C   UNL     1      89.153  92.903  72.420  1.00  0.00     0.278 C 
ENDBRANCH   9  14
BRANCH  10  16
ATOM     16  O   UNL     1      88.567  90.857  75.940  1.00  0.00    -0.504 OA
ATOM     17  H   UNL     1      87.837  91.135  75.382  1.00  0.00     0.293 HD
ENDBRANCH  10  16
ENDBRANCH   7   8
ENDBRANCH   4   7
ENDBRANCH   2   3
ENDBRANCH   1   2
BRANCH   1  18
ATOM     18  C   UNL     1      95.424  94.100  79.654  1.00  0.00     0.001 C 
BRANCH  18  19
ATOM     19  C   UNL     1      96.278  94.338  80.925  1.00  0.00     0.004 C 
BRANCH  19  20
ATOM     20  C   UNL     1      95.569  95.307  81.912  1.00  0.00     0.027 C 
BRANCH  20  21
ATOM     21  C   UNL     1      95.741  96.711  81.578  1.00  0.00    -0.031 C 
ATOM     22  C   UNL     1      96.919  97.211  81.163  1.00  0.00    -0.028 C 
BRANCH  22  23
ATOM     23  C   UNL     1      97.124  98.615  80.815  1.00  0.00     0.005 C 
ATOM     24  C   UNL     1      97.082  98.799  79.274  1.00  0.00     0.012 C 
ATOM     25  C   UNL     1      96.081  99.506  81.543  1.00  0.00     0.012 C 
ENDBRANCH  22  23
ENDBRANCH  20  21
ENDBRANCH  19  20
ENDBRANCH  18  19
ENDBRANCH   1  18
TORSDOF 11
ENDMDL
MODEL 6
REMARK VINA RESULT:    -6.126      4.525      6.537
REMARK INTER + INTRA:         -10.888
REMARK INTER:                  -9.920
REMARK INTRA:                  -0.968
REMARK UNBOUND:                -1.001
REMARK SMILES COc1cc(CNC(=O)CCCCC/C=C/C(C)C)ccc1O
REMARK SMILES IDX 11 1 10 2 8 3 7 4 9 6 6 7 5 8 3 9 22 10 4 11 21 12 20 13
REMARK SMILES IDX 2 14 1 15 23 16 12 18 13 19 14 20 15 21 16 22 17 23 18 24
REMARK SMILES IDX 19 25
REMARK H PARENT 7 5 23 17
REMARK Flexibility Score: inf
ROOT
ATOM      1  C   UNL     1      92.261  93.944  75.545  1.00  0.00     0.010 C 
ENDROOT
BRANCH   1   2
ATOM      2  C   UNL     1      93.679  93.463  75.945  1.00  0.00     0.100 C 
BRANCH   2   3
ATOM      3  C   UNL     1      94.768  94.327  75.450  1.00  0.00     0.220 C 
ATOM      4  N   UNL     1      94.625  95.681  75.476  1.00  0.00    -0.352 N 
ATOM      5  H   UNL     1      93.716  96.002  75.780  1.00  0.00     0.163 HD
ATOM      6  O   UNL     1      95.824  93.783  75.050  1.00  0.00    -0.275 OA
BRANCH   4   7
ATOM      7  C   UNL     1      95.630  96.628  75.120  1.00  0.00     0.151 C 
BRANCH   7   8
ATOM      8  C   UNL     1      95.418  97.206  73.768  1.00  0.00    -0.025 A 
ATOM      9  C   UNL     1      96.295  97.873  71.569  1.00  0.00     0.160 A 
ATOM     10  C   UNL     1      95.019  98.358  71.208  1.00  0.00     0.157 A 
ATOM     11  C   UNL     1      96.487  97.310  72.847  1.00  0.00     0.056 A 
ATOM     12  C   UNL     1      93.945  98.245  72.110  1.00  0.00     0.050 A 
ATOM     13  C   UNL     1      94.140  97.663  73.376  1.00  0.00     0.009 A 
BRANCH   9  14
ATOM     14  O   UNL     1      97.325  97.899  70.667  1.00  0.00    -0.493 OA
ATOM     15  C   UNL     1      98.460  97.104  71.048  1.00  0.00     0.278 C 
ENDBRANCH   9  14
BRANCH  10  16
ATOM     16  O   UNL     1      94.798  98.933  69.999  1.00  0.00    -0.504 OA
ATOM     17  H   UNL     1      94.738  98.250  69.327  1.00  0.00     0.293 HD
ENDBRANCH  10  16
ENDBRANCH   7   8
ENDBRANCH   4   7
ENDBRANCH   2   3
ENDBRANCH   1   2
BRANCH   1  18
ATOM     18  C   UNL     1      91.277  93.839  76.738  1.00  0.00     0.001 C 
BRANCH  18  19
ATOM     19  C   UNL     1      91.503  92.587  77.623  1.00  0.00     0.004 C 
BRANCH  19  20
ATOM     20  C   UNL     1      90.168  91.841  77.902  1.00  0.00     0.027 C 
BRANCH  20  21
ATOM     21  C   UNL     1      90.111  90.509  77.325  1.00  0.00    -0.031 C 
ATOM     22  C   UNL     1      90.591  90.236  76.099  1.00  0.00    -0.028 C 
BRANCH  22  23
ATOM     23  C   UNL     1      90.554  88.907  75.493  1.00  0.00     0.005 C 
ATOM     24  C   UNL     1      90.776  87.817  76.574  1.00  0.00     0.012 C 
ATOM     25  C   UNL     1      89.222  88.708  74.718  1.00  0.00     0.012 C 
ENDBRANCH  22  23
ENDBRANCH  20  21
ENDBRANCH  19  20
ENDBRANCH  18  19
ENDBRANCH   1  18
TORSDOF 11
ENDMDL
MODEL 7
REMARK VINA RESULT:    -5.969     28.902     31.198
REMARK INTER + INTRA:         -10.633
REMARK INTER:                  -9.742
REMARK INTRA:                  -0.891
REMARK UNBOUND:                -1.001
REMARK SMILES COc1cc(CNC(=O)CCCCC/C=C/C(C)C)ccc1O
REMARK SMILES IDX 11 1 10 2 8 3 7 4 9 6 6 7 5 8 3 9 22 10 4 11 21 12 20 13
REMARK SMILES IDX 2 14 1 15 23 16 12 18 13 19 14 20 15 21 16 22 17 23 18 24
REMARK SMILES IDX 19 25
REMARK H PARENT 7 5 23 17
REMARK Flexibility Score: inf
ROOT
ATOM      1  C   UNL     1      64.071  82.416  75.643  1.00  0.00     0.010 C 
ENDROOT
BRANCH   1   2
ATOM      2  C   UNL     1      64.474  83.816  75.110  1.00  0.00     0.100 C 
BRANCH   2   3
ATOM      3  C   UNL     1      64.283  84.907  76.083  1.00  0.00     0.220 C 
ATOM      4  N   UNL     1      65.365  85.503  76.655  1.00  0.00    -0.352 N 
ATOM      5  H   UNL     1      66.253  85.086  76.412  1.00  0.00     0.163 HD
ATOM      6  O   UNL     1      63.114  85.287  76.330  1.00  0.00    -0.275 OA
BRANCH   4   7
ATOM      7  C   UNL     1      65.326  86.627  77.533  1.00  0.00     0.151 C 
BRANCH   7   8
ATOM      8  C   UNL     1      65.570  86.255  78.950  1.00  0.00    -0.025 A 
ATOM      9  C   UNL     1      64.901  86.300  81.317  1.00  0.00     0.160 A 
ATOM     10  C   UNL     1      66.070  85.587  81.660  1.00  0.00     0.157 A 
ATOM     11  C   UNL     1      64.665  86.636  79.968  1.00  0.00     0.056 A 
ATOM     12  C   UNL     1      66.969  85.187  80.654  1.00  0.00     0.050 A 
ATOM     13  C   UNL     1      66.716  85.509  79.308  1.00  0.00     0.009 A 
BRANCH   9  14
ATOM     14  O   UNL     1      63.976  86.618  82.276  1.00  0.00    -0.493 OA
ATOM     15  C   UNL     1      64.014  87.991  82.697  1.00  0.00     0.278 C 
ENDBRANCH   9  14
BRANCH  10  16
ATOM     16  O   UNL     1      66.348  85.268  82.949  1.00  0.00    -0.504 OA
ATOM     17  H   UNL     1      66.688  84.371  82.990  1.00  0.00     0.293 HD
ENDBRANCH  10  16
ENDBRANCH   7   8
ENDBRANCH   4   7
ENDBRANCH   2   3
ENDBRANCH   1   2
BRANCH   1  18
ATOM     18  C   UNL     1      64.955  81.305  75.021  1.00  0.00     0.001 C 
BRANCH  18  19
ATOM     19  C   UNL     1      64.426  80.775  73.664  1.00  0.00     0.004 C 
BRANCH  19  20
ATOM     20  C   UNL     1      62.872  80.771  73.624  1.00  0.00     0.027 C 
BRANCH  20  21
ATOM     21  C   UNL     1      62.315  81.521  72.511  1.00  0.00    -0.031 C 
ATOM     22  C   UNL     1      62.772  81.387  71.254  1.00  0.00    -0.028 C 
BRANCH  22  23
ATOM     23  C   UNL     1      62.230  82.121  70.113  1.00  0.00     0.005 C 
ATOM     24  C   UNL     1      62.353  83.650  70.350  1.00  0.00     0.012 C 
ATOM     25  C   UNL     1      62.930  81.669  68.802  1.00  0.00     0.012 C 
ENDBRANCH  22  23
ENDBRANCH  20  21
ENDBRANCH  19  20
ENDBRANCH  18  19
ENDBRANCH   1  18
TORSDOF 11
ENDMDL
MODEL 8
REMARK VINA RESULT:    -5.671     27.211     29.860
REMARK INTER + INTRA:         -10.153
REMARK INTER:                  -9.272
REMARK INTRA:                  -0.881
REMARK UNBOUND:                -1.001
REMARK SMILES COc1cc(CNC(=O)CCCCC/C=C/C(C)C)ccc1O
REMARK SMILES IDX 11 1 10 2 8 3 7 4 9 6 6 7 5 8 3 9 22 10 4 11 21 12 20 13
REMARK SMILES IDX 2 14 1 15 23 16 12 18 13 19 14 20 15 21 16 22 17 23 18 24
REMARK SMILES IDX 19 25
REMARK H PARENT 7 5 23 17
REMARK Flexibility Score: inf
ROOT
ATOM      1  C   UNL     1      81.346  66.289  75.249  1.00  0.00     0.010 C 
ENDROOT
BRANCH   1   2
ATOM      2  C   UNL     1      81.712  64.831  75.630  1.00  0.00     0.100 C 
BRANCH   2   3
ATOM      3  C   UNL     1      83.133  64.639  75.974  1.00  0.00     0.220 C 
ATOM      4  N   UNL     1      83.478  63.787  76.979  1.00  0.00    -0.352 N 
ATOM      5  H   UNL     1      82.696  63.389  77.481  1.00  0.00     0.163 HD
ATOM      6  O   UNL     1      83.997  65.243  75.295  1.00  0.00    -0.275 OA
BRANCH   4   7
ATOM      7  C   UNL     1      84.811  63.437  77.348  1.00  0.00     0.151 C 
BRANCH   7   8
ATOM      8  C   UNL     1      85.201  63.988  78.672  1.00  0.00    -0.025 A 
ATOM      9  C   UNL     1      86.276  65.740  80.023  1.00  0.00     0.160 A 
ATOM     10  C   UNL     1      85.990  65.008  81.197  1.00  0.00     0.157 A 
ATOM     11  C   UNL     1      85.888  65.221  78.771  1.00  0.00     0.056 A 
ATOM     12  C   UNL     1      85.293  63.789  81.111  1.00  0.00     0.050 A 
ATOM     13  C   UNL     1      84.892  63.288  79.859  1.00  0.00     0.009 A 
BRANCH   9  14
ATOM     14  O   UNL     1      86.875  66.969  80.102  1.00  0.00    -0.493 OA
ATOM     15  C   UNL     1      88.272  66.964  79.763  1.00  0.00     0.278 C 
ENDBRANCH   9  14
BRANCH  10  16
ATOM     16  O   UNL     1      86.372  65.458  82.418  1.00  0.00    -0.504 OA
ATOM     17  H   UNL     1      87.061  66.119  82.315  1.00  0.00     0.293 HD
ENDBRANCH  10  16
ENDBRANCH   7   8
ENDBRANCH   4   7
ENDBRANCH   2   3
ENDBRANCH   1   2
BRANCH   1  18
ATOM     18  C   UNL     1      80.175  66.325  74.235  1.00  0.00     0.001 C 
BRANCH  18  19
ATOM     19  C   UNL     1      80.290  65.263  73.112  1.00  0.00     0.004 C 
BRANCH  19  20
ATOM     20  C   UNL     1      80.148  65.907  71.705  1.00  0.00     0.027 C 
BRANCH  20  21
ATOM     21  C   UNL     1      81.404  66.382  71.150  1.00  0.00    -0.031 C 
ATOM     22  C   UNL     1      81.821  67.652  71.301  1.00  0.00    -0.028 C 
BRANCH  22  23
ATOM     23  C   UNL     1      83.080  68.159  70.761  1.00  0.00     0.005 C 
ATOM     24  C   UNL     1      83.337  69.605  71.262  1.00  0.00     0.012 C 
ATOM     25  C   UNL     1      84.245  67.196  71.119  1.00  0.00     0.012 C 
ENDBRANCH  22  23
ENDBRANCH  20  21
ENDBRANCH  19  20
ENDBRANCH  18  19
ENDBRANCH   1  18
TORSDOF 11
ENDMDL
MODEL 9
REMARK VINA RESULT:    -5.656      5.795      8.227
REMARK INTER + INTRA:         -10.128
REMARK INTER:                  -9.353
REMARK INTRA:                  -0.775
REMARK UNBOUND:                -1.001
REMARK SMILES COc1cc(CNC(=O)CCCCC/C=C/C(C)C)ccc1O
REMARK SMILES IDX 11 1 10 2 8 3 7 4 9 6 6 7 5 8 3 9 22 10 4 11 21 12 20 13
REMARK SMILES IDX 2 14 1 15 23 16 12 18 13 19 14 20 15 21 16 22 17 23 18 24
REMARK SMILES IDX 19 25
REMARK H PARENT 7 5 23 17
REMARK Flexibility Score: inf
ROOT
ATOM      1  C   UNL     1      94.144  99.585  72.902  1.00  0.00     0.010 C 
ENDROOT
BRANCH   1   2
ATOM      2  C   UNL     1      95.628  99.250  72.601  1.00  0.00     0.100 C 
BRANCH   2   3
ATOM      3  C   UNL     1      96.294  98.469  73.659  1.00  0.00     0.220 C 
ATOM      4  N   UNL     1      96.210  97.109  73.653  1.00  0.00    -0.352 N 
ATOM      5  H   UNL     1      95.612  96.727  72.933  1.00  0.00     0.163 HD
ATOM      6  O   UNL     1      96.961  99.084  74.524  1.00  0.00    -0.275 OA
BRANCH   4   7
ATOM      7  C   UNL     1      96.882  96.232  74.555  1.00  0.00     0.151 C 
BRANCH   7   8
ATOM      8  C   UNL     1      95.943  95.455  75.404  1.00  0.00    -0.025 A 
ATOM      9  C   UNL     1      93.658  94.721  75.942  1.00  0.00     0.160 A 
ATOM     10  C   UNL     1      94.149  94.014  77.061  1.00  0.00     0.157 A 
ATOM     11  C   UNL     1      94.555  95.443  75.129  1.00  0.00     0.056 A 
ATOM     12  C   UNL     1      95.529  94.005  77.335  1.00  0.00     0.050 A 
ATOM     13  C   UNL     1      96.421  94.712  76.507  1.00  0.00     0.009 A 
BRANCH   9  14
ATOM     14  O   UNL     1      92.329  94.664  75.616  1.00  0.00    -0.493 OA
ATOM     15  C   UNL     1      92.030  93.786  74.518  1.00  0.00     0.278 C 
ENDBRANCH   9  14
BRANCH  10  16
ATOM     16  O   UNL     1      93.316  93.330  77.885  1.00  0.00    -0.504 OA
ATOM     17  H   UNL     1      92.516  93.843  78.026  1.00  0.00     0.293 HD
ENDBRANCH  10  16
ENDBRANCH   7   8
ENDBRANCH   4   7
ENDBRANCH   2   3
ENDBRANCH   1   2
BRANCH   1  18
ATOM     18  C   UNL     1      93.193  98.563  72.230  1.00  0.00     0.001 C 
BRANCH  18  19
ATOM     19  C   UNL     1      93.007  98.792  70.708  1.00  0.00     0.004 C 
BRANCH  19  20
ATOM     20  C   UNL     1      91.563  98.440  70.254  1.00  0.00     0.027 C 
BRANCH  20  21
ATOM     21  C   UNL     1      91.236  98.920  68.922  1.00  0.00    -0.031 C 
ATOM     22  C   UNL     1      90.714  98.118  67.977  1.00  0.00    -0.028 C 
BRANCH  22  23
ATOM     23  C   UNL     1      90.370  98.570  66.631  1.00  0.00     0.005 C 
ATOM     24  C   UNL     1      89.195  97.729  66.065  1.00  0.00     0.012 C 
ATOM     25  C   UNL     1      90.056 100.091  66.641  1.00  0.00     0.012 C 
ENDBRANCH  22  23
ENDBRANCH  20  21
ENDBRANCH  19  20
ENDBRANCH  18  19
ENDBRANCH   1  18
TORSDOF 11
ENDMDL
MODEL 10
REMARK VINA RESULT:    -5.636     28.646     31.445
REMARK INTER + INTRA:         -10.096
REMARK INTER:                  -9.056
REMARK INTRA:                  -1.040
REMARK UNBOUND:                -1.001
REMARK SMILES COc1cc(CNC(=O)CCCCC/C=C/C(C)C)ccc1O
REMARK SMILES IDX 11 1 10 2 8 3 7 4 9 6 6 7 5 8 3 9 22 10 4 11 21 12 20 13
REMARK SMILES IDX 2 14 1 15 23 16 12 18 13 19 14 20 15 21 16 22 17 23 18 24
REMARK SMILES IDX 19 25
REMARK H PARENT 7 5 23 17
REMARK Flexibility Score: inf
ROOT
ATOM      1  C   UNL     1      62.049  84.868  73.219  1.00  0.00     0.010 C 
ENDROOT
BRANCH   1   2
ATOM      2  C   UNL     1      62.249  84.072  74.534  1.00  0.00     0.100 C 
BRANCH   2   3
ATOM      3  C   UNL     1      62.132  84.890  75.755  1.00  0.00     0.220 C 
ATOM      4  N   UNL     1      63.142  85.734  76.105  1.00  0.00    -0.352 N 
ATOM      5  H   UNL     1      63.960  85.680  75.514  1.00  0.00     0.163 HD
ATOM      6  O   UNL     1      61.074  84.815  76.423  1.00  0.00    -0.275 OA
BRANCH   4   7
ATOM      7  C   UNL     1      63.117  86.648  77.200  1.00  0.00     0.151 C 
BRANCH   7   8
ATOM      8  C   UNL     1      64.317  86.532  78.069  1.00  0.00    -0.025 A 
ATOM      9  C   UNL     1      65.391  86.761  80.270  1.00  0.00     0.160 A 
ATOM     10  C   UNL     1      66.623  86.358  79.710  1.00  0.00     0.157 A 
ATOM     11  C   UNL     1      64.251  86.853  79.445  1.00  0.00     0.056 A 
ATOM     12  C   UNL     1      66.696  86.020  78.346  1.00  0.00     0.050 A 
ATOM     13  C   UNL     1      65.549  86.095  77.534  1.00  0.00     0.009 A 
BRANCH   9  14
ATOM     14  O   UNL     1      65.289  87.009  81.613  1.00  0.00    -0.493 OA
ATOM     15  C   UNL     1      63.957  86.873  82.136  1.00  0.00     0.278 C 
ENDBRANCH   9  14
BRANCH  10  16
ATOM     16  O   UNL     1      67.749  86.284  80.463  1.00  0.00    -0.504 OA
ATOM     17  H   UNL     1      68.518  86.285  79.888  1.00  0.00     0.293 HD
ENDBRANCH  10  16
ENDBRANCH   7   8
ENDBRANCH   4   7
ENDBRANCH   2   3
ENDBRANCH   1   2
BRANCH   1  18
ATOM     18  C   UNL     1      62.281  83.967  71.979  1.00  0.00     0.001 C 
BRANCH  18  19
ATOM     19  C   UNL     1      61.343  82.734  71.920  1.00  0.00     0.004 C 
BRANCH  19  20
ATOM     20  C   UNL     1      62.126  81.444  71.548  1.00  0.00     0.027 C 
BRANCH  20  21
ATOM     21  C   UNL     1      63.475  81.403  72.087  1.00  0.00    -0.031 C 
ATOM     22  C   UNL     1      63.732  81.034  73.354  1.00  0.00    -0.028 C 
BRANCH  22  23
ATOM     23  C   UNL     1      65.076  80.977  73.923  1.00  0.00     0.005 C 
ATOM     24  C   UNL     1      65.007  81.034  75.473  1.00  0.00     0.012 C 
ATOM     25  C   UNL     1      65.823  79.714  73.413  1.00  0.00     0.012 C 
ENDBRANCH  22  23
ENDBRANCH  20  21
ENDBRANCH  19  20
ENDBRANCH  18  19
ENDBRANCH   1  18
TORSDOF 11
ENDMDL
