MODEL 1
REMARK VINA RESULT:    -7.131      0.000      0.000
REMARK INTER + INTRA:          -8.766
REMARK INTER:                  -8.382
REMARK INTRA:                  -0.384
REMARK UNBOUND:                -0.384
REMARK SMILES O=C(/C=C/C=C/c1ccc2c(c1)OCO2)N1CCCCC1
REMARK SMILES IDX 3 1 4 2 2 3 1 4 16 5 17 6 21 7 18 8 20 9 19 10 5 11 6 12
REMARK SMILES IDX 7 13 12 14 8 15 11 16 9 17 13 18 10 19 14 20 15 21
REMARK H PARENT
REMARK Flexibility Score: inf
ROOT
ATOM      1  C   UNL     1      98.772  82.617  81.071  1.00  0.00     0.071 C 
ATOM      2  C   UNL     1      99.129  82.145  82.263  1.00  0.00     0.006 C 
ENDROOT
BRANCH   1   3
ATOM      3  C   UNL     1      99.629  82.297  79.912  1.00  0.00     0.246 C 
ATOM      4  O   UNL     1     100.565  81.518  80.094  1.00  0.00    -0.270 OA
ATOM      5  N   UNL     1      99.325  82.901  78.693  1.00  0.00    -0.339 N 
ATOM      6  C   UNL     1     100.162  82.606  77.525  1.00  0.00     0.120 C 
ATOM      7  C   UNL     1      98.246  83.869  78.447  1.00  0.00     0.120 C 
ATOM      8  C   UNL     1      99.321  82.147  76.339  1.00  0.00     0.022 C 
ATOM      9  C   UNL     1      97.381  83.445  77.261  1.00  0.00     0.022 C 
ATOM     10  C   UNL     1      98.224  83.159  76.021  1.00  0.00     0.004 C 
ENDBRANCH   1   3
BRANCH   2  11
ATOM     11  C   UNL     1      98.353  82.406  83.458  1.00  0.00     0.001 C 
ATOM     12  C   UNL     1      97.718  83.569  83.672  1.00  0.00     0.008 C 
BRANCH  12  13
ATOM     13  C   UNL     1      96.924  83.890  84.870  1.00  0.00    -0.022 A 
ATOM     14  C   UNL     1      96.845  85.209  85.295  1.00  0.00     0.058 A 
ATOM     15  C   UNL     1      96.272  82.856  85.547  1.00  0.00     0.012 A 
ATOM     16  C   UNL     1      96.089  85.459  86.422  1.00  0.00     0.166 A 
ATOM     17  C   UNL     1      95.513  83.138  86.685  1.00  0.00     0.051 A 
ATOM     18  O   UNL     1      95.890  86.678  86.995  1.00  0.00    -0.454 OA
ATOM     19  C   UNL     1      95.441  84.452  87.099  1.00  0.00     0.165 A 
ATOM     20  C   UNL     1      95.044  86.324  88.108  1.00  0.00     0.468 C 
ATOM     21  O   UNL     1      94.755  84.913  88.180  1.00  0.00    -0.454 OA
ENDBRANCH  12  13
ENDBRANCH   2  11
TORSDOF 3
ENDMDL
MODEL 2
REMARK VINA RESULT:    -7.099     23.870     26.090
REMARK INTER + INTRA:          -8.728
REMARK INTER:                  -8.296
REMARK INTRA:                  -0.432
REMARK UNBOUND:                -0.384
REMARK SMILES O=C(/C=C/C=C/c1ccc2c(c1)OCO2)N1CCCCC1
REMARK SMILES IDX 3 1 4 2 2 3 1 4 16 5 17 6 21 7 18 8 20 9 19 10 5 11 6 12
REMARK SMILES IDX 7 13 12 14 8 15 11 16 9 17 13 18 10 19 14 20 15 21
REMARK H PARENT
REMARK Flexibility Score: inf
ROOT
ATOM      1  C   UNL     1      75.995  91.795  71.284  1.00  0.00     0.071 C 
ATOM      2  C   UNL     1      74.974  90.955  71.443  1.00  0.00     0.006 C 
ENDROOT
BRANCH   1   3
ATOM      3  C   UNL     1      75.827  93.188  71.746  1.00  0.00     0.246 C 
ATOM      4  O   UNL     1      74.969  93.873  71.188  1.00  0.00    -0.270 OA
ATOM      5  N   UNL     1      76.653  93.634  72.776  1.00  0.00    -0.339 N 
ATOM      6  C   UNL     1      76.514  95.014  73.252  1.00  0.00     0.120 C 
ATOM      7  C   UNL     1      77.717  92.861  73.434  1.00  0.00     0.120 C 
ATOM      8  C   UNL     1      76.324  95.065  74.764  1.00  0.00     0.022 C 
ATOM      9  C   UNL     1      77.563  92.891  74.954  1.00  0.00     0.022 C 
ATOM     10  C   UNL     1      77.445  94.318  75.481  1.00  0.00     0.004 C 
ENDBRANCH   1   3
BRANCH   2  11
ATOM     11  C   UNL     1      75.042  89.572  71.022  1.00  0.00     0.001 C 
ATOM     12  C   UNL     1      76.118  89.052  70.409  1.00  0.00     0.008 C 
BRANCH  12  13
ATOM     13  C   UNL     1      76.237  87.656  69.954  1.00  0.00    -0.022 A 
ATOM     14  C   UNL     1      77.422  87.237  69.363  1.00  0.00     0.058 A 
ATOM     15  C   UNL     1      75.154  86.791  70.129  1.00  0.00     0.012 A 
ATOM     16  C   UNL     1      77.486  85.922  68.953  1.00  0.00     0.166 A 
ATOM     17  C   UNL     1      75.246  85.464  69.704  1.00  0.00     0.051 A 
ATOM     18  O   UNL     1      78.553  85.323  68.355  1.00  0.00    -0.454 OA
ATOM     19  C   UNL     1      76.427  85.058  69.119  1.00  0.00     0.165 A 
ATOM     20  C   UNL     1      78.046  83.986  68.164  1.00  0.00     0.468 C 
ATOM     21  O   UNL     1      76.698  83.811  68.646  1.00  0.00    -0.454 OA
ENDBRANCH  12  13
ENDBRANCH   2  11
TORSDOF 3
ENDMDL
MODEL 3
REMARK VINA RESULT:    -6.932      3.472      8.831
REMARK INTER + INTRA:          -8.532
REMARK INTER:                  -8.157
REMARK INTRA:                  -0.376
REMARK UNBOUND:                -0.384
REMARK SMILES O=C(/C=C/C=C/c1ccc2c(c1)OCO2)N1CCCCC1
REMARK SMILES IDX 3 1 4 2 2 3 1 4 16 5 17 6 21 7 18 8 20 9 19 10 5 11 6 12
REMARK SMILES IDX 7 13 12 14 8 15 11 16 9 17 13 18 10 19 14 20 15 21
REMARK H PARENT
REMARK Flexibility Score: inf
ROOT
ATOM      1  C   UNL     1      97.848  82.491  85.092  1.00  0.00     0.071 C 
ATOM      2  C   UNL     1      97.243  83.434  84.372  1.00  0.00     0.006 C 
ENDROOT
BRANCH   1   3
ATOM      3  C   UNL     1      97.587  82.451  86.544  1.00  0.00     0.246 C 
ATOM      4  O   UNL     1      96.558  81.888  86.922  1.00  0.00    -0.270 OA
ATOM      5  N   UNL     1      98.517  83.055  87.389  1.00  0.00    -0.339 N 
ATOM      6  C   UNL     1      98.281  83.035  88.836  1.00  0.00     0.120 C 
ATOM      7  C   UNL     1      99.731  83.773  86.973  1.00  0.00     0.120 C 
ATOM      8  C   UNL     1      99.487  82.484  89.589  1.00  0.00     0.022 C 
ATOM      9  C   UNL     1     100.963  83.250  87.710  1.00  0.00     0.022 C 
ATOM     10  C   UNL     1     100.756  83.246  89.222  1.00  0.00     0.004 C 
ENDBRANCH   1   3
BRANCH   2  11
ATOM     11  C   UNL     1      97.437  83.554  82.943  1.00  0.00     0.001 C 
ATOM     12  C   UNL     1      98.404  82.896  82.283  1.00  0.00     0.008 C 
BRANCH  12  13
ATOM     13  C   UNL     1      98.650  82.988  80.834  1.00  0.00    -0.022 A 
ATOM     14  C   UNL     1      97.634  83.441  80.003  1.00  0.00     0.058 A 
ATOM     15  C   UNL     1      99.901  82.618  80.334  1.00  0.00     0.012 A 
ATOM     16  C   UNL     1      97.913  83.510  78.654  1.00  0.00     0.166 A 
ATOM     17  C   UNL     1     100.156  82.698  78.963  1.00  0.00     0.051 A 
ATOM     18  O   UNL     1      97.054  83.923  77.682  1.00  0.00    -0.454 OA
ATOM     19  C   UNL     1      99.140  83.148  78.147  1.00  0.00     0.165 A 
ATOM     20  C   UNL     1      97.879  83.782  76.507  1.00  0.00     0.468 C 
ATOM     21  O   UNL     1      99.204  83.290  76.795  1.00  0.00    -0.454 OA
ENDBRANCH  12  13
ENDBRANCH   2  11
TORSDOF 3
ENDMDL
MODEL 4
REMARK VINA RESULT:    -6.749      2.870      9.062
REMARK INTER + INTRA:          -8.317
REMARK INTER:                  -7.988
REMARK INTRA:                  -0.330
REMARK UNBOUND:                -0.384
REMARK SMILES O=C(/C=C/C=C/c1ccc2c(c1)OCO2)N1CCCCC1
REMARK SMILES IDX 3 1 4 2 2 3 1 4 16 5 17 6 21 7 18 8 20 9 19 10 5 11 6 12
REMARK SMILES IDX 7 13 12 14 8 15 11 16 9 17 13 18 10 19 14 20 15 21
REMARK H PARENT
REMARK Flexibility Score: inf
ROOT
ATOM      1  C   UNL     1      97.309  83.449  84.933  1.00  0.00     0.071 C 
ATOM      2  C   UNL     1      98.015  82.848  83.976  1.00  0.00     0.006 C 
ENDROOT
BRANCH   1   3
ATOM      3  C   UNL     1      97.450  82.951  86.316  1.00  0.00     0.246 C 
ATOM      4  O   UNL     1      98.577  82.958  86.811  1.00  0.00    -0.270 OA
ATOM      5  N   UNL     1      96.301  82.502  86.965  1.00  0.00    -0.339 N 
ATOM      6  C   UNL     1      96.410  81.997  88.337  1.00  0.00     0.120 C 
ATOM      7  C   UNL     1      94.948  82.437  86.392  1.00  0.00     0.120 C 
ATOM      8  C   UNL     1      95.424  82.696  89.268  1.00  0.00     0.022 C 
ATOM      9  C   UNL     1      93.928  83.124  87.299  1.00  0.00     0.022 C 
ATOM     10  C   UNL     1      94.000  82.597  88.729  1.00  0.00     0.004 C 
ENDBRANCH   1   3
BRANCH   2  11
ATOM     11  C   UNL     1      97.943  83.264  82.592  1.00  0.00     0.001 C 
ATOM     12  C   UNL     1      98.569  82.606  81.602  1.00  0.00     0.008 C 
BRANCH  12  13
ATOM     13  C   UNL     1      98.537  82.990  80.181  1.00  0.00    -0.022 A 
ATOM     14  C   UNL     1      99.700  82.896  79.429  1.00  0.00     0.058 A 
ATOM     15  C   UNL     1      97.335  83.438  79.627  1.00  0.00     0.012 A 
ATOM     16  C   UNL     1      99.620  83.266  78.102  1.00  0.00     0.166 A 
ATOM     17  C   UNL     1      97.282  83.807  78.281  1.00  0.00     0.051 A 
ATOM     18  O   UNL     1     100.643  83.247  77.205  1.00  0.00    -0.454 OA
ATOM     19  C   UNL     1      98.443  83.709  77.543  1.00  0.00     0.165 A 
ATOM     20  C   UNL     1      99.979  83.728  76.019  1.00  0.00     0.468 C 
ATOM     21  O   UNL     1      98.582  84.023  76.226  1.00  0.00    -0.454 OA
ENDBRANCH  12  13
ENDBRANCH   2  11
TORSDOF 3
ENDMDL
MODEL 5
REMARK VINA RESULT:    -6.693      2.720      3.382
REMARK INTER + INTRA:          -8.251
REMARK INTER:                  -7.932
REMARK INTRA:                  -0.319
REMARK UNBOUND:                -0.384
REMARK SMILES O=C(/C=C/C=C/c1ccc2c(c1)OCO2)N1CCCCC1
REMARK SMILES IDX 3 1 4 2 2 3 1 4 16 5 17 6 21 7 18 8 20 9 19 10 5 11 6 12
REMARK SMILES IDX 7 13 12 14 8 15 11 16 9 17 13 18 10 19 14 20 15 21
REMARK H PARENT
REMARK Flexibility Score: inf
ROOT
ATOM      1  C   UNL     1      98.756  83.186  79.823  1.00  0.00     0.071 C 
ATOM      2  C   UNL     1      97.876  83.335  80.812  1.00  0.00     0.006 C 
ENDROOT
BRANCH   1   3
ATOM      3  C   UNL     1      98.314  83.494  78.448  1.00  0.00     0.246 C 
ATOM      4  O   UNL     1      97.147  83.852  78.292  1.00  0.00    -0.270 OA
ATOM      5  N   UNL     1      99.245  83.353  77.420  1.00  0.00    -0.339 N 
ATOM      6  C   UNL     1      98.835  83.646  76.044  1.00  0.00     0.120 C 
ATOM      7  C   UNL     1     100.632  82.885  77.562  1.00  0.00     0.120 C 
ATOM      8  C   UNL     1      99.781  84.640  75.380  1.00  0.00     0.022 C 
ATOM      9  C   UNL     1     101.613  83.856  76.904  1.00  0.00     0.022 C 
ATOM     10  C   UNL     1     101.226  84.156  75.459  1.00  0.00     0.004 C 
ENDBRANCH   1   3
BRANCH   2  11
ATOM     11  C   UNL     1      98.215  83.058  82.191  1.00  0.00     0.001 C 
ATOM     12  C   UNL     1      97.510  83.547  83.225  1.00  0.00     0.008 C 
BRANCH  12  13
ATOM     13  C   UNL     1      97.815  83.304  84.645  1.00  0.00    -0.022 A 
ATOM     14  C   UNL     1      99.013  82.690  84.983  1.00  0.00     0.058 A 
ATOM     15  C   UNL     1      96.888  83.699  85.614  1.00  0.00     0.012 A 
ATOM     16  C   UNL     1      99.253  82.484  86.326  1.00  0.00     0.166 A 
ATOM     17  C   UNL     1      97.158  83.478  86.966  1.00  0.00     0.051 A 
ATOM     18  O   UNL     1     100.362  81.900  86.858  1.00  0.00    -0.454 OA
ATOM     19  C   UNL     1      98.351  82.868  87.292  1.00  0.00     0.165 A 
ATOM     20  C   UNL     1     100.056  81.960  88.266  1.00  0.00     0.468 C 
ATOM     21  O   UNL     1      98.781  82.572  88.548  1.00  0.00    -0.454 OA
ENDBRANCH  12  13
ENDBRANCH   2  11
TORSDOF 3
ENDMDL
MODEL 6
REMARK VINA RESULT:    -6.671     24.356     25.598
REMARK INTER + INTRA:          -8.225
REMARK INTER:                  -7.872
REMARK INTRA:                  -0.353
REMARK UNBOUND:                -0.384
REMARK SMILES O=C(/C=C/C=C/c1ccc2c(c1)OCO2)N1CCCCC1
REMARK SMILES IDX 3 1 4 2 2 3 1 4 16 5 17 6 21 7 18 8 20 9 19 10 5 11 6 12
REMARK SMILES IDX 7 13 12 14 8 15 11 16 9 17 13 18 10 19 14 20 15 21
REMARK H PARENT
REMARK Flexibility Score: inf
ROOT
ATOM      1  C   UNL     1      75.908  88.435  70.138  1.00  0.00     0.071 C 
ATOM      2  C   UNL     1      75.098  89.310  70.732  1.00  0.00     0.006 C 
ENDROOT
BRANCH   1   3
ATOM      3  C   UNL     1      75.483  87.023  70.081  1.00  0.00     0.246 C 
ATOM      4  O   UNL     1      74.304  86.772  70.331  1.00  0.00    -0.270 OA
ATOM      5  N   UNL     1      76.445  86.068  69.753  1.00  0.00    -0.339 N 
ATOM      6  C   UNL     1      76.054  84.656  69.694  1.00  0.00     0.120 C 
ATOM      7  C   UNL     1      77.869  86.323  69.493  1.00  0.00     0.120 C 
ATOM      8  C   UNL     1      76.453  84.023  68.366  1.00  0.00     0.022 C 
ATOM      9  C   UNL     1      78.310  85.699  68.169  1.00  0.00     0.022 C 
ATOM     10  C   UNL     1      77.941  84.220  68.092  1.00  0.00     0.004 C 
ENDBRANCH   1   3
BRANCH   2  11
ATOM     11  C   UNL     1      75.427  90.715  70.838  1.00  0.00     0.001 C 
ATOM     12  C   UNL     1      76.435  91.170  71.600  1.00  0.00     0.008 C 
BRANCH  12  13
ATOM     13  C   UNL     1      76.807  92.587  71.750  1.00  0.00    -0.022 A 
ATOM     14  C   UNL     1      75.983  93.563  71.206  1.00  0.00     0.058 A 
ATOM     15  C   UNL     1      77.981  92.910  72.435  1.00  0.00     0.012 A 
ATOM     16  C   UNL     1      76.374  94.876  71.373  1.00  0.00     0.166 A 
ATOM     17  C   UNL     1      78.353  94.248  72.589  1.00  0.00     0.051 A 
ATOM     18  O   UNL     1      75.707  95.971  70.916  1.00  0.00    -0.454 OA
ATOM     19  C   UNL     1      77.527  95.209  72.046  1.00  0.00     0.165 A 
ATOM     20  C   UNL     1      76.570  97.031  71.377  1.00  0.00     0.468 C 
ATOM     21  O   UNL     1      77.727  96.555  72.094  1.00  0.00    -0.454 OA
ENDBRANCH  12  13
ENDBRANCH   2  11
TORSDOF 3
ENDMDL
MODEL 7
REMARK VINA RESULT:    -6.646     24.286     25.645
REMARK INTER + INTRA:          -8.196
REMARK INTER:                  -7.809
REMARK INTRA:                  -0.387
REMARK UNBOUND:                -0.384
REMARK SMILES O=C(/C=C/C=C/c1ccc2c(c1)OCO2)N1CCCCC1
REMARK SMILES IDX 3 1 4 2 2 3 1 4 16 5 17 6 21 7 18 8 20 9 19 10 5 11 6 12
REMARK SMILES IDX 7 13 12 14 8 15 11 16 9 17 13 18 10 19 14 20 15 21
REMARK H PARENT
REMARK Flexibility Score: inf
ROOT
ATOM      1  C   UNL     1      75.352  88.094  70.186  1.00  0.00     0.071 C 
ATOM      2  C   UNL     1      74.588  88.740  71.065  1.00  0.00     0.006 C 
ENDROOT
BRANCH   1   3
ATOM      3  C   UNL     1      75.118  86.650  69.990  1.00  0.00     0.246 C 
ATOM      4  O   UNL     1      73.958  86.245  70.078  1.00  0.00    -0.270 OA
ATOM      5  N   UNL     1      76.222  85.842  69.724  1.00  0.00    -0.339 N 
ATOM      6  C   UNL     1      76.021  84.403  69.531  1.00  0.00     0.120 C 
ATOM      7  C   UNL     1      77.624  86.282  69.657  1.00  0.00     0.120 C 
ATOM      8  C   UNL     1      76.645  83.924  68.224  1.00  0.00     0.022 C 
ATOM      9  C   UNL     1      78.287  85.817  68.360  1.00  0.00     0.022 C 
ATOM     10  C   UNL     1      78.118  84.315  68.147  1.00  0.00     0.004 C 
ENDBRANCH   1   3
BRANCH   2  11
ATOM     11  C   UNL     1      74.742  90.155  71.326  1.00  0.00     0.001 C 
ATOM     12  C   UNL     1      75.888  90.816  71.093  1.00  0.00     0.008 C 
BRANCH  12  13
ATOM     13  C   UNL     1      76.102  92.250  71.348  1.00  0.00    -0.022 A 
ATOM     14  C   UNL     1      77.113  92.639  72.216  1.00  0.00     0.058 A 
ATOM     15  C   UNL     1      75.281  93.182  70.708  1.00  0.00     0.012 A 
ATOM     16  C   UNL     1      77.275  93.994  72.422  1.00  0.00     0.166 A 
ATOM     17  C   UNL     1      75.467  94.547  70.935  1.00  0.00     0.051 A 
ATOM     18  O   UNL     1      78.203  94.572  73.233  1.00  0.00    -0.454 OA
ATOM     19  C   UNL     1      76.474  94.923  71.799  1.00  0.00     0.165 A 
ATOM     20  C   UNL     1      77.896  95.969  73.049  1.00  0.00     0.468 C 
ATOM     21  O   UNL     1      76.800  96.199  72.140  1.00  0.00    -0.454 OA
ENDBRANCH  12  13
ENDBRANCH   2  11
TORSDOF 3
ENDMDL
MODEL 8
REMARK VINA RESULT:    -6.485      3.010      9.039
REMARK INTER + INTRA:          -8.006
REMARK INTER:                  -7.668
REMARK INTRA:                  -0.338
REMARK UNBOUND:                -0.384
REMARK SMILES O=C(/C=C/C=C/c1ccc2c(c1)OCO2)N1CCCCC1
REMARK SMILES IDX 3 1 4 2 2 3 1 4 16 5 17 6 21 7 18 8 20 9 19 10 5 11 6 12
REMARK SMILES IDX 7 13 12 14 8 15 11 16 9 17 13 18 10 19 14 20 15 21
REMARK H PARENT
REMARK Flexibility Score: inf
ROOT
ATOM      1  C   UNL     1      96.062  82.699  85.779  1.00  0.00     0.071 C 
ATOM      2  C   UNL     1      96.918  83.480  85.124  1.00  0.00     0.006 C 
ENDROOT
BRANCH   1   3
ATOM      3  C   UNL     1      95.336  83.274  86.929  1.00  0.00     0.246 C 
ATOM      4  O   UNL     1      95.827  84.263  87.475  1.00  0.00    -0.270 OA
ATOM      5  N   UNL     1      94.149  82.659  87.321  1.00  0.00    -0.339 N 
ATOM      6  C   UNL     1      93.408  83.205  88.463  1.00  0.00     0.120 C 
ATOM      7  C   UNL     1      93.556  81.453  86.724  1.00  0.00     0.120 C 
ATOM      8  C   UNL     1      91.951  83.475  88.104  1.00  0.00     0.022 C 
ATOM      9  C   UNL     1      92.091  81.683  86.353  1.00  0.00     0.022 C 
ATOM     10  C   UNL     1      91.288  82.225  87.533  1.00  0.00     0.004 C 
ENDBRANCH   1   3
BRANCH   2  11
ATOM     11  C   UNL     1      97.676  83.006  83.985  1.00  0.00     0.001 C 
ATOM     12  C   UNL     1      97.615  83.590  82.778  1.00  0.00     0.008 C 
BRANCH  12  13
ATOM     13  C   UNL     1      98.357  83.145  81.586  1.00  0.00    -0.022 A 
ATOM     14  C   UNL     1      97.862  83.457  80.327  1.00  0.00     0.058 A 
ATOM     15  C   UNL     1      99.540  82.421  81.756  1.00  0.00     0.012 A 
ATOM     16  C   UNL     1      98.593  83.019  79.241  1.00  0.00     0.166 A 
ATOM     17  C   UNL     1     100.259  81.989  80.639  1.00  0.00     0.051 A 
ATOM     18  O   UNL     1      98.276  83.220  77.933  1.00  0.00    -0.454 OA
ATOM     19  C   UNL     1      99.759  82.304  79.393  1.00  0.00     0.165 A 
ATOM     20  C   UNL     1      99.374  82.553  77.278  1.00  0.00     0.468 C 
ATOM     21  O   UNL     1     100.319  81.969  78.199  1.00  0.00    -0.454 OA
ENDBRANCH  12  13
ENDBRANCH   2  11
TORSDOF 3
ENDMDL
MODEL 9
REMARK VINA RESULT:    -6.324     25.107     26.000
REMARK INTER + INTRA:          -7.818
REMARK INTER:                  -7.400
REMARK INTRA:                  -0.417
REMARK UNBOUND:                -0.384
REMARK SMILES O=C(/C=C/C=C/c1ccc2c(c1)OCO2)N1CCCCC1
REMARK SMILES IDX 3 1 4 2 2 3 1 4 16 5 17 6 21 7 18 8 20 9 19 10 5 11 6 12
REMARK SMILES IDX 7 13 12 14 8 15 11 16 9 17 13 18 10 19 14 20 15 21
REMARK H PARENT
REMARK Flexibility Score: inf
ROOT
ATOM      1  C   UNL     1      76.693  86.118  69.130  1.00  0.00     0.071 C 
ATOM      2  C   UNL     1      75.647  85.952  69.937  1.00  0.00     0.006 C 
ENDROOT
BRANCH   1   3
ATOM      3  C   UNL     1      77.264  84.923  68.477  1.00  0.00     0.246 C 
ATOM      4  O   UNL     1      77.445  83.925  69.176  1.00  0.00    -0.270 OA
ATOM      5  N   UNL     1      77.563  85.006  67.118  1.00  0.00    -0.339 N 
ATOM      6  C   UNL     1      78.136  83.837  66.444  1.00  0.00     0.120 C 
ATOM      7  C   UNL     1      77.403  86.192  66.264  1.00  0.00     0.120 C 
ATOM      8  C   UNL     1      77.338  83.467  65.198  1.00  0.00     0.022 C 
ATOM      9  C   UNL     1      76.610  85.860  65.000  1.00  0.00     0.022 C 
ATOM     10  C   UNL     1      77.201  84.663  64.261  1.00  0.00     0.004 C 
ENDBRANCH   1   3
BRANCH   2  11
ATOM     11  C   UNL     1      75.019  87.062  70.622  1.00  0.00     0.001 C 
ATOM     12  C   UNL     1      75.418  88.334  70.461  1.00  0.00     0.008 C 
BRANCH  12  13
ATOM     13  C   UNL     1      74.821  89.498  71.137  1.00  0.00    -0.022 A 
ATOM     14  C   UNL     1      75.469  90.724  71.069  1.00  0.00     0.058 A 
ATOM     15  C   UNL     1      73.619  89.336  71.830  1.00  0.00     0.012 A 
ATOM     16  C   UNL     1      74.871  91.785  71.719  1.00  0.00     0.166 A 
ATOM     17  C   UNL     1      73.036  90.427  72.479  1.00  0.00     0.051 A 
ATOM     18  O   UNL     1      75.346  93.060  71.770  1.00  0.00    -0.454 OA
ATOM     19  C   UNL     1      73.687  91.641  72.405  1.00  0.00     0.165 A 
ATOM     20  C   UNL     1      74.328  93.701  72.566  1.00  0.00     0.468 C 
ATOM     21  O   UNL     1      73.272  92.806  72.972  1.00  0.00    -0.454 OA
ENDBRANCH  12  13
ENDBRANCH   2  11
TORSDOF 3
ENDMDL
MODEL 10
REMARK VINA RESULT:    -6.282     13.686     15.157
REMARK INTER + INTRA:          -7.769
REMARK INTER:                  -7.435
REMARK INTRA:                  -0.334
REMARK UNBOUND:                -0.384
REMARK SMILES O=C(/C=C/C=C/c1ccc2c(c1)OCO2)N1CCCCC1
REMARK SMILES IDX 3 1 4 2 2 3 1 4 16 5 17 6 21 7 18 8 20 9 19 10 5 11 6 12
REMARK SMILES IDX 7 13 12 14 8 15 11 16 9 17 13 18 10 19 14 20 15 21
REMARK H PARENT
REMARK Flexibility Score: inf
ROOT
ATOM      1  C   UNL     1      94.098  95.942  79.520  1.00  0.00     0.071 C 
ATOM      2  C   UNL     1      94.463  96.116  80.789  1.00  0.00     0.006 C 
ENDROOT
BRANCH   1   3
ATOM      3  C   UNL     1      93.395  94.692  79.166  1.00  0.00     0.246 C 
ATOM      4  O   UNL     1      93.773  93.653  79.708  1.00  0.00    -0.270 OA
ATOM      5  N   UNL     1      92.357  94.772  78.239  1.00  0.00    -0.339 N 
ATOM      6  C   UNL     1      91.644  93.547  77.862  1.00  0.00     0.120 C 
ATOM      7  C   UNL     1      91.908  95.984  77.538  1.00  0.00     0.120 C 
ATOM      8  C   UNL     1      90.137  93.707  78.028  1.00  0.00     0.022 C 
ATOM      9  C   UNL     1      90.399  96.177  77.678  1.00  0.00     0.022 C 
ATOM     10  C   UNL     1      89.629  94.926  77.266  1.00  0.00     0.004 C 
ENDBRANCH   1   3
BRANCH   2  11
ATOM     11  C   UNL     1      95.156  97.307  81.233  1.00  0.00     0.001 C 
ATOM     12  C   UNL     1      95.067  97.774  82.489  1.00  0.00     0.008 C 
BRANCH  12  13
ATOM     13  C   UNL     1      95.743  98.982  82.991  1.00  0.00    -0.022 A 
ATOM     14  C   UNL     1      96.329  98.955  84.249  1.00  0.00     0.058 A 
ATOM     15  C   UNL     1      95.776 100.124  82.186  1.00  0.00     0.012 A 
ATOM     16  C   UNL     1      96.951 100.111  84.675  1.00  0.00     0.166 A 
ATOM     17  C   UNL     1      96.412 101.280  82.642  1.00  0.00     0.051 A 
ATOM     18  O   UNL     1      97.579 100.285  85.870  1.00  0.00    -0.454 OA
ATOM     19  C   UNL     1      96.991 101.243  83.894  1.00  0.00     0.165 A 
ATOM     20  C   UNL     1      98.019 101.653  85.753  1.00  0.00     0.468 C 
ATOM     21  O   UNL     1      97.649 102.267  84.501  1.00  0.00    -0.454 OA
ENDBRANCH  12  13
ENDBRANCH   2  11
TORSDOF 3
ENDMDL
