MODEL 1
REMARK VINA RESULT:    -6.275      0.000      0.000
REMARK INTER + INTRA:         -10.716
REMARK INTER:                 -10.127
REMARK INTRA:                  -0.589
REMARK UNBOUND:                -0.589
REMARK SMILES COc1cc(CNC(=O)CCCCCCC(C)C)ccc1O
REMARK SMILES IDX 11 1 10 2 8 3 7 4 9 6 6 7 5 8 3 9 21 10 4 11 20 12 19 13
REMARK SMILES IDX 2 14 1 15 22 16 12 18 13 19 14 20 15 21 16 22 17 23 18 24
REMARK H PARENT 7 5 22 17
REMARK Flexibility Score: inf
ROOT
ATOM      1  C   UNL     1      80.574  65.862  70.874  1.00  0.00     0.010 C 
ENDROOT
BRANCH   1   2
ATOM      2  C   UNL     1      80.540  66.093  72.410  1.00  0.00     0.100 C 
BRANCH   2   3
ATOM      3  C   UNL     1      81.845  65.854  73.066  1.00  0.00     0.220 C 
ATOM      4  N   UNL     1      82.235  66.622  74.124  1.00  0.00    -0.352 N 
ATOM      5  H   UNL     1      81.592  67.362  74.367  1.00  0.00     0.163 HD
ATOM      6  O   UNL     1      82.568  64.918  72.645  1.00  0.00    -0.275 OA
BRANCH   4   7
ATOM      7  C   UNL     1      83.443  66.447  74.872  1.00  0.00     0.151 C 
BRANCH   7   8
ATOM      8  C   UNL     1      84.431  67.539  74.654  1.00  0.00    -0.025 A 
ATOM      9  C   UNL     1      85.362  69.316  73.232  1.00  0.00     0.160 A 
ATOM     10  C   UNL     1      86.283  69.650  74.249  1.00  0.00     0.157 A 
ATOM     11  C   UNL     1      84.458  68.253  73.435  1.00  0.00     0.056 A 
ATOM     12  C   UNL     1      86.293  68.922  75.452  1.00  0.00     0.050 A 
ATOM     13  C   UNL     1      85.367  67.880  75.659  1.00  0.00     0.009 A 
BRANCH   9  14
ATOM     14  O   UNL     1      85.371  69.993  72.043  1.00  0.00    -0.493 OA
ATOM     15  C   UNL     1      84.308  70.955  71.915  1.00  0.00     0.278 C 
ENDBRANCH   9  14
BRANCH  10  16
ATOM     16  O   UNL     1      87.167  70.669  74.080  1.00  0.00    -0.504 OA
ATOM     17  H   UNL     1      86.694  71.504  74.071  1.00  0.00     0.293 HD
ENDBRANCH  10  16
ENDBRANCH   7   8
ENDBRANCH   4   7
ENDBRANCH   2   3
ENDBRANCH   1   2
BRANCH   1  18
ATOM     18  C   UNL     1      79.285  65.162  70.357  1.00  0.00     0.001 C 
BRANCH  18  19
ATOM     19  C   UNL     1      79.561  63.942  69.433  1.00  0.00     0.000 C 
BRANCH  19  20
ATOM     20  C   UNL     1      78.255  63.416  68.774  1.00  0.00     0.000 C 
BRANCH  20  21
ATOM     21  C   UNL     1      77.176  64.509  68.538  1.00  0.00     0.003 C 
BRANCH  21  22
ATOM     22  C   UNL     1      76.515  64.475  67.122  1.00  0.00    -0.017 C 
ATOM     23  C   UNL     1      76.082  65.904  66.689  1.00  0.00     0.007 C 
ATOM     24  C   UNL     1      75.316  63.487  67.014  1.00  0.00     0.007 C 
ENDBRANCH  21  22
ENDBRANCH  20  21
ENDBRANCH  19  20
ENDBRANCH  18  19
ENDBRANCH   1  18
TORSDOF 11
ENDMDL
MODEL 2
REMARK VINA RESULT:    -6.006      1.075      2.186
REMARK INTER + INTRA:         -10.283
REMARK INTER:                  -9.560
REMARK INTRA:                  -0.723
REMARK UNBOUND:                -0.589
REMARK SMILES COc1cc(CNC(=O)CCCCCCC(C)C)ccc1O
REMARK SMILES IDX 11 1 10 2 8 3 7 4 9 6 6 7 5 8 3 9 21 10 4 11 20 12 19 13
REMARK SMILES IDX 2 14 1 15 22 16 12 18 13 19 14 20 15 21 16 22 17 23 18 24
REMARK H PARENT 7 5 22 17
REMARK Flexibility Score: inf
ROOT
ATOM      1  C   UNL     1      80.534  65.830  71.676  1.00  0.00     0.010 C 
ENDROOT
BRANCH   1   2
ATOM      2  C   UNL     1      81.762  64.880  71.721  1.00  0.00     0.100 C 
BRANCH   2   3
ATOM      3  C   UNL     1      82.691  65.177  72.835  1.00  0.00     0.220 C 
ATOM      4  N   UNL     1      82.481  66.260  73.637  1.00  0.00    -0.352 N 
ATOM      5  H   UNL     1      81.692  66.832  73.374  1.00  0.00     0.163 HD
ATOM      6  O   UNL     1      83.656  64.400  73.037  1.00  0.00    -0.275 OA
BRANCH   4   7
ATOM      7  C   UNL     1      83.276  66.613  74.774  1.00  0.00     0.151 C 
BRANCH   7   8
ATOM      8  C   UNL     1      84.289  67.663  74.479  1.00  0.00    -0.025 A 
ATOM      9  C   UNL     1      86.144  69.100  75.217  1.00  0.00     0.160 A 
ATOM     10  C   UNL     1      86.253  69.631  73.914  1.00  0.00     0.157 A 
ATOM     11  C   UNL     1      85.152  68.135  75.494  1.00  0.00     0.056 A 
ATOM     12  C   UNL     1      85.375  69.198  72.904  1.00  0.00     0.050 A 
ATOM     13  C   UNL     1      84.406  68.213  73.181  1.00  0.00     0.009 A 
BRANCH   9  14
ATOM     14  O   UNL     1      86.967  69.543  76.216  1.00  0.00    -0.493 OA
ATOM     15  C   UNL     1      87.853  68.532  76.729  1.00  0.00     0.278 C 
ENDBRANCH   9  14
BRANCH  10  16
ATOM     16  O   UNL     1      87.198  70.563  73.619  1.00  0.00    -0.504 OA
ATOM     17  H   UNL     1      87.027  70.926  72.747  1.00  0.00     0.293 HD
ENDBRANCH  10  16
ENDBRANCH   7   8
ENDBRANCH   4   7
ENDBRANCH   2   3
ENDBRANCH   1   2
BRANCH   1  18
ATOM     18  C   UNL     1      79.420  65.304  70.727  1.00  0.00     0.001 C 
BRANCH  18  19
ATOM     19  C   UNL     1      79.939  64.881  69.324  1.00  0.00     0.000 C 
BRANCH  19  20
ATOM     20  C   UNL     1      78.967  63.886  68.631  1.00  0.00     0.000 C 
BRANCH  20  21
ATOM     21  C   UNL     1      77.465  64.150  68.928  1.00  0.00     0.003 C 
BRANCH  21  22
ATOM     22  C   UNL     1      76.799  65.224  68.006  1.00  0.00    -0.017 C 
ATOM     23  C   UNL     1      75.401  65.623  68.559  1.00  0.00     0.007 C 
ATOM     24  C   UNL     1      76.691  64.788  66.515  1.00  0.00     0.007 C 
ENDBRANCH  21  22
ENDBRANCH  20  21
ENDBRANCH  19  20
ENDBRANCH  18  19
ENDBRANCH   1  18
TORSDOF 11
ENDMDL
MODEL 3
REMARK VINA RESULT:    -5.983     23.903     27.973
REMARK INTER + INTRA:         -10.244
REMARK INTER:                  -9.461
REMARK INTRA:                  -0.784
REMARK UNBOUND:                -0.589
REMARK SMILES COc1cc(CNC(=O)CCCCCCC(C)C)ccc1O
REMARK SMILES IDX 11 1 10 2 8 3 7 4 9 6 6 7 5 8 3 9 21 10 4 11 20 12 19 13
REMARK SMILES IDX 2 14 1 15 22 16 12 18 13 19 14 20 15 21 16 22 17 23 18 24
REMARK H PARENT 7 5 22 17
REMARK Flexibility Score: inf
ROOT
ATOM      1  C   UNL     1      95.173  83.676  85.820  1.00  0.00     0.010 C 
ENDROOT
BRANCH   1   2
ATOM      2  C   UNL     1      93.858  83.641  86.646  1.00  0.00     0.100 C 
BRANCH   2   3
ATOM      3  C   UNL     1      93.862  84.577  87.792  1.00  0.00     0.220 C 
ATOM      4  N   UNL     1      93.071  85.689  87.778  1.00  0.00    -0.352 N 
ATOM      5  H   UNL     1      92.545  85.820  86.927  1.00  0.00     0.163 HD
ATOM      6  O   UNL     1      94.589  84.313  88.782  1.00  0.00    -0.275 OA
BRANCH   4   7
ATOM      7  C   UNL     1      92.950  86.630  88.850  1.00  0.00     0.151 C 
BRANCH   7   8
ATOM      8  C   UNL     1      93.388  88.003  88.477  1.00  0.00    -0.025 A 
ATOM      9  C   UNL     1      93.307  90.435  88.834  1.00  0.00     0.160 A 
ATOM     10  C   UNL     1      94.253  90.620  87.802  1.00  0.00     0.157 A 
ATOM     11  C   UNL     1      92.868  89.132  89.150  1.00  0.00     0.056 A 
ATOM     12  C   UNL     1      94.748  89.508  87.099  1.00  0.00     0.050 A 
ATOM     13  C   UNL     1      94.328  88.207  87.440  1.00  0.00     0.009 A 
BRANCH   9  14
ATOM     14  O   UNL     1      92.789  91.514  89.498  1.00  0.00    -0.493 OA
ATOM     15  C   UNL     1      92.070  91.167  90.695  1.00  0.00     0.278 C 
ENDBRANCH   9  14
BRANCH  10  16
ATOM     16  O   UNL     1      94.692  91.864  87.475  1.00  0.00    -0.504 OA
ATOM     17  H   UNL     1      94.302  92.131  86.639  1.00  0.00     0.293 HD
ENDBRANCH  10  16
ENDBRANCH   7   8
ENDBRANCH   4   7
ENDBRANCH   2   3
ENDBRANCH   1   2
BRANCH   1  18
ATOM     18  C   UNL     1      95.235  84.902  84.865  1.00  0.00     0.001 C 
BRANCH  18  19
ATOM     19  C   UNL     1      96.011  84.630  83.545  1.00  0.00     0.000 C 
BRANCH  19  20
ATOM     20  C   UNL     1      95.974  83.124  83.160  1.00  0.00     0.000 C 
BRANCH  20  21
ATOM     21  C   UNL     1      97.372  82.501  82.891  1.00  0.00     0.003 C 
BRANCH  21  22
ATOM     22  C   UNL     1      97.603  82.037  81.416  1.00  0.00    -0.017 C 
ATOM     23  C   UNL     1      97.041  83.090  80.420  1.00  0.00     0.007 C 
ATOM     24  C   UNL     1      97.020  80.627  81.105  1.00  0.00     0.007 C 
ENDBRANCH  21  22
ENDBRANCH  20  21
ENDBRANCH  19  20
ENDBRANCH  18  19
ENDBRANCH   1  18
TORSDOF 11
ENDMDL
MODEL 4
REMARK VINA RESULT:    -5.844     23.016     25.800
REMARK INTER + INTRA:         -10.020
REMARK INTER:                  -9.397
REMARK INTRA:                  -0.623
REMARK UNBOUND:                -0.589
REMARK SMILES COc1cc(CNC(=O)CCCCCCC(C)C)ccc1O
REMARK SMILES IDX 11 1 10 2 8 3 7 4 9 6 6 7 5 8 3 9 21 10 4 11 20 12 19 13
REMARK SMILES IDX 2 14 1 15 22 16 12 18 13 19 14 20 15 21 16 22 17 23 18 24
REMARK H PARENT 7 5 22 17
REMARK Flexibility Score: inf
ROOT
ATOM      1  C   UNL     1      74.472  90.679  70.598  1.00  0.00     0.010 C 
ENDROOT
BRANCH   1   2
ATOM      2  C   UNL     1      73.128  90.589  71.372  1.00  0.00     0.100 C 
BRANCH   2   3
ATOM      3  C   UNL     1      72.915  91.717  72.307  1.00  0.00     0.220 C 
ATOM      4  N   UNL     1      73.981  92.362  72.862  1.00  0.00    -0.352 N 
ATOM      5  H   UNL     1      74.881  91.978  72.616  1.00  0.00     0.163 HD
ATOM      6  O   UNL     1      71.739  92.078  72.555  1.00  0.00    -0.275 OA
BRANCH   4   7
ATOM      7  C   UNL     1      73.898  93.498  73.730  1.00  0.00     0.151 C 
BRANCH   7   8
ATOM      8  C   UNL     1      75.183  93.804  74.418  1.00  0.00    -0.025 A 
ATOM      9  C   UNL     1      76.415  94.389  76.465  1.00  0.00     0.160 A 
ATOM     10  C   UNL     1      77.631  94.347  75.747  1.00  0.00     0.157 A 
ATOM     11  C   UNL     1      75.201  94.136  75.792  1.00  0.00     0.056 A 
ATOM     12  C   UNL     1      77.621  94.057  74.371  1.00  0.00     0.050 A 
ATOM     13  C   UNL     1      76.408  93.777  73.712  1.00  0.00     0.009 A 
BRANCH   9  14
ATOM     14  O   UNL     1      76.409  94.709  77.795  1.00  0.00    -0.493 OA
ATOM     15  C   UNL     1      75.852  93.682  78.636  1.00  0.00     0.278 C 
ENDBRANCH   9  14
BRANCH  10  16
ATOM     16  O   UNL     1      78.815  94.588  76.368  1.00  0.00    -0.504 OA
ATOM     17  H   UNL     1      79.537  94.373  75.773  1.00  0.00     0.293 HD
ENDBRANCH  10  16
ENDBRANCH   7   8
ENDBRANCH   4   7
ENDBRANCH   2   3
ENDBRANCH   1   2
BRANCH   1  18
ATOM     18  C   UNL     1      74.724  89.426  69.711  1.00  0.00     0.001 C 
BRANCH  18  19
ATOM     19  C   UNL     1      76.030  89.504  68.873  1.00  0.00     0.000 C 
BRANCH  19  20
ATOM     20  C   UNL     1      76.168  88.289  67.913  1.00  0.00     0.000 C 
BRANCH  20  21
ATOM     21  C   UNL     1      77.449  87.440  68.140  1.00  0.00     0.003 C 
BRANCH  21  22
ATOM     22  C   UNL     1      77.192  86.024  68.753  1.00  0.00    -0.017 C 
ATOM     23  C   UNL     1      77.447  84.917  67.691  1.00  0.00     0.007 C 
ATOM     24  C   UNL     1      75.775  85.862  69.379  1.00  0.00     0.007 C 
ENDBRANCH  21  22
ENDBRANCH  20  21
ENDBRANCH  19  20
ENDBRANCH  18  19
ENDBRANCH   1  18
TORSDOF 11
ENDMDL
MODEL 5
REMARK VINA RESULT:    -5.797     28.548     33.999
REMARK INTER + INTRA:          -9.945
REMARK INTER:                  -9.337
REMARK INTRA:                  -0.607
REMARK UNBOUND:                -0.589
REMARK SMILES COc1cc(CNC(=O)CCCCCCC(C)C)ccc1O
REMARK SMILES IDX 11 1 10 2 8 3 7 4 9 6 6 7 5 8 3 9 21 10 4 11 20 12 19 13
REMARK SMILES IDX 2 14 1 15 22 16 12 18 13 19 14 20 15 21 16 22 17 23 18 24
REMARK H PARENT 7 5 22 17
REMARK Flexibility Score: inf
ROOT
ATOM      1  C   UNL     1      95.410  97.934  79.367  1.00  0.00     0.010 C 
ENDROOT
BRANCH   1   2
ATOM      2  C   UNL     1      96.038  97.213  78.143  1.00  0.00     0.100 C 
BRANCH   2   3
ATOM      3  C   UNL     1      95.130  97.141  76.977  1.00  0.00     0.220 C 
ATOM      4  N   UNL     1      94.313  96.062  76.805  1.00  0.00    -0.352 N 
ATOM      5  H   UNL     1      94.422  95.336  77.498  1.00  0.00     0.163 HD
ATOM      6  O   UNL     1      95.112  98.101  76.168  1.00  0.00    -0.275 OA
BRANCH   4   7
ATOM      7  C   UNL     1      93.355  95.910  75.752  1.00  0.00     0.151 C 
BRANCH   7   8
ATOM      8  C   UNL     1      92.263  94.955  76.085  1.00  0.00    -0.025 A 
ATOM      9  C   UNL     1      90.580  93.310  75.370  1.00  0.00     0.160 A 
ATOM     10  C   UNL     1      90.209  93.101  76.716  1.00  0.00     0.157 A 
ATOM     11  C   UNL     1      91.589  94.248  75.064  1.00  0.00     0.056 A 
ATOM     12  C   UNL     1      90.845  93.828  77.739  1.00  0.00     0.050 A 
ATOM     13  C   UNL     1      91.872  94.741  77.428  1.00  0.00     0.009 A 
BRANCH   9  14
ATOM     14  O   UNL     1      89.941  92.637  74.365  1.00  0.00    -0.493 OA
ATOM     15  C   UNL     1      90.566  91.389  74.013  1.00  0.00     0.278 C 
ENDBRANCH   9  14
BRANCH  10  16
ATOM     16  O   UNL     1      89.240  92.205  77.040  1.00  0.00    -0.504 OA
ATOM     17  H   UNL     1      89.386  91.388  76.559  1.00  0.00     0.293 HD
ENDBRANCH  10  16
ENDBRANCH   7   8
ENDBRANCH   4   7
ENDBRANCH   2   3
ENDBRANCH   1   2
BRANCH   1  18
ATOM     18  C   UNL     1      96.261  99.150  79.832  1.00  0.00     0.001 C 
BRANCH  18  19
ATOM     19  C   UNL     1      96.839  98.999  81.267  1.00  0.00     0.000 C 
BRANCH  19  20
ATOM     20  C   UNL     1      95.748  99.230  82.351  1.00  0.00     0.000 C 
BRANCH  20  21
ATOM     21  C   UNL     1      94.840 100.462  82.088  1.00  0.00     0.003 C 
BRANCH  21  22
ATOM     22  C   UNL     1      95.115 101.685  83.022  1.00  0.00    -0.017 C 
ATOM     23  C   UNL     1      95.544 101.203  84.437  1.00  0.00     0.007 C 
ATOM     24  C   UNL     1      93.919 102.677  83.124  1.00  0.00     0.007 C 
ENDBRANCH  21  22
ENDBRANCH  20  21
ENDBRANCH  19  20
ENDBRANCH  18  19
ENDBRANCH   1  18
TORSDOF 11
ENDMDL
MODEL 6
REMARK VINA RESULT:    -5.476     20.078     22.988
REMARK INTER + INTRA:          -9.427
REMARK INTER:                  -8.315
REMARK INTRA:                  -1.112
REMARK UNBOUND:                -0.589
REMARK SMILES COc1cc(CNC(=O)CCCCCCC(C)C)ccc1O
REMARK SMILES IDX 11 1 10 2 8 3 7 4 9 6 6 7 5 8 3 9 21 10 4 11 20 12 19 13
REMARK SMILES IDX 2 14 1 15 22 16 12 18 13 19 14 20 15 21 16 22 17 23 18 24
REMARK H PARENT 7 5 22 17
REMARK Flexibility Score: inf
ROOT
ATOM      1  C   UNL     1      97.231  79.051  83.616  1.00  0.00     0.010 C 
ENDROOT
BRANCH   1   2
ATOM      2  C   UNL     1      96.579  77.659  83.845  1.00  0.00     0.100 C 
BRANCH   2   3
ATOM      3  C   UNL     1      95.333  77.721  84.642  1.00  0.00     0.220 C 
ATOM      4  N   UNL     1      94.133  77.939  84.029  1.00  0.00    -0.352 N 
ATOM      5  H   UNL     1      94.191  78.091  83.033  1.00  0.00     0.163 HD
ATOM      6  O   UNL     1      95.403  77.545  85.883  1.00  0.00    -0.275 OA
BRANCH   4   7
ATOM      7  C   UNL     1      92.862  77.961  84.687  1.00  0.00     0.151 C 
BRANCH   7   8
ATOM      8  C   UNL     1      92.109  79.226  84.465  1.00  0.00    -0.025 A 
ATOM      9  C   UNL     1      90.020  80.387  83.883  1.00  0.00     0.160 A 
ATOM     10  C   UNL     1      90.654  81.633  84.083  1.00  0.00     0.157 A 
ATOM     11  C   UNL     1      90.756  79.196  84.057  1.00  0.00     0.056 A 
ATOM     12  C   UNL     1      92.011  81.677  84.451  1.00  0.00     0.050 A 
ATOM     13  C   UNL     1      92.731  80.483  84.652  1.00  0.00     0.009 A 
BRANCH   9  14
ATOM     14  O   UNL     1      88.711  80.334  83.486  1.00  0.00    -0.493 OA
ATOM     15  C   UNL     1      87.773  80.581  84.549  1.00  0.00     0.278 C 
ENDBRANCH   9  14
BRANCH  10  16
ATOM     16  O   UNL     1      89.970  82.796  83.921  1.00  0.00    -0.504 OA
ATOM     17  H   UNL     1      90.004  83.302  84.736  1.00  0.00     0.293 HD
ENDBRANCH  10  16
ENDBRANCH   7   8
ENDBRANCH   4   7
ENDBRANCH   2   3
ENDBRANCH   1   2
BRANCH   1  18
ATOM     18  C   UNL     1      97.085  79.532  82.144  1.00  0.00     0.001 C 
BRANCH  18  19
ATOM     19  C   UNL     1      96.439  80.939  82.006  1.00  0.00     0.000 C 
BRANCH  19  20
ATOM     20  C   UNL     1      96.558  81.755  83.325  1.00  0.00     0.000 C 
BRANCH  20  21
ATOM     21  C   UNL     1      95.380  82.737  83.575  1.00  0.00     0.003 C 
BRANCH  21  22
ATOM     22  C   UNL     1      95.722  83.934  84.521  1.00  0.00    -0.017 C 
ATOM     23  C   UNL     1      94.579  84.156  85.552  1.00  0.00     0.007 C 
ATOM     24  C   UNL     1      96.038  85.258  83.765  1.00  0.00     0.007 C 
ENDBRANCH  21  22
ENDBRANCH  20  21
ENDBRANCH  19  20
ENDBRANCH  18  19
ENDBRANCH   1  18
TORSDOF 11
ENDMDL
MODEL 7
REMARK VINA RESULT:    -5.426     15.037     18.029
REMARK INTER + INTRA:          -9.346
REMARK INTER:                  -8.719
REMARK INTRA:                  -0.627
REMARK UNBOUND:                -0.589
REMARK SMILES COc1cc(CNC(=O)CCCCCCC(C)C)ccc1O
REMARK SMILES IDX 11 1 10 2 8 3 7 4 9 6 6 7 5 8 3 9 21 10 4 11 20 12 19 13
REMARK SMILES IDX 2 14 1 15 22 16 12 18 13 19 14 20 15 21 16 22 17 23 18 24
REMARK H PARENT 7 5 22 17
REMARK Flexibility Score: inf
ROOT
ATOM      1  C   UNL     1      92.366  77.043  83.577  1.00  0.00     0.010 C 
ENDROOT
BRANCH   1   2
ATOM      2  C   UNL     1      92.005  75.532  83.591  1.00  0.00     0.100 C 
BRANCH   2   3
ATOM      3  C   UNL     1      91.099  75.136  82.490  1.00  0.00     0.220 C 
ATOM      4  N   UNL     1      91.558  75.076  81.207  1.00  0.00    -0.352 N 
ATOM      5  H   UNL     1      92.520  75.359  81.091  1.00  0.00     0.163 HD
ATOM      6  O   UNL     1      89.911  74.836  82.767  1.00  0.00    -0.275 OA
BRANCH   4   7
ATOM      7  C   UNL     1      90.793  74.652  80.074  1.00  0.00     0.151 C 
BRANCH   7   8
ATOM      8  C   UNL     1      91.375  75.089  78.776  1.00  0.00    -0.025 A 
ATOM      9  C   UNL     1      91.655  76.807  77.038  1.00  0.00     0.160 A 
ATOM     10  C   UNL     1      92.517  75.947  76.323  1.00  0.00     0.157 A 
ATOM     11  C   UNL     1      91.077  76.366  78.247  1.00  0.00     0.056 A 
ATOM     12  C   UNL     1      92.790  74.659  76.820  1.00  0.00     0.050 A 
ATOM     13  C   UNL     1      92.233  74.236  78.042  1.00  0.00     0.009 A 
BRANCH   9  14
ATOM     14  O   UNL     1      91.352  78.046  76.544  1.00  0.00    -0.493 OA
ATOM     15  C   UNL     1      90.258  78.046  75.609  1.00  0.00     0.278 C 
ENDBRANCH   9  14
BRANCH  10  16
ATOM     16  O   UNL     1      93.087  76.344  75.155  1.00  0.00    -0.504 OA
ATOM     17  H   UNL     1      92.810  75.756  74.449  1.00  0.00     0.293 HD
ENDBRANCH  10  16
ENDBRANCH   7   8
ENDBRANCH   4   7
ENDBRANCH   2   3
ENDBRANCH   1   2
BRANCH   1  18
ATOM     18  C   UNL     1      91.170  77.936  84.016  1.00  0.00     0.001 C 
BRANCH  18  19
ATOM     19  C   UNL     1      91.563  79.412  84.304  1.00  0.00     0.000 C 
BRANCH  19  20
ATOM     20  C   UNL     1      90.587  80.408  83.618  1.00  0.00     0.000 C 
BRANCH  20  21
ATOM     21  C   UNL     1      89.822  81.333  84.604  1.00  0.00     0.003 C 
BRANCH  21  22
ATOM     22  C   UNL     1      88.272  81.127  84.619  1.00  0.00    -0.017 C 
ATOM     23  C   UNL     1      87.891  79.812  83.883  1.00  0.00     0.007 C 
ATOM     24  C   UNL     1      87.476  82.330  84.032  1.00  0.00     0.007 C 
ENDBRANCH  21  22
ENDBRANCH  20  21
ENDBRANCH  19  20
ENDBRANCH  18  19
ENDBRANCH   1  18
TORSDOF 11
ENDMDL
MODEL 8
REMARK VINA RESULT:    -5.407     20.229     23.670
REMARK INTER + INTRA:          -9.316
REMARK INTER:                  -8.205
REMARK INTRA:                  -1.111
REMARK UNBOUND:                -0.589
REMARK SMILES COc1cc(CNC(=O)CCCCCCC(C)C)ccc1O
REMARK SMILES IDX 11 1 10 2 8 3 7 4 9 6 6 7 5 8 3 9 21 10 4 11 20 12 19 13
REMARK SMILES IDX 2 14 1 15 22 16 12 18 13 19 14 20 15 21 16 22 17 23 18 24
REMARK H PARENT 7 5 22 17
REMARK Flexibility Score: inf
ROOT
ATOM      1  C   UNL     1      94.442  81.778  88.250  1.00  0.00     0.010 C 
ENDROOT
BRANCH   1   2
ATOM      2  C   UNL     1      95.495  82.651  87.514  1.00  0.00     0.100 C 
BRANCH   2   3
ATOM      3  C   UNL     1      95.011  83.187  86.222  1.00  0.00     0.220 C 
ATOM      4  N   UNL     1      95.869  83.333  85.171  1.00  0.00    -0.352 N 
ATOM      5  H   UNL     1      96.828  83.092  85.374  1.00  0.00     0.163 HD
ATOM      6  O   UNL     1      93.795  83.478  86.109  1.00  0.00    -0.275 OA
BRANCH   4   7
ATOM      7  C   UNL     1      95.504  83.784  83.863  1.00  0.00     0.151 C 
BRANCH   7   8
ATOM      8  C   UNL     1      96.108  82.970  82.772  1.00  0.00    -0.025 A 
ATOM      9  C   UNL     1      97.192  82.832  80.569  1.00  0.00     0.160 A 
ATOM     10  C   UNL     1      97.300  81.431  80.707  1.00  0.00     0.157 A 
ATOM     11  C   UNL     1      96.581  83.588  81.592  1.00  0.00     0.056 A 
ATOM     12  C   UNL     1      96.798  80.801  81.860  1.00  0.00     0.050 A 
ATOM     13  C   UNL     1      96.215  81.564  82.890  1.00  0.00     0.009 A 
BRANCH   9  14
ATOM     14  O   UNL     1      97.642  83.451  79.435  1.00  0.00    -0.493 OA
ATOM     15  C   UNL     1      96.637  83.594  78.415  1.00  0.00     0.278 C 
ENDBRANCH   9  14
BRANCH  10  16
ATOM     16  O   UNL     1      97.883  80.679  79.737  1.00  0.00    -0.504 OA
ATOM     17  H   UNL     1      97.220  80.418  79.094  1.00  0.00     0.293 HD
ENDBRANCH  10  16
ENDBRANCH   7   8
ENDBRANCH   4   7
ENDBRANCH   2   3
ENDBRANCH   1   2
BRANCH   1  18
ATOM     18  C   UNL     1      94.490  80.292  87.794  1.00  0.00     0.001 C 
BRANCH  18  19
ATOM     19  C   UNL     1      93.378  79.912  86.777  1.00  0.00     0.000 C 
BRANCH  19  20
ATOM     20  C   UNL     1      93.969  79.596  85.374  1.00  0.00     0.000 C 
BRANCH  20  21
ATOM     21  C   UNL     1      92.985  78.869  84.417  1.00  0.00     0.003 C 
BRANCH  21  22
ATOM     22  C   UNL     1      91.474  79.162  84.692  1.00  0.00    -0.017 C 
ATOM     23  C   UNL     1      90.612  77.904  84.389  1.00  0.00     0.007 C 
ATOM     24  C   UNL     1      90.926  80.398  83.918  1.00  0.00     0.007 C 
ENDBRANCH  21  22
ENDBRANCH  20  21
ENDBRANCH  19  20
ENDBRANCH  18  19
ENDBRANCH   1  18
TORSDOF 11
ENDMDL
MODEL 9
REMARK VINA RESULT:    -5.156     13.118     16.946
REMARK INTER + INTRA:          -8.911
REMARK INTER:                  -7.877
REMARK INTRA:                  -1.034
REMARK UNBOUND:                -0.589
REMARK SMILES COc1cc(CNC(=O)CCCCCCC(C)C)ccc1O
REMARK SMILES IDX 11 1 10 2 8 3 7 4 9 6 6 7 5 8 3 9 21 10 4 11 20 12 19 13
REMARK SMILES IDX 2 14 1 15 22 16 12 18 13 19 14 20 15 21 16 22 17 23 18 24
REMARK H PARENT 7 5 22 17
REMARK Flexibility Score: inf
ROOT
ATOM      1  C   UNL     1      91.479  72.745  82.120  1.00  0.00     0.010 C 
ENDROOT
BRANCH   1   2
ATOM      2  C   UNL     1      91.533  74.295  82.210  1.00  0.00     0.100 C 
BRANCH   2   3
ATOM      3  C   UNL     1      90.815  74.838  83.386  1.00  0.00     0.220 C 
ATOM      4  N   UNL     1      90.268  76.087  83.343  1.00  0.00    -0.352 N 
ATOM      5  H   UNL     1      90.437  76.592  82.485  1.00  0.00     0.163 HD
ATOM      6  O   UNL     1      90.702  74.117  84.407  1.00  0.00    -0.275 OA
BRANCH   4   7
ATOM      7  C   UNL     1      89.505  76.691  84.393  1.00  0.00     0.151 C 
BRANCH   7   8
ATOM      8  C   UNL     1      89.455  78.176  84.302  1.00  0.00    -0.025 A 
ATOM      9  C   UNL     1      90.614  80.340  84.148  1.00  0.00     0.160 A 
ATOM     10  C   UNL     1      89.369  81.005  84.084  1.00  0.00     0.157 A 
ATOM     11  C   UNL     1      90.647  78.936  84.275  1.00  0.00     0.056 A 
ATOM     12  C   UNL     1      88.176  80.263  84.150  1.00  0.00     0.050 A 
ATOM     13  C   UNL     1      88.217  78.858  84.247  1.00  0.00     0.009 A 
BRANCH   9  14
ATOM     14  O   UNL     1      91.780  81.056  84.125  1.00  0.00    -0.493 OA
ATOM     15  C   UNL     1      92.631  80.813  85.260  1.00  0.00     0.278 C 
ENDBRANCH   9  14
BRANCH  10  16
ATOM     16  O   UNL     1      89.307  82.357  83.963  1.00  0.00    -0.504 OA
ATOM     17  H   UNL     1      90.140  82.741  84.244  1.00  0.00     0.293 HD
ENDBRANCH  10  16
ENDBRANCH   7   8
ENDBRANCH   4   7
ENDBRANCH   2   3
ENDBRANCH   1   2
BRANCH   1  18
ATOM     18  C   UNL     1      91.827  72.228  80.695  1.00  0.00     0.001 C 
BRANCH  18  19
ATOM     19  C   UNL     1      91.146  73.033  79.553  1.00  0.00     0.000 C 
BRANCH  19  20
ATOM     20  C   UNL     1      89.620  72.740  79.478  1.00  0.00     0.000 C 
BRANCH  20  21
ATOM     21  C   UNL     1      89.268  71.334  78.919  1.00  0.00     0.003 C 
BRANCH  21  22
ATOM     22  C   UNL     1      88.592  70.374  79.951  1.00  0.00    -0.017 C 
ATOM     23  C   UNL     1      88.223  71.145  81.250  1.00  0.00     0.007 C 
ATOM     24  C   UNL     1      89.446  69.116  80.288  1.00  0.00     0.007 C 
ENDBRANCH  21  22
ENDBRANCH  20  21
ENDBRANCH  19  20
ENDBRANCH  18  19
ENDBRANCH   1  18
TORSDOF 11
ENDMDL
MODEL 10
REMARK VINA RESULT:    -5.104     23.398     24.664
REMARK INTER + INTRA:          -8.826
REMARK INTER:                  -7.645
REMARK INTRA:                  -1.181
REMARK UNBOUND:                -0.589
REMARK SMILES COc1cc(CNC(=O)CCCCCCC(C)C)ccc1O
REMARK SMILES IDX 11 1 10 2 8 3 7 4 9 6 6 7 5 8 3 9 21 10 4 11 20 12 19 13
REMARK SMILES IDX 2 14 1 15 22 16 12 18 13 19 14 20 15 21 16 22 17 23 18 24
REMARK H PARENT 7 5 22 17
REMARK Flexibility Score: inf
ROOT
ATOM      1  C   UNL     1     102.438  80.959  79.487  1.00  0.00     0.010 C 
ENDROOT
BRANCH   1   2
ATOM      2  C   UNL     1     102.265  79.685  78.615  1.00  0.00     0.100 C 
BRANCH   2   3
ATOM      3  C   UNL     1     101.536  79.935  77.351  1.00  0.00     0.220 C 
ATOM      4  N   UNL     1     100.219  80.290  77.374  1.00  0.00    -0.352 N 
ATOM      5  H   UNL     1      99.806  80.318  78.295  1.00  0.00     0.163 HD
ATOM      6  O   UNL     1     102.161  79.836  76.267  1.00  0.00    -0.275 OA
BRANCH   4   7
ATOM      7  C   UNL     1      99.430  80.612  76.224  1.00  0.00     0.151 C 
BRANCH   7   8
ATOM      8  C   UNL     1      98.532  81.780  76.437  1.00  0.00    -0.025 A 
ATOM      9  C   UNL     1      97.446  83.815  75.582  1.00  0.00     0.160 A 
ATOM     10  C   UNL     1      96.787  83.985  76.819  1.00  0.00     0.157 A 
ATOM     11  C   UNL     1      98.326  82.726  75.407  1.00  0.00     0.056 A 
ATOM     12  C   UNL     1      97.014  83.072  77.865  1.00  0.00     0.050 A 
ATOM     13  C   UNL     1      97.871  81.971  77.673  1.00  0.00     0.009 A 
BRANCH   9  14
ATOM     14  O   UNL     1      97.263  84.719  74.572  1.00  0.00    -0.493 OA
ATOM     15  C   UNL     1      98.232  84.610  73.513  1.00  0.00     0.278 C 
ENDBRANCH   9  14
BRANCH  10  16
ATOM     16  O   UNL     1      95.935  85.026  77.017  1.00  0.00    -0.504 OA
ATOM     17  H   UNL     1      95.074  84.688  77.275  1.00  0.00     0.293 HD
ENDBRANCH  10  16
ENDBRANCH   7   8
ENDBRANCH   4   7
ENDBRANCH   2   3
ENDBRANCH   1   2
BRANCH   1  18
ATOM     18  C   UNL     1     101.561  80.916  80.770  1.00  0.00     0.001 C 
BRANCH  18  19
ATOM     19  C   UNL     1     100.226  81.702  80.644  1.00  0.00     0.000 C 
BRANCH  19  20
ATOM     20  C   UNL     1      99.242  81.347  81.794  1.00  0.00     0.000 C 
BRANCH  20  21
ATOM     21  C   UNL     1      97.747  81.600  81.454  1.00  0.00     0.003 C 
BRANCH  21  22
ATOM     22  C   UNL     1      96.949  82.367  82.558  1.00  0.00    -0.017 C 
ATOM     23  C   UNL     1      95.864  81.447  83.184  1.00  0.00     0.007 C 
ATOM     24  C   UNL     1      96.314  83.699  82.060  1.00  0.00     0.007 C 
ENDBRANCH  21  22
ENDBRANCH  20  21
ENDBRANCH  19  20
ENDBRANCH  18  19
ENDBRANCH   1  18
TORSDOF 11
ENDMDL
