MODEL 1
REMARK VINA RESULT:    -6.329      0.000      0.000
REMARK INTER + INTRA:         -10.905
REMARK INTER:                 -10.214
REMARK INTRA:                  -0.692
REMARK UNBOUND:                -0.692
REMARK SMILES COc1cc(CNC(=O)CCCCCCC(C)C)ccc1O
REMARK SMILES IDX 11 1 10 2 8 3 7 4 9 6 6 7 5 8 3 9 21 10 4 11 20 12 19 13
REMARK SMILES IDX 2 14 1 15 22 16 12 18 13 19 14 20 15 21 16 22 17 23 18 24
REMARK H PARENT 7 5 22 17
REMARK Flexibility Score: inf
ROOT
ATOM      1  C   UNL     1      92.721 100.001  73.012  1.00  0.00     0.010 C 
ENDROOT
BRANCH   1   2
ATOM      2  C   UNL     1      92.683 100.243  74.547  1.00  0.00     0.100 C 
BRANCH   2   3
ATOM      3  C   UNL     1      93.571  99.333  75.305  1.00  0.00     0.220 C 
ATOM      4  N   UNL     1      93.516  97.986  75.097  1.00  0.00    -0.352 N 
ATOM      5  H   UNL     1      92.810  97.689  74.440  1.00  0.00     0.163 HD
ATOM      6  O   UNL     1      94.387  99.830  76.120  1.00  0.00    -0.275 OA
BRANCH   4   7
ATOM      7  C   UNL     1      94.362  97.018  75.727  1.00  0.00     0.151 C 
BRANCH   7   8
ATOM      8  C   UNL     1      93.632  96.123  76.667  1.00  0.00    -0.025 A 
ATOM      9  C   UNL     1      91.517  95.218  77.535  1.00  0.00     0.160 A 
ATOM     10  C   UNL     1      92.234  94.388  78.424  1.00  0.00     0.157 A 
ATOM     11  C   UNL     1      92.219  96.091  76.678  1.00  0.00     0.056 A 
ATOM     12  C   UNL     1      93.640  94.440  78.450  1.00  0.00     0.050 A 
ATOM     13  C   UNL     1      94.335  95.292  77.571  1.00  0.00     0.009 A 
BRANCH   9  14
ATOM     14  O   UNL     1      90.149  95.204  77.529  1.00  0.00    -0.493 OA
ATOM     15  C   UNL     1      89.581  94.373  76.501  1.00  0.00     0.278 C 
ENDBRANCH   9  14
BRANCH  10  16
ATOM     16  O   UNL     1      91.584  93.539  79.262  1.00  0.00    -0.504 OA
ATOM     17  H   UNL     1      91.277  92.775  78.767  1.00  0.00     0.293 HD
ENDBRANCH  10  16
ENDBRANCH   7   8
ENDBRANCH   4   7
ENDBRANCH   2   3
ENDBRANCH   1   2
BRANCH   1  18
ATOM     18  C   UNL     1      91.425 100.493  72.308  1.00  0.00     0.001 C 
BRANCH  18  19
ATOM     19  C   UNL     1      91.147  99.793  70.947  1.00  0.00     0.000 C 
BRANCH  19  20
ATOM     20  C   UNL     1      90.073  98.678  71.087  1.00  0.00     0.000 C 
BRANCH  20  21
ATOM     21  C   UNL     1      88.831  98.872  70.175  1.00  0.00     0.003 C 
BRANCH  21  22
ATOM     22  C   UNL     1      89.156  98.995  68.650  1.00  0.00    -0.017 C 
ATOM     23  C   UNL     1      88.631 100.346  68.089  1.00  0.00     0.007 C 
ATOM     24  C   UNL     1      88.620  97.806  67.799  1.00  0.00     0.007 C 
ENDBRANCH  21  22
ENDBRANCH  20  21
ENDBRANCH  19  20
ENDBRANCH  18  19
ENDBRANCH   1  18
TORSDOF 11
ENDMDL
MODEL 2
REMARK VINA RESULT:    -5.982      1.141      2.299
REMARK INTER + INTRA:         -10.346
REMARK INTER:                  -9.768
REMARK INTRA:                  -0.578
REMARK UNBOUND:                -0.692
REMARK SMILES COc1cc(CNC(=O)CCCCCCC(C)C)ccc1O
REMARK SMILES IDX 11 1 10 2 8 3 7 4 9 6 6 7 5 8 3 9 21 10 4 11 20 12 19 13
REMARK SMILES IDX 2 14 1 15 22 16 12 18 13 19 14 20 15 21 16 22 17 23 18 24
REMARK H PARENT 7 5 22 17
REMARK Flexibility Score: inf
ROOT
ATOM      1  C   UNL     1      92.692 100.064  73.128  1.00  0.00     0.010 C 
ENDROOT
BRANCH   1   2
ATOM      2  C   UNL     1      92.613 100.022  74.679  1.00  0.00     0.100 C 
BRANCH   2   3
ATOM      3  C   UNL     1      93.639  99.150  75.293  1.00  0.00     0.220 C 
ATOM      4  N   UNL     1      93.566  97.795  75.152  1.00  0.00    -0.352 N 
ATOM      5  H   UNL     1      92.754  97.467  74.649  1.00  0.00     0.163 HD
ATOM      6  O   UNL     1      94.585  99.685  75.922  1.00  0.00    -0.275 OA
BRANCH   4   7
ATOM      7  C   UNL     1      94.528  96.859  75.650  1.00  0.00     0.151 C 
BRANCH   7   8
ATOM      8  C   UNL     1      93.998  96.001  76.745  1.00  0.00    -0.025 A 
ATOM      9  C   UNL     1      94.391  94.472  78.632  1.00  0.00     0.160 A 
ATOM     10  C   UNL     1      93.000  94.397  78.863  1.00  0.00     0.157 A 
ATOM     11  C   UNL     1      94.877  95.257  77.565  1.00  0.00     0.056 A 
ATOM     12  C   UNL     1      92.112  95.102  78.030  1.00  0.00     0.050 A 
ATOM     13  C   UNL     1      92.607  95.907  76.985  1.00  0.00     0.009 A 
BRANCH   9  14
ATOM     14  O   UNL     1      95.260  93.760  79.412  1.00  0.00    -0.493 OA
ATOM     15  C   UNL     1      95.852  94.530  80.473  1.00  0.00     0.278 C 
ENDBRANCH   9  14
BRANCH  10  16
ATOM     16  O   UNL     1      92.503  93.648  79.882  1.00  0.00    -0.504 OA
ATOM     17  H   UNL     1      92.982  92.818  79.932  1.00  0.00     0.293 HD
ENDBRANCH  10  16
ENDBRANCH   7   8
ENDBRANCH   4   7
ENDBRANCH   2   3
ENDBRANCH   1   2
BRANCH   1  18
ATOM     18  C   UNL     1      91.375 100.587  72.487  1.00  0.00     0.001 C 
BRANCH  18  19
ATOM     19  C   UNL     1      91.235 100.247  70.976  1.00  0.00     0.000 C 
BRANCH  19  20
ATOM     20  C   UNL     1      90.327  99.005  70.751  1.00  0.00     0.000 C 
BRANCH  20  21
ATOM     21  C   UNL     1      88.965  99.325  70.075  1.00  0.00     0.003 C 
BRANCH  21  22
ATOM     22  C   UNL     1      89.010  99.372  68.513  1.00  0.00    -0.017 C 
ATOM     23  C   UNL     1      88.674 100.801  68.002  1.00  0.00     0.007 C 
ATOM     24  C   UNL     1      88.089  98.318  67.829  1.00  0.00     0.007 C 
ENDBRANCH  21  22
ENDBRANCH  20  21
ENDBRANCH  19  20
ENDBRANCH  18  19
ENDBRANCH   1  18
TORSDOF 11
ENDMDL
MODEL 3
REMARK VINA RESULT:    -5.918     19.321     21.135
REMARK INTER + INTRA:         -10.242
REMARK INTER:                  -8.285
REMARK INTRA:                  -1.957
REMARK UNBOUND:                -0.692
REMARK SMILES COc1cc(CNC(=O)CCCCCCC(C)C)ccc1O
REMARK SMILES IDX 11 1 10 2 8 3 7 4 9 6 6 7 5 8 3 9 21 10 4 11 20 12 19 13
REMARK SMILES IDX 2 14 1 15 22 16 12 18 13 19 14 20 15 21 16 22 17 23 18 24
REMARK H PARENT 7 5 22 17
REMARK Flexibility Score: inf
ROOT
ATOM      1  C   UNL     1      76.751  83.821  65.644  1.00  0.00     0.010 C 
ENDROOT
BRANCH   1   2
ATOM      2  C   UNL     1      77.725  83.245  66.709  1.00  0.00     0.100 C 
BRANCH   2   3
ATOM      3  C   UNL     1      77.743  84.025  67.967  1.00  0.00     0.220 C 
ATOM      4  N   UNL     1      76.727  83.902  68.869  1.00  0.00    -0.352 N 
ATOM      5  H   UNL     1      75.979  83.290  68.580  1.00  0.00     0.163 HD
ATOM      6  O   UNL     1      78.722  84.778  68.194  1.00  0.00    -0.275 OA
BRANCH   4   7
ATOM      7  C   UNL     1      76.667  84.559  70.140  1.00  0.00     0.151 C 
BRANCH   7   8
ATOM      8  C   UNL     1      75.892  85.830  70.107  1.00  0.00    -0.025 A 
ATOM      9  C   UNL     1      73.733  87.008  70.072  1.00  0.00     0.160 A 
ATOM     10  C   UNL     1      74.407  88.248  70.088  1.00  0.00     0.157 A 
ATOM     11  C   UNL     1      74.479  85.811  70.062  1.00  0.00     0.056 A 
ATOM     12  C   UNL     1      75.813  88.281  70.092  1.00  0.00     0.050 A 
ATOM     13  C   UNL     1      76.551  87.082  70.112  1.00  0.00     0.009 A 
BRANCH   9  14
ATOM     14  O   UNL     1      72.366  86.965  70.028  1.00  0.00    -0.493 OA
ATOM     15  C   UNL     1      71.843  86.350  68.836  1.00  0.00     0.278 C 
ENDBRANCH   9  14
BRANCH  10  16
ATOM     16  O   UNL     1      73.714  89.417  70.096  1.00  0.00    -0.504 OA
ATOM     17  H   UNL     1      73.671  89.757  70.993  1.00  0.00     0.293 HD
ENDBRANCH  10  16
ENDBRANCH   7   8
ENDBRANCH   4   7
ENDBRANCH   2   3
ENDBRANCH   1   2
BRANCH   1  18
ATOM     18  C   UNL     1      77.337  83.734  64.206  1.00  0.00     0.001 C 
BRANCH  18  19
ATOM     19  C   UNL     1      77.021  84.975  63.325  1.00  0.00     0.000 C 
BRANCH  19  20
ATOM     20  C   UNL     1      76.017  85.934  64.026  1.00  0.00     0.000 C 
BRANCH  20  21
ATOM     21  C   UNL     1      76.632  87.293  64.460  1.00  0.00     0.003 C 
BRANCH  21  22
ATOM     22  C   UNL     1      76.310  87.712  65.932  1.00  0.00    -0.017 C 
ATOM     23  C   UNL     1      77.592  87.643  66.809  1.00  0.00     0.007 C 
ATOM     24  C   UNL     1      75.161  86.886  66.580  1.00  0.00     0.007 C 
ENDBRANCH  21  22
ENDBRANCH  20  21
ENDBRANCH  19  20
ENDBRANCH  18  19
ENDBRANCH   1  18
TORSDOF 11
ENDMDL
MODEL 4
REMARK VINA RESULT:    -5.892     20.284     23.472
REMARK INTER + INTRA:         -10.200
REMARK INTER:                  -9.157
REMARK INTRA:                  -1.044
REMARK UNBOUND:                -0.692
REMARK SMILES COc1cc(CNC(=O)CCCCCCC(C)C)ccc1O
REMARK SMILES IDX 11 1 10 2 8 3 7 4 9 6 6 7 5 8 3 9 21 10 4 11 20 12 19 13
REMARK SMILES IDX 2 14 1 15 22 16 12 18 13 19 14 20 15 21 16 22 17 23 18 24
REMARK H PARENT 7 5 22 17
REMARK Flexibility Score: inf
ROOT
ATOM      1  C   UNL     1      77.563  86.574  66.394  1.00  0.00     0.010 C 
ENDROOT
BRANCH   1   2
ATOM      2  C   UNL     1      77.664  85.344  67.339  1.00  0.00     0.100 C 
BRANCH   2   3
ATOM      3  C   UNL     1      77.935  84.077  66.624  1.00  0.00     0.220 C 
ATOM      4  N   UNL     1      77.015  83.071  66.632  1.00  0.00    -0.352 N 
ATOM      5  H   UNL     1      76.193  83.256  67.188  1.00  0.00     0.163 HD
ATOM      6  O   UNL     1      79.014  83.962  65.993  1.00  0.00    -0.275 OA
BRANCH   4   7
ATOM      7  C   UNL     1      77.141  81.829  65.931  1.00  0.00     0.151 C 
BRANCH   7   8
ATOM      8  C   UNL     1      75.925  81.468  65.152  1.00  0.00    -0.025 A 
ATOM      9  C   UNL     1      73.507  81.026  65.063  1.00  0.00     0.160 A 
ATOM     10  C   UNL     1      73.594  80.823  63.669  1.00  0.00     0.157 A 
ATOM     11  C   UNL     1      74.674  81.328  65.796  1.00  0.00     0.056 A 
ATOM     12  C   UNL     1      74.839  80.921  63.023  1.00  0.00     0.050 A 
ATOM     13  C   UNL     1      75.996  81.252  63.756  1.00  0.00     0.009 A 
BRANCH   9  14
ATOM     14  O   UNL     1      72.307  80.894  65.707  1.00  0.00    -0.493 OA
ATOM     15  C   UNL     1      71.748  82.143  66.153  1.00  0.00     0.278 C 
ENDBRANCH   9  14
BRANCH  10  16
ATOM     16  O   UNL     1      72.486  80.530  62.938  1.00  0.00    -0.504 OA
ATOM     17  H   UNL     1      72.507  81.023  62.114  1.00  0.00     0.293 HD
ENDBRANCH  10  16
ENDBRANCH   7   8
ENDBRANCH   4   7
ENDBRANCH   2   3
ENDBRANCH   1   2
BRANCH   1  18
ATOM     18  C   UNL     1      77.083  87.850  67.142  1.00  0.00     0.001 C 
BRANCH  18  19
ATOM     19  C   UNL     1      75.694  87.693  67.822  1.00  0.00     0.000 C 
BRANCH  19  20
ATOM     20  C   UNL     1      75.675  88.333  69.239  1.00  0.00     0.000 C 
BRANCH  20  21
ATOM     21  C   UNL     1      75.634  87.304  70.402  1.00  0.00     0.003 C 
BRANCH  21  22
ATOM     22  C   UNL     1      75.263  85.848  69.970  1.00  0.00    -0.017 C 
ATOM     23  C   UNL     1      73.719  85.660  69.962  1.00  0.00     0.007 C 
ATOM     24  C   UNL     1      75.942  84.746  70.835  1.00  0.00     0.007 C 
ENDBRANCH  21  22
ENDBRANCH  20  21
ENDBRANCH  19  20
ENDBRANCH  18  19
ENDBRANCH   1  18
TORSDOF 11
ENDMDL
MODEL 5
REMARK VINA RESULT:    -5.610     19.008     20.975
REMARK INTER + INTRA:          -9.746
REMARK INTER:                  -7.573
REMARK INTRA:                  -2.174
REMARK UNBOUND:                -0.692
REMARK SMILES COc1cc(CNC(=O)CCCCCCC(C)C)ccc1O
REMARK SMILES IDX 11 1 10 2 8 3 7 4 9 6 6 7 5 8 3 9 21 10 4 11 20 12 19 13
REMARK SMILES IDX 2 14 1 15 22 16 12 18 13 19 14 20 15 21 16 22 17 23 18 24
REMARK H PARENT 7 5 22 17
REMARK Flexibility Score: inf
ROOT
ATOM      1  C   UNL     1      76.937  85.828  65.722  1.00  0.00     0.010 C 
ENDROOT
BRANCH   1   2
ATOM      2  C   UNL     1      75.489  85.568  65.223  1.00  0.00     0.100 C 
BRANCH   2   3
ATOM      3  C   UNL     1      74.466  86.329  65.976  1.00  0.00     0.220 C 
ATOM      4  N   UNL     1      74.279  86.100  67.308  1.00  0.00    -0.352 N 
ATOM      5  H   UNL     1      74.852  85.363  67.694  1.00  0.00     0.163 HD
ATOM      6  O   UNL     1      73.796  87.200  65.370  1.00  0.00    -0.275 OA
BRANCH   4   7
ATOM      7  C   UNL     1      73.364  86.811  68.149  1.00  0.00     0.151 C 
BRANCH   7   8
ATOM      8  C   UNL     1      74.007  87.915  68.914  1.00  0.00    -0.025 A 
ATOM      9  C   UNL     1      74.779  90.246  69.047  1.00  0.00     0.160 A 
ATOM     10  C   UNL     1      75.192  90.036  70.381  1.00  0.00     0.157 A 
ATOM     11  C   UNL     1      74.208  89.181  68.319  1.00  0.00     0.056 A 
ATOM     12  C   UNL     1      75.033  88.769  70.971  1.00  0.00     0.050 A 
ATOM     13  C   UNL     1      74.435  87.718  70.248  1.00  0.00     0.009 A 
BRANCH   9  14
ATOM     14  O   UNL     1      74.965  91.463  68.450  1.00  0.00    -0.493 OA
ATOM     15  C   UNL     1      73.770  92.262  68.376  1.00  0.00     0.278 C 
ENDBRANCH   9  14
BRANCH  10  16
ATOM     16  O   UNL     1      75.746  91.043  71.105  1.00  0.00    -0.504 OA
ATOM     17  H   UNL     1      75.883  90.749  72.009  1.00  0.00     0.293 HD
ENDBRANCH  10  16
ENDBRANCH   7   8
ENDBRANCH   4   7
ENDBRANCH   2   3
ENDBRANCH   1   2
BRANCH   1  18
ATOM     18  C   UNL     1      77.184  87.328  66.054  1.00  0.00     0.001 C 
BRANCH  18  19
ATOM     19  C   UNL     1      77.597  87.582  67.531  1.00  0.00     0.000 C 
BRANCH  19  20
ATOM     20  C   UNL     1      78.173  86.299  68.193  1.00  0.00     0.000 C 
BRANCH  20  21
ATOM     21  C   UNL     1      77.630  86.020  69.622  1.00  0.00     0.003 C 
BRANCH  21  22
ATOM     22  C   UNL     1      76.565  84.877  69.702  1.00  0.00    -0.017 C 
ATOM     23  C   UNL     1      76.573  84.224  71.112  1.00  0.00     0.007 C 
ATOM     24  C   UNL     1      76.729  83.792  68.597  1.00  0.00     0.007 C 
ENDBRANCH  21  22
ENDBRANCH  20  21
ENDBRANCH  19  20
ENDBRANCH  18  19
ENDBRANCH   1  18
TORSDOF 11
ENDMDL
MODEL 6
REMARK VINA RESULT:    -5.580     16.855     19.924
REMARK INTER + INTRA:          -9.696
REMARK INTER:                  -9.081
REMARK INTRA:                  -0.615
REMARK UNBOUND:                -0.692
REMARK SMILES COc1cc(CNC(=O)CCCCCCC(C)C)ccc1O
REMARK SMILES IDX 11 1 10 2 8 3 7 4 9 6 6 7 5 8 3 9 21 10 4 11 20 12 19 13
REMARK SMILES IDX 2 14 1 15 22 16 12 18 13 19 14 20 15 21 16 22 17 23 18 24
REMARK H PARENT 7 5 22 17
REMARK Flexibility Score: inf
ROOT
ATOM      1  C   UNL     1      74.743  89.157  70.726  1.00  0.00     0.010 C 
ENDROOT
BRANCH   1   2
ATOM      2  C   UNL     1      76.193  88.878  70.244  1.00  0.00     0.100 C 
BRANCH   2   3
ATOM      3  C   UNL     1      76.450  87.448  69.959  1.00  0.00     0.220 C 
ATOM      4  N   UNL     1      77.675  87.044  69.513  1.00  0.00    -0.352 N 
ATOM      5  H   UNL     1      78.336  87.791  69.363  1.00  0.00     0.163 HD
ATOM      6  O   UNL     1      75.529  86.620  70.160  1.00  0.00    -0.275 OA
BRANCH   4   7
ATOM      7  C   UNL     1      78.055  85.687  69.261  1.00  0.00     0.151 C 
BRANCH   7   8
ATOM      8  C   UNL     1      77.800  85.257  67.858  1.00  0.00    -0.025 A 
ATOM      9  C   UNL     1      77.528  83.465  66.196  1.00  0.00     0.160 A 
ATOM     10  C   UNL     1      77.271  84.428  65.196  1.00  0.00     0.157 A 
ATOM     11  C   UNL     1      77.808  83.887  67.513  1.00  0.00     0.056 A 
ATOM     12  C   UNL     1      77.299  85.797  65.519  1.00  0.00     0.050 A 
ATOM     13  C   UNL     1      77.550  86.210  66.842  1.00  0.00     0.009 A 
BRANCH   9  14
ATOM     14  O   UNL     1      77.542  82.133  65.884  1.00  0.00    -0.493 OA
ATOM     15  C   UNL     1      76.242  81.518  65.906  1.00  0.00     0.278 C 
ENDBRANCH   9  14
BRANCH  10  16
ATOM     16  O   UNL     1      76.999  84.051  63.919  1.00  0.00    -0.504 OA
ATOM     17  H   UNL     1      76.235  83.471  63.913  1.00  0.00     0.293 HD
ENDBRANCH  10  16
ENDBRANCH   7   8
ENDBRANCH   4   7
ENDBRANCH   2   3
ENDBRANCH   1   2
BRANCH   1  18
ATOM     18  C   UNL     1      74.633  90.492  71.516  1.00  0.00     0.001 C 
BRANCH  18  19
ATOM     19  C   UNL     1      74.856  91.757  70.640  1.00  0.00     0.000 C 
BRANCH  19  20
ATOM     20  C   UNL     1      76.040  92.616  71.167  1.00  0.00     0.000 C 
BRANCH  20  21
ATOM     21  C   UNL     1      76.160  92.655  72.716  1.00  0.00     0.003 C 
BRANCH  21  22
ATOM     22  C   UNL     1      77.624  92.781  73.252  1.00  0.00    -0.017 C 
ATOM     23  C   UNL     1      77.623  92.963  74.796  1.00  0.00     0.007 C 
ATOM     24  C   UNL     1      78.443  93.916  72.570  1.00  0.00     0.007 C 
ENDBRANCH  21  22
ENDBRANCH  20  21
ENDBRANCH  19  20
ENDBRANCH  18  19
ENDBRANCH   1  18
TORSDOF 11
ENDMDL
MODEL 7
REMARK VINA RESULT:    -5.542     16.177     19.261
REMARK INTER + INTRA:          -9.635
REMARK INTER:                  -9.053
REMARK INTRA:                  -0.582
REMARK UNBOUND:                -0.692
REMARK SMILES COc1cc(CNC(=O)CCCCCCC(C)C)ccc1O
REMARK SMILES IDX 11 1 10 2 8 3 7 4 9 6 6 7 5 8 3 9 21 10 4 11 20 12 19 13
REMARK SMILES IDX 2 14 1 15 22 16 12 18 13 19 14 20 15 21 16 22 17 23 18 24
REMARK H PARENT 7 5 22 17
REMARK Flexibility Score: inf
ROOT
ATOM      1  C   UNL     1      98.285  81.739  84.623  1.00  0.00     0.010 C 
ENDROOT
BRANCH   1   2
ATOM      2  C   UNL     1      98.482  80.456  83.769  1.00  0.00     0.100 C 
BRANCH   2   3
ATOM      3  C   UNL     1      99.154  80.711  82.476  1.00  0.00     0.220 C 
ATOM      4  N   UNL     1      99.642  81.952  82.186  1.00  0.00    -0.352 N 
ATOM      5  H   UNL     1      99.464  82.650  82.892  1.00  0.00     0.163 HD
ATOM      6  O   UNL     1      99.285  79.759  81.667  1.00  0.00    -0.275 OA
BRANCH   4   7
ATOM      7  C   UNL     1     100.359  82.300  80.996  1.00  0.00     0.151 C 
BRANCH   7   8
ATOM      8  C   UNL     1      99.476  82.788  79.902  1.00  0.00    -0.025 A 
ATOM      9  C   UNL     1      99.142  83.375  77.537  1.00  0.00     0.160 A 
ATOM     10  C   UNL     1      97.787  83.676  77.800  1.00  0.00     0.157 A 
ATOM     11  C   UNL     1      99.978  82.953  78.591  1.00  0.00     0.056 A 
ATOM     12  C   UNL     1      97.285  83.554  79.109  1.00  0.00     0.050 A 
ATOM     13  C   UNL     1      98.119  83.103  80.150  1.00  0.00     0.009 A 
BRANCH   9  14
ATOM     14  O   UNL     1      99.650  83.528  76.276  1.00  0.00    -0.493 OA
ATOM     15  C   UNL     1     101.042  83.179  76.166  1.00  0.00     0.278 C 
ENDBRANCH   9  14
BRANCH  10  16
ATOM     16  O   UNL     1      96.959  84.087  76.805  1.00  0.00    -0.504 OA
ATOM     17  H   UNL     1      96.491  84.877  77.084  1.00  0.00     0.293 HD
ENDBRANCH  10  16
ENDBRANCH   7   8
ENDBRANCH   4   7
ENDBRANCH   2   3
ENDBRANCH   1   2
BRANCH   1  18
ATOM     18  C   UNL     1      97.459  82.822  83.872  1.00  0.00     0.001 C 
BRANCH  18  19
ATOM     19  C   UNL     1      97.542  84.233  84.519  1.00  0.00     0.000 C 
BRANCH  19  20
ATOM     20  C   UNL     1      96.247  84.577  85.308  1.00  0.00     0.000 C 
BRANCH  20  21
ATOM     21  C   UNL     1      96.409  84.524  86.853  1.00  0.00     0.003 C 
BRANCH  21  22
ATOM     22  C   UNL     1      95.566  83.412  87.558  1.00  0.00    -0.017 C 
ATOM     23  C   UNL     1      94.860  82.514  86.503  1.00  0.00     0.007 C 
ATOM     24  C   UNL     1      94.531  83.966  88.581  1.00  0.00     0.007 C 
ENDBRANCH  21  22
ENDBRANCH  20  21
ENDBRANCH  19  20
ENDBRANCH  18  19
ENDBRANCH   1  18
TORSDOF 11
ENDMDL
MODEL 8
REMARK VINA RESULT:    -5.510     21.333     24.520
REMARK INTER + INTRA:          -9.584
REMARK INTER:                  -8.570
REMARK INTRA:                  -1.014
REMARK UNBOUND:                -0.692
REMARK SMILES COc1cc(CNC(=O)CCCCCCC(C)C)ccc1O
REMARK SMILES IDX 11 1 10 2 8 3 7 4 9 6 6 7 5 8 3 9 21 10 4 11 20 12 19 13
REMARK SMILES IDX 2 14 1 15 22 16 12 18 13 19 14 20 15 21 16 22 17 23 18 24
REMARK H PARENT 7 5 22 17
REMARK Flexibility Score: inf
ROOT
ATOM      1  C   UNL     1      75.696  81.816  66.443  1.00  0.00     0.010 C 
ENDROOT
BRANCH   1   2
ATOM      2  C   UNL     1      74.795  81.323  65.277  1.00  0.00     0.100 C 
BRANCH   2   3
ATOM      3  C   UNL     1      73.513  82.056  65.177  1.00  0.00     0.220 C 
ATOM      4  N   UNL     1      72.544  81.881  66.122  1.00  0.00    -0.352 N 
ATOM      5  H   UNL     1      72.767  81.199  66.832  1.00  0.00     0.163 HD
ATOM      6  O   UNL     1      73.349  82.856  64.224  1.00  0.00    -0.275 OA
BRANCH   4   7
ATOM      7  C   UNL     1      71.293  82.576  66.162  1.00  0.00     0.151 C 
BRANCH   7   8
ATOM      8  C   UNL     1      70.986  83.155  67.498  1.00  0.00    -0.025 A 
ATOM      9  C   UNL     1      71.476  84.776  69.281  1.00  0.00     0.160 A 
ATOM     10  C   UNL     1      70.379  84.293  70.026  1.00  0.00     0.157 A 
ATOM     11  C   UNL     1      71.782  84.192  68.034  1.00  0.00     0.056 A 
ATOM     12  C   UNL     1      69.602  83.234  69.521  1.00  0.00     0.050 A 
ATOM     13  C   UNL     1      69.895  82.676  68.262  1.00  0.00     0.009 A 
BRANCH   9  14
ATOM     14  O   UNL     1      72.262  85.779  69.781  1.00  0.00    -0.493 OA
ATOM     15  C   UNL     1      72.023  87.061  69.173  1.00  0.00     0.278 C 
ENDBRANCH   9  14
BRANCH  10  16
ATOM     16  O   UNL     1      70.062  84.835  71.231  1.00  0.00    -0.504 OA
ATOM     17  H   UNL     1      69.963  85.786  71.137  1.00  0.00     0.293 HD
ENDBRANCH  10  16
ENDBRANCH   7   8
ENDBRANCH   4   7
ENDBRANCH   2   3
ENDBRANCH   1   2
BRANCH   1  18
ATOM     18  C   UNL     1      77.060  82.367  65.938  1.00  0.00     0.001 C 
BRANCH  18  19
ATOM     19  C   UNL     1      77.502  83.682  66.638  1.00  0.00     0.000 C 
BRANCH  19  20
ATOM     20  C   UNL     1      76.711  83.924  67.954  1.00  0.00     0.000 C 
BRANCH  20  21
ATOM     21  C   UNL     1      77.606  84.130  69.208  1.00  0.00     0.003 C 
BRANCH  21  22
ATOM     22  C   UNL     1      77.196  85.341  70.108  1.00  0.00    -0.017 C 
ATOM     23  C   UNL     1      75.680  85.278  70.446  1.00  0.00     0.007 C 
ATOM     24  C   UNL     1      77.562  86.726  69.498  1.00  0.00     0.007 C 
ENDBRANCH  21  22
ENDBRANCH  20  21
ENDBRANCH  19  20
ENDBRANCH  18  19
ENDBRANCH   1  18
TORSDOF 11
ENDMDL
MODEL 9
REMARK VINA RESULT:    -5.365     28.261     31.076
REMARK INTER + INTRA:          -9.349
REMARK INTER:                  -8.390
REMARK INTRA:                  -0.960
REMARK UNBOUND:                -0.692
REMARK SMILES COc1cc(CNC(=O)CCCCCCC(C)C)ccc1O
REMARK SMILES IDX 11 1 10 2 8 3 7 4 9 6 6 7 5 8 3 9 21 10 4 11 20 12 19 13
REMARK SMILES IDX 2 14 1 15 22 16 12 18 13 19 14 20 15 21 16 22 17 23 18 24
REMARK H PARENT 7 5 22 17
REMARK Flexibility Score: inf
ROOT
ATOM      1  C   UNL     1      64.422  81.704  71.982  1.00  0.00     0.010 C 
ENDROOT
BRANCH   1   2
ATOM      2  C   UNL     1      62.992  81.567  72.572  1.00  0.00     0.100 C 
BRANCH   2   3
ATOM      3  C   UNL     1      62.763  82.424  73.757  1.00  0.00     0.220 C 
ATOM      4  N   UNL     1      63.628  82.387  74.812  1.00  0.00    -0.352 N 
ATOM      5  H   UNL     1      64.374  81.714  74.721  1.00  0.00     0.163 HD
ATOM      6  O   UNL     1      61.775  83.199  73.757  1.00  0.00    -0.275 OA
BRANCH   4   7
ATOM      7  C   UNL     1      63.541  83.209  75.980  1.00  0.00     0.151 C 
BRANCH   7   8
ATOM      8  C   UNL     1      64.822  83.889  76.316  1.00  0.00    -0.025 A 
ATOM      9  C   UNL     1      66.530  84.517  77.971  1.00  0.00     0.160 A 
ATOM     10  C   UNL     1      67.286  85.144  76.957  1.00  0.00     0.157 A 
ATOM     11  C   UNL     1      65.297  83.912  77.647  1.00  0.00     0.056 A 
ATOM     12  C   UNL     1      66.805  85.161  75.635  1.00  0.00     0.050 A 
ATOM     13  C   UNL     1      65.588  84.530  75.313  1.00  0.00     0.009 A 
BRANCH   9  14
ATOM     14  O   UNL     1      66.969  84.528  79.267  1.00  0.00    -0.493 OA
ATOM     15  C   UNL     1      66.237  83.645  80.135  1.00  0.00     0.278 C 
ENDBRANCH   9  14
BRANCH  10  16
ATOM     16  O   UNL     1      68.476  85.736  77.240  1.00  0.00    -0.504 OA
ATOM     17  H   UNL     1      68.599  85.766  78.192  1.00  0.00     0.293 HD
ENDBRANCH  10  16
ENDBRANCH   7   8
ENDBRANCH   4   7
ENDBRANCH   2   3
ENDBRANCH   1   2
BRANCH   1  18
ATOM     18  C   UNL     1      64.402  81.950  70.446  1.00  0.00     0.001 C 
BRANCH  18  19
ATOM     19  C   UNL     1      62.978  81.909  69.824  1.00  0.00     0.000 C 
BRANCH  19  20
ATOM     20  C   UNL     1      62.698  83.166  68.952  1.00  0.00     0.000 C 
BRANCH  20  21
ATOM     21  C   UNL     1      62.463  84.467  69.767  1.00  0.00     0.003 C 
BRANCH  21  22
ATOM     22  C   UNL     1      61.013  85.044  69.668  1.00  0.00    -0.017 C 
ATOM     23  C   UNL     1      61.054  86.583  69.448  1.00  0.00     0.007 C 
ATOM     24  C   UNL     1      60.114  84.692  70.889  1.00  0.00     0.007 C 
ENDBRANCH  21  22
ENDBRANCH  20  21
ENDBRANCH  19  20
ENDBRANCH  18  19
ENDBRANCH   1  18
TORSDOF 11
ENDMDL
MODEL 10
REMARK VINA RESULT:    -5.307      5.419      8.587
REMARK INTER + INTRA:          -9.257
REMARK INTER:                  -7.750
REMARK INTRA:                  -1.507
REMARK UNBOUND:                -0.692
REMARK SMILES COc1cc(CNC(=O)CCCCCCC(C)C)ccc1O
REMARK SMILES IDX 11 1 10 2 8 3 7 4 9 6 6 7 5 8 3 9 21 10 4 11 20 12 19 13
REMARK SMILES IDX 2 14 1 15 22 16 12 18 13 19 14 20 15 21 16 22 17 23 18 24
REMARK H PARENT 7 5 22 17
REMARK Flexibility Score: inf
ROOT
ATOM      1  C   UNL     1      95.647 101.163  79.601  1.00  0.00     0.010 C 
ENDROOT
BRANCH   1   2
ATOM      2  C   UNL     1      96.466  99.909  79.186  1.00  0.00     0.100 C 
BRANCH   2   3
ATOM      3  C   UNL     1      95.859  99.161  78.062  1.00  0.00     0.220 C 
ATOM      4  N   UNL     1      95.790  97.799  78.098  1.00  0.00    -0.352 N 
ATOM      5  H   UNL     1      96.216  97.377  78.910  1.00  0.00     0.163 HD
ATOM      6  O   UNL     1      95.391  99.807  77.092  1.00  0.00    -0.275 OA
BRANCH   4   7
ATOM      7  C   UNL     1      95.176  96.976  77.100  1.00  0.00     0.151 C 
BRANCH   7   8
ATOM      8  C   UNL     1      94.151  96.049  77.653  1.00  0.00    -0.025 A 
ATOM      9  C   UNL     1      93.481  94.355  79.306  1.00  0.00     0.160 A 
ATOM     10  C   UNL     1      92.187  94.313  78.741  1.00  0.00     0.157 A 
ATOM     11  C   UNL     1      94.456  95.207  78.747  1.00  0.00     0.056 A 
ATOM     12  C   UNL     1      91.882  95.117  77.628  1.00  0.00     0.050 A 
ATOM     13  C   UNL     1      92.853  95.987  77.094  1.00  0.00     0.009 A 
BRANCH   9  14
ATOM     14  O   UNL     1      93.800  93.548  80.363  1.00  0.00    -0.493 OA
ATOM     15  C   UNL     1      95.206  93.518  80.667  1.00  0.00     0.278 C 
ENDBRANCH   9  14
BRANCH  10  16
ATOM     16  O   UNL     1      91.228  93.500  79.258  1.00  0.00    -0.504 OA
ATOM     17  H   UNL     1      90.857  93.905  80.045  1.00  0.00     0.293 HD
ENDBRANCH  10  16
ENDBRANCH   7   8
ENDBRANCH   4   7
ENDBRANCH   2   3
ENDBRANCH   1   2
BRANCH   1  18
ATOM     18  C   UNL     1      95.466 101.261  81.143  1.00  0.00     0.001 C 
BRANCH  18  19
ATOM     19  C   UNL     1      96.280 100.201  81.938  1.00  0.00     0.000 C 
BRANCH  19  20
ATOM     20  C   UNL     1      95.348  99.235  82.721  1.00  0.00     0.000 C 
BRANCH  20  21
ATOM     21  C   UNL     1      95.069  97.890  81.995  1.00  0.00     0.003 C 
BRANCH  21  22
ATOM     22  C   UNL     1      96.113  96.763  82.289  1.00  0.00    -0.017 C 
ATOM     23  C   UNL     1      96.729  96.949  83.703  1.00  0.00     0.007 C 
ATOM     24  C   UNL     1      97.235  96.655  81.215  1.00  0.00     0.007 C 
ENDBRANCH  21  22
ENDBRANCH  20  21
ENDBRANCH  19  20
ENDBRANCH  18  19
ENDBRANCH   1  18
TORSDOF 11
ENDMDL
