MODEL 1
REMARK VINA RESULT:    -5.933      0.000      0.000
REMARK INTER + INTRA:         -10.533
REMARK INTER:                  -9.576
REMARK INTRA:                  -0.958
REMARK UNBOUND:                -0.958
REMARK SMILES CCCCCCCCC(=O)NCc1ccc(O)c(OC)c1
REMARK SMILES IDX 7 1 6 2 5 3 4 4 3 5 2 6 1 7 8 8 9 9 10 10 11 11 12 13 13 14
REMARK SMILES IDX 21 15 14 16 18 17 15 18 16 19 19 20 20 21 17 22
REMARK H PARENT 11 12 17 23
REMARK Flexibility Score: inf
ROOT
ATOM      1  C   UNL     1      92.458  97.069  76.257  1.00  0.00     0.010 C 
ENDROOT
BRANCH   1   2
ATOM      2  C   UNL     1      92.748  95.663  76.856  1.00  0.00     0.001 C 
BRANCH   2   3
ATOM      3  C   UNL     1      92.103  95.476  78.261  1.00  0.00     0.000 C 
BRANCH   3   4
ATOM      4  C   UNL     1      91.473  94.072  78.481  1.00  0.00    -0.000 C 
BRANCH   4   5
ATOM      5  C   UNL     1      90.019  93.975  77.939  1.00  0.00    -0.000 C 
BRANCH   5   6
ATOM      6  C   UNL     1      89.957  93.406  76.496  1.00  0.00    -0.003 C 
ATOM      7  C   UNL     1      91.142  92.471  76.168  1.00  0.00     0.004 C 
ENDBRANCH   5   6
ENDBRANCH   4   5
ENDBRANCH   3   4
ENDBRANCH   2   3
ENDBRANCH   1   2
BRANCH   1   8
ATOM      8  C   UNL     1      93.699  97.745  75.609  1.00  0.00     0.100 C 
BRANCH   8   9
ATOM      9  C   UNL     1      94.944  97.397  76.335  1.00  0.00     0.220 C 
ATOM     10  O   UNL     1      95.939  97.029  75.666  1.00  0.00    -0.275 OA
ATOM     11  N   UNL     1      95.008  97.506  77.694  1.00  0.00    -0.352 N 
ATOM     12  H   UNL     1      94.128  97.727  78.137  1.00  0.00     0.163 HD
BRANCH  11  13
ATOM     13  C   UNL     1      96.184  97.338  78.492  1.00  0.00     0.151 C 
BRANCH  13  14
ATOM     14  C   UNL     1      96.002  96.416  79.645  1.00  0.00    -0.025 A 
ATOM     15  C   UNL     1      96.249  96.868  80.963  1.00  0.00     0.056 A 
ATOM     16  C   UNL     1      95.586  95.080  79.448  1.00  0.00     0.009 A 
ATOM     17  C   UNL     1      96.063  96.008  82.071  1.00  0.00     0.160 A 
ATOM     18  C   UNL     1      95.399  94.220  80.545  1.00  0.00     0.050 A 
ATOM     19  C   UNL     1      95.643  94.677  81.854  1.00  0.00     0.157 A 
BRANCH  17  20
ATOM     20  O   UNL     1      96.343  96.435  83.344  1.00  0.00    -0.493 OA
ATOM     21  C   UNL     1      97.748  96.507  83.646  1.00  0.00     0.278 C 
ENDBRANCH  17  20
BRANCH  19  22
ATOM     22  O   UNL     1      95.486  93.831  82.905  1.00  0.00    -0.504 OA
ATOM     23  H   UNL     1      95.782  94.263  83.710  1.00  0.00     0.293 HD
ENDBRANCH  19  22
ENDBRANCH  13  14
ENDBRANCH  11  13
ENDBRANCH   8   9
ENDBRANCH   1   8
TORSDOF 11
ENDMDL
MODEL 2
REMARK VINA RESULT:    -5.746      5.917     10.073
REMARK INTER + INTRA:         -10.231
REMARK INTER:                  -9.463
REMARK INTRA:                  -0.768
REMARK UNBOUND:                -0.958
REMARK SMILES CCCCCCCCC(=O)NCc1ccc(O)c(OC)c1
REMARK SMILES IDX 7 1 6 2 5 3 4 4 3 5 2 6 1 7 8 8 9 9 10 10 11 11 12 13 13 14
REMARK SMILES IDX 21 15 14 16 18 17 15 18 16 19 19 20 20 21 17 22
REMARK H PARENT 11 12 17 23
REMARK Flexibility Score: inf
ROOT
ATOM      1  C   UNL     1      93.021  98.588  74.920  1.00  0.00     0.010 C 
ENDROOT
BRANCH   1   2
ATOM      2  C   UNL     1      93.579  97.720  76.084  1.00  0.00     0.001 C 
BRANCH   2   3
ATOM      3  C   UNL     1      93.028  96.263  76.049  1.00  0.00     0.000 C 
BRANCH   3   4
ATOM      4  C   UNL     1      93.247  95.478  77.373  1.00  0.00    -0.000 C 
BRANCH   4   5
ATOM      5  C   UNL     1      92.013  95.540  78.318  1.00  0.00    -0.000 C 
BRANCH   5   6
ATOM      6  C   UNL     1      90.729  96.022  77.591  1.00  0.00    -0.003 C 
ATOM      7  C   UNL     1      89.731  94.876  77.314  1.00  0.00     0.004 C 
ENDBRANCH   5   6
ENDBRANCH   4   5
ENDBRANCH   3   4
ENDBRANCH   2   3
ENDBRANCH   1   2
BRANCH   1   8
ATOM      8  C   UNL     1      94.122  99.269  74.059  1.00  0.00     0.100 C 
BRANCH   8   9
ATOM      9  C   UNL     1      93.530 100.088  72.975  1.00  0.00     0.220 C 
ATOM     10  O   UNL     1      94.298 100.581  72.114  1.00  0.00    -0.275 OA
ATOM     11  N   UNL     1      92.179 100.274  72.904  1.00  0.00    -0.352 N 
ATOM     12  H   UNL     1      91.666  99.908  73.693  1.00  0.00     0.163 HD
BRANCH  11  13
ATOM     13  C   UNL     1      91.479 100.920  71.836  1.00  0.00     0.151 C 
BRANCH  13  14
ATOM     14  C   UNL     1      90.588 100.012  71.065  1.00  0.00    -0.025 A 
ATOM     15  C   UNL     1      90.056 100.425  69.820  1.00  0.00     0.056 A 
ATOM     16  C   UNL     1      90.255  98.730  71.559  1.00  0.00     0.009 A 
ATOM     17  C   UNL     1      89.222  99.566  69.068  1.00  0.00     0.160 A 
ATOM     18  C   UNL     1      89.426  97.870  70.815  1.00  0.00     0.050 A 
ATOM     19  C   UNL     1      88.903  98.286  69.576  1.00  0.00     0.157 A 
BRANCH  17  20
ATOM     20  O   UNL     1      88.673  99.983  67.882  1.00  0.00    -0.493 OA
ATOM     21  C   UNL     1      88.499 101.408  67.783  1.00  0.00     0.278 C 
ENDBRANCH  17  20
BRANCH  19  22
ATOM     22  O   UNL     1      88.082  97.460  68.878  1.00  0.00    -0.504 OA
ATOM     23  H   UNL     1      87.370  97.160  69.449  1.00  0.00     0.293 HD
ENDBRANCH  19  22
ENDBRANCH  13  14
ENDBRANCH  11  13
ENDBRANCH   8   9
ENDBRANCH   1   8
TORSDOF 11
ENDMDL
MODEL 3
REMARK VINA RESULT:    -5.593     22.443     24.489
REMARK INTER + INTRA:          -9.984
REMARK INTER:                  -8.125
REMARK INTRA:                  -1.859
REMARK UNBOUND:                -0.958
REMARK SMILES CCCCCCCCC(=O)NCc1ccc(O)c(OC)c1
REMARK SMILES IDX 7 1 6 2 5 3 4 4 3 5 2 6 1 7 8 8 9 9 10 10 11 11 12 13 13 14
REMARK SMILES IDX 21 15 14 16 18 17 15 18 16 19 19 20 20 21 17 22
REMARK H PARENT 11 12 17 23
REMARK Flexibility Score: inf
ROOT
ATOM      1  C   UNL     1      76.039  88.412  69.862  1.00  0.00     0.010 C 
ENDROOT
BRANCH   1   2
ATOM      2  C   UNL     1      75.697  88.587  68.355  1.00  0.00     0.001 C 
BRANCH   2   3
ATOM      3  C   UNL     1      76.621  87.733  67.438  1.00  0.00     0.000 C 
BRANCH   3   4
ATOM      4  C   UNL     1      75.906  87.172  66.176  1.00  0.00    -0.000 C 
BRANCH   4   5
ATOM      5  C   UNL     1      76.832  87.141  64.926  1.00  0.00    -0.000 C 
BRANCH   5   6
ATOM      6  C   UNL     1      76.034  87.101  63.595  1.00  0.00    -0.003 C 
ATOM      7  C   UNL     1      75.395  85.723  63.319  1.00  0.00     0.004 C 
ENDBRANCH   5   6
ENDBRANCH   4   5
ENDBRANCH   3   4
ENDBRANCH   2   3
ENDBRANCH   1   2
BRANCH   1   8
ATOM      8  C   UNL     1      74.975  87.606  70.659  1.00  0.00     0.100 C 
BRANCH   8   9
ATOM      9  C   UNL     1      75.069  86.155  70.371  1.00  0.00     0.220 C 
ATOM     10  O   UNL     1      74.026  85.545  70.035  1.00  0.00    -0.275 OA
ATOM     11  N   UNL     1      76.271  85.510  70.443  1.00  0.00    -0.352 N 
ATOM     12  H   UNL     1      77.026  86.073  70.806  1.00  0.00     0.163 HD
BRANCH  11  13
ATOM     13  C   UNL     1      76.517  84.154  70.055  1.00  0.00     0.151 C 
BRANCH  13  14
ATOM     14  C   UNL     1      76.842  83.991  68.613  1.00  0.00    -0.025 A 
ATOM     15  C   UNL     1      75.874  83.474  67.719  1.00  0.00     0.056 A 
ATOM     16  C   UNL     1      78.116  84.343  68.111  1.00  0.00     0.009 A 
ATOM     17  C   UNL     1      76.163  83.330  66.342  1.00  0.00     0.160 A 
ATOM     18  C   UNL     1      78.409  84.203  66.743  1.00  0.00     0.050 A 
ATOM     19  C   UNL     1      77.441  83.691  65.858  1.00  0.00     0.157 A 
BRANCH  17  20
ATOM     20  O   UNL     1      75.238  82.790  65.484  1.00  0.00    -0.493 OA
ATOM     21  C   UNL     1      75.086  81.364  65.605  1.00  0.00     0.278 C 
ENDBRANCH  17  20
BRANCH  19  22
ATOM     22  O   UNL     1      77.743  83.533  64.544  1.00  0.00    -0.504 OA
ATOM     23  H   UNL     1      78.589  83.087  64.461  1.00  0.00     0.293 HD
ENDBRANCH  19  22
ENDBRANCH  13  14
ENDBRANCH  11  13
ENDBRANCH   8   9
ENDBRANCH   1   8
TORSDOF 11
ENDMDL
MODEL 4
REMARK VINA RESULT:    -5.311      8.452     10.538
REMARK INTER + INTRA:          -9.529
REMARK INTER:                  -8.397
REMARK INTRA:                  -1.132
REMARK UNBOUND:                -0.958
REMARK SMILES CCCCCCCCC(=O)NCc1ccc(O)c(OC)c1
REMARK SMILES IDX 7 1 6 2 5 3 4 4 3 5 2 6 1 7 8 8 9 9 10 10 11 11 12 13 13 14
REMARK SMILES IDX 21 15 14 16 18 17 15 18 16 19 19 20 20 21 17 22
REMARK H PARENT 11 12 17 23
REMARK Flexibility Score: inf
ROOT
ATOM      1  C   UNL     1      89.516  98.150  70.957  1.00  0.00     0.010 C 
ENDROOT
BRANCH   1   2
ATOM      2  C   UNL     1      89.995  97.204  69.820  1.00  0.00     0.001 C 
BRANCH   2   3
ATOM      3  C   UNL     1      88.909  97.005  68.722  1.00  0.00     0.000 C 
BRANCH   3   4
ATOM      4  C   UNL     1      88.863  98.149  67.671  1.00  0.00    -0.000 C 
BRANCH   4   5
ATOM      5  C   UNL     1      87.889  99.294  68.072  1.00  0.00    -0.000 C 
BRANCH   5   6
ATOM      6  C   UNL     1      88.538 100.699  67.949  1.00  0.00    -0.003 C 
ATOM      7  C   UNL     1      89.984 100.646  67.411  1.00  0.00     0.004 C 
ENDBRANCH   5   6
ENDBRANCH   4   5
ENDBRANCH   3   4
ENDBRANCH   2   3
ENDBRANCH   1   2
BRANCH   1   8
ATOM      8  C   UNL     1      90.530  99.274  71.310  1.00  0.00     0.100 C 
BRANCH   8   9
ATOM      9  C   UNL     1      89.847 100.574  71.513  1.00  0.00     0.220 C 
ATOM     10  O   UNL     1      88.594 100.585  71.572  1.00  0.00    -0.275 OA
ATOM     11  N   UNL     1      90.570 101.723  71.660  1.00  0.00    -0.352 N 
ATOM     12  H   UNL     1      91.562 101.614  71.510  1.00  0.00     0.163 HD
BRANCH  11  13
ATOM     13  C   UNL     1      90.038 103.007  72.000  1.00  0.00     0.151 C 
BRANCH  13  14
ATOM     14  C   UNL     1      89.739 103.171  73.447  1.00  0.00    -0.025 A 
ATOM     15  C   UNL     1      90.785 103.121  74.400  1.00  0.00     0.056 A 
ATOM     16  C   UNL     1      88.415 103.375  73.897  1.00  0.00     0.009 A 
ATOM     17  C   UNL     1      90.518 103.292  75.778  1.00  0.00     0.160 A 
ATOM     18  C   UNL     1      88.143 103.547  75.266  1.00  0.00     0.050 A 
ATOM     19  C   UNL     1      89.188 103.499  76.209  1.00  0.00     0.157 A 
BRANCH  17  20
ATOM     20  O   UNL     1      91.527 103.201  76.704  1.00  0.00    -0.493 OA
ATOM     21  C   UNL     1      92.751 102.649  76.189  1.00  0.00     0.278 C 
ENDBRANCH  17  20
BRANCH  19  22
ATOM     22  O   UNL     1      88.912 103.639  77.531  1.00  0.00    -0.504 OA
ATOM     23  H   UNL     1      88.021 103.327  77.707  1.00  0.00     0.293 HD
ENDBRANCH  19  22
ENDBRANCH  13  14
ENDBRANCH  11  13
ENDBRANCH   8   9
ENDBRANCH   1   8
TORSDOF 11
ENDMDL
MODEL 5
REMARK VINA RESULT:    -5.287     22.594     26.108
REMARK INTER + INTRA:          -9.489
REMARK INTER:                  -8.295
REMARK INTRA:                  -1.194
REMARK UNBOUND:                -0.958
REMARK SMILES CCCCCCCCC(=O)NCc1ccc(O)c(OC)c1
REMARK SMILES IDX 7 1 6 2 5 3 4 4 3 5 2 6 1 7 8 8 9 9 10 10 11 11 12 13 13 14
REMARK SMILES IDX 21 15 14 16 18 17 15 18 16 19 19 20 20 21 17 22
REMARK H PARENT 11 12 17 23
REMARK Flexibility Score: inf
ROOT
ATOM      1  C   UNL     1      76.674  87.063  69.783  1.00  0.00     0.010 C 
ENDROOT
BRANCH   1   2
ATOM      2  C   UNL     1      76.455  87.746  68.402  1.00  0.00     0.001 C 
BRANCH   2   3
ATOM      3  C   UNL     1      77.623  87.463  67.412  1.00  0.00     0.000 C 
BRANCH   3   4
ATOM      4  C   UNL     1      77.167  86.824  66.071  1.00  0.00    -0.000 C 
BRANCH   4   5
ATOM      5  C   UNL     1      77.150  85.269  66.122  1.00  0.00    -0.000 C 
BRANCH   5   6
ATOM      6  C   UNL     1      78.235  84.692  67.071  1.00  0.00    -0.003 C 
ATOM      7  C   UNL     1      77.637  83.907  68.259  1.00  0.00     0.004 C 
ENDBRANCH   5   6
ENDBRANCH   4   5
ENDBRANCH   3   4
ENDBRANCH   2   3
ENDBRANCH   1   2
BRANCH   1   8
ATOM      8  C   UNL     1      75.394  86.406  70.371  1.00  0.00     0.100 C 
BRANCH   8   9
ATOM      9  C   UNL     1      74.304  86.353  69.366  1.00  0.00     0.220 C 
ATOM     10  O   UNL     1      73.355  87.166  69.475  1.00  0.00    -0.275 OA
ATOM     11  N   UNL     1      74.354  85.460  68.335  1.00  0.00    -0.352 N 
ATOM     12  H   UNL     1      75.114  84.798  68.392  1.00  0.00     0.163 HD
BRANCH  11  13
ATOM     13  C   UNL     1      73.444  85.405  67.232  1.00  0.00     0.151 C 
BRANCH  13  14
ATOM     14  C   UNL     1      73.164  84.026  66.751  1.00  0.00    -0.025 A 
ATOM     15  C   UNL     1      74.230  83.167  66.390  1.00  0.00     0.056 A 
ATOM     16  C   UNL     1      71.837  83.549  66.643  1.00  0.00     0.009 A 
ATOM     17  C   UNL     1      73.980  81.848  65.948  1.00  0.00     0.160 A 
ATOM     18  C   UNL     1      71.582  82.238  66.205  1.00  0.00     0.050 A 
ATOM     19  C   UNL     1      72.647  81.388  65.850  1.00  0.00     0.157 A 
BRANCH  17  20
ATOM     20  O   UNL     1      75.012  81.031  65.558  1.00  0.00    -0.493 OA
ATOM     21  C   UNL     1      75.626  81.412  64.314  1.00  0.00     0.278 C 
ENDBRANCH  17  20
BRANCH  19  22
ATOM     22  O   UNL     1      72.389  80.133  65.402  1.00  0.00    -0.504 OA
ATOM     23  H   UNL     1      71.527  79.851  65.717  1.00  0.00     0.293 HD
ENDBRANCH  19  22
ENDBRANCH  13  14
ENDBRANCH  11  13
ENDBRANCH   8   9
ENDBRANCH   1   8
TORSDOF 11
ENDMDL
MODEL 6
REMARK VINA RESULT:    -5.145     22.786     25.082
REMARK INTER + INTRA:          -9.262
REMARK INTER:                  -7.498
REMARK INTRA:                  -1.763
REMARK UNBOUND:                -0.958
REMARK SMILES CCCCCCCCC(=O)NCc1ccc(O)c(OC)c1
REMARK SMILES IDX 7 1 6 2 5 3 4 4 3 5 2 6 1 7 8 8 9 9 10 10 11 11 12 13 13 14
REMARK SMILES IDX 21 15 14 16 18 17 15 18 16 19 19 20 20 21 17 22
REMARK H PARENT 11 12 17 23
REMARK Flexibility Score: inf
ROOT
ATOM      1  C   UNL     1      75.928  81.403  64.439  1.00  0.00     0.010 C 
ENDROOT
BRANCH   1   2
ATOM      2  C   UNL     1      74.458  80.928  64.254  1.00  0.00     0.001 C 
BRANCH   2   3
ATOM      3  C   UNL     1      73.632  81.040  65.569  1.00  0.00     0.000 C 
BRANCH   3   4
ATOM      4  C   UNL     1      72.472  82.073  65.495  1.00  0.00    -0.000 C 
BRANCH   4   5
ATOM      5  C   UNL     1      72.980  83.538  65.381  1.00  0.00    -0.000 C 
BRANCH   5   6
ATOM      6  C   UNL     1      73.971  83.916  66.515  1.00  0.00    -0.003 C 
ATOM      7  C   UNL     1      73.415  85.003  67.460  1.00  0.00     0.004 C 
ENDBRANCH   5   6
ENDBRANCH   4   5
ENDBRANCH   3   4
ENDBRANCH   2   3
ENDBRANCH   1   2
BRANCH   1   8
ATOM      8  C   UNL     1      76.243  82.760  63.750  1.00  0.00     0.100 C 
BRANCH   8   9
ATOM      9  C   UNL     1      77.192  83.567  64.553  1.00  0.00     0.220 C 
ATOM     10  O   UNL     1      77.544  84.687  64.112  1.00  0.00    -0.275 OA
ATOM     11  N   UNL     1      77.645  83.109  65.758  1.00  0.00    -0.352 N 
ATOM     12  H   UNL     1      77.369  82.163  65.975  1.00  0.00     0.163 HD
BRANCH  11  13
ATOM     13  C   UNL     1      78.446  83.848  66.685  1.00  0.00     0.151 C 
BRANCH  13  14
ATOM     14  C   UNL     1      77.655  84.594  67.700  1.00  0.00    -0.025 A 
ATOM     15  C   UNL     1      77.425  85.982  67.544  1.00  0.00     0.056 A 
ATOM     16  C   UNL     1      77.125  83.938  68.835  1.00  0.00     0.009 A 
ATOM     17  C   UNL     1      76.661  86.701  68.492  1.00  0.00     0.160 A 
ATOM     18  C   UNL     1      76.363  84.647  69.780  1.00  0.00     0.050 A 
ATOM     19  C   UNL     1      76.136  86.027  69.618  1.00  0.00     0.157 A 
BRANCH  17  20
ATOM     20  O   UNL     1      76.474  88.054  68.361  1.00  0.00    -0.493 OA
ATOM     21  C   UNL     1      75.893  88.450  67.106  1.00  0.00     0.278 C 
ENDBRANCH  17  20
BRANCH  19  22
ATOM     22  O   UNL     1      75.422  86.709  70.550  1.00  0.00    -0.504 OA
ATOM     23  H   UNL     1      75.324  86.167  71.337  1.00  0.00     0.293 HD
ENDBRANCH  19  22
ENDBRANCH  13  14
ENDBRANCH  11  13
ENDBRANCH   8   9
ENDBRANCH   1   8
TORSDOF 11
ENDMDL
MODEL 7
REMARK VINA RESULT:    -5.091      9.245     10.928
REMARK INTER + INTRA:          -9.173
REMARK INTER:                  -8.148
REMARK INTRA:                  -1.025
REMARK UNBOUND:                -0.958
REMARK SMILES CCCCCCCCC(=O)NCc1ccc(O)c(OC)c1
REMARK SMILES IDX 7 1 6 2 5 3 4 4 3 5 2 6 1 7 8 8 9 9 10 10 11 11 12 13 13 14
REMARK SMILES IDX 21 15 14 16 18 17 15 18 16 19 19 20 20 21 17 22
REMARK H PARENT 11 12 17 23
REMARK Flexibility Score: inf
ROOT
ATOM      1  C   UNL     1      89.623  98.305  71.033  1.00  0.00     0.010 C 
ENDROOT
BRANCH   1   2
ATOM      2  C   UNL     1      89.985  97.431  69.798  1.00  0.00     0.001 C 
BRANCH   2   3
ATOM      3  C   UNL     1      88.732  97.055  68.954  1.00  0.00     0.000 C 
BRANCH   3   4
ATOM      4  C   UNL     1      88.622  97.835  67.613  1.00  0.00    -0.000 C 
BRANCH   4   5
ATOM      5  C   UNL     1      89.346  99.211  67.658  1.00  0.00    -0.000 C 
BRANCH   5   6
ATOM      6  C   UNL     1      88.381 100.381  67.992  1.00  0.00    -0.003 C 
ATOM      7  C   UNL     1      89.042 101.768  67.834  1.00  0.00     0.004 C 
ENDBRANCH   5   6
ENDBRANCH   4   5
ENDBRANCH   3   4
ENDBRANCH   2   3
ENDBRANCH   1   2
BRANCH   1   8
ATOM      8  C   UNL     1      90.681  99.394  71.365  1.00  0.00     0.100 C 
BRANCH   8   9
ATOM      9  C   UNL     1      90.045 100.715  71.586  1.00  0.00     0.220 C 
ATOM     10  O   UNL     1      88.795 100.793  71.514  1.00  0.00    -0.275 OA
ATOM     11  N   UNL     1      90.804 101.809  71.889  1.00  0.00    -0.352 N 
ATOM     12  H   UNL     1      91.800 101.654  71.836  1.00  0.00     0.163 HD
BRANCH  11  13
ATOM     13  C   UNL     1      90.303 103.097  72.260  1.00  0.00     0.151 C 
BRANCH  13  14
ATOM     14  C   UNL     1      90.062 103.251  73.719  1.00  0.00    -0.025 A 
ATOM     15  C   UNL     1      88.761 103.537  74.200  1.00  0.00     0.056 A 
ATOM     16  C   UNL     1      91.119 103.119  74.649  1.00  0.00     0.009 A 
ATOM     17  C   UNL     1      88.513 103.668  75.586  1.00  0.00     0.160 A 
ATOM     18  C   UNL     1      90.879 103.247  76.028  1.00  0.00     0.050 A 
ATOM     19  C   UNL     1      89.582 103.529  76.500  1.00  0.00     0.157 A 
BRANCH  17  20
ATOM     20  O   UNL     1      87.261 103.987  76.047  1.00  0.00    -0.493 OA
ATOM     21  C   UNL     1      86.873 105.350  75.802  1.00  0.00     0.278 C 
ENDBRANCH  17  20
BRANCH  19  22
ATOM     22  O   UNL     1      89.366 103.679  77.832  1.00  0.00    -0.504 OA
ATOM     23  H   UNL     1      90.167 104.000  78.252  1.00  0.00     0.293 HD
ENDBRANCH  19  22
ENDBRANCH  13  14
ENDBRANCH  11  13
ENDBRANCH   8   9
ENDBRANCH   1   8
TORSDOF 11
ENDMDL
MODEL 8
REMARK VINA RESULT:    -5.064     21.994     25.209
REMARK INTER + INTRA:          -9.131
REMARK INTER:                  -8.138
REMARK INTRA:                  -0.993
REMARK UNBOUND:                -0.958
REMARK SMILES CCCCCCCCC(=O)NCc1ccc(O)c(OC)c1
REMARK SMILES IDX 7 1 6 2 5 3 4 4 3 5 2 6 1 7 8 8 9 9 10 10 11 11 12 13 13 14
REMARK SMILES IDX 21 15 14 16 18 17 15 18 16 19 19 20 20 21 17 22
REMARK H PARENT 11 12 17 23
REMARK Flexibility Score: inf
ROOT
ATOM      1  C   UNL     1      76.156  82.870  66.545  1.00  0.00     0.010 C 
ENDROOT
BRANCH   1   2
ATOM      2  C   UNL     1      75.823  82.149  65.207  1.00  0.00     0.001 C 
BRANCH   2   3
ATOM      3  C   UNL     1      74.785  81.004  65.396  1.00  0.00     0.000 C 
BRANCH   3   4
ATOM      4  C   UNL     1      73.840  80.806  64.178  1.00  0.00    -0.000 C 
BRANCH   4   5
ATOM      5  C   UNL     1      72.337  80.906  64.562  1.00  0.00    -0.000 C 
BRANCH   5   6
ATOM      6  C   UNL     1      72.115  81.630  65.917  1.00  0.00    -0.003 C 
ATOM      7  C   UNL     1      71.545  83.056  65.750  1.00  0.00     0.004 C 
ENDBRANCH   5   6
ENDBRANCH   4   5
ENDBRANCH   3   4
ENDBRANCH   2   3
ENDBRANCH   1   2
BRANCH   1   8
ATOM      8  C   UNL     1      77.663  83.204  66.722  1.00  0.00     0.100 C 
BRANCH   8   9
ATOM      9  C   UNL     1      77.876  84.169  67.827  1.00  0.00     0.220 C 
ATOM     10  O   UNL     1      78.597  85.173  67.611  1.00  0.00    -0.275 OA
ATOM     11  N   UNL     1      77.276  83.980  69.039  1.00  0.00    -0.352 N 
ATOM     12  H   UNL     1      76.790  83.099  69.131  1.00  0.00     0.163 HD
BRANCH  11  13
ATOM     13  C   UNL     1      77.288  84.904  70.132  1.00  0.00     0.151 C 
BRANCH  13  14
ATOM     14  C   UNL     1      76.256  85.970  70.029  1.00  0.00    -0.025 A 
ATOM     15  C   UNL     1      74.884  85.629  69.962  1.00  0.00     0.056 A 
ATOM     16  C   UNL     1      76.622  87.335  69.993  1.00  0.00     0.009 A 
ATOM     17  C   UNL     1      73.891  86.632  69.881  1.00  0.00     0.160 A 
ATOM     18  C   UNL     1      75.639  88.338  69.914  1.00  0.00     0.050 A 
ATOM     19  C   UNL     1      74.276  87.991  69.850  1.00  0.00     0.157 A 
BRANCH  17  20
ATOM     20  O   UNL     1      72.564  86.299  69.774  1.00  0.00    -0.493 OA
ATOM     21  C   UNL     1      72.156  85.927  68.446  1.00  0.00     0.278 C 
ENDBRANCH  17  20
BRANCH  19  22
ATOM     22  O   UNL     1      73.336  88.966  69.747  1.00  0.00    -0.504 OA
ATOM     23  H   UNL     1      73.659  89.661  69.169  1.00  0.00     0.293 HD
ENDBRANCH  19  22
ENDBRANCH  13  14
ENDBRANCH  11  13
ENDBRANCH   8   9
ENDBRANCH   1   8
TORSDOF 11
ENDMDL
MODEL 9
REMARK VINA RESULT:    -5.061     28.716     32.671
REMARK INTER + INTRA:          -9.125
REMARK INTER:                  -8.227
REMARK INTRA:                  -0.898
REMARK UNBOUND:                -0.958
REMARK SMILES CCCCCCCCC(=O)NCc1ccc(O)c(OC)c1
REMARK SMILES IDX 7 1 6 2 5 3 4 4 3 5 2 6 1 7 8 8 9 9 10 10 11 11 12 13 13 14
REMARK SMILES IDX 21 15 14 16 18 17 15 18 16 19 19 20 20 21 17 22
REMARK H PARENT 11 12 17 23
REMARK Flexibility Score: inf
ROOT
ATOM      1  C   UNL     1      68.149  84.494  71.445  1.00  0.00     0.010 C 
ENDROOT
BRANCH   1   2
ATOM      2  C   UNL     1      69.688  84.722  71.455  1.00  0.00     0.001 C 
BRANCH   2   3
ATOM      3  C   UNL     1      70.425  83.817  70.425  1.00  0.00     0.000 C 
BRANCH   3   4
ATOM      4  C   UNL     1      71.170  84.609  69.314  1.00  0.00    -0.000 C 
BRANCH   4   5
ATOM      5  C   UNL     1      71.155  83.877  67.942  1.00  0.00    -0.000 C 
BRANCH   5   6
ATOM      6  C   UNL     1      70.026  82.816  67.845  1.00  0.00    -0.003 C 
ATOM      7  C   UNL     1      69.021  83.111  66.709  1.00  0.00     0.004 C 
ENDBRANCH   5   6
ENDBRANCH   4   5
ENDBRANCH   3   4
ENDBRANCH   2   3
ENDBRANCH   1   2
BRANCH   1   8
ATOM      8  C   UNL     1      67.695  83.305  70.552  1.00  0.00     0.100 C 
BRANCH   8   9
ATOM      9  C   UNL     1      66.218  83.184  70.524  1.00  0.00     0.220 C 
ATOM     10  O   UNL     1      65.552  84.134  70.047  1.00  0.00    -0.275 OA
ATOM     11  N   UNL     1      65.605  82.052  70.980  1.00  0.00    -0.352 N 
ATOM     12  H   UNL     1      66.226  81.390  71.421  1.00  0.00     0.163 HD
BRANCH  11  13
ATOM     13  C   UNL     1      64.208  81.759  70.877  1.00  0.00     0.151 C 
BRANCH  13  14
ATOM     14  C   UNL     1      63.429  82.110  72.095  1.00  0.00    -0.025 A 
ATOM     15  C   UNL     1      62.566  83.232  72.089  1.00  0.00     0.056 A 
ATOM     16  C   UNL     1      63.536  81.338  73.274  1.00  0.00     0.009 A 
ATOM     17  C   UNL     1      61.806  83.568  73.233  1.00  0.00     0.160 A 
ATOM     18  C   UNL     1      62.782  81.666  74.415  1.00  0.00     0.050 A 
ATOM     19  C   UNL     1      61.923  82.781  74.401  1.00  0.00     0.157 A 
BRANCH  17  20
ATOM     20  O   UNL     1      61.002  84.680  73.239  1.00  0.00    -0.493 OA
ATOM     21  C   UNL     1      61.688  85.903  72.920  1.00  0.00     0.278 C 
ENDBRANCH  17  20
BRANCH  19  22
ATOM     22  O   UNL     1      61.220  83.106  75.516  1.00  0.00    -0.504 OA
ATOM     23  H   UNL     1      60.523  82.460  75.654  1.00  0.00     0.293 HD
ENDBRANCH  19  22
ENDBRANCH  13  14
ENDBRANCH  11  13
ENDBRANCH   8   9
ENDBRANCH   1   8
TORSDOF 11
ENDMDL
MODEL 10
REMARK VINA RESULT:    -5.028      2.124      5.797
REMARK INTER + INTRA:          -9.071
REMARK INTER:                  -8.194
REMARK INTRA:                  -0.878
REMARK UNBOUND:                -0.958
REMARK SMILES CCCCCCCCC(=O)NCc1ccc(O)c(OC)c1
REMARK SMILES IDX 7 1 6 2 5 3 4 4 3 5 2 6 1 7 8 8 9 9 10 10 11 11 12 13 13 14
REMARK SMILES IDX 21 15 14 16 18 17 15 18 16 19 19 20 20 21 17 22
REMARK H PARENT 11 12 17 23
REMARK Flexibility Score: inf
ROOT
ATOM      1  C   UNL     1      95.956  94.429  80.325  1.00  0.00     0.010 C 
ENDROOT
BRANCH   1   2
ATOM      2  C   UNL     1      94.680  93.632  79.927  1.00  0.00     0.001 C 
BRANCH   2   3
ATOM      3  C   UNL     1      93.479  94.567  79.600  1.00  0.00     0.000 C 
BRANCH   3   4
ATOM      4  C   UNL     1      93.074  94.567  78.099  1.00  0.00    -0.000 C 
BRANCH   4   5
ATOM      5  C   UNL     1      91.766  95.364  77.829  1.00  0.00    -0.000 C 
BRANCH   5   6
ATOM      6  C   UNL     1      90.490  94.510  78.058  1.00  0.00    -0.003 C 
ATOM      7  C   UNL     1      89.279  95.009  77.239  1.00  0.00     0.004 C 
ENDBRANCH   5   6
ENDBRANCH   4   5
ENDBRANCH   3   4
ENDBRANCH   2   3
ENDBRANCH   1   2
BRANCH   1   8
ATOM      8  C   UNL     1      95.683  95.602  81.308  1.00  0.00     0.100 C 
BRANCH   8   9
ATOM      9  C   UNL     1      95.724  96.910  80.612  1.00  0.00     0.220 C 
ATOM     10  O   UNL     1      95.428  97.940  81.264  1.00  0.00    -0.275 OA
ATOM     11  N   UNL     1      96.102  96.989  79.303  1.00  0.00    -0.352 N 
ATOM     12  H   UNL     1      96.233  96.095  78.852  1.00  0.00     0.163 HD
BRANCH  11  13
ATOM     13  C   UNL     1      96.315  98.196  78.565  1.00  0.00     0.151 C 
BRANCH  13  14
ATOM     14  C   UNL     1      96.237  98.021  77.090  1.00  0.00    -0.025 A 
ATOM     15  C   UNL     1      97.071  98.784  76.237  1.00  0.00     0.056 A 
ATOM     16  C   UNL     1      95.333  97.099  76.514  1.00  0.00     0.009 A 
ATOM     17  C   UNL     1      97.020  98.617  74.834  1.00  0.00     0.160 A 
ATOM     18  C   UNL     1      95.279  96.927  75.120  1.00  0.00     0.050 A 
ATOM     19  C   UNL     1      96.113  97.687  74.277  1.00  0.00     0.157 A 
BRANCH  17  20
ATOM     20  O   UNL     1      97.798  99.387  74.008  1.00  0.00    -0.493 OA
ATOM     21  C   UNL     1      99.130  98.881  73.813  1.00  0.00     0.278 C 
ENDBRANCH  17  20
BRANCH  19  22
ATOM     22  O   UNL     1      96.033  97.534  72.931  1.00  0.00    -0.504 OA
ATOM     23  H   UNL     1      95.712  96.652  72.728  1.00  0.00     0.293 HD
ENDBRANCH  19  22
ENDBRANCH  13  14
ENDBRANCH  11  13
ENDBRANCH   8   9
ENDBRANCH   1   8
TORSDOF 11
ENDMDL
