MODEL 1
REMARK VINA RESULT:    -6.279      0.000      0.000
REMARK INTER + INTRA:         -10.780
REMARK INTER:                 -10.134
REMARK INTRA:                  -0.646
REMARK UNBOUND:                -0.646
REMARK SMILES COc1cc(CNC(=O)CCCCCCC(C)C)ccc1O
REMARK SMILES IDX 11 1 10 2 8 3 7 4 9 6 6 7 5 8 3 9 21 10 4 11 20 12 19 13
REMARK SMILES IDX 2 14 1 15 22 16 12 18 13 19 14 20 15 21 16 22 17 23 18 24
REMARK H PARENT 7 5 22 17
REMARK Flexibility Score: inf
ROOT
ATOM      1  C   UNL     1      90.253  98.557  70.787  1.00  0.00     0.010 C 
ENDROOT
BRANCH   1   2
ATOM      2  C   UNL     1      90.913  99.964  70.784  1.00  0.00     0.100 C 
BRANCH   2   3
ATOM      3  C   UNL     1      91.990 100.107  71.789  1.00  0.00     0.220 C 
ATOM      4  N   UNL     1      92.628  99.005  72.277  1.00  0.00    -0.352 N 
ATOM      5  H   UNL     1      92.274  98.125  71.930  1.00  0.00     0.163 HD
ATOM      6  O   UNL     1      92.315 101.261  72.161  1.00  0.00    -0.275 OA
BRANCH   4   7
ATOM      7  C   UNL     1      93.719  99.024  73.204  1.00  0.00     0.151 C 
BRANCH   7   8
ATOM      8  C   UNL     1      93.981  97.699  73.829  1.00  0.00    -0.025 A 
ATOM      9  C   UNL     1      93.436  95.995  75.516  1.00  0.00     0.160 A 
ATOM     10  C   UNL     1      94.446  95.155  74.998  1.00  0.00     0.157 A 
ATOM     11  C   UNL     1      93.225  97.266  74.941  1.00  0.00     0.056 A 
ATOM     12  C   UNL     1      95.232  95.591  73.916  1.00  0.00     0.050 A 
ATOM     13  C   UNL     1      94.995  96.849  73.328  1.00  0.00     0.009 A 
BRANCH   9  14
ATOM     14  O   UNL     1      92.692  95.597  76.594  1.00  0.00    -0.493 OA
ATOM     15  C   UNL     1      91.623  96.501  76.927  1.00  0.00     0.278 C 
ENDBRANCH   9  14
BRANCH  10  16
ATOM     16  O   UNL     1      94.673  93.927  75.533  1.00  0.00    -0.504 OA
ATOM     17  H   UNL     1      93.865  93.600  75.937  1.00  0.00     0.293 HD
ENDBRANCH  10  16
ENDBRANCH   7   8
ENDBRANCH   4   7
ENDBRANCH   2   3
ENDBRANCH   1   2
BRANCH   1  18
ATOM     18  C   UNL     1      89.950  98.048  69.349  1.00  0.00     0.001 C 
BRANCH  18  19
ATOM     19  C   UNL     1      88.906  98.912  68.586  1.00  0.00     0.000 C 
BRANCH  19  20
ATOM     20  C   UNL     1      89.200  98.946  67.059  1.00  0.00     0.000 C 
BRANCH  20  21
ATOM     21  C   UNL     1      88.959 100.330  66.395  1.00  0.00     0.003 C 
BRANCH  21  22
ATOM     22  C   UNL     1      87.594 100.999  66.764  1.00  0.00    -0.017 C 
ATOM     23  C   UNL     1      86.409 100.144  66.235  1.00  0.00     0.007 C 
ATOM     24  C   UNL     1      87.467 102.471  66.272  1.00  0.00     0.007 C 
ENDBRANCH  21  22
ENDBRANCH  20  21
ENDBRANCH  19  20
ENDBRANCH  18  19
ENDBRANCH   1  18
TORSDOF 11
ENDMDL
MODEL 2
REMARK VINA RESULT:    -5.978      4.990      9.534
REMARK INTER + INTRA:         -10.294
REMARK INTER:                  -8.743
REMARK INTRA:                  -1.552
REMARK UNBOUND:                -0.646
REMARK SMILES COc1cc(CNC(=O)CCCCCCC(C)C)ccc1O
REMARK SMILES IDX 11 1 10 2 8 3 7 4 9 6 6 7 5 8 3 9 21 10 4 11 20 12 19 13
REMARK SMILES IDX 2 14 1 15 22 16 12 18 13 19 14 20 15 21 16 22 17 23 18 24
REMARK H PARENT 7 5 22 17
REMARK Flexibility Score: inf
ROOT
ATOM      1  C   UNL     1      89.722  99.243  70.355  1.00  0.00     0.010 C 
ENDROOT
BRANCH   1   2
ATOM      2  C   UNL     1      89.627  98.062  69.350  1.00  0.00     0.100 C 
BRANCH   2   3
ATOM      3  C   UNL     1      89.245  98.485  67.984  1.00  0.00     0.220 C 
ATOM      4  N   UNL     1      88.096  99.192  67.778  1.00  0.00    -0.352 N 
ATOM      5  H   UNL     1      87.542  99.346  68.608  1.00  0.00     0.163 HD
ATOM      6  O   UNL     1      90.010  98.202  67.030  1.00  0.00    -0.275 OA
BRANCH   4   7
ATOM      7  C   UNL     1      87.655  99.703  66.516  1.00  0.00     0.151 C 
BRANCH   7   8
ATOM      8  C   UNL     1      87.789 101.181  66.402  1.00  0.00    -0.025 A 
ATOM      9  C   UNL     1      86.755 103.404  66.206  1.00  0.00     0.160 A 
ATOM     10  C   UNL     1      88.033 104.003  66.229  1.00  0.00     0.157 A 
ATOM     11  C   UNL     1      86.643 101.999  66.273  1.00  0.00     0.056 A 
ATOM     12  C   UNL     1      89.183 103.197  66.318  1.00  0.00     0.050 A 
ATOM     13  C   UNL     1      89.062 101.797  66.414  1.00  0.00     0.009 A 
BRANCH   9  14
ATOM     14  O   UNL     1      85.632 104.176  66.080  1.00  0.00    -0.493 OA
ATOM     15  C   UNL     1      84.507 103.477  65.519  1.00  0.00     0.278 C 
ENDBRANCH   9  14
BRANCH  10  16
ATOM     16  O   UNL     1      88.171 105.354  66.164  1.00  0.00    -0.504 OA
ATOM     17  H   UNL     1      88.486 105.684  67.009  1.00  0.00     0.293 HD
ENDBRANCH  10  16
ENDBRANCH   7   8
ENDBRANCH   4   7
ENDBRANCH   2   3
ENDBRANCH   1   2
BRANCH   1  18
ATOM     18  C   UNL     1      91.084  99.265  71.107  1.00  0.00     0.001 C 
BRANCH  18  19
ATOM     19  C   UNL     1      92.270  99.770  70.239  1.00  0.00     0.000 C 
BRANCH  19  20
ATOM     20  C   UNL     1      92.288 101.322  70.142  1.00  0.00     0.000 C 
BRANCH  20  21
ATOM     21  C   UNL     1      91.878 102.047  71.454  1.00  0.00     0.003 C 
BRANCH  21  22
ATOM     22  C   UNL     1      90.647 103.001  71.312  1.00  0.00    -0.017 C 
ATOM     23  C   UNL     1      89.572 102.664  72.383  1.00  0.00     0.007 C 
ATOM     24  C   UNL     1      90.017 103.000  69.888  1.00  0.00     0.007 C 
ENDBRANCH  21  22
ENDBRANCH  20  21
ENDBRANCH  19  20
ENDBRANCH  18  19
ENDBRANCH   1  18
TORSDOF 11
ENDMDL
MODEL 3
REMARK VINA RESULT:    -5.803     17.151     21.075
REMARK INTER + INTRA:         -10.012
REMARK INTER:                  -9.398
REMARK INTRA:                  -0.615
REMARK UNBOUND:                -0.646
REMARK SMILES COc1cc(CNC(=O)CCCCCCC(C)C)ccc1O
REMARK SMILES IDX 11 1 10 2 8 3 7 4 9 6 6 7 5 8 3 9 21 10 4 11 20 12 19 13
REMARK SMILES IDX 2 14 1 15 22 16 12 18 13 19 14 20 15 21 16 22 17 23 18 24
REMARK H PARENT 7 5 22 17
REMARK Flexibility Score: inf
ROOT
ATOM      1  C   UNL     1      96.972  79.532  81.734  1.00  0.00     0.010 C 
ENDROOT
BRANCH   1   2
ATOM      2  C   UNL     1      98.522  79.638  81.699  1.00  0.00     0.100 C 
BRANCH   2   3
ATOM      3  C   UNL     1      99.071  79.730  80.327  1.00  0.00     0.220 C 
ATOM      4  N   UNL     1      98.425  80.462  79.374  1.00  0.00    -0.352 N 
ATOM      5  H   UNL     1      97.555  80.873  79.676  1.00  0.00     0.163 HD
ATOM      6  O   UNL     1     100.151  79.143  80.071  1.00  0.00    -0.275 OA
BRANCH   4   7
ATOM      7  C   UNL     1      98.890  80.669  78.036  1.00  0.00     0.151 C 
BRANCH   7   8
ATOM      8  C   UNL     1      97.985  81.530  77.227  1.00  0.00    -0.025 A 
ATOM      9  C   UNL     1      97.493  82.733  75.139  1.00  0.00     0.160 A 
ATOM     10  C   UNL     1      96.245  83.136  75.662  1.00  0.00     0.157 A 
ATOM     11  C   UNL     1      98.360  81.951  75.931  1.00  0.00     0.056 A 
ATOM     12  C   UNL     1      95.877  82.756  76.965  1.00  0.00     0.050 A 
ATOM     13  C   UNL     1      96.735  81.950  77.739  1.00  0.00     0.009 A 
BRANCH   9  14
ATOM     14  O   UNL     1      97.878  83.130  73.887  1.00  0.00    -0.493 OA
ATOM     15  C   UNL     1      98.857  82.267  73.280  1.00  0.00     0.278 C 
ENDBRANCH   9  14
BRANCH  10  16
ATOM     16  O   UNL     1      95.391  83.891  74.922  1.00  0.00    -0.504 OA
ATOM     17  H   UNL     1      94.495  83.768  75.245  1.00  0.00     0.293 HD
ENDBRANCH  10  16
ENDBRANCH   7   8
ENDBRANCH   4   7
ENDBRANCH   2   3
ENDBRANCH   1   2
BRANCH   1  18
ATOM     18  C   UNL     1      96.307  80.827  82.281  1.00  0.00     0.001 C 
BRANCH  18  19
ATOM     19  C   UNL     1      95.563  80.627  83.631  1.00  0.00     0.000 C 
BRANCH  19  20
ATOM     20  C   UNL     1      94.811  81.916  84.067  1.00  0.00     0.000 C 
BRANCH  20  21
ATOM     21  C   UNL     1      93.823  81.709  85.248  1.00  0.00     0.003 C 
BRANCH  21  22
ATOM     22  C   UNL     1      92.428  81.136  84.836  1.00  0.00    -0.017 C 
ATOM     23  C   UNL     1      91.287  81.936  85.525  1.00  0.00     0.007 C 
ATOM     24  C   UNL     1      92.271  79.612  85.115  1.00  0.00     0.007 C 
ENDBRANCH  21  22
ENDBRANCH  20  21
ENDBRANCH  19  20
ENDBRANCH  18  19
ENDBRANCH   1  18
TORSDOF 11
ENDMDL
MODEL 4
REMARK VINA RESULT:    -5.678      4.152      6.202
REMARK INTER + INTRA:          -9.809
REMARK INTER:                  -7.778
REMARK INTRA:                  -2.031
REMARK UNBOUND:                -0.646
REMARK SMILES COc1cc(CNC(=O)CCCCCCC(C)C)ccc1O
REMARK SMILES IDX 11 1 10 2 8 3 7 4 9 6 6 7 5 8 3 9 21 10 4 11 20 12 19 13
REMARK SMILES IDX 2 14 1 15 22 16 12 18 13 19 14 20 15 21 16 22 17 23 18 24
REMARK H PARENT 7 5 22 17
REMARK Flexibility Score: inf
ROOT
ATOM      1  C   UNL     1      87.536 101.475  65.975  1.00  0.00     0.010 C 
ENDROOT
BRANCH   1   2
ATOM      2  C   UNL     1      87.072 100.127  66.594  1.00  0.00     0.100 C 
BRANCH   2   3
ATOM      3  C   UNL     1      88.189  99.309  67.117  1.00  0.00     0.220 C 
ATOM      4  N   UNL     1      88.517  99.355  68.440  1.00  0.00    -0.352 N 
ATOM      5  H   UNL     1      87.974 100.008  68.986  1.00  0.00     0.163 HD
ATOM      6  O   UNL     1      88.808  98.558  66.323  1.00  0.00    -0.275 OA
BRANCH   4   7
ATOM      7  C   UNL     1      89.535  98.568  69.067  1.00  0.00     0.151 C 
BRANCH   7   8
ATOM      8  C   UNL     1      90.456  99.371  69.918  1.00  0.00    -0.025 A 
ATOM      9  C   UNL     1      92.722  99.832  70.758  1.00  0.00     0.160 A 
ATOM     10  C   UNL     1      92.226 100.924  71.503  1.00  0.00     0.157 A 
ATOM     11  C   UNL     1      91.832  99.054  69.987  1.00  0.00     0.056 A 
ATOM     12  C   UNL     1      90.852 101.226  71.473  1.00  0.00     0.050 A 
ATOM     13  C   UNL     1      89.974 100.463  70.679  1.00  0.00     0.009 A 
BRANCH   9  14
ATOM     14  O   UNL     1      94.049  99.506  70.811  1.00  0.00    -0.493 OA
ATOM     15  C   UNL     1      94.836 100.107  69.766  1.00  0.00     0.278 C 
ENDBRANCH   9  14
BRANCH  10  16
ATOM     16  O   UNL     1      93.059 101.690  72.255  1.00  0.00    -0.504 OA
ATOM     17  H   UNL     1      92.626 101.916  73.082  1.00  0.00     0.293 HD
ENDBRANCH  10  16
ENDBRANCH   7   8
ENDBRANCH   4   7
ENDBRANCH   2   3
ENDBRANCH   1   2
BRANCH   1  18
ATOM     18  C   UNL     1      87.192 102.688  66.887  1.00  0.00     0.001 C 
BRANCH  18  19
ATOM     19  C   UNL     1      88.441 103.425  67.446  1.00  0.00     0.000 C 
BRANCH  19  20
ATOM     20  C   UNL     1      89.746 102.953  66.744  1.00  0.00     0.000 C 
BRANCH  20  21
ATOM     21  C   UNL     1      90.803 102.347  67.707  1.00  0.00     0.003 C 
BRANCH  21  22
ATOM     22  C   UNL     1      91.776 101.319  67.041  1.00  0.00    -0.017 C 
ATOM     23  C   UNL     1      93.215 101.903  66.964  1.00  0.00     0.007 C 
ATOM     24  C   UNL     1      91.308 100.835  65.637  1.00  0.00     0.007 C 
ENDBRANCH  21  22
ENDBRANCH  20  21
ENDBRANCH  19  20
ENDBRANCH  18  19
ENDBRANCH   1  18
TORSDOF 11
ENDMDL
MODEL 5
REMARK VINA RESULT:    -5.655      1.452      2.361
REMARK INTER + INTRA:          -9.773
REMARK INTER:                  -8.958
REMARK INTRA:                  -0.815
REMARK UNBOUND:                -0.646
REMARK SMILES COc1cc(CNC(=O)CCCCCCC(C)C)ccc1O
REMARK SMILES IDX 11 1 10 2 8 3 7 4 9 6 6 7 5 8 3 9 21 10 4 11 20 12 19 13
REMARK SMILES IDX 2 14 1 15 22 16 12 18 13 19 14 20 15 21 16 22 17 23 18 24
REMARK H PARENT 7 5 22 17
REMARK Flexibility Score: inf
ROOT
ATOM      1  C   UNL     1      90.125  98.920  70.826  1.00  0.00     0.010 C 
ENDROOT
BRANCH   1   2
ATOM      2  C   UNL     1      90.688 100.333  70.512  1.00  0.00     0.100 C 
BRANCH   2   3
ATOM      3  C   UNL     1      91.916 100.656  71.272  1.00  0.00     0.220 C 
ATOM      4  N   UNL     1      92.730  99.657  71.722  1.00  0.00    -0.352 N 
ATOM      5  H   UNL     1      92.398  98.724  71.530  1.00  0.00     0.163 HD
ATOM      6  O   UNL     1      92.201 101.862  71.471  1.00  0.00    -0.275 OA
BRANCH   4   7
ATOM      7  C   UNL     1      93.968  99.850  72.415  1.00  0.00     0.151 C 
BRANCH   7   8
ATOM      8  C   UNL     1      94.322  98.714  73.310  1.00  0.00    -0.025 A 
ATOM      9  C   UNL     1      96.023  97.294  74.376  1.00  0.00     0.160 A 
ATOM     10  C   UNL     1      95.008  96.579  75.049  1.00  0.00     0.157 A 
ATOM     11  C   UNL     1      95.672  98.341  73.499  1.00  0.00     0.056 A 
ATOM     12  C   UNL     1      93.658  96.915  74.839  1.00  0.00     0.050 A 
ATOM     13  C   UNL     1      93.317  97.982  73.984  1.00  0.00     0.009 A 
BRANCH   9  14
ATOM     14  O   UNL     1      97.337  96.949  74.543  1.00  0.00    -0.493 OA
ATOM     15  C   UNL     1      98.262  97.919  74.019  1.00  0.00     0.278 C 
ENDBRANCH   9  14
BRANCH  10  16
ATOM     16  O   UNL     1      95.316  95.564  75.898  1.00  0.00    -0.504 OA
ATOM     17  H   UNL     1      95.850  94.912  75.437  1.00  0.00     0.293 HD
ENDBRANCH  10  16
ENDBRANCH   7   8
ENDBRANCH   4   7
ENDBRANCH   2   3
ENDBRANCH   1   2
BRANCH   1  18
ATOM     18  C   UNL     1      89.971  98.051  69.545  1.00  0.00     0.001 C 
BRANCH  18  19
ATOM     19  C   UNL     1      88.841  98.534  68.593  1.00  0.00     0.000 C 
BRANCH  19  20
ATOM     20  C   UNL     1      89.321  98.586  67.115  1.00  0.00     0.000 C 
BRANCH  20  21
ATOM     21  C   UNL     1      89.114  99.963  66.426  1.00  0.00     0.003 C 
BRANCH  21  22
ATOM     22  C   UNL     1      87.840 100.740  66.894  1.00  0.00    -0.017 C 
ATOM     23  C   UNL     1      86.563 100.122  66.259  1.00  0.00     0.007 C 
ATOM     24  C   UNL     1      87.902 102.270  66.614  1.00  0.00     0.007 C 
ENDBRANCH  21  22
ENDBRANCH  20  21
ENDBRANCH  19  20
ENDBRANCH  18  19
ENDBRANCH   1  18
TORSDOF 11
ENDMDL
MODEL 6
REMARK VINA RESULT:    -5.569     22.345     24.775
REMARK INTER + INTRA:          -9.634
REMARK INTER:                  -8.846
REMARK INTRA:                  -0.788
REMARK UNBOUND:                -0.646
REMARK SMILES COc1cc(CNC(=O)CCCCCCC(C)C)ccc1O
REMARK SMILES IDX 11 1 10 2 8 3 7 4 9 6 6 7 5 8 3 9 21 10 4 11 20 12 19 13
REMARK SMILES IDX 2 14 1 15 22 16 12 18 13 19 14 20 15 21 16 22 17 23 18 24
REMARK H PARENT 7 5 22 17
REMARK Flexibility Score: inf
ROOT
ATOM      1  C   UNL     1      70.201  83.765  65.101  1.00  0.00     0.010 C 
ENDROOT
BRANCH   1   2
ATOM      2  C   UNL     1      70.360  82.278  65.520  1.00  0.00     0.100 C 
BRANCH   2   3
ATOM      3  C   UNL     1      71.722  81.747  65.287  1.00  0.00     0.220 C 
ATOM      4  N   UNL     1      72.818  82.498  65.600  1.00  0.00    -0.352 N 
ATOM      5  H   UNL     1      72.609  83.423  65.946  1.00  0.00     0.163 HD
ATOM      6  O   UNL     1      71.844  80.587  64.822  1.00  0.00    -0.275 OA
BRANCH   4   7
ATOM      7  C   UNL     1      74.177  82.068  65.474  1.00  0.00     0.151 C 
BRANCH   7   8
ATOM      8  C   UNL     1      75.152  83.024  66.067  1.00  0.00    -0.025 A 
ATOM      9  C   UNL     1      75.702  84.742  67.739  1.00  0.00     0.160 A 
ATOM     10  C   UNL     1      77.018  84.817  67.232  1.00  0.00     0.157 A 
ATOM     11  C   UNL     1      74.776  83.861  67.142  1.00  0.00     0.056 A 
ATOM     12  C   UNL     1      77.393  84.018  66.137  1.00  0.00     0.050 A 
ATOM     13  C   UNL     1      76.471  83.120  65.565  1.00  0.00     0.009 A 
BRANCH   9  14
ATOM     14  O   UNL     1      75.315  85.543  68.779  1.00  0.00    -0.493 OA
ATOM     15  C   UNL     1      75.014  84.821  69.987  1.00  0.00     0.278 C 
ENDBRANCH   9  14
BRANCH  10  16
ATOM     16  O   UNL     1      77.930  85.658  67.786  1.00  0.00    -0.504 OA
ATOM     17  H   UNL     1      77.523  86.138  68.511  1.00  0.00     0.293 HD
ENDBRANCH  10  16
ENDBRANCH   7   8
ENDBRANCH   4   7
ENDBRANCH   2   3
ENDBRANCH   1   2
BRANCH   1  18
ATOM     18  C   UNL     1      69.579  84.631  66.234  1.00  0.00     0.001 C 
BRANCH  18  19
ATOM     19  C   UNL     1      69.528  83.915  67.613  1.00  0.00     0.000 C 
BRANCH  19  20
ATOM     20  C   UNL     1      68.633  84.686  68.624  1.00  0.00     0.000 C 
BRANCH  20  21
ATOM     21  C   UNL     1      69.037  84.487  70.112  1.00  0.00     0.003 C 
BRANCH  21  22
ATOM     22  C   UNL     1      68.586  85.640  71.067  1.00  0.00    -0.017 C 
ATOM     23  C   UNL     1      67.146  85.381  71.592  1.00  0.00     0.007 C 
ATOM     24  C   UNL     1      68.686  87.057  70.428  1.00  0.00     0.007 C 
ENDBRANCH  21  22
ENDBRANCH  20  21
ENDBRANCH  19  20
ENDBRANCH  18  19
ENDBRANCH   1  18
TORSDOF 11
ENDMDL
MODEL 7
REMARK VINA RESULT:    -5.507     23.091     26.059
REMARK INTER + INTRA:          -9.534
REMARK INTER:                  -8.576
REMARK INTRA:                  -0.958
REMARK UNBOUND:                -0.646
REMARK SMILES COc1cc(CNC(=O)CCCCCCC(C)C)ccc1O
REMARK SMILES IDX 11 1 10 2 8 3 7 4 9 6 6 7 5 8 3 9 21 10 4 11 20 12 19 13
REMARK SMILES IDX 2 14 1 15 22 16 12 18 13 19 14 20 15 21 16 22 17 23 18 24
REMARK H PARENT 7 5 22 17
REMARK Flexibility Score: inf
ROOT
ATOM      1  C   UNL     1      74.327  82.643  64.860  1.00  0.00     0.010 C 
ENDROOT
BRANCH   1   2
ATOM      2  C   UNL     1      73.571  81.333  65.218  1.00  0.00     0.100 C 
BRANCH   2   3
ATOM      3  C   UNL     1      72.142  81.359  64.837  1.00  0.00     0.220 C 
ATOM      4  N   UNL     1      71.457  82.540  64.808  1.00  0.00    -0.352 N 
ATOM      5  H   UNL     1      71.992  83.343  65.104  1.00  0.00     0.163 HD
ATOM      6  O   UNL     1      71.584  80.281  64.518  1.00  0.00    -0.275 OA
BRANCH   4   7
ATOM      7  C   UNL     1      70.094  82.694  64.400  1.00  0.00     0.151 C 
BRANCH   7   8
ATOM      8  C   UNL     1      69.235  83.314  65.447  1.00  0.00    -0.025 A 
ATOM      9  C   UNL     1      68.888  84.005  67.781  1.00  0.00     0.160 A 
ATOM     10  C   UNL     1      67.624  84.533  67.439  1.00  0.00     0.157 A 
ATOM     11  C   UNL     1      69.674  83.384  66.788  1.00  0.00     0.056 A 
ATOM     12  C   UNL     1      67.159  84.435  66.115  1.00  0.00     0.050 A 
ATOM     13  C   UNL     1      67.962  83.840  65.123  1.00  0.00     0.009 A 
BRANCH   9  14
ATOM     14  O   UNL     1      69.332  84.060  69.074  1.00  0.00    -0.493 OA
ATOM     15  C   UNL     1      70.194  85.180  69.344  1.00  0.00     0.278 C 
ENDBRANCH   9  14
BRANCH  10  16
ATOM     16  O   UNL     1      66.844  85.136  68.375  1.00  0.00    -0.504 OA
ATOM     17  H   UNL     1      66.842  86.084  68.226  1.00  0.00     0.293 HD
ENDBRANCH  10  16
ENDBRANCH   7   8
ENDBRANCH   4   7
ENDBRANCH   2   3
ENDBRANCH   1   2
BRANCH   1  18
ATOM     18  C   UNL     1      75.126  83.209  66.068  1.00  0.00     0.001 C 
BRANCH  18  19
ATOM     19  C   UNL     1      76.659  83.288  65.823  1.00  0.00     0.000 C 
BRANCH  19  20
ATOM     20  C   UNL     1      77.357  84.213  66.860  1.00  0.00     0.000 C 
BRANCH  20  21
ATOM     21  C   UNL     1      76.685  85.604  67.026  1.00  0.00     0.003 C 
BRANCH  21  22
ATOM     22  C   UNL     1      76.287  85.963  68.495  1.00  0.00    -0.017 C 
ATOM     23  C   UNL     1      76.255  84.683  69.377  1.00  0.00     0.007 C 
ATOM     24  C   UNL     1      74.940  86.736  68.608  1.00  0.00     0.007 C 
ENDBRANCH  21  22
ENDBRANCH  20  21
ENDBRANCH  19  20
ENDBRANCH  18  19
ENDBRANCH   1  18
TORSDOF 11
ENDMDL
MODEL 8
REMARK VINA RESULT:    -5.315     28.694     31.205
REMARK INTER + INTRA:          -9.224
REMARK INTER:                  -7.549
REMARK INTRA:                  -1.676
REMARK UNBOUND:                -0.646
REMARK SMILES COc1cc(CNC(=O)CCCCCCC(C)C)ccc1O
REMARK SMILES IDX 11 1 10 2 8 3 7 4 9 6 6 7 5 8 3 9 21 10 4 11 20 12 19 13
REMARK SMILES IDX 2 14 1 15 22 16 12 18 13 19 14 20 15 21 16 22 17 23 18 24
REMARK H PARENT 7 5 22 17
REMARK Flexibility Score: inf
ROOT
ATOM      1  C   UNL     1      62.029  85.239  69.152  1.00  0.00     0.010 C 
ENDROOT
BRANCH   1   2
ATOM      2  C   UNL     1      63.295  85.336  68.257  1.00  0.00     0.100 C 
BRANCH   2   3
ATOM      3  C   UNL     1      64.546  85.005  68.976  1.00  0.00     0.220 C 
ATOM      4  N   UNL     1      64.699  85.348  70.287  1.00  0.00    -0.352 N 
ATOM      5  H   UNL     1      63.926  85.865  70.680  1.00  0.00     0.163 HD
ATOM      6  O   UNL     1      65.447  84.384  68.360  1.00  0.00    -0.275 OA
BRANCH   4   7
ATOM      7  C   UNL     1      65.835  85.030  71.097  1.00  0.00     0.151 C 
BRANCH   7   8
ATOM      8  C   UNL     1      65.666  85.420  72.524  1.00  0.00    -0.025 A 
ATOM      9  C   UNL     1      64.279  85.529  74.552  1.00  0.00     0.160 A 
ATOM     10  C   UNL     1      65.351  86.120  75.256  1.00  0.00     0.157 A 
ATOM     11  C   UNL     1      64.439  85.201  73.189  1.00  0.00     0.056 A 
ATOM     12  C   UNL     1      66.565  86.379  74.595  1.00  0.00     0.050 A 
ATOM     13  C   UNL     1      66.727  86.023  73.242  1.00  0.00     0.009 A 
BRANCH   9  14
ATOM     14  O   UNL     1      63.081  85.309  75.175  1.00  0.00    -0.493 OA
ATOM     15  C   UNL     1      62.464  84.058  74.821  1.00  0.00     0.278 C 
ENDBRANCH   9  14
BRANCH  10  16
ATOM     16  O   UNL     1      65.225  86.448  76.569  1.00  0.00    -0.504 OA
ATOM     17  H   UNL     1      64.402  86.924  76.702  1.00  0.00     0.293 HD
ENDBRANCH  10  16
ENDBRANCH   7   8
ENDBRANCH   4   7
ENDBRANCH   2   3
ENDBRANCH   1   2
BRANCH   1  18
ATOM     18  C   UNL     1      61.271  83.895  68.953  1.00  0.00     0.001 C 
BRANCH  18  19
ATOM     19  C   UNL     1      61.966  82.926  67.956  1.00  0.00     0.000 C 
BRANCH  19  20
ATOM     20  C   UNL     1      62.654  81.743  68.694  1.00  0.00     0.000 C 
BRANCH  20  21
ATOM     21  C   UNL     1      62.312  81.651  70.207  1.00  0.00     0.003 C 
BRANCH  21  22
ATOM     22  C   UNL     1      63.514  81.943  71.164  1.00  0.00    -0.017 C 
ATOM     23  C   UNL     1      64.856  81.545  70.488  1.00  0.00     0.007 C 
ATOM     24  C   UNL     1      63.383  81.261  72.558  1.00  0.00     0.007 C 
ENDBRANCH  21  22
ENDBRANCH  20  21
ENDBRANCH  19  20
ENDBRANCH  18  19
ENDBRANCH   1  18
TORSDOF 11
ENDMDL
MODEL 9
REMARK VINA RESULT:    -5.307     15.786     18.147
REMARK INTER + INTRA:          -9.212
REMARK INTER:                  -8.429
REMARK INTRA:                  -0.782
REMARK UNBOUND:                -0.646
REMARK SMILES COc1cc(CNC(=O)CCCCCCC(C)C)ccc1O
REMARK SMILES IDX 11 1 10 2 8 3 7 4 9 6 6 7 5 8 3 9 21 10 4 11 20 12 19 13
REMARK SMILES IDX 2 14 1 15 22 16 12 18 13 19 14 20 15 21 16 22 17 23 18 24
REMARK H PARENT 7 5 22 17
REMARK Flexibility Score: inf
ROOT
ATOM      1  C   UNL     1      75.684  89.931  68.504  1.00  0.00     0.010 C 
ENDROOT
BRANCH   1   2
ATOM      2  C   UNL     1      74.840  90.550  69.653  1.00  0.00     0.100 C 
BRANCH   2   3
ATOM      3  C   UNL     1      75.000  92.017  69.771  1.00  0.00     0.220 C 
ATOM      4  N   UNL     1      75.263  92.586  70.983  1.00  0.00    -0.352 N 
ATOM      5  H   UNL     1      75.289  91.937  71.756  1.00  0.00     0.163 HD
ATOM      6  O   UNL     1      74.914  92.717  68.733  1.00  0.00    -0.275 OA
BRANCH   4   7
ATOM      7  C   UNL     1      75.494  93.980  71.209  1.00  0.00     0.151 C 
BRANCH   7   8
ATOM      8  C   UNL     1      76.344  94.249  72.401  1.00  0.00    -0.025 A 
ATOM      9  C   UNL     1      77.913  95.704  73.614  1.00  0.00     0.160 A 
ATOM     10  C   UNL     1      77.933  94.790  74.689  1.00  0.00     0.157 A 
ATOM     11  C   UNL     1      77.135  95.419  72.472  1.00  0.00     0.056 A 
ATOM     12  C   UNL     1      77.180  93.604  74.614  1.00  0.00     0.050 A 
ATOM     13  C   UNL     1      76.383  93.339  73.483  1.00  0.00     0.009 A 
BRANCH   9  14
ATOM     14  O   UNL     1      78.671  96.842  73.660  1.00  0.00    -0.493 OA
ATOM     15  C   UNL     1      78.155  97.917  72.854  1.00  0.00     0.278 C 
ENDBRANCH   9  14
BRANCH  10  16
ATOM     16  O   UNL     1      78.674  95.039  75.801  1.00  0.00    -0.504 OA
ATOM     17  H   UNL     1      78.848  94.213  76.260  1.00  0.00     0.293 HD
ENDBRANCH  10  16
ENDBRANCH   7   8
ENDBRANCH   4   7
ENDBRANCH   2   3
ENDBRANCH   1   2
BRANCH   1  18
ATOM     18  C   UNL     1      75.233  88.484  68.159  1.00  0.00     0.001 C 
BRANCH  18  19
ATOM     19  C   UNL     1      73.974  88.016  68.943  1.00  0.00     0.000 C 
BRANCH  19  20
ATOM     20  C   UNL     1      73.701  86.500  68.734  1.00  0.00     0.000 C 
BRANCH  20  21
ATOM     21  C   UNL     1      74.536  85.568  69.656  1.00  0.00     0.003 C 
BRANCH  21  22
ATOM     22  C   UNL     1      75.619  84.720  68.914  1.00  0.00    -0.017 C 
ATOM     23  C   UNL     1      77.006  85.417  68.996  1.00  0.00     0.007 C 
ATOM     24  C   UNL     1      75.257  84.398  67.434  1.00  0.00     0.007 C 
ENDBRANCH  21  22
ENDBRANCH  20  21
ENDBRANCH  19  20
ENDBRANCH  18  19
ENDBRANCH   1  18
TORSDOF 11
ENDMDL
MODEL 10
REMARK VINA RESULT:    -5.292     19.645     22.471
REMARK INTER + INTRA:          -9.187
REMARK INTER:                  -7.157
REMARK INTRA:                  -2.030
REMARK UNBOUND:                -0.646
REMARK SMILES COc1cc(CNC(=O)CCCCCCC(C)C)ccc1O
REMARK SMILES IDX 11 1 10 2 8 3 7 4 9 6 6 7 5 8 3 9 21 10 4 11 20 12 19 13
REMARK SMILES IDX 2 14 1 15 22 16 12 18 13 19 14 20 15 21 16 22 17 23 18 24
REMARK H PARENT 7 5 22 17
REMARK Flexibility Score: inf
ROOT
ATOM      1  C   UNL     1      73.638  88.799  67.308  1.00  0.00     0.010 C 
ENDROOT
BRANCH   1   2
ATOM      2  C   UNL     1      74.220  89.401  65.999  1.00  0.00     0.100 C 
BRANCH   2   3
ATOM      3  C   UNL     1      74.377  88.405  64.916  1.00  0.00     0.220 C 
ATOM      4  N   UNL     1      73.504  87.362  64.808  1.00  0.00    -0.352 N 
ATOM      5  H   UNL     1      72.805  87.320  65.535  1.00  0.00     0.163 HD
ATOM      6  O   UNL     1      75.311  88.555  64.091  1.00  0.00    -0.275 OA
BRANCH   4   7
ATOM      7  C   UNL     1      73.522  86.373  63.772  1.00  0.00     0.151 C 
BRANCH   7   8
ATOM      8  C   UNL     1      74.288  85.151  64.141  1.00  0.00    -0.025 A 
ATOM      9  C   UNL     1      74.344  82.863  65.039  1.00  0.00     0.160 A 
ATOM     10  C   UNL     1      75.735  82.802  64.805  1.00  0.00     0.157 A 
ATOM     11  C   UNL     1      73.636  84.041  64.723  1.00  0.00     0.056 A 
ATOM     12  C   UNL     1      76.402  83.915  64.262  1.00  0.00     0.050 A 
ATOM     13  C   UNL     1      75.684  85.078  63.922  1.00  0.00     0.009 A 
BRANCH   9  14
ATOM     14  O   UNL     1      73.691  81.800  65.603  1.00  0.00    -0.493 OA
ATOM     15  C   UNL     1      72.400  81.539  65.024  1.00  0.00     0.278 C 
ENDBRANCH   9  14
BRANCH  10  16
ATOM     16  O   UNL     1      76.443  81.680  65.100  1.00  0.00    -0.504 OA
ATOM     17  H   UNL     1      76.646  81.208  64.290  1.00  0.00     0.293 HD
ENDBRANCH  10  16
ENDBRANCH   7   8
ENDBRANCH   4   7
ENDBRANCH   2   3
ENDBRANCH   1   2
BRANCH   1  18
ATOM     18  C   UNL     1      74.747  88.484  68.352  1.00  0.00     0.001 C 
BRANCH  18  19
ATOM     19  C   UNL     1      76.162  88.973  67.931  1.00  0.00     0.000 C 
BRANCH  19  20
ATOM     20  C   UNL     1      77.158  87.788  67.792  1.00  0.00     0.000 C 
BRANCH  20  21
ATOM     21  C   UNL     1      76.597  86.573  67.002  1.00  0.00     0.003 C 
BRANCH  21  22
ATOM     22  C   UNL     1      76.434  85.267  67.847  1.00  0.00    -0.017 C 
ATOM     23  C   UNL     1      74.941  84.837  67.900  1.00  0.00     0.007 C 
ATOM     24  C   UNL     1      77.021  85.376  69.285  1.00  0.00     0.007 C 
ENDBRANCH  21  22
ENDBRANCH  20  21
ENDBRANCH  19  20
ENDBRANCH  18  19
ENDBRANCH   1  18
TORSDOF 11
ENDMDL
