MODEL 1
REMARK VINA RESULT:    -7.820      0.000      0.000
REMARK INTER + INTRA:         -13.879
REMARK INTER:                 -13.306
REMARK INTRA:                  -0.572
REMARK UNBOUND:                -0.572
REMARK SMILES C=C(C)[C@]12C[C@@H](C)[C@@]34O[C@](Cc5ccccc5)(O[C@@H]1[C@@H]3C=C(COC(=O)Cc1ccc(O)cc1)C[C@]1(O)C(=O)C(C)=C[C@@H]41)O2
REMARK SMILES IDX 23 1 22 2 21 3 20 4 9 5 8 6 10 7 6 8 18 10 44 11 19 12 5 13
REMARK SMILES IDX 7 14 4 15 11 16 12 17 13 18 17 19 14 20 16 21 15 22 2 23
REMARK SMILES IDX 3 24 1 25 35 26 36 27 43 28 38 29 42 30 39 32 40 33 41 34
REMARK SMILES IDX 37 35 24 37 25 38 26 39 27 40 28 41 29 42 34 43 30 44 33 45
REMARK SMILES IDX 31 46 32 47
REMARK H PARENT 37 36 32 48
REMARK Flexibility Score: 90.00
ROOT
ATOM      1  C   UNL     1      95.223  97.263  73.226  1.00  0.00     0.264 C 
ENDROOT
BRANCH   1   2
ATOM      2  C   UNL     1      94.997  98.714  72.869  1.00  0.00    -0.033 C 
ATOM      3  C   UNL     1      94.412  99.020  71.692  1.00  0.00    -0.015 C 
BRANCH   3   4
ATOM      4  C   UNL     1      94.144 100.382  71.072  1.00  0.00     0.078 C 
ATOM      5  O   UNL     1      91.853 101.037  71.733  1.00  0.00    -0.319 OA
ATOM      6  C   UNL     1      93.260 101.408  71.872  1.00  0.00     0.095 CG0
ATOM      7  C   UNL     1      91.450 100.641  70.408  1.00  0.00     0.289 C 
ATOM      8  C   UNL     1      93.490 102.839  71.234  1.00  0.00     0.023 C 
ATOM      9  G   UNL     1      93.539 101.305  73.400  1.00  0.00     0.000 G0
ATOM     10  O   UNL     1      92.226  99.543  69.937  1.00  0.00    -0.320 OA
ATOM     11  O   UNL     1      91.634 101.681  69.451  1.00  0.00    -0.313 OA
ATOM     12  C   UNL     1      93.475 100.207  69.687  1.00  0.00     0.170 C 
ATOM     13  C   UNL     1      93.747 102.747  69.698  1.00  0.00     0.049 C 
ATOM     14  C   UNL     1      92.380 103.870  71.503  1.00  0.00     0.011 C 
ATOM     15  C   UNL     1      93.020 101.554  69.074  1.00  0.00     0.122 C 
BRANCH   7  16
ATOM     16  C   UNL     1      89.985 100.251  70.454  1.00  0.00     0.135 C 
BRANCH  16  17
ATOM     17  C   UNL     1      89.518  99.649  69.152  1.00  0.00    -0.040 A 
ATOM     18  C   UNL     1      89.709  98.290  68.904  1.00  0.00     0.004 A 
ATOM     19  C   UNL     1      88.895 100.452  68.198  1.00  0.00     0.004 A 
ATOM     20  C   UNL     1      89.276  97.733  67.700  1.00  0.00     0.000 A 
ATOM     21  C   UNL     1      88.462  99.896  66.994  1.00  0.00     0.000 A 
ATOM     22  C   UNL     1      88.653  98.537  66.745  1.00  0.00     0.000 A 
ENDBRANCH  16  17
ENDBRANCH   7  16
BRANCH  15  23
ATOM     23  C   UNL     1      93.103 101.549  67.582  1.00  0.00    -0.046 C 
ATOM     24  C   UNL     1      94.420 101.958  66.991  1.00  0.00     0.042 C 
ATOM     25  C   UNL     1      92.061 101.200  66.815  1.00  0.00     0.010 C 
ENDBRANCH  15  23
ENDBRANCH   3   4
BRANCH   2  26
ATOM     26  C   UNL     1      95.476  99.674  73.942  1.00  0.00     0.078 C 
BRANCH  26  27
ATOM     27  C   UNL     1      95.070 101.139  73.800  1.00  0.00     0.140 C 
ATOM     28  C   UNL     1      93.585 101.298  73.411  1.00  0.00     0.086 CG0
ATOM     29  C   UNL     1      95.144 101.891  75.112  1.00  0.00     0.190 C 
ATOM     30  C   UNL     1      93.092 102.371  74.341  1.00  0.00    -0.010 C 
ATOM     31  G   UNL     1      93.284 101.411  71.888  1.00  0.00     0.000 G0
ATOM     32  O   UNL     1      96.093 101.879  75.882  1.00  0.00    -0.291 OA
ATOM     33  C   UNL     1      93.933 102.706  75.324  1.00  0.00    -0.008 C 
ATOM     34  C   UNL     1      93.754 103.646  76.451  1.00  0.00     0.048 C 
BRANCH  27  35
ATOM     35  O   UNL     1      95.962 101.845  72.954  1.00  0.00    -0.381 OA
ATOM     36  H   UNL     1      96.281 102.630  73.431  1.00  0.00     0.212 HD
ENDBRANCH  27  35
ENDBRANCH  26  27
ENDBRANCH   2  26
ENDBRANCH   1   2
BRANCH   1  37
ATOM     37  O   UNL     1      94.054  96.741  73.820  1.00  0.00    -0.461 OA
BRANCH  37  38
ATOM     38  C   UNL     1      94.238  95.741  74.746  1.00  0.00     0.310 C 
ATOM     39  O   UNL     1      94.797  94.675  74.528  1.00  0.00    -0.252 OA
BRANCH  38  40
ATOM     40  C   UNL     1      93.644  96.164  76.069  1.00  0.00     0.158 C 
BRANCH  40  41
ATOM     41  C   UNL     1      92.769  95.104  76.685  1.00  0.00    -0.037 A 
ATOM     42  C   UNL     1      91.471  94.910  76.212  1.00  0.00     0.008 A 
ATOM     43  C   UNL     1      93.254  94.318  77.730  1.00  0.00     0.008 A 
ATOM     44  C   UNL     1      90.659  93.930  76.784  1.00  0.00     0.046 A 
ATOM     45  C   UNL     1      92.443  93.337  78.301  1.00  0.00     0.046 A 
ATOM     46  C   UNL     1      91.146  93.143  77.829  1.00  0.00     0.115 A 
BRANCH  46  47
ATOM     47  O   UNL     1      90.354  92.187  78.386  1.00  0.00    -0.508 OA
ATOM     48  H   UNL     1      90.144  92.445  79.301  1.00  0.00     0.293 HD
ENDBRANCH  46  47
ENDBRANCH  40  41
ENDBRANCH  38  40
ENDBRANCH  37  38
ENDBRANCH   1  37
TORSDOF 10
ENDMDL
MODEL 2
REMARK VINA RESULT:    -7.366     23.307     27.397
REMARK INTER + INTRA:         -13.106
REMARK INTER:                 -12.186
REMARK INTRA:                  -0.920
REMARK UNBOUND:                -0.572
REMARK SMILES C=C(C)[C@]12C[C@@H](C)[C@@]34O[C@](Cc5ccccc5)(O[C@@H]1[C@@H]3C=C(COC(=O)Cc1ccc(O)cc1)C[C@]1(O)C(=O)C(C)=C[C@@H]41)O2
REMARK SMILES IDX 23 1 22 2 21 3 20 4 9 5 8 6 10 7 6 8 18 10 44 11 19 12 5 13
REMARK SMILES IDX 7 14 4 15 11 16 12 17 13 18 17 19 14 20 16 21 15 22 2 23
REMARK SMILES IDX 3 24 1 25 35 26 36 27 43 28 38 29 42 30 39 32 40 33 41 34
REMARK SMILES IDX 37 35 24 37 25 38 26 39 27 40 28 41 29 42 34 43 30 44 33 45
REMARK SMILES IDX 31 46 32 47
REMARK H PARENT 37 36 32 48
REMARK Flexibility Score: 90.00
ROOT
ATOM      1  C   UNL     1      69.138  84.601  70.157  1.00  0.00     0.264 C 
ENDROOT
BRANCH   1   2
ATOM      2  C   UNL     1      69.738  85.295  68.956  1.00  0.00    -0.033 C 
ATOM      3  C   UNL     1      71.024  85.701  69.004  1.00  0.00    -0.015 C 
BRANCH   3   4
ATOM      4  C   UNL     1      71.830  86.478  67.975  1.00  0.00     0.078 C 
ATOM      5  O   UNL     1      73.031  84.814  66.595  1.00  0.00    -0.319 OA
ATOM      6  C   UNL     1      72.008  85.858  66.541  1.00  0.00     0.095 CG0
ATOM      7  C   UNL     1      74.198  85.137  67.375  1.00  0.00     0.289 C 
ATOM      8  C   UNL     1      72.493  87.016  65.575  1.00  0.00     0.023 C 
ATOM      9  G   UNL     1      70.716  85.112  66.096  1.00  0.00     0.000 G0
ATOM     10  O   UNL     1      73.851  85.460  68.718  1.00  0.00    -0.320 OA
ATOM     11  O   UNL     1      74.889  86.278  66.871  1.00  0.00    -0.313 OA
ATOM     12  C   UNL     1      73.254  86.751  68.520  1.00  0.00     0.170 C 
ATOM     13  C   UNL     1      73.394  88.046  66.323  1.00  0.00     0.049 C 
ATOM     14  C   UNL     1      73.205  86.553  64.292  1.00  0.00     0.011 C 
ATOM     15  C   UNL     1      74.182  87.390  67.458  1.00  0.00     0.122 C 
BRANCH   7  16
ATOM     16  C   UNL     1      75.126  83.938  67.359  1.00  0.00     0.135 C 
BRANCH  16  17
ATOM     17  C   UNL     1      75.079  83.204  66.042  1.00  0.00    -0.040 A 
ATOM     18  C   UNL     1      75.732  83.728  64.927  1.00  0.00     0.004 A 
ATOM     19  C   UNL     1      74.383  82.000  65.941  1.00  0.00     0.004 A 
ATOM     20  C   UNL     1      75.690  83.048  63.709  1.00  0.00     0.000 A 
ATOM     21  C   UNL     1      74.340  81.320  64.723  1.00  0.00     0.000 A 
ATOM     22  C   UNL     1      74.993  81.844  63.608  1.00  0.00     0.000 A 
ENDBRANCH  16  17
ENDBRANCH   7  16
BRANCH  15  23
ATOM     23  C   UNL     1      75.183  88.314  68.070  1.00  0.00    -0.046 C 
ATOM     24  C   UNL     1      74.632  89.409  68.933  1.00  0.00     0.042 C 
ATOM     25  C   UNL     1      76.500  88.172  67.859  1.00  0.00     0.010 C 
ENDBRANCH  15  23
ENDBRANCH   3   4
BRANCH   2  26
ATOM     26  C   UNL     1      68.763  85.440  67.803  1.00  0.00     0.078 C 
BRANCH  26  27
ATOM     27  C   UNL     1      69.344  85.821  66.442  1.00  0.00     0.140 C 
ATOM     28  C   UNL     1      70.680  85.104  66.156  1.00  0.00     0.086 CG0
ATOM     29  C   UNL     1      68.475  85.359  65.291  1.00  0.00     0.190 C 
ATOM     30  C   UNL     1      70.519  84.613  64.744  1.00  0.00    -0.010 C 
ATOM     31  G   UNL     1      71.971  85.877  66.553  1.00  0.00     0.000 G0
ATOM     32  O   UNL     1      67.268  85.531  65.202  1.00  0.00    -0.291 OA
ATOM     33  C   UNL     1      69.286  84.716  64.240  1.00  0.00    -0.008 C 
ATOM     34  C   UNL     1      68.750  84.268  62.938  1.00  0.00     0.048 C 
BRANCH  27  35
ATOM     35  O   UNL     1      69.402  87.228  66.279  1.00  0.00    -0.381 OA
ATOM     36  H   UNL     1      70.326  87.478  66.109  1.00  0.00     0.212 HD
ENDBRANCH  27  35
ENDBRANCH  26  27
ENDBRANCH   2  26
ENDBRANCH   1   2
BRANCH   1  37
ATOM     37  O   UNL     1      68.888  85.552  71.169  1.00  0.00    -0.461 OA
BRANCH  37  38
ATOM     38  C   UNL     1      67.700  85.417  71.851  1.00  0.00     0.310 C 
ATOM     39  O   UNL     1      67.596  85.301  73.064  1.00  0.00    -0.252 OA
BRANCH  38  40
ATOM     40  C   UNL     1      66.552  85.433  70.871  1.00  0.00     0.158 C 
BRANCH  40  41
ATOM     41  C   UNL     1      65.550  84.336  71.121  1.00  0.00    -0.037 A 
ATOM     42  C   UNL     1      65.712  83.090  70.514  1.00  0.00     0.008 A 
ATOM     43  C   UNL     1      64.460  84.565  71.960  1.00  0.00     0.008 A 
ATOM     44  C   UNL     1      64.784  82.075  70.745  1.00  0.00     0.046 A 
ATOM     45  C   UNL     1      63.531  83.549  72.192  1.00  0.00     0.046 A 
ATOM     46  C   UNL     1      63.693  82.305  71.584  1.00  0.00     0.115 A 
BRANCH  46  47
ATOM     47  O   UNL     1      62.788  81.314  71.809  1.00  0.00    -0.508 OA
ATOM     48  H   UNL     1      61.891  81.678  71.708  1.00  0.00     0.293 HD
ENDBRANCH  46  47
ENDBRANCH  40  41
ENDBRANCH  38  40
ENDBRANCH  37  38
ENDBRANCH   1  37
TORSDOF 10
ENDMDL
MODEL 3
REMARK VINA RESULT:    -6.961      6.136      9.655
REMARK INTER + INTRA:         -12.416
REMARK INTER:                 -11.748
REMARK INTRA:                  -0.668
REMARK UNBOUND:                -0.572
REMARK SMILES C=C(C)[C@]12C[C@@H](C)[C@@]34O[C@](Cc5ccccc5)(O[C@@H]1[C@@H]3C=C(COC(=O)Cc1ccc(O)cc1)C[C@]1(O)C(=O)C(C)=C[C@@H]41)O2
REMARK SMILES IDX 23 1 22 2 21 3 20 4 9 5 8 6 10 7 6 8 18 10 44 11 19 12 5 13
REMARK SMILES IDX 7 14 4 15 11 16 12 17 13 18 17 19 14 20 16 21 15 22 2 23
REMARK SMILES IDX 3 24 1 25 35 26 36 27 43 28 38 29 42 30 39 32 40 33 41 34
REMARK SMILES IDX 37 35 24 37 25 38 26 39 27 40 28 41 29 42 34 43 30 44 33 45
REMARK SMILES IDX 31 46 32 47
REMARK H PARENT 37 36 32 48
REMARK Flexibility Score: 90.00
ROOT
ATOM      1  C   UNL     1      95.774  96.519  73.865  1.00  0.00     0.264 C 
ENDROOT
BRANCH   1   2
ATOM      2  C   UNL     1      96.992  97.150  74.500  1.00  0.00    -0.033 C 
ATOM      3  C   UNL     1      97.006  97.359  75.833  1.00  0.00    -0.015 C 
BRANCH   3   4
ATOM      4  C   UNL     1      98.062  98.036  76.692  1.00  0.00     0.078 C 
ATOM      5  O   UNL     1      99.598  96.264  77.477  1.00  0.00    -0.319 OA
ATOM      6  C   UNL     1      99.530  97.472  76.657  1.00  0.00     0.095 CG0
ATOM      7  C   UNL     1      98.898  96.334  78.735  1.00  0.00     0.289 C 
ATOM      8  C   UNL     1     100.483  98.577  77.274  1.00  0.00     0.023 C 
ATOM      9  G   UNL     1      99.904  96.990  75.225  1.00  0.00     0.000 G0
ATOM     10  O   UNL     1      97.520  96.640  78.544  1.00  0.00    -0.320 OA
ATOM     11  O   UNL     1      99.408  97.361  79.582  1.00  0.00    -0.313 OA
ATOM     12  C   UNL     1      97.619  98.025  78.176  1.00  0.00     0.170 C 
ATOM     13  C   UNL     1      99.766  99.391  78.394  1.00  0.00     0.049 C 
ATOM     14  C   UNL     1     101.835  98.065  77.801  1.00  0.00     0.011 C 
ATOM     15  C   UNL     1      98.723  98.547  79.128  1.00  0.00     0.122 C 
BRANCH   7  16
ATOM     16  C   UNL     1      99.035  94.993  79.429  1.00  0.00     0.135 C 
BRANCH  16  17
ATOM     17  C   UNL     1      97.694  94.359  79.703  1.00  0.00    -0.040 A 
ATOM     18  C   UNL     1      97.177  94.354  80.998  1.00  0.00     0.004 A 
ATOM     19  C   UNL     1      96.973  93.777  78.661  1.00  0.00     0.004 A 
ATOM     20  C   UNL     1      95.936  93.767  81.252  1.00  0.00     0.000 A 
ATOM     21  C   UNL     1      95.732  93.191  78.915  1.00  0.00     0.000 A 
ATOM     22  C   UNL     1      95.215  93.186  80.209  1.00  0.00     0.000 A 
ENDBRANCH  16  17
ENDBRANCH   7  16
BRANCH  15  23
ATOM     23  C   UNL     1      98.154  99.246  80.319  1.00  0.00    -0.046 C 
ATOM     24  C   UNL     1      98.700  98.833  81.653  1.00  0.00     0.042 C 
ATOM     25  C   UNL     1      97.207 100.189  80.202  1.00  0.00     0.010 C 
ENDBRANCH  15  23
ENDBRANCH   3   4
BRANCH   2  26
ATOM     26  C   UNL     1      98.087  97.470  73.500  1.00  0.00     0.078 C 
BRANCH  26  27
ATOM     27  C   UNL     1      99.440  97.901  74.061  1.00  0.00     0.140 C 
ATOM     28  C   UNL     1      99.903  97.000  75.225  1.00  0.00     0.086 CG0
ATOM     29  C   UNL     1     100.563  97.737  73.058  1.00  0.00     0.190 C 
ATOM     30  C   UNL     1     101.342  96.714  74.896  1.00  0.00    -0.010 C 
ATOM     31  G   UNL     1      99.528  97.483  76.656  1.00  0.00     0.000 G0
ATOM     32  O   UNL     1     100.540  98.127  71.900  1.00  0.00    -0.291 OA
ATOM     33  C   UNL     1     101.736  97.090  73.676  1.00  0.00    -0.008 C 
ATOM     34  C   UNL     1     103.032  96.899  72.993  1.00  0.00     0.048 C 
BRANCH  27  35
ATOM     35  O   UNL     1      99.459  99.285  74.366  1.00  0.00    -0.381 OA
ATOM     36  H   UNL     1      98.573  99.648  74.197  1.00  0.00     0.212 HD
ENDBRANCH  27  35
ENDBRANCH  26  27
ENDBRANCH   2  26
ENDBRANCH   1   2
BRANCH   1  37
ATOM     37  O   UNL     1      94.638  96.801  74.653  1.00  0.00    -0.461 OA
BRANCH  37  38
ATOM     38  C   UNL     1      93.938  95.713  75.122  1.00  0.00     0.310 C 
ATOM     39  O   UNL     1      94.114  94.557  74.763  1.00  0.00    -0.252 OA
BRANCH  38  40
ATOM     40  C   UNL     1      92.926  96.168  76.146  1.00  0.00     0.158 C 
BRANCH  40  41
ATOM     41  C   UNL     1      92.141  95.029  76.743  1.00  0.00    -0.037 A 
ATOM     42  C   UNL     1      92.745  94.172  77.663  1.00  0.00     0.008 A 
ATOM     43  C   UNL     1      90.810  94.830  76.376  1.00  0.00     0.008 A 
ATOM     44  C   UNL     1      92.019  93.116  78.215  1.00  0.00     0.046 A 
ATOM     45  C   UNL     1      90.083  93.775  76.928  1.00  0.00     0.046 A 
ATOM     46  C   UNL     1      90.687  92.918  77.847  1.00  0.00     0.115 A 
BRANCH  46  47
ATOM     47  O   UNL     1      89.979  91.889  78.386  1.00  0.00    -0.508 OA
ATOM     48  H   UNL     1      89.949  91.157  77.745  1.00  0.00     0.293 HD
ENDBRANCH  46  47
ENDBRANCH  40  41
ENDBRANCH  38  40
ENDBRANCH  37  38
ENDBRANCH   1  37
TORSDOF 10
ENDMDL
MODEL 4
REMARK VINA RESULT:    -6.887     21.837     25.859
REMARK INTER + INTRA:         -12.290
REMARK INTER:                 -10.327
REMARK INTRA:                  -1.963
REMARK UNBOUND:                -0.572
REMARK SMILES C=C(C)[C@]12C[C@@H](C)[C@@]34O[C@](Cc5ccccc5)(O[C@@H]1[C@@H]3C=C(COC(=O)Cc1ccc(O)cc1)C[C@]1(O)C(=O)C(C)=C[C@@H]41)O2
REMARK SMILES IDX 23 1 22 2 21 3 20 4 9 5 8 6 10 7 6 8 18 10 44 11 19 12 5 13
REMARK SMILES IDX 7 14 4 15 11 16 12 17 13 18 17 19 14 20 16 21 15 22 2 23
REMARK SMILES IDX 3 24 1 25 35 26 36 27 43 28 38 29 42 30 39 32 40 33 41 34
REMARK SMILES IDX 37 35 24 37 25 38 26 39 27 40 28 41 29 42 34 43 30 44 33 45
REMARK SMILES IDX 31 46 32 47
REMARK H PARENT 37 36 32 48
REMARK Flexibility Score: 90.00
ROOT
ATOM      1  C   UNL     1      74.619  85.552  69.425  1.00  0.00     0.264 C 
ENDROOT
BRANCH   1   2
ATOM      2  C   UNL     1      73.474  86.384  68.896  1.00  0.00    -0.033 C 
ATOM      3  C   UNL     1      72.288  85.791  68.648  1.00  0.00    -0.015 C 
BRANCH   3   4
ATOM      4  C   UNL     1      71.020  86.381  68.051  1.00  0.00     0.078 C 
ATOM      5  O   UNL     1      69.606  87.114  69.942  1.00  0.00    -0.319 OA
ATOM      6  C   UNL     1      70.347  87.601  68.780  1.00  0.00     0.095 CG0
ATOM      7  C   UNL     1      68.842  85.912  69.725  1.00  0.00     0.289 C 
ATOM      8  C   UNL     1      69.337  88.272  67.759  1.00  0.00     0.023 C 
ATOM      9  G   UNL     1      71.424  88.552  69.377  1.00  0.00     0.000 G0
ATOM     10  O   UNL     1      69.672  84.845  69.274  1.00  0.00    -0.320 OA
ATOM     11  O   UNL     1      67.845  86.077  68.719  1.00  0.00    -0.313 OA
ATOM     12  C   UNL     1      69.935  85.283  67.932  1.00  0.00     0.170 C 
ATOM     13  C   UNL     1      68.696  87.214  66.810  1.00  0.00     0.049 C 
ATOM     14  C   UNL     1      68.227  89.127  68.392  1.00  0.00     0.011 C 
ATOM     15  C   UNL     1      68.564  85.850  67.489  1.00  0.00     0.122 C 
BRANCH   7  16
ATOM     16  C   UNL     1      68.179  85.529  71.033  1.00  0.00     0.135 C 
BRANCH  16  17
ATOM     17  C   UNL     1      66.770  85.028  70.830  1.00  0.00    -0.040 A 
ATOM     18  C   UNL     1      66.547  83.823  70.165  1.00  0.00     0.004 A 
ATOM     19  C   UNL     1      65.692  85.772  71.307  1.00  0.00     0.004 A 
ATOM     20  C   UNL     1      65.244  83.360  69.977  1.00  0.00     0.000 A 
ATOM     21  C   UNL     1      64.389  85.310  71.119  1.00  0.00     0.000 A 
ATOM     22  C   UNL     1      64.166  84.105  70.454  1.00  0.00     0.000 A 
ENDBRANCH  16  17
ENDBRANCH   7  16
BRANCH  15  23
ATOM     23  C   UNL     1      67.791  84.872  66.666  1.00  0.00    -0.046 C 
ATOM     24  C   UNL     1      66.332  85.168  66.484  1.00  0.00     0.042 C 
ATOM     25  C   UNL     1      68.368  83.790  66.122  1.00  0.00     0.010 C 
ENDBRANCH  15  23
ENDBRANCH   3   4
BRANCH   2  26
ATOM     26  C   UNL     1      73.834  87.847  68.716  1.00  0.00     0.078 C 
BRANCH  26  27
ATOM     27  C   UNL     1      72.685  88.825  68.479  1.00  0.00     0.140 C 
ATOM     28  C   UNL     1      71.469  88.526  69.380  1.00  0.00     0.086 CG0
ATOM     29  C   UNL     1      73.040  90.243  68.872  1.00  0.00     0.190 C 
ATOM     30  C   UNL     1      71.084  89.879  69.909  1.00  0.00    -0.010 C 
ATOM     31  G   UNL     1      70.373  87.604  68.769  1.00  0.00     0.000 G0
ATOM     32  O   UNL     1      74.057  90.835  68.544  1.00  0.00    -0.291 OA
ATOM     33  C   UNL     1      71.959  90.859  69.664  1.00  0.00    -0.008 C 
ATOM     34  C   UNL     1      71.950  92.272  70.096  1.00  0.00     0.048 C 
BRANCH  27  35
ATOM     35  O   UNL     1      72.366  88.925  67.101  1.00  0.00    -0.381 OA
ATOM     36  H   UNL     1      72.747  89.751  66.757  1.00  0.00     0.212 HD
ENDBRANCH  27  35
ENDBRANCH  26  27
ENDBRANCH   2  26
ENDBRANCH   1   2
BRANCH   1  37
ATOM     37  O   UNL     1      75.366  85.043  68.341  1.00  0.00    -0.461 OA
BRANCH  37  38
ATOM     38  C   UNL     1      76.728  85.227  68.401  1.00  0.00     0.310 C 
ATOM     39  O   UNL     1      77.416  85.058  69.398  1.00  0.00    -0.252 OA
BRANCH  38  40
ATOM     40  C   UNL     1      77.237  85.668  67.050  1.00  0.00     0.158 C 
BRANCH  40  41
ATOM     41  C   UNL     1      76.721  87.023  66.641  1.00  0.00    -0.037 A 
ATOM     42  C   UNL     1      77.198  88.172  67.273  1.00  0.00     0.008 A 
ATOM     43  C   UNL     1      75.765  87.130  65.631  1.00  0.00     0.008 A 
ATOM     44  C   UNL     1      76.719  89.426  66.895  1.00  0.00     0.046 A 
ATOM     45  C   UNL     1      75.286  88.385  65.252  1.00  0.00     0.046 A 
ATOM     46  C   UNL     1      75.763  89.532  65.884  1.00  0.00     0.115 A 
BRANCH  46  47
ATOM     47  O   UNL     1      75.296  90.756  65.516  1.00  0.00    -0.508 OA
ATOM     48  H   UNL     1      74.987  91.228  66.309  1.00  0.00     0.293 HD
ENDBRANCH  46  47
ENDBRANCH  40  41
ENDBRANCH  38  40
ENDBRANCH  37  38
ENDBRANCH   1  37
TORSDOF 10
ENDMDL
MODEL 5
REMARK VINA RESULT:    -6.815     17.930     21.105
REMARK INTER + INTRA:         -12.169
REMARK INTER:                 -11.685
REMARK INTRA:                  -0.484
REMARK UNBOUND:                -0.572
REMARK SMILES C=C(C)[C@]12C[C@@H](C)[C@@]34O[C@](Cc5ccccc5)(O[C@@H]1[C@@H]3C=C(COC(=O)Cc1ccc(O)cc1)C[C@]1(O)C(=O)C(C)=C[C@@H]41)O2
REMARK SMILES IDX 23 1 22 2 21 3 20 4 9 5 8 6 10 7 6 8 18 10 44 11 19 12 5 13
REMARK SMILES IDX 7 14 4 15 11 16 12 17 13 18 17 19 14 20 16 21 15 22 2 23
REMARK SMILES IDX 3 24 1 25 35 26 36 27 43 28 38 29 42 30 39 32 40 33 41 34
REMARK SMILES IDX 37 35 24 37 25 38 26 39 27 40 28 41 29 42 34 43 30 44 33 45
REMARK SMILES IDX 31 46 32 47
REMARK H PARENT 37 36 32 48
REMARK Flexibility Score: 90.00
ROOT
ATOM      1  C   UNL     1      98.408  78.767  79.272  1.00  0.00     0.264 C 
ENDROOT
BRANCH   1   2
ATOM      2  C   UNL     1      99.200  78.652  77.991  1.00  0.00    -0.033 C 
ATOM      3  C   UNL     1      98.617  78.993  76.823  1.00  0.00    -0.015 C 
BRANCH   3   4
ATOM      4  C   UNL     1      99.165  78.898  75.407  1.00  0.00     0.078 C 
ATOM      5  O   UNL     1     100.226  81.073  74.898  1.00  0.00    -0.319 OA
ATOM      6  C   UNL     1     100.505  79.648  75.071  1.00  0.00     0.095 CG0
ATOM      7  C   UNL     1      99.038  81.379  74.143  1.00  0.00     0.289 C 
ATOM      8  C   UNL     1     101.060  79.054  73.711  1.00  0.00     0.023 C 
ATOM      9  G   UNL     1     101.489  79.590  76.276  1.00  0.00     0.000 G0
ATOM     10  O   UNL     1      97.883  80.789  74.733  1.00  0.00    -0.320 OA
ATOM     11  O   UNL     1      99.094  80.869  72.813  1.00  0.00    -0.313 OA
ATOM     12  C   UNL     1      98.107  79.410  74.399  1.00  0.00     0.170 C 
ATOM     13  C   UNL     1      99.901  78.631  72.757  1.00  0.00     0.049 C 
ATOM     14  C   UNL     1     102.045  79.957  72.948  1.00  0.00     0.011 C 
ATOM     15  C   UNL     1      98.659  79.501  72.955  1.00  0.00     0.122 C 
BRANCH   7  16
ATOM     16  C   UNL     1      98.879  82.886  74.100  1.00  0.00     0.135 C 
BRANCH  16  17
ATOM     17  C   UNL     1      99.964  83.547  73.286  1.00  0.00    -0.040 A 
ATOM     18  C   UNL     1      99.687  84.012  72.001  1.00  0.00     0.004 A 
ATOM     19  C   UNL     1     101.244  83.691  73.820  1.00  0.00     0.004 A 
ATOM     20  C   UNL     1     100.690  84.624  71.249  1.00  0.00     0.000 A 
ATOM     21  C   UNL     1     102.248  84.303  73.068  1.00  0.00     0.000 A 
ATOM     22  C   UNL     1     101.971  84.768  71.783  1.00  0.00     0.000 A 
ENDBRANCH  16  17
ENDBRANCH   7  16
BRANCH  15  23
ATOM     23  C   UNL     1      97.603  79.235  71.933  1.00  0.00    -0.046 C 
ATOM     24  C   UNL     1      98.068  78.617  70.647  1.00  0.00     0.042 C 
ATOM     25  C   UNL     1      96.313  79.531  72.151  1.00  0.00     0.010 C 
ENDBRANCH  15  23
ENDBRANCH   3   4
BRANCH   2  26
ATOM     26  C   UNL     1     100.616  78.152  78.209  1.00  0.00     0.078 C 
BRANCH  26  27
ATOM     27  C   UNL     1     101.576  78.237  77.024  1.00  0.00     0.140 C 
ATOM     28  C   UNL     1     101.465  79.583  76.278  1.00  0.00     0.086 CG0
ATOM     29  C   UNL     1     103.029  78.222  77.452  1.00  0.00     0.190 C 
ATOM     30  C   UNL     1     102.898  79.996  76.084  1.00  0.00    -0.010 C 
ATOM     31  G   UNL     1     100.490  79.616  75.065  1.00  0.00     0.000 G0
ATOM     32  O   UNL     1     103.528  77.426  78.233  1.00  0.00    -0.291 OA
ATOM     33  C   UNL     1     103.798  79.269  76.753  1.00  0.00    -0.008 C 
ATOM     34  C   UNL     1     105.262  79.434  76.863  1.00  0.00     0.048 C 
BRANCH  27  35
ATOM     35  O   UNL     1     101.461  77.104  76.180  1.00  0.00    -0.381 OA
ATOM     36  H   UNL     1     102.005  76.389  76.551  1.00  0.00     0.212 HD
ENDBRANCH  27  35
ENDBRANCH  26  27
ENDBRANCH   2  26
ENDBRANCH   1   2
BRANCH   1  37
ATOM     37  O   UNL     1      97.419  79.763  79.122  1.00  0.00    -0.461 OA
BRANCH  37  38
ATOM     38  C   UNL     1      97.745  81.017  79.586  1.00  0.00     0.310 C 
ATOM     39  O   UNL     1      97.686  82.046  78.928  1.00  0.00    -0.252 OA
BRANCH  38  40
ATOM     40  C   UNL     1      98.184  80.922  81.027  1.00  0.00     0.158 C 
BRANCH  40  41
ATOM     41  C   UNL     1      97.103  81.319  81.999  1.00  0.00    -0.037 A 
ATOM     42  C   UNL     1      96.839  82.669  82.235  1.00  0.00     0.008 A 
ATOM     43  C   UNL     1      96.367  80.339  82.662  1.00  0.00     0.008 A 
ATOM     44  C   UNL     1      95.839  83.037  83.135  1.00  0.00     0.046 A 
ATOM     45  C   UNL     1      95.366  80.706  83.562  1.00  0.00     0.046 A 
ATOM     46  C   UNL     1      95.102  82.055  83.799  1.00  0.00     0.115 A 
BRANCH  46  47
ATOM     47  O   UNL     1      94.127  82.414  84.677  1.00  0.00    -0.508 OA
ATOM     48  H   UNL     1      93.468  82.959  84.212  1.00  0.00     0.293 HD
ENDBRANCH  46  47
ENDBRANCH  40  41
ENDBRANCH  38  40
ENDBRANCH  37  38
ENDBRANCH   1  37
TORSDOF 10
ENDMDL
MODEL 6
REMARK VINA RESULT:    -6.680     30.588     34.745
REMARK INTER + INTRA:         -11.938
REMARK INTER:                 -10.476
REMARK INTRA:                  -1.462
REMARK UNBOUND:                -0.572
REMARK SMILES C=C(C)[C@]12C[C@@H](C)[C@@]34O[C@](Cc5ccccc5)(O[C@@H]1[C@@H]3C=C(COC(=O)Cc1ccc(O)cc1)C[C@]1(O)C(=O)C(C)=C[C@@H]41)O2
REMARK SMILES IDX 23 1 22 2 21 3 20 4 9 5 8 6 10 7 6 8 18 10 44 11 19 12 5 13
REMARK SMILES IDX 7 14 4 15 11 16 12 17 13 18 17 19 14 20 16 21 15 22 2 23
REMARK SMILES IDX 3 24 1 25 35 26 36 27 43 28 38 29 42 30 39 32 40 33 41 34
REMARK SMILES IDX 37 35 24 37 25 38 26 39 27 40 28 41 29 42 34 43 30 44 33 45
REMARK SMILES IDX 31 46 32 47
REMARK H PARENT 37 36 32 48
REMARK Flexibility Score: 90.00
ROOT
ATOM      1  C   UNL     1      57.409  87.131  73.213  1.00  0.00     0.264 C 
ENDROOT
BRANCH   1   2
ATOM      2  C   UNL     1      58.553  86.545  74.007  1.00  0.00    -0.033 C 
ATOM      3  C   UNL     1      59.396  85.679  73.406  1.00  0.00    -0.015 C 
BRANCH   3   4
ATOM      4  C   UNL     1      60.563  84.903  73.995  1.00  0.00     0.078 C 
ATOM      5  O   UNL     1      62.596  86.260  73.619  1.00  0.00    -0.319 OA
ATOM      6  C   UNL     1      61.737  85.708  74.665  1.00  0.00     0.095 CG0
ATOM      7  C   UNL     1      62.886  85.368  72.526  1.00  0.00     0.289 C 
ATOM      8  C   UNL     1      62.573  84.692  75.547  1.00  0.00     0.023 C 
ATOM      9  G   UNL     1      61.191  86.956  75.418  1.00  0.00     0.000 G0
ATOM     10  O   UNL     1      61.692  84.913  71.897  1.00  0.00    -0.320 OA
ATOM     11  O   UNL     1      63.568  84.191  72.954  1.00  0.00    -0.313 OA
ATOM     12  C   UNL     1      61.205  84.011  72.904  1.00  0.00     0.170 C 
ATOM     13  C   UNL     1      62.590  83.266  74.916  1.00  0.00     0.049 C 
ATOM     14  C   UNL     1      64.014  85.125  75.867  1.00  0.00     0.011 C 
ATOM     15  C   UNL     1      62.503  83.321  73.390  1.00  0.00     0.122 C 
BRANCH   7  16
ATOM     16  C   UNL     1      63.745  86.111  71.522  1.00  0.00     0.135 C 
BRANCH  16  17
ATOM     17  C   UNL     1      65.206  85.761  71.656  1.00  0.00    -0.040 A 
ATOM     18  C   UNL     1      65.944  86.251  72.733  1.00  0.00     0.004 A 
ATOM     19  C   UNL     1      65.817  84.946  70.703  1.00  0.00     0.004 A 
ATOM     20  C   UNL     1      67.296  85.926  72.857  1.00  0.00     0.000 A 
ATOM     21  C   UNL     1      67.168  84.622  70.828  1.00  0.00     0.000 A 
ATOM     22  C   UNL     1      67.907  85.112  71.904  1.00  0.00     0.000 A 
ENDBRANCH  16  17
ENDBRANCH   7  16
BRANCH  15  23
ATOM     23  C   UNL     1      62.700  81.983  72.756  1.00  0.00    -0.046 C 
ATOM     24  C   UNL     1      61.625  80.967  73.008  1.00  0.00     0.042 C 
ATOM     25  C   UNL     1      63.775  81.705  72.004  1.00  0.00     0.010 C 
ENDBRANCH  15  23
ENDBRANCH   3   4
BRANCH   2  26
ATOM     26  C   UNL     1      58.602  87.042  75.439  1.00  0.00     0.078 C 
BRANCH  26  27
ATOM     27  C   UNL     1      59.857  86.721  76.247  1.00  0.00     0.140 C 
ATOM     28  C   UNL     1      61.149  86.956  75.437  1.00  0.00     0.086 CG0
ATOM     29  C   UNL     1      60.041  87.651  77.428  1.00  0.00     0.190 C 
ATOM     30  C   UNL     1      62.031  87.707  76.394  1.00  0.00    -0.010 C 
ATOM     31  G   UNL     1      61.720  85.719  74.683  1.00  0.00     0.000 G0
ATOM     32  O   UNL     1      59.179  87.936  78.245  1.00  0.00    -0.291 OA
ATOM     33  C   UNL     1      61.432  88.136  77.509  1.00  0.00    -0.008 C 
ATOM     34  C   UNL     1      61.958  88.962  78.615  1.00  0.00     0.048 C 
BRANCH  27  35
ATOM     35  O   UNL     1      59.778  85.435  76.839  1.00  0.00    -0.381 OA
ATOM     36  H   UNL     1      59.376  84.826  76.197  1.00  0.00     0.212 HD
ENDBRANCH  27  35
ENDBRANCH  26  27
ENDBRANCH   2  26
ENDBRANCH   1   2
BRANCH   1  37
ATOM     37  O   UNL     1      57.894  88.174  72.395  1.00  0.00    -0.461 OA
BRANCH  37  38
ATOM     38  C   UNL     1      57.827  87.962  71.037  1.00  0.00     0.310 C 
ATOM     39  O   UNL     1      56.826  87.604  70.431  1.00  0.00    -0.252 OA
BRANCH  38  40
ATOM     40  C   UNL     1      59.175  88.239  70.416  1.00  0.00     0.158 C 
BRANCH  40  41
ATOM     41  C   UNL     1      59.819  87.007  69.835  1.00  0.00    -0.037 A 
ATOM     42  C   UNL     1      59.181  85.770  69.942  1.00  0.00     0.008 A 
ATOM     43  C   UNL     1      61.052  87.101  69.191  1.00  0.00     0.008 A 
ATOM     44  C   UNL     1      59.778  84.629  69.405  1.00  0.00     0.046 A 
ATOM     45  C   UNL     1      61.648  85.960  68.653  1.00  0.00     0.046 A 
ATOM     46  C   UNL     1      61.012  84.725  68.760  1.00  0.00     0.115 A 
BRANCH  46  47
ATOM     47  O   UNL     1      61.594  83.611  68.237  1.00  0.00    -0.508 OA
ATOM     48  H   UNL     1      62.096  83.159  68.936  1.00  0.00     0.293 HD
ENDBRANCH  46  47
ENDBRANCH  40  41
ENDBRANCH  38  40
ENDBRANCH  37  38
ENDBRANCH   1  37
TORSDOF 10
ENDMDL
MODEL 7
REMARK VINA RESULT:    -6.626     17.653     21.424
REMARK INTER + INTRA:         -11.847
REMARK INTER:                 -10.609
REMARK INTRA:                  -1.238
REMARK UNBOUND:                -0.572
REMARK SMILES C=C(C)[C@]12C[C@@H](C)[C@@]34O[C@](Cc5ccccc5)(O[C@@H]1[C@@H]3C=C(COC(=O)Cc1ccc(O)cc1)C[C@]1(O)C(=O)C(C)=C[C@@H]41)O2
REMARK SMILES IDX 23 1 22 2 21 3 20 4 9 5 8 6 10 7 6 8 18 10 44 11 19 12 5 13
REMARK SMILES IDX 7 14 4 15 11 16 12 17 13 18 17 19 14 20 16 21 15 22 2 23
REMARK SMILES IDX 3 24 1 25 35 26 36 27 43 28 38 29 42 30 39 32 40 33 41 34
REMARK SMILES IDX 37 35 24 37 25 38 26 39 27 40 28 41 29 42 34 43 30 44 33 45
REMARK SMILES IDX 31 46 32 47
REMARK H PARENT 37 36 32 48
REMARK Flexibility Score: 90.00
ROOT
ATOM      1  C   UNL     1      99.501  78.129  78.412  1.00  0.00     0.264 C 
ENDROOT
BRANCH   1   2
ATOM      2  C   UNL     1     100.255  78.102  77.103  1.00  0.00    -0.033 C 
ATOM      3  C   UNL     1      99.590  78.345  75.954  1.00  0.00    -0.015 C 
BRANCH   3   4
ATOM      4  C   UNL     1     100.093  78.303  74.520  1.00  0.00     0.078 C 
ATOM      5  O   UNL     1     100.810  80.597  73.940  1.00  0.00    -0.319 OA
ATOM      6  C   UNL     1     101.298  79.232  74.122  1.00  0.00     0.095 CG0
ATOM      7  C   UNL     1      99.563  80.715  73.228  1.00  0.00     0.289 C 
ATOM      8  C   UNL     1     101.882  78.698  72.750  1.00  0.00     0.023 C 
ATOM      9  G   UNL     1     102.323  79.339  75.289  1.00  0.00     0.000 G0
ATOM     10  O   UNL     1      98.528  79.977  73.871  1.00  0.00    -0.320 OA
ATOM     11  O   UNL     1      99.643  80.193  71.904  1.00  0.00    -0.313 OA
ATOM     12  C   UNL     1      98.936  78.638  73.547  1.00  0.00     0.170 C 
ATOM     13  C   UNL     1     100.763  78.094  71.848  1.00  0.00     0.049 C 
ATOM     14  C   UNL     1     102.698  79.717  71.936  1.00  0.00     0.011 C 
ATOM     15  C   UNL     1      99.416  78.779  72.082  1.00  0.00     0.122 C 
BRANCH   7  16
ATOM     16  C   UNL     1      99.186  82.182  73.169  1.00  0.00     0.135 C 
BRANCH  16  17
ATOM     17  C   UNL     1     100.297  83.030  72.601  1.00  0.00    -0.040 A 
ATOM     18  C   UNL     1     100.593  82.970  71.240  1.00  0.00     0.004 A 
ATOM     19  C   UNL     1     101.027  83.874  73.437  1.00  0.00     0.004 A 
ATOM     20  C   UNL     1     101.621  83.754  70.714  1.00  0.00     0.000 A 
ATOM     21  C   UNL     1     102.054  84.658  72.912  1.00  0.00     0.000 A 
ATOM     22  C   UNL     1     102.350  84.598  71.551  1.00  0.00     0.000 A 
ENDBRANCH  16  17
ENDBRANCH   7  16
BRANCH  15  23
ATOM     23  C   UNL     1      98.373  78.344  71.105  1.00  0.00    -0.046 C 
ATOM     24  C   UNL     1      97.739  77.010  71.364  1.00  0.00     0.042 C 
ATOM     25  C   UNL     1      98.024  79.102  70.055  1.00  0.00     0.010 C 
ENDBRANCH  15  23
ENDBRANCH   3   4
BRANCH   2  26
ATOM     26  C   UNL     1     101.731  77.796  77.271  1.00  0.00     0.078 C 
BRANCH  26  27
ATOM     27  C   UNL     1     102.632  78.013  76.057  1.00  0.00     0.140 C 
ATOM     28  C   UNL     1     102.306  79.326  75.316  1.00  0.00     0.086 CG0
ATOM     29  C   UNL     1     104.084  78.207  76.440  1.00  0.00     0.190 C 
ATOM     30  C   UNL     1     103.659  79.938  75.078  1.00  0.00    -0.010 C 
ATOM     31  G   UNL     1     101.300  79.215  74.134  1.00  0.00     0.000 G0
ATOM     32  O   UNL     1     104.717  77.494  77.204  1.00  0.00    -0.291 OA
ATOM     33  C   UNL     1     104.674  79.350  75.717  1.00  0.00    -0.008 C 
ATOM     34  C   UNL     1     106.102  79.723  75.781  1.00  0.00     0.048 C 
BRANCH  27  35
ATOM     35  O   UNL     1     102.653  76.871  75.217  1.00  0.00    -0.381 OA
ATOM     36  H   UNL     1     103.189  77.078  74.432  1.00  0.00     0.212 HD
ENDBRANCH  27  35
ENDBRANCH  26  27
ENDBRANCH   2  26
ENDBRANCH   1   2
BRANCH   1  37
ATOM     37  O   UNL     1      98.650  79.255  78.437  1.00  0.00    -0.461 OA
BRANCH  37  38
ATOM     38  C   UNL     1      99.094  80.337  79.163  1.00  0.00     0.310 C 
ATOM     39  O   UNL     1     100.257  80.537  79.485  1.00  0.00    -0.252 OA
BRANCH  38  40
ATOM     40  C   UNL     1      97.926  81.233  79.497  1.00  0.00     0.158 C 
BRANCH  40  41
ATOM     41  C   UNL     1      97.326  81.893  78.282  1.00  0.00    -0.037 A 
ATOM     42  C   UNL     1      96.034  82.417  78.340  1.00  0.00     0.008 A 
ATOM     43  C   UNL     1      98.061  81.982  77.101  1.00  0.00     0.008 A 
ATOM     44  C   UNL     1      95.478  83.027  77.215  1.00  0.00     0.046 A 
ATOM     45  C   UNL     1      97.506  82.593  75.976  1.00  0.00     0.046 A 
ATOM     46  C   UNL     1      96.214  83.115  76.033  1.00  0.00     0.115 A 
BRANCH  46  47
ATOM     47  O   UNL     1      95.672  83.711  74.937  1.00  0.00    -0.508 OA
ATOM     48  H   UNL     1      95.124  83.060  74.463  1.00  0.00     0.293 HD
ENDBRANCH  46  47
ENDBRANCH  40  41
ENDBRANCH  38  40
ENDBRANCH  37  38
ENDBRANCH   1  37
TORSDOF 10
ENDMDL
MODEL 8
REMARK VINA RESULT:    -6.620     23.210     27.340
REMARK INTER + INTRA:         -11.836
REMARK INTER:                 -11.603
REMARK INTRA:                  -0.233
REMARK UNBOUND:                -0.572
REMARK SMILES C=C(C)[C@]12C[C@@H](C)[C@@]34O[C@](Cc5ccccc5)(O[C@@H]1[C@@H]3C=C(COC(=O)Cc1ccc(O)cc1)C[C@]1(O)C(=O)C(C)=C[C@@H]41)O2
REMARK SMILES IDX 23 1 22 2 21 3 20 4 9 5 8 6 10 7 6 8 18 10 44 11 19 12 5 13
REMARK SMILES IDX 7 14 4 15 11 16 12 17 13 18 17 19 14 20 16 21 15 22 2 23
REMARK SMILES IDX 3 24 1 25 35 26 36 27 43 28 38 29 42 30 39 32 40 33 41 34
REMARK SMILES IDX 37 35 24 37 25 38 26 39 27 40 28 41 29 42 34 43 30 44 33 45
REMARK SMILES IDX 31 46 32 47
REMARK H PARENT 37 36 32 48
REMARK Flexibility Score: 90.00
ROOT
ATOM      1  C   UNL     1      68.813  83.857  68.645  1.00  0.00     0.264 C 
ENDROOT
BRANCH   1   2
ATOM      2  C   UNL     1      69.662  84.285  67.470  1.00  0.00    -0.033 C 
ATOM      3  C   UNL     1      69.994  85.586  67.336  1.00  0.00    -0.015 C 
BRANCH   3   4
ATOM      4  C   UNL     1      70.762  86.276  66.221  1.00  0.00     0.078 C 
ATOM      5  O   UNL     1      73.144  86.288  66.887  1.00  0.00    -0.319 OA
ATOM      6  C   UNL     1      72.213  85.769  65.886  1.00  0.00     0.095 CG0
ATOM      7  C   UNL     1      72.946  87.667  67.254  1.00  0.00     0.289 C 
ATOM      8  C   UNL     1      72.604  86.340  64.461  1.00  0.00     0.023 C 
ATOM      9  G   UNL     1      72.306  84.222  66.036  1.00  0.00     0.000 G0
ATOM     10  O   UNL     1      71.627  87.887  67.747  1.00  0.00    -0.320 OA
ATOM     11  O   UNL     1      73.095  88.550  66.145  1.00  0.00    -0.313 OA
ATOM     12  C   UNL     1      70.882  87.790  66.523  1.00  0.00     0.170 C 
ATOM     13  C   UNL     1      71.968  87.741  64.212  1.00  0.00     0.049 C 
ATOM     14  C   UNL     1      74.112  86.405  64.166  1.00  0.00     0.011 C 
ATOM     15  C   UNL     1      71.798  88.525  65.514  1.00  0.00     0.122 C 
BRANCH   7  16
ATOM     16  C   UNL     1      73.960  88.023  68.323  1.00  0.00     0.135 C 
BRANCH  16  17
ATOM     17  C   UNL     1      74.850  86.857  68.671  1.00  0.00    -0.040 A 
ATOM     18  C   UNL     1      74.354  85.805  69.440  1.00  0.00     0.004 A 
ATOM     19  C   UNL     1      76.170  86.831  68.222  1.00  0.00     0.004 A 
ATOM     20  C   UNL     1      75.178  84.725  69.761  1.00  0.00     0.000 A 
ATOM     21  C   UNL     1      76.995  85.751  68.542  1.00  0.00     0.000 A 
ATOM     22  C   UNL     1      76.498  84.700  69.312  1.00  0.00     0.000 A 
ENDBRANCH  16  17
ENDBRANCH   7  16
BRANCH  15  23
ATOM     23  C   UNL     1      71.361  89.935  65.282  1.00  0.00    -0.046 C 
ATOM     24  C   UNL     1      70.517  90.175  64.065  1.00  0.00     0.042 C 
ATOM     25  C   UNL     1      71.703  90.930  66.115  1.00  0.00     0.010 C 
ENDBRANCH  15  23
ENDBRANCH   3   4
BRANCH   2  26
ATOM     26  C   UNL     1      70.049  83.132  66.563  1.00  0.00     0.078 C 
BRANCH  26  27
ATOM     27  C   UNL     1      71.105  83.409  65.495  1.00  0.00     0.140 C 
ATOM     28  C   UNL     1      72.289  84.232  66.043  1.00  0.00     0.086 CG0
ATOM     29  C   UNL     1      71.784  82.145  65.010  1.00  0.00     0.190 C 
ATOM     30  C   UNL     1      73.494  83.508  65.512  1.00  0.00    -0.010 C 
ATOM     31  G   UNL     1      72.188  85.776  65.872  1.00  0.00     0.000 G0
ATOM     32  O   UNL     1      71.212  81.123  64.661  1.00  0.00    -0.291 OA
ATOM     33  C   UNL     1      73.248  82.320  64.952  1.00  0.00    -0.008 C 
ATOM     34  C   UNL     1      74.181  81.313  64.407  1.00  0.00     0.048 C 
BRANCH  27  35
ATOM     35  O   UNL     1      70.524  83.952  64.321  1.00  0.00    -0.381 OA
ATOM     36  H   UNL     1      70.693  83.341  63.584  1.00  0.00     0.212 HD
ENDBRANCH  27  35
ENDBRANCH  26  27
ENDBRANCH   2  26
ENDBRANCH   1   2
BRANCH   1  37
ATOM     37  O   UNL     1      67.573  84.531  68.594  1.00  0.00    -0.461 OA
BRANCH  37  38
ATOM     38  C   UNL     1      67.214  85.229  69.724  1.00  0.00     0.310 C 
ATOM     39  O   UNL     1      67.996  85.662  70.559  1.00  0.00    -0.252 OA
BRANCH  38  40
ATOM     40  C   UNL     1      65.712  85.375  69.771  1.00  0.00     0.158 C 
BRANCH  40  41
ATOM     41  C   UNL     1      65.035  84.251  70.510  1.00  0.00    -0.037 A 
ATOM     42  C   UNL     1      64.422  84.495  71.739  1.00  0.00     0.008 A 
ATOM     43  C   UNL     1      65.020  82.967  69.967  1.00  0.00     0.008 A 
ATOM     44  C   UNL     1      63.795  83.453  72.425  1.00  0.00     0.046 A 
ATOM     45  C   UNL     1      64.393  81.926  70.652  1.00  0.00     0.046 A 
ATOM     46  C   UNL     1      63.781  82.169  71.880  1.00  0.00     0.115 A 
BRANCH  46  47
ATOM     47  O   UNL     1      63.170  81.153  72.549  1.00  0.00    -0.508 OA
ATOM     48  H   UNL     1      63.414  80.309  72.132  1.00  0.00     0.293 HD
ENDBRANCH  46  47
ENDBRANCH  40  41
ENDBRANCH  38  40
ENDBRANCH  37  38
ENDBRANCH   1  37
TORSDOF 10
ENDMDL
MODEL 9
REMARK VINA RESULT:    -6.266      8.649     13.822
REMARK INTER + INTRA:         -11.234
REMARK INTER:                 -10.651
REMARK INTRA:                  -0.583
REMARK UNBOUND:                -0.572
REMARK SMILES C=C(C)[C@]12C[C@@H](C)[C@@]34O[C@](Cc5ccccc5)(O[C@@H]1[C@@H]3C=C(COC(=O)Cc1ccc(O)cc1)C[C@]1(O)C(=O)C(C)=C[C@@H]41)O2
REMARK SMILES IDX 23 1 22 2 21 3 20 4 9 5 8 6 10 7 6 8 18 10 44 11 19 12 5 13
REMARK SMILES IDX 7 14 4 15 11 16 12 17 13 18 17 19 14 20 16 21 15 22 2 23
REMARK SMILES IDX 3 24 1 25 35 26 36 27 43 28 38 29 42 30 39 32 40 33 41 34
REMARK SMILES IDX 37 35 24 37 25 38 26 39 27 40 28 41 29 42 34 43 30 44 33 45
REMARK SMILES IDX 31 46 32 47
REMARK H PARENT 37 36 32 48
REMARK Flexibility Score: 90.00
ROOT
ATOM      1  C   UNL     1      96.651  94.944  81.084  1.00  0.00     0.264 C 
ENDROOT
BRANCH   1   2
ATOM      2  C   UNL     1      96.870  96.393  81.454  1.00  0.00    -0.033 C 
ATOM      3  C   UNL     1      96.885  96.745  82.756  1.00  0.00    -0.015 C 
BRANCH   3   4
ATOM      4  C   UNL     1      97.008  98.126  83.381  1.00  0.00     0.078 C 
ATOM      5  O   UNL     1      99.414  98.510  83.810  1.00  0.00    -0.319 OA
ATOM      6  C   UNL     1      98.273  98.994  83.034  1.00  0.00     0.095 CG0
ATOM      7  C   UNL     1      99.131  98.194  85.187  1.00  0.00     0.289 C 
ATOM      8  C   UNL     1      97.956 100.490  83.447  1.00  0.00     0.023 C 
ATOM      9  G   UNL     1      98.697  98.786  81.551  1.00  0.00     0.000 G0
ATOM     10  O   UNL     1      98.101  97.216  85.292  1.00  0.00    -0.320 OA
ATOM     11  O   UNL     1      98.665  99.325  85.918  1.00  0.00    -0.313 OA
ATOM     12  C   UNL     1      96.962  98.010  84.925  1.00  0.00     0.170 C 
ATOM     13  C   UNL     1      97.031 100.553  84.701  1.00  0.00     0.049 C 
ATOM     14  C   UNL     1      99.184 101.388  83.675  1.00  0.00     0.011 C 
ATOM     15  C   UNL     1      97.252  99.358  85.629  1.00  0.00     0.122 C 
BRANCH   7  16
ATOM     16  C   UNL     1     100.403  97.670  85.824  1.00  0.00     0.135 C 
BRANCH  16  17
ATOM     17  C   UNL     1     100.831  98.505  87.005  1.00  0.00    -0.040 A 
ATOM     18  C   UNL     1     100.451  98.136  88.294  1.00  0.00     0.004 A 
ATOM     19  C   UNL     1     101.607  99.647  86.805  1.00  0.00     0.004 A 
ATOM     20  C   UNL     1     100.847  98.909  89.387  1.00  0.00     0.000 A 
ATOM     21  C   UNL     1     102.003 100.420  87.897  1.00  0.00     0.000 A 
ATOM     22  C   UNL     1     101.623 100.051  89.187  1.00  0.00     0.000 A 
ENDBRANCH  16  17
ENDBRANCH   7  16
BRANCH  15  23
ATOM     23  C   UNL     1      96.511  99.488  86.920  1.00  0.00    -0.046 C 
ATOM     24  C   UNL     1      95.060  99.112  86.890  1.00  0.00     0.042 C 
ATOM     25  C   UNL     1      97.109  99.918  88.041  1.00  0.00     0.010 C 
ENDBRANCH  15  23
ENDBRANCH   3   4
BRANCH   2  26
ATOM     26  C   UNL     1      97.061  97.294  80.248  1.00  0.00     0.078 C 
BRANCH  26  27
ATOM     27  C   UNL     1      97.548  98.717  80.511  1.00  0.00     0.140 C 
ATOM     28  C   UNL     1      98.694  98.761  81.543  1.00  0.00     0.086 CG0
ATOM     29  C   UNL     1      98.186  99.346  79.290  1.00  0.00     0.190 C 
ATOM     30  C   UNL     1      99.697  99.686  80.913  1.00  0.00    -0.010 C 
ATOM     31  G   UNL     1      98.273  98.986  83.025  1.00  0.00     0.000 G0
ATOM     32  O   UNL     1      97.705  99.357  78.167  1.00  0.00    -0.291 OA
ATOM     33  C   UNL     1      99.456 100.011  79.639  1.00  0.00    -0.008 C 
ATOM     34  C   UNL     1     100.256 100.817  78.695  1.00  0.00     0.048 C 
BRANCH  27  35
ATOM     35  O   UNL     1      96.470  99.586  80.815  1.00  0.00    -0.381 OA
ATOM     36  H   UNL     1      96.699 100.479  80.505  1.00  0.00     0.212 HD
ENDBRANCH  27  35
ENDBRANCH  26  27
ENDBRANCH   2  26
ENDBRANCH   1   2
BRANCH   1  37
ATOM     37  O   UNL     1      95.381  94.803  80.484  1.00  0.00    -0.461 OA
BRANCH  37  38
ATOM     38  C   UNL     1      95.061  93.545  80.028  1.00  0.00     0.310 C 
ATOM     39  O   UNL     1      94.863  92.569  80.738  1.00  0.00    -0.252 OA
BRANCH  38  40
ATOM     40  C   UNL     1      94.994  93.558  78.519  1.00  0.00     0.158 C 
BRANCH  40  41
ATOM     41  C   UNL     1      93.649  93.992  77.995  1.00  0.00    -0.037 A 
ATOM     42  C   UNL     1      93.512  95.230  77.365  1.00  0.00     0.008 A 
ATOM     43  C   UNL     1      92.542  93.158  78.139  1.00  0.00     0.008 A 
ATOM     44  C   UNL     1      92.267  95.632  76.881  1.00  0.00     0.046 A 
ATOM     45  C   UNL     1      91.296  93.559  77.654  1.00  0.00     0.046 A 
ATOM     46  C   UNL     1      91.159  94.796  77.025  1.00  0.00     0.115 A 
BRANCH  46  47
ATOM     47  O   UNL     1      89.945  95.189  76.553  1.00  0.00    -0.508 OA
ATOM     48  H   UNL     1      89.493  95.711  77.239  1.00  0.00     0.293 HD
ENDBRANCH  46  47
ENDBRANCH  40  41
ENDBRANCH  38  40
ENDBRANCH  37  38
ENDBRANCH   1  37
TORSDOF 10
ENDMDL
MODEL 10
REMARK VINA RESULT:    -6.232      7.851     12.351
REMARK INTER + INTRA:         -11.176
REMARK INTER:                 -10.779
REMARK INTRA:                  -0.397
REMARK UNBOUND:                -0.572
REMARK SMILES C=C(C)[C@]12C[C@@H](C)[C@@]34O[C@](Cc5ccccc5)(O[C@@H]1[C@@H]3C=C(COC(=O)Cc1ccc(O)cc1)C[C@]1(O)C(=O)C(C)=C[C@@H]41)O2
REMARK SMILES IDX 23 1 22 2 21 3 20 4 9 5 8 6 10 7 6 8 18 10 44 11 19 12 5 13
REMARK SMILES IDX 7 14 4 15 11 16 12 17 13 18 17 19 14 20 16 21 15 22 2 23
REMARK SMILES IDX 3 24 1 25 35 26 36 27 43 28 38 29 42 30 39 32 40 33 41 34
REMARK SMILES IDX 37 35 24 37 25 38 26 39 27 40 28 41 29 42 34 43 30 44 33 45
REMARK SMILES IDX 31 46 32 47
REMARK H PARENT 37 36 32 48
REMARK Flexibility Score: 90.00
ROOT
ATOM      1  C   UNL     1      97.003  94.697  81.745  1.00  0.00     0.264 C 
ENDROOT
BRANCH   1   2
ATOM      2  C   UNL     1      97.749  96.012  81.730  1.00  0.00    -0.033 C 
ATOM      3  C   UNL     1      97.069  97.153  81.497  1.00  0.00    -0.015 C 
BRANCH   3   4
ATOM      4  C   UNL     1      97.590  98.575  81.356  1.00  0.00     0.078 C 
ATOM      5  O   UNL     1      97.493  99.603  83.603  1.00  0.00    -0.319 OA
ATOM      6  C   UNL     1      98.414  99.191  82.545  1.00  0.00     0.095 CG0
ATOM      7  C   UNL     1      96.298 100.270  83.153  1.00  0.00     0.289 C 
ATOM      8  C   UNL     1      99.177 100.464  81.990  1.00  0.00     0.023 C 
ATOM      9  G   UNL     1      99.314  98.111  83.213  1.00  0.00     0.000 G0
ATOM     10  O   UNL     1      95.563  99.456  82.244  1.00  0.00    -0.320 OA
ATOM     11  O   UNL     1      96.583 101.476  82.447  1.00  0.00    -0.313 OA
ATOM     12  C   UNL     1      96.410  99.542  81.087  1.00  0.00     0.170 C 
ATOM     13  C   UNL     1      98.352 101.188  80.883  1.00  0.00     0.049 C 
ATOM     14  C   UNL     1      99.614 101.488  83.052  1.00  0.00     0.011 C 
ATOM     15  C   UNL     1      96.847 101.027  81.102  1.00  0.00     0.122 C 
BRANCH   7  16
ATOM     16  C   UNL     1      95.445 100.584  84.366  1.00  0.00     0.135 C 
BRANCH  16  17
ATOM     17  C   UNL     1      96.199 100.381  85.656  1.00  0.00    -0.040 A 
ATOM     18  C   UNL     1      96.055  99.191  86.369  1.00  0.00     0.004 A 
ATOM     19  C   UNL     1      97.040 101.385  86.136  1.00  0.00     0.004 A 
ATOM     20  C   UNL     1      96.753  99.004  87.562  1.00  0.00     0.000 A 
ATOM     21  C   UNL     1      97.737 101.197  87.330  1.00  0.00     0.000 A 
ATOM     22  C   UNL     1      97.594 100.007  88.042  1.00  0.00     0.000 A 
ENDBRANCH  16  17
ENDBRANCH   7  16
BRANCH  15  23
ATOM     23  C   UNL     1      96.038 101.860  80.161  1.00  0.00    -0.046 C 
ATOM     24  C   UNL     1      96.524 101.918  78.743  1.00  0.00     0.042 C 
ATOM     25  C   UNL     1      94.940 102.518  80.562  1.00  0.00     0.010 C 
ENDBRANCH  15  23
ENDBRANCH   3   4
BRANCH   2  26
ATOM     26  C   UNL     1      99.234  95.856  82.002  1.00  0.00     0.078 C 
BRANCH  26  27
ATOM     27  C   UNL     1     100.036  97.134  82.243  1.00  0.00     0.140 C 
ATOM     28  C   UNL     1      99.314  98.105  83.199  1.00  0.00     0.086 CG0
ATOM     29  C   UNL     1     101.339  96.872  82.969  1.00  0.00     0.190 C 
ATOM     30  C   UNL     1     100.397  98.529  84.151  1.00  0.00    -0.010 C 
ATOM     31  G   UNL     1      98.420  99.189  82.528  1.00  0.00     0.000 G0
ATOM     32  O   UNL     1     102.155  96.013  82.671  1.00  0.00    -0.291 OA
ATOM     33  C   UNL     1     101.537  97.837  84.067  1.00  0.00    -0.008 C 
ATOM     34  C   UNL     1     102.764  97.921  84.886  1.00  0.00     0.048 C 
BRANCH  27  35
ATOM     35  O   UNL     1     100.444  97.728  81.022  1.00  0.00    -0.381 OA
ATOM     36  H   UNL     1      99.937  97.321  80.299  1.00  0.00     0.212 HD
ENDBRANCH  27  35
ENDBRANCH  26  27
ENDBRANCH   2  26
ENDBRANCH   1   2
BRANCH   1  37
ATOM     37  O   UNL     1      96.153  94.631  80.620  1.00  0.00    -0.461 OA
BRANCH  37  38
ATOM     38  C   UNL     1      95.554  93.415  80.383  1.00  0.00     0.310 C 
ATOM     39  O   UNL     1      95.195  92.628  81.247  1.00  0.00    -0.252 OA
BRANCH  38  40
ATOM     40  C   UNL     1      95.409  93.207  78.894  1.00  0.00     0.158 C 
BRANCH  40  41
ATOM     41  C   UNL     1      94.106  93.733  78.352  1.00  0.00    -0.037 A 
ATOM     42  C   UNL     1      92.941  92.976  78.479  1.00  0.00     0.008 A 
ATOM     43  C   UNL     1      94.063  94.976  77.721  1.00  0.00     0.008 A 
ATOM     44  C   UNL     1      91.734  93.462  77.975  1.00  0.00     0.046 A 
ATOM     45  C   UNL     1      92.856  95.464  77.218  1.00  0.00     0.046 A 
ATOM     46  C   UNL     1      91.692  94.707  77.345  1.00  0.00     0.115 A 
BRANCH  46  47
ATOM     47  O   UNL     1      90.515  95.181  76.854  1.00  0.00    -0.508 OA
ATOM     48  H   UNL     1      90.700  95.918  76.246  1.00  0.00     0.293 HD
ENDBRANCH  46  47
ENDBRANCH  40  41
ENDBRANCH  38  40
ENDBRANCH  37  38
ENDBRANCH   1  37
TORSDOF 10
ENDMDL
