MODEL 1
REMARK VINA RESULT:    -7.871      0.000      0.000
REMARK INTER + INTRA:          -9.574
REMARK INTER:                  -9.251
REMARK INTRA:                  -0.322
REMARK UNBOUND:                -0.322
REMARK SMILES O=C(/C=C/C=C/c1ccc2c(c1)OCO2)N1CCCCC1
REMARK SMILES IDX 3 1 4 2 2 3 1 4 16 5 17 6 21 7 18 8 20 9 19 10 5 11 6 12
REMARK SMILES IDX 7 13 12 14 8 15 11 16 9 17 13 18 10 19 14 20 15 21
REMARK H PARENT
REMARK Flexibility Score: inf
ROOT
ATOM      1  C   UNL     1      95.142  97.357  78.221  1.00  0.00     0.071 C 
ATOM      2  C   UNL     1      94.125  97.207  77.375  1.00  0.00     0.006 C 
ENDROOT
BRANCH   1   3
ATOM      3  C   UNL     1      95.835  98.660  78.252  1.00  0.00     0.246 C 
ATOM      4  O   UNL     1      96.070  99.205  77.173  1.00  0.00    -0.270 OA
ATOM      5  N   UNL     1      96.179  99.183  79.497  1.00  0.00    -0.339 N 
ATOM      6  C   UNL     1      96.873 100.474  79.560  1.00  0.00     0.120 C 
ATOM      7  C   UNL     1      95.956  98.542  80.801  1.00  0.00     0.120 C 
ATOM      8  C   UNL     1      96.158 101.445  80.493  1.00  0.00     0.022 C 
ATOM      9  C   UNL     1      95.243  99.488  81.768  1.00  0.00     0.022 C 
ATOM     10  C   UNL     1      95.960 100.831  81.875  1.00  0.00     0.004 C 
ENDBRANCH   1   3
BRANCH   2  11
ATOM     11  C   UNL     1      93.385  95.967  77.272  1.00  0.00     0.001 C 
ATOM     12  C   UNL     1      92.244  95.858  76.573  1.00  0.00     0.008 C 
BRANCH  12  13
ATOM     13  C   UNL     1      91.448  94.626  76.442  1.00  0.00    -0.022 A 
ATOM     14  C   UNL     1      91.401  93.980  75.215  1.00  0.00     0.058 A 
ATOM     15  C   UNL     1      90.763  94.140  77.559  1.00  0.00     0.012 A 
ATOM     16  C   UNL     1      90.643  92.829  75.142  1.00  0.00     0.166 A 
ATOM     17  C   UNL     1      90.003  92.973  77.457  1.00  0.00     0.051 A 
ATOM     18  O   UNL     1      90.470  92.056  74.034  1.00  0.00    -0.454 OA
ATOM     19  C   UNL     1      89.962  92.339  76.233  1.00  0.00     0.165 A 
ATOM     20  C   UNL     1      89.604  91.025  74.551  1.00  0.00     0.468 C 
ATOM     21  O   UNL     1      89.278  91.198  75.946  1.00  0.00    -0.454 OA
ENDBRANCH  12  13
ENDBRANCH   2  11
TORSDOF 3
ENDMDL
MODEL 2
REMARK VINA RESULT:    -7.614     13.396     15.238
REMARK INTER + INTRA:          -9.272
REMARK INTER:                  -8.899
REMARK INTRA:                  -0.372
REMARK UNBOUND:                -0.322
REMARK SMILES O=C(/C=C/C=C/c1ccc2c(c1)OCO2)N1CCCCC1
REMARK SMILES IDX 3 1 4 2 2 3 1 4 16 5 17 6 21 7 18 8 20 9 19 10 5 11 6 12
REMARK SMILES IDX 7 13 12 14 8 15 11 16 9 17 13 18 10 19 14 20 15 21
REMARK H PARENT
REMARK Flexibility Score: inf
ROOT
ATOM      1  C   UNL     1      97.432  84.043  77.061  1.00  0.00     0.071 C 
ATOM      2  C   UNL     1      97.133  82.811  77.469  1.00  0.00     0.006 C 
ENDROOT
BRANCH   1   3
ATOM      3  C   UNL     1      97.309  84.347  75.622  1.00  0.00     0.246 C 
ATOM      4  O   UNL     1      96.193  84.652  75.198  1.00  0.00    -0.270 OA
ATOM      5  N   UNL     1      98.460  84.263  74.839  1.00  0.00    -0.339 N 
ATOM      6  C   UNL     1      98.368  84.554  73.405  1.00  0.00     0.120 C 
ATOM      7  C   UNL     1      99.796  83.859  75.300  1.00  0.00     0.120 C 
ATOM      8  C   UNL     1      99.393  85.600  72.982  1.00  0.00     0.022 C 
ATOM      9  C   UNL     1     100.855  84.883  74.891  1.00  0.00     0.022 C 
ATOM     10  C   UNL     1     100.801  85.184  73.396  1.00  0.00     0.004 C 
ENDBRANCH   1   3
BRANCH   2  11
ATOM     11  C   UNL     1      97.223  82.417  78.859  1.00  0.00     0.001 C 
ATOM     12  C   UNL     1      96.998  83.270  79.872  1.00  0.00     0.008 C 
BRANCH  12  13
ATOM     13  C   UNL     1      97.084  82.926  81.301  1.00  0.00    -0.022 A 
ATOM     14  C   UNL     1      96.333  83.650  82.217  1.00  0.00     0.058 A 
ATOM     15  C   UNL     1      97.920  81.878  81.696  1.00  0.00     0.012 A 
ATOM     16  C   UNL     1      96.447  83.290  83.544  1.00  0.00     0.166 A 
ATOM     17  C   UNL     1      98.016  81.535  83.047  1.00  0.00     0.051 A 
ATOM     18  O   UNL     1      95.798  83.875  84.588  1.00  0.00    -0.454 OA
ATOM     19  C   UNL     1      97.265  82.261  83.948  1.00  0.00     0.165 A 
ATOM     20  C   UNL     1      96.300  83.098  85.694  1.00  0.00     0.468 C 
ATOM     21  O   UNL     1      97.232  82.072  85.295  1.00  0.00    -0.454 OA
ENDBRANCH  12  13
ENDBRANCH   2  11
TORSDOF 3
ENDMDL
MODEL 3
REMARK VINA RESULT:    -7.400      1.490      2.329
REMARK INTER + INTRA:          -9.020
REMARK INTER:                  -8.660
REMARK INTRA:                  -0.360
REMARK UNBOUND:                -0.322
REMARK SMILES O=C(/C=C/C=C/c1ccc2c(c1)OCO2)N1CCCCC1
REMARK SMILES IDX 3 1 4 2 2 3 1 4 16 5 17 6 21 7 18 8 20 9 19 10 5 11 6 12
REMARK SMILES IDX 7 13 12 14 8 15 11 16 9 17 13 18 10 19 14 20 15 21
REMARK H PARENT
REMARK Flexibility Score: inf
ROOT
ATOM      1  C   UNL     1      95.147  96.782  77.809  1.00  0.00     0.071 C 
ATOM      2  C   UNL     1      93.826  96.761  77.643  1.00  0.00     0.006 C 
ENDROOT
BRANCH   1   3
ATOM      3  C   UNL     1      95.718  97.805  78.708  1.00  0.00     0.246 C 
ATOM      4  O   UNL     1      95.431  98.982  78.485  1.00  0.00    -0.270 OA
ATOM      5  N   UNL     1      96.545  97.372  79.742  1.00  0.00    -0.339 N 
ATOM      6  C   UNL     1      97.131  98.365  80.648  1.00  0.00     0.120 C 
ATOM      7  C   UNL     1      96.946  95.983  80.011  1.00  0.00     0.120 C 
ATOM      8  C   UNL     1      96.849  98.024  82.107  1.00  0.00     0.022 C 
ATOM      9  C   UNL     1      96.681  95.603  81.468  1.00  0.00     0.022 C 
ATOM     10  C   UNL     1      97.305  96.606  82.435  1.00  0.00     0.004 C 
ENDBRANCH   1   3
BRANCH   2  11
ATOM     11  C   UNL     1      93.174  95.797  76.782  1.00  0.00     0.001 C 
ATOM     12  C   UNL     1      91.964  95.283  77.053  1.00  0.00     0.008 C 
BRANCH  12  13
ATOM     13  C   UNL     1      91.260  94.295  76.218  1.00  0.00    -0.022 A 
ATOM     14  C   UNL     1      90.753  93.147  76.811  1.00  0.00     0.058 A 
ATOM     15  C   UNL     1      91.121  94.541  74.849  1.00  0.00     0.012 A 
ATOM     16  C   UNL     1      90.101  92.252  75.988  1.00  0.00     0.166 A 
ATOM     17  C   UNL     1      90.457  93.617  74.039  1.00  0.00     0.051 A 
ATOM     18  O   UNL     1      89.539  91.074  76.376  1.00  0.00    -0.454 OA
ATOM     19  C   UNL     1      89.957  92.480  74.639  1.00  0.00     0.165 A 
ATOM     20  C   UNL     1      89.025  90.588  75.120  1.00  0.00     0.468 C 
ATOM     21  O   UNL     1      89.286  91.475  74.013  1.00  0.00    -0.454 OA
ENDBRANCH  12  13
ENDBRANCH   2  11
TORSDOF 3
ENDMDL
MODEL 4
REMARK VINA RESULT:    -7.297     13.612     15.906
REMARK INTER + INTRA:          -8.900
REMARK INTER:                  -8.532
REMARK INTRA:                  -0.368
REMARK UNBOUND:                -0.322
REMARK SMILES O=C(/C=C/C=C/c1ccc2c(c1)OCO2)N1CCCCC1
REMARK SMILES IDX 3 1 4 2 2 3 1 4 16 5 17 6 21 7 18 8 20 9 19 10 5 11 6 12
REMARK SMILES IDX 7 13 12 14 8 15 11 16 9 17 13 18 10 19 14 20 15 21
REMARK H PARENT
REMARK Flexibility Score: inf
ROOT
ATOM      1  C   UNL     1      95.897  82.272  83.211  1.00  0.00     0.071 C 
ATOM      2  C   UNL     1      96.310  83.422  82.683  1.00  0.00     0.006 C 
ENDROOT
BRANCH   1   3
ATOM      3  C   UNL     1      95.733  82.200  84.677  1.00  0.00     0.246 C 
ATOM      4  O   UNL     1      96.295  83.062  85.355  1.00  0.00    -0.270 OA
ATOM      5  N   UNL     1      94.961  81.161  85.194  1.00  0.00    -0.339 N 
ATOM      6  C   UNL     1      94.785  81.061  86.646  1.00  0.00     0.120 C 
ATOM      7  C   UNL     1      94.315  80.091  84.421  1.00  0.00     0.120 C 
ATOM      8  C   UNL     1      93.311  80.975  87.024  1.00  0.00     0.022 C 
ATOM      9  C   UNL     1      92.833  79.970  84.775  1.00  0.00     0.022 C 
ATOM     10  C   UNL     1      92.621  79.835  86.281  1.00  0.00     0.004 C 
ENDBRANCH   1   3
BRANCH   2  11
ATOM     11  C   UNL     1      96.499  83.590  81.257  1.00  0.00     0.001 C 
ATOM     12  C   UNL     1      97.134  82.683  80.497  1.00  0.00     0.008 C 
BRANCH  12  13
ATOM     13  C   UNL     1      97.361  82.806  79.048  1.00  0.00    -0.022 A 
ATOM     14  C   UNL     1      96.629  83.739  78.326  1.00  0.00     0.058 A 
ATOM     15  C   UNL     1      98.310  81.981  78.438  1.00  0.00     0.012 A 
ATOM     16  C   UNL     1      96.878  83.818  76.971  1.00  0.00     0.166 A 
ATOM     17  C   UNL     1      98.541  82.082  77.064  1.00  0.00     0.051 A 
ATOM     18  O   UNL     1      96.266  84.662  76.095  1.00  0.00    -0.454 OA
ATOM     19  C   UNL     1      97.808  83.012  76.357  1.00  0.00     0.165 A 
ATOM     20  C   UNL     1      96.917  84.296  74.861  1.00  0.00     0.468 C 
ATOM     21  O   UNL     1      97.897  83.250  75.020  1.00  0.00    -0.454 OA
ENDBRANCH  12  13
ENDBRANCH   2  11
TORSDOF 3
ENDMDL
MODEL 5
REMARK VINA RESULT:    -7.029     13.627     15.562
REMARK INTER + INTRA:          -8.584
REMARK INTER:                  -8.201
REMARK INTRA:                  -0.383
REMARK UNBOUND:                -0.322
REMARK SMILES O=C(/C=C/C=C/c1ccc2c(c1)OCO2)N1CCCCC1
REMARK SMILES IDX 3 1 4 2 2 3 1 4 16 5 17 6 21 7 18 8 20 9 19 10 5 11 6 12
REMARK SMILES IDX 7 13 12 14 8 15 11 16 9 17 13 18 10 19 14 20 15 21
REMARK H PARENT
REMARK Flexibility Score: inf
ROOT
ATOM      1  C   UNL     1      95.267  81.366  83.903  1.00  0.00     0.071 C 
ATOM      2  C   UNL     1      96.525  81.532  83.501  1.00  0.00     0.006 C 
ENDROOT
BRANCH   1   3
ATOM      3  C   UNL     1      94.997  81.354  85.354  1.00  0.00     0.246 C 
ATOM      4  O   UNL     1      95.555  80.489  86.030  1.00  0.00    -0.270 OA
ATOM      5  N   UNL     1      94.126  82.317  85.861  1.00  0.00    -0.339 N 
ATOM      6  C   UNL     1      93.834  82.327  87.298  1.00  0.00     0.120 C 
ATOM      7  C   UNL     1      93.407  83.336  85.081  1.00  0.00     0.120 C 
ATOM      8  C   UNL     1      94.077  83.704  87.906  1.00  0.00     0.022 C 
ATOM      9  C   UNL     1      93.623  84.733  85.662  1.00  0.00     0.022 C 
ATOM     10  C   UNL     1      93.299  84.779  87.153  1.00  0.00     0.004 C 
ENDBRANCH   1   3
BRANCH   2  11
ATOM     11  C   UNL     1      96.889  81.557  82.100  1.00  0.00     0.001 C 
ATOM     12  C   UNL     1      96.965  82.694  81.389  1.00  0.00     0.008 C 
BRANCH  12  13
ATOM     13  C   UNL     1      97.321  82.776  79.963  1.00  0.00    -0.022 A 
ATOM     14  C   UNL     1      96.596  83.619  79.133  1.00  0.00     0.058 A 
ATOM     15  C   UNL     1      98.381  82.002  79.484  1.00  0.00     0.012 A 
ATOM     16  C   UNL     1      96.967  83.662  77.805  1.00  0.00     0.166 A 
ATOM     17  C   UNL     1      98.736  82.064  78.134  1.00  0.00     0.051 A 
ATOM     18  O   UNL     1      96.383  84.421  76.836  1.00  0.00    -0.454 OA
ATOM     19  C   UNL     1      98.009  82.906  77.318  1.00  0.00     0.165 A 
ATOM     20  C   UNL     1      97.174  84.056  75.687  1.00  0.00     0.468 C 
ATOM     21  O   UNL     1      98.208  83.095  75.985  1.00  0.00    -0.454 OA
ENDBRANCH  12  13
ENDBRANCH   2  11
TORSDOF 3
ENDMDL
MODEL 6
REMARK VINA RESULT:    -7.016     13.377     15.394
REMARK INTER + INTRA:          -8.569
REMARK INTER:                  -8.543
REMARK INTRA:                  -0.026
REMARK UNBOUND:                -0.322
REMARK SMILES O=C(/C=C/C=C/c1ccc2c(c1)OCO2)N1CCCCC1
REMARK SMILES IDX 3 1 4 2 2 3 1 4 16 5 17 6 21 7 18 8 20 9 19 10 5 11 6 12
REMARK SMILES IDX 7 13 12 14 8 15 11 16 9 17 13 18 10 19 14 20 15 21
REMARK H PARENT
REMARK Flexibility Score: inf
ROOT
ATOM      1  C   UNL     1      97.234  82.222  78.394  1.00  0.00     0.071 C 
ATOM      2  C   UNL     1      97.588  83.177  79.253  1.00  0.00     0.006 C 
ENDROOT
BRANCH   1   3
ATOM      3  C   UNL     1      98.098  81.989  77.220  1.00  0.00     0.246 C 
ATOM      4  O   UNL     1      98.714  80.924  77.168  1.00  0.00    -0.270 OA
ATOM      5  N   UNL     1      98.162  82.991  76.252  1.00  0.00    -0.339 N 
ATOM      6  C   UNL     1      99.016  82.790  75.077  1.00  0.00     0.120 C 
ATOM      7  C   UNL     1      97.478  84.292  76.300  1.00  0.00     0.120 C 
ATOM      8  C   UNL     1      98.241  83.011  73.782  1.00  0.00     0.022 C 
ATOM      9  C   UNL     1      96.692  84.551  75.016  1.00  0.00     0.022 C 
ATOM     10  C   UNL     1      97.564  84.378  73.776  1.00  0.00     0.004 C 
ENDBRANCH   1   3
BRANCH   2  11
ATOM     11  C   UNL     1      96.806  83.479  80.432  1.00  0.00     0.001 C 
ATOM     12  C   UNL     1      96.918  82.785  81.576  1.00  0.00     0.008 C 
BRANCH  12  13
ATOM     13  C   UNL     1      96.142  83.044  82.801  1.00  0.00    -0.022 A 
ATOM     14  C   UNL     1      95.944  84.356  83.210  1.00  0.00     0.058 A 
ATOM     15  C   UNL     1      95.627  81.961  83.518  1.00  0.00     0.012 A 
ATOM     16  C   UNL     1      95.211  84.548  84.363  1.00  0.00     0.166 A 
ATOM     17  C   UNL     1      94.889  82.185  84.683  1.00  0.00     0.051 A 
ATOM     18  O   UNL     1      94.910  85.750  84.926  1.00  0.00    -0.454 OA
ATOM     19  C   UNL     1      94.697  83.491  85.080  1.00  0.00     0.165 A 
ATOM     20  C   UNL     1      94.149  85.331  86.077  1.00  0.00     0.468 C 
ATOM     21  O   UNL     1      94.010  83.900  86.181  1.00  0.00    -0.454 OA
ENDBRANCH  12  13
ENDBRANCH   2  11
TORSDOF 3
ENDMDL
MODEL 7
REMARK VINA RESULT:    -6.968     13.823     16.849
REMARK INTER + INTRA:          -8.512
REMARK INTER:                  -8.160
REMARK INTRA:                  -0.352
REMARK UNBOUND:                -0.322
REMARK SMILES O=C(/C=C/C=C/c1ccc2c(c1)OCO2)N1CCCCC1
REMARK SMILES IDX 3 1 4 2 2 3 1 4 16 5 17 6 21 7 18 8 20 9 19 10 5 11 6 12
REMARK SMILES IDX 7 13 12 14 8 15 11 16 9 17 13 18 10 19 14 20 15 21
REMARK H PARENT
REMARK Flexibility Score: inf
ROOT
ATOM      1  C   UNL     1      94.148  83.409  86.340  1.00  0.00     0.071 C 
ATOM      2  C   UNL     1      93.378  84.018  87.240  1.00  0.00     0.006 C 
ENDROOT
BRANCH   1   3
ATOM      3  C   UNL     1      94.104  81.934  86.272  1.00  0.00     0.246 C 
ATOM      4  O   UNL     1      94.754  81.307  87.110  1.00  0.00    -0.270 OA
ATOM      5  N   UNL     1      93.337  81.353  85.265  1.00  0.00    -0.339 N 
ATOM      6  C   UNL     1      93.279  79.891  85.169  1.00  0.00     0.120 C 
ATOM      7  C   UNL     1      92.586  82.067  84.222  1.00  0.00     0.120 C 
ATOM      8  C   UNL     1      91.838  79.391  85.141  1.00  0.00     0.022 C 
ATOM      9  C   UNL     1      91.135  81.591  84.160  1.00  0.00     0.022 C 
ATOM     10  C   UNL     1      91.044  80.073  84.032  1.00  0.00     0.004 C 
ENDBRANCH   1   3
BRANCH   2  11
ATOM     11  C   UNL     1      93.352  85.458  87.382  1.00  0.00     0.001 C 
ATOM     12  C   UNL     1      93.205  86.068  88.569  1.00  0.00     0.008 C 
BRANCH  12  13
ATOM     13  C   UNL     1      93.164  87.527  88.769  1.00  0.00    -0.022 A 
ATOM     14  C   UNL     1      94.089  88.325  88.111  1.00  0.00     0.058 A 
ATOM     15  C   UNL     1      92.193  88.067  89.616  1.00  0.00     0.012 A 
ATOM     16  C   UNL     1      94.010  89.685  88.330  1.00  0.00     0.166 A 
ATOM     17  C   UNL     1      92.136  89.448  89.820  1.00  0.00     0.051 A 
ATOM     18  O   UNL     1      94.823  90.630  87.781  1.00  0.00    -0.454 OA
ATOM     19  C   UNL     1      93.060  90.232  89.161  1.00  0.00     0.165 A 
ATOM     20  C   UNL     1      94.277  91.832  88.361  1.00  0.00     0.468 C 
ATOM     21  O   UNL     1      93.158  91.587  89.238  1.00  0.00    -0.454 OA
ENDBRANCH  12  13
ENDBRANCH   2  11
TORSDOF 3
ENDMDL
MODEL 8
REMARK VINA RESULT:    -6.788     13.701     16.336
REMARK INTER + INTRA:          -8.301
REMARK INTER:                  -7.955
REMARK INTRA:                  -0.346
REMARK UNBOUND:                -0.322
REMARK SMILES O=C(/C=C/C=C/c1ccc2c(c1)OCO2)N1CCCCC1
REMARK SMILES IDX 3 1 4 2 2 3 1 4 16 5 17 6 21 7 18 8 20 9 19 10 5 11 6 12
REMARK SMILES IDX 7 13 12 14 8 15 11 16 9 17 13 18 10 19 14 20 15 21
REMARK H PARENT
REMARK Flexibility Score: inf
ROOT
ATOM      1  C   UNL     1      96.986  81.549  81.378  1.00  0.00     0.071 C 
ATOM      2  C   UNL     1      97.081  82.817  80.984  1.00  0.00     0.006 C 
ENDROOT
BRANCH   1   3
ATOM      3  C   UNL     1      96.575  81.282  82.771  1.00  0.00     0.246 C 
ATOM      4  O   UNL     1      96.184  82.239  83.442  1.00  0.00    -0.270 OA
ATOM      5  N   UNL     1      96.660  79.970  83.234  1.00  0.00    -0.339 N 
ATOM      6  C   UNL     1      96.264  79.676  84.614  1.00  0.00     0.120 C 
ATOM      7  C   UNL     1      97.163  78.813  82.479  1.00  0.00     0.120 C 
ATOM      8  C   UNL     1      95.243  78.545  84.672  1.00  0.00     0.022 C 
ATOM      9  C   UNL     1      96.167  77.654  82.516  1.00  0.00     0.022 C 
ATOM     10  C   UNL     1      95.758  77.307  83.944  1.00  0.00     0.004 C 
ENDBRANCH   1   3
BRANCH   2  11
ATOM     11  C   UNL     1      97.477  83.178  79.640  1.00  0.00     0.001 C 
ATOM     12  C   UNL     1      96.616  83.196  78.609  1.00  0.00     0.008 C 
BRANCH  12  13
ATOM     13  C   UNL     1      96.966  83.547  77.223  1.00  0.00    -0.022 A 
ATOM     14  C   UNL     1      97.878  82.757  76.535  1.00  0.00     0.058 A 
ATOM     15  C   UNL     1      96.371  84.667  76.636  1.00  0.00     0.012 A 
ATOM     16  C   UNL     1      98.173  83.125  75.239  1.00  0.00     0.166 A 
ATOM     17  C   UNL     1      96.689  85.017  75.322  1.00  0.00     0.051 A 
ATOM     18  O   UNL     1      99.038  82.485  74.405  1.00  0.00    -0.454 OA
ATOM     19  C   UNL     1      97.595  84.225  74.648  1.00  0.00     0.165 A 
ATOM     20  C   UNL     1      98.938  83.305  73.223  1.00  0.00     0.468 C 
ATOM     21  O   UNL     1      98.024  84.411  73.370  1.00  0.00    -0.454 OA
ENDBRANCH  12  13
ENDBRANCH   2  11
TORSDOF 3
ENDMDL
MODEL 9
REMARK VINA RESULT:    -6.735      6.179      8.991
REMARK INTER + INTRA:          -8.238
REMARK INTER:                  -7.842
REMARK INTRA:                  -0.396
REMARK UNBOUND:                -0.322
REMARK SMILES O=C(/C=C/C=C/c1ccc2c(c1)OCO2)N1CCCCC1
REMARK SMILES IDX 3 1 4 2 2 3 1 4 16 5 17 6 21 7 18 8 20 9 19 10 5 11 6 12
REMARK SMILES IDX 7 13 12 14 8 15 11 16 9 17 13 18 10 19 14 20 15 21
REMARK H PARENT
REMARK Flexibility Score: inf
ROOT
ATOM      1  C   UNL     1      93.942  95.865  74.616  1.00  0.00     0.071 C 
ATOM      2  C   UNL     1      94.071  97.178  74.433  1.00  0.00     0.006 C 
ENDROOT
BRANCH   1   3
ATOM      3  C   UNL     1      93.505  95.388  75.943  1.00  0.00     0.246 C 
ATOM      4  O   UNL     1      94.161  95.748  76.921  1.00  0.00    -0.270 OA
ATOM      5  N   UNL     1      92.384  94.561  75.999  1.00  0.00    -0.339 N 
ATOM      6  C   UNL     1      91.929  94.067  77.302  1.00  0.00     0.120 C 
ATOM      7  C   UNL     1      91.605  94.075  74.850  1.00  0.00     0.120 C 
ATOM      8  C   UNL     1      90.450  94.364  77.524  1.00  0.00     0.022 C 
ATOM      9  C   UNL     1      90.113  94.351  75.038  1.00  0.00     0.022 C 
ATOM     10  C   UNL     1      89.605  93.822  76.376  1.00  0.00     0.004 C 
ENDBRANCH   1   3
BRANCH   2  11
ATOM     11  C   UNL     1      94.494  97.741  73.168  1.00  0.00     0.001 C 
ATOM     12  C   UNL     1      95.404  97.149  72.378  1.00  0.00     0.008 C 
BRANCH  12  13
ATOM     13  C   UNL     1      95.876  97.681  71.088  1.00  0.00    -0.022 A 
ATOM     14  C   UNL     1      95.046  98.524  70.361  1.00  0.00     0.058 A 
ATOM     15  C   UNL     1      97.146  97.322  70.631  1.00  0.00     0.012 A 
ATOM     16  C   UNL     1      95.532  98.997  69.159  1.00  0.00     0.166 A 
ATOM     17  C   UNL     1      97.613  97.815  69.411  1.00  0.00     0.051 A 
ATOM     18  O   UNL     1      94.876  99.829  68.305  1.00  0.00    -0.454 OA
ATOM     19  C   UNL     1      96.782  98.652  68.697  1.00  0.00     0.165 A 
ATOM     20  C   UNL     1      95.852  99.969  67.253  1.00  0.00     0.468 C 
ATOM     21  O   UNL     1      97.064  99.225  67.495  1.00  0.00    -0.454 OA
ENDBRANCH  12  13
ENDBRANCH   2  11
TORSDOF 3
ENDMDL
MODEL 10
REMARK VINA RESULT:    -6.472     14.040     15.990
REMARK INTER + INTRA:          -7.929
REMARK INTER:                  -7.544
REMARK INTRA:                  -0.385
REMARK UNBOUND:                -0.322
REMARK SMILES O=C(/C=C/C=C/c1ccc2c(c1)OCO2)N1CCCCC1
REMARK SMILES IDX 3 1 4 2 2 3 1 4 16 5 17 6 21 7 18 8 20 9 19 10 5 11 6 12
REMARK SMILES IDX 7 13 12 14 8 15 11 16 9 17 13 18 10 19 14 20 15 21
REMARK H PARENT
REMARK Flexibility Score: inf
ROOT
ATOM      1  C   UNL     1      98.167  82.910  77.808  1.00  0.00     0.071 C 
ATOM      2  C   UNL     1      97.153  83.638  78.271  1.00  0.00     0.006 C 
ENDROOT
BRANCH   1   3
ATOM      3  C   UNL     1      98.581  83.107  76.404  1.00  0.00     0.246 C 
ATOM      4  O   UNL     1      97.863  83.812  75.694  1.00  0.00    -0.270 OA
ATOM      5  N   UNL     1      99.751  82.481  75.977  1.00  0.00    -0.339 N 
ATOM      6  C   UNL     1     100.184  82.654  74.588  1.00  0.00     0.120 C 
ATOM      7  C   UNL     1     100.607  81.598  76.783  1.00  0.00     0.120 C 
ATOM      8  C   UNL     1     101.629  83.133  74.510  1.00  0.00     0.022 C 
ATOM      9  C   UNL     1     102.068  82.044  76.728  1.00  0.00     0.022 C 
ATOM     10  C   UNL     1     102.555  82.205  75.290  1.00  0.00     0.004 C 
ENDBRANCH   1   3
BRANCH   2  11
ATOM     11  C   UNL     1      96.675  83.515  79.632  1.00  0.00     0.001 C 
ATOM     12  C   UNL     1      97.138  82.585  80.483  1.00  0.00     0.008 C 
BRANCH  12  13
ATOM     13  C   UNL     1      96.683  82.410  81.872  1.00  0.00    -0.022 A 
ATOM     14  C   UNL     1      96.285  83.525  82.598  1.00  0.00     0.058 A 
ATOM     15  C   UNL     1      96.663  81.126  82.423  1.00  0.00     0.012 A 
ATOM     16  C   UNL     1      95.866  83.311  83.895  1.00  0.00     0.166 A 
ATOM     17  C   UNL     1      96.234  80.939  83.739  1.00  0.00     0.051 A 
ATOM     18  O   UNL     1      95.441  84.269  84.765  1.00  0.00    -0.454 OA
ATOM     19  C   UNL     1      95.841  82.053  84.450  1.00  0.00     0.165 A 
ATOM     20  C   UNL     1      95.146  83.471  85.929  1.00  0.00     0.468 C 
ATOM     21  O   UNL     1      95.397  82.064  85.737  1.00  0.00    -0.454 OA
ENDBRANCH  12  13
ENDBRANCH   2  11
TORSDOF 3
ENDMDL
