MODEL 1
REMARK VINA RESULT:    -6.043      0.000      0.000
REMARK INTER + INTRA:         -10.986
REMARK INTER:                  -9.930
REMARK INTRA:                  -1.056
REMARK UNBOUND:                -1.056
REMARK SMILES CCCCC[C@H](O)CC(=O)CCc1ccc(O)c(OC)c1
REMARK SMILES IDX 8 1 6 2 7 3 5 5 4 6 3 7 2 8 1 9 9 10 10 11 11 12 12 13 13 14
REMARK SMILES IDX 21 15 14 16 18 17 15 18 16 19 19 20 20 21 17 22
REMARK H PARENT 7 4 17 23
REMARK Flexibility Score: inf
ROOT
ATOM      1  C   UNL     1      97.446  81.712  79.880  1.00  0.00     0.107 C 
ENDROOT
BRANCH   1   2
ATOM      2  C   UNL     1      97.340  83.149  79.366  1.00  0.00     0.121 C 
BRANCH   2   3
ATOM      3  O   UNL     1      98.330  83.961  79.992  1.00  0.00    -0.393 OA
ATOM      4  H   UNL     1      98.559  83.549  80.843  1.00  0.00     0.210 HD
ENDBRANCH   2   3
BRANCH   2   5
ATOM      5  C   UNL     1      97.489  83.254  77.843  1.00  0.00     0.032 C 
BRANCH   5   6
ATOM      6  C   UNL     1      96.335  84.035  77.203  1.00  0.00     0.003 C 
BRANCH   6   7
ATOM      7  C   UNL     1      96.743  84.788  75.932  1.00  0.00    -0.000 C 
BRANCH   7   8
ATOM      8  C   UNL     1      97.908  84.142  75.186  1.00  0.00    -0.003 C 
ATOM      9  C   UNL     1      97.504  83.727  73.779  1.00  0.00     0.004 C 
ENDBRANCH   7   8
ENDBRANCH   6   7
ENDBRANCH   5   6
ENDBRANCH   2   5
ENDBRANCH   1   2
BRANCH   1  10
ATOM     10  C   UNL     1      98.440  81.559  81.020  1.00  0.00     0.135 C 
ATOM     11  O   UNL     1      99.651  81.651  80.820  1.00  0.00    -0.300 OA
BRANCH  10  12
ATOM     12  C   UNL     1      97.858  81.336  82.407  1.00  0.00     0.080 C 
BRANCH  12  13
ATOM     13  C   UNL     1      96.351  81.583  82.489  1.00  0.00     0.043 C 
BRANCH  13  14
ATOM     14  C   UNL     1      95.995  82.810  83.294  1.00  0.00    -0.044 A 
ATOM     15  C   UNL     1      95.474  82.673  84.581  1.00  0.00     0.054 A 
ATOM     16  C   UNL     1      96.187  84.080  82.751  1.00  0.00     0.008 A 
ATOM     17  C   UNL     1      95.146  83.807  85.324  1.00  0.00     0.160 A 
ATOM     18  C   UNL     1      95.859  85.214  83.494  1.00  0.00     0.050 A 
ATOM     19  C   UNL     1      95.338  85.077  84.781  1.00  0.00     0.157 A 
BRANCH  17  20
ATOM     20  O   UNL     1      94.638  83.661  86.580  1.00  0.00    -0.493 OA
ATOM     21  C   UNL     1      93.523  82.783  86.730  1.00  0.00     0.278 C 
ENDBRANCH  17  20
BRANCH  19  22
ATOM     22  O   UNL     1      95.022  86.192  85.497  1.00  0.00    -0.504 OA
ATOM     23  H   UNL     1      95.296  86.063  86.421  1.00  0.00     0.293 HD
ENDBRANCH  19  22
ENDBRANCH  13  14
ENDBRANCH  12  13
ENDBRANCH  10  12
ENDBRANCH   1  10
TORSDOF 12
ENDMDL
MODEL 2
REMARK VINA RESULT:    -5.866     24.859     25.978
REMARK INTER + INTRA:         -10.694
REMARK INTER:                  -9.757
REMARK INTRA:                  -0.937
REMARK UNBOUND:                -1.056
REMARK SMILES CCCCC[C@H](O)CC(=O)CCc1ccc(O)c(OC)c1
REMARK SMILES IDX 8 1 6 2 7 3 5 5 4 6 3 7 2 8 1 9 9 10 10 11 11 12 12 13 13 14
REMARK SMILES IDX 21 15 14 16 18 17 15 18 16 19 19 20 20 21 17 22
REMARK H PARENT 7 4 17 23
REMARK Flexibility Score: inf
ROOT
ATOM      1  C   UNL     1      79.019  65.302  70.255  1.00  0.00     0.107 C 
ENDROOT
BRANCH   1   2
ATOM      2  C   UNL     1      79.234  64.345  69.080  1.00  0.00     0.121 C 
BRANCH   2   3
ATOM      3  O   UNL     1      80.480  63.670  69.228  1.00  0.00    -0.393 OA
ATOM      4  H   UNL     1      80.581  63.062  68.474  1.00  0.00     0.210 HD
ENDBRANCH   2   3
BRANCH   2   5
ATOM      5  C   UNL     1      78.112  63.309  68.937  1.00  0.00     0.032 C 
BRANCH   5   6
ATOM      6  C   UNL     1      77.127  63.675  67.820  1.00  0.00     0.003 C 
BRANCH   6   7
ATOM      7  C   UNL     1      75.734  64.046  68.337  1.00  0.00    -0.000 C 
BRANCH   7   8
ATOM      8  C   UNL     1      75.248  65.414  67.862  1.00  0.00    -0.003 C 
ATOM      9  C   UNL     1      76.075  65.919  66.690  1.00  0.00     0.004 C 
ENDBRANCH   7   8
ENDBRANCH   6   7
ENDBRANCH   5   6
ENDBRANCH   2   5
ENDBRANCH   1   2
BRANCH   1  10
ATOM     10  C   UNL     1      80.310  65.668  70.969  1.00  0.00     0.135 C 
ATOM     11  O   UNL     1      81.286  66.078  70.341  1.00  0.00    -0.300 OA
BRANCH  10  12
ATOM     12  C   UNL     1      80.310  65.543  72.485  1.00  0.00     0.080 C 
BRANCH  12  13
ATOM     13  C   UNL     1      80.883  66.766  73.202  1.00  0.00     0.043 C 
BRANCH  13  14
ATOM     14  C   UNL     1      82.312  66.572  73.654  1.00  0.00    -0.044 A 
ATOM     15  C   UNL     1      83.225  67.621  73.551  1.00  0.00     0.054 A 
ATOM     16  C   UNL     1      82.717  65.342  74.174  1.00  0.00     0.008 A 
ATOM     17  C   UNL     1      84.543  67.441  73.969  1.00  0.00     0.160 A 
ATOM     18  C   UNL     1      84.035  65.162  74.592  1.00  0.00     0.050 A 
ATOM     19  C   UNL     1      84.949  66.211  74.489  1.00  0.00     0.157 A 
BRANCH  17  20
ATOM     20  O   UNL     1      85.427  68.473  73.863  1.00  0.00    -0.493 OA
ATOM     21  C   UNL     1      85.300  69.320  72.723  1.00  0.00     0.278 C 
ENDBRANCH  17  20
BRANCH  19  22
ATOM     22  O   UNL     1      86.233  66.023  74.900  1.00  0.00    -0.504 OA
ATOM     23  H   UNL     1      86.258  66.026  75.873  1.00  0.00     0.293 HD
ENDBRANCH  19  22
ENDBRANCH  13  14
ENDBRANCH  12  13
ENDBRANCH  10  12
ENDBRANCH   1  10
TORSDOF 12
ENDMDL
MODEL 3
REMARK VINA RESULT:    -5.688      4.666      8.544
REMARK INTER + INTRA:         -10.401
REMARK INTER:                  -9.395
REMARK INTRA:                  -1.006
REMARK UNBOUND:                -1.056
REMARK SMILES CCCCC[C@H](O)CC(=O)CCc1ccc(O)c(OC)c1
REMARK SMILES IDX 8 1 6 2 7 3 5 5 4 6 3 7 2 8 1 9 9 10 10 11 11 12 12 13 13 14
REMARK SMILES IDX 21 15 14 16 18 17 15 18 16 19 19 20 20 21 17 22
REMARK H PARENT 7 4 17 23
REMARK Flexibility Score: inf
ROOT
ATOM      1  C   UNL     1      90.525  80.157  83.566  1.00  0.00     0.107 C 
ENDROOT
BRANCH   1   2
ATOM      2  C   UNL     1      89.692  81.187  84.333  1.00  0.00     0.121 C 
BRANCH   2   3
ATOM      3  O   UNL     1      90.024  82.502  83.892  1.00  0.00    -0.393 OA
ATOM      4  H   UNL     1      89.452  83.129  84.369  1.00  0.00     0.210 HD
ENDBRANCH   2   3
BRANCH   2   5
ATOM      5  C   UNL     1      88.182  80.970  84.181  1.00  0.00     0.032 C 
BRANCH   5   6
ATOM      6  C   UNL     1      87.460  82.243  83.722  1.00  0.00     0.003 C 
BRANCH   6   7
ATOM      7  C   UNL     1      86.465  82.782  84.755  1.00  0.00    -0.000 C 
BRANCH   7   8
ATOM      8  C   UNL     1      86.916  84.082  85.419  1.00  0.00    -0.003 C 
ATOM      9  C   UNL     1      85.855  84.617  86.369  1.00  0.00     0.004 C 
ENDBRANCH   7   8
ENDBRANCH   6   7
ENDBRANCH   5   6
ENDBRANCH   2   5
ENDBRANCH   1   2
BRANCH   1  10
ATOM     10  C   UNL     1      91.139  79.098  84.467  1.00  0.00     0.135 C 
ATOM     11  O   UNL     1      90.845  77.909  84.337  1.00  0.00    -0.300 OA
BRANCH  10  12
ATOM     12  C   UNL     1      92.154  79.578  85.492  1.00  0.00     0.080 C 
BRANCH  12  13
ATOM     13  C   UNL     1      93.533  79.876  84.899  1.00  0.00     0.043 C 
BRANCH  13  14
ATOM     14  C   UNL     1      93.836  81.353  84.819  1.00  0.00    -0.044 A 
ATOM     15  C   UNL     1      94.818  81.817  83.943  1.00  0.00     0.054 A 
ATOM     16  C   UNL     1      93.134  82.254  85.620  1.00  0.00     0.008 A 
ATOM     17  C   UNL     1      95.097  83.182  83.869  1.00  0.00     0.160 A 
ATOM     18  C   UNL     1      93.412  83.618  85.547  1.00  0.00     0.050 A 
ATOM     19  C   UNL     1      94.394  84.083  84.671  1.00  0.00     0.157 A 
BRANCH  17  20
ATOM     20  O   UNL     1      96.058  83.624  83.011  1.00  0.00    -0.493 OA
ATOM     21  C   UNL     1      97.057  82.684  82.618  1.00  0.00     0.278 C 
ENDBRANCH  17  20
BRANCH  19  22
ATOM     22  O   UNL     1      94.658  85.417  84.608  1.00  0.00    -0.504 OA
ATOM     23  H   UNL     1      95.621  85.549  84.567  1.00  0.00     0.293 HD
ENDBRANCH  19  22
ENDBRANCH  13  14
ENDBRANCH  12  13
ENDBRANCH  10  12
ENDBRANCH   1  10
TORSDOF 12
ENDMDL
MODEL 4
REMARK VINA RESULT:    -5.583     23.373     24.409
REMARK INTER + INTRA:         -10.229
REMARK INTER:                  -9.443
REMARK INTRA:                  -0.786
REMARK UNBOUND:                -1.056
REMARK SMILES CCCCC[C@H](O)CC(=O)CCc1ccc(O)c(OC)c1
REMARK SMILES IDX 8 1 6 2 7 3 5 5 4 6 3 7 2 8 1 9 9 10 10 11 11 12 12 13 13 14
REMARK SMILES IDX 21 15 14 16 18 17 15 18 16 19 19 20 20 21 17 22
REMARK H PARENT 7 4 17 23
REMARK Flexibility Score: inf
ROOT
ATOM      1  C   UNL     1      79.816  65.550  71.897  1.00  0.00     0.107 C 
ENDROOT
BRANCH   1   2
ATOM      2  C   UNL     1      79.740  65.697  70.375  1.00  0.00     0.121 C 
BRANCH   2   3
ATOM      3  O   UNL     1      81.020  66.053  69.859  1.00  0.00    -0.393 OA
ATOM      4  H   UNL     1      81.583  65.260  69.887  1.00  0.00     0.210 HD
ENDBRANCH   2   3
BRANCH   2   5
ATOM      5  C   UNL     1      79.250  64.424  69.673  1.00  0.00     0.032 C 
BRANCH   5   6
ATOM      6  C   UNL     1      78.001  64.680  68.820  1.00  0.00     0.003 C 
BRANCH   6   7
ATOM      7  C   UNL     1      77.851  63.698  67.654  1.00  0.00    -0.000 C 
BRANCH   7   8
ATOM      8  C   UNL     1      76.717  64.055  66.695  1.00  0.00    -0.003 C 
ATOM      9  C   UNL     1      76.525  65.560  66.599  1.00  0.00     0.004 C 
ENDBRANCH   7   8
ENDBRANCH   6   7
ENDBRANCH   5   6
ENDBRANCH   2   5
ENDBRANCH   1   2
BRANCH   1  10
ATOM     10  C   UNL     1      81.238  65.606  72.430  1.00  0.00     0.135 C 
ATOM     11  O   UNL     1      82.102  64.837  72.010  1.00  0.00    -0.300 OA
BRANCH  10  12
ATOM     12  C   UNL     1      81.537  66.682  73.463  1.00  0.00     0.080 C 
BRANCH  12  13
ATOM     13  C   UNL     1      82.811  66.423  74.269  1.00  0.00     0.043 C 
BRANCH  13  14
ATOM     14  C   UNL     1      83.858  67.495  74.081  1.00  0.00    -0.044 A 
ATOM     15  C   UNL     1      84.718  67.823  75.129  1.00  0.00     0.054 A 
ATOM     16  C   UNL     1      83.966  68.157  72.857  1.00  0.00     0.008 A 
ATOM     17  C   UNL     1      85.685  68.813  74.954  1.00  0.00     0.160 A 
ATOM     18  C   UNL     1      84.933  69.147  72.682  1.00  0.00     0.050 A 
ATOM     19  C   UNL     1      85.793  69.475  73.731  1.00  0.00     0.157 A 
BRANCH  17  20
ATOM     20  O   UNL     1      86.518  69.125  75.986  1.00  0.00    -0.493 OA
ATOM     21  C   UNL     1      87.587  68.218  76.253  1.00  0.00     0.278 C 
ENDBRANCH  17  20
BRANCH  19  22
ATOM     22  O   UNL     1      86.733  70.443  73.548  1.00  0.00    -0.504 OA
ATOM     23  H   UNL     1      87.609  70.025  73.482  1.00  0.00     0.293 HD
ENDBRANCH  19  22
ENDBRANCH  13  14
ENDBRANCH  12  13
ENDBRANCH  10  12
ENDBRANCH   1  10
TORSDOF 12
ENDMDL
MODEL 5
REMARK VINA RESULT:    -5.558      2.703      4.910
REMARK INTER + INTRA:         -10.188
REMARK INTER:                  -9.426
REMARK INTRA:                  -0.762
REMARK UNBOUND:                -1.056
REMARK SMILES CCCCC[C@H](O)CC(=O)CCc1ccc(O)c(OC)c1
REMARK SMILES IDX 8 1 6 2 7 3 5 5 4 6 3 7 2 8 1 9 9 10 10 11 11 12 12 13 13 14
REMARK SMILES IDX 21 15 14 16 18 17 15 18 16 19 19 20 20 21 17 22
REMARK H PARENT 7 4 17 23
REMARK Flexibility Score: inf
ROOT
ATOM      1  C   UNL     1      98.116  84.025  75.988  1.00  0.00     0.107 C 
ENDROOT
BRANCH   1   2
ATOM      2  C   UNL     1      97.894  83.643  74.523  1.00  0.00     0.121 C 
BRANCH   2   3
ATOM      3  O   UNL     1      97.005  84.574  73.910  1.00  0.00    -0.393 OA
ATOM      4  H   UNL     1      97.543  85.223  73.423  1.00  0.00     0.210 HD
ENDBRANCH   2   3
BRANCH   2   5
ATOM      5  C   UNL     1      99.196  83.580  73.714  1.00  0.00     0.032 C 
BRANCH   5   6
ATOM      6  C   UNL     1      99.356  84.789  72.785  1.00  0.00     0.003 C 
BRANCH   6   7
ATOM      7  C   UNL     1     100.421  85.783  73.259  1.00  0.00    -0.000 C 
BRANCH   7   8
ATOM      8  C   UNL     1     101.032  85.425  74.613  1.00  0.00    -0.003 C 
ATOM      9  C   UNL     1     102.405  86.055  74.785  1.00  0.00     0.004 C 
ENDBRANCH   7   8
ENDBRANCH   6   7
ENDBRANCH   5   6
ENDBRANCH   2   5
ENDBRANCH   1   2
BRANCH   1  10
ATOM     10  C   UNL     1      96.824  84.332  76.727  1.00  0.00     0.135 C 
ATOM     11  O   UNL     1      96.006  85.128  76.267  1.00  0.00    -0.300 OA
BRANCH  10  12
ATOM     12  C   UNL     1      96.583  83.574  78.023  1.00  0.00     0.080 C 
BRANCH  12  13
ATOM     13  C   UNL     1      97.696  82.585  78.373  1.00  0.00     0.043 C 
BRANCH  13  14
ATOM     14  C   UNL     1      97.815  82.327  79.857  1.00  0.00    -0.044 A 
ATOM     15  C   UNL     1      96.870  82.859  80.735  1.00  0.00     0.054 A 
ATOM     16  C   UNL     1      98.869  81.557  80.348  1.00  0.00     0.008 A 
ATOM     17  C   UNL     1      96.980  82.620  82.105  1.00  0.00     0.160 A 
ATOM     18  C   UNL     1      98.979  81.318  81.718  1.00  0.00     0.050 A 
ATOM     19  C   UNL     1      98.035  81.850  82.596  1.00  0.00     0.157 A 
BRANCH  17  20
ATOM     20  O   UNL     1      96.052  83.145  82.953  1.00  0.00    -0.493 OA
ATOM     21  C   UNL     1      96.023  84.565  83.083  1.00  0.00     0.278 C 
ENDBRANCH  17  20
BRANCH  19  22
ATOM     22  O   UNL     1      98.153  81.609  83.932  1.00  0.00    -0.504 OA
ATOM     23  H   UNL     1      99.082  81.723  84.193  1.00  0.00     0.293 HD
ENDBRANCH  19  22
ENDBRANCH  13  14
ENDBRANCH  12  13
ENDBRANCH  10  12
ENDBRANCH   1  10
TORSDOF 12
ENDMDL
MODEL 6
REMARK VINA RESULT:    -5.495      2.130      3.048
REMARK INTER + INTRA:         -10.084
REMARK INTER:                  -9.415
REMARK INTRA:                  -0.669
REMARK UNBOUND:                -1.056
REMARK SMILES CCCCC[C@H](O)CC(=O)CCc1ccc(O)c(OC)c1
REMARK SMILES IDX 8 1 6 2 7 3 5 5 4 6 3 7 2 8 1 9 9 10 10 11 11 12 12 13 13 14
REMARK SMILES IDX 21 15 14 16 18 17 15 18 16 19 19 20 20 21 17 22
REMARK H PARENT 7 4 17 23
REMARK Flexibility Score: inf
ROOT
ATOM      1  C   UNL     1      97.425  81.688  79.762  1.00  0.00     0.107 C 
ENDROOT
BRANCH   1   2
ATOM      2  C   UNL     1      97.048  83.170  79.693  1.00  0.00     0.121 C 
BRANCH   2   3
ATOM      3  O   UNL     1      98.176  83.972  80.032  1.00  0.00    -0.393 OA
ATOM      4  H   UNL     1      98.605  84.247  79.202  1.00  0.00     0.210 HD
ENDBRANCH   2   3
BRANCH   2   5
ATOM      5  C   UNL     1      96.522  83.592  78.316  1.00  0.00     0.032 C 
BRANCH   5   6
ATOM      6  C   UNL     1      97.640  83.658  77.268  1.00  0.00     0.003 C 
BRANCH   6   7
ATOM      7  C   UNL     1      97.204  84.321  75.957  1.00  0.00    -0.000 C 
BRANCH   7   8
ATOM      8  C   UNL     1      98.283  84.307  74.876  1.00  0.00    -0.003 C 
ATOM      9  C   UNL     1      97.710  83.905  73.526  1.00  0.00     0.004 C 
ENDBRANCH   7   8
ENDBRANCH   6   7
ENDBRANCH   5   6
ENDBRANCH   2   5
ENDBRANCH   1   2
BRANCH   1  10
ATOM     10  C   UNL     1      97.807  81.234  81.161  1.00  0.00     0.135 C 
ATOM     11  O   UNL     1      98.968  81.327  81.561  1.00  0.00    -0.300 OA
BRANCH  10  12
ATOM     12  C   UNL     1      96.682  80.711  82.040  1.00  0.00     0.080 C 
BRANCH  12  13
ATOM     13  C   UNL     1      96.153  81.741  83.041  1.00  0.00     0.043 C 
BRANCH  13  14
ATOM     14  C   UNL     1      95.050  81.200  83.919  1.00  0.00    -0.044 A 
ATOM     15  C   UNL     1      93.905  81.963  84.149  1.00  0.00     0.054 A 
ATOM     16  C   UNL     1      95.177  79.938  84.500  1.00  0.00     0.008 A 
ATOM     17  C   UNL     1      92.886  81.462  84.960  1.00  0.00     0.160 A 
ATOM     18  C   UNL     1      94.158  79.438  85.311  1.00  0.00     0.050 A 
ATOM     19  C   UNL     1      93.012  80.200  85.541  1.00  0.00     0.157 A 
BRANCH  17  20
ATOM     20  O   UNL     1      91.772  82.216  85.178  1.00  0.00    -0.493 OA
ATOM     21  C   UNL     1      90.700  82.073  84.248  1.00  0.00     0.278 C 
ENDBRANCH  17  20
BRANCH  19  22
ATOM     22  O   UNL     1      92.024  79.701  86.334  1.00  0.00    -0.504 OA
ATOM     23  H   UNL     1      91.649  78.909  85.912  1.00  0.00     0.293 HD
ENDBRANCH  19  22
ENDBRANCH  13  14
ENDBRANCH  12  13
ENDBRANCH  10  12
ENDBRANCH   1  10
TORSDOF 12
ENDMDL
MODEL 7
REMARK VINA RESULT:    -5.477      2.826      5.169
REMARK INTER + INTRA:         -10.055
REMARK INTER:                  -9.067
REMARK INTRA:                  -0.989
REMARK UNBOUND:                -1.056
REMARK SMILES CCCCC[C@H](O)CC(=O)CCc1ccc(O)c(OC)c1
REMARK SMILES IDX 8 1 6 2 7 3 5 5 4 6 3 7 2 8 1 9 9 10 10 11 11 12 12 13 13 14
REMARK SMILES IDX 21 15 14 16 18 17 15 18 16 19 19 20 20 21 17 22
REMARK H PARENT 7 4 17 23
REMARK Flexibility Score: inf
ROOT
ATOM      1  C   UNL     1      98.055  83.913  75.966  1.00  0.00     0.107 C 
ENDROOT
BRANCH   1   2
ATOM      2  C   UNL     1      97.827  83.372  74.552  1.00  0.00     0.121 C 
BRANCH   2   3
ATOM      3  O   UNL     1      97.070  84.311  73.792  1.00  0.00    -0.393 OA
ATOM      4  H   UNL     1      97.533  85.166  73.830  1.00  0.00     0.210 HD
ENDBRANCH   2   3
BRANCH   2   5
ATOM      5  C   UNL     1      99.133  83.059  73.812  1.00  0.00     0.032 C 
BRANCH   5   6
ATOM      6  C   UNL     1      99.450  84.103  72.734  1.00  0.00     0.003 C 
BRANCH   6   7
ATOM      7  C   UNL     1     100.754  84.865  72.992  1.00  0.00    -0.000 C 
BRANCH   7   8
ATOM      8  C   UNL     1     100.688  85.802  74.196  1.00  0.00    -0.003 C 
ATOM      9  C   UNL     1     102.002  85.814  74.962  1.00  0.00     0.004 C 
ENDBRANCH   7   8
ENDBRANCH   6   7
ENDBRANCH   5   6
ENDBRANCH   2   5
ENDBRANCH   1   2
BRANCH   1  10
ATOM     10  C   UNL     1      96.767  84.323  76.661  1.00  0.00     0.135 C 
ATOM     11  O   UNL     1      96.038  85.192  76.182  1.00  0.00    -0.300 OA
BRANCH  10  12
ATOM     12  C   UNL     1      96.413  83.577  77.938  1.00  0.00     0.080 C 
BRANCH  12  13
ATOM     13  C   UNL     1      97.527  82.656  78.441  1.00  0.00     0.043 C 
BRANCH  13  14
ATOM     14  C   UNL     1      97.358  82.258  79.888  1.00  0.00    -0.044 A 
ATOM     15  C   UNL     1      97.660  80.958  80.294  1.00  0.00     0.054 A 
ATOM     16  C   UNL     1      96.901  83.192  80.818  1.00  0.00     0.008 A 
ATOM     17  C   UNL     1      97.504  80.593  81.631  1.00  0.00     0.160 A 
ATOM     18  C   UNL     1      96.746  82.826  82.156  1.00  0.00     0.050 A 
ATOM     19  C   UNL     1      97.047  81.526  82.562  1.00  0.00     0.157 A 
BRANCH  17  20
ATOM     20  O   UNL     1      97.801  79.320  82.016  1.00  0.00    -0.493 OA
ATOM     21  C   UNL     1      96.968  78.279  81.510  1.00  0.00     0.278 C 
ENDBRANCH  17  20
BRANCH  19  22
ATOM     22  O   UNL     1      96.891  81.181  83.870  1.00  0.00    -0.504 OA
ATOM     23  H   UNL     1      97.449  80.407  84.062  1.00  0.00     0.293 HD
ENDBRANCH  19  22
ENDBRANCH  13  14
ENDBRANCH  12  13
ENDBRANCH  10  12
ENDBRANCH   1  10
TORSDOF 12
ENDMDL
MODEL 8
REMARK VINA RESULT:    -5.447      2.359      8.062
REMARK INTER + INTRA:         -10.005
REMARK INTER:                  -9.041
REMARK INTRA:                  -0.964
REMARK UNBOUND:                -1.056
REMARK SMILES CCCCC[C@H](O)CC(=O)CCc1ccc(O)c(OC)c1
REMARK SMILES IDX 8 1 6 2 7 3 5 5 4 6 3 7 2 8 1 9 9 10 10 11 11 12 12 13 13 14
REMARK SMILES IDX 21 15 14 16 18 17 15 18 16 19 19 20 20 21 17 22
REMARK H PARENT 7 4 17 23
REMARK Flexibility Score: inf
ROOT
ATOM      1  C   UNL     1      97.115  80.934  81.004  1.00  0.00     0.107 C 
ENDROOT
BRANCH   1   2
ATOM      2  C   UNL     1      96.556  81.031  82.426  1.00  0.00     0.121 C 
BRANCH   2   3
ATOM      3  O   UNL     1      97.518  80.544  83.358  1.00  0.00    -0.393 OA
ATOM      4  H   UNL     1      98.083  81.291  83.620  1.00  0.00     0.210 HD
ENDBRANCH   2   3
BRANCH   2   5
ATOM      5  C   UNL     1      96.152  82.458  82.816  1.00  0.00     0.032 C 
BRANCH   5   6
ATOM      6  C   UNL     1      95.576  82.527  84.236  1.00  0.00     0.003 C 
BRANCH   6   7
ATOM      7  C   UNL     1      94.056  82.714  84.265  1.00  0.00    -0.000 C 
BRANCH   7   8
ATOM      8  C   UNL     1      93.289  81.439  84.611  1.00  0.00    -0.003 C 
ATOM      9  C   UNL     1      91.816  81.564  84.253  1.00  0.00     0.004 C 
ENDBRANCH   7   8
ENDBRANCH   6   7
ENDBRANCH   5   6
ENDBRANCH   2   5
ENDBRANCH   1   2
BRANCH   1  10
ATOM     10  C   UNL     1      98.452  81.637  80.841  1.00  0.00     0.135 C 
ATOM     11  O   UNL     1      99.478  81.168  81.334  1.00  0.00    -0.300 OA
BRANCH  10  12
ATOM     12  C   UNL     1      98.456  82.910  80.008  1.00  0.00     0.080 C 
BRANCH  12  13
ATOM     13  C   UNL     1      97.138  83.170  79.276  1.00  0.00     0.043 C 
BRANCH  13  14
ATOM     14  C   UNL     1      97.332  83.603  77.843  1.00  0.00    -0.044 A 
ATOM     15  C   UNL     1      98.501  83.261  77.162  1.00  0.00     0.054 A 
ATOM     16  C   UNL     1      96.342  84.346  77.199  1.00  0.00     0.008 A 
ATOM     17  C   UNL     1      98.678  83.660  75.838  1.00  0.00     0.160 A 
ATOM     18  C   UNL     1      96.519  84.745  75.874  1.00  0.00     0.050 A 
ATOM     19  C   UNL     1      97.688  84.403  75.194  1.00  0.00     0.157 A 
BRANCH  17  20
ATOM     20  O   UNL     1      99.824  83.321  75.183  1.00  0.00    -0.493 OA
ATOM     21  C   UNL     1      99.837  82.063  74.511  1.00  0.00     0.278 C 
ENDBRANCH  17  20
BRANCH  19  22
ATOM     22  O   UNL     1      97.850  84.799  73.901  1.00  0.00    -0.504 OA
ATOM     23  H   UNL     1      97.079  84.511  73.382  1.00  0.00     0.293 HD
ENDBRANCH  19  22
ENDBRANCH  13  14
ENDBRANCH  12  13
ENDBRANCH  10  12
ENDBRANCH   1  10
TORSDOF 12
ENDMDL
MODEL 9
REMARK VINA RESULT:    -5.433      2.624      5.596
REMARK INTER + INTRA:          -9.983
REMARK INTER:                  -8.942
REMARK INTRA:                  -1.040
REMARK UNBOUND:                -1.056
REMARK SMILES CCCCC[C@H](O)CC(=O)CCc1ccc(O)c(OC)c1
REMARK SMILES IDX 8 1 6 2 7 3 5 5 4 6 3 7 2 8 1 9 9 10 10 11 11 12 12 13 13 14
REMARK SMILES IDX 21 15 14 16 18 17 15 18 16 19 19 20 20 21 17 22
REMARK H PARENT 7 4 17 23
REMARK Flexibility Score: inf
ROOT
ATOM      1  C   UNL     1      97.662  83.816  74.045  1.00  0.00     0.107 C 
ENDROOT
BRANCH   1   2
ATOM      2  C   UNL     1      98.553  84.922  73.473  1.00  0.00     0.121 C 
BRANCH   2   3
ATOM      3  O   UNL     1      99.131  85.676  74.536  1.00  0.00    -0.393 OA
ATOM      4  H   UNL     1      99.220  85.085  75.305  1.00  0.00     0.210 HD
ENDBRANCH   2   3
BRANCH   2   5
ATOM      5  C   UNL     1      99.669  84.386  72.569  1.00  0.00     0.032 C 
BRANCH   5   6
ATOM      6  C   UNL     1     100.313  83.116  73.139  1.00  0.00     0.003 C 
BRANCH   6   7
ATOM      7  C   UNL     1     100.605  82.053  72.075  1.00  0.00    -0.000 C 
BRANCH   7   8
ATOM      8  C   UNL     1      99.605  82.054  70.920  1.00  0.00    -0.003 C 
ATOM      9  C   UNL     1      98.368  81.237  71.258  1.00  0.00     0.004 C 
ENDBRANCH   7   8
ENDBRANCH   6   7
ENDBRANCH   5   6
ENDBRANCH   2   5
ENDBRANCH   1   2
BRANCH   1  10
ATOM     10  C   UNL     1      97.086  84.161  75.409  1.00  0.00     0.135 C 
ATOM     11  O   UNL     1      96.329  85.121  75.552  1.00  0.00    -0.300 OA
BRANCH  10  12
ATOM     12  C   UNL     1      97.458  83.238  76.559  1.00  0.00     0.080 C 
BRANCH  12  13
ATOM     13  C   UNL     1      96.770  83.592  77.879  1.00  0.00     0.043 C 
BRANCH  13  14
ATOM     14  C   UNL     1      97.455  82.990  79.083  1.00  0.00    -0.044 A 
ATOM     15  C   UNL     1      96.942  83.214  80.361  1.00  0.00     0.054 A 
ATOM     16  C   UNL     1      98.600  82.211  78.917  1.00  0.00     0.008 A 
ATOM     17  C   UNL     1      97.575  82.657  81.473  1.00  0.00     0.160 A 
ATOM     18  C   UNL     1      99.233  81.654  80.029  1.00  0.00     0.050 A 
ATOM     19  C   UNL     1      98.720  81.878  81.307  1.00  0.00     0.157 A 
BRANCH  17  20
ATOM     20  O   UNL     1      97.066  82.882  82.716  1.00  0.00    -0.493 OA
ATOM     21  C   UNL     1      95.943  82.095  83.109  1.00  0.00     0.278 C 
ENDBRANCH  17  20
BRANCH  19  22
ATOM     22  O   UNL     1      99.346  81.329  82.384  1.00  0.00    -0.504 OA
ATOM     23  H   UNL     1      98.717  80.762  82.862  1.00  0.00     0.293 HD
ENDBRANCH  19  22
ENDBRANCH  13  14
ENDBRANCH  12  13
ENDBRANCH  10  12
ENDBRANCH   1  10
TORSDOF 12
ENDMDL
MODEL 10
REMARK VINA RESULT:    -5.413      2.922      5.378
REMARK INTER + INTRA:          -9.949
REMARK INTER:                  -8.712
REMARK INTRA:                  -1.237
REMARK UNBOUND:                -1.056
REMARK SMILES CCCCC[C@H](O)CC(=O)CCc1ccc(O)c(OC)c1
REMARK SMILES IDX 8 1 6 2 7 3 5 5 4 6 3 7 2 8 1 9 9 10 10 11 11 12 12 13 13 14
REMARK SMILES IDX 21 15 14 16 18 17 15 18 16 19 19 20 20 21 17 22
REMARK H PARENT 7 4 17 23
REMARK Flexibility Score: inf
ROOT
ATOM      1  C   UNL     1      98.729  83.960  75.983  1.00  0.00     0.107 C 
ENDROOT
BRANCH   1   2
ATOM      2  C   UNL     1      99.123  84.315  74.547  1.00  0.00     0.121 C 
BRANCH   2   3
ATOM      3  O   UNL     1      99.101  85.730  74.375  1.00  0.00    -0.393 OA
ATOM      4  H   UNL     1      99.852  86.101  74.871  1.00  0.00     0.210 HD
ENDBRANCH   2   3
BRANCH   2   5
ATOM      5  C   UNL     1     100.506  83.780  74.155  1.00  0.00     0.032 C 
BRANCH   5   6
ATOM      6  C   UNL     1     101.422  83.603  75.372  1.00  0.00     0.003 C 
BRANCH   6   7
ATOM      7  C   UNL     1     101.755  82.138  75.673  1.00  0.00    -0.000 C 
BRANCH   7   8
ATOM      8  C   UNL     1     101.613  81.768  77.148  1.00  0.00    -0.003 C 
ATOM      9  C   UNL     1     102.962  81.444  77.771  1.00  0.00     0.004 C 
ENDBRANCH   7   8
ENDBRANCH   6   7
ENDBRANCH   5   6
ENDBRANCH   2   5
ENDBRANCH   1   2
BRANCH   1  10
ATOM     10  C   UNL     1      97.227  83.993  76.213  1.00  0.00     0.135 C 
ATOM     11  O   UNL     1      96.502  84.740  75.557  1.00  0.00    -0.300 OA
BRANCH  10  12
ATOM     12  C   UNL     1      96.675  83.029  77.253  1.00  0.00     0.080 C 
BRANCH  12  13
ATOM     13  C   UNL     1      96.539  83.643  78.648  1.00  0.00     0.043 C 
BRANCH  13  14
ATOM     14  C   UNL     1      97.390  82.949  79.686  1.00  0.00    -0.044 A 
ATOM     15  C   UNL     1      96.986  82.931  81.021  1.00  0.00     0.054 A 
ATOM     16  C   UNL     1      98.580  82.327  79.308  1.00  0.00     0.008 A 
ATOM     17  C   UNL     1      97.772  82.289  81.978  1.00  0.00     0.160 A 
ATOM     18  C   UNL     1      99.366  81.686  80.265  1.00  0.00     0.050 A 
ATOM     19  C   UNL     1      98.963  81.667  81.600  1.00  0.00     0.157 A 
BRANCH  17  20
ATOM     20  O   UNL     1      97.368  82.278  83.279  1.00  0.00    -0.493 OA
ATOM     21  C   UNL     1      96.213  83.049  83.605  1.00  0.00     0.278 C 
ENDBRANCH  17  20
BRANCH  19  22
ATOM     22  O   UNL     1      99.739  81.038  82.526  1.00  0.00    -0.504 OA
ATOM     23  H   UNL     1     100.365  80.451  82.068  1.00  0.00     0.293 HD
ENDBRANCH  19  22
ENDBRANCH  13  14
ENDBRANCH  12  13
ENDBRANCH  10  12
ENDBRANCH   1  10
TORSDOF 12
ENDMDL
