MODEL 1
REMARK VINA RESULT:    -6.665      0.000      0.000
REMARK INTER + INTRA:         -10.919
REMARK INTER:                 -10.367
REMARK INTRA:                  -0.551
REMARK UNBOUND:                -0.551
REMARK SMILES COc1cc(CNC(=O)CCCCCC(C)C)ccc1O
REMARK SMILES IDX 10 1 8 2 7 3 9 5 6 6 5 7 3 8 20 9 4 10 19 11 18 12 2 13 1 14
REMARK SMILES IDX 21 15 11 17 12 18 13 19 14 20 15 21 16 22 17 23
REMARK H PARENT 7 4 21 16
REMARK Flexibility Score: inf
ROOT
ATOM      1  C   UNL     1      93.617  82.702  84.388  1.00  0.00     0.100 C 
ENDROOT
BRANCH   1   2
ATOM      2  C   UNL     1      92.476  82.009  85.023  1.00  0.00     0.220 C 
ATOM      3  N   UNL     1      91.344  81.780  84.299  1.00  0.00    -0.352 N 
ATOM      4  H   UNL     1      91.320  82.230  83.395  1.00  0.00     0.163 HD
ATOM      5  O   UNL     1      92.590  81.608  86.207  1.00  0.00    -0.275 OA
BRANCH   3   6
ATOM      6  C   UNL     1      90.243  80.978  84.727  1.00  0.00     0.151 C 
BRANCH   6   7
ATOM      7  C   UNL     1      88.931  81.476  84.233  1.00  0.00    -0.025 A 
ATOM      8  C   UNL     1      87.189  83.210  84.188  1.00  0.00     0.160 A 
ATOM      9  C   UNL     1      86.464  82.454  83.242  1.00  0.00     0.157 A 
ATOM     10  C   UNL     1      88.408  82.708  84.691  1.00  0.00     0.056 A 
ATOM     11  C   UNL     1      86.962  81.215  82.800  1.00  0.00     0.050 A 
ATOM     12  C   UNL     1      88.188  80.732  83.287  1.00  0.00     0.009 A 
BRANCH   8  13
ATOM     13  O   UNL     1      86.711  84.410  84.646  1.00  0.00    -0.493 OA
ATOM     14  C   UNL     1      86.241  84.368  86.007  1.00  0.00     0.278 C 
ENDBRANCH   8  13
BRANCH   9  15
ATOM     15  O   UNL     1      85.290  82.927  82.753  1.00  0.00    -0.504 OA
ATOM     16  H   UNL     1      85.458  83.697  82.205  1.00  0.00     0.293 HD
ENDBRANCH   9  15
ENDBRANCH   6   7
ENDBRANCH   3   6
ENDBRANCH   1   2
BRANCH   1  17
ATOM     17  C   UNL     1      94.833  81.785  84.087  1.00  0.00     0.010 C 
BRANCH  17  18
ATOM     18  C   UNL     1      95.981  82.567  83.391  1.00  0.00     0.001 C 
BRANCH  18  19
ATOM     19  C   UNL     1      97.392  82.017  83.726  1.00  0.00     0.000 C 
BRANCH  19  20
ATOM     20  C   UNL     1      98.106  81.426  82.476  1.00  0.00     0.003 C 
BRANCH  20  21
ATOM     21  C   UNL     1      97.186  81.214  81.230  1.00  0.00    -0.017 C 
ATOM     22  C   UNL     1      97.429  79.814  80.593  1.00  0.00     0.007 C 
ATOM     23  C   UNL     1      97.358  82.326  80.155  1.00  0.00     0.007 C 
ENDBRANCH  20  21
ENDBRANCH  19  20
ENDBRANCH  18  19
ENDBRANCH  17  18
ENDBRANCH   1  17
TORSDOF 10
ENDMDL
MODEL 2
REMARK VINA RESULT:    -6.238      1.861      2.749
REMARK INTER + INTRA:         -10.253
REMARK INTER:                  -9.727
REMARK INTRA:                  -0.527
REMARK UNBOUND:                -0.551
REMARK SMILES COc1cc(CNC(=O)CCCCCC(C)C)ccc1O
REMARK SMILES IDX 10 1 8 2 7 3 9 5 6 6 5 7 3 8 20 9 4 10 19 11 18 12 2 13 1 14
REMARK SMILES IDX 21 15 11 17 12 18 13 19 14 20 15 21 16 22 17 23
REMARK H PARENT 7 4 21 16
REMARK Flexibility Score: inf
ROOT
ATOM      1  C   UNL     1      95.598  81.806  83.436  1.00  0.00     0.100 C 
ENDROOT
BRANCH   1   2
ATOM      2  C   UNL     1      94.465  82.549  84.028  1.00  0.00     0.220 C 
ATOM      3  N   UNL     1      93.235  81.965  84.077  1.00  0.00    -0.352 N 
ATOM      4  H   UNL     1      93.157  81.093  83.572  1.00  0.00     0.163 HD
ATOM      5  O   UNL     1      94.671  83.688  84.512  1.00  0.00    -0.275 OA
BRANCH   3   6
ATOM      6  C   UNL     1      92.102  82.492  84.769  1.00  0.00     0.151 C 
BRANCH   6   7
ATOM      7  C   UNL     1      90.853  81.726  84.513  1.00  0.00    -0.025 A 
ATOM      8  C   UNL     1      88.398  81.624  84.406  1.00  0.00     0.160 A 
ATOM      9  C   UNL     1      88.475  80.287  83.962  1.00  0.00     0.157 A 
ATOM     10  C   UNL     1      89.586  82.329  84.697  1.00  0.00     0.056 A 
ATOM     11  C   UNL     1      89.729  79.669  83.802  1.00  0.00     0.050 A 
ATOM     12  C   UNL     1      90.909  80.384  84.070  1.00  0.00     0.009 A 
BRANCH   8  13
ATOM     13  O   UNL     1      87.187  82.238  84.587  1.00  0.00    -0.493 OA
ATOM     14  C   UNL     1      86.752  83.013  83.454  1.00  0.00     0.278 C 
ENDBRANCH   8  13
BRANCH   9  15
ATOM     15  O   UNL     1      87.340  79.600  83.682  1.00  0.00    -0.504 OA
ATOM     16  H   UNL     1      87.133  79.689  82.749  1.00  0.00     0.293 HD
ENDBRANCH   9  15
ENDBRANCH   6   7
ENDBRANCH   3   6
ENDBRANCH   1   2
BRANCH   1  17
ATOM     17  C   UNL     1      96.786  82.701  82.992  1.00  0.00     0.010 C 
BRANCH  17  18
ATOM     18  C   UNL     1      96.642  83.151  81.512  1.00  0.00     0.001 C 
BRANCH  18  19
ATOM     19  C   UNL     1      97.922  82.912  80.668  1.00  0.00     0.000 C 
BRANCH  19  20
ATOM     20  C   UNL     1      97.756  81.729  79.670  1.00  0.00     0.003 C 
BRANCH  20  21
ATOM     21  C   UNL     1      97.291  82.137  78.234  1.00  0.00    -0.017 C 
ATOM     22  C   UNL     1      97.928  81.207  77.159  1.00  0.00     0.007 C 
ATOM     23  C   UNL     1      97.595  83.626  77.900  1.00  0.00     0.007 C 
ENDBRANCH  20  21
ENDBRANCH  19  20
ENDBRANCH  18  19
ENDBRANCH  17  18
ENDBRANCH   1  17
TORSDOF 10
ENDMDL
MODEL 3
REMARK VINA RESULT:    -6.120     19.826     23.240
REMARK INTER + INTRA:         -10.070
REMARK INTER:                  -9.560
REMARK INTRA:                  -0.511
REMARK UNBOUND:                -0.551
REMARK SMILES COc1cc(CNC(=O)CCCCCC(C)C)ccc1O
REMARK SMILES IDX 10 1 8 2 7 3 9 5 6 6 5 7 3 8 20 9 4 10 19 11 18 12 2 13 1 14
REMARK SMILES IDX 21 15 11 17 12 18 13 19 14 20 15 21 16 22 17 23
REMARK H PARENT 7 4 21 16
REMARK Flexibility Score: inf
ROOT
ATOM      1  C   UNL     1      80.268  65.726  71.126  1.00  0.00     0.100 C 
ENDROOT
BRANCH   1   2
ATOM      2  C   UNL     1      80.830  65.999  72.465  1.00  0.00     0.220 C 
ATOM      3  N   UNL     1      82.071  65.532  72.779  1.00  0.00    -0.352 N 
ATOM      4  H   UNL     1      82.474  64.904  72.098  1.00  0.00     0.163 HD
ATOM      5  O   UNL     1      80.167  66.694  73.273  1.00  0.00    -0.275 OA
BRANCH   3   6
ATOM      6  C   UNL     1      82.800  65.866  73.960  1.00  0.00     0.151 C 
BRANCH   6   7
ATOM      7  C   UNL     1      83.704  67.034  73.779  1.00  0.00    -0.025 A 
ATOM      8  C   UNL     1      85.402  68.574  74.668  1.00  0.00     0.160 A 
ATOM      9  C   UNL     1      85.473  69.216  73.414  1.00  0.00     0.157 A 
ATOM     10  C   UNL     1      84.505  67.500  74.848  1.00  0.00     0.056 A 
ATOM     11  C   UNL     1      84.662  68.778  72.351  1.00  0.00     0.050 A 
ATOM     12  C   UNL     1      83.788  67.692  72.530  1.00  0.00     0.009 A 
BRANCH   8  13
ATOM     13  O   UNL     1      86.169  68.998  75.721  1.00  0.00    -0.493 OA
ATOM     14  C   UNL     1      87.281  68.131  76.017  1.00  0.00     0.278 C 
ENDBRANCH   8  13
BRANCH   9  15
ATOM     15  O   UNL     1      86.331  70.251  73.231  1.00  0.00    -0.504 OA
ATOM     16  H   UNL     1      87.231  69.949  73.368  1.00  0.00     0.293 HD
ENDBRANCH   9  15
ENDBRANCH   6   7
ENDBRANCH   3   6
ENDBRANCH   1   2
BRANCH   1  17
ATOM     17  C   UNL     1      80.823  64.442  70.451  1.00  0.00     0.010 C 
BRANCH  17  18
ATOM     18  C   UNL     1      79.806  63.841  69.441  1.00  0.00     0.001 C 
BRANCH  18  19
ATOM     19  C   UNL     1      78.464  64.618  69.382  1.00  0.00     0.000 C 
BRANCH  19  20
ATOM     20  C   UNL     1      77.741  64.440  68.016  1.00  0.00     0.003 C 
BRANCH  20  21
ATOM     21  C   UNL     1      76.327  65.101  67.926  1.00  0.00    -0.017 C 
ATOM     22  C   UNL     1      75.204  64.044  68.142  1.00  0.00     0.007 C 
ATOM     23  C   UNL     1      76.098  65.857  66.586  1.00  0.00     0.007 C 
ENDBRANCH  20  21
ENDBRANCH  19  20
ENDBRANCH  18  19
ENDBRANCH  17  18
ENDBRANCH   1  17
TORSDOF 10
ENDMDL
MODEL 4
REMARK VINA RESULT:    -6.042     21.049     24.514
REMARK INTER + INTRA:          -9.948
REMARK INTER:                  -9.383
REMARK INTRA:                  -0.566
REMARK UNBOUND:                -0.551
REMARK SMILES COc1cc(CNC(=O)CCCCCC(C)C)ccc1O
REMARK SMILES IDX 10 1 8 2 7 3 9 5 6 6 5 7 3 8 20 9 4 10 19 11 18 12 2 13 1 14
REMARK SMILES IDX 21 15 11 17 12 18 13 19 14 20 15 21 16 22 17 23
REMARK H PARENT 7 4 21 16
REMARK Flexibility Score: inf
ROOT
ATOM      1  C   UNL     1      80.000  65.249  69.548  1.00  0.00     0.100 C 
ENDROOT
BRANCH   1   2
ATOM      2  C   UNL     1      80.004  65.886  70.882  1.00  0.00     0.220 C 
ATOM      3  N   UNL     1      81.017  65.613  71.751  1.00  0.00    -0.352 N 
ATOM      4  H   UNL     1      81.640  64.873  71.459  1.00  0.00     0.163 HD
ATOM      5  O   UNL     1      79.093  66.700  71.170  1.00  0.00    -0.275 OA
BRANCH   3   6
ATOM      6  C   UNL     1      81.238  66.283  72.992  1.00  0.00     0.151 C 
BRANCH   6   7
ATOM      7  C   UNL     1      82.594  66.039  73.555  1.00  0.00    -0.025 A 
ATOM      8  C   UNL     1      84.599  66.859  74.718  1.00  0.00     0.160 A 
ATOM      9  C   UNL     1      85.146  65.559  74.687  1.00  0.00     0.157 A 
ATOM     10  C   UNL     1      83.335  67.095  74.136  1.00  0.00     0.056 A 
ATOM     11  C   UNL     1      84.429  64.507  74.088  1.00  0.00     0.050 A 
ATOM     12  C   UNL     1      83.160  64.743  73.531  1.00  0.00     0.009 A 
BRANCH   8  13
ATOM     13  O   UNL     1      85.290  67.901  75.279  1.00  0.00    -0.493 OA
ATOM     14  C   UNL     1      85.801  68.844  74.318  1.00  0.00     0.278 C 
ENDBRANCH   8  13
BRANCH   9  15
ATOM     15  O   UNL     1      86.361  65.322  75.242  1.00  0.00    -0.504 OA
ATOM     16  H   UNL     1      86.259  64.742  76.000  1.00  0.00     0.293 HD
ENDBRANCH   9  15
ENDBRANCH   6   7
ENDBRANCH   3   6
ENDBRANCH   1   2
BRANCH   1  17
ATOM     17  C   UNL     1      79.816  63.707  69.578  1.00  0.00     0.010 C 
BRANCH  17  18
ATOM     18  C   UNL     1      78.443  63.283  68.988  1.00  0.00     0.001 C 
BRANCH  18  19
ATOM     19  C   UNL     1      77.758  64.399  68.155  1.00  0.00     0.000 C 
BRANCH  19  20
ATOM     20  C   UNL     1      76.737  63.827  67.130  1.00  0.00     0.003 C 
BRANCH  20  21
ATOM     21  C   UNL     1      75.495  64.736  66.858  1.00  0.00    -0.017 C 
ATOM     22  C   UNL     1      75.937  66.165  66.426  1.00  0.00     0.007 C 
ATOM     23  C   UNL     1      74.529  64.821  68.075  1.00  0.00     0.007 C 
ENDBRANCH  20  21
ENDBRANCH  19  20
ENDBRANCH  18  19
ENDBRANCH  17  18
ENDBRANCH   1  17
TORSDOF 10
ENDMDL
MODEL 5
REMARK VINA RESULT:    -6.027     14.045     15.016
REMARK INTER + INTRA:          -9.925
REMARK INTER:                  -9.343
REMARK INTRA:                  -0.582
REMARK UNBOUND:                -0.551
REMARK SMILES COc1cc(CNC(=O)CCCCCC(C)C)ccc1O
REMARK SMILES IDX 10 1 8 2 7 3 9 5 6 6 5 7 3 8 20 9 4 10 19 11 18 12 2 13 1 14
REMARK SMILES IDX 21 15 11 17 12 18 13 19 14 20 15 21 16 22 17 23
REMARK H PARENT 7 4 21 16
REMARK Flexibility Score: inf
ROOT
ATOM      1  C   UNL     1      95.184  96.865  78.897  1.00  0.00     0.100 C 
ENDROOT
BRANCH   1   2
ATOM      2  C   UNL     1      94.598  96.106  77.772  1.00  0.00     0.220 C 
ATOM      3  N   UNL     1      93.476  96.578  77.160  1.00  0.00    -0.352 N 
ATOM      4  H   UNL     1      93.040  97.365  77.618  1.00  0.00     0.163 HD
ATOM      5  O   UNL     1      95.173  95.063  77.377  1.00  0.00    -0.275 OA
BRANCH   3   6
ATOM      6  C   UNL     1      92.908  96.045  75.963  1.00  0.00     0.151 C 
BRANCH   6   7
ATOM      7  C   UNL     1      91.900  94.981  76.217  1.00  0.00    -0.025 A 
ATOM      8  C   UNL     1      90.425  93.198  75.385  1.00  0.00     0.160 A 
ATOM      9  C   UNL     1      90.031  92.909  76.708  1.00  0.00     0.157 A 
ATOM     10  C   UNL     1      91.342  94.244  75.146  1.00  0.00     0.056 A 
ATOM     11  C   UNL     1      90.559  93.653  77.779  1.00  0.00     0.050 A 
ATOM     12  C   UNL     1      91.490  94.677  77.537  1.00  0.00     0.009 A 
BRANCH   8  13
ATOM     13  O   UNL     1      89.907  92.498  74.327  1.00  0.00    -0.493 OA
ATOM     14  C   UNL     1      90.580  91.250  74.069  1.00  0.00     0.278 C 
ENDBRANCH   8  13
BRANCH   9  15
ATOM     15  O   UNL     1      89.148  91.907  76.949  1.00  0.00    -0.504 OA
ATOM     16  H   UNL     1      88.894  91.498  76.119  1.00  0.00     0.293 HD
ENDBRANCH   9  15
ENDBRANCH   6   7
ENDBRANCH   3   6
ENDBRANCH   1   2
BRANCH   1  17
ATOM     17  C   UNL     1      96.529  96.293  79.421  1.00  0.00     0.010 C 
BRANCH  17  18
ATOM     18  C   UNL     1      96.345  95.533  80.763  1.00  0.00     0.001 C 
BRANCH  18  19
ATOM     19  C   UNL     1      97.115  96.176  81.946  1.00  0.00     0.000 C 
BRANCH  19  20
ATOM     20  C   UNL     1      98.523  95.544  82.144  1.00  0.00     0.003 C 
BRANCH  20  21
ATOM     21  C   UNL     1      99.722  96.526  81.936  1.00  0.00    -0.017 C 
ATOM     22  C   UNL     1      99.364  97.955  82.442  1.00  0.00     0.007 C 
ATOM     23  C   UNL     1     100.202  96.589  80.457  1.00  0.00     0.007 C 
ENDBRANCH  20  21
ENDBRANCH  19  20
ENDBRANCH  18  19
ENDBRANCH  17  18
ENDBRANCH   1  17
TORSDOF 10
ENDMDL
MODEL 6
REMARK VINA RESULT:    -5.907      5.083      7.876
REMARK INTER + INTRA:          -9.738
REMARK INTER:                  -9.256
REMARK INTRA:                  -0.482
REMARK UNBOUND:                -0.551
REMARK SMILES COc1cc(CNC(=O)CCCCCC(C)C)ccc1O
REMARK SMILES IDX 10 1 8 2 7 3 9 5 6 6 5 7 3 8 20 9 4 10 19 11 18 12 2 13 1 14
REMARK SMILES IDX 21 15 11 17 12 18 13 19 14 20 15 21 16 22 17 23
REMARK H PARENT 7 4 21 16
REMARK Flexibility Score: inf
ROOT
ATOM      1  C   UNL     1      96.783  83.558  78.760  1.00  0.00     0.100 C 
ENDROOT
BRANCH   1   2
ATOM      2  C   UNL     1      97.067  82.933  80.069  1.00  0.00     0.220 C 
ATOM      3  N   UNL     1      96.699  83.577  81.212  1.00  0.00    -0.352 N 
ATOM      4  H   UNL     1      96.366  84.521  81.080  1.00  0.00     0.163 HD
ATOM      5  O   UNL     1      97.606  81.800  80.099  1.00  0.00    -0.275 OA
BRANCH   3   6
ATOM      6  C   UNL     1      96.754  83.018  82.525  1.00  0.00     0.151 C 
BRANCH   6   7
ATOM      7  C   UNL     1      95.846  83.696  83.488  1.00  0.00    -0.025 A 
ATOM      8  C   UNL     1      94.024  83.592  85.137  1.00  0.00     0.160 A 
ATOM      9  C   UNL     1      94.160  84.976  85.371  1.00  0.00     0.157 A 
ATOM     10  C   UNL     1      94.854  82.964  84.184  1.00  0.00     0.056 A 
ATOM     11  C   UNL     1      95.125  85.719  84.666  1.00  0.00     0.050 A 
ATOM     12  C   UNL     1      95.964  85.084  83.735  1.00  0.00     0.009 A 
BRANCH   8  13
ATOM     13  O   UNL     1      93.078  82.854  85.799  1.00  0.00    -0.493 OA
ATOM     14  C   UNL     1      93.610  82.059  86.877  1.00  0.00     0.278 C 
ENDBRANCH   8  13
BRANCH   9  15
ATOM     15  O   UNL     1      93.366  85.590  86.284  1.00  0.00    -0.504 OA
ATOM     16  H   UNL     1      93.856  86.295  86.713  1.00  0.00     0.293 HD
ENDBRANCH   9  15
ENDBRANCH   6   7
ENDBRANCH   3   6
ENDBRANCH   1   2
BRANCH   1  17
ATOM     17  C   UNL     1      97.828  83.235  77.658  1.00  0.00     0.010 C 
BRANCH  17  18
ATOM     18  C   UNL     1      97.569  84.056  76.365  1.00  0.00     0.001 C 
BRANCH  18  19
ATOM     19  C   UNL     1      97.774  83.237  75.064  1.00  0.00     0.000 C 
BRANCH  19  20
ATOM     20  C   UNL     1      97.664  84.122  73.788  1.00  0.00     0.003 C 
BRANCH  20  21
ATOM     21  C   UNL     1      98.987  84.266  72.968  1.00  0.00    -0.017 C 
ATOM     22  C   UNL     1     100.121  83.396  73.586  1.00  0.00     0.007 C 
ATOM     23  C   UNL     1      99.460  85.743  72.836  1.00  0.00     0.007 C 
ENDBRANCH  20  21
ENDBRANCH  19  20
ENDBRANCH  18  19
ENDBRANCH  17  18
ENDBRANCH   1  17
TORSDOF 10
ENDMDL
MODEL 7
REMARK VINA RESULT:    -5.892      3.399      8.700
REMARK INTER + INTRA:          -9.715
REMARK INTER:                  -8.915
REMARK INTRA:                  -0.800
REMARK UNBOUND:                -0.551
REMARK SMILES COc1cc(CNC(=O)CCCCCC(C)C)ccc1O
REMARK SMILES IDX 10 1 8 2 7 3 9 5 6 6 5 7 3 8 20 9 4 10 19 11 18 12 2 13 1 14
REMARK SMILES IDX 21 15 11 17 12 18 13 19 14 20 15 21 16 22 17 23
REMARK H PARENT 7 4 21 16
REMARK Flexibility Score: inf
ROOT
ATOM      1  C   UNL     1      92.846  82.696  85.787  1.00  0.00     0.100 C 
ENDROOT
BRANCH   1   2
ATOM      2  C   UNL     1      94.242  82.907  85.348  1.00  0.00     0.220 C 
ATOM      3  N   UNL     1      94.483  83.421  84.109  1.00  0.00    -0.352 N 
ATOM      4  H   UNL     1      93.669  83.500  83.516  1.00  0.00     0.163 HD
ATOM      5  O   UNL     1      95.177  82.646  86.144  1.00  0.00    -0.275 OA
BRANCH   3   6
ATOM      6  C   UNL     1      95.761  83.834  83.626  1.00  0.00     0.151 C 
BRANCH   6   7
ATOM      7  C   UNL     1      96.305  82.938  82.570  1.00  0.00    -0.025 A 
ATOM      8  C   UNL     1      96.838  80.678  81.758  1.00  0.00     0.160 A 
ATOM      9  C   UNL     1      97.278  81.225  80.534  1.00  0.00     0.157 A 
ATOM     10  C   UNL     1      96.373  81.539  82.775  1.00  0.00     0.056 A 
ATOM     11  C   UNL     1      97.239  82.616  80.329  1.00  0.00     0.050 A 
ATOM     12  C   UNL     1      96.752  83.466  81.337  1.00  0.00     0.009 A 
BRANCH   8  13
ATOM     13  O   UNL     1      96.886  79.328  81.985  1.00  0.00    -0.493 OA
ATOM     14  C   UNL     1      98.127  78.878  82.560  1.00  0.00     0.278 C 
ENDBRANCH   8  13
BRANCH   9  15
ATOM     15  O   UNL     1      97.729  80.406  79.550  1.00  0.00    -0.504 OA
ATOM     16  H   UNL     1      98.679  80.299  79.634  1.00  0.00     0.293 HD
ENDBRANCH   9  15
ENDBRANCH   6   7
ENDBRANCH   3   6
ENDBRANCH   1   2
BRANCH   1  17
ATOM     17  C   UNL     1      91.845  82.436  84.630  1.00  0.00     0.010 C 
BRANCH  17  18
ATOM     18  C   UNL     1      91.689  80.918  84.338  1.00  0.00     0.001 C 
BRANCH  18  19
ATOM     19  C   UNL     1      90.469  80.587  83.437  1.00  0.00     0.000 C 
BRANCH  19  20
ATOM     20  C   UNL     1      89.341  79.855  84.221  1.00  0.00     0.003 C 
BRANCH  20  21
ATOM     21  C   UNL     1      87.973  80.611  84.269  1.00  0.00    -0.017 C 
ATOM     22  C   UNL     1      87.264  80.563  82.883  1.00  0.00     0.007 C 
ATOM     23  C   UNL     1      88.114  82.086  84.745  1.00  0.00     0.007 C 
ENDBRANCH  20  21
ENDBRANCH  19  20
ENDBRANCH  18  19
ENDBRANCH  17  18
ENDBRANCH   1  17
TORSDOF 10
ENDMDL
MODEL 8
REMARK VINA RESULT:    -5.864      5.079      7.720
REMARK INTER + INTRA:          -9.672
REMARK INTER:                  -9.018
REMARK INTRA:                  -0.653
REMARK UNBOUND:                -0.551
REMARK SMILES COc1cc(CNC(=O)CCCCCC(C)C)ccc1O
REMARK SMILES IDX 10 1 8 2 7 3 9 5 6 6 5 7 3 8 20 9 4 10 19 11 18 12 2 13 1 14
REMARK SMILES IDX 21 15 11 17 12 18 13 19 14 20 15 21 16 22 17 23
REMARK H PARENT 7 4 21 16
REMARK Flexibility Score: inf
ROOT
ATOM      1  C   UNL     1      96.507  83.576  78.672  1.00  0.00     0.100 C 
ENDROOT
BRANCH   1   2
ATOM      2  C   UNL     1      97.026  82.829  79.837  1.00  0.00     0.220 C 
ATOM      3  N   UNL     1      96.985  83.404  81.072  1.00  0.00    -0.352 N 
ATOM      4  H   UNL     1      96.714  84.377  81.080  1.00  0.00     0.163 HD
ATOM      5  O   UNL     1      97.457  81.662  79.670  1.00  0.00    -0.275 OA
BRANCH   3   6
ATOM      6  C   UNL     1      97.289  82.738  82.298  1.00  0.00     0.151 C 
BRANCH   6   7
ATOM      7  C   UNL     1      96.218  82.879  83.321  1.00  0.00    -0.025 A 
ATOM      8  C   UNL     1      95.044  84.229  85.008  1.00  0.00     0.160 A 
ATOM      9  C   UNL     1      94.136  83.171  85.220  1.00  0.00     0.157 A 
ATOM     10  C   UNL     1      96.090  84.070  84.074  1.00  0.00     0.056 A 
ATOM     11  C   UNL     1      94.269  81.972  84.496  1.00  0.00     0.050 A 
ATOM     12  C   UNL     1      95.298  81.829  83.550  1.00  0.00     0.009 A 
BRANCH   8  13
ATOM     13  O   UNL     1      94.944  85.398  85.717  1.00  0.00    -0.493 OA
ATOM     14  C   UNL     1      94.281  86.458  85.001  1.00  0.00     0.278 C 
ENDBRANCH   8  13
BRANCH   9  15
ATOM     15  O   UNL     1      93.128  83.313  86.117  1.00  0.00    -0.504 OA
ATOM     16  H   UNL     1      93.017  84.243  86.329  1.00  0.00     0.293 HD
ENDBRANCH   9  15
ENDBRANCH   6   7
ENDBRANCH   3   6
ENDBRANCH   1   2
BRANCH   1  17
ATOM     17  C   UNL     1      97.034  83.069  77.302  1.00  0.00     0.010 C 
BRANCH  17  18
ATOM     18  C   UNL     1      97.408  84.247  76.361  1.00  0.00     0.001 C 
BRANCH  18  19
ATOM     19  C   UNL     1      97.470  83.843  74.864  1.00  0.00     0.000 C 
BRANCH  19  20
ATOM     20  C   UNL     1      98.867  84.123  74.237  1.00  0.00     0.003 C 
BRANCH  20  21
ATOM     21  C   UNL     1     100.056  84.136  75.253  1.00  0.00    -0.017 C 
ATOM     22  C   UNL     1     101.140  85.168  74.824  1.00  0.00     0.007 C 
ATOM     23  C   UNL     1     100.701  82.733  75.446  1.00  0.00     0.007 C 
ENDBRANCH  20  21
ENDBRANCH  19  20
ENDBRANCH  18  19
ENDBRANCH  17  18
ENDBRANCH   1  17
TORSDOF 10
ENDMDL
MODEL 9
REMARK VINA RESULT:    -5.826      3.635      6.136
REMARK INTER + INTRA:          -9.614
REMARK INTER:                  -8.939
REMARK INTRA:                  -0.675
REMARK UNBOUND:                -0.551
REMARK SMILES COc1cc(CNC(=O)CCCCCC(C)C)ccc1O
REMARK SMILES IDX 10 1 8 2 7 3 9 5 6 6 5 7 3 8 20 9 4 10 19 11 18 12 2 13 1 14
REMARK SMILES IDX 21 15 11 17 12 18 13 19 14 20 15 21 16 22 17 23
REMARK H PARENT 7 4 21 16
REMARK Flexibility Score: inf
ROOT
ATOM      1  C   UNL     1      97.182  82.082  80.566  1.00  0.00     0.100 C 
ENDROOT
BRANCH   1   2
ATOM      2  C   UNL     1      96.641  82.380  81.908  1.00  0.00     0.220 C 
ATOM      3  N   UNL     1      96.324  81.352  82.746  1.00  0.00    -0.352 N 
ATOM      4  H   UNL     1      96.362  80.435  82.326  1.00  0.00     0.163 HD
ATOM      5  O   UNL     1      96.523  83.578  82.266  1.00  0.00    -0.275 OA
BRANCH   3   6
ATOM      6  C   UNL     1      95.960  81.494  84.119  1.00  0.00     0.151 C 
BRANCH   6   7
ATOM      7  C   UNL     1      94.499  81.340  84.355  1.00  0.00    -0.025 A 
ATOM      8  C   UNL     1      92.563  79.922  84.893  1.00  0.00     0.160 A 
ATOM      9  C   UNL     1      91.727  81.058  84.870  1.00  0.00     0.157 A 
ATOM     10  C   UNL     1      93.940  80.067  84.617  1.00  0.00     0.056 A 
ATOM     11  C   UNL     1      92.268  82.325  84.584  1.00  0.00     0.050 A 
ATOM     12  C   UNL     1      93.643  82.466  84.334  1.00  0.00     0.009 A 
BRANCH   8  13
ATOM     13  O   UNL     1      92.053  78.676  85.149  1.00  0.00    -0.493 OA
ATOM     14  C   UNL     1      92.574  77.645  84.288  1.00  0.00     0.278 C 
ENDBRANCH   8  13
BRANCH   9  15
ATOM     15  O   UNL     1      90.402  80.929  85.131  1.00  0.00    -0.504 OA
ATOM     16  H   UNL     1      89.915  80.890  84.305  1.00  0.00     0.293 HD
ENDBRANCH   9  15
ENDBRANCH   6   7
ENDBRANCH   3   6
ENDBRANCH   1   2
BRANCH   1  17
ATOM     17  C   UNL     1      97.433  83.336  79.686  1.00  0.00     0.010 C 
BRANCH  17  18
ATOM     18  C   UNL     1      96.282  83.561  78.667  1.00  0.00     0.001 C 
BRANCH  18  19
ATOM     19  C   UNL     1      96.770  83.650  77.197  1.00  0.00     0.000 C 
BRANCH  19  20
ATOM     20  C   UNL     1      98.319  83.546  77.083  1.00  0.00     0.003 C 
BRANCH  20  21
ATOM     21  C   UNL     1      98.857  83.257  75.644  1.00  0.00    -0.017 C 
ATOM     22  C   UNL     1      97.819  83.687  74.566  1.00  0.00     0.007 C 
ATOM     23  C   UNL     1      99.257  81.767  75.437  1.00  0.00     0.007 C 
ENDBRANCH  20  21
ENDBRANCH  19  20
ENDBRANCH  18  19
ENDBRANCH  17  18
ENDBRANCH   1  17
TORSDOF 10
ENDMDL
MODEL 10
REMARK VINA RESULT:    -5.825     20.867     24.363
REMARK INTER + INTRA:          -9.612
REMARK INTER:                  -8.885
REMARK INTRA:                  -0.727
REMARK UNBOUND:                -0.551
REMARK SMILES COc1cc(CNC(=O)CCCCCC(C)C)ccc1O
REMARK SMILES IDX 10 1 8 2 7 3 9 5 6 6 5 7 3 8 20 9 4 10 19 11 18 12 2 13 1 14
REMARK SMILES IDX 21 15 11 17 12 18 13 19 14 20 15 21 16 22 17 23
REMARK H PARENT 7 4 21 16
REMARK Flexibility Score: inf
ROOT
ATOM      1  C   UNL     1      79.798  65.147  71.022  1.00  0.00     0.100 C 
ENDROOT
BRANCH   1   2
ATOM      2  C   UNL     1      81.165  65.493  70.579  1.00  0.00     0.220 C 
ATOM      3  N   UNL     1      82.212  65.310  71.433  1.00  0.00    -0.352 N 
ATOM      4  H   UNL     1      81.952  65.066  72.378  1.00  0.00     0.163 HD
ATOM      5  O   UNL     1      81.339  65.909  69.408  1.00  0.00    -0.275 OA
BRANCH   3   6
ATOM      6  C   UNL     1      83.590  65.436  71.082  1.00  0.00     0.151 C 
BRANCH   6   7
ATOM      7  C   UNL     1      84.197  66.711  71.551  1.00  0.00    -0.025 A 
ATOM      8  C   UNL     1      86.154  68.183  71.780  1.00  0.00     0.160 A 
ATOM      9  C   UNL     1      85.341  69.166  72.384  1.00  0.00     0.157 A 
ATOM     10  C   UNL     1      85.581  66.955  71.384  1.00  0.00     0.056 A 
ATOM     11  C   UNL     1      83.969  68.922  72.578  1.00  0.00     0.050 A 
ATOM     12  C   UNL     1      83.400  67.707  72.160  1.00  0.00     0.009 A 
BRANCH   8  13
ATOM     13  O   UNL     1      87.496  68.392  71.599  1.00  0.00    -0.493 OA
ATOM     14  C   UNL     1      88.332  67.502  72.363  1.00  0.00     0.278 C 
ENDBRANCH   8  13
BRANCH   9  15
ATOM     15  O   UNL     1      85.882  70.349  72.769  1.00  0.00    -0.504 OA
ATOM     16  H   UNL     1      85.635  71.033  72.143  1.00  0.00     0.293 HD
ENDBRANCH   9  15
ENDBRANCH   6   7
ENDBRANCH   3   6
ENDBRANCH   1   2
BRANCH   1  17
ATOM     17  C   UNL     1      78.716  65.283  69.917  1.00  0.00     0.010 C 
BRANCH  17  18
ATOM     18  C   UNL     1      78.315  63.899  69.335  1.00  0.00     0.001 C 
BRANCH  18  19
ATOM     19  C   UNL     1      77.942  63.949  67.830  1.00  0.00     0.000 C 
BRANCH  19  20
ATOM     20  C   UNL     1      76.468  63.517  67.575  1.00  0.00     0.003 C 
BRANCH  20  21
ATOM     21  C   UNL     1      75.475  64.691  67.294  1.00  0.00    -0.017 C 
ATOM     22  C   UNL     1      76.202  65.879  66.596  1.00  0.00     0.007 C 
ATOM     23  C   UNL     1      74.750  65.189  68.577  1.00  0.00     0.007 C 
ENDBRANCH  20  21
ENDBRANCH  19  20
ENDBRANCH  18  19
ENDBRANCH  17  18
ENDBRANCH   1  17
TORSDOF 10
ENDMDL
