MODEL 1
REMARK VINA RESULT:    -6.973      0.000      0.000
REMARK INTER + INTRA:         -12.168
REMARK INTER:                 -11.253
REMARK INTRA:                  -0.915
REMARK UNBOUND:                -0.915
REMARK SMILES COc1cc(CNC(=O)CCCCC/C=C/C(C)C)ccc1O
REMARK SMILES IDX 11 1 10 2 8 3 7 4 9 6 6 7 5 8 3 9 22 10 4 11 21 12 20 13
REMARK SMILES IDX 2 14 1 15 23 16 12 18 13 19 14 20 15 21 16 22 17 23 18 24
REMARK SMILES IDX 19 25
REMARK H PARENT 7 5 23 17
REMARK Flexibility Score: inf
ROOT
ATOM      1  C   UNL     1      93.489  95.891  74.955  1.00  0.00     0.010 C 
ENDROOT
BRANCH   1   2
ATOM      2  C   UNL     1      94.700  96.657  74.363  1.00  0.00     0.100 C 
BRANCH   2   3
ATOM      3  C   UNL     1      95.892  96.658  75.231  1.00  0.00     0.220 C 
ATOM      4  N   UNL     1      95.766  96.369  76.556  1.00  0.00    -0.352 N 
ATOM      5  H   UNL     1      94.814  96.239  76.870  1.00  0.00     0.163 HD
ATOM      6  O   UNL     1      97.009  96.890  74.710  1.00  0.00    -0.275 OA
BRANCH   4   7
ATOM      7  C   UNL     1      96.843  96.241  77.483  1.00  0.00     0.151 C 
BRANCH   7   8
ATOM      8  C   UNL     1      96.509  95.355  78.629  1.00  0.00    -0.025 A 
ATOM      9  C   UNL     1      95.926  95.057  80.999  1.00  0.00     0.160 A 
ATOM     10  C   UNL     1      95.926  93.656  80.822  1.00  0.00     0.157 A 
ATOM     11  C   UNL     1      96.225  95.894  79.905  1.00  0.00     0.056 A 
ATOM     12  C   UNL     1      96.190  93.109  79.553  1.00  0.00     0.050 A 
ATOM     13  C   UNL     1      96.469  93.953  78.462  1.00  0.00     0.009 A 
BRANCH   9  14
ATOM     14  O   UNL     1      95.584  95.602  82.208  1.00  0.00    -0.493 OA
ATOM     15  C   UNL     1      96.475  96.635  82.660  1.00  0.00     0.278 C 
ENDBRANCH   9  14
BRANCH  10  16
ATOM     16  O   UNL     1      95.671  92.815  81.855  1.00  0.00    -0.504 OA
ATOM     17  H   UNL     1      94.726  92.649  81.906  1.00  0.00     0.293 HD
ENDBRANCH  10  16
ENDBRANCH   7   8
ENDBRANCH   4   7
ENDBRANCH   2   3
ENDBRANCH   1   2
BRANCH   1  18
ATOM     18  C   UNL     1      93.797  94.378  75.092  1.00  0.00     0.001 C 
BRANCH  18  19
ATOM     19  C   UNL     1      93.437  93.792  76.481  1.00  0.00     0.004 C 
BRANCH  19  20
ATOM     20  C   UNL     1      91.904  93.831  76.733  1.00  0.00     0.027 C 
BRANCH  20  21
ATOM     21  C   UNL     1      91.237  92.567  76.472  1.00  0.00    -0.031 C 
ATOM     22  C   UNL     1      90.613  92.310  75.309  1.00  0.00    -0.028 C 
BRANCH  22  23
ATOM     23  C   UNL     1      89.938  91.048  75.014  1.00  0.00     0.005 C 
ATOM     24  C   UNL     1      88.825  91.268  73.956  1.00  0.00     0.012 C 
ATOM     25  C   UNL     1      90.972  89.978  74.569  1.00  0.00     0.012 C 
ENDBRANCH  22  23
ENDBRANCH  20  21
ENDBRANCH  19  20
ENDBRANCH  18  19
ENDBRANCH   1  18
TORSDOF 11
ENDMDL
MODEL 2
REMARK VINA RESULT:    -5.929     12.561     15.425
REMARK INTER + INTRA:         -10.483
REMARK INTER:                  -9.762
REMARK INTRA:                  -0.722
REMARK UNBOUND:                -0.915
REMARK SMILES COc1cc(CNC(=O)CCCCC/C=C/C(C)C)ccc1O
REMARK SMILES IDX 11 1 10 2 8 3 7 4 9 6 6 7 5 8 3 9 22 10 4 11 21 12 20 13
REMARK SMILES IDX 2 14 1 15 23 16 12 18 13 19 14 20 15 21 16 22 17 23 18 24
REMARK SMILES IDX 19 25
REMARK H PARENT 7 5 23 17
REMARK Flexibility Score: inf
ROOT
ATOM      1  C   UNL     1      97.832  81.490  78.253  1.00  0.00     0.010 C 
ENDROOT
BRANCH   1   2
ATOM      2  C   UNL     1      96.549  82.262  77.850  1.00  0.00     0.100 C 
BRANCH   2   3
ATOM      3  C   UNL     1      96.583  82.809  76.481  1.00  0.00     0.220 C 
ATOM      4  N   UNL     1      97.704  82.663  75.720  1.00  0.00    -0.352 N 
ATOM      5  H   UNL     1      98.484  82.235  76.198  1.00  0.00     0.163 HD
ATOM      6  O   UNL     1      95.552  83.366  76.036  1.00  0.00    -0.275 OA
BRANCH   4   7
ATOM      7  C   UNL     1      97.836  83.057  74.356  1.00  0.00     0.151 C 
BRANCH   7   8
ATOM      8  C   UNL     1      97.869  81.898  73.426  1.00  0.00    -0.025 A 
ATOM      9  C   UNL     1      99.072  80.492  71.806  1.00  0.00     0.160 A 
ATOM     10  C   UNL     1      97.907  79.717  71.615  1.00  0.00     0.157 A 
ATOM     11  C   UNL     1      99.042  81.580  72.702  1.00  0.00     0.056 A 
ATOM     12  C   UNL     1      96.740  80.014  72.342  1.00  0.00     0.050 A 
ATOM     13  C   UNL     1      96.724  81.090  73.249  1.00  0.00     0.009 A 
BRANCH   9  14
ATOM     14  O   UNL     1     100.238  80.158  71.170  1.00  0.00    -0.493 OA
ATOM     15  C   UNL     1     101.199  79.498  72.010  1.00  0.00     0.278 C 
ENDBRANCH   9  14
BRANCH  10  16
ATOM     16  O   UNL     1      97.886  78.680  70.741  1.00  0.00    -0.504 OA
ATOM     17  H   UNL     1      98.136  77.873  71.197  1.00  0.00     0.293 HD
ENDBRANCH  10  16
ENDBRANCH   7   8
ENDBRANCH   4   7
ENDBRANCH   2   3
ENDBRANCH   1   2
BRANCH   1  18
ATOM     18  C   UNL     1      97.914  81.305  79.790  1.00  0.00     0.001 C 
BRANCH  18  19
ATOM     19  C   UNL     1      96.812  82.068  80.569  1.00  0.00     0.004 C 
BRANCH  19  20
ATOM     20  C   UNL     1      97.055  82.003  82.103  1.00  0.00     0.027 C 
BRANCH  20  21
ATOM     21  C   UNL     1      95.995  81.329  82.834  1.00  0.00    -0.031 C 
ATOM     22  C   UNL     1      95.211  81.971  83.718  1.00  0.00    -0.028 C 
BRANCH  22  23
ATOM     23  C   UNL     1      94.135  81.324  84.465  1.00  0.00     0.005 C 
ATOM     24  C   UNL     1      94.493  79.841  84.747  1.00  0.00     0.012 C 
ATOM     25  C   UNL     1      93.833  82.116  85.766  1.00  0.00     0.012 C 
ENDBRANCH  22  23
ENDBRANCH  20  21
ENDBRANCH  19  20
ENDBRANCH  18  19
ENDBRANCH   1  18
TORSDOF 11
ENDMDL
MODEL 3
REMARK VINA RESULT:    -5.911     12.721     15.378
REMARK INTER + INTRA:         -10.455
REMARK INTER:                  -9.079
REMARK INTRA:                  -1.375
REMARK UNBOUND:                -0.915
REMARK SMILES COc1cc(CNC(=O)CCCCC/C=C/C(C)C)ccc1O
REMARK SMILES IDX 11 1 10 2 8 3 7 4 9 6 6 7 5 8 3 9 22 10 4 11 21 12 20 13
REMARK SMILES IDX 2 14 1 15 23 16 12 18 13 19 14 20 15 21 16 22 17 23 18 24
REMARK SMILES IDX 19 25
REMARK H PARENT 7 5 23 17
REMARK Flexibility Score: inf
ROOT
ATOM      1  C   UNL     1     101.866  78.847  77.581  1.00  0.00     0.010 C 
ENDROOT
BRANCH   1   2
ATOM      2  C   UNL     1     101.536  79.554  78.921  1.00  0.00     0.100 C 
BRANCH   2   3
ATOM      3  C   UNL     1     100.097  79.594  79.241  1.00  0.00     0.220 C 
ATOM      4  N   UNL     1      99.309  80.564  78.700  1.00  0.00    -0.352 N 
ATOM      5  H   UNL     1      99.805  81.255  78.154  1.00  0.00     0.163 HD
ATOM      6  O   UNL     1      99.626  78.697  79.979  1.00  0.00    -0.275 OA
BRANCH   4   7
ATOM      7  C   UNL     1      97.893  80.660  78.848  1.00  0.00     0.151 C 
BRANCH   7   8
ATOM      8  C   UNL     1      97.260  81.472  77.776  1.00  0.00    -0.025 A 
ATOM      9  C   UNL     1      97.099  82.137  75.413  1.00  0.00     0.160 A 
ATOM     10  C   UNL     1      96.085  83.062  75.744  1.00  0.00     0.157 A 
ATOM     11  C   UNL     1      97.684  81.356  76.431  1.00  0.00     0.056 A 
ATOM     12  C   UNL     1      95.644  83.174  77.076  1.00  0.00     0.050 A 
ATOM     13  C   UNL     1      96.220  82.377  78.082  1.00  0.00     0.009 A 
BRANCH   9  14
ATOM     14  O   UNL     1      97.474  81.958  74.108  1.00  0.00    -0.493 OA
ATOM     15  C   UNL     1      97.054  80.706  73.542  1.00  0.00     0.278 C 
ENDBRANCH   9  14
BRANCH  10  16
ATOM     16  O   UNL     1      95.516  83.852  74.800  1.00  0.00    -0.504 OA
ATOM     17  H   UNL     1      94.861  84.422  75.211  1.00  0.00     0.293 HD
ENDBRANCH  10  16
ENDBRANCH   7   8
ENDBRANCH   4   7
ENDBRANCH   2   3
ENDBRANCH   1   2
BRANCH   1  18
ATOM     18  C   UNL     1     103.129  79.457  76.922  1.00  0.00     0.001 C 
BRANCH  18  19
ATOM     19  C   UNL     1     102.837  80.219  75.604  1.00  0.00     0.004 C 
BRANCH  19  20
ATOM     20  C   UNL     1     101.327  80.561  75.469  1.00  0.00     0.027 C 
BRANCH  20  21
ATOM     21  C   UNL     1     100.997  81.279  74.250  1.00  0.00    -0.031 C 
ATOM     22  C   UNL     1     101.052  82.620  74.167  1.00  0.00    -0.028 C 
BRANCH  22  23
ATOM     23  C   UNL     1     100.732  83.370  72.955  1.00  0.00     0.005 C 
ATOM     24  C   UNL     1      99.562  84.353  73.224  1.00  0.00     0.012 C 
ATOM     25  C   UNL     1     101.999  84.092  72.421  1.00  0.00     0.012 C 
ENDBRANCH  22  23
ENDBRANCH  20  21
ENDBRANCH  19  20
ENDBRANCH  18  19
ENDBRANCH   1  18
TORSDOF 11
ENDMDL
MODEL 4
REMARK VINA RESULT:    -5.811     21.444     24.776
REMARK INTER + INTRA:         -10.294
REMARK INTER:                  -8.807
REMARK INTRA:                  -1.488
REMARK UNBOUND:                -0.915
REMARK SMILES COc1cc(CNC(=O)CCCCC/C=C/C(C)C)ccc1O
REMARK SMILES IDX 11 1 10 2 8 3 7 4 9 6 6 7 5 8 3 9 22 10 4 11 21 12 20 13
REMARK SMILES IDX 2 14 1 15 23 16 12 18 13 19 14 20 15 21 16 22 17 23 18 24
REMARK SMILES IDX 19 25
REMARK H PARENT 7 5 23 17
REMARK Flexibility Score: inf
ROOT
ATOM      1  C   UNL     1      71.781  88.420  67.933  1.00  0.00     0.010 C 
ENDROOT
BRANCH   1   2
ATOM      2  C   UNL     1      70.773  87.338  68.401  1.00  0.00     0.100 C 
BRANCH   2   3
ATOM      3  C   UNL     1      71.019  86.002  67.828  1.00  0.00     0.220 C 
ATOM      4  N   UNL     1      71.946  85.846  66.843  1.00  0.00    -0.352 N 
ATOM      5  H   UNL     1      72.362  86.707  66.516  1.00  0.00     0.163 HD
ATOM      6  O   UNL     1      70.387  85.027  68.299  1.00  0.00    -0.275 OA
BRANCH   4   7
ATOM      7  C   UNL     1      72.349  84.602  66.273  1.00  0.00     0.151 C 
BRANCH   7   8
ATOM      8  C   UNL     1      73.816  84.380  66.361  1.00  0.00    -0.025 A 
ATOM      9  C   UNL     1      75.835  83.148  65.686  1.00  0.00     0.160 A 
ATOM     10  C   UNL     1      76.607  83.928  66.576  1.00  0.00     0.157 A 
ATOM     11  C   UNL     1      74.446  83.374  65.592  1.00  0.00     0.056 A 
ATOM     12  C   UNL     1      75.993  84.943  67.333  1.00  0.00     0.050 A 
ATOM     13  C   UNL     1      74.610  85.175  67.218  1.00  0.00     0.009 A 
BRANCH   9  14
ATOM     14  O   UNL     1      76.436  82.218  64.881  1.00  0.00    -0.493 OA
ATOM     15  C   UNL     1      75.534  81.544  63.987  1.00  0.00     0.278 C 
ENDBRANCH   9  14
BRANCH  10  16
ATOM     16  O   UNL     1      77.940  83.723  66.716  1.00  0.00    -0.504 OA
ATOM     17  H   UNL     1      78.089  82.928  67.233  1.00  0.00     0.293 HD
ENDBRANCH  10  16
ENDBRANCH   7   8
ENDBRANCH   4   7
ENDBRANCH   2   3
ENDBRANCH   1   2
BRANCH   1  18
ATOM     18  C   UNL     1      72.996  88.505  68.892  1.00  0.00     0.001 C 
BRANCH  18  19
ATOM     19  C   UNL     1      73.110  89.861  69.634  1.00  0.00     0.004 C 
BRANCH  19  20
ATOM     20  C   UNL     1      74.574  90.383  69.640  1.00  0.00     0.027 C 
BRANCH  20  21
ATOM     21  C   UNL     1      75.463  89.637  68.766  1.00  0.00    -0.031 C 
ATOM     22  C   UNL     1      75.904  90.133  67.596  1.00  0.00    -0.028 C 
BRANCH  22  23
ATOM     23  C   UNL     1      76.802  89.412  66.698  1.00  0.00     0.005 C 
ATOM     24  C   UNL     1      77.549  88.292  67.470  1.00  0.00     0.012 C 
ATOM     25  C   UNL     1      76.014  88.863  65.478  1.00  0.00     0.012 C 
ENDBRANCH  22  23
ENDBRANCH  20  21
ENDBRANCH  19  20
ENDBRANCH  18  19
ENDBRANCH   1  18
TORSDOF 11
ENDMDL
MODEL 5
REMARK VINA RESULT:    -5.704      4.447      8.150
REMARK INTER + INTRA:         -10.120
REMARK INTER:                  -9.170
REMARK INTRA:                  -0.950
REMARK UNBOUND:                -0.915
REMARK SMILES COc1cc(CNC(=O)CCCCC/C=C/C(C)C)ccc1O
REMARK SMILES IDX 11 1 10 2 8 3 7 4 9 6 6 7 5 8 3 9 22 10 4 11 21 12 20 13
REMARK SMILES IDX 2 14 1 15 23 16 12 18 13 19 14 20 15 21 16 22 17 23 18 24
REMARK SMILES IDX 19 25
REMARK H PARENT 7 5 23 17
REMARK Flexibility Score: inf
ROOT
ATOM      1  C   UNL     1      94.709  95.645  74.089  1.00  0.00     0.010 C 
ENDROOT
BRANCH   1   2
ATOM      2  C   UNL     1      95.962  96.434  73.628  1.00  0.00     0.100 C 
BRANCH   2   3
ATOM      3  C   UNL     1      95.720  97.324  72.477  1.00  0.00     0.220 C 
ATOM      4  N   UNL     1      95.336  98.613  72.685  1.00  0.00    -0.352 N 
ATOM      5  H   UNL     1      95.168  98.852  73.653  1.00  0.00     0.163 HD
ATOM      6  O   UNL     1      95.918  96.873  71.324  1.00  0.00    -0.275 OA
BRANCH   4   7
ATOM      7  C   UNL     1      95.163  99.602  71.671  1.00  0.00     0.151 C 
BRANCH   7   8
ATOM      8  C   UNL     1      93.781 100.144  71.630  1.00  0.00    -0.025 A 
ATOM      9  C   UNL     1      91.372  99.827  71.247  1.00  0.00     0.160 A 
ATOM     10  C   UNL     1      91.152 101.199  71.501  1.00  0.00     0.157 A 
ATOM     11  C   UNL     1      92.683  99.313  71.305  1.00  0.00     0.056 A 
ATOM     12  C   UNL     1      92.234 102.031  71.842  1.00  0.00     0.050 A 
ATOM     13  C   UNL     1      93.537 101.506  71.917  1.00  0.00     0.009 A 
BRANCH   9  14
ATOM     14  O   UNL     1      90.316  98.991  71.000  1.00  0.00    -0.493 OA
ATOM     15  C   UNL     1      90.224  98.548  69.636  1.00  0.00     0.278 C 
ENDBRANCH   9  14
BRANCH  10  16
ATOM     16  O   UNL     1      89.910 101.739  71.428  1.00  0.00    -0.504 OA
ATOM     17  H   UNL     1      89.980 102.695  71.367  1.00  0.00     0.293 HD
ENDBRANCH  10  16
ENDBRANCH   7   8
ENDBRANCH   4   7
ENDBRANCH   2   3
ENDBRANCH   1   2
BRANCH   1  18
ATOM     18  C   UNL     1      94.216  96.138  75.474  1.00  0.00     0.001 C 
BRANCH  18  19
ATOM     19  C   UNL     1      95.182  95.796  76.637  1.00  0.00     0.004 C 
BRANCH  19  20
ATOM     20  C   UNL     1      94.431  95.120  77.818  1.00  0.00     0.027 C 
BRANCH  20  21
ATOM     21  C   UNL     1      93.002  94.975  77.595  1.00  0.00    -0.031 C 
ATOM     22  C   UNL     1      92.359  93.811  77.791  1.00  0.00    -0.028 C 
BRANCH  22  23
ATOM     23  C   UNL     1      90.924  93.633  77.581  1.00  0.00     0.005 C 
ATOM     24  C   UNL     1      90.330  94.869  76.854  1.00  0.00     0.012 C 
ATOM     25  C   UNL     1      90.653  92.311  76.814  1.00  0.00     0.012 C 
ENDBRANCH  22  23
ENDBRANCH  20  21
ENDBRANCH  19  20
ENDBRANCH  18  19
ENDBRANCH   1  18
TORSDOF 11
ENDMDL
MODEL 6
REMARK VINA RESULT:    -5.698      9.843     14.098
REMARK INTER + INTRA:         -10.112
REMARK INTER:                  -8.933
REMARK INTRA:                  -1.178
REMARK UNBOUND:                -0.915
REMARK SMILES COc1cc(CNC(=O)CCCCC/C=C/C(C)C)ccc1O
REMARK SMILES IDX 11 1 10 2 8 3 7 4 9 6 6 7 5 8 3 9 22 10 4 11 21 12 20 13
REMARK SMILES IDX 2 14 1 15 23 16 12 18 13 19 14 20 15 21 16 22 17 23 18 24
REMARK SMILES IDX 19 25
REMARK H PARENT 7 5 23 17
REMARK Flexibility Score: inf
ROOT
ATOM      1  C   UNL     1      90.455  98.878  70.235  1.00  0.00     0.010 C 
ENDROOT
BRANCH   1   2
ATOM      2  C   UNL     1      89.548  97.921  69.418  1.00  0.00     0.100 C 
BRANCH   2   3
ATOM      3  C   UNL     1      89.300  98.365  68.034  1.00  0.00     0.220 C 
ATOM      4  N   UNL     1      88.141  99.012  67.727  1.00  0.00    -0.352 N 
ATOM      5  H   UNL     1      87.481  99.078  68.490  1.00  0.00     0.163 HD
ATOM      6  O   UNL     1      90.192  98.167  67.176  1.00  0.00    -0.275 OA
BRANCH   4   7
ATOM      7  C   UNL     1      87.818  99.577  66.458  1.00  0.00     0.151 C 
BRANCH   7   8
ATOM      8  C   UNL     1      88.042 101.046  66.412  1.00  0.00    -0.025 A 
ATOM      9  C   UNL     1      89.562 102.977  66.483  1.00  0.00     0.160 A 
ATOM     10  C   UNL     1      88.457 103.850  66.376  1.00  0.00     0.157 A 
ATOM     11  C   UNL     1      89.346 101.585  66.509  1.00  0.00     0.056 A 
ATOM     12  C   UNL     1      87.157 103.324  66.262  1.00  0.00     0.050 A 
ATOM     13  C   UNL     1      86.952 101.932  66.269  1.00  0.00     0.009 A 
BRANCH   9  14
ATOM     14  O   UNL     1      90.838 103.476  66.507  1.00  0.00    -0.493 OA
ATOM     15  C   UNL     1      91.441 103.608  65.209  1.00  0.00     0.278 C 
ENDBRANCH   9  14
BRANCH  10  16
ATOM     16  O   UNL     1      88.620 105.197  66.377  1.00  0.00    -0.504 OA
ATOM     17  H   UNL     1      89.048 105.467  65.561  1.00  0.00     0.293 HD
ENDBRANCH  10  16
ENDBRANCH   7   8
ENDBRANCH   4   7
ENDBRANCH   2   3
ENDBRANCH   1   2
BRANCH   1  18
ATOM     18  C   UNL     1      89.654 100.099  70.754  1.00  0.00     0.001 C 
BRANCH  18  19
ATOM     19  C   UNL     1      90.299 101.463  70.400  1.00  0.00     0.004 C 
BRANCH  19  20
ATOM     20  C   UNL     1      89.982 102.537  71.479  1.00  0.00     0.027 C 
BRANCH  20  21
ATOM     21  C   UNL     1      90.957 102.591  72.554  1.00  0.00    -0.031 C 
ATOM     22  C   UNL     1      92.187 102.059  72.437  1.00  0.00    -0.028 C 
BRANCH  22  23
ATOM     23  C   UNL     1      93.191 102.102  73.497  1.00  0.00     0.005 C 
ATOM     24  C   UNL     1      92.555 102.600  74.821  1.00  0.00     0.012 C 
ATOM     25  C   UNL     1      93.866 100.712  73.653  1.00  0.00     0.012 C 
ENDBRANCH  22  23
ENDBRANCH  20  21
ENDBRANCH  19  20
ENDBRANCH  18  19
ENDBRANCH   1  18
TORSDOF 11
ENDMDL
MODEL 7
REMARK VINA RESULT:    -5.651     12.982     15.483
REMARK INTER + INTRA:         -10.035
REMARK INTER:                  -9.336
REMARK INTRA:                  -0.699
REMARK UNBOUND:                -0.915
REMARK SMILES COc1cc(CNC(=O)CCCCC/C=C/C(C)C)ccc1O
REMARK SMILES IDX 11 1 10 2 8 3 7 4 9 6 6 7 5 8 3 9 22 10 4 11 21 12 20 13
REMARK SMILES IDX 2 14 1 15 23 16 12 18 13 19 14 20 15 21 16 22 17 23 18 24
REMARK SMILES IDX 19 25
REMARK H PARENT 7 5 23 17
REMARK Flexibility Score: inf
ROOT
ATOM      1  C   UNL     1      96.227  82.269  81.981  1.00  0.00     0.010 C 
ENDROOT
BRANCH   1   2
ATOM      2  C   UNL     1      96.354  83.183  83.227  1.00  0.00     0.100 C 
BRANCH   2   3
ATOM      3  C   UNL     1      95.677  82.660  84.428  1.00  0.00     0.220 C 
ATOM      4  N   UNL     1      94.799  81.625  84.314  1.00  0.00    -0.352 N 
ATOM      5  H   UNL     1      94.617  81.329  83.365  1.00  0.00     0.163 HD
ATOM      6  O   UNL     1      95.963  83.163  85.540  1.00  0.00    -0.275 OA
BRANCH   4   7
ATOM      7  C   UNL     1      94.153  80.962  85.400  1.00  0.00     0.151 C 
BRANCH   7   8
ATOM      8  C   UNL     1      92.760  80.559  85.076  1.00  0.00    -0.025 A 
ATOM      9  C   UNL     1      91.069  78.807  84.732  1.00  0.00     0.160 A 
ATOM     10  C   UNL     1      90.114  79.794  84.405  1.00  0.00     0.157 A 
ATOM     11  C   UNL     1      92.385  79.195  85.056  1.00  0.00     0.056 A 
ATOM     12  C   UNL     1      90.471  81.154  84.438  1.00  0.00     0.050 A 
ATOM     13  C   UNL     1      91.782  81.535  84.782  1.00  0.00     0.009 A 
BRANCH   9  14
ATOM     14  O   UNL     1      90.709  77.487  84.788  1.00  0.00    -0.493 OA
ATOM     15  C   UNL     1      90.451  77.003  86.117  1.00  0.00     0.278 C 
ENDBRANCH   9  14
BRANCH  10  16
ATOM     16  O   UNL     1      88.845  79.461  84.060  1.00  0.00    -0.504 OA
ATOM     17  H   UNL     1      88.348  79.236  84.851  1.00  0.00     0.293 HD
ENDBRANCH  10  16
ENDBRANCH   7   8
ENDBRANCH   4   7
ENDBRANCH   2   3
ENDBRANCH   1   2
BRANCH   1  18
ATOM     18  C   UNL     1      97.487  81.384  81.806  1.00  0.00     0.001 C 
BRANCH  18  19
ATOM     19  C   UNL     1      97.856  81.111  80.326  1.00  0.00     0.004 C 
BRANCH  19  20
ATOM     20  C   UNL     1      97.070  82.045  79.364  1.00  0.00     0.027 C 
BRANCH  20  21
ATOM     21  C   UNL     1      97.161  81.656  77.967  1.00  0.00    -0.031 C 
ATOM     22  C   UNL     1      96.944  82.524  76.964  1.00  0.00    -0.028 C 
BRANCH  22  23
ATOM     23  C   UNL     1      97.034  82.166  75.550  1.00  0.00     0.005 C 
ATOM     24  C   UNL     1      96.486  83.319  74.668  1.00  0.00     0.012 C 
ATOM     25  C   UNL     1      98.494  81.785  75.184  1.00  0.00     0.012 C 
ENDBRANCH  22  23
ENDBRANCH  20  21
ENDBRANCH  19  20
ENDBRANCH  18  19
ENDBRANCH   1  18
TORSDOF 11
ENDMDL
MODEL 8
REMARK VINA RESULT:    -5.623     10.586     14.673
REMARK INTER + INTRA:          -9.990
REMARK INTER:                  -8.348
REMARK INTRA:                  -1.642
REMARK UNBOUND:                -0.915
REMARK SMILES COc1cc(CNC(=O)CCCCC/C=C/C(C)C)ccc1O
REMARK SMILES IDX 11 1 10 2 8 3 7 4 9 6 6 7 5 8 3 9 22 10 4 11 21 12 20 13
REMARK SMILES IDX 2 14 1 15 23 16 12 18 13 19 14 20 15 21 16 22 17 23 18 24
REMARK SMILES IDX 19 25
REMARK H PARENT 7 5 23 17
REMARK Flexibility Score: inf
ROOT
ATOM      1  C   UNL     1      90.283  98.952  70.560  1.00  0.00     0.010 C 
ENDROOT
BRANCH   1   2
ATOM      2  C   UNL     1      89.575  97.882  69.690  1.00  0.00     0.100 C 
BRANCH   2   3
ATOM      3  C   UNL     1      89.412  98.269  68.276  1.00  0.00     0.220 C 
ATOM      4  N   UNL     1      88.269  98.886  67.869  1.00  0.00    -0.352 N 
ATOM      5  H   UNL     1      87.559  98.971  68.584  1.00  0.00     0.163 HD
ATOM      6  O   UNL     1      90.361  98.052  67.486  1.00  0.00    -0.275 OA
BRANCH   4   7
ATOM      7  C   UNL     1      88.022  99.398  66.561  1.00  0.00     0.151 C 
BRANCH   7   8
ATOM      8  C   UNL     1      88.285 100.857  66.458  1.00  0.00    -0.025 A 
ATOM      9  C   UNL     1      87.463 103.167  66.258  1.00  0.00     0.160 A 
ATOM     10  C   UNL     1      88.794 103.635  66.208  1.00  0.00     0.157 A 
ATOM     11  C   UNL     1      87.219 101.783  66.373  1.00  0.00     0.056 A 
ATOM     12  C   UNL     1      89.863 102.725  66.308  1.00  0.00     0.050 A 
ATOM     13  C   UNL     1      89.610 101.347  66.443  1.00  0.00     0.009 A 
BRANCH   9  14
ATOM     14  O   UNL     1      86.417 104.051  66.250  1.00  0.00    -0.493 OA
ATOM     15  C   UNL     1      86.130 104.634  67.532  1.00  0.00     0.278 C 
ENDBRANCH   9  14
BRANCH  10  16
ATOM     16  O   UNL     1      89.072 104.955  66.069  1.00  0.00    -0.504 OA
ATOM     17  H   UNL     1      90.002 105.108  66.258  1.00  0.00     0.293 HD
ENDBRANCH  10  16
ENDBRANCH   7   8
ENDBRANCH   4   7
ENDBRANCH   2   3
ENDBRANCH   1   2
BRANCH   1  18
ATOM     18  C   UNL     1      89.663 100.355  70.336  1.00  0.00     0.001 C 
BRANCH  18  19
ATOM     19  C   UNL     1      90.710 101.460  70.049  1.00  0.00     0.004 C 
BRANCH  19  20
ATOM     20  C   UNL     1      91.991 100.872  69.394  1.00  0.00     0.027 C 
BRANCH  20  21
ATOM     21  C   UNL     1      92.614 101.760  68.427  1.00  0.00    -0.031 C 
ATOM     22  C   UNL     1      93.761 101.447  67.800  1.00  0.00    -0.028 C 
BRANCH  22  23
ATOM     23  C   UNL     1      94.409 102.315  66.819  1.00  0.00     0.005 C 
ATOM     24  C   UNL     1      95.875 101.862  66.586  1.00  0.00     0.012 C 
ATOM     25  C   UNL     1      93.585 102.347  65.503  1.00  0.00     0.012 C 
ENDBRANCH  22  23
ENDBRANCH  20  21
ENDBRANCH  19  20
ENDBRANCH  18  19
ENDBRANCH   1  18
TORSDOF 11
ENDMDL
MODEL 9
REMARK VINA RESULT:    -5.604     11.809     13.767
REMARK INTER + INTRA:          -9.959
REMARK INTER:                  -9.139
REMARK INTRA:                  -0.820
REMARK UNBOUND:                -0.915
REMARK SMILES COc1cc(CNC(=O)CCCCC/C=C/C(C)C)ccc1O
REMARK SMILES IDX 11 1 10 2 8 3 7 4 9 6 6 7 5 8 3 9 22 10 4 11 21 12 20 13
REMARK SMILES IDX 2 14 1 15 23 16 12 18 13 19 14 20 15 21 16 22 17 23 18 24
REMARK SMILES IDX 19 25
REMARK H PARENT 7 5 23 17
REMARK Flexibility Score: inf
ROOT
ATOM      1  C   UNL     1      96.063  80.523  83.369  1.00  0.00     0.010 C 
ENDROOT
BRANCH   1   2
ATOM      2  C   UNL     1      96.564  81.927  83.798  1.00  0.00     0.100 C 
BRANCH   2   3
ATOM      3  C   UNL     1      95.517  82.786  84.381  1.00  0.00     0.220 C 
ATOM      4  N   UNL     1      95.792  84.088  84.670  1.00  0.00    -0.352 N 
ATOM      5  H   UNL     1      96.754  84.359  84.523  1.00  0.00     0.163 HD
ATOM      6  O   UNL     1      94.377  82.297  84.560  1.00  0.00    -0.275 OA
BRANCH   4   7
ATOM      7  C   UNL     1      94.850  85.049  85.144  1.00  0.00     0.151 C 
BRANCH   7   8
ATOM      8  C   UNL     1      94.838  85.156  86.626  1.00  0.00    -0.025 A 
ATOM      9  C   UNL     1      95.725  86.124  88.706  1.00  0.00     0.160 A 
ATOM     10  C   UNL     1      94.846  85.314  89.457  1.00  0.00     0.157 A 
ATOM     11  C   UNL     1      95.720  86.033  87.299  1.00  0.00     0.056 A 
ATOM     12  C   UNL     1      93.952  84.450  88.798  1.00  0.00     0.050 A 
ATOM     13  C   UNL     1      93.940  84.379  87.393  1.00  0.00     0.009 A 
BRANCH   9  14
ATOM     14  O   UNL     1      96.537  87.032  89.333  1.00  0.00    -0.493 OA
ATOM     15  C   UNL     1      97.874  86.560  89.567  1.00  0.00     0.278 C 
ENDBRANCH   9  14
BRANCH  10  16
ATOM     16  O   UNL     1      94.839  85.351  90.813  1.00  0.00    -0.504 OA
ATOM     17  H   UNL     1      94.332  86.111  91.109  1.00  0.00     0.293 HD
ENDBRANCH  10  16
ENDBRANCH   7   8
ENDBRANCH   4   7
ENDBRANCH   2   3
ENDBRANCH   1   2
BRANCH   1  18
ATOM     18  C   UNL     1      96.613  80.135  81.973  1.00  0.00     0.001 C 
BRANCH  18  19
ATOM     19  C   UNL     1      97.048  81.350  81.115  1.00  0.00     0.004 C 
BRANCH  19  20
ATOM     20  C   UNL     1      98.295  81.016  80.250  1.00  0.00     0.027 C 
BRANCH  20  21
ATOM     21  C   UNL     1      98.081  81.191  78.824  1.00  0.00    -0.031 C 
ATOM     22  C   UNL     1      96.989  81.801  78.330  1.00  0.00    -0.028 C 
BRANCH  22  23
ATOM     23  C   UNL     1      96.748  81.997  76.903  1.00  0.00     0.005 C 
ATOM     24  C   UNL     1      95.802  83.207  76.679  1.00  0.00     0.012 C 
ATOM     25  C   UNL     1      98.095  82.154  76.147  1.00  0.00     0.012 C 
ENDBRANCH  22  23
ENDBRANCH  20  21
ENDBRANCH  19  20
ENDBRANCH  18  19
ENDBRANCH   1  18
TORSDOF 11
ENDMDL
MODEL 10
REMARK VINA RESULT:    -5.557     27.548     31.368
REMARK INTER + INTRA:          -9.883
REMARK INTER:                  -7.953
REMARK INTRA:                  -1.930
REMARK UNBOUND:                -0.915
REMARK SMILES COc1cc(CNC(=O)CCCCC/C=C/C(C)C)ccc1O
REMARK SMILES IDX 11 1 10 2 8 3 7 4 9 6 6 7 5 8 3 9 22 10 4 11 21 12 20 13
REMARK SMILES IDX 2 14 1 15 23 16 12 18 13 19 14 20 15 21 16 22 17 23 18 24
REMARK SMILES IDX 19 25
REMARK H PARENT 7 5 23 17
REMARK Flexibility Score: inf
ROOT
ATOM      1  C   UNL     1      82.125  66.286  68.860  1.00  0.00     0.010 C 
ENDROOT
BRANCH   1   2
ATOM      2  C   UNL     1      82.733  64.899  68.526  1.00  0.00     0.100 C 
BRANCH   2   3
ATOM      3  C   UNL     1      83.551  64.326  69.611  1.00  0.00     0.220 C 
ATOM      4  N   UNL     1      84.428  65.116  70.289  1.00  0.00    -0.352 N 
ATOM      5  H   UNL     1      84.506  66.059  69.935  1.00  0.00     0.163 HD
ATOM      6  O   UNL     1      83.384  63.119  69.908  1.00  0.00    -0.275 OA
BRANCH   4   7
ATOM      7  C   UNL     1      85.205  64.715  71.417  1.00  0.00     0.151 C 
BRANCH   7   8
ATOM      8  C   UNL     1      84.799  65.409  72.667  1.00  0.00    -0.025 A 
ATOM      9  C   UNL     1      84.423  67.484  73.933  1.00  0.00     0.160 A 
ATOM     10  C   UNL     1      84.076  66.724  75.072  1.00  0.00     0.157 A 
ATOM     11  C   UNL     1      84.790  66.821  72.744  1.00  0.00     0.056 A 
ATOM     12  C   UNL     1      84.065  65.319  75.002  1.00  0.00     0.050 A 
ATOM     13  C   UNL     1      84.414  64.666  73.805  1.00  0.00     0.009 A 
BRANCH   9  14
ATOM     14  O   UNL     1      84.352  68.851  73.964  1.00  0.00    -0.493 OA
ATOM     15  C   UNL     1      85.073  69.501  72.904  1.00  0.00     0.278 C 
ENDBRANCH   9  14
BRANCH  10  16
ATOM     16  O   UNL     1      83.744  67.323  76.243  1.00  0.00    -0.504 OA
ATOM     17  H   UNL     1      83.613  66.652  76.918  1.00  0.00     0.293 HD
ENDBRANCH  10  16
ENDBRANCH   7   8
ENDBRANCH   4   7
ENDBRANCH   2   3
ENDBRANCH   1   2
BRANCH   1  18
ATOM     18  C   UNL     1      80.716  66.141  69.490  1.00  0.00     0.001 C 
BRANCH  18  19
ATOM     19  C   UNL     1      80.709  65.363  70.830  1.00  0.00     0.004 C 
BRANCH  19  20
ATOM     20  C   UNL     1      81.318  66.211  71.981  1.00  0.00     0.027 C 
BRANCH  20  21
ATOM     21  C   UNL     1      80.570  66.132  73.224  1.00  0.00    -0.031 C 
ATOM     22  C   UNL     1      80.576  65.033  73.999  1.00  0.00    -0.028 C 
BRANCH  22  23
ATOM     23  C   UNL     1      79.840  64.925  75.256  1.00  0.00     0.005 C 
ATOM     24  C   UNL     1      79.619  63.433  75.623  1.00  0.00     0.012 C 
ATOM     25  C   UNL     1      80.576  65.706  76.378  1.00  0.00     0.012 C 
ENDBRANCH  22  23
ENDBRANCH  20  21
ENDBRANCH  19  20
ENDBRANCH  18  19
ENDBRANCH   1  18
TORSDOF 11
ENDMDL
