MODEL 1
REMARK VINA RESULT:    -6.434      0.000      0.000
REMARK INTER + INTRA:         -10.601
REMARK INTER:                 -10.008
REMARK INTRA:                  -0.593
REMARK UNBOUND:                -0.593
REMARK SMILES COc1cc(CNC(=O)CCCC/C=C/C(C)C)ccc1O
REMARK SMILES IDX 10 1 8 2 7 3 9 5 6 6 5 7 3 8 21 9 4 10 20 11 19 12 2 13 1 14
REMARK SMILES IDX 22 15 11 17 12 18 13 19 14 20 15 21 16 22 17 23 18 24
REMARK H PARENT 7 4 22 16
REMARK Flexibility Score: inf
ROOT
ATOM      1  C   UNL     1      97.685  82.371  84.721  1.00  0.00     0.100 C 
ENDROOT
BRANCH   1   2
ATOM      2  C   UNL     1      98.416  81.951  83.510  1.00  0.00     0.220 C 
ATOM      3  N   UNL     1      99.084  82.867  82.753  1.00  0.00    -0.352 N 
ATOM      4  H   UNL     1      99.010  83.822  83.076  1.00  0.00     0.163 HD
ATOM      5  O   UNL     1      98.424  80.732  83.216  1.00  0.00    -0.275 OA
BRANCH   3   6
ATOM      6  C   UNL     1      99.846  82.560  81.585  1.00  0.00     0.151 C 
BRANCH   6   7
ATOM      7  C   UNL     1      99.115  82.930  80.343  1.00  0.00    -0.025 A 
ATOM      8  C   UNL     1      99.099  83.277  77.905  1.00  0.00     0.160 A 
ATOM      9  C   UNL     1      97.731  83.616  77.961  1.00  0.00     0.157 A 
ATOM     10  C   UNL     1      99.778  82.941  79.095  1.00  0.00     0.056 A 
ATOM     11  C   UNL     1      97.061  83.629  79.201  1.00  0.00     0.050 A 
ATOM     12  C   UNL     1      97.744  83.279  80.382  1.00  0.00     0.009 A 
BRANCH   8  13
ATOM     13  O   UNL     1      99.772  83.327  76.711  1.00  0.00    -0.493 OA
ATOM     14  C   UNL     1     101.159  83.690  76.833  1.00  0.00     0.278 C 
ENDBRANCH   8  13
BRANCH   9  15
ATOM     15  O   UNL     1      97.045  83.932  76.832  1.00  0.00    -0.504 OA
ATOM     16  H   UNL     1      97.229  83.280  76.152  1.00  0.00     0.293 HD
ENDBRANCH   9  15
ENDBRANCH   6   7
ENDBRANCH   3   6
ENDBRANCH   1   2
BRANCH   1  17
ATOM     17  C   UNL     1      98.179  83.749  85.239  1.00  0.00     0.010 C 
BRANCH  17  18
ATOM     18  C   UNL     1      97.147  84.888  85.005  1.00  0.00     0.005 C 
BRANCH  18  19
ATOM     19  C   UNL     1      95.983  84.851  86.031  1.00  0.00     0.027 C 
BRANCH  19  20
ATOM     20  C   UNL     1      96.293  85.602  87.238  1.00  0.00    -0.031 C 
ATOM     21  C   UNL     1      95.508  86.569  87.749  1.00  0.00    -0.028 C 
BRANCH  21  22
ATOM     22  C   UNL     1      95.830  87.298  88.976  1.00  0.00     0.005 C 
ATOM     23  C   UNL     1      96.158  88.792  88.704  1.00  0.00     0.012 C 
ATOM     24  C   UNL     1      94.673  87.163  89.999  1.00  0.00     0.012 C 
ENDBRANCH  21  22
ENDBRANCH  19  20
ENDBRANCH  18  19
ENDBRANCH  17  18
ENDBRANCH   1  17
TORSDOF 10
ENDMDL
MODEL 2
REMARK VINA RESULT:    -6.274      3.074      3.938
REMARK INTER + INTRA:         -10.351
REMARK INTER:                  -9.746
REMARK INTRA:                  -0.605
REMARK UNBOUND:                -0.593
REMARK SMILES COc1cc(CNC(=O)CCCC/C=C/C(C)C)ccc1O
REMARK SMILES IDX 10 1 8 2 7 3 9 5 6 6 5 7 3 8 21 9 4 10 20 11 19 12 2 13 1 14
REMARK SMILES IDX 22 15 11 17 12 18 13 19 14 20 15 21 16 22 17 23 18 24
REMARK H PARENT 7 4 22 16
REMARK Flexibility Score: inf
ROOT
ATOM      1  C   UNL     1      97.124  83.371  84.579  1.00  0.00     0.100 C 
ENDROOT
BRANCH   1   2
ATOM      2  C   UNL     1      97.943  82.667  83.574  1.00  0.00     0.220 C 
ATOM      3  N   UNL     1      98.567  83.361  82.581  1.00  0.00    -0.352 N 
ATOM      4  H   UNL     1      98.401  84.358  82.588  1.00  0.00     0.163 HD
ATOM      5  O   UNL     1      98.064  81.422  83.675  1.00  0.00    -0.275 OA
BRANCH   3   6
ATOM      6  C   UNL     1      99.405  82.779  81.582  1.00  0.00     0.151 C 
BRANCH   6   7
ATOM      7  C   UNL     1      98.904  83.069  80.211  1.00  0.00    -0.025 A 
ATOM      8  C   UNL     1      99.290  83.177  77.782  1.00  0.00     0.160 A 
ATOM      9  C   UNL     1      97.958  83.599  77.588  1.00  0.00     0.157 A 
ATOM     10  C   UNL     1      99.750  82.919  79.090  1.00  0.00     0.056 A 
ATOM     11  C   UNL     1      97.108  83.772  78.699  1.00  0.00     0.050 A 
ATOM     12  C   UNL     1      97.573  83.500  80.000  1.00  0.00     0.009 A 
BRANCH   8  13
ATOM     13  O   UNL     1     100.140  83.071  76.711  1.00  0.00    -0.493 OA
ATOM     14  C   UNL     1     100.275  81.732  76.200  1.00  0.00     0.278 C 
ENDBRANCH   8  13
BRANCH   9  15
ATOM     15  O   UNL     1      97.479  83.844  76.341  1.00  0.00    -0.504 OA
ATOM     16  H   UNL     1      96.549  84.074  76.394  1.00  0.00     0.293 HD
ENDBRANCH   9  15
ENDBRANCH   6   7
ENDBRANCH   3   6
ENDBRANCH   1   2
BRANCH   1  17
ATOM     17  C   UNL     1      96.603  82.402  85.674  1.00  0.00     0.010 C 
BRANCH  17  18
ATOM     18  C   UNL     1      95.181  82.772  86.183  1.00  0.00     0.005 C 
BRANCH  18  19
ATOM     19  C   UNL     1      94.640  81.750  87.219  1.00  0.00     0.027 C 
BRANCH  19  20
ATOM     20  C   UNL     1      93.349  81.205  86.827  1.00  0.00    -0.031 C 
ATOM     21  C   UNL     1      92.261  81.953  86.566  1.00  0.00    -0.028 C 
BRANCH  21  22
ATOM     22  C   UNL     1      90.977  81.385  86.154  1.00  0.00     0.005 C 
ATOM     23  C   UNL     1      91.139  80.004  85.462  1.00  0.00     0.012 C 
ATOM     24  C   UNL     1      90.020  81.286  87.371  1.00  0.00     0.012 C 
ENDBRANCH  21  22
ENDBRANCH  19  20
ENDBRANCH  18  19
ENDBRANCH  17  18
ENDBRANCH   1  17
TORSDOF 10
ENDMDL
MODEL 3
REMARK VINA RESULT:    -6.245      2.934      9.088
REMARK INTER + INTRA:         -10.306
REMARK INTER:                  -9.518
REMARK INTRA:                  -0.787
REMARK UNBOUND:                -0.593
REMARK SMILES COc1cc(CNC(=O)CCCC/C=C/C(C)C)ccc1O
REMARK SMILES IDX 10 1 8 2 7 3 9 5 6 6 5 7 3 8 21 9 4 10 20 11 19 12 2 13 1 14
REMARK SMILES IDX 22 15 11 17 12 18 13 19 14 20 15 21 16 22 17 23 18 24
REMARK H PARENT 7 4 22 16
REMARK Flexibility Score: inf
ROOT
ATOM      1  C   UNL     1      98.487  82.163  78.901  1.00  0.00     0.100 C 
ENDROOT
BRANCH   1   2
ATOM      2  C   UNL     1      98.951  81.594  80.181  1.00  0.00     0.220 C 
ATOM      3  N   UNL     1      98.701  82.238  81.355  1.00  0.00    -0.352 N 
ATOM      4  H   UNL     1      98.210  83.117  81.263  1.00  0.00     0.163 HD
ATOM      5  O   UNL     1      99.558  80.496  80.155  1.00  0.00    -0.275 OA
BRANCH   3   6
ATOM      6  C   UNL     1      99.079  81.757  82.646  1.00  0.00     0.151 C 
BRANCH   6   7
ATOM      7  C   UNL     1      98.599  82.660  83.727  1.00  0.00    -0.025 A 
ATOM      8  C   UNL     1      98.800  83.525  86.024  1.00  0.00     0.160 A 
ATOM      9  C   UNL     1      97.709  84.389  85.795  1.00  0.00     0.157 A 
ATOM     10  C   UNL     1      99.233  82.669  84.990  1.00  0.00     0.056 A 
ATOM     11  C   UNL     1      97.054  84.378  84.547  1.00  0.00     0.050 A 
ATOM     12  C   UNL     1      97.501  83.527  83.517  1.00  0.00     0.009 A 
BRANCH   8  13
ATOM     13  O   UNL     1      99.398  83.485  87.257  1.00  0.00    -0.493 OA
ATOM     14  C   UNL     1     100.626  82.734  87.290  1.00  0.00     0.278 C 
ENDBRANCH   8  13
BRANCH   9  15
ATOM     15  O   UNL     1      97.275  85.236  86.764  1.00  0.00    -0.504 OA
ATOM     16  H   UNL     1      97.535  84.898  87.624  1.00  0.00     0.293 HD
ENDBRANCH   9  15
ENDBRANCH   6   7
ENDBRANCH   3   6
ENDBRANCH   1   2
BRANCH   1  17
ATOM     17  C   UNL     1      97.475  83.320  79.122  1.00  0.00     0.010 C 
BRANCH  17  18
ATOM     18  C   UNL     1      97.438  84.325  77.937  1.00  0.00     0.005 C 
BRANCH  18  19
ATOM     19  C   UNL     1      97.819  83.661  76.586  1.00  0.00     0.027 C 
BRANCH  19  20
ATOM     20  C   UNL     1      98.872  84.390  75.896  1.00  0.00    -0.031 C 
ATOM     21  C   UNL     1     100.123  83.927  75.721  1.00  0.00    -0.028 C 
BRANCH  21  22
ATOM     22  C   UNL     1     101.160  84.670  75.006  1.00  0.00     0.005 C 
ATOM     23  C   UNL     1     100.579  85.862  74.195  1.00  0.00     0.012 C 
ATOM     24  C   UNL     1     102.252  85.154  75.996  1.00  0.00     0.012 C 
ENDBRANCH  21  22
ENDBRANCH  19  20
ENDBRANCH  18  19
ENDBRANCH  17  18
ENDBRANCH   1  17
TORSDOF 10
ENDMDL
MODEL 4
REMARK VINA RESULT:    -6.146     26.030     28.814
REMARK INTER + INTRA:         -10.152
REMARK INTER:                  -8.925
REMARK INTRA:                  -1.227
REMARK UNBOUND:                -0.593
REMARK SMILES COc1cc(CNC(=O)CCCC/C=C/C(C)C)ccc1O
REMARK SMILES IDX 10 1 8 2 7 3 9 5 6 6 5 7 3 8 21 9 4 10 20 11 19 12 2 13 1 14
REMARK SMILES IDX 22 15 11 17 12 18 13 19 14 20 15 21 16 22 17 23 18 24
REMARK H PARENT 7 4 22 16
REMARK Flexibility Score: inf
ROOT
ATOM      1  C   UNL     1      76.020  81.315  64.503  1.00  0.00     0.100 C 
ENDROOT
BRANCH   1   2
ATOM      2  C   UNL     1      74.549  81.381  64.398  1.00  0.00     0.220 C 
ATOM      3  N   UNL     1      73.767  81.160  65.492  1.00  0.00    -0.352 N 
ATOM      4  H   UNL     1      74.272  80.932  66.338  1.00  0.00     0.163 HD
ATOM      5  O   UNL     1      74.047  81.669  63.285  1.00  0.00    -0.275 OA
BRANCH   3   6
ATOM      6  C   UNL     1      72.341  81.232  65.503  1.00  0.00     0.151 C 
BRANCH   6   7
ATOM      7  C   UNL     1      71.855  82.324  66.389  1.00  0.00    -0.025 A 
ATOM      8  C   UNL     1      72.139  84.577  67.342  1.00  0.00     0.160 A 
ATOM      9  C   UNL     1      70.934  84.425  68.060  1.00  0.00     0.157 A 
ATOM     10  C   UNL     1      72.589  83.525  66.516  1.00  0.00     0.056 A 
ATOM     11  C   UNL     1      70.202  83.226  67.958  1.00  0.00     0.050 A 
ATOM     12  C   UNL     1      70.653  82.186  67.122  1.00  0.00     0.009 A 
BRANCH   8  13
ATOM     13  O   UNL     1      72.888  85.716  67.489  1.00  0.00    -0.493 OA
ATOM     14  C   UNL     1      74.094  85.531  68.253  1.00  0.00     0.278 C 
ENDBRANCH   8  13
BRANCH   9  15
ATOM     15  O   UNL     1      70.466  85.423  68.853  1.00  0.00    -0.504 OA
ATOM     16  H   UNL     1      70.994  85.472  69.653  1.00  0.00     0.293 HD
ENDBRANCH   9  15
ENDBRANCH   6   7
ENDBRANCH   3   6
ENDBRANCH   1   2
BRANCH   1  17
ATOM     17  C   UNL     1      76.514  81.755  65.908  1.00  0.00     0.010 C 
BRANCH  17  18
ATOM     18  C   UNL     1      76.677  83.296  66.036  1.00  0.00     0.005 C 
BRANCH  18  19
ATOM     19  C   UNL     1      78.089  83.700  66.539  1.00  0.00     0.027 C 
BRANCH  19  20
ATOM     20  C   UNL     1      78.030  84.505  67.750  1.00  0.00    -0.031 C 
ATOM     21  C   UNL     1      77.477  84.092  68.905  1.00  0.00    -0.028 C 
BRANCH  21  22
ATOM     22  C   UNL     1      77.445  84.911  70.117  1.00  0.00     0.005 C 
ATOM     23  C   UNL     1      77.343  86.429  69.800  1.00  0.00     0.012 C 
ATOM     24  C   UNL     1      76.283  84.459  71.039  1.00  0.00     0.012 C 
ENDBRANCH  21  22
ENDBRANCH  19  20
ENDBRANCH  18  19
ENDBRANCH  17  18
ENDBRANCH   1  17
TORSDOF 10
ENDMDL
MODEL 5
REMARK VINA RESULT:    -5.941     25.168     27.622
REMARK INTER + INTRA:          -9.833
REMARK INTER:                  -7.659
REMARK INTRA:                  -2.173
REMARK UNBOUND:                -0.593
REMARK SMILES COc1cc(CNC(=O)CCCC/C=C/C(C)C)ccc1O
REMARK SMILES IDX 10 1 8 2 7 3 9 5 6 6 5 7 3 8 21 9 4 10 20 11 19 12 2 13 1 14
REMARK SMILES IDX 22 15 11 17 12 18 13 19 14 20 15 21 16 22 17 23 18 24
REMARK H PARENT 7 4 22 16
REMARK Flexibility Score: inf
ROOT
ATOM      1  C   UNL     1      75.475  87.416  70.428  1.00  0.00     0.100 C 
ENDROOT
BRANCH   1   2
ATOM      2  C   UNL     1      74.962  86.100  70.002  1.00  0.00     0.220 C 
ATOM      3  N   UNL     1      74.178  85.989  68.893  1.00  0.00    -0.352 N 
ATOM      4  H   UNL     1      73.973  86.862  68.427  1.00  0.00     0.163 HD
ATOM      5  O   UNL     1      75.286  85.092  70.675  1.00  0.00    -0.275 OA
BRANCH   3   6
ATOM      6  C   UNL     1      73.659  84.762  68.381  1.00  0.00     0.151 C 
BRANCH   6   7
ATOM      7  C   UNL     1      74.424  84.298  67.191  1.00  0.00    -0.025 A 
ATOM      8  C   UNL     1      76.501  83.413  66.210  1.00  0.00     0.160 A 
ATOM      9  C   UNL     1      75.893  83.393  64.938  1.00  0.00     0.157 A 
ATOM     10  C   UNL     1      75.763  83.867  67.323  1.00  0.00     0.056 A 
ATOM     11  C   UNL     1      74.565  83.839  64.788  1.00  0.00     0.050 A 
ATOM     12  C   UNL     1      73.832  84.279  65.907  1.00  0.00     0.009 A 
BRANCH   8  13
ATOM     13  O   UNL     1      77.815  83.042  66.349  1.00  0.00    -0.493 OA
ATOM     14  C   UNL     1      78.461  83.596  67.510  1.00  0.00     0.278 C 
ENDBRANCH   8  13
BRANCH   9  15
ATOM     15  O   UNL     1      76.571  82.950  63.848  1.00  0.00    -0.504 OA
ATOM     16  H   UNL     1      76.367  83.508  63.094  1.00  0.00     0.293 HD
ENDBRANCH   9  15
ENDBRANCH   6   7
ENDBRANCH   3   6
ENDBRANCH   1   2
BRANCH   1  17
ATOM     17  C   UNL     1      76.468  88.006  69.391  1.00  0.00     0.010 C 
BRANCH  17  18
ATOM     18  C   UNL     1      77.593  87.009  68.995  1.00  0.00     0.005 C 
BRANCH  18  19
ATOM     19  C   UNL     1      77.960  87.099  67.489  1.00  0.00     0.027 C 
BRANCH  19  20
ATOM     20  C   UNL     1      76.783  87.245  66.647  1.00  0.00    -0.031 C 
ATOM     21  C   UNL     1      76.786  87.089  65.310  1.00  0.00    -0.028 C 
BRANCH  21  22
ATOM     22  C   UNL     1      75.586  87.220  64.484  1.00  0.00     0.005 C 
ATOM     23  C   UNL     1      75.037  88.674  64.470  1.00  0.00     0.012 C 
ATOM     24  C   UNL     1      75.869  86.721  63.044  1.00  0.00     0.012 C 
ENDBRANCH  21  22
ENDBRANCH  19  20
ENDBRANCH  18  19
ENDBRANCH  17  18
ENDBRANCH   1  17
TORSDOF 10
ENDMDL
MODEL 6
REMARK VINA RESULT:    -5.923     26.621     29.425
REMARK INTER + INTRA:          -9.805
REMARK INTER:                  -8.802
REMARK INTRA:                  -1.003
REMARK UNBOUND:                -0.593
REMARK SMILES COc1cc(CNC(=O)CCCC/C=C/C(C)C)ccc1O
REMARK SMILES IDX 10 1 8 2 7 3 9 5 6 6 5 7 3 8 21 9 4 10 20 11 19 12 2 13 1 14
REMARK SMILES IDX 22 15 11 17 12 18 13 19 14 20 15 21 16 22 17 23 18 24
REMARK H PARENT 7 4 22 16
REMARK Flexibility Score: inf
ROOT
ATOM      1  C   UNL     1      75.961  81.295  64.440  1.00  0.00     0.100 C 
ENDROOT
BRANCH   1   2
ATOM      2  C   UNL     1      74.487  81.246  64.381  1.00  0.00     0.220 C 
ATOM      3  N   UNL     1      73.750  81.214  65.526  1.00  0.00    -0.352 N 
ATOM      4  H   UNL     1      74.290  81.202  66.381  1.00  0.00     0.163 HD
ATOM      5  O   UNL     1      73.939  81.259  63.252  1.00  0.00    -0.275 OA
BRANCH   3   6
ATOM      6  C   UNL     1      72.323  81.197  65.577  1.00  0.00     0.151 C 
BRANCH   6   7
ATOM      7  C   UNL     1      71.791  82.341  66.369  1.00  0.00    -0.025 A 
ATOM      8  C   UNL     1      69.907  83.459  67.491  1.00  0.00     0.160 A 
ATOM      9  C   UNL     1      70.765  84.503  67.894  1.00  0.00     0.157 A 
ATOM     10  C   UNL     1      70.426  82.390  66.731  1.00  0.00     0.056 A 
ATOM     11  C   UNL     1      72.124  84.477  67.523  1.00  0.00     0.050 A 
ATOM     12  C   UNL     1      72.636  83.400  66.774  1.00  0.00     0.009 A 
BRANCH   8  13
ATOM     13  O   UNL     1      68.570  83.513  67.793  1.00  0.00    -0.493 OA
ATOM     14  C   UNL     1      67.704  83.357  66.654  1.00  0.00     0.278 C 
ENDBRANCH   8  13
BRANCH   9  15
ATOM     15  O   UNL     1      70.299  85.540  68.637  1.00  0.00    -0.504 OA
ATOM     16  H   UNL     1      70.139  85.244  69.536  1.00  0.00     0.293 HD
ENDBRANCH   9  15
ENDBRANCH   6   7
ENDBRANCH   3   6
ENDBRANCH   1   2
BRANCH   1  17
ATOM     17  C   UNL     1      76.465  81.655  65.863  1.00  0.00     0.010 C 
BRANCH  17  18
ATOM     18  C   UNL     1      76.662  83.184  66.066  1.00  0.00     0.005 C 
BRANCH  18  19
ATOM     19  C   UNL     1      78.133  83.551  66.400  1.00  0.00     0.027 C 
BRANCH  19  20
ATOM     20  C   UNL     1      78.261  84.161  67.714  1.00  0.00    -0.031 C 
ATOM     21  C   UNL     1      77.243  84.308  68.582  1.00  0.00    -0.028 C 
BRANCH  21  22
ATOM     22  C   UNL     1      77.398  84.907  69.907  1.00  0.00     0.005 C 
ATOM     23  C   UNL     1      77.312  86.458  69.867  1.00  0.00     0.012 C 
ATOM     24  C   UNL     1      76.349  84.320  70.887  1.00  0.00     0.012 C 
ENDBRANCH  21  22
ENDBRANCH  19  20
ENDBRANCH  18  19
ENDBRANCH  17  18
ENDBRANCH   1  17
TORSDOF 10
ENDMDL
MODEL 7
REMARK VINA RESULT:    -5.921      2.961      8.284
REMARK INTER + INTRA:          -9.803
REMARK INTER:                  -8.655
REMARK INTRA:                  -1.147
REMARK UNBOUND:                -0.593
REMARK SMILES COc1cc(CNC(=O)CCCC/C=C/C(C)C)ccc1O
REMARK SMILES IDX 10 1 8 2 7 3 9 5 6 6 5 7 3 8 21 9 4 10 20 11 19 12 2 13 1 14
REMARK SMILES IDX 22 15 11 17 12 18 13 19 14 20 15 21 16 22 17 23 18 24
REMARK H PARENT 7 4 22 16
REMARK Flexibility Score: inf
ROOT
ATOM      1  C   UNL     1     101.626  82.427  81.495  1.00  0.00     0.100 C 
ENDROOT
BRANCH   1   2
ATOM      2  C   UNL     1     100.418  81.983  82.217  1.00  0.00     0.220 C 
ATOM      3  N   UNL     1      99.352  82.818  82.361  1.00  0.00    -0.352 N 
ATOM      4  H   UNL     1      99.475  83.739  81.963  1.00  0.00     0.163 HD
ATOM      5  O   UNL     1     100.396  80.813  82.670  1.00  0.00    -0.275 OA
BRANCH   3   6
ATOM      6  C   UNL     1      98.129  82.475  83.013  1.00  0.00     0.151 C 
BRANCH   6   7
ATOM      7  C   UNL     1      97.949  83.240  84.276  1.00  0.00    -0.025 A 
ATOM      8  C   UNL     1      98.662  83.747  86.578  1.00  0.00     0.160 A 
ATOM      9  C   UNL     1      97.632  84.704  86.687  1.00  0.00     0.157 A 
ATOM     10  C   UNL     1      98.809  83.023  85.376  1.00  0.00     0.056 A 
ATOM     11  C   UNL     1      96.754  84.918  85.605  1.00  0.00     0.050 A 
ATOM     12  C   UNL     1      96.916  84.198  84.405  1.00  0.00     0.009 A 
BRANCH   8  13
ATOM     13  O   UNL     1      99.477  83.489  87.650  1.00  0.00    -0.493 OA
ATOM     14  C   UNL     1     100.691  84.261  87.664  1.00  0.00     0.278 C 
ENDBRANCH   8  13
BRANCH   9  15
ATOM     15  O   UNL     1      97.471  85.428  87.825  1.00  0.00    -0.504 OA
ATOM     16  H   UNL     1      98.234  85.995  87.955  1.00  0.00     0.293 HD
ENDBRANCH   9  15
ENDBRANCH   6   7
ENDBRANCH   3   6
ENDBRANCH   1   2
BRANCH   1  17
ATOM     17  C   UNL     1     102.170  81.320  80.553  1.00  0.00     0.010 C 
BRANCH  17  18
ATOM     18  C   UNL     1     101.344  81.181  79.243  1.00  0.00     0.005 C 
BRANCH  18  19
ATOM     19  C   UNL     1     101.386  82.471  78.379  1.00  0.00     0.027 C 
BRANCH  19  20
ATOM     20  C   UNL     1     100.061  83.038  78.179  1.00  0.00    -0.031 C 
ATOM     21  C   UNL     1      98.920  82.461  78.598  1.00  0.00    -0.028 C 
BRANCH  21  22
ATOM     22  C   UNL     1      97.600  83.060  78.403  1.00  0.00     0.005 C 
ATOM     23  C   UNL     1      97.010  83.629  79.723  1.00  0.00     0.012 C 
ATOM     24  C   UNL     1      97.665  84.157  77.309  1.00  0.00     0.012 C 
ENDBRANCH  21  22
ENDBRANCH  19  20
ENDBRANCH  18  19
ENDBRANCH  17  18
ENDBRANCH   1  17
TORSDOF 10
ENDMDL
MODEL 8
REMARK VINA RESULT:    -5.783     15.288     17.640
REMARK INTER + INTRA:          -9.587
REMARK INTER:                  -9.054
REMARK INTRA:                  -0.533
REMARK UNBOUND:                -0.593
REMARK SMILES COc1cc(CNC(=O)CCCC/C=C/C(C)C)ccc1O
REMARK SMILES IDX 10 1 8 2 7 3 9 5 6 6 5 7 3 8 21 9 4 10 20 11 19 12 2 13 1 14
REMARK SMILES IDX 22 15 11 17 12 18 13 19 14 20 15 21 16 22 17 23 18 24
REMARK H PARENT 7 4 22 16
REMARK Flexibility Score: inf
ROOT
ATOM      1  C   UNL     1      94.808 100.208  75.172  1.00  0.00     0.100 C 
ENDROOT
BRANCH   1   2
ATOM      2  C   UNL     1      95.318  98.828  75.275  1.00  0.00     0.220 C 
ATOM      3  N   UNL     1      94.743  97.940  76.135  1.00  0.00    -0.352 N 
ATOM      4  H   UNL     1      93.984  98.313  76.687  1.00  0.00     0.163 HD
ATOM      5  O   UNL     1      96.275  98.493  74.535  1.00  0.00    -0.275 OA
BRANCH   3   6
ATOM      6  C   UNL     1      95.140  96.577  76.285  1.00  0.00     0.151 C 
BRANCH   6   7
ATOM      7  C   UNL     1      94.118  95.789  77.026  1.00  0.00    -0.025 A 
ATOM      8  C   UNL     1      93.424  94.573  79.051  1.00  0.00     0.160 A 
ATOM      9  C   UNL     1      92.173  94.301  78.460  1.00  0.00     0.157 A 
ATOM     10  C   UNL     1      94.384  95.311  78.329  1.00  0.00     0.056 A 
ATOM     11  C   UNL     1      91.900  94.754  77.154  1.00  0.00     0.050 A 
ATOM     12  C   UNL     1      92.861  95.501  76.445  1.00  0.00     0.009 A 
BRANCH   8  13
ATOM     13  O   UNL     1      93.718  94.078  80.296  1.00  0.00    -0.493 OA
ATOM     14  C   UNL     1      95.003  93.433  80.383  1.00  0.00     0.278 C 
ENDBRANCH   8  13
BRANCH   9  15
ATOM     15  O   UNL     1      91.221  93.604  79.134  1.00  0.00    -0.504 OA
ATOM     16  H   UNL     1      91.641  93.004  79.754  1.00  0.00     0.293 HD
ENDBRANCH   9  15
ENDBRANCH   6   7
ENDBRANCH   3   6
ENDBRANCH   1   2
BRANCH   1  17
ATOM     17  C   UNL     1      93.258 100.253  75.243  1.00  0.00     0.010 C 
BRANCH  17  18
ATOM     18  C   UNL     1      92.578  99.359  74.168  1.00  0.00     0.005 C 
BRANCH  18  19
ATOM     19  C   UNL     1      91.951 100.192  73.018  1.00  0.00     0.027 C 
BRANCH  19  20
ATOM     20  C   UNL     1      91.445  99.349  71.945  1.00  0.00    -0.031 C 
ATOM     21  C   UNL     1      90.348  99.629  71.217  1.00  0.00    -0.028 C 
BRANCH  21  22
ATOM     22  C   UNL     1      89.868  98.777  70.130  1.00  0.00     0.005 C 
ATOM     23  C   UNL     1      89.566  97.329  70.606  1.00  0.00     0.012 C 
ATOM     24  C   UNL     1      88.620  99.412  69.463  1.00  0.00     0.012 C 
ENDBRANCH  21  22
ENDBRANCH  19  20
ENDBRANCH  18  19
ENDBRANCH  17  18
ENDBRANCH   1  17
TORSDOF 10
ENDMDL
MODEL 9
REMARK VINA RESULT:    -5.710      2.852      5.343
REMARK INTER + INTRA:          -9.474
REMARK INTER:                  -8.857
REMARK INTRA:                  -0.617
REMARK UNBOUND:                -0.593
REMARK SMILES COc1cc(CNC(=O)CCCC/C=C/C(C)C)ccc1O
REMARK SMILES IDX 10 1 8 2 7 3 9 5 6 6 5 7 3 8 21 9 4 10 20 11 19 12 2 13 1 14
REMARK SMILES IDX 22 15 11 17 12 18 13 19 14 20 15 21 16 22 17 23 18 24
REMARK H PARENT 7 4 22 16
REMARK Flexibility Score: inf
ROOT
ATOM      1  C   UNL     1      98.574  82.401  79.707  1.00  0.00     0.100 C 
ENDROOT
BRANCH   1   2
ATOM      2  C   UNL     1      98.184  83.259  78.572  1.00  0.00     0.220 C 
ATOM      3  N   UNL     1      99.104  83.630  77.638  1.00  0.00    -0.352 N 
ATOM      4  H   UNL     1     100.042  83.293  77.805  1.00  0.00     0.163 HD
ATOM      5  O   UNL     1      96.984  83.615  78.484  1.00  0.00    -0.275 OA
BRANCH   3   6
ATOM      6  C   UNL     1      98.822  84.429  76.488  1.00  0.00     0.151 C 
BRANCH   6   7
ATOM      7  C   UNL     1      99.957  84.422  75.526  1.00  0.00    -0.025 A 
ATOM      8  C   UNL     1     101.754  83.206  74.362  1.00  0.00     0.160 A 
ATOM      9  C   UNL     1     102.112  84.387  73.679  1.00  0.00     0.157 A 
ATOM     10  C   UNL     1     100.683  83.235  75.279  1.00  0.00     0.056 A 
ATOM     11  C   UNL     1     101.411  85.583  73.930  1.00  0.00     0.050 A 
ATOM     12  C   UNL     1     100.335  85.599  74.839  1.00  0.00     0.009 A 
BRANCH   8  13
ATOM     13  O   UNL     1     102.475  82.055  74.171  1.00  0.00    -0.493 OA
ATOM     14  C   UNL     1     101.667  80.890  73.921  1.00  0.00     0.278 C 
ENDBRANCH   8  13
BRANCH   9  15
ATOM     15  O   UNL     1     103.130  84.390  72.780  1.00  0.00    -0.504 OA
ATOM     16  H   UNL     1     103.909  84.783  73.179  1.00  0.00     0.293 HD
ENDBRANCH   9  15
ENDBRANCH   6   7
ENDBRANCH   3   6
ENDBRANCH   1   2
BRANCH   1  17
ATOM     17  C   UNL     1      99.489  83.156  80.709  1.00  0.00     0.010 C 
BRANCH  17  18
ATOM     18  C   UNL     1      99.777  82.339  82.000  1.00  0.00     0.005 C 
BRANCH  18  19
ATOM     19  C   UNL     1      98.478  81.966  82.764  1.00  0.00     0.027 C 
BRANCH  19  20
ATOM     20  C   UNL     1      98.047  83.027  83.662  1.00  0.00    -0.031 C 
ATOM     21  C   UNL     1      97.176  82.854  84.673  1.00  0.00    -0.028 C 
BRANCH  21  22
ATOM     22  C   UNL     1      96.772  83.931  85.576  1.00  0.00     0.005 C 
ATOM     23  C   UNL     1      97.132  83.626  87.057  1.00  0.00     0.012 C 
ATOM     24  C   UNL     1      97.398  85.275  85.121  1.00  0.00     0.012 C 
ENDBRANCH  21  22
ENDBRANCH  19  20
ENDBRANCH  18  19
ENDBRANCH  17  18
ENDBRANCH   1  17
TORSDOF 10
ENDMDL
MODEL 10
REMARK VINA RESULT:    -5.641     25.308     28.119
REMARK INTER + INTRA:          -9.366
REMARK INTER:                  -7.340
REMARK INTRA:                  -2.026
REMARK UNBOUND:                -0.593
REMARK SMILES COc1cc(CNC(=O)CCCC/C=C/C(C)C)ccc1O
REMARK SMILES IDX 10 1 8 2 7 3 9 5 6 6 5 7 3 8 21 9 4 10 20 11 19 12 2 13 1 14
REMARK SMILES IDX 22 15 11 17 12 18 13 19 14 20 15 21 16 22 17 23 18 24
REMARK H PARENT 7 4 22 16
REMARK Flexibility Score: inf
ROOT
ATOM      1  C   UNL     1      75.347  87.309  70.300  1.00  0.00     0.100 C 
ENDROOT
BRANCH   1   2
ATOM      2  C   UNL     1      74.685  86.068  69.853  1.00  0.00     0.220 C 
ATOM      3  N   UNL     1      74.018  86.030  68.666  1.00  0.00    -0.352 N 
ATOM      4  H   UNL     1      74.002  86.903  68.157  1.00  0.00     0.163 HD
ATOM      5  O   UNL     1      74.776  85.052  70.584  1.00  0.00    -0.275 OA
BRANCH   3   6
ATOM      6  C   UNL     1      73.374  84.874  68.130  1.00  0.00     0.151 C 
BRANCH   6   7
ATOM      7  C   UNL     1      74.210  84.213  67.091  1.00  0.00    -0.025 A 
ATOM      8  C   UNL     1      74.548  83.522  64.752  1.00  0.00     0.160 A 
ATOM      9  C   UNL     1      75.802  82.976  65.093  1.00  0.00     0.157 A 
ATOM     10  C   UNL     1      73.764  84.133  65.753  1.00  0.00     0.056 A 
ATOM     11  C   UNL     1      76.252  83.031  66.427  1.00  0.00     0.050 A 
ATOM     12  C   UNL     1      75.468  83.653  67.418  1.00  0.00     0.009 A 
BRANCH   8  13
ATOM     13  O   UNL     1      74.076  83.413  63.468  1.00  0.00    -0.493 OA
ATOM     14  C   UNL     1      73.110  82.361  63.286  1.00  0.00     0.278 C 
ENDBRANCH   8  13
BRANCH   9  15
ATOM     15  O   UNL     1      76.587  82.392  64.151  1.00  0.00    -0.504 OA
ATOM     16  H   UNL     1      76.439  82.816  63.303  1.00  0.00     0.293 HD
ENDBRANCH   9  15
ENDBRANCH   6   7
ENDBRANCH   3   6
ENDBRANCH   1   2
BRANCH   1  17
ATOM     17  C   UNL     1      76.335  87.848  69.231  1.00  0.00     0.010 C 
BRANCH  17  18
ATOM     18  C   UNL     1      77.689  87.083  69.218  1.00  0.00     0.005 C 
BRANCH  18  19
ATOM     19  C   UNL     1      78.206  86.821  67.778  1.00  0.00     0.027 C 
BRANCH  19  20
ATOM     20  C   UNL     1      77.117  86.642  66.830  1.00  0.00    -0.031 C 
ATOM     21  C   UNL     1      77.103  87.157  65.587  1.00  0.00    -0.028 C 
BRANCH  21  22
ATOM     22  C   UNL     1      76.006  86.948  64.643  1.00  0.00     0.005 C 
ATOM     23  C   UNL     1      75.312  88.279  64.241  1.00  0.00     0.012 C 
ATOM     24  C   UNL     1      76.514  86.189  63.390  1.00  0.00     0.012 C 
ENDBRANCH  21  22
ENDBRANCH  19  20
ENDBRANCH  18  19
ENDBRANCH  17  18
ENDBRANCH   1  17
TORSDOF 10
ENDMDL
