MODEL 1
REMARK VINA RESULT:    -5.821      0.000      0.000
REMARK INTER + INTRA:         -10.156
REMARK INTER:                  -9.055
REMARK INTRA:                  -1.102
REMARK UNBOUND:                -1.102
REMARK SMILES COc1cc(CNC(=O)CCCCCC(C)C)ccc1O
REMARK SMILES IDX 10 1 8 2 7 3 9 5 6 6 5 7 3 8 20 9 4 10 19 11 18 12 2 13 1 14
REMARK SMILES IDX 21 15 11 17 12 18 13 19 14 20 15 21 16 22 17 23
REMARK H PARENT 7 4 21 16
REMARK Flexibility Score: inf
ROOT
ATOM      1  C   UNL     1      94.479  93.002  78.833  1.00  0.00     0.100 C 
ENDROOT
BRANCH   1   2
ATOM      2  C   UNL     1      95.426  93.037  79.967  1.00  0.00     0.220 C 
ATOM      3  N   UNL     1      96.592  93.731  79.844  1.00  0.00    -0.352 N 
ATOM      4  H   UNL     1      96.787  94.073  78.914  1.00  0.00     0.163 HD
ATOM      5  O   UNL     1      95.116  92.459  81.037  1.00  0.00    -0.275 OA
BRANCH   3   6
ATOM      6  C   UNL     1      97.509  93.991  80.907  1.00  0.00     0.151 C 
BRANCH   6   7
ATOM      7  C   UNL     1      97.304  95.320  81.544  1.00  0.00    -0.025 A 
ATOM      8  C   UNL     1      98.044  97.078  83.096  1.00  0.00     0.160 A 
ATOM      9  C   UNL     1      96.949  97.879  82.708  1.00  0.00     0.157 A 
ATOM     10  C   UNL     1      98.204  95.797  82.526  1.00  0.00     0.056 A 
ATOM     11  C   UNL     1      96.032  97.403  81.752  1.00  0.00     0.050 A 
ATOM     12  C   UNL     1      96.211  96.137  81.171  1.00  0.00     0.009 A 
BRANCH   8  13
ATOM     13  O   UNL     1      98.937  97.514  84.039  1.00  0.00    -0.493 OA
ATOM     14  C   UNL     1      98.818  96.843  85.308  1.00  0.00     0.278 C 
ENDBRANCH   8  13
BRANCH   9  15
ATOM     15  O   UNL     1      96.785  99.111  83.252  1.00  0.00    -0.504 OA
ATOM     16  H   UNL     1      97.370  99.209  84.006  1.00  0.00     0.293 HD
ENDBRANCH   9  15
ENDBRANCH   6   7
ENDBRANCH   3   6
ENDBRANCH   1   2
BRANCH   1  17
ATOM     17  C   UNL     1      94.728  94.095  77.759  1.00  0.00     0.010 C 
BRANCH  17  18
ATOM     18  C   UNL     1      93.721  95.270  77.894  1.00  0.00     0.001 C 
BRANCH  18  19
ATOM     19  C   UNL     1      92.814  95.450  76.648  1.00  0.00     0.000 C 
BRANCH  19  20
ATOM     20  C   UNL     1      91.319  95.155  76.961  1.00  0.00     0.003 C 
BRANCH  20  21
ATOM     21  C   UNL     1      90.845  93.706  76.614  1.00  0.00    -0.017 C 
ATOM     22  C   UNL     1      90.484  92.915  77.906  1.00  0.00     0.007 C 
ATOM     23  C   UNL     1      91.891  92.913  75.778  1.00  0.00     0.007 C 
ENDBRANCH  20  21
ENDBRANCH  19  20
ENDBRANCH  18  19
ENDBRANCH  17  18
ENDBRANCH   1  17
TORSDOF 10
ENDMDL
MODEL 2
REMARK VINA RESULT:    -5.803      2.839      4.192
REMARK INTER + INTRA:         -10.128
REMARK INTER:                  -9.243
REMARK INTRA:                  -0.885
REMARK UNBOUND:                -1.102
REMARK SMILES COc1cc(CNC(=O)CCCCCC(C)C)ccc1O
REMARK SMILES IDX 10 1 8 2 7 3 9 5 6 6 5 7 3 8 20 9 4 10 19 11 18 12 2 13 1 14
REMARK SMILES IDX 21 15 11 17 12 18 13 19 14 20 15 21 16 22 17 23
REMARK H PARENT 7 4 21 16
REMARK Flexibility Score: inf
ROOT
ATOM      1  C   UNL     1      95.944  97.542  74.769  1.00  0.00     0.100 C 
ENDROOT
BRANCH   1   2
ATOM      2  C   UNL     1      96.777  97.558  75.989  1.00  0.00     0.220 C 
ATOM      3  N   UNL     1      96.957  96.404  76.693  1.00  0.00    -0.352 N 
ATOM      4  H   UNL     1      96.384  95.629  76.391  1.00  0.00     0.163 HD
ATOM      5  O   UNL     1      97.339  98.628  76.330  1.00  0.00    -0.275 OA
BRANCH   3   6
ATOM      6  C   UNL     1      97.867  96.238  77.780  1.00  0.00     0.151 C 
BRANCH   6   7
ATOM      7  C   UNL     1      97.186  96.074  79.092  1.00  0.00    -0.025 A 
ATOM      8  C   UNL     1      96.158  94.628  80.795  1.00  0.00     0.160 A 
ATOM      9  C   UNL     1      95.949  95.753  81.621  1.00  0.00     0.157 A 
ATOM     10  C   UNL     1      96.757  94.798  79.529  1.00  0.00     0.056 A 
ATOM     11  C   UNL     1      96.347  97.030  81.185  1.00  0.00     0.050 A 
ATOM     12  C   UNL     1      96.966  97.189  79.934  1.00  0.00     0.009 A 
BRANCH   8  13
ATOM     13  O   UNL     1      95.759  93.379  81.192  1.00  0.00    -0.493 OA
ATOM     14  C   UNL     1      95.134  92.608  80.148  1.00  0.00     0.278 C 
ENDBRANCH   8  13
BRANCH   9  15
ATOM     15  O   UNL     1      95.371  95.601  82.839  1.00  0.00    -0.504 OA
ATOM     16  H   UNL     1      95.726  94.819  83.266  1.00  0.00     0.293 HD
ENDBRANCH   9  15
ENDBRANCH   6   7
ENDBRANCH   3   6
ENDBRANCH   1   2
BRANCH   1  17
ATOM     17  C   UNL     1      95.296  96.166  74.456  1.00  0.00     0.010 C 
BRANCH  17  18
ATOM     18  C   UNL     1      93.753  96.208  74.627  1.00  0.00     0.001 C 
BRANCH  18  19
ATOM     19  C   UNL     1      93.280  95.813  76.051  1.00  0.00     0.000 C 
BRANCH  19  20
ATOM     20  C   UNL     1      92.055  94.852  76.019  1.00  0.00     0.003 C 
BRANCH  20  21
ATOM     21  C   UNL     1      92.320  93.426  76.601  1.00  0.00    -0.017 C 
ATOM     22  C   UNL     1      91.379  92.374  75.942  1.00  0.00     0.007 C 
ATOM     23  C   UNL     1      92.181  93.370  78.150  1.00  0.00     0.007 C 
ENDBRANCH  20  21
ENDBRANCH  19  20
ENDBRANCH  18  19
ENDBRANCH  17  18
ENDBRANCH   1  17
TORSDOF 10
ENDMDL
MODEL 3
REMARK VINA RESULT:    -5.448      3.827      7.897
REMARK INTER + INTRA:          -9.576
REMARK INTER:                  -8.360
REMARK INTRA:                  -1.215
REMARK UNBOUND:                -1.102
REMARK SMILES COc1cc(CNC(=O)CCCCCC(C)C)ccc1O
REMARK SMILES IDX 10 1 8 2 7 3 9 5 6 6 5 7 3 8 20 9 4 10 19 11 18 12 2 13 1 14
REMARK SMILES IDX 21 15 11 17 12 18 13 19 14 20 15 21 16 22 17 23
REMARK H PARENT 7 4 21 16
REMARK Flexibility Score: inf
ROOT
ATOM      1  C   UNL     1      96.572  98.394  74.703  1.00  0.00     0.100 C 
ENDROOT
BRANCH   1   2
ATOM      2  C   UNL     1      95.171  98.020  74.417  1.00  0.00     0.220 C 
ATOM      3  N   UNL     1      94.713  96.796  74.802  1.00  0.00    -0.352 N 
ATOM      4  H   UNL     1      95.422  96.166  75.150  1.00  0.00     0.163 HD
ATOM      5  O   UNL     1      94.419  98.857  73.860  1.00  0.00    -0.275 OA
BRANCH   3   6
ATOM      6  C   UNL     1      93.350  96.374  74.746  1.00  0.00     0.151 C 
BRANCH   6   7
ATOM      7  C   UNL     1      92.991  95.412  75.823  1.00  0.00    -0.025 A 
ATOM      8  C   UNL     1      91.679  93.489  76.614  1.00  0.00     0.160 A 
ATOM      9  C   UNL     1      92.356  93.538  77.851  1.00  0.00     0.157 A 
ATOM     10  C   UNL     1      91.987  94.437  75.615  1.00  0.00     0.056 A 
ATOM     11  C   UNL     1      93.337  94.520  78.078  1.00  0.00     0.050 A 
ATOM     12  C   UNL     1      93.657  95.447  77.071  1.00  0.00     0.009 A 
BRANCH   8  13
ATOM     13  O   UNL     1      90.706  92.552  76.380  1.00  0.00    -0.493 OA
ATOM     14  C   UNL     1      91.084  91.548  75.419  1.00  0.00     0.278 C 
ENDBRANCH   8  13
BRANCH   9  15
ATOM     15  O   UNL     1      92.066  92.633  78.818  1.00  0.00    -0.504 OA
ATOM     16  H   UNL     1      91.181  92.795  79.154  1.00  0.00     0.293 HD
ENDBRANCH   9  15
ENDBRANCH   6   7
ENDBRANCH   3   6
ENDBRANCH   1   2
BRANCH   1  17
ATOM     17  C   UNL     1      97.404  97.276  75.388  1.00  0.00     0.010 C 
BRANCH  17  18
ATOM     18  C   UNL     1      97.449  97.460  76.930  1.00  0.00     0.001 C 
BRANCH  18  19
ATOM     19  C   UNL     1      97.187  96.148  77.715  1.00  0.00     0.000 C 
BRANCH  19  20
ATOM     20  C   UNL     1      97.150  96.380  79.254  1.00  0.00     0.003 C 
BRANCH  20  21
ATOM     21  C   UNL     1      96.085  95.534  80.024  1.00  0.00    -0.017 C 
ATOM     22  C   UNL     1      95.787  96.154  81.421  1.00  0.00     0.007 C 
ATOM     23  C   UNL     1      96.497  94.041  80.180  1.00  0.00     0.007 C 
ENDBRANCH  20  21
ENDBRANCH  19  20
ENDBRANCH  18  19
ENDBRANCH  17  18
ENDBRANCH   1  17
TORSDOF 10
ENDMDL
MODEL 4
REMARK VINA RESULT:    -5.408      2.167      2.820
REMARK INTER + INTRA:          -9.513
REMARK INTER:                  -8.598
REMARK INTRA:                  -0.915
REMARK UNBOUND:                -1.102
REMARK SMILES COc1cc(CNC(=O)CCCCCC(C)C)ccc1O
REMARK SMILES IDX 10 1 8 2 7 3 9 5 6 6 5 7 3 8 20 9 4 10 19 11 18 12 2 13 1 14
REMARK SMILES IDX 21 15 11 17 12 18 13 19 14 20 15 21 16 22 17 23
REMARK H PARENT 7 4 21 16
REMARK Flexibility Score: inf
ROOT
ATOM      1  C   UNL     1      96.270  93.103  78.597  1.00  0.00     0.100 C 
ENDROOT
BRANCH   1   2
ATOM      2  C   UNL     1      96.071  93.703  79.933  1.00  0.00     0.220 C 
ATOM      3  N   UNL     1      96.825  94.776  80.304  1.00  0.00    -0.352 N 
ATOM      4  H   UNL     1      97.576  95.007  79.670  1.00  0.00     0.163 HD
ATOM      5  O   UNL     1      95.180  93.236  80.683  1.00  0.00    -0.275 OA
BRANCH   3   6
ATOM      6  C   UNL     1      96.621  95.555  81.483  1.00  0.00     0.151 C 
BRANCH   6   7
ATOM      7  C   UNL     1      96.761  97.018  81.248  1.00  0.00    -0.025 A 
ATOM      8  C   UNL     1      97.435  98.891  79.805  1.00  0.00     0.160 A 
ATOM      9  C   UNL     1      96.965  99.803  80.773  1.00  0.00     0.157 A 
ATOM     10  C   UNL     1      97.348  97.505  80.057  1.00  0.00     0.056 A 
ATOM     11  C   UNL     1      96.404  99.330  81.973  1.00  0.00     0.050 A 
ATOM     12  C   UNL     1      96.297  97.949  82.207  1.00  0.00     0.009 A 
BRANCH   8  13
ATOM     13  O   UNL     1      98.003  99.331  78.638  1.00  0.00    -0.493 OA
ATOM     14  C   UNL     1      99.429  99.137  78.575  1.00  0.00     0.278 C 
ENDBRANCH   8  13
BRANCH   9  15
ATOM     15  O   UNL     1      97.046 101.138  80.542  1.00  0.00    -0.504 OA
ATOM     16  H   UNL     1      97.938 101.440  80.725  1.00  0.00     0.293 HD
ENDBRANCH   9  15
ENDBRANCH   6   7
ENDBRANCH   3   6
ENDBRANCH   1   2
BRANCH   1  17
ATOM     17  C   UNL     1      95.086  93.319  77.618  1.00  0.00     0.010 C 
BRANCH  17  18
ATOM     18  C   UNL     1      94.630  94.804  77.588  1.00  0.00     0.001 C 
BRANCH  18  19
ATOM     19  C   UNL     1      93.088  94.976  77.578  1.00  0.00     0.000 C 
BRANCH  19  20
ATOM     20  C   UNL     1      92.351  93.702  78.086  1.00  0.00     0.003 C 
BRANCH  20  21
ATOM     21  C   UNL     1      90.963  93.433  77.418  1.00  0.00    -0.017 C 
ATOM     22  C   UNL     1      91.077  92.324  76.330  1.00  0.00     0.007 C 
ATOM     23  C   UNL     1      90.326  94.715  76.808  1.00  0.00     0.007 C 
ENDBRANCH  20  21
ENDBRANCH  19  20
ENDBRANCH  18  19
ENDBRANCH  17  18
ENDBRANCH   1  17
TORSDOF 10
ENDMDL
MODEL 5
REMARK VINA RESULT:    -5.397      3.319      8.816
REMARK INTER + INTRA:          -9.495
REMARK INTER:                  -8.631
REMARK INTRA:                  -0.864
REMARK UNBOUND:                -1.102
REMARK SMILES COc1cc(CNC(=O)CCCCCC(C)C)ccc1O
REMARK SMILES IDX 10 1 8 2 7 3 9 5 6 6 5 7 3 8 20 9 4 10 19 11 18 12 2 13 1 14
REMARK SMILES IDX 21 15 11 17 12 18 13 19 14 20 15 21 16 22 17 23
REMARK H PARENT 7 4 21 16
REMARK Flexibility Score: inf
ROOT
ATOM      1  C   UNL     1      96.216  95.910  78.524  1.00  0.00     0.100 C 
ENDROOT
BRANCH   1   2
ATOM      2  C   UNL     1      95.601  95.590  77.219  1.00  0.00     0.220 C 
ATOM      3  N   UNL     1      94.735  94.541  77.127  1.00  0.00    -0.352 N 
ATOM      4  H   UNL     1      94.677  93.964  77.954  1.00  0.00     0.163 HD
ATOM      5  O   UNL     1      95.856  96.318  76.230  1.00  0.00    -0.275 OA
BRANCH   3   6
ATOM      6  C   UNL     1      93.943  94.228  75.981  1.00  0.00     0.151 C 
BRANCH   6   7
ATOM      7  C   UNL     1      92.674  93.529  76.321  1.00  0.00    -0.025 A 
ATOM      8  C   UNL     1      90.841  92.013  75.698  1.00  0.00     0.160 A 
ATOM      9  C   UNL     1      90.295  92.144  76.992  1.00  0.00     0.157 A 
ATOM     10  C   UNL     1      92.016  92.720  75.365  1.00  0.00     0.056 A 
ATOM     11  C   UNL     1      90.926  92.967  77.943  1.00  0.00     0.050 A 
ATOM     12  C   UNL     1      92.109  93.649  77.613  1.00  0.00     0.009 A 
BRANCH   8  13
ATOM     13  O   UNL     1      90.231  91.232  74.751  1.00  0.00    -0.493 OA
ATOM     14  C   UNL     1      90.934  90.007  74.465  1.00  0.00     0.278 C 
ENDBRANCH   8  13
BRANCH   9  15
ATOM     15  O   UNL     1      89.164  91.470  77.321  1.00  0.00    -0.504 OA
ATOM     16  H   UNL     1      88.789  91.846  78.121  1.00  0.00     0.293 HD
ENDBRANCH   9  15
ENDBRANCH   6   7
ENDBRANCH   3   6
ENDBRANCH   1   2
BRANCH   1  17
ATOM     17  C   UNL     1      95.752  94.997  79.690  1.00  0.00     0.010 C 
BRANCH  17  18
ATOM     18  C   UNL     1      96.751  93.832  79.937  1.00  0.00     0.001 C 
BRANCH  18  19
ATOM     19  C   UNL     1      97.464  93.913  81.312  1.00  0.00     0.000 C 
BRANCH  19  20
ATOM     20  C   UNL     1      98.971  94.273  81.173  1.00  0.00     0.003 C 
BRANCH  20  21
ATOM     21  C   UNL     1      99.408  95.582  81.909  1.00  0.00    -0.017 C 
ATOM     22  C   UNL     1      98.170  96.348  82.461  1.00  0.00     0.007 C 
ATOM     23  C   UNL     1     100.261  96.524  81.010  1.00  0.00     0.007 C 
ENDBRANCH  20  21
ENDBRANCH  19  20
ENDBRANCH  18  19
ENDBRANCH  17  18
ENDBRANCH   1  17
TORSDOF 10
ENDMDL
MODEL 6
REMARK VINA RESULT:    -5.324     13.799     17.002
REMARK INTER + INTRA:          -9.382
REMARK INTER:                  -7.542
REMARK INTRA:                  -1.840
REMARK UNBOUND:                -1.102
REMARK SMILES COc1cc(CNC(=O)CCCCCC(C)C)ccc1O
REMARK SMILES IDX 10 1 8 2 7 3 9 5 6 6 5 7 3 8 20 9 4 10 19 11 18 12 2 13 1 14
REMARK SMILES IDX 21 15 11 17 12 18 13 19 14 20 15 21 16 22 17 23
REMARK H PARENT 7 4 21 16
REMARK Flexibility Score: inf
ROOT
ATOM      1  C   UNL     1      96.430  82.382  77.676  1.00  0.00     0.100 C 
ENDROOT
BRANCH   1   2
ATOM      2  C   UNL     1      96.511  82.927  76.305  1.00  0.00     0.220 C 
ATOM      3  N   UNL     1      97.683  82.836  75.617  1.00  0.00    -0.352 N 
ATOM      4  H   UNL     1      98.470  82.510  76.159  1.00  0.00     0.163 HD
ATOM      5  O   UNL     1      95.482  83.426  75.787  1.00  0.00    -0.275 OA
BRANCH   3   6
ATOM      6  C   UNL     1      97.853  83.161  74.236  1.00  0.00     0.151 C 
BRANCH   6   7
ATOM      7  C   UNL     1      97.908  81.962  73.357  1.00  0.00    -0.025 A 
ATOM      8  C   UNL     1      99.129  80.537  71.768  1.00  0.00     0.160 A 
ATOM      9  C   UNL     1      98.037  79.644  71.733  1.00  0.00     0.157 A 
ATOM     10  C   UNL     1      99.050  81.700  72.564  1.00  0.00     0.056 A 
ATOM     11  C   UNL     1      96.885  79.909  72.497  1.00  0.00     0.050 A 
ATOM     12  C   UNL     1      96.823  81.056  73.306  1.00  0.00     0.009 A 
BRANCH   8  13
ATOM     13  O   UNL     1     100.252  80.307  71.017  1.00  0.00    -0.493 OA
ATOM     14  C   UNL     1     100.289  81.051  69.784  1.00  0.00     0.278 C 
ENDBRANCH   8  13
BRANCH   9  15
ATOM     15  O   UNL     1      98.102  78.525  70.969  1.00  0.00    -0.504 OA
ATOM     16  H   UNL     1      97.271  78.408  70.502  1.00  0.00     0.293 HD
ENDBRANCH   9  15
ENDBRANCH   6   7
ENDBRANCH   3   6
ENDBRANCH   1   2
BRANCH   1  17
ATOM     17  C   UNL     1      97.745  81.731  78.183  1.00  0.00     0.010 C 
BRANCH  17  18
ATOM     18  C   UNL     1      97.473  80.392  78.922  1.00  0.00     0.001 C 
BRANCH  18  19
ATOM     19  C   UNL     1      98.000  79.148  78.158  1.00  0.00     0.000 C 
BRANCH  19  20
ATOM     20  C   UNL     1      98.172  79.422  76.636  1.00  0.00     0.003 C 
BRANCH  20  21
ATOM     21  C   UNL     1      99.608  79.159  76.076  1.00  0.00    -0.017 C 
ATOM     22  C   UNL     1     100.372  80.498  75.857  1.00  0.00     0.007 C 
ATOM     23  C   UNL     1      99.601  78.328  74.760  1.00  0.00     0.007 C 
ENDBRANCH  20  21
ENDBRANCH  19  20
ENDBRANCH  18  19
ENDBRANCH  17  18
ENDBRANCH   1  17
TORSDOF 10
ENDMDL
MODEL 7
REMARK VINA RESULT:    -5.238     23.860     25.795
REMARK INTER + INTRA:          -9.248
REMARK INTER:                  -7.381
REMARK INTRA:                  -1.867
REMARK UNBOUND:                -1.102
REMARK SMILES COc1cc(CNC(=O)CCCCCC(C)C)ccc1O
REMARK SMILES IDX 10 1 8 2 7 3 9 5 6 6 5 7 3 8 20 9 4 10 19 11 18 12 2 13 1 14
REMARK SMILES IDX 21 15 11 17 12 18 13 19 14 20 15 21 16 22 17 23
REMARK H PARENT 7 4 21 16
REMARK Flexibility Score: inf
ROOT
ATOM      1  C   UNL     1      75.337  91.283  67.541  1.00  0.00     0.100 C 
ENDROOT
BRANCH   1   2
ATOM      2  C   UNL     1      75.104  90.550  66.279  1.00  0.00     0.220 C 
ATOM      3  N   UNL     1      75.892  89.482  65.970  1.00  0.00    -0.352 N 
ATOM      4  H   UNL     1      76.683  89.346  66.583  1.00  0.00     0.163 HD
ATOM      5  O   UNL     1      74.156  90.903  65.536  1.00  0.00    -0.275 OA
BRANCH   3   6
ATOM      6  C   UNL     1      75.671  88.586  64.880  1.00  0.00     0.151 C 
BRANCH   6   7
ATOM      7  C   UNL     1      76.090  87.189  65.178  1.00  0.00    -0.025 A 
ATOM      8  C   UNL     1      77.143  85.554  66.682  1.00  0.00     0.160 A 
ATOM      9  C   UNL     1      76.830  84.520  65.774  1.00  0.00     0.157 A 
ATOM     10  C   UNL     1      76.788  86.884  66.370  1.00  0.00     0.056 A 
ATOM     11  C   UNL     1      76.161  84.817  64.573  1.00  0.00     0.050 A 
ATOM     12  C   UNL     1      75.788  86.140  64.279  1.00  0.00     0.009 A 
BRANCH   8  13
ATOM     13  O   UNL     1      77.812  85.289  67.848  1.00  0.00    -0.493 OA
ATOM     14  C   UNL     1      76.991  85.394  69.027  1.00  0.00     0.278 C 
ENDBRANCH   8  13
BRANCH   9  15
ATOM     15  O   UNL     1      77.169  83.239  66.063  1.00  0.00    -0.504 OA
ATOM     16  H   UNL     1      78.091  83.203  66.329  1.00  0.00     0.293 HD
ENDBRANCH   9  15
ENDBRANCH   6   7
ENDBRANCH   3   6
ENDBRANCH   1   2
BRANCH   1  17
ATOM     17  C   UNL     1      75.546  90.370  68.779  1.00  0.00     0.010 C 
BRANCH  17  18
ATOM     18  C   UNL     1      74.293  90.356  69.698  1.00  0.00     0.001 C 
BRANCH  18  19
ATOM     19  C   UNL     1      73.384  89.118  69.480  1.00  0.00     0.000 C 
BRANCH  19  20
ATOM     20  C   UNL     1      74.156  87.925  68.845  1.00  0.00     0.003 C 
BRANCH  20  21
ATOM     21  C   UNL     1      73.456  87.266  67.612  1.00  0.00    -0.017 C 
ATOM     22  C   UNL     1      72.321  88.180  67.064  1.00  0.00     0.007 C 
ATOM     23  C   UNL     1      72.897  85.847  67.921  1.00  0.00     0.007 C 
ENDBRANCH  20  21
ENDBRANCH  19  20
ENDBRANCH  18  19
ENDBRANCH  17  18
ENDBRANCH   1  17
TORSDOF 10
ENDMDL
MODEL 8
REMARK VINA RESULT:    -5.216     12.308     15.778
REMARK INTER + INTRA:          -9.214
REMARK INTER:                  -8.730
REMARK INTRA:                  -0.484
REMARK UNBOUND:                -1.102
REMARK SMILES COc1cc(CNC(=O)CCCCCC(C)C)ccc1O
REMARK SMILES IDX 10 1 8 2 7 3 9 5 6 6 5 7 3 8 20 9 4 10 19 11 18 12 2 13 1 14
REMARK SMILES IDX 21 15 11 17 12 18 13 19 14 20 15 21 16 22 17 23
REMARK H PARENT 7 4 21 16
REMARK Flexibility Score: inf
ROOT
ATOM      1  C   UNL     1      93.822  84.681  86.513  1.00  0.00     0.100 C 
ENDROOT
BRANCH   1   2
ATOM      2  C   UNL     1      93.383  83.284  86.312  1.00  0.00     0.220 C 
ATOM      3  N   UNL     1      92.376  83.018  85.433  1.00  0.00    -0.352 N 
ATOM      4  H   UNL     1      91.903  83.833  85.070  1.00  0.00     0.163 HD
ATOM      5  O   UNL     1      93.978  82.365  86.927  1.00  0.00    -0.275 OA
BRANCH   3   6
ATOM      6  C   UNL     1      91.973  81.713  85.016  1.00  0.00     0.151 C 
BRANCH   6   7
ATOM      7  C   UNL     1      90.535  81.434  85.279  1.00  0.00    -0.025 A 
ATOM      8  C   UNL     1      88.201  81.365  84.510  1.00  0.00     0.160 A 
ATOM      9  C   UNL     1      87.807  80.839  85.759  1.00  0.00     0.157 A 
ATOM     10  C   UNL     1      89.559  81.677  84.285  1.00  0.00     0.056 A 
ATOM     11  C   UNL     1      88.766  80.619  86.765  1.00  0.00     0.050 A 
ATOM     12  C   UNL     1      90.120  80.909  86.525  1.00  0.00     0.009 A 
BRANCH   8  13
ATOM     13  O   UNL     1      87.280  81.606  83.525  1.00  0.00    -0.493 OA
ATOM     14  C   UNL     1      86.830  82.973  83.469  1.00  0.00     0.278 C 
ENDBRANCH   8  13
BRANCH   9  15
ATOM     15  O   UNL     1      86.504  80.539  85.987  1.00  0.00    -0.504 OA
ATOM     16  H   UNL     1      86.443  79.900  86.701  1.00  0.00     0.293 HD
ENDBRANCH   9  15
ENDBRANCH   6   7
ENDBRANCH   3   6
ENDBRANCH   1   2
BRANCH   1  17
ATOM     17  C   UNL     1      94.694  84.901  87.778  1.00  0.00     0.010 C 
BRANCH  17  18
ATOM     18  C   UNL     1      95.631  86.130  87.621  1.00  0.00     0.001 C 
BRANCH  18  19
ATOM     19  C   UNL     1      95.683  87.030  88.883  1.00  0.00     0.000 C 
BRANCH  19  20
ATOM     20  C   UNL     1      95.870  88.533  88.526  1.00  0.00     0.003 C 
BRANCH  20  21
ATOM     21  C   UNL     1      95.231  89.537  89.540  1.00  0.00    -0.017 C 
ATOM     22  C   UNL     1      93.762  89.136  89.867  1.00  0.00     0.007 C 
ATOM     23  C   UNL     1      95.284  91.012  89.046  1.00  0.00     0.007 C 
ENDBRANCH  20  21
ENDBRANCH  19  20
ENDBRANCH  18  19
ENDBRANCH  17  18
ENDBRANCH   1  17
TORSDOF 10
ENDMDL
MODEL 9
REMARK VINA RESULT:    -5.199     23.772     26.408
REMARK INTER + INTRA:          -9.189
REMARK INTER:                  -7.504
REMARK INTRA:                  -1.684
REMARK UNBOUND:                -1.102
REMARK SMILES COc1cc(CNC(=O)CCCCCC(C)C)ccc1O
REMARK SMILES IDX 10 1 8 2 7 3 9 5 6 6 5 7 3 8 20 9 4 10 19 11 18 12 2 13 1 14
REMARK SMILES IDX 21 15 11 17 12 18 13 19 14 20 15 21 16 22 17 23
REMARK H PARENT 7 4 21 16
REMARK Flexibility Score: inf
ROOT
ATOM      1  C   UNL     1      71.648  89.361  69.188  1.00  0.00     0.100 C 
ENDROOT
BRANCH   1   2
ATOM      2  C   UNL     1      71.487  87.955  68.763  1.00  0.00     0.220 C 
ATOM      3  N   UNL     1      72.490  87.347  68.068  1.00  0.00    -0.352 N 
ATOM      4  H   UNL     1      73.235  87.961  67.773  1.00  0.00     0.163 HD
ATOM      5  O   UNL     1      70.446  87.335  69.090  1.00  0.00    -0.275 OA
BRANCH   3   6
ATOM      6  C   UNL     1      72.542  85.956  67.749  1.00  0.00     0.151 C 
BRANCH   6   7
ATOM      7  C   UNL     1      73.931  85.443  67.600  1.00  0.00    -0.025 A 
ATOM      8  C   UNL     1      75.641  84.274  66.275  1.00  0.00     0.160 A 
ATOM      9  C   UNL     1      76.593  84.524  67.287  1.00  0.00     0.157 A 
ATOM     10  C   UNL     1      74.313  84.718  66.446  1.00  0.00     0.056 A 
ATOM     11  C   UNL     1      76.217  85.221  68.450  1.00  0.00     0.050 A 
ATOM     12  C   UNL     1      74.899  85.681  68.604  1.00  0.00     0.009 A 
BRANCH   8  13
ATOM     13  O   UNL     1      75.982  83.581  65.143  1.00  0.00    -0.493 OA
ATOM     14  C   UNL     1      76.414  84.420  64.055  1.00  0.00     0.278 C 
ENDBRANCH   8  13
BRANCH   9  15
ATOM     15  O   UNL     1      77.872  84.100  67.133  1.00  0.00    -0.504 OA
ATOM     16  H   UNL     1      78.417  84.467  67.832  1.00  0.00     0.293 HD
ENDBRANCH   9  15
ENDBRANCH   6   7
ENDBRANCH   3   6
ENDBRANCH   1   2
BRANCH   1  17
ATOM     17  C   UNL     1      72.852  89.609  70.135  1.00  0.00     0.010 C 
BRANCH  17  18
ATOM     18  C   UNL     1      73.986  90.400  69.426  1.00  0.00     0.001 C 
BRANCH  18  19
ATOM     19  C   UNL     1      75.099  89.491  68.842  1.00  0.00     0.000 C 
BRANCH  19  20
ATOM     20  C   UNL     1      75.029  89.399  67.290  1.00  0.00     0.003 C 
BRANCH  20  21
ATOM     21  C   UNL     1      76.369  88.997  66.592  1.00  0.00    -0.017 C 
ATOM     22  C   UNL     1      76.123  87.911  65.502  1.00  0.00     0.007 C 
ATOM     23  C   UNL     1      77.452  88.509  67.597  1.00  0.00     0.007 C 
ENDBRANCH  20  21
ENDBRANCH  19  20
ENDBRANCH  18  19
ENDBRANCH  17  18
ENDBRANCH   1  17
TORSDOF 10
ENDMDL
MODEL 10
REMARK VINA RESULT:    -5.122     19.245     22.015
REMARK INTER + INTRA:          -9.068
REMARK INTER:                  -8.495
REMARK INTRA:                  -0.574
REMARK UNBOUND:                -1.102
REMARK SMILES COc1cc(CNC(=O)CCCCCC(C)C)ccc1O
REMARK SMILES IDX 10 1 8 2 7 3 9 5 6 6 5 7 3 8 20 9 4 10 19 11 18 12 2 13 1 14
REMARK SMILES IDX 21 15 11 17 12 18 13 19 14 20 15 21 16 22 17 23
REMARK H PARENT 7 4 21 16
REMARK Flexibility Score: inf
ROOT
ATOM      1  C   UNL     1      75.293  89.774  68.955  1.00  0.00     0.100 C 
ENDROOT
BRANCH   1   2
ATOM      2  C   UNL     1      74.623  90.798  69.783  1.00  0.00     0.220 C 
ATOM      3  N   UNL     1      75.294  91.938  70.111  1.00  0.00    -0.352 N 
ATOM      4  H   UNL     1      76.274  91.940  69.865  1.00  0.00     0.163 HD
ATOM      5  O   UNL     1      73.431  90.615  70.133  1.00  0.00    -0.275 OA
BRANCH   3   6
ATOM      6  C   UNL     1      74.717  93.076  70.752  1.00  0.00     0.151 C 
BRANCH   6   7
ATOM      7  C   UNL     1      75.724  93.939  71.427  1.00  0.00    -0.025 A 
ATOM      8  C   UNL     1      77.377  94.291  73.213  1.00  0.00     0.160 A 
ATOM      9  C   UNL     1      77.688  95.556  72.673  1.00  0.00     0.157 A 
ATOM     10  C   UNL     1      76.384  93.498  72.598  1.00  0.00     0.056 A 
ATOM     11  C   UNL     1      77.019  96.016  71.524  1.00  0.00     0.050 A 
ATOM     12  C   UNL     1      76.048  95.212  70.902  1.00  0.00     0.009 A 
BRANCH   8  13
ATOM     13  O   UNL     1      78.003  93.833  74.343  1.00  0.00    -0.493 OA
ATOM     14  C   UNL     1      77.317  94.168  75.565  1.00  0.00     0.278 C 
ENDBRANCH   8  13
BRANCH   9  15
ATOM     15  O   UNL     1      78.639  96.326  73.258  1.00  0.00    -0.504 OA
ATOM     16  H   UNL     1      78.676  97.179  72.819  1.00  0.00     0.293 HD
ENDBRANCH   9  15
ENDBRANCH   6   7
ENDBRANCH   3   6
ENDBRANCH   1   2
BRANCH   1  17
ATOM     17  C   UNL     1      75.593  90.226  67.500  1.00  0.00     0.010 C 
BRANCH  17  18
ATOM     18  C   UNL     1      76.836  89.497  66.919  1.00  0.00     0.001 C 
BRANCH  18  19
ATOM     19  C   UNL     1      77.186  88.184  67.668  1.00  0.00     0.000 C 
BRANCH  19  20
ATOM     20  C   UNL     1      77.170  86.946  66.725  1.00  0.00     0.003 C 
BRANCH  20  21
ATOM     21  C   UNL     1      76.716  85.610  67.397  1.00  0.00    -0.017 C 
ATOM     22  C   UNL     1      76.968  85.648  68.934  1.00  0.00     0.007 C 
ATOM     23  C   UNL     1      77.400  84.358  66.776  1.00  0.00     0.007 C 
ENDBRANCH  20  21
ENDBRANCH  19  20
ENDBRANCH  18  19
ENDBRANCH  17  18
ENDBRANCH   1  17
TORSDOF 10
ENDMDL
