MODEL 1
REMARK VINA RESULT:    -7.375      0.000      0.000
REMARK INTER + INTRA:         -13.883
REMARK INTER:                 -12.979
REMARK INTRA:                  -0.904
REMARK UNBOUND:                -0.904
REMARK SMILES C=C(C)[C@]12C[C@@H](C)[C@@]34O[C@](Cc5ccccc5)(O[C@@H]1[C@@H]3C=C(COC(=O)Cc1ccc(O)c(OC)c1)C[C@]1(O)C(=O)C(C)=C[C@@H]41)O2
REMARK SMILES IDX 23 1 22 2 21 3 20 4 9 5 8 6 10 7 6 8 18 9 46 10 19 11 5 12
REMARK SMILES IDX 7 13 4 14 45 15 38 16 44 17 40 18 42 20 41 21 43 22 39 23
REMARK SMILES IDX 11 25 12 26 13 27 17 28 14 29 16 30 15 31 2 32 3 33 1 34
REMARK SMILES IDX 37 35 24 37 25 38 26 39 27 40 28 41 36 42 29 43 33 44 30 45
REMARK SMILES IDX 31 46 34 47 35 48 32 49
REMARK H PARENT 39 24 32 50
REMARK Flexibility Score: 90.00
ROOT
ATOM      1  C   UNL     1      96.161  81.679  83.436  1.00  0.00     0.264 C 
ENDROOT
BRANCH   1   2
ATOM      2  C   UNL     1      95.017  82.088  84.334  1.00  0.00    -0.033 C 
ATOM      3  C   UNL     1      93.874  81.372  84.313  1.00  0.00    -0.015 C 
BRANCH   3   4
ATOM      4  C   UNL     1      92.569  81.618  85.051  1.00  0.00     0.078 C 
ATOM      5  O   UNL     1      92.689  80.347  87.170  1.00  0.00    -0.319 OA
ATOM      6  C   UNL     1      92.601  81.699  86.623  1.00  0.00     0.095 C 
ATOM      7  C   UNL     1      91.846  79.368  86.532  1.00  0.00     0.289 C 
ATOM      8  C   UNL     1      91.245  82.368  87.097  1.00  0.00     0.023 C 
ATOM      9  O   UNL     1      92.120  79.280  85.137  1.00  0.00    -0.320 OA
ATOM     10  O   UNL     1      90.463  79.698  86.633  1.00  0.00    -0.313 OA
ATOM     11  C   UNL     1      91.543  80.516  84.688  1.00  0.00     0.170 C 
ATOM     12  C   UNL     1      90.062  81.993  86.152  1.00  0.00     0.049 C 
ATOM     13  C   UNL     1      90.845  82.087  88.554  1.00  0.00     0.011 C 
ATOM     14  C   UNL     1      90.249  80.607  85.534  1.00  0.00     0.122 C 
BRANCH   6  15
ATOM     15  C   UNL     1      93.900  82.401  87.113  1.00  0.00     0.086 C 
ATOM     16  C   UNL     1      94.334  83.655  86.325  1.00  0.00     0.140 CG0
ATOM     17  C   UNL     1      94.007  82.836  88.548  1.00  0.00    -0.010 C 
ATOM     18  C   UNL     1      94.948  84.522  87.404  1.00  0.00     0.190 C 
ATOM     19  G   UNL     1      95.322  83.322  85.209  1.00  0.00     0.000 G0
ATOM     20  C   UNL     1      94.615  84.010  88.747  1.00  0.00    -0.008 C 
ATOM     21  O   UNL     1      95.593  85.541  87.212  1.00  0.00    -0.291 OA
ATOM     22  C   UNL     1      94.965  84.698  90.006  1.00  0.00     0.048 C 
BRANCH  16  23
ATOM     23  O   UNL     1      93.250  84.433  85.843  1.00  0.00    -0.381 OA
ATOM     24  H   UNL     1      92.666  84.643  86.590  1.00  0.00     0.212 HD
ENDBRANCH  16  23
ENDBRANCH   6  15
BRANCH   7  25
ATOM     25  C   UNL     1      92.095  78.026  87.189  1.00  0.00     0.135 C 
BRANCH  25  26
ATOM     26  C   UNL     1      91.133  76.971  86.703  1.00  0.00    -0.040 A 
ATOM     27  C   UNL     1      90.022  76.631  87.475  1.00  0.00     0.004 A 
ATOM     28  C   UNL     1      91.353  76.336  85.481  1.00  0.00     0.004 A 
ATOM     29  C   UNL     1      89.132  75.656  87.025  1.00  0.00     0.000 A 
ATOM     30  C   UNL     1      90.463  75.360  85.031  1.00  0.00     0.000 A 
ATOM     31  C   UNL     1      89.352  75.021  85.804  1.00  0.00     0.000 A 
ENDBRANCH  25  26
ENDBRANCH   7  25
BRANCH  14  32
ATOM     32  C   UNL     1      89.047  80.151  84.772  1.00  0.00    -0.046 C 
ATOM     33  C   UNL     1      87.720  80.633  85.279  1.00  0.00     0.042 C 
ATOM     34  C   UNL     1      89.149  79.355  83.697  1.00  0.00     0.010 C 
ENDBRANCH  14  32
ENDBRANCH   3   4
BRANCH   2  35
ATOM     35  C   UNL     1      95.333  83.304  85.184  1.00  0.00     0.078 CG0
ATOM     36  G   UNL     1      94.352  83.648  86.304  1.00  0.00     0.000 G0
ENDBRANCH   2  35
ENDBRANCH   1   2
BRANCH   1  37
ATOM     37  O   UNL     1      95.762  80.583  82.641  1.00  0.00    -0.461 OA
BRANCH  37  38
ATOM     38  C   UNL     1      96.772  79.866  82.043  1.00  0.00     0.310 C 
ATOM     39  O   UNL     1      96.762  78.656  81.861  1.00  0.00    -0.252 OA
BRANCH  38  40
ATOM     40  C   UNL     1      97.891  80.801  81.649  1.00  0.00     0.158 C 
BRANCH  40  41
ATOM     41  C   UNL     1      98.149  80.816  80.164  1.00  0.00    -0.033 A 
ATOM     42  C   UNL     1      97.561  81.796  79.364  1.00  0.00     0.054 A 
ATOM     43  C   UNL     1      98.977  79.851  79.590  1.00  0.00     0.008 A 
ATOM     44  C   UNL     1      97.801  81.810  77.989  1.00  0.00     0.160 A 
ATOM     45  C   UNL     1      99.216  79.865  78.216  1.00  0.00     0.050 A 
ATOM     46  C   UNL     1      98.628  80.843  77.416  1.00  0.00     0.157 A 
BRANCH  44  47
ATOM     47  O   UNL     1      97.221  82.771  77.218  1.00  0.00    -0.493 OA
ATOM     48  C   UNL     1      95.813  82.671  77.007  1.00  0.00     0.278 C 
ENDBRANCH  44  47
BRANCH  46  49
ATOM     49  O   UNL     1      98.870  80.848  76.075  1.00  0.00    -0.504 OA
ATOM     50  H   UNL     1      99.577  81.486  75.883  1.00  0.00     0.293 HD
ENDBRANCH  46  49
ENDBRANCH  40  41
ENDBRANCH  38  40
ENDBRANCH  37  38
ENDBRANCH   1  37
TORSDOF 11
ENDMDL
MODEL 2
REMARK VINA RESULT:    -7.332     18.524     23.616
REMARK INTER + INTRA:         -13.808
REMARK INTER:                 -12.848
REMARK INTRA:                  -0.960
REMARK UNBOUND:                -0.904
REMARK SMILES C=C(C)[C@]12C[C@@H](C)[C@@]34O[C@](Cc5ccccc5)(O[C@@H]1[C@@H]3C=C(COC(=O)Cc1ccc(O)c(OC)c1)C[C@]1(O)C(=O)C(C)=C[C@@H]41)O2
REMARK SMILES IDX 23 1 22 2 21 3 20 4 9 5 8 6 10 7 6 8 18 9 46 10 19 11 5 12
REMARK SMILES IDX 7 13 4 14 45 15 38 16 44 17 40 18 42 20 41 21 43 22 39 23
REMARK SMILES IDX 11 25 12 26 13 27 17 28 14 29 16 30 15 31 2 32 3 33 1 34
REMARK SMILES IDX 37 35 24 37 25 38 26 39 27 40 28 41 36 42 29 43 33 44 30 45
REMARK SMILES IDX 31 46 34 47 35 48 32 49
REMARK H PARENT 39 24 32 50
REMARK Flexibility Score: 90.00
ROOT
ATOM      1  C   UNL     1      92.320 101.144  71.120  1.00  0.00     0.264 C 
ENDROOT
BRANCH   1   2
ATOM      2  C   UNL     1      93.775 100.745  71.194  1.00  0.00    -0.033 C 
ATOM      3  C   UNL     1      94.261 100.239  72.345  1.00  0.00    -0.015 C 
BRANCH   3   4
ATOM      4  C   UNL     1      95.685  99.838  72.697  1.00  0.00     0.078 C 
ATOM      5  O   UNL     1      95.909  97.432  72.168  1.00  0.00    -0.319 OA
ATOM      6  C   UNL     1      96.402  98.759  71.804  1.00  0.00     0.095 C 
ATOM      7  C   UNL     1      95.765  97.194  73.581  1.00  0.00     0.289 C 
ATOM      8  C   UNL     1      97.955  98.840  72.106  1.00  0.00     0.023 C 
ATOM      9  O   UNL     1      94.895  98.150  74.181  1.00  0.00    -0.320 OA
ATOM     10  O   UNL     1      97.003  97.311  74.277  1.00  0.00    -0.313 OA
ATOM     11  C   UNL     1      95.738  99.312  74.153  1.00  0.00     0.170 C 
ATOM     12  C   UNL     1      98.228  99.232  73.591  1.00  0.00     0.049 C 
ATOM     13  C   UNL     1      98.764  97.582  71.752  1.00  0.00     0.011 C 
ATOM     14  C   UNL     1      97.125  98.727  74.521  1.00  0.00     0.122 C 
BRANCH   6  15
ATOM     15  C   UNL     1      96.002  98.925  70.309  1.00  0.00     0.086 C 
ATOM     16  C   UNL     1      95.941 100.373  69.779  1.00  0.00     0.140 CG0
ATOM     17  C   UNL     1      96.784  98.198  69.252  1.00  0.00    -0.010 C 
ATOM     18  C   UNL     1      96.398 100.214  68.344  1.00  0.00     0.190 C 
ATOM     19  G   UNL     1      94.538 100.967  69.884  1.00  0.00     0.000 G0
ATOM     20  C   UNL     1      97.000  98.885  68.125  1.00  0.00    -0.008 C 
ATOM     21  O   UNL     1      96.333 101.076  67.481  1.00  0.00    -0.291 OA
ATOM     22  C   UNL     1      97.647  98.467  66.865  1.00  0.00     0.048 C 
BRANCH  16  23
ATOM     23  O   UNL     1      96.912 101.234  70.350  1.00  0.00    -0.381 OA
ATOM     24  H   UNL     1      96.677 101.388  71.280  1.00  0.00     0.212 HD
ENDBRANCH  16  23
ENDBRANCH   6  15
BRANCH   7  25
ATOM     25  C   UNL     1      95.206  95.799  73.774  1.00  0.00     0.135 C 
BRANCH  25  26
ATOM     26  C   UNL     1      94.492  95.654  75.095  1.00  0.00    -0.040 A 
ATOM     27  C   UNL     1      95.222  95.421  76.260  1.00  0.00     0.004 A 
ATOM     28  C   UNL     1      93.102  95.755  75.152  1.00  0.00     0.004 A 
ATOM     29  C   UNL     1      94.562  95.287  77.482  1.00  0.00     0.000 A 
ATOM     30  C   UNL     1      92.442  95.621  76.374  1.00  0.00     0.000 A 
ATOM     31  C   UNL     1      93.173  95.387  77.539  1.00  0.00     0.000 A 
ENDBRANCH  25  26
ENDBRANCH   7  25
BRANCH  14  32
ATOM     32  C   UNL     1      97.453  98.929  75.965  1.00  0.00    -0.046 C 
ATOM     33  C   UNL     1      96.995 100.221  76.574  1.00  0.00     0.042 C 
ATOM     34  C   UNL     1      98.120  98.008  76.676  1.00  0.00     0.010 C 
ENDBRANCH  14  32
ENDBRANCH   3   4
BRANCH   2  35
ATOM     35  C   UNL     1      94.522 100.974  69.894  1.00  0.00     0.078 CG0
ATOM     36  G   UNL     1      95.930 100.390  69.784  1.00  0.00     0.000 G0
ENDBRANCH   2  35
ENDBRANCH   1   2
BRANCH   1  37
ATOM     37  O   UNL     1      92.027 101.601  69.817  1.00  0.00    -0.461 OA
BRANCH  37  38
ATOM     38  C   UNL     1      90.847 102.292  69.665  1.00  0.00     0.310 C 
ATOM     39  O   UNL     1      90.103 102.620  70.578  1.00  0.00    -0.252 OA
BRANCH  38  40
ATOM     40  C   UNL     1      90.616 102.579  68.200  1.00  0.00     0.158 C 
BRANCH  40  41
ATOM     41  C   UNL     1      89.530 101.724  67.597  1.00  0.00    -0.033 A 
ATOM     42  C   UNL     1      89.647 100.334  67.616  1.00  0.00     0.054 A 
ATOM     43  C   UNL     1      88.410 102.323  67.022  1.00  0.00     0.008 A 
ATOM     44  C   UNL     1      88.642  99.543  67.058  1.00  0.00     0.160 A 
ATOM     45  C   UNL     1      87.405 101.531  66.464  1.00  0.00     0.050 A 
ATOM     46  C   UNL     1      87.521 100.142  66.482  1.00  0.00     0.157 A 
BRANCH  44  47
ATOM     47  O   UNL     1      88.767  98.187  67.082  1.00  0.00    -0.493 OA
ATOM     48  C   UNL     1      89.470  97.619  68.186  1.00  0.00     0.278 C 
ENDBRANCH  44  47
BRANCH  46  49
ATOM     49  O   UNL     1      86.534  99.380  65.936  1.00  0.00    -0.504 OA
ATOM     50  H   UNL     1      86.640  98.461  66.236  1.00  0.00     0.293 HD
ENDBRANCH  46  49
ENDBRANCH  40  41
ENDBRANCH  38  40
ENDBRANCH  37  38
ENDBRANCH   1  37
TORSDOF 11
ENDMDL
MODEL 3
REMARK VINA RESULT:    -6.795      1.364      2.251
REMARK INTER + INTRA:         -12.863
REMARK INTER:                 -12.149
REMARK INTRA:                  -0.715
REMARK UNBOUND:                -0.904
REMARK SMILES C=C(C)[C@]12C[C@@H](C)[C@@]34O[C@](Cc5ccccc5)(O[C@@H]1[C@@H]3C=C(COC(=O)Cc1ccc(O)c(OC)c1)C[C@]1(O)C(=O)C(C)=C[C@@H]41)O2
REMARK SMILES IDX 23 1 22 2 21 3 20 4 9 5 8 6 10 7 6 8 18 9 46 10 19 11 5 12
REMARK SMILES IDX 7 13 4 14 45 15 38 16 44 17 40 18 42 20 41 21 43 22 39 23
REMARK SMILES IDX 11 25 12 26 13 27 17 28 14 29 16 30 15 31 2 32 3 33 1 34
REMARK SMILES IDX 37 35 24 37 25 38 26 39 27 40 28 41 36 42 29 43 33 44 30 45
REMARK SMILES IDX 31 46 34 47 35 48 32 49
REMARK H PARENT 39 24 32 50
REMARK Flexibility Score: 90.00
ROOT
ATOM      1  C   UNL     1      96.358  81.743  83.384  1.00  0.00     0.264 C 
ENDROOT
BRANCH   1   2
ATOM      2  C   UNL     1      95.189  82.189  84.231  1.00  0.00    -0.033 C 
ATOM      3  C   UNL     1      94.077  81.428  84.274  1.00  0.00    -0.015 C 
BRANCH   3   4
ATOM      4  C   UNL     1      92.756  81.690  84.978  1.00  0.00     0.078 C 
ATOM      5  O   UNL     1      92.919  80.665  87.223  1.00  0.00    -0.319 OA
ATOM      6  C   UNL     1      92.772  81.943  86.531  1.00  0.00     0.095 C 
ATOM      7  C   UNL     1      92.129  79.583  86.694  1.00  0.00     0.289 C 
ATOM      8  C   UNL     1      91.382  82.594  86.926  1.00  0.00     0.023 C 
ATOM      9  O   UNL     1      92.418  79.356  85.317  1.00  0.00    -0.320 OA
ATOM     10  O   UNL     1      90.731  79.854  86.754  1.00  0.00    -0.313 OA
ATOM     11  C   UNL     1      91.787  80.507  84.734  1.00  0.00     0.170 C 
ATOM     12  C   UNL     1      90.225  82.062  86.025  1.00  0.00     0.049 C 
ATOM     13  C   UNL     1      90.984  82.455  88.404  1.00  0.00     0.011 C 
ATOM     14  C   UNL     1      90.483  80.627  85.562  1.00  0.00     0.122 C 
BRANCH   6  15
ATOM     15  C   UNL     1      94.032  82.756  86.945  1.00  0.00     0.086 C 
ATOM     16  C   UNL     1      94.417  83.930  86.021  1.00  0.00     0.140 CG0
ATOM     17  C   UNL     1      94.103  83.357  88.321  1.00  0.00    -0.010 C 
ATOM     18  C   UNL     1      94.980  84.942  86.997  1.00  0.00     0.190 C 
ATOM     19  G   UNL     1      95.433  83.518  84.956  1.00  0.00     0.000 G0
ATOM     20  C   UNL     1      94.655  84.573  88.388  1.00  0.00    -0.008 C 
ATOM     21  O   UNL     1      95.580  85.962  86.693  1.00  0.00    -0.291 OA
ATOM     22  C   UNL     1      94.959  85.417  89.562  1.00  0.00     0.048 C 
BRANCH  16  23
ATOM     23  O   UNL     1      93.306  84.596  85.446  1.00  0.00    -0.381 OA
ATOM     24  H   UNL     1      93.011  85.289  86.060  1.00  0.00     0.212 HD
ENDBRANCH  16  23
ENDBRANCH   6  15
BRANCH   7  25
ATOM     25  C   UNL     1      92.437  78.333  87.495  1.00  0.00     0.135 C 
BRANCH  25  26
ATOM     26  C   UNL     1      93.905  78.217  87.818  1.00  0.00    -0.040 A 
ATOM     27  C   UNL     1      94.327  78.197  89.148  1.00  0.00     0.004 A 
ATOM     28  C   UNL     1      94.842  78.127  86.789  1.00  0.00     0.004 A 
ATOM     29  C   UNL     1      95.685  78.089  89.448  1.00  0.00     0.000 A 
ATOM     30  C   UNL     1      96.200  78.019  87.088  1.00  0.00     0.000 A 
ATOM     31  C   UNL     1      96.621  78.000  88.418  1.00  0.00     0.000 A 
ENDBRANCH  25  26
ENDBRANCH   7  25
BRANCH  14  32
ATOM     32  C   UNL     1      89.310  80.034  84.852  1.00  0.00    -0.046 C 
ATOM     33  C   UNL     1      89.622  79.021  83.790  1.00  0.00     0.042 C 
ATOM     34  C   UNL     1      88.050  80.386  85.147  1.00  0.00     0.010 C 
ENDBRANCH  14  32
ENDBRANCH   3   4
BRANCH   2  35
ATOM     35  C   UNL     1      95.447  83.495  84.959  1.00  0.00     0.078 CG0
ATOM     36  G   UNL     1      94.406  83.940  85.986  1.00  0.00     0.000 G0
ENDBRANCH   2  35
ENDBRANCH   1   2
BRANCH   1  37
ATOM     37  O   UNL     1      95.946  80.693  82.536  1.00  0.00    -0.461 OA
BRANCH  37  38
ATOM     38  C   UNL     1      96.919  79.794  82.164  1.00  0.00     0.310 C 
ATOM     39  O   UNL     1      96.874  78.588  82.365  1.00  0.00    -0.252 OA
BRANCH  38  40
ATOM     40  C   UNL     1      98.045  80.526  81.473  1.00  0.00     0.158 C 
BRANCH  40  41
ATOM     41  C   UNL     1      97.915  80.521  79.972  1.00  0.00    -0.033 A 
ATOM     42  C   UNL     1      97.545  81.687  79.300  1.00  0.00     0.054 A 
ATOM     43  C   UNL     1      98.166  79.352  79.254  1.00  0.00     0.008 A 
ATOM     44  C   UNL     1      97.425  81.682  77.910  1.00  0.00     0.160 A 
ATOM     45  C   UNL     1      98.046  79.347  77.864  1.00  0.00     0.050 A 
ATOM     46  C   UNL     1      97.676  80.511  77.192  1.00  0.00     0.157 A 
BRANCH  44  47
ATOM     47  O   UNL     1      97.063  82.825  77.265  1.00  0.00    -0.493 OA
ATOM     48  C   UNL     1      95.720  82.903  76.789  1.00  0.00     0.278 C 
ENDBRANCH  44  47
BRANCH  46  49
ATOM     49  O   UNL     1      97.563  80.495  75.835  1.00  0.00    -0.504 OA
ATOM     50  H   UNL     1      98.160  79.818  75.476  1.00  0.00     0.293 HD
ENDBRANCH  46  49
ENDBRANCH  40  41
ENDBRANCH  38  40
ENDBRANCH  37  38
ENDBRANCH   1  37
TORSDOF 11
ENDMDL
MODEL 4
REMARK VINA RESULT:    -6.522     25.555     29.403
REMARK INTER + INTRA:         -12.382
REMARK INTER:                 -11.455
REMARK INTRA:                  -0.927
REMARK UNBOUND:                -0.904
REMARK SMILES C=C(C)[C@]12C[C@@H](C)[C@@]34O[C@](Cc5ccccc5)(O[C@@H]1[C@@H]3C=C(COC(=O)Cc1ccc(O)c(OC)c1)C[C@]1(O)C(=O)C(C)=C[C@@H]41)O2
REMARK SMILES IDX 23 1 22 2 21 3 20 4 9 5 8 6 10 7 6 8 18 9 46 10 19 11 5 12
REMARK SMILES IDX 7 13 4 14 45 15 38 16 44 17 40 18 42 20 41 21 43 22 39 23
REMARK SMILES IDX 11 25 12 26 13 27 17 28 14 29 16 30 15 31 2 32 3 33 1 34
REMARK SMILES IDX 37 35 24 37 25 38 26 39 27 40 28 41 36 42 29 43 33 44 30 45
REMARK SMILES IDX 31 46 34 47 35 48 32 49
REMARK H PARENT 39 24 32 50
REMARK Flexibility Score: 90.00
ROOT
ATOM      1  C   UNL     1      69.728  87.314  68.839  1.00  0.00     0.264 C 
ENDROOT
BRANCH   1   2
ATOM      2  C   UNL     1      71.110  87.848  68.542  1.00  0.00    -0.033 C 
ATOM      3  C   UNL     1      72.123  86.981  68.343  1.00  0.00    -0.015 C 
BRANCH   3   4
ATOM      4  C   UNL     1      73.599  87.258  68.108  1.00  0.00     0.078 C 
ATOM      5  O   UNL     1      73.932  87.361  65.659  1.00  0.00    -0.319 OA
ATOM      6  C   UNL     1      74.006  88.158  66.881  1.00  0.00     0.095 C 
ATOM      7  C   UNL     1      74.463  86.026  65.760  1.00  0.00     0.289 C 
ATOM      8  C   UNL     1      75.501  88.631  67.108  1.00  0.00     0.023 C 
ATOM      9  O   UNL     1      73.810  85.286  66.788  1.00  0.00    -0.320 OA
ATOM     10  O   UNL     1      75.847  86.019  66.100  1.00  0.00    -0.313 OA
ATOM     11  C   UNL     1      74.367  85.923  67.949  1.00  0.00     0.170 C 
ATOM     12  C   UNL     1      76.336  87.547  67.857  1.00  0.00     0.049 C 
ATOM     13  C   UNL     1      76.253  89.071  65.842  1.00  0.00     0.011 C 
ATOM     14  C   UNL     1      75.845  86.134  67.537  1.00  0.00     0.122 C 
BRANCH   6  15
ATOM     15  C   UNL     1      72.969  89.298  66.665  1.00  0.00     0.086 C 
ATOM     16  C   UNL     1      72.466  90.010  67.938  1.00  0.00     0.140 CG0
ATOM     17  C   UNL     1      73.305  90.433  65.740  1.00  0.00    -0.010 C 
ATOM     18  C   UNL     1      72.263  91.431  67.459  1.00  0.00     0.190 C 
ATOM     19  G   UNL     1      71.180  89.385  68.479  1.00  0.00     0.000 G0
ATOM     20  C   UNL     1      72.897  91.641  66.144  1.00  0.00    -0.008 C 
ATOM     21  O   UNL     1      71.697  92.315  68.083  1.00  0.00    -0.291 OA
ATOM     22  C   UNL     1      72.979  92.950  65.463  1.00  0.00     0.048 C 
BRANCH  16  23
ATOM     23  O   UNL     1      73.448  90.132  68.954  1.00  0.00    -0.381 OA
ATOM     24  H   UNL     1      74.256  90.496  68.556  1.00  0.00     0.212 HD
ENDBRANCH  16  23
ENDBRANCH   6  15
BRANCH   7  25
ATOM     25  C   UNL     1      74.265  85.333  64.427  1.00  0.00     0.135 C 
BRANCH  25  26
ATOM     26  C   UNL     1      73.890  83.882  64.594  1.00  0.00    -0.040 A 
ATOM     27  C   UNL     1      72.597  83.456  64.286  1.00  0.00     0.004 A 
ATOM     28  C   UNL     1      74.834  82.966  65.055  1.00  0.00     0.004 A 
ATOM     29  C   UNL     1      72.250  82.114  64.440  1.00  0.00     0.000 A 
ATOM     30  C   UNL     1      74.487  81.623  65.209  1.00  0.00     0.000 A 
ATOM     31  C   UNL     1      73.194  81.198  64.901  1.00  0.00     0.000 A 
ENDBRANCH  25  26
ENDBRANCH   7  25
BRANCH  14  32
ATOM     32  C   UNL     1      76.740  85.076  68.096  1.00  0.00    -0.046 C 
ATOM     33  C   UNL     1      77.555  84.305  67.100  1.00  0.00     0.042 C 
ATOM     34  C   UNL     1      76.810  84.828  69.412  1.00  0.00     0.010 C 
ENDBRANCH  14  32
ENDBRANCH   3   4
BRANCH   2  35
ATOM     35  C   UNL     1      71.166  89.363  68.499  1.00  0.00     0.078 CG0
ATOM     36  G   UNL     1      72.453  90.001  67.978  1.00  0.00     0.000 G0
ENDBRANCH   2  35
ENDBRANCH   1   2
BRANCH   1  37
ATOM     37  O   UNL     1      69.708  85.921  68.618  1.00  0.00    -0.461 OA
BRANCH  37  38
ATOM     38  C   UNL     1      69.295  85.143  69.675  1.00  0.00     0.310 C 
ATOM     39  O   UNL     1      69.564  83.959  69.823  1.00  0.00    -0.252 OA
BRANCH  38  40
ATOM     40  C   UNL     1      68.461  85.976  70.619  1.00  0.00     0.158 C 
BRANCH  40  41
ATOM     41  C   UNL     1      67.104  85.379  70.888  1.00  0.00    -0.033 A 
ATOM     42  C   UNL     1      66.468  84.622  69.903  1.00  0.00     0.054 A 
ATOM     43  C   UNL     1      66.484  85.582  72.120  1.00  0.00     0.008 A 
ATOM     44  C   UNL     1      65.211  84.069  70.152  1.00  0.00     0.160 A 
ATOM     45  C   UNL     1      65.228  85.029  72.369  1.00  0.00     0.050 A 
ATOM     46  C   UNL     1      64.591  84.273  71.385  1.00  0.00     0.157 A 
BRANCH  44  47
ATOM     47  O   UNL     1      64.600  83.333  69.182  1.00  0.00    -0.493 OA
ATOM     48  C   UNL     1      63.931  84.052  68.147  1.00  0.00     0.278 C 
ENDBRANCH  44  47
BRANCH  46  49
ATOM     49  O   UNL     1      63.365  83.737  71.640  1.00  0.00    -0.504 OA
ATOM     50  H   UNL     1      63.408  83.228  72.467  1.00  0.00     0.293 HD
ENDBRANCH  46  49
ENDBRANCH  40  41
ENDBRANCH  38  40
ENDBRANCH  37  38
ENDBRANCH   1  37
TORSDOF 11
ENDMDL
MODEL 5
REMARK VINA RESULT:    -6.368     32.045     36.543
REMARK INTER + INTRA:         -12.111
REMARK INTER:                 -10.983
REMARK INTRA:                  -1.128
REMARK UNBOUND:                -0.904
REMARK SMILES C=C(C)[C@]12C[C@@H](C)[C@@]34O[C@](Cc5ccccc5)(O[C@@H]1[C@@H]3C=C(COC(=O)Cc1ccc(O)c(OC)c1)C[C@]1(O)C(=O)C(C)=C[C@@H]41)O2
REMARK SMILES IDX 23 1 22 2 21 3 20 4 9 5 8 6 10 7 6 8 18 9 46 10 19 11 5 12
REMARK SMILES IDX 7 13 4 14 45 15 38 16 44 17 40 18 42 20 41 21 43 22 39 23
REMARK SMILES IDX 11 25 12 26 13 27 17 28 14 29 16 30 15 31 2 32 3 33 1 34
REMARK SMILES IDX 37 35 24 37 25 38 26 39 27 40 28 41 36 42 29 43 33 44 30 45
REMARK SMILES IDX 31 46 34 47 35 48 32 49
REMARK H PARENT 39 24 32 50
REMARK Flexibility Score: 90.00
ROOT
ATOM      1  C   UNL     1      59.068  88.522  71.167  1.00  0.00     0.264 C 
ENDROOT
BRANCH   1   2
ATOM      2  C   UNL     1      59.768  87.571  72.110  1.00  0.00    -0.033 C 
ATOM      3  C   UNL     1      60.685  86.712  71.620  1.00  0.00    -0.015 C 
BRANCH   3   4
ATOM      4  C   UNL     1      61.462  85.619  72.335  1.00  0.00     0.078 C 
ATOM      5  O   UNL     1      63.602  86.618  73.070  1.00  0.00    -0.319 OA
ATOM      6  C   UNL     1      62.363  86.020  73.562  1.00  0.00     0.095 C 
ATOM      7  C   UNL     1      64.203  85.953  71.943  1.00  0.00     0.289 C 
ATOM      8  C   UNL     1      62.703  84.695  74.361  1.00  0.00     0.023 C 
ATOM      9  O   UNL     1      63.300  85.882  70.842  1.00  0.00    -0.320 OA
ATOM     10  O   UNL     1      64.558  84.604  72.237  1.00  0.00    -0.313 OA
ATOM     11  C   UNL     1      62.386  84.888  71.330  1.00  0.00     0.170 C 
ATOM     12  C   UNL     1      62.825  83.468  73.407  1.00  0.00     0.049 C 
ATOM     13  C   UNL     1      63.946  84.768  75.262  1.00  0.00     0.011 C 
ATOM     14  C   UNL     1      63.332  83.875  72.023  1.00  0.00     0.122 C 
BRANCH   6  15
ATOM     15  C   UNL     1      61.690  87.150  74.394  1.00  0.00     0.086 C 
ATOM     16  C   UNL     1      60.176  86.997  74.648  1.00  0.00     0.140 CG0
ATOM     17  C   UNL     1      62.239  87.491  75.751  1.00  0.00    -0.010 C 
ATOM     18  C   UNL     1      60.015  87.597  76.029  1.00  0.00     0.190 C 
ATOM     19  G   UNL     1      59.339  87.721  73.595  1.00  0.00     0.000 G0
ATOM     20  C   UNL     1      61.324  87.775  76.684  1.00  0.00    -0.008 C 
ATOM     21  O   UNL     1      58.950  87.857  76.568  1.00  0.00    -0.291 OA
ATOM     22  C   UNL     1      61.497  88.225  78.081  1.00  0.00     0.048 C 
BRANCH  16  23
ATOM     23  O   UNL     1      59.754  85.654  74.811  1.00  0.00    -0.381 OA
ATOM     24  H   UNL     1      60.520  85.122  75.083  1.00  0.00     0.212 HD
ENDBRANCH  16  23
ENDBRANCH   6  15
BRANCH   7  25
ATOM     25  C   UNL     1      65.443  86.726  71.540  1.00  0.00     0.135 C 
BRANCH  25  26
ATOM     26  C   UNL     1      66.508  85.825  70.965  1.00  0.00    -0.040 A 
ATOM     27  C   UNL     1      67.725  85.672  71.630  1.00  0.00     0.004 A 
ATOM     28  C   UNL     1      66.276  85.145  69.770  1.00  0.00     0.004 A 
ATOM     29  C   UNL     1      68.710  84.840  71.098  1.00  0.00     0.000 A 
ATOM     30  C   UNL     1      67.262  84.313  69.238  1.00  0.00     0.000 A 
ATOM     31  C   UNL     1      68.478  84.161  69.903  1.00  0.00     0.000 A 
ENDBRANCH  25  26
ENDBRANCH   7  25
BRANCH  14  32
ATOM     32  C   UNL     1      63.630  82.699  71.151  1.00  0.00    -0.046 C 
ATOM     33  C   UNL     1      62.512  82.226  70.272  1.00  0.00     0.042 C 
ATOM     34  C   UNL     1      64.831  82.100  71.155  1.00  0.00     0.010 C 
ENDBRANCH  14  32
ENDBRANCH   3   4
BRANCH   2  35
ATOM     35  C   UNL     1      59.325  87.729  73.552  1.00  0.00     0.078 CG0
ATOM     36  G   UNL     1      60.149  87.010  74.619  1.00  0.00     0.000 G0
ENDBRANCH   2  35
ENDBRANCH   1   2
BRANCH   1  37
ATOM     37  O   UNL     1      58.467  87.786  70.124  1.00  0.00    -0.461 OA
BRANCH  37  38
ATOM     38  C   UNL     1      57.253  87.205  70.409  1.00  0.00     0.310 C 
ATOM     39  O   UNL     1      56.969  86.034  70.201  1.00  0.00    -0.252 OA
BRANCH  38  40
ATOM     40  C   UNL     1      56.331  88.236  71.018  1.00  0.00     0.158 C 
BRANCH  40  41
ATOM     41  C   UNL     1      55.514  88.973  69.989  1.00  0.00    -0.033 A 
ATOM     42  C   UNL     1      55.320  88.418  68.723  1.00  0.00     0.054 A 
ATOM     43  C   UNL     1      54.950  90.210  70.301  1.00  0.00     0.008 A 
ATOM     44  C   UNL     1      54.563  89.100  67.771  1.00  0.00     0.160 A 
ATOM     45  C   UNL     1      54.193  90.893  69.348  1.00  0.00     0.050 A 
ATOM     46  C   UNL     1      54.000  90.339  68.083  1.00  0.00     0.157 A 
BRANCH  44  47
ATOM     47  O   UNL     1      54.381  88.548  66.539  1.00  0.00    -0.493 OA
ATOM     48  C   UNL     1      55.327  88.893  65.528  1.00  0.00     0.278 C 
ENDBRANCH  44  47
BRANCH  46  49
ATOM     49  O   UNL     1      53.258  91.013  67.162  1.00  0.00    -0.504 OA
ATOM     50  H   UNL     1      52.539  91.483  67.617  1.00  0.00     0.293 HD
ENDBRANCH  46  49
ENDBRANCH  40  41
ENDBRANCH  38  40
ENDBRANCH  37  38
ENDBRANCH   1  37
TORSDOF 11
ENDMDL
MODEL 6
REMARK VINA RESULT:    -6.066     25.963     29.400
REMARK INTER + INTRA:         -11.579
REMARK INTER:                 -10.160
REMARK INTRA:                  -1.419
REMARK UNBOUND:                -0.904
REMARK SMILES C=C(C)[C@]12C[C@@H](C)[C@@]34O[C@](Cc5ccccc5)(O[C@@H]1[C@@H]3C=C(COC(=O)Cc1ccc(O)c(OC)c1)C[C@]1(O)C(=O)C(C)=C[C@@H]41)O2
REMARK SMILES IDX 23 1 22 2 21 3 20 4 9 5 8 6 10 7 6 8 18 9 46 10 19 11 5 12
REMARK SMILES IDX 7 13 4 14 45 15 38 16 44 17 40 18 42 20 41 21 43 22 39 23
REMARK SMILES IDX 11 25 12 26 13 27 17 28 14 29 16 30 15 31 2 32 3 33 1 34
REMARK SMILES IDX 37 35 24 37 25 38 26 39 27 40 28 41 36 42 29 43 33 44 30 45
REMARK SMILES IDX 31 46 34 47 35 48 32 49
REMARK H PARENT 39 24 32 50
REMARK Flexibility Score: 90.00
ROOT
ATOM      1  C   UNL     1      69.852  87.375  68.801  1.00  0.00     0.264 C 
ENDROOT
BRANCH   1   2
ATOM      2  C   UNL     1      71.242  87.894  68.519  1.00  0.00    -0.033 C 
ATOM      3  C   UNL     1      72.248  87.015  68.329  1.00  0.00    -0.015 C 
BRANCH   3   4
ATOM      4  C   UNL     1      73.729  87.277  68.111  1.00  0.00     0.078 C 
ATOM      5  O   UNL     1      74.089  87.375  65.665  1.00  0.00    -0.319 OA
ATOM      6  C   UNL     1      74.159  88.171  66.888  1.00  0.00     0.095 C 
ATOM      7  C   UNL     1      74.605  86.035  65.772  1.00  0.00     0.289 C 
ATOM      8  C   UNL     1      75.656  88.628  67.132  1.00  0.00     0.023 C 
ATOM      9  O   UNL     1      73.933  85.302  66.794  1.00  0.00    -0.320 OA
ATOM     10  O   UNL     1      75.985  86.012  66.127  1.00  0.00    -0.313 OA
ATOM     11  C   UNL     1      74.484  85.933  67.960  1.00  0.00     0.170 C 
ATOM     12  C   UNL     1      76.471  87.535  67.889  1.00  0.00     0.049 C 
ATOM     13  C   UNL     1      76.427  89.060  65.874  1.00  0.00     0.011 C 
ATOM     14  C   UNL     1      75.969  86.128  67.565  1.00  0.00     0.122 C 
BRANCH   6  15
ATOM     15  C   UNL     1      73.137  89.323  66.661  1.00  0.00     0.086 C 
ATOM     16  C   UNL     1      72.625  90.038  67.929  1.00  0.00     0.140 CG0
ATOM     17  C   UNL     1      73.497  90.456  65.742  1.00  0.00    -0.010 C 
ATOM     18  C   UNL     1      72.443  91.462  67.449  1.00  0.00     0.190 C 
ATOM     19  G   UNL     1      71.326  89.426  68.451  1.00  0.00     0.000 G0
ATOM     20  C   UNL     1      73.097  91.668  66.143  1.00  0.00    -0.008 C 
ATOM     21  O   UNL     1      71.878  92.351  68.068  1.00  0.00    -0.291 OA
ATOM     22  C   UNL     1      73.201  92.976  65.465  1.00  0.00     0.048 C 
BRANCH  16  23
ATOM     23  O   UNL     1      73.595  90.148  68.957  1.00  0.00    -0.381 OA
ATOM     24  H   UNL     1      74.412  90.505  68.571  1.00  0.00     0.212 HD
ENDBRANCH  16  23
ENDBRANCH   6  15
BRANCH   7  25
ATOM     25  C   UNL     1      74.414  85.344  64.437  1.00  0.00     0.135 C 
BRANCH  25  26
ATOM     26  C   UNL     1      73.988  83.906  64.600  1.00  0.00    -0.040 A 
ATOM     27  C   UNL     1      72.635  83.569  64.541  1.00  0.00     0.004 A 
ATOM     28  C   UNL     1      74.945  82.914  64.809  1.00  0.00     0.004 A 
ATOM     29  C   UNL     1      72.241  82.239  64.691  1.00  0.00     0.000 A 
ATOM     30  C   UNL     1      74.550  81.584  64.959  1.00  0.00     0.000 A 
ATOM     31  C   UNL     1      73.198  81.248  64.901  1.00  0.00     0.000 A 
ENDBRANCH  25  26
ENDBRANCH   7  25
BRANCH  14  32
ATOM     32  C   UNL     1      76.845  85.060  68.133  1.00  0.00    -0.046 C 
ATOM     33  C   UNL     1      77.557  84.190  67.140  1.00  0.00     0.042 C 
ATOM     34  C   UNL     1      76.988  84.889  69.456  1.00  0.00     0.010 C 
ENDBRANCH  14  32
ENDBRANCH   3   4
BRANCH   2  35
ATOM     35  C   UNL     1      71.316  89.408  68.480  1.00  0.00     0.078 CG0
ATOM     36  G   UNL     1      72.599  90.032  67.934  1.00  0.00     0.000 G0
ENDBRANCH   2  35
ENDBRANCH   1   2
BRANCH   1  37
ATOM     37  O   UNL     1      69.918  85.997  69.097  1.00  0.00    -0.461 OA
BRANCH  37  38
ATOM     38  C   UNL     1      68.715  85.337  69.198  1.00  0.00     0.310 C 
ATOM     39  O   UNL     1      68.563  84.222  69.676  1.00  0.00    -0.252 OA
BRANCH  38  40
ATOM     40  C   UNL     1      67.616  86.202  68.626  1.00  0.00     0.158 C 
BRANCH  40  41
ATOM     41  C   UNL     1      67.105  85.703  67.299  1.00  0.00    -0.033 A 
ATOM     42  C   UNL     1      67.944  84.968  66.461  1.00  0.00     0.054 A 
ATOM     43  C   UNL     1      65.795  85.976  66.909  1.00  0.00     0.008 A 
ATOM     44  C   UNL     1      67.471  84.506  65.232  1.00  0.00     0.160 A 
ATOM     45  C   UNL     1      65.322  85.514  65.681  1.00  0.00     0.050 A 
ATOM     46  C   UNL     1      66.160  84.779  64.842  1.00  0.00     0.157 A 
BRANCH  44  47
ATOM     47  O   UNL     1      68.300  83.789  64.423  1.00  0.00    -0.493 OA
ATOM     48  C   UNL     1      69.145  84.529  63.543  1.00  0.00     0.278 C 
ENDBRANCH  44  47
BRANCH  46  49
ATOM     49  O   UNL     1      65.687  84.333  63.646  1.00  0.00    -0.504 OA
ATOM     50  H   UNL     1      66.232  83.585  63.349  1.00  0.00     0.293 HD
ENDBRANCH  46  49
ENDBRANCH  40  41
ENDBRANCH  38  40
ENDBRANCH  37  38
ENDBRANCH   1  37
TORSDOF 11
ENDMDL
MODEL 7
REMARK VINA RESULT:    -6.025     26.911     31.043
REMARK INTER + INTRA:         -11.508
REMARK INTER:                 -10.703
REMARK INTRA:                  -0.805
REMARK UNBOUND:                -0.904
REMARK SMILES C=C(C)[C@]12C[C@@H](C)[C@@]34O[C@](Cc5ccccc5)(O[C@@H]1[C@@H]3C=C(COC(=O)Cc1ccc(O)c(OC)c1)C[C@]1(O)C(=O)C(C)=C[C@@H]41)O2
REMARK SMILES IDX 23 1 22 2 21 3 20 4 9 5 8 6 10 7 6 8 18 9 46 10 19 11 5 12
REMARK SMILES IDX 7 13 4 14 45 15 38 16 44 17 40 18 42 20 41 21 43 22 39 23
REMARK SMILES IDX 11 25 12 26 13 27 17 28 14 29 16 30 15 31 2 32 3 33 1 34
REMARK SMILES IDX 37 35 24 37 25 38 26 39 27 40 28 41 36 42 29 43 33 44 30 45
REMARK SMILES IDX 31 46 34 47 35 48 32 49
REMARK H PARENT 39 24 32 50
REMARK Flexibility Score: 90.00
ROOT
ATOM      1  C   UNL     1      67.126  85.296  67.189  1.00  0.00     0.264 C 
ENDROOT
BRANCH   1   2
ATOM      2  C   UNL     1      68.355  85.292  66.310  1.00  0.00    -0.033 C 
ATOM      3  C   UNL     1      69.293  86.246  66.484  1.00  0.00    -0.015 C 
BRANCH   3   4
ATOM      4  C   UNL     1      70.564  86.505  65.692  1.00  0.00     0.078 C 
ATOM      5  O   UNL     1      72.383  85.267  66.823  1.00  0.00    -0.319 OA
ATOM      6  C   UNL     1      71.624  85.346  65.577  1.00  0.00     0.095 C 
ATOM      7  C   UNL     1      72.781  86.533  67.384  1.00  0.00     0.289 C 
ATOM      8  C   UNL     1      72.606  85.711  64.388  1.00  0.00     0.023 C 
ATOM      9  O   UNL     1      71.652  87.368  67.627  1.00  0.00    -0.320 OA
ATOM     10  O   UNL     1      73.625  87.272  66.505  1.00  0.00    -0.313 OA
ATOM     11  C   UNL     1      71.310  87.728  66.279  1.00  0.00     0.170 C 
ATOM     12  C   UNL     1      72.812  87.252  64.269  1.00  0.00     0.049 C 
ATOM     13  C   UNL     1      73.975  85.013  64.426  1.00  0.00     0.011 C 
ATOM     14  C   UNL     1      72.699  87.944  65.628  1.00  0.00     0.122 C 
BRANCH   6  15
ATOM     15  C   UNL     1      70.919  83.963  65.463  1.00  0.00     0.086 C 
ATOM     16  C   UNL     1      69.689  83.902  64.534  1.00  0.00     0.140 CG0
ATOM     17  C   UNL     1      71.723  82.759  65.059  1.00  0.00    -0.010 C 
ATOM     18  C   UNL     1      69.781  82.502  63.963  1.00  0.00     0.190 C 
ATOM     19  G   UNL     1      68.383  84.140  65.290  1.00  0.00     0.000 G0
ATOM     20  C   UNL     1      71.101  81.905  64.239  1.00  0.00    -0.008 C 
ATOM     21  O   UNL     1      68.910  81.944  63.313  1.00  0.00    -0.291 OA
ATOM     22  C   UNL     1      71.545  80.598  63.712  1.00  0.00     0.048 C 
BRANCH  16  23
ATOM     23  O   UNL     1      69.787  84.740  63.394  1.00  0.00    -0.381 OA
ATOM     24  H   UNL     1      69.967  85.646  63.694  1.00  0.00     0.212 HD
ENDBRANCH  16  23
ENDBRANCH   6  15
BRANCH   7  25
ATOM     25  C   UNL     1      73.512  86.268  68.684  1.00  0.00     0.135 C 
BRANCH  25  26
ATOM     26  C   UNL     1      74.976  85.983  68.462  1.00  0.00    -0.040 A 
ATOM     27  C   UNL     1      75.446  84.670  68.513  1.00  0.00     0.004 A 
ATOM     28  C   UNL     1      75.860  87.030  68.204  1.00  0.00     0.004 A 
ATOM     29  C   UNL     1      76.801  84.406  68.308  1.00  0.00     0.000 A 
ATOM     30  C   UNL     1      77.214  86.766  67.998  1.00  0.00     0.000 A 
ATOM     31  C   UNL     1      77.684  85.453  68.050  1.00  0.00     0.000 A 
ENDBRANCH  25  26
ENDBRANCH   7  25
BRANCH  14  32
ATOM     32  C   UNL     1      73.071  89.390  65.569  1.00  0.00    -0.046 C 
ATOM     33  C   UNL     1      74.540  89.696  65.576  1.00  0.00     0.042 C 
ATOM     34  C   UNL     1      72.146  90.359  65.512  1.00  0.00     0.010 C 
ENDBRANCH  14  32
ENDBRANCH   3   4
BRANCH   2  35
ATOM     35  C   UNL     1      68.367  84.153  65.309  1.00  0.00     0.078 CG0
ATOM     36  G   UNL     1      69.670  83.902  64.551  1.00  0.00     0.000 G0
ENDBRANCH   2  35
ENDBRANCH   1   2
BRANCH   1  37
ATOM     37  O   UNL     1      67.499  85.613  68.513  1.00  0.00    -0.461 OA
BRANCH  37  38
ATOM     38  C   UNL     1      68.023  84.584  69.261  1.00  0.00     0.310 C 
ATOM     39  O   UNL     1      68.822  83.754  68.851  1.00  0.00    -0.252 OA
BRANCH  38  40
ATOM     40  C   UNL     1      67.458  84.640  70.660  1.00  0.00     0.158 C 
BRANCH  40  41
ATOM     41  C   UNL     1      65.971  84.400  70.704  1.00  0.00    -0.033 A 
ATOM     42  C   UNL     1      65.432  83.253  70.119  1.00  0.00     0.054 A 
ATOM     43  C   UNL     1      65.133  85.323  71.330  1.00  0.00     0.008 A 
ATOM     44  C   UNL     1      64.055  83.031  70.159  1.00  0.00     0.160 A 
ATOM     45  C   UNL     1      63.757  85.100  71.371  1.00  0.00     0.050 A 
ATOM     46  C   UNL     1      63.217  83.955  70.785  1.00  0.00     0.157 A 
BRANCH  44  47
ATOM     47  O   UNL     1      63.541  81.909  69.584  1.00  0.00    -0.493 OA
ATOM     48  C   UNL     1      63.679  81.783  68.170  1.00  0.00     0.278 C 
ENDBRANCH  44  47
BRANCH  46  49
ATOM     49  O   UNL     1      61.872  83.748  70.832  1.00  0.00    -0.504 OA
ATOM     50  H   UNL     1      61.612  83.187  70.082  1.00  0.00     0.293 HD
ENDBRANCH  46  49
ENDBRANCH  40  41
ENDBRANCH  38  40
ENDBRANCH  37  38
ENDBRANCH   1  37
TORSDOF 11
ENDMDL
MODEL 8
REMARK VINA RESULT:    -5.931     26.800     30.322
REMARK INTER + INTRA:         -11.342
REMARK INTER:                 -10.659
REMARK INTRA:                  -0.683
REMARK UNBOUND:                -0.904
REMARK SMILES C=C(C)[C@]12C[C@@H](C)[C@@]34O[C@](Cc5ccccc5)(O[C@@H]1[C@@H]3C=C(COC(=O)Cc1ccc(O)c(OC)c1)C[C@]1(O)C(=O)C(C)=C[C@@H]41)O2
REMARK SMILES IDX 23 1 22 2 21 3 20 4 9 5 8 6 10 7 6 8 18 9 46 10 19 11 5 12
REMARK SMILES IDX 7 13 4 14 45 15 38 16 44 17 40 18 42 20 41 21 43 22 39 23
REMARK SMILES IDX 11 25 12 26 13 27 17 28 14 29 16 30 15 31 2 32 3 33 1 34
REMARK SMILES IDX 37 35 24 37 25 38 26 39 27 40 28 41 36 42 29 43 33 44 30 45
REMARK SMILES IDX 31 46 34 47 35 48 32 49
REMARK H PARENT 39 24 32 50
REMARK Flexibility Score: 90.00
ROOT
ATOM      1  C   UNL     1      70.527  88.715  69.467  1.00  0.00     0.264 C 
ENDROOT
BRANCH   1   2
ATOM      2  C   UNL     1      69.686  87.460  69.475  1.00  0.00    -0.033 C 
ATOM      3  C   UNL     1      68.568  87.420  70.227  1.00  0.00    -0.015 C 
BRANCH   3   4
ATOM      4  C   UNL     1      67.605  86.268  70.464  1.00  0.00     0.078 C 
ATOM      5  O   UNL     1      65.811  86.468  68.773  1.00  0.00    -0.319 OA
ATOM      6  C   UNL     1      66.905  85.608  69.218  1.00  0.00     0.095 C 
ATOM      7  C   UNL     1      64.998  87.025  69.824  1.00  0.00     0.289 C 
ATOM      8  C   UNL     1      66.318  84.211  69.682  1.00  0.00     0.023 C 
ATOM      9  O   UNL     1      65.786  87.781  70.741  1.00  0.00    -0.320 OA
ATOM     10  O   UNL     1      64.358  86.019  70.605  1.00  0.00    -0.313 OA
ATOM     11  C   UNL     1      66.472  86.717  71.420  1.00  0.00     0.170 C 
ATOM     12  C   UNL     1      65.850  84.253  71.169  1.00  0.00     0.049 C 
ATOM     13  C   UNL     1      65.188  83.647  68.806  1.00  0.00     0.011 C 
ATOM     14  C   UNL     1      65.363  85.646  71.570  1.00  0.00     0.122 C 
BRANCH   6  15
ATOM     15  C   UNL     1      67.876  85.556  68.003  1.00  0.00     0.086 C 
ATOM     16  C   UNL     1      69.329  85.139  68.312  1.00  0.00     0.140 CG0
ATOM     17  C   UNL     1      67.517  84.716  66.810  1.00  0.00    -0.010 C 
ATOM     18  C   UNL     1      69.721  84.374  67.065  1.00  0.00     0.190 C 
ATOM     19  G   UNL     1      70.233  86.344  68.567  1.00  0.00     0.000 G0
ATOM     20  C   UNL     1      68.537  84.062  66.243  1.00  0.00    -0.008 C 
ATOM     21  O   UNL     1      70.852  84.010  66.784  1.00  0.00    -0.291 OA
ATOM     22  C   UNL     1      68.571  83.224  65.026  1.00  0.00     0.048 C 
BRANCH  16  23
ATOM     23  O   UNL     1      69.443  84.178  69.348  1.00  0.00    -0.381 OA
ATOM     24  H   UNL     1      69.952  83.422  69.011  1.00  0.00     0.212 HD
ENDBRANCH  16  23
ENDBRANCH   6  15
BRANCH   7  25
ATOM     25  C   UNL     1      63.950  87.918  69.192  1.00  0.00     0.135 C 
BRANCH  25  26
ATOM     26  C   UNL     1      64.157  88.068  67.705  1.00  0.00    -0.040 A 
ATOM     27  C   UNL     1      65.272  88.753  67.222  1.00  0.00     0.004 A 
ATOM     28  C   UNL     1      63.234  87.520  66.814  1.00  0.00     0.004 A 
ATOM     29  C   UNL     1      65.463  88.891  65.847  1.00  0.00     0.000 A 
ATOM     30  C   UNL     1      63.426  87.658  65.439  1.00  0.00     0.000 A 
ATOM     31  C   UNL     1      64.541  88.344  64.956  1.00  0.00     0.000 A 
ENDBRANCH  25  26
ENDBRANCH   7  25
BRANCH  14  32
ATOM     32  C   UNL     1      64.742  85.668  72.928  1.00  0.00    -0.046 C 
ATOM     33  C   UNL     1      65.548  86.317  74.015  1.00  0.00     0.042 C 
ATOM     34  C   UNL     1      63.532  85.138  73.164  1.00  0.00     0.010 C 
ENDBRANCH  14  32
ENDBRANCH   3   4
BRANCH   2  35
ATOM     35  C   UNL     1      70.242  86.366  68.583  1.00  0.00     0.078 CG0
ATOM     36  G   UNL     1      69.337  85.168  68.300  1.00  0.00     0.000 G0
ENDBRANCH   2  35
ENDBRANCH   1   2
BRANCH   1  37
ATOM     37  O   UNL     1      71.874  88.373  69.222  1.00  0.00    -0.461 OA
BRANCH  37  38
ATOM     38  C   UNL     1      72.806  89.351  69.480  1.00  0.00     0.310 C 
ATOM     39  O   UNL     1      72.906  89.967  70.532  1.00  0.00    -0.252 OA
BRANCH  38  40
ATOM     40  C   UNL     1      73.684  89.545  68.265  1.00  0.00     0.158 C 
BRANCH  40  41
ATOM     41  C   UNL     1      74.812  88.549  68.191  1.00  0.00    -0.033 A 
ATOM     42  C   UNL     1      74.579  87.206  68.490  1.00  0.00     0.054 A 
ATOM     43  C   UNL     1      76.090  88.969  67.821  1.00  0.00     0.008 A 
ATOM     44  C   UNL     1      75.624  86.285  68.421  1.00  0.00     0.160 A 
ATOM     45  C   UNL     1      77.135  88.048  67.752  1.00  0.00     0.050 A 
ATOM     46  C   UNL     1      76.902  86.706  68.052  1.00  0.00     0.157 A 
BRANCH  44  47
ATOM     47  O   UNL     1      75.384  84.977  68.717  1.00  0.00    -0.493 OA
ATOM     48  C   UNL     1      75.012  84.673  70.060  1.00  0.00     0.278 C 
ENDBRANCH  44  47
BRANCH  46  49
ATOM     49  O   UNL     1      77.930  85.815  67.980  1.00  0.00    -0.504 OA
ATOM     50  H   UNL     1      78.763  86.275  68.177  1.00  0.00     0.293 HD
ENDBRANCH  46  49
ENDBRANCH  40  41
ENDBRANCH  38  40
ENDBRANCH  37  38
ENDBRANCH   1  37
TORSDOF 11
ENDMDL
MODEL 9
REMARK VINA RESULT:    -5.929     28.238     32.976
REMARK INTER + INTRA:         -11.339
REMARK INTER:                 -10.640
REMARK INTRA:                  -0.700
REMARK UNBOUND:                -0.904
REMARK SMILES C=C(C)[C@]12C[C@@H](C)[C@@]34O[C@](Cc5ccccc5)(O[C@@H]1[C@@H]3C=C(COC(=O)Cc1ccc(O)c(OC)c1)C[C@]1(O)C(=O)C(C)=C[C@@H]41)O2
REMARK SMILES IDX 23 1 22 2 21 3 20 4 9 5 8 6 10 7 6 8 18 9 46 10 19 11 5 12
REMARK SMILES IDX 7 13 4 14 45 15 38 16 44 17 40 18 42 20 41 21 43 22 39 23
REMARK SMILES IDX 11 25 12 26 13 27 17 28 14 29 16 30 15 31 2 32 3 33 1 34
REMARK SMILES IDX 37 35 24 37 25 38 26 39 27 40 28 41 36 42 29 43 33 44 30 45
REMARK SMILES IDX 31 46 34 47 35 48 32 49
REMARK H PARENT 39 24 32 50
REMARK Flexibility Score: 90.00
ROOT
ATOM      1  C   UNL     1      65.307  88.564  72.885  1.00  0.00     0.264 C 
ENDROOT
BRANCH   1   2
ATOM      2  C   UNL     1      65.449  87.177  72.303  1.00  0.00    -0.033 C 
ATOM      3  C   UNL     1      64.473  86.271  72.514  1.00  0.00    -0.015 C 
BRANCH   3   4
ATOM      4  C   UNL     1      64.412  84.807  72.108  1.00  0.00     0.078 C 
ATOM      5  O   UNL     1      63.270  84.714  69.916  1.00  0.00    -0.319 OA
ATOM      6  C   UNL     1      64.543  84.447  70.582  1.00  0.00     0.095 C 
ATOM      7  C   UNL     1      62.097  84.297  70.639  1.00  0.00     0.289 C 
ATOM      8  C   UNL     1      64.872  82.900  70.480  1.00  0.00     0.023 C 
ATOM      9  O   UNL     1      62.039  84.906  71.927  1.00  0.00    -0.320 OA
ATOM     10  O   UNL     1      62.080  82.892  70.878  1.00  0.00    -0.313 OA
ATOM     11  C   UNL     1      63.082  84.181  72.596  1.00  0.00     0.170 C 
ATOM     12  C   UNL     1      64.192  82.094  71.629  1.00  0.00     0.049 C 
ATOM     13  C   UNL     1      64.544  82.243  69.130  1.00  0.00     0.011 C 
ATOM     14  C   UNL     1      62.877  82.739  72.070  1.00  0.00     0.122 C 
BRANCH   6  15
ATOM     15  C   UNL     1      65.556  85.394  69.876  1.00  0.00     0.086 C 
ATOM     16  C   UNL     1      66.855  85.699  70.651  1.00  0.00     0.140 CG0
ATOM     17  C   UNL     1      66.044  85.055  68.496  1.00  0.00    -0.010 C 
ATOM     18  C   UNL     1      67.876  85.822  69.540  1.00  0.00     0.190 C 
ATOM     19  G   UNL     1      66.744  86.973  71.487  1.00  0.00     0.000 G0
ATOM     20  C   UNL     1      67.336  85.309  68.266  1.00  0.00    -0.008 C 
ATOM     21  O   UNL     1      69.017  86.239  69.669  1.00  0.00    -0.291 OA
ATOM     22  C   UNL     1      68.125  85.182  67.024  1.00  0.00     0.048 C 
BRANCH  16  23
ATOM     23  O   UNL     1      67.329  84.610  71.426  1.00  0.00    -0.381 OA
ATOM     24  H   UNL     1      66.828  83.816  71.179  1.00  0.00     0.212 HD
ENDBRANCH  16  23
ENDBRANCH   6  15
BRANCH   7  25
ATOM     25  C   UNL     1      60.876  84.688  69.832  1.00  0.00     0.135 C 
BRANCH  25  26
ATOM     26  C   UNL     1      59.808  85.318  70.691  1.00  0.00    -0.040 A 
ATOM     27  C   UNL     1      59.276  84.613  71.771  1.00  0.00     0.004 A 
ATOM     28  C   UNL     1      59.354  86.606  70.407  1.00  0.00     0.004 A 
ATOM     29  C   UNL     1      58.288  85.196  72.566  1.00  0.00     0.000 A 
ATOM     30  C   UNL     1      58.366  87.189  71.202  1.00  0.00     0.000 A 
ATOM     31  C   UNL     1      57.834  86.483  72.282  1.00  0.00     0.000 A 
ENDBRANCH  25  26
ENDBRANCH   7  25
BRANCH  14  32
ATOM     32  C   UNL     1      62.119  81.891  73.038  1.00  0.00    -0.046 C 
ATOM     33  C   UNL     1      62.925  80.902  73.826  1.00  0.00     0.042 C 
ATOM     34  C   UNL     1      60.791  82.006  73.194  1.00  0.00     0.010 C 
ENDBRANCH  14  32
ENDBRANCH   3   4
BRANCH   2  35
ATOM     35  C   UNL     1      66.732  86.991  71.515  1.00  0.00     0.078 CG0
ATOM     36  G   UNL     1      66.849  85.731  70.659  1.00  0.00     0.000 G0
ENDBRANCH   2  35
ENDBRANCH   1   2
BRANCH   1  37
ATOM     37  O   UNL     1      65.086  88.467  74.275  1.00  0.00    -0.461 OA
BRANCH  37  38
ATOM     38  C   UNL     1      66.192  88.618  75.079  1.00  0.00     0.310 C 
ATOM     39  O   UNL     1      66.941  89.585  75.068  1.00  0.00    -0.252 OA
BRANCH  38  40
ATOM     40  C   UNL     1      66.335  87.409  75.973  1.00  0.00     0.158 C 
BRANCH  40  41
ATOM     41  C   UNL     1      65.785  87.633  77.358  1.00  0.00    -0.033 A 
ATOM     42  C   UNL     1      66.626  87.530  78.467  1.00  0.00     0.054 A 
ATOM     43  C   UNL     1      64.437  87.943  77.532  1.00  0.00     0.008 A 
ATOM     44  C   UNL     1      66.118  87.737  79.749  1.00  0.00     0.160 A 
ATOM     45  C   UNL     1      63.928  88.150  78.814  1.00  0.00     0.050 A 
ATOM     46  C   UNL     1      64.768  88.047  79.923  1.00  0.00     0.157 A 
BRANCH  44  47
ATOM     47  O   UNL     1      66.948  87.634  80.824  1.00  0.00    -0.493 OA
ATOM     48  C   UNL     1      67.426  86.330  81.151  1.00  0.00     0.278 C 
ENDBRANCH  44  47
BRANCH  46  49
ATOM     49  O   UNL     1      64.261  88.253  81.170  1.00  0.00    -0.504 OA
ATOM     50  H   UNL     1      64.653  87.608  81.782  1.00  0.00     0.293 HD
ENDBRANCH  46  49
ENDBRANCH  40  41
ENDBRANCH  38  40
ENDBRANCH  37  38
ENDBRANCH   1  37
TORSDOF 11
ENDMDL
MODEL 10
REMARK VINA RESULT:    -5.805     26.398     29.704
REMARK INTER + INTRA:         -11.120
REMARK INTER:                  -9.155
REMARK INTRA:                  -1.965
REMARK UNBOUND:                -0.904
REMARK SMILES C=C(C)[C@]12C[C@@H](C)[C@@]34O[C@](Cc5ccccc5)(O[C@@H]1[C@@H]3C=C(COC(=O)Cc1ccc(O)c(OC)c1)C[C@]1(O)C(=O)C(C)=C[C@@H]41)O2
REMARK SMILES IDX 23 1 22 2 21 3 20 4 9 5 8 6 10 7 6 8 18 9 46 10 19 11 5 12
REMARK SMILES IDX 7 13 4 14 45 15 38 16 44 17 40 18 42 20 41 21 43 22 39 23
REMARK SMILES IDX 11 25 12 26 13 27 17 28 14 29 16 30 15 31 2 32 3 33 1 34
REMARK SMILES IDX 37 35 24 37 25 38 26 39 27 40 28 41 36 42 29 43 33 44 30 45
REMARK SMILES IDX 31 46 34 47 35 48 32 49
REMARK H PARENT 39 24 32 50
REMARK Flexibility Score: 90.00
ROOT
ATOM      1  C   UNL     1      69.441  85.140  67.446  1.00  0.00     0.264 C 
ENDROOT
BRANCH   1   2
ATOM      2  C   UNL     1      70.689  85.395  66.633  1.00  0.00    -0.033 C 
ATOM      3  C   UNL     1      71.223  86.633  66.616  1.00  0.00    -0.015 C 
BRANCH   3   4
ATOM      4  C   UNL     1      72.411  87.161  65.829  1.00  0.00     0.078 C 
ATOM      5  O   UNL     1      74.405  86.889  67.268  1.00  0.00    -0.319 OA
ATOM      6  C   UNL     1      73.804  86.450  66.011  1.00  0.00     0.095 C 
ATOM      7  C   UNL     1      74.292  88.298  67.546  1.00  0.00     0.289 C 
ATOM      8  C   UNL     1      74.730  86.894  64.804  1.00  0.00     0.023 C 
ATOM      9  O   UNL     1      72.929  88.714  67.559  1.00  0.00    -0.320 OA
ATOM     10  O   UNL     1      74.930  89.098  66.554  1.00  0.00    -0.313 OA
ATOM     11  C   UNL     1      72.635  88.658  66.155  1.00  0.00     0.170 C 
ATOM     12  C   UNL     1      74.419  88.355  64.353  1.00  0.00     0.049 C 
ATOM     13  C   UNL     1      76.241  86.744  65.042  1.00  0.00     0.011 C 
ATOM     14  C   UNL     1      73.932  89.216  65.519  1.00  0.00     0.122 C 
BRANCH   6  15
ATOM     15  C   UNL     1      73.622  84.914  66.183  1.00  0.00     0.086 C 
ATOM     16  C   UNL     1      72.584  84.245  65.258  1.00  0.00     0.140 CG0
ATOM     17  C   UNL     1      74.820  84.013  66.074  1.00  0.00    -0.010 C 
ATOM     18  C   UNL     1      73.199  82.884  65.010  1.00  0.00     0.190 C 
ATOM     19  G   UNL     1      71.205  84.153  65.910  1.00  0.00     0.000 G0
ATOM     20  C   UNL     1      74.608  82.853  65.444  1.00  0.00    -0.008 C 
ATOM     21  O   UNL     1      72.637  81.940  64.475  1.00  0.00    -0.291 OA
ATOM     22  C   UNL     1      75.517  81.708  65.228  1.00  0.00     0.048 C 
BRANCH  16  23
ATOM     23  O   UNL     1      72.509  84.823  63.966  1.00  0.00    -0.381 OA
ATOM     24  H   UNL     1      73.160  85.542  63.913  1.00  0.00     0.212 HD
ENDBRANCH  16  23
ENDBRANCH   6  15
BRANCH   7  25
ATOM     25  C   UNL     1      74.923  88.568  68.897  1.00  0.00     0.135 C 
BRANCH  25  26
ATOM     26  C   UNL     1      74.427  89.856  69.505  1.00  0.00    -0.040 A 
ATOM     27  C   UNL     1      75.175  91.026  69.367  1.00  0.00     0.004 A 
ATOM     28  C   UNL     1      73.221  89.879  70.204  1.00  0.00     0.004 A 
ATOM     29  C   UNL     1      74.716  92.218  69.930  1.00  0.00     0.000 A 
ATOM     30  C   UNL     1      72.762  91.070  70.767  1.00  0.00     0.000 A 
ATOM     31  C   UNL     1      73.510  92.239  70.629  1.00  0.00     0.000 A 
ENDBRANCH  25  26
ENDBRANCH   7  25
BRANCH  14  32
ATOM     32  C   UNL     1      73.803  90.658  65.152  1.00  0.00    -0.046 C 
ATOM     33  C   UNL     1      72.997  91.510  66.088  1.00  0.00     0.042 C 
ATOM     34  C   UNL     1      74.373  91.164  64.048  1.00  0.00     0.010 C 
ENDBRANCH  14  32
ENDBRANCH   3   4
BRANCH   2  35
ATOM     35  C   UNL     1      71.197  84.157  65.919  1.00  0.00     0.078 CG0
ATOM     36  G   UNL     1      72.578  84.243  65.269  1.00  0.00     0.000 G0
ENDBRANCH   2  35
ENDBRANCH   1   2
BRANCH   1  37
ATOM     37  O   UNL     1      69.734  85.304  68.816  1.00  0.00    -0.461 OA
BRANCH  37  38
ATOM     38  C   UNL     1      68.665  85.568  69.640  1.00  0.00     0.310 C 
ATOM     39  O   UNL     1      67.668  84.867  69.745  1.00  0.00    -0.252 OA
BRANCH  38  40
ATOM     40  C   UNL     1      68.913  86.855  70.392  1.00  0.00     0.158 C 
BRANCH  40  41
ATOM     41  C   UNL     1      68.891  88.070  69.501  1.00  0.00    -0.033 A 
ATOM     42  C   UNL     1      68.164  88.048  68.310  1.00  0.00     0.054 A 
ATOM     43  C   UNL     1      69.595  89.216  69.867  1.00  0.00     0.008 A 
ATOM     44  C   UNL     1      68.143  89.173  67.485  1.00  0.00     0.160 A 
ATOM     45  C   UNL     1      69.574  90.341  69.042  1.00  0.00     0.050 A 
ATOM     46  C   UNL     1      68.849  90.320  67.851  1.00  0.00     0.157 A 
BRANCH  44  47
ATOM     47  O   UNL     1      67.431  89.139  66.324  1.00  0.00    -0.493 OA
ATOM     48  C   UNL     1      67.305  87.874  65.677  1.00  0.00     0.278 C 
ENDBRANCH  44  47
BRANCH  46  49
ATOM     49  O   UNL     1      68.835  91.424  67.054  1.00  0.00    -0.504 OA
ATOM     50  H   UNL     1      69.437  92.090  67.426  1.00  0.00     0.293 HD
ENDBRANCH  46  49
ENDBRANCH  40  41
ENDBRANCH  38  40
ENDBRANCH  37  38
ENDBRANCH   1  37
TORSDOF 11
ENDMDL
