MODEL 1
REMARK VINA RESULT:    -7.076      0.000      0.000
REMARK INTER + INTRA:          -8.739
REMARK INTER:                  -8.317
REMARK INTRA:                  -0.422
REMARK UNBOUND:                -0.422
REMARK SMILES O=C(/C=C/C=C/c1ccc2c(c1)OCO2)N1CCCCC1
REMARK SMILES IDX 3 1 4 2 2 3 1 4 16 5 17 6 21 7 18 8 20 9 19 10 5 11 6 12
REMARK SMILES IDX 7 13 12 14 8 15 11 16 9 17 13 18 10 19 14 20 15 21
REMARK H PARENT
REMARK Flexibility Score: inf
ROOT
ATOM      1  C   UNL     1      76.004  91.821  71.432  1.00  0.00     0.071 C 
ATOM      2  C   UNL     1      74.946  91.016  71.493  1.00  0.00     0.006 C 
ENDROOT
BRANCH   1   3
ATOM      3  C   UNL     1      75.836  93.224  71.860  1.00  0.00     0.246 C 
ATOM      4  O   UNL     1      74.973  93.893  71.290  1.00  0.00    -0.270 OA
ATOM      5  N   UNL     1      76.665  93.698  72.875  1.00  0.00    -0.339 N 
ATOM      6  C   UNL     1      76.525  95.088  73.318  1.00  0.00     0.120 C 
ATOM      7  C   UNL     1      77.734  92.944  73.547  1.00  0.00     0.120 C 
ATOM      8  C   UNL     1      76.341  95.176  74.829  1.00  0.00     0.022 C 
ATOM      9  C   UNL     1      77.587  93.011  75.067  1.00  0.00     0.022 C 
ATOM     10  C   UNL     1      77.467  94.450  75.560  1.00  0.00     0.004 C 
ENDBRANCH   1   3
BRANCH   2  11
ATOM     11  C   UNL     1      75.013  89.626  71.095  1.00  0.00     0.001 C 
ATOM     12  C   UNL     1      76.068  89.105  70.449  1.00  0.00     0.008 C 
BRANCH  12  13
ATOM     13  C   UNL     1      76.185  87.703  70.014  1.00  0.00    -0.022 A 
ATOM     14  C   UNL     1      77.352  87.284  69.390  1.00  0.00     0.058 A 
ATOM     15  C   UNL     1      75.116  86.832  70.243  1.00  0.00     0.012 A 
ATOM     16  C   UNL     1      77.413  85.961  69.001  1.00  0.00     0.166 A 
ATOM     17  C   UNL     1      75.206  85.498  69.839  1.00  0.00     0.051 A 
ATOM     18  O   UNL     1      78.464  85.361  68.377  1.00  0.00    -0.454 OA
ATOM     19  C   UNL     1      76.369  85.092  69.220  1.00  0.00     0.165 A 
ATOM     20  C   UNL     1      77.963  84.017  68.227  1.00  0.00     0.468 C 
ATOM     21  O   UNL     1      76.635  83.839  68.760  1.00  0.00    -0.454 OA
ENDBRANCH  12  13
ENDBRANCH   2  11
TORSDOF 3
ENDMDL
MODEL 2
REMARK VINA RESULT:    -7.073     23.950     26.164
REMARK INTER + INTRA:          -8.736
REMARK INTER:                  -8.340
REMARK INTRA:                  -0.396
REMARK UNBOUND:                -0.422
REMARK SMILES O=C(/C=C/C=C/c1ccc2c(c1)OCO2)N1CCCCC1
REMARK SMILES IDX 3 1 4 2 2 3 1 4 16 5 17 6 21 7 18 8 20 9 19 10 5 11 6 12
REMARK SMILES IDX 7 13 12 14 8 15 11 16 9 17 13 18 10 19 14 20 15 21
REMARK H PARENT
REMARK Flexibility Score: inf
ROOT
ATOM      1  C   UNL     1      98.799  82.361  81.051  1.00  0.00     0.071 C 
ATOM      2  C   UNL     1      98.938  81.667  82.179  1.00  0.00     0.006 C 
ENDROOT
BRANCH   1   3
ATOM      3  C   UNL     1      99.563  81.922  79.867  1.00  0.00     0.246 C 
ATOM      4  O   UNL     1     100.361  80.996  80.016  1.00  0.00    -0.270 OA
ATOM      5  N   UNL     1      99.335  82.587  78.663  1.00  0.00    -0.339 N 
ATOM      6  C   UNL     1     100.084  82.177  77.471  1.00  0.00     0.120 C 
ATOM      7  C   UNL     1      98.426  83.725  78.458  1.00  0.00     0.120 C 
ATOM      8  C   UNL     1      99.151  81.882  76.302  1.00  0.00     0.022 C 
ATOM      9  C   UNL     1      97.475  83.468  77.289  1.00  0.00     0.022 C 
ATOM     10  C   UNL     1      98.230  83.067  76.025  1.00  0.00     0.004 C 
ENDBRANCH   1   3
BRANCH   2  11
ATOM     11  C   UNL     1      98.231  82.020  83.392  1.00  0.00     0.001 C 
ATOM     12  C   UNL     1      97.718  83.243  83.604  1.00  0.00     0.008 C 
BRANCH  12  13
ATOM     13  C   UNL     1      96.998  83.657  84.821  1.00  0.00    -0.022 A 
ATOM     14  C   UNL     1      96.927  85.007  85.136  1.00  0.00     0.058 A 
ATOM     15  C   UNL     1      96.407  82.679  85.624  1.00  0.00     0.012 A 
ATOM     16  C   UNL     1      96.241  85.346  86.285  1.00  0.00     0.166 A 
ATOM     17  C   UNL     1      95.719  83.050  86.782  1.00  0.00     0.051 A 
ATOM     18  O   UNL     1      96.061  86.607  86.764  1.00  0.00    -0.454 OA
ATOM     19  C   UNL     1      95.654  84.394  87.086  1.00  0.00     0.165 A 
ATOM     20  C   UNL     1      95.294  86.342  87.956  1.00  0.00     0.468 C 
ATOM     21  O   UNL     1      95.031  84.939  88.167  1.00  0.00    -0.454 OA
ENDBRANCH  12  13
ENDBRANCH   2  11
TORSDOF 3
ENDMDL
MODEL 3
REMARK VINA RESULT:    -6.987     23.930     25.382
REMARK INTER + INTRA:          -8.634
REMARK INTER:                  -8.295
REMARK INTRA:                  -0.339
REMARK UNBOUND:                -0.422
REMARK SMILES O=C(/C=C/C=C/c1ccc2c(c1)OCO2)N1CCCCC1
REMARK SMILES IDX 3 1 4 2 2 3 1 4 16 5 17 6 21 7 18 8 20 9 19 10 5 11 6 12
REMARK SMILES IDX 7 13 12 14 8 15 11 16 9 17 13 18 10 19 14 20 15 21
REMARK H PARENT
REMARK Flexibility Score: inf
ROOT
ATOM      1  C   UNL     1      97.566  84.177  85.014  1.00  0.00     0.071 C 
ATOM      2  C   UNL     1      97.839  83.235  84.114  1.00  0.00     0.006 C 
ENDROOT
BRANCH   1   3
ATOM      3  C   UNL     1      97.675  83.825  86.444  1.00  0.00     0.246 C 
ATOM      4  O   UNL     1      98.794  83.545  86.877  1.00  0.00    -0.270 OA
ATOM      5  N   UNL     1      96.508  83.828  87.205  1.00  0.00    -0.339 N 
ATOM      6  C   UNL     1      96.584  83.477  88.627  1.00  0.00     0.120 C 
ATOM      7  C   UNL     1      95.151  84.111  86.714  1.00  0.00     0.120 C 
ATOM      8  C   UNL     1      95.937  84.546  89.500  1.00  0.00     0.022 C 
ATOM      9  C   UNL     1      94.466  85.178  87.568  1.00  0.00     0.022 C 
ATOM     10  C   UNL     1      94.505  84.824  89.052  1.00  0.00     0.004 C 
ENDBRANCH   1   3
BRANCH   2  11
ATOM     11  C   UNL     1      97.759  83.484  82.691  1.00  0.00     0.001 C 
ATOM     12  C   UNL     1      98.560  82.876  81.800  1.00  0.00     0.008 C 
BRANCH  12  13
ATOM     13  C   UNL     1      98.527  83.098  80.345  1.00  0.00    -0.022 A 
ATOM     14  C   UNL     1      99.696  82.951  79.612  1.00  0.00     0.058 A 
ATOM     15  C   UNL     1      97.317  83.452  79.741  1.00  0.00     0.012 A 
ATOM     16  C   UNL     1      99.615  83.169  78.252  1.00  0.00     0.166 A 
ATOM     17  C   UNL     1      97.264  83.667  78.362  1.00  0.00     0.051 A 
ATOM     18  O   UNL     1     100.645  83.077  77.366  1.00  0.00    -0.454 OA
ATOM     19  C   UNL     1      98.431  83.518  77.643  1.00  0.00     0.165 A 
ATOM     20  C   UNL     1      99.975  83.406  76.132  1.00  0.00     0.468 C 
ATOM     21  O   UNL     1      98.571  83.687  76.300  1.00  0.00    -0.454 OA
ENDBRANCH  12  13
ENDBRANCH   2  11
TORSDOF 3
ENDMDL
MODEL 4
REMARK VINA RESULT:    -6.895     23.955     25.458
REMARK INTER + INTRA:          -8.527
REMARK INTER:                  -8.129
REMARK INTRA:                  -0.398
REMARK UNBOUND:                -0.422
REMARK SMILES O=C(/C=C/C=C/c1ccc2c(c1)OCO2)N1CCCCC1
REMARK SMILES IDX 3 1 4 2 2 3 1 4 16 5 17 6 21 7 18 8 20 9 19 10 5 11 6 12
REMARK SMILES IDX 7 13 12 14 8 15 11 16 9 17 13 18 10 19 14 20 15 21
REMARK H PARENT
REMARK Flexibility Score: inf
ROOT
ATOM      1  C   UNL     1      97.365  82.050  84.958  1.00  0.00     0.071 C 
ATOM      2  C   UNL     1      98.499  82.595  84.524  1.00  0.00     0.006 C 
ENDROOT
BRANCH   1   3
ATOM      3  C   UNL     1      97.069  82.118  86.403  1.00  0.00     0.246 C 
ATOM      4  O   UNL     1      97.534  81.232  87.121  1.00  0.00    -0.270 OA
ATOM      5  N   UNL     1      96.282  83.175  86.856  1.00  0.00    -0.339 N 
ATOM      6  C   UNL     1      95.967  83.267  88.285  1.00  0.00     0.120 C 
ATOM      7  C   UNL     1      95.673  84.224  86.024  1.00  0.00     0.120 C 
ATOM      8  C   UNL     1      96.324  84.638  88.847  1.00  0.00     0.022 C 
ATOM      9  C   UNL     1      96.006  85.617  86.559  1.00  0.00     0.022 C 
ATOM     10  C   UNL     1      95.661  85.750  88.040  1.00  0.00     0.004 C 
ENDBRANCH   1   3
BRANCH   2  11
ATOM     11  C   UNL     1      98.876  82.578  83.127  1.00  0.00     0.001 C 
ATOM     12  C   UNL     1      98.113  83.116  82.162  1.00  0.00     0.008 C 
BRANCH  12  13
ATOM     13  C   UNL     1      98.444  83.119  80.727  1.00  0.00    -0.022 A 
ATOM     14  C   UNL     1      97.468  83.482  79.809  1.00  0.00     0.058 A 
ATOM     15  C   UNL     1      99.733  82.756  80.328  1.00  0.00     0.012 A 
ATOM     16  C   UNL     1      97.826  83.471  78.477  1.00  0.00     0.166 A 
ATOM     17  C   UNL     1     100.068  82.753  78.972  1.00  0.00     0.051 A 
ATOM     18  O   UNL     1      97.016  83.791  77.430  1.00  0.00    -0.454 OA
ATOM     19  C   UNL     1      99.091  83.115  78.069  1.00  0.00     0.165 A 
ATOM     20  C   UNL     1      97.914  83.598  76.319  1.00  0.00     0.468 C 
ATOM     21  O   UNL     1      99.233  83.169  76.716  1.00  0.00    -0.454 OA
ENDBRANCH  12  13
ENDBRANCH   2  11
TORSDOF 3
ENDMDL
MODEL 5
REMARK VINA RESULT:    -6.876      1.570      2.176
REMARK INTER + INTRA:          -8.503
REMARK INTER:                  -8.122
REMARK INTRA:                  -0.381
REMARK UNBOUND:                -0.422
REMARK SMILES O=C(/C=C/C=C/c1ccc2c(c1)OCO2)N1CCCCC1
REMARK SMILES IDX 3 1 4 2 2 3 1 4 16 5 17 6 21 7 18 8 20 9 19 10 5 11 6 12
REMARK SMILES IDX 7 13 12 14 8 15 11 16 9 17 13 18 10 19 14 20 15 21
REMARK H PARENT
REMARK Flexibility Score: inf
ROOT
ATOM      1  C   UNL     1      75.423  90.401  70.953  1.00  0.00     0.071 C 
ATOM      2  C   UNL     1      74.881  89.197  71.121  1.00  0.00     0.006 C 
ENDROOT
BRANCH   1   3
ATOM      3  C   UNL     1      74.898  91.519  71.763  1.00  0.00     0.246 C 
ATOM      4  O   UNL     1      73.695  91.513  72.028  1.00  0.00    -0.270 OA
ATOM      5  N   UNL     1      75.795  92.506  72.168  1.00  0.00    -0.339 N 
ATOM      6  C   UNL     1      75.302  93.630  72.968  1.00  0.00     0.120 C 
ATOM      7  C   UNL     1      77.225  92.570  71.833  1.00  0.00     0.120 C 
ATOM      8  C   UNL     1      76.118  93.807  74.244  1.00  0.00     0.022 C 
ATOM      9  C   UNL     1      78.079  92.751  73.088  1.00  0.00     0.022 C 
ATOM     10  C   UNL     1      77.605  93.934  73.928  1.00  0.00     0.004 C 
ENDBRANCH   1   3
BRANCH   2  11
ATOM     11  C   UNL     1      75.328  88.041  70.374  1.00  0.00     0.001 C 
ATOM     12  C   UNL     1      76.560  87.948  69.847  1.00  0.00     0.008 C 
BRANCH  12  13
ATOM     13  C   UNL     1      77.063  86.801  69.072  1.00  0.00    -0.022 A 
ATOM     14  C   UNL     1      76.798  86.737  67.711  1.00  0.00     0.058 A 
ATOM     15  C   UNL     1      77.793  85.808  69.729  1.00  0.00     0.012 A 
ATOM     16  C   UNL     1      77.291  85.644  67.028  1.00  0.00     0.166 A 
ATOM     17  C   UNL     1      78.279  84.711  69.013  1.00  0.00     0.051 A 
ATOM     18  O   UNL     1      77.138  85.399  65.698  1.00  0.00    -0.454 OA
ATOM     19  C   UNL     1      78.011  84.658  67.662  1.00  0.00     0.165 A 
ATOM     20  C   UNL     1      77.844  84.148  65.566  1.00  0.00     0.468 C 
ATOM     21  O   UNL     1      78.401  83.672  66.808  1.00  0.00    -0.454 OA
ENDBRANCH  12  13
ENDBRANCH   2  11
TORSDOF 3
ENDMDL
MODEL 6
REMARK VINA RESULT:    -6.783     24.817     26.846
REMARK INTER + INTRA:          -8.395
REMARK INTER:                  -8.073
REMARK INTRA:                  -0.321
REMARK UNBOUND:                -0.422
REMARK SMILES O=C(/C=C/C=C/c1ccc2c(c1)OCO2)N1CCCCC1
REMARK SMILES IDX 3 1 4 2 2 3 1 4 16 5 17 6 21 7 18 8 20 9 19 10 5 11 6 12
REMARK SMILES IDX 7 13 12 14 8 15 11 16 9 17 13 18 10 19 14 20 15 21
REMARK H PARENT
REMARK Flexibility Score: inf
ROOT
ATOM      1  C   UNL     1      98.655  83.215  80.242  1.00  0.00     0.071 C 
ATOM      2  C   UNL     1      97.735  83.232  81.204  1.00  0.00     0.006 C 
ENDROOT
BRANCH   1   3
ATOM      3  C   UNL     1      98.195  83.259  78.840  1.00  0.00     0.246 C 
ATOM      4  O   UNL     1      97.005  83.506  78.639  1.00  0.00    -0.270 OA
ATOM      5  N   UNL     1      99.135  83.013  77.839  1.00  0.00    -0.339 N 
ATOM      6  C   UNL     1      98.706  83.045  76.438  1.00  0.00     0.120 C 
ATOM      7  C   UNL     1     100.550  82.671  78.042  1.00  0.00     0.120 C 
ATOM      8  C   UNL     1      99.582  83.977  75.608  1.00  0.00     0.022 C 
ATOM      9  C   UNL     1     101.463  83.583  77.222  1.00  0.00     0.022 C 
ATOM     10  C   UNL     1     101.057  83.613  75.752  1.00  0.00     0.004 C 
ENDBRANCH   1   3
BRANCH   2  11
ATOM     11  C   UNL     1      98.088  83.191  82.607  1.00  0.00     0.001 C 
ATOM     12  C   UNL     1      97.378  83.826  83.554  1.00  0.00     0.008 C 
BRANCH  12  13
ATOM     13  C   UNL     1      97.696  83.825  84.991  1.00  0.00    -0.022 A 
ATOM     14  C   UNL     1      98.858  83.201  85.426  1.00  0.00     0.058 A 
ATOM     15  C   UNL     1      96.819  84.452  85.880  1.00  0.00     0.012 A 
ATOM     16  C   UNL     1      99.113  83.227  86.781  1.00  0.00     0.166 A 
ATOM     17  C   UNL     1      97.102  84.463  87.248  1.00  0.00     0.051 A 
ATOM     18  O   UNL     1     100.192  82.674  87.401  1.00  0.00    -0.454 OA
ATOM     19  C   UNL     1      98.259  83.841  87.668  1.00  0.00     0.165 A 
ATOM     20  C   UNL     1      99.921  83.010  88.777  1.00  0.00     0.468 C 
ATOM     21  O   UNL     1      98.696  83.750  88.954  1.00  0.00    -0.454 OA
ENDBRANCH  12  13
ENDBRANCH   2  11
TORSDOF 3
ENDMDL
MODEL 7
REMARK VINA RESULT:    -6.744      3.676      9.782
REMARK INTER + INTRA:          -8.349
REMARK INTER:                  -8.021
REMARK INTRA:                  -0.328
REMARK UNBOUND:                -0.422
REMARK SMILES O=C(/C=C/C=C/c1ccc2c(c1)OCO2)N1CCCCC1
REMARK SMILES IDX 3 1 4 2 2 3 1 4 16 5 17 6 21 7 18 8 20 9 19 10 5 11 6 12
REMARK SMILES IDX 7 13 12 14 8 15 11 16 9 17 13 18 10 19 14 20 15 21
REMARK H PARENT
REMARK Flexibility Score: inf
ROOT
ATOM      1  C   UNL     1      76.311  84.994  68.788  1.00  0.00     0.071 C 
ATOM      2  C   UNL     1      76.734  86.199  69.164  1.00  0.00     0.006 C 
ENDROOT
BRANCH   1   3
ATOM      3  C   UNL     1      77.172  84.207  67.883  1.00  0.00     0.246 C 
ATOM      4  O   UNL     1      78.378  84.173  68.131  1.00  0.00    -0.270 OA
ATOM      5  N   UNL     1      76.565  83.562  66.807  1.00  0.00    -0.339 N 
ATOM      6  C   UNL     1      77.395  82.777  65.888  1.00  0.00     0.120 C 
ATOM      7  C   UNL     1      75.139  83.616  66.453  1.00  0.00     0.120 C 
ATOM      8  C   UNL     1      76.855  81.361  65.719  1.00  0.00     0.022 C 
ATOM      9  C   UNL     1      74.560  82.213  66.272  1.00  0.00     0.022 C 
ATOM     10  C   UNL     1      75.389  81.383  65.296  1.00  0.00     0.004 C 
ENDBRANCH   1   3
BRANCH   2  11
ATOM     11  C   UNL     1      75.960  87.045  70.049  1.00  0.00     0.001 C 
ATOM     12  C   UNL     1      75.921  88.381  69.926  1.00  0.00     0.008 C 
BRANCH  12  13
ATOM     13  C   UNL     1      75.159  89.287  70.802  1.00  0.00    -0.022 A 
ATOM     14  C   UNL     1      74.037  88.804  71.461  1.00  0.00     0.058 A 
ATOM     15  C   UNL     1      75.586  90.610  70.945  1.00  0.00     0.012 A 
ATOM     16  C   UNL     1      73.356  89.691  72.270  1.00  0.00     0.166 A 
ATOM     17  C   UNL     1      74.878  91.486  71.770  1.00  0.00     0.051 A 
ATOM     18  O   UNL     1      72.238  89.412  72.996  1.00  0.00    -0.454 OA
ATOM     19  C   UNL     1      73.765  90.996  72.421  1.00  0.00     0.165 A 
ATOM     20  C   UNL     1      71.990  90.689  73.620  1.00  0.00     0.468 C 
ATOM     21  O   UNL     1      72.955  91.698  73.260  1.00  0.00    -0.454 OA
ENDBRANCH  12  13
ENDBRANCH   2  11
TORSDOF 3
ENDMDL
MODEL 8
REMARK VINA RESULT:    -6.672     25.202     26.672
REMARK INTER + INTRA:          -8.265
REMARK INTER:                  -7.891
REMARK INTRA:                  -0.373
REMARK UNBOUND:                -0.422
REMARK SMILES O=C(/C=C/C=C/c1ccc2c(c1)OCO2)N1CCCCC1
REMARK SMILES IDX 3 1 4 2 2 3 1 4 16 5 17 6 21 7 18 8 20 9 19 10 5 11 6 12
REMARK SMILES IDX 7 13 12 14 8 15 11 16 9 17 13 18 10 19 14 20 15 21
REMARK H PARENT
REMARK Flexibility Score: inf
ROOT
ATOM      1  C   UNL     1      98.387  82.148  84.973  1.00  0.00     0.071 C 
ATOM      2  C   UNL     1      97.572  82.975  84.320  1.00  0.00     0.006 C 
ENDROOT
BRANCH   1   3
ATOM      3  C   UNL     1      98.129  81.907  86.407  1.00  0.00     0.246 C 
ATOM      4  O   UNL     1      97.266  81.079  86.698  1.00  0.00    -0.270 OA
ATOM      5  N   UNL     1      98.874  82.636  87.332  1.00  0.00    -0.339 N 
ATOM      6  C   UNL     1      98.636  82.423  88.763  1.00  0.00     0.120 C 
ATOM      7  C   UNL     1      99.878  83.665  87.023  1.00  0.00     0.120 C 
ATOM      8  C   UNL     1      99.932  82.112  89.503  1.00  0.00     0.022 C 
ATOM      9  C   UNL     1     101.194  83.389  87.750  1.00  0.00     0.022 C 
ATOM     10  C   UNL     1     100.980  83.191  89.248  1.00  0.00     0.004 C 
ENDBRANCH   1   3
BRANCH   2  11
ATOM     11  C   UNL     1      97.745  83.274  82.914  1.00  0.00     0.001 C 
ATOM     12  C   UNL     1      98.500  82.521  82.099  1.00  0.00     0.008 C 
BRANCH  12  13
ATOM     13  C   UNL     1      98.715  82.783  80.666  1.00  0.00    -0.022 A 
ATOM     14  C   UNL     1      97.678  83.317  79.913  1.00  0.00     0.058 A 
ATOM     15  C   UNL     1      99.960  82.488  80.103  1.00  0.00     0.012 A 
ATOM     16  C   UNL     1      97.928  83.545  78.576  1.00  0.00     0.166 A 
ATOM     17  C   UNL     1     100.185  82.729  78.746  1.00  0.00     0.051 A 
ATOM     18  O   UNL     1      97.046  84.059  77.675  1.00  0.00    -0.454 OA
ATOM     19  C   UNL     1      99.148  83.260  78.007  1.00  0.00     0.165 A 
ATOM     20  C   UNL     1      97.848  84.064  76.477  1.00  0.00     0.468 C 
ATOM     21  O   UNL     1      99.183  83.558  76.680  1.00  0.00    -0.454 OA
ENDBRANCH  12  13
ENDBRANCH   2  11
TORSDOF 3
ENDMDL
MODEL 9
REMARK VINA RESULT:    -6.672      2.708      9.012
REMARK INTER + INTRA:          -8.264
REMARK INTER:                  -7.927
REMARK INTRA:                  -0.337
REMARK UNBOUND:                -0.422
REMARK SMILES O=C(/C=C/C=C/c1ccc2c(c1)OCO2)N1CCCCC1
REMARK SMILES IDX 3 1 4 2 2 3 1 4 16 5 17 6 21 7 18 8 20 9 19 10 5 11 6 12
REMARK SMILES IDX 7 13 12 14 8 15 11 16 9 17 13 18 10 19 14 20 15 21
REMARK H PARENT
REMARK Flexibility Score: inf
ROOT
ATOM      1  C   UNL     1      76.028  88.496  70.105  1.00  0.00     0.071 C 
ATOM      2  C   UNL     1      75.290  89.411  70.730  1.00  0.00     0.006 C 
ENDROOT
BRANCH   1   3
ATOM      3  C   UNL     1      75.550  87.099  70.109  1.00  0.00     0.246 C 
ATOM      4  O   UNL     1      74.368  86.902  70.391  1.00  0.00    -0.270 OA
ATOM      5  N   UNL     1      76.469  86.097  69.798  1.00  0.00    -0.339 N 
ATOM      6  C   UNL     1      76.026  84.700  69.799  1.00  0.00     0.120 C 
ATOM      7  C   UNL     1      77.896  86.290  69.500  1.00  0.00     0.120 C 
ATOM      8  C   UNL     1      76.374  84.004  68.488  1.00  0.00     0.022 C 
ATOM      9  C   UNL     1      78.286  85.602  68.192  1.00  0.00     0.022 C 
ATOM     10  C   UNL     1      77.862  84.136  68.177  1.00  0.00     0.004 C 
ENDBRANCH   1   3
BRANCH   2  11
ATOM     11  C   UNL     1      75.675  90.806  70.781  1.00  0.00     0.001 C 
ATOM     12  C   UNL     1      76.535  91.289  71.692  1.00  0.00     0.008 C 
BRANCH  12  13
ATOM     13  C   UNL     1      76.954  92.697  71.794  1.00  0.00    -0.022 A 
ATOM     14  C   UNL     1      76.136  93.686  71.263  1.00  0.00     0.058 A 
ATOM     15  C   UNL     1      78.165  93.000  72.422  1.00  0.00     0.012 A 
ATOM     16  C   UNL     1      76.571  94.990  71.383  1.00  0.00     0.166 A 
ATOM     17  C   UNL     1      78.581  94.329  72.529  1.00  0.00     0.051 A 
ATOM     18  O   UNL     1      75.917  96.094  70.930  1.00  0.00    -0.454 OA
ATOM     19  C   UNL     1      77.761  95.303  71.999  1.00  0.00     0.165 A 
ATOM     20  C   UNL     1      76.829  97.137  71.330  1.00  0.00     0.468 C 
ATOM     21  O   UNL     1      78.001  96.643  72.009  1.00  0.00    -0.454 OA
ENDBRANCH  12  13
ENDBRANCH   2  11
TORSDOF 3
ENDMDL
MODEL 10
REMARK VINA RESULT:    -6.315     24.170     25.584
REMARK INTER + INTRA:          -7.844
REMARK INTER:                  -7.527
REMARK INTRA:                  -0.317
REMARK UNBOUND:                -0.422
REMARK SMILES O=C(/C=C/C=C/c1ccc2c(c1)OCO2)N1CCCCC1
REMARK SMILES IDX 3 1 4 2 2 3 1 4 16 5 17 6 21 7 18 8 20 9 19 10 5 11 6 12
REMARK SMILES IDX 7 13 12 14 8 15 11 16 9 17 13 18 10 19 14 20 15 21
REMARK H PARENT
REMARK Flexibility Score: inf
ROOT
ATOM      1  C   UNL     1      98.126  82.932  83.399  1.00  0.00     0.071 C 
ATOM      2  C   UNL     1      97.906  83.535  82.233  1.00  0.00     0.006 C 
ENDROOT
BRANCH   1   3
ATOM      3  C   UNL     1      97.731  83.640  84.633  1.00  0.00     0.246 C 
ATOM      4  O   UNL     1      96.797  84.438  84.557  1.00  0.00    -0.270 OA
ATOM      5  N   UNL     1      98.445  83.363  85.798  1.00  0.00    -0.339 N 
ATOM      6  C   UNL     1      98.080  84.054  87.038  1.00  0.00     0.120 C 
ATOM      7  C   UNL     1      99.594  82.452  85.917  1.00  0.00     0.120 C 
ATOM      8  C   UNL     1      97.836  83.068  88.175  1.00  0.00     0.022 C 
ATOM      9  C   UNL     1      99.388  81.448  87.051  1.00  0.00     0.022 C 
ATOM     10  C   UNL     1      99.034  82.143  88.363  1.00  0.00     0.004 C 
ENDBRANCH   1   3
BRANCH   2  11
ATOM     11  C   UNL     1      98.258  82.922  80.970  1.00  0.00     0.001 C 
ATOM     12  C   UNL     1      97.709  83.294  79.803  1.00  0.00     0.008 C 
BRANCH  12  13
ATOM     13  C   UNL     1      98.024  82.699  78.493  1.00  0.00    -0.022 A 
ATOM     14  C   UNL     1      98.524  81.405  78.442  1.00  0.00     0.058 A 
ATOM     15  C   UNL     1      97.812  83.454  77.337  1.00  0.00     0.012 A 
ATOM     16  C   UNL     1      98.804  80.891  77.192  1.00  0.00     0.166 A 
ATOM     17  C   UNL     1      98.104  82.909  76.085  1.00  0.00     0.051 A 
ATOM     18  O   UNL     1      99.299  79.650  76.932  1.00  0.00    -0.454 OA
ATOM     19  C   UNL     1      98.600  81.623  76.045  1.00  0.00     0.165 A 
ATOM     20  C   UNL     1      99.383  79.683  75.493  1.00  0.00     0.468 C 
ATOM     21  O   UNL     1      98.940  80.932  74.923  1.00  0.00    -0.454 OA
ENDBRANCH  12  13
ENDBRANCH   2  11
TORSDOF 3
ENDMDL
