MODEL 1
REMARK VINA RESULT:    -5.967      0.000      0.000
REMARK INTER + INTRA:         -10.698
REMARK INTER:                  -9.630
REMARK INTRA:                  -1.068
REMARK UNBOUND:                -1.068
REMARK SMILES CCCCCCCCC(=O)NCc1ccc(O)c(OC)c1
REMARK SMILES IDX 7 1 6 2 5 3 4 4 3 5 2 6 1 7 8 8 9 9 10 10 11 11 12 13 13 14
REMARK SMILES IDX 21 15 14 16 18 17 15 18 16 19 19 20 20 21 17 22
REMARK H PARENT 11 12 17 23
REMARK Flexibility Score: inf
ROOT
ATOM      1  C   UNL     1      93.988  94.138  76.080  1.00  0.00     0.010 C 
ENDROOT
BRANCH   1   2
ATOM      2  C   UNL     1      93.984  94.094  77.636  1.00  0.00     0.001 C 
BRANCH   2   3
ATOM      3  C   UNL     1      95.420  93.967  78.225  1.00  0.00     0.000 C 
BRANCH   3   4
ATOM      4  C   UNL     1      95.886  95.221  79.018  1.00  0.00    -0.000 C 
BRANCH   4   5
ATOM      5  C   UNL     1      96.707  96.212  78.144  1.00  0.00    -0.000 C 
BRANCH   5   6
ATOM      6  C   UNL     1      97.415  95.511  76.954  1.00  0.00    -0.003 C 
ATOM      7  C   UNL     1      97.108  96.178  75.595  1.00  0.00     0.004 C 
ENDBRANCH   5   6
ENDBRANCH   4   5
ENDBRANCH   3   4
ENDBRANCH   2   3
ENDBRANCH   1   2
BRANCH   1   8
ATOM      8  C   UNL     1      92.776  94.894  75.469  1.00  0.00     0.100 C 
BRANCH   8   9
ATOM      9  C   UNL     1      91.514  94.142  75.666  1.00  0.00     0.220 C 
ATOM     10  O   UNL     1      90.634  94.640  76.407  1.00  0.00    -0.275 OA
ATOM     11  N   UNL     1      91.310  92.950  75.031  1.00  0.00    -0.352 N 
ATOM     12  H   UNL     1      92.114  92.601  74.531  1.00  0.00     0.163 HD
BRANCH  11  13
ATOM     13  C   UNL     1      90.090  92.203  75.028  1.00  0.00     0.151 C 
BRANCH  13  14
ATOM     14  C   UNL     1      90.109  91.017  75.925  1.00  0.00    -0.025 A 
ATOM     15  C   UNL     1      90.337  89.725  75.394  1.00  0.00     0.056 A 
ATOM     16  C   UNL     1      89.897  91.154  77.316  1.00  0.00     0.009 A 
ATOM     17  C   UNL     1      90.375  88.590  76.237  1.00  0.00     0.160 A 
ATOM     18  C   UNL     1      89.935  90.030  78.160  1.00  0.00     0.050 A 
ATOM     19  C   UNL     1      90.165  88.748  77.625  1.00  0.00     0.157 A 
BRANCH  17  20
ATOM     20  O   UNL     1      90.555  87.334  75.714  1.00  0.00    -0.493 OA
ATOM     21  C   UNL     1      91.410  87.294  74.558  1.00  0.00     0.278 C 
ENDBRANCH  17  20
BRANCH  19  22
ATOM     22  O   UNL     1      90.172  87.666  78.444  1.00  0.00    -0.504 OA
ATOM     23  H   UNL     1      89.344  87.189  78.352  1.00  0.00     0.293 HD
ENDBRANCH  19  22
ENDBRANCH  13  14
ENDBRANCH  11  13
ENDBRANCH   8   9
ENDBRANCH   1   8
TORSDOF 11
ENDMDL
MODEL 2
REMARK VINA RESULT:    -5.954      1.842      2.660
REMARK INTER + INTRA:         -10.678
REMARK INTER:                  -9.905
REMARK INTRA:                  -0.772
REMARK UNBOUND:                -1.068
REMARK SMILES CCCCCCCCC(=O)NCc1ccc(O)c(OC)c1
REMARK SMILES IDX 7 1 6 2 5 3 4 4 3 5 2 6 1 7 8 8 9 9 10 10 11 11 12 13 13 14
REMARK SMILES IDX 21 15 14 16 18 17 15 18 16 19 19 20 20 21 17 22
REMARK H PARENT 11 12 17 23
REMARK Flexibility Score: inf
ROOT
ATOM      1  C   UNL     1      93.289  94.369  75.582  1.00  0.00     0.010 C 
ENDROOT
BRANCH   1   2
ATOM      2  C   UNL     1      94.603  94.464  76.410  1.00  0.00     0.001 C 
BRANCH   2   3
ATOM      3  C   UNL     1      95.870  94.240  75.533  1.00  0.00     0.000 C 
BRANCH   3   4
ATOM      4  C   UNL     1      96.155  95.400  74.536  1.00  0.00    -0.000 C 
BRANCH   4   5
ATOM      5  C   UNL     1      95.868  96.801  75.148  1.00  0.00    -0.000 C 
BRANCH   5   6
ATOM      6  C   UNL     1      94.808  97.598  74.342  1.00  0.00    -0.003 C 
ATOM      7  C   UNL     1      95.245  97.876  72.887  1.00  0.00     0.004 C 
ENDBRANCH   5   6
ENDBRANCH   4   5
ENDBRANCH   3   4
ENDBRANCH   2   3
ENDBRANCH   1   2
BRANCH   1   8
ATOM      8  C   UNL     1      92.005  94.671  76.403  1.00  0.00     0.100 C 
BRANCH   8   9
ATOM      9  C   UNL     1      91.417  93.430  76.961  1.00  0.00     0.220 C 
ATOM     10  O   UNL     1      92.058  92.811  77.844  1.00  0.00    -0.275 OA
ATOM     11  N   UNL     1      90.193  92.991  76.541  1.00  0.00    -0.352 N 
ATOM     12  H   UNL     1      89.806  93.513  75.768  1.00  0.00     0.163 HD
BRANCH  11  13
ATOM     13  C   UNL     1      89.461  91.896  77.098  1.00  0.00     0.151 C 
BRANCH  13  14
ATOM     14  C   UNL     1      89.816  90.575  76.513  1.00  0.00    -0.025 A 
ATOM     15  C   UNL     1      89.942  90.429  75.110  1.00  0.00     0.056 A 
ATOM     16  C   UNL     1      90.029  89.447  77.338  1.00  0.00     0.009 A 
ATOM     17  C   UNL     1      90.295  89.184  74.540  1.00  0.00     0.160 A 
ATOM     18  C   UNL     1      90.382  88.207  76.777  1.00  0.00     0.050 A 
ATOM     19  C   UNL     1      90.508  88.069  75.382  1.00  0.00     0.157 A 
BRANCH  17  20
ATOM     20  O   UNL     1      90.376  89.034  73.179  1.00  0.00    -0.493 OA
ATOM     21  C   UNL     1      90.006  90.208  72.434  1.00  0.00     0.278 C 
ENDBRANCH  17  20
BRANCH  19  22
ATOM     22  O   UNL     1      90.822  86.861  74.848  1.00  0.00    -0.504 OA
ATOM     23  H   UNL     1      91.625  86.529  75.258  1.00  0.00     0.293 HD
ENDBRANCH  19  22
ENDBRANCH  13  14
ENDBRANCH  11  13
ENDBRANCH   8   9
ENDBRANCH   1   8
TORSDOF 11
ENDMDL
MODEL 3
REMARK VINA RESULT:    -5.704     26.934     29.583
REMARK INTER + INTRA:         -10.273
REMARK INTER:                  -9.555
REMARK INTRA:                  -0.718
REMARK UNBOUND:                -1.068
REMARK SMILES CCCCCCCCC(=O)NCc1ccc(O)c(OC)c1
REMARK SMILES IDX 7 1 6 2 5 3 4 4 3 5 2 6 1 7 8 8 9 9 10 10 11 11 12 13 13 14
REMARK SMILES IDX 21 15 14 16 18 17 15 18 16 19 19 20 20 21 17 22
REMARK H PARENT 11 12 17 23
REMARK Flexibility Score: inf
ROOT
ATOM      1  C   UNL     1      62.568  85.091  76.121  1.00  0.00     0.010 C 
ENDROOT
BRANCH   1   2
ATOM      2  C   UNL     1      61.807  83.735  76.072  1.00  0.00     0.001 C 
BRANCH   2   3
ATOM      3  C   UNL     1      62.753  82.540  75.753  1.00  0.00     0.000 C 
BRANCH   3   4
ATOM      4  C   UNL     1      62.486  81.881  74.370  1.00  0.00    -0.000 C 
BRANCH   4   5
ATOM      5  C   UNL     1      63.295  80.569  74.163  1.00  0.00    -0.000 C 
BRANCH   5   6
ATOM      6  C   UNL     1      64.398  80.713  73.080  1.00  0.00    -0.003 C 
ATOM      7  C   UNL     1      65.641  79.844  73.370  1.00  0.00     0.004 C 
ENDBRANCH   5   6
ENDBRANCH   4   5
ENDBRANCH   3   4
ENDBRANCH   2   3
ENDBRANCH   1   2
BRANCH   1   8
ATOM      8  C   UNL     1      64.080  84.977  75.779  1.00  0.00     0.100 C 
BRANCH   8   9
ATOM      9  C   UNL     1      64.911  85.736  76.745  1.00  0.00     0.220 C 
ATOM     10  O   UNL     1      66.096  86.000  76.431  1.00  0.00    -0.275 OA
ATOM     11  N   UNL     1      64.383  86.160  77.931  1.00  0.00    -0.352 N 
ATOM     12  H   UNL     1      63.451  85.820  78.119  1.00  0.00     0.163 HD
BRANCH  11  13
ATOM     13  C   UNL     1      65.033  87.015  78.877  1.00  0.00     0.151 C 
BRANCH  13  14
ATOM     14  C   UNL     1      65.604  86.293  80.045  1.00  0.00    -0.025 A 
ATOM     15  C   UNL     1      64.941  86.326  81.296  1.00  0.00     0.056 A 
ATOM     16  C   UNL     1      66.813  85.569  79.933  1.00  0.00     0.009 A 
ATOM     17  C   UNL     1      65.463  85.631  82.411  1.00  0.00     0.160 A 
ATOM     18  C   UNL     1      67.337  84.875  81.038  1.00  0.00     0.050 A 
ATOM     19  C   UNL     1      66.671  84.909  82.278  1.00  0.00     0.157 A 
BRANCH  17  20
ATOM     20  O   UNL     1      64.842  85.699  83.633  1.00  0.00    -0.493 OA
ATOM     21  C   UNL     1      63.510  86.239  83.587  1.00  0.00     0.278 C 
ENDBRANCH  17  20
BRANCH  19  22
ATOM     22  O   UNL     1      67.198  84.258  83.346  1.00  0.00    -0.504 OA
ATOM     23  H   UNL     1      67.049  83.314  83.252  1.00  0.00     0.293 HD
ENDBRANCH  19  22
ENDBRANCH  13  14
ENDBRANCH  11  13
ENDBRANCH   8   9
ENDBRANCH   1   8
TORSDOF 11
ENDMDL
MODEL 4
REMARK VINA RESULT:    -5.637      3.308      8.490
REMARK INTER + INTRA:         -10.165
REMARK INTER:                  -8.961
REMARK INTRA:                  -1.204
REMARK UNBOUND:                -1.068
REMARK SMILES CCCCCCCCC(=O)NCc1ccc(O)c(OC)c1
REMARK SMILES IDX 7 1 6 2 5 3 4 4 3 5 2 6 1 7 8 8 9 9 10 10 11 11 12 13 13 14
REMARK SMILES IDX 21 15 14 16 18 17 15 18 16 19 19 20 20 21 17 22
REMARK H PARENT 11 12 17 23
REMARK Flexibility Score: inf
ROOT
ATOM      1  C   UNL     1      91.337  94.492  76.457  1.00  0.00     0.010 C 
ENDROOT
BRANCH   1   2
ATOM      2  C   UNL     1      89.879  93.949  76.472  1.00  0.00     0.001 C 
BRANCH   2   3
ATOM      3  C   UNL     1      89.736  92.667  77.344  1.00  0.00     0.000 C 
BRANCH   3   4
ATOM      4  C   UNL     1      89.151  91.448  76.575  1.00  0.00    -0.000 C 
BRANCH   4   5
ATOM      5  C   UNL     1      89.661  91.363  75.108  1.00  0.00    -0.000 C 
BRANCH   5   6
ATOM      6  C   UNL     1      91.086  90.755  75.007  1.00  0.00    -0.003 C 
ATOM      7  C   UNL     1      91.969  91.468  73.960  1.00  0.00     0.004 C 
ENDBRANCH   5   6
ENDBRANCH   4   5
ENDBRANCH   3   4
ENDBRANCH   2   3
ENDBRANCH   1   2
BRANCH   1   8
ATOM      8  C   UNL     1      92.371  93.534  77.110  1.00  0.00     0.100 C 
BRANCH   8   9
ATOM      9  C   UNL     1      93.723  93.723  76.530  1.00  0.00     0.220 C 
ATOM     10  O   UNL     1      93.812  94.145  75.353  1.00  0.00    -0.275 OA
ATOM     11  N   UNL     1      94.839  93.470  77.276  1.00  0.00    -0.352 N 
ATOM     12  H   UNL     1      94.654  93.053  78.176  1.00  0.00     0.163 HD
BRANCH  11  13
ATOM     13  C   UNL     1      96.187  93.745  76.882  1.00  0.00     0.151 C 
BRANCH  13  14
ATOM     14  C   UNL     1      96.734  95.006  77.450  1.00  0.00    -0.025 A 
ATOM     15  C   UNL     1      97.712  95.743  76.740  1.00  0.00     0.056 A 
ATOM     16  C   UNL     1      96.294  95.489  78.705  1.00  0.00     0.009 A 
ATOM     17  C   UNL     1      98.228  96.952  77.260  1.00  0.00     0.160 A 
ATOM     18  C   UNL     1      96.803  96.691  79.226  1.00  0.00     0.050 A 
ATOM     19  C   UNL     1      97.773  97.421  78.513  1.00  0.00     0.157 A 
BRANCH  17  20
ATOM     20  O   UNL     1      99.206  97.643  76.589  1.00  0.00    -0.493 OA
ATOM     21  C   UNL     1      99.661  96.999  75.386  1.00  0.00     0.278 C 
ENDBRANCH  17  20
BRANCH  19  22
ATOM     22  O   UNL     1      98.278  98.566  79.038  1.00  0.00    -0.504 OA
ATOM     23  H   UNL     1      98.680  99.088  78.340  1.00  0.00     0.293 HD
ENDBRANCH  19  22
ENDBRANCH  13  14
ENDBRANCH  11  13
ENDBRANCH   8   9
ENDBRANCH   1   8
TORSDOF 11
ENDMDL
MODEL 5
REMARK VINA RESULT:    -5.589     26.196     28.431
REMARK INTER + INTRA:         -10.088
REMARK INTER:                  -8.017
REMARK INTRA:                  -2.071
REMARK UNBOUND:                -1.068
REMARK SMILES CCCCCCCCC(=O)NCc1ccc(O)c(OC)c1
REMARK SMILES IDX 7 1 6 2 5 3 4 4 3 5 2 6 1 7 8 8 9 9 10 10 11 11 12 13 13 14
REMARK SMILES IDX 21 15 14 16 18 17 15 18 16 19 19 20 20 21 17 22
REMARK H PARENT 11 12 17 23
REMARK Flexibility Score: inf
ROOT
ATOM      1  C   UNL     1      81.778  67.823  70.964  1.00  0.00     0.010 C 
ENDROOT
BRANCH   1   2
ATOM      2  C   UNL     1      80.427  67.423  71.625  1.00  0.00     0.001 C 
BRANCH   2   3
ATOM      3  C   UNL     1      80.225  65.880  71.664  1.00  0.00     0.000 C 
BRANCH   3   4
ATOM      4  C   UNL     1      80.452  65.253  73.069  1.00  0.00    -0.000 C 
BRANCH   4   5
ATOM      5  C   UNL     1      80.213  66.267  74.224  1.00  0.00    -0.000 C 
BRANCH   5   6
ATOM      6  C   UNL     1      81.530  66.689  74.929  1.00  0.00    -0.003 C 
ATOM      7  C   UNL     1      81.542  66.343  76.434  1.00  0.00     0.004 C 
ENDBRANCH   5   6
ENDBRANCH   4   5
ENDBRANCH   3   4
ENDBRANCH   2   3
ENDBRANCH   1   2
BRANCH   1   8
ATOM      8  C   UNL     1      82.747  68.575  71.919  1.00  0.00     0.100 C 
BRANCH   8   9
ATOM      9  C   UNL     1      83.911  67.731  72.280  1.00  0.00     0.220 C 
ATOM     10  O   UNL     1      84.931  68.292  72.748  1.00  0.00    -0.275 OA
ATOM     11  N   UNL     1      83.857  66.374  72.133  1.00  0.00    -0.352 N 
ATOM     12  H   UNL     1      83.026  66.038  71.669  1.00  0.00     0.163 HD
BRANCH  11  13
ATOM     13  C   UNL     1      84.852  65.446  72.574  1.00  0.00     0.151 C 
BRANCH  13  14
ATOM     14  C   UNL     1      84.613  64.913  73.942  1.00  0.00    -0.025 A 
ATOM     15  C   UNL     1      85.211  65.535  75.064  1.00  0.00     0.056 A 
ATOM     16  C   UNL     1      83.793  63.780  74.147  1.00  0.00     0.009 A 
ATOM     17  C   UNL     1      84.980  65.050  76.371  1.00  0.00     0.160 A 
ATOM     18  C   UNL     1      83.557  63.293  75.446  1.00  0.00     0.050 A 
ATOM     19  C   UNL     1      84.153  63.919  76.557  1.00  0.00     0.157 A 
BRANCH  17  20
ATOM     20  O   UNL     1      85.594  65.629  77.453  1.00  0.00    -0.493 OA
ATOM     21  C   UNL     1      85.355  67.042  77.579  1.00  0.00     0.278 C 
ENDBRANCH  17  20
BRANCH  19  22
ATOM     22  O   UNL     1      83.942  63.425  77.804  1.00  0.00    -0.504 OA
ATOM     23  H   UNL     1      83.767  64.150  78.410  1.00  0.00     0.293 HD
ENDBRANCH  19  22
ENDBRANCH  13  14
ENDBRANCH  11  13
ENDBRANCH   8   9
ENDBRANCH   1   8
TORSDOF 11
ENDMDL
MODEL 6
REMARK VINA RESULT:    -5.553      3.681      8.498
REMARK INTER + INTRA:         -10.031
REMARK INTER:                  -9.001
REMARK INTRA:                  -1.029
REMARK UNBOUND:                -1.068
REMARK SMILES CCCCCCCCC(=O)NCc1ccc(O)c(OC)c1
REMARK SMILES IDX 7 1 6 2 5 3 4 4 3 5 2 6 1 7 8 8 9 9 10 10 11 11 12 13 13 14
REMARK SMILES IDX 21 15 14 16 18 17 15 18 16 19 19 20 20 21 17 22
REMARK H PARENT 11 12 17 23
REMARK Flexibility Score: inf
ROOT
ATOM      1  C   UNL     1      92.664  94.739  76.356  1.00  0.00     0.010 C 
ENDROOT
BRANCH   1   2
ATOM      2  C   UNL     1      91.307  94.046  76.672  1.00  0.00     0.001 C 
BRANCH   2   3
ATOM      3  C   UNL     1      91.498  92.630  77.290  1.00  0.00     0.000 C 
BRANCH   3   4
ATOM      4  C   UNL     1      90.879  91.485  76.438  1.00  0.00    -0.000 C 
BRANCH   4   5
ATOM      5  C   UNL     1      89.932  92.012  75.322  1.00  0.00    -0.000 C 
BRANCH   5   6
ATOM      6  C   UNL     1      90.536  91.847  73.901  1.00  0.00    -0.003 C 
ATOM      7  C   UNL     1      91.857  91.046  73.900  1.00  0.00     0.004 C 
ENDBRANCH   5   6
ENDBRANCH   4   5
ENDBRANCH   3   4
ENDBRANCH   2   3
ENDBRANCH   1   2
BRANCH   1   8
ATOM      8  C   UNL     1      93.716  93.795  75.709  1.00  0.00     0.100 C 
BRANCH   8   9
ATOM      9  C   UNL     1      95.055  93.984  76.317  1.00  0.00     0.220 C 
ATOM     10  O   UNL     1      96.034  93.396  75.796  1.00  0.00    -0.275 OA
ATOM     11  N   UNL     1      95.217  94.800  77.400  1.00  0.00    -0.352 N 
ATOM     12  H   UNL     1      94.355  95.152  77.790  1.00  0.00     0.163 HD
BRANCH  11  13
ATOM     13  C   UNL     1      96.469  95.172  77.986  1.00  0.00     0.151 C 
BRANCH  13  14
ATOM     14  C   UNL     1      96.377  95.514  79.431  1.00  0.00    -0.025 A 
ATOM     15  C   UNL     1      96.421  96.867  79.846  1.00  0.00     0.056 A 
ATOM     16  C   UNL     1      96.250  94.503  80.411  1.00  0.00     0.009 A 
ATOM     17  C   UNL     1      96.318  97.209  81.215  1.00  0.00     0.160 A 
ATOM     18  C   UNL     1      96.146  94.837  81.773  1.00  0.00     0.050 A 
ATOM     19  C   UNL     1      96.188  96.184  82.179  1.00  0.00     0.157 A 
BRANCH  17  20
ATOM     20  O   UNL     1      96.403  98.517  81.619  1.00  0.00    -0.493 OA
ATOM     21  C   UNL     1      97.414  99.280  80.936  1.00  0.00     0.278 C 
ENDBRANCH  17  20
BRANCH  19  22
ATOM     22  O   UNL     1      96.114  96.494  83.499  1.00  0.00    -0.504 OA
ATOM     23  H   UNL     1      95.705  97.357  83.603  1.00  0.00     0.293 HD
ENDBRANCH  19  22
ENDBRANCH  13  14
ENDBRANCH  11  13
ENDBRANCH   8   9
ENDBRANCH   1   8
TORSDOF 11
ENDMDL
MODEL 7
REMARK VINA RESULT:    -5.545      3.993      5.836
REMARK INTER + INTRA:         -10.017
REMARK INTER:                  -9.428
REMARK INTRA:                  -0.589
REMARK UNBOUND:                -1.068
REMARK SMILES CCCCCCCCC(=O)NCc1ccc(O)c(OC)c1
REMARK SMILES IDX 7 1 6 2 5 3 4 4 3 5 2 6 1 7 8 8 9 9 10 10 11 11 12 13 13 14
REMARK SMILES IDX 21 15 14 16 18 17 15 18 16 19 19 20 20 21 17 22
REMARK H PARENT 11 12 17 23
REMARK Flexibility Score: inf
ROOT
ATOM      1  C   UNL     1      94.102  97.071  74.067  1.00  0.00     0.010 C 
ENDROOT
BRANCH   1   2
ATOM      2  C   UNL     1      94.558  97.995  72.901  1.00  0.00     0.001 C 
BRANCH   2   3
ATOM      3  C   UNL     1      93.352  98.612  72.133  1.00  0.00     0.000 C 
BRANCH   3   4
ATOM      4  C   UNL     1      93.425  98.418  70.592  1.00  0.00    -0.000 C 
BRANCH   4   5
ATOM      5  C   UNL     1      92.302  99.184  69.837  1.00  0.00    -0.000 C 
BRANCH   5   6
ATOM      6  C   UNL     1      90.967  98.392  69.791  1.00  0.00    -0.003 C 
ATOM      7  C   UNL     1      90.462  98.150  68.352  1.00  0.00     0.004 C 
ENDBRANCH   5   6
ENDBRANCH   4   5
ENDBRANCH   3   4
ENDBRANCH   2   3
ENDBRANCH   1   2
BRANCH   1   8
ATOM      8  C   UNL     1      95.267  96.305  74.755  1.00  0.00     0.100 C 
BRANCH   8   9
ATOM      9  C   UNL     1      94.832  94.967  75.221  1.00  0.00     0.220 C 
ATOM     10  O   UNL     1      95.626  94.004  75.090  1.00  0.00    -0.275 OA
ATOM     11  N   UNL     1      93.609  94.798  75.805  1.00  0.00    -0.352 N 
ATOM     12  H   UNL     1      93.019  95.617  75.781  1.00  0.00     0.163 HD
BRANCH  11  13
ATOM     13  C   UNL     1      93.134  93.596  76.418  1.00  0.00     0.151 C 
BRANCH  13  14
ATOM     14  C   UNL     1      91.991  92.967  75.704  1.00  0.00    -0.025 A 
ATOM     15  C   UNL     1      91.414  91.772  76.196  1.00  0.00     0.056 A 
ATOM     16  C   UNL     1      91.466  93.544  74.525  1.00  0.00     0.009 A 
ATOM     17  C   UNL     1      90.316  91.172  75.537  1.00  0.00     0.160 A 
ATOM     18  C   UNL     1      90.373  92.953  73.865  1.00  0.00     0.050 A 
ATOM     19  C   UNL     1      89.801  91.766  74.362  1.00  0.00     0.157 A 
BRANCH  17  20
ATOM     20  O   UNL     1      89.785  89.992  75.992  1.00  0.00    -0.493 OA
ATOM     21  C   UNL     1      89.825  89.841  77.422  1.00  0.00     0.278 C 
ENDBRANCH  17  20
BRANCH  19  22
ATOM     22  O   UNL     1      88.765  91.188  73.703  1.00  0.00    -0.504 OA
ATOM     23  H   UNL     1      87.936  91.499  74.075  1.00  0.00     0.293 HD
ENDBRANCH  19  22
ENDBRANCH  13  14
ENDBRANCH  11  13
ENDBRANCH   8   9
ENDBRANCH   1   8
TORSDOF 11
ENDMDL
MODEL 8
REMARK VINA RESULT:    -5.487      3.368      8.859
REMARK INTER + INTRA:          -9.923
REMARK INTER:                  -9.279
REMARK INTRA:                  -0.644
REMARK UNBOUND:                -1.068
REMARK SMILES CCCCCCCCC(=O)NCc1ccc(O)c(OC)c1
REMARK SMILES IDX 7 1 6 2 5 3 4 4 3 5 2 6 1 7 8 8 9 9 10 10 11 11 12 13 13 14
REMARK SMILES IDX 21 15 14 16 18 17 15 18 16 19 19 20 20 21 17 22
REMARK H PARENT 11 12 17 23
REMARK Flexibility Score: inf
ROOT
ATOM      1  C   UNL     1      91.315  94.359  76.411  1.00  0.00     0.010 C 
ENDROOT
BRANCH   1   2
ATOM      2  C   UNL     1      89.857  93.826  76.301  1.00  0.00     0.001 C 
BRANCH   2   3
ATOM      3  C   UNL     1      89.576  92.670  77.306  1.00  0.00     0.000 C 
BRANCH   3   4
ATOM      4  C   UNL     1      89.304  91.299  76.624  1.00  0.00    -0.000 C 
BRANCH   4   5
ATOM      5  C   UNL     1      89.420  91.366  75.075  1.00  0.00    -0.000 C 
BRANCH   5   6
ATOM      6  C   UNL     1      88.731  90.164  74.373  1.00  0.00    -0.003 C 
ATOM      7  C   UNL     1      87.860  90.590  73.171  1.00  0.00     0.004 C 
ENDBRANCH   5   6
ENDBRANCH   4   5
ENDBRANCH   3   4
ENDBRANCH   2   3
ENDBRANCH   1   2
BRANCH   1   8
ATOM      8  C   UNL     1      92.274  93.414  77.188  1.00  0.00     0.100 C 
BRANCH   8   9
ATOM      9  C   UNL     1      93.692  93.700  76.864  1.00  0.00     0.220 C 
ATOM     10  O   UNL     1      93.993  93.945  75.672  1.00  0.00    -0.275 OA
ATOM     11  N   UNL     1      94.638  93.722  77.849  1.00  0.00    -0.352 N 
ATOM     12  H   UNL     1      94.304  93.426  78.755  1.00  0.00     0.163 HD
BRANCH  11  13
ATOM     13  C   UNL     1      96.003  94.120  77.689  1.00  0.00     0.151 C 
BRANCH  13  14
ATOM     14  C   UNL     1      96.365  95.346  78.450  1.00  0.00    -0.025 A 
ATOM     15  C   UNL     1      96.168  95.398  79.851  1.00  0.00     0.056 A 
ATOM     16  C   UNL     1      96.906  96.475  77.794  1.00  0.00     0.009 A 
ATOM     17  C   UNL     1      96.524  96.550  80.590  1.00  0.00     0.160 A 
ATOM     18  C   UNL     1      97.263  97.623  78.524  1.00  0.00     0.050 A 
ATOM     19  C   UNL     1      97.067  97.668  79.918  1.00  0.00     0.157 A 
BRANCH  17  20
ATOM     20  O   UNL     1      96.293  96.614  81.942  1.00  0.00    -0.493 OA
ATOM     21  C   UNL     1      97.398  96.170  82.749  1.00  0.00     0.278 C 
ENDBRANCH  17  20
BRANCH  19  22
ATOM     22  O   UNL     1      97.389  98.790  80.610  1.00  0.00    -0.504 OA
ATOM     23  H   UNL     1      97.747  99.446  80.007  1.00  0.00     0.293 HD
ENDBRANCH  19  22
ENDBRANCH  13  14
ENDBRANCH  11  13
ENDBRANCH   8   9
ENDBRANCH   1   8
TORSDOF 11
ENDMDL
MODEL 9
REMARK VINA RESULT:    -5.316      1.750      2.828
REMARK INTER + INTRA:          -9.648
REMARK INTER:                  -8.952
REMARK INTRA:                  -0.696
REMARK UNBOUND:                -1.068
REMARK SMILES CCCCCCCCC(=O)NCc1ccc(O)c(OC)c1
REMARK SMILES IDX 7 1 6 2 5 3 4 4 3 5 2 6 1 7 8 8 9 9 10 10 11 11 12 13 13 14
REMARK SMILES IDX 21 15 14 16 18 17 15 18 16 19 19 20 20 21 17 22
REMARK H PARENT 11 12 17 23
REMARK Flexibility Score: inf
ROOT
ATOM      1  C   UNL     1      96.088  96.616  75.752  1.00  0.00     0.010 C 
ENDROOT
BRANCH   1   2
ATOM      2  C   UNL     1      97.146  97.052  76.806  1.00  0.00     0.001 C 
BRANCH   2   3
ATOM      3  C   UNL     1      97.687  95.847  77.630  1.00  0.00     0.000 C 
BRANCH   3   4
ATOM      4  C   UNL     1      98.401  96.259  78.949  1.00  0.00    -0.000 C 
BRANCH   4   5
ATOM      5  C   UNL     1      97.432  96.318  80.163  1.00  0.00    -0.000 C 
BRANCH   5   6
ATOM      6  C   UNL     1      96.499  95.080  80.241  1.00  0.00    -0.003 C 
ATOM      7  C   UNL     1      95.250  95.324  81.117  1.00  0.00     0.004 C 
ENDBRANCH   5   6
ENDBRANCH   4   5
ENDBRANCH   3   4
ENDBRANCH   2   3
ENDBRANCH   1   2
BRANCH   1   8
ATOM      8  C   UNL     1      95.665  95.124  75.865  1.00  0.00     0.100 C 
BRANCH   8   9
ATOM      9  C   UNL     1      94.272  94.921  75.397  1.00  0.00     0.220 C 
ATOM     10  O   UNL     1      93.708  95.858  74.784  1.00  0.00    -0.275 OA
ATOM     11  N   UNL     1      93.637  93.731  75.606  1.00  0.00    -0.352 N 
ATOM     12  H   UNL     1      94.149  93.080  76.184  1.00  0.00     0.163 HD
BRANCH  11  13
ATOM     13  C   UNL     1      92.356  93.364  75.084  1.00  0.00     0.151 C 
BRANCH  13  14
ATOM     14  C   UNL     1      91.636  92.358  75.910  1.00  0.00    -0.025 A 
ATOM     15  C   UNL     1      91.264  91.112  75.350  1.00  0.00     0.056 A 
ATOM     16  C   UNL     1      91.308  92.624  77.259  1.00  0.00     0.009 A 
ATOM     17  C   UNL     1      90.595  90.139  76.127  1.00  0.00     0.160 A 
ATOM     18  C   UNL     1      90.643  91.660  78.037  1.00  0.00     0.050 A 
ATOM     19  C   UNL     1      90.279  90.422  77.475  1.00  0.00     0.157 A 
BRANCH  17  20
ATOM     20  O   UNL     1      90.198  88.949  75.570  1.00  0.00    -0.493 OA
ATOM     21  C   UNL     1      91.281  88.128  75.099  1.00  0.00     0.278 C 
ENDBRANCH  17  20
BRANCH  19  22
ATOM     22  O   UNL     1      89.613  89.508  78.226  1.00  0.00    -0.504 OA
ATOM     23  H   UNL     1      88.668  89.660  78.151  1.00  0.00     0.293 HD
ENDBRANCH  19  22
ENDBRANCH  13  14
ENDBRANCH  11  13
ENDBRANCH   8   9
ENDBRANCH   1   8
TORSDOF 11
ENDMDL
MODEL 10
REMARK VINA RESULT:    -5.314      3.560      8.251
REMARK INTER + INTRA:          -9.644
REMARK INTER:                  -8.593
REMARK INTRA:                  -1.051
REMARK UNBOUND:                -1.068
REMARK SMILES CCCCCCCCC(=O)NCc1ccc(O)c(OC)c1
REMARK SMILES IDX 7 1 6 2 5 3 4 4 3 5 2 6 1 7 8 8 9 9 10 10 11 11 12 13 13 14
REMARK SMILES IDX 21 15 14 16 18 17 15 18 16 19 19 20 20 21 17 22
REMARK H PARENT 11 12 17 23
REMARK Flexibility Score: inf
ROOT
ATOM      1  C   UNL     1      92.590  94.735  76.317  1.00  0.00     0.010 C 
ENDROOT
BRANCH   1   2
ATOM      2  C   UNL     1      91.269  94.021  76.724  1.00  0.00     0.001 C 
BRANCH   2   3
ATOM      3  C   UNL     1      91.520  92.588  77.277  1.00  0.00     0.000 C 
BRANCH   3   4
ATOM      4  C   UNL     1      90.898  91.461  76.404  1.00  0.00    -0.000 C 
BRANCH   4   5
ATOM      5  C   UNL     1      89.922  92.009  75.324  1.00  0.00    -0.000 C 
BRANCH   5   6
ATOM      6  C   UNL     1      90.509  91.915  73.889  1.00  0.00    -0.003 C 
ATOM      7  C   UNL     1      91.851  91.153  73.839  1.00  0.00     0.004 C 
ENDBRANCH   5   6
ENDBRANCH   4   5
ENDBRANCH   3   4
ENDBRANCH   2   3
ENDBRANCH   1   2
BRANCH   1   8
ATOM      8  C   UNL     1      93.619  93.803  75.617  1.00  0.00     0.100 C 
BRANCH   8   9
ATOM      9  C   UNL     1      95.010  94.250  75.869  1.00  0.00     0.220 C 
ATOM     10  O   UNL     1      95.939  93.684  75.244  1.00  0.00    -0.275 OA
ATOM     11  N   UNL     1      95.264  95.272  76.738  1.00  0.00    -0.352 N 
ATOM     12  H   UNL     1      94.457  95.596  77.249  1.00  0.00     0.163 HD
BRANCH  11  13
ATOM     13  C   UNL     1      96.539  95.884  76.958  1.00  0.00     0.151 C 
BRANCH  13  14
ATOM     14  C   UNL     1      96.786  96.267  78.374  1.00  0.00    -0.025 A 
ATOM     15  C   UNL     1      96.745  95.286  79.394  1.00  0.00     0.056 A 
ATOM     16  C   UNL     1      97.059  97.608  78.727  1.00  0.00     0.009 A 
ATOM     17  C   UNL     1      96.995  95.632  80.743  1.00  0.00     0.160 A 
ATOM     18  C   UNL     1      97.309  97.958  80.066  1.00  0.00     0.050 A 
ATOM     19  C   UNL     1      97.270  96.978  81.076  1.00  0.00     0.157 A 
BRANCH  17  20
ATOM     20  O   UNL     1      96.913  94.689  81.735  1.00  0.00    -0.493 OA
ATOM     21  C   UNL     1      95.777  93.813  81.624  1.00  0.00     0.278 C 
ENDBRANCH  17  20
BRANCH  19  22
ATOM     22  O   UNL     1      97.486  97.331  82.369  1.00  0.00    -0.504 OA
ATOM     23  H   UNL     1      97.875  96.591  82.842  1.00  0.00     0.293 HD
ENDBRANCH  19  22
ENDBRANCH  13  14
ENDBRANCH  11  13
ENDBRANCH   8   9
ENDBRANCH   1   8
TORSDOF 11
ENDMDL
