MODEL 1
REMARK VINA RESULT:    -6.439      0.000      0.000
REMARK INTER + INTRA:         -10.694
REMARK INTER:                 -10.015
REMARK INTRA:                  -0.678
REMARK UNBOUND:                -0.678
REMARK SMILES COc1cc(CNC(=O)CCCC/C=C/C(C)C)ccc1O
REMARK SMILES IDX 10 1 8 2 7 3 9 5 6 6 5 7 3 8 21 9 4 10 20 11 19 12 2 13 1 14
REMARK SMILES IDX 22 15 11 17 12 18 13 19 14 20 15 21 16 22 17 23 18 24
REMARK H PARENT 7 4 22 16
REMARK Flexibility Score: inf
ROOT
ATOM      1  C   UNL     1      93.226 100.241  75.120  1.00  0.00     0.100 C 
ENDROOT
BRANCH   1   2
ATOM      2  C   UNL     1      92.887 100.895  73.842  1.00  0.00     0.220 C 
ATOM      3  N   UNL     1      91.948 100.355  73.016  1.00  0.00    -0.352 N 
ATOM      4  H   UNL     1      91.543  99.487  73.340  1.00  0.00     0.163 HD
ATOM      5  O   UNL     1      93.470 101.969  73.554  1.00  0.00    -0.275 OA
BRANCH   3   6
ATOM      6  C   UNL     1      91.528 100.925  71.776  1.00  0.00     0.151 C 
BRANCH   6   7
ATOM      7  C   UNL     1      90.605 100.017  71.041  1.00  0.00    -0.025 A 
ATOM      8  C   UNL     1      89.026  99.627  69.194  1.00  0.00     0.160 A 
ATOM      9  C   UNL     1      88.858  98.293  69.617  1.00  0.00     0.157 A 
ATOM     10  C   UNL     1      89.895 100.477  69.910  1.00  0.00     0.056 A 
ATOM     11  C   UNL     1      89.545  97.826  70.755  1.00  0.00     0.050 A 
ATOM     12  C   UNL     1      90.420  98.678  71.457  1.00  0.00     0.009 A 
BRANCH   8  13
ATOM     13  O   UNL     1      88.309 100.105  68.126  1.00  0.00    -0.493 OA
ATOM     14  C   UNL     1      88.590 101.478  67.798  1.00  0.00     0.278 C 
ENDBRANCH   8  13
BRANCH   9  15
ATOM     15  O   UNL     1      88.039  97.446  68.942  1.00  0.00    -0.504 OA
ATOM     16  H   UNL     1      87.177  97.429  69.364  1.00  0.00     0.293 HD
ENDBRANCH   9  15
ENDBRANCH   6   7
ENDBRANCH   3   6
ENDBRANCH   1   2
BRANCH   1  17
ATOM     17  C   UNL     1      93.776  98.806  74.901  1.00  0.00     0.010 C 
BRANCH  17  18
ATOM     18  C   UNL     1      92.829  97.704  75.454  1.00  0.00     0.005 C 
BRANCH  18  19
ATOM     19  C   UNL     1      93.514  96.823  76.534  1.00  0.00     0.027 C 
BRANCH  19  20
ATOM     20  C   UNL     1      92.729  95.641  76.855  1.00  0.00    -0.031 C 
ATOM     21  C   UNL     1      91.407  95.656  77.107  1.00  0.00    -0.028 C 
BRANCH  21  22
ATOM     22  C   UNL     1      90.634  94.451  77.408  1.00  0.00     0.005 C 
ATOM     23  C   UNL     1      91.089  93.775  78.731  1.00  0.00     0.012 C 
ATOM     24  C   UNL     1      89.120  94.782  77.448  1.00  0.00     0.012 C 
ENDBRANCH  21  22
ENDBRANCH  19  20
ENDBRANCH  18  19
ENDBRANCH  17  18
ENDBRANCH   1  17
TORSDOF 10
ENDMDL
MODEL 2
REMARK VINA RESULT:    -6.357     20.217     22.685
REMARK INTER + INTRA:         -10.565
REMARK INTER:                  -9.899
REMARK INTRA:                  -0.666
REMARK UNBOUND:                -0.678
REMARK SMILES COc1cc(CNC(=O)CCCC/C=C/C(C)C)ccc1O
REMARK SMILES IDX 10 1 8 2 7 3 9 5 6 6 5 7 3 8 21 9 4 10 20 11 19 12 2 13 1 14
REMARK SMILES IDX 22 15 11 17 12 18 13 19 14 20 15 21 16 22 17 23 18 24
REMARK H PARENT 7 4 22 16
REMARK Flexibility Score: inf
ROOT
ATOM      1  C   UNL     1      77.587  84.159  68.590  1.00  0.00     0.100 C 
ENDROOT
BRANCH   1   2
ATOM      2  C   UNL     1      77.826  83.537  67.274  1.00  0.00     0.220 C 
ATOM      3  N   UNL     1      76.804  82.953  66.588  1.00  0.00    -0.352 N 
ATOM      4  H   UNL     1      75.911  82.966  67.062  1.00  0.00     0.163 HD
ATOM      5  O   UNL     1      78.987  83.583  66.799  1.00  0.00    -0.275 OA
BRANCH   3   6
ATOM      6  C   UNL     1      76.924  82.354  65.298  1.00  0.00     0.151 C 
BRANCH   6   7
ATOM      7  C   UNL     1      75.635  81.760  64.848  1.00  0.00    -0.025 A 
ATOM      8  C   UNL     1      73.256  81.278  65.259  1.00  0.00     0.160 A 
ATOM      9  C   UNL     1      73.165  80.651  63.999  1.00  0.00     0.157 A 
ATOM     10  C   UNL     1      74.489  81.824  65.672  1.00  0.00     0.056 A 
ATOM     11  C   UNL     1      74.304  80.562  63.175  1.00  0.00     0.050 A 
ATOM     12  C   UNL     1      75.528  81.121  63.591  1.00  0.00     0.009 A 
BRANCH   8  13
ATOM     13  O   UNL     1      72.167  81.309  66.092  1.00  0.00    -0.493 OA
ATOM     14  C   UNL     1      71.543  82.602  66.195  1.00  0.00     0.278 C 
ENDBRANCH   8  13
BRANCH   9  15
ATOM     15  O   UNL     1      71.989  80.127  63.565  1.00  0.00    -0.504 OA
ATOM     16  H   UNL     1      71.306  80.288  64.220  1.00  0.00     0.293 HD
ENDBRANCH   9  15
ENDBRANCH   6   7
ENDBRANCH   3   6
ENDBRANCH   1   2
BRANCH   1  17
ATOM     17  C   UNL     1      78.290  85.538  68.708  1.00  0.00     0.010 C 
BRANCH  17  18
ATOM     18  C   UNL     1      77.467  86.568  69.531  1.00  0.00     0.005 C 
BRANCH  18  19
ATOM     19  C   UNL     1      76.110  86.913  68.860  1.00  0.00     0.027 C 
BRANCH  19  20
ATOM     20  C   UNL     1      75.312  87.819  69.672  1.00  0.00    -0.031 C 
ATOM     21  C   UNL     1      75.823  88.823  70.409  1.00  0.00    -0.028 C 
BRANCH  21  22
ATOM     22  C   UNL     1      74.999  89.734  71.202  1.00  0.00     0.005 C 
ATOM     23  C   UNL     1      74.713  91.068  70.458  1.00  0.00     0.012 C 
ATOM     24  C   UNL     1      73.678  89.038  71.618  1.00  0.00     0.012 C 
ENDBRANCH  21  22
ENDBRANCH  19  20
ENDBRANCH  18  19
ENDBRANCH  17  18
ENDBRANCH   1  17
TORSDOF 10
ENDMDL
MODEL 3
REMARK VINA RESULT:    -6.324     17.489     19.605
REMARK INTER + INTRA:         -10.514
REMARK INTER:                  -9.849
REMARK INTRA:                  -0.665
REMARK UNBOUND:                -0.678
REMARK SMILES COc1cc(CNC(=O)CCCC/C=C/C(C)C)ccc1O
REMARK SMILES IDX 10 1 8 2 7 3 9 5 6 6 5 7 3 8 21 9 4 10 20 11 19 12 2 13 1 14
REMARK SMILES IDX 22 15 11 17 12 18 13 19 14 20 15 21 16 22 17 23 18 24
REMARK H PARENT 7 4 22 16
REMARK Flexibility Score: inf
ROOT
ATOM      1  C   UNL     1      97.973  82.203  84.513  1.00  0.00     0.100 C 
ENDROOT
BRANCH   1   2
ATOM      2  C   UNL     1      98.677  81.932  83.245  1.00  0.00     0.220 C 
ATOM      3  N   UNL     1      99.278  82.943  82.557  1.00  0.00    -0.352 N 
ATOM      4  H   UNL     1      99.177  83.859  82.971  1.00  0.00     0.163 HD
ATOM      5  O   UNL     1      98.724  80.746  82.836  1.00  0.00    -0.275 OA
BRANCH   3   6
ATOM      6  C   UNL     1     100.009  82.780  81.341  1.00  0.00     0.151 C 
BRANCH   6   7
ATOM      7  C   UNL     1      99.163  83.074  80.152  1.00  0.00    -0.025 A 
ATOM      8  C   UNL     1      98.946  83.387  77.719  1.00  0.00     0.160 A 
ATOM      9  C   UNL     1      97.563  83.613  77.871  1.00  0.00     0.157 A 
ATOM     10  C   UNL     1      99.733  83.122  78.860  1.00  0.00     0.056 A 
ATOM     11  C   UNL     1      96.984  83.588  79.156  1.00  0.00     0.050 A 
ATOM     12  C   UNL     1      97.776  83.310  80.287  1.00  0.00     0.009 A 
BRANCH   8  13
ATOM     13  O   UNL     1      99.526  83.476  76.479  1.00  0.00    -0.493 OA
ATOM     14  C   UNL     1      99.798  82.202  75.866  1.00  0.00     0.278 C 
ENDBRANCH   8  13
BRANCH   9  15
ATOM     15  O   UNL     1      96.775  83.858  76.793  1.00  0.00    -0.504 OA
ATOM     16  H   UNL     1      95.898  83.500  76.949  1.00  0.00     0.293 HD
ENDBRANCH   9  15
ENDBRANCH   6   7
ENDBRANCH   3   6
ENDBRANCH   1   2
BRANCH   1  17
ATOM     17  C   UNL     1      97.260  83.582  84.488  1.00  0.00     0.010 C 
BRANCH  17  18
ATOM     18  C   UNL     1      96.184  83.727  85.601  1.00  0.00     0.005 C 
BRANCH  18  19
ATOM     19  C   UNL     1      95.737  82.354  86.172  1.00  0.00     0.027 C 
BRANCH  19  20
ATOM     20  C   UNL     1      94.315  82.328  86.483  1.00  0.00    -0.031 C 
ATOM     21  C   UNL     1      93.563  81.213  86.489  1.00  0.00    -0.028 C 
BRANCH  21  22
ATOM     22  C   UNL     1      92.140  81.207  86.825  1.00  0.00     0.005 C 
ATOM     23  C   UNL     1      91.595  82.635  87.105  1.00  0.00     0.012 C 
ATOM     24  C   UNL     1      91.326  80.516  85.699  1.00  0.00     0.012 C 
ENDBRANCH  21  22
ENDBRANCH  19  20
ENDBRANCH  18  19
ENDBRANCH  17  18
ENDBRANCH   1  17
TORSDOF 10
ENDMDL
MODEL 4
REMARK VINA RESULT:    -6.257      7.567     10.554
REMARK INTER + INTRA:         -10.410
REMARK INTER:                  -9.497
REMARK INTRA:                  -0.913
REMARK UNBOUND:                -0.678
REMARK SMILES COc1cc(CNC(=O)CCCC/C=C/C(C)C)ccc1O
REMARK SMILES IDX 10 1 8 2 7 3 9 5 6 6 5 7 3 8 21 9 4 10 20 11 19 12 2 13 1 14
REMARK SMILES IDX 22 15 11 17 12 18 13 19 14 20 15 21 16 22 17 23 18 24
REMARK H PARENT 7 4 22 16
REMARK Flexibility Score: inf
ROOT
ATOM      1  C   UNL     1      95.363  93.253  80.323  1.00  0.00     0.100 C 
ENDROOT
BRANCH   1   2
ATOM      2  C   UNL     1      95.545  93.999  81.583  1.00  0.00     0.220 C 
ATOM      3  N   UNL     1      96.382  95.072  81.637  1.00  0.00    -0.352 N 
ATOM      4  H   UNL     1      96.863  95.281  80.773  1.00  0.00     0.163 HD
ATOM      5  O   UNL     1      94.891  93.631  82.589  1.00  0.00    -0.275 OA
BRANCH   3   6
ATOM      6  C   UNL     1      96.603  95.877  82.795  1.00  0.00     0.151 C 
BRANCH   6   7
ATOM      7  C   UNL     1      96.295  97.310  82.532  1.00  0.00    -0.025 A 
ATOM      8  C   UNL     1      96.005  99.167  80.943  1.00  0.00     0.160 A 
ATOM      9  C   UNL     1      95.691 100.033  82.011  1.00  0.00     0.157 A 
ATOM     10  C   UNL     1      96.306  97.816  81.213  1.00  0.00     0.056 A 
ATOM     11  C   UNL     1      95.695  99.547  83.333  1.00  0.00     0.050 A 
ATOM     12  C   UNL     1      95.985  98.193  83.592  1.00  0.00     0.009 A 
BRANCH   8  13
ATOM     13  O   UNL     1      96.066  99.651  79.660  1.00  0.00    -0.493 OA
ATOM     14  C   UNL     1      96.060  98.629  78.647  1.00  0.00     0.278 C 
ENDBRANCH   8  13
BRANCH   9  15
ATOM     15  O   UNL     1      95.384 101.336  81.783  1.00  0.00    -0.504 OA
ATOM     16  H   UNL     1      94.954 101.705  82.559  1.00  0.00     0.293 HD
ENDBRANCH   9  15
ENDBRANCH   6   7
ENDBRANCH   3   6
ENDBRANCH   1   2
BRANCH   1  17
ATOM     17  C   UNL     1      95.881  94.059  79.101  1.00  0.00     0.010 C 
BRANCH  17  18
ATOM     18  C   UNL     1      94.733  94.639  78.227  1.00  0.00     0.005 C 
BRANCH  18  19
ATOM     19  C   UNL     1      93.550  95.169  79.082  1.00  0.00     0.027 C 
BRANCH  19  20
ATOM     20  C   UNL     1      92.307  94.472  78.789  1.00  0.00    -0.031 C 
ATOM     21  C   UNL     1      91.483  94.791  77.774  1.00  0.00    -0.028 C 
BRANCH  21  22
ATOM     22  C   UNL     1      90.248  94.063  77.485  1.00  0.00     0.005 C 
ATOM     23  C   UNL     1      89.867  93.074  78.622  1.00  0.00     0.012 C 
ATOM     24  C   UNL     1      89.091  95.059  77.209  1.00  0.00     0.012 C 
ENDBRANCH  21  22
ENDBRANCH  19  20
ENDBRANCH  18  19
ENDBRANCH  17  18
ENDBRANCH   1  17
TORSDOF 10
ENDMDL
MODEL 5
REMARK VINA RESULT:    -6.237      3.219      7.953
REMARK INTER + INTRA:         -10.380
REMARK INTER:                  -9.694
REMARK INTRA:                  -0.686
REMARK UNBOUND:                -0.678
REMARK SMILES COc1cc(CNC(=O)CCCC/C=C/C(C)C)ccc1O
REMARK SMILES IDX 10 1 8 2 7 3 9 5 6 6 5 7 3 8 21 9 4 10 20 11 19 12 2 13 1 14
REMARK SMILES IDX 22 15 11 17 12 18 13 19 14 20 15 21 16 22 17 23 18 24
REMARK H PARENT 7 4 22 16
REMARK Flexibility Score: inf
ROOT
ATOM      1  C   UNL     1      92.512 100.378  74.189  1.00  0.00     0.100 C 
ENDROOT
BRANCH   1   2
ATOM      2  C   UNL     1      93.560  99.497  74.739  1.00  0.00     0.220 C 
ATOM      3  N   UNL     1      93.228  98.322  75.344  1.00  0.00    -0.352 N 
ATOM      4  H   UNL     1      92.236  98.135  75.397  1.00  0.00     0.163 HD
ATOM      5  O   UNL     1      94.757  99.850  74.613  1.00  0.00    -0.275 OA
BRANCH   3   6
ATOM      6  C   UNL     1      94.165  97.387  75.879  1.00  0.00     0.151 C 
BRANCH   6   7
ATOM      7  C   UNL     1      93.502  96.402  76.776  1.00  0.00    -0.025 A 
ATOM      8  C   UNL     1      91.670  94.815  77.213  1.00  0.00     0.160 A 
ATOM      9  C   UNL     1      92.236  94.506  78.467  1.00  0.00     0.157 A 
ATOM     10  C   UNL     1      92.306  95.760  76.381  1.00  0.00     0.056 A 
ATOM     11  C   UNL     1      93.417  95.152  78.883  1.00  0.00     0.050 A 
ATOM     12  C   UNL     1      94.052  96.085  78.041  1.00  0.00     0.009 A 
BRANCH   8  13
ATOM     13  O   UNL     1      90.486  94.239  76.832  1.00  0.00    -0.493 OA
ATOM     14  C   UNL     1      89.328  95.059  77.076  1.00  0.00     0.278 C 
ENDBRANCH   8  13
BRANCH   9  15
ATOM     15  O   UNL     1      91.656  93.591  79.286  1.00  0.00    -0.504 OA
ATOM     16  H   UNL     1      91.381  94.019  80.101  1.00  0.00     0.293 HD
ENDBRANCH   9  15
ENDBRANCH   6   7
ENDBRANCH   3   6
ENDBRANCH   1   2
BRANCH   1  17
ATOM     17  C   UNL     1      92.040  99.902  72.789  1.00  0.00     0.010 C 
BRANCH  17  18
ATOM     18  C   UNL     1      91.431 101.049  71.934  1.00  0.00     0.005 C 
BRANCH  18  19
ATOM     19  C   UNL     1      89.943 100.789  71.572  1.00  0.00     0.027 C 
BRANCH  19  20
ATOM     20  C   UNL     1      89.800  99.778  70.536  1.00  0.00    -0.031 C 
ATOM     21  C   UNL     1      89.035  98.677  70.654  1.00  0.00    -0.028 C 
BRANCH  21  22
ATOM     22  C   UNL     1      88.891  97.683  69.591  1.00  0.00     0.005 C 
ATOM     23  C   UNL     1      89.154  98.284  68.183  1.00  0.00     0.012 C 
ATOM     24  C   UNL     1      89.822  96.472  69.859  1.00  0.00     0.012 C 
ENDBRANCH  21  22
ENDBRANCH  19  20
ENDBRANCH  18  19
ENDBRANCH  17  18
ENDBRANCH   1  17
TORSDOF 10
ENDMDL
MODEL 6
REMARK VINA RESULT:    -6.151      8.171     11.928
REMARK INTER + INTRA:         -10.245
REMARK INTER:                  -9.272
REMARK INTRA:                  -0.973
REMARK UNBOUND:                -0.678
REMARK SMILES COc1cc(CNC(=O)CCCC/C=C/C(C)C)ccc1O
REMARK SMILES IDX 10 1 8 2 7 3 9 5 6 6 5 7 3 8 21 9 4 10 20 11 19 12 2 13 1 14
REMARK SMILES IDX 22 15 11 17 12 18 13 19 14 20 15 21 16 22 17 23 18 24
REMARK H PARENT 7 4 22 16
REMARK Flexibility Score: inf
ROOT
ATOM      1  C   UNL     1      94.821  93.356  80.646  1.00  0.00     0.100 C 
ENDROOT
BRANCH   1   2
ATOM      2  C   UNL     1      95.511  93.956  81.804  1.00  0.00     0.220 C 
ATOM      3  N   UNL     1      96.555  94.811  81.620  1.00  0.00    -0.352 N 
ATOM      4  H   UNL     1      96.814  94.967  80.656  1.00  0.00     0.163 HD
ATOM      5  O   UNL     1      95.093  93.674  82.954  1.00  0.00    -0.275 OA
BRANCH   3   6
ATOM      6  C   UNL     1      97.267  95.468  82.670  1.00  0.00     0.151 C 
BRANCH   6   7
ATOM      7  C   UNL     1      96.701  96.814  82.955  1.00  0.00    -0.025 A 
ATOM      8  C   UNL     1      96.198  98.617  84.555  1.00  0.00     0.160 A 
ATOM      9  C   UNL     1      95.643  99.389  83.513  1.00  0.00     0.157 A 
ATOM     10  C   UNL     1      96.719  97.338  84.267  1.00  0.00     0.056 A 
ATOM     11  C   UNL     1      95.600  98.871  82.203  1.00  0.00     0.050 A 
ATOM     12  C   UNL     1      96.133  97.598  81.923  1.00  0.00     0.009 A 
BRANCH   8  13
ATOM     13  O   UNL     1      96.183  99.089  85.843  1.00  0.00    -0.493 OA
ATOM     14  C   UNL     1      96.910  98.270  86.777  1.00  0.00     0.278 C 
ENDBRANCH   8  13
BRANCH   9  15
ATOM     15  O   UNL     1      95.145 100.629  83.754  1.00  0.00    -0.504 OA
ATOM     16  H   UNL     1      95.067 101.109  82.926  1.00  0.00     0.293 HD
ENDBRANCH   9  15
ENDBRANCH   6   7
ENDBRANCH   3   6
ENDBRANCH   1   2
BRANCH   1  17
ATOM     17  C   UNL     1      94.890  94.277  79.398  1.00  0.00     0.010 C 
BRANCH  17  18
ATOM     18  C   UNL     1      94.005  95.548  79.535  1.00  0.00     0.005 C 
BRANCH  18  19
ATOM     19  C   UNL     1      93.482  96.053  78.163  1.00  0.00     0.027 C 
BRANCH  19  20
ATOM     20  C   UNL     1      92.499  95.150  77.585  1.00  0.00    -0.031 C 
ATOM     21  C   UNL     1      91.399  94.718  78.228  1.00  0.00    -0.028 C 
BRANCH  21  22
ATOM     22  C   UNL     1      90.413  93.825  77.620  1.00  0.00     0.005 C 
ATOM     23  C   UNL     1      89.641  92.991  78.680  1.00  0.00     0.012 C 
ATOM     24  C   UNL     1      89.433  94.633  76.731  1.00  0.00     0.012 C 
ENDBRANCH  21  22
ENDBRANCH  19  20
ENDBRANCH  18  19
ENDBRANCH  17  18
ENDBRANCH   1  17
TORSDOF 10
ENDMDL
MODEL 7
REMARK VINA RESULT:    -6.126      3.495      9.026
REMARK INTER + INTRA:         -10.207
REMARK INTER:                  -9.654
REMARK INTRA:                  -0.553
REMARK UNBOUND:                -0.678
REMARK SMILES COc1cc(CNC(=O)CCCC/C=C/C(C)C)ccc1O
REMARK SMILES IDX 10 1 8 2 7 3 9 5 6 6 5 7 3 8 21 9 4 10 20 11 19 12 2 13 1 14
REMARK SMILES IDX 22 15 11 17 12 18 13 19 14 20 15 21 16 22 17 23 18 24
REMARK H PARENT 7 4 22 16
REMARK Flexibility Score: inf
ROOT
ATOM      1  C   UNL     1      92.289 100.182  73.993  1.00  0.00     0.100 C 
ENDROOT
BRANCH   1   2
ATOM      2  C   UNL     1      93.405  99.301  74.386  1.00  0.00     0.220 C 
ATOM      3  N   UNL     1      93.169  98.158  75.091  1.00  0.00    -0.352 N 
ATOM      4  H   UNL     1      92.200  97.995  75.327  1.00  0.00     0.163 HD
ATOM      5  O   UNL     1      94.566  99.622  74.034  1.00  0.00    -0.275 OA
BRANCH   3   6
ATOM      6  C   UNL     1      94.173  97.225  75.491  1.00  0.00     0.151 C 
BRANCH   6   7
ATOM      7  C   UNL     1      93.671  96.300  76.544  1.00  0.00    -0.025 A 
ATOM      8  C   UNL     1      94.113  94.616  78.285  1.00  0.00     0.160 A 
ATOM      9  C   UNL     1      92.733  94.546  78.568  1.00  0.00     0.157 A 
ATOM     10  C   UNL     1      94.568  95.490  77.276  1.00  0.00     0.056 A 
ATOM     11  C   UNL     1      91.825  95.333  77.833  1.00  0.00     0.050 A 
ATOM     12  C   UNL     1      92.290  96.211  76.835  1.00  0.00     0.009 A 
BRANCH   8  13
ATOM     13  O   UNL     1      94.994  93.804  78.952  1.00  0.00    -0.493 OA
ATOM     14  C   UNL     1      95.738  94.471  79.988  1.00  0.00     0.278 C 
ENDBRANCH   8  13
BRANCH   9  15
ATOM     15  O   UNL     1      92.263  93.725  79.542  1.00  0.00    -0.504 OA
ATOM     16  H   UNL     1      91.462  93.292  79.238  1.00  0.00     0.293 HD
ENDBRANCH   9  15
ENDBRANCH   6   7
ENDBRANCH   3   6
ENDBRANCH   1   2
BRANCH   1  17
ATOM     17  C   UNL     1      91.981 100.072  72.475  1.00  0.00     0.010 C 
BRANCH  17  18
ATOM     18  C   UNL     1      91.166 101.281  71.934  1.00  0.00     0.005 C 
BRANCH  18  19
ATOM     19  C   UNL     1      89.685 100.914  71.650  1.00  0.00     0.027 C 
BRANCH  19  20
ATOM     20  C   UNL     1      89.428 100.738  70.228  1.00  0.00    -0.031 C 
ATOM     21  C   UNL     1      88.867  99.639  69.692  1.00  0.00    -0.028 C 
BRANCH  21  22
ATOM     22  C   UNL     1      88.600  99.492  68.261  1.00  0.00     0.005 C 
ATOM     23  C   UNL     1      89.502 100.414  67.395  1.00  0.00     0.012 C 
ATOM     24  C   UNL     1      88.756  98.009  67.837  1.00  0.00     0.012 C 
ENDBRANCH  21  22
ENDBRANCH  19  20
ENDBRANCH  18  19
ENDBRANCH  17  18
ENDBRANCH   1  17
TORSDOF 10
ENDMDL
MODEL 8
REMARK VINA RESULT:    -6.088      1.781      2.222
REMARK INTER + INTRA:         -10.148
REMARK INTER:                  -9.577
REMARK INTRA:                  -0.571
REMARK UNBOUND:                -0.678
REMARK SMILES COc1cc(CNC(=O)CCCC/C=C/C(C)C)ccc1O
REMARK SMILES IDX 10 1 8 2 7 3 9 5 6 6 5 7 3 8 21 9 4 10 20 11 19 12 2 13 1 14
REMARK SMILES IDX 22 15 11 17 12 18 13 19 14 20 15 21 16 22 17 23 18 24
REMARK H PARENT 7 4 22 16
REMARK Flexibility Score: inf
ROOT
ATOM      1  C   UNL     1      93.115  99.796  75.034  1.00  0.00     0.100 C 
ENDROOT
BRANCH   1   2
ATOM      2  C   UNL     1      92.757 100.556  73.821  1.00  0.00     0.220 C 
ATOM      3  N   UNL     1      91.794 100.093  72.975  1.00  0.00    -0.352 N 
ATOM      4  H   UNL     1      91.387  99.206  73.237  1.00  0.00     0.163 HD
ATOM      5  O   UNL     1      93.345 101.644  73.608  1.00  0.00    -0.275 OA
BRANCH   3   6
ATOM      6  C   UNL     1      91.353 100.767  71.796  1.00  0.00     0.151 C 
BRANCH   6   7
ATOM      7  C   UNL     1      90.443  99.911  70.986  1.00  0.00    -0.025 A 
ATOM      8  C   UNL     1      88.899  99.648  69.086  1.00  0.00     0.160 A 
ATOM      9  C   UNL     1      88.720  98.289  69.419  1.00  0.00     0.157 A 
ATOM     10  C   UNL     1      89.756 100.446  69.873  1.00  0.00     0.056 A 
ATOM     11  C   UNL     1      89.383  97.747  70.538  1.00  0.00     0.050 A 
ATOM     12  C   UNL     1      90.246  98.549  71.311  1.00  0.00     0.009 A 
BRANCH   8  13
ATOM     13  O   UNL     1      88.205 100.197  68.038  1.00  0.00    -0.493 OA
ATOM     14  C   UNL     1      88.557 101.563  67.752  1.00  0.00     0.278 C 
ENDBRANCH   8  13
BRANCH   9  15
ATOM     15  O   UNL     1      87.912  97.491  68.675  1.00  0.00    -0.504 OA
ATOM     16  H   UNL     1      87.009  97.812  68.725  1.00  0.00     0.293 HD
ENDBRANCH   9  15
ENDBRANCH   6   7
ENDBRANCH   3   6
ENDBRANCH   1   2
BRANCH   1  17
ATOM     17  C   UNL     1      93.151  98.268  74.764  1.00  0.00     0.010 C 
BRANCH  17  18
ATOM     18  C   UNL     1      93.244  97.425  76.066  1.00  0.00     0.005 C 
BRANCH  18  19
ATOM     19  C   UNL     1      94.369  96.357  76.000  1.00  0.00     0.027 C 
BRANCH  19  20
ATOM     20  C   UNL     1      94.382  95.502  77.177  1.00  0.00    -0.031 C 
ATOM     21  C   UNL     1      94.681  95.928  78.418  1.00  0.00    -0.028 C 
BRANCH  21  22
ATOM     22  C   UNL     1      94.669  95.054  79.590  1.00  0.00     0.005 C 
ATOM     23  C   UNL     1      95.721  93.915  79.488  1.00  0.00     0.012 C 
ATOM     24  C   UNL     1      94.879  95.886  80.882  1.00  0.00     0.012 C 
ENDBRANCH  21  22
ENDBRANCH  19  20
ENDBRANCH  18  19
ENDBRANCH  17  18
ENDBRANCH   1  17
TORSDOF 10
ENDMDL
MODEL 9
REMARK VINA RESULT:    -6.070     19.823     22.391
REMARK INTER + INTRA:         -10.119
REMARK INTER:                  -9.267
REMARK INTRA:                  -0.852
REMARK UNBOUND:                -0.678
REMARK SMILES COc1cc(CNC(=O)CCCC/C=C/C(C)C)ccc1O
REMARK SMILES IDX 10 1 8 2 7 3 9 5 6 6 5 7 3 8 21 9 4 10 20 11 19 12 2 13 1 14
REMARK SMILES IDX 22 15 11 17 12 18 13 19 14 20 15 21 16 22 17 23 18 24
REMARK H PARENT 7 4 22 16
REMARK Flexibility Score: inf
ROOT
ATOM      1  C   UNL     1      77.107  86.758  65.561  1.00  0.00     0.100 C 
ENDROOT
BRANCH   1   2
ATOM      2  C   UNL     1      76.790  85.845  64.446  1.00  0.00     0.220 C 
ATOM      3  N   UNL     1      76.911  84.497  64.600  1.00  0.00    -0.352 N 
ATOM      4  H   UNL     1      77.249  84.200  65.506  1.00  0.00     0.163 HD
ATOM      5  O   UNL     1      76.386  86.345  63.368  1.00  0.00    -0.275 OA
BRANCH   3   6
ATOM      6  C   UNL     1      76.600  83.530  63.597  1.00  0.00     0.151 C 
BRANCH   6   7
ATOM      7  C   UNL     1      75.494  82.632  64.028  1.00  0.00    -0.025 A 
ATOM      8  C   UNL     1      73.626  82.137  65.554  1.00  0.00     0.160 A 
ATOM      9  C   UNL     1      73.369  80.940  64.852  1.00  0.00     0.157 A 
ATOM     10  C   UNL     1      74.686  82.969  65.137  1.00  0.00     0.056 A 
ATOM     11  C   UNL     1      74.179  80.581  63.757  1.00  0.00     0.050 A 
ATOM     12  C   UNL     1      75.228  81.425  63.341  1.00  0.00     0.009 A 
BRANCH   8  13
ATOM     13  O   UNL     1      72.882  82.458  66.661  1.00  0.00    -0.493 OA
ATOM     14  C   UNL     1      71.875  83.458  66.422  1.00  0.00     0.278 C 
ENDBRANCH   8  13
BRANCH   9  15
ATOM     15  O   UNL     1      72.348  80.123  65.219  1.00  0.00    -0.504 OA
ATOM     16  H   UNL     1      72.295  79.383  64.610  1.00  0.00     0.293 HD
ENDBRANCH   9  15
ENDBRANCH   6   7
ENDBRANCH   3   6
ENDBRANCH   1   2
BRANCH   1  17
ATOM     17  C   UNL     1      77.452  85.979  66.859  1.00  0.00     0.010 C 
BRANCH  17  18
ATOM     18  C   UNL     1      78.177  86.857  67.917  1.00  0.00     0.005 C 
BRANCH  18  19
ATOM     19  C   UNL     1      77.591  86.671  69.342  1.00  0.00     0.027 C 
BRANCH  19  20
ATOM     20  C   UNL     1      76.777  87.805  69.752  1.00  0.00    -0.031 C 
ATOM     21  C   UNL     1      75.465  87.729  70.043  1.00  0.00    -0.028 C 
BRANCH  21  22
ATOM     22  C   UNL     1      74.671  88.879  70.472  1.00  0.00     0.005 C 
ATOM     23  C   UNL     1      73.726  88.534  71.657  1.00  0.00     0.012 C 
ATOM     24  C   UNL     1      75.599  90.068  70.833  1.00  0.00     0.012 C 
ENDBRANCH  21  22
ENDBRANCH  19  20
ENDBRANCH  18  19
ENDBRANCH  17  18
ENDBRANCH   1  17
TORSDOF 10
ENDMDL
MODEL 10
REMARK VINA RESULT:    -5.963     20.386     23.347
REMARK INTER + INTRA:          -9.954
REMARK INTER:                  -8.920
REMARK INTRA:                  -1.034
REMARK UNBOUND:                -0.678
REMARK SMILES COc1cc(CNC(=O)CCCC/C=C/C(C)C)ccc1O
REMARK SMILES IDX 10 1 8 2 7 3 9 5 6 6 5 7 3 8 21 9 4 10 20 11 19 12 2 13 1 14
REMARK SMILES IDX 22 15 11 17 12 18 13 19 14 20 15 21 16 22 17 23 18 24
REMARK H PARENT 7 4 22 16
REMARK Flexibility Score: inf
ROOT
ATOM      1  C   UNL     1      75.728  81.566  65.343  1.00  0.00     0.100 C 
ENDROOT
BRANCH   1   2
ATOM      2  C   UNL     1      76.630  82.725  65.492  1.00  0.00     0.220 C 
ATOM      3  N   UNL     1      77.479  82.808  66.554  1.00  0.00    -0.352 N 
ATOM      4  H   UNL     1      77.415  82.043  67.212  1.00  0.00     0.163 HD
ATOM      5  O   UNL     1      76.606  83.612  64.604  1.00  0.00    -0.275 OA
BRANCH   3   6
ATOM      6  C   UNL     1      78.411  83.868  66.772  1.00  0.00     0.151 C 
BRANCH   6   7
ATOM      7  C   UNL     1      77.834  84.933  67.636  1.00  0.00    -0.025 A 
ATOM      8  C   UNL     1      76.556  85.594  69.634  1.00  0.00     0.160 A 
ATOM      9  C   UNL     1      76.743  86.952  69.306  1.00  0.00     0.157 A 
ATOM     10  C   UNL     1      77.100  84.598  68.796  1.00  0.00     0.056 A 
ATOM     11  C   UNL     1      77.456  87.301  68.142  1.00  0.00     0.050 A 
ATOM     12  C   UNL     1      78.006  86.300  67.318  1.00  0.00     0.009 A 
BRANCH   8  13
ATOM     13  O   UNL     1      75.807  85.248  70.730  1.00  0.00    -0.493 OA
ATOM     14  C   UNL     1      76.175  83.987  71.319  1.00  0.00     0.278 C 
ENDBRANCH   8  13
BRANCH   9  15
ATOM     15  O   UNL     1      76.244  87.936  70.099  1.00  0.00    -0.504 OA
ATOM     16  H   UNL     1      76.787  88.722  70.015  1.00  0.00     0.293 HD
ENDBRANCH   9  15
ENDBRANCH   6   7
ENDBRANCH   3   6
ENDBRANCH   1   2
BRANCH   1  17
ATOM     17  C   UNL     1      75.097  81.511  63.925  1.00  0.00     0.010 C 
BRANCH  17  18
ATOM     18  C   UNL     1      73.908  80.513  63.831  1.00  0.00     0.005 C 
BRANCH  18  19
ATOM     19  C   UNL     1      72.563  81.224  63.522  1.00  0.00     0.027 C 
BRANCH  19  20
ATOM     20  C   UNL     1      72.202  82.185  64.553  1.00  0.00    -0.031 C 
ATOM     21  C   UNL     1      71.885  81.855  65.818  1.00  0.00    -0.028 C 
BRANCH  21  22
ATOM     22  C   UNL     1      71.545  82.840  66.843  1.00  0.00     0.005 C 
ATOM     23  C   UNL     1      71.626  84.298  66.310  1.00  0.00     0.012 C 
ATOM     24  C   UNL     1      70.140  82.543  67.428  1.00  0.00     0.012 C 
ENDBRANCH  21  22
ENDBRANCH  19  20
ENDBRANCH  18  19
ENDBRANCH  17  18
ENDBRANCH   1  17
TORSDOF 10
ENDMDL
