MODEL 1
REMARK VINA RESULT:    -6.491      0.000      0.000
REMARK INTER + INTRA:         -11.282
REMARK INTER:                 -10.475
REMARK INTRA:                  -0.807
REMARK UNBOUND:                -0.807
REMARK SMILES COc1cc(CNC(=O)CCCCC/C=C/C(C)C)ccc1O
REMARK SMILES IDX 11 1 10 2 8 3 7 4 9 6 6 7 5 8 3 9 22 10 4 11 21 12 20 13
REMARK SMILES IDX 2 14 1 15 23 16 12 18 13 19 14 20 15 21 16 22 17 23 18 24
REMARK SMILES IDX 19 25
REMARK H PARENT 7 5 23 17
REMARK Flexibility Score: inf
ROOT
ATOM      1  C   UNL     1      92.974  99.321  73.095  1.00  0.00     0.010 C 
ENDROOT
BRANCH   1   2
ATOM      2  C   UNL     1      94.506  99.085  73.058  1.00  0.00     0.100 C 
BRANCH   2   3
ATOM      3  C   UNL     1      94.962  97.969  73.908  1.00  0.00     0.220 C 
ATOM      4  N   UNL     1      94.098  96.967  74.232  1.00  0.00    -0.352 N 
ATOM      5  H   UNL     1      93.150  97.108  73.911  1.00  0.00     0.163 HD
ATOM      6  O   UNL     1      96.159  97.953  74.279  1.00  0.00    -0.275 OA
BRANCH   4   7
ATOM      7  C   UNL     1      94.432  95.787  74.961  1.00  0.00     0.151 C 
BRANCH   7   8
ATOM      8  C   UNL     1      93.266  95.207  75.676  1.00  0.00    -0.025 A 
ATOM      9  C   UNL     1      91.859  93.273  76.252  1.00  0.00     0.160 A 
ATOM     10  C   UNL     1      91.008  94.117  77.000  1.00  0.00     0.157 A 
ATOM     11  C   UNL     1      92.975  93.825  75.590  1.00  0.00     0.056 A 
ATOM     12  C   UNL     1      91.298  95.489  77.106  1.00  0.00     0.050 A 
ATOM     13  C   UNL     1      92.424  96.029  76.458  1.00  0.00     0.009 A 
BRANCH   9  14
ATOM     14  O   UNL     1      91.636  91.922  76.214  1.00  0.00    -0.493 OA
ATOM     15  C   UNL     1      90.952  91.473  75.033  1.00  0.00     0.278 C 
ENDBRANCH   9  14
BRANCH  10  16
ATOM     16  O   UNL     1      89.909  93.630  77.629  1.00  0.00    -0.504 OA
ATOM     17  H   UNL     1      89.501  94.330  78.145  1.00  0.00     0.293 HD
ENDBRANCH  10  16
ENDBRANCH   7   8
ENDBRANCH   4   7
ENDBRANCH   2   3
ENDBRANCH   1   2
BRANCH   1  18
ATOM     18  C   UNL     1      92.388  99.413  71.663  1.00  0.00     0.001 C 
BRANCH  18  19
ATOM     19  C   UNL     1      91.603 100.722  71.394  1.00  0.00     0.004 C 
BRANCH  19  20
ATOM     20  C   UNL     1      90.096 100.438  71.142  1.00  0.00     0.027 C 
BRANCH  20  21
ATOM     21  C   UNL     1      89.853  99.291  70.284  1.00  0.00    -0.031 C 
ATOM     22  C   UNL     1      89.331  99.413  69.051  1.00  0.00    -0.028 C 
BRANCH  22  23
ATOM     23  C   UNL     1      89.080  98.281  68.162  1.00  0.00     0.005 C 
ATOM     24  C   UNL     1      89.145  98.737  66.680  1.00  0.00     0.012 C 
ATOM     25  C   UNL     1      90.073  97.128  68.469  1.00  0.00     0.012 C 
ENDBRANCH  22  23
ENDBRANCH  20  21
ENDBRANCH  19  20
ENDBRANCH  18  19
ENDBRANCH   1  18
TORSDOF 11
ENDMDL
MODEL 2
REMARK VINA RESULT:    -6.121      1.562      1.992
REMARK INTER + INTRA:         -10.686
REMARK INTER:                 -10.005
REMARK INTRA:                  -0.681
REMARK UNBOUND:                -0.807
REMARK SMILES COc1cc(CNC(=O)CCCCC/C=C/C(C)C)ccc1O
REMARK SMILES IDX 11 1 10 2 8 3 7 4 9 6 6 7 5 8 3 9 22 10 4 11 21 12 20 13
REMARK SMILES IDX 2 14 1 15 23 16 12 18 13 19 14 20 15 21 16 22 17 23 18 24
REMARK SMILES IDX 19 25
REMARK H PARENT 7 5 23 17
REMARK Flexibility Score: inf
ROOT
ATOM      1  C   UNL     1      93.143  99.393  73.004  1.00  0.00     0.010 C 
ENDROOT
BRANCH   1   2
ATOM      2  C   UNL     1      94.691  99.400  72.911  1.00  0.00     0.100 C 
BRANCH   2   3
ATOM      3  C   UNL     1      95.336  98.236  73.547  1.00  0.00     0.220 C 
ATOM      4  N   UNL     1      94.623  97.093  73.750  1.00  0.00    -0.352 N 
ATOM      5  H   UNL     1      93.645  97.157  73.504  1.00  0.00     0.163 HD
ATOM      6  O   UNL     1      96.549  98.319  73.851  1.00  0.00    -0.275 OA
BRANCH   4   7
ATOM      7  C   UNL     1      95.147  95.869  74.263  1.00  0.00     0.151 C 
BRANCH   7   8
ATOM      8  C   UNL     1      94.297  95.288  75.334  1.00  0.00    -0.025 A 
ATOM      9  C   UNL     1      94.012  93.765  77.245  1.00  0.00     0.160 A 
ATOM     10  C   UNL     1      92.655  94.143  77.342  1.00  0.00     0.157 A 
ATOM     11  C   UNL     1      94.819  94.333  76.238  1.00  0.00     0.056 A 
ATOM     12  C   UNL     1      92.129  95.105  76.460  1.00  0.00     0.050 A 
ATOM     13  C   UNL     1      92.947  95.681  75.470  1.00  0.00     0.009 A 
BRANCH   9  14
ATOM     14  O   UNL     1      94.555  92.896  78.153  1.00  0.00    -0.493 OA
ATOM     15  C   UNL     1      95.992  92.888  78.171  1.00  0.00     0.278 C 
ENDBRANCH   9  14
BRANCH  10  16
ATOM     16  O   UNL     1      91.837  93.600  78.278  1.00  0.00    -0.504 OA
ATOM     17  H   UNL     1      90.979  94.030  78.242  1.00  0.00     0.293 HD
ENDBRANCH  10  16
ENDBRANCH   7   8
ENDBRANCH   4   7
ENDBRANCH   2   3
ENDBRANCH   1   2
BRANCH   1  18
ATOM     18  C   UNL     1      92.502  99.057  71.633  1.00  0.00     0.001 C 
BRANCH  18  19
ATOM     19  C   UNL     1      91.390 100.047  71.206  1.00  0.00     0.004 C 
BRANCH  19  20
ATOM     20  C   UNL     1      90.085  99.298  70.815  1.00  0.00     0.027 C 
BRANCH  20  21
ATOM     21  C   UNL     1      89.959  99.048  69.389  1.00  0.00    -0.031 C 
ATOM     22  C   UNL     1      88.827  99.306  68.710  1.00  0.00    -0.028 C 
BRANCH  22  23
ATOM     23  C   UNL     1      88.671  99.071  67.277  1.00  0.00     0.005 C 
ATOM     24  C   UNL     1      87.521  99.945  66.711  1.00  0.00     0.012 C 
ATOM     25  C   UNL     1      90.017  99.320  66.543  1.00  0.00     0.012 C 
ENDBRANCH  22  23
ENDBRANCH  20  21
ENDBRANCH  19  20
ENDBRANCH  18  19
ENDBRANCH   1  18
TORSDOF 11
ENDMDL
MODEL 3
REMARK VINA RESULT:    -6.050      6.273     10.222
REMARK INTER + INTRA:         -10.572
REMARK INTER:                  -8.553
REMARK INTRA:                  -2.019
REMARK UNBOUND:                -0.807
REMARK SMILES COc1cc(CNC(=O)CCCCC/C=C/C(C)C)ccc1O
REMARK SMILES IDX 11 1 10 2 8 3 7 4 9 6 6 7 5 8 3 9 22 10 4 11 21 12 20 13
REMARK SMILES IDX 2 14 1 15 23 16 12 18 13 19 14 20 15 21 16 22 17 23 18 24
REMARK SMILES IDX 19 25
REMARK H PARENT 7 5 23 17
REMARK Flexibility Score: inf
ROOT
ATOM      1  C   UNL     1      89.198  98.566  69.164  1.00  0.00     0.010 C 
ENDROOT
BRANCH   1   2
ATOM      2  C   UNL     1      90.383  98.936  70.092  1.00  0.00     0.100 C 
BRANCH   2   3
ATOM      3  C   UNL     1      91.297  99.945  69.526  1.00  0.00     0.220 C 
ATOM      4  N   UNL     1      90.790 101.035  68.886  1.00  0.00    -0.352 N 
ATOM      5  H   UNL     1      89.785 101.034  68.782  1.00  0.00     0.163 HD
ATOM      6  O   UNL     1      92.531  99.788  69.686  1.00  0.00    -0.275 OA
BRANCH   4   7
ATOM      7  C   UNL     1      91.554 102.129  68.380  1.00  0.00     0.151 C 
BRANCH   7   8
ATOM      8  C   UNL     1      91.961 101.935  66.964  1.00  0.00    -0.025 A 
ATOM      9  C   UNL     1      93.403 102.514  65.057  1.00  0.00     0.160 A 
ATOM     10  C   UNL     1      92.696 101.599  64.246  1.00  0.00     0.157 A 
ATOM     11  C   UNL     1      93.025 102.682  66.405  1.00  0.00     0.056 A 
ATOM     12  C   UNL     1      91.647 100.840  64.796  1.00  0.00     0.050 A 
ATOM     13  C   UNL     1      91.289 100.998  66.148  1.00  0.00     0.009 A 
BRANCH   9  14
ATOM     14  O   UNL     1      94.481 103.194  64.556  1.00  0.00    -0.493 OA
ATOM     15  C   UNL     1      94.206 104.563  64.216  1.00  0.00     0.278 C 
ENDBRANCH   9  14
BRANCH  10  16
ATOM     16  O   UNL     1      93.010 101.429  62.938  1.00  0.00    -0.504 OA
ATOM     17  H   UNL     1      92.296 100.963  62.496  1.00  0.00     0.293 HD
ENDBRANCH  10  16
ENDBRANCH   7   8
ENDBRANCH   4   7
ENDBRANCH   2   3
ENDBRANCH   1   2
BRANCH   1  18
ATOM     18  C   UNL     1      89.701  98.069  67.785  1.00  0.00     0.001 C 
BRANCH  18  19
ATOM     19  C   UNL     1      88.885  98.619  66.588  1.00  0.00     0.004 C 
BRANCH  19  20
ATOM     20  C   UNL     1      87.686  99.484  67.069  1.00  0.00     0.027 C 
BRANCH  20  21
ATOM     21  C   UNL     1      87.525 100.722  66.327  1.00  0.00    -0.031 C 
ATOM     22  C   UNL     1      87.915 101.911  66.820  1.00  0.00    -0.028 C 
BRANCH  22  23
ATOM     23  C   UNL     1      87.772 103.173  66.097  1.00  0.00     0.005 C 
ATOM     24  C   UNL     1      86.441 103.869  66.490  1.00  0.00     0.012 C 
ATOM     25  C   UNL     1      89.008 104.079  66.348  1.00  0.00     0.012 C 
ENDBRANCH  22  23
ENDBRANCH  20  21
ENDBRANCH  19  20
ENDBRANCH  18  19
ENDBRANCH   1  18
TORSDOF 11
ENDMDL
MODEL 4
REMARK VINA RESULT:    -6.039     15.294     18.515
REMARK INTER + INTRA:         -10.554
REMARK INTER:                  -9.484
REMARK INTRA:                  -1.069
REMARK UNBOUND:                -0.807
REMARK SMILES COc1cc(CNC(=O)CCCCC/C=C/C(C)C)ccc1O
REMARK SMILES IDX 11 1 10 2 8 3 7 4 9 6 6 7 5 8 3 9 22 10 4 11 21 12 20 13
REMARK SMILES IDX 2 14 1 15 23 16 12 18 13 19 14 20 15 21 16 22 17 23 18 24
REMARK SMILES IDX 19 25
REMARK H PARENT 7 5 23 17
REMARK Flexibility Score: inf
ROOT
ATOM      1  C   UNL     1      98.610  81.516  78.773  1.00  0.00     0.010 C 
ENDROOT
BRANCH   1   2
ATOM      2  C   UNL     1      97.148  82.014  78.633  1.00  0.00     0.100 C 
BRANCH   2   3
ATOM      3  C   UNL     1      96.601  81.892  77.269  1.00  0.00     0.220 C 
ATOM      4  N   UNL     1      96.522  82.992  76.469  1.00  0.00    -0.352 N 
ATOM      5  H   UNL     1      96.790  83.858  76.916  1.00  0.00     0.163 HD
ATOM      6  O   UNL     1      96.256  80.757  76.865  1.00  0.00    -0.275 OA
BRANCH   4   7
ATOM      7  C   UNL     1      96.107  82.997  75.104  1.00  0.00     0.151 C 
BRANCH   7   8
ATOM      8  C   UNL     1      97.194  82.594  74.174  1.00  0.00    -0.025 A 
ATOM      9  C   UNL     1      99.257  83.122  72.944  1.00  0.00     0.160 A 
ATOM     10  C   UNL     1      99.234  81.838  72.356  1.00  0.00     0.157 A 
ATOM     11  C   UNL     1      98.233  83.493  73.839  1.00  0.00     0.056 A 
ATOM     12  C   UNL     1      98.214  80.930  72.695  1.00  0.00     0.050 A 
ATOM     13  C   UNL     1      97.207  81.301  73.605  1.00  0.00     0.009 A 
BRANCH   9  14
ATOM     14  O   UNL     1     100.292  83.981  72.689  1.00  0.00    -0.493 OA
ATOM     15  C   UNL     1     101.182  84.175  73.801  1.00  0.00     0.278 C 
ENDBRANCH   9  14
BRANCH  10  16
ATOM     16  O   UNL     1     100.184  81.452  71.468  1.00  0.00    -0.504 OA
ATOM     17  H   UNL     1      99.761  81.133  70.667  1.00  0.00     0.293 HD
ENDBRANCH  10  16
ENDBRANCH   7   8
ENDBRANCH   4   7
ENDBRANCH   2   3
ENDBRANCH   1   2
BRANCH   1  18
ATOM     18  C   UNL     1      98.742  80.487  79.925  1.00  0.00     0.001 C 
BRANCH  18  19
ATOM     19  C   UNL     1      97.617  79.421  79.940  1.00  0.00     0.004 C 
BRANCH  19  20
ATOM     20  C   UNL     1      97.015  79.252  81.364  1.00  0.00     0.027 C 
BRANCH  20  21
ATOM     21  C   UNL     1      96.903  80.498  82.102  1.00  0.00    -0.031 C 
ATOM     22  C   UNL     1      95.937  80.709  83.013  1.00  0.00    -0.028 C 
BRANCH  22  23
ATOM     23  C   UNL     1      95.800  81.948  83.776  1.00  0.00     0.005 C 
ATOM     24  C   UNL     1      95.962  83.176  82.841  1.00  0.00     0.012 C 
ATOM     25  C   UNL     1      94.448  81.961  84.540  1.00  0.00     0.012 C 
ENDBRANCH  22  23
ENDBRANCH  20  21
ENDBRANCH  19  20
ENDBRANCH  18  19
ENDBRANCH   1  18
TORSDOF 11
ENDMDL
MODEL 5
REMARK VINA RESULT:    -5.993     15.370     18.608
REMARK INTER + INTRA:         -10.480
REMARK INTER:                  -9.427
REMARK INTRA:                  -1.053
REMARK UNBOUND:                -0.807
REMARK SMILES COc1cc(CNC(=O)CCCCC/C=C/C(C)C)ccc1O
REMARK SMILES IDX 11 1 10 2 8 3 7 4 9 6 6 7 5 8 3 9 22 10 4 11 21 12 20 13
REMARK SMILES IDX 2 14 1 15 23 16 12 18 13 19 14 20 15 21 16 22 17 23 18 24
REMARK SMILES IDX 19 25
REMARK H PARENT 7 5 23 17
REMARK Flexibility Score: inf
ROOT
ATOM      1  C   UNL     1      98.677  81.419  78.733  1.00  0.00     0.010 C 
ENDROOT
BRANCH   1   2
ATOM      2  C   UNL     1      97.277  82.072  78.604  1.00  0.00     0.100 C 
BRANCH   2   3
ATOM      3  C   UNL     1      96.693  81.978  77.253  1.00  0.00     0.220 C 
ATOM      4  N   UNL     1      96.663  83.078  76.450  1.00  0.00    -0.352 N 
ATOM      5  H   UNL     1      96.992  83.928  76.887  1.00  0.00     0.163 HD
ATOM      6  O   UNL     1      96.273  80.864  76.861  1.00  0.00    -0.275 OA
BRANCH   4   7
ATOM      7  C   UNL     1      96.219  83.104  75.094  1.00  0.00     0.151 C 
BRANCH   7   8
ATOM      8  C   UNL     1      97.257  82.630  74.143  1.00  0.00    -0.025 A 
ATOM      9  C   UNL     1      98.178  80.877  72.685  1.00  0.00     0.160 A 
ATOM     10  C   UNL     1      99.271  81.714  72.370  1.00  0.00     0.157 A 
ATOM     11  C   UNL     1      97.186  81.337  73.574  1.00  0.00     0.056 A 
ATOM     12  C   UNL     1      99.343  83.009  72.916  1.00  0.00     0.050 A 
ATOM     13  C   UNL     1      98.338  83.467  73.788  1.00  0.00     0.009 A 
BRANCH   9  14
ATOM     14  O   UNL     1      98.053  79.649  72.090  1.00  0.00    -0.493 OA
ATOM     15  C   UNL     1      97.027  79.585  71.086  1.00  0.00     0.278 C 
ENDBRANCH   9  14
BRANCH  10  16
ATOM     16  O   UNL     1     100.261  81.299  71.541  1.00  0.00    -0.504 OA
ATOM     17  H   UNL     1     101.110  81.416  71.974  1.00  0.00     0.293 HD
ENDBRANCH  10  16
ENDBRANCH   7   8
ENDBRANCH   4   7
ENDBRANCH   2   3
ENDBRANCH   1   2
BRANCH   1  18
ATOM     18  C   UNL     1      98.734  80.452  79.943  1.00  0.00     0.001 C 
BRANCH  18  19
ATOM     19  C   UNL     1      97.610  79.386  79.942  1.00  0.00     0.004 C 
BRANCH  19  20
ATOM     20  C   UNL     1      96.958  79.248  81.346  1.00  0.00     0.027 C 
BRANCH  20  21
ATOM     21  C   UNL     1      96.892  80.497  82.085  1.00  0.00    -0.031 C 
ATOM     22  C   UNL     1      95.938  80.742  83.001  1.00  0.00    -0.028 C 
BRANCH  22  23
ATOM     23  C   UNL     1      95.848  81.984  83.764  1.00  0.00     0.005 C 
ATOM     24  C   UNL     1      95.969  83.207  82.816  1.00  0.00     0.012 C 
ATOM     25  C   UNL     1      94.537  82.010  84.595  1.00  0.00     0.012 C 
ENDBRANCH  22  23
ENDBRANCH  20  21
ENDBRANCH  19  20
ENDBRANCH  18  19
ENDBRANCH   1  18
TORSDOF 11
ENDMDL
MODEL 6
REMARK VINA RESULT:    -5.962     25.875     31.111
REMARK INTER + INTRA:         -10.429
REMARK INTER:                  -8.898
REMARK INTRA:                  -1.531
REMARK UNBOUND:                -0.807
REMARK SMILES COc1cc(CNC(=O)CCCCC/C=C/C(C)C)ccc1O
REMARK SMILES IDX 11 1 10 2 8 3 7 4 9 6 6 7 5 8 3 9 22 10 4 11 21 12 20 13
REMARK SMILES IDX 2 14 1 15 23 16 12 18 13 19 14 20 15 21 16 22 17 23 18 24
REMARK SMILES IDX 19 25
REMARK H PARENT 7 5 23 17
REMARK Flexibility Score: inf
ROOT
ATOM      1  C   UNL     1      81.178  66.198  76.449  1.00  0.00     0.010 C 
ENDROOT
BRANCH   1   2
ATOM      2  C   UNL     1      82.299  65.134  76.335  1.00  0.00     0.100 C 
BRANCH   2   3
ATOM      3  C   UNL     1      83.590  65.670  75.865  1.00  0.00     0.220 C 
ATOM      4  N   UNL     1      83.770  67.017  75.768  1.00  0.00    -0.352 N 
ATOM      5  H   UNL     1      82.946  67.567  75.966  1.00  0.00     0.163 HD
ATOM      6  O   UNL     1      84.511  64.861  75.603  1.00  0.00    -0.275 OA
BRANCH   4   7
ATOM      7  C   UNL     1      84.992  67.667  75.422  1.00  0.00     0.151 C 
BRANCH   7   8
ATOM      8  C   UNL     1      84.845  68.577  74.256  1.00  0.00    -0.025 A 
ATOM      9  C   UNL     1      85.268  70.742  73.169  1.00  0.00     0.160 A 
ATOM     10  C   UNL     1      84.516  70.325  72.049  1.00  0.00     0.157 A 
ATOM     11  C   UNL     1      85.419  69.869  74.266  1.00  0.00     0.056 A 
ATOM     12  C   UNL     1      83.955  69.035  72.020  1.00  0.00     0.050 A 
ATOM     13  C   UNL     1      84.128  68.163  73.111  1.00  0.00     0.009 A 
BRANCH   9  14
ATOM     14  O   UNL     1      85.891  71.962  73.170  1.00  0.00    -0.493 OA
ATOM     15  C   UNL     1      85.481  72.830  74.240  1.00  0.00     0.278 C 
ENDBRANCH   9  14
BRANCH  10  16
ATOM     16  O   UNL     1      84.323  71.145  70.985  1.00  0.00    -0.504 OA
ATOM     17  H   UNL     1      83.763  71.881  71.246  1.00  0.00     0.293 HD
ENDBRANCH  10  16
ENDBRANCH   7   8
ENDBRANCH   4   7
ENDBRANCH   2   3
ENDBRANCH   1   2
BRANCH   1  18
ATOM     18  C   UNL     1      79.970  65.838  75.547  1.00  0.00     0.001 C 
BRANCH  18  19
ATOM     19  C   UNL     1      80.368  65.441  74.103  1.00  0.00     0.004 C 
BRANCH  19  20
ATOM     20  C   UNL     1      80.677  66.693  73.236  1.00  0.00     0.027 C 
BRANCH  20  21
ATOM     21  C   UNL     1      81.105  66.377  71.883  1.00  0.00    -0.031 C 
ATOM     22  C   UNL     1      80.923  65.161  71.338  1.00  0.00    -0.028 C 
BRANCH  22  23
ATOM     23  C   UNL     1      81.337  64.813  69.981  1.00  0.00     0.005 C 
ATOM     24  C   UNL     1      80.466  65.570  68.943  1.00  0.00     0.012 C 
ATOM     25  C   UNL     1      82.853  65.091  69.794  1.00  0.00     0.012 C 
ENDBRANCH  22  23
ENDBRANCH  20  21
ENDBRANCH  19  20
ENDBRANCH  18  19
ENDBRANCH   1  18
TORSDOF 11
ENDMDL
MODEL 7
REMARK VINA RESULT:    -5.877     15.187     17.545
REMARK INTER + INTRA:         -10.292
REMARK INTER:                  -9.431
REMARK INTRA:                  -0.862
REMARK UNBOUND:                -0.807
REMARK SMILES COc1cc(CNC(=O)CCCCC/C=C/C(C)C)ccc1O
REMARK SMILES IDX 11 1 10 2 8 3 7 4 9 6 6 7 5 8 3 9 22 10 4 11 21 12 20 13
REMARK SMILES IDX 2 14 1 15 23 16 12 18 13 19 14 20 15 21 16 22 17 23 18 24
REMARK SMILES IDX 19 25
REMARK H PARENT 7 5 23 17
REMARK Flexibility Score: inf
ROOT
ATOM      1  C   UNL     1      97.905  80.736  78.095  1.00  0.00     0.010 C 
ENDROOT
BRANCH   1   2
ATOM      2  C   UNL     1      97.949  79.260  78.568  1.00  0.00     0.100 C 
BRANCH   2   3
ATOM      3  C   UNL     1      97.758  79.090  80.021  1.00  0.00     0.220 C 
ATOM      4  N   UNL     1      96.975  79.966  80.709  1.00  0.00    -0.352 N 
ATOM      5  H   UNL     1      96.628  80.741  80.161  1.00  0.00     0.163 HD
ATOM      6  O   UNL     1      98.297  78.106  80.581  1.00  0.00    -0.275 OA
BRANCH   4   7
ATOM      7  C   UNL     1      96.630  79.863  82.089  1.00  0.00     0.151 C 
BRANCH   7   8
ATOM      8  C   UNL     1      96.295  81.177  82.695  1.00  0.00    -0.025 A 
ATOM      9  C   UNL     1      95.036  82.518  84.327  1.00  0.00     0.160 A 
ATOM     10  C   UNL     1      95.620  83.695  83.810  1.00  0.00     0.157 A 
ATOM     11  C   UNL     1      95.370  81.271  83.761  1.00  0.00     0.056 A 
ATOM     12  C   UNL     1      96.553  83.612  82.761  1.00  0.00     0.050 A 
ATOM     13  C   UNL     1      96.897  82.362  82.214  1.00  0.00     0.009 A 
BRANCH   9  14
ATOM     14  O   UNL     1      94.193  82.580  85.405  1.00  0.00    -0.493 OA
ATOM     15  C   UNL     1      94.564  81.715  86.492  1.00  0.00     0.278 C 
ENDBRANCH   9  14
BRANCH  10  16
ATOM     16  O   UNL     1      95.303  84.917  84.308  1.00  0.00    -0.504 OA
ATOM     17  H   UNL     1      96.002  85.540  84.094  1.00  0.00     0.293 HD
ENDBRANCH  10  16
ENDBRANCH   7   8
ENDBRANCH   4   7
ENDBRANCH   2   3
ENDBRANCH   1   2
BRANCH   1  18
ATOM     18  C   UNL     1      97.032  80.889  76.823  1.00  0.00     0.001 C 
BRANCH  18  19
ATOM     19  C   UNL     1      96.154  82.166  76.819  1.00  0.00     0.004 C 
BRANCH  19  20
ATOM     20  C   UNL     1      96.264  82.925  75.468  1.00  0.00     0.027 C 
BRANCH  20  21
ATOM     21  C   UNL     1      97.624  83.035  74.968  1.00  0.00    -0.031 C 
ATOM     22  C   UNL     1      97.910  83.025  73.654  1.00  0.00    -0.028 C 
BRANCH  22  23
ATOM     23  C   UNL     1      99.265  83.138  73.119  1.00  0.00     0.005 C 
ATOM     24  C   UNL     1      99.476  84.537  72.482  1.00  0.00     0.012 C 
ATOM     25  C   UNL     1     100.307  82.832  74.229  1.00  0.00     0.012 C 
ENDBRANCH  22  23
ENDBRANCH  20  21
ENDBRANCH  19  20
ENDBRANCH  18  19
ENDBRANCH   1  18
TORSDOF 11
ENDMDL
MODEL 8
REMARK VINA RESULT:    -5.850     15.467     19.485
REMARK INTER + INTRA:         -10.248
REMARK INTER:                  -9.462
REMARK INTRA:                  -0.786
REMARK UNBOUND:                -0.807
REMARK SMILES COc1cc(CNC(=O)CCCCC/C=C/C(C)C)ccc1O
REMARK SMILES IDX 11 1 10 2 8 3 7 4 9 6 6 7 5 8 3 9 22 10 4 11 21 12 20 13
REMARK SMILES IDX 2 14 1 15 23 16 12 18 13 19 14 20 15 21 16 22 17 23 18 24
REMARK SMILES IDX 19 25
REMARK H PARENT 7 5 23 17
REMARK Flexibility Score: inf
ROOT
ATOM      1  C   UNL     1      95.585  80.029  83.275  1.00  0.00     0.010 C 
ENDROOT
BRANCH   1   2
ATOM      2  C   UNL     1      96.399  79.470  82.081  1.00  0.00     0.100 C 
BRANCH   2   3
ATOM      3  C   UNL     1      97.299  80.455  81.454  1.00  0.00     0.220 C 
ATOM      4  N   UNL     1      97.536  80.401  80.114  1.00  0.00    -0.352 N 
ATOM      5  H   UNL     1      97.115  79.612  79.643  1.00  0.00     0.163 HD
ATOM      6  O   UNL     1      97.796  81.352  82.175  1.00  0.00    -0.275 OA
BRANCH   4   7
ATOM      7  C   UNL     1      98.303  81.345  79.368  1.00  0.00     0.151 C 
BRANCH   7   8
ATOM      8  C   UNL     1      97.570  81.873  78.188  1.00  0.00    -0.025 A 
ATOM      9  C   UNL     1      97.492  82.422  75.792  1.00  0.00     0.160 A 
ATOM     10  C   UNL     1      96.185  82.931  75.952  1.00  0.00     0.157 A 
ATOM     11  C   UNL     1      98.177  81.906  76.911  1.00  0.00     0.056 A 
ATOM     12  C   UNL     1      95.565  82.888  77.214  1.00  0.00     0.050 A 
ATOM     13  C   UNL     1      96.248  82.353  78.322  1.00  0.00     0.009 A 
BRANCH   9  14
ATOM     14  O   UNL     1      98.072  82.379  74.551  1.00  0.00    -0.493 OA
ATOM     15  C   UNL     1      99.284  81.608  74.495  1.00  0.00     0.278 C 
ENDBRANCH   9  14
BRANCH  10  16
ATOM     16  O   UNL     1      95.503  83.462  74.907  1.00  0.00    -0.504 OA
ATOM     17  H   UNL     1      94.664  83.005  74.807  1.00  0.00     0.293 HD
ENDBRANCH  10  16
ENDBRANCH   7   8
ENDBRANCH   4   7
ENDBRANCH   2   3
ENDBRANCH   1   2
BRANCH   1  18
ATOM     18  C   UNL     1      95.591  79.041  84.469  1.00  0.00     0.001 C 
BRANCH  18  19
ATOM     19  C   UNL     1      94.584  79.408  85.588  1.00  0.00     0.004 C 
BRANCH  19  20
ATOM     20  C   UNL     1      93.403  78.399  85.642  1.00  0.00     0.027 C 
BRANCH  20  21
ATOM     21  C   UNL     1      92.189  78.885  85.011  1.00  0.00    -0.031 C 
ATOM     22  C   UNL     1      91.817  80.177  85.068  1.00  0.00    -0.028 C 
BRANCH  22  23
ATOM     23  C   UNL     1      90.605  80.698  84.440  1.00  0.00     0.005 C 
ATOM     24  C   UNL     1      89.730  79.532  83.909  1.00  0.00     0.012 C 
ATOM     25  C   UNL     1      89.835  81.609  85.434  1.00  0.00     0.012 C 
ENDBRANCH  22  23
ENDBRANCH  20  21
ENDBRANCH  19  20
ENDBRANCH  18  19
ENDBRANCH   1  18
TORSDOF 11
ENDMDL
MODEL 9
REMARK VINA RESULT:    -5.723     15.180     17.553
REMARK INTER + INTRA:         -10.043
REMARK INTER:                  -9.267
REMARK INTRA:                  -0.777
REMARK UNBOUND:                -0.807
REMARK SMILES COc1cc(CNC(=O)CCCCC/C=C/C(C)C)ccc1O
REMARK SMILES IDX 11 1 10 2 8 3 7 4 9 6 6 7 5 8 3 9 22 10 4 11 21 12 20 13
REMARK SMILES IDX 2 14 1 15 23 16 12 18 13 19 14 20 15 21 16 22 17 23 18 24
REMARK SMILES IDX 19 25
REMARK H PARENT 7 5 23 17
REMARK Flexibility Score: inf
ROOT
ATOM      1  C   UNL     1      97.423  81.975  78.089  1.00  0.00     0.010 C 
ENDROOT
BRANCH   1   2
ATOM      2  C   UNL     1      97.493  80.759  79.049  1.00  0.00     0.100 C 
BRANCH   2   3
ATOM      3  C   UNL     1      97.712  81.122  80.462  1.00  0.00     0.220 C 
ATOM      4  N   UNL     1      96.856  81.981  81.082  1.00  0.00    -0.352 N 
ATOM      5  H   UNL     1      96.147  82.377  80.480  1.00  0.00     0.163 HD
ATOM      6  O   UNL     1      98.670  80.590  81.071  1.00  0.00    -0.275 OA
BRANCH   4   7
ATOM      7  C   UNL     1      96.896  82.338  82.462  1.00  0.00     0.151 C 
BRANCH   7   8
ATOM      8  C   UNL     1      95.930  81.562  83.282  1.00  0.00    -0.025 A 
ATOM      9  C   UNL     1      94.040  81.485  84.854  1.00  0.00     0.160 A 
ATOM     10  C   UNL     1      94.125  80.076  84.885  1.00  0.00     0.157 A 
ATOM     11  C   UNL     1      94.947  82.216  84.061  1.00  0.00     0.056 A 
ATOM     12  C   UNL     1      95.087  79.413  84.101  1.00  0.00     0.050 A 
ATOM     13  C   UNL     1      95.976  80.150  83.297  1.00  0.00     0.009 A 
BRANCH   9  14
ATOM     14  O   UNL     1      93.052  82.134  85.545  1.00  0.00    -0.493 OA
ATOM     15  C   UNL     1      93.432  83.430  86.036  1.00  0.00     0.278 C 
ENDBRANCH   9  14
BRANCH  10  16
ATOM     16  O   UNL     1      93.289  79.336  85.657  1.00  0.00    -0.504 OA
ATOM     17  H   UNL     1      92.406  79.355  85.281  1.00  0.00     0.293 HD
ENDBRANCH  10  16
ENDBRANCH   7   8
ENDBRANCH   4   7
ENDBRANCH   2   3
ENDBRANCH   1   2
BRANCH   1  18
ATOM     18  C   UNL     1      96.244  81.833  77.092  1.00  0.00     0.001 C 
BRANCH  18  19
ATOM     19  C   UNL     1      95.612  83.186  76.678  1.00  0.00     0.004 C 
BRANCH  19  20
ATOM     20  C   UNL     1      96.364  83.818  75.473  1.00  0.00     0.027 C 
BRANCH  20  21
ATOM     21  C   UNL     1      96.954  82.840  74.575  1.00  0.00    -0.031 C 
ATOM     22  C   UNL     1      98.275  82.796  74.328  1.00  0.00    -0.028 C 
BRANCH  22  23
ATOM     23  C   UNL     1      98.899  81.823  73.435  1.00  0.00     0.005 C 
ATOM     24  C   UNL     1      97.835  80.834  72.889  1.00  0.00     0.012 C 
ATOM     25  C   UNL     1      99.665  82.553  72.297  1.00  0.00     0.012 C 
ENDBRANCH  22  23
ENDBRANCH  20  21
ENDBRANCH  19  20
ENDBRANCH  18  19
ENDBRANCH   1  18
TORSDOF 11
ENDMDL
MODEL 10
REMARK VINA RESULT:    -5.721      2.286      3.127
REMARK INTER + INTRA:         -10.039
REMARK INTER:                  -9.378
REMARK INTRA:                  -0.661
REMARK UNBOUND:                -0.807
REMARK SMILES COc1cc(CNC(=O)CCCCC/C=C/C(C)C)ccc1O
REMARK SMILES IDX 11 1 10 2 8 3 7 4 9 6 6 7 5 8 3 9 22 10 4 11 21 12 20 13
REMARK SMILES IDX 2 14 1 15 23 16 12 18 13 19 14 20 15 21 16 22 17 23 18 24
REMARK SMILES IDX 19 25
REMARK H PARENT 7 5 23 17
REMARK Flexibility Score: inf
ROOT
ATOM      1  C   UNL     1      93.445  99.745  72.379  1.00  0.00     0.010 C 
ENDROOT
BRANCH   1   2
ATOM      2  C   UNL     1      94.875  99.161  72.253  1.00  0.00     0.100 C 
BRANCH   2   3
ATOM      3  C   UNL     1      95.003  97.776  72.741  1.00  0.00     0.220 C 
ATOM      4  N   UNL     1      94.336  97.388  73.863  1.00  0.00    -0.352 N 
ATOM      5  H   UNL     1      93.839  98.130  74.336  1.00  0.00     0.163 HD
ATOM      6  O   UNL     1      95.700  96.972  72.078  1.00  0.00    -0.275 OA
BRANCH   4   7
ATOM      7  C   UNL     1      94.294  96.061  74.387  1.00  0.00     0.151 C 
BRANCH   7   8
ATOM      8  C   UNL     1      94.912  95.959  75.734  1.00  0.00    -0.025 A 
ATOM      9  C   UNL     1      94.888  95.090  78.035  1.00  0.00     0.160 A 
ATOM     10  C   UNL     1      96.068  95.811  78.319  1.00  0.00     0.157 A 
ATOM     11  C   UNL     1      94.315  95.176  76.750  1.00  0.00     0.056 A 
ATOM     12  C   UNL     1      96.680  96.579  77.312  1.00  0.00     0.050 A 
ATOM     13  C   UNL     1      96.113  96.644  76.026  1.00  0.00     0.009 A 
BRANCH   9  14
ATOM     14  O   UNL     1      94.333  94.270  78.981  1.00  0.00    -0.493 OA
ATOM     15  C   UNL     1      93.519  93.215  78.441  1.00  0.00     0.278 C 
ENDBRANCH   9  14
BRANCH  10  16
ATOM     16  O   UNL     1      96.636  95.777  79.551  1.00  0.00    -0.504 OA
ATOM     17  H   UNL     1      97.074  96.614  79.723  1.00  0.00     0.293 HD
ENDBRANCH  10  16
ENDBRANCH   7   8
ENDBRANCH   4   7
ENDBRANCH   2   3
ENDBRANCH   1   2
BRANCH   1  18
ATOM     18  C   UNL     1      92.643  99.549  71.067  1.00  0.00     0.001 C 
BRANCH  18  19
ATOM     19  C   UNL     1      91.144  99.924  71.190  1.00  0.00     0.004 C 
BRANCH  19  20
ATOM     20  C   UNL     1      90.232  98.818  70.590  1.00  0.00     0.027 C 
BRANCH  20  21
ATOM     21  C   UNL     1      90.142  98.857  69.140  1.00  0.00    -0.031 C 
ATOM     22  C   UNL     1      88.963  98.848  68.493  1.00  0.00    -0.028 C 
BRANCH  22  23
ATOM     23  C   UNL     1      88.838  98.892  67.038  1.00  0.00     0.005 C 
ATOM     24  C   UNL     1      87.602  99.736  66.630  1.00  0.00     0.012 C 
ATOM     25  C   UNL     1      90.152  99.424  66.403  1.00  0.00     0.012 C 
ENDBRANCH  22  23
ENDBRANCH  20  21
ENDBRANCH  19  20
ENDBRANCH  18  19
ENDBRANCH   1  18
TORSDOF 11
ENDMDL
