MODEL 1
REMARK VINA RESULT:    -5.996      0.000      0.000
REMARK INTER + INTRA:          -9.922
REMARK INTER:                  -9.325
REMARK INTRA:                  -0.596
REMARK UNBOUND:                -0.596
REMARK SMILES CCCCC/C=C/C(=O)CCc1ccc(O)c(OC)c1
REMARK SMILES IDX 6 1 7 2 8 3 9 4 10 5 11 6 12 7 17 8 20 9 15 10 14 11 13 12
REMARK SMILES IDX 18 13 19 14 16 15 5 17 4 18 3 19 2 20 1 21
REMARK H PARENT 16 16
REMARK Flexibility Score: inf
ROOT
ATOM      1  C   UNL     1      92.474  93.208  78.317  1.00  0.00    -0.023 C 
ATOM      2  C   UNL     1      93.706  93.732  78.309  1.00  0.00     0.043 C 
ENDROOT
BRANCH   2   3
ATOM      3  C   UNL     1      94.759  93.167  79.197  1.00  0.00     0.155 C 
ATOM      4  O   UNL     1      94.485  92.632  80.269  1.00  0.00    -0.295 OA
BRANCH   3   5
ATOM      5  C   UNL     1      96.193  93.332  78.734  1.00  0.00     0.085 C 
BRANCH   5   6
ATOM      6  C   UNL     1      96.570  94.809  78.610  1.00  0.00     0.044 C 
BRANCH   6   7
ATOM      7  C   UNL     1      96.856  95.456  79.945  1.00  0.00    -0.044 A 
ATOM      8  C   UNL     1      98.408  96.024  81.685  1.00  0.00     0.160 A 
ATOM      9  C   UNL     1      98.145  95.425  80.453  1.00  0.00     0.054 A 
ATOM     10  C   UNL     1      97.379  96.644  82.393  1.00  0.00     0.157 A 
ATOM     11  C   UNL     1      96.086  96.666  81.869  1.00  0.00     0.050 A 
ATOM     12  C   UNL     1      95.823  96.068  80.636  1.00  0.00     0.008 A 
BRANCH   8  13
ATOM     13  O   UNL     1      99.674  95.995  82.186  1.00  0.00    -0.493 OA
ATOM     14  C   UNL     1     100.738  96.275  81.278  1.00  0.00     0.278 C 
ENDBRANCH   8  13
BRANCH  10  15
ATOM     15  O   UNL     1      97.623  97.232  83.597  1.00  0.00    -0.504 OA
ATOM     16  H   UNL     1      97.369  98.169  83.537  1.00  0.00     0.293 HD
ENDBRANCH  10  15
ENDBRANCH   6   7
ENDBRANCH   5   6
ENDBRANCH   3   5
ENDBRANCH   2   3
BRANCH   1  17
ATOM     17  C   UNL     1      91.358  93.720  77.454  1.00  0.00     0.027 C 
BRANCH  17  18
ATOM     18  C   UNL     1      90.492  92.603  76.864  1.00  0.00     0.004 C 
BRANCH  18  19
ATOM     19  C   UNL     1      90.837  92.262  75.410  1.00  0.00     0.000 C 
BRANCH  19  20
ATOM     20  C   UNL     1      89.985  91.099  74.900  1.00  0.00    -0.003 C 
ATOM     21  C   UNL     1      90.767  89.795  74.895  1.00  0.00     0.004 C 
ENDBRANCH  19  20
ENDBRANCH  18  19
ENDBRANCH  17  18
ENDBRANCH   1  17
TORSDOF 10
ENDMDL
MODEL 2
REMARK VINA RESULT:    -5.875     13.000     16.185
REMARK INTER + INTRA:          -9.734
REMARK INTER:                  -8.636
REMARK INTRA:                  -1.099
REMARK UNBOUND:                -0.596
REMARK SMILES CCCCC/C=C/C(=O)CCc1ccc(O)c(OC)c1
REMARK SMILES IDX 6 1 7 2 8 3 9 4 10 5 11 6 12 7 17 8 20 9 15 10 14 11 13 12
REMARK SMILES IDX 18 13 19 14 16 15 5 17 4 18 3 19 2 20 1 21
REMARK H PARENT 16 16
REMARK Flexibility Score: inf
ROOT
ATOM      1  C   UNL     1      90.082  99.815  69.436  1.00  0.00    -0.023 C 
ATOM      2  C   UNL     1      89.142  98.948  69.040  1.00  0.00     0.043 C 
ENDROOT
BRANCH   2   3
ATOM      3  C   UNL     1      89.333  98.170  67.785  1.00  0.00     0.155 C 
ATOM      4  O   UNL     1      89.683  96.992  67.799  1.00  0.00    -0.295 OA
BRANCH   3   5
ATOM      5  C   UNL     1      89.123  98.922  66.485  1.00  0.00     0.085 C 
BRANCH   5   6
ATOM      6  C   UNL     1      87.765  99.625  66.463  1.00  0.00     0.044 C 
BRANCH   6   7
ATOM      7  C   UNL     1      87.883 101.129  66.389  1.00  0.00    -0.044 A 
ATOM      8  C   UNL     1      86.843 103.285  66.219  1.00  0.00     0.160 A 
ATOM      9  C   UNL     1      86.733 101.896  66.288  1.00  0.00     0.054 A 
ATOM     10  C   UNL     1      88.100 103.888  66.252  1.00  0.00     0.157 A 
ATOM     11  C   UNL     1      89.248 103.102  66.353  1.00  0.00     0.050 A 
ATOM     12  C   UNL     1      89.139 101.713  66.422  1.00  0.00     0.008 A 
BRANCH   8  13
ATOM     13  O   UNL     1      85.714 104.042  66.121  1.00  0.00    -0.493 OA
ATOM     14  C   UNL     1      84.580 103.436  65.504  1.00  0.00     0.278 C 
ENDBRANCH   8  13
BRANCH  10  15
ATOM     15  O   UNL     1      88.220 105.243  66.186  1.00  0.00    -0.504 OA
ATOM     16  H   UNL     1      88.086 105.605  67.079  1.00  0.00     0.293 HD
ENDBRANCH  10  15
ENDBRANCH   6   7
ENDBRANCH   5   6
ENDBRANCH   3   5
ENDBRANCH   2   3
BRANCH   1  17
ATOM     17  C   UNL     1      89.965 100.636  70.687  1.00  0.00     0.027 C 
BRANCH  17  18
ATOM     18  C   UNL     1      91.272 100.710  71.483  1.00  0.00     0.004 C 
BRANCH  18  19
ATOM     19  C   UNL     1      92.123  99.439  71.385  1.00  0.00     0.000 C 
BRANCH  19  20
ATOM     20  C   UNL     1      93.424  99.584  72.176  1.00  0.00    -0.003 C 
ATOM     21  C   UNL     1      93.319 100.679  73.225  1.00  0.00     0.004 C 
ENDBRANCH  19  20
ENDBRANCH  18  19
ENDBRANCH  17  18
ENDBRANCH   1  17
TORSDOF 10
ENDMDL
MODEL 3
REMARK VINA RESULT:    -5.867     11.223     13.177
REMARK INTER + INTRA:          -9.722
REMARK INTER:                  -8.335
REMARK INTRA:                  -1.388
REMARK UNBOUND:                -0.596
REMARK SMILES CCCCC/C=C/C(=O)CCc1ccc(O)c(OC)c1
REMARK SMILES IDX 6 1 7 2 8 3 9 4 10 5 11 6 12 7 17 8 20 9 15 10 14 11 13 12
REMARK SMILES IDX 18 13 19 14 16 15 5 17 4 18 3 19 2 20 1 21
REMARK H PARENT 16 16
REMARK Flexibility Score: inf
ROOT
ATOM      1  C   UNL     1      90.652 100.199  66.864  1.00  0.00    -0.023 C 
ATOM      2  C   UNL     1      89.902  99.136  66.547  1.00  0.00     0.043 C 
ENDROOT
BRANCH   2   3
ATOM      3  C   UNL     1      89.405  98.232  67.619  1.00  0.00     0.155 C 
ATOM      4  O   UNL     1      89.326  97.016  67.458  1.00  0.00    -0.295 OA
BRANCH   3   5
ATOM      5  C   UNL     1      88.951  98.894  68.906  1.00  0.00     0.085 C 
BRANCH   5   6
ATOM      6  C   UNL     1      89.792  98.429  70.096  1.00  0.00     0.044 C 
BRANCH   6   7
ATOM      7  C   UNL     1      90.536  99.560  70.766  1.00  0.00    -0.044 A 
ATOM      8  C   UNL     1      92.551 100.427  71.740  1.00  0.00     0.160 A 
ATOM      9  C   UNL     1      91.863  99.382  71.122  1.00  0.00     0.054 A 
ATOM     10  C   UNL     1      91.902 101.635  71.994  1.00  0.00     0.157 A 
ATOM     11  C   UNL     1      90.565 101.799  71.630  1.00  0.00     0.050 A 
ATOM     12  C   UNL     1      89.878 100.754  71.012  1.00  0.00     0.008 A 
BRANCH   8  13
ATOM     13  O   UNL     1      93.856 100.255  72.092  1.00  0.00    -0.493 OA
ATOM     14  C   UNL     1      94.223  98.981  72.619  1.00  0.00     0.278 C 
ENDBRANCH   8  13
BRANCH  10  15
ATOM     15  O   UNL     1      92.562 102.663  72.597  1.00  0.00    -0.504 OA
ATOM     16  H   UNL     1      92.130 103.496  72.341  1.00  0.00     0.293 HD
ENDBRANCH  10  15
ENDBRANCH   6   7
ENDBRANCH   5   6
ENDBRANCH   3   5
ENDBRANCH   2   3
BRANCH   1  17
ATOM     17  C   UNL     1      91.191 101.157  65.843  1.00  0.00     0.027 C 
BRANCH  17  18
ATOM     18  C   UNL     1      90.605 102.567  65.972  1.00  0.00     0.004 C 
BRANCH  18  19
ATOM     19  C   UNL     1      89.445 102.660  66.969  1.00  0.00     0.000 C 
BRANCH  19  20
ATOM     20  C   UNL     1      88.114 102.877  66.248  1.00  0.00    -0.003 C 
ATOM     21  C   UNL     1      87.191 101.679  66.411  1.00  0.00     0.004 C 
ENDBRANCH  19  20
ENDBRANCH  18  19
ENDBRANCH  17  18
ENDBRANCH   1  17
TORSDOF 10
ENDMDL
MODEL 4
REMARK VINA RESULT:    -5.843     12.263     14.735
REMARK INTER + INTRA:          -9.684
REMARK INTER:                  -8.917
REMARK INTRA:                  -0.768
REMARK UNBOUND:                -0.596
REMARK SMILES CCCCC/C=C/C(=O)CCc1ccc(O)c(OC)c1
REMARK SMILES IDX 6 1 7 2 8 3 9 4 10 5 11 6 12 7 17 8 20 9 15 10 14 11 13 12
REMARK SMILES IDX 18 13 19 14 16 15 5 17 4 18 3 19 2 20 1 21
REMARK H PARENT 16 16
REMARK Flexibility Score: inf
ROOT
ATOM      1  C   UNL     1      97.162  82.067  78.378  1.00  0.00    -0.023 C 
ATOM      2  C   UNL     1      97.063  82.139  77.045  1.00  0.00     0.043 C 
ENDROOT
BRANCH   2   3
ATOM      3  C   UNL     1      96.121  83.108  76.422  1.00  0.00     0.155 C 
ATOM      4  O   UNL     1      95.185  83.598  77.050  1.00  0.00    -0.295 OA
BRANCH   3   5
ATOM      5  C   UNL     1      96.343  83.419  74.955  1.00  0.00     0.085 C 
BRANCH   5   6
ATOM      6  C   UNL     1      96.820  82.183  74.191  1.00  0.00     0.044 C 
BRANCH   6   7
ATOM      7  C   UNL     1      98.117  82.414  73.451  1.00  0.00    -0.044 A 
ATOM      8  C   UNL     1      99.929  81.566  72.126  1.00  0.00     0.160 A 
ATOM      9  C   UNL     1      98.731  81.351  72.809  1.00  0.00     0.054 A 
ATOM     10  C   UNL     1     100.496  82.839  72.094  1.00  0.00     0.157 A 
ATOM     11  C   UNL     1      99.866  83.899  72.747  1.00  0.00     0.050 A 
ATOM     12  C   UNL     1      98.668  83.685  73.430  1.00  0.00     0.008 A 
BRANCH   8  13
ATOM     13  O   UNL     1     100.534  80.522  71.493  1.00  0.00    -0.493 OA
ATOM     14  C   UNL     1     101.166  79.543  72.316  1.00  0.00     0.278 C 
ENDBRANCH   8  13
BRANCH  10  15
ATOM     15  O   UNL     1     101.665  83.061  71.431  1.00  0.00    -0.504 OA
ATOM     16  H   UNL     1     101.964  82.218  71.049  1.00  0.00     0.293 HD
ENDBRANCH  10  15
ENDBRANCH   6   7
ENDBRANCH   5   6
ENDBRANCH   3   5
ENDBRANCH   2   3
BRANCH   1  17
ATOM     17  C   UNL     1      98.086  81.117  79.082  1.00  0.00     0.027 C 
BRANCH  17  18
ATOM     18  C   UNL     1      97.788  80.986  80.580  1.00  0.00     0.004 C 
BRANCH  18  19
ATOM     19  C   UNL     1      96.726  81.969  81.082  1.00  0.00     0.000 C 
BRANCH  19  20
ATOM     20  C   UNL     1      96.944  82.311  82.557  1.00  0.00    -0.003 C 
ATOM     21  C   UNL     1      95.670  82.125  83.366  1.00  0.00     0.004 C 
ENDBRANCH  19  20
ENDBRANCH  18  19
ENDBRANCH  17  18
ENDBRANCH   1  17
TORSDOF 10
ENDMDL
MODEL 5
REMARK VINA RESULT:    -5.834     22.934     25.351
REMARK INTER + INTRA:          -9.670
REMARK INTER:                  -7.772
REMARK INTRA:                  -1.898
REMARK UNBOUND:                -0.596
REMARK SMILES CCCCC/C=C/C(=O)CCc1ccc(O)c(OC)c1
REMARK SMILES IDX 6 1 7 2 8 3 9 4 10 5 11 6 12 7 17 8 20 9 15 10 14 11 13 12
REMARK SMILES IDX 18 13 19 14 16 15 5 17 4 18 3 19 2 20 1 21
REMARK H PARENT 16 16
REMARK Flexibility Score: inf
ROOT
ATOM      1  C   UNL     1      73.411  89.503  67.882  1.00  0.00    -0.023 C 
ATOM      2  C   UNL     1      72.687  88.495  67.381  1.00  0.00     0.043 C 
ENDROOT
BRANCH   2   3
ATOM      3  C   UNL     1      72.015  87.535  68.299  1.00  0.00     0.155 C 
ATOM      4  O   UNL     1      71.065  87.868  69.004  1.00  0.00    -0.295 OA
BRANCH   3   5
ATOM      5  C   UNL     1      72.598  86.137  68.360  1.00  0.00     0.085 C 
BRANCH   5   6
ATOM      6  C   UNL     1      73.889  86.108  69.181  1.00  0.00     0.044 C 
BRANCH   6   7
ATOM      7  C   UNL     1      75.027  85.423  68.462  1.00  0.00    -0.044 A 
ATOM      8  C   UNL     1      75.825  84.105  66.622  1.00  0.00     0.160 A 
ATOM      9  C   UNL     1      74.773  84.737  67.286  1.00  0.00     0.054 A 
ATOM     10  C   UNL     1      77.116  84.167  67.144  1.00  0.00     0.157 A 
ATOM     11  C   UNL     1      77.357  84.862  68.330  1.00  0.00     0.050 A 
ATOM     12  C   UNL     1      76.305  85.494  68.993  1.00  0.00     0.008 A 
BRANCH   8  13
ATOM     13  O   UNL     1      75.577  83.430  65.465  1.00  0.00    -0.493 OA
ATOM     14  C   UNL     1      74.954  82.152  65.580  1.00  0.00     0.278 C 
ENDBRANCH   8  13
BRANCH  10  15
ATOM     15  O   UNL     1      78.152  83.555  66.505  1.00  0.00    -0.504 OA
ATOM     16  H   UNL     1      78.202  83.905  65.599  1.00  0.00     0.293 HD
ENDBRANCH  10  15
ENDBRANCH   6   7
ENDBRANCH   5   6
ENDBRANCH   3   5
ENDBRANCH   2   3
BRANCH   1  17
ATOM     17  C   UNL     1      74.119  90.511  67.024  1.00  0.00     0.027 C 
BRANCH  17  18
ATOM     18  C   UNL     1      75.615  90.621  67.335  1.00  0.00     0.004 C 
BRANCH  18  19
ATOM     19  C   UNL     1      76.151  89.469  68.191  1.00  0.00     0.000 C 
BRANCH  19  20
ATOM     20  C   UNL     1      77.239  88.691  67.450  1.00  0.00    -0.003 C 
ATOM     21  C   UNL     1      76.681  87.977  66.230  1.00  0.00     0.004 C 
ENDBRANCH  19  20
ENDBRANCH  18  19
ENDBRANCH  17  18
ENDBRANCH   1  17
TORSDOF 10
ENDMDL
MODEL 6
REMARK VINA RESULT:    -5.757     11.963     13.650
REMARK INTER + INTRA:          -9.551
REMARK INTER:                  -8.738
REMARK INTRA:                  -0.813
REMARK UNBOUND:                -0.596
REMARK SMILES CCCCC/C=C/C(=O)CCc1ccc(O)c(OC)c1
REMARK SMILES IDX 6 1 7 2 8 3 9 4 10 5 11 6 12 7 17 8 20 9 15 10 14 11 13 12
REMARK SMILES IDX 18 13 19 14 16 15 5 17 4 18 3 19 2 20 1 21
REMARK H PARENT 16 16
REMARK Flexibility Score: inf
ROOT
ATOM      1  C   UNL     1      96.631  82.363  77.050  1.00  0.00    -0.023 C 
ATOM      2  C   UNL     1      96.550  81.033  76.930  1.00  0.00     0.043 C 
ENDROOT
BRANCH   2   3
ATOM      3  C   UNL     1      97.252  80.155  77.906  1.00  0.00     0.155 C 
ATOM      4  O   UNL     1      97.175  78.930  77.849  1.00  0.00    -0.295 OA
BRANCH   3   5
ATOM      5  C   UNL     1      98.026  80.853  79.007  1.00  0.00     0.085 C 
BRANCH   5   6
ATOM      6  C   UNL     1      97.955  80.069  80.318  1.00  0.00     0.044 C 
BRANCH   6   7
ATOM      7  C   UNL     1      97.551  80.926  81.495  1.00  0.00    -0.044 A 
ATOM      8  C   UNL     1      97.580  81.356  83.855  1.00  0.00     0.160 A 
ATOM      9  C   UNL     1      97.953  80.563  82.770  1.00  0.00     0.054 A 
ATOM     10  C   UNL     1      96.810  82.500  83.652  1.00  0.00     0.157 A 
ATOM     11  C   UNL     1      96.412  82.853  82.362  1.00  0.00     0.050 A 
ATOM     12  C   UNL     1      96.785  82.060  81.276  1.00  0.00     0.008 A 
BRANCH   8  13
ATOM     13  O   UNL     1      97.974  81.000  85.110  1.00  0.00    -0.493 OA
ATOM     14  C   UNL     1      97.195  80.011  85.779  1.00  0.00     0.278 C 
ENDBRANCH   8  13
BRANCH  10  15
ATOM     15  O   UNL     1      96.440  83.282  84.704  1.00  0.00    -0.504 OA
ATOM     16  H   UNL     1      96.188  82.701  85.443  1.00  0.00     0.293 HD
ENDBRANCH  10  15
ENDBRANCH   6   7
ENDBRANCH   5   6
ENDBRANCH   3   5
ENDBRANCH   2   3
BRANCH   1  17
ATOM     17  C   UNL     1      95.953  83.315  76.108  1.00  0.00     0.027 C 
BRANCH  17  18
ATOM     18  C   UNL     1      96.253  83.020  74.635  1.00  0.00     0.004 C 
BRANCH  18  19
ATOM     19  C   UNL     1      97.715  83.263  74.245  1.00  0.00     0.000 C 
BRANCH  19  20
ATOM     20  C   UNL     1      98.178  82.261  73.187  1.00  0.00    -0.003 C 
ATOM     21  C   UNL     1      99.667  82.392  72.910  1.00  0.00     0.004 C 
ENDBRANCH  19  20
ENDBRANCH  18  19
ENDBRANCH  17  18
ENDBRANCH   1  17
TORSDOF 10
ENDMDL
MODEL 7
REMARK VINA RESULT:    -5.747     12.902     15.800
REMARK INTER + INTRA:          -9.535
REMARK INTER:                  -7.804
REMARK INTRA:                  -1.731
REMARK UNBOUND:                -0.596
REMARK SMILES CCCCC/C=C/C(=O)CCc1ccc(O)c(OC)c1
REMARK SMILES IDX 6 1 7 2 8 3 9 4 10 5 11 6 12 7 17 8 20 9 15 10 14 11 13 12
REMARK SMILES IDX 18 13 19 14 16 15 5 17 4 18 3 19 2 20 1 21
REMARK H PARENT 16 16
REMARK Flexibility Score: inf
ROOT
ATOM      1  C   UNL     1      89.558  99.288  70.189  1.00  0.00    -0.023 C 
ATOM      2  C   UNL     1      90.369  98.845  69.221  1.00  0.00     0.043 C 
ENDROOT
BRANCH   2   3
ATOM      3  C   UNL     1      89.912  97.763  68.307  1.00  0.00     0.155 C 
ATOM      4  O   UNL     1      90.125  96.577  68.548  1.00  0.00    -0.295 OA
BRANCH   3   5
ATOM      5  C   UNL     1      89.214  98.203  67.034  1.00  0.00     0.085 C 
BRANCH   5   6
ATOM      6  C   UNL     1      89.885  99.439  66.432  1.00  0.00     0.044 C 
BRANCH   6   7
ATOM      7  C   UNL     1      88.985 100.651  66.424  1.00  0.00    -0.044 A 
ATOM      8  C   UNL     1      88.709 103.031  66.565  1.00  0.00     0.160 A 
ATOM      9  C   UNL     1      89.541 101.911  66.573  1.00  0.00     0.054 A 
ATOM     10  C   UNL     1      87.332 102.876  66.409  1.00  0.00     0.157 A 
ATOM     11  C   UNL     1      86.786 101.600  66.260  1.00  0.00     0.050 A 
ATOM     12  C   UNL     1      87.619 100.480  66.268  1.00  0.00     0.008 A 
BRANCH   8  13
ATOM     13  O   UNL     1      89.253 104.271  66.712  1.00  0.00    -0.493 OA
ATOM     14  C   UNL     1      89.866 104.850  65.561  1.00  0.00     0.278 C 
ENDBRANCH   8  13
BRANCH  10  15
ATOM     15  O   UNL     1      86.509 103.961  66.399  1.00  0.00    -0.504 OA
ATOM     16  H   UNL     1      85.884 103.877  67.139  1.00  0.00     0.293 HD
ENDBRANCH  10  15
ENDBRANCH   6   7
ENDBRANCH   5   6
ENDBRANCH   3   5
ENDBRANCH   2   3
BRANCH   1  17
ATOM     17  C   UNL     1      89.945 100.374  71.151  1.00  0.00     0.027 C 
BRANCH  17  18
ATOM     18  C   UNL     1      91.224 101.112  70.742  1.00  0.00     0.004 C 
BRANCH  18  19
ATOM     19  C   UNL     1      90.966 102.483  70.109  1.00  0.00     0.000 C 
BRANCH  19  20
ATOM     20  C   UNL     1      92.039 102.823  69.073  1.00  0.00    -0.003 C 
ATOM     21  C   UNL     1      92.708 101.569  68.532  1.00  0.00     0.004 C 
ENDBRANCH  19  20
ENDBRANCH  18  19
ENDBRANCH  17  18
ENDBRANCH   1  17
TORSDOF 10
ENDMDL
MODEL 8
REMARK VINA RESULT:    -5.679     11.670     13.465
REMARK INTER + INTRA:          -9.429
REMARK INTER:                  -8.945
REMARK INTRA:                  -0.483
REMARK UNBOUND:                -0.596
REMARK SMILES CCCCC/C=C/C(=O)CCc1ccc(O)c(OC)c1
REMARK SMILES IDX 6 1 7 2 8 3 9 4 10 5 11 6 12 7 17 8 20 9 15 10 14 11 13 12
REMARK SMILES IDX 18 13 19 14 16 15 5 17 4 18 3 19 2 20 1 21
REMARK H PARENT 16 16
REMARK Flexibility Score: inf
ROOT
ATOM      1  C   UNL     1      97.371  81.419  78.393  1.00  0.00    -0.023 C 
ATOM      2  C   UNL     1      98.444  81.325  79.189  1.00  0.00     0.043 C 
ENDROOT
BRANCH   2   3
ATOM      3  C   UNL     1      98.374  80.516  80.436  1.00  0.00     0.155 C 
ATOM      4  O   UNL     1      99.340  79.879  80.851  1.00  0.00    -0.295 OA
BRANCH   3   5
ATOM      5  C   UNL     1      97.032  80.476  81.141  1.00  0.00     0.085 C 
BRANCH   5   6
ATOM      6  C   UNL     1      96.677  81.839  81.738  1.00  0.00     0.044 C 
BRANCH   6   7
ATOM      7  C   UNL     1      96.039  81.734  83.103  1.00  0.00    -0.044 A 
ATOM      8  C   UNL     1      95.408  82.755  85.181  1.00  0.00     0.160 A 
ATOM      9  C   UNL     1      95.997  82.852  83.920  1.00  0.00     0.054 A 
ATOM     10  C   UNL     1      94.869  81.542  85.608  1.00  0.00     0.157 A 
ATOM     11  C   UNL     1      94.920  80.424  84.774  1.00  0.00     0.050 A 
ATOM     12  C   UNL     1      95.510  80.521  83.513  1.00  0.00     0.008 A 
BRANCH   8  13
ATOM     13  O   UNL     1      95.364  83.853  85.986  1.00  0.00    -0.493 OA
ATOM     14  C   UNL     1      94.777  85.034  85.442  1.00  0.00     0.278 C 
ENDBRANCH   8  13
BRANCH  10  15
ATOM     15  O   UNL     1      94.291  81.435  86.836  1.00  0.00    -0.504 OA
ATOM     16  H   UNL     1      94.941  81.710  87.505  1.00  0.00     0.293 HD
ENDBRANCH  10  15
ENDBRANCH   6   7
ENDBRANCH   5   6
ENDBRANCH   3   5
ENDBRANCH   2   3
BRANCH   1  17
ATOM     17  C   UNL     1      97.361  82.214  77.120  1.00  0.00     0.027 C 
BRANCH  17  18
ATOM     18  C   UNL     1      95.995  82.838  76.812  1.00  0.00     0.004 C 
BRANCH  18  19
ATOM     19  C   UNL     1      95.971  83.651  75.513  1.00  0.00     0.000 C 
BRANCH  19  20
ATOM     20  C   UNL     1      97.108  83.234  74.580  1.00  0.00    -0.003 C 
ATOM     21  C   UNL     1      96.728  82.020  73.746  1.00  0.00     0.004 C 
ENDBRANCH  19  20
ENDBRANCH  18  19
ENDBRANCH  17  18
ENDBRANCH   1  17
TORSDOF 10
ENDMDL
MODEL 9
REMARK VINA RESULT:    -5.570     23.206     26.101
REMARK INTER + INTRA:          -9.260
REMARK INTER:                  -7.756
REMARK INTRA:                  -1.505
REMARK UNBOUND:                -0.596
REMARK SMILES CCCCC/C=C/C(=O)CCc1ccc(O)c(OC)c1
REMARK SMILES IDX 6 1 7 2 8 3 9 4 10 5 11 6 12 7 17 8 20 9 15 10 14 11 13 12
REMARK SMILES IDX 18 13 19 14 16 15 5 17 4 18 3 19 2 20 1 21
REMARK H PARENT 16 16
REMARK Flexibility Score: inf
ROOT
ATOM      1  C   UNL     1      71.890  83.025  65.600  1.00  0.00    -0.023 C 
ATOM      2  C   UNL     1      72.531  84.137  65.981  1.00  0.00     0.043 C 
ENDROOT
BRANCH   2   3
ATOM      3  C   UNL     1      71.756  85.303  66.488  1.00  0.00     0.155 C 
ATOM      4  O   UNL     1      71.209  86.098  65.726  1.00  0.00    -0.295 OA
BRANCH   3   5
ATOM      5  C   UNL     1      71.720  85.489  67.992  1.00  0.00     0.085 C 
BRANCH   5   6
ATOM      6  C   UNL     1      72.612  86.651  68.429  1.00  0.00     0.044 C 
BRANCH   6   7
ATOM      7  C   UNL     1      74.084  86.324  68.349  1.00  0.00    -0.044 A 
ATOM      8  C   UNL     1      76.279  86.830  67.520  1.00  0.00     0.160 A 
ATOM      9  C   UNL     1      74.919  87.132  67.594  1.00  0.00     0.054 A 
ATOM     10  C   UNL     1      76.786  85.724  68.201  1.00  0.00     0.157 A 
ATOM     11  C   UNL     1      75.932  84.919  68.957  1.00  0.00     0.050 A 
ATOM     12  C   UNL     1      74.572  85.221  69.031  1.00  0.00     0.008 A 
BRANCH   8  13
ATOM     13  O   UNL     1      77.102  87.623  66.779  1.00  0.00    -0.493 OA
ATOM     14  C   UNL     1      76.777  89.010  66.710  1.00  0.00     0.278 C 
ENDBRANCH   8  13
BRANCH  10  15
ATOM     15  O   UNL     1      78.112  85.418  68.137  1.00  0.00    -0.504 OA
ATOM     16  H   UNL     1      78.225  84.490  68.406  1.00  0.00     0.293 HD
ENDBRANCH  10  15
ENDBRANCH   6   7
ENDBRANCH   5   6
ENDBRANCH   3   5
ENDBRANCH   2   3
BRANCH   1  17
ATOM     17  C   UNL     1      72.598  81.809  65.078  1.00  0.00     0.027 C 
BRANCH  17  18
ATOM     18  C   UNL     1      73.976  81.595  65.715  1.00  0.00     0.004 C 
BRANCH  18  19
ATOM     19  C   UNL     1      75.142  81.978  64.798  1.00  0.00     0.000 C 
BRANCH  19  20
ATOM     20  C   UNL     1      76.179  82.818  65.545  1.00  0.00    -0.003 C 
ATOM     21  C   UNL     1      76.435  84.141  64.843  1.00  0.00     0.004 C 
ENDBRANCH  19  20
ENDBRANCH  18  19
ENDBRANCH  17  18
ENDBRANCH   1  17
TORSDOF 10
ENDMDL
MODEL 10
REMARK VINA RESULT:    -5.559     23.233     25.494
REMARK INTER + INTRA:          -9.242
REMARK INTER:                  -8.247
REMARK INTRA:                  -0.995
REMARK UNBOUND:                -0.596
REMARK SMILES CCCCC/C=C/C(=O)CCc1ccc(O)c(OC)c1
REMARK SMILES IDX 6 1 7 2 8 3 9 4 10 5 11 6 12 7 17 8 20 9 15 10 14 11 13 12
REMARK SMILES IDX 18 13 19 14 16 15 5 17 4 18 3 19 2 20 1 21
REMARK H PARENT 16 16
REMARK Flexibility Score: inf
ROOT
ATOM      1  C   UNL     1      75.563  83.583  66.009  1.00  0.00    -0.023 C 
ATOM      2  C   UNL     1      76.394  84.051  66.949  1.00  0.00     0.043 C 
ENDROOT
BRANCH   2   3
ATOM      3  C   UNL     1      75.860  84.880  68.064  1.00  0.00     0.155 C 
ATOM      4  O   UNL     1      74.715  84.740  68.487  1.00  0.00    -0.295 OA
BRANCH   3   5
ATOM      5  C   UNL     1      76.787  85.945  68.617  1.00  0.00     0.085 C 
BRANCH   5   6
ATOM      6  C   UNL     1      77.558  86.647  67.498  1.00  0.00     0.044 C 
BRANCH   6   7
ATOM      7  C   UNL     1      76.846  87.872  66.974  1.00  0.00    -0.044 A 
ATOM      8  C   UNL     1      75.749  89.023  65.176  1.00  0.00     0.160 A 
ATOM      9  C   UNL     1      76.407  87.892  65.660  1.00  0.00     0.054 A 
ATOM     10  C   UNL     1      75.541  90.120  66.012  1.00  0.00     0.157 A 
ATOM     11  C   UNL     1      75.990  90.085  67.333  1.00  0.00     0.050 A 
ATOM     12  C   UNL     1      76.647  88.953  67.817  1.00  0.00     0.008 A 
BRANCH   8  13
ATOM     13  O   UNL     1      75.316  89.045  63.885  1.00  0.00    -0.493 OA
ATOM     14  C   UNL     1      74.911  87.802  63.315  1.00  0.00     0.278 C 
ENDBRANCH   8  13
BRANCH  10  15
ATOM     15  O   UNL     1      74.900  91.230  65.552  1.00  0.00    -0.504 OA
ATOM     16  H   UNL     1      74.075  91.338  66.056  1.00  0.00     0.293 HD
ENDBRANCH  10  15
ENDBRANCH   6   7
ENDBRANCH   5   6
ENDBRANCH   3   5
ENDBRANCH   2   3
BRANCH   1  17
ATOM     17  C   UNL     1      76.022  82.741  64.854  1.00  0.00     0.027 C 
BRANCH  17  18
ATOM     18  C   UNL     1      75.000  81.677  64.442  1.00  0.00     0.004 C 
BRANCH  18  19
ATOM     19  C   UNL     1      73.989  81.338  65.542  1.00  0.00     0.000 C 
BRANCH  19  20
ATOM     20  C   UNL     1      72.560  81.345  64.999  1.00  0.00    -0.003 C 
ATOM     21  C   UNL     1      72.521  80.974  63.526  1.00  0.00     0.004 C 
ENDBRANCH  19  20
ENDBRANCH  18  19
ENDBRANCH  17  18
ENDBRANCH   1  17
TORSDOF 10
ENDMDL
