MODEL 1
REMARK VINA RESULT:    -5.900      0.000      0.000
REMARK INTER + INTRA:         -10.525
REMARK INTER:                  -9.521
REMARK INTRA:                  -1.004
REMARK UNBOUND:                -1.004
REMARK SMILES CCCCCCCCC(=O)NCc1ccc(O)c(OC)c1
REMARK SMILES IDX 7 1 6 2 5 3 4 4 3 5 2 6 1 7 8 8 9 9 10 10 11 11 12 13 13 14
REMARK SMILES IDX 21 15 14 16 18 17 15 18 16 19 19 20 20 21 17 22
REMARK H PARENT 11 12 17 23
REMARK Flexibility Score: inf
ROOT
ATOM      1  C   UNL     1      94.182  96.727  75.552  1.00  0.00     0.010 C 
ENDROOT
BRANCH   1   2
ATOM      2  C   UNL     1      93.984  95.544  76.542  1.00  0.00     0.001 C 
BRANCH   2   3
ATOM      3  C   UNL     1      93.279  95.988  77.857  1.00  0.00     0.000 C 
BRANCH   3   4
ATOM      4  C   UNL     1      92.791  94.803  78.739  1.00  0.00    -0.000 C 
BRANCH   4   5
ATOM      5  C   UNL     1      91.342  94.356  78.394  1.00  0.00    -0.000 C 
BRANCH   5   6
ATOM      6  C   UNL     1      90.535  95.461  77.661  1.00  0.00    -0.003 C 
ATOM      7  C   UNL     1      89.154  94.972  77.173  1.00  0.00     0.004 C 
ENDBRANCH   5   6
ENDBRANCH   4   5
ENDBRANCH   3   4
ENDBRANCH   2   3
ENDBRANCH   1   2
BRANCH   1   8
ATOM      8  C   UNL     1      95.610  97.342  75.583  1.00  0.00     0.100 C 
BRANCH   8   9
ATOM      9  C   UNL     1      95.791  98.228  76.758  1.00  0.00     0.220 C 
ATOM     10  O   UNL     1      95.272  99.370  76.727  1.00  0.00    -0.275 OA
ATOM     11  N   UNL     1      96.481  97.795  77.853  1.00  0.00    -0.352 N 
ATOM     12  H   UNL     1      96.929  96.898  77.737  1.00  0.00     0.163 HD
BRANCH  11  13
ATOM     13  C   UNL     1      96.604  98.497  79.095  1.00  0.00     0.151 C 
BRANCH  13  14
ATOM     14  C   UNL     1      96.134  97.720  80.273  1.00  0.00    -0.025 A 
ATOM     15  C   UNL     1      96.377  96.328  80.351  1.00  0.00     0.056 A 
ATOM     16  C   UNL     1      95.438  98.352  81.329  1.00  0.00     0.009 A 
ATOM     17  C   UNL     1      95.952  95.580  81.473  1.00  0.00     0.160 A 
ATOM     18  C   UNL     1      95.014  97.613  82.448  1.00  0.00     0.050 A 
ATOM     19  C   UNL     1      95.261  96.229  82.521  1.00  0.00     0.157 A 
BRANCH  17  20
ATOM     20  O   UNL     1      96.150  94.223  81.527  1.00  0.00    -0.493 OA
ATOM     21  C   UNL     1      95.094  93.449  80.931  1.00  0.00     0.278 C 
ENDBRANCH  17  20
BRANCH  19  22
ATOM     22  O   UNL     1      94.823  95.520  83.592  1.00  0.00    -0.504 OA
ATOM     23  H   UNL     1      93.875  95.383  83.520  1.00  0.00     0.293 HD
ENDBRANCH  19  22
ENDBRANCH  13  14
ENDBRANCH  11  13
ENDBRANCH   8   9
ENDBRANCH   1   8
TORSDOF 11
ENDMDL
MODEL 2
REMARK VINA RESULT:    -5.417     13.285     15.166
REMARK INTER + INTRA:          -9.746
REMARK INTER:                  -8.858
REMARK INTRA:                  -0.887
REMARK UNBOUND:                -1.004
REMARK SMILES CCCCCCCCC(=O)NCc1ccc(O)c(OC)c1
REMARK SMILES IDX 7 1 6 2 5 3 4 4 3 5 2 6 1 7 8 8 9 9 10 10 11 11 12 13 13 14
REMARK SMILES IDX 21 15 14 16 18 17 15 18 16 19 19 20 20 21 17 22
REMARK H PARENT 11 12 17 23
REMARK Flexibility Score: inf
ROOT
ATOM      1  C   UNL     1      96.941  84.559  84.649  1.00  0.00     0.010 C 
ENDROOT
BRANCH   1   2
ATOM      2  C   UNL     1      96.914  85.198  86.067  1.00  0.00     0.001 C 
BRANCH   2   3
ATOM      3  C   UNL     1      95.484  85.654  86.481  1.00  0.00     0.000 C 
BRANCH   3   4
ATOM      4  C   UNL     1      95.004  85.062  87.836  1.00  0.00    -0.000 C 
BRANCH   4   5
ATOM      5  C   UNL     1      95.169  83.517  87.908  1.00  0.00    -0.000 C 
BRANCH   5   6
ATOM      6  C   UNL     1      94.268  82.773  86.885  1.00  0.00    -0.003 C 
ATOM      7  C   UNL     1      94.252  81.244  87.100  1.00  0.00     0.004 C 
ENDBRANCH   5   6
ENDBRANCH   4   5
ENDBRANCH   3   4
ENDBRANCH   2   3
ENDBRANCH   1   2
BRANCH   1   8
ATOM      8  C   UNL     1      97.305  83.048  84.646  1.00  0.00     0.100 C 
BRANCH   8   9
ATOM      9  C   UNL     1      98.473  82.775  83.774  1.00  0.00     0.220 C 
ATOM     10  O   UNL     1      99.442  82.144  84.258  1.00  0.00    -0.275 OA
ATOM     11  N   UNL     1      98.474  83.178  82.469  1.00  0.00    -0.352 N 
ATOM     12  H   UNL     1      97.684  83.751  82.209  1.00  0.00     0.163 HD
BRANCH  11  13
ATOM     13  C   UNL     1      99.471  82.855  81.496  1.00  0.00     0.151 C 
BRANCH  13  14
ATOM     14  C   UNL     1      99.030  83.064  80.091  1.00  0.00    -0.025 A 
ATOM     15  C   UNL     1      99.953  82.930  79.027  1.00  0.00     0.056 A 
ATOM     16  C   UNL     1      97.690  83.403  79.792  1.00  0.00     0.009 A 
ATOM     17  C   UNL     1      99.545  83.110  77.685  1.00  0.00     0.160 A 
ATOM     18  C   UNL     1      97.277  83.581  78.460  1.00  0.00     0.050 A 
ATOM     19  C   UNL     1      98.200  83.444  77.406  1.00  0.00     0.157 A 
BRANCH  17  20
ATOM     20  O   UNL     1     100.451  83.021  76.658  1.00  0.00    -0.493 OA
ATOM     21  C   UNL     1     101.487  84.018  76.699  1.00  0.00     0.278 C 
ENDBRANCH  17  20
BRANCH  19  22
ATOM     22  O   UNL     1      97.798  83.645  76.125  1.00  0.00    -0.504 OA
ATOM     23  H   UNL     1      98.534  83.486  75.530  1.00  0.00     0.293 HD
ENDBRANCH  19  22
ENDBRANCH  13  14
ENDBRANCH  11  13
ENDBRANCH   8   9
ENDBRANCH   1   8
TORSDOF 11
ENDMDL
MODEL 3
REMARK VINA RESULT:    -5.394     23.439     26.154
REMARK INTER + INTRA:          -9.708
REMARK INTER:                  -8.244
REMARK INTRA:                  -1.464
REMARK UNBOUND:                -1.004
REMARK SMILES CCCCCCCCC(=O)NCc1ccc(O)c(OC)c1
REMARK SMILES IDX 7 1 6 2 5 3 4 4 3 5 2 6 1 7 8 8 9 9 10 10 11 11 12 13 13 14
REMARK SMILES IDX 21 15 14 16 18 17 15 18 16 19 19 20 20 21 17 22
REMARK H PARENT 11 12 17 23
REMARK Flexibility Score: inf
ROOT
ATOM      1  C   UNL     1      75.572  81.307  63.172  1.00  0.00     0.010 C 
ENDROOT
BRANCH   1   2
ATOM      2  C   UNL     1      74.184  80.612  63.067  1.00  0.00     0.001 C 
BRANCH   2   3
ATOM      3  C   UNL     1      73.041  81.485  63.663  1.00  0.00     0.000 C 
BRANCH   3   4
ATOM      4  C   UNL     1      72.462  80.934  64.997  1.00  0.00    -0.000 C 
BRANCH   4   5
ATOM      5  C   UNL     1      72.283  82.040  66.076  1.00  0.00    -0.000 C 
BRANCH   5   6
ATOM      6  C   UNL     1      73.634  82.667  66.516  1.00  0.00    -0.003 C 
ATOM      7  C   UNL     1      73.524  84.178  66.816  1.00  0.00     0.004 C 
ENDBRANCH   5   6
ENDBRANCH   4   5
ENDBRANCH   3   4
ENDBRANCH   2   3
ENDBRANCH   1   2
BRANCH   1   8
ATOM      8  C   UNL     1      76.166  81.312  64.609  1.00  0.00     0.100 C 
BRANCH   8   9
ATOM      9  C   UNL     1      76.847  82.595  64.906  1.00  0.00     0.220 C 
ATOM     10  O   UNL     1      76.615  83.579  64.163  1.00  0.00    -0.275 OA
ATOM     11  N   UNL     1      77.682  82.705  65.981  1.00  0.00    -0.352 N 
ATOM     12  H   UNL     1      77.866  81.834  66.458  1.00  0.00     0.163 HD
BRANCH  11  13
ATOM     13  C   UNL     1      78.283  83.915  66.453  1.00  0.00     0.151 C 
BRANCH  13  14
ATOM     14  C   UNL     1      77.503  84.598  67.518  1.00  0.00    -0.025 A 
ATOM     15  C   UNL     1      77.271  85.993  67.448  1.00  0.00     0.056 A 
ATOM     16  C   UNL     1      76.984  83.875  68.617  1.00  0.00     0.009 A 
ATOM     17  C   UNL     1      76.515  86.653  68.444  1.00  0.00     0.160 A 
ATOM     18  C   UNL     1      76.231  84.526  69.610  1.00  0.00     0.050 A 
ATOM     19  C   UNL     1      76.001  85.913  69.532  1.00  0.00     0.157 A 
BRANCH  17  20
ATOM     20  O   UNL     1      76.327  88.012  68.396  1.00  0.00    -0.493 OA
ATOM     21  C   UNL     1      75.655  88.472  67.211  1.00  0.00     0.278 C 
ENDBRANCH  17  20
BRANCH  19  22
ATOM     22  O   UNL     1      75.297  86.537  70.511  1.00  0.00    -0.504 OA
ATOM     23  H   UNL     1      74.879  87.323  70.153  1.00  0.00     0.293 HD
ENDBRANCH  19  22
ENDBRANCH  13  14
ENDBRANCH  11  13
ENDBRANCH   8   9
ENDBRANCH   1   8
TORSDOF 11
ENDMDL
MODEL 4
REMARK VINA RESULT:    -5.355     22.707     26.133
REMARK INTER + INTRA:          -9.645
REMARK INTER:                  -8.628
REMARK INTRA:                  -1.017
REMARK UNBOUND:                -1.004
REMARK SMILES CCCCCCCCC(=O)NCc1ccc(O)c(OC)c1
REMARK SMILES IDX 7 1 6 2 5 3 4 4 3 5 2 6 1 7 8 8 9 9 10 10 11 11 12 13 13 14
REMARK SMILES IDX 21 15 14 16 18 17 15 18 16 19 19 20 20 21 17 22
REMARK H PARENT 11 12 17 23
REMARK Flexibility Score: inf
ROOT
ATOM      1  C   UNL     1      74.892  81.523  63.904  1.00  0.00     0.010 C 
ENDROOT
BRANCH   1   2
ATOM      2  C   UNL     1      73.764  80.456  63.807  1.00  0.00     0.001 C 
BRANCH   2   3
ATOM      3  C   UNL     1      72.344  81.094  63.847  1.00  0.00     0.000 C 
BRANCH   3   4
ATOM      4  C   UNL     1      72.356  82.649  63.858  1.00  0.00    -0.000 C 
BRANCH   4   5
ATOM      5  C   UNL     1      71.917  83.242  65.227  1.00  0.00    -0.000 C 
BRANCH   5   6
ATOM      6  C   UNL     1      71.627  82.145  66.286  1.00  0.00    -0.003 C 
ATOM      7  C   UNL     1      70.375  82.450  67.138  1.00  0.00     0.004 C 
ENDBRANCH   5   6
ENDBRANCH   4   5
ENDBRANCH   3   4
ENDBRANCH   2   3
ENDBRANCH   1   2
BRANCH   1   8
ATOM      8  C   UNL     1      75.607  81.559  65.284  1.00  0.00     0.100 C 
BRANCH   8   9
ATOM      9  C   UNL     1      76.610  82.650  65.344  1.00  0.00     0.220 C 
ATOM     10  O   UNL     1      76.651  83.472  64.398  1.00  0.00    -0.275 OA
ATOM     11  N   UNL     1      77.444  82.767  66.418  1.00  0.00    -0.352 N 
ATOM     12  H   UNL     1      77.385  82.005  67.077  1.00  0.00     0.163 HD
BRANCH  11  13
ATOM     13  C   UNL     1      78.350  83.848  66.658  1.00  0.00     0.151 C 
BRANCH  13  14
ATOM     14  C   UNL     1      77.796  84.913  67.535  1.00  0.00    -0.025 A 
ATOM     15  C   UNL     1      77.082  84.571  68.709  1.00  0.00     0.056 A 
ATOM     16  C   UNL     1      77.966  86.280  67.215  1.00  0.00     0.009 A 
ATOM     17  C   UNL     1      76.565  85.573  69.561  1.00  0.00     0.160 A 
ATOM     18  C   UNL     1      77.455  87.282  68.059  1.00  0.00     0.050 A 
ATOM     19  C   UNL     1      76.748  86.934  69.226  1.00  0.00     0.157 A 
BRANCH  17  20
ATOM     20  O   UNL     1      75.837  85.239  70.675  1.00  0.00    -0.493 OA
ATOM     21  C   UNL     1      76.210  83.982  71.267  1.00  0.00     0.278 C 
ENDBRANCH  17  20
BRANCH  19  22
ATOM     22  O   UNL     1      76.234  87.908  70.020  1.00  0.00    -0.504 OA
ATOM     23  H   UNL     1      76.709  88.728  69.868  1.00  0.00     0.293 HD
ENDBRANCH  19  22
ENDBRANCH  13  14
ENDBRANCH  11  13
ENDBRANCH   8   9
ENDBRANCH   1   8
TORSDOF 11
ENDMDL
MODEL 5
REMARK VINA RESULT:    -5.223     13.029     14.703
REMARK INTER + INTRA:          -9.433
REMARK INTER:                  -8.373
REMARK INTRA:                  -1.060
REMARK UNBOUND:                -1.004
REMARK SMILES CCCCCCCCC(=O)NCc1ccc(O)c(OC)c1
REMARK SMILES IDX 7 1 6 2 5 3 4 4 3 5 2 6 1 7 8 8 9 9 10 10 11 11 12 13 13 14
REMARK SMILES IDX 21 15 14 16 18 17 15 18 16 19 19 20 20 21 17 22
REMARK H PARENT 11 12 17 23
REMARK Flexibility Score: inf
ROOT
ATOM      1  C   UNL     1      98.182  82.506  79.462  1.00  0.00     0.010 C 
ENDROOT
BRANCH   1   2
ATOM      2  C   UNL     1      97.214  83.516  78.780  1.00  0.00     0.001 C 
BRANCH   2   3
ATOM      3  C   UNL     1      97.815  84.119  77.477  1.00  0.00     0.000 C 
BRANCH   3   4
ATOM      4  C   UNL     1      98.221  83.052  76.421  1.00  0.00    -0.000 C 
BRANCH   4   5
ATOM      5  C   UNL     1      99.590  83.361  75.751  1.00  0.00    -0.000 C 
BRANCH   5   6
ATOM      6  C   UNL     1     100.690  83.725  76.785  1.00  0.00    -0.003 C 
ATOM      7  C   UNL     1     101.398  82.484  77.371  1.00  0.00     0.004 C 
ENDBRANCH   5   6
ENDBRANCH   4   5
ENDBRANCH   3   4
ENDBRANCH   2   3
ENDBRANCH   1   2
BRANCH   1   8
ATOM      8  C   UNL     1      99.283  83.178  80.329  1.00  0.00     0.100 C 
BRANCH   8   9
ATOM      9  C   UNL     1      99.385  82.538  81.663  1.00  0.00     0.220 C 
ATOM     10  O   UNL     1     100.513  82.156  82.055  1.00  0.00    -0.275 OA
ATOM     11  N   UNL     1      98.279  82.399  82.452  1.00  0.00    -0.352 N 
ATOM     12  H   UNL     1      97.412  82.660  82.005  1.00  0.00     0.163 HD
BRANCH  11  13
ATOM     13  C   UNL     1      98.270  81.931  83.804  1.00  0.00     0.151 C 
BRANCH  13  14
ATOM     14  C   UNL     1      97.853  82.960  84.794  1.00  0.00    -0.025 A 
ATOM     15  C   UNL     1      97.911  82.680  86.180  1.00  0.00     0.056 A 
ATOM     16  C   UNL     1      97.388  84.227  84.372  1.00  0.00     0.009 A 
ATOM     17  C   UNL     1      97.534  83.654  87.133  1.00  0.00     0.160 A 
ATOM     18  C   UNL     1      97.013  85.200  85.315  1.00  0.00     0.050 A 
ATOM     19  C   UNL     1      97.076  84.917  86.693  1.00  0.00     0.157 A 
BRANCH  17  20
ATOM     20  O   UNL     1      97.552  83.367  88.474  1.00  0.00    -0.493 OA
ATOM     21  C   UNL     1      96.510  82.470  88.898  1.00  0.00     0.278 C 
ENDBRANCH  17  20
BRANCH  19  22
ATOM     22  O   UNL     1      96.686  85.853  87.594  1.00  0.00    -0.504 OA
ATOM     23  H   UNL     1      96.355  85.419  88.384  1.00  0.00     0.293 HD
ENDBRANCH  19  22
ENDBRANCH  13  14
ENDBRANCH  11  13
ENDBRANCH   8   9
ENDBRANCH   1   8
TORSDOF 11
ENDMDL
MODEL 6
REMARK VINA RESULT:    -5.149     22.432     25.873
REMARK INTER + INTRA:          -9.313
REMARK INTER:                  -8.408
REMARK INTRA:                  -0.905
REMARK UNBOUND:                -1.004
REMARK SMILES CCCCCCCCC(=O)NCc1ccc(O)c(OC)c1
REMARK SMILES IDX 7 1 6 2 5 3 4 4 3 5 2 6 1 7 8 8 9 9 10 10 11 11 12 13 13 14
REMARK SMILES IDX 21 15 14 16 18 17 15 18 16 19 19 20 20 21 17 22
REMARK H PARENT 11 12 17 23
REMARK Flexibility Score: inf
ROOT
ATOM      1  C   UNL     1      75.999  82.457  65.183  1.00  0.00     0.010 C 
ENDROOT
BRANCH   1   2
ATOM      2  C   UNL     1      75.671  81.291  64.206  1.00  0.00     0.001 C 
BRANCH   2   3
ATOM      3  C   UNL     1      74.834  81.767  62.982  1.00  0.00     0.000 C 
BRANCH   3   4
ATOM      4  C   UNL     1      73.396  81.176  62.938  1.00  0.00    -0.000 C 
BRANCH   4   5
ATOM      5  C   UNL     1      73.101  80.227  64.134  1.00  0.00    -0.000 C 
BRANCH   5   6
ATOM      6  C   UNL     1      72.253  80.910  65.241  1.00  0.00    -0.003 C 
ATOM      7  C   UNL     1      71.633  82.247  64.782  1.00  0.00     0.004 C 
ENDBRANCH   5   6
ENDBRANCH   4   5
ENDBRANCH   3   4
ENDBRANCH   2   3
ENDBRANCH   1   2
BRANCH   1   8
ATOM      8  C   UNL     1      77.186  82.159  66.141  1.00  0.00     0.100 C 
BRANCH   8   9
ATOM      9  C   UNL     1      77.815  83.411  66.627  1.00  0.00     0.220 C 
ATOM     10  O   UNL     1      78.300  84.200  65.782  1.00  0.00    -0.275 OA
ATOM     11  N   UNL     1      77.835  83.705  67.961  1.00  0.00    -0.352 N 
ATOM     12  H   UNL     1      77.497  82.963  68.557  1.00  0.00     0.163 HD
BRANCH  11  13
ATOM     13  C   UNL     1      78.281  84.935  68.539  1.00  0.00     0.151 C 
BRANCH  13  14
ATOM     14  C   UNL     1      77.183  85.773  69.091  1.00  0.00    -0.025 A 
ATOM     15  C   UNL     1      75.896  85.219  69.289  1.00  0.00     0.056 A 
ATOM     16  C   UNL     1      77.401  87.130  69.424  1.00  0.00     0.009 A 
ATOM     17  C   UNL     1      74.847  85.999  69.830  1.00  0.00     0.160 A 
ATOM     18  C   UNL     1      76.363  87.910  69.962  1.00  0.00     0.050 A 
ATOM     19  C   UNL     1      75.085  87.352  70.160  1.00  0.00     0.157 A 
BRANCH  17  20
ATOM     20  O   UNL     1      73.589  85.472  69.982  1.00  0.00    -0.493 OA
ATOM     21  C   UNL     1      72.851  85.345  68.753  1.00  0.00     0.278 C 
ENDBRANCH  17  20
BRANCH  19  22
ATOM     22  O   UNL     1      74.081  88.121  70.655  1.00  0.00    -0.504 OA
ATOM     23  H   UNL     1      73.579  87.615  71.298  1.00  0.00     0.293 HD
ENDBRANCH  19  22
ENDBRANCH  13  14
ENDBRANCH  11  13
ENDBRANCH   8   9
ENDBRANCH   1   8
TORSDOF 11
ENDMDL
MODEL 7
REMARK VINA RESULT:    -5.101     17.421     21.408
REMARK INTER + INTRA:          -9.236
REMARK INTER:                  -8.385
REMARK INTRA:                  -0.850
REMARK UNBOUND:                -1.004
REMARK SMILES CCCCCCCCC(=O)NCc1ccc(O)c(OC)c1
REMARK SMILES IDX 7 1 6 2 5 3 4 4 3 5 2 6 1 7 8 8 9 9 10 10 11 11 12 13 13 14
REMARK SMILES IDX 21 15 14 16 18 17 15 18 16 19 19 20 20 21 17 22
REMARK H PARENT 11 12 17 23
REMARK Flexibility Score: inf
ROOT
ATOM      1  C   UNL     1      73.178  89.206  71.219  1.00  0.00     0.010 C 
ENDROOT
BRANCH   1   2
ATOM      2  C   UNL     1      74.287  88.115  71.186  1.00  0.00     0.001 C 
BRANCH   2   3
ATOM      3  C   UNL     1      75.567  88.598  70.442  1.00  0.00     0.000 C 
BRANCH   3   4
ATOM      4  C   UNL     1      76.471  87.440  69.933  1.00  0.00    -0.000 C 
BRANCH   4   5
ATOM      5  C   UNL     1      75.743  86.066  69.933  1.00  0.00    -0.000 C 
BRANCH   5   6
ATOM      6  C   UNL     1      76.669  84.901  70.375  1.00  0.00    -0.003 C 
ATOM      7  C   UNL     1      76.027  83.998  71.451  1.00  0.00     0.004 C 
ENDBRANCH   5   6
ENDBRANCH   4   5
ENDBRANCH   3   4
ENDBRANCH   2   3
ENDBRANCH   1   2
BRANCH   1   8
ATOM      8  C   UNL     1      72.287  89.159  72.491  1.00  0.00     0.100 C 
BRANCH   8   9
ATOM      9  C   UNL     1      72.598  90.281  73.410  1.00  0.00     0.220 C 
ATOM     10  O   UNL     1      72.040  90.302  74.533  1.00  0.00    -0.275 OA
ATOM     11  N   UNL     1      73.492  91.247  73.048  1.00  0.00    -0.352 N 
ATOM     12  H   UNL     1      73.814  91.181  72.093  1.00  0.00     0.163 HD
BRANCH  11  13
ATOM     13  C   UNL     1      73.980  92.294  73.893  1.00  0.00     0.151 C 
BRANCH  13  14
ATOM     14  C   UNL     1      75.371  92.718  73.583  1.00  0.00    -0.025 A 
ATOM     15  C   UNL     1      76.112  93.472  74.525  1.00  0.00     0.056 A 
ATOM     16  C   UNL     1      75.976  92.382  72.350  1.00  0.00     0.009 A 
ATOM     17  C   UNL     1      77.442  93.866  74.252  1.00  0.00     0.160 A 
ATOM     18  C   UNL     1      77.299  92.770  72.073  1.00  0.00     0.050 A 
ATOM     19  C   UNL     1      78.032  93.518  73.016  1.00  0.00     0.157 A 
BRANCH  17  20
ATOM     20  O   UNL     1      78.144  94.633  75.148  1.00  0.00    -0.493 OA
ATOM     21  C   UNL     1      78.219  94.072  76.471  1.00  0.00     0.278 C 
ENDBRANCH  17  20
BRANCH  19  22
ATOM     22  O   UNL     1      79.298  93.912  72.728  1.00  0.00    -0.504 OA
ATOM     23  H   UNL     1      79.452  93.829  71.784  1.00  0.00     0.293 HD
ENDBRANCH  19  22
ENDBRANCH  13  14
ENDBRANCH  11  13
ENDBRANCH   8   9
ENDBRANCH   1   8
TORSDOF 11
ENDMDL
MODEL 8
REMARK VINA RESULT:    -4.998     13.674     16.018
REMARK INTER + INTRA:          -9.069
REMARK INTER:                  -8.605
REMARK INTRA:                  -0.464
REMARK UNBOUND:                -1.004
REMARK SMILES CCCCCCCCC(=O)NCc1ccc(O)c(OC)c1
REMARK SMILES IDX 7 1 6 2 5 3 4 4 3 5 2 6 1 7 8 8 9 9 10 10 11 11 12 13 13 14
REMARK SMILES IDX 21 15 14 16 18 17 15 18 16 19 19 20 20 21 17 22
REMARK H PARENT 11 12 17 23
REMARK Flexibility Score: inf
ROOT
ATOM      1  C   UNL     1      98.064  83.165  83.445  1.00  0.00     0.010 C 
ENDROOT
BRANCH   1   2
ATOM      2  C   UNL     1      97.823  83.037  81.913  1.00  0.00     0.001 C 
BRANCH   2   3
ATOM      3  C   UNL     1      99.150  83.105  81.101  1.00  0.00     0.000 C 
BRANCH   3   4
ATOM      4  C   UNL     1      98.944  83.069  79.560  1.00  0.00    -0.000 C 
BRANCH   4   5
ATOM      5  C   UNL     1      97.563  83.637  79.125  1.00  0.00    -0.000 C 
BRANCH   5   6
ATOM      6  C   UNL     1      97.398  83.687  77.582  1.00  0.00    -0.003 C 
ATOM      7  C   UNL     1      98.738  83.894  76.842  1.00  0.00     0.004 C 
ENDBRANCH   5   6
ENDBRANCH   4   5
ENDBRANCH   3   4
ENDBRANCH   2   3
ENDBRANCH   1   2
BRANCH   1   8
ATOM      8  C   UNL     1      97.037  84.080  84.169  1.00  0.00     0.100 C 
BRANCH   8   9
ATOM      9  C   UNL     1      96.640  83.514  85.481  1.00  0.00     0.220 C 
ATOM     10  O   UNL     1      97.543  83.104  86.250  1.00  0.00    -0.275 OA
ATOM     11  N   UNL     1      95.326  83.469  85.848  1.00  0.00    -0.352 N 
ATOM     12  H   UNL     1      94.680  83.743  85.122  1.00  0.00     0.163 HD
BRANCH  11  13
ATOM     13  C   UNL     1      94.830  83.081  87.133  1.00  0.00     0.151 C 
BRANCH  13  14
ATOM     14  C   UNL     1      93.775  82.034  87.078  1.00  0.00    -0.025 A 
ATOM     15  C   UNL     1      92.410  82.391  87.193  1.00  0.00     0.056 A 
ATOM     16  C   UNL     1      94.112  80.670  86.917  1.00  0.00     0.009 A 
ATOM     17  C   UNL     1      91.396  81.408  87.125  1.00  0.00     0.160 A 
ATOM     18  C   UNL     1      93.108  79.688  86.848  1.00  0.00     0.050 A 
ATOM     19  C   UNL     1      91.752  80.051  86.959  1.00  0.00     0.157 A 
BRANCH  17  20
ATOM     20  O   UNL     1      90.076  81.752  87.279  1.00  0.00    -0.493 OA
ATOM     21  C   UNL     1      89.393  82.030  86.044  1.00  0.00     0.278 C 
ENDBRANCH  17  20
BRANCH  19  22
ATOM     22  O   UNL     1      90.791  79.093  86.919  1.00  0.00    -0.504 OA
ATOM     23  H   UNL     1      90.521  78.948  86.009  1.00  0.00     0.293 HD
ENDBRANCH  19  22
ENDBRANCH  13  14
ENDBRANCH  11  13
ENDBRANCH   8   9
ENDBRANCH   1   8
TORSDOF 11
ENDMDL
MODEL 9
REMARK VINA RESULT:    -4.945     13.592     16.386
REMARK INTER + INTRA:          -8.984
REMARK INTER:                  -7.243
REMARK INTRA:                  -1.740
REMARK UNBOUND:                -1.004
REMARK SMILES CCCCCCCCC(=O)NCc1ccc(O)c(OC)c1
REMARK SMILES IDX 7 1 6 2 5 3 4 4 3 5 2 6 1 7 8 8 9 9 10 10 11 11 12 13 13 14
REMARK SMILES IDX 21 15 14 16 18 17 15 18 16 19 19 20 20 21 17 22
REMARK H PARENT 11 12 17 23
REMARK Flexibility Score: inf
ROOT
ATOM      1  C   UNL     1      96.011  85.587  85.766  1.00  0.00     0.010 C 
ENDROOT
BRANCH   1   2
ATOM      2  C   UNL     1      97.457  85.219  85.326  1.00  0.00     0.001 C 
BRANCH   2   3
ATOM      3  C   UNL     1      97.584  83.724  84.910  1.00  0.00     0.000 C 
BRANCH   3   4
ATOM      4  C   UNL     1      96.426  82.827  85.432  1.00  0.00    -0.000 C 
BRANCH   4   5
ATOM      5  C   UNL     1      96.905  81.773  86.470  1.00  0.00    -0.000 C 
BRANCH   5   6
ATOM      6  C   UNL     1      96.657  82.223  87.935  1.00  0.00    -0.003 C 
ATOM      7  C   UNL     1      97.838  83.023  88.526  1.00  0.00     0.004 C 
ENDBRANCH   5   6
ENDBRANCH   4   5
ENDBRANCH   3   4
ENDBRANCH   2   3
ENDBRANCH   1   2
BRANCH   1   8
ATOM      8  C   UNL     1      95.911  86.115  87.224  1.00  0.00     0.100 C 
BRANCH   8   9
ATOM      9  C   UNL     1      94.907  85.354  88.007  1.00  0.00     0.220 C 
ATOM     10  O   UNL     1      94.994  85.366  89.258  1.00  0.00    -0.275 OA
ATOM     11  N   UNL     1      93.898  84.684  87.376  1.00  0.00    -0.352 N 
ATOM     12  H   UNL     1      93.973  84.669  86.369  1.00  0.00     0.163 HD
BRANCH  11  13
ATOM     13  C   UNL     1      92.796  84.036  88.018  1.00  0.00     0.151 C 
BRANCH  13  14
ATOM     14  C   UNL     1      92.248  82.883  87.254  1.00  0.00    -0.025 A 
ATOM     15  C   UNL     1      90.879  82.849  86.899  1.00  0.00     0.056 A 
ATOM     16  C   UNL     1      93.079  81.804  86.873  1.00  0.00     0.009 A 
ATOM     17  C   UNL     1      90.348  81.768  86.159  1.00  0.00     0.160 A 
ATOM     18  C   UNL     1      92.557  80.726  86.135  1.00  0.00     0.050 A 
ATOM     19  C   UNL     1      91.194  80.700  85.783  1.00  0.00     0.157 A 
BRANCH  17  20
ATOM     20  O   UNL     1      89.011  81.717  85.852  1.00  0.00    -0.493 OA
ATOM     21  C   UNL     1      88.154  81.520  86.990  1.00  0.00     0.278 C 
ENDBRANCH  17  20
BRANCH  19  22
ATOM     22  O   UNL     1      90.694  79.643  85.095  1.00  0.00    -0.504 OA
ATOM     23  H   UNL     1      89.764  79.792  84.910  1.00  0.00     0.293 HD
ENDBRANCH  19  22
ENDBRANCH  13  14
ENDBRANCH  11  13
ENDBRANCH   8   9
ENDBRANCH   1   8
TORSDOF 11
ENDMDL
MODEL 10
REMARK VINA RESULT:    -4.852     23.712     27.520
REMARK INTER + INTRA:          -8.835
REMARK INTER:                  -6.948
REMARK INTRA:                  -1.886
REMARK UNBOUND:                -1.004
REMARK SMILES CCCCCCCCC(=O)NCc1ccc(O)c(OC)c1
REMARK SMILES IDX 7 1 6 2 5 3 4 4 3 5 2 6 1 7 8 8 9 9 10 10 11 11 12 13 13 14
REMARK SMILES IDX 21 15 14 16 18 17 15 18 16 19 19 20 20 21 17 22
REMARK H PARENT 11 12 17 23
REMARK Flexibility Score: inf
ROOT
ATOM      1  C   UNL     1      72.146  80.794  64.435  1.00  0.00     0.010 C 
ENDROOT
BRANCH   1   2
ATOM      2  C   UNL     1      72.844  80.010  63.287  1.00  0.00     0.001 C 
BRANCH   2   3
ATOM      3  C   UNL     1      74.243  80.597  62.938  1.00  0.00     0.000 C 
BRANCH   3   4
ATOM      4  C   UNL     1      75.049  81.077  64.178  1.00  0.00    -0.000 C 
BRANCH   4   5
ATOM      5  C   UNL     1      75.462  82.573  64.083  1.00  0.00    -0.000 C 
BRANCH   5   6
ATOM      6  C   UNL     1      76.862  82.845  64.697  1.00  0.00    -0.003 C 
ATOM      7  C   UNL     1      77.174  81.935  65.906  1.00  0.00     0.004 C 
ENDBRANCH   5   6
ENDBRANCH   4   5
ENDBRANCH   3   4
ENDBRANCH   2   3
ENDBRANCH   1   2
BRANCH   1   8
ATOM      8  C   UNL     1      71.444  82.100  63.969  1.00  0.00     0.100 C 
BRANCH   8   9
ATOM      9  C   UNL     1      71.733  83.226  64.890  1.00  0.00     0.220 C 
ATOM     10  O   UNL     1      71.271  84.358  64.609  1.00  0.00    -0.275 OA
ATOM     11  N   UNL     1      72.459  83.022  66.028  1.00  0.00    -0.352 N 
ATOM     12  H   UNL     1      72.854  82.097  66.112  1.00  0.00     0.163 HD
BRANCH  11  13
ATOM     13  C   UNL     1      72.685  83.989  67.059  1.00  0.00     0.151 C 
BRANCH  13  14
ATOM     14  C   UNL     1      74.042  84.597  67.028  1.00  0.00    -0.025 A 
ATOM     15  C   UNL     1      75.020  84.205  67.973  1.00  0.00     0.056 A 
ATOM     16  C   UNL     1      74.378  85.574  66.063  1.00  0.00     0.009 A 
ATOM     17  C   UNL     1      76.319  84.761  67.944  1.00  0.00     0.160 A 
ATOM     18  C   UNL     1      75.669  86.130  66.028  1.00  0.00     0.050 A 
ATOM     19  C   UNL     1      76.638  85.734  66.970  1.00  0.00     0.157 A 
BRANCH  17  20
ATOM     20  O   UNL     1      77.253  84.411  68.887  1.00  0.00    -0.493 OA
ATOM     21  C   UNL     1      76.790  84.525  70.244  1.00  0.00     0.278 C 
ENDBRANCH  17  20
BRANCH  19  22
ATOM     22  O   UNL     1      77.873  86.297  66.946  1.00  0.00    -0.504 OA
ATOM     23  H   UNL     1      77.855  87.128  67.425  1.00  0.00     0.293 HD
ENDBRANCH  19  22
ENDBRANCH  13  14
ENDBRANCH  11  13
ENDBRANCH   8   9
ENDBRANCH   1   8
TORSDOF 11
ENDMDL
