MODEL 1
REMARK VINA RESULT:    -6.340      0.000      0.000
REMARK INTER + INTRA:         -11.146
REMARK INTER:                 -10.417
REMARK INTRA:                  -0.729
REMARK UNBOUND:                -0.729
REMARK SMILES CCCCC[C@H](O)CC(=O)CCc1ccc(O)c(OC)c1
REMARK SMILES IDX 8 1 6 2 7 3 5 5 4 6 3 7 2 8 1 9 9 10 10 11 11 12 12 13 13 14
REMARK SMILES IDX 21 15 14 16 18 17 15 18 16 19 19 20 20 21 17 22
REMARK H PARENT 7 4 17 23
REMARK Flexibility Score: inf
ROOT
ATOM      1  C   UNL     1      91.482  93.371  77.873  1.00  0.00     0.107 C 
ENDROOT
BRANCH   1   2
ATOM      2  C   UNL     1      90.918  92.182  77.092  1.00  0.00     0.121 C 
BRANCH   2   3
ATOM      3  O   UNL     1      89.601  91.884  77.550  1.00  0.00    -0.393 OA
ATOM      4  H   UNL     1      89.236  91.189  76.975  1.00  0.00     0.210 HD
ENDBRANCH   2   3
BRANCH   2   5
ATOM      5  C   UNL     1      90.884  92.420  75.577  1.00  0.00     0.032 C 
BRANCH   5   6
ATOM      6  C   UNL     1      91.118  91.129  74.785  1.00  0.00     0.003 C 
BRANCH   6   7
ATOM      7  C   UNL     1      89.852  90.594  74.108  1.00  0.00    -0.000 C 
BRANCH   7   8
ATOM      8  C   UNL     1      89.453  91.372  72.855  1.00  0.00    -0.003 C 
ATOM      9  C   UNL     1      87.974  91.726  72.871  1.00  0.00     0.004 C 
ENDBRANCH   7   8
ENDBRANCH   6   7
ENDBRANCH   5   6
ENDBRANCH   2   5
ENDBRANCH   1   2
BRANCH   1  10
ATOM     10  C   UNL     1      91.225  94.706  77.193  1.00  0.00     0.135 C 
ATOM     11  O   UNL     1      90.086  95.044  76.873  1.00  0.00    -0.300 OA
BRANCH  10  12
ATOM     12  C   UNL     1      92.433  95.606  76.978  1.00  0.00     0.080 C 
BRANCH  12  13
ATOM     13  C   UNL     1      93.674  94.861  76.482  1.00  0.00     0.043 C 
BRANCH  13  14
ATOM     14  C   UNL     1      94.670  94.575  77.581  1.00  0.00    -0.044 A 
ATOM     15  C   UNL     1      95.131  95.612  78.392  1.00  0.00     0.054 A 
ATOM     16  C   UNL     1      95.129  93.273  77.784  1.00  0.00     0.008 A 
ATOM     17  C   UNL     1      96.050  95.346  79.407  1.00  0.00     0.160 A 
ATOM     18  C   UNL     1      96.048  93.007  78.799  1.00  0.00     0.050 A 
ATOM     19  C   UNL     1      96.509  94.044  79.610  1.00  0.00     0.157 A 
BRANCH  17  20
ATOM     20  O   UNL     1      96.494  96.367  80.193  1.00  0.00    -0.493 OA
ATOM     21  C   UNL     1      97.281  97.375  79.562  1.00  0.00     0.278 C 
ENDBRANCH  17  20
BRANCH  19  22
ATOM     22  O   UNL     1      97.407  93.772  80.598  1.00  0.00    -0.504 OA
ATOM     23  H   UNL     1      96.928  93.458  81.383  1.00  0.00     0.293 HD
ENDBRANCH  19  22
ENDBRANCH  13  14
ENDBRANCH  12  13
ENDBRANCH  10  12
ENDBRANCH   1  10
TORSDOF 12
ENDMDL
MODEL 2
REMARK VINA RESULT:    -6.050      2.448      8.662
REMARK INTER + INTRA:         -10.669
REMARK INTER:                  -9.856
REMARK INTRA:                  -0.813
REMARK UNBOUND:                -0.729
REMARK SMILES CCCCC[C@H](O)CC(=O)CCc1ccc(O)c(OC)c1
REMARK SMILES IDX 8 1 6 2 7 3 5 5 4 6 3 7 2 8 1 9 9 10 10 11 11 12 12 13 13 14
REMARK SMILES IDX 21 15 14 16 18 17 15 18 16 19 19 20 20 21 17 22
REMARK H PARENT 7 4 17 23
REMARK Flexibility Score: inf
ROOT
ATOM      1  C   UNL     1      96.914  95.192  81.152  1.00  0.00     0.107 C 
ENDROOT
BRANCH   1   2
ATOM      2  C   UNL     1      96.099  96.250  81.901  1.00  0.00     0.121 C 
BRANCH   2   3
ATOM      3  O   UNL     1      95.285  95.624  82.889  1.00  0.00    -0.393 OA
ATOM      4  H   UNL     1      95.856  95.039  83.417  1.00  0.00     0.210 HD
ENDBRANCH   2   3
BRANCH   2   5
ATOM      5  C   UNL     1      96.972  97.319  82.569  1.00  0.00     0.032 C 
BRANCH   5   6
ATOM      6  C   UNL     1      96.990  98.630  81.773  1.00  0.00     0.003 C 
BRANCH   6   7
ATOM      7  C   UNL     1      95.877  99.601  82.178  1.00  0.00    -0.000 C 
BRANCH   7   8
ATOM      8  C   UNL     1      96.356 100.739  83.079  1.00  0.00    -0.003 C 
ATOM      9  C   UNL     1      95.245 101.222  83.999  1.00  0.00     0.004 C 
ENDBRANCH   7   8
ENDBRANCH   6   7
ENDBRANCH   5   6
ENDBRANCH   2   5
ENDBRANCH   1   2
BRANCH   1  10
ATOM     10  C   UNL     1      96.047  94.148  80.467  1.00  0.00     0.135 C 
ATOM     11  O   UNL     1      95.541  93.226  81.107  1.00  0.00    -0.300 OA
BRANCH  10  12
ATOM     12  C   UNL     1      95.809  94.332  78.976  1.00  0.00     0.080 C 
BRANCH  12  13
ATOM     13  C   UNL     1      94.898  93.267  78.363  1.00  0.00     0.043 C 
BRANCH  13  14
ATOM     14  C   UNL     1      93.557  93.813  77.931  1.00  0.00    -0.044 A 
ATOM     15  C   UNL     1      92.410  93.030  78.063  1.00  0.00     0.054 A 
ATOM     16  C   UNL     1      93.467  95.100  77.400  1.00  0.00     0.008 A 
ATOM     17  C   UNL     1      91.172  93.536  77.665  1.00  0.00     0.160 A 
ATOM     18  C   UNL     1      92.229  95.605  77.002  1.00  0.00     0.050 A 
ATOM     19  C   UNL     1      91.082  94.823  77.134  1.00  0.00     0.157 A 
BRANCH  17  20
ATOM     20  O   UNL     1      90.059  92.762  77.798  1.00  0.00    -0.493 OA
ATOM     21  C   UNL     1      89.823  91.785  76.786  1.00  0.00     0.278 C 
ENDBRANCH  17  20
BRANCH  19  22
ATOM     22  O   UNL     1      89.879  95.327  76.742  1.00  0.00    -0.504 OA
ATOM     23  H   UNL     1      89.226  94.606  76.717  1.00  0.00     0.293 HD
ENDBRANCH  19  22
ENDBRANCH  13  14
ENDBRANCH  12  13
ENDBRANCH  10  12
ENDBRANCH   1  10
TORSDOF 12
ENDMDL
MODEL 3
REMARK VINA RESULT:    -6.049      3.665      4.826
REMARK INTER + INTRA:         -10.667
REMARK INTER:                  -9.858
REMARK INTRA:                  -0.809
REMARK UNBOUND:                -0.729
REMARK SMILES CCCCC[C@H](O)CC(=O)CCc1ccc(O)c(OC)c1
REMARK SMILES IDX 8 1 6 2 7 3 5 5 4 6 3 7 2 8 1 9 9 10 10 11 11 12 12 13 13 14
REMARK SMILES IDX 21 15 14 16 18 17 15 18 16 19 19 20 20 21 17 22
REMARK H PARENT 7 4 17 23
REMARK Flexibility Score: inf
ROOT
ATOM      1  C   UNL     1      92.357  93.907  77.529  1.00  0.00     0.107 C 
ENDROOT
BRANCH   1   2
ATOM      2  C   UNL     1      91.634  92.572  77.341  1.00  0.00     0.121 C 
BRANCH   2   3
ATOM      3  O   UNL     1      90.469  92.533  78.163  1.00  0.00    -0.393 OA
ATOM      4  H   UNL     1      90.253  91.599  78.328  1.00  0.00     0.210 HD
ENDBRANCH   2   3
BRANCH   2   5
ATOM      5  C   UNL     1      91.233  92.306  75.885  1.00  0.00     0.032 C 
BRANCH   5   6
ATOM      6  C   UNL     1      90.422  91.013  75.737  1.00  0.00     0.003 C 
BRANCH   6   7
ATOM      7  C   UNL     1      90.346  90.507  74.293  1.00  0.00    -0.000 C 
BRANCH   7   8
ATOM      8  C   UNL     1      89.261  91.189  73.461  1.00  0.00    -0.003 C 
ATOM      9  C   UNL     1      89.650  91.258  71.992  1.00  0.00     0.004 C 
ENDBRANCH   7   8
ENDBRANCH   6   7
ENDBRANCH   5   6
ENDBRANCH   2   5
ENDBRANCH   1   2
BRANCH   1  10
ATOM     10  C   UNL     1      91.599  95.084  76.938  1.00  0.00     0.135 C 
ATOM     11  O   UNL     1      90.381  95.189  77.082  1.00  0.00    -0.300 OA
BRANCH  10  12
ATOM     12  C   UNL     1      92.426  96.131  76.208  1.00  0.00     0.080 C 
BRANCH  12  13
ATOM     13  C   UNL     1      93.736  95.589  75.633  1.00  0.00     0.043 C 
BRANCH  13  14
ATOM     14  C   UNL     1      94.262  96.412  74.481  1.00  0.00    -0.044 A 
ATOM     15  C   UNL     1      93.691  97.650  74.189  1.00  0.00     0.054 A 
ATOM     16  C   UNL     1      95.321  95.932  73.709  1.00  0.00     0.008 A 
ATOM     17  C   UNL     1      94.179  98.409  73.125  1.00  0.00     0.160 A 
ATOM     18  C   UNL     1      95.808  96.691  72.645  1.00  0.00     0.050 A 
ATOM     19  C   UNL     1      95.237  97.929  72.353  1.00  0.00     0.157 A 
BRANCH  17  20
ATOM     20  O   UNL     1      93.613  99.617  72.850  1.00  0.00    -0.493 OA
ATOM     21  C   UNL     1      94.090 100.741  73.588  1.00  0.00     0.278 C 
ENDBRANCH  17  20
BRANCH  19  22
ATOM     22  O   UNL     1      95.722  98.661  71.312  1.00  0.00    -0.504 OA
ATOM     23  H   UNL     1      95.805  98.086  70.532  1.00  0.00     0.293 HD
ENDBRANCH  19  22
ENDBRANCH  13  14
ENDBRANCH  12  13
ENDBRANCH  10  12
ENDBRANCH   1  10
TORSDOF 12
ENDMDL
MODEL 4
REMARK VINA RESULT:    -5.822      3.036      4.963
REMARK INTER + INTRA:         -10.294
REMARK INTER:                  -9.149
REMARK INTRA:                  -1.145
REMARK UNBOUND:                -0.729
REMARK SMILES CCCCC[C@H](O)CC(=O)CCc1ccc(O)c(OC)c1
REMARK SMILES IDX 8 1 6 2 7 3 5 5 4 6 3 7 2 8 1 9 9 10 10 11 11 12 12 13 13 14
REMARK SMILES IDX 21 15 14 16 18 17 15 18 16 19 19 20 20 21 17 22
REMARK H PARENT 7 4 17 23
REMARK Flexibility Score: inf
ROOT
ATOM      1  C   UNL     1      95.282  95.561  76.411  1.00  0.00     0.107 C 
ENDROOT
BRANCH   1   2
ATOM      2  C   UNL     1      94.263  95.430  75.276  1.00  0.00     0.121 C 
BRANCH   2   3
ATOM      3  O   UNL     1      94.072  94.055  74.954  1.00  0.00    -0.393 OA
ATOM      4  H   UNL     1      94.950  93.648  74.855  1.00  0.00     0.210 HD
ENDBRANCH   2   3
BRANCH   2   5
ATOM      5  C   UNL     1      92.907  96.063  75.612  1.00  0.00     0.032 C 
BRANCH   5   6
ATOM      6  C   UNL     1      92.448  95.722  77.035  1.00  0.00     0.003 C 
BRANCH   6   7
ATOM      7  C   UNL     1      91.220  94.807  77.074  1.00  0.00    -0.000 C 
BRANCH   7   8
ATOM      8  C   UNL     1      91.515  93.408  77.613  1.00  0.00    -0.003 C 
ATOM      9  C   UNL     1      92.873  93.353  78.297  1.00  0.00     0.004 C 
ENDBRANCH   7   8
ENDBRANCH   6   7
ENDBRANCH   5   6
ENDBRANCH   2   5
ENDBRANCH   1   2
BRANCH   1  10
ATOM     10  C   UNL     1      96.372  96.579  76.118  1.00  0.00     0.135 C 
ATOM     11  O   UNL     1      96.280  97.346  75.160  1.00  0.00    -0.300 OA
BRANCH  10  12
ATOM     12  C   UNL     1      97.542  96.624  77.089  1.00  0.00     0.080 C 
BRANCH  12  13
ATOM     13  C   UNL     1      97.495  97.812  78.053  1.00  0.00     0.043 C 
BRANCH  13  14
ATOM     14  C   UNL     1      97.159  97.411  79.469  1.00  0.00    -0.044 A 
ATOM     15  C   UNL     1      96.539  96.187  79.720  1.00  0.00     0.054 A 
ATOM     16  C   UNL     1      97.469  98.266  80.527  1.00  0.00     0.008 A 
ATOM     17  C   UNL     1      96.230  95.818  81.030  1.00  0.00     0.160 A 
ATOM     18  C   UNL     1      97.160  97.897  81.837  1.00  0.00     0.050 A 
ATOM     19  C   UNL     1      96.540  96.673  82.088  1.00  0.00     0.157 A 
BRANCH  17  20
ATOM     20  O   UNL     1      95.624  94.620  81.262  1.00  0.00    -0.493 OA
ATOM     21  C   UNL     1      96.041  93.516  80.461  1.00  0.00     0.278 C 
ENDBRANCH  17  20
BRANCH  19  22
ATOM     22  O   UNL     1      96.243  96.324  83.370  1.00  0.00    -0.504 OA
ATOM     23  H   UNL     1      96.428  97.078  83.955  1.00  0.00     0.293 HD
ENDBRANCH  19  22
ENDBRANCH  13  14
ENDBRANCH  12  13
ENDBRANCH  10  12
ENDBRANCH   1  10
TORSDOF 12
ENDMDL
MODEL 5
REMARK VINA RESULT:    -5.706      3.360      4.933
REMARK INTER + INTRA:         -10.104
REMARK INTER:                  -8.934
REMARK INTRA:                  -1.170
REMARK UNBOUND:                -0.729
REMARK SMILES CCCCC[C@H](O)CC(=O)CCc1ccc(O)c(OC)c1
REMARK SMILES IDX 8 1 6 2 7 3 5 5 4 6 3 7 2 8 1 9 9 10 10 11 11 12 12 13 13 14
REMARK SMILES IDX 21 15 14 16 18 17 15 18 16 19 19 20 20 21 17 22
REMARK H PARENT 7 4 17 23
REMARK Flexibility Score: inf
ROOT
ATOM      1  C   UNL     1      95.616  96.182  76.078  1.00  0.00     0.107 C 
ENDROOT
BRANCH   1   2
ATOM      2  C   UNL     1      94.675  96.507  74.916  1.00  0.00     0.121 C 
BRANCH   2   3
ATOM      3  O   UNL     1      95.271  96.106  73.685  1.00  0.00    -0.393 OA
ATOM      4  H   UNL     1      94.584  96.141  72.996  1.00  0.00     0.210 HD
ENDBRANCH   2   3
BRANCH   2   5
ATOM      5  C   UNL     1      93.301  95.841  75.052  1.00  0.00     0.032 C 
BRANCH   5   6
ATOM      6  C   UNL     1      93.320  94.680  76.054  1.00  0.00     0.003 C 
BRANCH   6   7
ATOM      7  C   UNL     1      92.337  94.864  77.215  1.00  0.00    -0.000 C 
BRANCH   7   8
ATOM      8  C   UNL     1      92.000  93.564  77.944  1.00  0.00    -0.003 C 
ATOM      9  C   UNL     1      90.585  93.104  77.630  1.00  0.00     0.004 C 
ENDBRANCH   7   8
ENDBRANCH   6   7
ENDBRANCH   5   6
ENDBRANCH   2   5
ENDBRANCH   1   2
BRANCH   1  10
ATOM     10  C   UNL     1      96.858  97.058  76.102  1.00  0.00     0.135 C 
ATOM     11  O   UNL     1      96.977  98.008  75.328  1.00  0.00    -0.300 OA
BRANCH  10  12
ATOM     12  C   UNL     1      97.908  96.725  77.151  1.00  0.00     0.080 C 
BRANCH  12  13
ATOM     13  C   UNL     1      97.500  97.113  78.574  1.00  0.00     0.043 C 
BRANCH  13  14
ATOM     14  C   UNL     1      97.153  95.922  79.436  1.00  0.00    -0.044 A 
ATOM     15  C   UNL     1      98.137  95.314  80.215  1.00  0.00     0.054 A 
ATOM     16  C   UNL     1      95.847  95.430  79.451  1.00  0.00     0.008 A 
ATOM     17  C   UNL     1      97.815  94.215  81.011  1.00  0.00     0.160 A 
ATOM     18  C   UNL     1      95.525  94.331  80.248  1.00  0.00     0.050 A 
ATOM     19  C   UNL     1      96.509  93.723  81.027  1.00  0.00     0.157 A 
BRANCH  17  20
ATOM     20  O   UNL     1      98.784  93.629  81.768  1.00  0.00    -0.493 OA
ATOM     21  C   UNL     1      99.302  94.388  82.859  1.00  0.00     0.278 C 
ENDBRANCH  17  20
BRANCH  19  22
ATOM     22  O   UNL     1      96.183  92.650  81.800  1.00  0.00    -0.504 OA
ATOM     23  H   UNL     1      95.915  91.914  81.224  1.00  0.00     0.293 HD
ENDBRANCH  19  22
ENDBRANCH  13  14
ENDBRANCH  12  13
ENDBRANCH  10  12
ENDBRANCH   1  10
TORSDOF 12
ENDMDL
MODEL 6
REMARK VINA RESULT:    -5.649     20.001     23.101
REMARK INTER + INTRA:         -10.010
REMARK INTER:                  -9.085
REMARK INTRA:                  -0.926
REMARK UNBOUND:                -0.729
REMARK SMILES CCCCC[C@H](O)CC(=O)CCc1ccc(O)c(OC)c1
REMARK SMILES IDX 8 1 6 2 7 3 5 5 4 6 3 7 2 8 1 9 9 10 10 11 11 12 12 13 13 14
REMARK SMILES IDX 21 15 14 16 18 17 15 18 16 19 19 20 20 21 17 22
REMARK H PARENT 7 4 17 23
REMARK Flexibility Score: inf
ROOT
ATOM      1  C   UNL     1      75.325  83.378  66.317  1.00  0.00     0.107 C 
ENDROOT
BRANCH   1   2
ATOM      2  C   UNL     1      75.197  82.449  65.107  1.00  0.00     0.121 C 
BRANCH   2   3
ATOM      3  O   UNL     1      76.379  81.662  64.975  1.00  0.00    -0.393 OA
ATOM      4  H   UNL     1      76.132  80.730  65.108  1.00  0.00     0.210 HD
ENDBRANCH   2   3
BRANCH   2   5
ATOM      5  C   UNL     1      73.979  81.520  65.190  1.00  0.00     0.032 C 
BRANCH   5   6
ATOM      6  C   UNL     1      73.347  81.275  63.814  1.00  0.00     0.003 C 
BRANCH   6   7
ATOM      7  C   UNL     1      71.816  81.333  63.832  1.00  0.00    -0.000 C 
BRANCH   7   8
ATOM      8  C   UNL     1      71.221  81.380  65.238  1.00  0.00    -0.003 C 
ATOM      9  C   UNL     1      70.117  82.421  65.338  1.00  0.00     0.004 C 
ENDBRANCH   7   8
ENDBRANCH   6   7
ENDBRANCH   5   6
ENDBRANCH   2   5
ENDBRANCH   1   2
BRANCH   1  10
ATOM     10  C   UNL     1      76.666  84.090  66.382  1.00  0.00     0.135 C 
ATOM     11  O   UNL     1      77.694  83.479  66.674  1.00  0.00    -0.300 OA
BRANCH  10  12
ATOM     12  C   UNL     1      76.671  85.569  66.025  1.00  0.00     0.080 C 
BRANCH  12  13
ATOM     13  C   UNL     1      77.391  86.446  67.050  1.00  0.00     0.043 C 
BRANCH  13  14
ATOM     14  C   UNL     1      76.488  87.476  67.687  1.00  0.00    -0.044 A 
ATOM     15  C   UNL     1      75.228  87.103  68.157  1.00  0.00     0.054 A 
ATOM     16  C   UNL     1      76.914  88.799  67.806  1.00  0.00     0.008 A 
ATOM     17  C   UNL     1      74.395  88.055  68.746  1.00  0.00     0.160 A 
ATOM     18  C   UNL     1      76.081  89.750  68.395  1.00  0.00     0.050 A 
ATOM     19  C   UNL     1      74.821  89.378  68.865  1.00  0.00     0.157 A 
BRANCH  17  20
ATOM     20  O   UNL     1      73.167  87.680  69.201  1.00  0.00    -0.493 OA
ATOM     21  C   UNL     1      72.198  87.312  68.222  1.00  0.00     0.278 C 
ENDBRANCH  17  20
BRANCH  19  22
ATOM     22  O   UNL     1      74.017  90.316  69.438  1.00  0.00    -0.504 OA
ATOM     23  H   UNL     1      73.641  90.880  68.740  1.00  0.00     0.293 HD
ENDBRANCH  19  22
ENDBRANCH  13  14
ENDBRANCH  12  13
ENDBRANCH  10  12
ENDBRANCH   1  10
TORSDOF 12
ENDMDL
MODEL 7
REMARK VINA RESULT:    -5.632     19.798     22.263
REMARK INTER + INTRA:          -9.983
REMARK INTER:                  -8.954
REMARK INTRA:                  -1.029
REMARK UNBOUND:                -0.729
REMARK SMILES CCCCC[C@H](O)CC(=O)CCc1ccc(O)c(OC)c1
REMARK SMILES IDX 8 1 6 2 7 3 5 5 4 6 3 7 2 8 1 9 9 10 10 11 11 12 12 13 13 14
REMARK SMILES IDX 21 15 14 16 18 17 15 18 16 19 19 20 20 21 17 22
REMARK H PARENT 7 4 17 23
REMARK Flexibility Score: inf
ROOT
ATOM      1  C   UNL     1      76.311  85.445  66.587  1.00  0.00     0.107 C 
ENDROOT
BRANCH   1   2
ATOM      2  C   UNL     1      77.210  84.523  65.760  1.00  0.00     0.121 C 
BRANCH   2   3
ATOM      3  O   UNL     1      77.930  83.647  66.625  1.00  0.00    -0.393 OA
ATOM      4  H   UNL     1      78.157  84.144  67.430  1.00  0.00     0.210 HD
ENDBRANCH   2   3
BRANCH   2   5
ATOM      5  C   UNL     1      76.432  83.691  64.733  1.00  0.00     0.032 C 
BRANCH   5   6
ATOM      6  C   UNL     1      76.140  82.274  65.240  1.00  0.00     0.003 C 
BRANCH   6   7
ATOM      7  C   UNL     1      74.868  81.665  64.641  1.00  0.00    -0.000 C 
BRANCH   7   8
ATOM      8  C   UNL     1      73.758  81.435  65.666  1.00  0.00    -0.003 C 
ATOM      9  C   UNL     1      72.556  82.325  65.391  1.00  0.00     0.004 C 
ENDBRANCH   7   8
ENDBRANCH   6   7
ENDBRANCH   5   6
ENDBRANCH   2   5
ENDBRANCH   1   2
BRANCH   1  10
ATOM     10  C   UNL     1      77.039  86.099  67.751  1.00  0.00     0.135 C 
ATOM     11  O   UNL     1      77.249  85.481  68.794  1.00  0.00    -0.300 OA
BRANCH  10  12
ATOM     12  C   UNL     1      77.525  87.525  67.537  1.00  0.00     0.080 C 
BRANCH  12  13
ATOM     13  C   UNL     1      76.471  88.448  66.923  1.00  0.00     0.043 C 
BRANCH  13  14
ATOM     14  C   UNL     1      75.436  88.911  67.920  1.00  0.00    -0.044 A 
ATOM     15  C   UNL     1      74.211  88.251  68.011  1.00  0.00     0.054 A 
ATOM     16  C   UNL     1      75.706  89.999  68.751  1.00  0.00     0.008 A 
ATOM     17  C   UNL     1      73.256  88.679  68.934  1.00  0.00     0.160 A 
ATOM     18  C   UNL     1      74.751  90.426  69.673  1.00  0.00     0.050 A 
ATOM     19  C   UNL     1      73.526  89.767  69.764  1.00  0.00     0.157 A 
BRANCH  17  20
ATOM     20  O   UNL     1      72.062  88.027  69.013  1.00  0.00    -0.493 OA
ATOM     21  C   UNL     1      71.864  86.926  68.128  1.00  0.00     0.278 C 
ENDBRANCH  17  20
BRANCH  19  22
ATOM     22  O   UNL     1      72.601  90.193  70.669  1.00  0.00    -0.504 OA
ATOM     23  H   UNL     1      72.016  89.451  70.898  1.00  0.00     0.293 HD
ENDBRANCH  19  22
ENDBRANCH  13  14
ENDBRANCH  12  13
ENDBRANCH  10  12
ENDBRANCH   1  10
TORSDOF 12
ENDMDL
MODEL 8
REMARK VINA RESULT:    -5.612     20.987     24.743
REMARK INTER + INTRA:          -9.950
REMARK INTER:                  -7.865
REMARK INTRA:                  -2.085
REMARK UNBOUND:                -0.729
REMARK SMILES CCCCC[C@H](O)CC(=O)CCc1ccc(O)c(OC)c1
REMARK SMILES IDX 8 1 6 2 7 3 5 5 4 6 3 7 2 8 1 9 9 10 10 11 11 12 12 13 13 14
REMARK SMILES IDX 21 15 14 16 18 17 15 18 16 19 19 20 20 21 17 22
REMARK H PARENT 7 4 17 23
REMARK Flexibility Score: inf
ROOT
ATOM      1  C   UNL     1      70.119  82.787  65.785  1.00  0.00     0.107 C 
ENDROOT
BRANCH   1   2
ATOM      2  C   UNL     1      69.970  82.479  64.293  1.00  0.00     0.121 C 
BRANCH   2   3
ATOM      3  O   UNL     1      70.065  83.685  63.539  1.00  0.00    -0.393 OA
ATOM      4  H   UNL     1      70.037  83.449  62.595  1.00  0.00     0.210 HD
ENDBRANCH   2   3
BRANCH   2   5
ATOM      5  C   UNL     1      71.014  81.479  63.779  1.00  0.00     0.032 C 
BRANCH   5   6
ATOM      6  C   UNL     1      72.034  81.104  64.861  1.00  0.00     0.003 C 
BRANCH   6   7
ATOM      7  C   UNL     1      73.485  81.350  64.438  1.00  0.00    -0.000 C 
BRANCH   7   8
ATOM      8  C   UNL     1      74.444  81.527  65.614  1.00  0.00    -0.003 C 
ATOM      9  C   UNL     1      75.829  81.944  65.143  1.00  0.00     0.004 C 
ENDBRANCH   7   8
ENDBRANCH   6   7
ENDBRANCH   5   6
ENDBRANCH   2   5
ENDBRANCH   1   2
BRANCH   1  10
ATOM     10  C   UNL     1      70.336  84.264  66.070  1.00  0.00     0.135 C 
ATOM     11  O   UNL     1      69.437  85.084  65.879  1.00  0.00    -0.300 OA
BRANCH  10  12
ATOM     12  C   UNL     1      71.691  84.658  66.638  1.00  0.00     0.080 C 
BRANCH  12  13
ATOM     13  C   UNL     1      72.753  84.920  65.569  1.00  0.00     0.043 C 
BRANCH  13  14
ATOM     14  C   UNL     1      74.130  85.147  66.146  1.00  0.00    -0.044 A 
ATOM     15  C   UNL     1      74.370  84.901  67.498  1.00  0.00     0.054 A 
ATOM     16  C   UNL     1      75.163  85.604  65.327  1.00  0.00     0.008 A 
ATOM     17  C   UNL     1      75.642  85.110  68.030  1.00  0.00     0.160 A 
ATOM     18  C   UNL     1      76.435  85.813  65.859  1.00  0.00     0.050 A 
ATOM     19  C   UNL     1      76.675  85.567  67.211  1.00  0.00     0.157 A 
BRANCH  17  20
ATOM     20  O   UNL     1      75.864  84.867  69.352  1.00  0.00    -0.493 OA
ATOM     21  C   UNL     1      74.722  84.844  70.207  1.00  0.00     0.278 C 
ENDBRANCH  17  20
BRANCH  19  22
ATOM     22  O   UNL     1      77.921  85.775  67.719  1.00  0.00    -0.504 OA
ATOM     23  H   UNL     1      78.474  86.196  67.038  1.00  0.00     0.293 HD
ENDBRANCH  19  22
ENDBRANCH  13  14
ENDBRANCH  12  13
ENDBRANCH  10  12
ENDBRANCH   1  10
TORSDOF 12
ENDMDL
MODEL 9
REMARK VINA RESULT:    -5.609      1.839      8.110
REMARK INTER + INTRA:          -9.945
REMARK INTER:                  -9.155
REMARK INTRA:                  -0.789
REMARK UNBOUND:                -0.729
REMARK SMILES CCCCC[C@H](O)CC(=O)CCc1ccc(O)c(OC)c1
REMARK SMILES IDX 8 1 6 2 7 3 5 5 4 6 3 7 2 8 1 9 9 10 10 11 11 12 12 13 13 14
REMARK SMILES IDX 21 15 14 16 18 17 15 18 16 19 19 20 20 21 17 22
REMARK H PARENT 7 4 17 23
REMARK Flexibility Score: inf
ROOT
ATOM      1  C   UNL     1      96.701  94.155  79.143  1.00  0.00     0.107 C 
ENDROOT
BRANCH   1   2
ATOM      2  C   UNL     1      95.980  94.387  80.473  1.00  0.00     0.121 C 
BRANCH   2   3
ATOM      3  O   UNL     1      95.497  93.147  80.984  1.00  0.00    -0.393 OA
ATOM      4  H   UNL     1      94.537  93.234  81.118  1.00  0.00     0.210 HD
ENDBRANCH   2   3
BRANCH   2   5
ATOM      5  C   UNL     1      96.869  95.055  81.529  1.00  0.00     0.032 C 
BRANCH   5   6
ATOM      6  C   UNL     1      97.890  96.012  80.901  1.00  0.00     0.003 C 
BRANCH   6   7
ATOM      7  C   UNL     1      97.759  97.454  81.402  1.00  0.00    -0.000 C 
BRANCH   7   8
ATOM      8  C   UNL     1      96.437  97.736  82.114  1.00  0.00    -0.003 C 
ATOM      9  C   UNL     1      96.116  99.223  82.118  1.00  0.00     0.004 C 
ENDBRANCH   7   8
ENDBRANCH   6   7
ENDBRANCH   5   6
ENDBRANCH   2   5
ENDBRANCH   1   2
BRANCH   1  10
ATOM     10  C   UNL     1      95.763  93.738  78.022  1.00  0.00     0.135 C 
ATOM     11  O   UNL     1      95.865  92.632  77.490  1.00  0.00    -0.300 OA
BRANCH  10  12
ATOM     12  C   UNL     1      94.679  94.732  77.634  1.00  0.00     0.080 C 
BRANCH  12  13
ATOM     13  C   UNL     1      93.962  94.382  76.329  1.00  0.00     0.043 C 
BRANCH  13  14
ATOM     14  C   UNL     1      92.684  93.606  76.546  1.00  0.00    -0.044 A 
ATOM     15  C   UNL     1      92.142  92.850  75.506  1.00  0.00     0.054 A 
ATOM     16  C   UNL     1      92.047  93.645  77.786  1.00  0.00     0.008 A 
ATOM     17  C   UNL     1      90.963  92.132  75.708  1.00  0.00     0.160 A 
ATOM     18  C   UNL     1      90.867  92.928  77.988  1.00  0.00     0.050 A 
ATOM     19  C   UNL     1      90.325  92.172  76.948  1.00  0.00     0.157 A 
BRANCH  17  20
ATOM     20  O   UNL     1      90.443  91.398  74.685  1.00  0.00    -0.493 OA
ATOM     21  C   UNL     1      90.927  90.065  74.533  1.00  0.00     0.278 C 
ENDBRANCH  17  20
BRANCH  19  22
ATOM     22  O   UNL     1      89.173  91.476  77.157  1.00  0.00    -0.504 OA
ATOM     23  H   UNL     1      88.956  91.501  78.105  1.00  0.00     0.293 HD
ENDBRANCH  19  22
ENDBRANCH  13  14
ENDBRANCH  12  13
ENDBRANCH  10  12
ENDBRANCH   1  10
TORSDOF 12
ENDMDL
MODEL 10
REMARK VINA RESULT:    -5.428     12.153     14.423
REMARK INTER + INTRA:          -9.648
REMARK INTER:                  -9.103
REMARK INTRA:                  -0.545
REMARK UNBOUND:                -0.729
REMARK SMILES CCCCC[C@H](O)CC(=O)CCc1ccc(O)c(OC)c1
REMARK SMILES IDX 8 1 6 2 7 3 5 5 4 6 3 7 2 8 1 9 9 10 10 11 11 12 12 13 13 14
REMARK SMILES IDX 21 15 14 16 18 17 15 18 16 19 19 20 20 21 17 22
REMARK H PARENT 7 4 17 23
REMARK Flexibility Score: inf
ROOT
ATOM      1  C   UNL     1      96.765  81.894  81.986  1.00  0.00     0.107 C 
ENDROOT
BRANCH   1   2
ATOM      2  C   UNL     1      97.291  82.051  83.416  1.00  0.00     0.121 C 
BRANCH   2   3
ATOM      3  O   UNL     1      97.531  83.428  83.694  1.00  0.00    -0.393 OA
ATOM      4  H   UNL     1      97.631  83.890  82.843  1.00  0.00     0.210 HD
ENDBRANCH   2   3
BRANCH   2   5
ATOM      5  C   UNL     1      96.335  81.482  84.472  1.00  0.00     0.032 C 
BRANCH   5   6
ATOM      6  C   UNL     1      94.883  81.906  84.224  1.00  0.00     0.003 C 
BRANCH   6   7
ATOM      7  C   UNL     1      93.870  80.789  84.495  1.00  0.00    -0.000 C 
BRANCH   7   8
ATOM      8  C   UNL     1      92.468  81.301  84.822  1.00  0.00    -0.003 C 
ATOM      9  C   UNL     1      91.594  80.195  85.395  1.00  0.00     0.004 C 
ENDBRANCH   7   8
ENDBRANCH   6   7
ENDBRANCH   5   6
ENDBRANCH   2   5
ENDBRANCH   1   2
BRANCH   1  10
ATOM     10  C   UNL     1      97.671  81.046  81.108  1.00  0.00     0.135 C 
ATOM     11  O   UNL     1      98.143  79.987  81.522  1.00  0.00    -0.300 OA
BRANCH  10  12
ATOM     12  C   UNL     1      97.919  81.551  79.695  1.00  0.00     0.080 C 
BRANCH  12  13
ATOM     13  C   UNL     1      96.663  82.084  79.004  1.00  0.00     0.043 C 
BRANCH  13  14
ATOM     14  C   UNL     1      96.836  82.256  77.513  1.00  0.00    -0.044 A 
ATOM     15  C   UNL     1      97.910  81.651  76.861  1.00  0.00     0.054 A 
ATOM     16  C   UNL     1      95.921  83.020  76.789  1.00  0.00     0.008 A 
ATOM     17  C   UNL     1      98.068  81.810  75.484  1.00  0.00     0.160 A 
ATOM     18  C   UNL     1      96.079  83.179  75.412  1.00  0.00     0.050 A 
ATOM     19  C   UNL     1      97.153  82.574  74.760  1.00  0.00     0.157 A 
BRANCH  17  20
ATOM     20  O   UNL     1      99.122  81.215  74.858  1.00  0.00    -0.493 OA
ATOM     21  C   UNL     1     100.184  80.741  75.684  1.00  0.00     0.278 C 
ENDBRANCH  17  20
BRANCH  19  22
ATOM     22  O   UNL     1      97.297  82.737  73.415  1.00  0.00    -0.504 OA
ATOM     23  H   UNL     1      98.129  82.320  73.133  1.00  0.00     0.293 HD
ENDBRANCH  19  22
ENDBRANCH  13  14
ENDBRANCH  12  13
ENDBRANCH  10  12
ENDBRANCH   1  10
TORSDOF 12
ENDMDL
