MODEL 1
REMARK VINA RESULT:    -6.507      0.000      0.000
REMARK INTER + INTRA:         -12.100
REMARK INTER:                 -11.452
REMARK INTRA:                  -0.648
REMARK UNBOUND:                -0.648
REMARK SMILES C=C(C)[C@]12C[C@@H](C)[C@@]34O[C@](Cc5ccccc5)(O[C@@H]1[C@@H]3C=C(COC(=O)Cc1ccc(O)c(OC)c1)C[C@]1(O)C(=O)C(C)=C[C@@H]41)O2
REMARK SMILES IDX 23 1 22 2 21 3 20 4 9 5 8 6 10 7 6 8 18 9 46 10 19 11 5 12
REMARK SMILES IDX 7 13 4 14 45 15 38 16 44 17 40 18 42 20 41 21 43 22 39 23
REMARK SMILES IDX 11 25 12 26 13 27 17 28 14 29 16 30 15 31 2 32 3 33 1 34
REMARK SMILES IDX 37 35 24 37 25 38 26 39 27 40 28 41 36 42 29 43 33 44 30 45
REMARK SMILES IDX 31 46 34 47 35 48 32 49
REMARK H PARENT 39 24 32 50
REMARK Flexibility Score: 90.00
ROOT
ATOM      1  C   UNL     1      96.809  81.340  81.414  1.00  0.00     0.264 C 
ENDROOT
BRANCH   1   2
ATOM      2  C   UNL     1      96.729  80.995  82.883  1.00  0.00    -0.033 C 
ATOM      3  C   UNL     1      95.646  81.373  83.591  1.00  0.00    -0.015 C 
BRANCH   3   4
ATOM      4  C   UNL     1      95.362  81.219  85.076  1.00  0.00     0.078 C 
ATOM      5  O   UNL     1      94.124  79.096  85.357  1.00  0.00    -0.319 OA
ATOM      6  C   UNL     1      95.375  79.771  85.694  1.00  0.00     0.095 C 
ATOM      7  C   UNL     1      92.936  79.902  85.476  1.00  0.00     0.289 C 
ATOM      8  C   UNL     1      95.479  79.922  87.268  1.00  0.00     0.023 C 
ATOM      9  O   UNL     1      93.021  81.070  84.664  1.00  0.00    -0.320 OA
ATOM     10  O   UNL     1      92.733  80.372  86.806  1.00  0.00    -0.313 OA
ATOM     11  C   UNL     1      93.980  81.830  85.414  1.00  0.00     0.170 C 
ATOM     12  C   UNL     1      94.743  81.203  87.769  1.00  0.00     0.049 C 
ATOM     13  C   UNL     1      95.003  78.708  88.081  1.00  0.00     0.011 C 
ATOM     14  C   UNL     1      93.552  81.556  86.878  1.00  0.00     0.122 C 
BRANCH   6  15
ATOM     15  C   UNL     1      96.479  78.898  85.032  1.00  0.00     0.086 C 
ATOM     16  C   UNL     1      97.837  79.589  84.787  1.00  0.00     0.140 CG0
ATOM     17  C   UNL     1      96.862  77.589  85.665  1.00  0.00    -0.010 C 
ATOM     18  C   UNL     1      98.821  78.458  84.998  1.00  0.00     0.190 C 
ATOM     19  G   UNL     1      97.932  80.194  83.387  1.00  0.00     0.000 G0
ATOM     20  C   UNL     1      98.167  77.300  85.637  1.00  0.00    -0.008 C 
ATOM     21  O   UNL     1     100.012  78.496  84.729  1.00  0.00    -0.291 OA
ATOM     22  C   UNL     1      98.883  76.087  86.082  1.00  0.00     0.048 C 
BRANCH  16  23
ATOM     23  O   UNL     1      98.188  80.533  85.784  1.00  0.00    -0.381 OA
ATOM     24  H   UNL     1      98.875  80.142  86.350  1.00  0.00     0.212 HD
ENDBRANCH  16  23
ENDBRANCH   6  15
BRANCH   7  25
ATOM     25  C   UNL     1      91.748  79.065  85.047  1.00  0.00     0.135 C 
BRANCH  25  26
ATOM     26  C   UNL     1      90.462  79.852  85.077  1.00  0.00    -0.040 A 
ATOM     27  C   UNL     1      90.255  80.884  84.161  1.00  0.00     0.004 A 
ATOM     28  C   UNL     1      89.479  79.548  86.019  1.00  0.00     0.004 A 
ATOM     29  C   UNL     1      89.065  81.612  84.188  1.00  0.00     0.000 A 
ATOM     30  C   UNL     1      88.289  80.276  86.046  1.00  0.00     0.000 A 
ATOM     31  C   UNL     1      88.083  81.308  85.130  1.00  0.00     0.000 A 
ENDBRANCH  25  26
ENDBRANCH   7  25
BRANCH  14  32
ATOM     32  C   UNL     1      92.725  82.667  87.438  1.00  0.00    -0.046 C 
ATOM     33  C   UNL     1      92.952  84.026  86.845  1.00  0.00     0.042 C 
ATOM     34  C   UNL     1      91.830  82.462  88.416  1.00  0.00     0.010 C 
ENDBRANCH  14  32
ENDBRANCH   3   4
BRANCH   2  35
ATOM     35  C   UNL     1      97.938  80.226  83.379  1.00  0.00     0.078 CG0
ATOM     36  G   UNL     1      97.838  79.584  84.762  1.00  0.00     0.000 G0
ENDBRANCH   2  35
ENDBRANCH   1   2
BRANCH   1  37
ATOM     37  O   UNL     1      98.158  81.318  81.002  1.00  0.00    -0.461 OA
BRANCH  37  38
ATOM     38  C   UNL     1      98.382  81.083  79.665  1.00  0.00     0.310 C 
ATOM     39  O   UNL     1      99.388  80.563  79.202  1.00  0.00    -0.252 OA
BRANCH  38  40
ATOM     40  C   UNL     1      97.197  81.564  78.862  1.00  0.00     0.158 C 
BRANCH  40  41
ATOM     41  C   UNL     1      97.202  81.057  77.443  1.00  0.00    -0.033 A 
ATOM     42  C   UNL     1      97.699  81.862  76.417  1.00  0.00     0.054 A 
ATOM     43  C   UNL     1      96.712  79.784  77.155  1.00  0.00     0.008 A 
ATOM     44  C   UNL     1      97.704  81.393  75.103  1.00  0.00     0.160 A 
ATOM     45  C   UNL     1      96.718  79.314  75.842  1.00  0.00     0.050 A 
ATOM     46  C   UNL     1      97.213  80.118  74.816  1.00  0.00     0.157 A 
BRANCH  44  47
ATOM     47  O   UNL     1      98.190  82.187  74.110  1.00  0.00    -0.493 OA
ATOM     48  C   UNL     1      97.691  83.522  74.045  1.00  0.00     0.278 C 
ENDBRANCH  44  47
BRANCH  46  49
ATOM     49  O   UNL     1      97.214  79.649  73.537  1.00  0.00    -0.504 OA
ATOM     50  H   UNL     1      96.503  80.086  73.039  1.00  0.00     0.293 HD
ENDBRANCH  46  49
ENDBRANCH  40  41
ENDBRANCH  38  40
ENDBRANCH  37  38
ENDBRANCH   1  37
TORSDOF 11
ENDMDL
MODEL 2
REMARK VINA RESULT:    -6.442     25.450     28.661
REMARK INTER + INTRA:         -11.985
REMARK INTER:                 -10.940
REMARK INTRA:                  -1.045
REMARK UNBOUND:                -0.648
REMARK SMILES C=C(C)[C@]12C[C@@H](C)[C@@]34O[C@](Cc5ccccc5)(O[C@@H]1[C@@H]3C=C(COC(=O)Cc1ccc(O)c(OC)c1)C[C@]1(O)C(=O)C(C)=C[C@@H]41)O2
REMARK SMILES IDX 23 1 22 2 21 3 20 4 9 5 8 6 10 7 6 8 18 9 46 10 19 11 5 12
REMARK SMILES IDX 7 13 4 14 45 15 38 16 44 17 40 18 42 20 41 21 43 22 39 23
REMARK SMILES IDX 11 25 12 26 13 27 17 28 14 29 16 30 15 31 2 32 3 33 1 34
REMARK SMILES IDX 37 35 24 37 25 38 26 39 27 40 28 41 36 42 29 43 33 44 30 45
REMARK SMILES IDX 31 46 34 47 35 48 32 49
REMARK H PARENT 39 24 32 50
REMARK Flexibility Score: 90.00
ROOT
ATOM      1  C   UNL     1      76.190  95.075  67.171  1.00  0.00     0.264 C 
ENDROOT
BRANCH   1   2
ATOM      2  C   UNL     1      75.226  93.962  67.513  1.00  0.00    -0.033 C 
ATOM      3  C   UNL     1      75.279  92.807  66.820  1.00  0.00    -0.015 C 
BRANCH   3   4
ATOM      4  C   UNL     1      74.384  91.583  66.915  1.00  0.00     0.078 C 
ATOM      5  O   UNL     1      75.436  90.046  68.543  1.00  0.00    -0.319 OA
ATOM      6  C   UNL     1      74.247  90.862  68.308  1.00  0.00     0.095 C 
ATOM      7  C   UNL     1      75.905  89.297  67.406  1.00  0.00     0.289 C 
ATOM      8  C   UNL     1      72.973  89.922  68.239  1.00  0.00     0.023 C 
ATOM      9  O   UNL     1      76.190  90.155  66.304  1.00  0.00    -0.320 OA
ATOM     10  O   UNL     1      74.933  88.370  66.931  1.00  0.00    -0.313 OA
ATOM     11  C   UNL     1      74.856  90.506  65.907  1.00  0.00     0.170 C 
ATOM     12  C   UNL     1      72.766  89.345  66.805  1.00  0.00     0.049 C 
ATOM     13  C   UNL     1      72.944  88.775  69.261  1.00  0.00     0.011 C 
ATOM     14  C   UNL     1      74.095  89.167  66.069  1.00  0.00     0.122 C 
BRANCH   6  15
ATOM     15  C   UNL     1      74.251  91.899  69.468  1.00  0.00     0.086 C 
ATOM     16  C   UNL     1      73.427  93.182  69.237  1.00  0.00     0.140 CG0
ATOM     17  C   UNL     1      73.840  91.463  70.847  1.00  0.00    -0.010 C 
ATOM     18  C   UNL     1      72.914  93.495  70.626  1.00  0.00     0.190 C 
ATOM     19  G   UNL     1      74.273  94.314  68.656  1.00  0.00     0.000 G0
ATOM     20  C   UNL     1      73.111  92.349  71.534  1.00  0.00    -0.008 C 
ATOM     21  O   UNL     1      72.360  94.532  70.960  1.00  0.00    -0.291 OA
ATOM     22  C   UNL     1      72.610  92.297  72.922  1.00  0.00     0.048 C 
BRANCH  16  23
ATOM     23  O   UNL     1      72.246  92.977  68.478  1.00  0.00    -0.381 OA
ATOM     24  H   UNL     1      71.999  93.818  68.062  1.00  0.00     0.212 HD
ENDBRANCH  16  23
ENDBRANCH   6  15
BRANCH   7  25
ATOM     25  C   UNL     1      77.160  88.551  67.813  1.00  0.00     0.135 C 
BRANCH  25  26
ATOM     26  C   UNL     1      76.965  87.056  67.775  1.00  0.00    -0.040 A 
ATOM     27  C   UNL     1      77.366  86.328  66.654  1.00  0.00     0.004 A 
ATOM     28  C   UNL     1      76.386  86.400  68.862  1.00  0.00     0.004 A 
ATOM     29  C   UNL     1      77.186  84.945  66.620  1.00  0.00     0.000 A 
ATOM     30  C   UNL     1      76.207  85.017  68.827  1.00  0.00     0.000 A 
ATOM     31  C   UNL     1      76.607  84.290  67.706  1.00  0.00     0.000 A 
ENDBRANCH  25  26
ENDBRANCH   7  25
BRANCH  14  32
ATOM     32  C   UNL     1      73.939  88.448  64.769  1.00  0.00    -0.046 C 
ATOM     33  C   UNL     1      72.847  88.940  63.867  1.00  0.00     0.042 C 
ATOM     34  C   UNL     1      74.731  87.421  64.427  1.00  0.00     0.010 C 
ENDBRANCH  14  32
ENDBRANCH   3   4
BRANCH   2  35
ATOM     35  C   UNL     1      74.290  94.316  68.653  1.00  0.00     0.078 CG0
ATOM     36  G   UNL     1      73.419  93.194  69.216  1.00  0.00     0.000 G0
ENDBRANCH   2  35
ENDBRANCH   1   2
BRANCH   1  37
ATOM     37  O   UNL     1      75.480  96.143  66.581  1.00  0.00    -0.461 OA
BRANCH  37  38
ATOM     38  C   UNL     1      75.733  97.395  67.090  1.00  0.00     0.310 C 
ATOM     39  O   UNL     1      75.023  97.983  67.895  1.00  0.00    -0.252 OA
BRANCH  38  40
ATOM     40  C   UNL     1      77.017  97.929  66.502  1.00  0.00     0.158 C 
BRANCH  40  41
ATOM     41  C   UNL     1      78.014  98.351  67.550  1.00  0.00    -0.033 A 
ATOM     42  C   UNL     1      78.285  97.512  68.632  1.00  0.00     0.054 A 
ATOM     43  C   UNL     1      78.666  99.579  67.440  1.00  0.00     0.008 A 
ATOM     44  C   UNL     1      79.207  97.903  69.603  1.00  0.00     0.160 A 
ATOM     45  C   UNL     1      79.588  99.969  68.410  1.00  0.00     0.050 A 
ATOM     46  C   UNL     1      79.859  99.132  69.492  1.00  0.00     0.157 A 
BRANCH  44  47
ATOM     47  O   UNL     1      79.463  97.076  70.655  1.00  0.00    -0.493 OA
ATOM     48  C   UNL     1      78.340  96.461  71.285  1.00  0.00     0.278 C 
ENDBRANCH  44  47
BRANCH  46  49
ATOM     49  O   UNL     1      80.762  99.523  70.433  1.00  0.00    -0.504 OA
ATOM     50  H   UNL     1      81.549  99.879  69.988  1.00  0.00     0.293 HD
ENDBRANCH  46  49
ENDBRANCH  40  41
ENDBRANCH  38  40
ENDBRANCH  37  38
ENDBRANCH   1  37
TORSDOF 11
ENDMDL
MODEL 3
REMARK VINA RESULT:    -6.388      7.272     12.770
REMARK INTER + INTRA:         -11.891
REMARK INTER:                  -9.491
REMARK INTRA:                  -2.400
REMARK UNBOUND:                -0.648
REMARK SMILES C=C(C)[C@]12C[C@@H](C)[C@@]34O[C@](Cc5ccccc5)(O[C@@H]1[C@@H]3C=C(COC(=O)Cc1ccc(O)c(OC)c1)C[C@]1(O)C(=O)C(C)=C[C@@H]41)O2
REMARK SMILES IDX 23 1 22 2 21 3 20 4 9 5 8 6 10 7 6 8 18 9 46 10 19 11 5 12
REMARK SMILES IDX 7 13 4 14 45 15 38 16 44 17 40 18 42 20 41 21 43 22 39 23
REMARK SMILES IDX 11 25 12 26 13 27 17 28 14 29 16 30 15 31 2 32 3 33 1 34
REMARK SMILES IDX 37 35 24 37 25 38 26 39 27 40 28 41 36 42 29 43 33 44 30 45
REMARK SMILES IDX 31 46 34 47 35 48 32 49
REMARK H PARENT 39 24 32 50
REMARK Flexibility Score: 90.00
ROOT
ATOM      1  C   UNL     1      96.646  77.443  76.232  1.00  0.00     0.264 C 
ENDROOT
BRANCH   1   2
ATOM      2  C   UNL     1      97.420  78.720  76.003  1.00  0.00    -0.033 C 
ATOM      3  C   UNL     1      98.506  78.699  75.204  1.00  0.00    -0.015 C 
BRANCH   3   4
ATOM      4  C   UNL     1      99.487  79.814  74.878  1.00  0.00     0.078 C 
ATOM      5  O   UNL     1      98.665  80.919  72.823  1.00  0.00    -0.319 OA
ATOM      6  C   UNL     1      98.927  81.141  74.243  1.00  0.00     0.095 C 
ATOM      7  C   UNL     1      99.676  80.174  72.119  1.00  0.00     0.289 C 
ATOM      8  C   UNL     1     100.042  82.256  74.401  1.00  0.00     0.023 C 
ATOM      9  O   UNL     1      99.887  78.897  72.716  1.00  0.00    -0.320 OA
ATOM     10  O   UNL     1     100.943  80.825  72.143  1.00  0.00    -0.313 OA
ATOM     11  C   UNL     1     100.578  79.290  73.913  1.00  0.00     0.170 C 
ATOM     12  C   UNL     1     101.475  81.647  74.312  1.00  0.00     0.049 C 
ATOM     13  C   UNL     1      99.930  83.444  73.432  1.00  0.00     0.011 C 
ATOM     14  C   UNL     1     101.512  80.417  73.405  1.00  0.00     0.122 C 
BRANCH   6  15
ATOM     15  C   UNL     1      97.536  81.497  74.844  1.00  0.00     0.086 C 
ATOM     16  C   UNL     1      97.389  81.318  76.370  1.00  0.00     0.140 CG0
ATOM     17  C   UNL     1      96.952  82.859  74.594  1.00  0.00    -0.010 C 
ATOM     18  C   UNL     1      96.445  82.443  76.740  1.00  0.00     0.190 C 
ATOM     19  G   UNL     1      96.834  79.943  76.738  1.00  0.00     0.000 G0
ATOM     20  C   UNL     1      96.309  83.406  75.631  1.00  0.00    -0.008 C 
ATOM     21  O   UNL     1      95.899  82.581  77.824  1.00  0.00    -0.291 OA
ATOM     22  C   UNL     1      95.554  84.672  75.722  1.00  0.00     0.048 C 
BRANCH  16  23
ATOM     23  O   UNL     1      98.569  81.613  77.099  1.00  0.00    -0.381 OA
ATOM     24  H   UNL     1      98.430  81.355  78.025  1.00  0.00     0.212 HD
ENDBRANCH  16  23
ENDBRANCH   6  15
BRANCH   7  25
ATOM     25  C   UNL     1      99.224  79.999  70.683  1.00  0.00     0.135 C 
BRANCH  25  26
ATOM     26  C   UNL     1     100.317  80.343  69.701  1.00  0.00    -0.040 A 
ATOM     27  C   UNL     1     101.041  79.325  69.080  1.00  0.00     0.004 A 
ATOM     28  C   UNL     1     100.601  81.677  69.413  1.00  0.00     0.004 A 
ATOM     29  C   UNL     1     102.051  79.643  68.171  1.00  0.00     0.000 A 
ATOM     30  C   UNL     1     101.612  81.995  68.505  1.00  0.00     0.000 A 
ATOM     31  C   UNL     1     102.336  80.977  67.884  1.00  0.00     0.000 A 
ENDBRANCH  25  26
ENDBRANCH   7  25
BRANCH  14  32
ATOM     32  C   UNL     1     102.901  79.926  73.158  1.00  0.00    -0.046 C 
ATOM     33  C   UNL     1     103.663  79.462  74.364  1.00  0.00     0.042 C 
ATOM     34  C   UNL     1     103.437  79.900  71.929  1.00  0.00     0.010 C 
ENDBRANCH  14  32
ENDBRANCH   3   4
BRANCH   2  35
ATOM     35  C   UNL     1      96.833  79.912  76.736  1.00  0.00     0.078 CG0
ATOM     36  G   UNL     1      97.367  81.294  76.364  1.00  0.00     0.000 G0
ENDBRANCH   2  35
ENDBRANCH   1   2
BRANCH   1  37
ATOM     37  O   UNL     1      97.495  76.482  76.820  1.00  0.00    -0.461 OA
BRANCH  37  38
ATOM     38  C   UNL     1      97.602  76.522  78.191  1.00  0.00     0.310 C 
ATOM     39  O   UNL     1      96.765  76.996  78.947  1.00  0.00    -0.252 OA
BRANCH  38  40
ATOM     40  C   UNL     1      98.908  75.892  78.614  1.00  0.00     0.158 C 
BRANCH  40  41
ATOM     41  C   UNL     1     100.091  76.805  78.422  1.00  0.00    -0.033 A 
ATOM     42  C   UNL     1     100.487  77.659  79.452  1.00  0.00     0.054 A 
ATOM     43  C   UNL     1     100.790  76.796  77.215  1.00  0.00     0.008 A 
ATOM     44  C   UNL     1     101.582  78.505  79.274  1.00  0.00     0.160 A 
ATOM     45  C   UNL     1     101.886  77.642  77.038  1.00  0.00     0.050 A 
ATOM     46  C   UNL     1     102.281  78.496  78.066  1.00  0.00     0.157 A 
BRANCH  44  47
ATOM     47  O   UNL     1     101.959  79.335  80.286  1.00  0.00    -0.493 OA
ATOM     48  C   UNL     1     101.273  79.195  81.529  1.00  0.00     0.278 C 
ENDBRANCH  44  47
BRANCH  46  49
ATOM     49  O   UNL     1     103.353  79.316  77.881  1.00  0.00    -0.504 OA
ATOM     50  H   UNL     1     104.133  78.776  77.669  1.00  0.00     0.293 HD
ENDBRANCH  46  49
ENDBRANCH  40  41
ENDBRANCH  38  40
ENDBRANCH  37  38
ENDBRANCH   1  37
TORSDOF 11
ENDMDL
MODEL 4
REMARK VINA RESULT:    -6.230      8.549     13.036
REMARK INTER + INTRA:         -11.613
REMARK INTER:                 -10.973
REMARK INTRA:                  -0.640
REMARK UNBOUND:                -0.648
REMARK SMILES C=C(C)[C@]12C[C@@H](C)[C@@]34O[C@](Cc5ccccc5)(O[C@@H]1[C@@H]3C=C(COC(=O)Cc1ccc(O)c(OC)c1)C[C@]1(O)C(=O)C(C)=C[C@@H]41)O2
REMARK SMILES IDX 23 1 22 2 21 3 20 4 9 5 8 6 10 7 6 8 18 9 46 10 19 11 5 12
REMARK SMILES IDX 7 13 4 14 45 15 38 16 44 17 40 18 42 20 41 21 43 22 39 23
REMARK SMILES IDX 11 25 12 26 13 27 17 28 14 29 16 30 15 31 2 32 3 33 1 34
REMARK SMILES IDX 37 35 24 37 25 38 26 39 27 40 28 41 36 42 29 43 33 44 30 45
REMARK SMILES IDX 31 46 34 47 35 48 32 49
REMARK H PARENT 39 24 32 50
REMARK Flexibility Score: 90.00
ROOT
ATOM      1  C   UNL     1     101.153  84.223  70.488  1.00  0.00     0.264 C 
ENDROOT
BRANCH   1   2
ATOM      2  C   UNL     1     101.137  83.224  71.621  1.00  0.00    -0.033 C 
ATOM      3  C   UNL     1     100.066  83.170  72.438  1.00  0.00    -0.015 C 
BRANCH   3   4
ATOM      4  C   UNL     1      99.841  82.320  73.679  1.00  0.00     0.078 C 
ATOM      5  O   UNL     1      98.695  80.256  72.940  1.00  0.00    -0.319 OA
ATOM      6  C   UNL     1      99.930  80.755  73.540  1.00  0.00     0.095 C 
ATOM      7  C   UNL     1      97.482  80.851  73.441  1.00  0.00     0.289 C 
ATOM      8  C   UNL     1     100.083  80.152  74.998  1.00  0.00     0.023 C 
ATOM      9  O   UNL     1      97.494  82.266  73.275  1.00  0.00    -0.320 OA
ATOM     10  O   UNL     1      97.307  80.628  74.837  1.00  0.00    -0.313 OA
ATOM     11  C   UNL     1      98.449  82.631  74.283  1.00  0.00     0.170 C 
ATOM     12  C   UNL     1      99.317  81.008  76.053  1.00  0.00     0.049 C 
ATOM     13  C   UNL     1      99.682  78.676  75.148  1.00  0.00     0.011 C 
ATOM     14  C   UNL     1      98.083  81.679  75.449  1.00  0.00     0.122 C 
BRANCH   6  15
ATOM     15  C   UNL     1     101.043  80.353  72.530  1.00  0.00     0.086 C 
ATOM     16  C   UNL     1     102.371  81.131  72.636  1.00  0.00     0.140 CG0
ATOM     17  C   UNL     1     101.484  78.918  72.452  1.00  0.00    -0.010 C 
ATOM     18  C   UNL     1     103.396  80.078  72.269  1.00  0.00     0.190 C 
ATOM     19  G   UNL     1     102.409  82.337  71.699  1.00  0.00     0.000 G0
ATOM     20  C   UNL     1     102.796  78.731  72.278  1.00  0.00    -0.008 C 
ATOM     21  O   UNL     1     104.577  80.289  72.041  1.00  0.00    -0.291 OA
ATOM     22  C   UNL     1     103.561  77.483  72.078  1.00  0.00     0.048 C 
BRANCH  16  23
ATOM     23  O   UNL     1     102.719  81.494  73.962  1.00  0.00    -0.381 OA
ATOM     24  H   UNL     1     103.635  81.816  73.961  1.00  0.00     0.212 HD
ENDBRANCH  16  23
ENDBRANCH   6  15
BRANCH   7  25
ATOM     25  C   UNL     1      96.313  80.256  72.683  1.00  0.00     0.135 C 
BRANCH  25  26
ATOM     26  C   UNL     1      96.715  79.040  71.886  1.00  0.00    -0.040 A 
ATOM     27  C   UNL     1      97.071  79.173  70.543  1.00  0.00     0.004 A 
ATOM     28  C   UNL     1      96.734  77.784  72.491  1.00  0.00     0.004 A 
ATOM     29  C   UNL     1      97.443  78.049  69.806  1.00  0.00     0.000 A 
ATOM     30  C   UNL     1      97.106  76.659  71.753  1.00  0.00     0.000 A 
ATOM     31  C   UNL     1      97.461  76.793  70.411  1.00  0.00     0.000 A 
ENDBRANCH  25  26
ENDBRANCH   7  25
BRANCH  14  32
ATOM     32  C   UNL     1      97.235  82.353  76.478  1.00  0.00    -0.046 C 
ATOM     33  C   UNL     1      96.262  83.374  75.968  1.00  0.00     0.042 C 
ATOM     34  C   UNL     1      97.337  82.061  77.783  1.00  0.00     0.010 C 
ENDBRANCH  14  32
ENDBRANCH   3   4
BRANCH   2  35
ATOM     35  C   UNL     1     102.391  82.371  71.680  1.00  0.00     0.078 CG0
ATOM     36  G   UNL     1     102.364  81.151  72.598  1.00  0.00     0.000 G0
ENDBRANCH   2  35
ENDBRANCH   1   2
BRANCH   1  37
ATOM     37  O   UNL     1     102.049  85.267  70.799  1.00  0.00    -0.461 OA
BRANCH  37  38
ATOM     38  C   UNL     1     102.876  85.682  69.781  1.00  0.00     0.310 C 
ATOM     39  O   UNL     1     103.770  86.510  69.895  1.00  0.00    -0.252 OA
BRANCH  38  40
ATOM     40  C   UNL     1     102.509  84.959  68.506  1.00  0.00     0.158 C 
BRANCH  40  41
ATOM     41  C   UNL     1     101.747  85.826  67.537  1.00  0.00    -0.033 A 
ATOM     42  C   UNL     1     100.438  85.493  67.186  1.00  0.00     0.054 A 
ATOM     43  C   UNL     1     102.348  86.960  66.993  1.00  0.00     0.008 A 
ATOM     44  C   UNL     1      99.732  86.295  66.289  1.00  0.00     0.160 A 
ATOM     45  C   UNL     1     101.642  87.762  66.096  1.00  0.00     0.050 A 
ATOM     46  C   UNL     1     100.334  87.429  65.744  1.00  0.00     0.157 A 
BRANCH  44  47
ATOM     47  O   UNL     1      98.455  85.960  65.953  1.00  0.00    -0.493 OA
ATOM     48  C   UNL     1      97.405  86.623  66.654  1.00  0.00     0.278 C 
ENDBRANCH  44  47
BRANCH  46  49
ATOM     49  O   UNL     1      99.654  88.220  64.868  1.00  0.00    -0.504 OA
ATOM     50  H   UNL     1      99.093  87.660  64.305  1.00  0.00     0.293 HD
ENDBRANCH  46  49
ENDBRANCH  40  41
ENDBRANCH  38  40
ENDBRANCH  37  38
ENDBRANCH   1  37
TORSDOF 11
ENDMDL
MODEL 5
REMARK VINA RESULT:    -6.118     32.011     36.665
REMARK INTER + INTRA:         -11.416
REMARK INTER:                  -9.583
REMARK INTRA:                  -1.833
REMARK UNBOUND:                -0.648
REMARK SMILES C=C(C)[C@]12C[C@@H](C)[C@@]34O[C@](Cc5ccccc5)(O[C@@H]1[C@@H]3C=C(COC(=O)Cc1ccc(O)c(OC)c1)C[C@]1(O)C(=O)C(C)=C[C@@H]41)O2
REMARK SMILES IDX 23 1 22 2 21 3 20 4 9 5 8 6 10 7 6 8 18 9 46 10 19 11 5 12
REMARK SMILES IDX 7 13 4 14 45 15 38 16 44 17 40 18 42 20 41 21 43 22 39 23
REMARK SMILES IDX 11 25 12 26 13 27 17 28 14 29 16 30 15 31 2 32 3 33 1 34
REMARK SMILES IDX 37 35 24 37 25 38 26 39 27 40 28 41 36 42 29 43 33 44 30 45
REMARK SMILES IDX 31 46 34 47 35 48 32 49
REMARK H PARENT 39 24 32 50
REMARK Flexibility Score: 90.00
ROOT
ATOM      1  C   UNL     1      59.670  88.999  75.558  1.00  0.00     0.264 C 
ENDROOT
BRANCH   1   2
ATOM      2  C   UNL     1      60.929  88.182  75.382  1.00  0.00    -0.033 C 
ATOM      3  C   UNL     1      60.872  87.022  74.698  1.00  0.00    -0.015 C 
BRANCH   3   4
ATOM      4  C   UNL     1      61.963  85.993  74.449  1.00  0.00     0.078 C 
ATOM      5  O   UNL     1      63.044  86.592  72.307  1.00  0.00    -0.319 OA
ATOM      6  C   UNL     1      63.288  86.463  73.741  1.00  0.00     0.095 C 
ATOM      7  C   UNL     1      62.267  85.533  71.715  1.00  0.00     0.289 C 
ATOM      8  C   UNL     1      64.385  85.347  73.987  1.00  0.00     0.023 C 
ATOM      9  O   UNL     1      60.999  85.405  72.352  1.00  0.00    -0.320 OA
ATOM     10  O   UNL     1      62.896  84.261  71.851  1.00  0.00    -0.313 OA
ATOM     11  C   UNL     1      61.401  84.825  73.602  1.00  0.00     0.170 C 
ATOM     12  C   UNL     1      63.749  83.924  74.046  1.00  0.00     0.049 C 
ATOM     13  C   UNL     1      65.557  85.342  72.992  1.00  0.00     0.011 C 
ATOM     14  C   UNL     1      62.501  83.825  73.168  1.00  0.00     0.122 C 
BRANCH   6  15
ATOM     15  C   UNL     1      63.679  87.898  74.200  1.00  0.00     0.086 C 
ATOM     16  C   UNL     1      63.536  88.193  75.707  1.00  0.00     0.140 CG0
ATOM     17  C   UNL     1      65.045  88.430  73.868  1.00  0.00    -0.010 C 
ATOM     18  C   UNL     1      64.684  89.147  75.963  1.00  0.00     0.190 C 
ATOM     19  G   UNL     1      62.179  88.805  76.049  1.00  0.00     0.000 G0
ATOM     20  C   UNL     1      65.625  89.159  74.827  1.00  0.00    -0.008 C 
ATOM     21  O   UNL     1      64.854  89.790  76.988  1.00  0.00    -0.291 OA
ATOM     22  C   UNL     1      66.905  89.896  74.820  1.00  0.00     0.048 C 
BRANCH  16  23
ATOM     23  O   UNL     1      63.827  87.082  76.540  1.00  0.00    -0.381 OA
ATOM     24  H   UNL     1      63.002  86.789  76.959  1.00  0.00     0.212 HD
ENDBRANCH  16  23
ENDBRANCH   6  15
BRANCH   7  25
ATOM     25  C   UNL     1      62.074  85.848  70.246  1.00  0.00     0.135 C 
BRANCH  25  26
ATOM     26  C   UNL     1      62.222  84.622  69.380  1.00  0.00    -0.040 A 
ATOM     27  C   UNL     1      63.445  84.344  68.769  1.00  0.00     0.004 A 
ATOM     28  C   UNL     1      61.138  83.765  69.192  1.00  0.00     0.004 A 
ATOM     29  C   UNL     1      63.583  83.209  67.969  1.00  0.00     0.000 A 
ATOM     30  C   UNL     1      61.276  82.631  68.392  1.00  0.00     0.000 A 
ATOM     31  C   UNL     1      62.498  82.353  67.780  1.00  0.00     0.000 A 
ENDBRANCH  25  26
ENDBRANCH   7  25
BRANCH  14  32
ATOM     32  C   UNL     1      61.981  82.428  73.064  1.00  0.00    -0.046 C 
ATOM     33  C   UNL     1      62.939  81.335  73.437  1.00  0.00     0.042 C 
ATOM     34  C   UNL     1      60.729  82.165  72.661  1.00  0.00     0.010 C 
ENDBRANCH  14  32
ENDBRANCH   3   4
BRANCH   2  35
ATOM     35  C   UNL     1      62.146  88.818  76.027  1.00  0.00     0.078 CG0
ATOM     36  G   UNL     1      63.509  88.213  75.695  1.00  0.00     0.000 G0
ENDBRANCH   2  35
ENDBRANCH   1   2
BRANCH   1  37
ATOM     37  O   UNL     1      58.689  88.547  74.650  1.00  0.00    -0.461 OA
BRANCH  37  38
ATOM     38  C   UNL     1      57.451  88.267  75.182  1.00  0.00     0.310 C 
ATOM     39  O   UNL     1      57.232  88.021  76.360  1.00  0.00    -0.252 OA
BRANCH  38  40
ATOM     40  C   UNL     1      56.411  88.310  74.087  1.00  0.00     0.158 C 
BRANCH  40  41
ATOM     41  C   UNL     1      56.736  87.399  72.931  1.00  0.00    -0.033 A 
ATOM     42  C   UNL     1      57.049  87.940  71.683  1.00  0.00     0.054 A 
ATOM     43  C   UNL     1      56.725  86.016  73.108  1.00  0.00     0.008 A 
ATOM     44  C   UNL     1      57.350  87.098  70.613  1.00  0.00     0.160 A 
ATOM     45  C   UNL     1      57.026  85.173  72.038  1.00  0.00     0.050 A 
ATOM     46  C   UNL     1      57.338  85.713  70.791  1.00  0.00     0.157 A 
BRANCH  44  47
ATOM     47  O   UNL     1      57.652  87.638  69.400  1.00  0.00    -0.493 OA
ATOM     48  C   UNL     1      57.745  89.059  69.328  1.00  0.00     0.278 C 
ENDBRANCH  44  47
BRANCH  46  49
ATOM     49  O   UNL     1      57.631  84.881  69.754  1.00  0.00    -0.504 OA
ATOM     50  H   UNL     1      58.232  84.184  70.067  1.00  0.00     0.293 HD
ENDBRANCH  46  49
ENDBRANCH  40  41
ENDBRANCH  38  40
ENDBRANCH  37  38
ENDBRANCH   1  37
TORSDOF 11
ENDMDL
MODEL 6
REMARK VINA RESULT:    -6.073     33.218     37.179
REMARK INTER + INTRA:         -11.335
REMARK INTER:                  -9.544
REMARK INTRA:                  -1.791
REMARK UNBOUND:                -0.648
REMARK SMILES C=C(C)[C@]12C[C@@H](C)[C@@]34O[C@](Cc5ccccc5)(O[C@@H]1[C@@H]3C=C(COC(=O)Cc1ccc(O)c(OC)c1)C[C@]1(O)C(=O)C(C)=C[C@@H]41)O2
REMARK SMILES IDX 23 1 22 2 21 3 20 4 9 5 8 6 10 7 6 8 18 9 46 10 19 11 5 12
REMARK SMILES IDX 7 13 4 14 45 15 38 16 44 17 40 18 42 20 41 21 43 22 39 23
REMARK SMILES IDX 11 25 12 26 13 27 17 28 14 29 16 30 15 31 2 32 3 33 1 34
REMARK SMILES IDX 37 35 24 37 25 38 26 39 27 40 28 41 36 42 29 43 33 44 30 45
REMARK SMILES IDX 31 46 34 47 35 48 32 49
REMARK H PARENT 39 24 32 50
REMARK Flexibility Score: 90.00
ROOT
ATOM      1  C   UNL     1      59.459  87.905  75.570  1.00  0.00     0.264 C 
ENDROOT
BRANCH   1   2
ATOM      2  C   UNL     1      60.733  87.267  75.065  1.00  0.00    -0.033 C 
ATOM      3  C   UNL     1      60.676  86.052  74.483  1.00  0.00    -0.015 C 
BRANCH   3   4
ATOM      4  C   UNL     1      61.806  85.175  73.970  1.00  0.00     0.078 C 
ATOM      5  O   UNL     1      62.108  85.718  71.575  1.00  0.00    -0.319 OA
ATOM      6  C   UNL     1      62.773  85.763  72.875  1.00  0.00     0.095 C 
ATOM      7  C   UNL     1      61.383  84.505  71.295  1.00  0.00     0.289 C 
ATOM      8  C   UNL     1      64.065  84.848  72.835  1.00  0.00     0.023 C 
ATOM      9  O   UNL     1      60.392  84.254  72.288  1.00  0.00    -0.320 OA
ATOM     10  O   UNL     1      62.229  83.357  71.297  1.00  0.00    -0.313 OA
ATOM     11  C   UNL     1      61.229  83.861  73.387  1.00  0.00     0.170 C 
ATOM     12  C   UNL     1      63.721  83.360  73.150  1.00  0.00     0.049 C 
ATOM     13  C   UNL     1      64.884  84.919  71.536  1.00  0.00     0.011 C 
ATOM     14  C   UNL     1      62.309  82.996  72.691  1.00  0.00     0.122 C 
BRANCH   6  15
ATOM     15  C   UNL     1      63.033  87.277  73.126  1.00  0.00     0.086 C 
ATOM     16  C   UNL     1      63.272  87.692  74.592  1.00  0.00     0.140 CG0
ATOM     17  C   UNL     1      64.142  87.967  72.382  1.00  0.00    -0.010 C 
ATOM     18  C   UNL     1      64.270  88.822  74.452  1.00  0.00     0.190 C 
ATOM     19  G   UNL     1      61.983  88.132  75.285  1.00  0.00     0.000 G0
ATOM     20  C   UNL     1      64.838  88.861  73.091  1.00  0.00    -0.008 C 
ATOM     21  O   UNL     1      64.612  89.580  75.348  1.00  0.00    -0.291 OA
ATOM     22  C   UNL     1      65.924  89.771  72.673  1.00  0.00     0.048 C 
BRANCH  16  23
ATOM     23  O   UNL     1      63.966  86.721  75.358  1.00  0.00    -0.381 OA
ATOM     24  H   UNL     1      64.897  86.719  75.081  1.00  0.00     0.212 HD
ENDBRANCH  16  23
ENDBRANCH   6  15
BRANCH   7  25
ATOM     25  C   UNL     1      60.725  84.646  69.938  1.00  0.00     0.135 C 
BRANCH  25  26
ATOM     26  C   UNL     1      61.378  85.719  69.102  1.00  0.00    -0.040 A 
ATOM     27  C   UNL     1      62.602  85.471  68.482  1.00  0.00     0.004 A 
ATOM     28  C   UNL     1      60.757  86.959  68.949  1.00  0.00     0.004 A 
ATOM     29  C   UNL     1      63.206  86.464  67.709  1.00  0.00     0.000 A 
ATOM     30  C   UNL     1      61.360  87.951  68.176  1.00  0.00     0.000 A 
ATOM     31  C   UNL     1      62.585  87.703  67.556  1.00  0.00     0.000 A 
ENDBRANCH  25  26
ENDBRANCH   7  25
BRANCH  14  32
ATOM     32  C   UNL     1      62.023  81.535  72.816  1.00  0.00    -0.046 C 
ATOM     33  C   UNL     1      62.868  80.776  73.795  1.00  0.00     0.042 C 
ATOM     34  C   UNL     1      61.065  80.935  72.093  1.00  0.00     0.010 C 
ENDBRANCH  14  32
ENDBRANCH   3   4
BRANCH   2  35
ATOM     35  C   UNL     1      61.959  88.131  75.287  1.00  0.00     0.078 CG0
ATOM     36  G   UNL     1      63.247  87.712  74.580  1.00  0.00     0.000 G0
ENDBRANCH   2  35
ENDBRANCH   1   2
BRANCH   1  37
ATOM     37  O   UNL     1      58.423  86.946  75.564  1.00  0.00    -0.461 OA
BRANCH  37  38
ATOM     38  C   UNL     1      57.252  87.312  76.187  1.00  0.00     0.310 C 
ATOM     39  O   UNL     1      57.166  87.720  77.337  1.00  0.00    -0.252 OA
BRANCH  38  40
ATOM     40  C   UNL     1      56.096  87.132  75.232  1.00  0.00     0.158 C 
BRANCH  40  41
ATOM     41  C   UNL     1      56.379  87.677  73.856  1.00  0.00    -0.033 A 
ATOM     42  C   UNL     1      56.710  86.807  72.816  1.00  0.00     0.054 A 
ATOM     43  C   UNL     1      56.309  89.050  73.621  1.00  0.00     0.008 A 
ATOM     44  C   UNL     1      56.972  87.312  71.542  1.00  0.00     0.160 A 
ATOM     45  C   UNL     1      56.571  89.554  72.347  1.00  0.00     0.050 A 
ATOM     46  C   UNL     1      56.903  88.686  71.308  1.00  0.00     0.157 A 
BRANCH  44  47
ATOM     47  O   UNL     1      57.295  86.453  70.535  1.00  0.00    -0.493 OA
ATOM     48  C   UNL     1      57.312  85.062  70.850  1.00  0.00     0.278 C 
ENDBRANCH  44  47
BRANCH  46  49
ATOM     49  O   UNL     1      57.156  89.189  70.068  1.00  0.00    -0.504 OA
ATOM     50  H   UNL     1      56.449  89.812  69.829  1.00  0.00     0.293 HD
ENDBRANCH  46  49
ENDBRANCH  40  41
ENDBRANCH  38  40
ENDBRANCH  37  38
ENDBRANCH   1  37
TORSDOF 11
ENDMDL
MODEL 7
REMARK VINA RESULT:    -6.057      7.577     12.332
REMARK INTER + INTRA:         -11.307
REMARK INTER:                  -8.976
REMARK INTRA:                  -2.331
REMARK UNBOUND:                -0.648
REMARK SMILES C=C(C)[C@]12C[C@@H](C)[C@@]34O[C@](Cc5ccccc5)(O[C@@H]1[C@@H]3C=C(COC(=O)Cc1ccc(O)c(OC)c1)C[C@]1(O)C(=O)C(C)=C[C@@H]41)O2
REMARK SMILES IDX 23 1 22 2 21 3 20 4 9 5 8 6 10 7 6 8 18 9 46 10 19 11 5 12
REMARK SMILES IDX 7 13 4 14 45 15 38 16 44 17 40 18 42 20 41 21 43 22 39 23
REMARK SMILES IDX 11 25 12 26 13 27 17 28 14 29 16 30 15 31 2 32 3 33 1 34
REMARK SMILES IDX 37 35 24 37 25 38 26 39 27 40 28 41 36 42 29 43 33 44 30 45
REMARK SMILES IDX 31 46 34 47 35 48 32 49
REMARK H PARENT 39 24 32 50
REMARK Flexibility Score: 90.00
ROOT
ATOM      1  C   UNL     1      96.723  75.609  73.818  1.00  0.00     0.264 C 
ENDROOT
BRANCH   1   2
ATOM      2  C   UNL     1      96.935  77.096  73.655  1.00  0.00    -0.033 C 
ATOM      3  C   UNL     1      97.037  77.872  74.752  1.00  0.00    -0.015 C 
BRANCH   3   4
ATOM      4  C   UNL     1      97.173  79.382  74.857  1.00  0.00     0.078 C 
ATOM      5  O   UNL     1      99.594  79.883  74.950  1.00  0.00    -0.319 OA
ATOM      6  C   UNL     1      98.392  80.075  74.142  1.00  0.00     0.095 C 
ATOM      7  C   UNL     1      99.417  80.058  76.368  1.00  0.00     0.289 C 
ATOM      8  C   UNL     1      98.072  81.624  74.041  1.00  0.00     0.023 C 
ATOM      9  O   UNL     1      98.418  79.179  76.878  1.00  0.00    -0.320 OA
ATOM     10  O   UNL     1      98.979  81.373  76.700  1.00  0.00    -0.313 OA
ATOM     11  C   UNL     1      97.239  79.803  76.346  1.00  0.00     0.170 C 
ATOM     12  C   UNL     1      97.235  82.115  75.262  1.00  0.00     0.049 C 
ATOM     13  C   UNL     1      99.293  82.540  73.856  1.00  0.00     0.011 C 
ATOM     14  C   UNL     1      97.549  81.310  76.524  1.00  0.00     0.122 C 
BRANCH   6  15
ATOM     15  C   UNL     1      98.714  79.370  72.792  1.00  0.00     0.086 C 
ATOM     16  C   UNL     1      97.501  78.981  71.922  1.00  0.00     0.140 CG0
ATOM     17  C   UNL     1      99.644  80.035  71.817  1.00  0.00    -0.010 C 
ATOM     18  C   UNL     1      98.033  79.168  70.517  1.00  0.00     0.190 C 
ATOM     19  G   UNL     1      97.037  77.549  72.186  1.00  0.00     0.000 G0
ATOM     20  C   UNL     1      99.305  79.916  70.529  1.00  0.00    -0.008 C 
ATOM     21  O   UNL     1      97.476  78.801  69.494  1.00  0.00    -0.291 OA
ATOM     22  C   UNL     1     100.014  80.362  69.313  1.00  0.00     0.048 C 
BRANCH  16  23
ATOM     23  O   UNL     1      96.421  79.897  71.999  1.00  0.00    -0.381 OA
ATOM     24  H   UNL     1      96.734  80.766  71.699  1.00  0.00     0.212 HD
ENDBRANCH  16  23
ENDBRANCH   6  15
BRANCH   7  25
ATOM     25  C   UNL     1     100.741  79.779  77.050  1.00  0.00     0.135 C 
BRANCH  25  26
ATOM     26  C   UNL     1     101.871  79.648  76.059  1.00  0.00    -0.040 A 
ATOM     27  C   UNL     1     102.645  78.488  76.033  1.00  0.00     0.004 A 
ATOM     28  C   UNL     1     102.142  80.687  75.169  1.00  0.00     0.004 A 
ATOM     29  C   UNL     1     103.690  78.367  75.117  1.00  0.00     0.000 A 
ATOM     30  C   UNL     1     103.187  80.566  74.252  1.00  0.00     0.000 A 
ATOM     31  C   UNL     1     103.961  79.405  74.227  1.00  0.00     0.000 A 
ENDBRANCH  25  26
ENDBRANCH   7  25
BRANCH  14  32
ATOM     32  C   UNL     1      96.899  81.877  77.743  1.00  0.00    -0.046 C 
ATOM     33  C   UNL     1      95.711  82.762  77.510  1.00  0.00     0.042 C 
ATOM     34  C   UNL     1      97.351  81.610  78.978  1.00  0.00     0.010 C 
ENDBRANCH  14  32
ENDBRANCH   3   4
BRANCH   2  35
ATOM     35  C   UNL     1      97.016  77.529  72.203  1.00  0.00     0.078 CG0
ATOM     36  G   UNL     1      97.506  78.949  71.924  1.00  0.00     0.000 G0
ENDBRANCH   2  35
ENDBRANCH   1   2
BRANCH   1  37
ATOM     37  O   UNL     1      97.403  74.924  72.788  1.00  0.00    -0.461 OA
BRANCH  37  38
ATOM     38  C   UNL     1      98.707  74.573  73.049  1.00  0.00     0.310 C 
ATOM     39  O   UNL     1      99.174  74.385  74.164  1.00  0.00    -0.252 OA
BRANCH  38  40
ATOM     40  C   UNL     1      99.467  74.455  71.749  1.00  0.00     0.158 C 
BRANCH  40  41
ATOM     41  C   UNL     1     100.800  75.158  71.782  1.00  0.00    -0.033 A 
ATOM     42  C   UNL     1     101.970  74.426  71.990  1.00  0.00     0.054 A 
ATOM     43  C   UNL     1     100.864  76.540  71.604  1.00  0.00     0.008 A 
ATOM     44  C   UNL     1     103.203  75.077  72.021  1.00  0.00     0.160 A 
ATOM     45  C   UNL     1     102.098  77.191  71.635  1.00  0.00     0.050 A 
ATOM     46  C   UNL     1     103.267  76.460  71.843  1.00  0.00     0.157 A 
BRANCH  44  47
ATOM     47  O   UNL     1     104.338  74.352  72.225  1.00  0.00    -0.493 OA
ATOM     48  C   UNL     1     104.717  74.108  73.579  1.00  0.00     0.278 C 
ENDBRANCH  44  47
BRANCH  46  49
ATOM     49  O   UNL     1     104.466  77.106  71.870  1.00  0.00    -0.504 OA
ATOM     50  H   UNL     1     104.958  76.893  71.059  1.00  0.00     0.293 HD
ENDBRANCH  46  49
ENDBRANCH  40  41
ENDBRANCH  38  40
ENDBRANCH  37  38
ENDBRANCH   1  37
TORSDOF 11
ENDMDL
MODEL 8
REMARK VINA RESULT:    -5.905      4.775      9.804
REMARK INTER + INTRA:         -11.041
REMARK INTER:                  -8.467
REMARK INTRA:                  -2.574
REMARK UNBOUND:                -0.648
REMARK SMILES C=C(C)[C@]12C[C@@H](C)[C@@]34O[C@](Cc5ccccc5)(O[C@@H]1[C@@H]3C=C(COC(=O)Cc1ccc(O)c(OC)c1)C[C@]1(O)C(=O)C(C)=C[C@@H]41)O2
REMARK SMILES IDX 23 1 22 2 21 3 20 4 9 5 8 6 10 7 6 8 18 9 46 10 19 11 5 12
REMARK SMILES IDX 7 13 4 14 45 15 38 16 44 17 40 18 42 20 41 21 43 22 39 23
REMARK SMILES IDX 11 25 12 26 13 27 17 28 14 29 16 30 15 31 2 32 3 33 1 34
REMARK SMILES IDX 37 35 24 37 25 38 26 39 27 40 28 41 36 42 29 43 33 44 30 45
REMARK SMILES IDX 31 46 34 47 35 48 32 49
REMARK H PARENT 39 24 32 50
REMARK Flexibility Score: 90.00
ROOT
ATOM      1  C   UNL     1      89.311  80.825  87.227  1.00  0.00     0.264 C 
ENDROOT
BRANCH   1   2
ATOM      2  C   UNL     1      90.597  80.334  86.605  1.00  0.00    -0.033 C 
ATOM      3  C   UNL     1      91.557  81.224  86.285  1.00  0.00    -0.015 C 
BRANCH   3   4
ATOM      4  C   UNL     1      92.890  80.998  85.589  1.00  0.00     0.078 C 
ATOM      5  O   UNL     1      94.577  80.640  87.362  1.00  0.00    -0.319 OA
ATOM      6  C   UNL     1      93.911  79.990  86.236  1.00  0.00     0.095 C 
ATOM      7  C   UNL     1      94.982  82.003  87.135  1.00  0.00     0.289 C 
ATOM      8  C   UNL     1      94.987  79.622  85.132  1.00  0.00     0.023 C 
ATOM      9  O   UNL     1      93.871  82.819  86.771  1.00  0.00    -0.320 OA
ATOM     10  O   UNL     1      95.913  82.120  86.062  1.00  0.00    -0.313 OA
ATOM     11  C   UNL     1      93.638  82.345  85.435  1.00  0.00     0.170 C 
ATOM     12  C   UNL     1      95.258  80.825  84.176  1.00  0.00     0.049 C 
ATOM     13  C   UNL     1      96.323  79.082  85.667  1.00  0.00     0.011 C 
ATOM     14  C   UNL     1      95.076  82.166  84.888  1.00  0.00     0.122 C 
BRANCH   6  15
ATOM     15  C   UNL     1      93.165  78.781  86.871  1.00  0.00     0.086 C 
ATOM     16  C   UNL     1      92.003  78.189  86.047  1.00  0.00     0.140 CG0
ATOM     17  C   UNL     1      93.950  77.569  87.289  1.00  0.00    -0.010 C 
ATOM     18  C   UNL     1      92.083  76.715  86.381  1.00  0.00     0.190 C 
ATOM     19  G   UNL     1      90.656  78.803  86.426  1.00  0.00     0.000 G0
ATOM     20  C   UNL     1      93.357  76.394  87.053  1.00  0.00    -0.008 C 
ATOM     21  O   UNL     1      91.241  75.877  86.096  1.00  0.00    -0.291 OA
ATOM     22  C   UNL     1      93.788  75.024  87.399  1.00  0.00     0.048 C 
BRANCH  16  23
ATOM     23  O   UNL     1      92.214  78.231  84.645  1.00  0.00    -0.381 OA
ATOM     24  H   UNL     1      92.906  77.587  84.420  1.00  0.00     0.212 HD
ENDBRANCH  16  23
ENDBRANCH   6  15
BRANCH   7  25
ATOM     25  C   UNL     1      95.610  82.532  88.409  1.00  0.00     0.135 C 
BRANCH  25  26
ATOM     26  C   UNL     1      95.206  83.958  88.689  1.00  0.00    -0.040 A 
ATOM     27  C   UNL     1      94.095  84.223  89.490  1.00  0.00     0.004 A 
ATOM     28  C   UNL     1      95.942  85.011  88.148  1.00  0.00     0.004 A 
ATOM     29  C   UNL     1      93.721  85.542  89.750  1.00  0.00     0.000 A 
ATOM     30  C   UNL     1      95.568  86.330  88.407  1.00  0.00     0.000 A 
ATOM     31  C   UNL     1      94.457  86.595  89.208  1.00  0.00     0.000 A 
ENDBRANCH  25  26
ENDBRANCH   7  25
BRANCH  14  32
ATOM     32  C   UNL     1      95.506  83.325  84.049  1.00  0.00    -0.046 C 
ATOM     33  C   UNL     1      95.228  84.688  84.609  1.00  0.00     0.042 C 
ATOM     34  C   UNL     1      96.107  83.156  82.861  1.00  0.00     0.010 C 
ENDBRANCH  14  32
ENDBRANCH   3   4
BRANCH   2  35
ATOM     35  C   UNL     1      90.633  78.828  86.425  1.00  0.00     0.078 CG0
ATOM     36  G   UNL     1      91.976  78.200  86.055  1.00  0.00     0.000 G0
ENDBRANCH   2  35
ENDBRANCH   1   2
BRANCH   1  37
ATOM     37  O   UNL     1      89.203  80.316  88.539  1.00  0.00    -0.461 OA
BRANCH  37  38
ATOM     38  C   UNL     1      89.191  81.245  89.554  1.00  0.00     0.310 C 
ATOM     39  O   UNL     1      88.318  81.344  90.405  1.00  0.00    -0.252 OA
BRANCH  38  40
ATOM     40  C   UNL     1      90.418  82.120  89.451  1.00  0.00     0.158 C 
BRANCH  40  41
ATOM     41  C   UNL     1      91.454  81.804  90.499  1.00  0.00    -0.033 A 
ATOM     42  C   UNL     1      92.368  80.771  90.286  1.00  0.00     0.054 A 
ATOM     43  C   UNL     1      91.500  82.544  91.680  1.00  0.00     0.008 A 
ATOM     44  C   UNL     1      93.328  80.479  91.256  1.00  0.00     0.160 A 
ATOM     45  C   UNL     1      92.460  82.252  92.649  1.00  0.00     0.050 A 
ATOM     46  C   UNL     1      93.373  81.220  92.438  1.00  0.00     0.157 A 
BRANCH  44  47
ATOM     47  O   UNL     1      94.214  79.468  91.038  1.00  0.00    -0.493 OA
ATOM     48  C   UNL     1      93.671  78.184  90.736  1.00  0.00     0.278 C 
ENDBRANCH  44  47
BRANCH  46  49
ATOM     49  O   UNL     1      94.306  80.944  93.391  1.00  0.00    -0.504 OA
ATOM     50  H   UNL     1      95.027  80.431  92.989  1.00  0.00     0.293 HD
ENDBRANCH  46  49
ENDBRANCH  40  41
ENDBRANCH  38  40
ENDBRANCH  37  38
ENDBRANCH   1  37
TORSDOF 11
ENDMDL
MODEL 9
REMARK VINA RESULT:    -5.810      3.434      7.075
REMARK INTER + INTRA:         -10.873
REMARK INTER:                  -8.875
REMARK INTRA:                  -1.998
REMARK UNBOUND:                -0.648
REMARK SMILES C=C(C)[C@]12C[C@@H](C)[C@@]34O[C@](Cc5ccccc5)(O[C@@H]1[C@@H]3C=C(COC(=O)Cc1ccc(O)c(OC)c1)C[C@]1(O)C(=O)C(C)=C[C@@H]41)O2
REMARK SMILES IDX 23 1 22 2 21 3 20 4 9 5 8 6 10 7 6 8 18 9 46 10 19 11 5 12
REMARK SMILES IDX 7 13 4 14 45 15 38 16 44 17 40 18 42 20 41 21 43 22 39 23
REMARK SMILES IDX 11 25 12 26 13 27 17 28 14 29 16 30 15 31 2 32 3 33 1 34
REMARK SMILES IDX 37 35 24 37 25 38 26 39 27 40 28 41 36 42 29 43 33 44 30 45
REMARK SMILES IDX 31 46 34 47 35 48 32 49
REMARK H PARENT 39 24 32 50
REMARK Flexibility Score: 90.00
ROOT
ATOM      1  C   UNL     1      95.879  78.239  88.567  1.00  0.00     0.264 C 
ENDROOT
BRANCH   1   2
ATOM      2  C   UNL     1      94.416  78.610  88.513  1.00  0.00    -0.033 C 
ATOM      3  C   UNL     1      93.993  79.723  89.145  1.00  0.00    -0.015 C 
BRANCH   3   4
ATOM      4  C   UNL     1      92.583  80.266  89.304  1.00  0.00     0.078 C 
ATOM      5  O   UNL     1      92.199  81.835  87.431  1.00  0.00    -0.319 OA
ATOM      6  C   UNL     1      91.747  80.570  88.005  1.00  0.00     0.095 C 
ATOM      7  C   UNL     1      92.437  82.893  88.379  1.00  0.00     0.289 C 
ATOM      8  C   UNL     1      90.227  80.704  88.433  1.00  0.00     0.023 C 
ATOM      9  O   UNL     1      93.397  82.504  89.358  1.00  0.00    -0.320 OA
ATOM     10  O   UNL     1      91.263  83.240  89.109  1.00  0.00    -0.313 OA
ATOM     11  C   UNL     1      92.613  81.578  90.126  1.00  0.00     0.170 C 
ATOM     12  C   UNL     1      90.087  81.313  89.862  1.00  0.00     0.049 C 
ATOM     13  C   UNL     1      89.332  81.482  87.456  1.00  0.00     0.011 C 
ATOM     14  C   UNL     1      91.231  82.276  90.182  1.00  0.00     0.122 C 
BRANCH   6  15
ATOM     15  C   UNL     1      92.040  79.515  86.900  1.00  0.00     0.086 C 
ATOM     16  C   UNL     1      92.137  78.048  87.369  1.00  0.00     0.140 CG0
ATOM     17  C   UNL     1      91.141  79.438  85.698  1.00  0.00    -0.010 C 
ATOM     18  C   UNL     1      91.564  77.290  86.190  1.00  0.00     0.190 C 
ATOM     19  G   UNL     1      93.575  77.638  87.686  1.00  0.00     0.000 G0
ATOM     20  C   UNL     1      90.877  78.204  85.258  1.00  0.00    -0.008 C 
ATOM     21  O   UNL     1      91.609  76.079  86.038  1.00  0.00    -0.291 OA
ATOM     22  C   UNL     1      90.114  77.758  84.074  1.00  0.00     0.048 C 
BRANCH  16  23
ATOM     23  O   UNL     1      91.260  77.728  88.436  1.00  0.00    -0.381 OA
ATOM     24  H   UNL     1      91.491  78.281  89.200  1.00  0.00     0.212 HD
ENDBRANCH  16  23
ENDBRANCH   6  15
BRANCH   7  25
ATOM     25  C   UNL     1      92.939  84.106  87.623  1.00  0.00     0.135 C 
BRANCH  25  26
ATOM     26  C   UNL     1      93.751  85.024  88.502  1.00  0.00    -0.040 A 
ATOM     27  C   UNL     1      93.134  85.721  89.541  1.00  0.00     0.004 A 
ATOM     28  C   UNL     1      95.119  85.175  88.277  1.00  0.00     0.004 A 
ATOM     29  C   UNL     1      93.885  86.570  90.354  1.00  0.00     0.000 A 
ATOM     30  C   UNL     1      95.871  86.024  89.091  1.00  0.00     0.000 A 
ATOM     31  C   UNL     1      95.253  86.721  90.129  1.00  0.00     0.000 A 
ENDBRANCH  25  26
ENDBRANCH   7  25
BRANCH  14  32
ATOM     32  C   UNL     1      91.024  83.009  91.467  1.00  0.00    -0.046 C 
ATOM     33  C   UNL     1      90.497  84.408  91.354  1.00  0.00     0.042 C 
ATOM     34  C   UNL     1      91.293  82.447  92.655  1.00  0.00     0.010 C 
ENDBRANCH  14  32
ENDBRANCH   3   4
BRANCH   2  35
ATOM     35  C   UNL     1      93.584  77.630  87.707  1.00  0.00     0.078 CG0
ATOM     36  G   UNL     1      92.167  78.061  87.330  1.00  0.00     0.000 G0
ENDBRANCH   2  35
ENDBRANCH   1   2
BRANCH   1  37
ATOM     37  O   UNL     1      96.634  79.218  87.887  1.00  0.00    -0.461 OA
BRANCH  37  38
ATOM     38  C   UNL     1      97.452  78.763  86.878  1.00  0.00     0.310 C 
ATOM     39  O   UNL     1      98.661  78.605  86.972  1.00  0.00    -0.252 OA
BRANCH  38  40
ATOM     40  C   UNL     1      96.626  78.491  85.643  1.00  0.00     0.158 C 
BRANCH  40  41
ATOM     41  C   UNL     1      96.252  79.746  84.898  1.00  0.00    -0.033 A 
ATOM     42  C   UNL     1      97.060  80.207  83.858  1.00  0.00     0.054 A 
ATOM     43  C   UNL     1      95.098  80.447  85.247  1.00  0.00     0.008 A 
ATOM     44  C   UNL     1      96.714  81.369  83.168  1.00  0.00     0.160 A 
ATOM     45  C   UNL     1      94.751  81.609  84.557  1.00  0.00     0.050 A 
ATOM     46  C   UNL     1      95.559  82.070  83.518  1.00  0.00     0.157 A 
BRANCH  44  47
ATOM     47  O   UNL     1      97.511  81.809  82.155  1.00  0.00    -0.493 OA
ATOM     48  C   UNL     1      97.535  81.027  80.962  1.00  0.00     0.278 C 
ENDBRANCH  44  47
BRANCH  46  49
ATOM     49  O   UNL     1      95.210  83.205  82.851  1.00  0.00    -0.504 OA
ATOM     50  H   UNL     1      94.478  83.637  83.322  1.00  0.00     0.293 HD
ENDBRANCH  46  49
ENDBRANCH  40  41
ENDBRANCH  38  40
ENDBRANCH  37  38
ENDBRANCH   1  37
TORSDOF 11
ENDMDL
MODEL 10
REMARK VINA RESULT:    -5.779     20.668     26.690
REMARK INTER + INTRA:         -10.820
REMARK INTER:                  -9.908
REMARK INTRA:                  -0.911
REMARK UNBOUND:                -0.648
REMARK SMILES C=C(C)[C@]12C[C@@H](C)[C@@]34O[C@](Cc5ccccc5)(O[C@@H]1[C@@H]3C=C(COC(=O)Cc1ccc(O)c(OC)c1)C[C@]1(O)C(=O)C(C)=C[C@@H]41)O2
REMARK SMILES IDX 23 1 22 2 21 3 20 4 9 5 8 6 10 7 6 8 18 9 46 10 19 11 5 12
REMARK SMILES IDX 7 13 4 14 45 15 38 16 44 17 40 18 42 20 41 21 43 22 39 23
REMARK SMILES IDX 11 25 12 26 13 27 17 28 14 29 16 30 15 31 2 32 3 33 1 34
REMARK SMILES IDX 37 35 24 37 25 38 26 39 27 40 28 41 36 42 29 43 33 44 30 45
REMARK SMILES IDX 31 46 34 47 35 48 32 49
REMARK H PARENT 39 24 32 50
REMARK Flexibility Score: 90.00
ROOT
ATOM      1  C   UNL     1      93.336 101.909  72.100  1.00  0.00     0.264 C 
ENDROOT
BRANCH   1   2
ATOM      2  C   UNL     1      93.202 101.943  70.596  1.00  0.00    -0.033 C 
ATOM      3  C   UNL     1      92.011 101.656  70.033  1.00  0.00    -0.015 C 
BRANCH   3   4
ATOM      4  C   UNL     1      91.640 101.546  68.563  1.00  0.00     0.078 C 
ATOM      5  O   UNL     1      90.848 103.779  67.852  1.00  0.00    -0.319 OA
ATOM      6  C   UNL     1      91.899 102.789  67.631  1.00  0.00     0.095 C 
ATOM      7  C   UNL     1      89.514 103.249  67.963  1.00  0.00     0.289 C 
ATOM      8  C   UNL     1      91.836 102.284  66.130  1.00  0.00     0.023 C 
ATOM      9  O   UNL     1      89.424 102.293  69.017  1.00  0.00    -0.320 OA
ATOM     10  O   UNL     1      89.105 102.561  66.784  1.00  0.00    -0.313 OA
ATOM     11  C   UNL     1      90.138 101.197  68.424  1.00  0.00     0.170 C 
ATOM     12  C   UNL     1      90.811 101.121  65.961  1.00  0.00     0.049 C 
ATOM     13  C   UNL     1      91.553 103.371  65.080  1.00  0.00     0.011 C 
ATOM     14  C   UNL     1      89.653 101.238  66.953  1.00  0.00     0.122 C 
BRANCH   6  15
ATOM     15  C   UNL     1      93.212 103.518  68.036  1.00  0.00     0.086 C 
ATOM     16  C   UNL     1      94.413 102.614  68.386  1.00  0.00     0.140 CG0
ATOM     17  C   UNL     1      93.804 104.541  67.107  1.00  0.00    -0.010 C 
ATOM     18  C   UNL     1      95.589 103.426  67.886  1.00  0.00     0.190 C 
ATOM     19  G   UNL     1      94.498 102.321  69.883  1.00  0.00     0.000 G0
ATOM     20  C   UNL     1      95.138 104.533  67.022  1.00  0.00    -0.008 C 
ATOM     21  O   UNL     1      96.764 103.185  68.115  1.00  0.00    -0.291 OA
ATOM     22  C   UNL     1      96.050 105.433  66.285  1.00  0.00     0.048 C 
BRANCH  16  23
ATOM     23  O   UNL     1      94.475 101.422  67.620  1.00  0.00    -0.381 OA
ATOM     24  H   UNL     1      95.241 100.905  67.919  1.00  0.00     0.212 HD
ENDBRANCH  16  23
ENDBRANCH   6  15
BRANCH   7  25
ATOM     25  C   UNL     1      88.565 104.399  68.233  1.00  0.00     0.135 C 
BRANCH  25  26
ATOM     26  C   UNL     1      87.799 104.801  66.998  1.00  0.00    -0.040 A 
ATOM     27  C   UNL     1      86.491 104.352  66.811  1.00  0.00     0.004 A 
ATOM     28  C   UNL     1      88.396 105.624  66.043  1.00  0.00     0.004 A 
ATOM     29  C   UNL     1      85.782 104.724  65.669  1.00  0.00     0.000 A 
ATOM     30  C   UNL     1      87.686 105.996  64.901  1.00  0.00     0.000 A 
ATOM     31  C   UNL     1      86.380 105.545  64.714  1.00  0.00     0.000 A 
ENDBRANCH  25  26
ENDBRANCH   7  25
BRANCH  14  32
ATOM     32  C   UNL     1      88.570 100.243  66.692  1.00  0.00    -0.046 C 
ATOM     33  C   UNL     1      87.224 100.805  66.342  1.00  0.00     0.042 C 
ATOM     34  C   UNL     1      88.787  98.921  66.766  1.00  0.00     0.010 C 
ENDBRANCH  14  32
ENDBRANCH   3   4
BRANCH   2  35
ATOM     35  C   UNL     1      94.492 102.324  69.893  1.00  0.00     0.078 CG0
ATOM     36  G   UNL     1      94.410 102.621  68.396  1.00  0.00     0.000 G0
ENDBRANCH   2  35
ENDBRANCH   1   2
BRANCH   1  37
ATOM     37  O   UNL     1      94.599 101.382  72.445  1.00  0.00    -0.461 OA
BRANCH  37  38
ATOM     38  C   UNL     1      94.607 100.402  73.409  1.00  0.00     0.310 C 
ATOM     39  O   UNL     1      95.043 100.536  74.545  1.00  0.00    -0.252 OA
BRANCH  38  40
ATOM     40  C   UNL     1      93.996  99.139  72.849  1.00  0.00     0.158 C 
BRANCH  40  41
ATOM     41  C   UNL     1      94.275  97.924  73.697  1.00  0.00    -0.033 A 
ATOM     42  C   UNL     1      93.309  97.461  74.591  1.00  0.00     0.054 A 
ATOM     43  C   UNL     1      95.498  97.263  73.588  1.00  0.00     0.008 A 
ATOM     44  C   UNL     1      93.568  96.337  75.376  1.00  0.00     0.160 A 
ATOM     45  C   UNL     1      95.757  96.139  74.372  1.00  0.00     0.050 A 
ATOM     46  C   UNL     1      94.792  95.676  75.267  1.00  0.00     0.157 A 
BRANCH  44  47
ATOM     47  O   UNL     1      92.617  95.894  76.246  1.00  0.00    -0.493 OA
ATOM     48  C   UNL     1      91.850  94.760  75.845  1.00  0.00     0.278 C 
ENDBRANCH  44  47
BRANCH  46  49
ATOM     49  O   UNL     1      95.055  94.577  76.027  1.00  0.00    -0.504 OA
ATOM     50  H   UNL     1      95.226  94.858  76.942  1.00  0.00     0.293 HD
ENDBRANCH  46  49
ENDBRANCH  40  41
ENDBRANCH  38  40
ENDBRANCH  37  38
ENDBRANCH   1  37
TORSDOF 11
ENDMDL
