MODEL 1
REMARK VINA RESULT:    -6.825      0.000      0.000
REMARK INTER + INTRA:         -12.013
REMARK INTER:                 -11.015
REMARK INTRA:                  -0.999
REMARK UNBOUND:                -0.999
REMARK SMILES COc1cc(CNC(=O)CCCCC/C=C/C(C)C)ccc1O
REMARK SMILES IDX 11 1 10 2 8 3 7 4 9 6 6 7 5 8 3 9 22 10 4 11 21 12 20 13
REMARK SMILES IDX 2 14 1 15 23 16 12 18 13 19 14 20 15 21 16 22 17 23 18 24
REMARK SMILES IDX 19 25
REMARK H PARENT 7 5 23 17
REMARK Flexibility Score: inf
ROOT
ATOM      1  C   UNL     1      92.188  94.960  75.195  1.00  0.00     0.010 C 
ENDROOT
BRANCH   1   2
ATOM      2  C   UNL     1      92.866  94.789  76.579  1.00  0.00     0.100 C 
BRANCH   2   3
ATOM      3  C   UNL     1      93.432  96.035  77.128  1.00  0.00     0.220 C 
ATOM      4  N   UNL     1      94.734  96.072  77.524  1.00  0.00    -0.352 N 
ATOM      5  H   UNL     1      95.214  95.183  77.476  1.00  0.00     0.163 HD
ATOM      6  O   UNL     1      92.699  97.051  77.178  1.00  0.00    -0.275 OA
BRANCH   4   7
ATOM      7  C   UNL     1      95.431  97.230  77.980  1.00  0.00     0.151 C 
BRANCH   7   8
ATOM      8  C   UNL     1      95.976  97.067  79.352  1.00  0.00    -0.025 A 
ATOM      9  C   UNL     1      96.821  98.044  81.445  1.00  0.00     0.160 A 
ATOM     10  C   UNL     1      97.068  96.748  81.949  1.00  0.00     0.157 A 
ATOM     11  C   UNL     1      96.286  98.194  80.149  1.00  0.00     0.056 A 
ATOM     12  C   UNL     1      96.747  95.620  81.172  1.00  0.00     0.050 A 
ATOM     13  C   UNL     1      96.196  95.778  79.887  1.00  0.00     0.009 A 
BRANCH   9  14
ATOM     14  O   UNL     1      97.047  99.145  82.227  1.00  0.00    -0.493 OA
ATOM     15  C   UNL     1      95.868  99.667  82.863  1.00  0.00     0.278 C 
ENDBRANCH   9  14
BRANCH  10  16
ATOM     16  O   UNL     1      97.607  96.561  83.180  1.00  0.00    -0.504 OA
ATOM     17  H   UNL     1      97.248  97.212  83.788  1.00  0.00     0.293 HD
ENDBRANCH  10  16
ENDBRANCH   7   8
ENDBRANCH   4   7
ENDBRANCH   2   3
ENDBRANCH   1   2
BRANCH   1  18
ATOM     18  C   UNL     1      90.678  94.617  75.265  1.00  0.00     0.001 C 
BRANCH  18  19
ATOM     19  C   UNL     1      90.121  94.550  76.710  1.00  0.00     0.004 C 
BRANCH  19  20
ATOM     20  C   UNL     1      89.696  93.103  77.087  1.00  0.00     0.027 C 
BRANCH  20  21
ATOM     21  C   UNL     1      90.078  92.106  76.101  1.00  0.00    -0.031 C 
ATOM     22  C   UNL     1      89.198  91.226  75.592  1.00  0.00    -0.028 C 
BRANCH  22  23
ATOM     23  C   UNL     1      89.549  90.215  74.597  1.00  0.00     0.005 C 
ATOM     24  C   UNL     1      90.666  90.748  73.660  1.00  0.00     0.012 C 
ATOM     25  C   UNL     1      89.950  88.889  75.297  1.00  0.00     0.012 C 
ENDBRANCH  22  23
ENDBRANCH  20  21
ENDBRANCH  19  20
ENDBRANCH  18  19
ENDBRANCH   1  18
TORSDOF 11
ENDMDL
MODEL 2
REMARK VINA RESULT:    -6.376      1.187      2.037
REMARK INTER + INTRA:         -11.288
REMARK INTER:                 -10.564
REMARK INTRA:                  -0.724
REMARK UNBOUND:                -0.999
REMARK SMILES COc1cc(CNC(=O)CCCCC/C=C/C(C)C)ccc1O
REMARK SMILES IDX 11 1 10 2 8 3 7 4 9 6 6 7 5 8 3 9 22 10 4 11 21 12 20 13
REMARK SMILES IDX 2 14 1 15 23 16 12 18 13 19 14 20 15 21 16 22 17 23 18 24
REMARK SMILES IDX 19 25
REMARK H PARENT 7 5 23 17
REMARK Flexibility Score: inf
ROOT
ATOM      1  C   UNL     1      92.770  95.954  75.841  1.00  0.00     0.010 C 
ENDROOT
BRANCH   1   2
ATOM      2  C   UNL     1      92.904  96.910  77.055  1.00  0.00     0.100 C 
BRANCH   2   3
ATOM      3  C   UNL     1      94.296  97.157  77.474  1.00  0.00     0.220 C 
ATOM      4  N   UNL     1      94.833  96.439  78.499  1.00  0.00    -0.352 N 
ATOM      5  H   UNL     1      94.187  95.815  78.961  1.00  0.00     0.163 HD
ATOM      6  O   UNL     1      94.967  98.006  76.840  1.00  0.00    -0.275 OA
BRANCH   4   7
ATOM      7  C   UNL     1      96.189  96.509  78.939  1.00  0.00     0.151 C 
BRANCH   7   8
ATOM      8  C   UNL     1      96.347  97.315  80.178  1.00  0.00    -0.025 A 
ATOM      9  C   UNL     1      97.363  97.652  82.392  1.00  0.00     0.160 A 
ATOM     10  C   UNL     1      96.603  98.830  82.561  1.00  0.00     0.157 A 
ATOM     11  C   UNL     1      97.223  96.900  81.207  1.00  0.00     0.056 A 
ATOM     12  C   UNL     1      95.741  99.261  81.536  1.00  0.00     0.050 A 
ATOM     13  C   UNL     1      95.621  98.515  80.349  1.00  0.00     0.009 A 
BRANCH   9  14
ATOM     14  O   UNL     1      98.270  97.271  83.345  1.00  0.00    -0.493 OA
ATOM     15  C   UNL     1      99.168  96.232  82.919  1.00  0.00     0.278 C 
ENDBRANCH   9  14
BRANCH  10  16
ATOM     16  O   UNL     1      96.687  99.567  83.697  1.00  0.00    -0.504 OA
ATOM     17  H   UNL     1      95.944  99.358  84.269  1.00  0.00     0.293 HD
ENDBRANCH  10  16
ENDBRANCH   7   8
ENDBRANCH   4   7
ENDBRANCH   2   3
ENDBRANCH   1   2
BRANCH   1  18
ATOM     18  C   UNL     1      91.529  95.037  75.985  1.00  0.00     0.001 C 
BRANCH  18  19
ATOM     19  C   UNL     1      91.251  94.589  77.442  1.00  0.00     0.004 C 
BRANCH  19  20
ATOM     20  C   UNL     1      90.252  93.399  77.489  1.00  0.00     0.027 C 
BRANCH  20  21
ATOM     21  C   UNL     1      90.303  92.547  76.313  1.00  0.00    -0.031 C 
ATOM     22  C   UNL     1      89.507  91.473  76.169  1.00  0.00    -0.028 C 
BRANCH  22  23
ATOM     23  C   UNL     1      89.530  90.600  74.998  1.00  0.00     0.005 C 
ATOM     24  C   UNL     1      90.484  91.175  73.918  1.00  0.00     0.012 C 
ATOM     25  C   UNL     1      89.912  89.154  75.414  1.00  0.00     0.012 C 
ENDBRANCH  22  23
ENDBRANCH  20  21
ENDBRANCH  19  20
ENDBRANCH  18  19
ENDBRANCH   1  18
TORSDOF 11
ENDMDL
MODEL 3
REMARK VINA RESULT:    -6.163      2.072      3.059
REMARK INTER + INTRA:         -10.945
REMARK INTER:                  -9.717
REMARK INTRA:                  -1.228
REMARK UNBOUND:                -0.999
REMARK SMILES COc1cc(CNC(=O)CCCCC/C=C/C(C)C)ccc1O
REMARK SMILES IDX 11 1 10 2 8 3 7 4 9 6 6 7 5 8 3 9 22 10 4 11 21 12 20 13
REMARK SMILES IDX 2 14 1 15 23 16 12 18 13 19 14 20 15 21 16 22 17 23 18 24
REMARK SMILES IDX 19 25
REMARK H PARENT 7 5 23 17
REMARK Flexibility Score: inf
ROOT
ATOM      1  C   UNL     1      93.737  96.986  75.416  1.00  0.00     0.010 C 
ENDROOT
BRANCH   1   2
ATOM      2  C   UNL     1      94.849  97.701  74.605  1.00  0.00     0.100 C 
BRANCH   2   3
ATOM      3  C   UNL     1      95.979  98.176  75.425  1.00  0.00     0.220 C 
ATOM      4  N   UNL     1      95.762  98.591  76.704  1.00  0.00    -0.352 N 
ATOM      5  H   UNL     1      94.790  98.610  76.981  1.00  0.00     0.163 HD
ATOM      6  O   UNL     1      97.130  98.145  74.928  1.00  0.00    -0.275 OA
BRANCH   4   7
ATOM      7  C   UNL     1      96.772  98.981  77.632  1.00  0.00     0.151 C 
BRANCH   7   8
ATOM      8  C   UNL     1      96.689  98.236  78.915  1.00  0.00    -0.025 A 
ATOM      9  C   UNL     1      96.097  98.148  81.300  1.00  0.00     0.160 A 
ATOM     10  C   UNL     1      96.583  96.825  81.372  1.00  0.00     0.157 A 
ATOM     11  C   UNL     1      96.161  98.846  80.077  1.00  0.00     0.056 A 
ATOM     12  C   UNL     1      97.094  96.202  80.218  1.00  0.00     0.050 A 
ATOM     13  C   UNL     1      97.137  96.898  78.996  1.00  0.00     0.009 A 
BRANCH   9  14
ATOM     14  O   UNL     1      95.517  98.733  82.395  1.00  0.00    -0.493 OA
ATOM     15  C   UNL     1      94.721  99.891  82.090  1.00  0.00     0.278 C 
ENDBRANCH   9  14
BRANCH  10  16
ATOM     16  O   UNL     1      96.564  96.129  82.536  1.00  0.00    -0.504 OA
ATOM     17  H   UNL     1      95.798  96.391  83.053  1.00  0.00     0.293 HD
ENDBRANCH  10  16
ENDBRANCH   7   8
ENDBRANCH   4   7
ENDBRANCH   2   3
ENDBRANCH   1   2
BRANCH   1  18
ATOM     18  C   UNL     1      94.143  95.530  75.760  1.00  0.00     0.001 C 
BRANCH  18  19
ATOM     19  C   UNL     1      94.420  95.300  77.267  1.00  0.00     0.004 C 
BRANCH  19  20
ATOM     20  C   UNL     1      93.097  95.158  78.071  1.00  0.00     0.027 C 
BRANCH  20  21
ATOM     21  C   UNL     1      91.965  94.738  77.264  1.00  0.00    -0.031 C 
ATOM     22  C   UNL     1      90.903  94.102  77.790  1.00  0.00    -0.028 C 
BRANCH  22  23
ATOM     23  C   UNL     1      89.747  93.671  77.007  1.00  0.00     0.005 C 
ATOM     24  C   UNL     1      89.793  94.302  75.590  1.00  0.00     0.012 C 
ATOM     25  C   UNL     1      89.678  92.121  76.960  1.00  0.00     0.012 C 
ENDBRANCH  22  23
ENDBRANCH  20  21
ENDBRANCH  19  20
ENDBRANCH  18  19
ENDBRANCH   1  18
TORSDOF 11
ENDMDL
MODEL 4
REMARK VINA RESULT:    -6.125      2.965      4.733
REMARK INTER + INTRA:         -10.884
REMARK INTER:                  -9.274
REMARK INTRA:                  -1.610
REMARK UNBOUND:                -0.999
REMARK SMILES COc1cc(CNC(=O)CCCCC/C=C/C(C)C)ccc1O
REMARK SMILES IDX 11 1 10 2 8 3 7 4 9 6 6 7 5 8 3 9 22 10 4 11 21 12 20 13
REMARK SMILES IDX 2 14 1 15 23 16 12 18 13 19 14 20 15 21 16 22 17 23 18 24
REMARK SMILES IDX 19 25
REMARK H PARENT 7 5 23 17
REMARK Flexibility Score: inf
ROOT
ATOM      1  C   UNL     1      96.737  97.906  73.698  1.00  0.00     0.010 C 
ENDROOT
BRANCH   1   2
ATOM      2  C   UNL     1      96.977  99.343  74.228  1.00  0.00     0.100 C 
BRANCH   2   3
ATOM      3  C   UNL     1      96.991  99.446  75.699  1.00  0.00     0.220 C 
ATOM      4  N   UNL     1      97.060  98.317  76.457  1.00  0.00    -0.352 N 
ATOM      5  H   UNL     1      97.023  97.454  75.932  1.00  0.00     0.163 HD
ATOM      6  O   UNL     1      96.980 100.588  76.216  1.00  0.00    -0.275 OA
BRANCH   4   7
ATOM      7  C   UNL     1      97.178  98.278  77.879  1.00  0.00     0.151 C 
BRANCH   7   8
ATOM      8  C   UNL     1      96.515  97.090  78.475  1.00  0.00    -0.025 A 
ATOM      9  C   UNL     1      96.008  95.681  80.427  1.00  0.00     0.160 A 
ATOM     10  C   UNL     1      95.292  94.791  79.597  1.00  0.00     0.157 A 
ATOM     11  C   UNL     1      96.621  96.817  79.859  1.00  0.00     0.056 A 
ATOM     12  C   UNL     1      95.166  95.061  78.222  1.00  0.00     0.050 A 
ATOM     13  C   UNL     1      95.764  96.207  77.667  1.00  0.00     0.009 A 
BRANCH   9  14
ATOM     14  O   UNL     1      96.063  95.475  81.780  1.00  0.00    -0.493 OA
ATOM     15  C   UNL     1      97.397  95.412  82.311  1.00  0.00     0.278 C 
ENDBRANCH   9  14
BRANCH  10  16
ATOM     16  O   UNL     1      94.712  93.672  80.099  1.00  0.00    -0.504 OA
ATOM     17  H   UNL     1      95.346  93.201  80.645  1.00  0.00     0.293 HD
ENDBRANCH  10  16
ENDBRANCH   7   8
ENDBRANCH   4   7
ENDBRANCH   2   3
ENDBRANCH   1   2
BRANCH   1  18
ATOM     18  C   UNL     1      95.699  97.900  72.547  1.00  0.00     0.001 C 
BRANCH  18  19
ATOM     19  C   UNL     1      94.362  97.208  72.916  1.00  0.00     0.004 C 
BRANCH  19  20
ATOM     20  C   UNL     1      94.421  96.583  74.338  1.00  0.00     0.027 C 
BRANCH  20  21
ATOM     21  C   UNL     1      93.280  95.741  74.654  1.00  0.00    -0.031 C 
ATOM     22  C   UNL     1      92.563  95.897  75.781  1.00  0.00    -0.028 C 
BRANCH  22  23
ATOM     23  C   UNL     1      91.408  95.071  76.126  1.00  0.00     0.005 C 
ATOM     24  C   UNL     1      91.243  93.920  75.098  1.00  0.00     0.012 C 
ATOM     25  C   UNL     1      91.537  94.548  77.582  1.00  0.00     0.012 C 
ENDBRANCH  22  23
ENDBRANCH  20  21
ENDBRANCH  19  20
ENDBRANCH  18  19
ENDBRANCH   1  18
TORSDOF 11
ENDMDL
MODEL 5
REMARK VINA RESULT:    -5.457      1.853      2.830
REMARK INTER + INTRA:          -9.805
REMARK INTER:                  -9.101
REMARK INTRA:                  -0.703
REMARK UNBOUND:                -0.999
REMARK SMILES COc1cc(CNC(=O)CCCCC/C=C/C(C)C)ccc1O
REMARK SMILES IDX 11 1 10 2 8 3 7 4 9 6 6 7 5 8 3 9 22 10 4 11 21 12 20 13
REMARK SMILES IDX 2 14 1 15 23 16 12 18 13 19 14 20 15 21 16 22 17 23 18 24
REMARK SMILES IDX 19 25
REMARK H PARENT 7 5 23 17
REMARK Flexibility Score: inf
ROOT
ATOM      1  C   UNL     1      94.058  95.340  76.696  1.00  0.00     0.010 C 
ENDROOT
BRANCH   1   2
ATOM      2  C   UNL     1      93.679  95.200  78.193  1.00  0.00     0.100 C 
BRANCH   2   3
ATOM      3  C   UNL     1      94.839  95.148  79.103  1.00  0.00     0.220 C 
ATOM      4  N   UNL     1      95.467  96.300  79.467  1.00  0.00    -0.352 N 
ATOM      5  H   UNL     1      95.120  97.132  79.010  1.00  0.00     0.163 HD
ATOM      6  O   UNL     1      95.193  94.032  79.553  1.00  0.00    -0.275 OA
BRANCH   4   7
ATOM      7  C   UNL     1      96.533  96.401  80.410  1.00  0.00     0.151 C 
BRANCH   7   8
ATOM      8  C   UNL     1      96.646  97.759  81.003  1.00  0.00    -0.025 A 
ATOM      9  C   UNL     1      97.792  99.356  82.481  1.00  0.00     0.160 A 
ATOM     10  C   UNL     1      96.823 100.335  82.172  1.00  0.00     0.157 A 
ATOM     11  C   UNL     1      97.691  98.075  81.902  1.00  0.00     0.056 A 
ATOM     12  C   UNL     1      95.788 100.038  81.267  1.00  0.00     0.050 A 
ATOM     13  C   UNL     1      95.706  98.762  80.678  1.00  0.00     0.009 A 
BRANCH   9  14
ATOM     14  O   UNL     1      98.852  99.662  83.292  1.00  0.00    -0.493 OA
ATOM     15  C   UNL     1     100.069  99.952  82.585  1.00  0.00     0.278 C 
ENDBRANCH   9  14
BRANCH  10  16
ATOM     16  O   UNL     1      96.867 101.571  82.729  1.00  0.00    -0.504 OA
ATOM     17  H   UNL     1      96.740 101.499  83.679  1.00  0.00     0.293 HD
ENDBRANCH  10  16
ENDBRANCH   7   8
ENDBRANCH   4   7
ENDBRANCH   2   3
ENDBRANCH   1   2
BRANCH   1  18
ATOM     18  C   UNL     1      92.794  95.338  75.798  1.00  0.00     0.001 C 
BRANCH  18  19
ATOM     19  C   UNL     1      91.464  95.368  76.592  1.00  0.00     0.004 C 
BRANCH  19  20
ATOM     20  C   UNL     1      90.303  94.733  75.778  1.00  0.00     0.027 C 
BRANCH  20  21
ATOM     21  C   UNL     1      90.581  93.384  75.318  1.00  0.00    -0.031 C 
ATOM     22  C   UNL     1      89.646  92.418  75.315  1.00  0.00    -0.028 C 
BRANCH  22  23
ATOM     23  C   UNL     1      89.892  91.054  74.854  1.00  0.00     0.005 C 
ATOM     24  C   UNL     1      89.895  90.072  76.056  1.00  0.00     0.012 C 
ATOM     25  C   UNL     1      88.853  90.657  73.770  1.00  0.00     0.012 C 
ENDBRANCH  22  23
ENDBRANCH  20  21
ENDBRANCH  19  20
ENDBRANCH  18  19
ENDBRANCH   1  18
TORSDOF 11
ENDMDL
MODEL 6
REMARK VINA RESULT:    -5.450      3.124      9.960
REMARK INTER + INTRA:          -9.794
REMARK INTER:                  -9.116
REMARK INTRA:                  -0.679
REMARK UNBOUND:                -0.999
REMARK SMILES COc1cc(CNC(=O)CCCCC/C=C/C(C)C)ccc1O
REMARK SMILES IDX 11 1 10 2 8 3 7 4 9 6 6 7 5 8 3 9 22 10 4 11 21 12 20 13
REMARK SMILES IDX 2 14 1 15 23 16 12 18 13 19 14 20 15 21 16 22 17 23 18 24
REMARK SMILES IDX 19 25
REMARK H PARENT 7 5 23 17
REMARK Flexibility Score: inf
ROOT
ATOM      1  C   UNL     1      95.185  99.317  81.754  1.00  0.00     0.010 C 
ENDROOT
BRANCH   1   2
ATOM      2  C   UNL     1      96.136  98.729  80.680  1.00  0.00     0.100 C 
BRANCH   2   3
ATOM      3  C   UNL     1      95.986  97.276  80.476  1.00  0.00     0.220 C 
ATOM      4  N   UNL     1      95.205  96.811  79.462  1.00  0.00    -0.352 N 
ATOM      5  H   UNL     1      94.709  97.527  78.949  1.00  0.00     0.163 HD
ATOM      6  O   UNL     1      96.623  96.500  81.227  1.00  0.00    -0.275 OA
BRANCH   4   7
ATOM      7  C   UNL     1      95.050  95.441  79.095  1.00  0.00     0.151 C 
BRANCH   7   8
ATOM      8  C   UNL     1      94.070  95.250  77.995  1.00  0.00    -0.025 A 
ATOM      9  C   UNL     1      93.493  95.352  75.606  1.00  0.00     0.160 A 
ATOM     10  C   UNL     1      92.178  94.936  75.907  1.00  0.00     0.157 A 
ATOM     11  C   UNL     1      94.425  95.514  76.651  1.00  0.00     0.056 A 
ATOM     12  C   UNL     1      91.818  94.654  77.238  1.00  0.00     0.050 A 
ATOM     13  C   UNL     1      92.760  94.800  78.273  1.00  0.00     0.009 A 
BRANCH   9  14
ATOM     14  O   UNL     1      93.878  95.544  74.306  1.00  0.00    -0.493 OA
ATOM     15  C   UNL     1      94.295  96.887  74.009  1.00  0.00     0.278 C 
ENDBRANCH   9  14
BRANCH  10  16
ATOM     16  O   UNL     1      91.243  94.795  74.934  1.00  0.00    -0.504 OA
ATOM     17  H   UNL     1      90.891  93.901  74.956  1.00  0.00     0.293 HD
ENDBRANCH  10  16
ENDBRANCH   7   8
ENDBRANCH   4   7
ENDBRANCH   2   3
ENDBRANCH   1   2
BRANCH   1  18
ATOM     18  C   UNL     1      95.960  99.696  83.041  1.00  0.00     0.001 C 
BRANCH  18  19
ATOM     19  C   UNL     1      95.851 101.196  83.415  1.00  0.00     0.004 C 
BRANCH  19  20
ATOM     20  C   UNL     1      94.923 101.960  82.430  1.00  0.00     0.027 C 
BRANCH  20  21
ATOM     21  C   UNL     1      93.839 102.673  83.083  1.00  0.00    -0.031 C 
ATOM     22  C   UNL     1      93.154 103.657  82.472  1.00  0.00    -0.028 C 
BRANCH  22  23
ATOM     23  C   UNL     1      92.056 104.389  83.099  1.00  0.00     0.005 C 
ATOM     24  C   UNL     1      90.717 104.064  82.386  1.00  0.00     0.012 C 
ATOM     25  C   UNL     1      92.005 104.080  84.620  1.00  0.00     0.012 C 
ENDBRANCH  22  23
ENDBRANCH  20  21
ENDBRANCH  19  20
ENDBRANCH  18  19
ENDBRANCH   1  18
TORSDOF 11
ENDMDL
MODEL 7
REMARK VINA RESULT:    -5.450      2.289      3.342
REMARK INTER + INTRA:          -9.794
REMARK INTER:                  -9.118
REMARK INTRA:                  -0.676
REMARK UNBOUND:                -0.999
REMARK SMILES COc1cc(CNC(=O)CCCCC/C=C/C(C)C)ccc1O
REMARK SMILES IDX 11 1 10 2 8 3 7 4 9 6 6 7 5 8 3 9 22 10 4 11 21 12 20 13
REMARK SMILES IDX 2 14 1 15 23 16 12 18 13 19 14 20 15 21 16 22 17 23 18 24
REMARK SMILES IDX 19 25
REMARK H PARENT 7 5 23 17
REMARK Flexibility Score: inf
ROOT
ATOM      1  C   UNL     1      94.130  95.011  77.234  1.00  0.00     0.010 C 
ENDROOT
BRANCH   1   2
ATOM      2  C   UNL     1      94.289  95.765  78.579  1.00  0.00     0.100 C 
BRANCH   2   3
ATOM      3  C   UNL     1      95.026  97.038  78.470  1.00  0.00     0.220 C 
ATOM      4  N   UNL     1      95.864  97.424  79.472  1.00  0.00    -0.352 N 
ATOM      5  H   UNL     1      95.862  96.818  80.280  1.00  0.00     0.163 HD
ATOM      6  O   UNL     1      94.890  97.718  77.425  1.00  0.00    -0.275 OA
BRANCH   4   7
ATOM      7  C   UNL     1      96.706  98.576  79.451  1.00  0.00     0.151 C 
BRANCH   7   8
ATOM      8  C   UNL     1      96.240  99.642  80.375  1.00  0.00    -0.025 A 
ATOM      9  C   UNL     1      96.203 102.001  81.070  1.00  0.00     0.160 A 
ATOM     10  C   UNL     1      95.391 101.662  82.174  1.00  0.00     0.157 A 
ATOM     11  C   UNL     1      96.628 100.989  80.186  1.00  0.00     0.056 A 
ATOM     12  C   UNL     1      94.985 100.328  82.364  1.00  0.00     0.050 A 
ATOM     13  C   UNL     1      95.398  99.327  81.465  1.00  0.00     0.009 A 
BRANCH   9  14
ATOM     14  O   UNL     1      96.532 103.308  80.828  1.00  0.00    -0.493 OA
ATOM     15  C   UNL     1      97.586 103.480  79.866  1.00  0.00     0.278 C 
ENDBRANCH   9  14
BRANCH  10  16
ATOM     16  O   UNL     1      94.984 102.601  83.065  1.00  0.00    -0.504 OA
ATOM     17  H   UNL     1      95.528 102.550  83.854  1.00  0.00     0.293 HD
ENDBRANCH  10  16
ENDBRANCH   7   8
ENDBRANCH   4   7
ENDBRANCH   2   3
ENDBRANCH   1   2
BRANCH   1  18
ATOM     18  C   UNL     1      92.646  94.971  76.787  1.00  0.00     0.001 C 
BRANCH  18  19
ATOM     19  C   UNL     1      91.680  94.445  77.878  1.00  0.00     0.004 C 
BRANCH  19  20
ATOM     20  C   UNL     1      90.350  93.933  77.258  1.00  0.00     0.027 C 
BRANCH  20  21
ATOM     21  C   UNL     1      90.535  92.930  76.224  1.00  0.00    -0.031 C 
ATOM     22  C   UNL     1      89.800  91.804  76.173  1.00  0.00    -0.028 C 
BRANCH  22  23
ATOM     23  C   UNL     1      89.958  90.780  75.144  1.00  0.00     0.005 C 
ATOM     24  C   UNL     1      89.879  89.365  75.777  1.00  0.00     0.012 C 
ATOM     25  C   UNL     1      88.907  90.983  74.019  1.00  0.00     0.012 C 
ENDBRANCH  22  23
ENDBRANCH  20  21
ENDBRANCH  19  20
ENDBRANCH  18  19
ENDBRANCH   1  18
TORSDOF 11
ENDMDL
MODEL 8
REMARK VINA RESULT:    -5.443     22.351     26.912
REMARK INTER + INTRA:          -9.782
REMARK INTER:                  -9.024
REMARK INTRA:                  -0.758
REMARK UNBOUND:                -0.999
REMARK SMILES COc1cc(CNC(=O)CCCCC/C=C/C(C)C)ccc1O
REMARK SMILES IDX 11 1 10 2 8 3 7 4 9 6 6 7 5 8 3 9 22 10 4 11 21 12 20 13
REMARK SMILES IDX 2 14 1 15 23 16 12 18 13 19 14 20 15 21 16 22 17 23 18 24
REMARK SMILES IDX 19 25
REMARK H PARENT 7 5 23 17
REMARK Flexibility Score: inf
ROOT
ATOM      1  C   UNL     1      75.106  83.601  64.978  1.00  0.00     0.010 C 
ENDROOT
BRANCH   1   2
ATOM      2  C   UNL     1      73.744  82.863  65.050  1.00  0.00     0.100 C 
BRANCH   2   3
ATOM      3  C   UNL     1      72.575  83.762  65.086  1.00  0.00     0.220 C 
ATOM      4  N   UNL     1      71.437  83.369  65.723  1.00  0.00    -0.352 N 
ATOM      5  H   UNL     1      71.457  82.422  66.075  1.00  0.00     0.163 HD
ATOM      6  O   UNL     1      72.678  84.894  64.558  1.00  0.00    -0.275 OA
BRANCH   4   7
ATOM      7  C   UNL     1      70.274  84.174  65.915  1.00  0.00     0.151 C 
BRANCH   7   8
ATOM      8  C   UNL     1      69.847  84.230  67.337  1.00  0.00    -0.025 A 
ATOM      9  C   UNL     1      68.065  84.307  69.031  1.00  0.00     0.160 A 
ATOM     10  C   UNL     1      69.039  84.393  70.050  1.00  0.00     0.157 A 
ATOM     11  C   UNL     1      68.476  84.236  67.684  1.00  0.00     0.056 A 
ATOM     12  C   UNL     1      70.406  84.371  69.718  1.00  0.00     0.050 A 
ATOM     13  C   UNL     1      70.807  84.280  68.372  1.00  0.00     0.009 A 
BRANCH   9  14
ATOM     14  O   UNL     1      66.735  84.239  69.348  1.00  0.00    -0.493 OA
ATOM     15  C   UNL     1      66.144  82.947  69.133  1.00  0.00     0.278 C 
ENDBRANCH   9  14
BRANCH  10  16
ATOM     16  O   UNL     1      68.685  84.492  71.356  1.00  0.00    -0.504 OA
ATOM     17  H   UNL     1      68.173  85.293  71.488  1.00  0.00     0.293 HD
ENDBRANCH  10  16
ENDBRANCH   7   8
ENDBRANCH   4   7
ENDBRANCH   2   3
ENDBRANCH   1   2
BRANCH   1  18
ATOM     18  C   UNL     1      75.847  83.541  66.337  1.00  0.00     0.001 C 
BRANCH  18  19
ATOM     19  C   UNL     1      77.224  84.252  66.328  1.00  0.00     0.004 C 
BRANCH  19  20
ATOM     20  C   UNL     1      77.459  85.050  67.642  1.00  0.00     0.027 C 
BRANCH  20  21
ATOM     21  C   UNL     1      77.451  86.491  67.460  1.00  0.00    -0.031 C 
ATOM     22  C   UNL     1      77.081  87.337  68.437  1.00  0.00    -0.028 C 
BRANCH  22  23
ATOM     23  C   UNL     1      77.066  88.790  68.288  1.00  0.00     0.005 C 
ATOM     24  C   UNL     1      77.075  89.176  66.785  1.00  0.00     0.012 C 
ATOM     25  C   UNL     1      75.854  89.396  69.046  1.00  0.00     0.012 C 
ENDBRANCH  22  23
ENDBRANCH  20  21
ENDBRANCH  19  20
ENDBRANCH  18  19
ENDBRANCH   1  18
TORSDOF 11
ENDMDL
MODEL 9
REMARK VINA RESULT:    -5.429     13.904     15.725
REMARK INTER + INTRA:          -9.760
REMARK INTER:                  -8.755
REMARK INTRA:                  -1.004
REMARK UNBOUND:                -0.999
REMARK SMILES COc1cc(CNC(=O)CCCCC/C=C/C(C)C)ccc1O
REMARK SMILES IDX 11 1 10 2 8 3 7 4 9 6 6 7 5 8 3 9 22 10 4 11 21 12 20 13
REMARK SMILES IDX 2 14 1 15 23 16 12 18 13 19 14 20 15 21 16 22 17 23 18 24
REMARK SMILES IDX 19 25
REMARK H PARENT 7 5 23 17
REMARK Flexibility Score: inf
ROOT
ATOM      1  C   UNL     1      94.929  81.298  86.742  1.00  0.00     0.010 C 
ENDROOT
BRANCH   1   2
ATOM      2  C   UNL     1      95.081  82.841  86.728  1.00  0.00     0.100 C 
BRANCH   2   3
ATOM      3  C   UNL     1      95.805  83.362  85.553  1.00  0.00     0.220 C 
ATOM      4  N   UNL     1      95.637  82.773  84.337  1.00  0.00    -0.352 N 
ATOM      5  H   UNL     1      95.060  81.943  84.347  1.00  0.00     0.163 HD
ATOM      6  O   UNL     1      96.533  84.372  85.702  1.00  0.00    -0.275 OA
BRANCH   4   7
ATOM      7  C   UNL     1      96.198  83.232  83.108  1.00  0.00     0.151 C 
BRANCH   7   8
ATOM      8  C   UNL     1      96.671  82.120  82.244  1.00  0.00    -0.025 A 
ATOM      9  C   UNL     1      97.773  81.329  80.192  1.00  0.00     0.160 A 
ATOM     10  C   UNL     1      97.522  79.993  80.574  1.00  0.00     0.157 A 
ATOM     11  C   UNL     1      97.338  82.381  81.024  1.00  0.00     0.056 A 
ATOM     12  C   UNL     1      96.875  79.721  81.793  1.00  0.00     0.050 A 
ATOM     13  C   UNL     1      96.461  80.777  82.627  1.00  0.00     0.009 A 
BRANCH   9  14
ATOM     14  O   UNL     1      98.479  81.603  79.051  1.00  0.00    -0.493 OA
ATOM     15  C   UNL     1      99.887  81.799  79.264  1.00  0.00     0.278 C 
ENDBRANCH   9  14
BRANCH  10  16
ATOM     16  O   UNL     1      97.899  78.953  79.789  1.00  0.00    -0.504 OA
ATOM     17  H   UNL     1      98.795  79.098  79.474  1.00  0.00     0.293 HD
ENDBRANCH  10  16
ENDBRANCH   7   8
ENDBRANCH   4   7
ENDBRANCH   2   3
ENDBRANCH   1   2
BRANCH   1  18
ATOM     18  C   UNL     1      93.454  80.879  86.517  1.00  0.00     0.001 C 
BRANCH  18  19
ATOM     19  C   UNL     1      93.127  80.510  85.048  1.00  0.00     0.004 C 
BRANCH  19  20
ATOM     20  C   UNL     1      92.149  81.535  84.410  1.00  0.00     0.027 C 
BRANCH  20  21
ATOM     21  C   UNL     1      90.789  81.437  84.912  1.00  0.00    -0.031 C 
ATOM     22  C   UNL     1      89.741  81.967  84.257  1.00  0.00    -0.028 C 
BRANCH  22  23
ATOM     23  C   UNL     1      88.362  81.880  84.731  1.00  0.00     0.005 C 
ATOM     24  C   UNL     1      87.608  83.204  84.438  1.00  0.00     0.012 C 
ATOM     25  C   UNL     1      87.655  80.648  84.105  1.00  0.00     0.012 C 
ENDBRANCH  22  23
ENDBRANCH  20  21
ENDBRANCH  19  20
ENDBRANCH  18  19
ENDBRANCH   1  18
TORSDOF 11
ENDMDL
MODEL 10
REMARK VINA RESULT:    -5.323     25.208     28.779
REMARK INTER + INTRA:          -9.589
REMARK INTER:                  -8.846
REMARK INTRA:                  -0.742
REMARK UNBOUND:                -0.999
REMARK SMILES COc1cc(CNC(=O)CCCCC/C=C/C(C)C)ccc1O
REMARK SMILES IDX 11 1 10 2 8 3 7 4 9 6 6 7 5 8 3 9 22 10 4 11 21 12 20 13
REMARK SMILES IDX 2 14 1 15 23 16 12 18 13 19 14 20 15 21 16 22 17 23 18 24
REMARK SMILES IDX 19 25
REMARK H PARENT 7 5 23 17
REMARK Flexibility Score: inf
ROOT
ATOM      1  C   UNL     1      83.625  67.254  73.551  1.00  0.00     0.010 C 
ENDROOT
BRANCH   1   2
ATOM      2  C   UNL     1      83.605  68.285  72.393  1.00  0.00     0.100 C 
BRANCH   2   3
ATOM      3  C   UNL     1      84.686  69.285  72.461  1.00  0.00     0.220 C 
ATOM      4  N   UNL     1      85.943  68.901  72.819  1.00  0.00    -0.352 N 
ATOM      5  H   UNL     1      86.026  67.932  73.092  1.00  0.00     0.163 HD
ATOM      6  O   UNL     1      84.424  70.469  72.143  1.00  0.00    -0.275 OA
BRANCH   4   7
ATOM      7  C   UNL     1      87.095  69.742  72.831  1.00  0.00     0.151 C 
BRANCH   7   8
ATOM      8  C   UNL     1      87.593  70.011  74.205  1.00  0.00    -0.025 A 
ATOM      9  C   UNL     1      89.352  70.828  75.718  1.00  0.00     0.160 A 
ATOM     10  C   UNL     1      88.558  70.472  76.830  1.00  0.00     0.157 A 
ATOM     11  C   UNL     1      88.868  70.587  74.416  1.00  0.00     0.056 A 
ATOM     12  C   UNL     1      87.282  69.915  76.632  1.00  0.00     0.050 A 
ATOM     13  C   UNL     1      86.798  69.696  75.329  1.00  0.00     0.009 A 
BRANCH   9  14
ATOM     14  O   UNL     1      90.558  71.451  75.898  1.00  0.00    -0.493 OA
ATOM     15  C   UNL     1      91.695  70.585  75.746  1.00  0.00     0.278 C 
ENDBRANCH   9  14
BRANCH  10  16
ATOM     16  O   UNL     1      88.999  70.661  78.099  1.00  0.00    -0.504 OA
ATOM     17  H   UNL     1      88.346  71.165  78.592  1.00  0.00     0.293 HD
ENDBRANCH  10  16
ENDBRANCH   7   8
ENDBRANCH   4   7
ENDBRANCH   2   3
ENDBRANCH   1   2
BRANCH   1  18
ATOM     18  C   UNL     1      82.189  66.800  73.921  1.00  0.00     0.001 C 
BRANCH  18  19
ATOM     19  C   UNL     1      81.630  65.688  72.999  1.00  0.00     0.004 C 
BRANCH  19  20
ATOM     20  C   UNL     1      80.230  66.065  72.440  1.00  0.00     0.027 C 
BRANCH  20  21
ATOM     21  C   UNL     1      79.757  65.171  71.397  1.00  0.00    -0.031 C 
ATOM     22  C   UNL     1      79.587  65.576  70.126  1.00  0.00    -0.028 C 
BRANCH  22  23
ATOM     23  C   UNL     1      79.118  64.701  69.054  1.00  0.00     0.005 C 
ATOM     24  C   UNL     1      79.556  63.237  69.324  1.00  0.00     0.012 C 
ATOM     25  C   UNL     1      77.581  64.835  68.885  1.00  0.00     0.012 C 
ENDBRANCH  22  23
ENDBRANCH  20  21
ENDBRANCH  19  20
ENDBRANCH  18  19
ENDBRANCH   1  18
TORSDOF 11
ENDMDL
