MODEL 1
REMARK VINA RESULT:    -6.321      0.000      0.000
REMARK INTER + INTRA:         -11.036
REMARK INTER:                 -10.201
REMARK INTRA:                  -0.834
REMARK UNBOUND:                -0.834
REMARK SMILES COc1cc(CNC(=O)CCCCC/C=C/C(C)C)ccc1O
REMARK SMILES IDX 11 1 10 2 8 3 7 4 9 6 6 7 5 8 3 9 22 10 4 11 21 12 20 13
REMARK SMILES IDX 2 14 1 15 23 16 12 18 13 19 14 20 15 21 16 22 17 23 18 24
REMARK SMILES IDX 19 25
REMARK H PARENT 7 5 23 17
REMARK Flexibility Score: inf
ROOT
ATOM      1  C   UNL     1      95.511  98.556  71.855  1.00  0.00     0.010 C 
ENDROOT
BRANCH   1   2
ATOM      2  C   UNL     1      95.003  98.247  73.287  1.00  0.00     0.100 C 
BRANCH   2   3
ATOM      3  C   UNL     1      95.118  96.828  73.672  1.00  0.00     0.220 C 
ATOM      4  N   UNL     1      94.662  96.416  74.887  1.00  0.00    -0.352 N 
ATOM      5  H   UNL     1      94.330  97.159  75.487  1.00  0.00     0.163 HD
ATOM      6  O   UNL     1      95.602  96.023  72.841  1.00  0.00    -0.275 OA
BRANCH   4   7
ATOM      7  C   UNL     1      94.623  95.065  75.344  1.00  0.00     0.151 C 
BRANCH   7   8
ATOM      8  C   UNL     1      93.308  94.697  75.930  1.00  0.00    -0.025 A 
ATOM      9  C   UNL     1      91.566  93.022  76.386  1.00  0.00     0.160 A 
ATOM     10  C   UNL     1      90.775  94.014  77.004  1.00  0.00     0.157 A 
ATOM     11  C   UNL     1      92.820  93.372  75.846  1.00  0.00     0.056 A 
ATOM     12  C   UNL     1      91.257  95.332  77.109  1.00  0.00     0.050 A 
ATOM     13  C   UNL     1      92.519  95.668  76.585  1.00  0.00     0.009 A 
BRANCH   9  14
ATOM     14  O   UNL     1      91.144  91.719  76.356  1.00  0.00    -0.493 OA
ATOM     15  C   UNL     1      90.804  91.241  75.044  1.00  0.00     0.278 C 
ENDBRANCH   9  14
BRANCH  10  16
ATOM     16  O   UNL     1      89.550  93.725  77.511  1.00  0.00    -0.504 OA
ATOM     17  H   UNL     1      89.032  94.532  77.575  1.00  0.00     0.293 HD
ENDBRANCH  10  16
ENDBRANCH   7   8
ENDBRANCH   4   7
ENDBRANCH   2   3
ENDBRANCH   1   2
BRANCH   1  18
ATOM     18  C   UNL     1      94.339  98.944  70.918  1.00  0.00     0.001 C 
BRANCH  18  19
ATOM     19  C   UNL     1      93.485 100.125  71.445  1.00  0.00     0.004 C 
BRANCH  19  20
ATOM     20  C   UNL     1      92.007  99.700  71.669  1.00  0.00     0.027 C 
BRANCH  20  21
ATOM     21  C   UNL     1      91.340  99.245  70.461  1.00  0.00    -0.031 C 
ATOM     22  C   UNL     1      90.052  98.858  70.454  1.00  0.00    -0.028 C 
BRANCH  22  23
ATOM     23  C   UNL     1      89.351  98.401  69.256  1.00  0.00     0.005 C 
ATOM     24  C   UNL     1      88.828  99.615  68.443  1.00  0.00     0.012 C 
ATOM     25  C   UNL     1      90.274  97.480  68.413  1.00  0.00     0.012 C 
ENDBRANCH  22  23
ENDBRANCH  20  21
ENDBRANCH  19  20
ENDBRANCH  18  19
ENDBRANCH   1  18
TORSDOF 11
ENDMDL
MODEL 2
REMARK VINA RESULT:    -6.276      3.844      8.316
REMARK INTER + INTRA:         -10.963
REMARK INTER:                 -10.316
REMARK INTRA:                  -0.648
REMARK UNBOUND:                -0.834
REMARK SMILES COc1cc(CNC(=O)CCCCC/C=C/C(C)C)ccc1O
REMARK SMILES IDX 11 1 10 2 8 3 7 4 9 6 6 7 5 8 3 9 22 10 4 11 21 12 20 13
REMARK SMILES IDX 2 14 1 15 23 16 12 18 13 19 14 20 15 21 16 22 17 23 18 24
REMARK SMILES IDX 19 25
REMARK H PARENT 7 5 23 17
REMARK Flexibility Score: inf
ROOT
ATOM      1  C   UNL     1      94.178  98.999  73.025  1.00  0.00     0.010 C 
ENDROOT
BRANCH   1   2
ATOM      2  C   UNL     1      94.071 100.519  73.310  1.00  0.00     0.100 C 
BRANCH   2   3
ATOM      3  C   UNL     1      92.908 101.168  72.676  1.00  0.00     0.220 C 
ATOM      4  N   UNL     1      92.096 100.449  71.853  1.00  0.00    -0.352 N 
ATOM      5  H   UNL     1      92.406  99.504  71.675  1.00  0.00     0.163 HD
ATOM      6  O   UNL     1      92.675 102.369  72.949  1.00  0.00    -0.275 OA
BRANCH   4   7
ATOM      7  C   UNL     1      90.890 100.924  71.256  1.00  0.00     0.151 C 
BRANCH   7   8
ATOM      8  C   UNL     1      90.343  99.982  70.245  1.00  0.00    -0.025 A 
ATOM      9  C   UNL     1      89.296  99.567  68.059  1.00  0.00     0.160 A 
ATOM     10  C   UNL     1      89.251  98.185  68.344  1.00  0.00     0.157 A 
ATOM     11  C   UNL     1      89.832 100.455  69.014  1.00  0.00     0.056 A 
ATOM     12  C   UNL     1      89.772  97.702  69.558  1.00  0.00     0.050 A 
ATOM     13  C   UNL     1      90.324  98.593  70.498  1.00  0.00     0.009 A 
BRANCH   9  14
ATOM     14  O   UNL     1      88.872 100.038  66.844  1.00  0.00    -0.493 OA
ATOM     15  C   UNL     1      87.446 100.185  66.736  1.00  0.00     0.278 C 
ENDBRANCH   9  14
BRANCH  10  16
ATOM     16  O   UNL     1      88.718  97.301  67.464  1.00  0.00    -0.504 OA
ATOM     17  H   UNL     1      89.400  96.694  67.167  1.00  0.00     0.293 HD
ENDBRANCH  10  16
ENDBRANCH   7   8
ENDBRANCH   4   7
ENDBRANCH   2   3
ENDBRANCH   1   2
BRANCH   1  18
ATOM     18  C   UNL     1      93.559  98.169  74.179  1.00  0.00     0.001 C 
BRANCH  18  19
ATOM     19  C   UNL     1      93.961  96.672  74.156  1.00  0.00     0.004 C 
BRANCH  19  20
ATOM     20  C   UNL     1      94.408  96.183  75.561  1.00  0.00     0.027 C 
BRANCH  20  21
ATOM     21  C   UNL     1      93.342  95.568  76.333  1.00  0.00    -0.031 C 
ATOM     22  C   UNL     1      92.644  94.511  75.879  1.00  0.00    -0.028 C 
BRANCH  22  23
ATOM     23  C   UNL     1      91.571  93.867  76.631  1.00  0.00     0.005 C 
ATOM     24  C   UNL     1      92.090  93.403  78.018  1.00  0.00     0.012 C 
ATOM     25  C   UNL     1      90.350  94.819  76.747  1.00  0.00     0.012 C 
ENDBRANCH  22  23
ENDBRANCH  20  21
ENDBRANCH  19  20
ENDBRANCH  18  19
ENDBRANCH   1  18
TORSDOF 11
ENDMDL
MODEL 3
REMARK VINA RESULT:    -6.231      6.478      9.118
REMARK INTER + INTRA:         -10.890
REMARK INTER:                 -10.066
REMARK INTRA:                  -0.824
REMARK UNBOUND:                -0.834
REMARK SMILES COc1cc(CNC(=O)CCCCC/C=C/C(C)C)ccc1O
REMARK SMILES IDX 11 1 10 2 8 3 7 4 9 6 6 7 5 8 3 9 22 10 4 11 21 12 20 13
REMARK SMILES IDX 2 14 1 15 23 16 12 18 13 19 14 20 15 21 16 22 17 23 18 24
REMARK SMILES IDX 19 25
REMARK H PARENT 7 5 23 17
REMARK Flexibility Score: inf
ROOT
ATOM      1  C   UNL     1      95.025  93.408  78.102  1.00  0.00     0.010 C 
ENDROOT
BRANCH   1   2
ATOM      2  C   UNL     1      94.749  92.750  79.479  1.00  0.00     0.100 C 
BRANCH   2   3
ATOM      3  C   UNL     1      95.745  93.084  80.514  1.00  0.00     0.220 C 
ATOM      4  N   UNL     1      96.797  93.892  80.207  1.00  0.00    -0.352 N 
ATOM      5  H   UNL     1      96.857  94.154  79.232  1.00  0.00     0.163 HD
ATOM      6  O   UNL     1      95.570  92.641  81.674  1.00  0.00    -0.275 OA
BRANCH   4   7
ATOM      7  C   UNL     1      97.774  94.370  81.131  1.00  0.00     0.151 C 
BRANCH   7   8
ATOM      8  C   UNL     1      97.545  95.784  81.525  1.00  0.00    -0.025 A 
ATOM      9  C   UNL     1      97.604  97.566  83.219  1.00  0.00     0.160 A 
ATOM     10  C   UNL     1      97.056  98.471  82.285  1.00  0.00     0.157 A 
ATOM     11  C   UNL     1      97.836  96.229  82.835  1.00  0.00     0.056 A 
ATOM     12  C   UNL     1      96.778  98.044  80.973  1.00  0.00     0.050 A 
ATOM     13  C   UNL     1      97.031  96.713  80.593  1.00  0.00     0.009 A 
BRANCH   9  14
ATOM     14  O   UNL     1      97.960  97.993  84.471  1.00  0.00    -0.493 OA
ATOM     15  C   UNL     1      98.310  96.933  85.376  1.00  0.00     0.278 C 
ENDBRANCH   9  14
BRANCH  10  16
ATOM     16  O   UNL     1      96.791  99.758  82.622  1.00  0.00    -0.504 OA
ATOM     17  H   UNL     1      96.077  99.780  83.264  1.00  0.00     0.293 HD
ENDBRANCH  10  16
ENDBRANCH   7   8
ENDBRANCH   4   7
ENDBRANCH   2   3
ENDBRANCH   1   2
BRANCH   1  18
ATOM     18  C   UNL     1      93.702  93.739  77.365  1.00  0.00     0.001 C 
BRANCH  18  19
ATOM     19  C   UNL     1      92.431  93.351  78.162  1.00  0.00     0.004 C 
BRANCH  19  20
ATOM     20  C   UNL     1      91.138  93.781  77.413  1.00  0.00     0.027 C 
BRANCH  20  21
ATOM     21  C   UNL     1      90.396  92.669  76.843  1.00  0.00    -0.031 C 
ATOM     22  C   UNL     1      90.710  92.131  75.651  1.00  0.00    -0.028 C 
BRANCH  22  23
ATOM     23  C   UNL     1      89.987  91.011  75.054  1.00  0.00     0.005 C 
ATOM     24  C   UNL     1      89.098  91.507  73.883  1.00  0.00     0.012 C 
ATOM     25  C   UNL     1      90.984  89.905  74.610  1.00  0.00     0.012 C 
ENDBRANCH  22  23
ENDBRANCH  20  21
ENDBRANCH  19  20
ENDBRANCH  18  19
ENDBRANCH   1  18
TORSDOF 11
ENDMDL
MODEL 4
REMARK VINA RESULT:    -5.899     25.053     29.815
REMARK INTER + INTRA:         -10.354
REMARK INTER:                  -9.656
REMARK INTRA:                  -0.698
REMARK UNBOUND:                -0.834
REMARK SMILES COc1cc(CNC(=O)CCCCC/C=C/C(C)C)ccc1O
REMARK SMILES IDX 11 1 10 2 8 3 7 4 9 6 6 7 5 8 3 9 22 10 4 11 21 12 20 13
REMARK SMILES IDX 2 14 1 15 23 16 12 18 13 19 14 20 15 21 16 22 17 23 18 24
REMARK SMILES IDX 19 25
REMARK H PARENT 7 5 23 17
REMARK Flexibility Score: inf
ROOT
ATOM      1  C   UNL     1      83.242  67.370  70.791  1.00  0.00     0.010 C 
ENDROOT
BRANCH   1   2
ATOM      2  C   UNL     1      84.585  67.596  71.532  1.00  0.00     0.100 C 
BRANCH   2   3
ATOM      3  C   UNL     1      84.845  69.003  71.888  1.00  0.00     0.220 C 
ATOM      4  N   UNL     1      85.887  69.666  71.315  1.00  0.00    -0.352 N 
ATOM      5  H   UNL     1      86.471  69.097  70.717  1.00  0.00     0.163 HD
ATOM      6  O   UNL     1      84.064  69.569  72.690  1.00  0.00    -0.275 OA
BRANCH   4   7
ATOM      7  C   UNL     1      86.191  71.048  71.495  1.00  0.00     0.151 C 
BRANCH   7   8
ATOM      8  C   UNL     1      87.449  71.451  70.815  1.00  0.00    -0.025 A 
ATOM      9  C   UNL     1      88.713  71.905  68.755  1.00  0.00     0.160 A 
ATOM     10  C   UNL     1      89.869  72.167  69.522  1.00  0.00     0.157 A 
ATOM     11  C   UNL     1      87.516  71.541  69.405  1.00  0.00     0.056 A 
ATOM     12  C   UNL     1      89.809  72.097  70.926  1.00  0.00     0.050 A 
ATOM     13  C   UNL     1      88.606  71.752  71.569  1.00  0.00     0.009 A 
BRANCH   9  14
ATOM     14  O   UNL     1      88.737  72.056  67.394  1.00  0.00    -0.493 OA
ATOM     15  C   UNL     1      87.445  71.967  66.770  1.00  0.00     0.278 C 
ENDBRANCH   9  14
BRANCH  10  16
ATOM     16  O   UNL     1      91.047  72.493  68.934  1.00  0.00    -0.504 OA
ATOM     17  H   UNL     1      91.510  71.691  68.680  1.00  0.00     0.293 HD
ENDBRANCH  10  16
ENDBRANCH   7   8
ENDBRANCH   4   7
ENDBRANCH   2   3
ENDBRANCH   1   2
BRANCH   1  18
ATOM     18  C   UNL     1      82.944  65.859  70.620  1.00  0.00     0.001 C 
BRANCH  18  19
ATOM     19  C   UNL     1      82.135  65.246  71.791  1.00  0.00     0.004 C 
BRANCH  19  20
ATOM     20  C   UNL     1      81.105  66.261  72.360  1.00  0.00     0.027 C 
BRANCH  20  21
ATOM     21  C   UNL     1      80.699  65.979  73.726  1.00  0.00    -0.031 C 
ATOM     22  C   UNL     1      80.573  64.724  74.194  1.00  0.00    -0.028 C 
BRANCH  22  23
ATOM     23  C   UNL     1      80.173  64.407  75.562  1.00  0.00     0.005 C 
ATOM     24  C   UNL     1      79.346  65.574  76.165  1.00  0.00     0.012 C 
ATOM     25  C   UNL     1      79.403  63.059  75.598  1.00  0.00     0.012 C 
ENDBRANCH  22  23
ENDBRANCH  20  21
ENDBRANCH  19  20
ENDBRANCH  18  19
ENDBRANCH   1  18
TORSDOF 11
ENDMDL
MODEL 5
REMARK VINA RESULT:    -5.783     14.565     18.561
REMARK INTER + INTRA:         -10.167
REMARK INTER:                  -9.612
REMARK INTRA:                  -0.555
REMARK UNBOUND:                -0.834
REMARK SMILES COc1cc(CNC(=O)CCCCC/C=C/C(C)C)ccc1O
REMARK SMILES IDX 11 1 10 2 8 3 7 4 9 6 6 7 5 8 3 9 22 10 4 11 21 12 20 13
REMARK SMILES IDX 2 14 1 15 23 16 12 18 13 19 14 20 15 21 16 22 17 23 18 24
REMARK SMILES IDX 19 25
REMARK H PARENT 7 5 23 17
REMARK Flexibility Score: inf
ROOT
ATOM      1  C   UNL     1      96.315  80.770  82.376  1.00  0.00     0.010 C 
ENDROOT
BRANCH   1   2
ATOM      2  C   UNL     1      96.955  79.628  81.544  1.00  0.00     0.100 C 
BRANCH   2   3
ATOM      3  C   UNL     1      97.913  80.093  80.524  1.00  0.00     0.220 C 
ATOM      4  N   UNL     1      97.589  80.014  79.203  1.00  0.00    -0.352 N 
ATOM      5  H   UNL     1      96.708  79.558  79.012  1.00  0.00     0.163 HD
ATOM      6  O   UNL     1      98.997  80.592  80.908  1.00  0.00    -0.275 OA
BRANCH   4   7
ATOM      7  C   UNL     1      98.378  80.514  78.124  1.00  0.00     0.151 C 
BRANCH   7   8
ATOM      8  C   UNL     1      97.626  81.453  77.253  1.00  0.00    -0.025 A 
ATOM      9  C   UNL     1      97.378  82.657  75.123  1.00  0.00     0.160 A 
ATOM     10  C   UNL     1      96.215  83.288  75.615  1.00  0.00     0.157 A 
ATOM     11  C   UNL     1      98.079  81.753  75.947  1.00  0.00     0.056 A 
ATOM     12  C   UNL     1      95.746  82.984  76.907  1.00  0.00     0.050 A 
ATOM     13  C   UNL     1      96.440  82.066  77.716  1.00  0.00     0.009 A 
BRANCH   9  14
ATOM     14  O   UNL     1      97.794  82.879  73.837  1.00  0.00    -0.493 OA
ATOM     15  C   UNL     1      98.420  81.743  73.218  1.00  0.00     0.278 C 
ENDBRANCH   9  14
BRANCH  10  16
ATOM     16  O   UNL     1      95.528  84.185  74.865  1.00  0.00    -0.504 OA
ATOM     17  H   UNL     1      94.656  83.834  74.665  1.00  0.00     0.293 HD
ENDBRANCH  10  16
ENDBRANCH   7   8
ENDBRANCH   4   7
ENDBRANCH   2   3
ENDBRANCH   1   2
BRANCH   1  18
ATOM     18  C   UNL     1      95.532  80.207  83.589  1.00  0.00     0.001 C 
BRANCH  18  19
ATOM     19  C   UNL     1      94.933  81.303  84.506  1.00  0.00     0.004 C 
BRANCH  19  20
ATOM     20  C   UNL     1      93.816  80.728  85.421  1.00  0.00     0.027 C 
BRANCH  20  21
ATOM     21  C   UNL     1      92.499  81.280  85.154  1.00  0.00    -0.031 C 
ATOM     22  C   UNL     1      91.376  80.739  85.659  1.00  0.00    -0.028 C 
BRANCH  22  23
ATOM     23  C   UNL     1      90.039  81.273  85.413  1.00  0.00     0.005 C 
ATOM     24  C   UNL     1      89.384  80.548  84.207  1.00  0.00     0.012 C 
ATOM     25  C   UNL     1      89.176  81.174  86.700  1.00  0.00     0.012 C 
ENDBRANCH  22  23
ENDBRANCH  20  21
ENDBRANCH  19  20
ENDBRANCH  18  19
ENDBRANCH   1  18
TORSDOF 11
ENDMDL
MODEL 6
REMARK VINA RESULT:    -5.729     14.665     18.325
REMARK INTER + INTRA:         -10.079
REMARK INTER:                  -9.282
REMARK INTRA:                  -0.798
REMARK UNBOUND:                -0.834
REMARK SMILES COc1cc(CNC(=O)CCCCC/C=C/C(C)C)ccc1O
REMARK SMILES IDX 11 1 10 2 8 3 7 4 9 6 6 7 5 8 3 9 22 10 4 11 21 12 20 13
REMARK SMILES IDX 2 14 1 15 23 16 12 18 13 19 14 20 15 21 16 22 17 23 18 24
REMARK SMILES IDX 19 25
REMARK H PARENT 7 5 23 17
REMARK Flexibility Score: inf
ROOT
ATOM      1  C   UNL     1      96.089  80.640  82.615  1.00  0.00     0.010 C 
ENDROOT
BRANCH   1   2
ATOM      2  C   UNL     1      97.612  80.922  82.557  1.00  0.00     0.100 C 
BRANCH   2   3
ATOM      3  C   UNL     1      98.241  80.567  81.271  1.00  0.00     0.220 C 
ATOM      4  N   UNL     1      97.681  80.989  80.103  1.00  0.00    -0.352 N 
ATOM      5  H   UNL     1      96.801  81.475  80.209  1.00  0.00     0.163 HD
ATOM      6  O   UNL     1      99.309  79.911  81.291  1.00  0.00    -0.275 OA
BRANCH   4   7
ATOM      7  C   UNL     1      98.235  80.800  78.802  1.00  0.00     0.151 C 
BRANCH   7   8
ATOM      8  C   UNL     1      97.536  81.599  77.762  1.00  0.00    -0.025 A 
ATOM      9  C   UNL     1      97.454  82.548  75.494  1.00  0.00     0.160 A 
ATOM     10  C   UNL     1      96.223  83.168  75.800  1.00  0.00     0.157 A 
ATOM     11  C   UNL     1      98.105  81.776  76.479  1.00  0.00     0.056 A 
ATOM     12  C   UNL     1      95.640  82.984  77.067  1.00  0.00     0.050 A 
ATOM     13  C   UNL     1      96.286  82.196  78.037  1.00  0.00     0.009 A 
BRANCH   9  14
ATOM     14  O   UNL     1      97.987  82.648  74.237  1.00  0.00    -0.493 OA
ATOM     15  C   UNL     1      97.913  81.435  73.469  1.00  0.00     0.278 C 
ENDBRANCH   9  14
BRANCH  10  16
ATOM     16  O   UNL     1      95.579  83.941  74.890  1.00  0.00    -0.504 OA
ATOM     17  H   UNL     1      95.462  83.446  74.075  1.00  0.00     0.293 HD
ENDBRANCH  10  16
ENDBRANCH   7   8
ENDBRANCH   4   7
ENDBRANCH   2   3
ENDBRANCH   1   2
BRANCH   1  18
ATOM     18  C   UNL     1      95.681  80.050  83.989  1.00  0.00     0.001 C 
BRANCH  18  19
ATOM     19  C   UNL     1      94.553  80.841  84.697  1.00  0.00     0.004 C 
BRANCH  19  20
ATOM     20  C   UNL     1      94.558  82.337  84.273  1.00  0.00     0.027 C 
BRANCH  20  21
ATOM     21  C   UNL     1      94.959  83.244  85.336  1.00  0.00    -0.031 C 
ATOM     22  C   UNL     1      94.269  83.354  86.485  1.00  0.00    -0.028 C 
BRANCH  22  23
ATOM     23  C   UNL     1      94.649  84.251  87.574  1.00  0.00     0.005 C 
ATOM     24  C   UNL     1      95.608  85.354  87.052  1.00  0.00     0.012 C 
ATOM     25  C   UNL     1      93.382  84.842  88.249  1.00  0.00     0.012 C 
ENDBRANCH  22  23
ENDBRANCH  20  21
ENDBRANCH  19  20
ENDBRANCH  18  19
ENDBRANCH   1  18
TORSDOF 11
ENDMDL
MODEL 7
REMARK VINA RESULT:    -5.617      8.165     10.632
REMARK INTER + INTRA:          -9.899
REMARK INTER:                  -9.073
REMARK INTRA:                  -0.826
REMARK UNBOUND:                -0.834
REMARK SMILES COc1cc(CNC(=O)CCCCC/C=C/C(C)C)ccc1O
REMARK SMILES IDX 11 1 10 2 8 3 7 4 9 6 6 7 5 8 3 9 22 10 4 11 21 12 20 13
REMARK SMILES IDX 2 14 1 15 23 16 12 18 13 19 14 20 15 21 16 22 17 23 18 24
REMARK SMILES IDX 19 25
REMARK H PARENT 7 5 23 17
REMARK Flexibility Score: inf
ROOT
ATOM      1  C   UNL     1      96.307  93.981  81.002  1.00  0.00     0.010 C 
ENDROOT
BRANCH   1   2
ATOM      2  C   UNL     1      97.664  94.100  80.260  1.00  0.00     0.100 C 
BRANCH   2   3
ATOM      3  C   UNL     1      98.767  94.599  81.102  1.00  0.00     0.220 C 
ATOM      4  N   UNL     1      98.725  94.419  82.451  1.00  0.00    -0.352 N 
ATOM      5  H   UNL     1      97.870  94.003  82.794  1.00  0.00     0.163 HD
ATOM      6  O   UNL     1      99.745  95.146  80.540  1.00  0.00    -0.275 OA
BRANCH   4   7
ATOM      7  C   UNL     1      99.763  94.764  83.367  1.00  0.00     0.151 C 
BRANCH   7   8
ATOM      8  C   UNL     1      99.377  95.871  84.279  1.00  0.00    -0.025 A 
ATOM      9  C   UNL     1      97.875  97.727  84.870  1.00  0.00     0.160 A 
ATOM     10  C   UNL     1      98.677  98.017  85.995  1.00  0.00     0.157 A 
ATOM     11  C   UNL     1      98.235  96.664  84.017  1.00  0.00     0.056 A 
ATOM     12  C   UNL     1      99.805  97.225  86.275  1.00  0.00     0.050 A 
ATOM     13  C   UNL     1     100.147  96.153  85.430  1.00  0.00     0.009 A 
BRANCH   9  14
ATOM     14  O   UNL     1      96.727  98.436  84.637  1.00  0.00    -0.493 OA
ATOM     15  C   UNL     1      96.803  99.325  83.509  1.00  0.00     0.278 C 
ENDBRANCH   9  14
BRANCH  10  16
ATOM     16  O   UNL     1      98.381  99.049  86.825  1.00  0.00    -0.504 OA
ATOM     17  H   UNL     1      97.459  98.993  87.087  1.00  0.00     0.293 HD
ENDBRANCH  10  16
ENDBRANCH   7   8
ENDBRANCH   4   7
ENDBRANCH   2   3
ENDBRANCH   1   2
BRANCH   1  18
ATOM     18  C   UNL     1      95.314  93.091  80.213  1.00  0.00     0.001 C 
BRANCH  18  19
ATOM     19  C   UNL     1      95.791  92.743  78.780  1.00  0.00     0.004 C 
BRANCH  19  20
ATOM     20  C   UNL     1      94.871  93.386  77.705  1.00  0.00     0.027 C 
BRANCH  20  21
ATOM     21  C   UNL     1      93.472  93.443  78.092  1.00  0.00    -0.031 C 
ATOM     22  C   UNL     1      92.496  93.752  77.219  1.00  0.00    -0.028 C 
BRANCH  22  23
ATOM     23  C   UNL     1      91.081  93.813  77.575  1.00  0.00     0.005 C 
ATOM     24  C   UNL     1      90.377  94.952  76.790  1.00  0.00     0.012 C 
ATOM     25  C   UNL     1      90.409  92.433  77.340  1.00  0.00     0.012 C 
ENDBRANCH  22  23
ENDBRANCH  20  21
ENDBRANCH  19  20
ENDBRANCH  18  19
ENDBRANCH   1  18
TORSDOF 11
ENDMDL
MODEL 8
REMARK VINA RESULT:    -5.533      7.304     10.151
REMARK INTER + INTRA:          -9.764
REMARK INTER:                  -8.873
REMARK INTRA:                  -0.890
REMARK UNBOUND:                -0.834
REMARK SMILES COc1cc(CNC(=O)CCCCC/C=C/C(C)C)ccc1O
REMARK SMILES IDX 11 1 10 2 8 3 7 4 9 6 6 7 5 8 3 9 22 10 4 11 21 12 20 13
REMARK SMILES IDX 2 14 1 15 23 16 12 18 13 19 14 20 15 21 16 22 17 23 18 24
REMARK SMILES IDX 19 25
REMARK H PARENT 7 5 23 17
REMARK Flexibility Score: inf
ROOT
ATOM      1  C   UNL     1      96.774  94.994  81.311  1.00  0.00     0.010 C 
ENDROOT
BRANCH   1   2
ATOM      2  C   UNL     1      95.921  96.171  80.771  1.00  0.00     0.100 C 
BRANCH   2   3
ATOM      3  C   UNL     1      96.543  97.495  80.951  1.00  0.00     0.220 C 
ATOM      4  N   UNL     1      96.222  98.254  82.035  1.00  0.00    -0.352 N 
ATOM      5  H   UNL     1      95.496  97.865  82.621  1.00  0.00     0.163 HD
ATOM      6  O   UNL     1      97.393  97.873  80.110  1.00  0.00    -0.275 OA
BRANCH   4   7
ATOM      7  C   UNL     1      96.818  99.504  82.379  1.00  0.00     0.151 C 
BRANCH   7   8
ATOM      8  C   UNL     1      95.859 100.636  82.302  1.00  0.00    -0.025 A 
ATOM      9  C   UNL     1      94.217 102.122  83.372  1.00  0.00     0.160 A 
ATOM     10  C   UNL     1      93.991 102.762  82.134  1.00  0.00     0.157 A 
ATOM     11  C   UNL     1      95.141 101.060  83.445  1.00  0.00     0.056 A 
ATOM     12  C   UNL     1      94.711 102.360  80.995  1.00  0.00     0.050 A 
ATOM     13  C   UNL     1      95.646 101.312  81.080  1.00  0.00     0.009 A 
BRANCH   9  14
ATOM     14  O   UNL     1      93.586 102.562  84.505  1.00  0.00    -0.493 OA
ATOM     15  C   UNL     1      94.054 101.946  85.716  1.00  0.00     0.278 C 
ENDBRANCH   9  14
BRANCH  10  16
ATOM     16  O   UNL     1      93.089 103.769  82.016  1.00  0.00    -0.504 OA
ATOM     17  H   UNL     1      93.204 104.387  82.742  1.00  0.00     0.293 HD
ENDBRANCH  10  16
ENDBRANCH   7   8
ENDBRANCH   4   7
ENDBRANCH   2   3
ENDBRANCH   1   2
BRANCH   1  18
ATOM     18  C   UNL     1      96.887  93.858  80.262  1.00  0.00     0.001 C 
BRANCH  18  19
ATOM     19  C   UNL     1      95.849  93.961  79.117  1.00  0.00     0.004 C 
BRANCH  19  20
ATOM     20  C   UNL     1      94.631  93.029  79.369  1.00  0.00     0.027 C 
BRANCH  20  21
ATOM     21  C   UNL     1      93.512  93.274  78.476  1.00  0.00    -0.031 C 
ATOM     22  C   UNL     1      93.248  94.493  77.972  1.00  0.00    -0.028 C 
BRANCH  22  23
ATOM     23  C   UNL     1      92.135  94.771  77.069  1.00  0.00     0.005 C 
ATOM     24  C   UNL     1      90.900  93.914  77.456  1.00  0.00     0.012 C 
ATOM     25  C   UNL     1      91.818  96.292  77.060  1.00  0.00     0.012 C 
ENDBRANCH  22  23
ENDBRANCH  20  21
ENDBRANCH  19  20
ENDBRANCH  18  19
ENDBRANCH   1  18
TORSDOF 11
ENDMDL
MODEL 9
REMARK VINA RESULT:    -5.501      6.922     10.727
REMARK INTER + INTRA:          -9.713
REMARK INTER:                  -8.243
REMARK INTRA:                  -1.470
REMARK UNBOUND:                -0.834
REMARK SMILES COc1cc(CNC(=O)CCCCC/C=C/C(C)C)ccc1O
REMARK SMILES IDX 11 1 10 2 8 3 7 4 9 6 6 7 5 8 3 9 22 10 4 11 21 12 20 13
REMARK SMILES IDX 2 14 1 15 23 16 12 18 13 19 14 20 15 21 16 22 17 23 18 24
REMARK SMILES IDX 19 25
REMARK H PARENT 7 5 23 17
REMARK Flexibility Score: inf
ROOT
ATOM      1  C   UNL     1      87.248 105.365  70.707  1.00  0.00     0.010 C 
ENDROOT
BRANCH   1   2
ATOM      2  C   UNL     1      87.276 105.934  69.265  1.00  0.00     0.100 C 
BRANCH   2   3
ATOM      3  C   UNL     1      86.608 105.077  68.269  1.00  0.00     0.220 C 
ATOM      4  N   UNL     1      87.352 104.277  67.455  1.00  0.00    -0.352 N 
ATOM      5  H   UNL     1      88.351 104.390  67.552  1.00  0.00     0.163 HD
ATOM      6  O   UNL     1      85.355 105.078  68.225  1.00  0.00    -0.275 OA
BRANCH   4   7
ATOM      7  C   UNL     1      86.833 103.332  66.520  1.00  0.00     0.151 C 
BRANCH   7   8
ATOM      8  C   UNL     1      87.585 102.051  66.524  1.00  0.00    -0.025 A 
ATOM      9  C   UNL     1      89.717 100.826  66.566  1.00  0.00     0.160 A 
ATOM     10  C   UNL     1      89.016  99.604  66.477  1.00  0.00     0.157 A 
ATOM     11  C   UNL     1      88.998 102.039  66.580  1.00  0.00     0.056 A 
ATOM     12  C   UNL     1      87.609  99.603  66.438  1.00  0.00     0.050 A 
ATOM     13  C   UNL     1      86.898 100.818  66.472  1.00  0.00     0.009 A 
BRANCH   9  14
ATOM     14  O   UNL     1      91.081 100.834  66.692  1.00  0.00    -0.493 OA
ATOM     15  C   UNL     1      91.784 101.066  65.461  1.00  0.00     0.278 C 
ENDBRANCH   9  14
BRANCH  10  16
ATOM     16  O   UNL     1      89.670  98.417  66.432  1.00  0.00    -0.504 OA
ATOM     17  H   UNL     1      89.320  97.833  67.109  1.00  0.00     0.293 HD
ENDBRANCH  10  16
ENDBRANCH   7   8
ENDBRANCH   4   7
ENDBRANCH   2   3
ENDBRANCH   1   2
BRANCH   1  18
ATOM     18  C   UNL     1      88.666 105.357  71.333  1.00  0.00     0.001 C 
BRANCH  18  19
ATOM     19  C   UNL     1      89.497 104.098  70.978  1.00  0.00     0.004 C 
BRANCH  19  20
ATOM     20  C   UNL     1      89.544 103.097  72.167  1.00  0.00     0.027 C 
BRANCH  20  21
ATOM     21  C   UNL     1      90.120 101.808  71.823  1.00  0.00    -0.031 C 
ATOM     22  C   UNL     1      90.142 101.344  70.561  1.00  0.00    -0.028 C 
BRANCH  22  23
ATOM     23  C   UNL     1      90.719 100.056  70.182  1.00  0.00     0.005 C 
ATOM     24  C   UNL     1      91.840  99.656  71.177  1.00  0.00     0.012 C 
ATOM     25  C   UNL     1      89.606  98.978  70.084  1.00  0.00     0.012 C 
ENDBRANCH  22  23
ENDBRANCH  20  21
ENDBRANCH  19  20
ENDBRANCH  18  19
ENDBRANCH   1  18
TORSDOF 11
ENDMDL
MODEL 10
REMARK VINA RESULT:    -5.426     28.834     32.066
REMARK INTER + INTRA:          -9.591
REMARK INTER:                  -8.269
REMARK INTRA:                  -1.322
REMARK UNBOUND:                -0.834
REMARK SMILES COc1cc(CNC(=O)CCCCC/C=C/C(C)C)ccc1O
REMARK SMILES IDX 11 1 10 2 8 3 7 4 9 6 6 7 5 8 3 9 22 10 4 11 21 12 20 13
REMARK SMILES IDX 2 14 1 15 23 16 12 18 13 19 14 20 15 21 16 22 17 23 18 24
REMARK SMILES IDX 19 25
REMARK H PARENT 7 5 23 17
REMARK Flexibility Score: inf
ROOT
ATOM      1  C   UNL     1      84.306  64.977  73.608  1.00  0.00     0.010 C 
ENDROOT
BRANCH   1   2
ATOM      2  C   UNL     1      83.675  64.691  74.995  1.00  0.00     0.100 C 
BRANCH   2   3
ATOM      3  C   UNL     1      84.658  64.385  76.050  1.00  0.00     0.220 C 
ATOM      4  N   UNL     1      84.427  64.787  77.330  1.00  0.00    -0.352 N 
ATOM      5  H   UNL     1      83.597  65.352  77.451  1.00  0.00     0.163 HD
ATOM      6  O   UNL     1      85.674  63.718  75.742  1.00  0.00    -0.275 OA
BRANCH   4   7
ATOM      7  C   UNL     1      85.243  64.476  78.458  1.00  0.00     0.151 C 
BRANCH   7   8
ATOM      8  C   UNL     1      85.765  65.689  79.140  1.00  0.00    -0.025 A 
ATOM      9  C   UNL     1      86.031  68.131  79.246  1.00  0.00     0.160 A 
ATOM     10  C   UNL     1      86.809  67.995  80.416  1.00  0.00     0.157 A 
ATOM     11  C   UNL     1      85.523  66.979  78.612  1.00  0.00     0.056 A 
ATOM     12  C   UNL     1      87.041  66.718  80.959  1.00  0.00     0.050 A 
ATOM     13  C   UNL     1      86.514  65.574  80.332  1.00  0.00     0.009 A 
BRANCH   9  14
ATOM     14  O   UNL     1      85.726  69.374  78.758  1.00  0.00    -0.493 OA
ATOM     15  C   UNL     1      84.934  69.357  77.559  1.00  0.00     0.278 C 
ENDBRANCH   9  14
BRANCH  10  16
ATOM     16  O   UNL     1      87.339  69.076  81.040  1.00  0.00    -0.504 OA
ATOM     17  H   UNL     1      87.153  69.865  80.525  1.00  0.00     0.293 HD
ENDBRANCH  10  16
ENDBRANCH   7   8
ENDBRANCH   4   7
ENDBRANCH   2   3
ENDBRANCH   1   2
BRANCH   1  18
ATOM     18  C   UNL     1      83.452  65.990  72.803  1.00  0.00     0.001 C 
BRANCH  18  19
ATOM     19  C   UNL     1      82.390  65.324  71.891  1.00  0.00     0.004 C 
BRANCH  19  20
ATOM     20  C   UNL     1      80.980  65.935  72.123  1.00  0.00     0.027 C 
BRANCH  20  21
ATOM     21  C   UNL     1      80.575  65.956  73.518  1.00  0.00    -0.031 C 
ATOM     22  C   UNL     1      80.168  64.850  74.166  1.00  0.00    -0.028 C 
BRANCH  22  23
ATOM     23  C   UNL     1      79.760  64.838  75.568  1.00  0.00     0.005 C 
ATOM     24  C   UNL     1      80.070  63.457  76.206  1.00  0.00     0.012 C 
ATOM     25  C   UNL     1      80.437  66.006  76.335  1.00  0.00     0.012 C 
ENDBRANCH  22  23
ENDBRANCH  20  21
ENDBRANCH  19  20
ENDBRANCH  18  19
ENDBRANCH   1  18
TORSDOF 11
ENDMDL
