MODEL 1
REMARK VINA RESULT:    -6.291      0.000      0.000
REMARK INTER + INTRA:         -11.234
REMARK INTER:                 -10.336
REMARK INTRA:                  -0.898
REMARK UNBOUND:                -0.898
REMARK SMILES CCCCC[C@H](O)CC(=O)CCc1ccc(O)c(OC)c1
REMARK SMILES IDX 8 1 6 2 7 3 5 5 4 6 3 7 2 8 1 9 9 10 10 11 11 12 12 13 13 14
REMARK SMILES IDX 21 15 14 16 18 17 15 18 16 19 19 20 20 21 17 22
REMARK H PARENT 7 4 17 23
REMARK Flexibility Score: inf
ROOT
ATOM      1  C   UNL     1      92.010  95.781  76.324  1.00  0.00     0.107 C 
ENDROOT
BRANCH   1   2
ATOM      2  C   UNL     1      91.647  94.378  76.816  1.00  0.00     0.121 C 
BRANCH   2   3
ATOM      3  O   UNL     1      91.889  94.279  78.217  1.00  0.00    -0.393 OA
ATOM      4  H   UNL     1      91.256  94.863  78.671  1.00  0.00     0.210 HD
ENDBRANCH   2   3
BRANCH   2   5
ATOM      5  C   UNL     1      90.188  94.000  76.528  1.00  0.00     0.032 C 
BRANCH   5   6
ATOM      6  C   UNL     1      89.885  93.975  75.025  1.00  0.00     0.003 C 
BRANCH   6   7
ATOM      7  C   UNL     1      90.548  92.804  74.292  1.00  0.00    -0.000 C 
BRANCH   7   8
ATOM      8  C   UNL     1      89.745  91.506  74.360  1.00  0.00    -0.003 C 
ATOM      9  C   UNL     1      90.587  90.311  73.942  1.00  0.00     0.004 C 
ENDBRANCH   7   8
ENDBRANCH   6   7
ENDBRANCH   5   6
ENDBRANCH   2   5
ENDBRANCH   1   2
BRANCH   1  10
ATOM     10  C   UNL     1      93.375  95.844  75.657  1.00  0.00     0.135 C 
ATOM     11  O   UNL     1      93.668  95.075  74.743  1.00  0.00    -0.300 OA
BRANCH  10  12
ATOM     12  C   UNL     1      94.324  96.927  76.148  1.00  0.00     0.080 C 
BRANCH  12  13
ATOM     13  C   UNL     1      93.957  97.490  77.522  1.00  0.00     0.043 C 
BRANCH  13  14
ATOM     14  C   UNL     1      94.872  97.008  78.623  1.00  0.00    -0.044 A 
ATOM     15  C   UNL     1      95.597  97.928  79.380  1.00  0.00     0.054 A 
ATOM     16  C   UNL     1      94.991  95.642  78.882  1.00  0.00     0.008 A 
ATOM     17  C   UNL     1      96.441  97.482  80.398  1.00  0.00     0.160 A 
ATOM     18  C   UNL     1      95.835  95.196  79.900  1.00  0.00     0.050 A 
ATOM     19  C   UNL     1      96.560  96.116  80.657  1.00  0.00     0.157 A 
BRANCH  17  20
ATOM     20  O   UNL     1      97.145  98.390  81.130  1.00  0.00    -0.493 OA
ATOM     21  C   UNL     1      96.450  99.046  82.189  1.00  0.00     0.278 C 
ENDBRANCH  17  20
BRANCH  19  22
ATOM     22  O   UNL     1      97.381  95.669  81.647  1.00  0.00    -0.504 OA
ATOM     23  H   UNL     1      97.260  96.226  82.435  1.00  0.00     0.293 HD
ENDBRANCH  19  22
ENDBRANCH  13  14
ENDBRANCH  12  13
ENDBRANCH  10  12
ENDBRANCH   1  10
TORSDOF 12
ENDMDL
MODEL 2
REMARK VINA RESULT:    -6.139      2.100      7.821
REMARK INTER + INTRA:         -10.985
REMARK INTER:                 -10.021
REMARK INTRA:                  -0.963
REMARK UNBOUND:                -0.898
REMARK SMILES CCCCC[C@H](O)CC(=O)CCc1ccc(O)c(OC)c1
REMARK SMILES IDX 8 1 6 2 7 3 5 5 4 6 3 7 2 8 1 9 9 10 10 11 11 12 12 13 13 14
REMARK SMILES IDX 21 15 14 16 18 17 15 18 16 19 19 20 20 21 17 22
REMARK H PARENT 7 4 17 23
REMARK Flexibility Score: inf
ROOT
ATOM      1  C   UNL     1      93.736  96.674  77.571  1.00  0.00     0.107 C 
ENDROOT
BRANCH   1   2
ATOM      2  C   UNL     1      94.424  95.747  78.576  1.00  0.00     0.121 C 
BRANCH   2   3
ATOM      3  O   UNL     1      93.817  94.458  78.539  1.00  0.00    -0.393 OA
ATOM      4  H   UNL     1      94.498  93.802  78.773  1.00  0.00     0.210 HD
ENDBRANCH   2   3
BRANCH   2   5
ATOM      5  C   UNL     1      95.930  95.604  78.327  1.00  0.00     0.032 C 
BRANCH   5   6
ATOM      6  C   UNL     1      96.756  96.514  79.245  1.00  0.00     0.003 C 
BRANCH   6   7
ATOM      7  C   UNL     1      97.205  97.812  78.567  1.00  0.00    -0.000 C 
BRANCH   7   8
ATOM      8  C   UNL     1      96.314  99.011  78.887  1.00  0.00    -0.003 C 
ATOM      9  C   UNL     1      95.627  98.846  80.234  1.00  0.00     0.004 C 
ENDBRANCH   7   8
ENDBRANCH   6   7
ENDBRANCH   5   6
ENDBRANCH   2   5
ENDBRANCH   1   2
BRANCH   1  10
ATOM     10  C   UNL     1      94.282  96.531  76.159  1.00  0.00     0.135 C 
ATOM     11  O   UNL     1      95.181  97.267  75.751  1.00  0.00    -0.300 OA
BRANCH  10  12
ATOM     12  C   UNL     1      93.694  95.415  75.310  1.00  0.00     0.080 C 
BRANCH  12  13
ATOM     13  C   UNL     1      92.199  95.577  75.031  1.00  0.00     0.043 C 
BRANCH  13  14
ATOM     14  C   UNL     1      91.384  94.377  75.452  1.00  0.00    -0.044 A 
ATOM     15  C   UNL     1      91.021  93.414  74.510  1.00  0.00     0.054 A 
ATOM     16  C   UNL     1      90.995  94.231  76.784  1.00  0.00     0.008 A 
ATOM     17  C   UNL     1      90.270  92.306  74.900  1.00  0.00     0.160 A 
ATOM     18  C   UNL     1      90.244  93.122  77.174  1.00  0.00     0.050 A 
ATOM     19  C   UNL     1      89.881  92.160  76.232  1.00  0.00     0.157 A 
BRANCH  17  20
ATOM     20  O   UNL     1      89.921  91.373  73.971  1.00  0.00    -0.493 OA
ATOM     21  C   UNL     1      90.760  90.224  73.858  1.00  0.00     0.278 C 
ENDBRANCH  17  20
BRANCH  19  22
ATOM     22  O   UNL     1      89.147  91.082  76.625  1.00  0.00    -0.504 OA
ATOM     23  H   UNL     1      88.763  91.262  77.500  1.00  0.00     0.293 HD
ENDBRANCH  19  22
ENDBRANCH  13  14
ENDBRANCH  12  13
ENDBRANCH  10  12
ENDBRANCH   1  10
TORSDOF 12
ENDMDL
MODEL 3
REMARK VINA RESULT:    -6.094      2.293      8.363
REMARK INTER + INTRA:         -10.910
REMARK INTER:                 -10.245
REMARK INTRA:                  -0.666
REMARK UNBOUND:                -0.898
REMARK SMILES CCCCC[C@H](O)CC(=O)CCc1ccc(O)c(OC)c1
REMARK SMILES IDX 8 1 6 2 7 3 5 5 4 6 3 7 2 8 1 9 9 10 10 11 11 12 12 13 13 14
REMARK SMILES IDX 21 15 14 16 18 17 15 18 16 19 19 20 20 21 17 22
REMARK H PARENT 7 4 17 23
REMARK Flexibility Score: inf
ROOT
ATOM      1  C   UNL     1      93.449  94.740  77.659  1.00  0.00     0.107 C 
ENDROOT
BRANCH   1   2
ATOM      2  C   UNL     1      94.282  95.186  78.863  1.00  0.00     0.121 C 
BRANCH   2   3
ATOM      3  O   UNL     1      94.121  94.258  79.933  1.00  0.00    -0.393 OA
ATOM      4  H   UNL     1      93.196  93.954  79.926  1.00  0.00     0.210 HD
ENDBRANCH   2   3
BRANCH   2   5
ATOM      5  C   UNL     1      95.775  95.329  78.540  1.00  0.00     0.032 C 
BRANCH   5   6
ATOM      6  C   UNL     1      96.305  96.729  78.874  1.00  0.00     0.003 C 
BRANCH   6   7
ATOM      7  C   UNL     1      97.794  96.744  79.234  1.00  0.00    -0.000 C 
BRANCH   7   8
ATOM      8  C   UNL     1      98.061  96.879  80.732  1.00  0.00    -0.003 C 
ATOM      9  C   UNL     1      96.903  97.564  81.441  1.00  0.00     0.004 C 
ENDBRANCH   7   8
ENDBRANCH   6   7
ENDBRANCH   5   6
ENDBRANCH   2   5
ENDBRANCH   1   2
BRANCH   1  10
ATOM     10  C   UNL     1      92.770  95.897  76.943  1.00  0.00     0.135 C 
ATOM     11  O   UNL     1      93.431  96.809  76.447  1.00  0.00    -0.300 OA
BRANCH  10  12
ATOM     12  C   UNL     1      91.254  95.838  76.838  1.00  0.00     0.080 C 
BRANCH  12  13
ATOM     13  C   UNL     1      90.656  94.511  77.310  1.00  0.00     0.043 C 
BRANCH  13  14
ATOM     14  C   UNL     1      90.429  93.530  76.185  1.00  0.00    -0.044 A 
ATOM     15  C   UNL     1      89.907  92.265  76.456  1.00  0.00     0.054 A 
ATOM     16  C   UNL     1      90.743  93.889  74.874  1.00  0.00     0.008 A 
ATOM     17  C   UNL     1      89.698  91.360  75.415  1.00  0.00     0.160 A 
ATOM     18  C   UNL     1      90.533  92.984  73.833  1.00  0.00     0.050 A 
ATOM     19  C   UNL     1      90.011  91.720  74.104  1.00  0.00     0.157 A 
BRANCH  17  20
ATOM     20  O   UNL     1      89.187  90.128  75.692  1.00  0.00    -0.493 OA
ATOM     21  C   UNL     1      90.123  89.075  75.920  1.00  0.00     0.278 C 
ENDBRANCH  17  20
BRANCH  19  22
ATOM     22  O   UNL     1      89.811  90.845  73.080  1.00  0.00    -0.504 OA
ATOM     23  H   UNL     1      90.194  91.216  72.266  1.00  0.00     0.293 HD
ENDBRANCH  19  22
ENDBRANCH  13  14
ENDBRANCH  12  13
ENDBRANCH  10  12
ENDBRANCH   1  10
TORSDOF 12
ENDMDL
MODEL 4
REMARK VINA RESULT:    -6.063     27.779     32.614
REMARK INTER + INTRA:         -10.860
REMARK INTER:                  -9.898
REMARK INTRA:                  -0.961
REMARK UNBOUND:                -0.898
REMARK SMILES CCCCC[C@H](O)CC(=O)CCc1ccc(O)c(OC)c1
REMARK SMILES IDX 8 1 6 2 7 3 5 5 4 6 3 7 2 8 1 9 9 10 10 11 11 12 12 13 13 14
REMARK SMILES IDX 21 15 14 16 18 17 15 18 16 19 19 20 20 21 17 22
REMARK H PARENT 7 4 17 23
REMARK Flexibility Score: inf
ROOT
ATOM      1  C   UNL     1      79.182  65.382  70.325  1.00  0.00     0.107 C 
ENDROOT
BRANCH   1   2
ATOM      2  C   UNL     1      79.249  64.386  69.165  1.00  0.00     0.121 C 
BRANCH   2   3
ATOM      3  O   UNL     1      80.256  63.411  69.423  1.00  0.00    -0.393 OA
ATOM      4  H   UNL     1      80.453  63.431  70.376  1.00  0.00     0.210 HD
ENDBRANCH   2   3
BRANCH   2   5
ATOM      5  C   UNL     1      77.914  63.677  68.906  1.00  0.00     0.032 C 
BRANCH   5   6
ATOM      6  C   UNL     1      77.432  63.865  67.462  1.00  0.00     0.003 C 
BRANCH   6   7
ATOM      7  C   UNL     1      76.793  65.235  67.210  1.00  0.00    -0.000 C 
BRANCH   7   8
ATOM      8  C   UNL     1      75.790  65.649  68.285  1.00  0.00    -0.003 C 
ATOM      9  C   UNL     1      74.476  64.898  68.135  1.00  0.00     0.004 C 
ENDBRANCH   7   8
ENDBRANCH   6   7
ENDBRANCH   5   6
ENDBRANCH   2   5
ENDBRANCH   1   2
BRANCH   1  10
ATOM     10  C   UNL     1      80.525  65.600  71.002  1.00  0.00     0.135 C 
ATOM     11  O   UNL     1      81.536  65.835  70.340  1.00  0.00    -0.300 OA
BRANCH  10  12
ATOM     12  C   UNL     1      80.538  65.555  72.522  1.00  0.00     0.080 C 
BRANCH  12  13
ATOM     13  C   UNL     1      80.913  66.888  73.173  1.00  0.00     0.043 C 
BRANCH  13  14
ATOM     14  C   UNL     1      82.385  66.998  73.492  1.00  0.00    -0.044 A 
ATOM     15  C   UNL     1      83.210  67.804  72.709  1.00  0.00     0.054 A 
ATOM     16  C   UNL     1      82.919  66.293  74.571  1.00  0.00     0.008 A 
ATOM     17  C   UNL     1      84.570  67.906  73.005  1.00  0.00     0.160 A 
ATOM     18  C   UNL     1      84.278  66.394  74.867  1.00  0.00     0.050 A 
ATOM     19  C   UNL     1      85.104  67.200  74.084  1.00  0.00     0.157 A 
BRANCH  17  20
ATOM     20  O   UNL     1      85.366  68.696  72.232  1.00  0.00    -0.493 OA
ATOM     21  C   UNL     1      85.431  70.080  72.572  1.00  0.00     0.278 C 
ENDBRANCH  17  20
BRANCH  19  22
ATOM     22  O   UNL     1      86.429  67.292  74.382  1.00  0.00    -0.504 OA
ATOM     23  H   UNL     1      86.724  68.207  74.240  1.00  0.00     0.293 HD
ENDBRANCH  19  22
ENDBRANCH  13  14
ENDBRANCH  12  13
ENDBRANCH  10  12
ENDBRANCH   1  10
TORSDOF 12
ENDMDL
MODEL 5
REMARK VINA RESULT:    -6.042     14.326     16.663
REMARK INTER + INTRA:         -10.826
REMARK INTER:                 -10.016
REMARK INTRA:                  -0.811
REMARK UNBOUND:                -0.898
REMARK SMILES CCCCC[C@H](O)CC(=O)CCc1ccc(O)c(OC)c1
REMARK SMILES IDX 8 1 6 2 7 3 5 5 4 6 3 7 2 8 1 9 9 10 10 11 11 12 12 13 13 14
REMARK SMILES IDX 21 15 14 16 18 17 15 18 16 19 19 20 20 21 17 22
REMARK H PARENT 7 4 17 23
REMARK Flexibility Score: inf
ROOT
ATOM      1  C   UNL     1      93.927  81.168  84.557  1.00  0.00     0.107 C 
ENDROOT
BRANCH   1   2
ATOM      2  C   UNL     1      95.011  81.990  85.258  1.00  0.00     0.121 C 
BRANCH   2   3
ATOM      3  O   UNL     1      94.817  81.942  86.670  1.00  0.00    -0.393 OA
ATOM      4  H   UNL     1      94.827  82.857  87.003  1.00  0.00     0.210 HD
ENDBRANCH   2   3
BRANCH   2   5
ATOM      5  C   UNL     1      96.432  81.516  84.928  1.00  0.00     0.032 C 
BRANCH   5   6
ATOM      6  C   UNL     1      96.949  82.116  83.615  1.00  0.00     0.003 C 
BRANCH   6   7
ATOM      7  C   UNL     1      97.470  81.064  82.631  1.00  0.00    -0.000 C 
BRANCH   7   8
ATOM      8  C   UNL     1      97.032  81.305  81.187  1.00  0.00    -0.003 C 
ATOM      9  C   UNL     1      97.078  82.784  80.834  1.00  0.00     0.004 C 
ENDBRANCH   7   8
ENDBRANCH   6   7
ENDBRANCH   5   6
ENDBRANCH   2   5
ENDBRANCH   1   2
BRANCH   1  10
ATOM     10  C   UNL     1      92.556  81.823  84.610  1.00  0.00     0.135 C 
ATOM     11  O   UNL     1      92.391  82.901  85.180  1.00  0.00    -0.300 OA
BRANCH  10  12
ATOM     12  C   UNL     1      91.427  81.100  83.891  1.00  0.00     0.080 C 
BRANCH  12  13
ATOM     13  C   UNL     1      90.231  80.780  84.789  1.00  0.00     0.043 C 
BRANCH  13  14
ATOM     14  C   UNL     1      88.938  81.380  84.288  1.00  0.00    -0.044 A 
ATOM     15  C   UNL     1      88.526  82.632  84.746  1.00  0.00     0.054 A 
ATOM     16  C   UNL     1      88.156  80.681  83.369  1.00  0.00     0.008 A 
ATOM     17  C   UNL     1      87.332  83.185  84.282  1.00  0.00     0.160 A 
ATOM     18  C   UNL     1      86.962  81.234  82.905  1.00  0.00     0.050 A 
ATOM     19  C   UNL     1      86.550  82.486  83.362  1.00  0.00     0.157 A 
BRANCH  17  20
ATOM     20  O   UNL     1      86.940  84.408  84.736  1.00  0.00    -0.493 OA
ATOM     21  C   UNL     1      86.330  84.456  86.025  1.00  0.00     0.278 C 
ENDBRANCH  17  20
BRANCH  19  22
ATOM     22  O   UNL     1      85.383  83.015  82.903  1.00  0.00    -0.504 OA
ATOM     23  H   UNL     1      84.749  83.071  83.638  1.00  0.00     0.293 HD
ENDBRANCH  19  22
ENDBRANCH  13  14
ENDBRANCH  12  13
ENDBRANCH  10  12
ENDBRANCH   1  10
TORSDOF 12
ENDMDL
MODEL 6
REMARK VINA RESULT:    -5.857      2.200      8.374
REMARK INTER + INTRA:         -10.522
REMARK INTER:                  -9.740
REMARK INTRA:                  -0.782
REMARK UNBOUND:                -0.898
REMARK SMILES CCCCC[C@H](O)CC(=O)CCc1ccc(O)c(OC)c1
REMARK SMILES IDX 8 1 6 2 7 3 5 5 4 6 3 7 2 8 1 9 9 10 10 11 11 12 12 13 13 14
REMARK SMILES IDX 21 15 14 16 18 17 15 18 16 19 19 20 20 21 17 22
REMARK H PARENT 7 4 17 23
REMARK Flexibility Score: inf
ROOT
ATOM      1  C   UNL     1      95.921  97.117  77.993  1.00  0.00     0.107 C 
ENDROOT
BRANCH   1   2
ATOM      2  C   UNL     1      96.262  96.966  79.478  1.00  0.00     0.121 C 
BRANCH   2   3
ATOM      3  O   UNL     1      95.463  95.935  80.054  1.00  0.00    -0.393 OA
ATOM      4  H   UNL     1      94.551  96.267  80.120  1.00  0.00     0.210 HD
ENDBRANCH   2   3
BRANCH   2   5
ATOM      5  C   UNL     1      97.743  96.655  79.725  1.00  0.00     0.032 C 
BRANCH   5   6
ATOM      6  C   UNL     1      98.144  96.883  81.187  1.00  0.00     0.003 C 
BRANCH   6   7
ATOM      7  C   UNL     1      98.439  95.584  81.945  1.00  0.00    -0.000 C 
BRANCH   7   8
ATOM      8  C   UNL     1      98.564  95.772  83.455  1.00  0.00    -0.003 C 
ATOM      9  C   UNL     1      99.020  97.180  83.804  1.00  0.00     0.004 C 
ENDBRANCH   7   8
ENDBRANCH   6   7
ENDBRANCH   5   6
ENDBRANCH   2   5
ENDBRANCH   1   2
BRANCH   1  10
ATOM     10  C   UNL     1      94.889  96.110  77.513  1.00  0.00     0.135 C 
ATOM     11  O   UNL     1      95.155  94.909  77.459  1.00  0.00    -0.300 OA
BRANCH  10  12
ATOM     12  C   UNL     1      93.517  96.658  77.153  1.00  0.00     0.080 C 
BRANCH  12  13
ATOM     13  C   UNL     1      92.924  96.045  75.882  1.00  0.00     0.043 C 
BRANCH  13  14
ATOM     14  C   UNL     1      91.920  94.953  76.164  1.00  0.00    -0.044 A 
ATOM     15  C   UNL     1      91.368  94.224  75.111  1.00  0.00     0.054 A 
ATOM     16  C   UNL     1      91.546  94.673  77.479  1.00  0.00     0.008 A 
ATOM     17  C   UNL     1      90.442  93.214  75.373  1.00  0.00     0.160 A 
ATOM     18  C   UNL     1      90.619  93.663  77.740  1.00  0.00     0.050 A 
ATOM     19  C   UNL     1      90.067  92.934  76.687  1.00  0.00     0.157 A 
BRANCH  17  20
ATOM     20  O   UNL     1      89.909  92.509  74.336  1.00  0.00    -0.493 OA
ATOM     21  C   UNL     1      90.579  91.308  73.957  1.00  0.00     0.278 C 
ENDBRANCH  17  20
BRANCH  19  22
ATOM     22  O   UNL     1      89.164  91.951  76.955  1.00  0.00    -0.504 OA
ATOM     23  H   UNL     1      88.985  91.454  76.138  1.00  0.00     0.293 HD
ENDBRANCH  19  22
ENDBRANCH  13  14
ENDBRANCH  12  13
ENDBRANCH  10  12
ENDBRANCH   1  10
TORSDOF 12
ENDMDL
MODEL 7
REMARK VINA RESULT:    -5.549     12.341     14.247
REMARK INTER + INTRA:         -10.015
REMARK INTER:                  -9.117
REMARK INTRA:                  -0.898
REMARK UNBOUND:                -0.898
REMARK SMILES CCCCC[C@H](O)CC(=O)CCc1ccc(O)c(OC)c1
REMARK SMILES IDX 8 1 6 2 7 3 5 5 4 6 3 7 2 8 1 9 9 10 10 11 11 12 12 13 13 14
REMARK SMILES IDX 21 15 14 16 18 17 15 18 16 19 19 20 20 21 17 22
REMARK H PARENT 7 4 17 23
REMARK Flexibility Score: inf
ROOT
ATOM      1  C   UNL     1      97.076  81.799  80.548  1.00  0.00     0.107 C 
ENDROOT
BRANCH   1   2
ATOM      2  C   UNL     1      97.173  83.035  79.652  1.00  0.00     0.121 C 
BRANCH   2   3
ATOM      3  O   UNL     1      98.168  83.922  80.156  1.00  0.00    -0.393 OA
ATOM      4  H   UNL     1      98.036  84.789  79.735  1.00  0.00     0.210 HD
ENDBRANCH   2   3
BRANCH   2   5
ATOM      5  C   UNL     1      97.493  82.694  78.191  1.00  0.00     0.032 C 
BRANCH   5   6
ATOM      6  C   UNL     1      97.066  83.811  77.231  1.00  0.00     0.003 C 
BRANCH   6   7
ATOM      7  C   UNL     1      97.939  83.898  75.975  1.00  0.00    -0.000 C 
BRANCH   7   8
ATOM      8  C   UNL     1      97.230  84.533  74.780  1.00  0.00    -0.003 C 
ATOM      9  C   UNL     1      97.775  83.998  73.464  1.00  0.00     0.004 C 
ENDBRANCH   7   8
ENDBRANCH   6   7
ENDBRANCH   5   6
ENDBRANCH   2   5
ENDBRANCH   1   2
BRANCH   1  10
ATOM     10  C   UNL     1      98.279  81.630  81.462  1.00  0.00     0.135 C 
ATOM     11  O   UNL     1      99.419  81.558  81.001  1.00  0.00    -0.300 OA
BRANCH  10  12
ATOM     12  C   UNL     1      98.002  81.603  82.957  1.00  0.00     0.080 C 
BRANCH  12  13
ATOM     13  C   UNL     1      96.762  80.792  83.338  1.00  0.00     0.043 C 
BRANCH  13  14
ATOM     14  C   UNL     1      95.630  81.648  83.854  1.00  0.00    -0.044 A 
ATOM     15  C   UNL     1      95.821  83.017  84.044  1.00  0.00     0.054 A 
ATOM     16  C   UNL     1      94.393  81.070  84.142  1.00  0.00     0.008 A 
ATOM     17  C   UNL     1      94.775  83.807  84.521  1.00  0.00     0.160 A 
ATOM     18  C   UNL     1      93.347  81.860  84.618  1.00  0.00     0.050 A 
ATOM     19  C   UNL     1      93.538  83.229  84.808  1.00  0.00     0.157 A 
BRANCH  17  20
ATOM     20  O   UNL     1      94.973  85.143  84.702  1.00  0.00    -0.493 OA
ATOM     21  C   UNL     1      95.877  85.791  83.809  1.00  0.00     0.278 C 
ENDBRANCH  17  20
BRANCH  19  22
ATOM     22  O   UNL     1      92.509  83.990  85.274  1.00  0.00    -0.504 OA
ATOM     23  H   UNL     1      92.857  84.853  85.556  1.00  0.00     0.293 HD
ENDBRANCH  19  22
ENDBRANCH  13  14
ENDBRANCH  12  13
ENDBRANCH  10  12
ENDBRANCH   1  10
TORSDOF 12
ENDMDL
MODEL 8
REMARK VINA RESULT:    -5.435     12.534     14.015
REMARK INTER + INTRA:          -9.829
REMARK INTER:                  -9.076
REMARK INTRA:                  -0.753
REMARK UNBOUND:                -0.898
REMARK SMILES CCCCC[C@H](O)CC(=O)CCc1ccc(O)c(OC)c1
REMARK SMILES IDX 8 1 6 2 7 3 5 5 4 6 3 7 2 8 1 9 9 10 10 11 11 12 12 13 13 14
REMARK SMILES IDX 21 15 14 16 18 17 15 18 16 19 19 20 20 21 17 22
REMARK H PARENT 7 4 17 23
REMARK Flexibility Score: inf
ROOT
ATOM      1  C   UNL     1      98.341  83.743  75.258  1.00  0.00     0.107 C 
ENDROOT
BRANCH   1   2
ATOM      2  C   UNL     1      98.440  84.617  74.006  1.00  0.00     0.121 C 
BRANCH   2   3
ATOM      3  O   UNL     1      99.138  85.822  74.311  1.00  0.00    -0.393 OA
ATOM      4  H   UNL     1      98.709  86.226  75.086  1.00  0.00     0.210 HD
ENDBRANCH   2   3
BRANCH   2   5
ATOM      5  C   UNL     1      99.137  83.913  72.835  1.00  0.00     0.032 C 
BRANCH   5   6
ATOM      6  C   UNL     1      98.936  82.394  72.874  1.00  0.00     0.003 C 
BRANCH   6   7
ATOM      7  C   UNL     1      98.200  81.847  71.646  1.00  0.00    -0.000 C 
BRANCH   7   8
ATOM      8  C   UNL     1      99.130  81.252  70.590  1.00  0.00    -0.003 C 
ATOM      9  C   UNL     1      98.361  80.831  69.348  1.00  0.00     0.004 C 
ENDBRANCH   7   8
ENDBRANCH   6   7
ENDBRANCH   5   6
ENDBRANCH   2   5
ENDBRANCH   1   2
BRANCH   1  10
ATOM     10  C   UNL     1      97.095  84.021  76.082  1.00  0.00     0.135 C 
ATOM     11  O   UNL     1      96.393  85.006  75.855  1.00  0.00    -0.300 OA
BRANCH  10  12
ATOM     12  C   UNL     1      96.747  83.003  77.158  1.00  0.00     0.080 C 
BRANCH  12  13
ATOM     13  C   UNL     1      96.523  83.621  78.539  1.00  0.00     0.043 C 
BRANCH  13  14
ATOM     14  C   UNL     1      97.300  82.925  79.632  1.00  0.00    -0.044 A 
ATOM     15  C   UNL     1      96.875  83.016  80.957  1.00  0.00     0.054 A 
ATOM     16  C   UNL     1      98.444  82.191  79.315  1.00  0.00     0.008 A 
ATOM     17  C   UNL     1      97.593  82.373  81.965  1.00  0.00     0.160 A 
ATOM     18  C   UNL     1      99.162  81.548  80.323  1.00  0.00     0.050 A 
ATOM     19  C   UNL     1      98.737  81.639  81.648  1.00  0.00     0.157 A 
BRANCH  17  20
ATOM     20  O   UNL     1      97.169  82.470  83.256  1.00  0.00    -0.493 OA
ATOM     21  C   UNL     1      95.893  83.069  83.476  1.00  0.00     0.278 C 
ENDBRANCH  17  20
BRANCH  19  22
ATOM     22  O   UNL     1      99.446  81.007  82.623  1.00  0.00    -0.504 OA
ATOM     23  H   UNL     1     100.150  80.477  82.211  1.00  0.00     0.293 HD
ENDBRANCH  19  22
ENDBRANCH  13  14
ENDBRANCH  12  13
ENDBRANCH  10  12
ENDBRANCH   1  10
TORSDOF 12
ENDMDL
MODEL 9
REMARK VINA RESULT:    -5.305     15.687     18.673
REMARK INTER + INTRA:          -9.615
REMARK INTER:                  -8.737
REMARK INTRA:                  -0.877
REMARK UNBOUND:                -0.898
REMARK SMILES CCCCC[C@H](O)CC(=O)CCc1ccc(O)c(OC)c1
REMARK SMILES IDX 8 1 6 2 7 3 5 5 4 6 3 7 2 8 1 9 9 10 10 11 11 12 12 13 13 14
REMARK SMILES IDX 21 15 14 16 18 17 15 18 16 19 19 20 20 21 17 22
REMARK H PARENT 7 4 17 23
REMARK Flexibility Score: inf
ROOT
ATOM      1  C   UNL     1      91.194  75.452  81.989  1.00  0.00     0.107 C 
ENDROOT
BRANCH   1   2
ATOM      2  C   UNL     1      91.928  75.323  80.652  1.00  0.00     0.121 C 
BRANCH   2   3
ATOM      3  O   UNL     1      93.301  75.017  80.883  1.00  0.00    -0.393 OA
ATOM      4  H   UNL     1      93.381  74.050  80.963  1.00  0.00     0.210 HD
ENDBRANCH   2   3
BRANCH   2   5
ATOM      5  C   UNL     1      91.320  74.255  79.734  1.00  0.00     0.032 C 
BRANCH   5   6
ATOM      6  C   UNL     1      90.358  74.860  78.705  1.00  0.00     0.003 C 
BRANCH   6   7
ATOM      7  C   UNL     1      91.063  75.387  77.452  1.00  0.00    -0.000 C 
BRANCH   7   8
ATOM      8  C   UNL     1      91.082  76.912  77.356  1.00  0.00    -0.003 C 
ATOM      9  C   UNL     1      92.170  77.394  76.408  1.00  0.00     0.004 C 
ENDBRANCH   7   8
ENDBRANCH   6   7
ENDBRANCH   5   6
ENDBRANCH   2   5
ENDBRANCH   1   2
BRANCH   1  10
ATOM     10  C   UNL     1      92.134  75.504  83.182  1.00  0.00     0.135 C 
ATOM     11  O   UNL     1      92.700  74.489  83.587  1.00  0.00    -0.300 OA
BRANCH  10  12
ATOM     12  C   UNL     1      92.365  76.871  83.809  1.00  0.00     0.080 C 
BRANCH  12  13
ATOM     13  C   UNL     1      91.074  77.612  84.163  1.00  0.00     0.043 C 
BRANCH  13  14
ATOM     14  C   UNL     1      91.266  79.103  84.302  1.00  0.00    -0.044 A 
ATOM     15  C   UNL     1      90.170  79.960  84.200  1.00  0.00     0.054 A 
ATOM     16  C   UNL     1      92.540  79.623  84.532  1.00  0.00     0.008 A 
ATOM     17  C   UNL     1      90.349  81.338  84.329  1.00  0.00     0.160 A 
ATOM     18  C   UNL     1      92.719  81.000  84.661  1.00  0.00     0.050 A 
ATOM     19  C   UNL     1      91.623  81.858  84.559  1.00  0.00     0.157 A 
BRANCH  17  20
ATOM     20  O   UNL     1      89.272  82.165  84.228  1.00  0.00    -0.493 OA
ATOM     21  C   UNL     1      87.993  81.550  84.083  1.00  0.00     0.278 C 
ENDBRANCH  17  20
BRANCH  19  22
ATOM     22  O   UNL     1      91.810  83.201  84.687  1.00  0.00    -0.504 OA
ATOM     23  H   UNL     1      91.575  83.635  83.849  1.00  0.00     0.293 HD
ENDBRANCH  19  22
ENDBRANCH  13  14
ENDBRANCH  12  13
ENDBRANCH  10  12
ENDBRANCH   1  10
TORSDOF 12
ENDMDL
MODEL 10
REMARK VINA RESULT:    -5.201     24.882     28.439
REMARK INTER + INTRA:          -9.443
REMARK INTER:                  -7.508
REMARK INTRA:                  -1.935
REMARK UNBOUND:                -0.898
REMARK SMILES CCCCC[C@H](O)CC(=O)CCc1ccc(O)c(OC)c1
REMARK SMILES IDX 8 1 6 2 7 3 5 5 4 6 3 7 2 8 1 9 9 10 10 11 11 12 12 13 13 14
REMARK SMILES IDX 21 15 14 16 18 17 15 18 16 19 19 20 20 21 17 22
REMARK H PARENT 7 4 17 23
REMARK Flexibility Score: inf
ROOT
ATOM      1  C   UNL     1      81.791  74.819  85.889  1.00  0.00     0.107 C 
ENDROOT
BRANCH   1   2
ATOM      2  C   UNL     1      81.215  75.329  84.566  1.00  0.00     0.121 C 
BRANCH   2   3
ATOM      3  O   UNL     1      81.815  74.632  83.476  1.00  0.00    -0.393 OA
ATOM      4  H   UNL     1      81.144  74.038  83.097  1.00  0.00     0.210 HD
ENDBRANCH   2   3
BRANCH   2   5
ATOM      5  C   UNL     1      79.691  75.184  84.479  1.00  0.00     0.032 C 
BRANCH   5   6
ATOM      6  C   UNL     1      79.238  74.659  83.111  1.00  0.00     0.003 C 
BRANCH   6   7
ATOM      7  C   UNL     1      78.680  73.234  83.163  1.00  0.00    -0.000 C 
BRANCH   7   8
ATOM      8  C   UNL     1      77.533  73.061  84.157  1.00  0.00    -0.003 C 
ATOM      9  C   UNL     1      76.957  71.655  84.100  1.00  0.00     0.004 C 
ENDBRANCH   7   8
ENDBRANCH   6   7
ENDBRANCH   5   6
ENDBRANCH   2   5
ENDBRANCH   1   2
BRANCH   1  10
ATOM     10  C   UNL     1      81.305  75.608  87.094  1.00  0.00     0.135 C 
ATOM     11  O   UNL     1      81.470  76.826  87.161  1.00  0.00    -0.300 OA
BRANCH  10  12
ATOM     12  C   UNL     1      80.575  74.824  88.173  1.00  0.00     0.080 C 
BRANCH  12  13
ATOM     13  C   UNL     1      80.121  73.434  87.723  1.00  0.00     0.043 C 
BRANCH  13  14
ATOM     14  C   UNL     1      78.619  73.285  87.685  1.00  0.00    -0.044 A 
ATOM     15  C   UNL     1      78.041  72.018  87.762  1.00  0.00     0.054 A 
ATOM     16  C   UNL     1      77.809  74.416  87.573  1.00  0.00     0.008 A 
ATOM     17  C   UNL     1      76.653  71.882  87.728  1.00  0.00     0.160 A 
ATOM     18  C   UNL     1      76.421  74.280  87.539  1.00  0.00     0.050 A 
ATOM     19  C   UNL     1      75.843  73.012  87.616  1.00  0.00     0.157 A 
BRANCH  17  20
ATOM     20  O   UNL     1      76.100  70.639  87.804  1.00  0.00    -0.493 OA
ATOM     21  C   UNL     1      76.909  69.543  87.382  1.00  0.00     0.278 C 
ENDBRANCH  17  20
BRANCH  19  22
ATOM     22  O   UNL     1      74.487  72.892  87.582  1.00  0.00    -0.504 OA
ATOM     23  H   UNL     1      74.122  73.172  88.439  1.00  0.00     0.293 HD
ENDBRANCH  19  22
ENDBRANCH  13  14
ENDBRANCH  12  13
ENDBRANCH  10  12
ENDBRANCH   1  10
TORSDOF 12
ENDMDL
