MODEL 1
REMARK VINA RESULT:    -6.061      0.000      0.000
REMARK INTER + INTRA:         -11.289
REMARK INTER:                  -9.959
REMARK INTRA:                  -1.330
REMARK UNBOUND:                -1.330
REMARK SMILES CCCCC[C@H](O)CC(=O)CCc1ccc(O)c(OC)c1
REMARK SMILES IDX 8 1 6 2 7 3 5 5 4 6 3 7 2 8 1 9 9 10 10 11 11 12 12 13 13 14
REMARK SMILES IDX 21 15 14 16 18 17 15 18 16 19 19 20 20 21 17 22
REMARK H PARENT 7 4 17 23
REMARK Flexibility Score: inf
ROOT
ATOM      1  C   UNL     1      94.807  94.064  75.283  1.00  0.00     0.107 C 
ENDROOT
BRANCH   1   2
ATOM      2  C   UNL     1      96.055  94.394  76.105  1.00  0.00     0.121 C 
BRANCH   2   3
ATOM      3  O   UNL     1      96.141  95.802  76.309  1.00  0.00    -0.393 OA
ATOM      4  H   UNL     1      95.491  96.044  76.993  1.00  0.00     0.210 HD
ENDBRANCH   2   3
BRANCH   2   5
ATOM      5  C   UNL     1      96.083  93.684  77.464  1.00  0.00     0.032 C 
BRANCH   5   6
ATOM      6  C   UNL     1      96.209  94.674  78.629  1.00  0.00     0.003 C 
BRANCH   6   7
ATOM      7  C   UNL     1      95.096  94.528  79.671  1.00  0.00    -0.000 C 
BRANCH   7   8
ATOM      8  C   UNL     1      95.379  95.270  80.976  1.00  0.00    -0.003 C 
ATOM      9  C   UNL     1      96.592  94.693  81.690  1.00  0.00     0.004 C 
ENDBRANCH   7   8
ENDBRANCH   6   7
ENDBRANCH   5   6
ENDBRANCH   2   5
ENDBRANCH   1   2
BRANCH   1  10
ATOM     10  C   UNL     1      93.812  95.212  75.222  1.00  0.00     0.135 C 
ATOM     11  O   UNL     1      94.082  96.252  74.621  1.00  0.00    -0.300 OA
BRANCH  10  12
ATOM     12  C   UNL     1      92.469  94.987  75.899  1.00  0.00     0.080 C 
BRANCH  12  13
ATOM     13  C   UNL     1      92.525  93.997  77.064  1.00  0.00     0.043 C 
BRANCH  13  14
ATOM     14  C   UNL     1      91.672  92.771  76.841  1.00  0.00    -0.044 A 
ATOM     15  C   UNL     1      91.466  92.290  75.548  1.00  0.00     0.054 A 
ATOM     16  C   UNL     1      91.090  92.120  77.929  1.00  0.00     0.008 A 
ATOM     17  C   UNL     1      90.679  91.157  75.344  1.00  0.00     0.160 A 
ATOM     18  C   UNL     1      90.303  90.987  77.724  1.00  0.00     0.050 A 
ATOM     19  C   UNL     1      90.097  90.506  76.432  1.00  0.00     0.157 A 
BRANCH  17  20
ATOM     20  O   UNL     1      90.484  90.696  74.076  1.00  0.00    -0.493 OA
ATOM     21  C   UNL     1      91.183  91.367  73.029  1.00  0.00     0.278 C 
ENDBRANCH  17  20
BRANCH  19  22
ATOM     22  O   UNL     1      89.326  89.398  76.244  1.00  0.00    -0.504 OA
ATOM     23  H   UNL     1      88.494  89.661  75.814  1.00  0.00     0.293 HD
ENDBRANCH  19  22
ENDBRANCH  13  14
ENDBRANCH  12  13
ENDBRANCH  10  12
ENDBRANCH   1  10
TORSDOF 12
ENDMDL
MODEL 2
REMARK VINA RESULT:    -5.704      1.906      2.393
REMARK INTER + INTRA:         -10.702
REMARK INTER:                  -9.831
REMARK INTRA:                  -0.871
REMARK UNBOUND:                -1.330
REMARK SMILES CCCCC[C@H](O)CC(=O)CCc1ccc(O)c(OC)c1
REMARK SMILES IDX 8 1 6 2 7 3 5 5 4 6 3 7 2 8 1 9 9 10 10 11 11 12 12 13 13 14
REMARK SMILES IDX 21 15 14 16 18 17 15 18 16 19 19 20 20 21 17 22
REMARK H PARENT 7 4 17 23
REMARK Flexibility Score: inf
ROOT
ATOM      1  C   UNL     1      95.566  93.650  77.463  1.00  0.00     0.107 C 
ENDROOT
BRANCH   1   2
ATOM      2  C   UNL     1      95.097  94.419  78.700  1.00  0.00     0.121 C 
BRANCH   2   3
ATOM      3  O   UNL     1      94.814  93.507  79.758  1.00  0.00    -0.393 OA
ATOM      4  H   UNL     1      94.651  92.633  79.362  1.00  0.00     0.210 HD
ENDBRANCH   2   3
BRANCH   2   5
ATOM      5  C   UNL     1      96.119  95.454  79.187  1.00  0.00     0.032 C 
BRANCH   5   6
ATOM      6  C   UNL     1      95.953  95.772  80.678  1.00  0.00     0.003 C 
BRANCH   6   7
ATOM      7  C   UNL     1      96.312  97.218  81.033  1.00  0.00    -0.000 C 
BRANCH   7   8
ATOM      8  C   UNL     1      97.063  97.953  79.925  1.00  0.00    -0.003 C 
ATOM      9  C   UNL     1      98.553  98.033  80.223  1.00  0.00     0.004 C 
ENDBRANCH   7   8
ENDBRANCH   6   7
ENDBRANCH   5   6
ENDBRANCH   2   5
ENDBRANCH   1   2
BRANCH   1  10
ATOM     10  C   UNL     1      95.104  94.280  76.159  1.00  0.00     0.135 C 
ATOM     11  O   UNL     1      95.882  94.425  75.216  1.00  0.00    -0.300 OA
BRANCH  10  12
ATOM     12  C   UNL     1      93.637  94.673  76.074  1.00  0.00     0.080 C 
BRANCH  12  13
ATOM     13  C   UNL     1      92.821  93.798  75.120  1.00  0.00     0.043 C 
BRANCH  13  14
ATOM     14  C   UNL     1      91.975  92.772  75.836  1.00  0.00    -0.044 A 
ATOM     15  C   UNL     1      91.504  91.654  75.148  1.00  0.00     0.054 A 
ATOM     16  C   UNL     1      91.666  92.943  77.186  1.00  0.00     0.008 A 
ATOM     17  C   UNL     1      90.723  90.707  75.811  1.00  0.00     0.160 A 
ATOM     18  C   UNL     1      90.885  91.996  77.848  1.00  0.00     0.050 A 
ATOM     19  C   UNL     1      90.413  90.878  77.161  1.00  0.00     0.157 A 
BRANCH  17  20
ATOM     20  O   UNL     1      90.267  89.619  75.129  1.00  0.00    -0.493 OA
ATOM     21  C   UNL     1      91.214  88.591  74.842  1.00  0.00     0.278 C 
ENDBRANCH  17  20
BRANCH  19  22
ATOM     22  O   UNL     1      89.652  89.960  77.818  1.00  0.00    -0.504 OA
ATOM     23  H   UNL     1      88.955  89.639  77.220  1.00  0.00     0.293 HD
ENDBRANCH  19  22
ENDBRANCH  13  14
ENDBRANCH  12  13
ENDBRANCH  10  12
ENDBRANCH   1  10
TORSDOF 12
ENDMDL
MODEL 3
REMARK VINA RESULT:    -5.552      2.371      7.365
REMARK INTER + INTRA:         -10.452
REMARK INTER:                  -9.388
REMARK INTRA:                  -1.063
REMARK UNBOUND:                -1.330
REMARK SMILES CCCCC[C@H](O)CC(=O)CCc1ccc(O)c(OC)c1
REMARK SMILES IDX 8 1 6 2 7 3 5 5 4 6 3 7 2 8 1 9 9 10 10 11 11 12 12 13 13 14
REMARK SMILES IDX 21 15 14 16 18 17 15 18 16 19 19 20 20 21 17 22
REMARK H PARENT 7 4 17 23
REMARK Flexibility Score: inf
ROOT
ATOM      1  C   UNL     1      93.721  93.593  75.200  1.00  0.00     0.107 C 
ENDROOT
BRANCH   1   2
ATOM      2  C   UNL     1      92.796  93.448  76.411  1.00  0.00     0.121 C 
BRANCH   2   3
ATOM      3  O   UNL     1      92.668  94.703  77.075  1.00  0.00    -0.393 OA
ATOM      4  H   UNL     1      92.087  95.267  76.535  1.00  0.00     0.210 HD
ENDBRANCH   2   3
BRANCH   2   5
ATOM      5  C   UNL     1      91.401  92.928  76.041  1.00  0.00     0.032 C 
BRANCH   5   6
ATOM      6  C   UNL     1      91.315  92.503  74.570  1.00  0.00     0.003 C 
BRANCH   6   7
ATOM      7  C   UNL     1      90.204  93.219  73.796  1.00  0.00    -0.000 C 
BRANCH   7   8
ATOM      8  C   UNL     1      89.946  92.630  72.410  1.00  0.00    -0.003 C 
ATOM      9  C   UNL     1      88.510  92.151  72.270  1.00  0.00     0.004 C 
ENDBRANCH   7   8
ENDBRANCH   6   7
ENDBRANCH   5   6
ENDBRANCH   2   5
ENDBRANCH   1   2
BRANCH   1  10
ATOM     10  C   UNL     1      94.806  94.638  75.402  1.00  0.00     0.135 C 
ATOM     11  O   UNL     1      94.625  95.810  75.070  1.00  0.00    -0.300 OA
BRANCH  10  12
ATOM     12  C   UNL     1      96.090  94.169  76.069  1.00  0.00     0.080 C 
BRANCH  12  13
ATOM     13  C   UNL     1      96.730  95.219  76.979  1.00  0.00     0.043 C 
BRANCH  13  14
ATOM     14  C   UNL     1      96.324  95.074  78.426  1.00  0.00    -0.044 A 
ATOM     15  C   UNL     1      96.723  96.028  79.362  1.00  0.00     0.054 A 
ATOM     16  C   UNL     1      95.549  93.985  78.827  1.00  0.00     0.008 A 
ATOM     17  C   UNL     1      96.347  95.894  80.699  1.00  0.00     0.160 A 
ATOM     18  C   UNL     1      95.173  93.851  80.164  1.00  0.00     0.050 A 
ATOM     19  C   UNL     1      95.572  94.805  81.099  1.00  0.00     0.157 A 
BRANCH  17  20
ATOM     20  O   UNL     1      96.744  96.832  81.604  1.00  0.00    -0.493 OA
ATOM     21  C   UNL     1      96.141  98.121  81.507  1.00  0.00     0.278 C 
ENDBRANCH  17  20
BRANCH  19  22
ATOM     22  O   UNL     1      95.199  94.663  82.402  1.00  0.00    -0.504 OA
ATOM     23  H   UNL     1      94.308  95.036  82.518  1.00  0.00     0.293 HD
ENDBRANCH  19  22
ENDBRANCH  13  14
ENDBRANCH  12  13
ENDBRANCH  10  12
ENDBRANCH   1  10
TORSDOF 12
ENDMDL
MODEL 4
REMARK VINA RESULT:    -5.448     13.442     15.926
REMARK INTER + INTRA:         -10.281
REMARK INTER:                  -8.353
REMARK INTRA:                  -1.928
REMARK UNBOUND:                -1.330
REMARK SMILES CCCCC[C@H](O)CC(=O)CCc1ccc(O)c(OC)c1
REMARK SMILES IDX 8 1 6 2 7 3 5 5 4 6 3 7 2 8 1 9 9 10 10 11 11 12 12 13 13 14
REMARK SMILES IDX 21 15 14 16 18 17 15 18 16 19 19 20 20 21 17 22
REMARK H PARENT 7 4 17 23
REMARK Flexibility Score: inf
ROOT
ATOM      1  C   UNL     1      84.265  90.735  87.840  1.00  0.00     0.107 C 
ENDROOT
BRANCH   1   2
ATOM      2  C   UNL     1      83.186  91.405  88.693  1.00  0.00     0.121 C 
BRANCH   2   3
ATOM      3  O   UNL     1      83.520  92.774  88.908  1.00  0.00    -0.393 OA
ATOM      4  H   UNL     1      84.036  93.078  88.141  1.00  0.00     0.210 HD
ENDBRANCH   2   3
BRANCH   2   5
ATOM      5  C   UNL     1      81.788  91.318  88.069  1.00  0.00     0.032 C 
BRANCH   5   6
ATOM      6  C   UNL     1      80.843  90.433  88.892  1.00  0.00     0.003 C 
BRANCH   6   7
ATOM      7  C   UNL     1      80.630  89.043  88.283  1.00  0.00    -0.000 C 
BRANCH   7   8
ATOM      8  C   UNL     1      79.623  88.187  89.048  1.00  0.00    -0.003 C 
ATOM      9  C   UNL     1      80.010  86.717  89.018  1.00  0.00     0.004 C 
ENDBRANCH   7   8
ENDBRANCH   6   7
ENDBRANCH   5   6
ENDBRANCH   2   5
ENDBRANCH   1   2
BRANCH   1  10
ATOM     10  C   UNL     1      84.264  91.211  86.396  1.00  0.00     0.135 C 
ATOM     11  O   UNL     1      84.601  92.359  86.108  1.00  0.00    -0.300 OA
BRANCH  10  12
ATOM     12  C   UNL     1      83.872  90.187  85.341  1.00  0.00     0.080 C 
BRANCH  12  13
ATOM     13  C   UNL     1      84.182  88.743  85.740  1.00  0.00     0.043 C 
BRANCH  13  14
ATOM     14  C   UNL     1      82.984  87.830  85.635  1.00  0.00    -0.044 A 
ATOM     15  C   UNL     1      81.803  88.292  85.055  1.00  0.00     0.054 A 
ATOM     16  C   UNL     1      83.060  86.523  86.118  1.00  0.00     0.008 A 
ATOM     17  C   UNL     1      80.697  87.446  84.958  1.00  0.00     0.160 A 
ATOM     18  C   UNL     1      81.955  85.678  86.020  1.00  0.00     0.050 A 
ATOM     19  C   UNL     1      80.773  86.140  85.441  1.00  0.00     0.157 A 
BRANCH  17  20
ATOM     20  O   UNL     1      79.548  87.909  84.390  1.00  0.00    -0.493 OA
ATOM     21  C   UNL     1      79.214  89.276  84.626  1.00  0.00     0.278 C 
ENDBRANCH  17  20
BRANCH  19  22
ATOM     22  O   UNL     1      79.700  85.305  85.351  1.00  0.00    -0.504 OA
ATOM     23  H   UNL     1      79.125  85.606  84.627  1.00  0.00     0.293 HD
ENDBRANCH  19  22
ENDBRANCH  13  14
ENDBRANCH  12  13
ENDBRANCH  10  12
ENDBRANCH   1  10
TORSDOF 12
ENDMDL
MODEL 5
REMARK VINA RESULT:    -5.425     14.290     17.463
REMARK INTER + INTRA:         -10.244
REMARK INTER:                  -7.954
REMARK INTRA:                  -2.291
REMARK UNBOUND:                -1.330
REMARK SMILES CCCCC[C@H](O)CC(=O)CCc1ccc(O)c(OC)c1
REMARK SMILES IDX 8 1 6 2 7 3 5 5 4 6 3 7 2 8 1 9 9 10 10 11 11 12 12 13 13 14
REMARK SMILES IDX 21 15 14 16 18 17 15 18 16 19 19 20 20 21 17 22
REMARK H PARENT 7 4 17 23
REMARK Flexibility Score: inf
ROOT
ATOM      1  C   UNL     1      81.291  89.558  84.297  1.00  0.00     0.107 C 
ENDROOT
BRANCH   1   2
ATOM      2  C   UNL     1      80.485  88.277  84.073  1.00  0.00     0.121 C 
BRANCH   2   3
ATOM      3  O   UNL     1      81.219  87.384  83.238  1.00  0.00    -0.393 OA
ATOM      4  H   UNL     1      82.118  87.743  83.136  1.00  0.00     0.210 HD
ENDBRANCH   2   3
BRANCH   2   5
ATOM      5  C   UNL     1      80.119  87.561  85.378  1.00  0.00     0.032 C 
BRANCH   5   6
ATOM      6  C   UNL     1      80.490  86.074  85.344  1.00  0.00     0.003 C 
BRANCH   6   7
ATOM      7  C   UNL     1      81.660  85.719  86.268  1.00  0.00    -0.000 C 
BRANCH   7   8
ATOM      8  C   UNL     1      81.817  86.673  87.451  1.00  0.00    -0.003 C 
ATOM      9  C   UNL     1      81.070  86.165  88.674  1.00  0.00     0.004 C 
ENDBRANCH   7   8
ENDBRANCH   6   7
ENDBRANCH   5   6
ENDBRANCH   2   5
ENDBRANCH   1   2
BRANCH   1  10
ATOM     10  C   UNL     1      82.611  89.314  85.011  1.00  0.00     0.135 C 
ATOM     11  O   UNL     1      83.383  88.434  84.630  1.00  0.00    -0.300 OA
BRANCH  10  12
ATOM     12  C   UNL     1      82.938  90.237  86.175  1.00  0.00     0.080 C 
BRANCH  12  13
ATOM     13  C   UNL     1      81.715  90.647  86.997  1.00  0.00     0.043 C 
BRANCH  13  14
ATOM     14  C   UNL     1      81.732  90.092  88.401  1.00  0.00    -0.044 A 
ATOM     15  C   UNL     1      80.533  89.870  89.079  1.00  0.00     0.054 A 
ATOM     16  C   UNL     1      82.948  89.801  89.021  1.00  0.00     0.008 A 
ATOM     17  C   UNL     1      80.551  89.356  90.376  1.00  0.00     0.160 A 
ATOM     18  C   UNL     1      82.965  89.287  90.318  1.00  0.00     0.050 A 
ATOM     19  C   UNL     1      81.767  89.066  90.995  1.00  0.00     0.157 A 
BRANCH  17  20
ATOM     20  O   UNL     1      79.373  89.144  91.028  1.00  0.00    -0.493 OA
ATOM     21  C   UNL     1      78.354  88.446  90.314  1.00  0.00     0.278 C 
ENDBRANCH  17  20
BRANCH  19  22
ATOM     22  O   UNL     1      81.796  88.564  92.261  1.00  0.00    -0.504 OA
ATOM     23  H   UNL     1      81.209  87.790  92.309  1.00  0.00     0.293 HD
ENDBRANCH  19  22
ENDBRANCH  13  14
ENDBRANCH  12  13
ENDBRANCH  10  12
ENDBRANCH   1  10
TORSDOF 12
ENDMDL
MODEL 6
REMARK VINA RESULT:    -5.374     26.869     30.366
REMARK INTER + INTRA:         -10.159
REMARK INTER:                  -9.386
REMARK INTRA:                  -0.774
REMARK UNBOUND:                -1.330
REMARK SMILES CCCCC[C@H](O)CC(=O)CCc1ccc(O)c(OC)c1
REMARK SMILES IDX 8 1 6 2 7 3 5 5 4 6 3 7 2 8 1 9 9 10 10 11 11 12 12 13 13 14
REMARK SMILES IDX 21 15 14 16 18 17 15 18 16 19 19 20 20 21 17 22
REMARK H PARENT 7 4 17 23
REMARK Flexibility Score: inf
ROOT
ATOM      1  C   UNL     1      83.171  65.693  75.601  1.00  0.00     0.107 C 
ENDROOT
BRANCH   1   2
ATOM      2  C   UNL     1      81.745  66.028  76.044  1.00  0.00     0.121 C 
BRANCH   2   3
ATOM      3  O   UNL     1      81.747  67.226  76.817  1.00  0.00    -0.393 OA
ATOM      4  H   UNL     1      82.375  67.106  77.550  1.00  0.00     0.210 HD
ENDBRANCH   2   3
BRANCH   2   5
ATOM      5  C   UNL     1      80.773  66.187  74.868  1.00  0.00     0.032 C 
BRANCH   5   6
ATOM      6  C   UNL     1      80.428  64.841  74.219  1.00  0.00     0.003 C 
BRANCH   6   7
ATOM      7  C   UNL     1      80.141  64.948  72.718  1.00  0.00    -0.000 C 
BRANCH   7   8
ATOM      8  C   UNL     1      80.235  66.373  72.177  1.00  0.00    -0.003 C 
ATOM      9  C   UNL     1      80.166  66.394  70.657  1.00  0.00     0.004 C 
ENDBRANCH   7   8
ENDBRANCH   6   7
ENDBRANCH   5   6
ENDBRANCH   2   5
ENDBRANCH   1   2
BRANCH   1  10
ATOM     10  C   UNL     1      83.577  64.265  75.929  1.00  0.00     0.135 C 
ATOM     11  O   UNL     1      83.976  63.503  75.048  1.00  0.00    -0.300 OA
BRANCH  10  12
ATOM     12  C   UNL     1      83.507  63.855  77.392  1.00  0.00     0.080 C 
BRANCH  12  13
ATOM     13  C   UNL     1      84.828  63.316  77.943  1.00  0.00     0.043 C 
BRANCH  13  14
ATOM     14  C   UNL     1      85.272  64.017  79.206  1.00  0.00    -0.044 A 
ATOM     15  C   UNL     1      85.983  65.214  79.126  1.00  0.00     0.054 A 
ATOM     16  C   UNL     1      84.971  63.465  80.451  1.00  0.00     0.008 A 
ATOM     17  C   UNL     1      86.392  65.860  80.293  1.00  0.00     0.160 A 
ATOM     18  C   UNL     1      85.380  64.112  81.618  1.00  0.00     0.050 A 
ATOM     19  C   UNL     1      86.091  65.309  81.538  1.00  0.00     0.157 A 
BRANCH  17  20
ATOM     20  O   UNL     1      87.086  67.029  80.203  1.00  0.00    -0.493 OA
ATOM     21  C   UNL     1      87.323  67.543  78.893  1.00  0.00     0.278 C 
ENDBRANCH  17  20
BRANCH  19  22
ATOM     22  O   UNL     1      86.484  65.931  82.684  1.00  0.00    -0.504 OA
ATOM     23  H   UNL     1      86.423  65.302  83.424  1.00  0.00     0.293 HD
ENDBRANCH  19  22
ENDBRANCH  13  14
ENDBRANCH  12  13
ENDBRANCH  10  12
ENDBRANCH   1  10
TORSDOF 12
ENDMDL
MODEL 7
REMARK VINA RESULT:    -5.317     18.672     20.803
REMARK INTER + INTRA:         -10.067
REMARK INTER:                  -8.840
REMARK INTRA:                  -1.227
REMARK UNBOUND:                -1.330
REMARK SMILES CCCCC[C@H](O)CC(=O)CCc1ccc(O)c(OC)c1
REMARK SMILES IDX 8 1 6 2 7 3 5 5 4 6 3 7 2 8 1 9 9 10 10 11 11 12 12 13 13 14
REMARK SMILES IDX 21 15 14 16 18 17 15 18 16 19 19 20 20 21 17 22
REMARK H PARENT 7 4 17 23
REMARK Flexibility Score: inf
ROOT
ATOM      1  C   UNL     1      78.377  86.259  67.048  1.00  0.00     0.107 C 
ENDROOT
BRANCH   1   2
ATOM      2  C   UNL     1      77.860  85.171  66.104  1.00  0.00     0.121 C 
BRANCH   2   3
ATOM      3  O   UNL     1      78.953  84.568  65.415  1.00  0.00    -0.393 OA
ATOM      4  H   UNL     1      79.539  85.280  65.106  1.00  0.00     0.210 HD
ENDBRANCH   2   3
BRANCH   2   5
ATOM      5  C   UNL     1      77.055  84.083  66.826  1.00  0.00     0.032 C 
BRANCH   5   6
ATOM      6  C   UNL     1      76.960  84.342  68.334  1.00  0.00     0.003 C 
BRANCH   6   7
ATOM      7  C   UNL     1      75.524  84.566  68.821  1.00  0.00    -0.000 C 
BRANCH   7   8
ATOM      8  C   UNL     1      74.544  84.908  67.700  1.00  0.00    -0.003 C 
ATOM      9  C   UNL     1      73.331  85.654  68.234  1.00  0.00     0.004 C 
ENDBRANCH   7   8
ENDBRANCH   6   7
ENDBRANCH   5   6
ENDBRANCH   2   5
ENDBRANCH   1   2
BRANCH   1  10
ATOM     10  C   UNL     1      77.791  87.630  66.755  1.00  0.00     0.135 C 
ATOM     11  O   UNL     1      78.346  88.402  65.973  1.00  0.00    -0.300 OA
BRANCH  10  12
ATOM     12  C   UNL     1      76.475  87.969  67.438  1.00  0.00     0.080 C 
BRANCH  12  13
ATOM     13  C   UNL     1      76.145  89.463  67.430  1.00  0.00     0.043 C 
BRANCH  13  14
ATOM     14  C   UNL     1      75.155  89.856  68.501  1.00  0.00    -0.044 A 
ATOM     15  C   UNL     1      75.251  91.105  69.115  1.00  0.00     0.054 A 
ATOM     16  C   UNL     1      74.145  88.970  68.875  1.00  0.00     0.008 A 
ATOM     17  C   UNL     1      74.335  91.468  70.103  1.00  0.00     0.160 A 
ATOM     18  C   UNL     1      73.229  89.332  69.863  1.00  0.00     0.050 A 
ATOM     19  C   UNL     1      73.325  90.581  70.477  1.00  0.00     0.157 A 
BRANCH  17  20
ATOM     20  O   UNL     1      74.438  92.690  70.696  1.00  0.00    -0.493 OA
ATOM     21  C   UNL     1      75.699  93.026  71.272  1.00  0.00     0.278 C 
ENDBRANCH  17  20
BRANCH  19  22
ATOM     22  O   UNL     1      72.425  90.924  71.441  1.00  0.00    -0.504 OA
ATOM     23  H   UNL     1      71.531  90.911  71.058  1.00  0.00     0.293 HD
ENDBRANCH  19  22
ENDBRANCH  13  14
ENDBRANCH  12  13
ENDBRANCH  10  12
ENDBRANCH   1  10
TORSDOF 12
ENDMDL
MODEL 8
REMARK VINA RESULT:    -5.287     26.224     30.765
REMARK INTER + INTRA:         -10.017
REMARK INTER:                  -9.065
REMARK INTRA:                  -0.952
REMARK UNBOUND:                -1.330
REMARK SMILES CCCCC[C@H](O)CC(=O)CCc1ccc(O)c(OC)c1
REMARK SMILES IDX 8 1 6 2 7 3 5 5 4 6 3 7 2 8 1 9 9 10 10 11 11 12 12 13 13 14
REMARK SMILES IDX 21 15 14 16 18 17 15 18 16 19 19 20 20 21 17 22
REMARK H PARENT 7 4 17 23
REMARK Flexibility Score: inf
ROOT
ATOM      1  C   UNL     1      75.449  68.489  83.731  1.00  0.00     0.107 C 
ENDROOT
BRANCH   1   2
ATOM      2  C   UNL     1      74.909  67.236  83.037  1.00  0.00     0.121 C 
BRANCH   2   3
ATOM      3  O   UNL     1      73.556  67.448  82.642  1.00  0.00    -0.393 OA
ATOM      4  H   UNL     1      73.240  66.633  82.212  1.00  0.00     0.210 HD
ENDBRANCH   2   3
BRANCH   2   5
ATOM      5  C   UNL     1      75.735  66.826  81.812  1.00  0.00     0.032 C 
BRANCH   5   6
ATOM      6  C   UNL     1      74.994  65.813  80.930  1.00  0.00     0.003 C 
BRANCH   6   7
ATOM      7  C   UNL     1      75.014  64.389  81.495  1.00  0.00    -0.000 C 
BRANCH   7   8
ATOM      8  C   UNL     1      73.696  63.639  81.310  1.00  0.00    -0.003 C 
ATOM      9  C   UNL     1      72.923  63.545  82.616  1.00  0.00     0.004 C 
ENDBRANCH   7   8
ENDBRANCH   6   7
ENDBRANCH   5   6
ENDBRANCH   2   5
ENDBRANCH   1   2
BRANCH   1  10
ATOM     10  C   UNL     1      74.396  69.215  84.553  1.00  0.00     0.135 C 
ATOM     11  O   UNL     1      73.651  68.598  85.315  1.00  0.00    -0.300 OA
BRANCH  10  12
ATOM     12  C   UNL     1      74.349  70.729  84.417  1.00  0.00     0.080 C 
BRANCH  12  13
ATOM     13  C   UNL     1      75.621  71.332  83.818  1.00  0.00     0.043 C 
BRANCH  13  14
ATOM     14  C   UNL     1      76.269  72.358  84.717  1.00  0.00    -0.044 A 
ATOM     15  C   UNL     1      77.230  73.229  84.202  1.00  0.00     0.054 A 
ATOM     16  C   UNL     1      75.907  72.435  86.062  1.00  0.00     0.008 A 
ATOM     17  C   UNL     1      77.828  74.176  85.033  1.00  0.00     0.160 A 
ATOM     18  C   UNL     1      76.504  73.382  86.893  1.00  0.00     0.050 A 
ATOM     19  C   UNL     1      77.465  74.253  86.378  1.00  0.00     0.157 A 
BRANCH  17  20
ATOM     20  O   UNL     1      78.765  75.021  84.520  1.00  0.00    -0.493 OA
ATOM     21  C   UNL     1      79.097  74.861  83.142  1.00  0.00     0.278 C 
ENDBRANCH  17  20
BRANCH  19  22
ATOM     22  O   UNL     1      78.042  75.174  87.199  1.00  0.00    -0.504 OA
ATOM     23  H   UNL     1      78.086  74.812  88.101  1.00  0.00     0.293 HD
ENDBRANCH  19  22
ENDBRANCH  13  14
ENDBRANCH  12  13
ENDBRANCH  10  12
ENDBRANCH   1  10
TORSDOF 12
ENDMDL
MODEL 9
REMARK VINA RESULT:    -5.277     19.438     22.010
REMARK INTER + INTRA:         -10.001
REMARK INTER:                  -8.261
REMARK INTRA:                  -1.740
REMARK UNBOUND:                -1.330
REMARK SMILES CCCCC[C@H](O)CC(=O)CCc1ccc(O)c(OC)c1
REMARK SMILES IDX 8 1 6 2 7 3 5 5 4 6 3 7 2 8 1 9 9 10 10 11 11 12 12 13 13 14
REMARK SMILES IDX 21 15 14 16 18 17 15 18 16 19 19 20 20 21 17 22
REMARK H PARENT 7 4 17 23
REMARK Flexibility Score: inf
ROOT
ATOM      1  C   UNL     1      77.672  86.388  64.390  1.00  0.00     0.107 C 
ENDROOT
BRANCH   1   2
ATOM      2  C   UNL     1      76.207  86.255  63.965  1.00  0.00     0.121 C 
BRANCH   2   3
ATOM      3  O   UNL     1      75.890  87.257  63.002  1.00  0.00    -0.393 OA
ATOM      4  H   UNL     1      76.413  88.050  63.214  1.00  0.00     0.210 HD
ENDBRANCH   2   3
BRANCH   2   5
ATOM      5  C   UNL     1      75.874  84.875  63.386  1.00  0.00     0.032 C 
BRANCH   5   6
ATOM      6  C   UNL     1      76.516  83.740  64.193  1.00  0.00     0.003 C 
BRANCH   6   7
ATOM      7  C   UNL     1      75.574  83.129  65.235  1.00  0.00    -0.000 C 
BRANCH   7   8
ATOM      8  C   UNL     1      75.352  81.628  65.054  1.00  0.00    -0.003 C 
ATOM      9  C   UNL     1      76.513  80.981  64.314  1.00  0.00     0.004 C 
ENDBRANCH   7   8
ENDBRANCH   6   7
ENDBRANCH   5   6
ENDBRANCH   2   5
ENDBRANCH   1   2
BRANCH   1  10
ATOM     10  C   UNL     1      77.945  87.646  65.199  1.00  0.00     0.135 C 
ATOM     11  O   UNL     1      77.890  88.759  64.676  1.00  0.00    -0.300 OA
BRANCH  10  12
ATOM     12  C   UNL     1      78.240  87.454  66.679  1.00  0.00     0.080 C 
BRANCH  12  13
ATOM     13  C   UNL     1      78.202  85.993  67.129  1.00  0.00     0.043 C 
BRANCH  13  14
ATOM     14  C   UNL     1      76.896  85.609  67.784  1.00  0.00    -0.044 A 
ATOM     15  C   UNL     1      75.807  86.480  67.733  1.00  0.00     0.054 A 
ATOM     16  C   UNL     1      76.779  84.383  68.440  1.00  0.00     0.008 A 
ATOM     17  C   UNL     1      74.601  86.124  68.337  1.00  0.00     0.160 A 
ATOM     18  C   UNL     1      75.573  84.027  69.044  1.00  0.00     0.050 A 
ATOM     19  C   UNL     1      74.484  84.898  68.993  1.00  0.00     0.157 A 
BRANCH  17  20
ATOM     20  O   UNL     1      73.545  86.982  68.281  1.00  0.00    -0.493 OA
ATOM     21  C   UNL     1      73.676  88.217  68.983  1.00  0.00     0.278 C 
ENDBRANCH  17  20
BRANCH  19  22
ATOM     22  O   UNL     1      73.312  84.539  69.586  1.00  0.00    -0.504 OA
ATOM     23  H   UNL     1      73.291  84.900  70.490  1.00  0.00     0.293 HD
ENDBRANCH  19  22
ENDBRANCH  13  14
ENDBRANCH  12  13
ENDBRANCH  10  12
ENDBRANCH   1  10
TORSDOF 12
ENDMDL
MODEL 10
REMARK VINA RESULT:    -5.189     30.515     32.688
REMARK INTER + INTRA:          -9.856
REMARK INTER:                  -8.509
REMARK INTRA:                  -1.347
REMARK UNBOUND:                -1.330
REMARK SMILES CCCCC[C@H](O)CC(=O)CCc1ccc(O)c(OC)c1
REMARK SMILES IDX 8 1 6 2 7 3 5 5 4 6 3 7 2 8 1 9 9 10 10 11 11 12 12 13 13 14
REMARK SMILES IDX 21 15 14 16 18 17 15 18 16 19 19 20 20 21 17 22
REMARK H PARENT 7 4 17 23
REMARK Flexibility Score: inf
ROOT
ATOM      1  C   UNL     1      62.623  84.813  74.638  1.00  0.00     0.107 C 
ENDROOT
BRANCH   1   2
ATOM      2  C   UNL     1      64.045  84.372  74.285  1.00  0.00     0.121 C 
BRANCH   2   3
ATOM      3  O   UNL     1      64.988  85.265  74.872  1.00  0.00    -0.393 OA
ATOM      4  H   UNL     1      64.834  86.150  74.497  1.00  0.00     0.210 HD
ENDBRANCH   2   3
BRANCH   2   5
ATOM      5  C   UNL     1      64.359  82.940  74.735  1.00  0.00     0.032 C 
BRANCH   5   6
ATOM      6  C   UNL     1      63.128  82.028  74.655  1.00  0.00     0.003 C 
BRANCH   6   7
ATOM      7  C   UNL     1      63.451  80.617  74.152  1.00  0.00    -0.000 C 
BRANCH   7   8
ATOM      8  C   UNL     1      64.480  80.590  73.024  1.00  0.00    -0.003 C 
ATOM      9  C   UNL     1      65.733  79.830  73.433  1.00  0.00     0.004 C 
ENDBRANCH   7   8
ENDBRANCH   6   7
ENDBRANCH   5   6
ENDBRANCH   2   5
ENDBRANCH   1   2
BRANCH   1  10
ATOM     10  C   UNL     1      61.842  85.323  73.437  1.00  0.00     0.135 C 
ATOM     11  O   UNL     1      61.940  86.495  73.071  1.00  0.00    -0.300 OA
BRANCH  10  12
ATOM     12  C   UNL     1      60.984  84.307  72.699  1.00  0.00     0.080 C 
BRANCH  12  13
ATOM     13  C   UNL     1      60.777  84.636  71.220  1.00  0.00     0.043 C 
BRANCH  13  14
ATOM     14  C   UNL     1      61.459  83.655  70.295  1.00  0.00    -0.044 A 
ATOM     15  C   UNL     1      61.289  83.765  68.915  1.00  0.00     0.054 A 
ATOM     16  C   UNL     1      62.257  82.640  70.822  1.00  0.00     0.008 A 
ATOM     17  C   UNL     1      61.920  82.859  68.061  1.00  0.00     0.160 A 
ATOM     18  C   UNL     1      62.888  81.734  69.968  1.00  0.00     0.050 A 
ATOM     19  C   UNL     1      62.718  81.844  68.588  1.00  0.00     0.157 A 
BRANCH  17  20
ATOM     20  O   UNL     1      61.746  82.975  66.715  1.00  0.00    -0.493 OA
ATOM     21  C   UNL     1      61.497  84.284  66.204  1.00  0.00     0.278 C 
ENDBRANCH  17  20
BRANCH  19  22
ATOM     22  O   UNL     1      63.339  80.953  67.765  1.00  0.00    -0.504 OA
ATOM     23  H   UNL     1      64.284  81.177  67.712  1.00  0.00     0.293 HD
ENDBRANCH  19  22
ENDBRANCH  13  14
ENDBRANCH  12  13
ENDBRANCH  10  12
ENDBRANCH   1  10
TORSDOF 12
ENDMDL
