MODEL 1
REMARK VINA RESULT:    -6.020      0.000      0.000
REMARK INTER + INTRA:         -10.402
REMARK INTER:                  -9.715
REMARK INTRA:                  -0.687
REMARK UNBOUND:                -0.687
REMARK SMILES COc1cc(CNC(=O)CCCCCCC(C)C)ccc1O
REMARK SMILES IDX 11 1 10 2 8 3 7 4 9 6 6 7 5 8 3 9 21 10 4 11 20 12 19 13
REMARK SMILES IDX 2 14 1 15 22 16 12 18 13 19 14 20 15 21 16 22 17 23 18 24
REMARK H PARENT 7 5 22 17
REMARK Flexibility Score: inf
ROOT
ATOM      1  C   UNL     1      94.463  96.894  74.624  1.00  0.00     0.010 C 
ENDROOT
BRANCH   1   2
ATOM      2  C   UNL     1      95.833  97.626  74.608  1.00  0.00     0.100 C 
BRANCH   2   3
ATOM      3  C   UNL     1      96.840  97.002  75.495  1.00  0.00     0.220 C 
ATOM      4  N   UNL     1      96.667  97.010  76.848  1.00  0.00    -0.352 N 
ATOM      5  H   UNL     1      95.844  97.502  77.165  1.00  0.00     0.163 HD
ATOM      6  O   UNL     1      97.839  96.447  74.974  1.00  0.00    -0.275 OA
BRANCH   4   7
ATOM      7  C   UNL     1      97.541  96.390  77.797  1.00  0.00     0.151 C 
BRANCH   7   8
ATOM      8  C   UNL     1      96.833  95.890  79.008  1.00  0.00    -0.025 A 
ATOM      9  C   UNL     1      96.148  96.190  81.350  1.00  0.00     0.160 A 
ATOM     10  C   UNL     1      95.449  94.964  81.306  1.00  0.00     0.157 A 
ATOM     11  C   UNL     1      96.849  96.634  80.209  1.00  0.00     0.056 A 
ATOM     12  C   UNL     1      95.458  94.196  80.128  1.00  0.00     0.050 A 
ATOM     13  C   UNL     1      96.136  94.659  78.983  1.00  0.00     0.009 A 
BRANCH   9  14
ATOM     14  O   UNL     1      96.178  96.927  82.503  1.00  0.00    -0.493 OA
ATOM     15  C   UNL     1      97.417  96.820  83.227  1.00  0.00     0.278 C 
ENDBRANCH   9  14
BRANCH  10  16
ATOM     16  O   UNL     1      94.766  94.512  82.390  1.00  0.00    -0.504 OA
ATOM     17  H   UNL     1      95.306  93.874  82.864  1.00  0.00     0.293 HD
ENDBRANCH  10  16
ENDBRANCH   7   8
ENDBRANCH   4   7
ENDBRANCH   2   3
ENDBRANCH   1   2
BRANCH   1  18
ATOM     18  C   UNL     1      94.606  95.388  74.985  1.00  0.00     0.001 C 
BRANCH  18  19
ATOM     19  C   UNL     1      93.257  94.692  75.319  1.00  0.00     0.000 C 
BRANCH  19  20
ATOM     20  C   UNL     1      93.060  94.532  76.853  1.00  0.00     0.000 C 
BRANCH  20  21
ATOM     21  C   UNL     1      92.035  93.435  77.253  1.00  0.00     0.003 C 
BRANCH  21  22
ATOM     22  C   UNL     1      90.732  93.417  76.389  1.00  0.00    -0.017 C 
ATOM     23  C   UNL     1      90.108  94.839  76.316  1.00  0.00     0.007 C 
ATOM     24  C   UNL     1      89.674  92.383  76.875  1.00  0.00     0.007 C 
ENDBRANCH  21  22
ENDBRANCH  20  21
ENDBRANCH  19  20
ENDBRANCH  18  19
ENDBRANCH   1  18
TORSDOF 11
ENDMDL
MODEL 2
REMARK VINA RESULT:    -5.896     25.299     28.987
REMARK INTER + INTRA:         -10.202
REMARK INTER:                  -9.660
REMARK INTRA:                  -0.542
REMARK UNBOUND:                -0.687
REMARK SMILES COc1cc(CNC(=O)CCCCCCC(C)C)ccc1O
REMARK SMILES IDX 11 1 10 2 8 3 7 4 9 6 6 7 5 8 3 9 21 10 4 11 20 12 19 13
REMARK SMILES IDX 2 14 1 15 22 16 12 18 13 19 14 20 15 21 16 22 17 23 18 24
REMARK H PARENT 7 5 22 17
REMARK Flexibility Score: inf
ROOT
ATOM      1  C   UNL     1      83.217  68.845  72.070  1.00  0.00     0.010 C 
ENDROOT
BRANCH   1   2
ATOM      2  C   UNL     1      83.888  70.059  71.370  1.00  0.00     0.100 C 
BRANCH   2   3
ATOM      3  C   UNL     1      85.362  69.947  71.291  1.00  0.00     0.220 C 
ATOM      4  N   UNL     1      86.013  70.231  70.126  1.00  0.00    -0.352 N 
ATOM      5  H   UNL     1      85.409  70.469  69.353  1.00  0.00     0.163 HD
ATOM      6  O   UNL     1      85.996  69.611  72.321  1.00  0.00    -0.275 OA
BRANCH   4   7
ATOM      7  C   UNL     1      87.434  70.215  69.949  1.00  0.00     0.151 C 
BRANCH   7   8
ATOM      8  C   UNL     1      87.933  71.335  69.105  1.00  0.00    -0.025 A 
ATOM      9  C   UNL     1      89.647  73.028  68.610  1.00  0.00     0.160 A 
ATOM     10  C   UNL     1      88.913  73.443  67.477  1.00  0.00     0.157 A 
ATOM     11  C   UNL     1      89.143  71.992  69.424  1.00  0.00     0.056 A 
ATOM     12  C   UNL     1      87.688  72.823  67.171  1.00  0.00     0.050 A 
ATOM     13  C   UNL     1      87.205  71.769  67.972  1.00  0.00     0.009 A 
BRANCH   9  14
ATOM     14  O   UNL     1      90.820  73.651  68.939  1.00  0.00    -0.493 OA
ATOM     15  C   UNL     1      91.991  72.860  68.669  1.00  0.00     0.278 C 
ENDBRANCH   9  14
BRANCH  10  16
ATOM     16  O   UNL     1      89.373  74.439  66.675  1.00  0.00    -0.504 OA
ATOM     17  H   UNL     1      89.373  74.140  65.763  1.00  0.00     0.293 HD
ENDBRANCH  10  16
ENDBRANCH   7   8
ENDBRANCH   4   7
ENDBRANCH   2   3
ENDBRANCH   1   2
BRANCH   1  18
ATOM     18  C   UNL     1      82.264  68.070  71.116  1.00  0.00     0.001 C 
BRANCH  18  19
ATOM     19  C   UNL     1      80.845  67.833  71.704  1.00  0.00     0.000 C 
BRANCH  19  20
ATOM     20  C   UNL     1      80.273  66.451  71.280  1.00  0.00     0.000 C 
BRANCH  20  21
ATOM     21  C   UNL     1      80.769  65.262  72.148  1.00  0.00     0.003 C 
BRANCH  21  22
ATOM     22  C   UNL     1      80.021  65.096  73.511  1.00  0.00    -0.017 C 
ATOM     23  C   UNL     1      80.743  65.899  74.629  1.00  0.00     0.007 C 
ATOM     24  C   UNL     1      79.830  63.612  73.942  1.00  0.00     0.007 C 
ENDBRANCH  21  22
ENDBRANCH  20  21
ENDBRANCH  19  20
ENDBRANCH  18  19
ENDBRANCH   1  18
TORSDOF 11
ENDMDL
MODEL 3
REMARK VINA RESULT:    -5.841     27.782     30.721
REMARK INTER + INTRA:         -10.113
REMARK INTER:                  -8.232
REMARK INTRA:                  -1.881
REMARK UNBOUND:                -0.687
REMARK SMILES COc1cc(CNC(=O)CCCCCCC(C)C)ccc1O
REMARK SMILES IDX 11 1 10 2 8 3 7 4 9 6 6 7 5 8 3 9 21 10 4 11 20 12 19 13
REMARK SMILES IDX 2 14 1 15 22 16 12 18 13 19 14 20 15 21 16 22 17 23 18 24
REMARK H PARENT 7 5 22 17
REMARK Flexibility Score: inf
ROOT
ATOM      1  C   UNL     1      80.471  65.183  73.069  1.00  0.00     0.010 C 
ENDROOT
BRANCH   1   2
ATOM      2  C   UNL     1      80.269  66.195  74.231  1.00  0.00     0.100 C 
BRANCH   2   3
ATOM      3  C   UNL     1      81.421  66.256  75.159  1.00  0.00     0.220 C 
ATOM      4  N   UNL     1      82.583  65.606  74.859  1.00  0.00    -0.352 N 
ATOM      5  H   UNL     1      82.557  65.070  74.005  1.00  0.00     0.163 HD
ATOM      6  O   UNL     1      81.312  66.937  76.208  1.00  0.00    -0.275 OA
BRANCH   4   7
ATOM      7  C   UNL     1      83.776  65.642  75.649  1.00  0.00     0.151 C 
BRANCH   7   8
ATOM      8  C   UNL     1      84.560  66.895  75.471  1.00  0.00    -0.025 A 
ATOM      9  C   UNL     1      85.490  68.975  76.398  1.00  0.00     0.160 A 
ATOM     10  C   UNL     1      86.089  69.264  75.153  1.00  0.00     0.157 A 
ATOM     11  C   UNL     1      84.715  67.804  76.542  1.00  0.00     0.056 A 
ATOM     12  C   UNL     1      85.910  68.387  74.069  1.00  0.00     0.050 A 
ATOM     13  C   UNL     1      85.160  67.205  74.228  1.00  0.00     0.009 A 
BRANCH   9  14
ATOM     14  O   UNL     1      85.625  69.842  77.448  1.00  0.00    -0.493 OA
ATOM     15  C   UNL     1      86.649  69.461  78.386  1.00  0.00     0.278 C 
ENDBRANCH   9  14
BRANCH  10  16
ATOM     16  O   UNL     1      86.839  70.385  74.985  1.00  0.00    -0.504 OA
ATOM     17  H   UNL     1      86.320  71.156  75.226  1.00  0.00     0.293 HD
ENDBRANCH  10  16
ENDBRANCH   7   8
ENDBRANCH   4   7
ENDBRANCH   2   3
ENDBRANCH   1   2
BRANCH   1  18
ATOM     18  C   UNL     1      80.157  65.813  71.682  1.00  0.00     0.001 C 
BRANCH  18  19
ATOM     19  C   UNL     1      81.327  65.702  70.664  1.00  0.00     0.000 C 
BRANCH  19  20
ATOM     20  C   UNL     1      82.673  66.170  71.287  1.00  0.00     0.000 C 
BRANCH  20  21
ATOM     21  C   UNL     1      83.337  67.363  70.545  1.00  0.00     0.003 C 
BRANCH  21  22
ATOM     22  C   UNL     1      82.975  68.771  71.122  1.00  0.00    -0.017 C 
ATOM     23  C   UNL     1      84.215  69.708  71.087  1.00  0.00     0.007 C 
ATOM     24  C   UNL     1      82.368  68.722  72.555  1.00  0.00     0.007 C 
ENDBRANCH  21  22
ENDBRANCH  20  21
ENDBRANCH  19  20
ENDBRANCH  18  19
ENDBRANCH   1  18
TORSDOF 11
ENDMDL
MODEL 4
REMARK VINA RESULT:    -5.805     29.882     32.522
REMARK INTER + INTRA:         -10.055
REMARK INTER:                  -9.194
REMARK INTRA:                  -0.860
REMARK UNBOUND:                -0.687
REMARK SMILES COc1cc(CNC(=O)CCCCCCC(C)C)ccc1O
REMARK SMILES IDX 11 1 10 2 8 3 7 4 9 6 6 7 5 8 3 9 21 10 4 11 20 12 19 13
REMARK SMILES IDX 2 14 1 15 22 16 12 18 13 19 14 20 15 21 16 22 17 23 18 24
REMARK H PARENT 7 5 22 17
REMARK Flexibility Score: inf
ROOT
ATOM      1  C   UNL     1      82.244  64.414  74.579  1.00  0.00     0.010 C 
ENDROOT
BRANCH   1   2
ATOM      2  C   UNL     1      82.361  64.635  76.113  1.00  0.00     0.100 C 
BRANCH   2   3
ATOM      3  C   UNL     1      83.694  64.287  76.654  1.00  0.00     0.220 C 
ATOM      4  N   UNL     1      83.806  63.668  77.865  1.00  0.00    -0.352 N 
ATOM      5  H   UNL     1      82.931  63.524  78.346  1.00  0.00     0.163 HD
ATOM      6  O   UNL     1      84.710  64.550  75.966  1.00  0.00    -0.275 OA
BRANCH   4   7
ATOM      7  C   UNL     1      85.033  63.233  78.460  1.00  0.00     0.151 C 
BRANCH   7   8
ATOM      8  C   UNL     1      85.429  64.042  79.645  1.00  0.00    -0.025 A 
ATOM      9  C   UNL     1      86.567  66.001  80.602  1.00  0.00     0.160 A 
ATOM     10  C   UNL     1      86.151  65.614  81.895  1.00  0.00     0.157 A 
ATOM     11  C   UNL     1      86.220  65.204  79.492  1.00  0.00     0.056 A 
ATOM     12  C   UNL     1      85.397  64.439  82.065  1.00  0.00     0.050 A 
ATOM     13  C   UNL     1      85.029  63.663  80.949  1.00  0.00     0.009 A 
BRANCH   9  14
ATOM     14  O   UNL     1      87.334  67.121  80.430  1.00  0.00    -0.493 OA
ATOM     15  C   UNL     1      88.708  66.839  80.105  1.00  0.00     0.278 C 
ENDBRANCH   9  14
BRANCH  10  16
ATOM     16  O   UNL     1      86.473  66.362  82.983  1.00  0.00    -0.504 OA
ATOM     17  H   UNL     1      87.387  66.648  82.915  1.00  0.00     0.293 HD
ENDBRANCH  10  16
ENDBRANCH   7   8
ENDBRANCH   4   7
ENDBRANCH   2   3
ENDBRANCH   1   2
BRANCH   1  18
ATOM     18  C   UNL     1      80.880  63.784  74.179  1.00  0.00     0.001 C 
BRANCH  18  19
ATOM     19  C   UNL     1      79.824  64.824  73.708  1.00  0.00     0.000 C 
BRANCH  19  20
ATOM     20  C   UNL     1      80.368  66.277  73.808  1.00  0.00     0.000 C 
BRANCH  20  21
ATOM     21  C   UNL     1      80.603  66.965  72.434  1.00  0.00     0.003 C 
BRANCH  21  22
ATOM     22  C   UNL     1      80.587  65.993  71.209  1.00  0.00    -0.017 C 
ATOM     23  C   UNL     1      82.018  65.831  70.625  1.00  0.00     0.007 C 
ATOM     24  C   UNL     1      79.587  66.413  70.091  1.00  0.00     0.007 C 
ENDBRANCH  21  22
ENDBRANCH  20  21
ENDBRANCH  19  20
ENDBRANCH  18  19
ENDBRANCH   1  18
TORSDOF 11
ENDMDL
MODEL 5
REMARK VINA RESULT:    -5.777     15.871     18.532
REMARK INTER + INTRA:         -10.010
REMARK INTER:                  -7.928
REMARK INTRA:                  -2.082
REMARK UNBOUND:                -0.687
REMARK SMILES COc1cc(CNC(=O)CCCCCCC(C)C)ccc1O
REMARK SMILES IDX 11 1 10 2 8 3 7 4 9 6 6 7 5 8 3 9 21 10 4 11 20 12 19 13
REMARK SMILES IDX 2 14 1 15 22 16 12 18 13 19 14 20 15 21 16 22 17 23 18 24
REMARK H PARENT 7 5 22 17
REMARK Flexibility Score: inf
ROOT
ATOM      1  C   UNL     1      83.079  91.177  90.689  1.00  0.00     0.010 C 
ENDROOT
BRANCH   1   2
ATOM      2  C   UNL     1      83.931  90.697  89.482  1.00  0.00     0.100 C 
BRANCH   2   3
ATOM      3  C   UNL     1      83.375  91.108  88.173  1.00  0.00     0.220 C 
ATOM      4  N   UNL     1      83.241  90.198  87.166  1.00  0.00    -0.352 N 
ATOM      5  H   UNL     1      83.587  89.275  87.383  1.00  0.00     0.163 HD
ATOM      6  O   UNL     1      83.010  92.299  88.022  1.00  0.00    -0.275 OA
BRANCH   4   7
ATOM      7  C   UNL     1      82.665  90.464  85.883  1.00  0.00     0.151 C 
BRANCH   7   8
ATOM      8  C   UNL     1      81.814  89.352  85.378  1.00  0.00    -0.025 A 
ATOM      9  C   UNL     1      81.458  86.948  84.997  1.00  0.00     0.160 A 
ATOM     10  C   UNL     1      80.181  87.221  84.460  1.00  0.00     0.157 A 
ATOM     11  C   UNL     1      82.271  88.015  85.433  1.00  0.00     0.056 A 
ATOM     12  C   UNL     1      79.731  88.550  84.364  1.00  0.00     0.050 A 
ATOM     13  C   UNL     1      80.536  89.608  84.829  1.00  0.00     0.009 A 
BRANCH   9  14
ATOM     14  O   UNL     1      81.921  85.662  85.058  1.00  0.00    -0.493 OA
ATOM     15  C   UNL     1      82.546  85.330  86.312  1.00  0.00     0.278 C 
ENDBRANCH   9  14
BRANCH  10  16
ATOM     16  O   UNL     1      79.376  86.213  84.030  1.00  0.00    -0.504 OA
ATOM     17  H   UNL     1      78.728  86.563  83.414  1.00  0.00     0.293 HD
ENDBRANCH  10  16
ENDBRANCH   7   8
ENDBRANCH   4   7
ENDBRANCH   2   3
ENDBRANCH   1   2
BRANCH   1  18
ATOM     18  C   UNL     1      82.953  90.086  91.790  1.00  0.00     0.001 C 
BRANCH  18  19
ATOM     19  C   UNL     1      82.121  88.847  91.351  1.00  0.00     0.000 C 
BRANCH  19  20
ATOM     20  C   UNL     1      80.630  88.981  91.772  1.00  0.00     0.000 C 
BRANCH  20  21
ATOM     21  C   UNL     1      79.621  88.823  90.602  1.00  0.00     0.003 C 
BRANCH  21  22
ATOM     22  C   UNL     1      80.256  88.931  89.177  1.00  0.00    -0.017 C 
ATOM     23  C   UNL     1      79.851  90.271  88.501  1.00  0.00     0.007 C 
ATOM     24  C   UNL     1      79.916  87.727  88.249  1.00  0.00     0.007 C 
ENDBRANCH  21  22
ENDBRANCH  20  21
ENDBRANCH  19  20
ENDBRANCH  18  19
ENDBRANCH   1  18
TORSDOF 11
ENDMDL
MODEL 6
REMARK VINA RESULT:    -5.705     29.703     32.574
REMARK INTER + INTRA:          -9.893
REMARK INTER:                  -7.978
REMARK INTRA:                  -1.915
REMARK UNBOUND:                -0.687
REMARK SMILES COc1cc(CNC(=O)CCCCCCC(C)C)ccc1O
REMARK SMILES IDX 11 1 10 2 8 3 7 4 9 6 6 7 5 8 3 9 21 10 4 11 20 12 19 13
REMARK SMILES IDX 2 14 1 15 22 16 12 18 13 19 14 20 15 21 16 22 17 23 18 24
REMARK H PARENT 7 5 22 17
REMARK Flexibility Score: inf
ROOT
ATOM      1  C   UNL     1      85.455  65.469  76.787  1.00  0.00     0.010 C 
ENDROOT
BRANCH   1   2
ATOM      2  C   UNL     1      84.898  66.872  77.152  1.00  0.00     0.100 C 
BRANCH   2   3
ATOM      3  C   UNL     1      84.759  67.769  75.982  1.00  0.00     0.220 C 
ATOM      4  N   UNL     1      84.404  67.264  74.766  1.00  0.00    -0.352 N 
ATOM      5  H   UNL     1      84.297  66.261  74.741  1.00  0.00     0.163 HD
ATOM      6  O   UNL     1      84.950  68.999  76.141  1.00  0.00    -0.275 OA
BRANCH   4   7
ATOM      7  C   UNL     1      84.184  68.039  73.582  1.00  0.00     0.151 C 
BRANCH   7   8
ATOM      8  C   UNL     1      83.047  67.542  72.759  1.00  0.00    -0.025 A 
ATOM      9  C   UNL     1      82.195  66.122  70.941  1.00  0.00     0.160 A 
ATOM     10  C   UNL     1      80.880  66.558  71.214  1.00  0.00     0.157 A 
ATOM     11  C   UNL     1      83.268  66.631  71.701  1.00  0.00     0.056 A 
ATOM     12  C   UNL     1      80.651  67.494  72.238  1.00  0.00     0.050 A 
ATOM     13  C   UNL     1      81.724  67.976  73.013  1.00  0.00     0.009 A 
BRANCH   9  14
ATOM     14  O   UNL     1      82.433  65.242  69.921  1.00  0.00    -0.493 OA
ATOM     15  C   UNL     1      83.726  65.399  69.309  1.00  0.00     0.278 C 
ENDBRANCH   9  14
BRANCH  10  16
ATOM     16  O   UNL     1      79.826  66.086  70.497  1.00  0.00    -0.504 OA
ATOM     17  H   UNL     1      79.876  66.422  69.598  1.00  0.00     0.293 HD
ENDBRANCH  10  16
ENDBRANCH   7   8
ENDBRANCH   4   7
ENDBRANCH   2   3
ENDBRANCH   1   2
BRANCH   1  18
ATOM     18  C   UNL     1      84.714  64.329  77.543  1.00  0.00     0.001 C 
BRANCH  18  19
ATOM     19  C   UNL     1      83.569  63.674  76.721  1.00  0.00     0.000 C 
BRANCH  19  20
ATOM     20  C   UNL     1      83.918  63.603  75.208  1.00  0.00     0.000 C 
BRANCH  20  21
ATOM     21  C   UNL     1      82.802  64.140  74.270  1.00  0.00     0.003 C 
BRANCH  21  22
ATOM     22  C   UNL     1      81.427  64.388  74.972  1.00  0.00    -0.017 C 
ATOM     23  C   UNL     1      80.257  64.142  73.978  1.00  0.00     0.007 C 
ATOM     24  C   UNL     1      81.302  65.798  75.622  1.00  0.00     0.007 C 
ENDBRANCH  21  22
ENDBRANCH  20  21
ENDBRANCH  19  20
ENDBRANCH  18  19
ENDBRANCH   1  18
TORSDOF 11
ENDMDL
MODEL 7
REMARK VINA RESULT:    -5.638     27.962     31.602
REMARK INTER + INTRA:          -9.786
REMARK INTER:                  -7.597
REMARK INTRA:                  -2.188
REMARK UNBOUND:                -0.687
REMARK SMILES COc1cc(CNC(=O)CCCCCCC(C)C)ccc1O
REMARK SMILES IDX 11 1 10 2 8 3 7 4 9 6 6 7 5 8 3 9 21 10 4 11 20 12 19 13
REMARK SMILES IDX 2 14 1 15 22 16 12 18 13 19 14 20 15 21 16 22 17 23 18 24
REMARK H PARENT 7 5 22 17
REMARK Flexibility Score: inf
ROOT
ATOM      1  C   UNL     1      80.199  66.144  73.685  1.00  0.00     0.010 C 
ENDROOT
BRANCH   1   2
ATOM      2  C   UNL     1      80.290  66.924  72.345  1.00  0.00     0.100 C 
BRANCH   2   3
ATOM      3  C   UNL     1      81.659  67.389  72.031  1.00  0.00     0.220 C 
ATOM      4  N   UNL     1      82.461  67.888  73.016  1.00  0.00    -0.352 N 
ATOM      5  H   UNL     1      82.025  67.945  73.925  1.00  0.00     0.163 HD
ATOM      6  O   UNL     1      82.071  67.292  70.849  1.00  0.00    -0.275 OA
BRANCH   4   7
ATOM      7  C   UNL     1      83.817  68.312  72.842  1.00  0.00     0.151 C 
BRANCH   7   8
ATOM      8  C   UNL     1      84.760  67.668  73.797  1.00  0.00    -0.025 A 
ATOM      9  C   UNL     1      85.978  67.699  75.934  1.00  0.00     0.160 A 
ATOM     10  C   UNL     1      86.522  66.429  75.644  1.00  0.00     0.157 A 
ATOM     11  C   UNL     1      85.118  68.316  75.002  1.00  0.00     0.056 A 
ATOM     12  C   UNL     1      86.204  65.791  74.432  1.00  0.00     0.050 A 
ATOM     13  C   UNL     1      85.322  66.400  73.519  1.00  0.00     0.009 A 
BRANCH   9  14
ATOM     14  O   UNL     1      86.312  68.346  77.093  1.00  0.00    -0.493 OA
ATOM     15  C   UNL     1      85.813  69.693  77.169  1.00  0.00     0.278 C 
ENDBRANCH   9  14
BRANCH  10  16
ATOM     16  O   UNL     1      87.355  65.811  76.523  1.00  0.00    -0.504 OA
ATOM     17  H   UNL     1      86.835  65.373  77.201  1.00  0.00     0.293 HD
ENDBRANCH  10  16
ENDBRANCH   7   8
ENDBRANCH   4   7
ENDBRANCH   2   3
ENDBRANCH   1   2
BRANCH   1  18
ATOM     18  C   UNL     1      79.853  64.643  73.468  1.00  0.00     0.001 C 
BRANCH  18  19
ATOM     19  C   UNL     1      80.915  63.665  74.045  1.00  0.00     0.000 C 
BRANCH  19  20
ATOM     20  C   UNL     1      82.321  64.324  74.115  1.00  0.00     0.000 C 
BRANCH  20  21
ATOM     21  C   UNL     1      83.239  63.750  75.229  1.00  0.00     0.003 C 
BRANCH  21  22
ATOM     22  C   UNL     1      83.067  64.427  76.628  1.00  0.00    -0.017 C 
ATOM     23  C   UNL     1      82.709  65.931  76.464  1.00  0.00     0.007 C 
ATOM     24  C   UNL     1      84.302  64.258  77.561  1.00  0.00     0.007 C 
ENDBRANCH  21  22
ENDBRANCH  20  21
ENDBRANCH  19  20
ENDBRANCH  18  19
ENDBRANCH   1  18
TORSDOF 11
ENDMDL
MODEL 8
REMARK VINA RESULT:    -5.572     30.008     31.902
REMARK INTER + INTRA:          -9.679
REMARK INTER:                  -7.704
REMARK INTRA:                  -1.975
REMARK UNBOUND:                -0.687
REMARK SMILES COc1cc(CNC(=O)CCCCCCC(C)C)ccc1O
REMARK SMILES IDX 11 1 10 2 8 3 7 4 9 6 6 7 5 8 3 9 21 10 4 11 20 12 19 13
REMARK SMILES IDX 2 14 1 15 22 16 12 18 13 19 14 20 15 21 16 22 17 23 18 24
REMARK H PARENT 7 5 22 17
REMARK Flexibility Score: inf
ROOT
ATOM      1  C   UNL     1      81.606  67.874  71.076  1.00  0.00     0.010 C 
ENDROOT
BRANCH   1   2
ATOM      2  C   UNL     1      82.850  66.946  71.147  1.00  0.00     0.100 C 
BRANCH   2   3
ATOM      3  C   UNL     1      83.761  67.273  72.267  1.00  0.00     0.220 C 
ATOM      4  N   UNL     1      84.846  66.487  72.525  1.00  0.00    -0.352 N 
ATOM      5  H   UNL     1      84.929  65.676  71.930  1.00  0.00     0.163 HD
ATOM      6  O   UNL     1      83.526  68.297  72.953  1.00  0.00    -0.275 OA
BRANCH   4   7
ATOM      7  C   UNL     1      85.824  66.736  73.540  1.00  0.00     0.151 C 
BRANCH   7   8
ATOM      8  C   UNL     1      85.709  65.815  74.704  1.00  0.00    -0.025 A 
ATOM      9  C   UNL     1      85.531  65.463  77.132  1.00  0.00     0.160 A 
ATOM     10  C   UNL     1      85.446  64.069  76.926  1.00  0.00     0.157 A 
ATOM     11  C   UNL     1      85.680  66.323  76.023  1.00  0.00     0.056 A 
ATOM     12  C   UNL     1      85.513  63.549  75.620  1.00  0.00     0.050 A 
ATOM     13  C   UNL     1      85.633  64.415  74.516  1.00  0.00     0.009 A 
BRANCH   9  14
ATOM     14  O   UNL     1      85.507  65.977  78.400  1.00  0.00    -0.493 OA
ATOM     15  C   UNL     1      86.202  67.230  78.532  1.00  0.00     0.278 C 
ENDBRANCH   9  14
BRANCH  10  16
ATOM     16  O   UNL     1      85.304  63.217  77.975  1.00  0.00    -0.504 OA
ATOM     17  H   UNL     1      85.428  63.699  78.796  1.00  0.00     0.293 HD
ENDBRANCH  10  16
ENDBRANCH   7   8
ENDBRANCH   4   7
ENDBRANCH   2   3
ENDBRANCH   1   2
BRANCH   1  18
ATOM     18  C   UNL     1      80.319  67.171  71.594  1.00  0.00     0.001 C 
BRANCH  18  19
ATOM     19  C   UNL     1      80.494  65.645  71.839  1.00  0.00     0.000 C 
BRANCH  19  20
ATOM     20  C   UNL     1      79.956  65.225  73.236  1.00  0.00     0.000 C 
BRANCH  20  21
ATOM     21  C   UNL     1      80.308  66.217  74.379  1.00  0.00     0.003 C 
BRANCH  21  22
ATOM     22  C   UNL     1      81.727  66.011  75.004  1.00  0.00    -0.017 C 
ATOM     23  C   UNL     1      82.010  64.498  75.223  1.00  0.00     0.007 C 
ATOM     24  C   UNL     1      81.949  66.804  76.326  1.00  0.00     0.007 C 
ENDBRANCH  21  22
ENDBRANCH  20  21
ENDBRANCH  19  20
ENDBRANCH  18  19
ENDBRANCH   1  18
TORSDOF 11
ENDMDL
MODEL 9
REMARK VINA RESULT:    -5.566     30.000     32.956
REMARK INTER + INTRA:          -9.670
REMARK INTER:                  -9.095
REMARK INTRA:                  -0.575
REMARK UNBOUND:                -0.687
REMARK SMILES COc1cc(CNC(=O)CCCCCCC(C)C)ccc1O
REMARK SMILES IDX 11 1 10 2 8 3 7 4 9 6 6 7 5 8 3 9 21 10 4 11 20 12 19 13
REMARK SMILES IDX 2 14 1 15 22 16 12 18 13 19 14 20 15 21 16 22 17 23 18 24
REMARK H PARENT 7 5 22 17
REMARK Flexibility Score: inf
ROOT
ATOM      1  C   UNL     1      85.203  63.730  78.233  1.00  0.00     0.010 C 
ENDROOT
BRANCH   1   2
ATOM      2  C   UNL     1      83.913  63.573  77.381  1.00  0.00     0.100 C 
BRANCH   2   3
ATOM      3  C   UNL     1      83.465  64.839  76.759  1.00  0.00     0.220 C 
ATOM      4  N   UNL     1      82.136  65.141  76.691  1.00  0.00    -0.352 N 
ATOM      5  H   UNL     1      81.523  64.424  77.050  1.00  0.00     0.163 HD
ATOM      6  O   UNL     1      84.333  65.634  76.321  1.00  0.00    -0.275 OA
BRANCH   4   7
ATOM      7  C   UNL     1      81.591  66.356  76.167  1.00  0.00     0.151 C 
BRANCH   7   8
ATOM      8  C   UNL     1      81.232  66.264  74.725  1.00  0.00    -0.025 A 
ATOM      9  C   UNL     1      81.454  67.087  72.418  1.00  0.00     0.160 A 
ATOM     10  C   UNL     1      80.586  66.068  71.968  1.00  0.00     0.157 A 
ATOM     11  C   UNL     1      81.755  67.189  73.792  1.00  0.00     0.056 A 
ATOM     12  C   UNL     1      80.028  65.166  72.892  1.00  0.00     0.050 A 
ATOM     13  C   UNL     1      80.356  65.255  74.259  1.00  0.00     0.009 A 
BRANCH   9  14
ATOM     14  O   UNL     1      81.971  67.994  71.533  1.00  0.00    -0.493 OA
ATOM     15  C   UNL     1      82.979  68.849  72.102  1.00  0.00     0.278 C 
ENDBRANCH   9  14
BRANCH  10  16
ATOM     16  O   UNL     1      80.278  65.947  70.650  1.00  0.00    -0.504 OA
ATOM     17  H   UNL     1      79.943  65.064  70.481  1.00  0.00     0.293 HD
ENDBRANCH  10  16
ENDBRANCH   7   8
ENDBRANCH   4   7
ENDBRANCH   2   3
ENDBRANCH   1   2
BRANCH   1  18
ATOM     18  C   UNL     1      84.998  63.259  79.701  1.00  0.00     0.001 C 
BRANCH  18  19
ATOM     19  C   UNL     1      86.188  63.603  80.641  1.00  0.00     0.000 C 
BRANCH  19  20
ATOM     20  C   UNL     1      86.034  65.020  81.263  1.00  0.00     0.000 C 
BRANCH  20  21
ATOM     21  C   UNL     1      85.651  65.016  82.769  1.00  0.00     0.003 C 
BRANCH  21  22
ATOM     22  C   UNL     1      86.325  66.146  83.615  1.00  0.00    -0.017 C 
ATOM     23  C   UNL     1      85.361  66.638  84.731  1.00  0.00     0.007 C 
ATOM     24  C   UNL     1      86.831  67.347  82.763  1.00  0.00     0.007 C 
ENDBRANCH  21  22
ENDBRANCH  20  21
ENDBRANCH  19  20
ENDBRANCH  18  19
ENDBRANCH   1  18
TORSDOF 11
ENDMDL
MODEL 10
REMARK VINA RESULT:    -5.535     28.345     31.488
REMARK INTER + INTRA:          -9.620
REMARK INTER:                  -8.296
REMARK INTRA:                  -1.324
REMARK UNBOUND:                -0.687
REMARK SMILES COc1cc(CNC(=O)CCCCCCC(C)C)ccc1O
REMARK SMILES IDX 11 1 10 2 8 3 7 4 9 6 6 7 5 8 3 9 21 10 4 11 20 12 19 13
REMARK SMILES IDX 2 14 1 15 22 16 12 18 13 19 14 20 15 21 16 22 17 23 18 24
REMARK H PARENT 7 5 22 17
REMARK Flexibility Score: inf
ROOT
ATOM      1  C   UNL     1      80.366  65.303  73.061  1.00  0.00     0.010 C 
ENDROOT
BRANCH   1   2
ATOM      2  C   UNL     1      80.080  65.928  71.667  1.00  0.00     0.100 C 
BRANCH   2   3
ATOM      3  C   UNL     1      81.230  66.680  71.116  1.00  0.00     0.220 C 
ATOM      4  N   UNL     1      82.466  66.104  71.060  1.00  0.00    -0.352 N 
ATOM      5  H   UNL     1      82.517  65.178  71.457  1.00  0.00     0.163 HD
ATOM      6  O   UNL     1      81.037  67.841  70.681  1.00  0.00    -0.275 OA
BRANCH   4   7
ATOM      7  C   UNL     1      83.635  66.710  70.498  1.00  0.00     0.151 C 
BRANCH   7   8
ATOM      8  C   UNL     1      84.305  67.663  71.424  1.00  0.00    -0.025 A 
ATOM      9  C   UNL     1      85.471  68.110  73.543  1.00  0.00     0.160 A 
ATOM     10  C   UNL     1      85.623  69.465  73.177  1.00  0.00     0.157 A 
ATOM     11  C   UNL     1      84.798  67.225  72.675  1.00  0.00     0.056 A 
ATOM     12  C   UNL     1      85.103  69.921  71.952  1.00  0.00     0.050 A 
ATOM     13  C   UNL     1      84.458  69.026  71.077  1.00  0.00     0.009 A 
BRANCH   9  14
ATOM     14  O   UNL     1      85.938  67.664  74.750  1.00  0.00    -0.493 OA
ATOM     15  C   UNL     1      87.153  66.898  74.653  1.00  0.00     0.278 C 
ENDBRANCH   9  14
BRANCH  10  16
ATOM     16  O   UNL     1      86.266  70.340  73.994  1.00  0.00    -0.504 OA
ATOM     17  H   UNL     1      85.689  70.577  74.724  1.00  0.00     0.293 HD
ENDBRANCH  10  16
ENDBRANCH   7   8
ENDBRANCH   4   7
ENDBRANCH   2   3
ENDBRANCH   1   2
BRANCH   1  18
ATOM     18  C   UNL     1      80.228  66.343  74.210  1.00  0.00     0.001 C 
BRANCH  18  19
ATOM     19  C   UNL     1      81.586  66.771  74.833  1.00  0.00     0.000 C 
BRANCH  19  20
ATOM     20  C   UNL     1      81.667  66.397  76.340  1.00  0.00     0.000 C 
BRANCH  20  21
ATOM     21  C   UNL     1      82.161  64.949  76.611  1.00  0.00     0.003 C 
BRANCH  21  22
ATOM     22  C   UNL     1      83.697  64.737  76.408  1.00  0.00    -0.017 C 
ATOM     23  C   UNL     1      84.100  63.284  76.788  1.00  0.00     0.007 C 
ATOM     24  C   UNL     1      84.577  65.766  77.177  1.00  0.00     0.007 C 
ENDBRANCH  21  22
ENDBRANCH  20  21
ENDBRANCH  19  20
ENDBRANCH  18  19
ENDBRANCH   1  18
TORSDOF 11
ENDMDL
