MODEL 1
REMARK VINA RESULT:    -6.084      0.000      0.000
REMARK INTER + INTRA:         -10.173
REMARK INTER:                  -9.463
REMARK INTRA:                  -0.710
REMARK UNBOUND:                -0.710
REMARK SMILES COc1cc(CNC(=O)CCCC/C=C/C(C)C)ccc1O
REMARK SMILES IDX 10 1 8 2 7 3 9 5 6 6 5 7 3 8 21 9 4 10 20 11 19 12 2 13 1 14
REMARK SMILES IDX 22 15 11 17 12 18 13 19 14 20 15 21 16 22 17 23 18 24
REMARK H PARENT 7 4 22 16
REMARK Flexibility Score: inf
ROOT
ATOM      1  C   UNL     1      96.696  80.918  83.821  1.00  0.00     0.100 C 
ENDROOT
BRANCH   1   2
ATOM      2  C   UNL     1      95.579  81.543  84.555  1.00  0.00     0.220 C 
ATOM      3  N   UNL     1      94.399  81.804  83.926  1.00  0.00    -0.352 N 
ATOM      4  H   UNL     1      94.375  81.560  82.946  1.00  0.00     0.163 HD
ATOM      5  O   UNL     1      95.742  81.803  85.772  1.00  0.00    -0.275 OA
BRANCH   3   6
ATOM      6  C   UNL     1      93.250  82.375  84.553  1.00  0.00     0.151 C 
BRANCH   6   7
ATOM      7  C   UNL     1      92.079  81.458  84.486  1.00  0.00    -0.025 A 
ATOM      8  C   UNL     1      89.665  81.110  84.149  1.00  0.00     0.160 A 
ATOM      9  C   UNL     1      89.838  79.723  84.335  1.00  0.00     0.157 A 
ATOM     10  C   UNL     1      90.785  81.964  84.228  1.00  0.00     0.056 A 
ATOM     11  C   UNL     1      91.119  79.207  84.613  1.00  0.00     0.050 A 
ATOM     12  C   UNL     1      92.233  80.065  84.678  1.00  0.00     0.009 A 
BRANCH   8  13
ATOM     13  O   UNL     1      88.410  81.625  83.944  1.00  0.00    -0.493 OA
ATOM     14  C   UNL     1      87.854  82.290  85.094  1.00  0.00     0.278 C 
ENDBRANCH   8  13
BRANCH   9  15
ATOM     15  O   UNL     1      88.783  78.872  84.252  1.00  0.00    -0.504 OA
ATOM     16  H   UNL     1      87.964  79.370  84.314  1.00  0.00     0.293 HD
ENDBRANCH   9  15
ENDBRANCH   6   7
ENDBRANCH   3   6
ENDBRANCH   1   2
BRANCH   1  17
ATOM     17  C   UNL     1      96.577  81.151  82.291  1.00  0.00     0.010 C 
BRANCH  17  18
ATOM     18  C   UNL     1      97.235  82.481  81.827  1.00  0.00     0.005 C 
BRANCH  18  19
ATOM     19  C   UNL     1      98.558  82.246  81.049  1.00  0.00     0.027 C 
BRANCH  19  20
ATOM     20  C   UNL     1      98.361  82.294  79.608  1.00  0.00    -0.031 C 
ATOM     21  C   UNL     1      97.921  83.376  78.941  1.00  0.00    -0.028 C 
BRANCH  21  22
ATOM     22  C   UNL     1      97.750  83.409  77.489  1.00  0.00     0.005 C 
ATOM     23  C   UNL     1      97.829  81.992  76.855  1.00  0.00     0.012 C 
ATOM     24  C   UNL     1      96.413  84.105  77.122  1.00  0.00     0.012 C 
ENDBRANCH  21  22
ENDBRANCH  19  20
ENDBRANCH  18  19
ENDBRANCH  17  18
ENDBRANCH   1  17
TORSDOF 10
ENDMDL
MODEL 2
REMARK VINA RESULT:    -5.855      4.618      9.121
REMARK INTER + INTRA:          -9.817
REMARK INTER:                  -8.935
REMARK INTRA:                  -0.882
REMARK UNBOUND:                -0.710
REMARK SMILES COc1cc(CNC(=O)CCCC/C=C/C(C)C)ccc1O
REMARK SMILES IDX 10 1 8 2 7 3 9 5 6 6 5 7 3 8 21 9 4 10 20 11 19 12 2 13 1 14
REMARK SMILES IDX 22 15 11 17 12 18 13 19 14 20 15 21 16 22 17 23 18 24
REMARK H PARENT 7 4 22 16
REMARK Flexibility Score: inf
ROOT
ATOM      1  C   UNL     1      99.135  81.124  82.205  1.00  0.00     0.100 C 
ENDROOT
BRANCH   1   2
ATOM      2  C   UNL     1      99.473  80.904  80.786  1.00  0.00     0.220 C 
ATOM      3  N   UNL     1      99.176  81.848  79.850  1.00  0.00    -0.352 N 
ATOM      4  H   UNL     1      98.701  82.666  80.205  1.00  0.00     0.163 HD
ATOM      5  O   UNL     1     100.058  79.838  80.474  1.00  0.00    -0.275 OA
BRANCH   3   6
ATOM      6  C   UNL     1      99.488  81.746  78.460  1.00  0.00     0.151 C 
BRANCH   6   7
ATOM      7  C   UNL     1      98.597  82.607  77.635  1.00  0.00    -0.025 A 
ATOM      8  C   UNL     1      98.121  83.761  75.513  1.00  0.00     0.160 A 
ATOM      9  C   UNL     1      96.901  84.231  76.041  1.00  0.00     0.157 A 
ATOM     10  C   UNL     1      98.958  82.956  76.314  1.00  0.00     0.056 A 
ATOM     11  C   UNL     1      96.537  83.907  77.363  1.00  0.00     0.050 A 
ATOM     12  C   UNL     1      97.373  83.093  78.152  1.00  0.00     0.009 A 
BRANCH   8  13
ATOM     13  O   UNL     1      98.511  84.128  74.250  1.00  0.00    -0.493 OA
ATOM     14  C   UNL     1      98.214  83.150  73.237  1.00  0.00     0.278 C 
ENDBRANCH   8  13
BRANCH   9  15
ATOM     15  O   UNL     1      96.067  84.997  75.292  1.00  0.00    -0.504 OA
ATOM     16  H   UNL     1      95.156  84.767  75.489  1.00  0.00     0.293 HD
ENDBRANCH   9  15
ENDBRANCH   6   7
ENDBRANCH   3   6
ENDBRANCH   1   2
BRANCH   1  17
ATOM     17  C   UNL     1      97.757  80.510  82.568  1.00  0.00     0.010 C 
BRANCH  17  18
ATOM     18  C   UNL     1      96.562  81.338  82.018  1.00  0.00     0.005 C 
BRANCH  18  19
ATOM     19  C   UNL     1      96.698  82.852  82.332  1.00  0.00     0.027 C 
BRANCH  19  20
ATOM     20  C   UNL     1      95.934  83.238  83.509  1.00  0.00    -0.031 C 
ATOM     21  C   UNL     1      94.752  82.696  83.854  1.00  0.00    -0.028 C 
BRANCH  21  22
ATOM     22  C   UNL     1      94.011  83.085  85.053  1.00  0.00     0.005 C 
ATOM     23  C   UNL     1      94.125  84.606  85.349  1.00  0.00     0.012 C 
ATOM     24  C   UNL     1      92.526  82.656  84.928  1.00  0.00     0.012 C 
ENDBRANCH  21  22
ENDBRANCH  19  20
ENDBRANCH  18  19
ENDBRANCH  17  18
ENDBRANCH   1  17
TORSDOF 10
ENDMDL
MODEL 3
REMARK VINA RESULT:    -5.837      4.689      9.880
REMARK INTER + INTRA:          -9.788
REMARK INTER:                  -9.275
REMARK INTRA:                  -0.513
REMARK UNBOUND:                -0.710
REMARK SMILES COc1cc(CNC(=O)CCCC/C=C/C(C)C)ccc1O
REMARK SMILES IDX 10 1 8 2 7 3 9 5 6 6 5 7 3 8 21 9 4 10 20 11 19 12 2 13 1 14
REMARK SMILES IDX 22 15 11 17 12 18 13 19 14 20 15 21 16 22 17 23 18 24
REMARK H PARENT 7 4 22 16
REMARK Flexibility Score: inf
ROOT
ATOM      1  C   UNL     1      96.255  83.639  82.832  1.00  0.00     0.100 C 
ENDROOT
BRANCH   1   2
ATOM      2  C   UNL     1      97.032  82.848  81.859  1.00  0.00     0.220 C 
ATOM      3  N   UNL     1      97.167  83.275  80.572  1.00  0.00    -0.352 N 
ATOM      4  H   UNL     1      96.683  84.135  80.354  1.00  0.00     0.163 HD
ATOM      5  O   UNL     1      97.579  81.791  82.256  1.00  0.00    -0.275 OA
BRANCH   3   6
ATOM      6  C   UNL     1      97.922  82.601  79.564  1.00  0.00     0.151 C 
BRANCH   6   7
ATOM      7  C   UNL     1      97.661  83.170  78.214  1.00  0.00    -0.025 A 
ATOM      8  C   UNL     1      98.343  83.485  75.869  1.00  0.00     0.160 A 
ATOM      9  C   UNL     1      97.171  84.232  75.628  1.00  0.00     0.157 A 
ATOM     10  C   UNL     1      98.578  82.964  77.158  1.00  0.00     0.056 A 
ATOM     11  C   UNL     1      96.257  84.462  76.675  1.00  0.00     0.050 A 
ATOM     12  C   UNL     1      96.495  83.927  77.956  1.00  0.00     0.009 A 
BRANCH   8  13
ATOM     13  O   UNL     1      99.267  83.315  74.870  1.00  0.00    -0.493 OA
ATOM     14  C   UNL     1      99.530  81.938  74.543  1.00  0.00     0.278 C 
ENDBRANCH   8  13
BRANCH   9  15
ATOM     15  O   UNL     1      96.908  84.736  74.394  1.00  0.00    -0.504 OA
ATOM     16  H   UNL     1      97.352  84.205  73.729  1.00  0.00     0.293 HD
ENDBRANCH   9  15
ENDBRANCH   6   7
ENDBRANCH   3   6
ENDBRANCH   1   2
BRANCH   1  17
ATOM     17  C   UNL     1      95.253  82.753  83.620  1.00  0.00     0.010 C 
BRANCH  17  18
ATOM     18  C   UNL     1      95.034  83.240  85.080  1.00  0.00     0.005 C 
BRANCH  18  19
ATOM     19  C   UNL     1      94.360  84.637  85.143  1.00  0.00     0.027 C 
BRANCH  19  20
ATOM     20  C   UNL     1      93.862  84.946  86.475  1.00  0.00    -0.031 C 
ATOM     21  C   UNL     1      93.672  86.194  86.940  1.00  0.00    -0.028 C 
BRANCH  21  22
ATOM     22  C   UNL     1      93.152  86.481  88.277  1.00  0.00     0.005 C 
ATOM     23  C   UNL     1      93.425  85.323  89.277  1.00  0.00     0.012 C 
ATOM     24  C   UNL     1      93.737  87.817  88.804  1.00  0.00     0.012 C 
ENDBRANCH  21  22
ENDBRANCH  19  20
ENDBRANCH  18  19
ENDBRANCH  17  18
ENDBRANCH   1  17
TORSDOF 10
ENDMDL
MODEL 4
REMARK VINA RESULT:    -5.826      4.386      9.612
REMARK INTER + INTRA:          -9.771
REMARK INTER:                  -9.044
REMARK INTRA:                  -0.728
REMARK UNBOUND:                -0.710
REMARK SMILES COc1cc(CNC(=O)CCCC/C=C/C(C)C)ccc1O
REMARK SMILES IDX 10 1 8 2 7 3 9 5 6 6 5 7 3 8 21 9 4 10 20 11 19 12 2 13 1 14
REMARK SMILES IDX 22 15 11 17 12 18 13 19 14 20 15 21 16 22 17 23 18 24
REMARK H PARENT 7 4 22 16
REMARK Flexibility Score: inf
ROOT
ATOM      1  C   UNL     1      97.211  81.656  81.672  1.00  0.00     0.100 C 
ENDROOT
BRANCH   1   2
ATOM      2  C   UNL     1      98.182  81.745  80.565  1.00  0.00     0.220 C 
ATOM      3  N   UNL     1      97.784  81.543  79.278  1.00  0.00    -0.352 N 
ATOM      4  H   UNL     1      96.807  81.313  79.165  1.00  0.00     0.163 HD
ATOM      5  O   UNL     1      99.372  82.033  80.843  1.00  0.00    -0.275 OA
BRANCH   3   6
ATOM      6  C   UNL     1      98.637  81.637  78.136  1.00  0.00     0.151 C 
BRANCH   6   7
ATOM      7  C   UNL     1      98.079  82.564  77.113  1.00  0.00    -0.025 A 
ATOM      8  C   UNL     1      97.952  83.325  74.775  1.00  0.00     0.160 A 
ATOM      9  C   UNL     1      97.012  84.308  75.145  1.00  0.00     0.157 A 
ATOM     10  C   UNL     1      98.478  82.464  75.761  1.00  0.00     0.056 A 
ATOM     11  C   UNL     1      96.619  84.432  76.493  1.00  0.00     0.050 A 
ATOM     12  C   UNL     1      97.141  83.560  77.468  1.00  0.00     0.009 A 
BRANCH   8  13
ATOM     13  O   UNL     1      98.387  83.244  73.476  1.00  0.00    -0.493 OA
ATOM     14  C   UNL     1      99.639  83.911  73.234  1.00  0.00     0.278 C 
ENDBRANCH   8  13
BRANCH   9  15
ATOM     15  O   UNL     1      96.476  85.144  74.218  1.00  0.00    -0.504 OA
ATOM     16  H   UNL     1      96.130  84.630  73.485  1.00  0.00     0.293 HD
ENDBRANCH   9  15
ENDBRANCH   6   7
ENDBRANCH   3   6
ENDBRANCH   1   2
BRANCH   1  17
ATOM     17  C   UNL     1      96.703  83.059  82.102  1.00  0.00     0.010 C 
BRANCH  17  18
ATOM     18  C   UNL     1      95.665  82.998  83.258  1.00  0.00     0.005 C 
BRANCH  18  19
ATOM     19  C   UNL     1      95.830  81.727  84.134  1.00  0.00     0.027 C 
BRANCH  19  20
ATOM     20  C   UNL     1      94.548  81.131  84.479  1.00  0.00    -0.031 C 
ATOM     21  C   UNL     1      93.367  81.768  84.383  1.00  0.00    -0.028 C 
BRANCH  21  22
ATOM     22  C   UNL     1      92.088  81.142  84.717  1.00  0.00     0.005 C 
ATOM     23  C   UNL     1      91.980  80.793  86.228  1.00  0.00     0.012 C 
ATOM     24  C   UNL     1      90.914  82.053  84.275  1.00  0.00     0.012 C 
ENDBRANCH  21  22
ENDBRANCH  19  20
ENDBRANCH  18  19
ENDBRANCH  17  18
ENDBRANCH   1  17
TORSDOF 10
ENDMDL
MODEL 5
REMARK VINA RESULT:    -5.825      2.379      3.679
REMARK INTER + INTRA:          -9.770
REMARK INTER:                  -8.993
REMARK INTRA:                  -0.778
REMARK UNBOUND:                -0.710
REMARK SMILES COc1cc(CNC(=O)CCCC/C=C/C(C)C)ccc1O
REMARK SMILES IDX 10 1 8 2 7 3 9 5 6 6 5 7 3 8 21 9 4 10 20 11 19 12 2 13 1 14
REMARK SMILES IDX 22 15 11 17 12 18 13 19 14 20 15 21 16 22 17 23 18 24
REMARK H PARENT 7 4 22 16
REMARK Flexibility Score: inf
ROOT
ATOM      1  C   UNL     1      94.938  76.626  83.550  1.00  0.00     0.100 C 
ENDROOT
BRANCH   1   2
ATOM      2  C   UNL     1      93.463  76.599  83.497  1.00  0.00     0.220 C 
ATOM      3  N   UNL     1      92.727  77.436  84.281  1.00  0.00    -0.352 N 
ATOM      4  H   UNL     1      93.268  78.033  84.892  1.00  0.00     0.163 HD
ATOM      5  O   UNL     1      92.914  75.803  82.697  1.00  0.00    -0.275 OA
BRANCH   3   6
ATOM      6  C   UNL     1      91.301  77.509  84.281  1.00  0.00     0.151 C 
BRANCH   6   7
ATOM      7  C   UNL     1      90.827  78.918  84.206  1.00  0.00    -0.025 A 
ATOM      8  C   UNL     1      88.975  80.539  84.119  1.00  0.00     0.160 A 
ATOM      9  C   UNL     1      89.904  81.599  84.083  1.00  0.00     0.157 A 
ATOM     10  C   UNL     1      89.444  79.210  84.178  1.00  0.00     0.056 A 
ATOM     11  C   UNL     1      91.286  81.323  84.090  1.00  0.00     0.050 A 
ATOM     12  C   UNL     1      91.745  79.993  84.161  1.00  0.00     0.009 A 
BRANCH   8  13
ATOM     13  O   UNL     1      87.631  80.800  84.045  1.00  0.00    -0.493 OA
ATOM     14  C   UNL     1      87.107  80.809  82.704  1.00  0.00     0.278 C 
ENDBRANCH   8  13
BRANCH   9  15
ATOM     15  O   UNL     1      89.486  82.891  84.039  1.00  0.00    -0.504 OA
ATOM     16  H   UNL     1      88.828  82.991  83.347  1.00  0.00     0.293 HD
ENDBRANCH   9  15
ENDBRANCH   6   7
ENDBRANCH   3   6
ENDBRANCH   1   2
BRANCH   1  17
ATOM     17  C   UNL     1      95.467  78.002  84.036  1.00  0.00     0.010 C 
BRANCH  17  18
ATOM     18  C   UNL     1      96.379  78.703  82.990  1.00  0.00     0.005 C 
BRANCH  18  19
ATOM     19  C   UNL     1      96.078  80.221  82.867  1.00  0.00     0.027 C 
BRANCH  19  20
ATOM     20  C   UNL     1      96.802  80.835  81.764  1.00  0.00    -0.031 C 
ATOM     21  C   UNL     1      97.047  82.154  81.662  1.00  0.00    -0.028 C 
BRANCH  21  22
ATOM     22  C   UNL     1      97.795  82.748  80.554  1.00  0.00     0.005 C 
ATOM     23  C   UNL     1      98.796  81.745  79.914  1.00  0.00     0.012 C 
ATOM     24  C   UNL     1      96.819  83.310  79.488  1.00  0.00     0.012 C 
ENDBRANCH  21  22
ENDBRANCH  19  20
ENDBRANCH  18  19
ENDBRANCH  17  18
ENDBRANCH   1  17
TORSDOF 10
ENDMDL
MODEL 6
REMARK VINA RESULT:    -5.783      3.154      7.691
REMARK INTER + INTRA:          -9.705
REMARK INTER:                  -8.396
REMARK INTRA:                  -1.309
REMARK UNBOUND:                -0.710
REMARK SMILES COc1cc(CNC(=O)CCCC/C=C/C(C)C)ccc1O
REMARK SMILES IDX 10 1 8 2 7 3 9 5 6 6 5 7 3 8 21 9 4 10 20 11 19 12 2 13 1 14
REMARK SMILES IDX 22 15 11 17 12 18 13 19 14 20 15 21 16 22 17 23 18 24
REMARK H PARENT 7 4 22 16
REMARK Flexibility Score: inf
ROOT
ATOM      1  C   UNL     1      95.689  76.166  83.662  1.00  0.00     0.100 C 
ENDROOT
BRANCH   1   2
ATOM      2  C   UNL     1      96.084  76.926  82.460  1.00  0.00     0.220 C 
ATOM      3  N   UNL     1      96.631  78.168  82.575  1.00  0.00    -0.352 N 
ATOM      4  H   UNL     1      96.711  78.513  83.522  1.00  0.00     0.163 HD
ATOM      5  O   UNL     1      95.925  76.385  81.339  1.00  0.00    -0.275 OA
BRANCH   3   6
ATOM      6  C   UNL     1      97.074  78.969  81.479  1.00  0.00     0.151 C 
BRANCH   6   7
ATOM      7  C   UNL     1      96.874  80.420  81.747  1.00  0.00    -0.025 A 
ATOM      8  C   UNL     1      97.064  82.764  81.019  1.00  0.00     0.160 A 
ATOM      9  C   UNL     1      96.483  83.189  82.232  1.00  0.00     0.157 A 
ATOM     10  C   UNL     1      97.256  81.386  80.789  1.00  0.00     0.056 A 
ATOM     11  C   UNL     1      96.115  82.238  83.204  1.00  0.00     0.050 A 
ATOM     12  C   UNL     1      96.300  80.863  82.961  1.00  0.00     0.009 A 
BRANCH   8  13
ATOM     13  O   UNL     1      97.483  83.689  80.096  1.00  0.00    -0.493 OA
ATOM     14  C   UNL     1      97.370  83.249  78.730  1.00  0.00     0.278 C 
ENDBRANCH   8  13
BRANCH   9  15
ATOM     15  O   UNL     1      96.272  84.507  82.479  1.00  0.00    -0.504 OA
ATOM     16  H   UNL     1      95.475  84.795  82.027  1.00  0.00     0.293 HD
ENDBRANCH   9  15
ENDBRANCH   6   7
ENDBRANCH   3   6
ENDBRANCH   1   2
BRANCH   1  17
ATOM     17  C   UNL     1      94.160  76.249  83.914  1.00  0.00     0.010 C 
BRANCH  17  18
ATOM     18  C   UNL     1      93.723  77.602  84.544  1.00  0.00     0.005 C 
BRANCH  18  19
ATOM     19  C   UNL     1      92.223  77.914  84.291  1.00  0.00     0.027 C 
BRANCH  19  20
ATOM     20  C   UNL     1      91.941  79.340  84.362  1.00  0.00    -0.031 C 
ATOM     21  C   UNL     1      92.886  80.294  84.444  1.00  0.00    -0.028 C 
BRANCH  21  22
ATOM     22  C   UNL     1      92.580  81.723  84.495  1.00  0.00     0.005 C 
ATOM     23  C   UNL     1      91.058  82.005  84.364  1.00  0.00     0.012 C 
ATOM     24  C   UNL     1      93.148  82.347  85.796  1.00  0.00     0.012 C 
ENDBRANCH  21  22
ENDBRANCH  19  20
ENDBRANCH  18  19
ENDBRANCH  17  18
ENDBRANCH   1  17
TORSDOF 10
ENDMDL
MODEL 7
REMARK VINA RESULT:    -5.723     22.807     25.475
REMARK INTER + INTRA:          -9.612
REMARK INTER:                  -8.272
REMARK INTRA:                  -1.339
REMARK UNBOUND:                -0.710
REMARK SMILES COc1cc(CNC(=O)CCCC/C=C/C(C)C)ccc1O
REMARK SMILES IDX 10 1 8 2 7 3 9 5 6 6 5 7 3 8 21 9 4 10 20 11 19 12 2 13 1 14
REMARK SMILES IDX 22 15 11 17 12 18 13 19 14 20 15 21 16 22 17 23 18 24
REMARK H PARENT 7 4 22 16
REMARK Flexibility Score: inf
ROOT
ATOM      1  C   UNL     1      71.669  88.353  67.470  1.00  0.00     0.100 C 
ENDROOT
BRANCH   1   2
ATOM      2  C   UNL     1      71.834  86.893  67.339  1.00  0.00     0.220 C 
ATOM      3  N   UNL     1      72.538  86.367  66.298  1.00  0.00    -0.352 N 
ATOM      4  H   UNL     1      72.898  87.045  65.641  1.00  0.00     0.163 HD
ATOM      5  O   UNL     1      71.329  86.158  68.223  1.00  0.00    -0.275 OA
BRANCH   3   6
ATOM      6  C   UNL     1      72.781  84.974  66.099  1.00  0.00     0.151 C 
BRANCH   6   7
ATOM      7  C   UNL     1      74.232  84.655  66.186  1.00  0.00    -0.025 A 
ATOM      8  C   UNL     1      76.293  84.463  67.520  1.00  0.00     0.160 A 
ATOM      9  C   UNL     1      76.995  84.031  66.375  1.00  0.00     0.157 A 
ATOM     10  C   UNL     1      74.921  84.772  67.415  1.00  0.00     0.056 A 
ATOM     11  C   UNL     1      76.326  83.928  65.139  1.00  0.00     0.050 A 
ATOM     12  C   UNL     1      74.953  84.228  65.047  1.00  0.00     0.009 A 
BRANCH   8  13
ATOM     13  O   UNL     1      76.954  84.628  68.710  1.00  0.00    -0.493 OA
ATOM     14  C   UNL     1      76.211  84.186  69.861  1.00  0.00     0.278 C 
ENDBRANCH   8  13
BRANCH   9  15
ATOM     15  O   UNL     1      78.313  83.713  66.445  1.00  0.00    -0.504 OA
ATOM     16  H   UNL     1      78.597  83.335  65.610  1.00  0.00     0.293 HD
ENDBRANCH   9  15
ENDBRANCH   6   7
ENDBRANCH   3   6
ENDBRANCH   1   2
BRANCH   1  17
ATOM     17  C   UNL     1      72.981  89.038  67.938  1.00  0.00     0.010 C 
BRANCH  17  18
ATOM     18  C   UNL     1      73.214  88.916  69.471  1.00  0.00     0.005 C 
BRANCH  18  19
ATOM     19  C   UNL     1      74.464  89.705  69.943  1.00  0.00     0.027 C 
BRANCH  19  20
ATOM     20  C   UNL     1      75.623  89.451  69.100  1.00  0.00    -0.031 C 
ATOM     21  C   UNL     1      75.886  88.269  68.514  1.00  0.00    -0.028 C 
BRANCH  21  22
ATOM     22  C   UNL     1      77.047  88.041  67.654  1.00  0.00     0.005 C 
ATOM     23  C   UNL     1      76.645  87.806  66.171  1.00  0.00     0.012 C 
ATOM     24  C   UNL     1      78.045  89.222  67.776  1.00  0.00     0.012 C 
ENDBRANCH  21  22
ENDBRANCH  19  20
ENDBRANCH  18  19
ENDBRANCH  17  18
ENDBRANCH   1  17
TORSDOF 10
ENDMDL
MODEL 8
REMARK VINA RESULT:    -5.652      3.488      4.562
REMARK INTER + INTRA:          -9.501
REMARK INTER:                  -8.881
REMARK INTRA:                  -0.621
REMARK UNBOUND:                -0.710
REMARK SMILES COc1cc(CNC(=O)CCCC/C=C/C(C)C)ccc1O
REMARK SMILES IDX 10 1 8 2 7 3 9 5 6 6 5 7 3 8 21 9 4 10 20 11 19 12 2 13 1 14
REMARK SMILES IDX 22 15 11 17 12 18 13 19 14 20 15 21 16 22 17 23 18 24
REMARK H PARENT 7 4 22 16
REMARK Flexibility Score: inf
ROOT
ATOM      1  C   UNL     1      97.002  82.551  82.135  1.00  0.00     0.100 C 
ENDROOT
BRANCH   1   2
ATOM      2  C   UNL     1      96.539  82.195  83.490  1.00  0.00     0.220 C 
ATOM      3  N   UNL     1      95.278  81.718  83.687  1.00  0.00    -0.352 N 
ATOM      4  H   UNL     1      94.709  81.660  82.854  1.00  0.00     0.163 HD
ATOM      5  O   UNL     1      97.346  82.320  84.443  1.00  0.00    -0.275 OA
BRANCH   3   6
ATOM      6  C   UNL     1      94.746  81.316  84.950  1.00  0.00     0.151 C 
BRANCH   6   7
ATOM      7  C   UNL     1      94.247  82.481  85.729  1.00  0.00    -0.025 A 
ATOM      8  C   UNL     1      94.264  83.829  87.790  1.00  0.00     0.160 A 
ATOM      9  C   UNL     1      93.321  84.710  87.222  1.00  0.00     0.157 A 
ATOM     10  C   UNL     1      94.716  82.723  87.040  1.00  0.00     0.056 A 
ATOM     11  C   UNL     1      92.830  84.471  85.924  1.00  0.00     0.050 A 
ATOM     12  C   UNL     1      93.296  83.371  85.178  1.00  0.00     0.009 A 
BRANCH   8  13
ATOM     13  O   UNL     1      94.696  84.020  89.078  1.00  0.00    -0.493 OA
ATOM     14  C   UNL     1      95.690  83.072  89.510  1.00  0.00     0.278 C 
ENDBRANCH   8  13
BRANCH   9  15
ATOM     15  O   UNL     1      92.875  85.792  87.912  1.00  0.00    -0.504 OA
ATOM     16  H   UNL     1      93.534  86.489  87.876  1.00  0.00     0.293 HD
ENDBRANCH   9  15
ENDBRANCH   6   7
ENDBRANCH   3   6
ENDBRANCH   1   2
BRANCH   1  17
ATOM     17  C   UNL     1      97.278  81.290  81.274  1.00  0.00     0.010 C 
BRANCH  17  18
ATOM     18  C   UNL     1      97.443  81.614  79.762  1.00  0.00     0.005 C 
BRANCH  18  19
ATOM     19  C   UNL     1      97.357  83.136  79.471  1.00  0.00     0.027 C 
BRANCH  19  20
ATOM     20  C   UNL     1      97.058  83.411  78.074  1.00  0.00    -0.031 C 
ATOM     21  C   UNL     1      97.991  83.608  77.125  1.00  0.00    -0.028 C 
BRANCH  21  22
ATOM     22  C   UNL     1      97.668  83.863  75.722  1.00  0.00     0.005 C 
ATOM     23  C   UNL     1      96.600  84.979  75.557  1.00  0.00     0.012 C 
ATOM     24  C   UNL     1      98.955  84.208  74.929  1.00  0.00     0.012 C 
ENDBRANCH  21  22
ENDBRANCH  19  20
ENDBRANCH  18  19
ENDBRANCH  17  18
ENDBRANCH   1  17
TORSDOF 10
ENDMDL
MODEL 9
REMARK VINA RESULT:    -5.613      1.855      3.459
REMARK INTER + INTRA:          -9.441
REMARK INTER:                  -8.262
REMARK INTRA:                  -1.179
REMARK UNBOUND:                -0.710
REMARK SMILES COc1cc(CNC(=O)CCCC/C=C/C(C)C)ccc1O
REMARK SMILES IDX 10 1 8 2 7 3 9 5 6 6 5 7 3 8 21 9 4 10 20 11 19 12 2 13 1 14
REMARK SMILES IDX 22 15 11 17 12 18 13 19 14 20 15 21 16 22 17 23 18 24
REMARK H PARENT 7 4 22 16
REMARK Flexibility Score: inf
ROOT
ATOM      1  C   UNL     1      97.598  82.165  86.526  1.00  0.00     0.100 C 
ENDROOT
BRANCH   1   2
ATOM      2  C   UNL     1      96.950  81.090  85.751  1.00  0.00     0.220 C 
ATOM      3  N   UNL     1      95.622  80.826  85.911  1.00  0.00    -0.352 N 
ATOM      4  H   UNL     1      95.154  81.398  86.599  1.00  0.00     0.163 HD
ATOM      5  O   UNL     1      97.649  80.447  84.931  1.00  0.00    -0.275 OA
BRANCH   3   6
ATOM      6  C   UNL     1      94.896  79.831  85.188  1.00  0.00     0.151 C 
BRANCH   6   7
ATOM      7  C   UNL     1      93.534  80.307  84.822  1.00  0.00    -0.025 A 
ATOM      8  C   UNL     1      91.162  79.828  84.370  1.00  0.00     0.160 A 
ATOM      9  C   UNL     1      90.927  81.200  84.143  1.00  0.00     0.157 A 
ATOM     10  C   UNL     1      92.462  79.395  84.705  1.00  0.00     0.056 A 
ATOM     11  C   UNL     1      91.991  82.119  84.237  1.00  0.00     0.050 A 
ATOM     12  C   UNL     1      93.283  81.679  84.583  1.00  0.00     0.009 A 
BRANCH   8  13
ATOM     13  O   UNL     1      90.144  78.921  84.216  1.00  0.00    -0.493 OA
ATOM     14  C   UNL     1      90.571  77.547  84.252  1.00  0.00     0.278 C 
ENDBRANCH   8  13
BRANCH   9  15
ATOM     15  O   UNL     1      89.685  81.652  83.833  1.00  0.00    -0.504 OA
ATOM     16  H   UNL     1      89.031  80.999  84.094  1.00  0.00     0.293 HD
ENDBRANCH   9  15
ENDBRANCH   6   7
ENDBRANCH   3   6
ENDBRANCH   1   2
BRANCH   1  17
ATOM     17  C   UNL     1      97.563  83.519  85.767  1.00  0.00     0.010 C 
BRANCH  17  18
ATOM     18  C   UNL     1      96.128  83.933  85.334  1.00  0.00     0.005 C 
BRANCH  18  19
ATOM     19  C   UNL     1      96.120  84.736  84.005  1.00  0.00     0.027 C 
BRANCH  19  20
ATOM     20  C   UNL     1      95.954  83.873  82.845  1.00  0.00    -0.031 C 
ATOM     21  C   UNL     1      96.921  83.080  82.348  1.00  0.00    -0.028 C 
BRANCH  21  22
ATOM     22  C   UNL     1      96.725  82.206  81.192  1.00  0.00     0.005 C 
ATOM     23  C   UNL     1      97.534  82.678  79.953  1.00  0.00     0.012 C 
ATOM     24  C   UNL     1      97.083  80.742  81.561  1.00  0.00     0.012 C 
ENDBRANCH  21  22
ENDBRANCH  19  20
ENDBRANCH  18  19
ENDBRANCH  17  18
ENDBRANCH   1  17
TORSDOF 10
ENDMDL
MODEL 10
REMARK VINA RESULT:    -5.427     22.857     25.815
REMARK INTER + INTRA:          -9.150
REMARK INTER:                  -7.853
REMARK INTRA:                  -1.297
REMARK UNBOUND:                -0.710
REMARK SMILES COc1cc(CNC(=O)CCCC/C=C/C(C)C)ccc1O
REMARK SMILES IDX 10 1 8 2 7 3 9 5 6 6 5 7 3 8 21 9 4 10 20 11 19 12 2 13 1 14
REMARK SMILES IDX 22 15 11 17 12 18 13 19 14 20 15 21 16 22 17 23 18 24
REMARK H PARENT 7 4 22 16
REMARK Flexibility Score: inf
ROOT
ATOM      1  C   UNL     1      73.956  89.946  65.165  1.00  0.00     0.100 C 
ENDROOT
BRANCH   1   2
ATOM      2  C   UNL     1      73.887  88.497  64.892  1.00  0.00     0.220 C 
ATOM      3  N   UNL     1      73.481  87.629  65.860  1.00  0.00    -0.352 N 
ATOM      4  H   UNL     1      73.266  88.055  66.752  1.00  0.00     0.163 HD
ATOM      5  O   UNL     1      74.188  88.097  63.741  1.00  0.00    -0.275 OA
BRANCH   3   6
ATOM      6  C   UNL     1      73.350  86.218  65.688  1.00  0.00     0.151 C 
BRANCH   6   7
ATOM      7  C   UNL     1      74.643  85.517  65.914  1.00  0.00    -0.025 A 
ATOM      8  C   UNL     1      76.543  84.977  67.384  1.00  0.00     0.160 A 
ATOM      9  C   UNL     1      77.100  84.171  66.369  1.00  0.00     0.157 A 
ATOM     10  C   UNL     1      75.322  85.643  67.147  1.00  0.00     0.056 A 
ATOM     11  C   UNL     1      76.444  84.052  65.128  1.00  0.00     0.050 A 
ATOM     12  C   UNL     1      75.220  84.711  64.904  1.00  0.00     0.009 A 
BRANCH   8  13
ATOM     13  O   UNL     1      77.210  85.149  68.570  1.00  0.00    -0.493 OA
ATOM     14  C   UNL     1      76.492  84.671  69.723  1.00  0.00     0.278 C 
ENDBRANCH   8  13
BRANCH   9  15
ATOM     15  O   UNL     1      78.267  83.506  66.570  1.00  0.00    -0.504 OA
ATOM     16  H   UNL     1      78.895  84.086  67.007  1.00  0.00     0.293 HD
ENDBRANCH   9  15
ENDBRANCH   6   7
ENDBRANCH   3   6
ENDBRANCH   1   2
BRANCH   1  17
ATOM     17  C   UNL     1      74.540  90.235  66.574  1.00  0.00     0.010 C 
BRANCH  17  18
ATOM     18  C   UNL     1      76.050  89.881  66.687  1.00  0.00     0.005 C 
BRANCH  18  19
ATOM     19  C   UNL     1      76.366  89.040  67.953  1.00  0.00     0.027 C 
BRANCH  19  20
ATOM     20  C   UNL     1      75.337  89.178  68.973  1.00  0.00    -0.031 C 
ATOM     21  C   UNL     1      75.275  90.195  69.852  1.00  0.00    -0.028 C 
BRANCH  21  22
ATOM     22  C   UNL     1      74.220  90.324  70.856  1.00  0.00     0.005 C 
ATOM     23  C   UNL     1      73.974  91.802  71.266  1.00  0.00     0.012 C 
ATOM     24  C   UNL     1      72.911  89.666  70.346  1.00  0.00     0.012 C 
ENDBRANCH  21  22
ENDBRANCH  19  20
ENDBRANCH  18  19
ENDBRANCH  17  18
ENDBRANCH   1  17
TORSDOF 10
ENDMDL
