MODEL 1
REMARK VINA RESULT:    -7.942      0.000      0.000
REMARK INTER + INTRA:         -13.682
REMARK INTER:                 -13.513
REMARK INTRA:                  -0.169
REMARK UNBOUND:                -0.169
REMARK SMILES C=C(C)[C@]12C[C@@H](C)[C@@]34O[C@](Cc5ccccc5)(O[C@@H]1[C@@H]3C=C(COC(=O)Cc1ccc(O)cc1)C[C@]1(O)C(=O)C(C)=C[C@@H]41)O2
REMARK SMILES IDX 23 1 22 2 21 3 20 4 9 5 8 6 10 7 6 8 18 10 44 11 19 12 5 13
REMARK SMILES IDX 7 14 4 15 11 16 12 17 13 18 17 19 14 20 16 21 15 22 2 23
REMARK SMILES IDX 3 24 1 25 35 26 36 27 43 28 38 29 42 30 39 32 40 33 41 34
REMARK SMILES IDX 37 35 24 37 25 38 26 39 27 40 28 41 29 42 34 43 30 44 33 45
REMARK SMILES IDX 31 46 32 47
REMARK H PARENT 37 36 32 48
REMARK Flexibility Score: 90.00
ROOT
ATOM      1  C   UNL     1      93.217  98.925  71.293  1.00  0.00     0.264 C 
ENDROOT
BRANCH   1   2
ATOM      2  C   UNL     1      94.647  98.800  71.768  1.00  0.00    -0.033 C 
ATOM      3  C   UNL     1      94.888  98.436  73.045  1.00  0.00    -0.015 C 
BRANCH   3   4
ATOM      4  C   UNL     1      96.213  98.314  73.779  1.00  0.00     0.078 C 
ATOM      5  O   UNL     1      96.962  95.971  73.529  1.00  0.00    -0.319 OA
ATOM      6  C   UNL     1      97.308  97.350  73.192  1.00  0.00     0.095 CG0
ATOM      7  C   UNL     1      96.491  95.766  74.875  1.00  0.00     0.289 C 
ATOM      8  C   UNL     1      98.690  97.724  73.871  1.00  0.00     0.023 C 
ATOM      9  G   UNL     1      97.298  97.383  71.636  1.00  0.00     0.000 G0
ATOM     10  O   UNL     1      95.347  96.570  75.151  1.00  0.00    -0.320 OA
ATOM     11  O   UNL     1      97.463  96.132  75.852  1.00  0.00    -0.313 OA
ATOM     12  C   UNL     1      95.965  97.864  75.240  1.00  0.00     0.170 C 
ATOM     13  C   UNL     1      98.493  98.214  75.338  1.00  0.00     0.049 C 
ATOM     14  C   UNL     1      99.761  96.620  73.842  1.00  0.00     0.011 C 
ATOM     15  C   UNL     1      97.280  97.555  75.997  1.00  0.00     0.122 C 
BRANCH   7  16
ATOM     16  C   UNL     1      96.139  94.301  75.037  1.00  0.00     0.135 C 
BRANCH  16  17
ATOM     17  C   UNL     1      94.833  94.109  75.767  1.00  0.00    -0.040 A 
ATOM     18  C   UNL     1      93.662  93.865  75.050  1.00  0.00     0.004 A 
ATOM     19  C   UNL     1      94.798  94.175  77.160  1.00  0.00     0.004 A 
ATOM     20  C   UNL     1      92.454  93.687  75.726  1.00  0.00     0.000 A 
ATOM     21  C   UNL     1      93.589  93.998  77.835  1.00  0.00     0.000 A 
ATOM     22  C   UNL     1      92.419  93.754  77.118  1.00  0.00     0.000 A 
ENDBRANCH  16  17
ENDBRANCH   7  16
BRANCH  15  23
ATOM     23  C   UNL     1      97.177  97.870  77.454  1.00  0.00    -0.046 C 
ATOM     24  C   UNL     1      96.868  99.296  77.802  1.00  0.00     0.042 C 
ATOM     25  C   UNL     1      97.351  96.932  78.396  1.00  0.00     0.010 C 
ENDBRANCH  15  23
ENDBRANCH   3   4
BRANCH   2  26
ATOM     26  C   UNL     1      95.663  99.108  70.685  1.00  0.00     0.078 C 
BRANCH  26  27
ATOM     27  C   UNL     1      97.122  98.764  70.978  1.00  0.00     0.140 C 
ATOM     28  C   UNL     1      97.274  97.378  71.639  1.00  0.00     0.086 CG0
ATOM     29  C   UNL     1      97.948  98.616  69.718  1.00  0.00     0.190 C 
ATOM     30  C   UNL     1      98.403  96.747  70.873  1.00  0.00    -0.010 C 
ATOM     31  G   UNL     1      97.301  97.360  73.195  1.00  0.00     0.000 G0
ATOM     32  O   UNL     1      97.970  99.409  68.789  1.00  0.00    -0.291 OA
ATOM     33  C   UNL     1      98.786  97.403  69.774  1.00  0.00    -0.008 C 
ATOM     34  C   UNL     1      99.791  97.043  68.752  1.00  0.00     0.048 C 
BRANCH  27  35
ATOM     35  O   UNL     1      97.769  99.809  71.686  1.00  0.00    -0.381 OA
ATOM     36  H   UNL     1      97.663 100.633  71.180  1.00  0.00     0.212 HD
ENDBRANCH  27  35
ENDBRANCH  26  27
ENDBRANCH   2  26
ENDBRANCH   1   2
BRANCH   1  37
ATOM     37  O   UNL     1      92.992 100.242  70.836  1.00  0.00    -0.461 OA
BRANCH  37  38
ATOM     38  C   UNL     1      92.789 100.388  69.483  1.00  0.00     0.310 C 
ATOM     39  O   UNL     1      93.674 100.409  68.639  1.00  0.00    -0.252 OA
BRANCH  38  40
ATOM     40  C   UNL     1      91.311 100.519  69.206  1.00  0.00     0.158 C 
BRANCH  40  41
ATOM     41  C   UNL     1      90.754  99.357  68.425  1.00  0.00    -0.037 A 
ATOM     42  C   UNL     1      90.529  99.482  67.054  1.00  0.00     0.008 A 
ATOM     43  C   UNL     1      90.464  98.156  69.071  1.00  0.00     0.008 A 
ATOM     44  C   UNL     1      90.013  98.407  66.330  1.00  0.00     0.046 A 
ATOM     45  C   UNL     1      89.948  97.080  68.348  1.00  0.00     0.046 A 
ATOM     46  C   UNL     1      89.722  97.206  66.978  1.00  0.00     0.115 A 
BRANCH  46  47
ATOM     47  O   UNL     1      89.218  96.157  66.272  1.00  0.00    -0.508 OA
ATOM     48  H   UNL     1      89.868  95.432  66.277  1.00  0.00     0.293 HD
ENDBRANCH  46  47
ENDBRANCH  40  41
ENDBRANCH  38  40
ENDBRANCH  37  38
ENDBRANCH   1  37
TORSDOF 10
ENDMDL
MODEL 2
REMARK VINA RESULT:    -7.680     16.262     21.547
REMARK INTER + INTRA:         -13.237
REMARK INTER:                 -12.909
REMARK INTRA:                  -0.328
REMARK UNBOUND:                -0.169
REMARK SMILES C=C(C)[C@]12C[C@@H](C)[C@@]34O[C@](Cc5ccccc5)(O[C@@H]1[C@@H]3C=C(COC(=O)Cc1ccc(O)cc1)C[C@]1(O)C(=O)C(C)=C[C@@H]41)O2
REMARK SMILES IDX 23 1 22 2 21 3 20 4 9 5 8 6 10 7 6 8 18 10 44 11 19 12 5 13
REMARK SMILES IDX 7 14 4 15 11 16 12 17 13 18 17 19 14 20 16 21 15 22 2 23
REMARK SMILES IDX 3 24 1 25 35 26 36 27 43 28 38 29 42 30 39 32 40 33 41 34
REMARK SMILES IDX 37 35 24 37 25 38 26 39 27 40 28 41 29 42 34 43 30 44 33 45
REMARK SMILES IDX 31 46 32 47
REMARK H PARENT 37 36 32 48
REMARK Flexibility Score: 90.00
ROOT
ATOM      1  C   UNL     1      96.291  82.233  84.566  1.00  0.00     0.264 C 
ENDROOT
BRANCH   1   2
ATOM      2  C   UNL     1      95.026  82.520  85.342  1.00  0.00    -0.033 C 
ATOM      3  C   UNL     1      93.922  81.783  85.100  1.00  0.00    -0.015 C 
BRANCH   3   4
ATOM      4  C   UNL     1      92.524  81.919  85.682  1.00  0.00     0.078 C 
ATOM      5  O   UNL     1      92.414  80.425  87.649  1.00  0.00    -0.319 OA
ATOM      6  C   UNL     1      92.351  81.828  87.242  1.00  0.00     0.095 CG0
ATOM      7  C   UNL     1      91.694  79.507  86.804  1.00  0.00     0.289 C 
ATOM      8  C   UNL     1      90.923  82.413  87.601  1.00  0.00     0.023 C 
ATOM      9  G   UNL     1      93.551  82.498  87.973  1.00  0.00     0.000 G0
ATOM     10  O   UNL     1      92.150  79.578  85.456  1.00  0.00    -0.320 OA
ATOM     11  O   UNL     1      90.299  79.794  86.755  1.00  0.00    -0.313 OA
ATOM     12  C   UNL     1      91.593  80.844  85.070  1.00  0.00     0.170 C 
ATOM     13  C   UNL     1      89.885  82.121  86.475  1.00  0.00     0.049 C 
ATOM     14  C   UNL     1      90.346  81.966  88.955  1.00  0.00     0.011 C 
ATOM     15  C   UNL     1      90.198  80.816  85.741  1.00  0.00     0.122 C 
BRANCH   7  16
ATOM     16  C   UNL     1      91.901  78.105  87.342  1.00  0.00     0.135 C 
BRANCH  16  17
ATOM     17  C   UNL     1      91.011  77.098  86.658  1.00  0.00    -0.040 A 
ATOM     18  C   UNL     1      91.436  76.474  85.486  1.00  0.00     0.004 A 
ATOM     19  C   UNL     1      89.763  76.792  87.198  1.00  0.00     0.004 A 
ATOM     20  C   UNL     1      90.613  75.542  84.853  1.00  0.00     0.000 A 
ATOM     21  C   UNL     1      88.939  75.860  86.565  1.00  0.00     0.000 A 
ATOM     22  C   UNL     1      89.364  75.236  85.393  1.00  0.00     0.000 A 
ENDBRANCH  16  17
ENDBRANCH   7  16
BRANCH  15  23
ATOM     23  C   UNL     1      89.121  80.424  84.783  1.00  0.00    -0.046 C 
ATOM     24  C   UNL     1      89.164  79.010  84.283  1.00  0.00     0.042 C 
ATOM     25  C   UNL     1      88.171  81.285  84.392  1.00  0.00     0.010 C 
ENDBRANCH  15  23
ENDBRANCH   3   4
BRANCH   2  26
ATOM     26  C   UNL     1      95.185  83.651  86.342  1.00  0.00     0.078 C 
BRANCH  26  27
ATOM     27  C   UNL     1      94.047  83.866  87.338  1.00  0.00     0.140 C 
ATOM     28  C   UNL     1      93.556  82.541  87.958  1.00  0.00     0.086 CG0
ATOM     29  C   UNL     1      94.484  84.652  88.556  1.00  0.00     0.190 C 
ATOM     30  C   UNL     1      93.458  82.856  89.425  1.00  0.00    -0.010 C 
ATOM     31  G   UNL     1      92.356  81.853  87.243  1.00  0.00     0.000 G0
ATOM     32  O   UNL     1      95.114  85.699  88.535  1.00  0.00    -0.291 OA
ATOM     33  C   UNL     1      93.996  84.021  89.797  1.00  0.00    -0.008 C 
ATOM     34  C   UNL     1      94.153  84.609  91.143  1.00  0.00     0.048 C 
BRANCH  27  35
ATOM     35  O   UNL     1      93.011  84.656  86.780  1.00  0.00    -0.381 OA
ATOM     36  H   UNL     1      92.176  84.162  86.853  1.00  0.00     0.212 HD
ENDBRANCH  27  35
ENDBRANCH  26  27
ENDBRANCH   2  26
ENDBRANCH   1   2
BRANCH   1  37
ATOM     37  O   UNL     1      95.994  82.197  83.187  1.00  0.00    -0.461 OA
BRANCH  37  38
ATOM     38  C   UNL     1      97.009  82.570  82.337  1.00  0.00     0.310 C 
ATOM     39  O   UNL     1      97.666  83.597  82.435  1.00  0.00    -0.252 OA
BRANCH  38  40
ATOM     40  C   UNL     1      97.184  81.518  81.269  1.00  0.00     0.158 C 
BRANCH  40  41
ATOM     41  C   UNL     1      97.478  82.101  79.911  1.00  0.00    -0.037 A 
ATOM     42  C   UNL     1      98.799  82.271  79.496  1.00  0.00     0.008 A 
ATOM     43  C   UNL     1      96.430  82.471  79.069  1.00  0.00     0.008 A 
ATOM     44  C   UNL     1      99.071  82.813  78.239  1.00  0.00     0.046 A 
ATOM     45  C   UNL     1      96.702  83.012  77.811  1.00  0.00     0.046 A 
ATOM     46  C   UNL     1      98.022  83.182  77.397  1.00  0.00     0.115 A 
BRANCH  46  47
ATOM     47  O   UNL     1      98.288  83.710  76.171  1.00  0.00    -0.508 OA
ATOM     48  H   UNL     1      97.491  84.162  75.842  1.00  0.00     0.293 HD
ENDBRANCH  46  47
ENDBRANCH  40  41
ENDBRANCH  38  40
ENDBRANCH  37  38
ENDBRANCH   1  37
TORSDOF 10
ENDMDL
MODEL 3
REMARK VINA RESULT:    -7.416     18.154     22.039
REMARK INTER + INTRA:         -12.787
REMARK INTER:                 -11.937
REMARK INTRA:                  -0.850
REMARK UNBOUND:                -0.169
REMARK SMILES C=C(C)[C@]12C[C@@H](C)[C@@]34O[C@](Cc5ccccc5)(O[C@@H]1[C@@H]3C=C(COC(=O)Cc1ccc(O)cc1)C[C@]1(O)C(=O)C(C)=C[C@@H]41)O2
REMARK SMILES IDX 23 1 22 2 21 3 20 4 9 5 8 6 10 7 6 8 18 10 44 11 19 12 5 13
REMARK SMILES IDX 7 14 4 15 11 16 12 17 13 18 17 19 14 20 16 21 15 22 2 23
REMARK SMILES IDX 3 24 1 25 35 26 36 27 43 28 38 29 42 30 39 32 40 33 41 34
REMARK SMILES IDX 37 35 24 37 25 38 26 39 27 40 28 41 29 42 34 43 30 44 33 45
REMARK SMILES IDX 31 46 32 47
REMARK H PARENT 37 36 32 48
REMARK Flexibility Score: 90.00
ROOT
ATOM      1  C   UNL     1      94.647  86.606  86.789  1.00  0.00     0.264 C 
ENDROOT
BRANCH   1   2
ATOM      2  C   UNL     1      93.604  85.808  87.537  1.00  0.00    -0.033 C 
ATOM      3  C   UNL     1      93.103  84.688  86.977  1.00  0.00    -0.015 C 
BRANCH   3   4
ATOM      4  C   UNL     1      92.006  83.764  87.481  1.00  0.00     0.078 C 
ATOM      5  O   UNL     1      93.118  81.943  88.733  1.00  0.00    -0.319 OA
ATOM      6  C   UNL     1      92.197  83.069  88.879  1.00  0.00     0.095 CG0
ATOM      7  C   UNL     1      92.911  81.128  87.563  1.00  0.00     0.289 C 
ATOM      8  C   UNL     1      90.782  82.531  89.345  1.00  0.00     0.023 C 
ATOM      9  G   UNL     1      92.910  84.025  89.879  1.00  0.00     0.000 G0
ATOM     10  O   UNL     1      92.997  81.904  86.370  1.00  0.00    -0.320 OA
ATOM     11  O   UNL     1      91.618  80.528  87.540  1.00  0.00    -0.313 OA
ATOM     12  C   UNL     1      91.760  82.631  86.454  1.00  0.00     0.170 C 
ATOM     13  C   UNL     1      89.913  82.080  88.130  1.00  0.00     0.049 C 
ATOM     14  C   UNL     1      90.814  81.406  90.394  1.00  0.00     0.011 C 
ATOM     15  C   UNL     1      90.776  81.558  86.981  1.00  0.00     0.122 C 
BRANCH   7  16
ATOM     16  C   UNL     1      93.971  80.044  87.546  1.00  0.00     0.135 C 
BRANCH  16  17
ATOM     17  C   UNL     1      93.399  78.700  87.172  1.00  0.00    -0.040 A 
ATOM     18  C   UNL     1      93.201  78.375  85.831  1.00  0.00     0.004 A 
ATOM     19  C   UNL     1      93.070  77.781  88.169  1.00  0.00     0.004 A 
ATOM     20  C   UNL     1      92.672  77.130  85.485  1.00  0.00     0.000 A 
ATOM     21  C   UNL     1      92.542  76.537  87.822  1.00  0.00     0.000 A 
ATOM     22  C   UNL     1      92.343  76.212  86.481  1.00  0.00     0.000 A 
ENDBRANCH  16  17
ENDBRANCH   7  16
BRANCH  15  23
ATOM     23  C   UNL     1      89.964  80.954  85.882  1.00  0.00    -0.046 C 
ATOM     24  C   UNL     1      88.515  80.711  86.187  1.00  0.00     0.042 C 
ATOM     25  C   UNL     1      90.498  80.646  84.691  1.00  0.00     0.010 C 
ENDBRANCH  15  23
ENDBRANCH   3   4
BRANCH   2  26
ATOM     26  C   UNL     1      93.253  86.405  88.887  1.00  0.00     0.078 C 
BRANCH  26  27
ATOM     27  C   UNL     1      92.447  85.533  89.848  1.00  0.00     0.140 C 
ATOM     28  C   UNL     1      92.925  84.066  89.845  1.00  0.00     0.086 CG0
ATOM     29  C   UNL     1      92.640  85.934  91.295  1.00  0.00     0.190 C 
ATOM     30  C   UNL     1      93.006  83.720  91.306  1.00  0.00    -0.010 C 
ATOM     31  G   UNL     1      92.181  83.105  88.872  1.00  0.00     0.000 G0
ATOM     32  O   UNL     1      92.563  87.073  91.731  1.00  0.00    -0.291 OA
ATOM     33  C   UNL     1      92.878  84.752  92.145  1.00  0.00    -0.008 C 
ATOM     34  C   UNL     1      92.983  84.798  93.618  1.00  0.00     0.048 C 
BRANCH  27  35
ATOM     35  O   UNL     1      91.053  85.681  89.638  1.00  0.00    -0.381 OA
ATOM     36  H   UNL     1      90.919  86.279  88.883  1.00  0.00     0.212 HD
ENDBRANCH  27  35
ENDBRANCH  26  27
ENDBRANCH   2  26
ENDBRANCH   1   2
BRANCH   1  37
ATOM     37  O   UNL     1      95.462  87.293  87.715  1.00  0.00    -0.461 OA
BRANCH  37  38
ATOM     38  C   UNL     1      95.560  88.654  87.544  1.00  0.00     0.310 C 
ATOM     39  O   UNL     1      95.555  89.229  86.465  1.00  0.00    -0.252 OA
BRANCH  38  40
ATOM     40  C   UNL     1      95.674  89.324  88.893  1.00  0.00     0.158 C 
BRANCH  40  41
ATOM     41  C   UNL     1      94.546  90.283  89.170  1.00  0.00    -0.037 A 
ATOM     42  C   UNL     1      94.820  91.558  89.665  1.00  0.00     0.008 A 
ATOM     43  C   UNL     1      93.227  89.896  88.933  1.00  0.00     0.008 A 
ATOM     44  C   UNL     1      93.775  92.446  89.923  1.00  0.00     0.046 A 
ATOM     45  C   UNL     1      92.182  90.784  89.190  1.00  0.00     0.046 A 
ATOM     46  C   UNL     1      92.456  92.058  89.685  1.00  0.00     0.115 A 
BRANCH  46  47
ATOM     47  O   UNL     1      91.437  92.924  89.937  1.00  0.00    -0.508 OA
ATOM     48  H   UNL     1      90.684  92.428  90.304  1.00  0.00     0.293 HD
ENDBRANCH  46  47
ENDBRANCH  40  41
ENDBRANCH  38  40
ENDBRANCH  37  38
ENDBRANCH   1  37
TORSDOF 10
ENDMDL
MODEL 4
REMARK VINA RESULT:    -7.232     28.403     32.358
REMARK INTER + INTRA:         -12.474
REMARK INTER:                 -11.914
REMARK INTRA:                  -0.560
REMARK UNBOUND:                -0.169
REMARK SMILES C=C(C)[C@]12C[C@@H](C)[C@@]34O[C@](Cc5ccccc5)(O[C@@H]1[C@@H]3C=C(COC(=O)Cc1ccc(O)cc1)C[C@]1(O)C(=O)C(C)=C[C@@H]41)O2
REMARK SMILES IDX 23 1 22 2 21 3 20 4 9 5 8 6 10 7 6 8 18 10 44 11 19 12 5 13
REMARK SMILES IDX 7 14 4 15 11 16 12 17 13 18 17 19 14 20 16 21 15 22 2 23
REMARK SMILES IDX 3 24 1 25 35 26 36 27 43 28 38 29 42 30 39 32 40 33 41 34
REMARK SMILES IDX 37 35 24 37 25 38 26 39 27 40 28 41 29 42 34 43 30 44 33 45
REMARK SMILES IDX 31 46 32 47
REMARK H PARENT 37 36 32 48
REMARK Flexibility Score: 90.00
ROOT
ATOM      1  C   UNL     1      86.286  70.073  73.397  1.00  0.00     0.264 C 
ENDROOT
BRANCH   1   2
ATOM      2  C   UNL     1      85.487  69.172  74.310  1.00  0.00    -0.033 C 
ATOM      3  C   UNL     1      84.577  68.331  73.776  1.00  0.00    -0.015 C 
BRANCH   3   4
ATOM      4  C   UNL     1      83.606  67.391  74.472  1.00  0.00     0.078 C 
ATOM      5  O   UNL     1      84.731  65.197  74.654  1.00  0.00    -0.319 OA
ATOM      6  C   UNL     1      84.187  66.300  75.444  1.00  0.00     0.095 CG0
ATOM      7  C   UNL     1      83.925  64.786  73.533  1.00  0.00     0.289 C 
ATOM      8  C   UNL     1      82.990  65.765  76.334  1.00  0.00     0.023 C 
ATOM      9  G   UNL     1      85.410  66.854  76.230  1.00  0.00     0.000 G0
ATOM     10  O   UNL     1      83.688  65.871  72.640  1.00  0.00    -0.320 OA
ATOM     11  O   UNL     1      82.635  64.328  73.932  1.00  0.00    -0.313 OA
ATOM     12  C   UNL     1      82.756  66.638  73.418  1.00  0.00     0.170 C 
ATOM     13  C   UNL     1      81.645  65.768  75.546  1.00  0.00     0.049 C 
ATOM     14  C   UNL     1      83.206  64.380  76.969  1.00  0.00     0.011 C 
ATOM     15  C   UNL     1      81.865  65.542  74.050  1.00  0.00     0.122 C 
BRANCH   7  16
ATOM     16  C   UNL     1      84.653  63.673  72.806  1.00  0.00     0.135 C 
BRANCH  16  17
ATOM     17  C   UNL     1      85.464  64.191  71.644  1.00  0.00    -0.040 A 
ATOM     18  C   UNL     1      85.126  63.829  70.341  1.00  0.00     0.004 A 
ATOM     19  C   UNL     1      86.553  65.032  71.875  1.00  0.00     0.004 A 
ATOM     20  C   UNL     1      85.876  64.309  69.267  1.00  0.00     0.000 A 
ATOM     21  C   UNL     1      87.303  65.512  70.801  1.00  0.00     0.000 A 
ATOM     22  C   UNL     1      86.964  65.150  69.497  1.00  0.00     0.000 A 
ENDBRANCH  16  17
ENDBRANCH   7  16
BRANCH  15  23
ATOM     23  C   UNL     1      80.584  65.360  73.303  1.00  0.00    -0.046 C 
ATOM     24  C   UNL     1      79.757  64.168  73.686  1.00  0.00     0.042 C 
ATOM     25  C   UNL     1      80.194  66.213  72.344  1.00  0.00     0.010 C 
ENDBRANCH  15  23
ENDBRANCH   3   4
BRANCH   2  26
ATOM     26  C   UNL     1      85.842  69.343  75.775  1.00  0.00     0.078 C 
BRANCH  26  27
ATOM     27  C   UNL     1      85.272  68.320  76.756  1.00  0.00     0.140 C 
ATOM     28  C   UNL     1      85.408  66.874  76.235  1.00  0.00     0.086 CG0
ATOM     29  C   UNL     1      86.044  68.271  78.057  1.00  0.00     0.190 C 
ATOM     30  C   UNL     1      85.931  66.121  77.426  1.00  0.00    -0.010 C 
ATOM     31  G   UNL     1      84.187  66.310  75.451  1.00  0.00     0.000 G0
ATOM     32  O   UNL     1      86.361  69.241  78.730  1.00  0.00    -0.291 OA
ATOM     33  C   UNL     1      86.324  66.878  78.455  1.00  0.00    -0.008 C 
ATOM     34  C   UNL     1      86.954  66.493  79.734  1.00  0.00     0.048 C 
BRANCH  27  35
ATOM     35  O   UNL     1      83.956  68.663  77.156  1.00  0.00    -0.381 OA
ATOM     36  H   UNL     1      83.356  68.503  76.408  1.00  0.00     0.212 HD
ENDBRANCH  27  35
ENDBRANCH  26  27
ENDBRANCH   2  26
ENDBRANCH   1   2
BRANCH   1  37
ATOM     37  O   UNL     1      86.546  69.396  72.186  1.00  0.00    -0.461 OA
BRANCH  37  38
ATOM     38  C   UNL     1      85.861  69.843  71.080  1.00  0.00     0.310 C 
ATOM     39  O   UNL     1      84.814  70.475  71.111  1.00  0.00    -0.252 OA
BRANCH  38  40
ATOM     40  C   UNL     1      86.599  69.432  69.829  1.00  0.00     0.158 C 
BRANCH  40  41
ATOM     41  C   UNL     1      87.364  70.567  69.199  1.00  0.00    -0.037 A 
ATOM     42  C   UNL     1      88.531  71.040  69.799  1.00  0.00     0.008 A 
ATOM     43  C   UNL     1      86.906  71.145  68.015  1.00  0.00     0.008 A 
ATOM     44  C   UNL     1      89.239  72.091  69.216  1.00  0.00     0.046 A 
ATOM     45  C   UNL     1      87.614  72.196  67.432  1.00  0.00     0.046 A 
ATOM     46  C   UNL     1      88.780  72.669  68.032  1.00  0.00     0.115 A 
BRANCH  46  47
ATOM     47  O   UNL     1      89.471  73.695  67.464  1.00  0.00    -0.508 OA
ATOM     48  H   UNL     1      90.394  73.661  67.769  1.00  0.00     0.293 HD
ENDBRANCH  46  47
ENDBRANCH  40  41
ENDBRANCH  38  40
ENDBRANCH  37  38
ENDBRANCH   1  37
TORSDOF 10
ENDMDL
MODEL 5
REMARK VINA RESULT:    -6.884     29.651     33.957
REMARK INTER + INTRA:         -11.882
REMARK INTER:                 -11.157
REMARK INTRA:                  -0.725
REMARK UNBOUND:                -0.169
REMARK SMILES C=C(C)[C@]12C[C@@H](C)[C@@]34O[C@](Cc5ccccc5)(O[C@@H]1[C@@H]3C=C(COC(=O)Cc1ccc(O)cc1)C[C@]1(O)C(=O)C(C)=C[C@@H]41)O2
REMARK SMILES IDX 23 1 22 2 21 3 20 4 9 5 8 6 10 7 6 8 18 10 44 11 19 12 5 13
REMARK SMILES IDX 7 14 4 15 11 16 12 17 13 18 17 19 14 20 16 21 15 22 2 23
REMARK SMILES IDX 3 24 1 25 35 26 36 27 43 28 38 29 42 30 39 32 40 33 41 34
REMARK SMILES IDX 37 35 24 37 25 38 26 39 27 40 28 41 29 42 34 43 30 44 33 45
REMARK SMILES IDX 31 46 32 47
REMARK H PARENT 37 36 32 48
REMARK Flexibility Score: 90.00
ROOT
ATOM      1  C   UNL     1      85.939  63.736  75.368  1.00  0.00     0.264 C 
ENDROOT
BRANCH   1   2
ATOM      2  C   UNL     1      86.232  64.801  74.337  1.00  0.00    -0.033 C 
ATOM      3  C   UNL     1      85.543  64.802  73.177  1.00  0.00    -0.015 C 
BRANCH   3   4
ATOM      4  C   UNL     1      85.698  65.705  71.964  1.00  0.00     0.078 C 
ATOM      5  O   UNL     1      84.120  67.586  72.260  1.00  0.00    -0.319 OA
ATOM      6  C   UNL     1      85.541  67.257  72.161  1.00  0.00     0.095 CG0
ATOM      7  C   UNL     1      83.265  66.904  71.322  1.00  0.00     0.289 C 
ATOM      8  C   UNL     1      86.156  67.968  70.886  1.00  0.00     0.023 C 
ATOM      9  G   UNL     1      86.138  67.704  73.528  1.00  0.00     0.000 G0
ATOM     10  O   UNL     1      83.383  65.490  71.448  1.00  0.00    -0.320 OA
ATOM     11  O   UNL     1      83.600  67.200  69.968  1.00  0.00    -0.313 OA
ATOM     12  C   UNL     1      84.683  65.294  70.869  1.00  0.00     0.170 C 
ATOM     13  C   UNL     1      85.949  67.112  69.599  1.00  0.00     0.049 C 
ATOM     14  C   UNL     1      85.666  69.403  70.627  1.00  0.00     0.011 C 
ATOM     15  C   UNL     1      84.669  66.278  69.674  1.00  0.00     0.122 C 
BRANCH   7  16
ATOM     16  C   UNL     1      81.834  67.326  71.592  1.00  0.00     0.135 C 
BRANCH  16  17
ATOM     17  C   UNL     1      81.187  66.482  72.662  1.00  0.00    -0.040 A 
ATOM     18  C   UNL     1      81.364  66.805  74.007  1.00  0.00     0.004 A 
ATOM     19  C   UNL     1      80.412  65.380  72.304  1.00  0.00     0.004 A 
ATOM     20  C   UNL     1      80.764  66.024  74.996  1.00  0.00     0.000 A 
ATOM     21  C   UNL     1      79.812  64.599  73.294  1.00  0.00     0.000 A 
ATOM     22  C   UNL     1      79.989  64.922  74.639  1.00  0.00     0.000 A 
ENDBRANCH  16  17
ENDBRANCH   7  16
BRANCH  15  23
ATOM     23  C   UNL     1      84.355  65.591  68.385  1.00  0.00    -0.046 C 
ATOM     24  C   UNL     1      83.260  64.566  68.430  1.00  0.00     0.042 C 
ATOM     25  C   UNL     1      85.015  65.873  67.252  1.00  0.00     0.010 C 
ENDBRANCH  15  23
ENDBRANCH   3   4
BRANCH   2  26
ATOM     26  C   UNL     1      87.308  65.776  74.777  1.00  0.00     0.078 C 
BRANCH  26  27
ATOM     27  C   UNL     1      87.491  67.038  73.937  1.00  0.00     0.140 C 
ATOM     28  C   UNL     1      86.143  67.673  73.535  1.00  0.00     0.086 CG0
ATOM     29  C   UNL     1      88.159  68.156  74.709  1.00  0.00     0.190 C 
ATOM     30  C   UNL     1      86.345  69.134  73.824  1.00  0.00    -0.010 C 
ATOM     31  G   UNL     1      85.565  67.239  72.157  1.00  0.00     0.000 G0
ATOM     32  O   UNL     1      89.177  68.046  75.376  1.00  0.00    -0.291 OA
ATOM     33  C   UNL     1      87.453  69.436  74.506  1.00  0.00    -0.008 C 
ATOM     34  C   UNL     1      87.926  70.735  75.027  1.00  0.00     0.048 C 
BRANCH  27  35
ATOM     35  O   UNL     1      88.366  66.812  72.844  1.00  0.00    -0.381 OA
ATOM     36  H   UNL     1      87.977  67.219  72.051  1.00  0.00     0.212 HD
ENDBRANCH  27  35
ENDBRANCH  26  27
ENDBRANCH   2  26
ENDBRANCH   1   2
BRANCH   1  37
ATOM     37  O   UNL     1      84.548  63.682  75.603  1.00  0.00    -0.461 OA
BRANCH  37  38
ATOM     38  C   UNL     1      84.137  63.957  76.887  1.00  0.00     0.310 C 
ATOM     39  O   UNL     1      83.402  64.880  77.207  1.00  0.00    -0.252 OA
BRANCH  38  40
ATOM     40  C   UNL     1      84.734  62.944  77.834  1.00  0.00     0.158 C 
BRANCH  40  41
ATOM     41  C   UNL     1      85.473  63.578  78.984  1.00  0.00    -0.037 A 
ATOM     42  C   UNL     1      86.726  64.154  78.775  1.00  0.00     0.008 A 
ATOM     43  C   UNL     1      84.905  63.589  80.257  1.00  0.00     0.008 A 
ATOM     44  C   UNL     1      87.411  64.741  79.840  1.00  0.00     0.046 A 
ATOM     45  C   UNL     1      85.589  64.176  81.322  1.00  0.00     0.046 A 
ATOM     46  C   UNL     1      86.842  64.751  81.114  1.00  0.00     0.115 A 
BRANCH  46  47
ATOM     47  O   UNL     1      87.510  65.323  82.152  1.00  0.00    -0.508 OA
ATOM     48  H   UNL     1      87.491  66.290  82.046  1.00  0.00     0.293 HD
ENDBRANCH  46  47
ENDBRANCH  40  41
ENDBRANCH  38  40
ENDBRANCH  37  38
ENDBRANCH   1  37
TORSDOF 10
ENDMDL
MODEL 6
REMARK VINA RESULT:    -6.873     16.278     20.817
REMARK INTER + INTRA:         -11.863
REMARK INTER:                 -11.522
REMARK INTRA:                  -0.341
REMARK UNBOUND:                -0.169
REMARK SMILES C=C(C)[C@]12C[C@@H](C)[C@@]34O[C@](Cc5ccccc5)(O[C@@H]1[C@@H]3C=C(COC(=O)Cc1ccc(O)cc1)C[C@]1(O)C(=O)C(C)=C[C@@H]41)O2
REMARK SMILES IDX 23 1 22 2 21 3 20 4 9 5 8 6 10 7 6 8 18 10 44 11 19 12 5 13
REMARK SMILES IDX 7 14 4 15 11 16 12 17 13 18 17 19 14 20 16 21 15 22 2 23
REMARK SMILES IDX 3 24 1 25 35 26 36 27 43 28 38 29 42 30 39 32 40 33 41 34
REMARK SMILES IDX 37 35 24 37 25 38 26 39 27 40 28 41 29 42 34 43 30 44 33 45
REMARK SMILES IDX 31 46 32 47
REMARK H PARENT 37 36 32 48
REMARK Flexibility Score: 90.00
ROOT
ATOM      1  C   UNL     1      97.473  82.454  84.796  1.00  0.00     0.264 C 
ENDROOT
BRANCH   1   2
ATOM      2  C   UNL     1      96.098  82.925  85.208  1.00  0.00    -0.033 C 
ATOM      3  C   UNL     1      95.128  82.014  85.431  1.00  0.00    -0.015 C 
BRANCH   3   4
ATOM      4  C   UNL     1      93.663  82.228  85.775  1.00  0.00     0.078 C 
ATOM      5  O   UNL     1      93.487  82.171  88.241  1.00  0.00    -0.319 OA
ATOM      6  C   UNL     1      93.311  83.037  87.077  1.00  0.00     0.095 CG0
ATOM      7  C   UNL     1      92.989  80.828  88.089  1.00  0.00     0.289 C 
ATOM      8  C   UNL     1      91.791  83.474  86.974  1.00  0.00     0.023 C 
ATOM      9  G   UNL     1      94.325  84.197  87.299  1.00  0.00     0.000 G0
ATOM     10  O   UNL     1      93.596  80.174  86.979  1.00  0.00    -0.320 OA
ATOM     11  O   UNL     1      91.586  80.794  87.838  1.00  0.00    -0.313 OA
ATOM     12  C   UNL     1      92.946  80.861  85.897  1.00  0.00     0.170 C 
ATOM     13  C   UNL     1      90.941  82.410  86.214  1.00  0.00     0.049 C 
ATOM     14  C   UNL     1      91.108  83.812  88.311  1.00  0.00     0.011 C 
ATOM     15  C   UNL     1      91.493  80.998  86.412  1.00  0.00     0.122 C 
BRANCH   7  16
ATOM     16  C   UNL     1      93.291  80.063  89.363  1.00  0.00     0.135 C 
BRANCH  16  17
ATOM     17  C   UNL     1      93.380  80.973  90.563  1.00  0.00    -0.040 A 
ATOM     18  C   UNL     1      94.624  81.408  91.018  1.00  0.00     0.004 A 
ATOM     19  C   UNL     1      92.216  81.379  91.216  1.00  0.00     0.004 A 
ATOM     20  C   UNL     1      94.705  82.251  92.127  1.00  0.00     0.000 A 
ATOM     21  C   UNL     1      92.298  82.221  92.325  1.00  0.00     0.000 A 
ATOM     22  C   UNL     1      93.542  82.656  92.781  1.00  0.00     0.000 A 
ENDBRANCH  16  17
ENDBRANCH   7  16
BRANCH  15  23
ATOM     23  C   UNL     1      90.595  79.946  85.846  1.00  0.00    -0.046 C 
ATOM     24  C   UNL     1      89.143  80.049  86.210  1.00  0.00     0.042 C 
ATOM     25  C   UNL     1      91.060  78.966  85.057  1.00  0.00     0.010 C 
ENDBRANCH  15  23
ENDBRANCH   3   4
BRANCH   2  26
ATOM     26  C   UNL     1      95.995  84.434  85.327  1.00  0.00     0.078 C 
BRANCH  26  27
ATOM     27  C   UNL     1      94.745  84.999  85.999  1.00  0.00     0.140 C 
ATOM     28  C   UNL     1      94.348  84.200  87.257  1.00  0.00     0.086 CG0
ATOM     29  C   UNL     1      94.963  86.391  86.552  1.00  0.00     0.190 C 
ATOM     30  C   UNL     1      94.066  85.269  88.276  1.00  0.00    -0.010 C 
ATOM     31  G   UNL     1      93.315  83.055  87.045  1.00  0.00     0.000 G0
ATOM     32  O   UNL     1      95.468  87.323  85.945  1.00  0.00    -0.291 OA
ATOM     33  C   UNL     1      94.426  86.506  87.921  1.00  0.00    -0.008 C 
ATOM     34  C   UNL     1      94.376  87.768  88.689  1.00  0.00     0.048 C 
BRANCH  27  35
ATOM     35  O   UNL     1      93.688  85.166  85.069  1.00  0.00    -0.381 OA
ATOM     36  H   UNL     1      94.069  85.436  84.216  1.00  0.00     0.212 HD
ENDBRANCH  27  35
ENDBRANCH  26  27
ENDBRANCH   2  26
ENDBRANCH   1   2
BRANCH   1  37
ATOM     37  O   UNL     1      97.735  82.877  83.475  1.00  0.00    -0.461 OA
BRANCH  37  38
ATOM     38  C   UNL     1      98.231  81.922  82.618  1.00  0.00     0.310 C 
ATOM     39  O   UNL     1      99.354  81.441  82.676  1.00  0.00    -0.252 OA
BRANCH  38  40
ATOM     40  C   UNL     1      97.175  81.561  81.601  1.00  0.00     0.158 C 
BRANCH  40  41
ATOM     41  C   UNL     1      97.467  82.113  80.230  1.00  0.00    -0.037 A 
ATOM     42  C   UNL     1      98.787  82.301  79.820  1.00  0.00     0.008 A 
ATOM     43  C   UNL     1      96.418  82.436  79.370  1.00  0.00     0.008 A 
ATOM     44  C   UNL     1      99.057  82.814  78.551  1.00  0.00     0.046 A 
ATOM     45  C   UNL     1      96.688  82.948  78.100  1.00  0.00     0.046 A 
ATOM     46  C   UNL     1      98.007  83.137  77.691  1.00  0.00     0.115 A 
BRANCH  46  47
ATOM     47  O   UNL     1      98.271  83.636  76.453  1.00  0.00    -0.508 OA
ATOM     48  H   UNL     1      97.457  83.607  75.920  1.00  0.00     0.293 HD
ENDBRANCH  46  47
ENDBRANCH  40  41
ENDBRANCH  38  40
ENDBRANCH  37  38
ENDBRANCH   1  37
TORSDOF 10
ENDMDL
MODEL 7
REMARK VINA RESULT:    -6.840     18.102     21.036
REMARK INTER + INTRA:         -11.808
REMARK INTER:                 -11.402
REMARK INTRA:                  -0.405
REMARK UNBOUND:                -0.169
REMARK SMILES C=C(C)[C@]12C[C@@H](C)[C@@]34O[C@](Cc5ccccc5)(O[C@@H]1[C@@H]3C=C(COC(=O)Cc1ccc(O)cc1)C[C@]1(O)C(=O)C(C)=C[C@@H]41)O2
REMARK SMILES IDX 23 1 22 2 21 3 20 4 9 5 8 6 10 7 6 8 18 10 44 11 19 12 5 13
REMARK SMILES IDX 7 14 4 15 11 16 12 17 13 18 17 19 14 20 16 21 15 22 2 23
REMARK SMILES IDX 3 24 1 25 35 26 36 27 43 28 38 29 42 30 39 32 40 33 41 34
REMARK SMILES IDX 37 35 24 37 25 38 26 39 27 40 28 41 29 42 34 43 30 44 33 45
REMARK SMILES IDX 31 46 32 47
REMARK H PARENT 37 36 32 48
REMARK Flexibility Score: 90.00
ROOT
ATOM      1  C   UNL     1      93.943  86.751  88.055  1.00  0.00     0.264 C 
ENDROOT
BRANCH   1   2
ATOM      2  C   UNL     1      93.872  85.415  87.352  1.00  0.00    -0.033 C 
ATOM      3  C   UNL     1      94.939  84.982  86.650  1.00  0.00    -0.015 C 
BRANCH   3   4
ATOM      4  C   UNL     1      95.093  83.729  85.803  1.00  0.00     0.078 C 
ATOM      5  O   UNL     1      95.980  81.961  87.286  1.00  0.00    -0.319 OA
ATOM      6  C   UNL     1      94.823  82.333  86.475  1.00  0.00     0.095 CG0
ATOM      7  C   UNL     1      97.263  82.216  86.682  1.00  0.00     0.289 C 
ATOM      8  C   UNL     1      94.633  81.271  85.315  1.00  0.00     0.023 C 
ATOM      9  G   UNL     1      93.649  82.428  87.494  1.00  0.00     0.000 G0
ATOM     10  O   UNL     1      97.409  83.592  86.341  1.00  0.00    -0.320 OA
ATOM     11  O   UNL     1      97.442  81.496  85.465  1.00  0.00    -0.313 OA
ATOM     12  C   UNL     1      96.523  83.666  85.212  1.00  0.00     0.170 C 
ATOM     13  C   UNL     1      95.514  81.614  84.075  1.00  0.00     0.049 C 
ATOM     14  C   UNL     1      94.866  79.804  85.717  1.00  0.00     0.011 C 
ATOM     15  C   UNL     1      96.803  82.332  84.478  1.00  0.00     0.122 C 
BRANCH   7  16
ATOM     16  C   UNL     1      98.341  81.815  87.670  1.00  0.00     0.135 C 
BRANCH  16  17
ATOM     17  C   UNL     1      99.459  81.050  87.007  1.00  0.00    -0.040 A 
ATOM     18  C   UNL     1     100.578  81.728  86.525  1.00  0.00     0.004 A 
ATOM     19  C   UNL     1      99.373  79.664  86.877  1.00  0.00     0.004 A 
ATOM     20  C   UNL     1     101.613  81.020  85.913  1.00  0.00     0.000 A 
ATOM     21  C   UNL     1     100.408  78.956  86.265  1.00  0.00     0.000 A 
ATOM     22  C   UNL     1     101.527  79.634  85.783  1.00  0.00     0.000 A 
ENDBRANCH  16  17
ENDBRANCH   7  16
BRANCH  15  23
ATOM     23  C   UNL     1      97.744  82.508  83.332  1.00  0.00    -0.046 C 
ATOM     24  C   UNL     1      97.712  83.843  82.648  1.00  0.00     0.042 C 
ATOM     25  C   UNL     1      98.571  81.529  82.935  1.00  0.00     0.010 C 
ENDBRANCH  15  23
ENDBRANCH   3   4
BRANCH   2  26
ATOM     26  C   UNL     1      92.545  84.707  87.551  1.00  0.00     0.078 C 
BRANCH  26  27
ATOM     27  C   UNL     1      92.440  83.267  87.053  1.00  0.00     0.140 C 
ATOM     28  C   UNL     1      93.652  82.413  87.479  1.00  0.00     0.086 CG0
ATOM     29  C   UNL     1      91.281  82.520  87.678  1.00  0.00     0.190 C 
ATOM     30  C   UNL     1      93.025  81.144  87.986  1.00  0.00    -0.010 C 
ATOM     31  G   UNL     1      94.825  82.331  86.459  1.00  0.00     0.000 G0
ATOM     32  O   UNL     1      90.133  82.933  87.757  1.00  0.00    -0.291 OA
ATOM     33  C   UNL     1      91.698  81.182  88.136  1.00  0.00    -0.008 C 
ATOM     34  C   UNL     1      90.773  80.166  88.679  1.00  0.00     0.048 C 
BRANCH  27  35
ATOM     35  O   UNL     1      92.165  83.218  85.664  1.00  0.00    -0.381 OA
ATOM     36  H   UNL     1      91.214  83.052  85.545  1.00  0.00     0.212 HD
ENDBRANCH  27  35
ENDBRANCH  26  27
ENDBRANCH   2  26
ENDBRANCH   1   2
BRANCH   1  37
ATOM     37  O   UNL     1      95.295  87.126  88.208  1.00  0.00    -0.461 OA
BRANCH  37  38
ATOM     38  C   UNL     1      95.532  88.459  88.457  1.00  0.00     0.310 C 
ATOM     39  O   UNL     1      96.424  88.892  89.173  1.00  0.00    -0.252 OA
BRANCH  38  40
ATOM     40  C   UNL     1      94.522  89.298  87.711  1.00  0.00     0.158 C 
BRANCH  40  41
ATOM     41  C   UNL     1      93.780  90.257  88.605  1.00  0.00    -0.037 A 
ATOM     42  C   UNL     1      92.457  89.997  88.961  1.00  0.00     0.008 A 
ATOM     43  C   UNL     1      94.415  91.406  89.076  1.00  0.00     0.008 A 
ATOM     44  C   UNL     1      91.769  90.886  89.788  1.00  0.00     0.046 A 
ATOM     45  C   UNL     1      93.729  92.295  89.903  1.00  0.00     0.046 A 
ATOM     46  C   UNL     1      92.406  92.035  90.259  1.00  0.00     0.115 A 
BRANCH  46  47
ATOM     47  O   UNL     1      91.735  92.902  91.065  1.00  0.00    -0.508 OA
ATOM     48  H   UNL     1      90.781  92.822  90.890  1.00  0.00     0.293 HD
ENDBRANCH  46  47
ENDBRANCH  40  41
ENDBRANCH  38  40
ENDBRANCH  37  38
ENDBRANCH   1  37
TORSDOF 10
ENDMDL
MODEL 8
REMARK VINA RESULT:    -6.762      3.340      7.933
REMARK INTER + INTRA:         -11.674
REMARK INTER:                 -11.496
REMARK INTRA:                  -0.178
REMARK UNBOUND:                -0.169
REMARK SMILES C=C(C)[C@]12C[C@@H](C)[C@@]34O[C@](Cc5ccccc5)(O[C@@H]1[C@@H]3C=C(COC(=O)Cc1ccc(O)cc1)C[C@]1(O)C(=O)C(C)=C[C@@H]41)O2
REMARK SMILES IDX 23 1 22 2 21 3 20 4 9 5 8 6 10 7 6 8 18 10 44 11 19 12 5 13
REMARK SMILES IDX 7 14 4 15 11 16 12 17 13 18 17 19 14 20 16 21 15 22 2 23
REMARK SMILES IDX 3 24 1 25 35 26 36 27 43 28 38 29 42 30 39 32 40 33 41 34
REMARK SMILES IDX 37 35 24 37 25 38 26 39 27 40 28 41 29 42 34 43 30 44 33 45
REMARK SMILES IDX 31 46 32 47
REMARK H PARENT 37 36 32 48
REMARK Flexibility Score: 90.00
ROOT
ATOM      1  C   UNL     1      92.972  94.640  75.326  1.00  0.00     0.264 C 
ENDROOT
BRANCH   1   2
ATOM      2  C   UNL     1      94.412  94.997  75.619  1.00  0.00    -0.033 C 
ATOM      3  C   UNL     1      95.111  95.710  74.712  1.00  0.00    -0.015 C 
BRANCH   3   4
ATOM      4  C   UNL     1      96.573  96.127  74.732  1.00  0.00     0.078 C 
ATOM      5  O   UNL     1      96.678  98.339  75.832  1.00  0.00    -0.319 OA
ATOM      6  C   UNL     1      97.101  96.947  75.966  1.00  0.00     0.095 CG0
ATOM      7  C   UNL     1      96.803  98.896  74.509  1.00  0.00     0.289 C 
ATOM      8  C   UNL     1      98.684  96.877  75.946  1.00  0.00     0.023 C 
ATOM      9  G   UNL     1      96.427  96.461  77.282  1.00  0.00     0.000 G0
ATOM     10  O   UNL     1      96.067  98.135  73.555  1.00  0.00    -0.320 OA
ATOM     11  O   UNL     1      98.151  98.894  74.045  1.00  0.00    -0.313 OA
ATOM     12  C   UNL     1      96.898  96.966  73.472  1.00  0.00     0.170 C 
ATOM     13  C   UNL     1      99.236  96.823  74.488  1.00  0.00     0.049 C 
ATOM     14  C   UNL     1      99.405  97.992  76.723  1.00  0.00     0.011 C 
ATOM     15  C   UNL     1      98.325  97.566  73.510  1.00  0.00     0.122 C 
BRANCH   7  16
ATOM     16  C   UNL     1      96.282 100.319  74.541  1.00  0.00     0.135 C 
BRANCH  16  17
ATOM     17  C   UNL     1      95.173 100.540  73.544  1.00  0.00    -0.040 A 
ATOM     18  C   UNL     1      93.879 100.810  73.987  1.00  0.00     0.004 A 
ATOM     19  C   UNL     1      95.442 100.472  72.177  1.00  0.00     0.004 A 
ATOM     20  C   UNL     1      92.853 101.015  73.064  1.00  0.00     0.000 A 
ATOM     21  C   UNL     1      94.416 100.677  71.254  1.00  0.00     0.000 A 
ATOM     22  C   UNL     1      93.122 100.948  71.697  1.00  0.00     0.000 A 
ENDBRANCH  16  17
ENDBRANCH   7  16
BRANCH  15  23
ATOM     23  C   UNL     1      98.922  97.683  72.146  1.00  0.00    -0.046 C 
ATOM     24  C   UNL     1      97.993  97.437  70.994  1.00  0.00     0.042 C 
ATOM     25  C   UNL     1     100.214  97.990  71.961  1.00  0.00     0.010 C 
ENDBRANCH  15  23
ENDBRANCH   3   4
BRANCH   2  26
ATOM     26  C   UNL     1      94.891  94.483  76.963  1.00  0.00     0.078 C 
BRANCH  26  27
ATOM     27  C   UNL     1      96.272  94.938  77.432  1.00  0.00     0.140 C 
ATOM     28  C   UNL     1      96.460  96.464  77.297  1.00  0.00     0.086 CG0
ATOM     29  C   UNL     1      96.484  94.714  78.915  1.00  0.00     0.190 C 
ATOM     30  C   UNL     1      97.071  96.858  78.613  1.00  0.00    -0.010 C 
ATOM     31  G   UNL     1      97.111  96.960  75.974  1.00  0.00     0.000 G0
ATOM     32  O   UNL     1      96.251  93.675  79.514  1.00  0.00    -0.291 OA
ATOM     33  C   UNL     1      97.073  95.907  79.552  1.00  0.00    -0.008 C 
ATOM     34  C   UNL     1      97.510  95.963  80.962  1.00  0.00     0.048 C 
BRANCH  27  35
ATOM     35  O   UNL     1      97.303  94.178  76.825  1.00  0.00    -0.381 OA
ATOM     36  H   UNL     1      97.306  93.291  77.223  1.00  0.00     0.212 HD
ENDBRANCH  27  35
ENDBRANCH  26  27
ENDBRANCH   2  26
ENDBRANCH   1   2
BRANCH   1  37
ATOM     37  O   UNL     1      92.223  94.708  76.521  1.00  0.00    -0.461 OA
BRANCH  37  38
ATOM     38  C   UNL     1      91.120  93.889  76.593  1.00  0.00     0.310 C 
ATOM     39  O   UNL     1      90.018  94.153  76.132  1.00  0.00    -0.252 OA
BRANCH  38  40
ATOM     40  C   UNL     1      91.481  92.620  77.327  1.00  0.00     0.158 C 
BRANCH  40  41
ATOM     41  C   UNL     1      91.011  91.377  76.618  1.00  0.00    -0.037 A 
ATOM     42  C   UNL     1      90.053  90.555  77.211  1.00  0.00     0.008 A 
ATOM     43  C   UNL     1      91.534  91.047  75.368  1.00  0.00     0.008 A 
ATOM     44  C   UNL     1      89.619  89.402  76.555  1.00  0.00     0.046 A 
ATOM     45  C   UNL     1      91.100  89.896  74.711  1.00  0.00     0.046 A 
ATOM     46  C   UNL     1      90.143  89.073  75.304  1.00  0.00     0.115 A 
BRANCH  46  47
ATOM     47  O   UNL     1      89.720  87.950  74.664  1.00  0.00    -0.508 OA
ATOM     48  H   UNL     1      90.335  87.749  73.937  1.00  0.00     0.293 HD
ENDBRANCH  46  47
ENDBRANCH  40  41
ENDBRANCH  38  40
ENDBRANCH  37  38
ENDBRANCH   1  37
TORSDOF 10
ENDMDL
MODEL 9
REMARK VINA RESULT:    -6.559     18.306     21.568
REMARK INTER + INTRA:         -11.328
REMARK INTER:                  -9.659
REMARK INTRA:                  -1.669
REMARK UNBOUND:                -0.169
REMARK SMILES C=C(C)[C@]12C[C@@H](C)[C@@]34O[C@](Cc5ccccc5)(O[C@@H]1[C@@H]3C=C(COC(=O)Cc1ccc(O)cc1)C[C@]1(O)C(=O)C(C)=C[C@@H]41)O2
REMARK SMILES IDX 23 1 22 2 21 3 20 4 9 5 8 6 10 7 6 8 18 10 44 11 19 12 5 13
REMARK SMILES IDX 7 14 4 15 11 16 12 17 13 18 17 19 14 20 16 21 15 22 2 23
REMARK SMILES IDX 3 24 1 25 35 26 36 27 43 28 38 29 42 30 39 32 40 33 41 34
REMARK SMILES IDX 37 35 24 37 25 38 26 39 27 40 28 41 29 42 34 43 30 44 33 45
REMARK SMILES IDX 31 46 32 47
REMARK H PARENT 37 36 32 48
REMARK Flexibility Score: 90.00
ROOT
ATOM      1  C   UNL     1      94.972  86.831  86.366  1.00  0.00     0.264 C 
ENDROOT
BRANCH   1   2
ATOM      2  C   UNL     1      94.718  85.376  86.043  1.00  0.00    -0.033 C 
ATOM      3  C   UNL     1      95.711  84.638  85.506  1.00  0.00    -0.015 C 
BRANCH   3   4
ATOM      4  C   UNL     1      95.690  83.195  85.027  1.00  0.00     0.078 C 
ATOM      5  O   UNL     1      96.435  81.795  86.924  1.00  0.00    -0.319 OA
ATOM      6  C   UNL     1      95.294  82.071  86.054  1.00  0.00     0.095 CG0
ATOM      7  C   UNL     1      97.712  81.726  86.261  1.00  0.00     0.289 C 
ATOM      8  C   UNL     1      94.939  80.768  85.225  1.00  0.00     0.023 C 
ATOM      9  G   UNL     1      94.181  82.572  87.020  1.00  0.00     0.000 G0
ATOM     10  O   UNL     1      97.997  82.933  85.560  1.00  0.00    -0.320 OA
ATOM     11  O   UNL     1      97.760  80.691  85.282  1.00  0.00    -0.313 OA
ATOM     12  C   UNL     1      97.079  82.808  84.462  1.00  0.00     0.170 C 
ATOM     13  C   UNL     1      95.802  80.661  83.930  1.00  0.00     0.049 C 
ATOM     14  C   UNL     1      95.025  79.445  86.005  1.00  0.00     0.011 C 
ATOM     15  C   UNL     1      97.178  81.303  84.112  1.00  0.00     0.122 C 
BRANCH   7  16
ATOM     16  C   UNL     1      98.779  81.478  87.310  1.00  0.00     0.135 C 
BRANCH  16  17
ATOM     17  C   UNL     1     100.014  80.844  86.722  1.00  0.00    -0.040 A 
ATOM     18  C   UNL     1     101.046  81.646  86.234  1.00  0.00     0.004 A 
ATOM     19  C   UNL     1     100.124  79.455  86.666  1.00  0.00     0.004 A 
ATOM     20  C   UNL     1     102.189  81.059  85.691  1.00  0.00     0.000 A 
ATOM     21  C   UNL     1     101.268  78.868  86.123  1.00  0.00     0.000 A 
ATOM     22  C   UNL     1     102.299  79.669  85.636  1.00  0.00     0.000 A 
ENDBRANCH  16  17
ENDBRANCH   7  16
BRANCH  15  23
ATOM     23  C   UNL     1      98.085  81.054  82.951  1.00  0.00    -0.046 C 
ATOM     24  C   UNL     1      97.420  80.677  81.661  1.00  0.00     0.042 C 
ATOM     25  C   UNL     1      99.418  81.162  83.057  1.00  0.00     0.010 C 
ENDBRANCH  15  23
ENDBRANCH   3   4
BRANCH   2  26
ATOM     26  C   UNL     1      93.313  84.925  86.392  1.00  0.00     0.078 C 
BRANCH  26  27
ATOM     27  C   UNL     1      93.035  83.423  86.367  1.00  0.00     0.140 C 
ATOM     28  C   UNL     1      94.177  82.608  87.010  1.00  0.00     0.086 CG0
ATOM     29  C   UNL     1      91.843  83.039  87.217  1.00  0.00     0.190 C 
ATOM     30  C   UNL     1      93.454  81.634  87.898  1.00  0.00    -0.010 C 
ATOM     31  G   UNL     1      95.277  82.086  86.040  1.00  0.00     0.000 G0
ATOM     32  O   UNL     1      90.749  83.583  87.190  1.00  0.00    -0.291 OA
ATOM     33  C   UNL     1      92.147  81.866  88.058  1.00  0.00    -0.008 C 
ATOM     34  C   UNL     1      91.156  81.176  88.909  1.00  0.00     0.048 C 
BRANCH  27  35
ATOM     35  O   UNL     1      92.680  82.983  85.067  1.00  0.00    -0.381 OA
ATOM     36  H   UNL     1      92.964  83.658  84.427  1.00  0.00     0.212 HD
ENDBRANCH  27  35
ENDBRANCH  26  27
ENDBRANCH   2  26
ENDBRANCH   1   2
BRANCH   1  37
ATOM     37  O   UNL     1      95.314  86.953  87.730  1.00  0.00    -0.461 OA
BRANCH  37  38
ATOM     38  C   UNL     1      94.839  88.071  88.377  1.00  0.00     0.310 C 
ATOM     39  O   UNL     1      94.516  89.115  87.830  1.00  0.00    -0.252 OA
BRANCH  38  40
ATOM     40  C   UNL     1      94.780  87.805  89.862  1.00  0.00     0.158 C 
BRANCH  40  41
ATOM     41  C   UNL     1      93.918  86.621  90.214  1.00  0.00    -0.037 A 
ATOM     42  C   UNL     1      94.446  85.572  90.966  1.00  0.00     0.008 A 
ATOM     43  C   UNL     1      92.591  86.572  89.787  1.00  0.00     0.008 A 
ATOM     44  C   UNL     1      93.648  84.474  91.291  1.00  0.00     0.046 A 
ATOM     45  C   UNL     1      91.792  85.476  90.112  1.00  0.00     0.046 A 
ATOM     46  C   UNL     1      92.321  84.427  90.864  1.00  0.00     0.115 A 
BRANCH  46  47
ATOM     47  O   UNL     1      91.542  83.356  91.180  1.00  0.00    -0.508 OA
ATOM     48  H   UNL     1      90.784  83.327  90.572  1.00  0.00     0.293 HD
ENDBRANCH  46  47
ENDBRANCH  40  41
ENDBRANCH  38  40
ENDBRANCH  37  38
ENDBRANCH   1  37
TORSDOF 10
ENDMDL
MODEL 10
REMARK VINA RESULT:    -6.383      2.508      3.813
REMARK INTER + INTRA:         -11.030
REMARK INTER:                 -10.921
REMARK INTRA:                  -0.108
REMARK UNBOUND:                -0.169
REMARK SMILES C=C(C)[C@]12C[C@@H](C)[C@@]34O[C@](Cc5ccccc5)(O[C@@H]1[C@@H]3C=C(COC(=O)Cc1ccc(O)cc1)C[C@]1(O)C(=O)C(C)=C[C@@H]41)O2
REMARK SMILES IDX 23 1 22 2 21 3 20 4 9 5 8 6 10 7 6 8 18 10 44 11 19 12 5 13
REMARK SMILES IDX 7 14 4 15 11 16 12 17 13 18 17 19 14 20 16 21 15 22 2 23
REMARK SMILES IDX 3 24 1 25 35 26 36 27 43 28 38 29 42 30 39 32 40 33 41 34
REMARK SMILES IDX 37 35 24 37 25 38 26 39 27 40 28 41 29 42 34 43 30 44 33 45
REMARK SMILES IDX 31 46 32 47
REMARK H PARENT 37 36 32 48
REMARK Flexibility Score: 90.00
ROOT
ATOM      1  C   UNL     1      92.937  99.667  72.288  1.00  0.00     0.264 C 
ENDROOT
BRANCH   1   2
ATOM      2  C   UNL     1      94.415  99.379  72.410  1.00  0.00    -0.033 C 
ATOM      3  C   UNL     1      94.899  98.895  73.573  1.00  0.00    -0.015 C 
BRANCH   3   4
ATOM      4  C   UNL     1      96.335  98.599  73.972  1.00  0.00     0.078 C 
ATOM      5  O   UNL     1      96.752  96.218  73.449  1.00  0.00    -0.319 OA
ATOM      6  C   UNL     1      97.158  97.578  73.103  1.00  0.00     0.095 CG0
ATOM      7  C   UNL     1      96.580  95.967  74.857  1.00  0.00     0.289 C 
ATOM      8  C   UNL     1      98.690  97.773  73.457  1.00  0.00     0.023 C 
ATOM      9  G   UNL     1      96.798  97.719  71.595  1.00  0.00     0.000 G0
ATOM     10  O   UNL     1      95.622  96.853  75.428  1.00  0.00    -0.320 OA
ATOM     11  O   UNL     1      97.782  96.171  75.596  1.00  0.00    -0.313 OA
ATOM     12  C   UNL     1      96.379  98.074  75.429  1.00  0.00     0.170 C 
ATOM     13  C   UNL     1      98.885  98.178  74.950  1.00  0.00     0.049 C 
ATOM     14  C   UNL     1      99.602  96.578  73.130  1.00  0.00     0.011 C 
ATOM     15  C   UNL     1      97.791  97.592  75.843  1.00  0.00     0.122 C 
BRANCH   7  16
ATOM     16  C   UNL     1      96.119  94.533  75.031  1.00  0.00     0.135 C 
BRANCH  16  17
ATOM     17  C   UNL     1      94.745  94.450  75.649  1.00  0.00    -0.040 A 
ATOM     18  C   UNL     1      94.607  94.159  77.005  1.00  0.00     0.004 A 
ATOM     19  C   UNL     1      93.614  94.665  74.862  1.00  0.00     0.004 A 
ATOM     20  C   UNL     1      93.336  94.083  77.577  1.00  0.00     0.000 A 
ATOM     21  C   UNL     1      92.343  94.589  75.434  1.00  0.00     0.000 A 
ATOM     22  C   UNL     1      92.205  94.298  76.790  1.00  0.00     0.000 A 
ENDBRANCH  16  17
ENDBRANCH   7  16
BRANCH  15  23
ATOM     23  C   UNL     1      98.056  97.814  77.297  1.00  0.00    -0.046 C 
ATOM     24  C   UNL     1      97.061  97.220  78.249  1.00  0.00     0.042 C 
ATOM     25  C   UNL     1      99.122  98.506  77.726  1.00  0.00     0.010 C 
ENDBRANCH  15  23
ENDBRANCH   3   4
BRANCH   2  26
ATOM     26  C   UNL     1      95.188  99.682  71.140  1.00  0.00     0.078 C 
BRANCH  26  27
ATOM     27  C   UNL     1      96.629  99.181  71.064  1.00  0.00     0.140 C 
ATOM     28  C   UNL     1      96.775  97.738  71.592  1.00  0.00     0.086 CG0
ATOM     29  C   UNL     1      97.126  99.057  69.639  1.00  0.00     0.190 C 
ATOM     30  C   UNL     1      97.625  97.068  70.548  1.00  0.00    -0.010 C 
ATOM     31  G   UNL     1      97.153  97.593  73.094  1.00  0.00     0.000 G0
ATOM     32  O   UNL     1      97.023  99.917  68.776  1.00  0.00    -0.291 OA
ATOM     33  C   UNL     1      97.817  97.771  69.428  1.00  0.00    -0.008 C 
ATOM     34  C   UNL     1      98.517  97.401  68.181  1.00  0.00     0.048 C 
BRANCH  27  35
ATOM     35  O   UNL     1      97.530 100.101  71.657  1.00  0.00    -0.381 OA
ATOM     36  H   UNL     1      97.017 100.846  72.014  1.00  0.00     0.212 HD
ENDBRANCH  27  35
ENDBRANCH  26  27
ENDBRANCH   2  26
ENDBRANCH   1   2
BRANCH   1  37
ATOM     37  O   UNL     1      92.701 100.402  71.106  1.00  0.00    -0.461 OA
BRANCH  37  38
ATOM     38  C   UNL     1      92.034 101.596  71.256  1.00  0.00     0.310 C 
ATOM     39  O   UNL     1      91.083 101.960  70.578  1.00  0.00    -0.252 OA
BRANCH  38  40
ATOM     40  C   UNL     1      92.657 102.383  72.385  1.00  0.00     0.158 C 
BRANCH  40  41
ATOM     41  C   UNL     1      91.761 102.489  73.591  1.00  0.00    -0.037 A 
ATOM     42  C   UNL     1      90.394 102.713  73.428  1.00  0.00     0.008 A 
ATOM     43  C   UNL     1      92.297 102.365  74.872  1.00  0.00     0.008 A 
ATOM     44  C   UNL     1      89.564 102.813  74.545  1.00  0.00     0.046 A 
ATOM     45  C   UNL     1      91.468 102.464  75.990  1.00  0.00     0.046 A 
ATOM     46  C   UNL     1      90.102 102.688  75.826  1.00  0.00     0.115 A 
BRANCH  46  47
ATOM     47  O   UNL     1      89.292 102.786  76.916  1.00  0.00    -0.508 OA
ATOM     48  H   UNL     1      88.966 103.700  76.986  1.00  0.00     0.293 HD
ENDBRANCH  46  47
ENDBRANCH  40  41
ENDBRANCH  38  40
ENDBRANCH  37  38
ENDBRANCH   1  37
TORSDOF 10
ENDMDL
