MODEL 1
REMARK VINA RESULT:    -6.684      0.000      0.000
REMARK INTER + INTRA:         -11.162
REMARK INTER:                 -10.397
REMARK INTRA:                  -0.765
REMARK UNBOUND:                -0.765
REMARK SMILES COc1cc(CNC(=O)CCCC/C=C/C(C)C)ccc1O
REMARK SMILES IDX 10 1 8 2 7 3 9 5 6 6 5 7 3 8 21 9 4 10 20 11 19 12 2 13 1 14
REMARK SMILES IDX 22 15 11 17 12 18 13 19 14 20 15 21 16 22 17 23 18 24
REMARK H PARENT 7 4 22 16
REMARK Flexibility Score: inf
ROOT
ATOM      1  C   UNL     1      93.894  93.625  75.193  1.00  0.00     0.100 C 
ENDROOT
BRANCH   1   2
ATOM      2  C   UNL     1      92.473  93.465  75.556  1.00  0.00     0.220 C 
ATOM      3  N   UNL     1      92.120  93.086  76.816  1.00  0.00    -0.352 N 
ATOM      4  H   UNL     1      92.894  92.910  77.441  1.00  0.00     0.163 HD
ATOM      5  O   UNL     1      91.607  93.709  74.681  1.00  0.00    -0.275 OA
BRANCH   3   6
ATOM      6  C   UNL     1      90.776  92.933  77.276  1.00  0.00     0.151 C 
BRANCH   6   7
ATOM      7  C   UNL     1      90.441  91.504  77.519  1.00  0.00    -0.025 A 
ATOM      8  C   UNL     1      90.002  89.243  76.650  1.00  0.00     0.160 A 
ATOM      9  C   UNL     1      89.821  88.771  77.967  1.00  0.00     0.157 A 
ATOM     10  C   UNL     1      90.307  90.603  76.439  1.00  0.00     0.056 A 
ATOM     11  C   UNL     1      89.932  89.661  79.053  1.00  0.00     0.050 A 
ATOM     12  C   UNL     1      90.249  91.016  78.833  1.00  0.00     0.009 A 
BRANCH   8  13
ATOM     13  O   UNL     1      89.830  88.394  75.586  1.00  0.00    -0.493 OA
ATOM     14  C   UNL     1      91.058  87.860  75.057  1.00  0.00     0.278 C 
ENDBRANCH   8  13
BRANCH   9  15
ATOM     15  O   UNL     1      89.539  87.464  78.206  1.00  0.00    -0.504 OA
ATOM     16  H   UNL     1      89.399  87.009  77.372  1.00  0.00     0.293 HD
ENDBRANCH   9  15
ENDBRANCH   6   7
ENDBRANCH   3   6
ENDBRANCH   1   2
BRANCH   1  17
ATOM     17  C   UNL     1      94.463  94.980  75.694  1.00  0.00     0.010 C 
BRANCH  17  18
ATOM     18  C   UNL     1      95.985  95.137  75.416  1.00  0.00     0.005 C 
BRANCH  18  19
ATOM     19  C   UNL     1      96.840  94.979  76.702  1.00  0.00     0.027 C 
BRANCH  19  20
ATOM     20  C   UNL     1      96.019  94.943  77.903  1.00  0.00    -0.031 C 
ATOM     21  C   UNL     1      96.442  95.331  79.120  1.00  0.00    -0.028 C 
BRANCH  21  22
ATOM     22  C   UNL     1      95.593  95.305  80.311  1.00  0.00     0.005 C 
ATOM     23  C   UNL     1      95.685  93.952  81.071  1.00  0.00     0.012 C 
ATOM     24  C   UNL     1      95.946  96.490  81.247  1.00  0.00     0.012 C 
ENDBRANCH  21  22
ENDBRANCH  19  20
ENDBRANCH  18  19
ENDBRANCH  17  18
ENDBRANCH   1  17
TORSDOF 10
ENDMDL
MODEL 2
REMARK VINA RESULT:    -6.389      1.174      2.133
REMARK INTER + INTRA:         -10.703
REMARK INTER:                  -9.882
REMARK INTRA:                  -0.821
REMARK UNBOUND:                -0.765
REMARK SMILES COc1cc(CNC(=O)CCCC/C=C/C(C)C)ccc1O
REMARK SMILES IDX 10 1 8 2 7 3 9 5 6 6 5 7 3 8 21 9 4 10 20 11 19 12 2 13 1 14
REMARK SMILES IDX 22 15 11 17 12 18 13 19 14 20 15 21 16 22 17 23 18 24
REMARK H PARENT 7 4 22 16
REMARK Flexibility Score: inf
ROOT
ATOM      1  C   UNL     1      93.785  93.563  75.314  1.00  0.00     0.100 C 
ENDROOT
BRANCH   1   2
ATOM      2  C   UNL     1      92.339  93.307  75.166  1.00  0.00     0.220 C 
ATOM      3  N   UNL     1      91.580  92.983  76.250  1.00  0.00    -0.352 N 
ATOM      4  H   UNL     1      92.088  92.914  77.121  1.00  0.00     0.163 HD
ATOM      5  O   UNL     1      91.832  93.420  74.024  1.00  0.00    -0.275 OA
BRANCH   3   6
ATOM      6  C   UNL     1      90.172  92.748  76.218  1.00  0.00     0.151 C 
BRANCH   6   7
ATOM      7  C   UNL     1      89.860  91.344  75.835  1.00  0.00    -0.025 A 
ATOM      8  C   UNL     1      90.052  88.928  76.267  1.00  0.00     0.160 A 
ATOM      9  C   UNL     1      89.259  88.661  75.131  1.00  0.00     0.157 A 
ATOM     10  C   UNL     1      90.346  90.265  76.607  1.00  0.00     0.056 A 
ATOM     11  C   UNL     1      88.783  89.727  74.341  1.00  0.00     0.050 A 
ATOM     12  C   UNL     1      89.073  91.059  74.695  1.00  0.00     0.009 A 
BRANCH   8  13
ATOM     13  O   UNL     1      90.571  87.892  77.001  1.00  0.00    -0.493 OA
ATOM     14  C   UNL     1      89.912  87.678  78.263  1.00  0.00     0.278 C 
ENDBRANCH   8  13
BRANCH   9  15
ATOM     15  O   UNL     1      88.946  87.386  74.784  1.00  0.00    -0.504 OA
ATOM     16  H   UNL     1      88.034  87.204  75.023  1.00  0.00     0.293 HD
ENDBRANCH   9  15
ENDBRANCH   6   7
ENDBRANCH   3   6
ENDBRANCH   1   2
BRANCH   1  17
ATOM     17  C   UNL     1      94.057  94.849  76.140  1.00  0.00     0.010 C 
BRANCH  17  18
ATOM     18  C   UNL     1      95.234  95.693  75.574  1.00  0.00     0.005 C 
BRANCH  18  19
ATOM     19  C   UNL     1      96.407  95.822  76.582  1.00  0.00     0.027 C 
BRANCH  19  20
ATOM     20  C   UNL     1      96.067  95.283  77.890  1.00  0.00    -0.031 C 
ATOM     21  C   UNL     1      96.754  95.542  79.017  1.00  0.00    -0.028 C 
BRANCH  21  22
ATOM     22  C   UNL     1      96.382  95.005  80.326  1.00  0.00     0.005 C 
ATOM     23  C   UNL     1      95.601  96.036  81.186  1.00  0.00     0.012 C 
ATOM     24  C   UNL     1      95.567  93.696  80.155  1.00  0.00     0.012 C 
ENDBRANCH  21  22
ENDBRANCH  19  20
ENDBRANCH  18  19
ENDBRANCH  17  18
ENDBRANCH   1  17
TORSDOF 10
ENDMDL
MODEL 3
REMARK VINA RESULT:    -6.224      2.317      3.885
REMARK INTER + INTRA:         -10.446
REMARK INTER:                  -9.707
REMARK INTRA:                  -0.739
REMARK UNBOUND:                -0.765
REMARK SMILES COc1cc(CNC(=O)CCCC/C=C/C(C)C)ccc1O
REMARK SMILES IDX 10 1 8 2 7 3 9 5 6 6 5 7 3 8 21 9 4 10 20 11 19 12 2 13 1 14
REMARK SMILES IDX 22 15 11 17 12 18 13 19 14 20 15 21 16 22 17 23 18 24
REMARK H PARENT 7 4 22 16
REMARK Flexibility Score: inf
ROOT
ATOM      1  C   UNL     1      93.757  93.687  75.308  1.00  0.00     0.100 C 
ENDROOT
BRANCH   1   2
ATOM      2  C   UNL     1      92.329  93.418  75.562  1.00  0.00     0.220 C 
ATOM      3  N   UNL     1      91.883  93.195  76.830  1.00  0.00    -0.352 N 
ATOM      4  H   UNL     1      92.599  93.207  77.543  1.00  0.00     0.163 HD
ATOM      5  O   UNL     1      91.542  93.424  74.585  1.00  0.00    -0.275 OA
BRANCH   3   6
ATOM      6  C   UNL     1      90.520  92.957  77.185  1.00  0.00     0.151 C 
BRANCH   6   7
ATOM      7  C   UNL     1      90.265  91.512  77.438  1.00  0.00    -0.025 A 
ATOM      8  C   UNL     1      89.828  89.246  76.582  1.00  0.00     0.160 A 
ATOM      9  C   UNL     1      89.798  88.752  77.903  1.00  0.00     0.157 A 
ATOM     10  C   UNL     1      90.058  90.620  76.362  1.00  0.00     0.056 A 
ATOM     11  C   UNL     1      89.983  89.633  78.986  1.00  0.00     0.050 A 
ATOM     12  C   UNL     1      90.224  91.002  78.757  1.00  0.00     0.009 A 
BRANCH   8  13
ATOM     13  O   UNL     1      89.583  88.404  75.527  1.00  0.00    -0.493 OA
ATOM     14  C   UNL     1      89.125  89.072  74.337  1.00  0.00     0.278 C 
ENDBRANCH   8  13
BRANCH   9  15
ATOM     15  O   UNL     1      89.591  87.432  78.148  1.00  0.00    -0.504 OA
ATOM     16  H   UNL     1      90.267  87.108  78.747  1.00  0.00     0.293 HD
ENDBRANCH   9  15
ENDBRANCH   6   7
ENDBRANCH   3   6
ENDBRANCH   1   2
BRANCH   1  17
ATOM     17  C   UNL     1      94.061  95.210  75.307  1.00  0.00     0.010 C 
BRANCH  17  18
ATOM     18  C   UNL     1      95.514  95.537  75.753  1.00  0.00     0.005 C 
BRANCH  18  19
ATOM     19  C   UNL     1      96.071  96.811  75.062  1.00  0.00     0.027 C 
BRANCH  19  20
ATOM     20  C   UNL     1      95.081  97.448  74.207  1.00  0.00    -0.031 C 
ATOM     21  C   UNL     1      95.128  98.738  73.827  1.00  0.00    -0.028 C 
BRANCH  21  22
ATOM     22  C   UNL     1      94.131  99.352  72.950  1.00  0.00     0.005 C 
ATOM     23  C   UNL     1      93.484  98.323  71.982  1.00  0.00     0.012 C 
ATOM     24  C   UNL     1      93.049 100.075  73.793  1.00  0.00     0.012 C 
ENDBRANCH  21  22
ENDBRANCH  19  20
ENDBRANCH  18  19
ENDBRANCH  17  18
ENDBRANCH   1  17
TORSDOF 10
ENDMDL
MODEL 4
REMARK VINA RESULT:    -6.177      2.386      3.422
REMARK INTER + INTRA:         -10.373
REMARK INTER:                  -9.693
REMARK INTRA:                  -0.680
REMARK UNBOUND:                -0.765
REMARK SMILES COc1cc(CNC(=O)CCCC/C=C/C(C)C)ccc1O
REMARK SMILES IDX 10 1 8 2 7 3 9 5 6 6 5 7 3 8 21 9 4 10 20 11 19 12 2 13 1 14
REMARK SMILES IDX 22 15 11 17 12 18 13 19 14 20 15 21 16 22 17 23 18 24
REMARK H PARENT 7 4 22 16
REMARK Flexibility Score: inf
ROOT
ATOM      1  C   UNL     1      94.553  93.946  75.818  1.00  0.00     0.100 C 
ENDROOT
BRANCH   1   2
ATOM      2  C   UNL     1      93.125  93.768  76.145  1.00  0.00     0.220 C 
ATOM      3  N   UNL     1      92.163  94.093  75.237  1.00  0.00    -0.352 N 
ATOM      4  H   UNL     1      92.508  94.475  74.368  1.00  0.00     0.163 HD
ATOM      5  O   UNL     1      92.830  93.288  77.266  1.00  0.00    -0.275 OA
BRANCH   3   6
ATOM      6  C   UNL     1      90.759  93.929  75.443  1.00  0.00     0.151 C 
BRANCH   6   7
ATOM      7  C   UNL     1      90.162  93.016  74.431  1.00  0.00    -0.025 A 
ATOM      8  C   UNL     1      89.249  90.809  73.830  1.00  0.00     0.160 A 
ATOM      9  C   UNL     1      89.004  91.267  72.519  1.00  0.00     0.157 A 
ATOM     10  C   UNL     1      89.827  91.686  74.772  1.00  0.00     0.056 A 
ATOM     11  C   UNL     1      89.350  92.584  72.158  1.00  0.00     0.050 A 
ATOM     12  C   UNL     1      89.916  93.456  73.109  1.00  0.00     0.009 A 
BRANCH   8  13
ATOM     13  O   UNL     1      88.974  89.508  74.167  1.00  0.00    -0.493 OA
ATOM     14  C   UNL     1      90.139  88.669  74.264  1.00  0.00     0.278 C 
ENDBRANCH   8  13
BRANCH   9  15
ATOM     15  O   UNL     1      88.437  90.453  71.591  1.00  0.00    -0.504 OA
ATOM     16  H   UNL     1      88.888  89.606  71.590  1.00  0.00     0.293 HD
ENDBRANCH   9  15
ENDBRANCH   6   7
ENDBRANCH   3   6
ENDBRANCH   1   2
BRANCH   1  17
ATOM     17  C   UNL     1      94.851  95.386  75.321  1.00  0.00     0.010 C 
BRANCH  17  18
ATOM     18  C   UNL     1      96.360  95.628  75.033  1.00  0.00     0.005 C 
BRANCH  18  19
ATOM     19  C   UNL     1      97.088  96.302  76.227  1.00  0.00     0.027 C 
BRANCH  19  20
ATOM     20  C   UNL     1      96.481  95.956  77.504  1.00  0.00    -0.031 C 
ATOM     21  C   UNL     1      97.176  95.711  78.630  1.00  0.00    -0.028 C 
BRANCH  21  22
ATOM     22  C   UNL     1      96.544  95.385  79.908  1.00  0.00     0.005 C 
ATOM     23  C   UNL     1      96.303  96.645  80.785  1.00  0.00     0.012 C 
ATOM     24  C   UNL     1      95.219  94.615  79.669  1.00  0.00     0.012 C 
ENDBRANCH  21  22
ENDBRANCH  19  20
ENDBRANCH  18  19
ENDBRANCH  17  18
ENDBRANCH   1  17
TORSDOF 10
ENDMDL
MODEL 5
REMARK VINA RESULT:    -6.125      1.676      2.708
REMARK INTER + INTRA:         -10.292
REMARK INTER:                  -9.649
REMARK INTRA:                  -0.643
REMARK UNBOUND:                -0.765
REMARK SMILES COc1cc(CNC(=O)CCCC/C=C/C(C)C)ccc1O
REMARK SMILES IDX 10 1 8 2 7 3 9 5 6 6 5 7 3 8 21 9 4 10 20 11 19 12 2 13 1 14
REMARK SMILES IDX 22 15 11 17 12 18 13 19 14 20 15 21 16 22 17 23 18 24
REMARK H PARENT 7 4 22 16
REMARK Flexibility Score: inf
ROOT
ATOM      1  C   UNL     1      94.539  93.796  76.633  1.00  0.00     0.100 C 
ENDROOT
BRANCH   1   2
ATOM      2  C   UNL     1      93.066  93.761  76.551  1.00  0.00     0.220 C 
ATOM      3  N   UNL     1      92.346  92.972  77.397  1.00  0.00    -0.352 N 
ATOM      4  H   UNL     1      92.897  92.420  78.039  1.00  0.00     0.163 HD
ATOM      5  O   UNL     1      92.503  94.492  75.702  1.00  0.00    -0.275 OA
BRANCH   3   6
ATOM      6  C   UNL     1      90.920  92.891  77.420  1.00  0.00     0.151 C 
BRANCH   6   7
ATOM      7  C   UNL     1      90.435  91.621  76.813  1.00  0.00    -0.025 A 
ATOM      8  C   UNL     1      89.656  90.365  74.844  1.00  0.00     0.160 A 
ATOM      9  C   UNL     1      89.526  89.204  75.635  1.00  0.00     0.157 A 
ATOM     10  C   UNL     1      90.106  91.561  75.440  1.00  0.00     0.056 A 
ATOM     11  C   UNL     1      89.831  89.254  77.010  1.00  0.00     0.050 A 
ATOM     12  C   UNL     1      90.291  90.450  77.594  1.00  0.00     0.009 A 
BRANCH   8  13
ATOM     13  O   UNL     1      89.298  90.338  73.520  1.00  0.00    -0.493 OA
ATOM     14  C   UNL     1      87.948  90.770  73.269  1.00  0.00     0.278 C 
ENDBRANCH   8  13
BRANCH   9  15
ATOM     15  O   UNL     1      89.108  88.033  75.090  1.00  0.00    -0.504 OA
ATOM     16  H   UNL     1      88.619  87.531  75.746  1.00  0.00     0.293 HD
ENDBRANCH   9  15
ENDBRANCH   6   7
ENDBRANCH   3   6
ENDBRANCH   1   2
BRANCH   1  17
ATOM     17  C   UNL     1      95.028  94.765  77.743  1.00  0.00     0.010 C 
BRANCH  17  18
ATOM     18  C   UNL     1      95.676  94.026  78.948  1.00  0.00     0.005 C 
BRANCH  18  19
ATOM     19  C   UNL     1      95.298  94.672  80.309  1.00  0.00     0.027 C 
BRANCH  19  20
ATOM     20  C   UNL     1      96.249  95.697  80.711  1.00  0.00    -0.031 C 
ATOM     21  C   UNL     1      95.905  96.863  81.287  1.00  0.00    -0.028 C 
BRANCH  21  22
ATOM     22  C   UNL     1      96.880  97.872  81.702  1.00  0.00     0.005 C 
ATOM     23  C   UNL     1      96.211  99.233  82.042  1.00  0.00     0.012 C 
ATOM     24  C   UNL     1      97.714  97.350  82.901  1.00  0.00     0.012 C 
ENDBRANCH  21  22
ENDBRANCH  19  20
ENDBRANCH  18  19
ENDBRANCH  17  18
ENDBRANCH   1  17
TORSDOF 10
ENDMDL
MODEL 6
REMARK VINA RESULT:    -5.963     22.659     27.099
REMARK INTER + INTRA:         -10.040
REMARK INTER:                  -9.323
REMARK INTRA:                  -0.717
REMARK UNBOUND:                -0.765
REMARK SMILES COc1cc(CNC(=O)CCCC/C=C/C(C)C)ccc1O
REMARK SMILES IDX 10 1 8 2 7 3 9 5 6 6 5 7 3 8 21 9 4 10 20 11 19 12 2 13 1 14
REMARK SMILES IDX 22 15 11 17 12 18 13 19 14 20 15 21 16 22 17 23 18 24
REMARK H PARENT 7 4 22 16
REMARK Flexibility Score: inf
ROOT
ATOM      1  C   UNL     1      83.235  68.931  71.633  1.00  0.00     0.100 C 
ENDROOT
BRANCH   1   2
ATOM      2  C   UNL     1      84.675  68.695  71.414  1.00  0.00     0.220 C 
ATOM      3  N   UNL     1      85.561  69.730  71.464  1.00  0.00    -0.352 N 
ATOM      4  H   UNL     1      85.148  70.637  71.633  1.00  0.00     0.163 HD
ATOM      5  O   UNL     1      85.058  67.518  71.207  1.00  0.00    -0.275 OA
BRANCH   3   6
ATOM      6  C   UNL     1      86.973  69.603  71.299  1.00  0.00     0.151 C 
BRANCH   6   7
ATOM      7  C   UNL     1      87.480  70.494  70.220  1.00  0.00    -0.025 A 
ATOM      8  C   UNL     1      87.215  71.494  67.985  1.00  0.00     0.160 A 
ATOM      9  C   UNL     1      88.420  72.205  68.160  1.00  0.00     0.157 A 
ATOM     10  C   UNL     1      86.758  70.645  69.014  1.00  0.00     0.056 A 
ATOM     11  C   UNL     1      89.161  72.050  69.348  1.00  0.00     0.050 A 
ATOM     12  C   UNL     1      88.690  71.209  70.375  1.00  0.00     0.009 A 
BRANCH   8  13
ATOM     13  O   UNL     1      86.524  71.591  66.804  1.00  0.00    -0.493 OA
ATOM     14  C   UNL     1      86.780  70.513  65.885  1.00  0.00     0.278 C 
ENDBRANCH   8  13
BRANCH   9  15
ATOM     15  O   UNL     1      88.882  73.041  67.194  1.00  0.00    -0.504 OA
ATOM     16  H   UNL     1      89.369  73.762  67.600  1.00  0.00     0.293 HD
ENDBRANCH   9  15
ENDBRANCH   6   7
ENDBRANCH   3   6
ENDBRANCH   1   2
BRANCH   1  17
ATOM     17  C   UNL     1      82.363  67.925  70.834  1.00  0.00     0.010 C 
BRANCH  17  18
ATOM     18  C   UNL     1      80.931  67.768  71.420  1.00  0.00     0.005 C 
BRANCH  18  19
ATOM     19  C   UNL     1      80.311  66.381  71.100  1.00  0.00     0.027 C 
BRANCH  19  20
ATOM     20  C   UNL     1      80.199  65.545  72.286  1.00  0.00    -0.031 C 
ATOM     21  C   UNL     1      81.245  64.966  72.905  1.00  0.00    -0.028 C 
BRANCH  21  22
ATOM     22  C   UNL     1      81.111  64.146  74.108  1.00  0.00     0.005 C 
ATOM     23  C   UNL     1      81.258  64.981  75.410  1.00  0.00     0.012 C 
ATOM     24  C   UNL     1      79.761  63.383  74.090  1.00  0.00     0.012 C 
ENDBRANCH  21  22
ENDBRANCH  19  20
ENDBRANCH  18  19
ENDBRANCH  17  18
ENDBRANCH   1  17
TORSDOF 10
ENDMDL
MODEL 7
REMARK VINA RESULT:    -5.714     13.317     14.840
REMARK INTER + INTRA:          -9.653
REMARK INTER:                  -8.949
REMARK INTRA:                  -0.704
REMARK UNBOUND:                -0.765
REMARK SMILES COc1cc(CNC(=O)CCCC/C=C/C(C)C)ccc1O
REMARK SMILES IDX 10 1 8 2 7 3 9 5 6 6 5 7 3 8 21 9 4 10 20 11 19 12 2 13 1 14
REMARK SMILES IDX 22 15 11 17 12 18 13 19 14 20 15 21 16 22 17 23 18 24
REMARK H PARENT 7 4 22 16
REMARK Flexibility Score: inf
ROOT
ATOM      1  C   UNL     1      83.042  92.055  88.552  1.00  0.00     0.100 C 
ENDROOT
BRANCH   1   2
ATOM      2  C   UNL     1      83.494  91.067  87.554  1.00  0.00     0.220 C 
ATOM      3  N   UNL     1      83.010  91.099  86.281  1.00  0.00    -0.352 N 
ATOM      4  H   UNL     1      82.322  91.818  86.104  1.00  0.00     0.163 HD
ATOM      5  O   UNL     1      84.350  90.219  87.905  1.00  0.00    -0.275 OA
BRANCH   3   6
ATOM      6  C   UNL     1      83.406  90.211  85.235  1.00  0.00     0.151 C 
BRANCH   6   7
ATOM      7  C   UNL     1      82.384  89.156  84.997  1.00  0.00    -0.025 A 
ATOM      8  C   UNL     1      81.514  86.895  85.442  1.00  0.00     0.160 A 
ATOM      9  C   UNL     1      80.433  87.139  84.571  1.00  0.00     0.157 A 
ATOM     10  C   UNL     1      82.480  87.904  85.645  1.00  0.00     0.056 A 
ATOM     11  C   UNL     1      80.335  88.376  83.902  1.00  0.00     0.050 A 
ATOM     12  C   UNL     1      81.297  89.381  84.121  1.00  0.00     0.009 A 
BRANCH   8  13
ATOM     13  O   UNL     1      81.650  85.670  86.044  1.00  0.00    -0.493 OA
ATOM     14  C   UNL     1      82.141  85.732  87.396  1.00  0.00     0.278 C 
ENDBRANCH   8  13
BRANCH   9  15
ATOM     15  O   UNL     1      79.479  86.195  84.363  1.00  0.00    -0.504 OA
ATOM     16  H   UNL     1      79.187  85.843  85.207  1.00  0.00     0.293 HD
ENDBRANCH   9  15
ENDBRANCH   6   7
ENDBRANCH   3   6
ENDBRANCH   1   2
BRANCH   1  17
ATOM     17  C   UNL     1      83.045  93.496  87.974  1.00  0.00     0.010 C 
BRANCH  17  18
ATOM     18  C   UNL     1      82.352  94.525  88.911  1.00  0.00     0.005 C 
BRANCH  18  19
ATOM     19  C   UNL     1      83.165  95.841  89.047  1.00  0.00     0.027 C 
BRANCH  19  20
ATOM     20  C   UNL     1      82.547  96.942  88.324  1.00  0.00    -0.031 C 
ATOM     21  C   UNL     1      81.531  96.800  87.454  1.00  0.00    -0.028 C 
BRANCH  21  22
ATOM     22  C   UNL     1      80.912  97.925  86.752  1.00  0.00     0.005 C 
ATOM     23  C   UNL     1      79.374  97.755  86.607  1.00  0.00     0.012 C 
ATOM     24  C   UNL     1      81.256  99.257  87.468  1.00  0.00     0.012 C 
ENDBRANCH  21  22
ENDBRANCH  19  20
ENDBRANCH  18  19
ENDBRANCH  17  18
ENDBRANCH   1  17
TORSDOF 10
ENDMDL
MODEL 8
REMARK VINA RESULT:    -5.684     17.535     20.290
REMARK INTER + INTRA:          -9.606
REMARK INTER:                  -8.874
REMARK INTRA:                  -0.732
REMARK UNBOUND:                -0.765
REMARK SMILES COc1cc(CNC(=O)CCCC/C=C/C(C)C)ccc1O
REMARK SMILES IDX 10 1 8 2 7 3 9 5 6 6 5 7 3 8 21 9 4 10 20 11 19 12 2 13 1 14
REMARK SMILES IDX 22 15 11 17 12 18 13 19 14 20 15 21 16 22 17 23 18 24
REMARK H PARENT 7 4 22 16
REMARK Flexibility Score: inf
ROOT
ATOM      1  C   UNL     1      77.353  89.992  63.286  1.00  0.00     0.100 C 
ENDROOT
BRANCH   1   2
ATOM      2  C   UNL     1      76.817  91.355  63.467  1.00  0.00     0.220 C 
ATOM      3  N   UNL     1      77.605  92.347  63.966  1.00  0.00    -0.352 N 
ATOM      4  H   UNL     1      78.544  92.063  64.213  1.00  0.00     0.163 HD
ATOM      5  O   UNL     1      75.629  91.574  63.126  1.00  0.00    -0.275 OA
BRANCH   3   6
ATOM      6  C   UNL     1      77.193  93.702  64.149  1.00  0.00     0.151 C 
BRANCH   6   7
ATOM      7  C   UNL     1      77.924  94.348  65.273  1.00  0.00    -0.025 A 
ATOM      8  C   UNL     1      78.021  95.028  67.638  1.00  0.00     0.160 A 
ATOM      9  C   UNL     1      79.311  95.560  67.433  1.00  0.00     0.157 A 
ATOM     10  C   UNL     1      77.340  94.430  66.557  1.00  0.00     0.056 A 
ATOM     11  C   UNL     1      79.899  95.503  66.154  1.00  0.00     0.050 A 
ATOM     12  C   UNL     1      79.215  94.894  65.083  1.00  0.00     0.009 A 
BRANCH   8  13
ATOM     13  O   UNL     1      77.419  95.139  68.865  1.00  0.00    -0.493 OA
ATOM     14  C   UNL     1      76.099  94.567  68.925  1.00  0.00     0.278 C 
ENDBRANCH   8  13
BRANCH   9  15
ATOM     15  O   UNL     1      80.000  96.130  68.455  1.00  0.00    -0.504 OA
ATOM     16  H   UNL     1      79.463  96.117  69.251  1.00  0.00     0.293 HD
ENDBRANCH   9  15
ENDBRANCH   6   7
ENDBRANCH   3   6
ENDBRANCH   1   2
BRANCH   1  17
ATOM     17  C   UNL     1      77.594  89.286  64.647  1.00  0.00     0.010 C 
BRANCH  17  18
ATOM     18  C   UNL     1      76.274  88.934  65.389  1.00  0.00     0.005 C 
BRANCH  18  19
ATOM     19  C   UNL     1      76.461  88.865  66.928  1.00  0.00     0.027 C 
BRANCH  19  20
ATOM     20  C   UNL     1      77.177  87.667  67.340  1.00  0.00    -0.031 C 
ATOM     21  C   UNL     1      76.762  86.413  67.083  1.00  0.00    -0.028 C 
BRANCH  21  22
ATOM     22  C   UNL     1      77.508  85.222  67.489  1.00  0.00     0.005 C 
ATOM     23  C   UNL     1      76.703  84.330  68.473  1.00  0.00     0.012 C 
ATOM     24  C   UNL     1      77.947  84.413  66.241  1.00  0.00     0.012 C 
ENDBRANCH  21  22
ENDBRANCH  19  20
ENDBRANCH  18  19
ENDBRANCH  17  18
ENDBRANCH   1  17
TORSDOF 10
ENDMDL
MODEL 9
REMARK VINA RESULT:    -5.662     13.718     16.576
REMARK INTER + INTRA:          -9.572
REMARK INTER:                  -8.683
REMARK INTRA:                  -0.888
REMARK UNBOUND:                -0.765
REMARK SMILES COc1cc(CNC(=O)CCCC/C=C/C(C)C)ccc1O
REMARK SMILES IDX 10 1 8 2 7 3 9 5 6 6 5 7 3 8 21 9 4 10 20 11 19 12 2 13 1 14
REMARK SMILES IDX 22 15 11 17 12 18 13 19 14 20 15 21 16 22 17 23 18 24
REMARK H PARENT 7 4 22 16
REMARK Flexibility Score: inf
ROOT
ATOM      1  C   UNL     1      83.379  89.987  88.840  1.00  0.00     0.100 C 
ENDROOT
BRANCH   1   2
ATOM      2  C   UNL     1      82.899  91.212  89.508  1.00  0.00     0.220 C 
ATOM      3  N   UNL     1      83.716  92.295  89.635  1.00  0.00    -0.352 N 
ATOM      4  H   UNL     1      84.648  92.172  89.264  1.00  0.00     0.163 HD
ATOM      5  O   UNL     1      81.718  91.233  89.930  1.00  0.00    -0.275 OA
BRANCH   3   6
ATOM      6  C   UNL     1      83.339  93.536  90.233  1.00  0.00     0.151 C 
BRANCH   6   7
ATOM      7  C   UNL     1      82.908  94.528  89.211  1.00  0.00    -0.025 A 
ATOM      8  C   UNL     1      81.278  96.192  88.413  1.00  0.00     0.160 A 
ATOM      9  C   UNL     1      82.082  96.437  87.281  1.00  0.00     0.157 A 
ATOM     10  C   UNL     1      81.697  95.239  89.365  1.00  0.00     0.056 A 
ATOM     11  C   UNL     1      83.282  95.722  87.103  1.00  0.00     0.050 A 
ATOM     12  C   UNL     1      83.698  94.781  88.065  1.00  0.00     0.009 A 
BRANCH   8  13
ATOM     13  O   UNL     1      80.076  96.838  88.557  1.00  0.00    -0.493 OA
ATOM     14  C   UNL     1      80.094  97.900  89.528  1.00  0.00     0.278 C 
ENDBRANCH   8  13
BRANCH   9  15
ATOM     15  O   UNL     1      81.714  97.357  86.352  1.00  0.00    -0.504 OA
ATOM     16  H   UNL     1      81.186  96.933  85.672  1.00  0.00     0.293 HD
ENDBRANCH   9  15
ENDBRANCH   6   7
ENDBRANCH   3   6
ENDBRANCH   1   2
BRANCH   1  17
ATOM     17  C   UNL     1      82.697  89.782  87.461  1.00  0.00     0.010 C 
BRANCH  17  18
ATOM     18  C   UNL     1      83.307  90.677  86.346  1.00  0.00     0.005 C 
BRANCH  18  19
ATOM     19  C   UNL     1      83.089  90.085  84.927  1.00  0.00     0.027 C 
BRANCH  19  20
ATOM     20  C   UNL     1      81.799  89.423  84.802  1.00  0.00    -0.031 C 
ATOM     21  C   UNL     1      81.637  88.155  84.383  1.00  0.00    -0.028 C 
BRANCH  21  22
ATOM     22  C   UNL     1      80.331  87.504  84.284  1.00  0.00     0.005 C 
ATOM     23  C   UNL     1      80.025  87.014  82.842  1.00  0.00     0.012 C 
ATOM     24  C   UNL     1      80.238  86.333  85.297  1.00  0.00     0.012 C 
ENDBRANCH  21  22
ENDBRANCH  19  20
ENDBRANCH  18  19
ENDBRANCH  17  18
ENDBRANCH   1  17
TORSDOF 10
ENDMDL
MODEL 10
REMARK VINA RESULT:    -5.632     27.020     28.832
REMARK INTER + INTRA:          -9.525
REMARK INTER:                  -8.813
REMARK INTRA:                  -0.712
REMARK UNBOUND:                -0.765
REMARK SMILES COc1cc(CNC(=O)CCCC/C=C/C(C)C)ccc1O
REMARK SMILES IDX 10 1 8 2 7 3 9 5 6 6 5 7 3 8 21 9 4 10 20 11 19 12 2 13 1 14
REMARK SMILES IDX 22 15 11 17 12 18 13 19 14 20 15 21 16 22 17 23 18 24
REMARK H PARENT 7 4 22 16
REMARK Flexibility Score: inf
ROOT
ATOM      1  C   UNL     1      85.156  65.324  76.818  1.00  0.00     0.100 C 
ENDROOT
BRANCH   1   2
ATOM      2  C   UNL     1      83.691  65.223  76.679  1.00  0.00     0.220 C 
ATOM      3  N   UNL     1      82.943  66.331  76.413  1.00  0.00    -0.352 N 
ATOM      4  H   UNL     1      83.467  67.193  76.348  1.00  0.00     0.163 HD
ATOM      5  O   UNL     1      83.162  64.090  76.788  1.00  0.00    -0.275 OA
BRANCH   3   6
ATOM      6  C   UNL     1      81.527  66.334  76.228  1.00  0.00     0.151 C 
BRANCH   6   7
ATOM      7  C   UNL     1      81.163  66.231  74.789  1.00  0.00    -0.025 A 
ATOM      8  C   UNL     1      81.224  67.152  72.506  1.00  0.00     0.160 A 
ATOM      9  C   UNL     1      80.495  66.040  72.037  1.00  0.00     0.157 A 
ATOM     10  C   UNL     1      81.549  67.239  73.876  1.00  0.00     0.056 A 
ATOM     11  C   UNL     1      80.087  65.037  72.939  1.00  0.00     0.050 A 
ATOM     12  C   UNL     1      80.426  65.126  74.303  1.00  0.00     0.009 A 
BRANCH   8  13
ATOM     13  O   UNL     1      81.566  68.163  71.644  1.00  0.00    -0.493 OA
ATOM     14  C   UNL     1      82.937  68.122  71.206  1.00  0.00     0.278 C 
ENDBRANCH   8  13
BRANCH   9  15
ATOM     15  O   UNL     1      80.177  65.920  70.722  1.00  0.00    -0.504 OA
ATOM     16  H   UNL     1      79.357  66.387  70.546  1.00  0.00     0.293 HD
ENDBRANCH   9  15
ENDBRANCH   6   7
ENDBRANCH   3   6
ENDBRANCH   1   2
BRANCH   1  17
ATOM     17  C   UNL     1      85.602  65.175  78.298  1.00  0.00     0.010 C 
BRANCH  17  18
ATOM     18  C   UNL     1      85.850  63.696  78.708  1.00  0.00     0.005 C 
BRANCH  18  19
ATOM     19  C   UNL     1      85.081  63.304  79.998  1.00  0.00     0.027 C 
BRANCH  19  20
ATOM     20  C   UNL     1      85.791  63.705  81.203  1.00  0.00    -0.031 C 
ATOM     21  C   UNL     1      85.482  64.788  81.938  1.00  0.00    -0.028 C 
BRANCH  21  22
ATOM     22  C   UNL     1      86.198  65.161  83.158  1.00  0.00     0.005 C 
ATOM     23  C   UNL     1      87.646  64.597  83.187  1.00  0.00     0.012 C 
ATOM     24  C   UNL     1      86.202  66.703  83.327  1.00  0.00     0.012 C 
ENDBRANCH  21  22
ENDBRANCH  19  20
ENDBRANCH  18  19
ENDBRANCH  17  18
ENDBRANCH   1  17
TORSDOF 10
ENDMDL
