MODEL 1
REMARK VINA RESULT:    -6.334      0.000      0.000
REMARK INTER + INTRA:         -11.183
REMARK INTER:                 -10.222
REMARK INTRA:                  -0.961
REMARK UNBOUND:                -0.961
REMARK SMILES COc1cc(CNC(=O)CCCCC/C=C/C(C)C)ccc1O
REMARK SMILES IDX 11 1 10 2 8 3 7 4 9 6 6 7 5 8 3 9 22 10 4 11 21 12 20 13
REMARK SMILES IDX 2 14 1 15 23 16 12 18 13 19 14 20 15 21 16 22 17 23 18 24
REMARK SMILES IDX 19 25
REMARK H PARENT 7 5 23 17
REMARK Flexibility Score: inf
ROOT
ATOM      1  C   UNL     1      93.603  94.604  76.198  1.00  0.00     0.010 C 
ENDROOT
BRANCH   1   2
ATOM      2  C   UNL     1      93.003  95.851  75.499  1.00  0.00     0.100 C 
BRANCH   2   3
ATOM      3  C   UNL     1      93.913  96.496  74.535  1.00  0.00     0.220 C 
ATOM      4  N   UNL     1      93.717  97.796  74.182  1.00  0.00    -0.352 N 
ATOM      5  H   UNL     1      92.884  98.217  74.570  1.00  0.00     0.163 HD
ATOM      6  O   UNL     1      94.880  95.831  74.092  1.00  0.00    -0.275 OA
BRANCH   4   7
ATOM      7  C   UNL     1      94.574  98.566  73.340  1.00  0.00     0.151 C 
BRANCH   7   8
ATOM      8  C   UNL     1      93.861  99.138  72.169  1.00  0.00    -0.025 A 
ATOM      9  C   UNL     1      91.769  99.641  70.977  1.00  0.00     0.160 A 
ATOM     10  C   UNL     1      92.511 100.184  69.906  1.00  0.00     0.157 A 
ATOM     11  C   UNL     1      92.449  99.114  72.095  1.00  0.00     0.056 A 
ATOM     12  C   UNL     1      93.915 100.228  69.976  1.00  0.00     0.050 A 
ATOM     13  C   UNL     1      94.586  99.719  71.104  1.00  0.00     0.009 A 
BRANCH   9  14
ATOM     14  O   UNL     1      90.400  99.672  70.958  1.00  0.00    -0.493 OA
ATOM     15  C   UNL     1      89.791  98.465  70.469  1.00  0.00     0.278 C 
ENDBRANCH   9  14
BRANCH  10  16
ATOM     16  O   UNL     1      91.897 100.674  68.800  1.00  0.00    -0.504 OA
ATOM     17  H   UNL     1      92.006 101.628  68.771  1.00  0.00     0.293 HD
ENDBRANCH  10  16
ENDBRANCH   7   8
ENDBRANCH   4   7
ENDBRANCH   2   3
ENDBRANCH   1   2
BRANCH   1  18
ATOM     18  C   UNL     1      93.199  94.551  77.693  1.00  0.00     0.001 C 
BRANCH  18  19
ATOM     19  C   UNL     1      92.356  93.306  78.068  1.00  0.00     0.004 C 
BRANCH  19  20
ATOM     20  C   UNL     1      90.908  93.413  77.512  1.00  0.00     0.027 C 
BRANCH  20  21
ATOM     21  C   UNL     1      90.527  92.304  76.655  1.00  0.00    -0.031 C 
ATOM     22  C   UNL     1      91.039  92.139  75.422  1.00  0.00    -0.028 C 
BRANCH  22  23
ATOM     23  C   UNL     1      90.681  91.032  74.539  1.00  0.00     0.005 C 
ATOM     24  C   UNL     1      90.739  89.687  75.311  1.00  0.00     0.012 C 
ATOM     25  C   UNL     1      89.289  91.285  73.898  1.00  0.00     0.012 C 
ENDBRANCH  22  23
ENDBRANCH  20  21
ENDBRANCH  19  20
ENDBRANCH  18  19
ENDBRANCH   1  18
TORSDOF 11
ENDMDL
MODEL 2
REMARK VINA RESULT:    -6.078     16.354     19.201
REMARK INTER + INTRA:         -10.769
REMARK INTER:                 -10.030
REMARK INTRA:                  -0.739
REMARK UNBOUND:                -0.961
REMARK SMILES COc1cc(CNC(=O)CCCCC/C=C/C(C)C)ccc1O
REMARK SMILES IDX 11 1 10 2 8 3 7 4 9 6 6 7 5 8 3 9 22 10 4 11 21 12 20 13
REMARK SMILES IDX 2 14 1 15 23 16 12 18 13 19 14 20 15 21 16 22 17 23 18 24
REMARK SMILES IDX 19 25
REMARK H PARENT 7 5 23 17
REMARK Flexibility Score: inf
ROOT
ATOM      1  C   UNL     1      95.885  81.640  84.779  1.00  0.00     0.010 C 
ENDROOT
BRANCH   1   2
ATOM      2  C   UNL     1      95.012  82.916  84.903  1.00  0.00     0.100 C 
BRANCH   2   3
ATOM      3  C   UNL     1      93.849  82.763  85.797  1.00  0.00     0.220 C 
ATOM      4  N   UNL     1      92.628  82.460  85.275  1.00  0.00    -0.352 N 
ATOM      5  H   UNL     1      92.597  82.433  84.265  1.00  0.00     0.163 HD
ATOM      6  O   UNL     1      94.028  82.878  87.033  1.00  0.00    -0.275 OA
BRANCH   4   7
ATOM      7  C   UNL     1      91.448  82.191  86.029  1.00  0.00     0.151 C 
BRANCH   7   8
ATOM      8  C   UNL     1      90.543  81.228  85.350  1.00  0.00    -0.025 A 
ATOM      9  C   UNL     1      88.279  80.510  84.710  1.00  0.00     0.160 A 
ATOM     10  C   UNL     1      88.818  79.357  84.100  1.00  0.00     0.157 A 
ATOM     11  C   UNL     1      89.143  81.431  85.338  1.00  0.00     0.056 A 
ATOM     12  C   UNL     1      90.210  79.153  84.091  1.00  0.00     0.050 A 
ATOM     13  C   UNL     1      91.067  80.087  84.703  1.00  0.00     0.009 A 
BRANCH   9  14
ATOM     14  O   UNL     1      86.934  80.762  84.648  1.00  0.00    -0.493 OA
ATOM     15  C   UNL     1      86.569  81.775  83.695  1.00  0.00     0.278 C 
ENDBRANCH   9  14
BRANCH  10  16
ATOM     16  O   UNL     1      88.019  78.433  83.510  1.00  0.00    -0.504 OA
ATOM     17  H   UNL     1      88.563  77.754  83.102  1.00  0.00     0.293 HD
ENDBRANCH  10  16
ENDBRANCH   7   8
ENDBRANCH   4   7
ENDBRANCH   2   3
ENDBRANCH   1   2
BRANCH   1  18
ATOM     18  C   UNL     1      95.697  80.967  83.395  1.00  0.00     0.001 C 
BRANCH  18  19
ATOM     19  C   UNL     1      96.927  81.106  82.463  1.00  0.00     0.004 C 
BRANCH  19  20
ATOM     20  C   UNL     1      96.780  82.323  81.508  1.00  0.00     0.027 C 
BRANCH  20  21
ATOM     21  C   UNL     1      96.574  81.954  80.118  1.00  0.00    -0.031 C 
ATOM     22  C   UNL     1      97.549  82.053  79.196  1.00  0.00    -0.028 C 
BRANCH  22  23
ATOM     23  C   UNL     1      97.376  81.684  77.793  1.00  0.00     0.005 C 
ATOM     24  C   UNL     1      97.162  80.153  77.661  1.00  0.00     0.012 C 
ATOM     25  C   UNL     1      96.213  82.498  77.164  1.00  0.00     0.012 C 
ENDBRANCH  22  23
ENDBRANCH  20  21
ENDBRANCH  19  20
ENDBRANCH  18  19
ENDBRANCH   1  18
TORSDOF 11
ENDMDL
MODEL 3
REMARK VINA RESULT:    -5.994      1.132      2.323
REMARK INTER + INTRA:         -10.633
REMARK INTER:                  -9.883
REMARK INTRA:                  -0.750
REMARK UNBOUND:                -0.961
REMARK SMILES COc1cc(CNC(=O)CCCCC/C=C/C(C)C)ccc1O
REMARK SMILES IDX 11 1 10 2 8 3 7 4 9 6 6 7 5 8 3 9 22 10 4 11 21 12 20 13
REMARK SMILES IDX 2 14 1 15 23 16 12 18 13 19 14 20 15 21 16 22 17 23 18 24
REMARK SMILES IDX 19 25
REMARK H PARENT 7 5 23 17
REMARK Flexibility Score: inf
ROOT
ATOM      1  C   UNL     1      93.520  94.018  76.088  1.00  0.00     0.010 C 
ENDROOT
BRANCH   1   2
ATOM      2  C   UNL     1      93.043  95.394  75.555  1.00  0.00     0.100 C 
BRANCH   2   3
ATOM      3  C   UNL     1      94.013  96.064  74.669  1.00  0.00     0.220 C 
ATOM      4  N   UNL     1      94.028  97.423  74.584  1.00  0.00    -0.352 N 
ATOM      5  H   UNL     1      93.294  97.886  75.102  1.00  0.00     0.163 HD
ATOM      6  O   UNL     1      94.835  95.355  74.042  1.00  0.00    -0.275 OA
BRANCH   4   7
ATOM      7  C   UNL     1      94.971  98.197  73.845  1.00  0.00     0.151 C 
BRANCH   7   8
ATOM      8  C   UNL     1      94.380  98.808  72.626  1.00  0.00    -0.025 A 
ATOM      9  C   UNL     1      94.632  99.710  70.351  1.00  0.00     0.160 A 
ATOM     10  C   UNL     1      93.255 100.021  70.324  1.00  0.00     0.157 A 
ATOM     11  C   UNL     1      95.185  99.114  71.503  1.00  0.00     0.056 A 
ATOM     12  C   UNL     1      92.442  99.706  71.428  1.00  0.00     0.050 A 
ATOM     13  C   UNL     1      92.998  99.093  72.566  1.00  0.00     0.009 A 
BRANCH   9  14
ATOM     14  O   UNL     1      95.414  99.932  69.250  1.00  0.00    -0.493 OA
ATOM     15  C   UNL     1      96.414 100.948  69.435  1.00  0.00     0.278 C 
ENDBRANCH   9  14
BRANCH  10  16
ATOM     16  O   UNL     1      92.689 100.620  69.246  1.00  0.00    -0.504 OA
ATOM     17  H   UNL     1      92.446 101.522  69.472  1.00  0.00     0.293 HD
ENDBRANCH  10  16
ENDBRANCH   7   8
ENDBRANCH   4   7
ENDBRANCH   2   3
ENDBRANCH   1   2
BRANCH   1  18
ATOM     18  C   UNL     1      93.495  93.979  77.637  1.00  0.00     0.001 C 
BRANCH  18  19
ATOM     19  C   UNL     1      92.294  93.193  78.222  1.00  0.00     0.004 C 
BRANCH  19  20
ATOM     20  C   UNL     1      90.967  93.574  77.509  1.00  0.00     0.027 C 
BRANCH  20  21
ATOM     21  C   UNL     1      90.276  92.442  76.917  1.00  0.00    -0.031 C 
ATOM     22  C   UNL     1      90.640  91.917  75.733  1.00  0.00    -0.028 C 
BRANCH  22  23
ATOM     23  C   UNL     1      89.970  90.777  75.113  1.00  0.00     0.005 C 
ATOM     24  C   UNL     1      88.957  91.264  74.043  1.00  0.00     0.012 C 
ATOM     25  C   UNL     1      91.018  89.792  74.528  1.00  0.00     0.012 C 
ENDBRANCH  22  23
ENDBRANCH  20  21
ENDBRANCH  19  20
ENDBRANCH  18  19
ENDBRANCH   1  18
TORSDOF 11
ENDMDL
MODEL 4
REMARK VINA RESULT:    -5.867      5.440     10.079
REMARK INTER + INTRA:         -10.429
REMARK INTER:                  -9.113
REMARK INTRA:                  -1.316
REMARK UNBOUND:                -0.961
REMARK SMILES COc1cc(CNC(=O)CCCCC/C=C/C(C)C)ccc1O
REMARK SMILES IDX 11 1 10 2 8 3 7 4 9 6 6 7 5 8 3 9 22 10 4 11 21 12 20 13
REMARK SMILES IDX 2 14 1 15 23 16 12 18 13 19 14 20 15 21 16 22 17 23 18 24
REMARK SMILES IDX 19 25
REMARK H PARENT 7 5 23 17
REMARK Flexibility Score: inf
ROOT
ATOM      1  C   UNL     1      87.228  99.872  66.701  1.00  0.00     0.010 C 
ENDROOT
BRANCH   1   2
ATOM      2  C   UNL     1      88.563  99.148  66.389  1.00  0.00     0.100 C 
BRANCH   2   3
ATOM      3  C   UNL     1      89.237  98.593  67.577  1.00  0.00     0.220 C 
ATOM      4  N   UNL     1      89.031  99.158  68.799  1.00  0.00    -0.352 N 
ATOM      5  H   UNL     1      88.463  99.994  68.786  1.00  0.00     0.163 HD
ATOM      6  O   UNL     1      89.960  97.579  67.433  1.00  0.00    -0.275 OA
BRANCH   4   7
ATOM      7  C   UNL     1      89.541  98.666  70.037  1.00  0.00     0.151 C 
BRANCH   7   8
ATOM      8  C   UNL     1      90.409  99.652  70.731  1.00  0.00    -0.025 A 
ATOM      9  C   UNL     1      92.495 100.203  71.913  1.00  0.00     0.160 A 
ATOM     10  C   UNL     1      92.037 101.525  72.101  1.00  0.00     0.157 A 
ATOM     11  C   UNL     1      91.675  99.275  71.238  1.00  0.00     0.056 A 
ATOM     12  C   UNL     1      90.788 101.916  71.586  1.00  0.00     0.050 A 
ATOM     13  C   UNL     1      89.984 100.989  70.897  1.00  0.00     0.009 A 
BRANCH   9  14
ATOM     14  O   UNL     1      93.746  99.836  72.333  1.00  0.00    -0.493 OA
ATOM     15  C   UNL     1      93.751  98.972  73.481  1.00  0.00     0.278 C 
ENDBRANCH   9  14
BRANCH  10  16
ATOM     16  O   UNL     1      92.783 102.441  72.769  1.00  0.00    -0.504 OA
ATOM     17  H   UNL     1      92.618 103.314  72.406  1.00  0.00     0.293 HD
ENDBRANCH  10  16
ENDBRANCH   7   8
ENDBRANCH   4   7
ENDBRANCH   2   3
ENDBRANCH   1   2
BRANCH   1  18
ATOM     18  C   UNL     1      87.298 101.369  66.308  1.00  0.00     0.001 C 
BRANCH  18  19
ATOM     19  C   UNL     1      88.294 102.192  67.164  1.00  0.00     0.004 C 
BRANCH  19  20
ATOM     20  C   UNL     1      88.988 103.298  66.321  1.00  0.00     0.027 C 
BRANCH  20  21
ATOM     21  C   UNL     1      90.389 103.031  66.046  1.00  0.00    -0.031 C 
ATOM     22  C   UNL     1      90.879 101.782  65.957  1.00  0.00    -0.028 C 
BRANCH  22  23
ATOM     23  C   UNL     1      92.280 101.480  65.677  1.00  0.00     0.005 C 
ATOM     24  C   UNL     1      92.718 102.145  64.345  1.00  0.00     0.012 C 
ATOM     25  C   UNL     1      93.172 101.912  66.873  1.00  0.00     0.012 C 
ENDBRANCH  22  23
ENDBRANCH  20  21
ENDBRANCH  19  20
ENDBRANCH  18  19
ENDBRANCH   1  18
TORSDOF 11
ENDMDL
MODEL 5
REMARK VINA RESULT:    -5.814     16.243     19.259
REMARK INTER + INTRA:         -10.344
REMARK INTER:                  -9.629
REMARK INTRA:                  -0.715
REMARK UNBOUND:                -0.961
REMARK SMILES COc1cc(CNC(=O)CCCCC/C=C/C(C)C)ccc1O
REMARK SMILES IDX 11 1 10 2 8 3 7 4 9 6 6 7 5 8 3 9 22 10 4 11 21 12 20 13
REMARK SMILES IDX 2 14 1 15 23 16 12 18 13 19 14 20 15 21 16 22 17 23 18 24
REMARK SMILES IDX 19 25
REMARK H PARENT 7 5 23 17
REMARK Flexibility Score: inf
ROOT
ATOM      1  C   UNL     1      95.910  82.196  84.663  1.00  0.00     0.010 C 
ENDROOT
BRANCH   1   2
ATOM      2  C   UNL     1      95.196  83.572  84.634  1.00  0.00     0.100 C 
BRANCH   2   3
ATOM      3  C   UNL     1      94.338  83.828  85.806  1.00  0.00     0.220 C 
ATOM      4  N   UNL     1      93.061  83.355  85.827  1.00  0.00    -0.352 N 
ATOM      5  H   UNL     1      92.763  82.908  84.972  1.00  0.00     0.163 HD
ATOM      6  O   UNL     1      94.829  84.447  86.780  1.00  0.00    -0.275 OA
BRANCH   4   7
ATOM      7  C   UNL     1      92.161  83.447  86.931  1.00  0.00     0.151 C 
BRANCH   7   8
ATOM      8  C   UNL     1      91.007  82.518  86.807  1.00  0.00    -0.025 A 
ATOM      9  C   UNL     1      89.520  81.133  85.422  1.00  0.00     0.160 A 
ATOM     10  C   UNL     1      88.773  80.789  86.570  1.00  0.00     0.157 A 
ATOM     11  C   UNL     1      90.624  82.000  85.547  1.00  0.00     0.056 A 
ATOM     12  C   UNL     1      89.155  81.285  87.830  1.00  0.00     0.050 A 
ATOM     13  C   UNL     1      90.271  82.135  87.949  1.00  0.00     0.009 A 
BRANCH   9  14
ATOM     14  O   UNL     1      89.209  80.587  84.205  1.00  0.00    -0.493 OA
ATOM     15  C   UNL     1      89.931  79.382  83.900  1.00  0.00     0.278 C 
ENDBRANCH   9  14
BRANCH  10  16
ATOM     16  O   UNL     1      87.687  79.981  86.489  1.00  0.00    -0.504 OA
ATOM     17  H   UNL     1      87.251  79.943  87.344  1.00  0.00     0.293 HD
ENDBRANCH  10  16
ENDBRANCH   7   8
ENDBRANCH   4   7
ENDBRANCH   2   3
ENDBRANCH   1   2
BRANCH   1  18
ATOM     18  C   UNL     1      95.278  81.216  83.642  1.00  0.00     0.001 C 
BRANCH  18  19
ATOM     19  C   UNL     1      96.271  80.713  82.564  1.00  0.00     0.004 C 
BRANCH  19  20
ATOM     20  C   UNL     1      96.850  81.892  81.732  1.00  0.00     0.027 C 
BRANCH  20  21
ATOM     21  C   UNL     1      97.407  81.487  80.453  1.00  0.00    -0.031 C 
ATOM     22  C   UNL     1      97.045  82.067  79.295  1.00  0.00    -0.028 C 
BRANCH  22  23
ATOM     23  C   UNL     1      97.591  81.686  77.994  1.00  0.00     0.005 C 
ATOM     24  C   UNL     1      97.494  80.150  77.799  1.00  0.00     0.012 C 
ATOM     25  C   UNL     1      96.874  82.470  76.861  1.00  0.00     0.012 C 
ENDBRANCH  22  23
ENDBRANCH  20  21
ENDBRANCH  19  20
ENDBRANCH  18  19
ENDBRANCH   1  18
TORSDOF 11
ENDMDL
MODEL 6
REMARK VINA RESULT:    -5.798     15.700     18.633
REMARK INTER + INTRA:         -10.318
REMARK INTER:                  -9.374
REMARK INTRA:                  -0.944
REMARK UNBOUND:                -0.961
REMARK SMILES COc1cc(CNC(=O)CCCCC/C=C/C(C)C)ccc1O
REMARK SMILES IDX 11 1 10 2 8 3 7 4 9 6 6 7 5 8 3 9 22 10 4 11 21 12 20 13
REMARK SMILES IDX 2 14 1 15 23 16 12 18 13 19 14 20 15 21 16 22 17 23 18 24
REMARK SMILES IDX 19 25
REMARK H PARENT 7 5 23 17
REMARK Flexibility Score: inf
ROOT
ATOM      1  C   UNL     1      75.498  90.281  69.055  1.00  0.00     0.010 C 
ENDROOT
BRANCH   1   2
ATOM      2  C   UNL     1      74.061  90.224  69.635  1.00  0.00     0.100 C 
BRANCH   2   3
ATOM      3  C   UNL     1      73.754  91.309  70.585  1.00  0.00     0.220 C 
ATOM      4  N   UNL     1      74.620  92.350  70.729  1.00  0.00    -0.352 N 
ATOM      5  H   UNL     1      75.478  92.260  70.204  1.00  0.00     0.163 HD
ATOM      6  O   UNL     1      72.669  91.261  71.213  1.00  0.00    -0.275 OA
BRANCH   4   7
ATOM      7  C   UNL     1      74.400  93.506  71.536  1.00  0.00     0.151 C 
BRANCH   7   8
ATOM      8  C   UNL     1      75.400  93.640  72.627  1.00  0.00    -0.025 A 
ATOM      9  C   UNL     1      75.990  93.515  75.012  1.00  0.00     0.160 A 
ATOM     10  C   UNL     1      77.299  93.950  74.710  1.00  0.00     0.157 A 
ATOM     11  C   UNL     1      75.050  93.372  73.971  1.00  0.00     0.056 A 
ATOM     12  C   UNL     1      77.664  94.203  73.375  1.00  0.00     0.050 A 
ATOM     13  C   UNL     1      76.725  94.039  72.340  1.00  0.00     0.009 A 
BRANCH   9  14
ATOM     14  O   UNL     1      75.650  93.182  76.296  1.00  0.00    -0.493 OA
ATOM     15  C   UNL     1      74.718  94.087  76.910  1.00  0.00     0.278 C 
ENDBRANCH   9  14
BRANCH  10  16
ATOM     16  O   UNL     1      78.225  94.127  75.685  1.00  0.00    -0.504 OA
ATOM     17  H   UNL     1      78.590  95.014  75.622  1.00  0.00     0.293 HD
ENDBRANCH  10  16
ENDBRANCH   7   8
ENDBRANCH   4   7
ENDBRANCH   2   3
ENDBRANCH   1   2
BRANCH   1  18
ATOM     18  C   UNL     1      75.476  90.552  67.529  1.00  0.00     0.001 C 
BRANCH  18  19
ATOM     19  C   UNL     1      76.532  89.741  66.737  1.00  0.00     0.004 C 
BRANCH  19  20
ATOM     20  C   UNL     1      77.335  88.791  67.670  1.00  0.00     0.027 C 
BRANCH  20  21
ATOM     21  C   UNL     1      77.028  87.385  67.477  1.00  0.00    -0.031 C 
ATOM     22  C   UNL     1      76.322  86.673  68.373  1.00  0.00    -0.028 C 
BRANCH  22  23
ATOM     23  C   UNL     1      75.993  85.259  68.205  1.00  0.00     0.005 C 
ATOM     24  C   UNL     1      77.190  84.499  67.574  1.00  0.00     0.012 C 
ATOM     25  C   UNL     1      75.554  84.646  69.562  1.00  0.00     0.012 C 
ENDBRANCH  22  23
ENDBRANCH  20  21
ENDBRANCH  19  20
ENDBRANCH  18  19
ENDBRANCH   1  18
TORSDOF 11
ENDMDL
MODEL 7
REMARK VINA RESULT:    -5.771      5.696      9.768
REMARK INTER + INTRA:         -10.274
REMARK INTER:                  -9.478
REMARK INTRA:                  -0.796
REMARK UNBOUND:                -0.961
REMARK SMILES COc1cc(CNC(=O)CCCCC/C=C/C(C)C)ccc1O
REMARK SMILES IDX 11 1 10 2 8 3 7 4 9 6 6 7 5 8 3 9 22 10 4 11 21 12 20 13
REMARK SMILES IDX 2 14 1 15 23 16 12 18 13 19 14 20 15 21 16 22 17 23 18 24
REMARK SMILES IDX 19 25
REMARK H PARENT 7 5 23 17
REMARK Flexibility Score: inf
ROOT
ATOM      1  C   UNL     1      93.793  94.050  78.527  1.00  0.00     0.010 C 
ENDROOT
BRANCH   1   2
ATOM      2  C   UNL     1      95.040  93.129  78.476  1.00  0.00     0.100 C 
BRANCH   2   3
ATOM      3  C   UNL     1      96.262  93.744  79.027  1.00  0.00     0.220 C 
ATOM      4  N   UNL     1      96.530  93.646  80.358  1.00  0.00    -0.352 N 
ATOM      5  H   UNL     1      95.804  93.202  80.903  1.00  0.00     0.163 HD
ATOM      6  O   UNL     1      97.051  94.313  78.235  1.00  0.00    -0.275 OA
BRANCH   4   7
ATOM      7  C   UNL     1      97.717  94.108  81.002  1.00  0.00     0.151 C 
BRANCH   7   8
ATOM      8  C   UNL     1      97.534  95.428  81.659  1.00  0.00    -0.025 A 
ATOM      9  C   UNL     1      98.272  97.130  83.273  1.00  0.00     0.160 A 
ATOM     10  C   UNL     1      97.150  97.923  82.948  1.00  0.00     0.157 A 
ATOM     11  C   UNL     1      98.451  95.887  82.634  1.00  0.00     0.056 A 
ATOM     12  C   UNL     1      96.241  97.485  81.968  1.00  0.00     0.050 A 
ATOM     13  C   UNL     1      96.438  96.251  81.320  1.00  0.00     0.009 A 
BRANCH   9  14
ATOM     14  O   UNL     1      99.209  97.587  84.162  1.00  0.00    -0.493 OA
ATOM     15  C   UNL     1     100.381  98.146  83.545  1.00  0.00     0.278 C 
ENDBRANCH   9  14
BRANCH  10  16
ATOM     16  O   UNL     1      96.926  99.113  83.561  1.00  0.00    -0.504 OA
ATOM     17  H   UNL     1      97.614  99.271  84.212  1.00  0.00     0.293 HD
ENDBRANCH  10  16
ENDBRANCH   7   8
ENDBRANCH   4   7
ENDBRANCH   2   3
ENDBRANCH   1   2
BRANCH   1  18
ATOM     18  C   UNL     1      92.496  93.250  78.242  1.00  0.00     0.001 C 
BRANCH  18  19
ATOM     19  C   UNL     1      91.719  93.746  76.996  1.00  0.00     0.004 C 
BRANCH  19  20
ATOM     20  C   UNL     1      91.509  95.285  77.035  1.00  0.00     0.027 C 
BRANCH  20  21
ATOM     21  C   UNL     1      92.567  96.037  76.382  1.00  0.00    -0.031 C 
ATOM     22  C   UNL     1      93.220  95.569  75.304  1.00  0.00    -0.028 C 
BRANCH  22  23
ATOM     23  C   UNL     1      94.284  96.301  74.621  1.00  0.00     0.005 C 
ATOM     24  C   UNL     1      93.768  97.689  74.155  1.00  0.00     0.012 C 
ATOM     25  C   UNL     1      95.532  96.414  75.538  1.00  0.00     0.012 C 
ENDBRANCH  22  23
ENDBRANCH  20  21
ENDBRANCH  19  20
ENDBRANCH  18  19
ENDBRANCH   1  18
TORSDOF 11
ENDMDL
MODEL 8
REMARK VINA RESULT:    -5.757      6.605     11.353
REMARK INTER + INTRA:         -10.252
REMARK INTER:                  -9.192
REMARK INTRA:                  -1.060
REMARK UNBOUND:                -0.961
REMARK SMILES COc1cc(CNC(=O)CCCCC/C=C/C(C)C)ccc1O
REMARK SMILES IDX 11 1 10 2 8 3 7 4 9 6 6 7 5 8 3 9 22 10 4 11 21 12 20 13
REMARK SMILES IDX 2 14 1 15 23 16 12 18 13 19 14 20 15 21 16 22 17 23 18 24
REMARK SMILES IDX 19 25
REMARK H PARENT 7 5 23 17
REMARK Flexibility Score: inf
ROOT
ATOM      1  C   UNL     1      87.292 101.094  66.664  1.00  0.00     0.010 C 
ENDROOT
BRANCH   1   2
ATOM      2  C   UNL     1      87.654  99.635  66.282  1.00  0.00     0.100 C 
BRANCH   2   3
ATOM      3  C   UNL     1      88.752  99.061  67.081  1.00  0.00     0.220 C 
ATOM      4  N   UNL     1      88.617  98.940  68.431  1.00  0.00    -0.352 N 
ATOM      5  H   UNL     1      87.767  99.335  68.807  1.00  0.00     0.163 HD
ATOM      6  O   UNL     1      89.777  98.658  66.482  1.00  0.00    -0.275 OA
BRANCH   4   7
ATOM      7  C   UNL     1      89.557  98.317  69.306  1.00  0.00     0.151 C 
BRANCH   7   8
ATOM      8  C   UNL     1      90.416  99.300  70.016  1.00  0.00    -0.025 A 
ATOM      9  C   UNL     1      90.657 101.306  71.418  1.00  0.00     0.160 A 
ATOM     10  C   UNL     1      92.062 101.202  71.323  1.00  0.00     0.157 A 
ATOM     11  C   UNL     1      89.846 100.361  70.758  1.00  0.00     0.056 A 
ATOM     12  C   UNL     1      92.640 100.141  70.603  1.00  0.00     0.050 A 
ATOM     13  C   UNL     1      91.823  99.190  69.962  1.00  0.00     0.009 A 
BRANCH   9  14
ATOM     14  O   UNL     1      90.086 102.283  72.189  1.00  0.00    -0.493 OA
ATOM     15  C   UNL     1      89.697 103.457  71.457  1.00  0.00     0.278 C 
ENDBRANCH   9  14
BRANCH  10  16
ATOM     16  O   UNL     1      92.878 102.107  71.920  1.00  0.00    -0.504 OA
ATOM     17  H   UNL     1      92.489 102.386  72.753  1.00  0.00     0.293 HD
ENDBRANCH  10  16
ENDBRANCH   7   8
ENDBRANCH   4   7
ENDBRANCH   2   3
ENDBRANCH   1   2
BRANCH   1  18
ATOM     18  C   UNL     1      88.488 102.049  66.422  1.00  0.00     0.001 C 
BRANCH  18  19
ATOM     19  C   UNL     1      88.074 103.531  66.237  1.00  0.00     0.004 C 
BRANCH  19  20
ATOM     20  C   UNL     1      86.653 103.798  66.806  1.00  0.00     0.027 C 
BRANCH  20  21
ATOM     21  C   UNL     1      85.716 104.313  65.822  1.00  0.00    -0.031 C 
ATOM     22  C   UNL     1      84.610 103.639  65.460  1.00  0.00    -0.028 C 
BRANCH  22  23
ATOM     23  C   UNL     1      83.647 104.132  64.479  1.00  0.00     0.005 C 
ATOM     24  C   UNL     1      84.295 105.230  63.594  1.00  0.00     0.012 C 
ATOM     25  C   UNL     1      83.086 102.952  63.639  1.00  0.00     0.012 C 
ENDBRANCH  22  23
ENDBRANCH  20  21
ENDBRANCH  19  20
ENDBRANCH  18  19
ENDBRANCH   1  18
TORSDOF 11
ENDMDL
MODEL 9
REMARK VINA RESULT:    -5.594      3.303      4.159
REMARK INTER + INTRA:          -9.989
REMARK INTER:                  -9.202
REMARK INTRA:                  -0.787
REMARK UNBOUND:                -0.961
REMARK SMILES COc1cc(CNC(=O)CCCCC/C=C/C(C)C)ccc1O
REMARK SMILES IDX 11 1 10 2 8 3 7 4 9 6 6 7 5 8 3 9 22 10 4 11 21 12 20 13
REMARK SMILES IDX 2 14 1 15 23 16 12 18 13 19 14 20 15 21 16 22 17 23 18 24
REMARK SMILES IDX 19 25
REMARK H PARENT 7 5 23 17
REMARK Flexibility Score: inf
ROOT
ATOM      1  C   UNL     1      93.408  94.316  76.116  1.00  0.00     0.010 C 
ENDROOT
BRANCH   1   2
ATOM      2  C   UNL     1      93.129  95.540  75.206  1.00  0.00     0.100 C 
BRANCH   2   3
ATOM      3  C   UNL     1      94.313  96.382  74.952  1.00  0.00     0.220 C 
ATOM      4  N   UNL     1      94.252  97.375  74.022  1.00  0.00    -0.352 N 
ATOM      5  H   UNL     1      93.385  97.415  73.504  1.00  0.00     0.163 HD
ATOM      6  O   UNL     1      95.344  96.183  75.637  1.00  0.00    -0.275 OA
BRANCH   4   7
ATOM      7  C   UNL     1      95.285  98.320  73.748  1.00  0.00     0.151 C 
BRANCH   7   8
ATOM      8  C   UNL     1      96.100  97.948  72.562  1.00  0.00    -0.025 A 
ATOM      9  C   UNL     1      97.937  98.425  70.998  1.00  0.00     0.160 A 
ATOM     10  C   UNL     1      97.615  97.261  70.266  1.00  0.00     0.157 A 
ATOM     11  C   UNL     1      97.172  98.764  72.133  1.00  0.00     0.056 A 
ATOM     12  C   UNL     1      96.561  96.433  70.694  1.00  0.00     0.050 A 
ATOM     13  C   UNL     1      95.815  96.768  71.839  1.00  0.00     0.009 A 
BRANCH   9  14
ATOM     14  O   UNL     1      99.015  99.191  70.641  1.00  0.00    -0.493 OA
ATOM     15  C   UNL     1     100.258  98.762  71.223  1.00  0.00     0.278 C 
ENDBRANCH   9  14
BRANCH  10  16
ATOM     16  O   UNL     1      98.307  96.915  69.152  1.00  0.00    -0.504 OA
ATOM     17  H   UNL     1      98.647  96.022  69.252  1.00  0.00     0.293 HD
ENDBRANCH  10  16
ENDBRANCH   7   8
ENDBRANCH   4   7
ENDBRANCH   2   3
ENDBRANCH   1   2
BRANCH   1  18
ATOM     18  C   UNL     1      92.876  94.555  77.552  1.00  0.00     0.001 C 
BRANCH  18  19
ATOM     19  C   UNL     1      92.063  93.364  78.121  1.00  0.00     0.004 C 
BRANCH  19  20
ATOM     20  C   UNL     1      90.650  93.285  77.479  1.00  0.00     0.027 C 
BRANCH  20  21
ATOM     21  C   UNL     1      90.447  92.103  76.658  1.00  0.00    -0.031 C 
ATOM     22  C   UNL     1      89.875  92.163  75.442  1.00  0.00    -0.028 C 
BRANCH  22  23
ATOM     23  C   UNL     1      89.661  90.996  74.590  1.00  0.00     0.005 C 
ATOM     24  C   UNL     1      89.140  91.435  73.197  1.00  0.00     0.012 C 
ATOM     25  C   UNL     1      90.964  90.156  74.494  1.00  0.00     0.012 C 
ENDBRANCH  22  23
ENDBRANCH  20  21
ENDBRANCH  19  20
ENDBRANCH  18  19
ENDBRANCH   1  18
TORSDOF 11
ENDMDL
MODEL 10
REMARK VINA RESULT:    -5.594     19.626     23.740
REMARK INTER + INTRA:          -9.988
REMARK INTER:                  -8.662
REMARK INTRA:                  -1.326
REMARK UNBOUND:                -0.961
REMARK SMILES COc1cc(CNC(=O)CCCCC/C=C/C(C)C)ccc1O
REMARK SMILES IDX 11 1 10 2 8 3 7 4 9 6 6 7 5 8 3 9 22 10 4 11 21 12 20 13
REMARK SMILES IDX 2 14 1 15 23 16 12 18 13 19 14 20 15 21 16 22 17 23 18 24
REMARK SMILES IDX 19 25
REMARK H PARENT 7 5 23 17
REMARK Flexibility Score: inf
ROOT
ATOM      1  C   UNL     1      73.918  89.332  66.852  1.00  0.00     0.010 C 
ENDROOT
BRANCH   1   2
ATOM      2  C   UNL     1      73.733  87.978  67.585  1.00  0.00     0.100 C 
BRANCH   2   3
ATOM      3  C   UNL     1      72.374  87.418  67.476  1.00  0.00     0.220 C 
ATOM      4  N   UNL     1      72.135  86.379  66.628  1.00  0.00    -0.352 N 
ATOM      5  H   UNL     1      72.926  86.107  66.061  1.00  0.00     0.163 HD
ATOM      6  O   UNL     1      71.473  87.893  68.207  1.00  0.00    -0.275 OA
BRANCH   4   7
ATOM      7  C   UNL     1      70.896  85.683  66.497  1.00  0.00     0.151 C 
BRANCH   7   8
ATOM      8  C   UNL     1      71.076  84.269  66.078  1.00  0.00    -0.025 A 
ATOM      9  C   UNL     1      72.539  82.411  65.402  1.00  0.00     0.160 A 
ATOM     10  C   UNL     1      71.407  81.585  65.226  1.00  0.00     0.157 A 
ATOM     11  C   UNL     1      72.365  83.747  65.817  1.00  0.00     0.056 A 
ATOM     12  C   UNL     1      70.122  82.089  65.499  1.00  0.00     0.050 A 
ATOM     13  C   UNL     1      69.958  83.418  65.932  1.00  0.00     0.009 A 
BRANCH   9  14
ATOM     14  O   UNL     1      73.799  81.906  65.223  1.00  0.00    -0.493 OA
ATOM     15  C   UNL     1      74.704  82.803  64.558  1.00  0.00     0.278 C 
ENDBRANCH   9  14
BRANCH  10  16
ATOM     16  O   UNL     1      71.530  80.303  64.801  1.00  0.00    -0.504 OA
ATOM     17  H   UNL     1      71.133  79.713  65.447  1.00  0.00     0.293 HD
ENDBRANCH  10  16
ENDBRANCH   7   8
ENDBRANCH   4   7
ENDBRANCH   2   3
ENDBRANCH   1   2
BRANCH   1  18
ATOM     18  C   UNL     1      75.412  89.598  66.537  1.00  0.00     0.001 C 
BRANCH  18  19
ATOM     19  C   UNL     1      76.358  89.338  67.736  1.00  0.00     0.004 C 
BRANCH  19  20
ATOM     20  C   UNL     1      77.556  88.435  67.329  1.00  0.00     0.027 C 
BRANCH  20  21
ATOM     21  C   UNL     1      77.288  87.013  67.465  1.00  0.00    -0.031 C 
ATOM     22  C   UNL     1      76.846  86.471  68.614  1.00  0.00    -0.028 C 
BRANCH  22  23
ATOM     23  C   UNL     1      76.563  85.048  68.782  1.00  0.00     0.005 C 
ATOM     24  C   UNL     1      75.205  84.852  69.506  1.00  0.00     0.012 C 
ATOM     25  C   UNL     1      76.608  84.327  67.407  1.00  0.00     0.012 C 
ENDBRANCH  22  23
ENDBRANCH  20  21
ENDBRANCH  19  20
ENDBRANCH  18  19
ENDBRANCH   1  18
TORSDOF 11
ENDMDL
