MODEL 1
REMARK VINA RESULT:    -6.032      0.000      0.000
REMARK INTER + INTRA:         -10.433
REMARK INTER:                  -9.382
REMARK INTRA:                  -1.051
REMARK UNBOUND:                -1.051
REMARK SMILES COc1cc(CNC(=O)CCCCCC(C)C)ccc1O
REMARK SMILES IDX 10 1 8 2 7 3 9 5 6 6 5 7 3 8 20 9 4 10 19 11 18 12 2 13 1 14
REMARK SMILES IDX 21 15 11 17 12 18 13 19 14 20 15 21 16 22 17 23
REMARK H PARENT 7 4 21 16
REMARK Flexibility Score: inf
ROOT
ATOM      1  C   UNL     1      94.206  97.482  75.747  1.00  0.00     0.100 C 
ENDROOT
BRANCH   1   2
ATOM      2  C   UNL     1      95.002  98.159  76.792  1.00  0.00     0.220 C 
ATOM      3  N   UNL     1      95.735  97.412  77.665  1.00  0.00    -0.352 N 
ATOM      4  H   UNL     1      95.572  96.417  77.613  1.00  0.00     0.163 HD
ATOM      5  O   UNL     1      95.019  99.414  76.827  1.00  0.00    -0.275 OA
BRANCH   3   6
ATOM      6  C   UNL     1      96.676  97.933  78.604  1.00  0.00     0.151 C 
BRANCH   6   7
ATOM      7  C   UNL     1      96.776  97.118  79.844  1.00  0.00    -0.025 A 
ATOM      8  C   UNL     1      95.872  95.383  81.335  1.00  0.00     0.160 A 
ATOM      9  C   UNL     1      97.000  95.519  82.172  1.00  0.00     0.157 A 
ATOM     10  C   UNL     1      95.758  96.196  80.187  1.00  0.00     0.056 A 
ATOM     11  C   UNL     1      98.005  96.451  81.856  1.00  0.00     0.050 A 
ATOM     12  C   UNL     1      97.897  97.241  80.698  1.00  0.00     0.009 A 
BRANCH   8  13
ATOM     13  O   UNL     1      94.873  94.495  81.636  1.00  0.00    -0.493 OA
ATOM     14  C   UNL     1      94.944  93.265  80.889  1.00  0.00     0.278 C 
ENDBRANCH   8  13
BRANCH   9  15
ATOM     15  O   UNL     1      97.118  94.744  83.279  1.00  0.00    -0.504 OA
ATOM     16  H   UNL     1      97.939  94.248  83.237  1.00  0.00     0.293 HD
ENDBRANCH   9  15
ENDBRANCH   6   7
ENDBRANCH   3   6
ENDBRANCH   1   2
BRANCH   1  17
ATOM     17  C   UNL     1      93.955  95.974  76.013  1.00  0.00     0.010 C 
BRANCH  17  18
ATOM     18  C   UNL     1      92.688  95.749  76.884  1.00  0.00     0.001 C 
BRANCH  18  19
ATOM     19  C   UNL     1      92.960  94.920  78.167  1.00  0.00     0.000 C 
BRANCH  19  20
ATOM     20  C   UNL     1      91.676  94.222  78.700  1.00  0.00     0.003 C 
BRANCH  20  21
ATOM     21  C   UNL     1      90.655  93.787  77.599  1.00  0.00    -0.017 C 
ATOM     22  C   UNL     1      89.255  93.507  78.219  1.00  0.00     0.007 C 
ATOM     23  C   UNL     1      91.135  92.550  76.785  1.00  0.00     0.007 C 
ENDBRANCH  20  21
ENDBRANCH  19  20
ENDBRANCH  18  19
ENDBRANCH  17  18
ENDBRANCH   1  17
TORSDOF 10
ENDMDL
MODEL 2
REMARK VINA RESULT:    -6.006     22.676     26.797
REMARK INTER + INTRA:         -10.393
REMARK INTER:                  -9.489
REMARK INTRA:                  -0.904
REMARK UNBOUND:                -1.051
REMARK SMILES COc1cc(CNC(=O)CCCCCC(C)C)ccc1O
REMARK SMILES IDX 10 1 8 2 7 3 9 5 6 6 5 7 3 8 20 9 4 10 19 11 18 12 2 13 1 14
REMARK SMILES IDX 21 15 11 17 12 18 13 19 14 20 15 21 16 22 17 23
REMARK H PARENT 7 4 21 16
REMARK Flexibility Score: inf
ROOT
ATOM      1  C   UNL     1      76.141  86.052  65.685  1.00  0.00     0.100 C 
ENDROOT
BRANCH   1   2
ATOM      2  C   UNL     1      76.633  84.764  65.153  1.00  0.00     0.220 C 
ATOM      3  N   UNL     1      76.616  83.659  65.951  1.00  0.00    -0.352 N 
ATOM      4  H   UNL     1      76.383  83.837  66.918  1.00  0.00     0.163 HD
ATOM      5  O   UNL     1      77.017  84.705  63.959  1.00  0.00    -0.275 OA
BRANCH   3   6
ATOM      6  C   UNL     1      76.895  82.328  65.518  1.00  0.00     0.151 C 
BRANCH   6   7
ATOM      7  C   UNL     1      75.727  81.664  64.879  1.00  0.00    -0.025 A 
ATOM      8  C   UNL     1      73.374  80.954  64.953  1.00  0.00     0.160 A 
ATOM      9  C   UNL     1      73.483  80.460  63.636  1.00  0.00     0.157 A 
ATOM     10  C   UNL     1      74.501  81.535  65.573  1.00  0.00     0.056 A 
ATOM     11  C   UNL     1      74.705  80.560  62.946  1.00  0.00     0.050 A 
ATOM     12  C   UNL     1      75.817  81.162  63.560  1.00  0.00     0.009 A 
BRANCH   8  13
ATOM     13  O   UNL     1      72.198  80.849  65.650  1.00  0.00    -0.493 OA
ATOM     14  C   UNL     1      71.731  82.098  66.194  1.00  0.00     0.278 C 
ENDBRANCH   8  13
BRANCH   9  15
ATOM     15  O   UNL     1      72.407  79.898  63.032  1.00  0.00    -0.504 OA
ATOM     16  H   UNL     1      72.256  80.323  62.185  1.00  0.00     0.293 HD
ENDBRANCH   9  15
ENDBRANCH   6   7
ENDBRANCH   3   6
ENDBRANCH   1   2
BRANCH   1  17
ATOM     17  C   UNL     1      77.196  87.190  65.675  1.00  0.00     0.010 C 
BRANCH  17  18
ATOM     18  C   UNL     1      77.404  87.791  67.093  1.00  0.00     0.001 C 
BRANCH  18  19
ATOM     19  C   UNL     1      78.103  86.817  68.079  1.00  0.00     0.000 C 
BRANCH  19  20
ATOM     20  C   UNL     1      77.553  86.951  69.528  1.00  0.00     0.003 C 
BRANCH  20  21
ATOM     21  C   UNL     1      76.032  87.301  69.628  1.00  0.00    -0.017 C 
ATOM     22  C   UNL     1      75.822  88.658  70.363  1.00  0.00     0.007 C 
ATOM     23  C   UNL     1      75.199  86.184  70.320  1.00  0.00     0.007 C 
ENDBRANCH  20  21
ENDBRANCH  19  20
ENDBRANCH  18  19
ENDBRANCH  17  18
ENDBRANCH   1  17
TORSDOF 10
ENDMDL
MODEL 3
REMARK VINA RESULT:    -5.938     23.099     26.765
REMARK INTER + INTRA:         -10.286
REMARK INTER:                  -9.229
REMARK INTRA:                  -1.057
REMARK UNBOUND:                -1.051
REMARK SMILES COc1cc(CNC(=O)CCCCCC(C)C)ccc1O
REMARK SMILES IDX 10 1 8 2 7 3 9 5 6 6 5 7 3 8 20 9 4 10 19 11 18 12 2 13 1 14
REMARK SMILES IDX 21 15 11 17 12 18 13 19 14 20 15 21 16 22 17 23
REMARK H PARENT 7 4 21 16
REMARK Flexibility Score: inf
ROOT
ATOM      1  C   UNL     1      77.888  84.265  67.591  1.00  0.00     0.100 C 
ENDROOT
BRANCH   1   2
ATOM      2  C   UNL     1      77.869  83.480  66.339  1.00  0.00     0.220 C 
ATOM      3  N   UNL     1      77.271  82.255  66.326  1.00  0.00    -0.352 N 
ATOM      4  H   UNL     1      76.991  81.909  67.233  1.00  0.00     0.163 HD
ATOM      5  O   UNL     1      78.368  83.977  65.301  1.00  0.00    -0.275 OA
BRANCH   3   6
ATOM      6  C   UNL     1      77.028  81.472  65.157  1.00  0.00     0.151 C 
BRANCH   6   7
ATOM      7  C   UNL     1      75.584  81.354  64.822  1.00  0.00    -0.025 A 
ATOM      8  C   UNL     1      73.220  81.580  65.464  1.00  0.00     0.160 A 
ATOM      9  C   UNL     1      72.833  81.193  64.163  1.00  0.00     0.157 A 
ATOM     10  C   UNL     1      74.592  81.640  65.790  1.00  0.00     0.056 A 
ATOM     11  C   UNL     1      73.810  80.881  63.200  1.00  0.00     0.050 A 
ATOM     12  C   UNL     1      75.175  80.965  63.525  1.00  0.00     0.009 A 
BRANCH   8  13
ATOM     13  O   UNL     1      72.284  81.869  66.422  1.00  0.00    -0.493 OA
ATOM     14  C   UNL     1      72.089  83.280  66.637  1.00  0.00     0.278 C 
ENDBRANCH   8  13
BRANCH   9  15
ATOM     15  O   UNL     1      71.517  81.130  63.839  1.00  0.00    -0.504 OA
ATOM     16  H   UNL     1      71.413  80.657  63.011  1.00  0.00     0.293 HD
ENDBRANCH   9  15
ENDBRANCH   6   7
ENDBRANCH   3   6
ENDBRANCH   1   2
BRANCH   1  17
ATOM     17  C   UNL     1      76.709  83.961  68.554  1.00  0.00     0.010 C 
BRANCH  17  18
ATOM     18  C   UNL     1      77.082  84.265  70.031  1.00  0.00     0.001 C 
BRANCH  18  19
ATOM     19  C   UNL     1      75.894  84.808  70.867  1.00  0.00     0.000 C 
BRANCH  19  20
ATOM     20  C   UNL     1      75.173  85.995  70.165  1.00  0.00     0.003 C 
BRANCH  20  21
ATOM     21  C   UNL     1      75.977  87.337  70.146  1.00  0.00    -0.017 C 
ATOM     22  C   UNL     1      75.135  88.496  70.756  1.00  0.00     0.007 C 
ATOM     23  C   UNL     1      76.469  87.726  68.722  1.00  0.00     0.007 C 
ENDBRANCH  20  21
ENDBRANCH  19  20
ENDBRANCH  18  19
ENDBRANCH  17  18
ENDBRANCH   1  17
TORSDOF 10
ENDMDL
MODEL 4
REMARK VINA RESULT:    -5.915     22.378     25.964
REMARK INTER + INTRA:         -10.251
REMARK INTER:                  -9.217
REMARK INTRA:                  -1.035
REMARK UNBOUND:                -1.051
REMARK SMILES COc1cc(CNC(=O)CCCCCC(C)C)ccc1O
REMARK SMILES IDX 10 1 8 2 7 3 9 5 6 6 5 7 3 8 20 9 4 10 19 11 18 12 2 13 1 14
REMARK SMILES IDX 21 15 11 17 12 18 13 19 14 20 15 21 16 22 17 23
REMARK H PARENT 7 4 21 16
REMARK Flexibility Score: inf
ROOT
ATOM      1  C   UNL     1      78.250  85.796  68.417  1.00  0.00     0.100 C 
ENDROOT
BRANCH   1   2
ATOM      2  C   UNL     1      78.073  84.792  67.347  1.00  0.00     0.220 C 
ATOM      3  N   UNL     1      77.178  85.029  66.347  1.00  0.00    -0.352 N 
ATOM      4  H   UNL     1      76.591  85.839  66.486  1.00  0.00     0.163 HD
ATOM      5  O   UNL     1      78.784  83.757  67.359  1.00  0.00    -0.275 OA
BRANCH   3   6
ATOM      6  C   UNL     1      77.032  84.235  65.169  1.00  0.00     0.151 C 
BRANCH   6   7
ATOM      7  C   UNL     1      75.905  83.267  65.254  1.00  0.00    -0.025 A 
ATOM      8  C   UNL     1      73.545  82.700  64.858  1.00  0.00     0.160 A 
ATOM      9  C   UNL     1      73.777  81.400  65.353  1.00  0.00     0.157 A 
ATOM     10  C   UNL     1      74.606  83.631  64.829  1.00  0.00     0.056 A 
ATOM     11  C   UNL     1      75.059  81.035  65.804  1.00  0.00     0.050 A 
ATOM     12  C   UNL     1      76.116  81.959  65.750  1.00  0.00     0.009 A 
BRANCH   8  13
ATOM     13  O   UNL     1      72.300  83.082  64.433  1.00  0.00    -0.493 OA
ATOM     14  C   UNL     1      72.281  84.351  63.752  1.00  0.00     0.278 C 
ENDBRANCH   8  13
BRANCH   9  15
ATOM     15  O   UNL     1      72.763  80.498  65.388  1.00  0.00    -0.504 OA
ATOM     16  H   UNL     1      72.303  80.502  64.545  1.00  0.00     0.293 HD
ENDBRANCH   9  15
ENDBRANCH   6   7
ENDBRANCH   3   6
ENDBRANCH   1   2
BRANCH   1  17
ATOM     17  C   UNL     1      77.966  85.262  69.846  1.00  0.00     0.010 C 
BRANCH  17  18
ATOM     18  C   UNL     1      76.672  84.404  69.891  1.00  0.00     0.001 C 
BRANCH  18  19
ATOM     19  C   UNL     1      75.557  85.016  70.779  1.00  0.00     0.000 C 
BRANCH  19  20
ATOM     20  C   UNL     1      74.840  86.210  70.083  1.00  0.00     0.003 C 
BRANCH  20  21
ATOM     21  C   UNL     1      75.236  87.623  70.623  1.00  0.00    -0.017 C 
ATOM     22  C   UNL     1      74.002  88.349  71.236  1.00  0.00     0.007 C 
ATOM     23  C   UNL     1      75.899  88.521  69.539  1.00  0.00     0.007 C 
ENDBRANCH  20  21
ENDBRANCH  19  20
ENDBRANCH  18  19
ENDBRANCH  17  18
ENDBRANCH   1  17
TORSDOF 10
ENDMDL
MODEL 5
REMARK VINA RESULT:    -5.741     22.520     25.402
REMARK INTER + INTRA:          -9.981
REMARK INTER:                  -8.482
REMARK INTRA:                  -1.499
REMARK UNBOUND:                -1.051
REMARK SMILES COc1cc(CNC(=O)CCCCCC(C)C)ccc1O
REMARK SMILES IDX 10 1 8 2 7 3 9 5 6 6 5 7 3 8 20 9 4 10 19 11 18 12 2 13 1 14
REMARK SMILES IDX 21 15 11 17 12 18 13 19 14 20 15 21 16 22 17 23
REMARK H PARENT 7 4 21 16
REMARK Flexibility Score: inf
ROOT
ATOM      1  C   UNL     1      76.615  88.053  67.032  1.00  0.00     0.100 C 
ENDROOT
BRANCH   1   2
ATOM      2  C   UNL     1      77.075  86.931  66.187  1.00  0.00     0.220 C 
ATOM      3  N   UNL     1      77.289  85.710  66.754  1.00  0.00    -0.352 N 
ATOM      4  H   UNL     1      77.241  85.696  67.763  1.00  0.00     0.163 HD
ATOM      5  O   UNL     1      77.219  87.117  64.954  1.00  0.00    -0.275 OA
BRANCH   3   6
ATOM      6  C   UNL     1      77.565  84.508  66.035  1.00  0.00     0.151 C 
BRANCH   6   7
ATOM      7  C   UNL     1      76.422  83.554  66.032  1.00  0.00    -0.025 A 
ATOM      8  C   UNL     1      74.041  83.079  66.418  1.00  0.00     0.160 A 
ATOM      9  C   UNL     1      74.233  81.757  65.962  1.00  0.00     0.157 A 
ATOM     10  C   UNL     1      75.139  83.963  66.467  1.00  0.00     0.056 A 
ATOM     11  C   UNL     1      75.510  81.333  65.552  1.00  0.00     0.050 A 
ATOM     12  C   UNL     1      76.595  82.225  65.581  1.00  0.00     0.009 A 
BRANCH   8  13
ATOM     13  O   UNL     1      72.809  83.507  66.840  1.00  0.00    -0.493 OA
ATOM     14  C   UNL     1      72.677  84.940  66.890  1.00  0.00     0.278 C 
ENDBRANCH   8  13
BRANCH   9  15
ATOM     15  O   UNL     1      73.184  80.899  65.912  1.00  0.00    -0.504 OA
ATOM     16  H   UNL     1      73.286  80.312  65.159  1.00  0.00     0.293 HD
ENDBRANCH   9  15
ENDBRANCH   6   7
ENDBRANCH   3   6
ENDBRANCH   1   2
BRANCH   1  17
ATOM     17  C   UNL     1      75.369  87.729  67.900  1.00  0.00     0.010 C 
BRANCH  17  18
ATOM     18  C   UNL     1      75.536  88.244  69.356  1.00  0.00     0.001 C 
BRANCH  18  19
ATOM     19  C   UNL     1      75.316  87.143  70.428  1.00  0.00     0.000 C 
BRANCH  19  20
ATOM     20  C   UNL     1      75.161  85.729  69.796  1.00  0.00     0.003 C 
BRANCH  20  21
ATOM     21  C   UNL     1      76.289  84.712  70.168  1.00  0.00    -0.017 C 
ATOM     22  C   UNL     1      75.980  84.013  71.525  1.00  0.00     0.007 C 
ATOM     23  C   UNL     1      77.701  85.365  70.214  1.00  0.00     0.007 C 
ENDBRANCH  20  21
ENDBRANCH  19  20
ENDBRANCH  18  19
ENDBRANCH  17  18
ENDBRANCH   1  17
TORSDOF 10
ENDMDL
MODEL 6
REMARK VINA RESULT:    -5.492     12.728     14.499
REMARK INTER + INTRA:          -9.593
REMARK INTER:                  -8.766
REMARK INTRA:                  -0.827
REMARK UNBOUND:                -1.051
REMARK SMILES COc1cc(CNC(=O)CCCCCC(C)C)ccc1O
REMARK SMILES IDX 10 1 8 2 7 3 9 5 6 6 5 7 3 8 20 9 4 10 19 11 18 12 2 13 1 14
REMARK SMILES IDX 21 15 11 17 12 18 13 19 14 20 15 21 16 22 17 23
REMARK H PARENT 7 4 21 16
REMARK Flexibility Score: inf
ROOT
ATOM      1  C   UNL     1      98.860  83.274  79.586  1.00  0.00     0.100 C 
ENDROOT
BRANCH   1   2
ATOM      2  C   UNL     1      99.011  82.410  80.776  1.00  0.00     0.220 C 
ATOM      3  N   UNL     1      99.183  82.983  82.001  1.00  0.00    -0.352 N 
ATOM      4  H   UNL     1      99.329  83.982  81.987  1.00  0.00     0.163 HD
ATOM      5  O   UNL     1      98.934  81.165  80.639  1.00  0.00    -0.275 OA
BRANCH   3   6
ATOM      6  C   UNL     1      99.167  82.282  83.245  1.00  0.00     0.151 C 
BRANCH   6   7
ATOM      7  C   UNL     1      98.024  82.664  84.117  1.00  0.00    -0.025 A 
ATOM      8  C   UNL     1      96.404  82.100  85.879  1.00  0.00     0.160 A 
ATOM      9  C   UNL     1      95.891  83.413  85.825  1.00  0.00     0.157 A 
ATOM     10  C   UNL     1      97.454  81.728  85.013  1.00  0.00     0.056 A 
ATOM     11  C   UNL     1      96.432  84.344  84.920  1.00  0.00     0.050 A 
ATOM     12  C   UNL     1      97.494  83.975  84.076  1.00  0.00     0.009 A 
BRANCH   8  13
ATOM     13  O   UNL     1      95.879  81.172  86.740  1.00  0.00    -0.493 OA
ATOM     14  C   UNL     1      96.871  80.450  87.495  1.00  0.00     0.278 C 
ENDBRANCH   8  13
BRANCH   9  15
ATOM     15  O   UNL     1      94.880  83.779  86.652  1.00  0.00    -0.504 OA
ATOM     16  H   UNL     1      95.230  84.317  87.366  1.00  0.00     0.293 HD
ENDBRANCH   9  15
ENDBRANCH   6   7
ENDBRANCH   3   6
ENDBRANCH   1   2
BRANCH   1  17
ATOM     17  C   UNL     1      97.418  83.329  79.016  1.00  0.00     0.010 C 
BRANCH  17  18
ATOM     18  C   UNL     1      97.416  83.335  77.462  1.00  0.00     0.001 C 
BRANCH  18  19
ATOM     19  C   UNL     1      98.026  84.623  76.850  1.00  0.00     0.000 C 
BRANCH  19  20
ATOM     20  C   UNL     1      99.162  84.310  75.833  1.00  0.00     0.003 C 
BRANCH  20  21
ATOM     21  C   UNL     1     100.194  83.234  76.306  1.00  0.00    -0.017 C 
ATOM     22  C   UNL     1     101.526  83.902  76.757  1.00  0.00     0.007 C 
ATOM     23  C   UNL     1     100.479  82.153  75.223  1.00  0.00     0.007 C 
ENDBRANCH  20  21
ENDBRANCH  19  20
ENDBRANCH  18  19
ENDBRANCH  17  18
ENDBRANCH   1  17
TORSDOF 10
ENDMDL
MODEL 7
REMARK VINA RESULT:    -5.455     22.863     26.118
REMARK INTER + INTRA:          -9.536
REMARK INTER:                  -8.074
REMARK INTRA:                  -1.462
REMARK UNBOUND:                -1.051
REMARK SMILES COc1cc(CNC(=O)CCCCCC(C)C)ccc1O
REMARK SMILES IDX 10 1 8 2 7 3 9 5 6 6 5 7 3 8 20 9 4 10 19 11 18 12 2 13 1 14
REMARK SMILES IDX 21 15 11 17 12 18 13 19 14 20 15 21 16 22 17 23
REMARK H PARENT 7 4 21 16
REMARK Flexibility Score: inf
ROOT
ATOM      1  C   UNL     1      77.249  87.686  67.052  1.00  0.00     0.100 C 
ENDROOT
BRANCH   1   2
ATOM      2  C   UNL     1      77.093  86.821  65.864  1.00  0.00     0.220 C 
ATOM      3  N   UNL     1      76.764  85.509  66.031  1.00  0.00    -0.352 N 
ATOM      4  H   UNL     1      76.779  85.185  66.988  1.00  0.00     0.163 HD
ATOM      5  O   UNL     1      77.225  87.324  64.722  1.00  0.00    -0.275 OA
BRANCH   3   6
ATOM      6  C   UNL     1      76.414  84.609  64.979  1.00  0.00     0.151 C 
BRANCH   6   7
ATOM      7  C   UNL     1      75.240  83.755  65.306  1.00  0.00    -0.025 A 
ATOM      8  C   UNL     1      73.966  81.674  65.001  1.00  0.00     0.160 A 
ATOM      9  C   UNL     1      73.042  82.100  65.978  1.00  0.00     0.157 A 
ATOM     10  C   UNL     1      75.049  82.512  64.658  1.00  0.00     0.056 A 
ATOM     11  C   UNL     1      73.208  83.346  66.610  1.00  0.00     0.050 A 
ATOM     12  C   UNL     1      74.301  84.165  66.281  1.00  0.00     0.009 A 
BRANCH   8  13
ATOM     13  O   UNL     1      73.812  80.473  64.360  1.00  0.00    -0.493 OA
ATOM     14  C   UNL     1      73.603  80.594  62.940  1.00  0.00     0.278 C 
ENDBRANCH   8  13
BRANCH   9  15
ATOM     15  O   UNL     1      71.996  81.303  66.314  1.00  0.00    -0.504 OA
ATOM     16  H   UNL     1      71.661  81.561  67.175  1.00  0.00     0.293 HD
ENDBRANCH   9  15
ENDBRANCH   6   7
ENDBRANCH   3   6
ENDBRANCH   1   2
BRANCH   1  17
ATOM     17  C   UNL     1      75.976  87.798  67.932  1.00  0.00     0.010 C 
BRANCH  17  18
ATOM     18  C   UNL     1      76.330  87.885  69.443  1.00  0.00     0.001 C 
BRANCH  18  19
ATOM     19  C   UNL     1      75.533  86.885  70.321  1.00  0.00     0.000 C 
BRANCH  19  20
ATOM     20  C   UNL     1      75.145  85.596  69.540  1.00  0.00     0.003 C 
BRANCH  20  21
ATOM     21  C   UNL     1      75.991  84.330  69.893  1.00  0.00    -0.017 C 
ATOM     22  C   UNL     1      76.088  84.139  71.436  1.00  0.00     0.007 C 
ATOM     23  C   UNL     1      77.416  84.361  69.269  1.00  0.00     0.007 C 
ENDBRANCH  20  21
ENDBRANCH  19  20
ENDBRANCH  18  19
ENDBRANCH  17  18
ENDBRANCH   1  17
TORSDOF 10
ENDMDL
MODEL 8
REMARK VINA RESULT:    -5.421     22.551     25.409
REMARK INTER + INTRA:          -9.483
REMARK INTER:                  -7.533
REMARK INTRA:                  -1.950
REMARK UNBOUND:                -1.051
REMARK SMILES COc1cc(CNC(=O)CCCCCC(C)C)ccc1O
REMARK SMILES IDX 10 1 8 2 7 3 9 5 6 6 5 7 3 8 20 9 4 10 19 11 18 12 2 13 1 14
REMARK SMILES IDX 21 15 11 17 12 18 13 19 14 20 15 21 16 22 17 23
REMARK H PARENT 7 4 21 16
REMARK Flexibility Score: inf
ROOT
ATOM      1  C   UNL     1      73.267  83.822  63.817  1.00  0.00     0.100 C 
ENDROOT
BRANCH   1   2
ATOM      2  C   UNL     1      74.130  85.022  63.834  1.00  0.00     0.220 C 
ATOM      3  N   UNL     1      73.998  85.928  64.844  1.00  0.00    -0.352 N 
ATOM      4  H   UNL     1      73.207  85.772  65.454  1.00  0.00     0.163 HD
ATOM      5  O   UNL     1      74.997  85.161  62.938  1.00  0.00    -0.275 OA
BRANCH   3   6
ATOM      6  C   UNL     1      74.873  87.032  65.078  1.00  0.00     0.151 C 
BRANCH   6   7
ATOM      7  C   UNL     1      75.764  86.831  66.252  1.00  0.00    -0.025 A 
ATOM      8  C   UNL     1      76.160  85.907  68.496  1.00  0.00     0.160 A 
ATOM      9  C   UNL     1      77.485  86.393  68.460  1.00  0.00     0.157 A 
ATOM     10  C   UNL     1      75.303  86.145  67.400  1.00  0.00     0.056 A 
ATOM     11  C   UNL     1      77.945  87.099  67.334  1.00  0.00     0.050 A 
ATOM     12  C   UNL     1      77.095  87.312  66.236  1.00  0.00     0.009 A 
BRANCH   8  13
ATOM     13  O   UNL     1      75.686  85.233  69.591  1.00  0.00    -0.493 OA
ATOM     14  C   UNL     1      74.844  86.031  70.445  1.00  0.00     0.278 C 
ENDBRANCH   8  13
BRANCH   9  15
ATOM     15  O   UNL     1      78.316  86.171  69.509  1.00  0.00    -0.504 OA
ATOM     16  H   UNL     1      78.764  86.987  69.741  1.00  0.00     0.293 HD
ENDBRANCH   9  15
ENDBRANCH   6   7
ENDBRANCH   3   6
ENDBRANCH   1   2
BRANCH   1  17
ATOM     17  C   UNL     1      74.001  82.504  64.183  1.00  0.00     0.010 C 
BRANCH  17  18
ATOM     18  C   UNL     1      74.276  82.406  65.709  1.00  0.00     0.001 C 
BRANCH  18  19
ATOM     19  C   UNL     1      75.323  81.322  66.077  1.00  0.00     0.000 C 
BRANCH  19  20
ATOM     20  C   UNL     1      76.763  81.724  65.647  1.00  0.00     0.003 C 
BRANCH  20  21
ATOM     21  C   UNL     1      77.159  83.202  65.964  1.00  0.00    -0.017 C 
ATOM     22  C   UNL     1      77.576  83.957  64.667  1.00  0.00     0.007 C 
ATOM     23  C   UNL     1      78.288  83.311  67.031  1.00  0.00     0.007 C 
ENDBRANCH  20  21
ENDBRANCH  19  20
ENDBRANCH  18  19
ENDBRANCH  17  18
ENDBRANCH   1  17
TORSDOF 10
ENDMDL
MODEL 9
REMARK VINA RESULT:    -5.327     29.923     33.023
REMARK INTER + INTRA:          -9.336
REMARK INTER:                  -8.321
REMARK INTRA:                  -1.016
REMARK UNBOUND:                -1.051
REMARK SMILES COc1cc(CNC(=O)CCCCCC(C)C)ccc1O
REMARK SMILES IDX 10 1 8 2 7 3 9 5 6 6 5 7 3 8 20 9 4 10 19 11 18 12 2 13 1 14
REMARK SMILES IDX 21 15 11 17 12 18 13 19 14 20 15 21 16 22 17 23
REMARK H PARENT 7 4 21 16
REMARK Flexibility Score: inf
ROOT
ATOM      1  C   UNL     1      62.212  81.596  73.537  1.00  0.00     0.100 C 
ENDROOT
BRANCH   1   2
ATOM      2  C   UNL     1      62.121  82.748  74.457  1.00  0.00     0.220 C 
ATOM      3  N   UNL     1      62.864  82.752  75.600  1.00  0.00    -0.352 N 
ATOM      4  H   UNL     1      63.336  81.882  75.803  1.00  0.00     0.163 HD
ATOM      5  O   UNL     1      61.393  83.721  74.145  1.00  0.00    -0.275 OA
BRANCH   3   6
ATOM      6  C   UNL     1      63.005  83.864  76.485  1.00  0.00     0.151 C 
BRANCH   6   7
ATOM      7  C   UNL     1      64.424  84.237  76.732  1.00  0.00    -0.025 A 
ATOM      8  C   UNL     1      66.268  84.692  78.294  1.00  0.00     0.160 A 
ATOM      9  C   UNL     1      67.143  84.881  77.203  1.00  0.00     0.157 A 
ATOM     10  C   UNL     1      64.911  84.390  78.052  1.00  0.00     0.056 A 
ATOM     11  C   UNL     1      66.663  84.758  75.886  1.00  0.00     0.050 A 
ATOM     12  C   UNL     1      65.316  84.433  75.652  1.00  0.00     0.009 A 
BRANCH   8  13
ATOM     13  O   UNL     1      66.711  84.827  79.584  1.00  0.00    -0.493 OA
ATOM     14  C   UNL     1      66.698  83.598  80.335  1.00  0.00     0.278 C 
ENDBRANCH   8  13
BRANCH   9  15
ATOM     15  O   UNL     1      68.449  85.174  77.425  1.00  0.00    -0.504 OA
ATOM     16  H   UNL     1      68.521  86.061  77.787  1.00  0.00     0.293 HD
ENDBRANCH   9  15
ENDBRANCH   6   7
ENDBRANCH   3   6
ENDBRANCH   1   2
BRANCH   1  17
ATOM     17  C   UNL     1      63.663  81.145  73.218  1.00  0.00     0.010 C 
BRANCH  17  18
ATOM     18  C   UNL     1      64.420  82.209  72.375  1.00  0.00     0.001 C 
BRANCH  18  19
ATOM     19  C   UNL     1      64.993  81.648  71.047  1.00  0.00     0.000 C 
BRANCH  19  20
ATOM     20  C   UNL     1      65.160  82.754  69.965  1.00  0.00     0.003 C 
BRANCH  20  21
ATOM     21  C   UNL     1      63.933  82.937  69.013  1.00  0.00    -0.017 C 
ATOM     22  C   UNL     1      63.072  84.161  69.446  1.00  0.00     0.007 C 
ATOM     23  C   UNL     1      63.042  81.664  68.923  1.00  0.00     0.007 C 
ENDBRANCH  20  21
ENDBRANCH  19  20
ENDBRANCH  18  19
ENDBRANCH  17  18
ENDBRANCH   1  17
TORSDOF 10
ENDMDL
MODEL 10
REMARK VINA RESULT:    -5.269      1.836      2.894
REMARK INTER + INTRA:          -9.246
REMARK INTER:                  -8.421
REMARK INTRA:                  -0.825
REMARK UNBOUND:                -1.051
REMARK SMILES COc1cc(CNC(=O)CCCCCC(C)C)ccc1O
REMARK SMILES IDX 10 1 8 2 7 3 9 5 6 6 5 7 3 8 20 9 4 10 19 11 18 12 2 13 1 14
REMARK SMILES IDX 21 15 11 17 12 18 13 19 14 20 15 21 16 22 17 23
REMARK H PARENT 7 4 21 16
REMARK Flexibility Score: inf
ROOT
ATOM      1  C   UNL     1      92.649  96.317  76.711  1.00  0.00     0.100 C 
ENDROOT
BRANCH   1   2
ATOM      2  C   UNL     1      93.919  96.867  77.230  1.00  0.00     0.220 C 
ATOM      3  N   UNL     1      94.513  96.280  78.307  1.00  0.00    -0.352 N 
ATOM      4  H   UNL     1      93.958  95.570  78.764  1.00  0.00     0.163 HD
ATOM      5  O   UNL     1      94.446  97.842  76.640  1.00  0.00    -0.275 OA
BRANCH   3   6
ATOM      6  C   UNL     1      95.815  96.596  78.801  1.00  0.00     0.151 C 
BRANCH   6   7
ATOM      7  C   UNL     1      95.864  96.716  80.283  1.00  0.00    -0.025 A 
ATOM      8  C   UNL     1      97.155  96.971  82.360  1.00  0.00     0.160 A 
ATOM      9  C   UNL     1      95.954  97.011  83.099  1.00  0.00     0.157 A 
ATOM     10  C   UNL     1      97.103  96.805  80.960  1.00  0.00     0.056 A 
ATOM     11  C   UNL     1      94.716  96.896  82.440  1.00  0.00     0.050 A 
ATOM     12  C   UNL     1      94.671  96.755  81.042  1.00  0.00     0.009 A 
BRANCH   8  13
ATOM     13  O   UNL     1      98.371  97.061  82.985  1.00  0.00    -0.493 OA
ATOM     14  C   UNL     1      99.006  98.346  82.840  1.00  0.00     0.278 C 
ENDBRANCH   8  13
BRANCH   9  15
ATOM     15  O   UNL     1      95.993  97.168  84.446  1.00  0.00    -0.504 OA
ATOM     16  H   UNL     1      96.825  97.575  84.697  1.00  0.00     0.293 HD
ENDBRANCH   9  15
ENDBRANCH   6   7
ENDBRANCH   3   6
ENDBRANCH   1   2
BRANCH   1  17
ATOM     17  C   UNL     1      91.662  95.842  77.812  1.00  0.00     0.010 C 
BRANCH  17  18
ATOM     18  C   UNL     1      90.221  95.677  77.256  1.00  0.00     0.001 C 
BRANCH  18  19
ATOM     19  C   UNL     1      89.412  94.557  77.962  1.00  0.00     0.000 C 
BRANCH  19  20
ATOM     20  C   UNL     1      89.829  93.137  77.479  1.00  0.00     0.003 C 
BRANCH  20  21
ATOM     21  C   UNL     1      90.385  93.073  76.019  1.00  0.00    -0.017 C 
ATOM     22  C   UNL     1      89.223  92.966  74.987  1.00  0.00     0.007 C 
ATOM     23  C   UNL     1      91.396  91.909  75.808  1.00  0.00     0.007 C 
ENDBRANCH  20  21
ENDBRANCH  19  20
ENDBRANCH  18  19
ENDBRANCH  17  18
ENDBRANCH   1  17
TORSDOF 10
ENDMDL
