MODEL 1
REMARK VINA RESULT:    -6.592      0.000      0.000
REMARK INTER + INTRA:         -11.207
REMARK INTER:                 -10.638
REMARK INTRA:                  -0.569
REMARK UNBOUND:                -0.569
REMARK SMILES COc1cc(CNC(=O)CCCCCCC(C)C)ccc1O
REMARK SMILES IDX 11 1 10 2 8 3 7 4 9 6 6 7 5 8 3 9 21 10 4 11 20 12 19 13
REMARK SMILES IDX 2 14 1 15 22 16 12 18 13 19 14 20 15 21 16 22 17 23 18 24
REMARK H PARENT 7 5 22 17
REMARK Flexibility Score: inf
ROOT
ATOM      1  C   UNL     1      97.064  82.113  80.891  1.00  0.00     0.010 C 
ENDROOT
BRANCH   1   2
ATOM      2  C   UNL     1      97.271  82.572  82.361  1.00  0.00     0.100 C 
BRANCH   2   3
ATOM      3  C   UNL     1      96.036  83.086  82.993  1.00  0.00     0.220 C 
ATOM      4  N   UNL     1      95.198  82.239  83.659  1.00  0.00    -0.352 N 
ATOM      5  H   UNL     1      95.475  81.268  83.635  1.00  0.00     0.163 HD
ATOM      6  O   UNL     1      95.791  84.315  82.923  1.00  0.00    -0.275 OA
BRANCH   4   7
ATOM      7  C   UNL     1      94.010  82.630  84.355  1.00  0.00     0.151 C 
BRANCH   7   8
ATOM      8  C   UNL     1      92.994  81.545  84.436  1.00  0.00    -0.025 A 
ATOM      9  C   UNL     1      90.656  80.800  84.264  1.00  0.00     0.160 A 
ATOM     10  C   UNL     1      91.056  79.475  84.545  1.00  0.00     0.157 A 
ATOM     11  C   UNL     1      91.624  81.826  84.231  1.00  0.00     0.056 A 
ATOM     12  C   UNL     1      92.411  79.189  84.790  1.00  0.00     0.050 A 
ATOM     13  C   UNL     1      93.376  80.214  84.726  1.00  0.00     0.009 A 
BRANCH   9  14
ATOM     14  O   UNL     1      89.335  81.096  84.064  1.00  0.00    -0.493 OA
ATOM     15  C   UNL     1      88.818  82.084  84.973  1.00  0.00     0.278 C 
ENDBRANCH   9  14
BRANCH  10  16
ATOM     16  O   UNL     1      90.145  78.467  84.586  1.00  0.00    -0.504 OA
ATOM     17  H   UNL     1      90.379  77.853  85.286  1.00  0.00     0.293 HD
ENDBRANCH  10  16
ENDBRANCH   7   8
ENDBRANCH   4   7
ENDBRANCH   2   3
ENDBRANCH   1   2
BRANCH   1  18
ATOM     18  C   UNL     1      97.533  83.188  79.869  1.00  0.00     0.001 C 
BRANCH  18  19
ATOM     19  C   UNL     1      97.451  82.722  78.388  1.00  0.00     0.000 C 
BRANCH  19  20
ATOM     20  C   UNL     1      96.436  83.574  77.576  1.00  0.00     0.000 C 
BRANCH  20  21
ATOM     21  C   UNL     1      97.068  84.372  76.403  1.00  0.00     0.003 C 
BRANCH  21  22
ATOM     22  C   UNL     1      97.944  83.515  75.431  1.00  0.00    -0.017 C 
ATOM     23  C   UNL     1      99.439  83.928  75.539  1.00  0.00     0.007 C 
ATOM     24  C   UNL     1      97.470  83.570  73.949  1.00  0.00     0.007 C 
ENDBRANCH  21  22
ENDBRANCH  20  21
ENDBRANCH  19  20
ENDBRANCH  18  19
ENDBRANCH   1  18
TORSDOF 11
ENDMDL
MODEL 2
REMARK VINA RESULT:    -5.823     16.493     20.078
REMARK INTER + INTRA:          -9.967
REMARK INTER:                  -9.276
REMARK INTRA:                  -0.691
REMARK UNBOUND:                -0.569
REMARK SMILES COc1cc(CNC(=O)CCCCCCC(C)C)ccc1O
REMARK SMILES IDX 11 1 10 2 8 3 7 4 9 6 6 7 5 8 3 9 21 10 4 11 20 12 19 13
REMARK SMILES IDX 2 14 1 15 22 16 12 18 13 19 14 20 15 21 16 22 17 23 18 24
REMARK H PARENT 7 5 22 17
REMARK Flexibility Score: inf
ROOT
ATOM      1  C   UNL     1      94.128  96.573  74.800  1.00  0.00     0.010 C 
ENDROOT
BRANCH   1   2
ATOM      2  C   UNL     1      94.404  98.033  74.346  1.00  0.00     0.100 C 
BRANCH   2   3
ATOM      3  C   UNL     1      94.366  98.205  72.876  1.00  0.00     0.220 C 
ATOM      4  N   UNL     1      93.777  99.307  72.327  1.00  0.00    -0.352 N 
ATOM      5  H   UNL     1      93.353  99.934  72.994  1.00  0.00     0.163 HD
ATOM      6  O   UNL     1      94.906  97.332  72.154  1.00  0.00    -0.275 OA
BRANCH   4   7
ATOM      7  C   UNL     1      93.732  99.608  70.928  1.00  0.00     0.151 C 
BRANCH   7   8
ATOM      8  C   UNL     1      92.396 100.084  70.474  1.00  0.00    -0.025 A 
ATOM      9  C   UNL     1      90.109 100.825  70.994  1.00  0.00     0.160 A 
ATOM     10  C   UNL     1      89.862 101.035  69.620  1.00  0.00     0.157 A 
ATOM     11  C   UNL     1      91.366 100.334  71.408  1.00  0.00     0.056 A 
ATOM     12  C   UNL     1      90.867 100.752  68.677  1.00  0.00     0.050 A 
ATOM     13  C   UNL     1      92.129 100.291  69.100  1.00  0.00     0.009 A 
BRANCH   9  14
ATOM     14  O   UNL     1      89.126 101.058  71.916  1.00  0.00    -0.493 OA
ATOM     15  C   UNL     1      89.535 101.918  72.995  1.00  0.00     0.278 C 
ENDBRANCH   9  14
BRANCH  10  16
ATOM     16  O   UNL     1      88.661 101.505  69.192  1.00  0.00    -0.504 OA
ATOM     17  H   UNL     1      88.602 101.409  68.238  1.00  0.00     0.293 HD
ENDBRANCH  10  16
ENDBRANCH   7   8
ENDBRANCH   4   7
ENDBRANCH   2   3
ENDBRANCH   1   2
BRANCH   1  18
ATOM     18  C   UNL     1      94.438  96.359  76.309  1.00  0.00     0.001 C 
BRANCH  18  19
ATOM     19  C   UNL     1      93.226  96.635  77.243  1.00  0.00     0.000 C 
BRANCH  19  20
ATOM     20  C   UNL     1      91.914  96.028  76.672  1.00  0.00     0.000 C 
BRANCH  20  21
ATOM     21  C   UNL     1      91.378  94.806  77.468  1.00  0.00     0.003 C 
BRANCH  21  22
ATOM     22  C   UNL     1      90.059  94.187  76.899  1.00  0.00    -0.017 C 
ATOM     23  C   UNL     1      89.926  92.699  77.331  1.00  0.00     0.007 C 
ATOM     24  C   UNL     1      89.921  94.321  75.354  1.00  0.00     0.007 C 
ENDBRANCH  21  22
ENDBRANCH  20  21
ENDBRANCH  19  20
ENDBRANCH  18  19
ENDBRANCH   1  18
TORSDOF 11
ENDMDL
MODEL 3
REMARK VINA RESULT:    -5.608      5.938      7.465
REMARK INTER + INTRA:          -9.619
REMARK INTER:                  -8.325
REMARK INTRA:                  -1.295
REMARK UNBOUND:                -0.569
REMARK SMILES COc1cc(CNC(=O)CCCCCCC(C)C)ccc1O
REMARK SMILES IDX 11 1 10 2 8 3 7 4 9 6 6 7 5 8 3 9 21 10 4 11 20 12 19 13
REMARK SMILES IDX 2 14 1 15 22 16 12 18 13 19 14 20 15 21 16 22 17 23 18 24
REMARK H PARENT 7 5 22 17
REMARK Flexibility Score: inf
ROOT
ATOM      1  C   UNL     1      93.968  84.441  88.619  1.00  0.00     0.010 C 
ENDROOT
BRANCH   1   2
ATOM      2  C   UNL     1      93.222  84.899  87.335  1.00  0.00     0.100 C 
BRANCH   2   3
ATOM      3  C   UNL     1      93.379  83.960  86.202  1.00  0.00     0.220 C 
ATOM      4  N   UNL     1      92.286  83.357  85.650  1.00  0.00    -0.352 N 
ATOM      5  H   UNL     1      91.411  83.573  86.105  1.00  0.00     0.163 HD
ATOM      6  O   UNL     1      94.530  83.753  85.747  1.00  0.00    -0.275 OA
BRANCH   4   7
ATOM      7  C   UNL     1      92.309  82.480  84.519  1.00  0.00     0.151 C 
BRANCH   7   8
ATOM      8  C   UNL     1      91.073  81.662  84.386  1.00  0.00    -0.025 A 
ATOM      9  C   UNL     1      88.620  81.490  84.415  1.00  0.00     0.160 A 
ATOM     10  C   UNL     1      88.709  80.119  84.089  1.00  0.00     0.157 A 
ATOM     11  C   UNL     1      89.800  82.245  84.579  1.00  0.00     0.056 A 
ATOM     12  C   UNL     1      89.971  79.518  83.933  1.00  0.00     0.050 A 
ATOM     13  C   UNL     1      91.145  80.285  84.069  1.00  0.00     0.009 A 
BRANCH   9  14
ATOM     14  O   UNL     1      87.398  82.076  84.608  1.00  0.00    -0.493 OA
ATOM     15  C   UNL     1      87.381  83.488  84.330  1.00  0.00     0.278 C 
ENDBRANCH   9  14
BRANCH  10  16
ATOM     16  O   UNL     1      87.589  79.367  83.927  1.00  0.00    -0.504 OA
ATOM     17  H   UNL     1      87.767  78.660  83.302  1.00  0.00     0.293 HD
ENDBRANCH  10  16
ENDBRANCH   7   8
ENDBRANCH   4   7
ENDBRANCH   2   3
ENDBRANCH   1   2
BRANCH   1  18
ATOM     18  C   UNL     1      93.764  82.927  88.908  1.00  0.00     0.001 C 
BRANCH  18  19
ATOM     19  C   UNL     1      95.088  82.111  88.936  1.00  0.00     0.000 C 
BRANCH  19  20
ATOM     20  C   UNL     1      94.817  80.585  89.056  1.00  0.00     0.000 C 
BRANCH  20  21
ATOM     21  C   UNL     1      95.323  79.751  87.846  1.00  0.00     0.003 C 
BRANCH  21  22
ATOM     22  C   UNL     1      94.245  79.481  86.746  1.00  0.00    -0.017 C 
ATOM     23  C   UNL     1      94.685  80.098  85.389  1.00  0.00     0.007 C 
ATOM     24  C   UNL     1      92.819  79.975  87.132  1.00  0.00     0.007 C 
ENDBRANCH  21  22
ENDBRANCH  20  21
ENDBRANCH  19  20
ENDBRANCH  18  19
ENDBRANCH   1  18
TORSDOF 11
ENDMDL
MODEL 4
REMARK VINA RESULT:    -5.569     16.593     20.068
REMARK INTER + INTRA:          -9.557
REMARK INTER:                  -8.629
REMARK INTRA:                  -0.928
REMARK UNBOUND:                -0.569
REMARK SMILES COc1cc(CNC(=O)CCCCCCC(C)C)ccc1O
REMARK SMILES IDX 11 1 10 2 8 3 7 4 9 6 6 7 5 8 3 9 21 10 4 11 20 12 19 13
REMARK SMILES IDX 2 14 1 15 22 16 12 18 13 19 14 20 15 21 16 22 17 23 18 24
REMARK H PARENT 7 5 22 17
REMARK Flexibility Score: inf
ROOT
ATOM      1  C   UNL     1      95.261  97.615  74.342  1.00  0.00     0.010 C 
ENDROOT
BRANCH   1   2
ATOM      2  C   UNL     1      95.366  97.077  72.889  1.00  0.00     0.100 C 
BRANCH   2   3
ATOM      3  C   UNL     1      94.911  98.049  71.870  1.00  0.00     0.220 C 
ATOM      4  N   UNL     1      93.752  98.746  72.051  1.00  0.00    -0.352 N 
ATOM      5  H   UNL     1      93.242  98.504  72.888  1.00  0.00     0.163 HD
ATOM      6  O   UNL     1      95.625  98.235  70.854  1.00  0.00    -0.275 OA
BRANCH   4   7
ATOM      7  C   UNL     1      93.244  99.750  71.166  1.00  0.00     0.151 C 
BRANCH   7   8
ATOM      8  C   UNL     1      92.284 100.679  71.822  1.00  0.00    -0.025 A 
ATOM      9  C   UNL     1      90.100 101.809  71.856  1.00  0.00     0.160 A 
ATOM     10  C   UNL     1      90.429 102.414  73.088  1.00  0.00     0.157 A 
ATOM     11  C   UNL     1      91.035 100.963  71.224  1.00  0.00     0.056 A 
ATOM     12  C   UNL     1      91.684 102.170  73.674  1.00  0.00     0.050 A 
ATOM     13  C   UNL     1      92.602 101.301  73.053  1.00  0.00     0.009 A 
BRANCH   9  14
ATOM     14  O   UNL     1      88.897 102.071  71.257  1.00  0.00    -0.493 OA
ATOM     15  C   UNL     1      88.505 101.083  70.286  1.00  0.00     0.278 C 
ENDBRANCH   9  14
BRANCH  10  16
ATOM     16  O   UNL     1      89.548 103.235  73.719  1.00  0.00    -0.504 OA
ATOM     17  H   UNL     1      89.932 104.111  73.802  1.00  0.00     0.293 HD
ENDBRANCH  10  16
ENDBRANCH   7   8
ENDBRANCH   4   7
ENDBRANCH   2   3
ENDBRANCH   1   2
BRANCH   1  18
ATOM     18  C   UNL     1      94.079  96.973  75.123  1.00  0.00     0.001 C 
BRANCH  18  19
ATOM     19  C   UNL     1      93.695  95.552  74.620  1.00  0.00     0.000 C 
BRANCH  19  20
ATOM     20  C   UNL     1      92.287  95.128  75.124  1.00  0.00     0.000 C 
BRANCH  20  21
ATOM     21  C   UNL     1      91.777  95.940  76.347  1.00  0.00     0.003 C 
BRANCH  21  22
ATOM     22  C   UNL     1      91.667  95.119  77.673  1.00  0.00    -0.017 C 
ATOM     23  C   UNL     1      93.079  94.846  78.262  1.00  0.00     0.007 C 
ATOM     24  C   UNL     1      90.873  93.788  77.520  1.00  0.00     0.007 C 
ENDBRANCH  21  22
ENDBRANCH  20  21
ENDBRANCH  19  20
ENDBRANCH  18  19
ENDBRANCH   1  18
TORSDOF 11
ENDMDL
MODEL 5
REMARK VINA RESULT:    -5.505      3.678     10.260
REMARK INTER + INTRA:          -9.453
REMARK INTER:                  -8.972
REMARK INTRA:                  -0.481
REMARK UNBOUND:                -0.569
REMARK SMILES COc1cc(CNC(=O)CCCCCCC(C)C)ccc1O
REMARK SMILES IDX 11 1 10 2 8 3 7 4 9 6 6 7 5 8 3 9 21 10 4 11 20 12 19 13
REMARK SMILES IDX 2 14 1 15 22 16 12 18 13 19 14 20 15 21 16 22 17 23 18 24
REMARK H PARENT 7 5 22 17
REMARK Flexibility Score: inf
ROOT
ATOM      1  C   UNL     1      98.200  81.567  81.548  1.00  0.00     0.010 C 
ENDROOT
BRANCH   1   2
ATOM      2  C   UNL     1      98.716  82.427  80.361  1.00  0.00     0.100 C 
BRANCH   2   3
ATOM      3  C   UNL     1      97.824  82.388  79.180  1.00  0.00     0.220 C 
ATOM      4  N   UNL     1      97.408  83.547  78.593  1.00  0.00    -0.352 N 
ATOM      5  H   UNL     1      97.719  84.389  79.055  1.00  0.00     0.163 HD
ATOM      6  O   UNL     1      97.483  81.271  78.719  1.00  0.00    -0.275 OA
BRANCH   4   7
ATOM      7  C   UNL     1      96.596  83.633  77.417  1.00  0.00     0.151 C 
BRANCH   7   8
ATOM      8  C   UNL     1      97.379  83.911  76.182  1.00  0.00    -0.025 A 
ATOM      9  C   UNL     1      99.525  83.933  74.981  1.00  0.00     0.160 A 
ATOM     10  C   UNL     1      98.872  84.399  73.819  1.00  0.00     0.157 A 
ATOM     11  C   UNL     1      98.778  83.711  76.157  1.00  0.00     0.056 A 
ATOM     12  C   UNL     1      97.487  84.639  73.843  1.00  0.00     0.050 A 
ATOM     13  C   UNL     1      96.742  84.387  75.012  1.00  0.00     0.009 A 
BRANCH   9  14
ATOM     14  O   UNL     1     100.879  83.734  74.980  1.00  0.00    -0.493 OA
ATOM     15  C   UNL     1     101.642  84.939  75.168  1.00  0.00     0.278 C 
ENDBRANCH   9  14
BRANCH  10  16
ATOM     16  O   UNL     1      99.567  84.622  72.672  1.00  0.00    -0.504 OA
ATOM     17  H   UNL     1     100.316  84.024  72.631  1.00  0.00     0.293 HD
ENDBRANCH  10  16
ENDBRANCH   7   8
ENDBRANCH   4   7
ENDBRANCH   2   3
ENDBRANCH   1   2
BRANCH   1  18
ATOM     18  C   UNL     1      96.721  81.889  81.906  1.00  0.00     0.001 C 
BRANCH  18  19
ATOM     19  C   UNL     1      96.488  83.364  82.339  1.00  0.00     0.000 C 
BRANCH  19  20
ATOM     20  C   UNL     1      95.859  83.451  83.758  1.00  0.00     0.000 C 
BRANCH  20  21
ATOM     21  C   UNL     1      94.879  82.292  84.093  1.00  0.00     0.003 C 
BRANCH  21  22
ATOM     22  C   UNL     1      93.535  82.746  84.751  1.00  0.00    -0.017 C 
ATOM     23  C   UNL     1      93.683  82.816  86.297  1.00  0.00     0.007 C 
ATOM     24  C   UNL     1      92.316  81.860  84.359  1.00  0.00     0.007 C 
ENDBRANCH  21  22
ENDBRANCH  20  21
ENDBRANCH  19  20
ENDBRANCH  18  19
ENDBRANCH   1  18
TORSDOF 11
ENDMDL
MODEL 6
REMARK VINA RESULT:    -5.481      5.897      8.761
REMARK INTER + INTRA:          -9.414
REMARK INTER:                  -8.311
REMARK INTRA:                  -1.103
REMARK UNBOUND:                -0.569
REMARK SMILES COc1cc(CNC(=O)CCCCCCC(C)C)ccc1O
REMARK SMILES IDX 11 1 10 2 8 3 7 4 9 6 6 7 5 8 3 9 21 10 4 11 20 12 19 13
REMARK SMILES IDX 2 14 1 15 22 16 12 18 13 19 14 20 15 21 16 22 17 23 18 24
REMARK H PARENT 7 5 22 17
REMARK Flexibility Score: inf
ROOT
ATOM      1  C   UNL     1     100.742  84.876  72.941  1.00  0.00     0.010 C 
ENDROOT
BRANCH   1   2
ATOM      2  C   UNL     1      99.599  85.442  73.827  1.00  0.00     0.100 C 
BRANCH   2   3
ATOM      3  C   UNL     1      98.672  84.401  74.323  1.00  0.00     0.220 C 
ATOM      4  N   UNL     1      99.114  83.436  75.180  1.00  0.00    -0.352 N 
ATOM      5  H   UNL     1     100.100  83.480  75.392  1.00  0.00     0.163 HD
ATOM      6  O   UNL     1      97.472  84.440  73.957  1.00  0.00    -0.275 OA
BRANCH   4   7
ATOM      7  C   UNL     1      98.299  82.416  75.768  1.00  0.00     0.151 C 
BRANCH   7   8
ATOM      8  C   UNL     1      97.971  82.678  77.197  1.00  0.00    -0.025 A 
ATOM      9  C   UNL     1      98.575  82.555  79.577  1.00  0.00     0.160 A 
ATOM     10  C   UNL     1      97.374  83.213  79.919  1.00  0.00     0.157 A 
ATOM     11  C   UNL     1      98.855  82.276  78.223  1.00  0.00     0.056 A 
ATOM     12  C   UNL     1      96.467  83.584  78.909  1.00  0.00     0.050 A 
ATOM     13  C   UNL     1      96.767  83.329  77.557  1.00  0.00     0.009 A 
BRANCH   9  14
ATOM     14  O   UNL     1      99.446  82.155  80.555  1.00  0.00    -0.493 OA
ATOM     15  C   UNL     1     100.694  81.649  80.048  1.00  0.00     0.278 C 
ENDBRANCH   9  14
BRANCH  10  16
ATOM     16  O   UNL     1      97.077  83.493  81.215  1.00  0.00    -0.504 OA
ATOM     17  H   UNL     1      97.268  84.417  81.394  1.00  0.00     0.293 HD
ENDBRANCH  10  16
ENDBRANCH   7   8
ENDBRANCH   4   7
ENDBRANCH   2   3
ENDBRANCH   1   2
BRANCH   1  18
ATOM     18  C   UNL     1     100.368  84.871  71.431  1.00  0.00     0.001 C 
BRANCH  18  19
ATOM     19  C   UNL     1     100.623  83.509  70.726  1.00  0.00     0.000 C 
BRANCH  19  20
ATOM     20  C   UNL     1     100.331  82.312  71.674  1.00  0.00     0.000 C 
BRANCH  20  21
ATOM     21  C   UNL     1      98.836  81.893  71.730  1.00  0.00     0.003 C 
BRANCH  21  22
ATOM     22  C   UNL     1      98.491  80.600  70.921  1.00  0.00    -0.017 C 
ATOM     23  C   UNL     1      99.562  79.501  71.171  1.00  0.00     0.007 C 
ATOM     24  C   UNL     1      98.310  80.847  69.394  1.00  0.00     0.007 C 
ENDBRANCH  21  22
ENDBRANCH  20  21
ENDBRANCH  19  20
ENDBRANCH  18  19
ENDBRANCH   1  18
TORSDOF 11
ENDMDL
MODEL 7
REMARK VINA RESULT:    -5.452     22.139     23.956
REMARK INTER + INTRA:          -9.367
REMARK INTER:                  -8.780
REMARK INTRA:                  -0.587
REMARK UNBOUND:                -0.569
REMARK SMILES COc1cc(CNC(=O)CCCCCCC(C)C)ccc1O
REMARK SMILES IDX 11 1 10 2 8 3 7 4 9 6 6 7 5 8 3 9 21 10 4 11 20 12 19 13
REMARK SMILES IDX 2 14 1 15 22 16 12 18 13 19 14 20 15 21 16 22 17 23 18 24
REMARK H PARENT 7 5 22 17
REMARK Flexibility Score: inf
ROOT
ATOM      1  C   UNL     1      73.181  90.573  70.676  1.00  0.00     0.010 C 
ENDROOT
BRANCH   1   2
ATOM      2  C   UNL     1      73.036  90.966  72.172  1.00  0.00     0.100 C 
BRANCH   2   3
ATOM      3  C   UNL     1      73.324  92.395  72.432  1.00  0.00     0.220 C 
ATOM      4  N   UNL     1      73.490  92.843  73.710  1.00  0.00    -0.352 N 
ATOM      5  H   UNL     1      73.356  92.142  74.423  1.00  0.00     0.163 HD
ATOM      6  O   UNL     1      73.436  93.173  71.453  1.00  0.00    -0.275 OA
BRANCH   4   7
ATOM      7  C   UNL     1      73.827  94.185  74.077  1.00  0.00     0.151 C 
BRANCH   7   8
ATOM      8  C   UNL     1      75.189  94.307  74.665  1.00  0.00    -0.025 A 
ATOM      9  C   UNL     1      77.612  94.616  74.379  1.00  0.00     0.160 A 
ATOM     10  C   UNL     1      77.784  94.586  75.780  1.00  0.00     0.157 A 
ATOM     11  C   UNL     1      76.322  94.459  73.833  1.00  0.00     0.056 A 
ATOM     12  C   UNL     1      76.670  94.396  76.618  1.00  0.00     0.050 A 
ATOM     13  C   UNL     1      75.380  94.269  76.067  1.00  0.00     0.009 A 
BRANCH   9  14
ATOM     14  O   UNL     1      78.694  94.760  73.554  1.00  0.00    -0.493 OA
ATOM     15  C   UNL     1      78.745  96.031  72.879  1.00  0.00     0.278 C 
ENDBRANCH   9  14
BRANCH  10  16
ATOM     16  O   UNL     1      79.016  94.733  76.334  1.00  0.00    -0.504 OA
ATOM     17  H   UNL     1      79.439  93.874  76.406  1.00  0.00     0.293 HD
ENDBRANCH  10  16
ENDBRANCH   7   8
ENDBRANCH   4   7
ENDBRANCH   2   3
ENDBRANCH   1   2
BRANCH   1  18
ATOM     18  C   UNL     1      74.644  90.201  70.306  1.00  0.00     0.001 C 
BRANCH  18  19
ATOM     19  C   UNL     1      74.758  88.970  69.362  1.00  0.00     0.000 C 
BRANCH  19  20
ATOM     20  C   UNL     1      76.066  89.012  68.523  1.00  0.00     0.000 C 
BRANCH  20  21
ATOM     21  C   UNL     1      76.964  87.753  68.677  1.00  0.00     0.003 C 
BRANCH  21  22
ATOM     22  C   UNL     1      77.257  86.996  67.341  1.00  0.00    -0.017 C 
ATOM     23  C   UNL     1      76.209  87.378  66.258  1.00  0.00     0.007 C 
ATOM     24  C   UNL     1      77.334  85.449  67.503  1.00  0.00     0.007 C 
ENDBRANCH  21  22
ENDBRANCH  20  21
ENDBRANCH  19  20
ENDBRANCH  18  19
ENDBRANCH   1  18
TORSDOF 11
ENDMDL
MODEL 8
REMARK VINA RESULT:    -5.217     40.783     42.754
REMARK INTER + INTRA:          -8.989
REMARK INTER:                  -8.312
REMARK INTRA:                  -0.676
REMARK UNBOUND:                -0.569
REMARK SMILES COc1cc(CNC(=O)CCCCCCC(C)C)ccc1O
REMARK SMILES IDX 11 1 10 2 8 3 7 4 9 6 6 7 5 8 3 9 21 10 4 11 20 12 19 13
REMARK SMILES IDX 2 14 1 15 22 16 12 18 13 19 14 20 15 21 16 22 17 23 18 24
REMARK H PARENT 7 5 22 17
REMARK Flexibility Score: inf
ROOT
ATOM      1  C   UNL     1      54.565  93.597  72.926  1.00  0.00     0.010 C 
ENDROOT
BRANCH   1   2
ATOM      2  C   UNL     1      53.155  93.933  72.366  1.00  0.00     0.100 C 
BRANCH   2   3
ATOM      3  C   UNL     1      52.065  93.675  73.333  1.00  0.00     0.220 C 
ATOM      4  N   UNL     1      52.234  92.766  74.337  1.00  0.00    -0.352 N 
ATOM      5  H   UNL     1      53.119  92.281  74.321  1.00  0.00     0.163 HD
ATOM      6  O   UNL     1      50.997  94.327  73.224  1.00  0.00    -0.275 OA
BRANCH   4   7
ATOM      7  C   UNL     1      51.276  92.478  75.360  1.00  0.00     0.151 C 
BRANCH   7   8
ATOM      8  C   UNL     1      51.809  91.592  76.431  1.00  0.00    -0.025 A 
ATOM      9  C   UNL     1      53.256  91.255  78.391  1.00  0.00     0.160 A 
ATOM     10  C   UNL     1      52.799  89.924  78.502  1.00  0.00     0.157 A 
ATOM     11  C   UNL     1      52.773  92.072  77.347  1.00  0.00     0.056 A 
ATOM     12  C   UNL     1      51.870  89.423  77.573  1.00  0.00     0.050 A 
ATOM     13  C   UNL     1      51.370  90.253  76.551  1.00  0.00     0.009 A 
BRANCH   9  14
ATOM     14  O   UNL     1      54.190  91.740  79.266  1.00  0.00    -0.493 OA
ATOM     15  C   UNL     1      55.359  92.282  78.625  1.00  0.00     0.278 C 
ENDBRANCH   9  14
BRANCH  10  16
ATOM     16  O   UNL     1      53.249  89.114  79.497  1.00  0.00    -0.504 OA
ATOM     17  H   UNL     1      54.192  88.971  79.391  1.00  0.00     0.293 HD
ENDBRANCH  10  16
ENDBRANCH   7   8
ENDBRANCH   4   7
ENDBRANCH   2   3
ENDBRANCH   1   2
BRANCH   1  18
ATOM     18  C   UNL     1      55.366  92.659  71.979  1.00  0.00     0.001 C 
BRANCH  18  19
ATOM     19  C   UNL     1      54.951  92.776  70.485  1.00  0.00     0.000 C 
BRANCH  19  20
ATOM     20  C   UNL     1      56.070  92.257  69.539  1.00  0.00     0.000 C 
BRANCH  20  21
ATOM     21  C   UNL     1      56.224  90.711  69.522  1.00  0.00     0.003 C 
BRANCH  21  22
ATOM     22  C   UNL     1      55.890  90.039  68.150  1.00  0.00    -0.017 C 
ATOM     23  C   UNL     1      57.152  90.003  67.241  1.00  0.00     0.007 C 
ATOM     24  C   UNL     1      54.699  90.705  67.401  1.00  0.00     0.007 C 
ENDBRANCH  21  22
ENDBRANCH  20  21
ENDBRANCH  19  20
ENDBRANCH  18  19
ENDBRANCH   1  18
TORSDOF 11
ENDMDL
MODEL 9
REMARK VINA RESULT:    -5.187      5.483      7.722
REMARK INTER + INTRA:          -8.940
REMARK INTER:                  -8.373
REMARK INTRA:                  -0.567
REMARK UNBOUND:                -0.569
REMARK SMILES COc1cc(CNC(=O)CCCCCCC(C)C)ccc1O
REMARK SMILES IDX 11 1 10 2 8 3 7 4 9 6 6 7 5 8 3 9 21 10 4 11 20 12 19 13
REMARK SMILES IDX 2 14 1 15 22 16 12 18 13 19 14 20 15 21 16 22 17 23 18 24
REMARK H PARENT 7 5 22 17
REMARK Flexibility Score: inf
ROOT
ATOM      1  C   UNL     1      91.409  74.612  82.626  1.00  0.00     0.010 C 
ENDROOT
BRANCH   1   2
ATOM      2  C   UNL     1      90.378  74.864  83.761  1.00  0.00     0.100 C 
BRANCH   2   3
ATOM      3  C   UNL     1      90.082  76.298  83.975  1.00  0.00     0.220 C 
ATOM      4  N   UNL     1      91.095  77.211  84.021  1.00  0.00    -0.352 N 
ATOM      5  H   UNL     1      92.021  76.817  83.944  1.00  0.00     0.163 HD
ATOM      6  O   UNL     1      88.884  76.655  84.088  1.00  0.00    -0.275 OA
BRANCH   4   7
ATOM      7  C   UNL     1      90.927  78.626  84.165  1.00  0.00     0.151 C 
BRANCH   7   8
ATOM      8  C   UNL     1      92.120  79.303  84.741  1.00  0.00    -0.025 A 
ATOM      9  C   UNL     1      93.117  81.205  85.940  1.00  0.00     0.160 A 
ATOM     10  C   UNL     1      94.383  80.582  85.882  1.00  0.00     0.157 A 
ATOM     11  C   UNL     1      92.001  80.571  85.354  1.00  0.00     0.056 A 
ATOM     12  C   UNL     1      94.521  79.338  85.240  1.00  0.00     0.050 A 
ATOM     13  C   UNL     1      93.397  78.697  84.683  1.00  0.00     0.009 A 
BRANCH   9  14
ATOM     14  O   UNL     1      92.979  82.433  86.527  1.00  0.00    -0.493 OA
ATOM     15  C   UNL     1      92.966  83.526  85.591  1.00  0.00     0.278 C 
ENDBRANCH   9  14
BRANCH  10  16
ATOM     16  O   UNL     1      95.475  81.170  86.436  1.00  0.00    -0.504 OA
ATOM     17  H   UNL     1      96.270  80.768  86.078  1.00  0.00     0.293 HD
ENDBRANCH  10  16
ENDBRANCH   7   8
ENDBRANCH   4   7
ENDBRANCH   2   3
ENDBRANCH   1   2
BRANCH   1  18
ATOM     18  C   UNL     1      90.728  74.488  81.233  1.00  0.00     0.001 C 
BRANCH  18  19
ATOM     19  C   UNL     1      91.679  74.794  80.042  1.00  0.00     0.000 C 
BRANCH  19  20
ATOM     20  C   UNL     1      91.140  75.959  79.164  1.00  0.00     0.000 C 
BRANCH  20  21
ATOM     21  C   UNL     1      91.221  75.694  77.635  1.00  0.00     0.003 C 
BRANCH  21  22
ATOM     22  C   UNL     1      90.700  76.869  76.744  1.00  0.00    -0.017 C 
ATOM     23  C   UNL     1      90.176  76.329  75.383  1.00  0.00     0.007 C 
ATOM     24  C   UNL     1      91.752  77.994  76.514  1.00  0.00     0.007 C 
ENDBRANCH  21  22
ENDBRANCH  20  21
ENDBRANCH  19  20
ENDBRANCH  18  19
ENDBRANCH   1  18
TORSDOF 11
ENDMDL
MODEL 10
REMARK VINA RESULT:    -5.136     12.700     14.835
REMARK INTER + INTRA:          -8.857
REMARK INTER:                  -8.203
REMARK INTRA:                  -0.654
REMARK UNBOUND:                -0.569
REMARK SMILES COc1cc(CNC(=O)CCCCCCC(C)C)ccc1O
REMARK SMILES IDX 11 1 10 2 8 3 7 4 9 6 6 7 5 8 3 9 21 10 4 11 20 12 19 13
REMARK SMILES IDX 2 14 1 15 22 16 12 18 13 19 14 20 15 21 16 22 17 23 18 24
REMARK H PARENT 7 5 22 17
REMARK Flexibility Score: inf
ROOT
ATOM      1  C   UNL     1      95.045  95.468  91.498  1.00  0.00     0.010 C 
ENDROOT
BRANCH   1   2
ATOM      2  C   UNL     1      94.371  95.089  90.150  1.00  0.00     0.100 C 
BRANCH   2   3
ATOM      3  C   UNL     1      93.469  93.921  90.255  1.00  0.00     0.220 C 
ATOM      4  N   UNL     1      93.794  92.743  89.648  1.00  0.00    -0.352 N 
ATOM      5  H   UNL     1      94.648  92.768  89.110  1.00  0.00     0.163 HD
ATOM      6  O   UNL     1      92.418  94.031  90.932  1.00  0.00    -0.275 OA
BRANCH   4   7
ATOM      7  C   UNL     1      93.031  91.534  89.728  1.00  0.00     0.151 C 
BRANCH   7   8
ATOM      8  C   UNL     1      93.534  90.462  88.826  1.00  0.00    -0.025 A 
ATOM      9  C   UNL     1      93.592  88.097  88.156  1.00  0.00     0.160 A 
ATOM     10  C   UNL     1      94.452  88.420  87.083  1.00  0.00     0.157 A 
ATOM     11  C   UNL     1      93.156  89.115  89.028  1.00  0.00     0.056 A 
ATOM     12  C   UNL     1      94.866  89.750  86.894  1.00  0.00     0.050 A 
ATOM     13  C   UNL     1      94.403  90.767  87.752  1.00  0.00     0.009 A 
BRANCH   9  14
ATOM     14  O   UNL     1      93.215  86.799  88.372  1.00  0.00    -0.493 OA
ATOM     15  C   UNL     1      93.403  86.359  89.729  1.00  0.00     0.278 C 
ENDBRANCH   9  14
BRANCH  10  16
ATOM     16  O   UNL     1      94.889  87.458  86.227  1.00  0.00    -0.504 OA
ATOM     17  H   UNL     1      95.198  86.700  86.730  1.00  0.00     0.293 HD
ENDBRANCH  10  16
ENDBRANCH   7   8
ENDBRANCH   4   7
ENDBRANCH   2   3
ENDBRANCH   1   2
BRANCH   1  18
ATOM     18  C   UNL     1      94.996  96.998  91.770  1.00  0.00     0.001 C 
BRANCH  18  19
ATOM     19  C   UNL     1      93.703  97.686  91.247  1.00  0.00     0.000 C 
BRANCH  19  20
ATOM     20  C   UNL     1      94.030  98.945  90.395  1.00  0.00     0.000 C 
BRANCH  20  21
ATOM     21  C   UNL     1      93.337  98.970  89.004  1.00  0.00     0.003 C 
BRANCH  21  22
ATOM     22  C   UNL     1      93.899 100.045  88.017  1.00  0.00    -0.017 C 
ATOM     23  C   UNL     1      92.764 100.995  87.544  1.00  0.00     0.007 C 
ATOM     24  C   UNL     1      94.649  99.439  86.794  1.00  0.00     0.007 C 
ENDBRANCH  21  22
ENDBRANCH  20  21
ENDBRANCH  19  20
ENDBRANCH  18  19
ENDBRANCH   1  18
TORSDOF 11
ENDMDL
