MODEL 1
REMARK VINA RESULT:    -6.942      0.000      0.000
REMARK INTER + INTRA:          -8.597
REMARK INTER:                  -8.160
REMARK INTRA:                  -0.438
REMARK UNBOUND:                -0.438
REMARK SMILES O=C(/C=C/C=C/c1ccc2c(c1)OCO2)N1CCCCC1
REMARK SMILES IDX 3 1 4 2 2 3 1 4 16 5 17 6 21 7 18 8 20 9 19 10 5 11 6 12
REMARK SMILES IDX 7 13 12 14 8 15 11 16 9 17 13 18 10 19 14 20 15 21
REMARK H PARENT
REMARK Flexibility Score: inf
ROOT
ATOM      1  C   UNL     1      75.532  91.675  70.868  1.00  0.00     0.071 C 
ATOM      2  C   UNL     1      74.767  90.704  71.363  1.00  0.00     0.006 C 
ENDROOT
BRANCH   1   3
ATOM      3  C   UNL     1      75.342  93.043  71.390  1.00  0.00     0.246 C 
ATOM      4  O   UNL     1      74.318  93.641  71.059  1.00  0.00    -0.270 OA
ATOM      5  N   UNL     1      76.335  93.567  72.216  1.00  0.00    -0.339 N 
ATOM      6  C   UNL     1      76.177  94.925  72.744  1.00  0.00     0.120 C 
ATOM      7  C   UNL     1      77.591  92.902  72.595  1.00  0.00     0.120 C 
ATOM      8  C   UNL     1      76.334  94.955  74.261  1.00  0.00     0.022 C 
ATOM      9  C   UNL     1      77.786  92.914  74.111  1.00  0.00     0.022 C 
ATOM     10  C   UNL     1      77.655  94.321  74.686  1.00  0.00     0.004 C 
ENDBRANCH   1   3
BRANCH   2  11
ATOM     11  C   UNL     1      74.878  89.332  70.914  1.00  0.00     0.001 C 
ATOM     12  C   UNL     1      76.027  88.809  70.456  1.00  0.00     0.008 C 
BRANCH  12  13
ATOM     13  C   UNL     1      76.194  87.425  69.981  1.00  0.00    -0.022 A 
ATOM     14  C   UNL     1      77.341  87.087  69.276  1.00  0.00     0.058 A 
ATOM     15  C   UNL     1      75.193  86.490  70.254  1.00  0.00     0.012 A 
ATOM     16  C   UNL     1      77.453  85.779  68.852  1.00  0.00     0.166 A 
ATOM     17  C   UNL     1      75.332  85.172  69.813  1.00  0.00     0.051 A 
ATOM     18  O   UNL     1      78.494  85.253  68.150  1.00  0.00    -0.454 OA
ATOM     19  C   UNL     1      76.475  84.846  69.114  1.00  0.00     0.165 A 
ATOM     20  C   UNL     1      78.061  83.886  67.999  1.00  0.00     0.468 C 
ATOM     21  O   UNL     1      76.781  83.620  68.608  1.00  0.00    -0.454 OA
ENDBRANCH  12  13
ENDBRANCH   2  11
TORSDOF 3
ENDMDL
MODEL 2
REMARK VINA RESULT:    -6.886     16.341     19.249
REMARK INTER + INTRA:          -8.532
REMARK INTER:                  -8.131
REMARK INTRA:                  -0.401
REMARK UNBOUND:                -0.438
REMARK SMILES O=C(/C=C/C=C/c1ccc2c(c1)OCO2)N1CCCCC1
REMARK SMILES IDX 3 1 4 2 2 3 1 4 16 5 17 6 21 7 18 8 20 9 19 10 5 11 6 12
REMARK SMILES IDX 7 13 12 14 8 15 11 16 9 17 13 18 10 19 14 20 15 21
REMARK H PARENT
REMARK Flexibility Score: inf
ROOT
ATOM      1  C   UNL     1      91.488  99.633  72.177  1.00  0.00     0.071 C 
ATOM      2  C   UNL     1      92.263 100.322  73.013  1.00  0.00     0.006 C 
ENDROOT
BRANCH   1   3
ATOM      3  C   UNL     1      90.817 100.369  71.086  1.00  0.00     0.246 C 
ATOM      4  O   UNL     1      91.227 101.501  70.826  1.00  0.00    -0.270 OA
ATOM      5  N   UNL     1      89.764  99.736  70.427  1.00  0.00    -0.339 N 
ATOM      6  C   UNL     1      89.076 100.443  69.343  1.00  0.00     0.120 C 
ATOM      7  C   UNL     1      89.219  98.406  70.738  1.00  0.00     0.120 C 
ATOM      8  C   UNL     1      89.024  99.601  68.073  1.00  0.00     0.022 C 
ATOM      9  C   UNL     1      89.148  97.531  69.486  1.00  0.00     0.022 C 
ATOM     10  C   UNL     1      88.410  98.232  68.349  1.00  0.00     0.004 C 
ENDBRANCH   1   3
BRANCH   2  11
ATOM     11  C   UNL     1      92.960  99.690  74.112  1.00  0.00     0.001 C 
ATOM     12  C   UNL     1      92.638  98.471  74.573  1.00  0.00     0.008 C 
BRANCH  12  13
ATOM     13  C   UNL     1      93.308  97.786  75.691  1.00  0.00    -0.022 A 
ATOM     14  C   UNL     1      92.601  96.846  76.429  1.00  0.00     0.058 A 
ATOM     15  C   UNL     1      94.638  98.101  75.979  1.00  0.00     0.012 A 
ATOM     16  C   UNL     1      93.271  96.231  77.466  1.00  0.00     0.166 A 
ATOM     17  C   UNL     1      95.292  97.463  77.035  1.00  0.00     0.051 A 
ATOM     18  O   UNL     1      92.755  95.289  78.303  1.00  0.00    -0.454 OA
ATOM     19  C   UNL     1      94.581  96.531  77.762  1.00  0.00     0.165 A 
ATOM     20  C   UNL     1      93.888  95.030  79.157  1.00  0.00     0.468 C 
ATOM     21  O   UNL     1      95.050  95.815  78.819  1.00  0.00    -0.454 OA
ENDBRANCH  12  13
ENDBRANCH   2  11
TORSDOF 3
ENDMDL
MODEL 3
REMARK VINA RESULT:    -6.867      3.369      9.426
REMARK INTER + INTRA:          -8.509
REMARK INTER:                  -8.110
REMARK INTRA:                  -0.399
REMARK UNBOUND:                -0.438
REMARK SMILES O=C(/C=C/C=C/c1ccc2c(c1)OCO2)N1CCCCC1
REMARK SMILES IDX 3 1 4 2 2 3 1 4 16 5 17 6 21 7 18 8 20 9 19 10 5 11 6 12
REMARK SMILES IDX 7 13 12 14 8 15 11 16 9 17 13 18 10 19 14 20 15 21
REMARK H PARENT
REMARK Flexibility Score: inf
ROOT
ATOM      1  C   UNL     1      77.260  85.363  67.887  1.00  0.00     0.071 C 
ATOM      2  C   UNL     1      76.980  85.361  69.189  1.00  0.00     0.006 C 
ENDROOT
BRANCH   1   3
ATOM      3  C   UNL     1      77.607  84.078  67.248  1.00  0.00     0.246 C 
ATOM      4  O   UNL     1      78.722  83.610  67.480  1.00  0.00    -0.270 OA
ATOM      5  N   UNL     1      76.653  83.485  66.422  1.00  0.00    -0.339 N 
ATOM      6  C   UNL     1      76.970  82.211  65.770  1.00  0.00     0.120 C 
ATOM      7  C   UNL     1      75.331  84.036  66.086  1.00  0.00     0.120 C 
ATOM      8  C   UNL     1      75.895  81.164  66.039  1.00  0.00     0.022 C 
ATOM      9  C   UNL     1      74.225  83.012  66.340  1.00  0.00     0.022 C 
ATOM     10  C   UNL     1      74.515  81.684  65.648  1.00  0.00     0.004 C 
ENDBRANCH   1   3
BRANCH   2  11
ATOM     11  C   UNL     1      76.630  86.570  69.903  1.00  0.00     0.001 C 
ATOM     12  C   UNL     1      75.390  87.086  69.894  1.00  0.00     0.008 C 
BRANCH  12  13
ATOM     13  C   UNL     1      74.982  88.315  70.595  1.00  0.00    -0.022 A 
ATOM     14  C   UNL     1      75.752  89.461  70.453  1.00  0.00     0.058 A 
ATOM     15  C   UNL     1      73.830  88.293  71.385  1.00  0.00     0.012 A 
ATOM     16  C   UNL     1      75.329  90.587  71.129  1.00  0.00     0.166 A 
ATOM     17  C   UNL     1      73.424  89.448  72.058  1.00  0.00     0.051 A 
ATOM     18  O   UNL     1      75.944  91.802  71.119  1.00  0.00    -0.454 OA
ATOM     19  C   UNL     1      74.196  90.581  71.910  1.00  0.00     0.165 A 
ATOM     20  C   UNL     1      75.071  92.559  71.981  1.00  0.00     0.468 C 
ATOM     21  O   UNL     1      73.960  91.791  72.487  1.00  0.00    -0.454 OA
ENDBRANCH  12  13
ENDBRANCH   2  11
TORSDOF 3
ENDMDL
MODEL 4
REMARK VINA RESULT:    -6.837     24.066     25.563
REMARK INTER + INTRA:          -8.474
REMARK INTER:                  -8.150
REMARK INTRA:                  -0.324
REMARK UNBOUND:                -0.438
REMARK SMILES O=C(/C=C/C=C/c1ccc2c(c1)OCO2)N1CCCCC1
REMARK SMILES IDX 3 1 4 2 2 3 1 4 16 5 17 6 21 7 18 8 20 9 19 10 5 11 6 12
REMARK SMILES IDX 7 13 12 14 8 15 11 16 9 17 13 18 10 19 14 20 15 21
REMARK H PARENT
REMARK Flexibility Score: inf
ROOT
ATOM      1  C   UNL     1      97.203  83.561  84.724  1.00  0.00     0.071 C 
ATOM      2  C   UNL     1      97.882  82.902  83.787  1.00  0.00     0.006 C 
ENDROOT
BRANCH   1   3
ATOM      3  C   UNL     1      97.358  83.129  86.128  1.00  0.00     0.246 C 
ATOM      4  O   UNL     1      98.367  82.484  86.416  1.00  0.00    -0.270 OA
ATOM      5  N   UNL     1      96.352  83.475  87.029  1.00  0.00    -0.339 N 
ATOM      6  C   UNL     1      96.476  83.055  88.428  1.00  0.00     0.120 C 
ATOM      7  C   UNL     1      95.115  84.203  86.712  1.00  0.00     0.120 C 
ATOM      8  C   UNL     1      96.319  84.236  89.380  1.00  0.00     0.022 C 
ATOM      9  C   UNL     1      94.920  85.395  87.649  1.00  0.00     0.022 C 
ATOM     10  C   UNL     1      95.015  84.982  89.115  1.00  0.00     0.004 C 
ENDBRANCH   1   3
BRANCH   2  11
ATOM     11  C   UNL     1      97.794  83.250  82.385  1.00  0.00     0.001 C 
ATOM     12  C   UNL     1      98.632  82.756  81.460  1.00  0.00     0.008 C 
BRANCH  12  13
ATOM     13  C   UNL     1      98.594  83.083  80.024  1.00  0.00    -0.022 A 
ATOM     14  C   UNL     1      99.751  82.949  79.270  1.00  0.00     0.058 A 
ATOM     15  C   UNL     1      97.392  83.519  79.461  1.00  0.00     0.012 A 
ATOM     16  C   UNL     1      99.665  83.267  77.930  1.00  0.00     0.166 A 
ATOM     17  C   UNL     1      97.333  83.834  78.102  1.00  0.00     0.051 A 
ATOM     18  O   UNL     1     100.682  83.204  77.027  1.00  0.00    -0.454 OA
ATOM     19  C   UNL     1      98.488  83.698  77.361  1.00  0.00     0.165 A 
ATOM     20  C   UNL     1     100.013  83.643  75.827  1.00  0.00     0.468 C 
ATOM     21  O   UNL     1      98.621  83.958  76.032  1.00  0.00    -0.454 OA
ENDBRANCH  12  13
ENDBRANCH   2  11
TORSDOF 3
ENDMDL
MODEL 5
REMARK VINA RESULT:    -6.759     16.652     19.802
REMARK INTER + INTRA:          -8.383
REMARK INTER:                  -8.009
REMARK INTRA:                  -0.374
REMARK UNBOUND:                -0.438
REMARK SMILES O=C(/C=C/C=C/c1ccc2c(c1)OCO2)N1CCCCC1
REMARK SMILES IDX 3 1 4 2 2 3 1 4 16 5 17 6 21 7 18 8 20 9 19 10 5 11 6 12
REMARK SMILES IDX 7 13 12 14 8 15 11 16 9 17 13 18 10 19 14 20 15 21
REMARK H PARENT
REMARK Flexibility Score: inf
ROOT
ATOM      1  C   UNL     1      91.071  99.547  71.983  1.00  0.00     0.071 C 
ATOM      2  C   UNL     1      92.073 100.283  72.462  1.00  0.00     0.006 C 
ENDROOT
BRANCH   1   3
ATOM      3  C   UNL     1      90.204 100.144  70.948  1.00  0.00     0.246 C 
ATOM      4  O   UNL     1      90.223 101.370  70.828  1.00  0.00    -0.270 OA
ATOM      5  N   UNL     1      89.418  99.284  70.183  1.00  0.00    -0.339 N 
ATOM      6  C   UNL     1      88.542  99.848  69.151  1.00  0.00     0.120 C 
ATOM      7  C   UNL     1      89.335  97.823  70.328  1.00  0.00     0.120 C 
ATOM      8  C   UNL     1      88.776  99.185  67.798  1.00  0.00     0.022 C 
ATOM      9  C   UNL     1      89.560  97.120  68.989  1.00  0.00     0.022 C 
ATOM     10  C   UNL     1      88.640  97.669  67.902  1.00  0.00     0.004 C 
ENDBRANCH   1   3
BRANCH   2  11
ATOM     11  C   UNL     1      92.976  99.785  73.477  1.00  0.00     0.001 C 
ATOM     12  C   UNL     1      92.587  98.936  74.442  1.00  0.00     0.008 C 
BRANCH  12  13
ATOM     13  C   UNL     1      93.461  98.405  75.502  1.00  0.00    -0.022 A 
ATOM     14  C   UNL     1      94.451  99.221  76.033  1.00  0.00     0.058 A 
ATOM     15  C   UNL     1      93.270  97.094  75.945  1.00  0.00     0.012 A 
ATOM     16  C   UNL     1      95.244  98.680  77.024  1.00  0.00     0.166 A 
ATOM     17  C   UNL     1      94.087  96.571  76.949  1.00  0.00     0.051 A 
ATOM     18  O   UNL     1      96.263  99.314  77.667  1.00  0.00    -0.454 OA
ATOM     19  C   UNL     1      95.067  97.390  77.470  1.00  0.00     0.165 A 
ATOM     20  C   UNL     1      96.707  98.279  78.567  1.00  0.00     0.468 C 
ATOM     21  O   UNL     1      95.953  97.055  78.448  1.00  0.00    -0.454 OA
ENDBRANCH  12  13
ENDBRANCH   2  11
TORSDOF 3
ENDMDL
MODEL 6
REMARK VINA RESULT:    -6.560      2.547      8.821
REMARK INTER + INTRA:          -8.148
REMARK INTER:                  -7.776
REMARK INTRA:                  -0.373
REMARK UNBOUND:                -0.438
REMARK SMILES O=C(/C=C/C=C/c1ccc2c(c1)OCO2)N1CCCCC1
REMARK SMILES IDX 3 1 4 2 2 3 1 4 16 5 17 6 21 7 18 8 20 9 19 10 5 11 6 12
REMARK SMILES IDX 7 13 12 14 8 15 11 16 9 17 13 18 10 19 14 20 15 21
REMARK H PARENT
REMARK Flexibility Score: inf
ROOT
ATOM      1  C   UNL     1      75.661  88.598  70.307  1.00  0.00     0.071 C 
ATOM      2  C   UNL     1      74.809  89.438  70.892  1.00  0.00     0.006 C 
ENDROOT
BRANCH   1   3
ATOM      3  C   UNL     1      75.213  87.211  70.066  1.00  0.00     0.246 C 
ATOM      4  O   UNL     1      74.007  86.979  70.158  1.00  0.00    -0.270 OA
ATOM      5  N   UNL     1      76.184  86.260  69.757  1.00  0.00    -0.339 N 
ATOM      6  C   UNL     1      75.770  84.874  69.517  1.00  0.00     0.120 C 
ATOM      7  C   UNL     1      77.634  86.490  69.683  1.00  0.00     0.120 C 
ATOM      8  C   UNL     1      76.305  84.355  68.186  1.00  0.00     0.022 C 
ATOM      9  C   UNL     1      78.209  85.979  68.362  1.00  0.00     0.022 C 
ATOM     10  C   UNL     1      77.818  84.528  68.100  1.00  0.00     0.004 C 
ENDBRANCH   1   3
BRANCH   2  11
ATOM     11  C   UNL     1      75.156  90.816  71.170  1.00  0.00     0.001 C 
ATOM     12  C   UNL     1      76.405  91.202  71.478  1.00  0.00     0.008 C 
BRANCH  12  13
ATOM     13  C   UNL     1      76.811  92.586  71.777  1.00  0.00    -0.022 A 
ATOM     14  C   UNL     1      76.091  93.636  71.223  1.00  0.00     0.058 A 
ATOM     15  C   UNL     1      77.910  92.804  72.611  1.00  0.00     0.012 A 
ATOM     16  C   UNL     1      76.509  94.914  71.533  1.00  0.00     0.166 A 
ATOM     17  C   UNL     1      78.312  94.108  72.908  1.00  0.00     0.051 A 
ATOM     18  O   UNL     1      75.940  96.069  71.091  1.00  0.00    -0.454 OA
ATOM     19  C   UNL     1      77.590  95.144  72.353  1.00  0.00     0.165 A 
ATOM     20  C   UNL     1      76.784  97.051  71.726  1.00  0.00     0.468 C 
ATOM     21  O   UNL     1      77.833  96.471  72.528  1.00  0.00    -0.454 OA
ENDBRANCH  12  13
ENDBRANCH   2  11
TORSDOF 3
ENDMDL
MODEL 7
REMARK VINA RESULT:    -6.461      1.418      2.128
REMARK INTER + INTRA:          -8.033
REMARK INTER:                  -7.704
REMARK INTRA:                  -0.328
REMARK UNBOUND:                -0.438
REMARK SMILES O=C(/C=C/C=C/c1ccc2c(c1)OCO2)N1CCCCC1
REMARK SMILES IDX 3 1 4 2 2 3 1 4 16 5 17 6 21 7 18 8 20 9 19 10 5 11 6 12
REMARK SMILES IDX 7 13 12 14 8 15 11 16 9 17 13 18 10 19 14 20 15 21
REMARK H PARENT
REMARK Flexibility Score: inf
ROOT
ATOM      1  C   UNL     1      75.386  90.512  70.818  1.00  0.00     0.071 C 
ATOM      2  C   UNL     1      74.981  89.244  70.862  1.00  0.00     0.006 C 
ENDROOT
BRANCH   1   3
ATOM      3  C   UNL     1      74.871  91.442  71.843  1.00  0.00     0.246 C 
ATOM      4  O   UNL     1      73.706  91.294  72.212  1.00  0.00    -0.270 OA
ATOM      5  N   UNL     1      75.736  92.427  72.319  1.00  0.00    -0.339 N 
ATOM      6  C   UNL     1      75.251  93.368  73.333  1.00  0.00     0.120 C 
ATOM      7  C   UNL     1      77.116  92.662  71.871  1.00  0.00     0.120 C 
ATOM      8  C   UNL     1      76.181  93.413  74.541  1.00  0.00     0.022 C 
ATOM      9  C   UNL     1      78.080  92.718  73.055  1.00  0.00     0.022 C 
ATOM     10  C   UNL     1      77.615  93.713  74.115  1.00  0.00     0.004 C 
ENDBRANCH   1   3
BRANCH   2  11
ATOM     11  C   UNL     1      75.430  88.259  69.901  1.00  0.00     0.001 C 
ATOM     12  C   UNL     1      75.962  87.081  70.263  1.00  0.00     0.008 C 
BRANCH  12  13
ATOM     13  C   UNL     1      76.441  86.048  69.330  1.00  0.00    -0.022 A 
ATOM     14  C   UNL     1      75.524  85.178  68.755  1.00  0.00     0.058 A 
ATOM     15  C   UNL     1      77.807  85.971  69.047  1.00  0.00     0.012 A 
ATOM     16  C   UNL     1      76.021  84.228  67.887  1.00  0.00     0.166 A 
ATOM     17  C   UNL     1      78.283  84.999  68.164  1.00  0.00     0.051 A 
ATOM     18  O   UNL     1      75.288  83.290  67.227  1.00  0.00    -0.454 OA
ATOM     19  C   UNL     1      77.363  84.141  67.599  1.00  0.00     0.165 A 
ATOM     20  C   UNL     1      76.321  82.602  66.491  1.00  0.00     0.468 C 
ATOM     21  O   UNL     1      77.640  83.137  66.722  1.00  0.00    -0.454 OA
ENDBRANCH  12  13
ENDBRANCH   2  11
TORSDOF 3
ENDMDL
MODEL 8
REMARK VINA RESULT:    -6.329     19.152     20.712
REMARK INTER + INTRA:          -7.877
REMARK INTER:                  -7.484
REMARK INTRA:                  -0.393
REMARK UNBOUND:                -0.438
REMARK SMILES O=C(/C=C/C=C/c1ccc2c(c1)OCO2)N1CCCCC1
REMARK SMILES IDX 3 1 4 2 2 3 1 4 16 5 17 6 21 7 18 8 20 9 19 10 5 11 6 12
REMARK SMILES IDX 7 13 12 14 8 15 11 16 9 17 13 18 10 19 14 20 15 21
REMARK H PARENT
REMARK Flexibility Score: inf
ROOT
ATOM      1  C   UNL     1      94.646  98.746  74.470  1.00  0.00     0.071 C 
ATOM      2  C   UNL     1      95.340  97.610  74.513  1.00  0.00     0.006 C 
ENDROOT
BRANCH   1   3
ATOM      3  C   UNL     1      94.845  99.638  73.311  1.00  0.00     0.246 C 
ATOM      4  O   UNL     1      95.995  99.783  72.894  1.00  0.00    -0.270 OA
ATOM      5  N   UNL     1      93.720 100.259  72.769  1.00  0.00    -0.339 N 
ATOM      6  C   UNL     1      93.887 101.155  71.621  1.00  0.00     0.120 C 
ATOM      7  C   UNL     1      92.341 100.146  73.266  1.00  0.00     0.120 C 
ATOM      8  C   UNL     1      92.959 100.769  70.474  1.00  0.00     0.022 C 
ATOM      9  C   UNL     1      91.378  99.763  72.143  1.00  0.00     0.022 C 
ATOM     10  C   UNL     1      91.509 100.698  70.944  1.00  0.00     0.004 C 
ENDBRANCH   1   3
BRANCH   2  11
ATOM     11  C   UNL     1      95.214  96.672  75.608  1.00  0.00     0.001 C 
ATOM     12  C   UNL     1      94.253  96.769  76.541  1.00  0.00     0.008 C 
BRANCH  12  13
ATOM     13  C   UNL     1      94.084  95.849  77.678  1.00  0.00    -0.022 A 
ATOM     14  C   UNL     1      95.193  95.506  78.440  1.00  0.00     0.058 A 
ATOM     15  C   UNL     1      92.811  95.345  77.959  1.00  0.00     0.012 A 
ATOM     16  C   UNL     1      94.984  94.642  79.495  1.00  0.00     0.166 A 
ATOM     17  C   UNL     1      92.629  94.471  79.033  1.00  0.00     0.051 A 
ATOM     18  O   UNL     1      95.937  94.187  80.355  1.00  0.00    -0.454 OA
ATOM     19  C   UNL     1      93.737  94.138  79.784  1.00  0.00     0.165 A 
ATOM     20  C   UNL     1      95.149  93.341  81.217  1.00  0.00     0.468 C 
ATOM     21  O   UNL     1      93.752  93.305  80.861  1.00  0.00    -0.454 OA
ENDBRANCH  12  13
ENDBRANCH   2  11
TORSDOF 3
ENDMDL
MODEL 9
REMARK VINA RESULT:    -6.199     14.905     17.117
REMARK INTER + INTRA:          -7.724
REMARK INTER:                  -7.338
REMARK INTRA:                  -0.387
REMARK UNBOUND:                -0.438
REMARK SMILES O=C(/C=C/C=C/c1ccc2c(c1)OCO2)N1CCCCC1
REMARK SMILES IDX 3 1 4 2 2 3 1 4 16 5 17 6 21 7 18 8 20 9 19 10 5 11 6 12
REMARK SMILES IDX 7 13 12 14 8 15 11 16 9 17 13 18 10 19 14 20 15 21
REMARK H PARENT
REMARK Flexibility Score: inf
ROOT
ATOM      1  C   UNL     1      62.510  83.781  73.564  1.00  0.00     0.071 C 
ATOM      2  C   UNL     1      63.619  83.148  73.945  1.00  0.00     0.006 C 
ENDROOT
BRANCH   1   3
ATOM      3  C   UNL     1      62.145  83.743  72.134  1.00  0.00     0.246 C 
ATOM      4  O   UNL     1      62.713  82.912  71.424  1.00  0.00    -0.270 OA
ATOM      5  N   UNL     1      61.188  84.651  71.683  1.00  0.00    -0.339 N 
ATOM      6  C   UNL     1      60.809  84.640  70.267  1.00  0.00     0.120 C 
ATOM      7  C   UNL     1      60.523  85.685  72.490  1.00  0.00     0.120 C 
ATOM      8  C   UNL     1      59.298  84.530  70.096  1.00  0.00     0.022 C 
ATOM      9  C   UNL     1      59.004  85.610  72.342  1.00  0.00     0.022 C 
ATOM     10  C   UNL     1      58.578  85.626  70.876  1.00  0.00     0.004 C 
ENDBRANCH   1   3
BRANCH   2  11
ATOM     11  C   UNL     1      64.059  83.130  75.323  1.00  0.00     0.001 C 
ATOM     12  C   UNL     1      63.671  84.049  76.222  1.00  0.00     0.008 C 
BRANCH  12  13
ATOM     13  C   UNL     1      64.094  84.081  77.633  1.00  0.00    -0.022 A 
ATOM     14  C   UNL     1      63.126  84.129  78.627  1.00  0.00     0.058 A 
ATOM     15  C   UNL     1      65.458  84.063  77.931  1.00  0.00     0.012 A 
ATOM     16  C   UNL     1      63.572  84.158  79.933  1.00  0.00     0.166 A 
ATOM     17  C   UNL     1      65.881  84.094  79.262  1.00  0.00     0.051 A 
ATOM     18  O   UNL     1      62.785  84.207  81.043  1.00  0.00    -0.454 OA
ATOM     19  C   UNL     1      64.912  84.141  80.242  1.00  0.00     0.165 A 
ATOM     20  C   UNL     1      63.782  84.218  82.085  1.00  0.00     0.468 C 
ATOM     21  O   UNL     1      65.134  84.176  81.584  1.00  0.00    -0.454 OA
ENDBRANCH  12  13
ENDBRANCH   2  11
TORSDOF 3
ENDMDL
MODEL 10
REMARK VINA RESULT:    -5.928     18.357     20.374
REMARK INTER + INTRA:          -7.406
REMARK INTER:                  -6.998
REMARK INTRA:                  -0.408
REMARK UNBOUND:                -0.438
REMARK SMILES O=C(/C=C/C=C/c1ccc2c(c1)OCO2)N1CCCCC1
REMARK SMILES IDX 3 1 4 2 2 3 1 4 16 5 17 6 21 7 18 8 20 9 19 10 5 11 6 12
REMARK SMILES IDX 7 13 12 14 8 15 11 16 9 17 13 18 10 19 14 20 15 21
REMARK H PARENT
REMARK Flexibility Score: inf
ROOT
ATOM      1  C   UNL     1      58.442  87.493  70.586  1.00  0.00     0.071 C 
ATOM      2  C   UNL     1      57.968  88.737  70.637  1.00  0.00     0.006 C 
ENDROOT
BRANCH   1   3
ATOM      3  C   UNL     1      59.492  87.109  71.551  1.00  0.00     0.246 C 
ATOM      4  O   UNL     1      59.369  87.502  72.712  1.00  0.00    -0.270 OA
ATOM      5  N   UNL     1      60.551  86.334  71.084  1.00  0.00    -0.339 N 
ATOM      6  C   UNL     1      61.612  85.942  72.017  1.00  0.00     0.120 C 
ATOM      7  C   UNL     1      60.755  85.885  69.698  1.00  0.00     0.120 C 
ATOM      8  C   UNL     1      61.843  84.435  71.996  1.00  0.00     0.022 C 
ATOM      9  C   UNL     1      60.994  84.376  69.635  1.00  0.00     0.022 C 
ATOM     10  C   UNL     1      62.114  83.943  70.578  1.00  0.00     0.004 C 
ENDBRANCH   1   3
BRANCH   2  11
ATOM     11  C   UNL     1      56.940  89.206  69.734  1.00  0.00     0.001 C 
ATOM     12  C   UNL     1      56.600  88.547  68.614  1.00  0.00     0.008 C 
BRANCH  12  13
ATOM     13  C   UNL     1      55.569  88.983  67.657  1.00  0.00    -0.022 A 
ATOM     14  C   UNL     1      55.563  88.444  66.378  1.00  0.00     0.058 A 
ATOM     15  C   UNL     1      54.624  89.929  68.064  1.00  0.00     0.012 A 
ATOM     16  C   UNL     1      54.577  88.883  65.518  1.00  0.00     0.166 A 
ATOM     17  C   UNL     1      53.637  90.356  67.172  1.00  0.00     0.051 A 
ATOM     18  O   UNL     1      54.404  88.478  64.230  1.00  0.00    -0.454 OA
ATOM     19  C   UNL     1      53.640  89.814  65.904  1.00  0.00     0.165 A 
ATOM     20  C   UNL     1      53.252  89.258  63.850  1.00  0.00     0.468 C 
ATOM     21  O   UNL     1      52.762  90.108  64.907  1.00  0.00    -0.454 OA
ENDBRANCH  12  13
ENDBRANCH   2  11
TORSDOF 3
ENDMDL
