MODEL 1
REMARK VINA RESULT:    -6.189      0.000      0.000
REMARK INTER + INTRA:         -10.439
REMARK INTER:                  -9.987
REMARK INTRA:                  -0.451
REMARK UNBOUND:                -0.451
REMARK SMILES CCCCCCCCC(=O)NCc1ccc(O)c(OC)c1
REMARK SMILES IDX 7 1 6 2 5 3 4 4 3 5 2 6 1 7 8 8 9 9 10 10 11 11 12 13 13 14
REMARK SMILES IDX 21 15 14 16 18 17 15 18 16 19 19 20 20 21 17 22
REMARK H PARENT 11 12 17 23
REMARK Flexibility Score: inf
ROOT
ATOM      1  C   UNL     1      91.301  95.464  76.732  1.00  0.00     0.010 C 
ENDROOT
BRANCH   1   2
ATOM      2  C   UNL     1      89.925  94.779  76.486  1.00  0.00     0.001 C 
BRANCH   2   3
ATOM      3  C   UNL     1      90.061  93.242  76.280  1.00  0.00     0.000 C 
BRANCH   3   4
ATOM      4  C   UNL     1      90.804  92.847  74.972  1.00  0.00    -0.000 C 
BRANCH   4   5
ATOM      5  C   UNL     1      90.288  91.509  74.370  1.00  0.00    -0.000 C 
BRANCH   5   6
ATOM      6  C   UNL     1      89.538  90.637  75.411  1.00  0.00    -0.003 C 
ATOM      7  C   UNL     1      89.852  89.131  75.272  1.00  0.00     0.004 C 
ENDBRANCH   5   6
ENDBRANCH   4   5
ENDBRANCH   3   4
ENDBRANCH   2   3
ENDBRANCH   1   2
BRANCH   1   8
ATOM      8  C   UNL     1      92.081  94.890  77.947  1.00  0.00     0.100 C 
BRANCH   8   9
ATOM      9  C   UNL     1      93.546  94.955  77.727  1.00  0.00     0.220 C 
ATOM     10  O   UNL     1      93.975  94.886  76.551  1.00  0.00    -0.275 OA
ATOM     11  N   UNL     1      94.399  95.115  78.781  1.00  0.00    -0.352 N 
ATOM     12  H   UNL     1      93.957  95.071  79.687  1.00  0.00     0.163 HD
BRANCH  11  13
ATOM     13  C   UNL     1      95.811  95.332  78.688  1.00  0.00     0.151 C 
BRANCH  13  14
ATOM     14  C   UNL     1      96.338  96.298  79.689  1.00  0.00    -0.025 A 
ATOM     15  C   UNL     1      95.754  97.581  79.816  1.00  0.00     0.056 A 
ATOM     16  C   UNL     1      97.427  95.958  80.524  1.00  0.00     0.009 A 
ATOM     17  C   UNL     1      96.233  98.504  80.774  1.00  0.00     0.160 A 
ATOM     18  C   UNL     1      97.907  96.871  81.480  1.00  0.00     0.050 A 
ATOM     19  C   UNL     1      97.320  98.145  81.603  1.00  0.00     0.157 A 
BRANCH  17  20
ATOM     20  O   UNL     1      95.693  99.762  80.867  1.00  0.00    -0.493 OA
ATOM     21  C   UNL     1      94.856  99.960  82.021  1.00  0.00     0.278 C 
ENDBRANCH  17  20
BRANCH  19  22
ATOM     22  O   UNL     1      97.808  99.029  82.510  1.00  0.00    -0.504 OA
ATOM     23  H   UNL     1      97.557  98.753  83.394  1.00  0.00     0.293 HD
ENDBRANCH  19  22
ENDBRANCH  13  14
ENDBRANCH  11  13
ENDBRANCH   8   9
ENDBRANCH   1   8
TORSDOF 11
ENDMDL
MODEL 2
REMARK VINA RESULT:    -6.019      3.181      4.343
REMARK INTER + INTRA:         -10.165
REMARK INTER:                  -9.416
REMARK INTRA:                  -0.749
REMARK UNBOUND:                -0.451
REMARK SMILES CCCCCCCCC(=O)NCc1ccc(O)c(OC)c1
REMARK SMILES IDX 7 1 6 2 5 3 4 4 3 5 2 6 1 7 8 8 9 9 10 10 11 11 12 13 13 14
REMARK SMILES IDX 21 15 14 16 18 17 15 18 16 19 19 20 20 21 17 22
REMARK H PARENT 11 12 17 23
REMARK Flexibility Score: inf
ROOT
ATOM      1  C   UNL     1      91.632  95.410  76.886  1.00  0.00     0.010 C 
ENDROOT
BRANCH   1   2
ATOM      2  C   UNL     1      90.234  94.775  76.635  1.00  0.00     0.001 C 
BRANCH   2   3
ATOM      3  C   UNL     1      90.326  93.251  76.332  1.00  0.00     0.000 C 
BRANCH   3   4
ATOM      4  C   UNL     1      90.733  92.926  74.867  1.00  0.00    -0.000 C 
BRANCH   4   5
ATOM      5  C   UNL     1      90.037  91.647  74.320  1.00  0.00    -0.000 C 
BRANCH   5   6
ATOM      6  C   UNL     1      89.532  90.713  75.452  1.00  0.00    -0.003 C 
ATOM      7  C   UNL     1      89.851  89.225  75.189  1.00  0.00     0.004 C 
ENDBRANCH   5   6
ENDBRANCH   4   5
ENDBRANCH   3   4
ENDBRANCH   2   3
ENDBRANCH   1   2
BRANCH   1   8
ATOM      8  C   UNL     1      92.401  94.787  78.084  1.00  0.00     0.100 C 
BRANCH   8   9
ATOM      9  C   UNL     1      93.821  95.214  78.095  1.00  0.00     0.220 C 
ATOM     10  O   UNL     1      94.708  94.339  77.952  1.00  0.00    -0.275 OA
ATOM     11  N   UNL     1      94.147  96.534  78.229  1.00  0.00    -0.352 N 
ATOM     12  H   UNL     1      93.364  97.140  78.425  1.00  0.00     0.163 HD
BRANCH  11  13
ATOM     13  C   UNL     1      95.463  97.085  78.115  1.00  0.00     0.151 C 
BRANCH  13  14
ATOM     14  C   UNL     1      95.574  98.171  77.104  1.00  0.00    -0.025 A 
ATOM     15  C   UNL     1      94.848  98.092  75.891  1.00  0.00     0.056 A 
ATOM     16  C   UNL     1      96.403  99.293  77.331  1.00  0.00     0.009 A 
ATOM     17  C   UNL     1      94.930  99.124  74.929  1.00  0.00     0.160 A 
ATOM     18  C   UNL     1      96.488 100.324  76.378  1.00  0.00     0.050 A 
ATOM     19  C   UNL     1      95.761 100.240  75.175  1.00  0.00     0.157 A 
BRANCH  17  20
ATOM     20  O   UNL     1      94.259  99.025  73.736  1.00  0.00    -0.493 OA
ATOM     21  C   UNL     1      94.069  97.675  73.277  1.00  0.00     0.278 C 
ENDBRANCH  17  20
BRANCH  19  22
ATOM     22  O   UNL     1      95.871 101.227  74.249  1.00  0.00    -0.504 OA
ATOM     23  H   UNL     1      96.720 101.665  74.348  1.00  0.00     0.293 HD
ENDBRANCH  19  22
ENDBRANCH  13  14
ENDBRANCH  11  13
ENDBRANCH   8   9
ENDBRANCH   1   8
TORSDOF 11
ENDMDL
MODEL 3
REMARK VINA RESULT:    -5.785     13.576     15.572
REMARK INTER + INTRA:          -9.787
REMARK INTER:                  -8.997
REMARK INTRA:                  -0.790
REMARK UNBOUND:                -0.451
REMARK SMILES CCCCCCCCC(=O)NCc1ccc(O)c(OC)c1
REMARK SMILES IDX 7 1 6 2 5 3 4 4 3 5 2 6 1 7 8 8 9 9 10 10 11 11 12 13 13 14
REMARK SMILES IDX 21 15 14 16 18 17 15 18 16 19 19 20 20 21 17 22
REMARK H PARENT 11 12 17 23
REMARK Flexibility Score: inf
ROOT
ATOM      1  C   UNL     1      91.238  81.823  84.304  1.00  0.00     0.010 C 
ENDROOT
BRANCH   1   2
ATOM      2  C   UNL     1      90.374  80.824  83.482  1.00  0.00     0.001 C 
BRANCH   2   3
ATOM      3  C   UNL     1      89.169  80.275  84.302  1.00  0.00     0.000 C 
BRANCH   3   4
ATOM      4  C   UNL     1      87.789  80.520  83.628  1.00  0.00    -0.000 C 
BRANCH   4   5
ATOM      5  C   UNL     1      87.350  82.011  83.684  1.00  0.00    -0.000 C 
BRANCH   5   6
ATOM      6  C   UNL     1      87.723  82.693  85.028  1.00  0.00    -0.003 C 
ATOM      7  C   UNL     1      87.085  84.090  85.190  1.00  0.00     0.004 C 
ENDBRANCH   5   6
ENDBRANCH   4   5
ENDBRANCH   3   4
ENDBRANCH   2   3
ENDBRANCH   1   2
BRANCH   1   8
ATOM      8  C   UNL     1      91.826  81.221  85.610  1.00  0.00     0.100 C 
BRANCH   8   9
ATOM      9  C   UNL     1      93.307  81.158  85.557  1.00  0.00     0.220 C 
ATOM     10  O   UNL     1      93.946  81.267  86.630  1.00  0.00    -0.275 OA
ATOM     11  N   UNL     1      93.950  80.956  84.369  1.00  0.00    -0.352 N 
ATOM     12  H   UNL     1      93.347  80.969  83.560  1.00  0.00     0.163 HD
BRANCH  11  13
ATOM     13  C   UNL     1      95.355  80.737  84.207  1.00  0.00     0.151 C 
BRANCH  13  14
ATOM     14  C   UNL     1      95.965  81.534  83.109  1.00  0.00    -0.025 A 
ATOM     15  C   UNL     1      96.663  80.886  82.062  1.00  0.00     0.056 A 
ATOM     16  C   UNL     1      95.863  82.944  83.090  1.00  0.00     0.009 A 
ATOM     17  C   UNL     1      97.233  81.628  81.002  1.00  0.00     0.160 A 
ATOM     18  C   UNL     1      96.426  83.688  82.039  1.00  0.00     0.050 A 
ATOM     19  C   UNL     1      97.117  83.037  80.999  1.00  0.00     0.157 A 
BRANCH  17  20
ATOM     20  O   UNL     1      97.946  81.002  80.011  1.00  0.00    -0.493 OA
ATOM     21  C   UNL     1      98.779  79.925  80.475  1.00  0.00     0.278 C 
ENDBRANCH  17  20
BRANCH  19  22
ATOM     22  O   UNL     1      97.682  83.766  80.003  1.00  0.00    -0.504 OA
ATOM     23  H   UNL     1      98.528  84.110  80.298  1.00  0.00     0.293 HD
ENDBRANCH  19  22
ENDBRANCH  13  14
ENDBRANCH  11  13
ENDBRANCH   8   9
ENDBRANCH   1   8
TORSDOF 11
ENDMDL
MODEL 4
REMARK VINA RESULT:    -5.593     12.479     14.684
REMARK INTER + INTRA:          -9.477
REMARK INTER:                  -8.482
REMARK INTRA:                  -0.995
REMARK UNBOUND:                -0.451
REMARK SMILES CCCCCCCCC(=O)NCc1ccc(O)c(OC)c1
REMARK SMILES IDX 7 1 6 2 5 3 4 4 3 5 2 6 1 7 8 8 9 9 10 10 11 11 12 13 13 14
REMARK SMILES IDX 21 15 14 16 18 17 15 18 16 19 19 20 20 21 17 22
REMARK H PARENT 11 12 17 23
REMARK Flexibility Score: inf
ROOT
ATOM      1  C   UNL     1      97.722  83.338  78.297  1.00  0.00     0.010 C 
ENDROOT
BRANCH   1   2
ATOM      2  C   UNL     1      97.625  83.102  79.831  1.00  0.00     0.001 C 
BRANCH   2   3
ATOM      3  C   UNL     1      98.874  82.360  80.394  1.00  0.00     0.000 C 
BRANCH   3   4
ATOM      4  C   UNL     1      99.534  81.386  79.377  1.00  0.00    -0.000 C 
BRANCH   4   5
ATOM      5  C   UNL     1     101.088  81.465  79.393  1.00  0.00    -0.000 C 
BRANCH   5   6
ATOM      6  C   UNL     1     101.736  80.690  78.215  1.00  0.00    -0.003 C 
ATOM      7  C   UNL     1     102.549  81.604  77.271  1.00  0.00     0.004 C 
ENDBRANCH   5   6
ENDBRANCH   4   5
ENDBRANCH   3   4
ENDBRANCH   2   3
ENDBRANCH   1   2
BRANCH   1   8
ATOM      8  C   UNL     1      96.401  83.842  77.653  1.00  0.00     0.100 C 
BRANCH   8   9
ATOM      9  C   UNL     1      96.634  84.373  76.288  1.00  0.00     0.220 C 
ATOM     10  O   UNL     1      96.169  85.502  76.000  1.00  0.00    -0.275 OA
ATOM     11  N   UNL     1      97.361  83.657  75.380  1.00  0.00    -0.352 N 
ATOM     12  H   UNL     1      97.613  82.729  75.686  1.00  0.00     0.163 HD
BRANCH  11  13
ATOM     13  C   UNL     1      97.772  84.118  74.089  1.00  0.00     0.151 C 
BRANCH  13  14
ATOM     14  C   UNL     1      99.219  84.451  74.002  1.00  0.00    -0.025 A 
ATOM     15  C   UNL     1      99.755  84.992  72.809  1.00  0.00     0.056 A 
ATOM     16  C   UNL     1     100.083  84.233  75.100  1.00  0.00     0.009 A 
ATOM     17  C   UNL     1     101.125  85.330  72.717  1.00  0.00     0.160 A 
ATOM     18  C   UNL     1     101.446  84.569  75.016  1.00  0.00     0.050 A 
ATOM     19  C   UNL     1     101.972  85.109  73.826  1.00  0.00     0.157 A 
BRANCH  17  20
ATOM     20  O   UNL     1     101.650  85.815  71.546  1.00  0.00    -0.493 OA
ATOM     21  C   UNL     1     101.405  84.980  70.400  1.00  0.00     0.278 C 
ENDBRANCH  17  20
BRANCH  19  22
ATOM     22  O   UNL     1     103.294  85.404  73.745  1.00  0.00    -0.504 OA
ATOM     23  H   UNL     1     103.428  86.332  73.951  1.00  0.00     0.293 HD
ENDBRANCH  19  22
ENDBRANCH  13  14
ENDBRANCH  11  13
ENDBRANCH   8   9
ENDBRANCH   1   8
TORSDOF 11
ENDMDL
MODEL 5
REMARK VINA RESULT:    -5.383      5.317      6.866
REMARK INTER + INTRA:          -9.138
REMARK INTER:                  -8.428
REMARK INTRA:                  -0.710
REMARK UNBOUND:                -0.451
REMARK SMILES CCCCCCCCC(=O)NCc1ccc(O)c(OC)c1
REMARK SMILES IDX 7 1 6 2 5 3 4 4 3 5 2 6 1 7 8 8 9 9 10 10 11 11 12 13 13 14
REMARK SMILES IDX 21 15 14 16 18 17 15 18 16 19 19 20 20 21 17 22
REMARK H PARENT 11 12 17 23
REMARK Flexibility Score: inf
ROOT
ATOM      1  C   UNL     1      93.513  96.668  77.646  1.00  0.00     0.010 C 
ENDROOT
BRANCH   1   2
ATOM      2  C   UNL     1      93.146  95.189  77.960  1.00  0.00     0.001 C 
BRANCH   2   3
ATOM      3  C   UNL     1      92.297  94.539  76.828  1.00  0.00     0.000 C 
BRANCH   3   4
ATOM      4  C   UNL     1      91.021  95.348  76.458  1.00  0.00    -0.000 C 
BRANCH   4   5
ATOM      5  C   UNL     1      89.917  94.464  75.812  1.00  0.00    -0.000 C 
BRANCH   5   6
ATOM      6  C   UNL     1      90.325  92.969  75.726  1.00  0.00    -0.003 C 
ATOM      7  C   UNL     1      90.297  92.421  74.282  1.00  0.00     0.004 C 
ENDBRANCH   5   6
ENDBRANCH   4   5
ENDBRANCH   3   4
ENDBRANCH   2   3
ENDBRANCH   1   2
BRANCH   1   8
ATOM      8  C   UNL     1      94.798  96.829  76.788  1.00  0.00     0.100 C 
BRANCH   8   9
ATOM      9  C   UNL     1      94.503  97.483  75.490  1.00  0.00     0.220 C 
ATOM     10  O   UNL     1      94.235  98.708  75.489  1.00  0.00    -0.275 OA
ATOM     11  N   UNL     1      94.552  96.770  74.326  1.00  0.00    -0.352 N 
ATOM     12  H   UNL     1      94.692  95.778  74.450  1.00  0.00     0.163 HD
BRANCH  11  13
ATOM     13  C   UNL     1      94.428  97.313  73.008  1.00  0.00     0.151 C 
BRANCH  13  14
ATOM     14  C   UNL     1      95.724  97.463  72.295  1.00  0.00    -0.025 A 
ATOM     15  C   UNL     1      96.894  97.813  73.010  1.00  0.00     0.056 A 
ATOM     16  C   UNL     1      95.812  97.264  70.897  1.00  0.00     0.009 A 
ATOM     17  C   UNL     1      98.137  97.943  72.348  1.00  0.00     0.160 A 
ATOM     18  C   UNL     1      97.045  97.391  70.233  1.00  0.00     0.050 A 
ATOM     19  C   UNL     1      98.206  97.736  70.952  1.00  0.00     0.157 A 
BRANCH  17  20
ATOM     20  O   UNL     1      99.262  98.323  73.036  1.00  0.00    -0.493 OA
ATOM     21  C   UNL     1      99.059  98.489  74.450  1.00  0.00     0.278 C 
ENDBRANCH  17  20
BRANCH  19  22
ATOM     22  O   UNL     1      99.386  97.883  70.297  1.00  0.00    -0.504 OA
ATOM     23  H   UNL     1      99.588  98.817  70.206  1.00  0.00     0.293 HD
ENDBRANCH  19  22
ENDBRANCH  13  14
ENDBRANCH  11  13
ENDBRANCH   8   9
ENDBRANCH   1   8
TORSDOF 11
ENDMDL
MODEL 6
REMARK VINA RESULT:    -5.271     12.621     14.413
REMARK INTER + INTRA:          -8.958
REMARK INTER:                  -8.181
REMARK INTRA:                  -0.776
REMARK UNBOUND:                -0.451
REMARK SMILES CCCCCCCCC(=O)NCc1ccc(O)c(OC)c1
REMARK SMILES IDX 7 1 6 2 5 3 4 4 3 5 2 6 1 7 8 8 9 9 10 10 11 11 12 13 13 14
REMARK SMILES IDX 21 15 14 16 18 17 15 18 16 19 19 20 20 21 17 22
REMARK H PARENT 11 12 17 23
REMARK Flexibility Score: inf
ROOT
ATOM      1  C   UNL     1      98.156  82.794  77.799  1.00  0.00     0.010 C 
ENDROOT
BRANCH   1   2
ATOM      2  C   UNL     1      97.819  81.386  78.370  1.00  0.00     0.001 C 
BRANCH   2   3
ATOM      3  C   UNL     1      98.399  81.176  79.800  1.00  0.00     0.000 C 
BRANCH   3   4
ATOM      4  C   UNL     1      98.336  82.446  80.695  1.00  0.00    -0.000 C 
BRANCH   4   5
ATOM      5  C   UNL     1      96.884  82.817  81.109  1.00  0.00    -0.000 C 
BRANCH   5   6
ATOM      6  C   UNL     1      96.713  82.925  82.648  1.00  0.00    -0.003 C 
ATOM      7  C   UNL     1      97.605  81.930  83.423  1.00  0.00     0.004 C 
ENDBRANCH   5   6
ENDBRANCH   4   5
ENDBRANCH   3   4
ENDBRANCH   2   3
ENDBRANCH   1   2
BRANCH   1   8
ATOM      8  C   UNL     1      96.910  83.694  77.566  1.00  0.00     0.100 C 
BRANCH   8   9
ATOM      9  C   UNL     1      96.943  84.324  76.224  1.00  0.00     0.220 C 
ATOM     10  O   UNL     1      96.116  85.233  75.973  1.00  0.00    -0.275 OA
ATOM     11  N   UNL     1      97.872  83.940  75.300  1.00  0.00    -0.352 N 
ATOM     12  H   UNL     1      98.429  83.144  75.574  1.00  0.00     0.163 HD
BRANCH  11  13
ATOM     13  C   UNL     1      98.097  84.564  74.032  1.00  0.00     0.151 C 
BRANCH  13  14
ATOM     14  C   UNL     1      99.516  84.934  73.786  1.00  0.00    -0.025 A 
ATOM     15  C   UNL     1      99.958  85.232  72.475  1.00  0.00     0.056 A 
ATOM     16  C   UNL     1     100.446  84.991  74.850  1.00  0.00     0.009 A 
ATOM     17  C   UNL     1     101.300  85.602  72.229  1.00  0.00     0.160 A 
ATOM     18  C   UNL     1     101.782  85.360  74.611  1.00  0.00     0.050 A 
ATOM     19  C   UNL     1     102.215  85.658  73.305  1.00  0.00     0.157 A 
BRANCH  17  20
ATOM     20  O   UNL     1     101.737  85.849  70.952  1.00  0.00    -0.493 OA
ATOM     21  C   UNL     1     101.769  84.686  70.105  1.00  0.00     0.278 C 
ENDBRANCH  17  20
BRANCH  19  22
ATOM     22  O   UNL     1     103.513  85.985  73.081  1.00  0.00    -0.504 OA
ATOM     23  H   UNL     1     103.606  86.941  73.079  1.00  0.00     0.293 HD
ENDBRANCH  19  22
ENDBRANCH  13  14
ENDBRANCH  11  13
ENDBRANCH   8   9
ENDBRANCH   1   8
TORSDOF 11
ENDMDL
MODEL 7
REMARK VINA RESULT:    -5.137     12.465     14.819
REMARK INTER + INTRA:          -8.741
REMARK INTER:                  -7.644
REMARK INTRA:                  -1.097
REMARK UNBOUND:                -0.451
REMARK SMILES CCCCCCCCC(=O)NCc1ccc(O)c(OC)c1
REMARK SMILES IDX 7 1 6 2 5 3 4 4 3 5 2 6 1 7 8 8 9 9 10 10 11 11 12 13 13 14
REMARK SMILES IDX 21 15 14 16 18 17 15 18 16 19 19 20 20 21 17 22
REMARK H PARENT 11 12 17 23
REMARK Flexibility Score: inf
ROOT
ATOM      1  C   UNL     1      96.464  83.974  77.066  1.00  0.00     0.010 C 
ENDROOT
BRANCH   1   2
ATOM      2  C   UNL     1      97.800  83.307  77.504  1.00  0.00     0.001 C 
BRANCH   2   3
ATOM      3  C   UNL     1      97.723  81.752  77.464  1.00  0.00     0.000 C 
BRANCH   3   4
ATOM      4  C   UNL     1      97.766  81.086  78.868  1.00  0.00    -0.000 C 
BRANCH   4   5
ATOM      5  C   UNL     1      97.559  82.106  80.023  1.00  0.00    -0.000 C 
BRANCH   5   6
ATOM      6  C   UNL     1      98.611  81.947  81.154  1.00  0.00    -0.003 C 
ATOM      7  C   UNL     1     100.061  82.139  80.656  1.00  0.00     0.004 C 
ENDBRANCH   5   6
ENDBRANCH   4   5
ENDBRANCH   3   4
ENDBRANCH   2   3
ENDBRANCH   1   2
BRANCH   1   8
ATOM      8  C   UNL     1      96.627  85.023  75.931  1.00  0.00     0.100 C 
BRANCH   8   9
ATOM      9  C   UNL     1      97.541  84.533  74.870  1.00  0.00     0.220 C 
ATOM     10  O   UNL     1      97.153  83.592  74.138  1.00  0.00    -0.275 OA
ATOM     11  N   UNL     1      98.761  85.117  74.682  1.00  0.00    -0.352 N 
ATOM     12  H   UNL     1      99.007  85.804  75.379  1.00  0.00     0.163 HD
BRANCH  11  13
ATOM     13  C   UNL     1      99.667  84.832  73.612  1.00  0.00     0.151 C 
BRANCH  13  14
ATOM     14  C   UNL     1     101.006  84.367  74.065  1.00  0.00    -0.025 A 
ATOM     15  C   UNL     1     101.113  83.408  75.100  1.00  0.00     0.056 A 
ATOM     16  C   UNL     1     102.188  84.873  73.477  1.00  0.00     0.009 A 
ATOM     17  C   UNL     1     102.378  82.943  75.529  1.00  0.00     0.160 A 
ATOM     18  C   UNL     1     103.449  84.414  73.899  1.00  0.00     0.050 A 
ATOM     19  C   UNL     1     103.549  83.458  74.928  1.00  0.00     0.157 A 
BRANCH  17  20
ATOM     20  O   UNL     1     102.482  82.045  76.562  1.00  0.00    -0.493 OA
ATOM     21  C   UNL     1     101.222  81.511  77.006  1.00  0.00     0.278 C 
ENDBRANCH  17  20
BRANCH  19  22
ATOM     22  O   UNL     1     104.771  83.042  75.347  1.00  0.00    -0.504 OA
ATOM     23  H   UNL     1     105.442  83.351  74.733  1.00  0.00     0.293 HD
ENDBRANCH  19  22
ENDBRANCH  13  14
ENDBRANCH  11  13
ENDBRANCH   8   9
ENDBRANCH   1   8
TORSDOF 11
ENDMDL
MODEL 8
REMARK VINA RESULT:    -5.114     39.253     41.375
REMARK INTER + INTRA:          -8.704
REMARK INTER:                  -8.195
REMARK INTRA:                  -0.509
REMARK UNBOUND:                -0.451
REMARK SMILES CCCCCCCCC(=O)NCc1ccc(O)c(OC)c1
REMARK SMILES IDX 7 1 6 2 5 3 4 4 3 5 2 6 1 7 8 8 9 9 10 10 11 11 12 13 13 14
REMARK SMILES IDX 21 15 14 16 18 17 15 18 16 19 19 20 20 21 17 22
REMARK H PARENT 11 12 17 23
REMARK Flexibility Score: inf
ROOT
ATOM      1  C   UNL     1      53.512  93.396  73.828  1.00  0.00     0.010 C 
ENDROOT
BRANCH   1   2
ATOM      2  C   UNL     1      53.017  92.182  74.665  1.00  0.00     0.001 C 
BRANCH   2   3
ATOM      3  C   UNL     1      51.557  92.372  75.172  1.00  0.00     0.000 C 
BRANCH   3   4
ATOM      4  C   UNL     1      51.186  91.455  76.372  1.00  0.00    -0.000 C 
BRANCH   4   5
ATOM      5  C   UNL     1      51.959  90.106  76.358  1.00  0.00    -0.000 C 
BRANCH   5   6
ATOM      6  C   UNL     1      51.791  89.309  77.680  1.00  0.00    -0.003 C 
ATOM      7  C   UNL     1      52.915  89.597  78.701  1.00  0.00     0.004 C 
ENDBRANCH   5   6
ENDBRANCH   4   5
ENDBRANCH   3   4
ENDBRANCH   2   3
ENDBRANCH   1   2
BRANCH   1   8
ATOM      8  C   UNL     1      53.132  93.319  72.323  1.00  0.00     0.100 C 
BRANCH   8   9
ATOM      9  C   UNL     1      54.333  93.409  71.458  1.00  0.00     0.220 C 
ATOM     10  O   UNL     1      55.396  93.847  71.959  1.00  0.00    -0.275 OA
ATOM     11  N   UNL     1      54.284  92.997  70.157  1.00  0.00    -0.352 N 
ATOM     12  H   UNL     1      53.362  92.746  69.833  1.00  0.00     0.163 HD
BRANCH  11  13
ATOM     13  C   UNL     1      55.401  92.902  69.268  1.00  0.00     0.151 C 
BRANCH  13  14
ATOM     14  C   UNL     1      55.518  91.584  68.588  1.00  0.00    -0.025 A 
ATOM     15  C   UNL     1      54.704  91.285  67.469  1.00  0.00     0.056 A 
ATOM     16  C   UNL     1      56.435  90.609  69.045  1.00  0.00     0.009 A 
ATOM     17  C   UNL     1      54.816  90.043  66.802  1.00  0.00     0.160 A 
ATOM     18  C   UNL     1      56.552  89.373  68.385  1.00  0.00     0.050 A 
ATOM     19  C   UNL     1      55.741  89.083  67.271  1.00  0.00     0.157 A 
BRANCH  17  20
ATOM     20  O   UNL     1      53.997  89.739  65.744  1.00  0.00    -0.493 OA
ATOM     21  C   UNL     1      53.722  90.851  64.874  1.00  0.00     0.278 C 
ENDBRANCH  17  20
BRANCH  19  22
ATOM     22  O   UNL     1      55.842  87.876  66.658  1.00  0.00    -0.504 OA
ATOM     23  H   UNL     1      56.654  87.444  66.933  1.00  0.00     0.293 HD
ENDBRANCH  19  22
ENDBRANCH  13  14
ENDBRANCH  11  13
ENDBRANCH   8   9
ENDBRANCH   1   8
TORSDOF 11
ENDMDL
MODEL 9
REMARK VINA RESULT:    -5.095      2.686      4.386
REMARK INTER + INTRA:          -8.673
REMARK INTER:                  -7.955
REMARK INTRA:                  -0.718
REMARK UNBOUND:                -0.451
REMARK SMILES CCCCCCCCC(=O)NCc1ccc(O)c(OC)c1
REMARK SMILES IDX 7 1 6 2 5 3 4 4 3 5 2 6 1 7 8 8 9 9 10 10 11 11 12 13 13 14
REMARK SMILES IDX 21 15 14 16 18 17 15 18 16 19 19 20 20 21 17 22
REMARK H PARENT 11 12 17 23
REMARK Flexibility Score: inf
ROOT
ATOM      1  C   UNL     1      95.454  96.525  79.048  1.00  0.00     0.010 C 
ENDROOT
BRANCH   1   2
ATOM      2  C   UNL     1      95.116  96.323  77.543  1.00  0.00     0.001 C 
BRANCH   2   3
ATOM      3  C   UNL     1      94.084  97.369  77.026  1.00  0.00     0.000 C 
BRANCH   3   4
ATOM      4  C   UNL     1      92.609  96.882  77.095  1.00  0.00    -0.000 C 
BRANCH   4   5
ATOM      5  C   UNL     1      92.491  95.376  77.466  1.00  0.00    -0.000 C 
BRANCH   5   6
ATOM      6  C   UNL     1      91.068  94.810  77.211  1.00  0.00    -0.003 C 
ATOM      7  C   UNL     1      90.673  94.831  75.718  1.00  0.00     0.004 C 
ENDBRANCH   5   6
ENDBRANCH   4   5
ENDBRANCH   3   4
ENDBRANCH   2   3
ENDBRANCH   1   2
BRANCH   1   8
ATOM      8  C   UNL     1      95.655  95.197  79.831  1.00  0.00     0.100 C 
BRANCH   8   9
ATOM      9  C   UNL     1      96.434  95.416  81.074  1.00  0.00     0.220 C 
ATOM     10  O   UNL     1      95.956  95.000  82.157  1.00  0.00    -0.275 OA
ATOM     11  N   UNL     1      97.653  96.029  81.030  1.00  0.00    -0.352 N 
ATOM     12  H   UNL     1      97.901  96.400  80.125  1.00  0.00     0.163 HD
BRANCH  11  13
ATOM     13  C   UNL     1      98.557  96.171  82.130  1.00  0.00     0.151 C 
BRANCH  13  14
ATOM     14  C   UNL     1      98.286  97.361  82.981  1.00  0.00    -0.025 A 
ATOM     15  C   UNL     1      97.574  98.465  82.456  1.00  0.00     0.056 A 
ATOM     16  C   UNL     1      98.734  97.413  84.321  1.00  0.00     0.009 A 
ATOM     17  C   UNL     1      97.294  99.595  83.258  1.00  0.00     0.160 A 
ATOM     18  C   UNL     1      98.458  98.533  85.125  1.00  0.00     0.050 A 
ATOM     19  C   UNL     1      97.747  99.628  84.596  1.00  0.00     0.157 A 
BRANCH  17  20
ATOM     20  O   UNL     1      96.641 100.683  82.734  1.00  0.00    -0.493 OA
ATOM     21  C   UNL     1      95.252 100.450  82.443  1.00  0.00     0.278 C 
ENDBRANCH  17  20
BRANCH  19  22
ATOM     22  O   UNL     1      97.509 100.717  85.372  1.00  0.00    -0.504 OA
ATOM     23  H   UNL     1      96.653 101.088  85.147  1.00  0.00     0.293 HD
ENDBRANCH  19  22
ENDBRANCH  13  14
ENDBRANCH  11  13
ENDBRANCH   8   9
ENDBRANCH   1   8
TORSDOF 11
ENDMDL
MODEL 10
REMARK VINA RESULT:    -5.086     38.950     41.382
REMARK INTER + INTRA:          -8.659
REMARK INTER:                  -7.937
REMARK INTRA:                  -0.723
REMARK UNBOUND:                -0.451
REMARK SMILES CCCCCCCCC(=O)NCc1ccc(O)c(OC)c1
REMARK SMILES IDX 7 1 6 2 5 3 4 4 3 5 2 6 1 7 8 8 9 9 10 10 11 11 12 13 13 14
REMARK SMILES IDX 21 15 14 16 18 17 15 18 16 19 19 20 20 21 17 22
REMARK H PARENT 11 12 17 23
REMARK Flexibility Score: inf
ROOT
ATOM      1  C   UNL     1      51.845  93.785  73.818  1.00  0.00     0.010 C 
ENDROOT
BRANCH   1   2
ATOM      2  C   UNL     1      51.027  93.187  74.999  1.00  0.00     0.001 C 
BRANCH   2   3
ATOM      3  C   UNL     1      51.764  93.337  76.362  1.00  0.00     0.000 C 
BRANCH   3   4
ATOM      4  C   UNL     1      51.823  92.023  77.191  1.00  0.00    -0.000 C 
BRANCH   4   5
ATOM      5  C   UNL     1      51.150  90.825  76.464  1.00  0.00    -0.000 C 
BRANCH   5   6
ATOM      6  C   UNL     1      51.374  89.478  77.203  1.00  0.00    -0.003 C 
ATOM      7  C   UNL     1      52.475  89.562  78.283  1.00  0.00     0.004 C 
ENDBRANCH   5   6
ENDBRANCH   4   5
ENDBRANCH   3   4
ENDBRANCH   2   3
ENDBRANCH   1   2
BRANCH   1   8
ATOM      8  C   UNL     1      53.317  93.287  73.756  1.00  0.00     0.100 C 
BRANCH   8   9
ATOM      9  C   UNL     1      53.925  93.563  72.433  1.00  0.00     0.220 C 
ATOM     10  O   UNL     1      53.460  94.506  71.749  1.00  0.00    -0.275 OA
ATOM     11  N   UNL     1      54.983  92.823  71.988  1.00  0.00    -0.352 N 
ATOM     12  H   UNL     1      55.220  92.037  72.575  1.00  0.00     0.163 HD
BRANCH  11  13
ATOM     13  C   UNL     1      55.742  93.079  70.802  1.00  0.00     0.151 C 
BRANCH  13  14
ATOM     14  C   UNL     1      55.355  92.227  69.645  1.00  0.00    -0.025 A 
ATOM     15  C   UNL     1      56.090  91.055  69.347  1.00  0.00     0.056 A 
ATOM     16  C   UNL     1      54.257  92.571  68.824  1.00  0.00     0.009 A 
ATOM     17  C   UNL     1      55.724  90.226  68.261  1.00  0.00     0.160 A 
ATOM     18  C   UNL     1      53.887  91.751  67.744  1.00  0.00     0.050 A 
ATOM     19  C   UNL     1      54.621  90.584  67.455  1.00  0.00     0.157 A 
BRANCH  17  20
ATOM     20  O   UNL     1      56.463  89.113  67.949  1.00  0.00    -0.493 OA
ATOM     21  C   UNL     1      57.600  89.378  67.107  1.00  0.00     0.278 C 
ENDBRANCH  17  20
BRANCH  19  22
ATOM     22  O   UNL     1      54.273  89.813  66.393  1.00  0.00    -0.504 OA
ATOM     23  H   UNL     1      53.635  90.284  65.851  1.00  0.00     0.293 HD
ENDBRANCH  19  22
ENDBRANCH  13  14
ENDBRANCH  11  13
ENDBRANCH   8   9
ENDBRANCH   1   8
TORSDOF 11
ENDMDL
