MODEL 1
REMARK VINA RESULT:    -6.990      0.000      0.000
REMARK INTER + INTRA:          -8.634
REMARK INTER:                  -8.216
REMARK INTRA:                  -0.418
REMARK UNBOUND:                -0.418
REMARK SMILES O=C(/C=C/C=C/c1ccc2c(c1)OCO2)N1CCCCC1
REMARK SMILES IDX 3 1 4 2 2 3 1 4 16 5 17 6 21 7 18 8 20 9 19 10 5 11 6 12
REMARK SMILES IDX 7 13 12 14 8 15 11 16 9 17 13 18 10 19 14 20 15 21
REMARK H PARENT
REMARK Flexibility Score: inf
ROOT
ATOM      1  C   UNL     1      75.846  91.479  71.214  1.00  0.00     0.071 C 
ATOM      2  C   UNL     1      74.835  90.615  71.295  1.00  0.00     0.006 C 
ENDROOT
BRANCH   1   3
ATOM      3  C   UNL     1      75.599  92.877  71.620  1.00  0.00     0.246 C 
ATOM      4  O   UNL     1      74.628  93.450  71.124  1.00  0.00    -0.270 OA
ATOM      5  N   UNL     1      76.482  93.454  72.531  1.00  0.00    -0.339 N 
ATOM      6  C   UNL     1      76.265  94.843  72.949  1.00  0.00     0.120 C 
ATOM      7  C   UNL     1      77.675  92.818  73.108  1.00  0.00     0.120 C 
ATOM      8  C   UNL     1      76.228  94.968  74.468  1.00  0.00     0.022 C 
ATOM      9  C   UNL     1      77.676  92.926  74.633  1.00  0.00     0.022 C 
ATOM     10  C   UNL     1      77.481  94.366  75.096  1.00  0.00     0.004 C 
ENDBRANCH   1   3
BRANCH   2  11
ATOM     11  C   UNL     1      74.980  89.225  70.920  1.00  0.00     0.001 C 
ATOM     12  C   UNL     1      76.066  88.752  70.287  1.00  0.00     0.008 C 
BRANCH  12  13
ATOM     13  C   UNL     1      76.260  87.351  69.875  1.00  0.00    -0.022 A 
ATOM     14  C   UNL     1      77.368  87.021  69.107  1.00  0.00     0.058 A 
ATOM     15  C   UNL     1      75.324  86.393  70.270  1.00  0.00     0.012 A 
ATOM     16  C   UNL     1      77.508  85.696  68.747  1.00  0.00     0.166 A 
ATOM     17  C   UNL     1      75.490  85.059  69.892  1.00  0.00     0.051 A 
ATOM     18  O   UNL     1      78.519  85.175  67.999  1.00  0.00    -0.454 OA
ATOM     19  C   UNL     1      76.594  84.741  69.129  1.00  0.00     0.165 A 
ATOM     20  C   UNL     1      78.138  83.785  67.953  1.00  0.00     0.468 C 
ATOM     21  O   UNL     1      76.917  83.502  68.668  1.00  0.00    -0.454 OA
ENDBRANCH  12  13
ENDBRANCH   2  11
TORSDOF 3
ENDMDL
MODEL 2
REMARK VINA RESULT:    -6.978     23.459     24.806
REMARK INTER + INTRA:          -8.619
REMARK INTER:                  -8.369
REMARK INTRA:                  -0.251
REMARK UNBOUND:                -0.418
REMARK SMILES O=C(/C=C/C=C/c1ccc2c(c1)OCO2)N1CCCCC1
REMARK SMILES IDX 3 1 4 2 2 3 1 4 16 5 17 6 21 7 18 8 20 9 19 10 5 11 6 12
REMARK SMILES IDX 7 13 12 14 8 15 11 16 9 17 13 18 10 19 14 20 15 21
REMARK H PARENT
REMARK Flexibility Score: inf
ROOT
ATOM      1  C   UNL     1      96.671  84.218  84.480  1.00  0.00     0.071 C 
ATOM      2  C   UNL     1      97.743  83.447  84.306  1.00  0.00     0.006 C 
ENDROOT
BRANCH   1   3
ATOM      3  C   UNL     1      96.339  84.645  85.854  1.00  0.00     0.246 C 
ATOM      4  O   UNL     1      96.680  85.778  86.195  1.00  0.00    -0.270 OA
ATOM      5  N   UNL     1      95.667  83.738  86.672  1.00  0.00    -0.339 N 
ATOM      6  C   UNL     1      95.328  84.132  88.043  1.00  0.00     0.120 C 
ATOM      7  C   UNL     1      95.284  82.364  86.315  1.00  0.00     0.120 C 
ATOM      8  C   UNL     1      93.846  83.921  88.333  1.00  0.00     0.022 C 
ATOM      9  C   UNL     1      93.803  82.112  86.595  1.00  0.00     0.022 C 
ATOM     10  C   UNL     1      93.428  82.487  88.026  1.00  0.00     0.004 C 
ENDBRANCH   1   3
BRANCH   2  11
ATOM     11  C   UNL     1      98.149  82.978  82.998  1.00  0.00     0.001 C 
ATOM     12  C   UNL     1      97.716  83.539  81.858  1.00  0.00     0.008 C 
BRANCH  12  13
ATOM     13  C   UNL     1      98.090  83.098  80.504  1.00  0.00    -0.022 A 
ATOM     14  C   UNL     1      97.390  83.596  79.413  1.00  0.00     0.058 A 
ATOM     15  C   UNL     1      99.140  82.188  80.354  1.00  0.00     0.012 A 
ATOM     16  C   UNL     1      97.777  83.153  78.165  1.00  0.00     0.166 A 
ATOM     17  C   UNL     1      99.511  81.756  79.079  1.00  0.00     0.051 A 
ATOM     18  O   UNL     1      97.219  83.520  76.979  1.00  0.00    -0.454 OA
ATOM     19  C   UNL     1      98.810  82.257  78.002  1.00  0.00     0.165 A 
ATOM     20  C   UNL     1      98.016  82.755  76.052  1.00  0.00     0.468 C 
ATOM     21  O   UNL     1      99.027  81.952  76.694  1.00  0.00    -0.454 OA
ENDBRANCH  12  13
ENDBRANCH   2  11
TORSDOF 3
ENDMDL
MODEL 3
REMARK VINA RESULT:    -6.977     23.835     25.966
REMARK INTER + INTRA:          -8.618
REMARK INTER:                  -8.274
REMARK INTRA:                  -0.344
REMARK UNBOUND:                -0.418
REMARK SMILES O=C(/C=C/C=C/c1ccc2c(c1)OCO2)N1CCCCC1
REMARK SMILES IDX 3 1 4 2 2 3 1 4 16 5 17 6 21 7 18 8 20 9 19 10 5 11 6 12
REMARK SMILES IDX 7 13 12 14 8 15 11 16 9 17 13 18 10 19 14 20 15 21
REMARK H PARENT
REMARK Flexibility Score: inf
ROOT
ATOM      1  C   UNL     1      98.431  82.649  81.086  1.00  0.00     0.071 C 
ATOM      2  C   UNL     1      98.771  82.790  82.366  1.00  0.00     0.006 C 
ENDROOT
BRANCH   1   3
ATOM      3  C   UNL     1      99.508  82.661  80.076  1.00  0.00     0.246 C 
ATOM      4  O   UNL     1     100.589  82.162  80.391  1.00  0.00    -0.270 OA
ATOM      5  N   UNL     1      99.231  83.238  78.838  1.00  0.00    -0.339 N 
ATOM      6  C   UNL     1     100.282  83.269  77.817  1.00  0.00     0.120 C 
ATOM      7  C   UNL     1      97.970  83.882  78.442  1.00  0.00     0.120 C 
ATOM      8  C   UNL     1      99.796  82.676  76.499  1.00  0.00     0.022 C 
ATOM      9  C   UNL     1      97.451  83.315  77.120  1.00  0.00     0.022 C 
ATOM     10  C   UNL     1      98.517  83.361  76.029  1.00  0.00     0.004 C 
ENDBRANCH   1   3
BRANCH   2  11
ATOM     11  C   UNL     1      97.787  82.792  83.428  1.00  0.00     0.001 C 
ATOM     12  C   UNL     1      97.585  83.850  84.229  1.00  0.00     0.008 C 
BRANCH  12  13
ATOM     13  C   UNL     1      96.605  83.903  85.328  1.00  0.00    -0.022 A 
ATOM     14  C   UNL     1      96.348  85.119  85.946  1.00  0.00     0.058 A 
ATOM     15  C   UNL     1      95.961  82.726  85.718  1.00  0.00     0.012 A 
ATOM     16  C   UNL     1      95.422  85.117  86.969  1.00  0.00     0.166 A 
ATOM     17  C   UNL     1      95.028  82.753  86.757  1.00  0.00     0.051 A 
ATOM     18  O   UNL     1      95.035  86.201  87.696  1.00  0.00    -0.454 OA
ATOM     19  C   UNL     1      94.780  83.966  87.364  1.00  0.00     0.165 A 
ATOM     20  C   UNL     1      94.077  85.603  88.592  1.00  0.00     0.468 C 
ATOM     21  O   UNL     1      93.910  84.185  88.387  1.00  0.00    -0.454 OA
ENDBRANCH  12  13
ENDBRANCH   2  11
TORSDOF 3
ENDMDL
MODEL 4
REMARK VINA RESULT:    -6.935     24.052     25.520
REMARK INTER + INTRA:          -8.569
REMARK INTER:                  -8.181
REMARK INTRA:                  -0.388
REMARK UNBOUND:                -0.418
REMARK SMILES O=C(/C=C/C=C/c1ccc2c(c1)OCO2)N1CCCCC1
REMARK SMILES IDX 3 1 4 2 2 3 1 4 16 5 17 6 21 7 18 8 20 9 19 10 5 11 6 12
REMARK SMILES IDX 7 13 12 14 8 15 11 16 9 17 13 18 10 19 14 20 15 21
REMARK H PARENT
REMARK Flexibility Score: inf
ROOT
ATOM      1  C   UNL     1      98.069  83.159  85.426  1.00  0.00     0.071 C 
ATOM      2  C   UNL     1      97.783  82.108  84.659  1.00  0.00     0.006 C 
ENDROOT
BRANCH   1   3
ATOM      3  C   UNL     1      97.677  83.108  86.848  1.00  0.00     0.246 C 
ATOM      4  O   UNL     1      98.397  82.466  87.614  1.00  0.00    -0.270 OA
ATOM      5  N   UNL     1      96.518  83.783  87.228  1.00  0.00    -0.339 N 
ATOM      6  C   UNL     1      96.101  83.746  88.633  1.00  0.00     0.120 C 
ATOM      7  C   UNL     1      95.611  84.520  86.336  1.00  0.00     0.120 C 
ATOM      8  C   UNL     1      95.870  85.150  89.182  1.00  0.00     0.022 C 
ATOM      9  C   UNL     1      95.351  85.934  86.856  1.00  0.00     0.022 C 
ATOM     10  C   UNL     1      94.887  85.924  88.310  1.00  0.00     0.004 C 
ENDBRANCH   1   3
BRANCH   2  11
ATOM     11  C   UNL     1      98.126  82.065  83.254  1.00  0.00     0.001 C 
ATOM     12  C   UNL     1      98.092  83.150  82.464  1.00  0.00     0.008 C 
BRANCH  12  13
ATOM     13  C   UNL     1      98.423  83.161  81.029  1.00  0.00    -0.022 A 
ATOM     14  C   UNL     1      97.436  83.489  80.110  1.00  0.00     0.058 A 
ATOM     15  C   UNL     1      99.724  82.839  80.631  1.00  0.00     0.012 A 
ATOM     16  C   UNL     1      97.794  83.486  78.778  1.00  0.00     0.166 A 
ATOM     17  C   UNL     1     100.059  82.844  79.275  1.00  0.00     0.051 A 
ATOM     18  O   UNL     1      96.974  83.776  77.730  1.00  0.00    -0.454 OA
ATOM     19  C   UNL     1      99.070  83.171  78.371  1.00  0.00     0.165 A 
ATOM     20  C   UNL     1      97.879  83.610  76.619  1.00  0.00     0.468 C 
ATOM     21  O   UNL     1      99.211  83.226  77.018  1.00  0.00    -0.454 OA
ENDBRANCH  12  13
ENDBRANCH   2  11
TORSDOF 3
ENDMDL
MODEL 5
REMARK VINA RESULT:    -6.935     16.514     19.553
REMARK INTER + INTRA:          -8.569
REMARK INTER:                  -8.175
REMARK INTRA:                  -0.395
REMARK UNBOUND:                -0.418
REMARK SMILES O=C(/C=C/C=C/c1ccc2c(c1)OCO2)N1CCCCC1
REMARK SMILES IDX 3 1 4 2 2 3 1 4 16 5 17 6 21 7 18 8 20 9 19 10 5 11 6 12
REMARK SMILES IDX 7 13 12 14 8 15 11 16 9 17 13 18 10 19 14 20 15 21
REMARK H PARENT
REMARK Flexibility Score: inf
ROOT
ATOM      1  C   UNL     1      91.234  99.630  72.068  1.00  0.00     0.071 C 
ATOM      2  C   UNL     1      92.205 100.374  72.595  1.00  0.00     0.006 C 
ENDROOT
BRANCH   1   3
ATOM      3  C   UNL     1      90.399 100.227  71.007  1.00  0.00     0.246 C 
ATOM      4  O   UNL     1      90.470 101.446  70.846  1.00  0.00    -0.270 OA
ATOM      5  N   UNL     1      89.585  99.374  70.264  1.00  0.00    -0.339 N 
ATOM      6  C   UNL     1      88.740  99.939  69.207  1.00  0.00     0.120 C 
ATOM      7  C   UNL     1      89.440  97.924  70.457  1.00  0.00     0.120 C 
ATOM      8  C   UNL     1      88.955  99.222  67.879  1.00  0.00     0.022 C 
ATOM      9  C   UNL     1      89.646  97.168  69.144  1.00  0.00     0.022 C 
ATOM     10  C   UNL     1      88.757  97.717  68.032  1.00  0.00     0.004 C 
ENDBRANCH   1   3
BRANCH   2  11
ATOM     11  C   UNL     1      93.075  99.876  73.639  1.00  0.00     0.001 C 
ATOM     12  C   UNL     1      92.701  98.916  74.500  1.00  0.00     0.008 C 
BRANCH  12  13
ATOM     13  C   UNL     1      93.542  98.380  75.584  1.00  0.00    -0.022 A 
ATOM     14  C   UNL     1      93.235  97.140  76.127  1.00  0.00     0.058 A 
ATOM     15  C   UNL     1      94.626  99.136  76.037  1.00  0.00     0.012 A 
ATOM     16  C   UNL     1      94.052  96.680  77.139  1.00  0.00     0.166 A 
ATOM     17  C   UNL     1      95.436  98.646  77.064  1.00  0.00     0.051 A 
ATOM     18  O   UNL     1      93.917  95.496  77.797  1.00  0.00    -0.454 OA
ATOM     19  C   UNL     1      95.123  97.413  77.596  1.00  0.00     0.165 A 
ATOM     20  C   UNL     1      95.024  95.566  78.719  1.00  0.00     0.468 C 
ATOM     21  O   UNL     1      95.794  96.780  78.596  1.00  0.00    -0.454 OA
ENDBRANCH  12  13
ENDBRANCH   2  11
TORSDOF 3
ENDMDL
MODEL 6
REMARK VINA RESULT:    -6.924      3.532      9.509
REMARK INTER + INTRA:          -8.556
REMARK INTER:                  -8.155
REMARK INTRA:                  -0.401
REMARK UNBOUND:                -0.418
REMARK SMILES O=C(/C=C/C=C/c1ccc2c(c1)OCO2)N1CCCCC1
REMARK SMILES IDX 3 1 4 2 2 3 1 4 16 5 17 6 21 7 18 8 20 9 19 10 5 11 6 12
REMARK SMILES IDX 7 13 12 14 8 15 11 16 9 17 13 18 10 19 14 20 15 21
REMARK H PARENT
REMARK Flexibility Score: inf
ROOT
ATOM      1  C   UNL     1      76.777  85.579  68.417  1.00  0.00     0.071 C 
ATOM      2  C   UNL     1      77.522  86.577  68.889  1.00  0.00     0.006 C 
ENDROOT
BRANCH   1   3
ATOM      3  C   UNL     1      77.445  84.533  67.617  1.00  0.00     0.246 C 
ATOM      4  O   UNL     1      78.644  84.341  67.818  1.00  0.00    -0.270 OA
ATOM      5  N   UNL     1      76.675  83.838  66.685  1.00  0.00    -0.339 N 
ATOM      6  C   UNL     1      77.312  82.797  65.872  1.00  0.00     0.120 C 
ATOM      7  C   UNL     1      75.254  84.069  66.385  1.00  0.00     0.120 C 
ATOM      8  C   UNL     1      76.549  81.479  65.957  1.00  0.00     0.022 C 
ATOM      9  C   UNL     1      74.455  82.768  66.457  1.00  0.00     0.022 C 
ATOM     10  C   UNL     1      75.079  81.674  65.596  1.00  0.00     0.004 C 
ENDBRANCH   1   3
BRANCH   2  11
ATOM     11  C   UNL     1      76.958  87.649  69.682  1.00  0.00     0.001 C 
ATOM     12  C   UNL     1      75.649  87.731  69.967  1.00  0.00     0.008 C 
BRANCH  12  13
ATOM     13  C   UNL     1      75.023  88.801  70.761  1.00  0.00    -0.022 A 
ATOM     14  C   UNL     1      73.879  88.517  71.495  1.00  0.00     0.058 A 
ATOM     15  C   UNL     1      75.598  90.074  70.754  1.00  0.00     0.012 A 
ATOM     16  C   UNL     1      73.329  89.552  72.224  1.00  0.00     0.166 A 
ATOM     17  C   UNL     1      75.020  91.104  71.501  1.00  0.00     0.051 A 
ATOM     18  O   UNL     1      72.215  89.476  73.002  1.00  0.00    -0.454 OA
ATOM     19  C   UNL     1      73.884  90.811  72.227  1.00  0.00     0.165 A 
ATOM     20  C   UNL     1      72.131  90.829  73.494  1.00  0.00     0.468 C 
ATOM     21  O   UNL     1      73.188  91.682  73.007  1.00  0.00    -0.454 OA
ENDBRANCH  12  13
ENDBRANCH   2  11
TORSDOF 3
ENDMDL
MODEL 7
REMARK VINA RESULT:    -6.900     24.069     25.503
REMARK INTER + INTRA:          -8.527
REMARK INTER:                  -8.148
REMARK INTRA:                  -0.379
REMARK UNBOUND:                -0.418
REMARK SMILES O=C(/C=C/C=C/c1ccc2c(c1)OCO2)N1CCCCC1
REMARK SMILES IDX 3 1 4 2 2 3 1 4 16 5 17 6 21 7 18 8 20 9 19 10 5 11 6 12
REMARK SMILES IDX 7 13 12 14 8 15 11 16 9 17 13 18 10 19 14 20 15 21
REMARK H PARENT
REMARK Flexibility Score: inf
ROOT
ATOM      1  C   UNL     1      98.112  83.064  84.037  1.00  0.00     0.071 C 
ATOM      2  C   UNL     1      98.778  82.168  83.311  1.00  0.00     0.006 C 
ENDROOT
BRANCH   1   3
ATOM      3  C   UNL     1      97.901  82.778  85.470  1.00  0.00     0.246 C 
ATOM      4  O   UNL     1      98.573  81.878  85.976  1.00  0.00    -0.270 OA
ATOM      5  N   UNL     1      96.953  83.540  86.152  1.00  0.00    -0.339 N 
ATOM      6  C   UNL     1      96.718  83.275  87.575  1.00  0.00     0.120 C 
ATOM      7  C   UNL     1      96.102  84.589  85.573  1.00  0.00     0.120 C 
ATOM      8  C   UNL     1      96.836  84.548  88.406  1.00  0.00     0.022 C 
ATOM      9  C   UNL     1      96.191  85.883  86.381  1.00  0.00     0.022 C 
ATOM     10  C   UNL     1      95.921  85.642  87.864  1.00  0.00     0.004 C 
ENDBRANCH   1   3
BRANCH   2  11
ATOM     11  C   UNL     1      99.034  82.359  81.899  1.00  0.00     0.001 C 
ATOM     12  C   UNL     1      98.218  83.068  81.102  1.00  0.00     0.008 C 
BRANCH  12  13
ATOM     13  C   UNL     1      98.427  83.286  79.661  1.00  0.00    -0.022 A 
ATOM     14  C   UNL     1      99.676  83.029  79.112  1.00  0.00     0.058 A 
ATOM     15  C   UNL     1      97.361  83.747  78.884  1.00  0.00     0.012 A 
ATOM     16  C   UNL     1      99.822  83.248  77.758  1.00  0.00     0.166 A 
ATOM     17  C   UNL     1      97.537  83.961  77.515  1.00  0.00     0.051 A 
ATOM     18  O   UNL     1     100.961  83.058  77.037  1.00  0.00    -0.454 OA
ATOM     19  C   UNL     1      98.781  83.702  76.980  1.00  0.00     0.165 A 
ATOM     20  C   UNL     1     100.520  83.442  75.719  1.00  0.00     0.468 C 
ATOM     21  O   UNL     1      99.138  83.852  75.676  1.00  0.00    -0.454 OA
ENDBRANCH  12  13
ENDBRANCH   2  11
TORSDOF 3
ENDMDL
MODEL 8
REMARK VINA RESULT:    -6.707      2.650      8.980
REMARK INTER + INTRA:          -8.301
REMARK INTER:                  -7.948
REMARK INTRA:                  -0.353
REMARK UNBOUND:                -0.418
REMARK SMILES O=C(/C=C/C=C/c1ccc2c(c1)OCO2)N1CCCCC1
REMARK SMILES IDX 3 1 4 2 2 3 1 4 16 5 17 6 21 7 18 8 20 9 19 10 5 11 6 12
REMARK SMILES IDX 7 13 12 14 8 15 11 16 9 17 13 18 10 19 14 20 15 21
REMARK H PARENT
REMARK Flexibility Score: inf
ROOT
ATOM      1  C   UNL     1      75.982  88.438  70.219  1.00  0.00     0.071 C 
ATOM      2  C   UNL     1      75.137  89.374  70.648  1.00  0.00     0.006 C 
ENDROOT
BRANCH   1   3
ATOM      3  C   UNL     1      75.491  87.049  70.127  1.00  0.00     0.246 C 
ATOM      4  O   UNL     1      74.302  86.848  70.377  1.00  0.00    -0.270 OA
ATOM      5  N   UNL     1      76.406  86.059  69.771  1.00  0.00    -0.339 N 
ATOM      6  C   UNL     1      75.949  84.669  69.677  1.00  0.00     0.120 C 
ATOM      7  C   UNL     1      77.840  86.254  69.510  1.00  0.00     0.120 C 
ATOM      8  C   UNL     1      76.314  84.053  68.331  1.00  0.00     0.022 C 
ATOM      9  C   UNL     1      78.246  85.645  68.168  1.00  0.00     0.022 C 
ATOM     10  C   UNL     1      77.808  84.188  68.054  1.00  0.00     0.004 C 
ENDBRANCH   1   3
BRANCH   2  11
ATOM     11  C   UNL     1      75.526  90.763  70.772  1.00  0.00     0.001 C 
ATOM     12  C   UNL     1      76.480  91.178  71.621  1.00  0.00     0.008 C 
BRANCH  12  13
ATOM     13  C   UNL     1      76.908  92.576  71.792  1.00  0.00    -0.022 A 
ATOM     14  C   UNL     1      76.114  93.593  71.280  1.00  0.00     0.058 A 
ATOM     15  C   UNL     1      78.103  92.841  72.467  1.00  0.00     0.012 A 
ATOM     16  C   UNL     1      76.556  94.887  71.467  1.00  0.00     0.166 A 
ATOM     17  C   UNL     1      78.527  94.161  72.641  1.00  0.00     0.051 A 
ATOM     18  O   UNL     1      75.925  96.015  71.041  1.00  0.00    -0.454 OA
ATOM     19  C   UNL     1      77.730  95.164  72.129  1.00  0.00     0.165 A 
ATOM     20  C   UNL     1      76.833  97.032  71.509  1.00  0.00     0.468 C 
ATOM     21  O   UNL     1      77.981  96.499  72.201  1.00  0.00    -0.454 OA
ENDBRANCH  12  13
ENDBRANCH   2  11
TORSDOF 3
ENDMDL
MODEL 9
REMARK VINA RESULT:    -6.567     25.403     27.426
REMARK INTER + INTRA:          -8.136
REMARK INTER:                  -7.741
REMARK INTRA:                  -0.395
REMARK UNBOUND:                -0.418
REMARK SMILES O=C(/C=C/C=C/c1ccc2c(c1)OCO2)N1CCCCC1
REMARK SMILES IDX 3 1 4 2 2 3 1 4 16 5 17 6 21 7 18 8 20 9 19 10 5 11 6 12
REMARK SMILES IDX 7 13 12 14 8 15 11 16 9 17 13 18 10 19 14 20 15 21
REMARK H PARENT
REMARK Flexibility Score: inf
ROOT
ATOM      1  C   UNL     1      99.641  81.911  80.629  1.00  0.00     0.071 C 
ATOM      2  C   UNL     1      98.922  83.032  80.657  1.00  0.00     0.006 C 
ENDROOT
BRANCH   1   3
ATOM      3  C   UNL     1     100.434  81.624  79.417  1.00  0.00     0.246 C 
ATOM      4  O   UNL     1      99.912  81.860  78.327  1.00  0.00    -0.270 OA
ATOM      5  N   UNL     1     101.715  81.102  79.587  1.00  0.00    -0.339 N 
ATOM      6  C   UNL     1     102.524  80.802  78.402  1.00  0.00     0.120 C 
ATOM      7  C   UNL     1     102.354  80.767  80.868  1.00  0.00     0.120 C 
ATOM      8  C   UNL     1     103.895  81.465  78.480  1.00  0.00     0.022 C 
ATOM      9  C   UNL     1     103.735  81.412  80.984  1.00  0.00     0.022 C 
ATOM     10  C   UNL     1     104.610  81.091  79.775  1.00  0.00     0.004 C 
ENDBRANCH   1   3
BRANCH   2  11
ATOM     11  C   UNL     1      98.113  83.399  81.800  1.00  0.00     0.001 C 
ATOM     12  C   UNL     1      98.226  82.795  82.993  1.00  0.00     0.008 C 
BRANCH  12  13
ATOM     13  C   UNL     1      97.424  83.123  84.185  1.00  0.00    -0.022 A 
ATOM     14  C   UNL     1      97.079  84.446  84.423  1.00  0.00     0.058 A 
ATOM     15  C   UNL     1      97.033  82.092  85.043  1.00  0.00     0.012 A 
ATOM     16  C   UNL     1      96.327  84.703  85.551  1.00  0.00     0.166 A 
ATOM     17  C   UNL     1      96.273  82.381  86.178  1.00  0.00     0.051 A 
ATOM     18  O   UNL     1      95.891  85.927  85.957  1.00  0.00    -0.454 OA
ATOM     19  C   UNL     1      95.935  83.699  86.406  1.00  0.00     0.165 A 
ATOM     20  C   UNL     1      95.181  85.580  87.163  1.00  0.00     0.468 C 
ATOM     21  O   UNL     1      95.204  84.167  87.454  1.00  0.00    -0.454 OA
ENDBRANCH  12  13
ENDBRANCH   2  11
TORSDOF 3
ENDMDL
MODEL 10
REMARK VINA RESULT:    -6.431     25.370     27.462
REMARK INTER + INTRA:          -7.976
REMARK INTER:                  -7.647
REMARK INTRA:                  -0.329
REMARK UNBOUND:                -0.418
REMARK SMILES O=C(/C=C/C=C/c1ccc2c(c1)OCO2)N1CCCCC1
REMARK SMILES IDX 3 1 4 2 2 3 1 4 16 5 17 6 21 7 18 8 20 9 19 10 5 11 6 12
REMARK SMILES IDX 7 13 12 14 8 15 11 16 9 17 13 18 10 19 14 20 15 21
REMARK H PARENT
REMARK Flexibility Score: inf
ROOT
ATOM      1  C   UNL     1      95.841  85.406  88.051  1.00  0.00     0.071 C 
ATOM      2  C   UNL     1      95.793  85.985  89.249  1.00  0.00     0.006 C 
ENDROOT
BRANCH   1   3
ATOM      3  C   UNL     1      96.778  84.280  87.861  1.00  0.00     0.246 C 
ATOM      4  O   UNL     1      96.962  83.526  88.818  1.00  0.00    -0.270 OA
ATOM      5  N   UNL     1      97.393  84.149  86.618  1.00  0.00    -0.339 N 
ATOM      6  C   UNL     1      98.332  83.044  86.401  1.00  0.00     0.120 C 
ATOM      7  C   UNL     1      97.232  85.053  85.469  1.00  0.00     0.120 C 
ATOM      8  C   UNL     1      97.965  82.236  85.161  1.00  0.00     0.022 C 
ATOM      9  C   UNL     1      96.868  84.279  84.202  1.00  0.00     0.022 C 
ATOM     10  C   UNL     1      97.846  83.138  83.937  1.00  0.00     0.004 C 
ENDBRANCH   1   3
BRANCH   2  11
ATOM     11  C   UNL     1      94.908  87.095  89.531  1.00  0.00     0.001 C 
ATOM     12  C   UNL     1      95.327  88.229  90.116  1.00  0.00     0.008 C 
BRANCH  12  13
ATOM     13  C   UNL     1      94.470  89.383  90.433  1.00  0.00    -0.022 A 
ATOM     14  C   UNL     1      94.912  90.660  90.116  1.00  0.00     0.058 A 
ATOM     15  C   UNL     1      93.233  89.161  91.043  1.00  0.00     0.012 A 
ATOM     16  C   UNL     1      94.074  91.710  90.432  1.00  0.00     0.166 A 
ATOM     17  C   UNL     1      92.404  90.242  91.352  1.00  0.00     0.051 A 
ATOM     18  O   UNL     1      94.325  93.028  90.205  1.00  0.00    -0.454 OA
ATOM     19  C   UNL     1      92.853  91.506  91.034  1.00  0.00     0.165 A 
ATOM     20  C   UNL     1      93.126  93.631  90.732  1.00  0.00     0.468 C 
ATOM     21  O   UNL     1      92.187  92.672  91.259  1.00  0.00    -0.454 OA
ENDBRANCH  12  13
ENDBRANCH   2  11
TORSDOF 3
ENDMDL
