MODEL 1
REMARK VINA RESULT:    -6.188      0.000      0.000
REMARK INTER + INTRA:         -11.283
REMARK INTER:                  -9.986
REMARK INTRA:                  -1.297
REMARK UNBOUND:                -1.297
REMARK SMILES COc1cc(CNC(=O)CCCCC/C=C/C(C)C)ccc1O
REMARK SMILES IDX 11 1 10 2 8 3 7 4 9 6 6 7 5 8 3 9 22 10 4 11 21 12 20 13
REMARK SMILES IDX 2 14 1 15 23 16 12 18 13 19 14 20 15 21 16 22 17 23 18 24
REMARK SMILES IDX 19 25
REMARK H PARENT 7 5 23 17
REMARK Flexibility Score: inf
ROOT
ATOM      1  C   UNL     1      89.974  99.610  71.490  1.00  0.00     0.010 C 
ENDROOT
BRANCH   1   2
ATOM      2  C   UNL     1      91.407  99.771  70.921  1.00  0.00     0.100 C 
BRANCH   2   3
ATOM      3  C   UNL     1      92.441  99.985  71.951  1.00  0.00     0.220 C 
ATOM      4  N   UNL     1      92.093 100.007  73.267  1.00  0.00    -0.352 N 
ATOM      5  H   UNL     1      91.099  99.944  73.441  1.00  0.00     0.163 HD
ATOM      6  O   UNL     1      93.634 100.103  71.582  1.00  0.00    -0.275 OA
BRANCH   4   7
ATOM      7  C   UNL     1      93.000 100.108  74.364  1.00  0.00     0.151 C 
BRANCH   7   8
ATOM      8  C   UNL     1      93.421  98.780  74.881  1.00  0.00    -0.025 A 
ATOM      9  C   UNL     1      92.894  96.667  76.024  1.00  0.00     0.160 A 
ATOM     10  C   UNL     1      94.245  96.271  75.914  1.00  0.00     0.157 A 
ATOM     11  C   UNL     1      92.495  97.920  75.516  1.00  0.00     0.056 A 
ATOM     12  C   UNL     1      95.171  97.111  75.269  1.00  0.00     0.050 A 
ATOM     13  C   UNL     1      94.761  98.352  74.747  1.00  0.00     0.009 A 
BRANCH   9  14
ATOM     14  O   UNL     1      91.966  95.821  76.571  1.00  0.00    -0.493 OA
ATOM     15  C   UNL     1      91.678  96.080  77.955  1.00  0.00     0.278 C 
ENDBRANCH   9  14
BRANCH  10  16
ATOM     16  O   UNL     1      94.675  95.086  76.415  1.00  0.00    -0.504 OA
ATOM     17  H   UNL     1      95.087  94.574  75.714  1.00  0.00     0.293 HD
ENDBRANCH  10  16
ENDBRANCH   7   8
ENDBRANCH   4   7
ENDBRANCH   2   3
ENDBRANCH   1   2
BRANCH   1  18
ATOM     18  C   UNL     1      89.405  98.201  71.181  1.00  0.00     0.001 C 
BRANCH  18  19
ATOM     19  C   UNL     1      89.787  97.669  69.777  1.00  0.00     0.004 C 
BRANCH  19  20
ATOM     20  C   UNL     1      88.723  98.061  68.713  1.00  0.00     0.027 C 
BRANCH  20  21
ATOM     21  C   UNL     1      89.083  99.230  67.929  1.00  0.00    -0.031 C 
ATOM     22  C   UNL     1      88.664 100.467  68.249  1.00  0.00    -0.028 C 
BRANCH  22  23
ATOM     23  C   UNL     1      89.013 101.662  67.484  1.00  0.00     0.005 C 
ATOM     24  C   UNL     1      88.579 102.938  68.254  1.00  0.00     0.012 C 
ATOM     25  C   UNL     1      90.529 101.662  67.150  1.00  0.00     0.012 C 
ENDBRANCH  22  23
ENDBRANCH  20  21
ENDBRANCH  19  20
ENDBRANCH  18  19
ENDBRANCH   1  18
TORSDOF 11
ENDMDL
MODEL 2
REMARK VINA RESULT:    -5.877     19.732     22.606
REMARK INTER + INTRA:         -10.782
REMARK INTER:                  -9.234
REMARK INTRA:                  -1.548
REMARK UNBOUND:                -1.297
REMARK SMILES COc1cc(CNC(=O)CCCCC/C=C/C(C)C)ccc1O
REMARK SMILES IDX 11 1 10 2 8 3 7 4 9 6 6 7 5 8 3 9 22 10 4 11 21 12 20 13
REMARK SMILES IDX 2 14 1 15 23 16 12 18 13 19 14 20 15 21 16 22 17 23 18 24
REMARK SMILES IDX 19 25
REMARK H PARENT 7 5 23 17
REMARK Flexibility Score: inf
ROOT
ATOM      1  C   UNL     1      75.476  88.163  66.574  1.00  0.00     0.010 C 
ENDROOT
BRANCH   1   2
ATOM      2  C   UNL     1      76.954  87.693  66.588  1.00  0.00     0.100 C 
BRANCH   2   3
ATOM      3  C   UNL     1      77.194  86.442  65.844  1.00  0.00     0.220 C 
ATOM      4  N   UNL     1      77.468  85.293  66.520  1.00  0.00    -0.352 N 
ATOM      5  H   UNL     1      77.562  85.404  67.520  1.00  0.00     0.163 HD
ATOM      6  O   UNL     1      77.096  86.466  64.594  1.00  0.00    -0.275 OA
BRANCH   4   7
ATOM      7  C   UNL     1      77.624  84.002  65.932  1.00  0.00     0.151 C 
BRANCH   7   8
ATOM      8  C   UNL     1      76.357  83.226  65.913  1.00  0.00    -0.025 A 
ATOM      9  C   UNL     1      73.943  83.066  66.354  1.00  0.00     0.160 A 
ATOM     10  C   UNL     1      73.954  81.721  65.924  1.00  0.00     0.157 A 
ATOM     11  C   UNL     1      75.144  83.804  66.354  1.00  0.00     0.056 A 
ATOM     12  C   UNL     1      75.151  81.141  65.468  1.00  0.00     0.050 A 
ATOM     13  C   UNL     1      76.342  81.890  65.452  1.00  0.00     0.009 A 
BRANCH   9  14
ATOM     14  O   UNL     1      72.767  83.667  66.718  1.00  0.00    -0.493 OA
ATOM     15  C   UNL     1      72.099  84.350  65.643  1.00  0.00     0.278 C 
ENDBRANCH   9  14
BRANCH  10  16
ATOM     16  O   UNL     1      72.826  80.968  65.936  1.00  0.00    -0.504 OA
ATOM     17  H   UNL     1      72.916  80.248  65.307  1.00  0.00     0.293 HD
ENDBRANCH  10  16
ENDBRANCH   7   8
ENDBRANCH   4   7
ENDBRANCH   2   3
ENDBRANCH   1   2
BRANCH   1  18
ATOM     18  C   UNL     1      75.259  89.355  67.540  1.00  0.00     0.001 C 
BRANCH  18  19
ATOM     19  C   UNL     1      74.502  88.976  68.838  1.00  0.00     0.004 C 
BRANCH  19  20
ATOM     20  C   UNL     1      75.467  88.891  70.053  1.00  0.00     0.027 C 
BRANCH  20  21
ATOM     21  C   UNL     1      76.216  87.647  70.119  1.00  0.00    -0.031 C 
ATOM     22  C   UNL     1      75.626  86.445  69.992  1.00  0.00    -0.028 C 
BRANCH  22  23
ATOM     23  C   UNL     1      76.350  85.178  70.048  1.00  0.00     0.005 C 
ATOM     24  C   UNL     1      77.881  85.433  70.021  1.00  0.00     0.012 C 
ATOM     25  C   UNL     1      75.910  84.362  71.293  1.00  0.00     0.012 C 
ENDBRANCH  22  23
ENDBRANCH  20  21
ENDBRANCH  19  20
ENDBRANCH  18  19
ENDBRANCH   1  18
TORSDOF 11
ENDMDL
MODEL 3
REMARK VINA RESULT:    -5.670      1.435      2.461
REMARK INTER + INTRA:         -10.448
REMARK INTER:                  -9.340
REMARK INTRA:                  -1.108
REMARK UNBOUND:                -1.297
REMARK SMILES COc1cc(CNC(=O)CCCCC/C=C/C(C)C)ccc1O
REMARK SMILES IDX 11 1 10 2 8 3 7 4 9 6 6 7 5 8 3 9 22 10 4 11 21 12 20 13
REMARK SMILES IDX 2 14 1 15 23 16 12 18 13 19 14 20 15 21 16 22 17 23 18 24
REMARK SMILES IDX 19 25
REMARK H PARENT 7 5 23 17
REMARK Flexibility Score: inf
ROOT
ATOM      1  C   UNL     1      89.821  98.637  71.185  1.00  0.00     0.010 C 
ENDROOT
BRANCH   1   2
ATOM      2  C   UNL     1      91.064  99.253  70.492  1.00  0.00     0.100 C 
BRANCH   2   3
ATOM      3  C   UNL     1      91.963  99.978  71.409  1.00  0.00     0.220 C 
ATOM      4  N   UNL     1      91.597 100.173  72.706  1.00  0.00    -0.352 N 
ATOM      5  H   UNL     1      90.665  99.854  72.932  1.00  0.00     0.163 HD
ATOM      6  O   UNL     1      93.073 100.365  70.972  1.00  0.00    -0.275 OA
BRANCH   4   7
ATOM      7  C   UNL     1      92.408 100.769  73.716  1.00  0.00     0.151 C 
BRANCH   7   8
ATOM      8  C   UNL     1      93.246  99.775  74.436  1.00  0.00    -0.025 A 
ATOM      9  C   UNL     1      95.456  98.945  75.126  1.00  0.00     0.160 A 
ATOM     10  C   UNL     1      94.843  97.847  75.767  1.00  0.00     0.157 A 
ATOM     11  C   UNL     1      94.656  99.895  74.459  1.00  0.00     0.056 A 
ATOM     12  C   UNL     1      93.441  97.727  75.765  1.00  0.00     0.050 A 
ATOM     13  C   UNL     1      92.648  98.690  75.114  1.00  0.00     0.009 A 
BRANCH   9  14
ATOM     14  O   UNL     1      96.813  99.118  75.196  1.00  0.00    -0.493 OA
ATOM     15  C   UNL     1      97.514  98.762  73.993  1.00  0.00     0.278 C 
ENDBRANCH   9  14
BRANCH  10  16
ATOM     16  O   UNL     1      95.579  96.896  76.395  1.00  0.00    -0.504 OA
ATOM     17  H   UNL     1      95.296  96.827  77.311  1.00  0.00     0.293 HD
ENDBRANCH  10  16
ENDBRANCH   7   8
ENDBRANCH   4   7
ENDBRANCH   2   3
ENDBRANCH   1   2
BRANCH   1  18
ATOM     18  C   UNL     1      89.556  97.196  70.679  1.00  0.00     0.001 C 
BRANCH  18  19
ATOM     19  C   UNL     1      89.569  97.065  69.135  1.00  0.00     0.004 C 
BRANCH  19  20
ATOM     20  C   UNL     1      88.397  97.857  68.489  1.00  0.00     0.027 C 
BRANCH  20  21
ATOM     21  C   UNL     1      88.823  99.039  67.759  1.00  0.00    -0.031 C 
ATOM     22  C   UNL     1      88.536 100.284  68.177  1.00  0.00    -0.028 C 
BRANCH  22  23
ATOM     23  C   UNL     1      88.954 101.492  67.470  1.00  0.00     0.005 C 
ATOM     24  C   UNL     1      88.584 102.753  68.295  1.00  0.00     0.012 C 
ATOM     25  C   UNL     1      90.470 101.425  67.144  1.00  0.00     0.012 C 
ENDBRANCH  22  23
ENDBRANCH  20  21
ENDBRANCH  19  20
ENDBRANCH  18  19
ENDBRANCH   1  18
TORSDOF 11
ENDMDL
MODEL 4
REMARK VINA RESULT:    -5.480     17.540     21.301
REMARK INTER + INTRA:         -10.141
REMARK INTER:                  -9.527
REMARK INTRA:                  -0.614
REMARK UNBOUND:                -1.297
REMARK SMILES COc1cc(CNC(=O)CCCCC/C=C/C(C)C)ccc1O
REMARK SMILES IDX 11 1 10 2 8 3 7 4 9 6 6 7 5 8 3 9 22 10 4 11 21 12 20 13
REMARK SMILES IDX 2 14 1 15 23 16 12 18 13 19 14 20 15 21 16 22 17 23 18 24
REMARK SMILES IDX 19 25
REMARK H PARENT 7 5 23 17
REMARK Flexibility Score: inf
ROOT
ATOM      1  C   UNL     1      97.997  82.474  84.639  1.00  0.00     0.010 C 
ENDROOT
BRANCH   1   2
ATOM      2  C   UNL     1      96.927  81.659  85.411  1.00  0.00     0.100 C 
BRANCH   2   3
ATOM      3  C   UNL     1      96.088  82.472  86.311  1.00  0.00     0.220 C 
ATOM      4  N   UNL     1      94.731  82.396  86.225  1.00  0.00    -0.352 N 
ATOM      5  H   UNL     1      94.388  81.817  85.470  1.00  0.00     0.163 HD
ATOM      6  O   UNL     1      96.655  83.189  87.169  1.00  0.00    -0.275 OA
BRANCH   4   7
ATOM      7  C   UNL     1      93.807  83.050  87.093  1.00  0.00     0.151 C 
BRANCH   7   8
ATOM      8  C   UNL     1      92.444  82.461  87.026  1.00  0.00    -0.025 A 
ATOM      9  C   UNL     1      90.842  80.891  86.016  1.00  0.00     0.160 A 
ATOM     10  C   UNL     1      89.828  81.379  86.868  1.00  0.00     0.157 A 
ATOM     11  C   UNL     1      92.138  81.441  86.095  1.00  0.00     0.056 A 
ATOM     12  C   UNL     1      90.125  82.382  87.810  1.00  0.00     0.050 A 
ATOM     13  C   UNL     1      91.426  82.911  87.896  1.00  0.00     0.009 A 
BRANCH   9  14
ATOM     14  O   UNL     1      90.586  79.856  85.157  1.00  0.00    -0.493 OA
ATOM     15  C   UNL     1      91.272  78.636  85.485  1.00  0.00     0.278 C 
ENDBRANCH   9  14
BRANCH  10  16
ATOM     16  O   UNL     1      88.561  80.898  86.804  1.00  0.00    -0.504 OA
ATOM     17  H   UNL     1      88.481  80.308  86.050  1.00  0.00     0.293 HD
ENDBRANCH  10  16
ENDBRANCH   7   8
ENDBRANCH   4   7
ENDBRANCH   2   3
ENDBRANCH   1   2
BRANCH   1  18
ATOM     18  C   UNL     1      98.480  81.711  83.380  1.00  0.00     0.001 C 
BRANCH  18  19
ATOM     19  C   UNL     1      99.015  82.636  82.257  1.00  0.00     0.004 C 
BRANCH  19  20
ATOM     20  C   UNL     1      97.854  83.237  81.416  1.00  0.00     0.027 C 
BRANCH  20  21
ATOM     21  C   UNL     1      98.212  83.505  80.034  1.00  0.00    -0.031 C 
ATOM     22  C   UNL     1      97.522  82.992  79.000  1.00  0.00    -0.028 C 
BRANCH  22  23
ATOM     23  C   UNL     1      97.853  83.247  77.600  1.00  0.00     0.005 C 
ATOM     24  C   UNL     1      97.613  84.741  77.254  1.00  0.00     0.012 C 
ATOM     25  C   UNL     1      99.310  82.800  77.303  1.00  0.00     0.012 C 
ENDBRANCH  22  23
ENDBRANCH  20  21
ENDBRANCH  19  20
ENDBRANCH  18  19
ENDBRANCH   1  18
TORSDOF 11
ENDMDL
MODEL 5
REMARK VINA RESULT:    -5.442     20.212     23.279
REMARK INTER + INTRA:         -10.079
REMARK INTER:                  -8.418
REMARK INTRA:                  -1.661
REMARK UNBOUND:                -1.297
REMARK SMILES COc1cc(CNC(=O)CCCCC/C=C/C(C)C)ccc1O
REMARK SMILES IDX 11 1 10 2 8 3 7 4 9 6 6 7 5 8 3 9 22 10 4 11 21 12 20 13
REMARK SMILES IDX 2 14 1 15 23 16 12 18 13 19 14 20 15 21 16 22 17 23 18 24
REMARK SMILES IDX 19 25
REMARK H PARENT 7 5 23 17
REMARK Flexibility Score: inf
ROOT
ATOM      1  C   UNL     1      75.295  88.451  66.518  1.00  0.00     0.010 C 
ENDROOT
BRANCH   1   2
ATOM      2  C   UNL     1      76.664  87.754  66.304  1.00  0.00     0.100 C 
BRANCH   2   3
ATOM      3  C   UNL     1      76.563  86.317  65.990  1.00  0.00     0.220 C 
ATOM      4  N   UNL     1      76.031  85.459  66.904  1.00  0.00    -0.352 N 
ATOM      5  H   UNL     1      75.801  85.881  67.794  1.00  0.00     0.163 HD
ATOM      6  O   UNL     1      76.939  85.926  64.859  1.00  0.00    -0.275 OA
BRANCH   4   7
ATOM      7  C   UNL     1      75.787  84.069  66.694  1.00  0.00     0.151 C 
BRANCH   7   8
ATOM      8  C   UNL     1      74.344  83.724  66.768  1.00  0.00    -0.025 A 
ATOM      9  C   UNL     1      72.474  82.227  66.210  1.00  0.00     0.160 A 
ATOM     10  C   UNL     1      71.580  83.099  66.869  1.00  0.00     0.157 A 
ATOM     11  C   UNL     1      73.845  82.550  66.156  1.00  0.00     0.056 A 
ATOM     12  C   UNL     1      72.068  84.260  67.496  1.00  0.00     0.050 A 
ATOM     13  C   UNL     1      73.441  84.565  67.455  1.00  0.00     0.009 A 
BRANCH   9  14
ATOM     14  O   UNL     1      72.023  81.051  65.672  1.00  0.00    -0.493 OA
ATOM     15  C   UNL     1      72.858  80.525  64.626  1.00  0.00     0.278 C 
ENDBRANCH   9  14
BRANCH  10  16
ATOM     16  O   UNL     1      70.250  82.839  66.919  1.00  0.00    -0.504 OA
ATOM     17  H   UNL     1      69.762  83.667  66.907  1.00  0.00     0.293 HD
ENDBRANCH  10  16
ENDBRANCH   7   8
ENDBRANCH   4   7
ENDBRANCH   2   3
ENDBRANCH   1   2
BRANCH   1  18
ATOM     18  C   UNL     1      75.367  89.481  67.673  1.00  0.00     0.001 C 
BRANCH  18  19
ATOM     19  C   UNL     1      74.591  89.048  68.943  1.00  0.00     0.004 C 
BRANCH  19  20
ATOM     20  C   UNL     1      75.559  88.716  70.113  1.00  0.00     0.027 C 
BRANCH  20  21
ATOM     21  C   UNL     1      76.196  87.416  69.994  1.00  0.00    -0.031 C 
ATOM     22  C   UNL     1      75.602  86.284  70.410  1.00  0.00    -0.028 C 
BRANCH  22  23
ATOM     23  C   UNL     1      76.213  84.961  70.300  1.00  0.00     0.005 C 
ATOM     24  C   UNL     1      77.748  85.093  70.106  1.00  0.00     0.012 C 
ATOM     25  C   UNL     1      75.847  84.095  71.536  1.00  0.00     0.012 C 
ENDBRANCH  22  23
ENDBRANCH  20  21
ENDBRANCH  19  20
ENDBRANCH  18  19
ENDBRANCH   1  18
TORSDOF 11
ENDMDL
MODEL 6
REMARK VINA RESULT:    -5.300     30.250     32.677
REMARK INTER + INTRA:          -9.849
REMARK INTER:                  -8.195
REMARK INTRA:                  -1.655
REMARK UNBOUND:                -1.297
REMARK SMILES COc1cc(CNC(=O)CCCCC/C=C/C(C)C)ccc1O
REMARK SMILES IDX 11 1 10 2 8 3 7 4 9 6 6 7 5 8 3 9 22 10 4 11 21 12 20 13
REMARK SMILES IDX 2 14 1 15 23 16 12 18 13 19 14 20 15 21 16 22 17 23 18 24
REMARK SMILES IDX 19 25
REMARK H PARENT 7 5 23 17
REMARK Flexibility Score: inf
ROOT
ATOM      1  C   UNL     1      65.024  85.612  68.809  1.00  0.00     0.010 C 
ENDROOT
BRANCH   1   2
ATOM      2  C   UNL     1      65.965  84.392  68.640  1.00  0.00     0.100 C 
BRANCH   2   3
ATOM      3  C   UNL     1      65.403  83.126  69.147  1.00  0.00     0.220 C 
ATOM      4  N   UNL     1      65.359  82.893  70.488  1.00  0.00    -0.352 N 
ATOM      5  H   UNL     1      65.799  83.605  71.054  1.00  0.00     0.163 HD
ATOM      6  O   UNL     1      64.938  82.307  68.319  1.00  0.00    -0.275 OA
BRANCH   4   7
ATOM      7  C   UNL     1      64.757  81.760  71.114  1.00  0.00     0.151 C 
BRANCH   7   8
ATOM      8  C   UNL     1      63.903  82.133  72.272  1.00  0.00    -0.025 A 
ATOM      9  C   UNL     1      63.228  83.754  73.993  1.00  0.00     0.160 A 
ATOM     10  C   UNL     1      62.309  82.817  74.514  1.00  0.00     0.157 A 
ATOM     11  C   UNL     1      64.023  83.403  72.884  1.00  0.00     0.056 A 
ATOM     12  C   UNL     1      62.169  81.558  73.903  1.00  0.00     0.050 A 
ATOM     13  C   UNL     1      62.953  81.222  72.783  1.00  0.00     0.009 A 
BRANCH   9  14
ATOM     14  O   UNL     1      63.309  85.013  74.526  1.00  0.00    -0.493 OA
ATOM     15  C   UNL     1      63.463  86.056  73.549  1.00  0.00     0.278 C 
ENDBRANCH   9  14
BRANCH  10  16
ATOM     16  O   UNL     1      61.545  83.105  75.598  1.00  0.00    -0.504 OA
ATOM     17  H   UNL     1      61.030  83.897  75.424  1.00  0.00     0.293 HD
ENDBRANCH  10  16
ENDBRANCH   7   8
ENDBRANCH   4   7
ENDBRANCH   2   3
ENDBRANCH   1   2
BRANCH   1  18
ATOM     18  C   UNL     1      63.705  85.415  68.020  1.00  0.00     0.001 C 
BRANCH  18  19
ATOM     19  C   UNL     1      62.512  84.966  68.902  1.00  0.00     0.004 C 
BRANCH  19  20
ATOM     20  C   UNL     1      61.623  86.174  69.310  1.00  0.00     0.027 C 
BRANCH  20  21
ATOM     21  C   UNL     1      60.553  85.827  70.230  1.00  0.00    -0.031 C 
ATOM     22  C   UNL     1      60.726  84.949  71.234  1.00  0.00    -0.028 C 
BRANCH  22  23
ATOM     23  C   UNL     1      59.673  84.583  72.179  1.00  0.00     0.005 C 
ATOM     24  C   UNL     1      59.741  85.490  73.437  1.00  0.00     0.012 C 
ATOM     25  C   UNL     1      58.285  84.641  71.486  1.00  0.00     0.012 C 
ENDBRANCH  22  23
ENDBRANCH  20  21
ENDBRANCH  19  20
ENDBRANCH  18  19
ENDBRANCH   1  18
TORSDOF 11
ENDMDL
MODEL 7
REMARK VINA RESULT:    -5.251      4.115      6.421
REMARK INTER + INTRA:          -9.771
REMARK INTER:                  -8.218
REMARK INTRA:                  -1.553
REMARK UNBOUND:                -1.297
REMARK SMILES COc1cc(CNC(=O)CCCCC/C=C/C(C)C)ccc1O
REMARK SMILES IDX 11 1 10 2 8 3 7 4 9 6 6 7 5 8 3 9 22 10 4 11 21 12 20 13
REMARK SMILES IDX 2 14 1 15 23 16 12 18 13 19 14 20 15 21 16 22 17 23 18 24
REMARK SMILES IDX 19 25
REMARK H PARENT 7 5 23 17
REMARK Flexibility Score: inf
ROOT
ATOM      1  C   UNL     1      89.198  98.789  70.862  1.00  0.00     0.010 C 
ENDROOT
BRANCH   1   2
ATOM      2  C   UNL     1      90.727  99.043  70.907  1.00  0.00     0.100 C 
BRANCH   2   3
ATOM      3  C   UNL     1      91.125 100.155  71.790  1.00  0.00     0.220 C 
ATOM      4  N   UNL     1      90.378 101.293  71.826  1.00  0.00    -0.352 N 
ATOM      5  H   UNL     1      89.616 101.318  71.163  1.00  0.00     0.163 HD
ATOM      6  O   UNL     1      92.131 100.003  72.523  1.00  0.00    -0.275 OA
BRANCH   4   7
ATOM      7  C   UNL     1      90.594 102.400  72.700  1.00  0.00     0.151 C 
BRANCH   7   8
ATOM      8  C   UNL     1      89.374 103.226  72.888  1.00  0.00    -0.025 A 
ATOM      9  C   UNL     1      87.861 104.501  74.350  1.00  0.00     0.160 A 
ATOM     10  C   UNL     1      87.015 104.758  73.249  1.00  0.00     0.157 A 
ATOM     11  C   UNL     1      89.027 103.731  74.163  1.00  0.00     0.056 A 
ATOM     12  C   UNL     1      87.359 104.276  71.973  1.00  0.00     0.050 A 
ATOM     13  C   UNL     1      88.535 103.524  71.791  1.00  0.00     0.009 A 
BRANCH   9  14
ATOM     14  O   UNL     1      87.582 105.040  75.578  1.00  0.00    -0.493 OA
ATOM     15  C   UNL     1      87.272 104.067  76.589  1.00  0.00     0.278 C 
ENDBRANCH   9  14
BRANCH  10  16
ATOM     16  O   UNL     1      85.870 105.471  73.391  1.00  0.00    -0.504 OA
ATOM     17  H   UNL     1      85.770 106.067  72.645  1.00  0.00     0.293 HD
ENDBRANCH  10  16
ENDBRANCH   7   8
ENDBRANCH   4   7
ENDBRANCH   2   3
ENDBRANCH   1   2
BRANCH   1  18
ATOM     18  C   UNL     1      88.829  97.798  69.729  1.00  0.00     0.001 C 
BRANCH  18  19
ATOM     19  C   UNL     1      88.175  98.474  68.498  1.00  0.00     0.004 C 
BRANCH  19  20
ATOM     20  C   UNL     1      89.243  98.915  67.459  1.00  0.00     0.027 C 
BRANCH  20  21
ATOM     21  C   UNL     1      89.560 100.332  67.511  1.00  0.00    -0.031 C 
ATOM     22  C   UNL     1      88.726 101.235  68.055  1.00  0.00    -0.028 C 
BRANCH  22  23
ATOM     23  C   UNL     1      89.017 102.665  68.128  1.00  0.00     0.005 C 
ATOM     24  C   UNL     1      90.077 103.053  67.063  1.00  0.00     0.012 C 
ATOM     25  C   UNL     1      87.708 103.488  67.983  1.00  0.00     0.012 C 
ENDBRANCH  22  23
ENDBRANCH  20  21
ENDBRANCH  19  20
ENDBRANCH  18  19
ENDBRANCH   1  18
TORSDOF 11
ENDMDL
MODEL 8
REMARK VINA RESULT:    -5.239     17.337     20.907
REMARK INTER + INTRA:          -9.751
REMARK INTER:                  -8.838
REMARK INTRA:                  -0.914
REMARK UNBOUND:                -1.297
REMARK SMILES COc1cc(CNC(=O)CCCCC/C=C/C(C)C)ccc1O
REMARK SMILES IDX 11 1 10 2 8 3 7 4 9 6 6 7 5 8 3 9 22 10 4 11 21 12 20 13
REMARK SMILES IDX 2 14 1 15 23 16 12 18 13 19 14 20 15 21 16 22 17 23 18 24
REMARK SMILES IDX 19 25
REMARK H PARENT 7 5 23 17
REMARK Flexibility Score: inf
ROOT
ATOM      1  C   UNL     1     100.035  83.778  75.801  1.00  0.00     0.010 C 
ENDROOT
BRANCH   1   2
ATOM      2  C   UNL     1      98.576  83.317  76.050  1.00  0.00     0.100 C 
BRANCH   2   3
ATOM      3  C   UNL     1      97.955  83.911  77.249  1.00  0.00     0.220 C 
ATOM      4  N   UNL     1      97.887  83.191  78.403  1.00  0.00    -0.352 N 
ATOM      5  H   UNL     1      98.216  82.238  78.326  1.00  0.00     0.163 HD
ATOM      6  O   UNL     1      97.540  85.092  77.183  1.00  0.00    -0.275 OA
BRANCH   4   7
ATOM      7  C   UNL     1      97.403  83.675  79.655  1.00  0.00     0.151 C 
BRANCH   7   8
ATOM      8  C   UNL     1      98.217  83.201  80.805  1.00  0.00    -0.025 A 
ATOM      9  C   UNL     1     100.280  82.198  81.692  1.00  0.00     0.160 A 
ATOM     10  C   UNL     1      99.742  82.248  82.997  1.00  0.00     0.157 A 
ATOM     11  C   UNL     1      99.511  82.666  80.607  1.00  0.00     0.056 A 
ATOM     12  C   UNL     1      98.463  82.794  83.208  1.00  0.00     0.050 A 
ATOM     13  C   UNL     1      97.710  83.277  82.121  1.00  0.00     0.009 A 
BRANCH   9  14
ATOM     14  O   UNL     1     101.558  81.750  81.487  1.00  0.00    -0.493 OA
ATOM     15  C   UNL     1     101.695  80.320  81.543  1.00  0.00     0.278 C 
ENDBRANCH   9  14
BRANCH  10  16
ATOM     16  O   UNL     1     100.437  81.783  84.065  1.00  0.00    -0.504 OA
ATOM     17  H   UNL     1     101.331  81.560  83.791  1.00  0.00     0.293 HD
ENDBRANCH  10  16
ENDBRANCH   7   8
ENDBRANCH   4   7
ENDBRANCH   2   3
ENDBRANCH   1   2
BRANCH   1  18
ATOM     18  C   UNL     1     100.889  83.653  77.088  1.00  0.00     0.001 C 
BRANCH  18  19
ATOM     19  C   UNL     1     102.244  82.935  76.870  1.00  0.00     0.004 C 
BRANCH  19  20
ATOM     20  C   UNL     1     102.514  81.883  77.982  1.00  0.00     0.027 C 
BRANCH  20  21
ATOM     21  C   UNL     1     103.912  81.504  78.101  1.00  0.00    -0.031 C 
ATOM     22  C   UNL     1     104.531  81.405  79.291  1.00  0.00    -0.028 C 
BRANCH  22  23
ATOM     23  C   UNL     1     105.932  81.021  79.444  1.00  0.00     0.005 C 
ATOM     24  C   UNL     1     106.304  80.934  80.948  1.00  0.00     0.012 C 
ATOM     25  C   UNL     1     106.210  79.692  78.690  1.00  0.00     0.012 C 
ENDBRANCH  22  23
ENDBRANCH  20  21
ENDBRANCH  19  20
ENDBRANCH  18  19
ENDBRANCH   1  18
TORSDOF 11
ENDMDL
MODEL 9
REMARK VINA RESULT:    -5.068     19.369     21.055
REMARK INTER + INTRA:          -9.477
REMARK INTER:                  -7.332
REMARK INTRA:                  -2.144
REMARK UNBOUND:                -1.297
REMARK SMILES COc1cc(CNC(=O)CCCCC/C=C/C(C)C)ccc1O
REMARK SMILES IDX 11 1 10 2 8 3 7 4 9 6 6 7 5 8 3 9 22 10 4 11 21 12 20 13
REMARK SMILES IDX 2 14 1 15 23 16 12 18 13 19 14 20 15 21 16 22 17 23 18 24
REMARK SMILES IDX 19 25
REMARK H PARENT 7 5 23 17
REMARK Flexibility Score: inf
ROOT
ATOM      1  C   UNL     1      73.131  90.605  68.198  1.00  0.00     0.010 C 
ENDROOT
BRANCH   1   2
ATOM      2  C   UNL     1      73.681  91.050  66.818  1.00  0.00     0.100 C 
BRANCH   2   3
ATOM      3  C   UNL     1      73.979  89.934  65.902  1.00  0.00     0.220 C 
ATOM      4  N   UNL     1      75.194  89.320  65.954  1.00  0.00    -0.352 N 
ATOM      5  H   UNL     1      75.852  89.741  66.596  1.00  0.00     0.163 HD
ATOM      6  O   UNL     1      73.080  89.550  65.118  1.00  0.00    -0.275 OA
BRANCH   4   7
ATOM      7  C   UNL     1      75.577  88.173  65.197  1.00  0.00     0.151 C 
BRANCH   7   8
ATOM      8  C   UNL     1      76.432  87.236  65.971  1.00  0.00    -0.025 A 
ATOM      9  C   UNL     1      77.413  85.003  66.286  1.00  0.00     0.160 A 
ATOM     10  C   UNL     1      78.023  85.440  67.482  1.00  0.00     0.157 A 
ATOM     11  C   UNL     1      76.617  85.900  65.546  1.00  0.00     0.056 A 
ATOM     12  C   UNL     1      77.861  86.772  67.906  1.00  0.00     0.050 A 
ATOM     13  C   UNL     1      77.080  87.667  67.151  1.00  0.00     0.009 A 
BRANCH   9  14
ATOM     14  O   UNL     1      77.636  83.735  65.819  1.00  0.00    -0.493 OA
ATOM     15  C   UNL     1      76.493  82.868  65.905  1.00  0.00     0.278 C 
ENDBRANCH   9  14
BRANCH  10  16
ATOM     16  O   UNL     1      78.774  84.601  68.238  1.00  0.00    -0.504 OA
ATOM     17  H   UNL     1      78.202  83.954  68.661  1.00  0.00     0.293 HD
ENDBRANCH  10  16
ENDBRANCH   7   8
ENDBRANCH   4   7
ENDBRANCH   2   3
ENDBRANCH   1   2
BRANCH   1  18
ATOM     18  C   UNL     1      74.062  91.068  69.347  1.00  0.00     0.001 C 
BRANCH  18  19
ATOM     19  C   UNL     1      75.065  89.982  69.812  1.00  0.00     0.004 C 
BRANCH  19  20
ATOM     20  C   UNL     1      74.609  89.320  71.142  1.00  0.00     0.027 C 
BRANCH  20  21
ATOM     21  C   UNL     1      74.593  87.868  71.098  1.00  0.00    -0.031 C 
ATOM     22  C   UNL     1      74.502  87.185  69.943  1.00  0.00    -0.028 C 
BRANCH  22  23
ATOM     23  C   UNL     1      74.489  85.727  69.864  1.00  0.00     0.005 C 
ATOM     24  C   UNL     1      74.286  85.269  68.395  1.00  0.00     0.012 C 
ATOM     25  C   UNL     1      75.786  85.144  70.488  1.00  0.00     0.012 C 
ENDBRANCH  22  23
ENDBRANCH  20  21
ENDBRANCH  19  20
ENDBRANCH  18  19
ENDBRANCH   1  18
TORSDOF 11
ENDMDL
MODEL 10
REMARK VINA RESULT:    -5.068     17.315     20.950
REMARK INTER + INTRA:          -9.475
REMARK INTER:                  -7.731
REMARK INTRA:                  -1.744
REMARK UNBOUND:                -1.297
REMARK SMILES COc1cc(CNC(=O)CCCCC/C=C/C(C)C)ccc1O
REMARK SMILES IDX 11 1 10 2 8 3 7 4 9 6 6 7 5 8 3 9 22 10 4 11 21 12 20 13
REMARK SMILES IDX 2 14 1 15 23 16 12 18 13 19 14 20 15 21 16 22 17 23 18 24
REMARK SMILES IDX 19 25
REMARK H PARENT 7 5 23 17
REMARK Flexibility Score: inf
ROOT
ATOM      1  C   UNL     1     100.964  79.031  80.454  1.00  0.00     0.010 C 
ENDROOT
BRANCH   1   2
ATOM      2  C   UNL     1      99.646  78.996  79.637  1.00  0.00     0.100 C 
BRANCH   2   3
ATOM      3  C   UNL     1      99.826  79.249  78.196  1.00  0.00     0.220 C 
ATOM      4  N   UNL     1      98.826  79.835  77.480  1.00  0.00    -0.352 N 
ATOM      5  H   UNL     1      97.973  79.993  77.999  1.00  0.00     0.163 HD
ATOM      6  O   UNL     1     100.925  78.951  77.671  1.00  0.00    -0.275 OA
BRANCH   4   7
ATOM      7  C   UNL     1      98.905  80.223  76.109  1.00  0.00     0.151 C 
BRANCH   7   8
ATOM      8  C   UNL     1      99.168  81.675  75.939  1.00  0.00    -0.025 A 
ATOM      9  C   UNL     1     100.709  83.520  75.417  1.00  0.00     0.160 A 
ATOM     10  C   UNL     1      99.678  84.451  75.669  1.00  0.00     0.157 A 
ATOM     11  C   UNL     1     100.449  82.142  75.562  1.00  0.00     0.056 A 
ATOM     12  C   UNL     1      98.395  83.997  76.028  1.00  0.00     0.050 A 
ATOM     13  C   UNL     1      98.139  82.619  76.152  1.00  0.00     0.009 A 
BRANCH   9  14
ATOM     14  O   UNL     1     101.936  83.946  74.982  1.00  0.00    -0.493 OA
ATOM     15  C   UNL     1     102.997  83.002  75.202  1.00  0.00     0.278 C 
ENDBRANCH   9  14
BRANCH  10  16
ATOM     16  O   UNL     1      99.894  85.786  75.568  1.00  0.00    -0.504 OA
ATOM     17  H   UNL     1     100.485  86.068  76.271  1.00  0.00     0.293 HD
ENDBRANCH  10  16
ENDBRANCH   7   8
ENDBRANCH   4   7
ENDBRANCH   2   3
ENDBRANCH   1   2
BRANCH   1  18
ATOM     18  C   UNL     1     100.689  79.350  81.946  1.00  0.00     0.001 C 
BRANCH  18  19
ATOM     19  C   UNL     1      99.182  79.423  82.300  1.00  0.00     0.004 C 
BRANCH  19  20
ATOM     20  C   UNL     1      98.859  80.686  83.146  1.00  0.00     0.027 C 
BRANCH  20  21
ATOM     21  C   UNL     1      98.898  81.924  82.385  1.00  0.00    -0.031 C 
ATOM     22  C   UNL     1      98.758  81.950  81.048  1.00  0.00    -0.028 C 
BRANCH  22  23
ATOM     23  C   UNL     1      98.787  83.177  80.256  1.00  0.00     0.005 C 
ATOM     24  C   UNL     1      99.920  83.108  79.198  1.00  0.00     0.012 C 
ATOM     25  C   UNL     1      97.396  83.434  79.614  1.00  0.00     0.012 C 
ENDBRANCH  22  23
ENDBRANCH  20  21
ENDBRANCH  19  20
ENDBRANCH  18  19
ENDBRANCH   1  18
TORSDOF 11
ENDMDL
