MODEL 1
REMARK VINA RESULT:    -6.110      0.000      0.000
REMARK INTER + INTRA:         -10.204
REMARK INTER:                  -9.504
REMARK INTRA:                  -0.700
REMARK UNBOUND:                -0.700
REMARK SMILES COc1cc(CNC(=O)CCCCCC(C)C)ccc1O
REMARK SMILES IDX 10 1 8 2 7 3 9 5 6 6 5 7 3 8 20 9 4 10 19 11 18 12 2 13 1 14
REMARK SMILES IDX 21 15 11 17 12 18 13 19 14 20 15 21 16 22 17 23
REMARK H PARENT 7 4 21 16
REMARK Flexibility Score: inf
ROOT
ATOM      1  C   UNL     1      93.257  99.326  75.173  1.00  0.00     0.100 C 
ENDROOT
BRANCH   1   2
ATOM      2  C   UNL     1      93.186  99.826  73.784  1.00  0.00     0.220 C 
ATOM      3  N   UNL     1      91.993  99.800  73.124  1.00  0.00    -0.352 N 
ATOM      4  H   UNL     1      91.253  99.307  73.602  1.00  0.00     0.163 HD
ATOM      5  O   UNL     1      94.219 100.303  73.254  1.00  0.00    -0.275 OA
BRANCH   3   6
ATOM      6  C   UNL     1      91.744 100.403  71.854  1.00  0.00     0.151 C 
BRANCH   6   7
ATOM      7  C   UNL     1      90.733  99.669  71.046  1.00  0.00    -0.025 A 
ATOM      8  C   UNL     1      89.370  99.465  69.010  1.00  0.00     0.160 A 
ATOM      9  C   UNL     1      88.857  98.237  69.479  1.00  0.00     0.157 A 
ATOM     10  C   UNL     1      90.290 100.182  69.804  1.00  0.00     0.056 A 
ATOM     11  C   UNL     1      89.270  97.731  70.725  1.00  0.00     0.050 A 
ATOM     12  C   UNL     1      90.205  98.438  71.500  1.00  0.00     0.009 A 
BRANCH   8  13
ATOM     13  O   UNL     1      88.966  99.985  67.808  1.00  0.00    -0.493 OA
ATOM     14  C   UNL     1      88.869 101.422  67.799  1.00  0.00     0.278 C 
ENDBRANCH   8  13
BRANCH   9  15
ATOM     15  O   UNL     1      87.971  97.541  68.724  1.00  0.00    -0.504 OA
ATOM     16  H   UNL     1      87.111  97.966  68.765  1.00  0.00     0.293 HD
ENDBRANCH   9  15
ENDBRANCH   6   7
ENDBRANCH   3   6
ENDBRANCH   1   2
BRANCH   1  17
ATOM     17  C   UNL     1      93.081  97.790  75.309  1.00  0.00     0.010 C 
BRANCH  17  18
ATOM     18  C   UNL     1      94.451  97.063  75.401  1.00  0.00     0.001 C 
BRANCH  18  19
ATOM     19  C   UNL     1      94.469  95.910  76.439  1.00  0.00     0.000 C 
BRANCH  19  20
ATOM     20  C   UNL     1      93.117  95.141  76.487  1.00  0.00     0.003 C 
BRANCH  20  21
ATOM     21  C   UNL     1      92.719  94.591  77.896  1.00  0.00    -0.017 C 
ATOM     22  C   UNL     1      91.199  94.797  78.163  1.00  0.00     0.007 C 
ATOM     23  C   UNL     1      93.554  95.221  79.048  1.00  0.00     0.007 C 
ENDBRANCH  20  21
ENDBRANCH  19  20
ENDBRANCH  18  19
ENDBRANCH  17  18
ENDBRANCH   1  17
TORSDOF 10
ENDMDL
MODEL 2
REMARK VINA RESULT:    -6.060     20.365     23.034
REMARK INTER + INTRA:         -10.126
REMARK INTER:                  -9.389
REMARK INTRA:                  -0.737
REMARK UNBOUND:                -0.700
REMARK SMILES COc1cc(CNC(=O)CCCCCC(C)C)ccc1O
REMARK SMILES IDX 10 1 8 2 7 3 9 5 6 6 5 7 3 8 20 9 4 10 19 11 18 12 2 13 1 14
REMARK SMILES IDX 21 15 11 17 12 18 13 19 14 20 15 21 16 22 17 23
REMARK H PARENT 7 4 21 16
REMARK Flexibility Score: inf
ROOT
ATOM      1  C   UNL     1      77.723  84.757  68.319  1.00  0.00     0.100 C 
ENDROOT
BRANCH   1   2
ATOM      2  C   UNL     1      77.947  83.752  67.259  1.00  0.00     0.220 C 
ATOM      3  N   UNL     1      76.934  82.909  66.911  1.00  0.00    -0.352 N 
ATOM      4  H   UNL     1      76.123  82.949  67.511  1.00  0.00     0.163 HD
ATOM      5  O   UNL     1      79.055  83.724  66.671  1.00  0.00    -0.275 OA
BRANCH   3   6
ATOM      6  C   UNL     1      76.954  82.016  65.797  1.00  0.00     0.151 C 
BRANCH   6   7
ATOM      7  C   UNL     1      75.595  81.664  65.305  1.00  0.00    -0.025 A 
ATOM      8  C   UNL     1      73.154  81.666  65.601  1.00  0.00     0.160 A 
ATOM      9  C   UNL     1      73.003  81.055  64.338  1.00  0.00     0.157 A 
ATOM     10  C   UNL     1      74.449  81.949  66.085  1.00  0.00     0.056 A 
ATOM     11  C   UNL     1      74.137  80.743  63.566  1.00  0.00     0.050 A 
ATOM     12  C   UNL     1      75.422  81.050  64.043  1.00  0.00     0.009 A 
BRANCH   8  13
ATOM     13  O   UNL     1      72.063  81.959  66.377  1.00  0.00    -0.493 OA
ATOM     14  C   UNL     1      72.054  83.309  66.881  1.00  0.00     0.278 C 
ENDBRANCH   8  13
BRANCH   9  15
ATOM     15  O   UNL     1      71.762  80.776  63.865  1.00  0.00    -0.504 OA
ATOM     16  H   UNL     1      71.107  81.005  64.529  1.00  0.00     0.293 HD
ENDBRANCH   9  15
ENDBRANCH   6   7
ENDBRANCH   3   6
ENDBRANCH   1   2
BRANCH   1  17
ATOM     17  C   UNL     1      76.624  84.369  69.345  1.00  0.00     0.010 C 
BRANCH  17  18
ATOM     18  C   UNL     1      75.403  85.327  69.265  1.00  0.00     0.001 C 
BRANCH  18  19
ATOM     19  C   UNL     1      75.372  86.381  70.403  1.00  0.00     0.000 C 
BRANCH  19  20
ATOM     20  C   UNL     1      76.179  87.661  70.041  1.00  0.00     0.003 C 
BRANCH  20  21
ATOM     21  C   UNL     1      75.456  89.010  70.362  1.00  0.00    -0.017 C 
ATOM     22  C   UNL     1      74.264  88.783  71.338  1.00  0.00     0.007 C 
ATOM     23  C   UNL     1      74.967  89.753  69.085  1.00  0.00     0.007 C 
ENDBRANCH  20  21
ENDBRANCH  19  20
ENDBRANCH  18  19
ENDBRANCH  17  18
ENDBRANCH   1  17
TORSDOF 10
ENDMDL
MODEL 3
REMARK VINA RESULT:    -5.692     20.176     22.860
REMARK INTER + INTRA:          -9.554
REMARK INTER:                  -8.813
REMARK INTRA:                  -0.740
REMARK UNBOUND:                -0.700
REMARK SMILES COc1cc(CNC(=O)CCCCCC(C)C)ccc1O
REMARK SMILES IDX 10 1 8 2 7 3 9 5 6 6 5 7 3 8 20 9 4 10 19 11 18 12 2 13 1 14
REMARK SMILES IDX 21 15 11 17 12 18 13 19 14 20 15 21 16 22 17 23
REMARK H PARENT 7 4 21 16
REMARK Flexibility Score: inf
ROOT
ATOM      1  C   UNL     1      78.422  83.544  67.117  1.00  0.00     0.100 C 
ENDROOT
BRANCH   1   2
ATOM      2  C   UNL     1      77.592  83.239  65.934  1.00  0.00     0.220 C 
ATOM      3  N   UNL     1      76.817  82.117  65.930  1.00  0.00    -0.352 N 
ATOM      4  H   UNL     1      76.972  81.492  66.708  1.00  0.00     0.163 HD
ATOM      5  O   UNL     1      77.585  84.043  64.970  1.00  0.00    -0.275 OA
BRANCH   3   6
ATOM      6  C   UNL     1      75.844  81.793  64.937  1.00  0.00     0.151 C 
BRANCH   6   7
ATOM      7  C   UNL     1      74.445  81.941  65.419  1.00  0.00    -0.025 A 
ATOM      8  C   UNL     1      72.754  83.173  66.712  1.00  0.00     0.160 A 
ATOM      9  C   UNL     1      71.765  82.262  66.282  1.00  0.00     0.157 A 
ATOM     10  C   UNL     1      74.090  82.996  66.293  1.00  0.00     0.056 A 
ATOM     11  C   UNL     1      72.112  81.194  65.434  1.00  0.00     0.050 A 
ATOM     12  C   UNL     1      73.440  81.038  65.001  1.00  0.00     0.009 A 
BRANCH   8  13
ATOM     13  O   UNL     1      72.441  84.208  67.553  1.00  0.00    -0.493 OA
ATOM     14  C   UNL     1      73.346  85.325  67.463  1.00  0.00     0.278 C 
ENDBRANCH   8  13
BRANCH   9  15
ATOM     15  O   UNL     1      70.479  82.421  66.681  1.00  0.00    -0.504 OA
ATOM     16  H   UNL     1      70.124  81.576  66.964  1.00  0.00     0.293 HD
ENDBRANCH   9  15
ENDBRANCH   6   7
ENDBRANCH   3   6
ENDBRANCH   1   2
BRANCH   1  17
ATOM     17  C   UNL     1      77.683  84.339  68.228  1.00  0.00     0.010 C 
BRANCH  17  18
ATOM     18  C   UNL     1      77.972  85.862  68.130  1.00  0.00     0.001 C 
BRANCH  18  19
ATOM     19  C   UNL     1      77.630  86.639  69.429  1.00  0.00     0.000 C 
BRANCH  19  20
ATOM     20  C   UNL     1      76.533  87.718  69.198  1.00  0.00     0.003 C 
BRANCH  20  21
ATOM     21  C   UNL     1      75.685  88.078  70.462  1.00  0.00    -0.017 C 
ATOM     22  C   UNL     1      74.348  87.280  70.480  1.00  0.00     0.007 C 
ATOM     23  C   UNL     1      75.398  89.603  70.582  1.00  0.00     0.007 C 
ENDBRANCH  20  21
ENDBRANCH  19  20
ENDBRANCH  18  19
ENDBRANCH  17  18
ENDBRANCH   1  17
TORSDOF 10
ENDMDL
MODEL 4
REMARK VINA RESULT:    -5.595     17.513     20.405
REMARK INTER + INTRA:          -9.402
REMARK INTER:                  -8.658
REMARK INTRA:                  -0.743
REMARK UNBOUND:                -0.700
REMARK SMILES COc1cc(CNC(=O)CCCCCC(C)C)ccc1O
REMARK SMILES IDX 10 1 8 2 7 3 9 5 6 6 5 7 3 8 20 9 4 10 19 11 18 12 2 13 1 14
REMARK SMILES IDX 21 15 11 17 12 18 13 19 14 20 15 21 16 22 17 23
REMARK H PARENT 7 4 21 16
REMARK Flexibility Score: inf
ROOT
ATOM      1  C   UNL     1      98.543  83.535  79.720  1.00  0.00     0.100 C 
ENDROOT
BRANCH   1   2
ATOM      2  C   UNL     1      98.689  82.616  80.868  1.00  0.00     0.220 C 
ATOM      3  N   UNL     1      98.484  83.085  82.131  1.00  0.00    -0.352 N 
ATOM      4  H   UNL     1      98.371  84.086  82.200  1.00  0.00     0.163 HD
ATOM      5  O   UNL     1      98.959  81.409  80.651  1.00  0.00    -0.275 OA
BRANCH   3   6
ATOM      6  C   UNL     1      98.422  82.277  83.307  1.00  0.00     0.151 C 
BRANCH   6   7
ATOM      7  C   UNL     1      97.512  82.829  84.347  1.00  0.00    -0.025 A 
ATOM      8  C   UNL     1      96.143  82.516  86.366  1.00  0.00     0.160 A 
ATOM      9  C   UNL     1      95.833  83.892  86.366  1.00  0.00     0.157 A 
ATOM     10  C   UNL     1      96.964  81.989  85.346  1.00  0.00     0.056 A 
ATOM     11  C   UNL     1      96.351  84.731  85.363  1.00  0.00     0.050 A 
ATOM     12  C   UNL     1      97.188  84.205  84.364  1.00  0.00     0.009 A 
BRANCH   8  13
ATOM     13  O   UNL     1      95.633  81.678  87.323  1.00  0.00    -0.493 OA
ATOM     14  C   UNL     1      95.609  80.292  86.930  1.00  0.00     0.278 C 
ENDBRANCH   8  13
BRANCH   9  15
ATOM     15  O   UNL     1      95.043  84.408  87.341  1.00  0.00    -0.504 OA
ATOM     16  H   UNL     1      94.133  84.432  87.036  1.00  0.00     0.293 HD
ENDBRANCH   9  15
ENDBRANCH   6   7
ENDBRANCH   3   6
ENDBRANCH   1   2
BRANCH   1  17
ATOM     17  C   UNL     1      97.509  83.072  78.659  1.00  0.00     0.010 C 
BRANCH  17  18
ATOM     18  C   UNL     1      97.517  83.996  77.410  1.00  0.00     0.001 C 
BRANCH  18  19
ATOM     19  C   UNL     1      97.874  83.253  76.096  1.00  0.00     0.000 C 
BRANCH  19  20
ATOM     20  C   UNL     1      99.219  82.477  76.204  1.00  0.00     0.003 C 
BRANCH  20  21
ATOM     21  C   UNL     1     100.496  83.326  75.901  1.00  0.00    -0.017 C 
ATOM     22  C   UNL     1     101.366  83.498  77.182  1.00  0.00     0.007 C 
ATOM     23  C   UNL     1     100.166  84.719  75.290  1.00  0.00     0.007 C 
ENDBRANCH  20  21
ENDBRANCH  19  20
ENDBRANCH  18  19
ENDBRANCH  17  18
ENDBRANCH   1  17
TORSDOF 10
ENDMDL
MODEL 5
REMARK VINA RESULT:    -5.542     16.479     18.188
REMARK INTER + INTRA:          -9.319
REMARK INTER:                  -8.862
REMARK INTRA:                  -0.457
REMARK UNBOUND:                -0.700
REMARK SMILES COc1cc(CNC(=O)CCCCCC(C)C)ccc1O
REMARK SMILES IDX 10 1 8 2 7 3 9 5 6 6 5 7 3 8 20 9 4 10 19 11 18 12 2 13 1 14
REMARK SMILES IDX 21 15 11 17 12 18 13 19 14 20 15 21 16 22 17 23
REMARK H PARENT 7 4 21 16
REMARK Flexibility Score: inf
ROOT
ATOM      1  C   UNL     1      98.926  82.579  79.726  1.00  0.00     0.100 C 
ENDROOT
BRANCH   1   2
ATOM      2  C   UNL     1      98.405  83.295  78.544  1.00  0.00     0.220 C 
ATOM      3  N   UNL     1      99.276  83.753  77.600  1.00  0.00    -0.352 N 
ATOM      4  H   UNL     1     100.251  83.680  77.852  1.00  0.00     0.163 HD
ATOM      5  O   UNL     1      97.164  83.430  78.412  1.00  0.00    -0.275 OA
BRANCH   3   6
ATOM      6  C   UNL     1      98.904  84.302  76.336  1.00  0.00     0.151 C 
BRANCH   6   7
ATOM      7  C   UNL     1     100.039  84.386  75.379  1.00  0.00    -0.025 A 
ATOM      8  C   UNL     1     101.848  83.300  74.115  1.00  0.00     0.160 A 
ATOM      9  C   UNL     1     102.159  84.533  73.504  1.00  0.00     0.157 A 
ATOM     10  C   UNL     1     100.803  83.238  75.061  1.00  0.00     0.056 A 
ATOM     11  C   UNL     1     101.424  85.687  73.833  1.00  0.00     0.050 A 
ATOM     12  C   UNL     1     100.369  85.614  74.758  1.00  0.00     0.009 A 
BRANCH   8  13
ATOM     13  O   UNL     1     102.564  82.169  73.824  1.00  0.00    -0.493 OA
ATOM     14  C   UNL     1     102.024  80.970  74.414  1.00  0.00     0.278 C 
ENDBRANCH   8  13
BRANCH   9  15
ATOM     15  O   UNL     1     103.163  84.604  72.595  1.00  0.00    -0.504 OA
ATOM     16  H   UNL     1     103.238  83.765  72.135  1.00  0.00     0.293 HD
ENDBRANCH   9  15
ENDBRANCH   6   7
ENDBRANCH   3   6
ENDBRANCH   1   2
BRANCH   1  17
ATOM     17  C   UNL     1      98.469  83.173  81.086  1.00  0.00     0.010 C 
BRANCH  17  18
ATOM     18  C   UNL     1      99.038  82.366  82.285  1.00  0.00     0.001 C 
BRANCH  18  19
ATOM     19  C   UNL     1      98.069  82.292  83.494  1.00  0.00     0.000 C 
BRANCH  19  20
ATOM     20  C   UNL     1      97.323  83.637  83.733  1.00  0.00     0.003 C 
BRANCH  20  21
ATOM     21  C   UNL     1      97.222  84.079  85.229  1.00  0.00    -0.017 C 
ATOM     22  C   UNL     1      95.973  83.447  85.911  1.00  0.00     0.007 C 
ATOM     23  C   UNL     1      97.200  85.626  85.403  1.00  0.00     0.007 C 
ENDBRANCH  20  21
ENDBRANCH  19  20
ENDBRANCH  18  19
ENDBRANCH  17  18
ENDBRANCH   1  17
TORSDOF 10
ENDMDL
MODEL 6
REMARK VINA RESULT:    -5.510     18.461     21.152
REMARK INTER + INTRA:          -9.270
REMARK INTER:                  -8.512
REMARK INTRA:                  -0.759
REMARK UNBOUND:                -0.700
REMARK SMILES COc1cc(CNC(=O)CCCCCC(C)C)ccc1O
REMARK SMILES IDX 10 1 8 2 7 3 9 5 6 6 5 7 3 8 20 9 4 10 19 11 18 12 2 13 1 14
REMARK SMILES IDX 21 15 11 17 12 18 13 19 14 20 15 21 16 22 17 23
REMARK H PARENT 7 4 21 16
REMARK Flexibility Score: inf
ROOT
ATOM      1  C   UNL     1      98.067  83.664  84.790  1.00  0.00     0.100 C 
ENDROOT
BRANCH   1   2
ATOM      2  C   UNL     1      97.330  82.923  85.835  1.00  0.00     0.220 C 
ATOM      3  N   UNL     1      96.008  82.648  85.654  1.00  0.00    -0.352 N 
ATOM      4  H   UNL     1      95.586  83.097  84.854  1.00  0.00     0.163 HD
ATOM      5  O   UNL     1      97.951  82.525  86.851  1.00  0.00    -0.275 OA
BRANCH   3   6
ATOM      6  C   UNL     1      95.223  81.799  86.492  1.00  0.00     0.151 C 
BRANCH   6   7
ATOM      7  C   UNL     1      94.002  82.466  87.020  1.00  0.00    -0.025 A 
ATOM      8  C   UNL     1      91.566  82.500  87.351  1.00  0.00     0.160 A 
ATOM      9  C   UNL     1      91.684  83.701  88.082  1.00  0.00     0.157 A 
ATOM     10  C   UNL     1      92.722  81.900  86.808  1.00  0.00     0.056 A 
ATOM     11  C   UNL     1      92.949  84.286  88.275  1.00  0.00     0.050 A 
ATOM     12  C   UNL     1      94.100  83.671  87.754  1.00  0.00     0.009 A 
BRANCH   8  13
ATOM     13  O   UNL     1      90.341  81.925  87.134  1.00  0.00    -0.493 OA
ATOM     14  C   UNL     1      90.360  80.867  86.156  1.00  0.00     0.278 C 
ENDBRANCH   8  13
BRANCH   9  15
ATOM     15  O   UNL     1      90.579  84.287  88.605  1.00  0.00    -0.504 OA
ATOM     16  H   UNL     1      90.220  84.915  87.975  1.00  0.00     0.293 HD
ENDBRANCH   9  15
ENDBRANCH   6   7
ENDBRANCH   3   6
ENDBRANCH   1   2
BRANCH   1  17
ATOM     17  C   UNL     1      97.816  83.151  83.346  1.00  0.00     0.010 C 
BRANCH  17  18
ATOM     18  C   UNL     1      98.629  81.860  83.048  1.00  0.00     0.001 C 
BRANCH  18  19
ATOM     19  C   UNL     1      99.349  81.889  81.674  1.00  0.00     0.000 C 
BRANCH  19  20
ATOM     20  C   UNL     1      99.014  83.173  80.861  1.00  0.00     0.003 C 
BRANCH  20  21
ATOM     21  C   UNL     1      98.597  82.923  79.375  1.00  0.00    -0.017 C 
ATOM     22  C   UNL     1      97.199  83.543  79.079  1.00  0.00     0.007 C 
ATOM     23  C   UNL     1      98.604  81.415  78.991  1.00  0.00     0.007 C 
ENDBRANCH  20  21
ENDBRANCH  19  20
ENDBRANCH  18  19
ENDBRANCH  17  18
ENDBRANCH   1  17
TORSDOF 10
ENDMDL
MODEL 7
REMARK VINA RESULT:    -5.467     14.595     17.492
REMARK INTER + INTRA:          -9.203
REMARK INTER:                  -8.575
REMARK INTRA:                  -0.628
REMARK UNBOUND:                -0.700
REMARK SMILES COc1cc(CNC(=O)CCCCCC(C)C)ccc1O
REMARK SMILES IDX 10 1 8 2 7 3 9 5 6 6 5 7 3 8 20 9 4 10 19 11 18 12 2 13 1 14
REMARK SMILES IDX 21 15 11 17 12 18 13 19 14 20 15 21 16 22 17 23
REMARK H PARENT 7 4 21 16
REMARK Flexibility Score: inf
ROOT
ATOM      1  C   UNL     1      74.948  89.611  70.184  1.00  0.00     0.100 C 
ENDROOT
BRANCH   1   2
ATOM      2  C   UNL     1      74.925  90.613  71.269  1.00  0.00     0.220 C 
ATOM      3  N   UNL     1      75.980  91.463  71.418  1.00  0.00    -0.352 N 
ATOM      4  H   UNL     1      76.781  91.252  70.840  1.00  0.00     0.163 HD
ATOM      5  O   UNL     1      73.912  90.690  72.006  1.00  0.00    -0.275 OA
BRANCH   3   6
ATOM      6  C   UNL     1      76.015  92.582  72.304  1.00  0.00     0.151 C 
BRANCH   6   7
ATOM      7  C   UNL     1      76.922  93.667  71.840  1.00  0.00    -0.025 A 
ATOM      8  C   UNL     1      77.341  95.639  70.432  1.00  0.00     0.160 A 
ATOM      9  C   UNL     1      78.624  95.772  71.004  1.00  0.00     0.157 A 
ATOM     10  C   UNL     1      76.506  94.577  70.839  1.00  0.00     0.056 A 
ATOM     11  C   UNL     1      79.058  94.857  71.981  1.00  0.00     0.050 A 
ATOM     12  C   UNL     1      78.212  93.816  72.400  1.00  0.00     0.009 A 
BRANCH   8  13
ATOM     13  O   UNL     1      76.907  96.508  69.465  1.00  0.00    -0.493 OA
ATOM     14  C   UNL     1      75.540  96.295  69.063  1.00  0.00     0.278 C 
ENDBRANCH   8  13
BRANCH   9  15
ATOM     15  O   UNL     1      79.435  96.788  70.618  1.00  0.00    -0.504 OA
ATOM     16  H   UNL     1      80.138  96.899  71.263  1.00  0.00     0.293 HD
ENDBRANCH   9  15
ENDBRANCH   6   7
ENDBRANCH   3   6
ENDBRANCH   1   2
BRANCH   1  17
ATOM     17  C   UNL     1      74.406  88.215  70.593  1.00  0.00     0.010 C 
BRANCH  17  18
ATOM     18  C   UNL     1      75.474  87.104  70.392  1.00  0.00     0.001 C 
BRANCH  18  19
ATOM     19  C   UNL     1      76.779  87.617  69.728  1.00  0.00     0.000 C 
BRANCH  19  20
ATOM     20  C   UNL     1      77.779  86.463  69.429  1.00  0.00     0.003 C 
BRANCH  20  21
ATOM     21  C   UNL     1      78.267  86.380  67.946  1.00  0.00    -0.017 C 
ATOM     22  C   UNL     1      77.610  87.496  67.081  1.00  0.00     0.007 C 
ATOM     23  C   UNL     1      78.011  84.986  67.302  1.00  0.00     0.007 C 
ENDBRANCH  20  21
ENDBRANCH  19  20
ENDBRANCH  18  19
ENDBRANCH  17  18
ENDBRANCH   1  17
TORSDOF 10
ENDMDL
MODEL 8
REMARK VINA RESULT:    -5.435     16.934     19.736
REMARK INTER + INTRA:          -9.153
REMARK INTER:                  -8.634
REMARK INTRA:                  -0.519
REMARK UNBOUND:                -0.700
REMARK SMILES COc1cc(CNC(=O)CCCCCC(C)C)ccc1O
REMARK SMILES IDX 10 1 8 2 7 3 9 5 6 6 5 7 3 8 20 9 4 10 19 11 18 12 2 13 1 14
REMARK SMILES IDX 21 15 11 17 12 18 13 19 14 20 15 21 16 22 17 23
REMARK H PARENT 7 4 21 16
REMARK Flexibility Score: inf
ROOT
ATOM      1  C   UNL     1      75.766  89.661  70.345  1.00  0.00     0.100 C 
ENDROOT
BRANCH   1   2
ATOM      2  C   UNL     1      75.354  88.254  70.534  1.00  0.00     0.220 C 
ATOM      3  N   UNL     1      76.106  87.257  69.987  1.00  0.00    -0.352 N 
ATOM      4  H   UNL     1      76.838  87.569  69.366  1.00  0.00     0.163 HD
ATOM      5  O   UNL     1      74.341  88.005  71.231  1.00  0.00    -0.275 OA
BRANCH   3   6
ATOM      6  C   UNL     1      75.924  85.863  70.233  1.00  0.00     0.151 C 
BRANCH   6   7
ATOM      7  C   UNL     1      76.441  85.004  69.134  1.00  0.00    -0.025 A 
ATOM      8  C   UNL     1      76.042  83.397  67.315  1.00  0.00     0.160 A 
ATOM      9  C   UNL     1      77.416  83.419  66.997  1.00  0.00     0.157 A 
ATOM     10  C   UNL     1      75.566  84.174  68.393  1.00  0.00     0.056 A 
ATOM     11  C   UNL     1      78.300  84.220  67.744  1.00  0.00     0.050 A 
ATOM     12  C   UNL     1      77.816  85.010  68.800  1.00  0.00     0.009 A 
BRANCH   8  13
ATOM     13  O   UNL     1      75.168  82.609  66.613  1.00  0.00    -0.493 OA
ATOM     14  C   UNL     1      73.995  83.307  66.155  1.00  0.00     0.278 C 
ENDBRANCH   8  13
BRANCH   9  15
ATOM     15  O   UNL     1      77.884  82.674  65.965  1.00  0.00    -0.504 OA
ATOM     16  H   UNL     1      78.539  83.178  65.476  1.00  0.00     0.293 HD
ENDBRANCH   9  15
ENDBRANCH   6   7
ENDBRANCH   3   6
ENDBRANCH   1   2
BRANCH   1  17
ATOM     17  C   UNL     1      75.073  90.664  71.306  1.00  0.00     0.010 C 
BRANCH  17  18
ATOM     18  C   UNL     1      75.456  92.132  70.975  1.00  0.00     0.001 C 
BRANCH  18  19
ATOM     19  C   UNL     1      75.789  92.981  72.231  1.00  0.00     0.000 C 
BRANCH  19  20
ATOM     20  C   UNL     1      76.926  94.008  71.962  1.00  0.00     0.003 C 
BRANCH  20  21
ATOM     21  C   UNL     1      78.278  93.701  72.686  1.00  0.00    -0.017 C 
ATOM     22  C   UNL     1      79.403  94.656  72.190  1.00  0.00     0.007 C 
ATOM     23  C   UNL     1      78.726  92.219  72.526  1.00  0.00     0.007 C 
ENDBRANCH  20  21
ENDBRANCH  19  20
ENDBRANCH  18  19
ENDBRANCH  17  18
ENDBRANCH   1  17
TORSDOF 10
ENDMDL
MODEL 9
REMARK VINA RESULT:    -5.408     21.694     24.373
REMARK INTER + INTRA:          -9.111
REMARK INTER:                  -8.295
REMARK INTRA:                  -0.816
REMARK UNBOUND:                -0.700
REMARK SMILES COc1cc(CNC(=O)CCCCCC(C)C)ccc1O
REMARK SMILES IDX 10 1 8 2 7 3 9 5 6 6 5 7 3 8 20 9 4 10 19 11 18 12 2 13 1 14
REMARK SMILES IDX 21 15 11 17 12 18 13 19 14 20 15 21 16 22 17 23
REMARK H PARENT 7 4 21 16
REMARK Flexibility Score: inf
ROOT
ATOM      1  C   UNL     1      76.302  81.666  65.824  1.00  0.00     0.100 C 
ENDROOT
BRANCH   1   2
ATOM      2  C   UNL     1      74.923  81.338  65.407  1.00  0.00     0.220 C 
ATOM      3  N   UNL     1      73.886  81.605  66.251  1.00  0.00    -0.352 N 
ATOM      4  H   UNL     1      74.159  81.897  67.179  1.00  0.00     0.163 HD
ATOM      5  O   UNL     1      74.730  80.857  64.264  1.00  0.00    -0.275 OA
BRANCH   3   6
ATOM      6  C   UNL     1      72.503  81.502  65.913  1.00  0.00     0.151 C 
BRANCH   6   7
ATOM      7  C   UNL     1      71.695  82.654  66.398  1.00  0.00    -0.025 A 
ATOM      8  C   UNL     1      69.806  83.533  67.703  1.00  0.00     0.160 A 
ATOM      9  C   UNL     1      70.197  84.850  67.377  1.00  0.00     0.157 A 
ATOM     10  C   UNL     1      70.546  82.444  67.196  1.00  0.00     0.056 A 
ATOM     11  C   UNL     1      71.322  85.069  66.562  1.00  0.00     0.050 A 
ATOM     12  C   UNL     1      72.069  83.980  66.081  1.00  0.00     0.009 A 
BRANCH   8  13
ATOM     13  O   UNL     1      68.701  83.298  68.479  1.00  0.00    -0.493 OA
ATOM     14  C   UNL     1      68.998  83.129  69.878  1.00  0.00     0.278 C 
ENDBRANCH   8  13
BRANCH   9  15
ATOM     15  O   UNL     1      69.491  85.904  67.857  1.00  0.00    -0.504 OA
ATOM     16  H   UNL     1      69.987  86.328  68.560  1.00  0.00     0.293 HD
ENDBRANCH   9  15
ENDBRANCH   6   7
ENDBRANCH   3   6
ENDBRANCH   1   2
BRANCH   1  17
ATOM     17  C   UNL     1      76.417  82.941  66.702  1.00  0.00     0.010 C 
BRANCH  17  18
ATOM     18  C   UNL     1      77.871  83.487  66.730  1.00  0.00     0.001 C 
BRANCH  18  19
ATOM     19  C   UNL     1      78.175  84.368  67.971  1.00  0.00     0.000 C 
BRANCH  19  20
ATOM     20  C   UNL     1      77.157  84.131  69.124  1.00  0.00     0.003 C 
BRANCH  20  21
ATOM     21  C   UNL     1      76.985  85.332  70.110  1.00  0.00    -0.017 C 
ATOM     22  C   UNL     1      75.488  85.527  70.492  1.00  0.00     0.007 C 
ATOM     23  C   UNL     1      77.571  86.661  69.551  1.00  0.00     0.007 C 
ENDBRANCH  20  21
ENDBRANCH  19  20
ENDBRANCH  18  19
ENDBRANCH  17  18
ENDBRANCH   1  17
TORSDOF 10
ENDMDL
MODEL 10
REMARK VINA RESULT:    -5.365     21.838     24.574
REMARK INTER + INTRA:          -9.045
REMARK INTER:                  -7.972
REMARK INTRA:                  -1.073
REMARK UNBOUND:                -0.700
REMARK SMILES COc1cc(CNC(=O)CCCCCC(C)C)ccc1O
REMARK SMILES IDX 10 1 8 2 7 3 9 5 6 6 5 7 3 8 20 9 4 10 19 11 18 12 2 13 1 14
REMARK SMILES IDX 21 15 11 17 12 18 13 19 14 20 15 21 16 22 17 23
REMARK H PARENT 7 4 21 16
REMARK Flexibility Score: inf
ROOT
ATOM      1  C   UNL     1      74.330  81.119  65.234  1.00  0.00     0.100 C 
ENDROOT
BRANCH   1   2
ATOM      2  C   UNL     1      73.283  82.162  65.214  1.00  0.00     0.220 C 
ATOM      3  N   UNL     1      72.027  81.857  65.646  1.00  0.00    -0.352 N 
ATOM      4  H   UNL     1      71.867  80.877  65.832  1.00  0.00     0.163 HD
ATOM      5  O   UNL     1      73.584  83.321  64.837  1.00  0.00    -0.275 OA
BRANCH   3   6
ATOM      6  C   UNL     1      70.974  82.802  65.843  1.00  0.00     0.151 C 
BRANCH   6   7
ATOM      7  C   UNL     1      70.801  83.195  67.267  1.00  0.00    -0.025 A 
ATOM      8  C   UNL     1      71.483  84.549  69.203  1.00  0.00     0.160 A 
ATOM      9  C   UNL     1      70.429  83.994  69.960  1.00  0.00     0.157 A 
ATOM     10  C   UNL     1      71.674  84.133  67.869  1.00  0.00     0.056 A 
ATOM     11  C   UNL     1      69.571  83.042  69.380  1.00  0.00     0.050 A 
ATOM     12  C   UNL     1      69.752  82.649  68.043  1.00  0.00     0.009 A 
BRANCH   8  13
ATOM     13  O   UNL     1      72.342  85.464  69.755  1.00  0.00    -0.493 OA
ATOM     14  C   UNL     1      73.108  86.202  68.784  1.00  0.00     0.278 C 
ENDBRANCH   8  13
BRANCH   9  15
ATOM     15  O   UNL     1      70.238  84.386  71.245  1.00  0.00    -0.504 OA
ATOM     16  H   UNL     1      70.053  85.328  71.268  1.00  0.00     0.293 HD
ENDBRANCH   9  15
ENDBRANCH   6   7
ENDBRANCH   3   6
ENDBRANCH   1   2
BRANCH   1  17
ATOM     17  C   UNL     1      75.387  81.298  66.357  1.00  0.00     0.010 C 
BRANCH  17  18
ATOM     18  C   UNL     1      76.685  81.962  65.822  1.00  0.00     0.001 C 
BRANCH  18  19
ATOM     19  C   UNL     1      77.043  83.287  66.545  1.00  0.00     0.000 C 
BRANCH  19  20
ATOM     20  C   UNL     1      76.157  83.529  67.801  1.00  0.00     0.003 C 
BRANCH  20  21
ATOM     21  C   UNL     1      76.683  84.630  68.778  1.00  0.00    -0.017 C 
ATOM     22  C   UNL     1      78.140  85.045  68.415  1.00  0.00     0.007 C 
ATOM     23  C   UNL     1      76.608  84.200  70.272  1.00  0.00     0.007 C 
ENDBRANCH  20  21
ENDBRANCH  19  20
ENDBRANCH  18  19
ENDBRANCH  17  18
ENDBRANCH   1  17
TORSDOF 10
ENDMDL
