MODEL 1
REMARK VINA RESULT:    -6.576      0.000      0.000
REMARK INTER + INTRA:         -10.848
REMARK INTER:                 -10.228
REMARK INTRA:                  -0.620
REMARK UNBOUND:                -0.620
REMARK SMILES COc1cc(CNC(=O)CCCCCC(C)C)ccc1O
REMARK SMILES IDX 10 1 8 2 7 3 9 5 6 6 5 7 3 8 20 9 4 10 19 11 18 12 2 13 1 14
REMARK SMILES IDX 21 15 11 17 12 18 13 19 14 20 15 21 16 22 17 23
REMARK H PARENT 7 4 21 16
REMARK Flexibility Score: inf
ROOT
ATOM      1  C   UNL     1      92.060  94.778  77.536  1.00  0.00     0.100 C 
ENDROOT
BRANCH   1   2
ATOM      2  C   UNL     1      93.389  95.385  77.319  1.00  0.00     0.220 C 
ATOM      3  N   UNL     1      93.661  96.610  77.853  1.00  0.00    -0.352 N 
ATOM      4  H   UNL     1      92.866  97.082  78.259  1.00  0.00     0.163 HD
ATOM      5  O   UNL     1      94.257  94.740  76.681  1.00  0.00    -0.275 OA
BRANCH   3   6
ATOM      6  C   UNL     1      94.946  97.232  77.869  1.00  0.00     0.151 C 
BRANCH   6   7
ATOM      7  C   UNL     1      95.627  97.132  79.188  1.00  0.00    -0.025 A 
ATOM      8  C   UNL     1      96.371  98.172  81.289  1.00  0.00     0.160 A 
ATOM      9  C   UNL     1      96.865  96.925  81.728  1.00  0.00     0.157 A 
ATOM     10  C   UNL     1      95.772  98.271  80.014  1.00  0.00     0.056 A 
ATOM     11  C   UNL     1      96.750  95.791  80.903  1.00  0.00     0.050 A 
ATOM     12  C   UNL     1      96.131  95.892  79.646  1.00  0.00     0.009 A 
BRANCH   8  13
ATOM     13  O   UNL     1      96.490  99.292  82.068  1.00  0.00    -0.493 OA
ATOM     14  C   UNL     1      95.376 100.199  81.959  1.00  0.00     0.278 C 
ENDBRANCH   8  13
BRANCH   9  15
ATOM     15  O   UNL     1      97.444  96.819  82.950  1.00  0.00    -0.504 OA
ATOM     16  H   UNL     1      97.228  95.967  83.334  1.00  0.00     0.293 HD
ENDBRANCH   9  15
ENDBRANCH   6   7
ENDBRANCH   3   6
ENDBRANCH   1   2
BRANCH   1  17
ATOM     17  C   UNL     1      90.896  95.517  76.822  1.00  0.00     0.010 C 
BRANCH  17  18
ATOM     18  C   UNL     1      90.049  94.547  75.953  1.00  0.00     0.001 C 
BRANCH  18  19
ATOM     19  C   UNL     1      90.894  93.448  75.256  1.00  0.00     0.000 C 
BRANCH  19  20
ATOM     20  C   UNL     1      90.111  92.741  74.112  1.00  0.00     0.003 C 
BRANCH  20  21
ATOM     21  C   UNL     1      89.698  91.263  74.409  1.00  0.00    -0.017 C 
ATOM     22  C   UNL     1      89.556  91.024  75.941  1.00  0.00     0.007 C 
ATOM     23  C   UNL     1      90.682  90.225  73.796  1.00  0.00     0.007 C 
ENDBRANCH  20  21
ENDBRANCH  19  20
ENDBRANCH  18  19
ENDBRANCH  17  18
ENDBRANCH   1  17
TORSDOF 10
ENDMDL
MODEL 2
REMARK VINA RESULT:    -6.138     13.947     16.493
REMARK INTER + INTRA:         -10.168
REMARK INTER:                  -9.559
REMARK INTRA:                  -0.609
REMARK UNBOUND:                -0.620
REMARK SMILES COc1cc(CNC(=O)CCCCCC(C)C)ccc1O
REMARK SMILES IDX 10 1 8 2 7 3 9 5 6 6 5 7 3 8 20 9 4 10 19 11 18 12 2 13 1 14
REMARK SMILES IDX 21 15 11 17 12 18 13 19 14 20 15 21 16 22 17 23
REMARK H PARENT 7 4 21 16
REMARK Flexibility Score: inf
ROOT
ATOM      1  C   UNL     1      95.077  81.604  83.889  1.00  0.00     0.100 C 
ENDROOT
BRANCH   1   2
ATOM      2  C   UNL     1      93.999  81.977  84.828  1.00  0.00     0.220 C 
ATOM      3  N   UNL     1      92.840  82.504  84.341  1.00  0.00    -0.352 N 
ATOM      4  H   UNL     1      92.856  82.728  83.356  1.00  0.00     0.163 HD
ATOM      5  O   UNL     1      94.157  81.760  86.054  1.00  0.00    -0.275 OA
BRANCH   3   6
ATOM      6  C   UNL     1      91.661  82.746  85.109  1.00  0.00     0.151 C 
BRANCH   6   7
ATOM      7  C   UNL     1      90.527  81.859  84.734  1.00  0.00    -0.025 A 
ATOM      8  C   UNL     1      88.122  81.518  84.351  1.00  0.00     0.160 A 
ATOM      9  C   UNL     1      88.376  80.187  83.955  1.00  0.00     0.157 A 
ATOM     10  C   UNL     1      89.196  82.339  84.756  1.00  0.00     0.056 A 
ATOM     11  C   UNL     1      89.693  79.692  83.955  1.00  0.00     0.050 A 
ATOM     12  C   UNL     1      90.761  80.522  84.336  1.00  0.00     0.009 A 
BRANCH   8  13
ATOM     13  O   UNL     1      86.845  82.014  84.378  1.00  0.00    -0.493 OA
ATOM     14  C   UNL     1      86.544  82.903  83.284  1.00  0.00     0.278 C 
ENDBRANCH   8  13
BRANCH   9  15
ATOM     15  O   UNL     1      87.350  79.389  83.567  1.00  0.00    -0.504 OA
ATOM     16  H   UNL     1      86.779  79.213  84.318  1.00  0.00     0.293 HD
ENDBRANCH   9  15
ENDBRANCH   6   7
ENDBRANCH   3   6
ENDBRANCH   1   2
BRANCH   1  17
ATOM     17  C   UNL     1      96.469  82.188  84.252  1.00  0.00     0.010 C 
BRANCH  17  18
ATOM     18  C   UNL     1      97.239  82.658  82.987  1.00  0.00     0.001 C 
BRANCH  18  19
ATOM     19  C   UNL     1      96.448  82.447  81.669  1.00  0.00     0.000 C 
BRANCH  19  20
ATOM     20  C   UNL     1      97.154  81.440  80.715  1.00  0.00     0.003 C 
BRANCH  20  21
ATOM     21  C   UNL     1      97.790  82.077  79.437  1.00  0.00    -0.017 C 
ATOM     22  C   UNL     1      97.077  83.411  79.067  1.00  0.00     0.007 C 
ATOM     23  C   UNL     1      97.787  81.114  78.215  1.00  0.00     0.007 C 
ENDBRANCH  20  21
ENDBRANCH  19  20
ENDBRANCH  18  19
ENDBRANCH  17  18
ENDBRANCH   1  17
TORSDOF 10
ENDMDL
MODEL 3
REMARK VINA RESULT:    -6.113     13.713     16.210
REMARK INTER + INTRA:         -10.127
REMARK INTER:                  -9.023
REMARK INTRA:                  -1.104
REMARK UNBOUND:                -0.620
REMARK SMILES COc1cc(CNC(=O)CCCCCC(C)C)ccc1O
REMARK SMILES IDX 10 1 8 2 7 3 9 5 6 6 5 7 3 8 20 9 4 10 19 11 18 12 2 13 1 14
REMARK SMILES IDX 21 15 11 17 12 18 13 19 14 20 15 21 16 22 17 23
REMARK H PARENT 7 4 21 16
REMARK Flexibility Score: inf
ROOT
ATOM      1  C   UNL     1      95.823  84.929  84.116  1.00  0.00     0.100 C 
ENDROOT
BRANCH   1   2
ATOM      2  C   UNL     1      94.846  84.442  85.112  1.00  0.00     0.220 C 
ATOM      3  N   UNL     1      93.663  83.914  84.687  1.00  0.00    -0.352 N 
ATOM      4  H   UNL     1      93.482  84.017  83.699  1.00  0.00     0.163 HD
ATOM      5  O   UNL     1      95.144  84.486  86.330  1.00  0.00    -0.275 OA
BRANCH   3   6
ATOM      6  C   UNL     1      92.711  83.254  85.522  1.00  0.00     0.151 C 
BRANCH   6   7
ATOM      7  C   UNL     1      92.449  81.848  85.111  1.00  0.00    -0.025 A 
ATOM      8  C   UNL     1      90.873  80.066  84.489  1.00  0.00     0.160 A 
ATOM      9  C   UNL     1      91.956  79.190  84.266  1.00  0.00     0.157 A 
ATOM     10  C   UNL     1      91.125  81.383  84.929  1.00  0.00     0.056 A 
ATOM     11  C   UNL     1      93.275  79.633  84.470  1.00  0.00     0.050 A 
ATOM     12  C   UNL     1      93.521  80.953  84.884  1.00  0.00     0.009 A 
BRANCH   8  13
ATOM     13  O   UNL     1      89.580  79.648  84.316  1.00  0.00    -0.493 OA
ATOM     14  C   UNL     1      88.721  80.642  83.725  1.00  0.00     0.278 C 
ENDBRANCH   8  13
BRANCH   9  15
ATOM     15  O   UNL     1      91.724  77.921  83.845  1.00  0.00    -0.504 OA
ATOM     16  H   UNL     1      91.787  77.884  82.888  1.00  0.00     0.293 HD
ENDBRANCH   9  15
ENDBRANCH   6   7
ENDBRANCH   3   6
ENDBRANCH   1   2
BRANCH   1  17
ATOM     17  C   UNL     1      95.946  84.035  82.853  1.00  0.00     0.010 C 
BRANCH  17  18
ATOM     18  C   UNL     1      96.907  82.837  83.090  1.00  0.00     0.001 C 
BRANCH  18  19
ATOM     19  C   UNL     1      96.447  81.531  82.390  1.00  0.00     0.000 C 
BRANCH  19  20
ATOM     20  C   UNL     1      97.160  81.314  81.024  1.00  0.00     0.003 C 
BRANCH  20  21
ATOM     21  C   UNL     1      98.089  82.487  80.570  1.00  0.00    -0.017 C 
ATOM     22  C   UNL     1      97.500  83.210  79.323  1.00  0.00     0.007 C 
ATOM     23  C   UNL     1      99.547  82.026  80.281  1.00  0.00     0.007 C 
ENDBRANCH  20  21
ENDBRANCH  19  20
ENDBRANCH  18  19
ENDBRANCH  17  18
ENDBRANCH   1  17
TORSDOF 10
ENDMDL
MODEL 4
REMARK VINA RESULT:    -6.011     12.595     13.827
REMARK INTER + INTRA:          -9.970
REMARK INTER:                  -9.403
REMARK INTRA:                  -0.567
REMARK UNBOUND:                -0.620
REMARK SMILES COc1cc(CNC(=O)CCCCCC(C)C)ccc1O
REMARK SMILES IDX 10 1 8 2 7 3 9 5 6 6 5 7 3 8 20 9 4 10 19 11 18 12 2 13 1 14
REMARK SMILES IDX 21 15 11 17 12 18 13 19 14 20 15 21 16 22 17 23
REMARK H PARENT 7 4 21 16
REMARK Flexibility Score: inf
ROOT
ATOM      1  C   UNL     1      97.632  83.541  79.280  1.00  0.00     0.100 C 
ENDROOT
BRANCH   1   2
ATOM      2  C   UNL     1      97.307  82.635  80.400  1.00  0.00     0.220 C 
ATOM      3  N   UNL     1      96.999  83.160  81.619  1.00  0.00    -0.352 N 
ATOM      4  H   UNL     1      97.147  84.156  81.702  1.00  0.00     0.163 HD
ATOM      5  O   UNL     1      97.280  81.397  80.194  1.00  0.00    -0.275 OA
BRANCH   3   6
ATOM      6  C   UNL     1      96.502  82.418  82.733  1.00  0.00     0.151 C 
BRANCH   6   7
ATOM      7  C   UNL     1      95.626  83.221  83.627  1.00  0.00    -0.025 A 
ATOM      8  C   UNL     1      93.630  83.407  85.052  1.00  0.00     0.160 A 
ATOM      9  C   UNL     1      93.992  84.730  85.383  1.00  0.00     0.157 A 
ATOM     10  C   UNL     1      94.438  82.668  84.162  1.00  0.00     0.056 A 
ATOM     11  C   UNL     1      95.157  85.300  84.836  1.00  0.00     0.050 A 
ATOM     12  C   UNL     1      95.970  84.550  83.969  1.00  0.00     0.009 A 
BRANCH   8  13
ATOM     13  O   UNL     1      92.489  82.841  85.558  1.00  0.00    -0.493 OA
ATOM     14  C   UNL     1      92.680  81.509  86.073  1.00  0.00     0.278 C 
ENDBRANCH   8  13
BRANCH   9  15
ATOM     15  O   UNL     1      93.221  85.450  86.235  1.00  0.00    -0.504 OA
ATOM     16  H   UNL     1      92.929  86.255  85.801  1.00  0.00     0.293 HD
ENDBRANCH   9  15
ENDBRANCH   6   7
ENDBRANCH   3   6
ENDBRANCH   1   2
BRANCH   1  17
ATOM     17  C   UNL     1      96.542  83.607  78.175  1.00  0.00     0.010 C 
BRANCH  17  18
ATOM     18  C   UNL     1      97.153  83.954  76.789  1.00  0.00     0.001 C 
BRANCH  18  19
ATOM     19  C   UNL     1      98.454  83.170  76.474  1.00  0.00     0.000 C 
BRANCH  19  20
ATOM     20  C   UNL     1      99.329  83.886  75.405  1.00  0.00     0.003 C 
BRANCH  20  21
ATOM     21  C   UNL     1      98.532  84.535  74.227  1.00  0.00    -0.017 C 
ATOM     22  C   UNL     1      97.972  83.443  73.268  1.00  0.00     0.007 C 
ATOM     23  C   UNL     1      99.374  85.569  73.425  1.00  0.00     0.007 C 
ENDBRANCH  20  21
ENDBRANCH  19  20
ENDBRANCH  18  19
ENDBRANCH  17  18
ENDBRANCH   1  17
TORSDOF 10
ENDMDL
MODEL 5
REMARK VINA RESULT:    -5.979      2.100      2.693
REMARK INTER + INTRA:          -9.919
REMARK INTER:                  -9.275
REMARK INTRA:                  -0.644
REMARK UNBOUND:                -0.620
REMARK SMILES COc1cc(CNC(=O)CCCCCC(C)C)ccc1O
REMARK SMILES IDX 10 1 8 2 7 3 9 5 6 6 5 7 3 8 20 9 4 10 19 11 18 12 2 13 1 14
REMARK SMILES IDX 21 15 11 17 12 18 13 19 14 20 15 21 16 22 17 23
REMARK H PARENT 7 4 21 16
REMARK Flexibility Score: inf
ROOT
ATOM      1  C   UNL     1      92.167  94.743  76.726  1.00  0.00     0.100 C 
ENDROOT
BRANCH   1   2
ATOM      2  C   UNL     1      93.239  95.587  76.158  1.00  0.00     0.220 C 
ATOM      3  N   UNL     1      93.333  96.893  76.536  1.00  0.00    -0.352 N 
ATOM      4  H   UNL     1      92.561  97.231  77.093  1.00  0.00     0.163 HD
ATOM      5  O   UNL     1      94.067  95.070  75.370  1.00  0.00    -0.275 OA
BRANCH   3   6
ATOM      6  C   UNL     1      94.410  97.769  76.203  1.00  0.00     0.151 C 
BRANCH   6   7
ATOM      7  C   UNL     1      95.424  97.885  77.287  1.00  0.00    -0.025 A 
ATOM      8  C   UNL     1      97.756  98.200  78.000  1.00  0.00     0.160 A 
ATOM      9  C   UNL     1      97.344  98.175  79.349  1.00  0.00     0.157 A 
ATOM     10  C   UNL     1      96.797  98.036  76.978  1.00  0.00     0.056 A 
ATOM     11  C   UNL     1      95.985  97.999  79.668  1.00  0.00     0.050 A 
ATOM     12  C   UNL     1      95.032  97.861  78.645  1.00  0.00     0.009 A 
BRANCH   8  13
ATOM     13  O   UNL     1      99.077  98.350  77.669  1.00  0.00    -0.493 OA
ATOM     14  C   UNL     1      99.302  99.248  76.564  1.00  0.00     0.278 C 
ENDBRANCH   8  13
BRANCH   9  15
ATOM     15  O   UNL     1      98.259  98.329  80.339  1.00  0.00    -0.504 OA
ATOM     16  H   UNL     1      99.135  98.411  79.956  1.00  0.00     0.293 HD
ENDBRANCH   9  15
ENDBRANCH   6   7
ENDBRANCH   3   6
ENDBRANCH   1   2
BRANCH   1  17
ATOM     17  C   UNL     1      90.730  95.252  76.434  1.00  0.00     0.010 C 
BRANCH  17  18
ATOM     18  C   UNL     1      89.771  94.084  76.074  1.00  0.00     0.001 C 
BRANCH  18  19
ATOM     19  C   UNL     1      90.481  92.707  75.992  1.00  0.00     0.000 C 
BRANCH  19  20
ATOM     20  C   UNL     1      89.474  91.521  76.062  1.00  0.00     0.003 C 
BRANCH  20  21
ATOM     21  C   UNL     1      89.479  90.577  74.816  1.00  0.00    -0.017 C 
ATOM     22  C   UNL     1      89.821  89.115  75.229  1.00  0.00     0.007 C 
ATOM     23  C   UNL     1      90.450  91.056  73.698  1.00  0.00     0.007 C 
ENDBRANCH  20  21
ENDBRANCH  19  20
ENDBRANCH  18  19
ENDBRANCH  17  18
ENDBRANCH   1  17
TORSDOF 10
ENDMDL
MODEL 6
REMARK VINA RESULT:    -5.825      4.005      6.086
REMARK INTER + INTRA:          -9.680
REMARK INTER:                  -8.807
REMARK INTRA:                  -0.873
REMARK UNBOUND:                -0.620
REMARK SMILES COc1cc(CNC(=O)CCCCCC(C)C)ccc1O
REMARK SMILES IDX 10 1 8 2 7 3 9 5 6 6 5 7 3 8 20 9 4 10 19 11 18 12 2 13 1 14
REMARK SMILES IDX 21 15 11 17 12 18 13 19 14 20 15 21 16 22 17 23
REMARK H PARENT 7 4 21 16
REMARK Flexibility Score: inf
ROOT
ATOM      1  C   UNL     1      94.634  95.229  78.030  1.00  0.00     0.100 C 
ENDROOT
BRANCH   1   2
ATOM      2  C   UNL     1      94.954  96.653  77.803  1.00  0.00     0.220 C 
ATOM      3  N   UNL     1      95.291  97.072  76.550  1.00  0.00    -0.352 N 
ATOM      4  H   UNL     1      95.427  96.332  75.877  1.00  0.00     0.163 HD
ATOM      5  O   UNL     1      94.868  97.457  78.762  1.00  0.00    -0.275 OA
BRANCH   3   6
ATOM      6  C   UNL     1      95.454  98.435  76.156  1.00  0.00     0.151 C 
BRANCH   6   7
ATOM      7  C   UNL     1      94.791  98.752  74.862  1.00  0.00    -0.025 A 
ATOM      8  C   UNL     1      93.834 100.395  73.303  1.00  0.00     0.160 A 
ATOM      9  C   UNL     1      93.589  99.365  72.371  1.00  0.00     0.157 A 
ATOM     10  C   UNL     1      94.416 100.080  74.550  1.00  0.00     0.056 A 
ATOM     11  C   UNL     1      93.934  98.036  72.682  1.00  0.00     0.050 A 
ATOM     12  C   UNL     1      94.535  97.733  73.915  1.00  0.00     0.009 A 
BRANCH   8  13
ATOM     13  O   UNL     1      93.487 101.692  73.028  1.00  0.00    -0.493 OA
ATOM     14  C   UNL     1      94.089 102.656  73.913  1.00  0.00     0.278 C 
ENDBRANCH   8  13
BRANCH   9  15
ATOM     15  O   UNL     1      93.028  99.656  71.170  1.00  0.00    -0.504 OA
ATOM     16  H   UNL     1      93.382  99.068  70.500  1.00  0.00     0.293 HD
ENDBRANCH   9  15
ENDBRANCH   6   7
ENDBRANCH   3   6
ENDBRANCH   1   2
BRANCH   1  17
ATOM     17  C   UNL     1      93.115  94.923  78.126  1.00  0.00     0.010 C 
BRANCH  17  18
ATOM     18  C   UNL     1      92.441  94.924  76.725  1.00  0.00     0.001 C 
BRANCH  18  19
ATOM     19  C   UNL     1      91.031  95.572  76.720  1.00  0.00     0.000 C 
BRANCH  19  20
ATOM     20  C   UNL     1      89.926  94.573  76.269  1.00  0.00     0.003 C 
BRANCH  20  21
ATOM     21  C   UNL     1      90.424  93.115  76.002  1.00  0.00    -0.017 C 
ATOM     22  C   UNL     1      90.265  92.740  74.499  1.00  0.00     0.007 C 
ATOM     23  C   UNL     1      89.707  92.059  76.894  1.00  0.00     0.007 C 
ENDBRANCH  20  21
ENDBRANCH  19  20
ENDBRANCH  18  19
ENDBRANCH  17  18
ENDBRANCH   1  17
TORSDOF 10
ENDMDL
MODEL 7
REMARK VINA RESULT:    -5.814      4.748      7.807
REMARK INTER + INTRA:          -9.663
REMARK INTER:                  -9.037
REMARK INTRA:                  -0.626
REMARK UNBOUND:                -0.620
REMARK SMILES COc1cc(CNC(=O)CCCCCC(C)C)ccc1O
REMARK SMILES IDX 10 1 8 2 7 3 9 5 6 6 5 7 3 8 20 9 4 10 19 11 18 12 2 13 1 14
REMARK SMILES IDX 21 15 11 17 12 18 13 19 14 20 15 21 16 22 17 23
REMARK H PARENT 7 4 21 16
REMARK Flexibility Score: inf
ROOT
ATOM      1  C   UNL     1      95.005  99.546  74.590  1.00  0.00     0.100 C 
ENDROOT
BRANCH   1   2
ATOM      2  C   UNL     1      95.053  98.076  74.443  1.00  0.00     0.220 C 
ATOM      3  N   UNL     1      94.019  97.322  74.913  1.00  0.00    -0.352 N 
ATOM      4  H   UNL     1      93.338  97.829  75.459  1.00  0.00     0.163 HD
ATOM      5  O   UNL     1      96.028  97.555  73.848  1.00  0.00    -0.275 OA
BRANCH   3   6
ATOM      6  C   UNL     1      93.854  95.922  74.686  1.00  0.00     0.151 C 
BRANCH   6   7
ATOM      7  C   UNL     1      92.923  95.280  75.653  1.00  0.00    -0.025 A 
ATOM      8  C   UNL     1      91.045  93.761  76.117  1.00  0.00     0.160 A 
ATOM      9  C   UNL     1      91.193  94.004  77.499  1.00  0.00     0.157 A 
ATOM     10  C   UNL     1      91.898  94.414  75.202  1.00  0.00     0.056 A 
ATOM     11  C   UNL     1      92.192  94.884  77.957  1.00  0.00     0.050 A 
ATOM     12  C   UNL     1      93.054  95.512  77.042  1.00  0.00     0.009 A 
BRANCH   8  13
ATOM     13  O   UNL     1      90.067  92.924  75.650  1.00  0.00    -0.493 OA
ATOM     14  C   UNL     1      90.460  92.157  74.495  1.00  0.00     0.278 C 
ENDBRANCH   8  13
BRANCH   9  15
ATOM     15  O   UNL     1      90.377  93.383  78.387  1.00  0.00    -0.504 OA
ATOM     16  H   UNL     1      89.957  94.039  78.948  1.00  0.00     0.293 HD
ENDBRANCH   9  15
ENDBRANCH   6   7
ENDBRANCH   3   6
ENDBRANCH   1   2
BRANCH   1  17
ATOM     17  C   UNL     1      93.835 100.226  73.829  1.00  0.00     0.010 C 
BRANCH  17  18
ATOM     18  C   UNL     1      93.975 100.052  72.291  1.00  0.00     0.001 C 
BRANCH  18  19
ATOM     19  C   UNL     1      92.613  99.936  71.557  1.00  0.00     0.000 C 
BRANCH  19  20
ATOM     20  C   UNL     1      91.687 101.155  71.838  1.00  0.00     0.003 C 
BRANCH  20  21
ATOM     21  C   UNL     1      90.322 101.136  71.076  1.00  0.00    -0.017 C 
ATOM     22  C   UNL     1      89.151 101.528  72.024  1.00  0.00     0.007 C 
ATOM     23  C   UNL     1      90.026  99.766  70.399  1.00  0.00     0.007 C 
ENDBRANCH  20  21
ENDBRANCH  19  20
ENDBRANCH  18  19
ENDBRANCH  17  18
ENDBRANCH   1  17
TORSDOF 10
ENDMDL
MODEL 8
REMARK VINA RESULT:    -5.617      2.649      8.946
REMARK INTER + INTRA:          -9.356
REMARK INTER:                  -8.884
REMARK INTRA:                  -0.472
REMARK UNBOUND:                -0.620
REMARK SMILES COc1cc(CNC(=O)CCCCCC(C)C)ccc1O
REMARK SMILES IDX 10 1 8 2 7 3 9 5 6 6 5 7 3 8 20 9 4 10 19 11 18 12 2 13 1 14
REMARK SMILES IDX 21 15 11 17 12 18 13 19 14 20 15 21 16 22 17 23
REMARK H PARENT 7 4 21 16
REMARK Flexibility Score: inf
ROOT
ATOM      1  C   UNL     1      95.537  95.903  77.728  1.00  0.00     0.100 C 
ENDROOT
BRANCH   1   2
ATOM      2  C   UNL     1      94.445  95.493  76.821  1.00  0.00     0.220 C 
ATOM      3  N   UNL     1      93.300  96.231  76.775  1.00  0.00    -0.352 N 
ATOM      4  H   UNL     1      93.229  96.949  77.481  1.00  0.00     0.163 HD
ATOM      5  O   UNL     1      94.613  94.495  76.078  1.00  0.00    -0.275 OA
BRANCH   3   6
ATOM      6  C   UNL     1      92.245  96.053  75.830  1.00  0.00     0.151 C 
BRANCH   6   7
ATOM      7  C   UNL     1      91.413  94.850  76.101  1.00  0.00    -0.025 A 
ATOM      8  C   UNL     1      90.197  92.871  75.293  1.00  0.00     0.160 A 
ATOM      9  C   UNL     1      89.886  92.521  76.624  1.00  0.00     0.157 A 
ATOM     10  C   UNL     1      90.942  94.042  75.039  1.00  0.00     0.056 A 
ATOM     11  C   UNL     1      90.327  93.331  77.687  1.00  0.00     0.050 A 
ATOM     12  C   UNL     1      91.089  94.483  77.429  1.00  0.00     0.009 A 
BRANCH   8  13
ATOM     13  O   UNL     1      89.760  92.107  74.243  1.00  0.00    -0.493 OA
ATOM     14  C   UNL     1      90.653  91.031  73.895  1.00  0.00     0.278 C 
ENDBRANCH   8  13
BRANCH   9  15
ATOM     15  O   UNL     1      89.168  91.398  76.879  1.00  0.00    -0.504 OA
ATOM     16  H   UNL     1      88.574  91.224  76.145  1.00  0.00     0.293 HD
ENDBRANCH   9  15
ENDBRANCH   6   7
ENDBRANCH   3   6
ENDBRANCH   1   2
BRANCH   1  17
ATOM     17  C   UNL     1      95.247  95.647  79.232  1.00  0.00     0.010 C 
BRANCH  17  18
ATOM     18  C   UNL     1      96.209  96.455  80.146  1.00  0.00     0.001 C 
BRANCH  18  19
ATOM     19  C   UNL     1      96.125  97.989  79.924  1.00  0.00     0.000 C 
BRANCH  19  20
ATOM     20  C   UNL     1      97.064  98.774  80.886  1.00  0.00     0.003 C 
BRANCH  20  21
ATOM     21  C   UNL     1      96.429 100.047  81.534  1.00  0.00    -0.017 C 
ATOM     22  C   UNL     1      94.961  99.773  81.975  1.00  0.00     0.007 C 
ATOM     23  C   UNL     1      96.483 101.291  80.601  1.00  0.00     0.007 C 
ENDBRANCH  20  21
ENDBRANCH  19  20
ENDBRANCH  18  19
ENDBRANCH  17  18
ENDBRANCH   1  17
TORSDOF 10
ENDMDL
MODEL 9
REMARK VINA RESULT:    -5.561     17.067     20.158
REMARK INTER + INTRA:          -9.269
REMARK INTER:                  -8.673
REMARK INTRA:                  -0.596
REMARK UNBOUND:                -0.620
REMARK SMILES COc1cc(CNC(=O)CCCCCC(C)C)ccc1O
REMARK SMILES IDX 10 1 8 2 7 3 9 5 6 6 5 7 3 8 20 9 4 10 19 11 18 12 2 13 1 14
REMARK SMILES IDX 21 15 11 17 12 18 13 19 14 20 15 21 16 22 17 23
REMARK H PARENT 7 4 21 16
REMARK Flexibility Score: inf
ROOT
ATOM      1  C   UNL     1      91.459  74.363  81.763  1.00  0.00     0.100 C 
ENDROOT
BRANCH   1   2
ATOM      2  C   UNL     1      90.706  74.864  82.933  1.00  0.00     0.220 C 
ATOM      3  N   UNL     1      90.881  76.153  83.339  1.00  0.00    -0.352 N 
ATOM      4  H   UNL     1      91.631  76.647  82.876  1.00  0.00     0.163 HD
ATOM      5  O   UNL     1      89.889  74.101  83.503  1.00  0.00    -0.275 OA
BRANCH   3   6
ATOM      6  C   UNL     1      90.099  76.814  84.334  1.00  0.00     0.151 C 
BRANCH   6   7
ATOM      7  C   UNL     1      90.131  78.296  84.213  1.00  0.00    -0.025 A 
ATOM      8  C   UNL     1      88.953  80.441  83.965  1.00  0.00     0.160 A 
ATOM      9  C   UNL     1      90.185  81.124  84.050  1.00  0.00     0.157 A 
ATOM     10  C   UNL     1      88.936  79.031  84.029  1.00  0.00     0.056 A 
ATOM     11  C   UNL     1      91.382  80.402  84.207  1.00  0.00     0.050 A 
ATOM     12  C   UNL     1      91.355  78.999  84.293  1.00  0.00     0.009 A 
BRANCH   8  13
ATOM     13  O   UNL     1      87.778  81.125  83.793  1.00  0.00    -0.493 OA
ATOM     14  C   UNL     1      86.985  80.648  82.689  1.00  0.00     0.278 C 
ENDBRANCH   8  13
BRANCH   9  15
ATOM     15  O   UNL     1      90.213  82.479  83.988  1.00  0.00    -0.504 OA
ATOM     16  H   UNL     1      89.385  82.832  84.319  1.00  0.00     0.293 HD
ENDBRANCH   9  15
ENDBRANCH   6   7
ENDBRANCH   3   6
ENDBRANCH   1   2
BRANCH   1  17
ATOM     17  C   UNL     1      91.436  75.312  80.535  1.00  0.00     0.010 C 
BRANCH  17  18
ATOM     18  C   UNL     1      90.695  74.670  79.330  1.00  0.00     0.001 C 
BRANCH  18  19
ATOM     19  C   UNL     1      89.848  73.430  79.716  1.00  0.00     0.000 C 
BRANCH  19  20
ATOM     20  C   UNL     1      89.734  72.408  78.548  1.00  0.00     0.003 C 
BRANCH  20  21
ATOM     21  C   UNL     1      89.179  71.003  78.952  1.00  0.00    -0.017 C 
ATOM     22  C   UNL     1      88.274  70.419  77.827  1.00  0.00     0.007 C 
ATOM     23  C   UNL     1      88.406  71.024  80.303  1.00  0.00     0.007 C 
ENDBRANCH  20  21
ENDBRANCH  19  20
ENDBRANCH  18  19
ENDBRANCH  17  18
ENDBRANCH   1  17
TORSDOF 10
ENDMDL
MODEL 10
REMARK VINA RESULT:    -5.501     11.817     14.868
REMARK INTER + INTRA:          -9.176
REMARK INTER:                  -8.385
REMARK INTRA:                  -0.791
REMARK UNBOUND:                -0.620
REMARK SMILES COc1cc(CNC(=O)CCCCCC(C)C)ccc1O
REMARK SMILES IDX 10 1 8 2 7 3 9 5 6 6 5 7 3 8 20 9 4 10 19 11 18 12 2 13 1 14
REMARK SMILES IDX 21 15 11 17 12 18 13 19 14 20 15 21 16 22 17 23
REMARK H PARENT 7 4 21 16
REMARK Flexibility Score: inf
ROOT
ATOM      1  C   UNL     1      93.181  89.707  89.439  1.00  0.00     0.100 C 
ENDROOT
BRANCH   1   2
ATOM      2  C   UNL     1      92.600  88.387  89.117  1.00  0.00     0.220 C 
ATOM      3  N   UNL     1      93.377  87.443  88.514  1.00  0.00    -0.352 N 
ATOM      4  H   UNL     1      94.281  87.770  88.206  1.00  0.00     0.163 HD
ATOM      5  O   UNL     1      91.412  88.148  89.444  1.00  0.00    -0.275 OA
BRANCH   3   6
ATOM      6  C   UNL     1      93.001  86.081  88.305  1.00  0.00     0.151 C 
BRANCH   6   7
ATOM      7  C   UNL     1      93.584  85.498  87.067  1.00  0.00    -0.025 A 
ATOM      8  C   UNL     1      94.149  83.537  85.695  1.00  0.00     0.160 A 
ATOM      9  C   UNL     1      94.633  84.389  84.680  1.00  0.00     0.157 A 
ATOM     10  C   UNL     1      93.646  84.095  86.889  1.00  0.00     0.056 A 
ATOM     11  C   UNL     1      94.601  85.785  84.857  1.00  0.00     0.050 A 
ATOM     12  C   UNL     1      94.076  86.335  86.039  1.00  0.00     0.009 A 
BRANCH   8  13
ATOM     13  O   UNL     1      94.190  82.175  85.550  1.00  0.00    -0.493 OA
ATOM     14  C   UNL     1      92.899  81.575  85.328  1.00  0.00     0.278 C 
ENDBRANCH   8  13
BRANCH   9  15
ATOM     15  O   UNL     1      95.121  83.863  83.529  1.00  0.00    -0.504 OA
ATOM     16  H   UNL     1      96.063  84.037  83.471  1.00  0.00     0.293 HD
ENDBRANCH   9  15
ENDBRANCH   6   7
ENDBRANCH   3   6
ENDBRANCH   1   2
BRANCH   1  17
ATOM     17  C   UNL     1      94.323  90.152  88.486  1.00  0.00     0.010 C 
BRANCH  17  18
ATOM     18  C   UNL     1      94.188  91.648  88.090  1.00  0.00     0.001 C 
BRANCH  18  19
ATOM     19  C   UNL     1      94.848  92.616  89.107  1.00  0.00     0.000 C 
BRANCH  19  20
ATOM     20  C   UNL     1      93.913  93.801  89.483  1.00  0.00     0.003 C 
BRANCH  20  21
ATOM     21  C   UNL     1      93.167  93.646  90.849  1.00  0.00    -0.017 C 
ATOM     22  C   UNL     1      91.815  92.897  90.661  1.00  0.00     0.007 C 
ATOM     23  C   UNL     1      92.929  95.007  91.565  1.00  0.00     0.007 C 
ENDBRANCH  20  21
ENDBRANCH  19  20
ENDBRANCH  18  19
ENDBRANCH  17  18
ENDBRANCH   1  17
TORSDOF 10
ENDMDL
