MODEL 1
REMARK VINA RESULT:    -5.685      0.000      0.000
REMARK INTER + INTRA:         -10.080
REMARK INTER:                  -9.175
REMARK INTRA:                  -0.905
REMARK UNBOUND:                -0.905
REMARK SMILES CCCCCCCCC(=O)NCc1ccc(O)c(OC)c1
REMARK SMILES IDX 7 1 6 2 5 3 4 4 3 5 2 6 1 7 8 8 9 9 10 10 11 11 12 13 13 14
REMARK SMILES IDX 21 15 14 16 18 17 15 18 16 19 19 20 20 21 17 22
REMARK H PARENT 11 12 17 23
REMARK Flexibility Score: inf
ROOT
ATOM      1  C   UNL     1      74.918  81.741  64.363  1.00  0.00     0.010 C 
ENDROOT
BRANCH   1   2
ATOM      2  C   UNL     1      74.713  80.594  63.332  1.00  0.00     0.001 C 
BRANCH   2   3
ATOM      3  C   UNL     1      73.217  80.417  62.938  1.00  0.00     0.000 C 
BRANCH   3   4
ATOM      4  C   UNL     1      72.224  80.692  64.103  1.00  0.00    -0.000 C 
BRANCH   4   5
ATOM      5  C   UNL     1      71.236  81.851  63.788  1.00  0.00    -0.000 C 
BRANCH   5   6
ATOM      6  C   UNL     1      70.724  82.561  65.070  1.00  0.00    -0.003 C 
ATOM      7  C   UNL     1      71.552  82.206  66.325  1.00  0.00     0.004 C 
ENDBRANCH   5   6
ENDBRANCH   4   5
ENDBRANCH   3   4
ENDBRANCH   2   3
ENDBRANCH   1   2
BRANCH   1   8
ATOM      8  C   UNL     1      76.032  81.455  65.408  1.00  0.00     0.100 C 
BRANCH   8   9
ATOM      9  C   UNL     1      76.965  82.602  65.530  1.00  0.00     0.220 C 
ATOM     10  O   UNL     1      77.052  83.402  64.568  1.00  0.00    -0.275 OA
ATOM     11  N   UNL     1      77.686  82.791  66.674  1.00  0.00    -0.352 N 
ATOM     12  H   UNL     1      77.606  82.043  67.347  1.00  0.00     0.163 HD
BRANCH  11  13
ATOM     13  C   UNL     1      78.506  83.927  66.966  1.00  0.00     0.151 C 
BRANCH  13  14
ATOM     14  C   UNL     1      77.837  84.949  67.814  1.00  0.00    -0.025 A 
ATOM     15  C   UNL     1      77.012  84.551  68.893  1.00  0.00     0.056 A 
ATOM     16  C   UNL     1      78.008  86.329  67.558  1.00  0.00     0.009 A 
ATOM     17  C   UNL     1      76.384  85.512  69.718  1.00  0.00     0.160 A 
ATOM     18  C   UNL     1      77.386  87.290  68.376  1.00  0.00     0.050 A 
ATOM     19  C   UNL     1      76.569  86.887  69.450  1.00  0.00     0.157 A 
BRANCH  17  20
ATOM     20  O   UNL     1      75.551  85.124  70.737  1.00  0.00    -0.493 OA
ATOM     21  C   UNL     1      76.012  83.975  71.469  1.00  0.00     0.278 C 
ENDBRANCH  17  20
BRANCH  19  22
ATOM     22  O   UNL     1      75.951  87.822  70.216  1.00  0.00    -0.504 OA
ATOM     23  H   UNL     1      75.511  88.460  69.650  1.00  0.00     0.293 HD
ENDBRANCH  19  22
ENDBRANCH  13  14
ENDBRANCH  11  13
ENDBRANCH   8   9
ENDBRANCH   1   8
TORSDOF 11
ENDMDL
MODEL 2
REMARK VINA RESULT:    -5.525     25.227     27.997
REMARK INTER + INTRA:          -9.822
REMARK INTER:                  -8.917
REMARK INTRA:                  -0.905
REMARK UNBOUND:                -0.905
REMARK SMILES CCCCCCCCC(=O)NCc1ccc(O)c(OC)c1
REMARK SMILES IDX 7 1 6 2 5 3 4 4 3 5 2 6 1 7 8 8 9 9 10 10 11 11 12 13 13 14
REMARK SMILES IDX 21 15 14 16 18 17 15 18 16 19 19 20 20 21 17 22
REMARK H PARENT 11 12 17 23
REMARK Flexibility Score: inf
ROOT
ATOM      1  C   UNL     1      97.798  82.276  84.239  1.00  0.00     0.010 C 
ENDROOT
BRANCH   1   2
ATOM      2  C   UNL     1      97.341  83.732  83.937  1.00  0.00     0.001 C 
BRANCH   2   3
ATOM      3  C   UNL     1      96.439  84.313  85.065  1.00  0.00     0.000 C 
BRANCH   3   4
ATOM      4  C   UNL     1      96.412  83.445  86.355  1.00  0.00    -0.000 C 
BRANCH   4   5
ATOM      5  C   UNL     1      95.055  82.712  86.557  1.00  0.00    -0.000 C 
BRANCH   5   6
ATOM      6  C   UNL     1      95.156  81.542  87.572  1.00  0.00    -0.003 C 
ATOM      7  C   UNL     1      95.684  80.238  86.934  1.00  0.00     0.004 C 
ENDBRANCH   5   6
ENDBRANCH   4   5
ENDBRANCH   3   4
ENDBRANCH   2   3
ENDBRANCH   1   2
BRANCH   1   8
ATOM      8  C   UNL     1      99.333  82.125  84.431  1.00  0.00     0.100 C 
BRANCH   8   9
ATOM      9  C   UNL     1     100.002  81.753  83.161  1.00  0.00     0.220 C 
ATOM     10  O   UNL     1     100.479  80.598  83.056  1.00  0.00    -0.275 OA
ATOM     11  N   UNL     1     100.067  82.641  82.125  1.00  0.00    -0.352 N 
ATOM     12  H   UNL     1      99.730  83.566  82.347  1.00  0.00     0.163 HD
BRANCH  11  13
ATOM     13  C   UNL     1     100.556  82.357  80.811  1.00  0.00     0.151 C 
BRANCH  13  14
ATOM     14  C   UNL     1      99.632  82.773  79.722  1.00  0.00    -0.025 A 
ATOM     15  C   UNL     1     100.067  82.764  78.376  1.00  0.00     0.056 A 
ATOM     16  C   UNL     1      98.311  83.187  80.010  1.00  0.00     0.009 A 
ATOM     17  C   UNL     1      99.194  83.141  77.329  1.00  0.00     0.160 A 
ATOM     18  C   UNL     1      97.438  83.562  78.973  1.00  0.00     0.050 A 
ATOM     19  C   UNL     1      97.876  83.548  77.635  1.00  0.00     0.157 A 
BRANCH  17  20
ATOM     20  O   UNL     1      99.631  83.172  76.029  1.00  0.00    -0.493 OA
ATOM     21  C   UNL     1     100.441  84.316  75.706  1.00  0.00     0.278 C 
ENDBRANCH  17  20
BRANCH  19  22
ATOM     22  O   UNL     1      97.034  83.938  76.644  1.00  0.00    -0.504 OA
ATOM     23  H   UNL     1      96.312  83.310  76.572  1.00  0.00     0.293 HD
ENDBRANCH  19  22
ENDBRANCH  13  14
ENDBRANCH  11  13
ENDBRANCH   8   9
ENDBRANCH   1   8
TORSDOF 11
ENDMDL
MODEL 3
REMARK VINA RESULT:    -5.499     23.756     27.125
REMARK INTER + INTRA:          -9.779
REMARK INTER:                  -9.023
REMARK INTRA:                  -0.756
REMARK UNBOUND:                -0.905
REMARK SMILES CCCCCCCCC(=O)NCc1ccc(O)c(OC)c1
REMARK SMILES IDX 7 1 6 2 5 3 4 4 3 5 2 6 1 7 8 8 9 9 10 10 11 11 12 13 13 14
REMARK SMILES IDX 21 15 14 16 18 17 15 18 16 19 19 20 20 21 17 22
REMARK H PARENT 11 12 17 23
REMARK Flexibility Score: inf
ROOT
ATOM      1  C   UNL     1      94.785  94.568  78.441  1.00  0.00     0.010 C 
ENDROOT
BRANCH   1   2
ATOM      2  C   UNL     1      93.561  95.227  79.139  1.00  0.00     0.001 C 
BRANCH   2   3
ATOM      3  C   UNL     1      92.631  95.961  78.129  1.00  0.00     0.000 C 
BRANCH   3   4
ATOM      4  C   UNL     1      91.658  95.015  77.371  1.00  0.00    -0.000 C 
BRANCH   4   5
ATOM      5  C   UNL     1      90.166  95.410  77.563  1.00  0.00    -0.000 C 
BRANCH   5   6
ATOM      6  C   UNL     1      89.241  94.176  77.741  1.00  0.00    -0.003 C 
ATOM      7  C   UNL     1      89.841  93.107  78.681  1.00  0.00     0.004 C 
ENDBRANCH   5   6
ENDBRANCH   4   5
ENDBRANCH   3   4
ENDBRANCH   2   3
ENDBRANCH   1   2
BRANCH   1   8
ATOM      8  C   UNL     1      95.473  93.462  79.290  1.00  0.00     0.100 C 
BRANCH   8   9
ATOM      9  C   UNL     1      95.451  93.797  80.734  1.00  0.00     0.220 C 
ATOM     10  O   UNL     1      94.701  93.132  81.488  1.00  0.00    -0.275 OA
ATOM     11  N   UNL     1      96.251  94.787  81.228  1.00  0.00    -0.352 N 
ATOM     12  H   UNL     1      96.747  95.314  80.524  1.00  0.00     0.163 HD
BRANCH  11  13
ATOM     13  C   UNL     1      96.425  95.108  82.612  1.00  0.00     0.151 C 
BRANCH  13  14
ATOM     14  C   UNL     1      96.146  96.533  82.938  1.00  0.00    -0.025 A 
ATOM     15  C   UNL     1      96.839  97.170  83.994  1.00  0.00     0.056 A 
ATOM     16  C   UNL     1      95.187  97.271  82.207  1.00  0.00     0.009 A 
ATOM     17  C   UNL     1      96.597  98.528  84.305  1.00  0.00     0.160 A 
ATOM     18  C   UNL     1      94.942  98.622  82.510  1.00  0.00     0.050 A 
ATOM     19  C   UNL     1      95.638  99.252  83.561  1.00  0.00     0.157 A 
BRANCH  17  20
ATOM     20  O   UNL     1      97.239  99.133  85.356  1.00  0.00    -0.493 OA
ATOM     21  C   UNL     1      98.617  99.457  85.097  1.00  0.00     0.278 C 
ENDBRANCH  17  20
BRANCH  19  22
ATOM     22  O   UNL     1      95.375 100.549  83.863  1.00  0.00    -0.504 OA
ATOM     23  H   UNL     1      95.355 100.657  84.817  1.00  0.00     0.293 HD
ENDBRANCH  19  22
ENDBRANCH  13  14
ENDBRANCH  11  13
ENDBRANCH   8   9
ENDBRANCH   1   8
TORSDOF 11
ENDMDL
MODEL 4
REMARK VINA RESULT:    -5.479      1.254      2.307
REMARK INTER + INTRA:          -9.747
REMARK INTER:                  -8.896
REMARK INTRA:                  -0.851
REMARK UNBOUND:                -0.905
REMARK SMILES CCCCCCCCC(=O)NCc1ccc(O)c(OC)c1
REMARK SMILES IDX 7 1 6 2 5 3 4 4 3 5 2 6 1 7 8 8 9 9 10 10 11 11 12 13 13 14
REMARK SMILES IDX 21 15 14 16 18 17 15 18 16 19 19 20 20 21 17 22
REMARK H PARENT 11 12 17 23
REMARK Flexibility Score: inf
ROOT
ATOM      1  C   UNL     1      74.794  81.715  64.658  1.00  0.00     0.010 C 
ENDROOT
BRANCH   1   2
ATOM      2  C   UNL     1      74.765  80.896  63.336  1.00  0.00     0.001 C 
BRANCH   2   3
ATOM      3  C   UNL     1      73.327  80.429  62.963  1.00  0.00     0.000 C 
BRANCH   3   4
ATOM      4  C   UNL     1      72.354  80.367  64.175  1.00  0.00    -0.000 C 
BRANCH   4   5
ATOM      5  C   UNL     1      71.289  81.500  64.149  1.00  0.00    -0.000 C 
BRANCH   5   6
ATOM      6  C   UNL     1      71.465  82.455  62.938  1.00  0.00    -0.003 C 
ATOM      7  C   UNL     1      71.505  83.943  63.348  1.00  0.00     0.004 C 
ENDBRANCH   5   6
ENDBRANCH   4   5
ENDBRANCH   3   4
ENDBRANCH   2   3
ENDBRANCH   1   2
BRANCH   1   8
ATOM      8  C   UNL     1      76.052  81.453  65.533  1.00  0.00     0.100 C 
BRANCH   8   9
ATOM      9  C   UNL     1      76.996  82.595  65.476  1.00  0.00     0.220 C 
ATOM     10  O   UNL     1      77.032  83.287  64.430  1.00  0.00    -0.275 OA
ATOM     11  N   UNL     1      77.782  82.900  66.550  1.00  0.00    -0.352 N 
ATOM     12  H   UNL     1      77.737  82.230  67.304  1.00  0.00     0.163 HD
BRANCH  11  13
ATOM     13  C   UNL     1      78.623  84.051  66.671  1.00  0.00     0.151 C 
BRANCH  13  14
ATOM     14  C   UNL     1      78.046  85.131  67.515  1.00  0.00    -0.025 A 
ATOM     15  C   UNL     1      77.564  86.321  66.918  1.00  0.00     0.056 A 
ATOM     16  C   UNL     1      77.972  84.994  68.921  1.00  0.00     0.009 A 
ATOM     17  C   UNL     1      76.997  87.349  67.706  1.00  0.00     0.160 A 
ATOM     18  C   UNL     1      77.408  86.013  69.710  1.00  0.00     0.050 A 
ATOM     19  C   UNL     1      76.928  87.192  69.109  1.00  0.00     0.157 A 
BRANCH  17  20
ATOM     20  O   UNL     1      76.569  88.519  67.130  1.00  0.00    -0.493 OA
ATOM     21  C   UNL     1      75.296  88.417  66.469  1.00  0.00     0.278 C 
ENDBRANCH  17  20
BRANCH  19  22
ATOM     22  O   UNL     1      76.410  88.181  69.882  1.00  0.00    -0.504 OA
ATOM     23  H   UNL     1      76.935  88.270  70.681  1.00  0.00     0.293 HD
ENDBRANCH  19  22
ENDBRANCH  13  14
ENDBRANCH  11  13
ENDBRANCH   8   9
ENDBRANCH   1   8
TORSDOF 11
ENDMDL
MODEL 5
REMARK VINA RESULT:    -5.456     20.248     23.533
REMARK INTER + INTRA:          -9.710
REMARK INTER:                  -8.886
REMARK INTRA:                  -0.824
REMARK UNBOUND:                -0.905
REMARK SMILES CCCCCCCCC(=O)NCc1ccc(O)c(OC)c1
REMARK SMILES IDX 7 1 6 2 5 3 4 4 3 5 2 6 1 7 8 8 9 9 10 10 11 11 12 13 13 14
REMARK SMILES IDX 21 15 14 16 18 17 15 18 16 19 19 20 20 21 17 22
REMARK H PARENT 11 12 17 23
REMARK Flexibility Score: inf
ROOT
ATOM      1  C   UNL     1      89.580  97.481  70.982  1.00  0.00     0.010 C 
ENDROOT
BRANCH   1   2
ATOM      2  C   UNL     1      89.798  97.018  69.513  1.00  0.00     0.001 C 
BRANCH   2   3
ATOM      3  C   UNL     1      88.647  97.480  68.572  1.00  0.00     0.000 C 
BRANCH   3   4
ATOM      4  C   UNL     1      89.073  98.570  67.548  1.00  0.00    -0.000 C 
BRANCH   4   5
ATOM      5  C   UNL     1      88.444  99.959  67.853  1.00  0.00    -0.000 C 
BRANCH   5   6
ATOM      6  C   UNL     1      89.436 101.128  67.611  1.00  0.00    -0.003 C 
ATOM      7  C   UNL     1      88.811 102.513  67.888  1.00  0.00     0.004 C 
ENDBRANCH   5   6
ENDBRANCH   4   5
ENDBRANCH   3   4
ENDBRANCH   2   3
ENDBRANCH   1   2
BRANCH   1   8
ATOM      8  C   UNL     1      88.917  98.881  71.109  1.00  0.00     0.100 C 
BRANCH   8   9
ATOM      9  C   UNL     1      89.916  99.922  71.451  1.00  0.00     0.220 C 
ATOM     10  O   UNL     1      89.654 101.115  71.166  1.00  0.00    -0.275 OA
ATOM     11  N   UNL     1      91.077  99.587  72.088  1.00  0.00    -0.352 N 
ATOM     12  H   UNL     1      91.225  98.594  72.191  1.00  0.00     0.163 HD
BRANCH  11  13
ATOM     13  C   UNL     1      92.048 100.508  72.594  1.00  0.00     0.151 C 
BRANCH  13  14
ATOM     14  C   UNL     1      93.094  99.874  73.440  1.00  0.00    -0.025 A 
ATOM     15  C   UNL     1      94.435  99.817  72.991  1.00  0.00     0.056 A 
ATOM     16  C   UNL     1      92.771  99.316  74.699  1.00  0.00     0.009 A 
ATOM     17  C   UNL     1      95.443  99.233  73.792  1.00  0.00     0.160 A 
ATOM     18  C   UNL     1      93.770  98.735  75.501  1.00  0.00     0.050 A 
ATOM     19  C   UNL     1      95.103  98.684  75.049  1.00  0.00     0.157 A 
BRANCH  17  20
ATOM     20  O   UNL     1      96.735  99.141  73.337  1.00  0.00    -0.493 OA
ATOM     21  C   UNL     1      96.848  98.703  71.972  1.00  0.00     0.278 C 
ENDBRANCH  17  20
BRANCH  19  22
ATOM     22  O   UNL     1      96.054  98.096  75.818  1.00  0.00    -0.504 OA
ATOM     23  H   UNL     1      96.178  97.187  75.535  1.00  0.00     0.293 HD
ENDBRANCH  19  22
ENDBRANCH  13  14
ENDBRANCH  11  13
ENDBRANCH   8   9
ENDBRANCH   1   8
TORSDOF 11
ENDMDL
MODEL 6
REMARK VINA RESULT:    -5.388     11.241     13.831
REMARK INTER + INTRA:          -9.601
REMARK INTER:                  -8.708
REMARK INTRA:                  -0.892
REMARK UNBOUND:                -0.905
REMARK SMILES CCCCCCCCC(=O)NCc1ccc(O)c(OC)c1
REMARK SMILES IDX 7 1 6 2 5 3 4 4 3 5 2 6 1 7 8 8 9 9 10 10 11 11 12 13 13 14
REMARK SMILES IDX 21 15 14 16 18 17 15 18 16 19 19 20 20 21 17 22
REMARK H PARENT 11 12 17 23
REMARK Flexibility Score: inf
ROOT
ATOM      1  C   UNL     1      62.571  81.283  73.689  1.00  0.00     0.010 C 
ENDROOT
BRANCH   1   2
ATOM      2  C   UNL     1      63.749  81.572  72.715  1.00  0.00     0.001 C 
BRANCH   2   3
ATOM      3  C   UNL     1      63.253  81.964  71.292  1.00  0.00     0.000 C 
BRANCH   3   4
ATOM      4  C   UNL     1      64.378  81.979  70.218  1.00  0.00    -0.000 C 
BRANCH   4   5
ATOM      5  C   UNL     1      65.801  81.889  70.839  1.00  0.00    -0.000 C 
BRANCH   5   6
ATOM      6  C   UNL     1      66.556  83.245  70.799  1.00  0.00    -0.003 C 
ATOM      7  C   UNL     1      67.999  83.113  70.264  1.00  0.00     0.004 C 
ENDBRANCH   5   6
ENDBRANCH   4   5
ENDBRANCH   3   4
ENDBRANCH   2   3
ENDBRANCH   1   2
BRANCH   1   8
ATOM      8  C   UNL     1      61.527  82.432  73.774  1.00  0.00     0.100 C 
BRANCH   8   9
ATOM      9  C   UNL     1      61.875  83.400  74.842  1.00  0.00     0.220 C 
ATOM     10  O   UNL     1      61.296  84.513  74.849  1.00  0.00    -0.275 OA
ATOM     11  N   UNL     1      62.781  83.069  75.809  1.00  0.00    -0.352 N 
ATOM     12  H   UNL     1      63.248  82.187  75.660  1.00  0.00     0.163 HD
BRANCH  11  13
ATOM     13  C   UNL     1      63.094  83.854  76.964  1.00  0.00     0.151 C 
BRANCH  13  14
ATOM     14  C   UNL     1      64.533  84.209  77.078  1.00  0.00    -0.025 A 
ATOM     15  C   UNL     1      65.261  84.608  75.932  1.00  0.00     0.056 A 
ATOM     16  C   UNL     1      65.200  84.152  78.324  1.00  0.00     0.009 A 
ATOM     17  C   UNL     1      66.626  84.966  76.027  1.00  0.00     0.160 A 
ATOM     18  C   UNL     1      66.557  84.507  78.426  1.00  0.00     0.050 A 
ATOM     19  C   UNL     1      67.274  84.906  77.282  1.00  0.00     0.157 A 
BRANCH  17  20
ATOM     20  O   UNL     1      67.340  85.312  74.908  1.00  0.00    -0.493 OA
ATOM     21  C   UNL     1      66.545  85.428  73.715  1.00  0.00     0.278 C 
ENDBRANCH  17  20
BRANCH  19  22
ATOM     22  O   UNL     1      68.591  85.221  77.386  1.00  0.00    -0.504 OA
ATOM     23  H   UNL     1      68.716  86.149  77.173  1.00  0.00     0.293 HD
ENDBRANCH  19  22
ENDBRANCH  13  14
ENDBRANCH  11  13
ENDBRANCH   8   9
ENDBRANCH   1   8
TORSDOF 11
ENDMDL
MODEL 7
REMARK VINA RESULT:    -5.358     23.541     26.226
REMARK INTER + INTRA:          -9.553
REMARK INTER:                  -8.344
REMARK INTRA:                  -1.208
REMARK UNBOUND:                -0.905
REMARK SMILES CCCCCCCCC(=O)NCc1ccc(O)c(OC)c1
REMARK SMILES IDX 7 1 6 2 5 3 4 4 3 5 2 6 1 7 8 8 9 9 10 10 11 11 12 13 13 14
REMARK SMILES IDX 21 15 14 16 18 17 15 18 16 19 19 20 20 21 17 22
REMARK H PARENT 11 12 17 23
REMARK Flexibility Score: inf
ROOT
ATOM      1  C   UNL     1      94.688  94.116  79.327  1.00  0.00     0.010 C 
ENDROOT
BRANCH   1   2
ATOM      2  C   UNL     1      95.540  93.664  80.548  1.00  0.00     0.001 C 
BRANCH   2   3
ATOM      3  C   UNL     1      95.609  94.756  81.656  1.00  0.00     0.000 C 
BRANCH   3   4
ATOM      4  C   UNL     1      96.982  95.480  81.738  1.00  0.00    -0.000 C 
BRANCH   4   5
ATOM      5  C   UNL     1      97.391  96.146  80.393  1.00  0.00    -0.000 C 
BRANCH   5   6
ATOM      6  C   UNL     1      96.649  97.487  80.142  1.00  0.00    -0.003 C 
ATOM      7  C   UNL     1      95.969  97.546  78.756  1.00  0.00     0.004 C 
ENDBRANCH   5   6
ENDBRANCH   4   5
ENDBRANCH   3   4
ENDBRANCH   2   3
ENDBRANCH   1   2
BRANCH   1   8
ATOM      8  C   UNL     1      93.155  93.974  79.542  1.00  0.00     0.100 C 
BRANCH   8   9
ATOM      9  C   UNL     1      92.394  94.718  78.509  1.00  0.00     0.220 C 
ATOM     10  O   UNL     1      91.142  94.648  78.527  1.00  0.00    -0.275 OA
ATOM     11  N   UNL     1      93.045  95.482  77.583  1.00  0.00    -0.352 N 
ATOM     12  H   UNL     1      94.051  95.398  77.605  1.00  0.00     0.163 HD
BRANCH  11  13
ATOM     13  C   UNL     1      92.424  96.352  76.632  1.00  0.00     0.151 C 
BRANCH  13  14
ATOM     14  C   UNL     1      93.389  97.105  75.787  1.00  0.00    -0.025 A 
ATOM     15  C   UNL     1      93.055  98.391  75.297  1.00  0.00     0.056 A 
ATOM     16  C   UNL     1      94.649  96.556  75.456  1.00  0.00     0.009 A 
ATOM     17  C   UNL     1      93.968  99.126  74.508  1.00  0.00     0.160 A 
ATOM     18  C   UNL     1      95.563  97.283  74.672  1.00  0.00     0.050 A 
ATOM     19  C   UNL     1      95.224  98.562  74.190  1.00  0.00     0.157 A 
BRANCH  17  20
ATOM     20  O   UNL     1      93.626 100.354  73.999  1.00  0.00    -0.493 OA
ATOM     21  C   UNL     1      93.577 101.405  74.980  1.00  0.00     0.278 C 
ENDBRANCH  17  20
BRANCH  19  22
ATOM     22  O   UNL     1      96.102  99.244  73.411  1.00  0.00    -0.504 OA
ATOM     23  H   UNL     1      96.409 100.023  73.881  1.00  0.00     0.293 HD
ENDBRANCH  19  22
ENDBRANCH  13  14
ENDBRANCH  11  13
ENDBRANCH   8   9
ENDBRANCH   1   8
TORSDOF 11
ENDMDL
MODEL 8
REMARK VINA RESULT:    -5.305      2.559      7.275
REMARK INTER + INTRA:          -9.466
REMARK INTER:                  -8.432
REMARK INTRA:                  -1.034
REMARK UNBOUND:                -0.905
REMARK SMILES CCCCCCCCC(=O)NCc1ccc(O)c(OC)c1
REMARK SMILES IDX 7 1 6 2 5 3 4 4 3 5 2 6 1 7 8 8 9 9 10 10 11 11 12 13 13 14
REMARK SMILES IDX 21 15 14 16 18 17 15 18 16 19 19 20 20 21 17 22
REMARK H PARENT 11 12 17 23
REMARK Flexibility Score: inf
ROOT
ATOM      1  C   UNL     1      76.852  85.177  65.283  1.00  0.00     0.010 C 
ENDROOT
BRANCH   1   2
ATOM      2  C   UNL     1      76.361  86.022  66.494  1.00  0.00     0.001 C 
BRANCH   2   3
ATOM      3  C   UNL     1      77.351  87.170  66.851  1.00  0.00     0.000 C 
BRANCH   3   4
ATOM      4  C   UNL     1      78.298  86.835  68.037  1.00  0.00    -0.000 C 
BRANCH   4   5
ATOM      5  C   UNL     1      77.554  86.772  69.401  1.00  0.00    -0.000 C 
BRANCH   5   6
ATOM      6  C   UNL     1      77.675  85.383  70.083  1.00  0.00    -0.003 C 
ATOM      7  C   UNL     1      76.303  84.728  70.359  1.00  0.00     0.004 C 
ENDBRANCH   5   6
ENDBRANCH   4   5
ENDBRANCH   3   4
ENDBRANCH   2   3
ENDBRANCH   1   2
BRANCH   1   8
ATOM      8  C   UNL     1      77.816  84.021  65.671  1.00  0.00     0.100 C 
BRANCH   8   9
ATOM      9  C   UNL     1      77.266  82.703  65.271  1.00  0.00     0.220 C 
ATOM     10  O   UNL     1      77.471  81.720  66.022  1.00  0.00    -0.275 OA
ATOM     11  N   UNL     1      76.533  82.576  64.126  1.00  0.00    -0.352 N 
ATOM     12  H   UNL     1      76.504  83.408  63.554  1.00  0.00     0.163 HD
BRANCH  11  13
ATOM     13  C   UNL     1      75.836  81.399  63.706  1.00  0.00     0.151 C 
BRANCH  13  14
ATOM     14  C   UNL     1      74.356  81.545  63.705  1.00  0.00    -0.025 A 
ATOM     15  C   UNL     1      73.763  82.797  63.998  1.00  0.00     0.056 A 
ATOM     16  C   UNL     1      73.517  80.444  63.418  1.00  0.00     0.009 A 
ATOM     17  C   UNL     1      72.358  82.955  63.984  1.00  0.00     0.160 A 
ATOM     18  C   UNL     1      72.119  80.594  63.402  1.00  0.00     0.050 A 
ATOM     19  C   UNL     1      71.536  81.843  63.691  1.00  0.00     0.157 A 
BRANCH  17  20
ATOM     20  O   UNL     1      71.785  84.158  64.309  1.00  0.00    -0.493 OA
ATOM     21  C   UNL     1      72.722  85.242  64.437  1.00  0.00     0.278 C 
ENDBRANCH  17  20
BRANCH  19  22
ATOM     22  O   UNL     1      70.185  81.972  63.700  1.00  0.00    -0.504 OA
ATOM     23  H   UNL     1      69.866  82.056  62.798  1.00  0.00     0.293 HD
ENDBRANCH  19  22
ENDBRANCH  13  14
ENDBRANCH  11  13
ENDBRANCH   8   9
ENDBRANCH   1   8
TORSDOF 11
ENDMDL
MODEL 9
REMARK VINA RESULT:    -5.273     12.605     15.313
REMARK INTER + INTRA:          -9.415
REMARK INTER:                  -8.280
REMARK INTRA:                  -1.135
REMARK UNBOUND:                -0.905
REMARK SMILES CCCCCCCCC(=O)NCc1ccc(O)c(OC)c1
REMARK SMILES IDX 7 1 6 2 5 3 4 4 3 5 2 6 1 7 8 8 9 9 10 10 11 11 12 13 13 14
REMARK SMILES IDX 21 15 14 16 18 17 15 18 16 19 19 20 20 21 17 22
REMARK H PARENT 11 12 17 23
REMARK Flexibility Score: inf
ROOT
ATOM      1  C   UNL     1      61.391  85.451  69.727  1.00  0.00     0.010 C 
ENDROOT
BRANCH   1   2
ATOM      2  C   UNL     1      62.591  84.461  69.673  1.00  0.00     0.001 C 
BRANCH   2   3
ATOM      3  C   UNL     1      62.242  83.154  68.902  1.00  0.00     0.000 C 
BRANCH   3   4
ATOM      4  C   UNL     1      63.018  81.904  69.405  1.00  0.00    -0.000 C 
BRANCH   4   5
ATOM      5  C   UNL     1      64.556  82.128  69.444  1.00  0.00    -0.000 C 
BRANCH   5   6
ATOM      6  C   UNL     1      65.186  81.701  70.797  1.00  0.00    -0.003 C 
ATOM      7  C   UNL     1      64.153  81.623  71.943  1.00  0.00     0.004 C 
ENDBRANCH   5   6
ENDBRANCH   4   5
ENDBRANCH   3   4
ENDBRANCH   2   3
ENDBRANCH   1   2
BRANCH   1   8
ATOM      8  C   UNL     1      60.012  84.758  69.909  1.00  0.00     0.100 C 
BRANCH   8   9
ATOM      9  C   UNL     1      59.570  84.796  71.324  1.00  0.00     0.220 C 
ATOM     10  O   UNL     1      58.485  84.243  71.624  1.00  0.00    -0.275 OA
ATOM     11  N   UNL     1      60.343  85.396  72.276  1.00  0.00    -0.352 N 
ATOM     12  H   UNL     1      61.150  85.883  71.913  1.00  0.00     0.163 HD
BRANCH  11  13
ATOM     13  C   UNL     1      60.098  85.376  73.686  1.00  0.00     0.151 C 
BRANCH  13  14
ATOM     14  C   UNL     1      61.215  84.803  74.483  1.00  0.00    -0.025 A 
ATOM     15  C   UNL     1      61.951  85.624  75.371  1.00  0.00     0.056 A 
ATOM     16  C   UNL     1      61.565  83.438  74.366  1.00  0.00     0.009 A 
ATOM     17  C   UNL     1      63.004  85.089  76.148  1.00  0.00     0.160 A 
ATOM     18  C   UNL     1      62.611  82.900  75.137  1.00  0.00     0.050 A 
ATOM     19  C   UNL     1      63.337  83.721  76.021  1.00  0.00     0.157 A 
BRANCH  17  20
ATOM     20  O   UNL     1      63.743  85.895  76.977  1.00  0.00    -0.493 OA
ATOM     21  C   UNL     1      63.126  86.153  78.251  1.00  0.00     0.278 C 
ENDBRANCH  17  20
BRANCH  19  22
ATOM     22  O   UNL     1      64.363  83.199  76.741  1.00  0.00    -0.504 OA
ATOM     23  H   UNL     1      65.172  83.246  76.225  1.00  0.00     0.293 HD
ENDBRANCH  19  22
ENDBRANCH  13  14
ENDBRANCH  11  13
ENDBRANCH   8   9
ENDBRANCH   1   8
TORSDOF 11
ENDMDL
MODEL 10
REMARK VINA RESULT:    -5.247      1.630      2.287
REMARK INTER + INTRA:          -9.373
REMARK INTER:                  -8.454
REMARK INTRA:                  -0.919
REMARK UNBOUND:                -0.905
REMARK SMILES CCCCCCCCC(=O)NCc1ccc(O)c(OC)c1
REMARK SMILES IDX 7 1 6 2 5 3 4 4 3 5 2 6 1 7 8 8 9 9 10 10 11 11 12 13 13 14
REMARK SMILES IDX 21 15 14 16 18 17 15 18 16 19 19 20 20 21 17 22
REMARK H PARENT 11 12 17 23
REMARK Flexibility Score: inf
ROOT
ATOM      1  C   UNL     1      75.057  81.437  66.195  1.00  0.00     0.010 C 
ENDROOT
BRANCH   1   2
ATOM      2  C   UNL     1      74.034  82.604  66.095  1.00  0.00     0.001 C 
BRANCH   2   3
ATOM      3  C   UNL     1      72.561  82.104  66.161  1.00  0.00     0.000 C 
BRANCH   3   4
ATOM      4  C   UNL     1      71.558  83.173  66.680  1.00  0.00    -0.000 C 
BRANCH   4   5
ATOM      5  C   UNL     1      70.209  82.554  67.145  1.00  0.00    -0.000 C 
BRANCH   5   6
ATOM      6  C   UNL     1      69.895  82.860  68.635  1.00  0.00    -0.003 C 
ATOM      7  C   UNL     1      69.316  84.276  68.847  1.00  0.00     0.004 C 
ENDBRANCH   5   6
ENDBRANCH   4   5
ENDBRANCH   3   4
ENDBRANCH   2   3
ENDBRANCH   1   2
BRANCH   1   8
ATOM      8  C   UNL     1      76.204  81.513  65.149  1.00  0.00     0.100 C 
BRANCH   8   9
ATOM      9  C   UNL     1      77.049  82.713  65.361  1.00  0.00     0.220 C 
ATOM     10  O   UNL     1      77.109  83.568  64.445  1.00  0.00    -0.275 OA
ATOM     11  N   UNL     1      77.719  82.891  66.538  1.00  0.00    -0.352 N 
ATOM     12  H   UNL     1      77.671  82.104  67.168  1.00  0.00     0.163 HD
BRANCH  11  13
ATOM     13  C   UNL     1      78.447  84.064  66.916  1.00  0.00     0.151 C 
BRANCH  13  14
ATOM     14  C   UNL     1      77.723  84.936  67.879  1.00  0.00    -0.025 A 
ATOM     15  C   UNL     1      76.393  84.632  68.255  1.00  0.00     0.056 A 
ATOM     16  C   UNL     1      78.344  86.080  68.431  1.00  0.00     0.009 A 
ATOM     17  C   UNL     1      75.698  85.442  69.183  1.00  0.00     0.160 A 
ATOM     18  C   UNL     1      77.659  86.890  69.355  1.00  0.00     0.050 A 
ATOM     19  C   UNL     1      76.336  86.580  69.727  1.00  0.00     0.157 A 
BRANCH  17  20
ATOM     20  O   UNL     1      74.395  85.170  69.514  1.00  0.00    -0.493 OA
ATOM     21  C   UNL     1      73.433  85.633  68.549  1.00  0.00     0.278 C 
ENDBRANCH  17  20
BRANCH  19  22
ATOM     22  O   UNL     1      75.674  87.383  70.598  1.00  0.00    -0.504 OA
ATOM     23  H   UNL     1      76.155  88.207  70.702  1.00  0.00     0.293 HD
ENDBRANCH  19  22
ENDBRANCH  13  14
ENDBRANCH  11  13
ENDBRANCH   8   9
ENDBRANCH   1   8
TORSDOF 11
ENDMDL
