MODEL 1
REMARK VINA RESULT:    -5.649      0.000      0.000
REMARK INTER + INTRA:         -10.771
REMARK INTER:                  -9.447
REMARK INTRA:                  -1.324
REMARK UNBOUND:                -1.324
REMARK SMILES COc1cc(CNC(=O)CCCCCCCC(C)C)ccc1O
REMARK SMILES IDX 11 1 10 2 8 3 9 4 7 5 6 7 5 8 4 9 20 10 3 11 21 12 22 13
REMARK SMILES IDX 2 14 1 15 23 16 12 18 13 19 14 20 15 21 16 22 17 23 18 24
REMARK SMILES IDX 19 25
REMARK H PARENT 7 6 23 17
REMARK Flexibility Score: inf
ROOT
ATOM      1  C   UNL     1      76.508  85.737  64.384  1.00  0.00     0.010 C 
ENDROOT
BRANCH   1   2
ATOM      2  C   UNL     1      77.450  84.550  64.577  1.00  0.00     0.100 C 
BRANCH   2   3
ATOM      3  C   UNL     1      76.793  83.226  64.224  1.00  0.00     0.220 C 
ATOM      4  O   UNL     1      76.737  82.786  63.079  1.00  0.00    -0.275 OA
ATOM      5  N   UNL     1      76.269  82.602  65.346  1.00  0.00    -0.352 N 
ATOM      6  H   UNL     1      76.353  83.049  66.255  1.00  0.00     0.163 HD
BRANCH   5   7
ATOM      7  C   UNL     1      75.582  81.332  65.287  1.00  0.00     0.151 C 
BRANCH   7   8
ATOM      8  C   UNL     1      74.157  81.484  64.842  1.00  0.00    -0.025 A 
ATOM      9  C   UNL     1      73.284  82.269  65.587  1.00  0.00     0.056 A 
ATOM     10  C   UNL     1      73.723  80.839  63.690  1.00  0.00     0.009 A 
ATOM     11  C   UNL     1      71.960  82.411  65.174  1.00  0.00     0.160 A 
ATOM     12  C   UNL     1      72.398  80.980  63.278  1.00  0.00     0.050 A 
ATOM     13  C   UNL     1      71.516  81.766  64.019  1.00  0.00     0.157 A 
BRANCH  11  14
ATOM     14  O   UNL     1      71.107  83.181  65.907  1.00  0.00    -0.493 OA
ATOM     15  C   UNL     1      70.535  82.585  67.071  1.00  0.00     0.278 C 
ENDBRANCH  11  14
BRANCH  13  16
ATOM     16  O   UNL     1      70.225  81.897  63.605  1.00  0.00    -0.504 OA
ATOM     17  H   UNL     1      70.023  81.188  62.970  1.00  0.00     0.293 HD
ENDBRANCH  13  16
ENDBRANCH   7   8
ENDBRANCH   5   7
ENDBRANCH   2   3
ENDBRANCH   1   2
BRANCH   1  18
ATOM     18  C   UNL     1      76.956  86.998  65.128  1.00  0.00     0.001 C 
BRANCH  18  19
ATOM     19  C   UNL     1      76.681  87.014  66.635  1.00  0.00     0.000 C 
BRANCH  19  20
ATOM     20  C   UNL     1      77.951  87.150  67.480  1.00  0.00     0.000 C 
BRANCH  20  21
ATOM     21  C   UNL     1      78.341  85.859  68.208  1.00  0.00     0.000 C 
BRANCH  21  22
ATOM     22  C   UNL     1      77.703  85.729  69.595  1.00  0.00     0.003 C 
BRANCH  22  23
ATOM     23  C   UNL     1      77.060  84.352  69.849  1.00  0.00    -0.017 C 
ATOM     24  C   UNL     1      76.222  83.941  68.636  1.00  0.00     0.007 C 
ATOM     25  C   UNL     1      76.189  84.334  71.106  1.00  0.00     0.007 C 
ENDBRANCH  22  23
ENDBRANCH  21  22
ENDBRANCH  20  21
ENDBRANCH  19  20
ENDBRANCH  18  19
ENDBRANCH   1  18
TORSDOF 12
ENDMDL
MODEL 2
REMARK VINA RESULT:    -5.526     25.770     28.101
REMARK INTER + INTRA:         -10.564
REMARK INTER:                  -9.879
REMARK INTRA:                  -0.685
REMARK UNBOUND:                -1.324
REMARK SMILES COc1cc(CNC(=O)CCCCCCCC(C)C)ccc1O
REMARK SMILES IDX 11 1 10 2 8 3 9 4 7 5 6 7 5 8 4 9 20 10 3 11 21 12 22 13
REMARK SMILES IDX 2 14 1 15 23 16 12 18 13 19 14 20 15 21 16 22 17 23 18 24
REMARK SMILES IDX 19 25
REMARK H PARENT 7 6 23 17
REMARK Flexibility Score: inf
ROOT
ATOM      1  C   UNL     1      97.682  82.512  83.908  1.00  0.00     0.010 C 
ENDROOT
BRANCH   1   2
ATOM      2  C   UNL     1      97.088  83.918  83.858  1.00  0.00     0.100 C 
BRANCH   2   3
ATOM      3  C   UNL     1      96.723  84.442  85.237  1.00  0.00     0.220 C 
ATOM      4  O   UNL     1      97.282  85.400  85.763  1.00  0.00    -0.275 OA
ATOM      5  N   UNL     1      95.701  83.700  85.810  1.00  0.00    -0.352 N 
ATOM      6  H   UNL     1      95.306  82.914  85.301  1.00  0.00     0.163 HD
BRANCH   5   7
ATOM      7  C   UNL     1      95.169  83.983  87.123  1.00  0.00     0.151 C 
BRANCH   7   8
ATOM      8  C   UNL     1      93.782  83.436  87.297  1.00  0.00    -0.025 A 
ATOM      9  C   UNL     1      92.865  84.124  88.082  1.00  0.00     0.056 A 
ATOM     10  C   UNL     1      93.429  82.247  86.671  1.00  0.00     0.009 A 
ATOM     11  C   UNL     1      91.576  83.616  88.244  1.00  0.00     0.160 A 
ATOM     12  C   UNL     1      92.140  81.738  86.833  1.00  0.00     0.050 A 
ATOM     13  C   UNL     1      91.213  82.422  87.619  1.00  0.00     0.157 A 
BRANCH  11  14
ATOM     14  O   UNL     1      90.680  84.293  89.015  1.00  0.00    -0.493 OA
ATOM     15  C   UNL     1      91.092  84.636  90.337  1.00  0.00     0.278 C 
ENDBRANCH  11  14
BRANCH  13  16
ATOM     16  O   UNL     1      89.958  81.916  87.769  1.00  0.00    -0.504 OA
ATOM     17  H   UNL     1      89.657  81.558  86.916  1.00  0.00     0.293 HD
ENDBRANCH  13  16
ENDBRANCH   7   8
ENDBRANCH   5   7
ENDBRANCH   2   3
ENDBRANCH   1   2
BRANCH   1  18
ATOM     18  C   UNL     1      98.544  82.169  82.690  1.00  0.00     0.001 C 
BRANCH  18  19
ATOM     19  C   UNL     1      98.665  83.270  81.631  1.00  0.00     0.000 C 
BRANCH  19  20
ATOM     20  C   UNL     1      98.950  82.730  80.227  1.00  0.00     0.000 C 
BRANCH  20  21
ATOM     21  C   UNL     1      97.876  83.104  79.200  1.00  0.00     0.000 C 
BRANCH  21  22
ATOM     22  C   UNL     1      98.072  82.422  77.842  1.00  0.00     0.003 C 
BRANCH  22  23
ATOM     23  C   UNL     1      98.210  83.416  76.671  1.00  0.00    -0.017 C 
ATOM     24  C   UNL     1      99.690  83.620  76.338  1.00  0.00     0.007 C 
ATOM     25  C   UNL     1      97.559  84.767  76.969  1.00  0.00     0.007 C 
ENDBRANCH  22  23
ENDBRANCH  21  22
ENDBRANCH  20  21
ENDBRANCH  19  20
ENDBRANCH  18  19
ENDBRANCH   1  18
TORSDOF 12
ENDMDL
MODEL 3
REMARK VINA RESULT:    -5.463     22.585     25.119
REMARK INTER + INTRA:         -10.460
REMARK INTER:                  -9.791
REMARK INTRA:                  -0.668
REMARK UNBOUND:                -1.324
REMARK SMILES COc1cc(CNC(=O)CCCCCCCC(C)C)ccc1O
REMARK SMILES IDX 11 1 10 2 8 3 9 4 7 5 6 7 5 8 4 9 20 10 3 11 21 12 22 13
REMARK SMILES IDX 2 14 1 15 23 16 12 18 13 19 14 20 15 21 16 22 17 23 18 24
REMARK SMILES IDX 19 25
REMARK H PARENT 7 6 23 17
REMARK Flexibility Score: inf
ROOT
ATOM      1  C   UNL     1      92.565  99.721  74.039  1.00  0.00     0.010 C 
ENDROOT
BRANCH   1   2
ATOM      2  C   UNL     1      93.934 100.207  74.511  1.00  0.00     0.100 C 
BRANCH   2   3
ATOM      3  C   UNL     1      94.858  99.059  74.883  1.00  0.00     0.220 C 
ATOM      4  O   UNL     1      96.082  99.146  74.859  1.00  0.00    -0.275 OA
ATOM      5  N   UNL     1      94.144  97.924  75.237  1.00  0.00    -0.352 N 
ATOM      6  H   UNL     1      93.128  97.943  75.217  1.00  0.00     0.163 HD
BRANCH   5   7
ATOM      7  C   UNL     1      94.782  96.687  75.626  1.00  0.00     0.151 C 
BRANCH   7   8
ATOM      8  C   UNL     1      93.944  95.903  76.594  1.00  0.00    -0.025 A 
ATOM      9  C   UNL     1      94.561  95.107  77.551  1.00  0.00     0.056 A 
ATOM     10  C   UNL     1      92.558  95.981  76.521  1.00  0.00     0.009 A 
ATOM     11  C   UNL     1      93.782  94.379  78.450  1.00  0.00     0.160 A 
ATOM     12  C   UNL     1      91.779  95.252  77.420  1.00  0.00     0.050 A 
ATOM     13  C   UNL     1      92.390  94.450  78.384  1.00  0.00     0.157 A 
BRANCH  11  14
ATOM     14  O   UNL     1      94.391  93.599  79.387  1.00  0.00    -0.493 OA
ATOM     15  C   UNL     1      95.643  94.057  79.895  1.00  0.00     0.278 C 
ENDBRANCH  11  14
BRANCH  13  16
ATOM     16  O   UNL     1      91.619  93.744  79.256  1.00  0.00    -0.504 OA
ATOM     17  H   UNL     1      92.107  92.953  79.541  1.00  0.00     0.293 HD
ENDBRANCH  13  16
ENDBRANCH   7   8
ENDBRANCH   5   7
ENDBRANCH   2   3
ENDBRANCH   1   2
BRANCH   1  18
ATOM     18  C   UNL     1      92.078 100.413  72.763  1.00  0.00     0.001 C 
BRANCH  18  19
ATOM     19  C   UNL     1      91.068  99.625  71.923  1.00  0.00     0.000 C 
BRANCH  19  20
ATOM     20  C   UNL     1      91.007 100.082  70.463  1.00  0.00     0.000 C 
BRANCH  20  21
ATOM     21  C   UNL     1      89.580 100.324  69.959  1.00  0.00     0.000 C 
BRANCH  21  22
ATOM     22  C   UNL     1      89.326  99.752  68.560  1.00  0.00     0.003 C 
BRANCH  22  23
ATOM     23  C   UNL     1      89.206 100.832  67.468  1.00  0.00    -0.017 C 
ATOM     24  C   UNL     1      90.590 101.138  66.889  1.00  0.00     0.007 C 
ATOM     25  C   UNL     1      88.569 102.122  67.986  1.00  0.00     0.007 C 
ENDBRANCH  22  23
ENDBRANCH  21  22
ENDBRANCH  20  21
ENDBRANCH  19  20
ENDBRANCH  18  19
ENDBRANCH   1  18
TORSDOF 12
ENDMDL
MODEL 4
REMARK VINA RESULT:    -5.322      2.261      3.570
REMARK INTER + INTRA:         -10.224
REMARK INTER:                  -7.643
REMARK INTRA:                  -2.581
REMARK UNBOUND:                -1.324
REMARK SMILES COc1cc(CNC(=O)CCCCCCCC(C)C)ccc1O
REMARK SMILES IDX 11 1 10 2 8 3 9 4 7 5 6 7 5 8 4 9 20 10 3 11 21 12 22 13
REMARK SMILES IDX 2 14 1 15 23 16 12 18 13 19 14 20 15 21 16 22 17 23 18 24
REMARK SMILES IDX 19 25
REMARK H PARENT 7 6 23 17
REMARK Flexibility Score: inf
ROOT
ATOM      1  C   UNL     1      77.591  87.132  68.297  1.00  0.00     0.010 C 
ENDROOT
BRANCH   1   2
ATOM      2  C   UNL     1      77.559  86.998  66.776  1.00  0.00     0.100 C 
BRANCH   2   3
ATOM      3  C   UNL     1      77.648  85.551  66.320  1.00  0.00     0.220 C 
ATOM      4  O   UNL     1      78.250  84.683  66.947  1.00  0.00    -0.275 OA
ATOM      5  N   UNL     1      76.978  85.351  65.123  1.00  0.00    -0.352 N 
ATOM      6  H   UNL     1      76.516  86.135  64.669  1.00  0.00     0.163 HD
BRANCH   5   7
ATOM      7  C   UNL     1      76.915  84.067  64.465  1.00  0.00     0.151 C 
BRANCH   7   8
ATOM      8  C   UNL     1      75.730  83.263  64.916  1.00  0.00    -0.025 A 
ATOM      9  C   UNL     1      74.466  83.566  64.425  1.00  0.00     0.056 A 
ATOM     10  C   UNL     1      75.910  82.224  65.821  1.00  0.00     0.009 A 
ATOM     11  C   UNL     1      73.365  82.819  64.845  1.00  0.00     0.160 A 
ATOM     12  C   UNL     1      74.808  81.477  66.241  1.00  0.00     0.050 A 
ATOM     13  C   UNL     1      73.536  81.775  65.753  1.00  0.00     0.157 A 
BRANCH  11  14
ATOM     14  O   UNL     1      72.128  83.120  64.361  1.00  0.00    -0.493 OA
ATOM     15  C   UNL     1      71.982  83.175  62.943  1.00  0.00     0.278 C 
ENDBRANCH  11  14
BRANCH  13  16
ATOM     16  O   UNL     1      72.469  81.038  66.170  1.00  0.00    -0.504 OA
ATOM     17  H   UNL     1      72.259  80.373  65.492  1.00  0.00     0.293 HD
ENDBRANCH  13  16
ENDBRANCH   7   8
ENDBRANCH   5   7
ENDBRANCH   2   3
ENDBRANCH   1   2
BRANCH   1  18
ATOM     18  C   UNL     1      76.380  87.874  68.869  1.00  0.00     0.001 C 
BRANCH  18  19
ATOM     19  C   UNL     1      75.739  87.242  70.110  1.00  0.00     0.000 C 
BRANCH  19  20
ATOM     20  C   UNL     1      75.868  85.717  70.147  1.00  0.00     0.000 C 
BRANCH  20  21
ATOM     21  C   UNL     1      74.638  84.987  69.598  1.00  0.00     0.000 C 
BRANCH  21  22
ATOM     22  C   UNL     1      74.619  84.895  68.069  1.00  0.00     0.003 C 
BRANCH  22  23
ATOM     23  C   UNL     1      73.392  85.572  67.428  1.00  0.00    -0.017 C 
ATOM     24  C   UNL     1      73.844  86.752  66.565  1.00  0.00     0.007 C 
ATOM     25  C   UNL     1      72.379  86.053  68.467  1.00  0.00     0.007 C 
ENDBRANCH  22  23
ENDBRANCH  21  22
ENDBRANCH  20  21
ENDBRANCH  19  20
ENDBRANCH  18  19
ENDBRANCH   1  18
TORSDOF 12
ENDMDL
MODEL 5
REMARK VINA RESULT:    -5.237     12.465     15.721
REMARK INTER + INTRA:         -10.082
REMARK INTER:                  -8.508
REMARK INTRA:                  -1.574
REMARK UNBOUND:                -1.324
REMARK SMILES COc1cc(CNC(=O)CCCCCCCC(C)C)ccc1O
REMARK SMILES IDX 11 1 10 2 8 3 9 4 7 5 6 7 5 8 4 9 20 10 3 11 21 12 22 13
REMARK SMILES IDX 2 14 1 15 23 16 12 18 13 19 14 20 15 21 16 22 17 23 18 24
REMARK SMILES IDX 19 25
REMARK H PARENT 7 6 23 17
REMARK Flexibility Score: inf
ROOT
ATOM      1  C   UNL     1      61.253  85.545  70.325  1.00  0.00     0.010 C 
ENDROOT
BRANCH   1   2
ATOM      2  C   UNL     1      59.847  85.393  70.904  1.00  0.00     0.100 C 
BRANCH   2   3
ATOM      3  C   UNL     1      59.758  85.875  72.342  1.00  0.00     0.220 C 
ATOM      4  O   UNL     1      59.250  86.946  72.663  1.00  0.00    -0.275 OA
ATOM      5  N   UNL     1      60.325  84.965  73.221  1.00  0.00    -0.352 N 
ATOM      6  H   UNL     1      60.734  84.106  72.861  1.00  0.00     0.163 HD
BRANCH   5   7
ATOM      7  C   UNL     1      60.380  85.184  74.648  1.00  0.00     0.151 C 
BRANCH   7   8
ATOM      8  C   UNL     1      61.650  84.655  75.249  1.00  0.00    -0.025 A 
ATOM      9  C   UNL     1      62.126  85.197  76.436  1.00  0.00     0.056 A 
ATOM     10  C   UNL     1      62.336  83.629  74.611  1.00  0.00     0.009 A 
ATOM     11  C   UNL     1      63.307  84.706  76.994  1.00  0.00     0.160 A 
ATOM     12  C   UNL     1      63.518  83.139  75.169  1.00  0.00     0.050 A 
ATOM     13  C   UNL     1      64.003  83.677  76.360  1.00  0.00     0.157 A 
BRANCH  11  14
ATOM     14  O   UNL     1      63.771  85.240  78.158  1.00  0.00    -0.493 OA
ATOM     15  C   UNL     1      63.037  84.944  79.345  1.00  0.00     0.278 C 
ENDBRANCH  11  14
BRANCH  13  16
ATOM     16  O   UNL     1      65.156  83.188  76.895  1.00  0.00    -0.504 OA
ATOM     17  H   UNL     1      65.912  83.660  76.503  1.00  0.00     0.293 HD
ENDBRANCH  13  16
ENDBRANCH   7   8
ENDBRANCH   5   7
ENDBRANCH   2   3
ENDBRANCH   1   2
BRANCH   1  18
ATOM     18  C   UNL     1      61.945  84.209  70.042  1.00  0.00     0.001 C 
BRANCH  18  19
ATOM     19  C   UNL     1      62.634  84.093  68.679  1.00  0.00     0.000 C 
BRANCH  19  20
ATOM     20  C   UNL     1      62.975  82.651  68.294  1.00  0.00     0.000 C 
BRANCH  20  21
ATOM     21  C   UNL     1      63.357  81.774  69.491  1.00  0.00     0.000 C 
BRANCH  21  22
ATOM     22  C   UNL     1      64.861  81.772  69.786  1.00  0.00     0.003 C 
BRANCH  22  23
ATOM     23  C   UNL     1      65.196  82.008  71.272  1.00  0.00    -0.017 C 
ATOM     24  C   UNL     1      64.101  81.400  72.152  1.00  0.00     0.007 C 
ATOM     25  C   UNL     1      65.361  83.490  71.607  1.00  0.00     0.007 C 
ENDBRANCH  22  23
ENDBRANCH  21  22
ENDBRANCH  20  21
ENDBRANCH  19  20
ENDBRANCH  18  19
ENDBRANCH   1  18
TORSDOF 12
ENDMDL
MODEL 6
REMARK VINA RESULT:    -5.180     21.371     25.014
REMARK INTER + INTRA:          -9.987
REMARK INTER:                  -8.603
REMARK INTRA:                  -1.384
REMARK UNBOUND:                -1.324
REMARK SMILES COc1cc(CNC(=O)CCCCCCCC(C)C)ccc1O
REMARK SMILES IDX 11 1 10 2 8 3 9 4 7 5 6 7 5 8 4 9 20 10 3 11 21 12 22 13
REMARK SMILES IDX 2 14 1 15 23 16 12 18 13 19 14 20 15 21 16 22 17 23 18 24
REMARK SMILES IDX 19 25
REMARK H PARENT 7 6 23 17
REMARK Flexibility Score: inf
ROOT
ATOM      1  C   UNL     1      90.492 102.093  69.049  1.00  0.00     0.010 C 
ENDROOT
BRANCH   1   2
ATOM      2  C   UNL     1      91.743 102.140  69.923  1.00  0.00     0.100 C 
BRANCH   2   3
ATOM      3  C   UNL     1      91.414 102.106  71.407  1.00  0.00     0.220 C 
ATOM      4  O   UNL     1      90.443 102.677  71.894  1.00  0.00    -0.275 OA
ATOM      5  N   UNL     1      92.345 101.365  72.118  1.00  0.00    -0.352 N 
ATOM      6  H   UNL     1      93.126 100.936  71.629  1.00  0.00     0.163 HD
BRANCH   5   7
ATOM      7  C   UNL     1      92.271 101.180  73.550  1.00  0.00     0.151 C 
BRANCH   7   8
ATOM      8  C   UNL     1      93.139 100.047  74.015  1.00  0.00    -0.025 A 
ATOM      9  C   UNL     1      94.355  99.810  73.387  1.00  0.00     0.056 A 
ATOM     10  C   UNL     1      92.716  99.247  75.070  1.00  0.00     0.009 A 
ATOM     11  C   UNL     1      95.161  98.757  73.820  1.00  0.00     0.160 A 
ATOM     12  C   UNL     1      93.522  98.193  75.502  1.00  0.00     0.050 A 
ATOM     13  C   UNL     1      94.745  97.948  74.877  1.00  0.00     0.157 A 
BRANCH  11  14
ATOM     14  O   UNL     1      96.353  98.527  73.201  1.00  0.00    -0.493 OA
ATOM     15  C   UNL     1      96.435  98.846  71.813  1.00  0.00     0.278 C 
ENDBRANCH  11  14
BRANCH  13  16
ATOM     16  O   UNL     1      95.523  96.917  75.309  1.00  0.00    -0.504 OA
ATOM     17  H   UNL     1      95.035  96.083  75.197  1.00  0.00     0.293 HD
ENDBRANCH  13  16
ENDBRANCH   7   8
ENDBRANCH   5   7
ENDBRANCH   2   3
ENDBRANCH   1   2
BRANCH   1  18
ATOM     18  C   UNL     1      90.760 101.594  67.626  1.00  0.00     0.001 C 
BRANCH  18  19
ATOM     19  C   UNL     1      89.872 100.440  67.149  1.00  0.00     0.000 C 
BRANCH  19  20
ATOM     20  C   UNL     1      88.526 100.373  67.875  1.00  0.00     0.000 C 
BRANCH  20  21
ATOM     21  C   UNL     1      88.070  98.942  68.184  1.00  0.00     0.000 C 
BRANCH  21  22
ATOM     22  C   UNL     1      89.221  98.012  68.582  1.00  0.00     0.003 C 
BRANCH  22  23
ATOM     23  C   UNL     1      89.287  97.731  70.096  1.00  0.00    -0.017 C 
ATOM     24  C   UNL     1      90.278  98.692  70.758  1.00  0.00     0.007 C 
ATOM     25  C   UNL     1      89.684  96.288  70.408  1.00  0.00     0.007 C 
ENDBRANCH  22  23
ENDBRANCH  21  22
ENDBRANCH  20  21
ENDBRANCH  19  20
ENDBRANCH  18  19
ENDBRANCH   1  18
TORSDOF 12
ENDMDL
MODEL 7
REMARK VINA RESULT:    -5.018     26.490     29.198
REMARK INTER + INTRA:          -9.715
REMARK INTER:                  -7.650
REMARK INTRA:                  -2.065
REMARK UNBOUND:                -1.324
REMARK SMILES COc1cc(CNC(=O)CCCCCCCC(C)C)ccc1O
REMARK SMILES IDX 11 1 10 2 8 3 9 4 7 5 6 7 5 8 4 9 20 10 3 11 21 12 22 13
REMARK SMILES IDX 2 14 1 15 23 16 12 18 13 19 14 20 15 21 16 22 17 23 18 24
REMARK SMILES IDX 19 25
REMARK H PARENT 7 6 23 17
REMARK Flexibility Score: inf
ROOT
ATOM      1  C   UNL     1      98.161  80.361  84.290  1.00  0.00     0.010 C 
ENDROOT
BRANCH   1   2
ATOM      2  C   UNL     1      98.744  81.760  84.477  1.00  0.00     0.100 C 
BRANCH   2   3
ATOM      3  C   UNL     1      98.206  82.752  83.459  1.00  0.00     0.220 C 
ATOM      4  O   UNL     1      97.322  83.565  83.714  1.00  0.00    -0.275 OA
ATOM      5  N   UNL     1      98.830  82.609  82.229  1.00  0.00    -0.352 N 
ATOM      6  H   UNL     1      99.546  81.897  82.109  1.00  0.00     0.163 HD
BRANCH   5   7
ATOM      7  C   UNL     1      98.500  83.424  81.083  1.00  0.00     0.151 C 
BRANCH   7   8
ATOM      8  C   UNL     1      98.600  82.654  79.799  1.00  0.00    -0.025 A 
ATOM      9  C   UNL     1      98.453  83.317  78.586  1.00  0.00     0.056 A 
ATOM     10  C   UNL     1      98.838  81.286  79.835  1.00  0.00     0.009 A 
ATOM     11  C   UNL     1      98.546  82.602  77.393  1.00  0.00     0.160 A 
ATOM     12  C   UNL     1      98.930  80.570  78.641  1.00  0.00     0.050 A 
ATOM     13  C   UNL     1      98.784  81.227  77.420  1.00  0.00     0.157 A 
BRANCH  11  14
ATOM     14  O   UNL     1      98.401  83.255  76.206  1.00  0.00    -0.493 OA
ATOM     15  C   UNL     1      99.416  84.195  75.856  1.00  0.00     0.278 C 
ENDBRANCH  11  14
BRANCH  13  16
ATOM     16  O   UNL     1      98.877  80.518  76.261  1.00  0.00    -0.504 OA
ATOM     17  H   UNL     1      98.118  79.912  76.199  1.00  0.00     0.293 HD
ENDBRANCH  13  16
ENDBRANCH   7   8
ENDBRANCH   5   7
ENDBRANCH   2   3
ENDBRANCH   1   2
BRANCH   1  18
ATOM     18  C   UNL     1      98.887  79.534  83.225  1.00  0.00     0.001 C 
BRANCH  18  19
ATOM     19  C   UNL     1     100.383  79.307  83.467  1.00  0.00     0.000 C 
BRANCH  19  20
ATOM     20  C   UNL     1     101.267  79.855  82.343  1.00  0.00     0.000 C 
BRANCH  20  21
ATOM     21  C   UNL     1     101.970  81.168  82.706  1.00  0.00     0.000 C 
BRANCH  21  22
ATOM     22  C   UNL     1     102.376  81.996  81.482  1.00  0.00     0.003 C 
BRANCH  22  23
ATOM     23  C   UNL     1     102.850  81.141  80.291  1.00  0.00    -0.017 C 
ATOM     24  C   UNL     1     104.374  81.008  80.324  1.00  0.00     0.007 C 
ATOM     25  C   UNL     1     102.413  81.718  78.944  1.00  0.00     0.007 C 
ENDBRANCH  22  23
ENDBRANCH  21  22
ENDBRANCH  20  21
ENDBRANCH  19  20
ENDBRANCH  18  19
ENDBRANCH   1  18
TORSDOF 12
ENDMDL
MODEL 8
REMARK VINA RESULT:    -4.975      2.796      6.157
REMARK INTER + INTRA:          -9.643
REMARK INTER:                  -7.928
REMARK INTRA:                  -1.715
REMARK UNBOUND:                -1.324
REMARK SMILES COc1cc(CNC(=O)CCCCCCCC(C)C)ccc1O
REMARK SMILES IDX 11 1 10 2 8 3 9 4 7 5 6 7 5 8 4 9 20 10 3 11 21 12 22 13
REMARK SMILES IDX 2 14 1 15 23 16 12 18 13 19 14 20 15 21 16 22 17 23 18 24
REMARK SMILES IDX 19 25
REMARK H PARENT 7 6 23 17
REMARK Flexibility Score: inf
ROOT
ATOM      1  C   UNL     1      71.954  82.695  66.191  1.00  0.00     0.010 C 
ENDROOT
BRANCH   1   2
ATOM      2  C   UNL     1      72.372  81.348  65.605  1.00  0.00     0.100 C 
BRANCH   2   3
ATOM      3  C   UNL     1      73.858  81.290  65.290  1.00  0.00     0.220 C 
ATOM      4  O   UNL     1      74.307  80.832  64.243  1.00  0.00    -0.275 OA
ATOM      5  N   UNL     1      74.619  81.806  66.328  1.00  0.00    -0.352 N 
ATOM      6  H   UNL     1      74.158  82.154  67.164  1.00  0.00     0.163 HD
BRANCH   5   7
ATOM      7  C   UNL     1      76.063  81.862  66.288  1.00  0.00     0.151 C 
BRANCH   7   8
ATOM      8  C   UNL     1      76.576  83.261  66.471  1.00  0.00    -0.025 A 
ATOM      9  C   UNL     1      77.316  83.580  67.602  1.00  0.00     0.056 A 
ATOM     10  C   UNL     1      76.304  84.223  65.506  1.00  0.00     0.009 A 
ATOM     11  C   UNL     1      77.793  84.880  67.772  1.00  0.00     0.160 A 
ATOM     12  C   UNL     1      76.780  85.524  65.676  1.00  0.00     0.050 A 
ATOM     13  C   UNL     1      77.524  85.853  66.808  1.00  0.00     0.157 A 
BRANCH  11  14
ATOM     14  O   UNL     1      78.518  85.189  68.883  1.00  0.00    -0.493 OA
ATOM     15  C   UNL     1      77.788  85.449  70.081  1.00  0.00     0.278 C 
ENDBRANCH  11  14
BRANCH  13  16
ATOM     16  O   UNL     1      77.984  87.125  66.962  1.00  0.00    -0.504 OA
ATOM     17  H   UNL     1      78.183  87.278  67.902  1.00  0.00     0.293 HD
ENDBRANCH  13  16
ENDBRANCH   7   8
ENDBRANCH   5   7
ENDBRANCH   2   3
ENDBRANCH   1   2
BRANCH   1  18
ATOM     18  C   UNL     1      70.709  82.614  67.078  1.00  0.00     0.001 C 
BRANCH  18  19
ATOM     19  C   UNL     1      69.883  83.901  67.182  1.00  0.00     0.000 C 
BRANCH  19  20
ATOM     20  C   UNL     1      69.854  84.488  68.596  1.00  0.00     0.000 C 
BRANCH  20  21
ATOM     21  C   UNL     1      71.168  84.298  69.362  1.00  0.00     0.000 C 
BRANCH  21  22
ATOM     22  C   UNL     1      71.866  85.618  69.706  1.00  0.00     0.003 C 
BRANCH  22  23
ATOM     23  C   UNL     1      73.400  85.552  69.580  1.00  0.00    -0.017 C 
ATOM     24  C   UNL     1      74.010  86.900  69.974  1.00  0.00     0.007 C 
ATOM     25  C   UNL     1      73.856  85.174  68.170  1.00  0.00     0.007 C 
ENDBRANCH  22  23
ENDBRANCH  21  22
ENDBRANCH  20  21
ENDBRANCH  19  20
ENDBRANCH  18  19
ENDBRANCH   1  18
TORSDOF 12
ENDMDL
MODEL 9
REMARK VINA RESULT:    -4.923     26.127     28.901
REMARK INTER + INTRA:          -9.557
REMARK INTER:                  -8.553
REMARK INTRA:                  -1.003
REMARK UNBOUND:                -1.324
REMARK SMILES COc1cc(CNC(=O)CCCCCCCC(C)C)ccc1O
REMARK SMILES IDX 11 1 10 2 8 3 9 4 7 5 6 7 5 8 4 9 20 10 3 11 21 12 22 13
REMARK SMILES IDX 2 14 1 15 23 16 12 18 13 19 14 20 15 21 16 22 17 23 18 24
REMARK SMILES IDX 19 25
REMARK H PARENT 7 6 23 17
REMARK Flexibility Score: inf
ROOT
ATOM      1  C   UNL     1      99.504  82.695  81.661  1.00  0.00     0.010 C 
ENDROOT
BRANCH   1   2
ATOM      2  C   UNL     1      98.187  82.809  82.426  1.00  0.00     0.100 C 
BRANCH   2   3
ATOM      3  C   UNL     1      98.400  83.076  83.907  1.00  0.00     0.220 C 
ATOM      4  O   UNL     1      99.042  82.330  84.640  1.00  0.00    -0.275 OA
ATOM      5  N   UNL     1      97.776  84.248  84.308  1.00  0.00    -0.352 N 
ATOM      6  H   UNL     1      97.255  84.797  83.630  1.00  0.00     0.163 HD
BRANCH   5   7
ATOM      7  C   UNL     1      97.815  84.729  85.670  1.00  0.00     0.151 C 
BRANCH   7   8
ATOM      8  C   UNL     1      96.476  84.626  86.340  1.00  0.00    -0.025 A 
ATOM      9  C   UNL     1      95.958  83.375  86.654  1.00  0.00     0.056 A 
ATOM     10  C   UNL     1      95.767  85.783  86.640  1.00  0.00     0.009 A 
ATOM     11  C   UNL     1      94.714  83.280  87.277  1.00  0.00     0.160 A 
ATOM     12  C   UNL     1      94.522  85.687  87.263  1.00  0.00     0.050 A 
ATOM     13  C   UNL     1      93.995  84.436  87.581  1.00  0.00     0.157 A 
BRANCH  11  14
ATOM     14  O   UNL     1      94.210  82.051  87.583  1.00  0.00    -0.493 OA
ATOM     15  C   UNL     1      94.800  80.928  86.931  1.00  0.00     0.278 C 
ENDBRANCH  11  14
BRANCH  13  16
ATOM     16  O   UNL     1      92.779  84.356  88.190  1.00  0.00    -0.504 OA
ATOM     17  H   UNL     1      92.292  85.184  88.035  1.00  0.00     0.293 HD
ENDBRANCH  13  16
ENDBRANCH   7   8
ENDBRANCH   5   7
ENDBRANCH   2   3
ENDBRANCH   1   2
BRANCH   1  18
ATOM     18  C   UNL     1      99.350  82.885  80.149  1.00  0.00     0.001 C 
BRANCH  18  19
ATOM     19  C   UNL     1     100.096  81.873  79.273  1.00  0.00     0.000 C 
BRANCH  19  20
ATOM     20  C   UNL     1     101.118  82.522  78.336  1.00  0.00     0.000 C 
BRANCH  20  21
ATOM     21  C   UNL     1     100.674  82.543  76.869  1.00  0.00     0.000 C 
BRANCH  21  22
ATOM     22  C   UNL     1      99.956  83.836  76.471  1.00  0.00     0.003 C 
BRANCH  22  23
ATOM     23  C   UNL     1      98.470  83.629  76.117  1.00  0.00    -0.017 C 
ATOM     24  C   UNL     1      97.589  84.170  77.246  1.00  0.00     0.007 C 
ATOM     25  C   UNL     1      98.128  82.161  75.857  1.00  0.00     0.007 C 
ENDBRANCH  22  23
ENDBRANCH  21  22
ENDBRANCH  20  21
ENDBRANCH  19  20
ENDBRANCH  18  19
ENDBRANCH   1  18
TORSDOF 12
ENDMDL
MODEL 10
REMARK VINA RESULT:    -4.922      2.243      3.353
REMARK INTER + INTRA:          -9.555
REMARK INTER:                  -7.195
REMARK INTRA:                  -2.360
REMARK UNBOUND:                -1.324
REMARK SMILES COc1cc(CNC(=O)CCCCCCCC(C)C)ccc1O
REMARK SMILES IDX 11 1 10 2 8 3 9 4 7 5 6 7 5 8 4 9 20 10 3 11 21 12 22 13
REMARK SMILES IDX 2 14 1 15 23 16 12 18 13 19 14 20 15 21 16 22 17 23 18 24
REMARK SMILES IDX 19 25
REMARK H PARENT 7 6 23 17
REMARK Flexibility Score: inf
ROOT
ATOM      1  C   UNL     1      74.477  87.896  66.341  1.00  0.00     0.010 C 
ENDROOT
BRANCH   1   2
ATOM      2  C   UNL     1      75.920  88.165  65.917  1.00  0.00     0.100 C 
BRANCH   2   3
ATOM      3  C   UNL     1      76.762  86.900  65.896  1.00  0.00     0.220 C 
ATOM      4  O   UNL     1      77.811  86.778  66.523  1.00  0.00    -0.275 OA
ATOM      5  N   UNL     1      76.199  85.927  65.083  1.00  0.00    -0.352 N 
ATOM      6  H   UNL     1      75.331  86.123  64.593  1.00  0.00     0.163 HD
BRANCH   5   7
ATOM      7  C   UNL     1      76.804  84.630  64.881  1.00  0.00     0.151 C 
BRANCH   7   8
ATOM      8  C   UNL     1      75.818  83.515  65.075  1.00  0.00    -0.025 A 
ATOM      9  C   UNL     1      74.513  83.663  64.619  1.00  0.00     0.056 A 
ATOM     10  C   UNL     1      76.219  82.346  65.710  1.00  0.00     0.009 A 
ATOM     11  C   UNL     1      73.597  82.627  64.800  1.00  0.00     0.160 A 
ATOM     12  C   UNL     1      75.303  81.310  65.892  1.00  0.00     0.050 A 
ATOM     13  C   UNL     1      73.992  81.450  65.437  1.00  0.00     0.157 A 
BRANCH  11  14
ATOM     14  O   UNL     1      72.319  82.775  64.352  1.00  0.00    -0.493 OA
ATOM     15  C   UNL     1      71.395  83.414  65.231  1.00  0.00     0.278 C 
ENDBRANCH  11  14
BRANCH  13  16
ATOM     16  O   UNL     1      73.107  80.431  65.619  1.00  0.00    -0.504 OA
ATOM     17  H   UNL     1      73.468  79.622  65.216  1.00  0.00     0.293 HD
ENDBRANCH  13  16
ENDBRANCH   7   8
ENDBRANCH   5   7
ENDBRANCH   2   3
ENDBRANCH   1   2
BRANCH   1  18
ATOM     18  C   UNL     1      74.230  88.113  67.836  1.00  0.00     0.001 C 
BRANCH  18  19
ATOM     19  C   UNL     1      73.593  86.936  68.582  1.00  0.00     0.000 C 
BRANCH  19  20
ATOM     20  C   UNL     1      73.709  85.608  67.828  1.00  0.00     0.000 C 
BRANCH  20  21
ATOM     21  C   UNL     1      74.872  84.733  68.310  1.00  0.00     0.000 C 
BRANCH  21  22
ATOM     22  C   UNL     1      75.397  85.130  69.693  1.00  0.00     0.003 C 
BRANCH  22  23
ATOM     23  C   UNL     1      76.925  84.985  69.836  1.00  0.00    -0.017 C 
ATOM     24  C   UNL     1      77.577  86.370  69.848  1.00  0.00     0.007 C 
ATOM     25  C   UNL     1      77.539  84.137  68.721  1.00  0.00     0.007 C 
ENDBRANCH  22  23
ENDBRANCH  21  22
ENDBRANCH  20  21
ENDBRANCH  19  20
ENDBRANCH  18  19
ENDBRANCH   1  18
TORSDOF 12
ENDMDL
