MODEL 1
REMARK VINA RESULT:    -5.533      0.000      0.000
REMARK INTER + INTRA:         -10.098
REMARK INTER:                  -8.930
REMARK INTRA:                  -1.168
REMARK UNBOUND:                -1.168
REMARK SMILES CCCCCCCCC(=O)NCc1ccc(O)c(OC)c1
REMARK SMILES IDX 7 1 6 2 5 3 4 4 3 5 2 6 1 7 8 8 9 9 10 10 11 11 12 13 13 14
REMARK SMILES IDX 21 15 14 16 18 17 15 18 16 19 19 20 20 21 17 22
REMARK H PARENT 11 12 17 23
REMARK Flexibility Score: inf
ROOT
ATOM      1  C   UNL     1      94.726  97.556  74.594  1.00  0.00     0.010 C 
ENDROOT
BRANCH   1   2
ATOM      2  C   UNL     1      93.814  96.296  74.608  1.00  0.00     0.001 C 
BRANCH   2   3
ATOM      3  C   UNL     1      94.113  95.366  75.821  1.00  0.00     0.000 C 
BRANCH   3   4
ATOM      4  C   UNL     1      93.141  95.565  77.018  1.00  0.00    -0.000 C 
BRANCH   4   5
ATOM      5  C   UNL     1      92.602  94.220  77.583  1.00  0.00    -0.000 C 
BRANCH   5   6
ATOM      6  C   UNL     1      91.062  94.085  77.431  1.00  0.00    -0.003 C 
ATOM      7  C   UNL     1      90.632  93.701  75.998  1.00  0.00     0.004 C 
ENDBRANCH   5   6
ENDBRANCH   4   5
ENDBRANCH   3   4
ENDBRANCH   2   3
ENDBRANCH   1   2
BRANCH   1   8
ATOM      8  C   UNL     1      96.246  97.233  74.615  1.00  0.00     0.100 C 
BRANCH   8   9
ATOM      9  C   UNL     1      96.913  97.852  75.786  1.00  0.00     0.220 C 
ATOM     10  O   UNL     1      96.962  99.104  75.851  1.00  0.00    -0.275 OA
ATOM     11  N   UNL     1      97.434  97.073  76.779  1.00  0.00    -0.352 N 
ATOM     12  H   UNL     1      97.419  96.083  76.585  1.00  0.00     0.163 HD
BRANCH  11  13
ATOM     13  C   UNL     1      97.973  97.548  78.017  1.00  0.00     0.151 C 
BRANCH  13  14
ATOM     14  C   UNL     1      97.272  97.020  79.219  1.00  0.00    -0.025 A 
ATOM     15  C   UNL     1      96.494  95.841  79.129  1.00  0.00     0.056 A 
ATOM     16  C   UNL     1      97.366  97.683  80.464  1.00  0.00     0.009 A 
ATOM     17  C   UNL     1      95.836  95.319  80.267  1.00  0.00     0.160 A 
ATOM     18  C   UNL     1      96.716  97.168  81.599  1.00  0.00     0.050 A 
ATOM     19  C   UNL     1      95.945  95.993  81.504  1.00  0.00     0.157 A 
BRANCH  17  20
ATOM     20  O   UNL     1      95.048  94.200  80.169  1.00  0.00    -0.493 OA
ATOM     21  C   UNL     1      95.782  92.963  80.150  1.00  0.00     0.278 C 
ENDBRANCH  17  20
BRANCH  19  22
ATOM     22  O   UNL     1      95.299  95.518  82.599  1.00  0.00    -0.504 OA
ATOM     23  H   UNL     1      95.684  94.678  82.859  1.00  0.00     0.293 HD
ENDBRANCH  19  22
ENDBRANCH  13  14
ENDBRANCH  11  13
ENDBRANCH   8   9
ENDBRANCH   1   8
TORSDOF 11
ENDMDL
MODEL 2
REMARK VINA RESULT:    -5.523      9.073     12.139
REMARK INTER + INTRA:         -10.082
REMARK INTER:                  -8.824
REMARK INTRA:                  -1.258
REMARK UNBOUND:                -1.168
REMARK SMILES CCCCCCCCC(=O)NCc1ccc(O)c(OC)c1
REMARK SMILES IDX 7 1 6 2 5 3 4 4 3 5 2 6 1 7 8 8 9 9 10 10 11 11 12 13 13 14
REMARK SMILES IDX 21 15 14 16 18 17 15 18 16 19 19 20 20 21 17 22
REMARK H PARENT 11 12 17 23
REMARK Flexibility Score: inf
ROOT
ATOM      1  C   UNL     1      88.554  99.946  66.722  1.00  0.00     0.010 C 
ENDROOT
BRANCH   1   2
ATOM      2  C   UNL     1      87.027 100.127  66.484  1.00  0.00     0.001 C 
BRANCH   2   3
ATOM      3  C   UNL     1      86.652 101.602  66.156  1.00  0.00     0.000 C 
BRANCH   3   4
ATOM      4  C   UNL     1      87.842 102.595  66.286  1.00  0.00    -0.000 C 
BRANCH   4   5
ATOM      5  C   UNL     1      87.580 103.713  67.334  1.00  0.00    -0.000 C 
BRANCH   5   6
ATOM      6  C   UNL     1      88.843 104.056  68.168  1.00  0.00    -0.003 C 
ATOM      7  C   UNL     1      89.944 102.978  68.062  1.00  0.00     0.004 C 
ENDBRANCH   5   6
ENDBRANCH   4   5
ENDBRANCH   3   4
ENDBRANCH   2   3
ENDBRANCH   1   2
BRANCH   1   8
ATOM      8  C   UNL     1      89.029  98.467  66.668  1.00  0.00     0.100 C 
BRANCH   8   9
ATOM      9  C   UNL     1      89.578  98.028  67.973  1.00  0.00     0.220 C 
ATOM     10  O   UNL     1      90.376  97.061  67.988  1.00  0.00    -0.275 OA
ATOM     11  N   UNL     1      89.241  98.684  69.123  1.00  0.00    -0.352 N 
ATOM     12  H   UNL     1      88.528  99.388  69.008  1.00  0.00     0.163 HD
BRANCH  11  13
ATOM     13  C   UNL     1      89.808  98.448  70.416  1.00  0.00     0.151 C 
BRANCH  13  14
ATOM     14  C   UNL     1      90.518  99.625  70.984  1.00  0.00    -0.025 A 
ATOM     15  C   UNL     1      89.845 100.863  71.125  1.00  0.00     0.056 A 
ATOM     16  C   UNL     1      91.870  99.533  71.389  1.00  0.00     0.009 A 
ATOM     17  C   UNL     1      90.502 101.986  71.680  1.00  0.00     0.160 A 
ATOM     18  C   UNL     1      92.528 100.646  71.943  1.00  0.00     0.050 A 
ATOM     19  C   UNL     1      91.852 101.874  72.083  1.00  0.00     0.157 A 
BRANCH  17  20
ATOM     20  O   UNL     1      89.861 103.195  71.777  1.00  0.00    -0.493 OA
ATOM     21  C   UNL     1      88.972 103.303  72.903  1.00  0.00     0.278 C 
ENDBRANCH  17  20
BRANCH  19  22
ATOM     22  O   UNL     1      92.504 102.949  72.593  1.00  0.00    -0.504 OA
ATOM     23  H   UNL     1      92.311 103.723  72.058  1.00  0.00     0.293 HD
ENDBRANCH  19  22
ENDBRANCH  13  14
ENDBRANCH  11  13
ENDBRANCH   8   9
ENDBRANCH   1   8
TORSDOF 11
ENDMDL
MODEL 3
REMARK VINA RESULT:    -5.392      2.922      4.336
REMARK INTER + INTRA:          -9.870
REMARK INTER:                  -8.740
REMARK INTRA:                  -1.130
REMARK UNBOUND:                -1.168
REMARK SMILES CCCCCCCCC(=O)NCc1ccc(O)c(OC)c1
REMARK SMILES IDX 7 1 6 2 5 3 4 4 3 5 2 6 1 7 8 8 9 9 10 10 11 11 12 13 13 14
REMARK SMILES IDX 21 15 14 16 18 17 15 18 16 19 19 20 20 21 17 22
REMARK H PARENT 11 12 17 23
REMARK Flexibility Score: inf
ROOT
ATOM      1  C   UNL     1      94.987  93.930  77.281  1.00  0.00     0.010 C 
ENDROOT
BRANCH   1   2
ATOM      2  C   UNL     1      94.215  95.168  76.740  1.00  0.00     0.001 C 
BRANCH   2   3
ATOM      3  C   UNL     1      92.823  95.336  77.418  1.00  0.00     0.000 C 
BRANCH   3   4
ATOM      4  C   UNL     1      91.625  95.066  76.464  1.00  0.00    -0.000 C 
BRANCH   4   5
ATOM      5  C   UNL     1      90.464  94.301  77.161  1.00  0.00    -0.000 C 
BRANCH   5   6
ATOM      6  C   UNL     1      90.716  92.770  77.231  1.00  0.00    -0.003 C 
ATOM      7  C   UNL     1      91.371  92.211  75.949  1.00  0.00     0.004 C 
ENDBRANCH   5   6
ENDBRANCH   4   5
ENDBRANCH   3   4
ENDBRANCH   2   3
ENDBRANCH   1   2
BRANCH   1   8
ATOM      8  C   UNL     1      94.250  93.179  78.425  1.00  0.00     0.100 C 
BRANCH   8   9
ATOM      9  C   UNL     1      95.019  93.236  79.692  1.00  0.00     0.220 C 
ATOM     10  O   UNL     1      94.628  92.537  80.657  1.00  0.00    -0.275 OA
ATOM     11  N   UNL     1      96.140  94.010  79.789  1.00  0.00    -0.352 N 
ATOM     12  H   UNL     1      96.314  94.596  78.985  1.00  0.00     0.163 HD
BRANCH  11  13
ATOM     13  C   UNL     1      97.040  94.041  80.901  1.00  0.00     0.151 C 
BRANCH  13  14
ATOM     14  C   UNL     1      97.213  95.393  81.497  1.00  0.00    -0.025 A 
ATOM     15  C   UNL     1      98.471  95.790  82.009  1.00  0.00     0.056 A 
ATOM     16  C   UNL     1      96.130  96.300  81.566  1.00  0.00     0.009 A 
ATOM     17  C   UNL     1      98.654  97.078  82.563  1.00  0.00     0.160 A 
ATOM     18  C   UNL     1      96.307  97.583  82.115  1.00  0.00     0.050 A 
ATOM     19  C   UNL     1      97.562  97.972  82.621  1.00  0.00     0.157 A 
BRANCH  17  20
ATOM     20  O   UNL     1      99.863  97.446  83.098  1.00  0.00    -0.493 OA
ATOM     21  C   UNL     1     100.896  97.667  82.121  1.00  0.00     0.278 C 
ENDBRANCH  17  20
BRANCH  19  22
ATOM     22  O   UNL     1      97.715  99.203  83.173  1.00  0.00    -0.504 OA
ATOM     23  H   UNL     1      97.060  99.802  82.808  1.00  0.00     0.293 HD
ENDBRANCH  19  22
ENDBRANCH  13  14
ENDBRANCH  11  13
ENDBRANCH   8   9
ENDBRANCH   1   8
TORSDOF 11
ENDMDL
MODEL 4
REMARK VINA RESULT:    -5.390      2.390      6.051
REMARK INTER + INTRA:          -9.866
REMARK INTER:                  -8.693
REMARK INTRA:                  -1.173
REMARK UNBOUND:                -1.168
REMARK SMILES CCCCCCCCC(=O)NCc1ccc(O)c(OC)c1
REMARK SMILES IDX 7 1 6 2 5 3 4 4 3 5 2 6 1 7 8 8 9 9 10 10 11 11 12 13 13 14
REMARK SMILES IDX 21 15 14 16 18 17 15 18 16 19 19 20 20 21 17 22
REMARK H PARENT 11 12 17 23
REMARK Flexibility Score: inf
ROOT
ATOM      1  C   UNL     1      96.881  96.711  79.163  1.00  0.00     0.010 C 
ENDROOT
BRANCH   1   2
ATOM      2  C   UNL     1      98.192  97.033  78.391  1.00  0.00     0.001 C 
BRANCH   2   3
ATOM      3  C   UNL     1      98.092  96.668  76.881  1.00  0.00     0.000 C 
BRANCH   3   4
ATOM      4  C   UNL     1      96.632  96.589  76.351  1.00  0.00    -0.000 C 
BRANCH   4   5
ATOM      5  C   UNL     1      96.320  97.681  75.288  1.00  0.00    -0.000 C 
BRANCH   5   6
ATOM      6  C   UNL     1      96.587  97.195  73.838  1.00  0.00    -0.003 C 
ATOM      7  C   UNL     1      97.998  97.567  73.331  1.00  0.00     0.004 C 
ENDBRANCH   5   6
ENDBRANCH   4   5
ENDBRANCH   3   4
ENDBRANCH   2   3
ENDBRANCH   1   2
BRANCH   1   8
ATOM      8  C   UNL     1      97.044  95.613  80.251  1.00  0.00     0.100 C 
BRANCH   8   9
ATOM      9  C   UNL     1      96.069  94.513  80.059  1.00  0.00     0.220 C 
ATOM     10  O   UNL     1      95.508  94.030  81.072  1.00  0.00    -0.275 OA
ATOM     11  N   UNL     1      95.771  94.061  78.805  1.00  0.00    -0.352 N 
ATOM     12  H   UNL     1      96.341  94.457  78.072  1.00  0.00     0.163 HD
BRANCH  11  13
ATOM     13  C   UNL     1      94.752  93.110  78.479  1.00  0.00     0.151 C 
BRANCH  13  14
ATOM     14  C   UNL     1      93.481  93.727  78.017  1.00  0.00    -0.025 A 
ATOM     15  C   UNL     1      92.272  92.992  78.068  1.00  0.00     0.056 A 
ATOM     16  C   UNL     1      93.454  95.049  77.516  1.00  0.00     0.009 A 
ATOM     17  C   UNL     1      91.053  93.570  77.648  1.00  0.00     0.160 A 
ATOM     18  C   UNL     1      92.244  95.631  77.098  1.00  0.00     0.050 A 
ATOM     19  C   UNL     1      91.045  94.895  77.155  1.00  0.00     0.157 A 
BRANCH  17  20
ATOM     20  O   UNL     1      89.890  92.842  77.660  1.00  0.00    -0.493 OA
ATOM     21  C   UNL     1      89.940  91.642  76.868  1.00  0.00     0.278 C 
ENDBRANCH  17  20
BRANCH  19  22
ATOM     22  O   UNL     1      89.887  95.456  76.723  1.00  0.00    -0.504 OA
ATOM     23  H   UNL     1      90.086  96.189  76.136  1.00  0.00     0.293 HD
ENDBRANCH  19  22
ENDBRANCH  13  14
ENDBRANCH  11  13
ENDBRANCH   8   9
ENDBRANCH   1   8
TORSDOF 11
ENDMDL
MODEL 5
REMARK VINA RESULT:    -5.368      2.448      4.811
REMARK INTER + INTRA:          -9.831
REMARK INTER:                  -8.791
REMARK INTRA:                  -1.040
REMARK UNBOUND:                -1.168
REMARK SMILES CCCCCCCCC(=O)NCc1ccc(O)c(OC)c1
REMARK SMILES IDX 7 1 6 2 5 3 4 4 3 5 2 6 1 7 8 8 9 9 10 10 11 11 12 13 13 14
REMARK SMILES IDX 21 15 14 16 18 17 15 18 16 19 19 20 20 21 17 22
REMARK H PARENT 11 12 17 23
REMARK Flexibility Score: inf
ROOT
ATOM      1  C   UNL     1      93.995  93.278  78.705  1.00  0.00     0.010 C 
ENDROOT
BRANCH   1   2
ATOM      2  C   UNL     1      94.398  93.908  77.340  1.00  0.00     0.001 C 
BRANCH   2   3
ATOM      3  C   UNL     1      94.129  95.441  77.297  1.00  0.00     0.000 C 
BRANCH   3   4
ATOM      4  C   UNL     1      92.622  95.811  77.196  1.00  0.00    -0.000 C 
BRANCH   4   5
ATOM      5  C   UNL     1      91.823  94.829  76.293  1.00  0.00    -0.000 C 
BRANCH   5   6
ATOM      6  C   UNL     1      90.457  94.427  76.913  1.00  0.00    -0.003 C 
ATOM      7  C   UNL     1      90.487  93.032  77.576  1.00  0.00     0.004 C 
ENDBRANCH   5   6
ENDBRANCH   4   5
ENDBRANCH   3   4
ENDBRANCH   2   3
ENDBRANCH   1   2
BRANCH   1   8
ATOM      8  C   UNL     1      95.177  92.611  79.463  1.00  0.00     0.100 C 
BRANCH   8   9
ATOM      9  C   UNL     1      95.544  93.382  80.675  1.00  0.00     0.220 C 
ATOM     10  O   UNL     1      95.917  92.749  81.692  1.00  0.00    -0.275 OA
ATOM     11  N   UNL     1      95.504  94.746  80.668  1.00  0.00    -0.352 N 
ATOM     12  H   UNL     1      95.108  95.148  79.831  1.00  0.00     0.163 HD
BRANCH  11  13
ATOM     13  C   UNL     1      95.965  95.602  81.719  1.00  0.00     0.151 C 
BRANCH  13  14
ATOM     14  C   UNL     1      96.427  96.935  81.250  1.00  0.00    -0.025 A 
ATOM     15  C   UNL     1      96.244  98.079  82.063  1.00  0.00     0.056 A 
ATOM     16  C   UNL     1      97.050  97.086  79.989  1.00  0.00     0.009 A 
ATOM     17  C   UNL     1      96.693  99.351  81.637  1.00  0.00     0.160 A 
ATOM     18  C   UNL     1      97.500  98.348  79.561  1.00  0.00     0.050 A 
ATOM     19  C   UNL     1      97.318  99.481  80.376  1.00  0.00     0.157 A 
BRANCH  17  20
ATOM     20  O   UNL     1      96.477 100.465  82.409  1.00  0.00    -0.493 OA
ATOM     21  C   UNL     1      95.116 100.928  82.405  1.00  0.00     0.278 C 
ENDBRANCH  17  20
BRANCH  19  22
ATOM     22  O   UNL     1      97.731 100.699  79.942  1.00  0.00    -0.504 OA
ATOM     23  H   UNL     1      97.691 101.328  80.667  1.00  0.00     0.293 HD
ENDBRANCH  19  22
ENDBRANCH  13  14
ENDBRANCH  11  13
ENDBRANCH   8   9
ENDBRANCH   1   8
TORSDOF 11
ENDMDL
MODEL 6
REMARK VINA RESULT:    -5.353      2.588      6.578
REMARK INTER + INTRA:          -9.807
REMARK INTER:                  -8.695
REMARK INTRA:                  -1.112
REMARK UNBOUND:                -1.168
REMARK SMILES CCCCCCCCC(=O)NCc1ccc(O)c(OC)c1
REMARK SMILES IDX 7 1 6 2 5 3 4 4 3 5 2 6 1 7 8 8 9 9 10 10 11 11 12 13 13 14
REMARK SMILES IDX 21 15 14 16 18 17 15 18 16 19 19 20 20 21 17 22
REMARK H PARENT 11 12 17 23
REMARK Flexibility Score: inf
ROOT
ATOM      1  C   UNL     1      95.885  96.530  81.497  1.00  0.00     0.010 C 
ENDROOT
BRANCH   1   2
ATOM      2  C   UNL     1      96.594  97.833  81.963  1.00  0.00     0.001 C 
BRANCH   2   3
ATOM      3  C   UNL     1      97.208  98.628  80.773  1.00  0.00     0.000 C 
BRANCH   3   4
ATOM      4  C   UNL     1      98.672  98.226  80.439  1.00  0.00    -0.000 C 
BRANCH   4   5
ATOM      5  C   UNL     1      98.882  97.923  78.928  1.00  0.00    -0.000 C 
BRANCH   5   6
ATOM      6  C   UNL     1      97.583  98.109  78.098  1.00  0.00    -0.003 C 
ATOM      7  C   UNL     1      97.116  96.806  77.414  1.00  0.00     0.004 C 
ENDBRANCH   5   6
ENDBRANCH   4   5
ENDBRANCH   3   4
ENDBRANCH   2   3
ENDBRANCH   1   2
BRANCH   1   8
ATOM      8  C   UNL     1      96.852  95.334  81.268  1.00  0.00     0.100 C 
BRANCH   8   9
ATOM      9  C   UNL     1      96.418  94.500  80.122  1.00  0.00     0.220 C 
ATOM     10  O   UNL     1      97.297  94.045  79.351  1.00  0.00    -0.275 OA
ATOM     11  N   UNL     1      95.096  94.214  79.933  1.00  0.00    -0.352 N 
ATOM     12  H   UNL     1      94.471  94.701  80.558  1.00  0.00     0.163 HD
BRANCH  11  13
ATOM     13  C   UNL     1      94.568  93.313  78.956  1.00  0.00     0.151 C 
BRANCH  13  14
ATOM     14  C   UNL     1      93.333  93.806  78.289  1.00  0.00    -0.025 A 
ATOM     15  C   UNL     1      92.174  92.995  78.247  1.00  0.00     0.056 A 
ATOM     16  C   UNL     1      93.294  95.083  77.683  1.00  0.00     0.009 A 
ATOM     17  C   UNL     1      90.987  93.457  77.632  1.00  0.00     0.160 A 
ATOM     18  C   UNL     1      92.117  95.548  77.071  1.00  0.00     0.050 A 
ATOM     19  C   UNL     1      90.966  94.738  77.036  1.00  0.00     0.157 A 
BRANCH  17  20
ATOM     20  O   UNL     1      89.878  92.653  77.556  1.00  0.00    -0.493 OA
ATOM     21  C   UNL     1      89.981  91.597  76.584  1.00  0.00     0.278 C 
ENDBRANCH  17  20
BRANCH  19  22
ATOM     22  O   UNL     1      89.843  95.185  76.418  1.00  0.00    -0.504 OA
ATOM     23  H   UNL     1      89.331  94.436  76.105  1.00  0.00     0.293 HD
ENDBRANCH  19  22
ENDBRANCH  13  14
ENDBRANCH  11  13
ENDBRANCH   8   9
ENDBRANCH   1   8
TORSDOF 11
ENDMDL
MODEL 7
REMARK VINA RESULT:    -5.353      2.937      4.397
REMARK INTER + INTRA:          -9.807
REMARK INTER:                  -9.004
REMARK INTRA:                  -0.803
REMARK UNBOUND:                -1.168
REMARK SMILES CCCCCCCCC(=O)NCc1ccc(O)c(OC)c1
REMARK SMILES IDX 7 1 6 2 5 3 4 4 3 5 2 6 1 7 8 8 9 9 10 10 11 11 12 13 13 14
REMARK SMILES IDX 21 15 14 16 18 17 15 18 16 19 19 20 20 21 17 22
REMARK H PARENT 11 12 17 23
REMARK Flexibility Score: inf
ROOT
ATOM      1  C   UNL     1      93.146  93.759  78.320  1.00  0.00     0.010 C 
ENDROOT
BRANCH   1   2
ATOM      2  C   UNL     1      93.311  94.878  77.252  1.00  0.00     0.001 C 
BRANCH   2   3
ATOM      3  C   UNL     1      92.001  95.694  77.046  1.00  0.00     0.000 C 
BRANCH   3   4
ATOM      4  C   UNL     1      90.714  94.821  77.028  1.00  0.00    -0.000 C 
BRANCH   4   5
ATOM      5  C   UNL     1      90.600  93.948  75.746  1.00  0.00    -0.000 C 
BRANCH   5   6
ATOM      6  C   UNL     1      90.629  92.427  76.056  1.00  0.00    -0.003 C 
ATOM      7  C   UNL     1      89.905  92.069  77.373  1.00  0.00     0.004 C 
ENDBRANCH   5   6
ENDBRANCH   4   5
ENDBRANCH   3   4
ENDBRANCH   2   3
ENDBRANCH   1   2
BRANCH   1   8
ATOM      8  C   UNL     1      94.470  93.025  78.672  1.00  0.00     0.100 C 
BRANCH   8   9
ATOM      9  C   UNL     1      95.561  93.987  78.957  1.00  0.00     0.220 C 
ATOM     10  O   UNL     1      96.509  94.071  78.141  1.00  0.00    -0.275 OA
ATOM     11  N   UNL     1      95.514  94.781  80.068  1.00  0.00    -0.352 N 
ATOM     12  H   UNL     1      94.755  94.571  80.699  1.00  0.00     0.163 HD
BRANCH  11  13
ATOM     13  C   UNL     1      96.426  95.839  80.378  1.00  0.00     0.151 C 
BRANCH  13  14
ATOM     14  C   UNL     1      97.454  95.470  81.388  1.00  0.00    -0.025 A 
ATOM     15  C   UNL     1      97.889  96.422  82.342  1.00  0.00     0.056 A 
ATOM     16  C   UNL     1      98.015  94.173  81.414  1.00  0.00     0.009 A 
ATOM     17  C   UNL     1      98.852  96.081  83.319  1.00  0.00     0.160 A 
ATOM     18  C   UNL     1      98.973  93.827  82.383  1.00  0.00     0.050 A 
ATOM     19  C   UNL     1      99.399  94.778  83.331  1.00  0.00     0.157 A 
BRANCH  17  20
ATOM     20  O   UNL     1      99.303  97.016  84.215  1.00  0.00    -0.493 OA
ATOM     21  C   UNL     1      98.787  98.341  83.994  1.00  0.00     0.278 C 
ENDBRANCH  17  20
BRANCH  19  22
ATOM     22  O   UNL     1     100.344  94.442  84.246  1.00  0.00    -0.504 OA
ATOM     23  H   UNL     1      99.980  93.803  84.862  1.00  0.00     0.293 HD
ENDBRANCH  19  22
ENDBRANCH  13  14
ENDBRANCH  11  13
ENDBRANCH   8   9
ENDBRANCH   1   8
TORSDOF 11
ENDMDL
MODEL 8
REMARK VINA RESULT:    -5.292     13.156     15.691
REMARK INTER + INTRA:          -9.709
REMARK INTER:                  -9.174
REMARK INTRA:                  -0.536
REMARK UNBOUND:                -1.168
REMARK SMILES CCCCCCCCC(=O)NCc1ccc(O)c(OC)c1
REMARK SMILES IDX 7 1 6 2 5 3 4 4 3 5 2 6 1 7 8 8 9 9 10 10 11 11 12 13 13 14
REMARK SMILES IDX 21 15 14 16 18 17 15 18 16 19 19 20 20 21 17 22
REMARK H PARENT 11 12 17 23
REMARK Flexibility Score: inf
ROOT
ATOM      1  C   UNL     1      98.082  81.503  77.797  1.00  0.00     0.010 C 
ENDROOT
BRANCH   1   2
ATOM      2  C   UNL     1      98.562  81.317  79.265  1.00  0.00     0.001 C 
BRANCH   2   3
ATOM      3  C   UNL     1      97.425  80.804  80.197  1.00  0.00     0.000 C 
BRANCH   3   4
ATOM      4  C   UNL     1      96.906  81.872  81.201  1.00  0.00    -0.000 C 
BRANCH   4   5
ATOM      5  C   UNL     1      96.281  81.243  82.478  1.00  0.00    -0.000 C 
BRANCH   5   6
ATOM      6  C   UNL     1      96.225  82.239  83.667  1.00  0.00    -0.003 C 
ATOM      7  C   UNL     1      96.068  83.707  83.213  1.00  0.00     0.004 C 
ENDBRANCH   5   6
ENDBRANCH   4   5
ENDBRANCH   3   4
ENDBRANCH   2   3
ENDBRANCH   1   2
BRANCH   1   8
ATOM      8  C   UNL     1      96.648  82.091  77.674  1.00  0.00     0.100 C 
BRANCH   8   9
ATOM      9  C   UNL     1      96.483  82.852  76.413  1.00  0.00     0.220 C 
ATOM     10  O   UNL     1      95.475  83.588  76.289  1.00  0.00    -0.275 OA
ATOM     11  N   UNL     1      97.425  82.774  75.427  1.00  0.00    -0.352 N 
ATOM     12  H   UNL     1      98.147  82.089  75.593  1.00  0.00     0.163 HD
BRANCH  11  13
ATOM     13  C   UNL     1      97.452  83.562  74.233  1.00  0.00     0.151 C 
BRANCH  13  14
ATOM     14  C   UNL     1      98.615  83.276  73.350  1.00  0.00    -0.025 A 
ATOM     15  C   UNL     1      98.924  81.943  72.988  1.00  0.00     0.056 A 
ATOM     16  C   UNL     1      99.431  84.323  72.862  1.00  0.00     0.009 A 
ATOM     17  C   UNL     1     100.016  81.658  72.136  1.00  0.00     0.160 A 
ATOM     18  C   UNL     1     100.517  84.046  72.014  1.00  0.00     0.050 A 
ATOM     19  C   UNL     1     100.818  82.717  71.655  1.00  0.00     0.157 A 
BRANCH  17  20
ATOM     20  O   UNL     1     100.339  80.362  71.821  1.00  0.00    -0.493 OA
ATOM     21  C   UNL     1     100.075  79.417  72.872  1.00  0.00     0.278 C 
ENDBRANCH  17  20
BRANCH  19  22
ATOM     22  O   UNL     1     101.885  82.458  70.858  1.00  0.00    -0.504 OA
ATOM     23  H   UNL     1     101.896  83.079  70.126  1.00  0.00     0.293 HD
ENDBRANCH  19  22
ENDBRANCH  13  14
ENDBRANCH  11  13
ENDBRANCH   8   9
ENDBRANCH   1   8
TORSDOF 11
ENDMDL
MODEL 9
REMARK VINA RESULT:    -5.155     13.611     16.236
REMARK INTER + INTRA:          -9.488
REMARK INTER:                  -7.916
REMARK INTRA:                  -1.572
REMARK UNBOUND:                -1.168
REMARK SMILES CCCCCCCCC(=O)NCc1ccc(O)c(OC)c1
REMARK SMILES IDX 7 1 6 2 5 3 4 4 3 5 2 6 1 7 8 8 9 9 10 10 11 11 12 13 13 14
REMARK SMILES IDX 21 15 14 16 18 17 15 18 16 19 19 20 20 21 17 22
REMARK H PARENT 11 12 17 23
REMARK Flexibility Score: inf
ROOT
ATOM      1  C   UNL     1     101.820  79.954  76.052  1.00  0.00     0.010 C 
ENDROOT
BRANCH   1   2
ATOM      2  C   UNL     1     102.634  80.560  74.873  1.00  0.00     0.001 C 
BRANCH   2   3
ATOM      3  C   UNL     1     101.726  81.314  73.857  1.00  0.00     0.000 C 
BRANCH   3   4
ATOM      4  C   UNL     1     100.599  82.152  74.524  1.00  0.00    -0.000 C 
BRANCH   4   5
ATOM      5  C   UNL     1     100.727  83.673  74.227  1.00  0.00    -0.000 C 
BRANCH   5   6
ATOM      6  C   UNL     1     100.819  83.978  72.708  1.00  0.00    -0.003 C 
ATOM      7  C   UNL     1      99.559  84.685  72.160  1.00  0.00     0.004 C 
ENDBRANCH   5   6
ENDBRANCH   4   5
ENDBRANCH   3   4
ENDBRANCH   2   3
ENDBRANCH   1   2
BRANCH   1   8
ATOM      8  C   UNL     1     101.241  78.542  75.757  1.00  0.00     0.100 C 
BRANCH   8   9
ATOM      9  C   UNL     1      99.758  78.554  75.771  1.00  0.00     0.220 C 
ATOM     10  O   UNL     1      99.169  78.128  76.793  1.00  0.00    -0.275 OA
ATOM     11  N   UNL     1      99.058  79.043  74.705  1.00  0.00    -0.352 N 
ATOM     12  H   UNL     1      99.627  79.278  73.905  1.00  0.00     0.163 HD
BRANCH  11  13
ATOM     13  C   UNL     1      97.641  79.238  74.654  1.00  0.00     0.151 C 
BRANCH  13  14
ATOM     14  C   UNL     1      97.215  80.633  74.946  1.00  0.00    -0.025 A 
ATOM     15  C   UNL     1      96.932  81.027  76.275  1.00  0.00     0.056 A 
ATOM     16  C   UNL     1      97.081  81.584  73.908  1.00  0.00     0.009 A 
ATOM     17  C   UNL     1      96.543  82.354  76.570  1.00  0.00     0.160 A 
ATOM     18  C   UNL     1      96.695  82.905  74.195  1.00  0.00     0.050 A 
ATOM     19  C   UNL     1      96.418  83.292  75.520  1.00  0.00     0.157 A 
BRANCH  17  20
ATOM     20  O   UNL     1      96.228  82.724  77.854  1.00  0.00    -0.493 OA
ATOM     21  C   UNL     1      96.982  82.034  78.866  1.00  0.00     0.278 C 
ENDBRANCH  17  20
BRANCH  19  22
ATOM     22  O   UNL     1      96.019  84.563  75.784  1.00  0.00    -0.504 OA
ATOM     23  H   UNL     1      96.208  84.774  76.701  1.00  0.00     0.293 HD
ENDBRANCH  19  22
ENDBRANCH  13  14
ENDBRANCH  11  13
ENDBRANCH   8   9
ENDBRANCH   1   8
TORSDOF 11
ENDMDL
MODEL 10
REMARK VINA RESULT:    -5.124      3.384      5.083
REMARK INTER + INTRA:          -9.438
REMARK INTER:                  -8.558
REMARK INTRA:                  -0.880
REMARK UNBOUND:                -1.168
REMARK SMILES CCCCCCCCC(=O)NCc1ccc(O)c(OC)c1
REMARK SMILES IDX 7 1 6 2 5 3 4 4 3 5 2 6 1 7 8 8 9 9 10 10 11 11 12 13 13 14
REMARK SMILES IDX 21 15 14 16 18 17 15 18 16 19 19 20 20 21 17 22
REMARK H PARENT 11 12 17 23
REMARK Flexibility Score: inf
ROOT
ATOM      1  C   UNL     1      95.414  93.571  77.811  1.00  0.00     0.010 C 
ENDROOT
BRANCH   1   2
ATOM      2  C   UNL     1      94.792  94.918  77.342  1.00  0.00     0.001 C 
BRANCH   2   3
ATOM      3  C   UNL     1      93.362  95.138  77.917  1.00  0.00     0.000 C 
BRANCH   3   4
ATOM      4  C   UNL     1      92.381  95.811  76.917  1.00  0.00    -0.000 C 
BRANCH   4   5
ATOM      5  C   UNL     1      90.988  95.120  76.883  1.00  0.00    -0.000 C 
BRANCH   5   6
ATOM      6  C   UNL     1      91.087  93.595  76.609  1.00  0.00    -0.003 C 
ATOM      7  C   UNL     1      90.288  92.749  77.625  1.00  0.00     0.004 C 
ENDBRANCH   5   6
ENDBRANCH   4   5
ENDBRANCH   3   4
ENDBRANCH   2   3
ENDBRANCH   1   2
BRANCH   1   8
ATOM      8  C   UNL     1      94.720  92.958  79.059  1.00  0.00     0.100 C 
BRANCH   8   9
ATOM      9  C   UNL     1      95.562  93.104  80.271  1.00  0.00     0.220 C 
ATOM     10  O   UNL     1      95.211  92.504  81.315  1.00  0.00    -0.275 OA
ATOM     11  N   UNL     1      96.704  93.850  80.237  1.00  0.00    -0.352 N 
ATOM     12  H   UNL     1      96.845  94.358  79.376  1.00  0.00     0.163 HD
BRANCH  11  13
ATOM     13  C   UNL     1      97.668  93.952  81.290  1.00  0.00     0.151 C 
BRANCH  13  14
ATOM     14  C   UNL     1      98.823  94.832  80.965  1.00  0.00    -0.025 A 
ATOM     15  C   UNL     1      99.599  95.401  82.002  1.00  0.00     0.056 A 
ATOM     16  C   UNL     1      99.162  95.119  79.622  1.00  0.00     0.009 A 
ATOM     17  C   UNL     1     100.710  96.225  81.709  1.00  0.00     0.160 A 
ATOM     18  C   UNL     1     100.267  95.937  79.324  1.00  0.00     0.050 A 
ATOM     19  C   UNL     1     101.037  96.497  80.361  1.00  0.00     0.157 A 
BRANCH  17  20
ATOM     20  O   UNL     1     101.436  96.809  82.716  1.00  0.00    -0.493 OA
ATOM     21  C   UNL     1     102.241  95.888  83.472  1.00  0.00     0.278 C 
ENDBRANCH  17  20
BRANCH  19  22
ATOM     22  O   UNL     1     102.084  97.308  80.063  1.00  0.00    -0.504 OA
ATOM     23  H   UNL     1     102.414  97.095  79.186  1.00  0.00     0.293 HD
ENDBRANCH  19  22
ENDBRANCH  13  14
ENDBRANCH  11  13
ENDBRANCH   8   9
ENDBRANCH   1   8
TORSDOF 11
ENDMDL
