MODEL 1
REMARK VINA RESULT:    -6.763      0.000      0.000
REMARK INTER + INTRA:         -12.998
REMARK INTER:                 -11.507
REMARK INTRA:                  -1.490
REMARK UNBOUND:                -1.490
REMARK SMILES C=C(C)[C@]12C[C@@H](C)[C@@]34O[C@](Cc5ccccc5)(O[C@@H]1[C@@H]3C=C(COC(=O)Cc1ccc(O)cc1)C[C@]1(O)C(=O)C(C)=C[C@@H]41)O2
REMARK SMILES IDX 23 1 22 2 21 3 20 4 9 5 8 6 10 7 6 8 18 10 44 11 19 12 5 13
REMARK SMILES IDX 7 14 4 15 11 16 12 17 13 18 17 19 14 20 16 21 15 22 2 23
REMARK SMILES IDX 3 24 1 25 35 26 36 27 43 28 38 29 42 30 39 32 40 33 41 34
REMARK SMILES IDX 37 35 24 37 25 38 26 39 27 40 28 41 29 42 34 43 30 44 33 45
REMARK SMILES IDX 31 46 32 47
REMARK H PARENT 37 36 32 48
REMARK Flexibility Score: 90.00
ROOT
ATOM      1  C   UNL     1      89.673  98.601  70.404  1.00  0.00     0.264 C 
ENDROOT
BRANCH   1   2
ATOM      2  C   UNL     1      90.659  99.703  70.717  1.00  0.00    -0.033 C 
ATOM      3  C   UNL     1      91.916  99.378  71.082  1.00  0.00    -0.015 C 
BRANCH   3   4
ATOM      4  C   UNL     1      93.059 100.282  71.516  1.00  0.00     0.078 C 
ATOM      5  O   UNL     1      94.371 100.810  69.487  1.00  0.00    -0.319 OA
ATOM      6  C   UNL     1      93.539 101.409  70.529  1.00  0.00     0.095 CG0
ATOM      7  C   UNL     1      95.317  99.825  69.946  1.00  0.00     0.289 C 
ATOM      8  C   UNL     1      94.405 102.440  71.362  1.00  0.00     0.023 C 
ATOM      9  G   UNL     1      92.332 102.019  69.758  1.00  0.00     0.000 G0
ATOM     10  O   UNL     1      94.664  98.760  70.632  1.00  0.00    -0.320 OA
ATOM     11  O   UNL     1      96.254 100.364  70.876  1.00  0.00    -0.313 OA
ATOM     12  C   UNL     1      94.307  99.429  71.852  1.00  0.00     0.170 C 
ATOM     13  C   UNL     1      95.192 101.733  72.507  1.00  0.00     0.049 C 
ATOM     14  C   UNL     1      95.373 103.308  70.540  1.00  0.00     0.011 C 
ATOM     15  C   UNL     1      95.558 100.294  72.138  1.00  0.00     0.122 C 
BRANCH   7  16
ATOM     16  C   UNL     1      96.058  99.280  68.741  1.00  0.00     0.135 C 
BRANCH  16  17
ATOM     17  C   UNL     1      97.344  98.594  69.129  1.00  0.00    -0.040 A 
ATOM     18  C   UNL     1      98.531  99.323  69.194  1.00  0.00     0.004 A 
ATOM     19  C   UNL     1      97.344  97.231  69.423  1.00  0.00     0.004 A 
ATOM     20  C   UNL     1      99.721  98.688  69.554  1.00  0.00     0.000 A 
ATOM     21  C   UNL     1      98.534  96.596  69.783  1.00  0.00     0.000 A 
ATOM     22  C   UNL     1      99.721  97.325  69.848  1.00  0.00     0.000 A 
ENDBRANCH  16  17
ENDBRANCH   7  16
BRANCH  15  23
ATOM     23  C   UNL     1      96.465  99.657  73.140  1.00  0.00    -0.046 C 
ATOM     24  C   UNL     1      96.780  98.207  72.919  1.00  0.00     0.042 C 
ATOM     25  C   UNL     1      96.969 100.342  74.177  1.00  0.00     0.010 C 
ENDBRANCH  15  23
ENDBRANCH   3   4
BRANCH   2  26
ATOM     26  C   UNL     1      90.069 101.092  70.560  1.00  0.00     0.078 C 
BRANCH  26  27
ATOM     27  C   UNL     1      91.041 102.270  70.587  1.00  0.00     0.140 C 
ATOM     28  C   UNL     1      92.311 101.998  69.753  1.00  0.00     0.086 CG0
ATOM     29  C   UNL     1      90.474 103.506  69.920  1.00  0.00     0.190 C 
ATOM     30  C   UNL     1      92.487 103.263  68.960  1.00  0.00    -0.010 C 
ATOM     31  G   UNL     1      93.525 101.407  70.527  1.00  0.00     0.000 G0
ATOM     32  O   UNL     1      89.367 103.978  70.131  1.00  0.00    -0.291 OA
ATOM     33  C   UNL     1      91.460 104.117  69.010  1.00  0.00    -0.008 C 
ATOM     34  C   UNL     1      91.254 105.399  68.304  1.00  0.00     0.048 C 
BRANCH  27  35
ATOM     35  O   UNL     1      91.307 102.694  71.913  1.00  0.00    -0.381 OA
ATOM     36  H   UNL     1      90.597 103.297  72.190  1.00  0.00     0.212 HD
ENDBRANCH  27  35
ENDBRANCH  26  27
ENDBRANCH   2  26
ENDBRANCH   1   2
BRANCH   1  37
ATOM     37  O   UNL     1      89.098  98.836  69.136  1.00  0.00    -0.461 OA
BRANCH  37  38
ATOM     38  C   UNL     1      89.635  98.128  68.085  1.00  0.00     0.310 C 
ATOM     39  O   UNL     1      90.558  97.331  68.174  1.00  0.00    -0.252 OA
BRANCH  38  40
ATOM     40  C   UNL     1      88.910  98.490  66.812  1.00  0.00     0.158 C 
BRANCH  40  41
ATOM     41  C   UNL     1      88.655  99.969  66.680  1.00  0.00    -0.037 A 
ATOM     42  C   UNL     1      87.349 100.444  66.558  1.00  0.00     0.008 A 
ATOM     43  C   UNL     1      89.724 100.865  66.681  1.00  0.00     0.008 A 
ATOM     44  C   UNL     1      87.112 101.814  66.436  1.00  0.00     0.046 A 
ATOM     45  C   UNL     1      89.488 102.235  66.559  1.00  0.00     0.046 A 
ATOM     46  C   UNL     1      88.183 102.709  66.436  1.00  0.00     0.115 A 
BRANCH  46  47
ATOM     47  O   UNL     1      87.952 104.045  66.316  1.00  0.00    -0.508 OA
ATOM     48  H   UNL     1      88.009 104.455  67.197  1.00  0.00     0.293 HD
ENDBRANCH  46  47
ENDBRANCH  40  41
ENDBRANCH  38  40
ENDBRANCH  37  38
ENDBRANCH   1  37
TORSDOF 10
ENDMDL
MODEL 2
REMARK VINA RESULT:    -6.621     22.383     25.888
REMARK INTER + INTRA:         -12.756
REMARK INTER:                 -12.626
REMARK INTRA:                  -0.131
REMARK UNBOUND:                -1.490
REMARK SMILES C=C(C)[C@]12C[C@@H](C)[C@@]34O[C@](Cc5ccccc5)(O[C@@H]1[C@@H]3C=C(COC(=O)Cc1ccc(O)cc1)C[C@]1(O)C(=O)C(C)=C[C@@H]41)O2
REMARK SMILES IDX 23 1 22 2 21 3 20 4 9 5 8 6 10 7 6 8 18 10 44 11 19 12 5 13
REMARK SMILES IDX 7 14 4 15 11 16 12 17 13 18 17 19 14 20 16 21 15 22 2 23
REMARK SMILES IDX 3 24 1 25 35 26 36 27 43 28 38 29 42 30 39 32 40 33 41 34
REMARK SMILES IDX 37 35 24 37 25 38 26 39 27 40 28 41 29 42 34 43 30 44 33 45
REMARK SMILES IDX 31 46 32 47
REMARK H PARENT 37 36 32 48
REMARK Flexibility Score: 90.00
ROOT
ATOM      1  C   UNL     1      96.076  81.451  83.529  1.00  0.00     0.264 C 
ENDROOT
BRANCH   1   2
ATOM      2  C   UNL     1      94.928  81.912  84.397  1.00  0.00    -0.033 C 
ATOM      3  C   UNL     1      93.749  81.259  84.332  1.00  0.00    -0.015 C 
BRANCH   3   4
ATOM      4  C   UNL     1      92.436  81.566  85.034  1.00  0.00     0.078 C 
ATOM      5  O   UNL     1      92.432  80.283  87.148  1.00  0.00    -0.319 OA
ATOM      6  C   UNL     1      92.426  81.640  86.605  1.00  0.00     0.095 CG0
ATOM      7  C   UNL     1      91.561  79.349  86.481  1.00  0.00     0.289 C 
ATOM      8  C   UNL     1      91.092  82.373  87.043  1.00  0.00     0.023 C 
ATOM      9  G   UNL     1      93.744  82.276  87.137  1.00  0.00     0.000 G0
ATOM     10  O   UNL     1      91.871  79.252  85.093  1.00  0.00    -0.320 OA
ATOM     11  O   UNL     1      90.193  79.745  86.542  1.00  0.00    -0.313 OA
ATOM     12  C   UNL     1      91.368  80.517  84.634  1.00  0.00     0.170 C 
ATOM     13  C   UNL     1      89.919  82.060  86.064  1.00  0.00     0.049 C 
ATOM     14  C   UNL     1      90.634  82.108  88.487  1.00  0.00     0.011 C 
ATOM     15  C   UNL     1      90.057  80.669  85.443  1.00  0.00     0.122 C 
BRANCH   7  16
ATOM     16  C   UNL     1      91.724  77.994  87.139  1.00  0.00     0.135 C 
BRANCH  16  17
ATOM     17  C   UNL     1      90.573  77.070  86.826  1.00  0.00    -0.040 A 
ATOM     18  C   UNL     1      90.561  76.350  85.632  1.00  0.00     0.004 A 
ATOM     19  C   UNL     1      89.521  76.937  87.732  1.00  0.00     0.004 A 
ATOM     20  C   UNL     1      89.497  75.495  85.343  1.00  0.00     0.000 A 
ATOM     21  C   UNL     1      88.457  76.082  87.443  1.00  0.00     0.000 A 
ATOM     22  C   UNL     1      88.445  75.362  86.249  1.00  0.00     0.000 A 
ENDBRANCH  16  17
ENDBRANCH   7  16
BRANCH  15  23
ATOM     23  C   UNL     1      88.856  80.276  84.644  1.00  0.00    -0.046 C 
ATOM     24  C   UNL     1      89.029  79.105  83.723  1.00  0.00     0.042 C 
ATOM     25  C   UNL     1      87.691  80.933  84.746  1.00  0.00     0.010 C 
ENDBRANCH  15  23
ENDBRANCH   3   4
BRANCH   2  26
ATOM     26  C   UNL     1      95.281  83.100  85.271  1.00  0.00     0.078 C 
BRANCH  26  27
ATOM     27  C   UNL     1      94.258  83.521  86.324  1.00  0.00     0.140 C 
ATOM     28  C   UNL     1      93.736  82.323  87.144  1.00  0.00     0.086 CG0
ATOM     29  C   UNL     1      94.858  84.410  87.394  1.00  0.00     0.190 C 
ATOM     30  C   UNL     1      93.796  82.816  88.562  1.00  0.00    -0.010 C 
ATOM     31  G   UNL     1      92.432  81.652  86.623  1.00  0.00     0.000 G0
ATOM     32  O   UNL     1      95.554  85.393  87.189  1.00  0.00    -0.291 OA
ATOM     33  C   UNL     1      94.444  83.971  88.740  1.00  0.00    -0.008 C 
ATOM     34  C   UNL     1      94.764  84.701  89.984  1.00  0.00     0.048 C 
BRANCH  27  35
ATOM     35  O   UNL     1      93.231  84.319  85.759  1.00  0.00    -0.381 OA
ATOM     36  H   UNL     1      92.376  83.894  85.943  1.00  0.00     0.212 HD
ENDBRANCH  27  35
ENDBRANCH  26  27
ENDBRANCH   2  26
ENDBRANCH   1   2
BRANCH   1  37
ATOM     37  O   UNL     1      95.837  80.126  83.104  1.00  0.00    -0.461 OA
BRANCH  37  38
ATOM     38  C   UNL     1      96.675  79.641  82.127  1.00  0.00     0.310 C 
ATOM     39  O   UNL     1      96.730  78.474  81.765  1.00  0.00    -0.252 OA
BRANCH  38  40
ATOM     40  C   UNL     1      97.512  80.770  81.575  1.00  0.00     0.158 C 
BRANCH  40  41
ATOM     41  C   UNL     1      97.474  80.849  80.071  1.00  0.00    -0.037 A 
ATOM     42  C   UNL     1      97.894  79.762  79.304  1.00  0.00     0.008 A 
ATOM     43  C   UNL     1      97.019  82.008  79.444  1.00  0.00     0.008 A 
ATOM     44  C   UNL     1      97.860  79.835  77.911  1.00  0.00     0.046 A 
ATOM     45  C   UNL     1      96.983  82.082  78.051  1.00  0.00     0.046 A 
ATOM     46  C   UNL     1      97.404  80.995  77.285  1.00  0.00     0.115 A 
BRANCH  46  47
ATOM     47  O   UNL     1      97.371  81.066  75.926  1.00  0.00    -0.508 OA
ATOM     48  H   UNL     1      97.826  81.878  75.642  1.00  0.00     0.293 HD
ENDBRANCH  46  47
ENDBRANCH  40  41
ENDBRANCH  38  40
ENDBRANCH  37  38
ENDBRANCH   1  37
TORSDOF 10
ENDMDL
MODEL 3
REMARK VINA RESULT:    -6.525      3.676      8.152
REMARK INTER + INTRA:         -12.593
REMARK INTER:                 -11.985
REMARK INTRA:                  -0.608
REMARK UNBOUND:                -1.490
REMARK SMILES C=C(C)[C@]12C[C@@H](C)[C@@]34O[C@](Cc5ccccc5)(O[C@@H]1[C@@H]3C=C(COC(=O)Cc1ccc(O)cc1)C[C@]1(O)C(=O)C(C)=C[C@@H]41)O2
REMARK SMILES IDX 23 1 22 2 21 3 20 4 9 5 8 6 10 7 6 8 18 10 44 11 19 12 5 13
REMARK SMILES IDX 7 14 4 15 11 16 12 17 13 18 17 19 14 20 16 21 15 22 2 23
REMARK SMILES IDX 3 24 1 25 35 26 36 27 43 28 38 29 42 30 39 32 40 33 41 34
REMARK SMILES IDX 37 35 24 37 25 38 26 39 27 40 28 41 29 42 34 43 30 44 33 45
REMARK SMILES IDX 31 46 32 47
REMARK H PARENT 37 36 32 48
REMARK Flexibility Score: 90.00
ROOT
ATOM      1  C   UNL     1      95.830  99.540  74.168  1.00  0.00     0.264 C 
ENDROOT
BRANCH   1   2
ATOM      2  C   UNL     1      95.017 100.752  73.775  1.00  0.00    -0.033 C 
ATOM      3  C   UNL     1      94.410 100.776  72.570  1.00  0.00    -0.015 C 
BRANCH   3   4
ATOM      4  C   UNL     1      93.610 101.891  71.915  1.00  0.00     0.078 C 
ATOM      5  O   UNL     1      91.235 101.502  72.483  1.00  0.00    -0.319 OA
ATOM      6  C   UNL     1      92.341 102.440  72.664  1.00  0.00     0.095 CG0
ATOM      7  C   UNL     1      91.093 100.967  71.153  1.00  0.00     0.289 C 
ATOM      8  C   UNL     1      91.961 103.831  72.006  1.00  0.00     0.023 C 
ATOM      9  G   UNL     1      92.576 102.471  74.203  1.00  0.00     0.000 G0
ATOM     10  O   UNL     1      92.283 100.307  70.731  1.00  0.00    -0.320 OA
ATOM     11  O   UNL     1      90.851 101.984  70.183  1.00  0.00    -0.313 OA
ATOM     12  C   UNL     1      93.135 101.442  70.511  1.00  0.00     0.170 C 
ATOM     13  C   UNL     1      92.293 103.853  70.483  1.00  0.00     0.049 C 
ATOM     14  C   UNL     1      90.506 104.286  72.217  1.00  0.00     0.011 C 
ATOM     15  C   UNL     1      92.173 102.463  69.857  1.00  0.00     0.122 C 
BRANCH   7  16
ATOM     16  C   UNL     1      89.936  99.988  71.156  1.00  0.00     0.135 C 
BRANCH  16  17
ATOM     17  C   UNL     1      89.717  99.366  69.800  1.00  0.00    -0.040 A 
ATOM     18  C   UNL     1      89.983  98.011  69.602  1.00  0.00     0.004 A 
ATOM     19  C   UNL     1      89.249 100.146  68.743  1.00  0.00     0.004 A 
ATOM     20  C   UNL     1      89.780  97.436  68.347  1.00  0.00     0.000 A 
ATOM     21  C   UNL     1      89.046  99.571  67.488  1.00  0.00     0.000 A 
ATOM     22  C   UNL     1      89.311  98.216  67.291  1.00  0.00     0.000 A 
ENDBRANCH  16  17
ENDBRANCH   7  16
BRANCH  15  23
ATOM     23  C   UNL     1      92.309 102.489  68.369  1.00  0.00    -0.046 C 
ATOM     24  C   UNL     1      91.189 103.142  67.614  1.00  0.00     0.042 C 
ATOM     25  C   UNL     1      93.371 101.960  67.745  1.00  0.00     0.010 C 
ENDBRANCH  15  23
ENDBRANCH   3   4
BRANCH   2  26
ATOM     26  C   UNL     1      94.989 101.824  74.849  1.00  0.00     0.078 C 
BRANCH  26  27
ATOM     27  C   UNL     1      93.985 102.961  74.673  1.00  0.00     0.140 C 
ATOM     28  C   UNL     1      92.605 102.454  74.204  1.00  0.00     0.086 CG0
ATOM     29  C   UNL     1      93.651 103.647  75.981  1.00  0.00     0.190 C 
ATOM     30  C   UNL     1      91.642 103.183  75.099  1.00  0.00    -0.010 C 
ATOM     31  G   UNL     1      92.364 102.447  72.667  1.00  0.00     0.000 G0
ATOM     32  O   UNL     1      94.467 104.042  76.801  1.00  0.00    -0.291 OA
ATOM     33  C   UNL     1      92.196 103.839  76.123  1.00  0.00    -0.008 C 
ATOM     34  C   UNL     1      91.562 104.584  77.230  1.00  0.00     0.048 C 
BRANCH  27  35
ATOM     35  O   UNL     1      94.515 104.002  73.870  1.00  0.00    -0.381 OA
ATOM     36  H   UNL     1      93.792 104.380  73.341  1.00  0.00     0.212 HD
ENDBRANCH  27  35
ENDBRANCH  26  27
ENDBRANCH   2  26
ENDBRANCH   1   2
BRANCH   1  37
ATOM     37  O   UNL     1      94.964  98.529  74.637  1.00  0.00    -0.461 OA
BRANCH  37  38
ATOM     38  C   UNL     1      95.030  97.320  73.984  1.00  0.00     0.310 C 
ATOM     39  O   UNL     1      96.004  96.905  73.372  1.00  0.00    -0.252 OA
BRANCH  38  40
ATOM     40  C   UNL     1      93.717  96.591  74.139  1.00  0.00     0.158 C 
BRANCH  40  41
ATOM     41  C   UNL     1      93.683  95.693  75.348  1.00  0.00    -0.037 A 
ATOM     42  C   UNL     1      94.436  94.520  75.367  1.00  0.00     0.008 A 
ATOM     43  C   UNL     1      92.898  96.035  76.449  1.00  0.00     0.008 A 
ATOM     44  C   UNL     1      94.404  93.687  76.487  1.00  0.00     0.046 A 
ATOM     45  C   UNL     1      92.866  95.203  77.569  1.00  0.00     0.046 A 
ATOM     46  C   UNL     1      93.618  94.030  77.588  1.00  0.00     0.115 A 
BRANCH  46  47
ATOM     47  O   UNL     1      93.587  93.218  78.679  1.00  0.00    -0.508 OA
ATOM     48  H   UNL     1      94.494  92.936  78.889  1.00  0.00     0.293 HD
ENDBRANCH  46  47
ENDBRANCH  40  41
ENDBRANCH  38  40
ENDBRANCH  37  38
ENDBRANCH   1  37
TORSDOF 10
ENDMDL
MODEL 4
REMARK VINA RESULT:    -6.334      4.555      9.424
REMARK INTER + INTRA:         -12.268
REMARK INTER:                 -11.379
REMARK INTRA:                  -0.889
REMARK UNBOUND:                -1.490
REMARK SMILES C=C(C)[C@]12C[C@@H](C)[C@@]34O[C@](Cc5ccccc5)(O[C@@H]1[C@@H]3C=C(COC(=O)Cc1ccc(O)cc1)C[C@]1(O)C(=O)C(C)=C[C@@H]41)O2
REMARK SMILES IDX 23 1 22 2 21 3 20 4 9 5 8 6 10 7 6 8 18 10 44 11 19 12 5 13
REMARK SMILES IDX 7 14 4 15 11 16 12 17 13 18 17 19 14 20 16 21 15 22 2 23
REMARK SMILES IDX 3 24 1 25 35 26 36 27 43 28 38 29 42 30 39 32 40 33 41 34
REMARK SMILES IDX 37 35 24 37 25 38 26 39 27 40 28 41 29 42 34 43 30 44 33 45
REMARK SMILES IDX 31 46 32 47
REMARK H PARENT 37 36 32 48
REMARK Flexibility Score: 90.00
ROOT
ATOM      1  C   UNL     1      94.138  95.413  74.302  1.00  0.00     0.264 C 
ENDROOT
BRANCH   1   2
ATOM      2  C   UNL     1      95.364  96.268  74.081  1.00  0.00    -0.033 C 
ATOM      3  C   UNL     1      95.664  96.680  72.831  1.00  0.00    -0.015 C 
BRANCH   3   4
ATOM      4  C   UNL     1      96.864  97.472  72.338  1.00  0.00     0.078 C 
ATOM      5  O   UNL     1      96.221  99.859  72.387  1.00  0.00    -0.319 OA
ATOM      6  C   UNL     1      97.140  98.885  72.972  1.00  0.00     0.095 CG0
ATOM      7  C   UNL     1      96.033  99.750  70.963  1.00  0.00     0.289 C 
ATOM      8  C   UNL     1      98.630  99.289  72.614  1.00  0.00     0.023 C 
ATOM      9  G   UNL     1      96.794  98.888  74.489  1.00  0.00     0.000 G0
ATOM     10  O   UNL     1      95.564  98.454  70.601  1.00  0.00    -0.320 OA
ATOM     11  O   UNL     1      97.248  99.935  70.239  1.00  0.00    -0.313 OA
ATOM     12  C   UNL     1      96.760  97.687  70.808  1.00  0.00     0.170 C 
ATOM     13  C   UNL     1      99.053  98.734  71.219  1.00  0.00     0.049 C 
ATOM     14  C   UNL     1      98.941 100.794  72.679  1.00  0.00     0.011 C 
ATOM     15  C   UNL     1      97.862  98.630  70.266  1.00  0.00     0.122 C 
BRANCH   7  16
ATOM     16  C   UNL     1      95.026 100.798  70.535  1.00  0.00     0.135 C 
BRANCH  16  17
ATOM     17  C   UNL     1      93.609 100.288  70.615  1.00  0.00    -0.040 A 
ATOM     18  C   UNL     1      93.018 100.059  71.857  1.00  0.00     0.004 A 
ATOM     19  C   UNL     1      92.889 100.046  69.445  1.00  0.00     0.004 A 
ATOM     20  C   UNL     1      91.707  99.587  71.930  1.00  0.00     0.000 A 
ATOM     21  C   UNL     1      91.578  99.574  69.518  1.00  0.00     0.000 A 
ATOM     22  C   UNL     1      90.988  99.345  70.761  1.00  0.00     0.000 A 
ENDBRANCH  16  17
ENDBRANCH   7  16
BRANCH  15  23
ATOM     23  C   UNL     1      98.270  98.274  68.873  1.00  0.00    -0.046 C 
ATOM     24  C   UNL     1      97.200  98.366  67.826  1.00  0.00     0.042 C 
ATOM     25  C   UNL     1      99.522  97.895  68.576  1.00  0.00     0.010 C 
ENDBRANCH  15  23
ENDBRANCH   3   4
BRANCH   2  26
ATOM     26  C   UNL     1      96.122  96.565  75.361  1.00  0.00     0.078 C 
BRANCH  26  27
ATOM     27  C   UNL     1      97.220  97.625  75.292  1.00  0.00     0.140 C 
ATOM     28  C   UNL     1      96.782  98.867  74.489  1.00  0.00     0.086 CG0
ATOM     29  C   UNL     1      97.544  98.213  76.649  1.00  0.00     0.190 C 
ATOM     30  C   UNL     1      97.222 100.016  75.353  1.00  0.00    -0.010 C 
ATOM     31  G   UNL     1      97.146  98.868  72.975  1.00  0.00     0.000 G0
ATOM     32  O   UNL     1      97.760  97.571  77.666  1.00  0.00    -0.291 OA
ATOM     33  C   UNL     1      97.628  99.684  76.583  1.00  0.00    -0.008 C 
ATOM     34  C   UNL     1      98.045 100.543  77.711  1.00  0.00     0.048 C 
BRANCH  27  35
ATOM     35  O   UNL     1      98.451  97.069  74.862  1.00  0.00    -0.381 OA
ATOM     36  H   UNL     1      98.937  97.748  74.364  1.00  0.00     0.212 HD
ENDBRANCH  27  35
ENDBRANCH  26  27
ENDBRANCH   2  26
ENDBRANCH   1   2
BRANCH   1  37
ATOM     37  O   UNL     1      94.381  94.514  75.363  1.00  0.00    -0.461 OA
BRANCH  37  38
ATOM     38  C   UNL     1      93.281  94.119  76.088  1.00  0.00     0.310 C 
ATOM     39  O   UNL     1      92.498  93.241  75.754  1.00  0.00    -0.252 OA
BRANCH  38  40
ATOM     40  C   UNL     1      93.193  94.935  77.355  1.00  0.00     0.158 C 
BRANCH  40  41
ATOM     41  C   UNL     1      94.260  94.580  78.358  1.00  0.00    -0.037 A 
ATOM     42  C   UNL     1      94.379  93.266  78.814  1.00  0.00     0.008 A 
ATOM     43  C   UNL     1      95.127  95.563  78.832  1.00  0.00     0.008 A 
ATOM     44  C   UNL     1      95.366  92.937  79.744  1.00  0.00     0.046 A 
ATOM     45  C   UNL     1      96.115  95.234  79.761  1.00  0.00     0.046 A 
ATOM     46  C   UNL     1      96.234  93.922  80.217  1.00  0.00     0.115 A 
BRANCH  46  47
ATOM     47  O   UNL     1      97.197  93.601  81.124  1.00  0.00    -0.508 OA
ATOM     48  H   UNL     1      97.225  92.634  81.225  1.00  0.00     0.293 HD
ENDBRANCH  46  47
ENDBRANCH  40  41
ENDBRANCH  38  40
ENDBRANCH  37  38
ENDBRANCH   1  37
TORSDOF 10
ENDMDL
MODEL 5
REMARK VINA RESULT:    -6.250      3.897      8.802
REMARK INTER + INTRA:         -12.124
REMARK INTER:                 -12.093
REMARK INTRA:                  -0.031
REMARK UNBOUND:                -1.490
REMARK SMILES C=C(C)[C@]12C[C@@H](C)[C@@]34O[C@](Cc5ccccc5)(O[C@@H]1[C@@H]3C=C(COC(=O)Cc1ccc(O)cc1)C[C@]1(O)C(=O)C(C)=C[C@@H]41)O2
REMARK SMILES IDX 23 1 22 2 21 3 20 4 9 5 8 6 10 7 6 8 18 10 44 11 19 12 5 13
REMARK SMILES IDX 7 14 4 15 11 16 12 17 13 18 17 19 14 20 16 21 15 22 2 23
REMARK SMILES IDX 3 24 1 25 35 26 36 27 43 28 38 29 42 30 39 32 40 33 41 34
REMARK SMILES IDX 37 35 24 37 25 38 26 39 27 40 28 41 29 42 34 43 30 44 33 45
REMARK SMILES IDX 31 46 32 47
REMARK H PARENT 37 36 32 48
REMARK Flexibility Score: 90.00
ROOT
ATOM      1  C   UNL     1      93.715  98.478  74.086  1.00  0.00     0.264 C 
ENDROOT
BRANCH   1   2
ATOM      2  C   UNL     1      93.734  99.078  72.700  1.00  0.00    -0.033 C 
ATOM      3  C   UNL     1      92.566  99.326  72.072  1.00  0.00    -0.015 C 
BRANCH   3   4
ATOM      4  C   UNL     1      92.318  99.847  70.665  1.00  0.00     0.078 C 
ATOM      5  O   UNL     1      92.094 102.304  70.836  1.00  0.00    -0.319 OA
ATOM      6  C   UNL     1      92.923 101.244  70.267  1.00  0.00     0.095 CG0
ATOM      7  C   UNL     1      90.672 102.096  70.734  1.00  0.00     0.289 C 
ATOM      8  C   UNL     1      92.892 101.346  68.686  1.00  0.00     0.023 C 
ATOM      9  G   UNL     1      94.320 101.449  70.922  1.00  0.00     0.000 G0
ATOM     10  O   UNL     1      90.282 100.874  71.353  1.00  0.00    -0.320 OA
ATOM     11  O   UNL     1      90.235 101.999  69.380  1.00  0.00    -0.313 OA
ATOM     12  C   UNL     1      90.795  99.933  70.397  1.00  0.00     0.170 C 
ATOM     13  C   UNL     1      91.661 100.598  68.089  1.00  0.00     0.049 C 
ATOM     14  C   UNL     1      92.947 102.774  68.115  1.00  0.00     0.011 C 
ATOM     15  C   UNL     1      90.468 100.615  69.046  1.00  0.00     0.122 C 
BRANCH   7  16
ATOM     16  C   UNL     1      89.972 103.260  71.407  1.00  0.00     0.135 C 
BRANCH  16  17
ATOM     17  C   UNL     1      90.208 103.276  72.897  1.00  0.00    -0.040 A 
ATOM     18  C   UNL     1      91.489 103.501  73.399  1.00  0.00     0.004 A 
ATOM     19  C   UNL     1      89.142 103.066  73.772  1.00  0.00     0.004 A 
ATOM     20  C   UNL     1      91.706 103.517  74.777  1.00  0.00     0.000 A 
ATOM     21  C   UNL     1      89.359 103.082  75.151  1.00  0.00     0.000 A 
ATOM     22  C   UNL     1      90.641 103.307  75.653  1.00  0.00     0.000 A 
ENDBRANCH  16  17
ENDBRANCH   7  16
BRANCH  15  23
ATOM     23  C   UNL     1      89.226 100.065  68.425  1.00  0.00    -0.046 C 
ATOM     24  C   UNL     1      88.430 101.017  67.582  1.00  0.00     0.042 C 
ATOM     25  C   UNL     1      88.843  98.793  68.611  1.00  0.00     0.010 C 
ENDBRANCH  15  23
ENDBRANCH   3   4
BRANCH   2  26
ATOM     26  C   UNL     1      95.137  99.339  72.183  1.00  0.00     0.078 C 
BRANCH  26  27
ATOM     27  C   UNL     1      95.269 100.188  70.920  1.00  0.00     0.140 C 
ATOM     28  C   UNL     1      94.332 101.413  70.940  1.00  0.00     0.086 CG0
ATOM     29  C   UNL     1      96.636 100.826  70.791  1.00  0.00     0.190 C 
ATOM     30  C   UNL     1      95.220 102.540  70.491  1.00  0.00    -0.010 C 
ATOM     31  G   UNL     1      92.941 101.223  70.267  1.00  0.00     0.000 G0
ATOM     32  O   UNL     1      97.704 100.246  70.919  1.00  0.00    -0.291 OA
ATOM     33  C   UNL     1      96.523 102.251  70.425  1.00  0.00    -0.008 C 
ATOM     34  C   UNL     1      97.675 103.119  70.108  1.00  0.00     0.048 C 
BRANCH  27  35
ATOM     35  O   UNL     1      95.154  99.397  69.750  1.00  0.00    -0.381 OA
ATOM     36  H   UNL     1      95.289  99.971  68.977  1.00  0.00     0.212 HD
ENDBRANCH  27  35
ENDBRANCH  26  27
ENDBRANCH   2  26
ENDBRANCH   1   2
BRANCH   1  37
ATOM     37  O   UNL     1      93.785  97.072  73.987  1.00  0.00    -0.461 OA
BRANCH  37  38
ATOM     38  C   UNL     1      93.312  96.362  75.067  1.00  0.00     0.310 C 
ATOM     39  O   UNL     1      92.562  96.805  75.925  1.00  0.00    -0.252 OA
BRANCH  38  40
ATOM     40  C   UNL     1      93.863  94.956  75.025  1.00  0.00     0.158 C 
BRANCH  40  41
ATOM     41  C   UNL     1      93.951  94.320  76.388  1.00  0.00    -0.037 A 
ATOM     42  C   UNL     1      92.789  93.932  77.054  1.00  0.00     0.008 A 
ATOM     43  C   UNL     1      95.196  94.118  76.984  1.00  0.00     0.008 A 
ATOM     44  C   UNL     1      92.871  93.343  78.316  1.00  0.00     0.046 A 
ATOM     45  C   UNL     1      95.279  93.529  78.246  1.00  0.00     0.046 A 
ATOM     46  C   UNL     1      94.116  93.142  78.912  1.00  0.00     0.115 A 
BRANCH  46  47
ATOM     47  O   UNL     1      94.196  92.568  80.143  1.00  0.00    -0.508 OA
ATOM     48  H   UNL     1      94.655  91.713  80.064  1.00  0.00     0.293 HD
ENDBRANCH  46  47
ENDBRANCH  40  41
ENDBRANCH  38  40
ENDBRANCH  37  38
ENDBRANCH   1  37
TORSDOF 10
ENDMDL
MODEL 6
REMARK VINA RESULT:    -6.232      1.842      3.046
REMARK INTER + INTRA:         -12.094
REMARK INTER:                 -11.181
REMARK INTRA:                  -0.913
REMARK UNBOUND:                -1.490
REMARK SMILES C=C(C)[C@]12C[C@@H](C)[C@@]34O[C@](Cc5ccccc5)(O[C@@H]1[C@@H]3C=C(COC(=O)Cc1ccc(O)cc1)C[C@]1(O)C(=O)C(C)=C[C@@H]41)O2
REMARK SMILES IDX 23 1 22 2 21 3 20 4 9 5 8 6 10 7 6 8 18 10 44 11 19 12 5 13
REMARK SMILES IDX 7 14 4 15 11 16 12 17 13 18 17 19 14 20 16 21 15 22 2 23
REMARK SMILES IDX 3 24 1 25 35 26 36 27 43 28 38 29 42 30 39 32 40 33 41 34
REMARK SMILES IDX 37 35 24 37 25 38 26 39 27 40 28 41 29 42 34 43 30 44 33 45
REMARK SMILES IDX 31 46 32 47
REMARK H PARENT 37 36 32 48
REMARK Flexibility Score: 90.00
ROOT
ATOM      1  C   UNL     1      90.574  99.808  69.975  1.00  0.00     0.264 C 
ENDROOT
BRANCH   1   2
ATOM      2  C   UNL     1      91.827 100.634  70.154  1.00  0.00    -0.033 C 
ATOM      3  C   UNL     1      92.385 100.727  71.378  1.00  0.00    -0.015 C 
BRANCH   3   4
ATOM      4  C   UNL     1      93.585 101.544  71.832  1.00  0.00     0.078 C 
ATOM      5  O   UNL     1      95.566 100.074  71.656  1.00  0.00    -0.319 OA
ATOM      6  C   UNL     1      94.968 101.298  71.126  1.00  0.00     0.095 CG0
ATOM      7  C   UNL     1      95.463  99.908  73.084  1.00  0.00     0.289 C 
ATOM      8  C   UNL     1      95.906 102.528  71.467  1.00  0.00     0.023 C 
ATOM      9  G   UNL     1      94.771 101.008  69.609  1.00  0.00     0.000 G0
ATOM     10  O   UNL     1      94.104  99.937  73.512  1.00  0.00    -0.320 OA
ATOM     11  O   UNL     1      96.115 100.954  73.800  1.00  0.00    -0.313 OA
ATOM     12  C   UNL     1      93.820 101.335  73.349  1.00  0.00     0.170 C 
ATOM     13  C   UNL     1      95.613 103.095  72.890  1.00  0.00     0.049 C 
ATOM     14  C   UNL     1      97.416 102.269  71.323  1.00  0.00     0.011 C 
ATOM     15  C   UNL     1      95.126 102.003  73.844  1.00  0.00     0.122 C 
BRANCH   7  16
ATOM     16  C   UNL     1      96.089  98.577  73.453  1.00  0.00     0.135 C 
BRANCH  16  17
ATOM     17  C   UNL     1      96.710  97.894  72.261  1.00  0.00    -0.040 A 
ATOM     18  C   UNL     1      98.014  98.208  71.877  1.00  0.00     0.004 A 
ATOM     19  C   UNL     1      95.981  96.947  71.543  1.00  0.00     0.004 A 
ATOM     20  C   UNL     1      98.588  97.575  70.774  1.00  0.00     0.000 A 
ATOM     21  C   UNL     1      96.555  96.314  70.440  1.00  0.00     0.000 A 
ATOM     22  C   UNL     1      97.859  96.628  70.056  1.00  0.00     0.000 A 
ENDBRANCH  16  17
ENDBRANCH   7  16
BRANCH  15  23
ATOM     23  C   UNL     1      95.012 102.483  75.254  1.00  0.00    -0.046 C 
ATOM     24  C   UNL     1      93.711 103.129  75.630  1.00  0.00     0.042 C 
ATOM     25  C   UNL     1      96.014 102.344  76.134  1.00  0.00     0.010 C 
ENDBRANCH  15  23
ENDBRANCH   3   4
BRANCH   2  26
ATOM     26  C   UNL     1      92.310 101.270  68.864  1.00  0.00     0.078 C 
BRANCH  26  27
ATOM     27  C   UNL     1      93.711 101.880  68.869  1.00  0.00     0.140 C 
ATOM     28  C   UNL     1      94.732 100.992  69.610  1.00  0.00     0.086 CG0
ATOM     29  C   UNL     1      94.308 101.973  67.480  1.00  0.00     0.190 C 
ATOM     30  C   UNL     1      95.915 100.971  68.683  1.00  0.00    -0.010 C 
ATOM     31  G   UNL     1      94.949 101.308  71.118  1.00  0.00     0.000 G0
ATOM     32  O   UNL     1      93.745 102.431  66.497  1.00  0.00    -0.291 OA
ATOM     33  C   UNL     1      95.701 101.489  67.469  1.00  0.00    -0.008 C 
ATOM     34  C   UNL     1      96.594 101.562  66.295  1.00  0.00     0.048 C 
BRANCH  27  35
ATOM     35  O   UNL     1      93.689 103.225  69.318  1.00  0.00    -0.381 OA
ATOM     36  H   UNL     1      93.443 103.794  68.570  1.00  0.00     0.212 HD
ENDBRANCH  27  35
ENDBRANCH  26  27
ENDBRANCH   2  26
ENDBRANCH   1   2
BRANCH   1  37
ATOM     37  O   UNL     1      90.769  98.886  68.924  1.00  0.00    -0.461 OA
BRANCH  37  38
ATOM     38  C   UNL     1      89.639  98.483  68.251  1.00  0.00     0.310 C 
ATOM     39  O   UNL     1      88.750  97.788  68.724  1.00  0.00    -0.252 OA
BRANCH  38  40
ATOM     40  C   UNL     1      89.668  99.030  66.844  1.00  0.00     0.158 C 
BRANCH  40  41
ATOM     41  C   UNL     1      88.761 100.219  66.657  1.00  0.00    -0.037 A 
ATOM     42  C   UNL     1      89.293 101.508  66.652  1.00  0.00     0.008 A 
ATOM     43  C   UNL     1      87.390 100.031  66.489  1.00  0.00     0.008 A 
ATOM     44  C   UNL     1      88.454 102.609  66.480  1.00  0.00     0.046 A 
ATOM     45  C   UNL     1      86.550 101.132  66.317  1.00  0.00     0.046 A 
ATOM     46  C   UNL     1      87.082 102.420  66.312  1.00  0.00     0.115 A 
BRANCH  46  47
ATOM     47  O   UNL     1      86.263 103.494  66.145  1.00  0.00    -0.508 OA
ATOM     48  H   UNL     1      86.680 104.115  65.522  1.00  0.00     0.293 HD
ENDBRANCH  46  47
ENDBRANCH  40  41
ENDBRANCH  38  40
ENDBRANCH  37  38
ENDBRANCH   1  37
TORSDOF 10
ENDMDL
MODEL 7
REMARK VINA RESULT:    -6.214     23.505     27.876
REMARK INTER + INTRA:         -12.064
REMARK INTER:                 -11.714
REMARK INTRA:                  -0.350
REMARK UNBOUND:                -1.490
REMARK SMILES C=C(C)[C@]12C[C@@H](C)[C@@]34O[C@](Cc5ccccc5)(O[C@@H]1[C@@H]3C=C(COC(=O)Cc1ccc(O)cc1)C[C@]1(O)C(=O)C(C)=C[C@@H]41)O2
REMARK SMILES IDX 23 1 22 2 21 3 20 4 9 5 8 6 10 7 6 8 18 10 44 11 19 12 5 13
REMARK SMILES IDX 7 14 4 15 11 16 12 17 13 18 17 19 14 20 16 21 15 22 2 23
REMARK SMILES IDX 3 24 1 25 35 26 36 27 43 28 38 29 42 30 39 32 40 33 41 34
REMARK SMILES IDX 37 35 24 37 25 38 26 39 27 40 28 41 29 42 34 43 30 44 33 45
REMARK SMILES IDX 31 46 32 47
REMARK H PARENT 37 36 32 48
REMARK Flexibility Score: 90.00
ROOT
ATOM      1  C   UNL     1      68.557  84.136  69.299  1.00  0.00     0.264 C 
ENDROOT
BRANCH   1   2
ATOM      2  C   UNL     1      69.337  84.596  68.089  1.00  0.00    -0.033 C 
ATOM      3  C   UNL     1      69.755  85.877  68.022  1.00  0.00    -0.015 C 
BRANCH   3   4
ATOM      4  C   UNL     1      70.480  86.598  66.897  1.00  0.00     0.078 C 
ATOM      5  O   UNL     1      72.901  86.412  67.364  1.00  0.00    -0.319 OA
ATOM      6  C   UNL     1      71.862  86.027  66.411  1.00  0.00     0.095 CG0
ATOM      7  C   UNL     1      72.827  87.769  67.840  1.00  0.00     0.289 C 
ATOM      8  C   UNL     1      72.180  86.676  65.000  1.00  0.00     0.023 C 
ATOM      9  G   UNL     1      71.862  84.471  66.445  1.00  0.00     0.000 G0
ATOM     10  O   UNL     1      71.569  88.035  68.454  1.00  0.00    -0.320 OA
ATOM     11  O   UNL     1      72.949  88.721  66.786  1.00  0.00    -0.313 OA
ATOM     12  C   UNL     1      70.726  88.075  67.292  1.00  0.00     0.170 C 
ATOM     13  C   UNL     1      71.623  88.129  64.901  1.00  0.00     0.049 C 
ATOM     14  C   UNL     1      73.662  86.668  64.587  1.00  0.00     0.011 C 
ATOM     15  C   UNL     1      71.608  88.824  66.263  1.00  0.00     0.122 C 
BRANCH   7  16
ATOM     16  C   UNL     1      73.942  87.982  68.844  1.00  0.00     0.135 C 
BRANCH  16  17
ATOM     17  C   UNL     1      74.983  86.893  68.773  1.00  0.00    -0.040 A 
ATOM     18  C   UNL     1      76.173  87.109  68.078  1.00  0.00     0.004 A 
ATOM     19  C   UNL     1      74.756  85.670  69.404  1.00  0.00     0.004 A 
ATOM     20  C   UNL     1      77.136  86.101  68.013  1.00  0.00     0.000 A 
ATOM     21  C   UNL     1      75.719  84.663  69.339  1.00  0.00     0.000 A 
ATOM     22  C   UNL     1      76.908  84.878  68.644  1.00  0.00     0.000 A 
ENDBRANCH  16  17
ENDBRANCH   7  16
BRANCH  15  23
ATOM     23  C   UNL     1      71.251  90.271  66.165  1.00  0.00    -0.046 C 
ATOM     24  C   UNL     1      70.028  90.598  65.362  1.00  0.00     0.042 C 
ATOM     25  C   UNL     1      71.983  91.224  66.762  1.00  0.00     0.010 C 
ENDBRANCH  15  23
ENDBRANCH   3   4
BRANCH   2  26
ATOM     26  C   UNL     1      69.559  83.494  67.070  1.00  0.00     0.078 C 
BRANCH  26  27
ATOM     27  C   UNL     1      70.560  83.771  65.950  1.00  0.00     0.140 C 
ATOM     28  C   UNL     1      71.842  84.456  66.469  1.00  0.00     0.086 CG0
ATOM     29  C   UNL     1      71.100  82.501  65.328  1.00  0.00     0.190 C 
ATOM     30  C   UNL     1      72.946  83.685  65.801  1.00  0.00    -0.010 C 
ATOM     31  G   UNL     1      71.857  86.012  66.417  1.00  0.00     0.000 G0
ATOM     32  O   UNL     1      70.425  81.556  64.949  1.00  0.00    -0.291 OA
ATOM     33  C   UNL     1      72.566  82.567  65.176  1.00  0.00    -0.008 C 
ATOM     34  C   UNL     1      73.375  81.536  64.493  1.00  0.00     0.048 C 
BRANCH  27  35
ATOM     35  O   UNL     1      69.949  84.447  64.864  1.00  0.00    -0.381 OA
ATOM     36  H   UNL     1      68.985  84.350  64.945  1.00  0.00     0.212 HD
ENDBRANCH  27  35
ENDBRANCH  26  27
ENDBRANCH   2  26
ENDBRANCH   1   2
BRANCH   1  37
ATOM     37  O   UNL     1      67.358  84.875  69.390  1.00  0.00    -0.461 OA
BRANCH  37  38
ATOM     38  C   UNL     1      66.196  84.182  69.138  1.00  0.00     0.310 C 
ATOM     39  O   UNL     1      65.342  84.515  68.328  1.00  0.00    -0.252 OA
BRANCH  38  40
ATOM     40  C   UNL     1      66.143  82.953  70.013  1.00  0.00     0.158 C 
BRANCH  40  41
ATOM     41  C   UNL     1      64.915  82.905  70.885  1.00  0.00    -0.037 A 
ATOM     42  C   UNL     1      64.526  84.035  71.604  1.00  0.00     0.008 A 
ATOM     43  C   UNL     1      64.167  81.732  70.973  1.00  0.00     0.008 A 
ATOM     44  C   UNL     1      63.389  83.991  72.412  1.00  0.00     0.046 A 
ATOM     45  C   UNL     1      63.030  81.687  71.781  1.00  0.00     0.046 A 
ATOM     46  C   UNL     1      62.641  82.816  72.500  1.00  0.00     0.115 A 
BRANCH  46  47
ATOM     47  O   UNL     1      61.533  82.773  73.288  1.00  0.00    -0.508 OA
ATOM     48  H   UNL     1      60.774  82.487  72.751  1.00  0.00     0.293 HD
ENDBRANCH  46  47
ENDBRANCH  40  41
ENDBRANCH  38  40
ENDBRANCH  37  38
ENDBRANCH   1  37
TORSDOF 10
ENDMDL
MODEL 8
REMARK VINA RESULT:    -6.193     30.869     33.688
REMARK INTER + INTRA:         -12.028
REMARK INTER:                 -10.921
REMARK INTRA:                  -1.107
REMARK UNBOUND:                -1.490
REMARK SMILES C=C(C)[C@]12C[C@@H](C)[C@@]34O[C@](Cc5ccccc5)(O[C@@H]1[C@@H]3C=C(COC(=O)Cc1ccc(O)cc1)C[C@]1(O)C(=O)C(C)=C[C@@H]41)O2
REMARK SMILES IDX 23 1 22 2 21 3 20 4 9 5 8 6 10 7 6 8 18 10 44 11 19 12 5 13
REMARK SMILES IDX 7 14 4 15 11 16 12 17 13 18 17 19 14 20 16 21 15 22 2 23
REMARK SMILES IDX 3 24 1 25 35 26 36 27 43 28 38 29 42 30 39 32 40 33 41 34
REMARK SMILES IDX 37 35 24 37 25 38 26 39 27 40 28 41 29 42 34 43 30 44 33 45
REMARK SMILES IDX 31 46 32 47
REMARK H PARENT 37 36 32 48
REMARK Flexibility Score: 90.00
ROOT
ATOM      1  C   UNL     1      82.123  67.963  73.801  1.00  0.00     0.264 C 
ENDROOT
BRANCH   1   2
ATOM      2  C   UNL     1      83.600  67.840  74.093  1.00  0.00    -0.033 C 
ATOM      3  C   UNL     1      84.485  67.957  73.081  1.00  0.00    -0.015 C 
BRANCH   3   4
ATOM      4  C   UNL     1      85.997  67.799  73.097  1.00  0.00     0.078 C 
ATOM      5  O   UNL     1      86.951  70.049  73.476  1.00  0.00    -0.319 OA
ATOM      6  C   UNL     1      86.834  68.716  74.063  1.00  0.00     0.095 CG0
ATOM      7  C   UNL     1      87.227  70.077  72.063  1.00  0.00     0.289 C 
ATOM      8  C   UNL     1      88.277  68.076  74.201  1.00  0.00     0.023 C 
ATOM      9  G   UNL     1      86.075  68.947  75.403  1.00  0.00     0.000 G0
ATOM     10  O   UNL     1      86.228  69.376  71.327  1.00  0.00    -0.320 OA
ATOM     11  O   UNL     1      88.462  69.442  71.738  1.00  0.00    -0.313 OA
ATOM     12  C   UNL     1      86.564  68.023  71.674  1.00  0.00     0.170 C 
ATOM     13  C   UNL     1      88.718  67.371  72.881  1.00  0.00     0.049 C 
ATOM     14  C   UNL     1      89.386  69.037  74.660  1.00  0.00     0.011 C 
ATOM     15  C   UNL     1      88.112  68.046  71.649  1.00  0.00     0.122 C 
BRANCH   7  16
ATOM     16  C   UNL     1      87.271  71.525  71.616  1.00  0.00     0.135 C 
BRANCH  16  17
ATOM     17  C   UNL     1      88.182  71.724  70.430  1.00  0.00    -0.040 A 
ATOM     18  C   UNL     1      89.529  72.024  70.628  1.00  0.00     0.004 A 
ATOM     19  C   UNL     1      87.675  71.608  69.136  1.00  0.00     0.004 A 
ATOM     20  C   UNL     1      90.371  72.208  69.530  1.00  0.00     0.000 A 
ATOM     21  C   UNL     1      88.517  71.792  68.039  1.00  0.00     0.000 A 
ATOM     22  C   UNL     1      89.864  72.092  68.236  1.00  0.00     0.000 A 
ENDBRANCH  16  17
ENDBRANCH   7  16
BRANCH  15  23
ATOM     23  C   UNL     1      88.662  67.504  70.370  1.00  0.00    -0.046 C 
ATOM     24  C   UNL     1      88.405  66.050  70.102  1.00  0.00     0.042 C 
ATOM     25  C   UNL     1      89.345  68.273  69.510  1.00  0.00     0.010 C 
ENDBRANCH  15  23
ENDBRANCH   3   4
BRANCH   2  26
ATOM     26  C   UNL     1      83.899  67.597  75.561  1.00  0.00     0.078 C 
BRANCH  26  27
ATOM     27  C   UNL     1      85.360  67.683  75.999  1.00  0.00     0.140 C 
ATOM     28  C   UNL     1      86.068  68.929  75.427  1.00  0.00     0.086 CG0
ATOM     29  C   UNL     1      85.506  67.884  77.493  1.00  0.00     0.190 C 
ATOM     30  C   UNL     1      86.802  69.490  76.613  1.00  0.00    -0.010 C 
ATOM     31  G   UNL     1      86.829  68.728  74.084  1.00  0.00     0.000 G0
ATOM     32  O   UNL     1      84.934  67.232  78.354  1.00  0.00    -0.291 OA
ATOM     33  C   UNL     1      86.487  68.944  77.792  1.00  0.00    -0.008 C 
ATOM     34  C   UNL     1      86.940  69.293  79.154  1.00  0.00     0.048 C 
BRANCH  27  35
ATOM     35  O   UNL     1      86.048  66.469  75.752  1.00  0.00    -0.381 OA
ATOM     36  H   UNL     1      86.754  66.643  75.107  1.00  0.00     0.212 HD
ENDBRANCH  27  35
ENDBRANCH  26  27
ENDBRANCH   2  26
ENDBRANCH   1   2
BRANCH   1  37
ATOM     37  O   UNL     1      81.421  66.972  74.520  1.00  0.00    -0.461 OA
BRANCH  37  38
ATOM     38  C   UNL     1      81.447  65.703  73.989  1.00  0.00     0.310 C 
ATOM     39  O   UNL     1      82.081  64.763  74.447  1.00  0.00    -0.252 OA
BRANCH  38  40
ATOM     40  C   UNL     1      80.574  65.654  72.758  1.00  0.00     0.158 C 
BRANCH  40  41
ATOM     41  C   UNL     1      81.365  65.533  71.481  1.00  0.00    -0.037 A 
ATOM     42  C   UNL     1      82.499  64.722  71.437  1.00  0.00     0.008 A 
ATOM     43  C   UNL     1      80.964  66.232  70.343  1.00  0.00     0.008 A 
ATOM     44  C   UNL     1      83.232  64.610  70.255  1.00  0.00     0.046 A 
ATOM     45  C   UNL     1      81.697  66.120  69.161  1.00  0.00     0.046 A 
ATOM     46  C   UNL     1      82.831  65.310  69.117  1.00  0.00     0.115 A 
BRANCH  46  47
ATOM     47  O   UNL     1      83.546  65.201  67.964  1.00  0.00    -0.508 OA
ATOM     48  H   UNL     1      84.431  64.857  68.174  1.00  0.00     0.293 HD
ENDBRANCH  46  47
ENDBRANCH  40  41
ENDBRANCH  38  40
ENDBRANCH  37  38
ENDBRANCH   1  37
TORSDOF 10
ENDMDL
MODEL 9
REMARK VINA RESULT:    -6.028     22.217     25.738
REMARK INTER + INTRA:         -11.747
REMARK INTER:                 -11.211
REMARK INTRA:                  -0.536
REMARK UNBOUND:                -1.490
REMARK SMILES C=C(C)[C@]12C[C@@H](C)[C@@]34O[C@](Cc5ccccc5)(O[C@@H]1[C@@H]3C=C(COC(=O)Cc1ccc(O)cc1)C[C@]1(O)C(=O)C(C)=C[C@@H]41)O2
REMARK SMILES IDX 23 1 22 2 21 3 20 4 9 5 8 6 10 7 6 8 18 10 44 11 19 12 5 13
REMARK SMILES IDX 7 14 4 15 11 16 12 17 13 18 17 19 14 20 16 21 15 22 2 23
REMARK SMILES IDX 3 24 1 25 35 26 36 27 43 28 38 29 42 30 39 32 40 33 41 34
REMARK SMILES IDX 37 35 24 37 25 38 26 39 27 40 28 41 29 42 34 43 30 44 33 45
REMARK SMILES IDX 31 46 32 47
REMARK H PARENT 37 36 32 48
REMARK Flexibility Score: 90.00
ROOT
ATOM      1  C   UNL     1      96.414  81.369  83.745  1.00  0.00     0.264 C 
ENDROOT
BRANCH   1   2
ATOM      2  C   UNL     1      95.213  81.873  84.512  1.00  0.00    -0.033 C 
ATOM      3  C   UNL     1      94.116  81.093  84.607  1.00  0.00    -0.015 C 
BRANCH   3   4
ATOM      4  C   UNL     1      92.771  81.394  85.248  1.00  0.00     0.078 C 
ATOM      5  O   UNL     1      92.878  80.558  87.573  1.00  0.00    -0.319 OA
ATOM      6  C   UNL     1      92.737  81.774  86.774  1.00  0.00     0.095 CG0
ATOM      7  C   UNL     1      92.115  79.427  87.111  1.00  0.00     0.289 C 
ATOM      8  C   UNL     1      91.329  82.437  87.072  1.00  0.00     0.023 C 
ATOM      9  G   UNL     1      93.976  82.635  87.157  1.00  0.00     0.000 G0
ATOM     10  O   UNL     1      92.449  79.092  85.767  1.00  0.00    -0.320 OA
ATOM     11  O   UNL     1      90.713  79.683  87.107  1.00  0.00    -0.313 OA
ATOM     12  C   UNL     1      91.823  80.182  85.073  1.00  0.00     0.170 C 
ATOM     13  C   UNL     1      90.206  81.817  86.185  1.00  0.00     0.049 C 
ATOM     14  C   UNL     1      90.886  82.414  88.545  1.00  0.00     0.011 C 
ATOM     15  C   UNL     1      90.493  80.353  85.848  1.00  0.00     0.122 C 
BRANCH   7  16
ATOM     16  C   UNL     1      92.411  78.252  88.021  1.00  0.00     0.135 C 
BRANCH  16  17
ATOM     17  C   UNL     1      93.739  78.397  88.721  1.00  0.00    -0.040 A 
ATOM     18  C   UNL     1      94.922  78.122  88.036  1.00  0.00     0.004 A 
ATOM     19  C   UNL     1      93.783  78.807  90.053  1.00  0.00     0.004 A 
ATOM     20  C   UNL     1      96.151  78.258  88.683  1.00  0.00     0.000 A 
ATOM     21  C   UNL     1      95.012  78.942  90.700  1.00  0.00     0.000 A 
ATOM     22  C   UNL     1      96.195  78.667  90.015  1.00  0.00     0.000 A 
ENDBRANCH  16  17
ENDBRANCH   7  16
BRANCH  15  23
ATOM     23  C   UNL     1      89.349  79.689  85.155  1.00  0.00    -0.046 C 
ATOM     24  C   UNL     1      89.119  78.245  85.492  1.00  0.00     0.042 C 
ATOM     25  C   UNL     1      88.572  80.345  84.280  1.00  0.00     0.010 C 
ENDBRANCH  15  23
ENDBRANCH   3   4
BRANCH   2  26
ATOM     26  C   UNL     1      95.423  83.253  85.106  1.00  0.00     0.078 C 
BRANCH  26  27
ATOM     27  C   UNL     1      94.395  83.737  86.127  1.00  0.00     0.140 C 
ATOM     28  C   UNL     1      94.004  82.633  87.131  1.00  0.00     0.086 CG0
ATOM     29  C   UNL     1      94.943  84.820  87.033  1.00  0.00     0.190 C 
ATOM     30  C   UNL     1      94.058  83.332  88.460  1.00  0.00    -0.010 C 
ATOM     31  G   UNL     1      92.751  81.785  86.764  1.00  0.00     0.000 G0
ATOM     32  O   UNL     1      95.542  85.818  86.661  1.00  0.00    -0.291 OA
ATOM     33  C   UNL     1      94.606  84.551  88.443  1.00  0.00    -0.008 C 
ATOM     34  C   UNL     1      94.893  85.481  89.555  1.00  0.00     0.048 C 
BRANCH  27  35
ATOM     35  O   UNL     1      93.286  84.354  85.494  1.00  0.00    -0.381 OA
ATOM     36  H   UNL     1      92.904  85.003  86.109  1.00  0.00     0.212 HD
ENDBRANCH  27  35
ENDBRANCH  26  27
ENDBRANCH   2  26
ENDBRANCH   1   2
BRANCH   1  37
ATOM     37  O   UNL     1      95.977  80.723  82.567  1.00  0.00    -0.461 OA
BRANCH  37  38
ATOM     38  C   UNL     1      96.736  79.658  82.142  1.00  0.00     0.310 C 
ATOM     39  O   UNL     1      96.475  78.481  82.351  1.00  0.00    -0.252 OA
BRANCH  38  40
ATOM     40  C   UNL     1      97.936  80.166  81.379  1.00  0.00     0.158 C 
BRANCH  40  41
ATOM     41  C   UNL     1      97.626  80.483  79.939  1.00  0.00    -0.037 A 
ATOM     42  C   UNL     1      97.709  79.481  78.972  1.00  0.00     0.008 A 
ATOM     43  C   UNL     1      97.258  81.777  79.572  1.00  0.00     0.008 A 
ATOM     44  C   UNL     1      97.423  79.774  77.638  1.00  0.00     0.046 A 
ATOM     45  C   UNL     1      96.972  82.070  78.239  1.00  0.00     0.046 A 
ATOM     46  C   UNL     1      97.055  81.069  77.272  1.00  0.00     0.115 A 
BRANCH  46  47
ATOM     47  O   UNL     1      96.777  81.354  75.971  1.00  0.00    -0.508 OA
ATOM     48  H   UNL     1      95.919  81.813  75.924  1.00  0.00     0.293 HD
ENDBRANCH  46  47
ENDBRANCH  40  41
ENDBRANCH  38  40
ENDBRANCH  37  38
ENDBRANCH   1  37
TORSDOF 10
ENDMDL
MODEL 10
REMARK VINA RESULT:    -5.972     19.840     24.090
REMARK INTER + INTRA:         -11.651
REMARK INTER:                  -9.187
REMARK INTRA:                  -2.464
REMARK UNBOUND:                -1.490
REMARK SMILES C=C(C)[C@]12C[C@@H](C)[C@@]34O[C@](Cc5ccccc5)(O[C@@H]1[C@@H]3C=C(COC(=O)Cc1ccc(O)cc1)C[C@]1(O)C(=O)C(C)=C[C@@H]41)O2
REMARK SMILES IDX 23 1 22 2 21 3 20 4 9 5 8 6 10 7 6 8 18 10 44 11 19 12 5 13
REMARK SMILES IDX 7 14 4 15 11 16 12 17 13 18 17 19 14 20 16 21 15 22 2 23
REMARK SMILES IDX 3 24 1 25 35 26 36 27 43 28 38 29 42 30 39 32 40 33 41 34
REMARK SMILES IDX 37 35 24 37 25 38 26 39 27 40 28 41 29 42 34 43 30 44 33 45
REMARK SMILES IDX 31 46 32 47
REMARK H PARENT 37 36 32 48
REMARK Flexibility Score: 90.00
ROOT
ATOM      1  C   UNL     1      96.953  75.437  75.652  1.00  0.00     0.264 C 
ENDROOT
BRANCH   1   2
ATOM      2  C   UNL     1      97.072  76.689  74.814  1.00  0.00    -0.033 C 
ATOM      3  C   UNL     1      97.027  77.894  75.419  1.00  0.00    -0.015 C 
BRANCH   3   4
ATOM      4  C   UNL     1      97.048  79.284  74.804  1.00  0.00     0.078 C 
ATOM      5  O   UNL     1      99.411  80.010  74.743  1.00  0.00    -0.319 OA
ATOM      6  C   UNL     1      98.267  79.682  73.894  1.00  0.00     0.095 CG0
ATOM      7  C   UNL     1      99.107  80.808  75.903  1.00  0.00     0.289 C 
ATOM      8  C   UNL     1      97.847  80.964  73.063  1.00  0.00     0.023 C 
ATOM      9  G   UNL     1      98.747  78.466  73.049  1.00  0.00     0.000 G0
ATOM     10  O   UNL     1      98.135  80.172  76.728  1.00  0.00    -0.320 OA
ATOM     11  O   UNL     1      98.551  82.075  75.559  1.00  0.00    -0.313 OA
ATOM     12  C   UNL     1      96.961  80.354  75.920  1.00  0.00     0.170 C 
ATOM     13  C   UNL     1      96.882  81.881  73.874  1.00  0.00     0.049 C 
ATOM     14  C   UNL     1      99.011  81.807  72.514  1.00  0.00     0.011 C 
ATOM     15  C   UNL     1      97.148  81.793  75.378  1.00  0.00     0.122 C 
BRANCH   7  16
ATOM     16  C   UNL     1     100.388  81.015  76.686  1.00  0.00     0.135 C 
BRANCH  16  17
ATOM     17  C   UNL     1     100.828  79.759  77.395  1.00  0.00    -0.040 A 
ATOM     18  C   UNL     1     100.880  78.549  76.703  1.00  0.00     0.004 A 
ATOM     19  C   UNL     1     101.182  79.808  78.743  1.00  0.00     0.004 A 
ATOM     20  C   UNL     1     101.287  77.387  77.360  1.00  0.00     0.000 A 
ATOM     21  C   UNL     1     101.590  78.646  79.399  1.00  0.00     0.000 A 
ATOM     22  C   UNL     1     101.642  77.436  78.707  1.00  0.00     0.000 A 
ENDBRANCH  16  17
ENDBRANCH   7  16
BRANCH  15  23
ATOM     23  C   UNL     1      96.362  82.794  76.160  1.00  0.00    -0.046 C 
ATOM     24  C   UNL     1      96.071  82.438  77.588  1.00  0.00     0.042 C 
ATOM     25  C   UNL     1      95.939  83.945  75.616  1.00  0.00     0.010 C 
ENDBRANCH  15  23
ENDBRANCH   3   4
BRANCH   2  26
ATOM     26  C   UNL     1      97.241  76.401  73.334  1.00  0.00     0.078 C 
BRANCH  26  27
ATOM     27  C   UNL     1      97.605  77.578  72.431  1.00  0.00     0.140 C 
ATOM     28  C   UNL     1      98.733  78.445  73.029  1.00  0.00     0.086 CG0
ATOM     29  C   UNL     1      98.200  77.135  71.112  1.00  0.00     0.190 C 
ATOM     30  C   UNL     1      99.663  78.659  71.867  1.00  0.00    -0.010 C 
ATOM     31  G   UNL     1      98.282  79.666  73.881  1.00  0.00     0.000 G0
ATOM     32  O   UNL     1      97.731  76.279  70.376  1.00  0.00    -0.291 OA
ATOM     33  C   UNL     1      99.407  77.917  70.785  1.00  0.00    -0.008 C 
ATOM     34  C   UNL     1     100.147  77.807  69.511  1.00  0.00     0.048 C 
BRANCH  27  35
ATOM     35  O   UNL     1      96.456  78.317  72.053  1.00  0.00    -0.381 OA
ATOM     36  H   UNL     1      95.684  77.938  72.507  1.00  0.00     0.212 HD
ENDBRANCH  27  35
ENDBRANCH  26  27
ENDBRANCH   2  26
ENDBRANCH   1   2
BRANCH   1  37
ATOM     37  O   UNL     1      96.070  75.677  76.727  1.00  0.00    -0.461 OA
BRANCH  37  38
ATOM     38  C   UNL     1      96.517  75.309  77.975  1.00  0.00     0.310 C 
ATOM     39  O   UNL     1      95.866  74.678  78.796  1.00  0.00    -0.252 OA
BRANCH  38  40
ATOM     40  C   UNL     1      97.930  75.802  78.169  1.00  0.00     0.158 C 
BRANCH  40  41
ATOM     41  C   UNL     1      98.056  76.795  79.296  1.00  0.00    -0.037 A 
ATOM     42  C   UNL     1      98.562  76.389  80.531  1.00  0.00     0.008 A 
ATOM     43  C   UNL     1      97.666  78.120  79.105  1.00  0.00     0.008 A 
ATOM     44  C   UNL     1      98.678  77.308  81.574  1.00  0.00     0.046 A 
ATOM     45  C   UNL     1      97.782  79.040  80.148  1.00  0.00     0.046 A 
ATOM     46  C   UNL     1      98.287  78.634  81.382  1.00  0.00     0.115 A 
BRANCH  46  47
ATOM     47  O   UNL     1      98.400  79.530  82.400  1.00  0.00    -0.508 OA
ATOM     48  H   UNL     1      98.696  80.383  82.038  1.00  0.00     0.293 HD
ENDBRANCH  46  47
ENDBRANCH  40  41
ENDBRANCH  38  40
ENDBRANCH  37  38
ENDBRANCH   1  37
TORSDOF 10
ENDMDL
