MODEL 1
REMARK VINA RESULT:    -7.065      0.000      0.000
REMARK INTER + INTRA:         -11.526
REMARK INTER:                 -10.989
REMARK INTRA:                  -0.537
REMARK UNBOUND:                -0.537
REMARK SMILES COc1cc(CNC(=O)CCCC/C=C/C(C)C)ccc1O
REMARK SMILES IDX 10 1 8 2 7 3 9 5 6 6 5 7 3 8 21 9 4 10 20 11 19 12 2 13 1 14
REMARK SMILES IDX 22 15 11 17 12 18 13 19 14 20 15 21 16 22 17 23 18 24
REMARK H PARENT 7 4 22 16
REMARK Flexibility Score: inf
ROOT
ATOM      1  C   UNL     1      93.351  82.609  85.807  1.00  0.00     0.100 C 
ENDROOT
BRANCH   1   2
ATOM      2  C   UNL     1      92.343  81.535  85.721  1.00  0.00     0.220 C 
ATOM      3  N   UNL     1      91.245  81.679  84.928  1.00  0.00    -0.352 N 
ATOM      4  H   UNL     1      91.180  82.566  84.446  1.00  0.00     0.163 HD
ATOM      5  O   UNL     1      92.541  80.484  86.377  1.00  0.00    -0.275 OA
BRANCH   3   6
ATOM      6  C   UNL     1      90.231  80.690  84.751  1.00  0.00     0.151 C 
BRANCH   6   7
ATOM      7  C   UNL     1      88.960  81.290  84.262  1.00  0.00    -0.025 A 
ATOM      8  C   UNL     1      87.363  83.164  84.236  1.00  0.00     0.160 A 
ATOM      9  C   UNL     1      86.550  82.459  83.324  1.00  0.00     0.157 A 
ATOM     10  C   UNL     1      88.557  82.573  84.698  1.00  0.00     0.056 A 
ATOM     11  C   UNL     1      86.929  81.172  82.895  1.00  0.00     0.050 A 
ATOM     12  C   UNL     1      88.130  80.594  83.353  1.00  0.00     0.009 A 
BRANCH   8  13
ATOM     13  O   UNL     1      86.965  84.389  84.707  1.00  0.00    -0.493 OA
ATOM     14  C   UNL     1      86.361  84.349  86.012  1.00  0.00     0.278 C 
ENDBRANCH   8  13
BRANCH   9  15
ATOM     15  O   UNL     1      85.400  83.005  82.850  1.00  0.00    -0.504 OA
ATOM     16  H   UNL     1      84.660  82.436  83.072  1.00  0.00     0.293 HD
ENDBRANCH   9  15
ENDBRANCH   6   7
ENDBRANCH   3   6
ENDBRANCH   1   2
BRANCH   1  17
ATOM     17  C   UNL     1      94.755  82.115  85.364  1.00  0.00     0.010 C 
BRANCH  17  18
ATOM     18  C   UNL     1      95.097  82.500  83.898  1.00  0.00     0.005 C 
BRANCH  18  19
ATOM     19  C   UNL     1      96.230  81.620  83.305  1.00  0.00     0.027 C 
BRANCH  19  20
ATOM     20  C   UNL     1      97.046  82.351  82.347  1.00  0.00    -0.031 C 
ATOM     21  C   UNL     1      96.754  82.468  81.039  1.00  0.00    -0.028 C 
BRANCH  21  22
ATOM     22  C   UNL     1      97.579  83.224  80.097  1.00  0.00     0.005 C 
ATOM     23  C   UNL     1      98.938  82.527  79.812  1.00  0.00     0.012 C 
ATOM     24  C   UNL     1      96.798  83.473  78.781  1.00  0.00     0.012 C 
ENDBRANCH  21  22
ENDBRANCH  19  20
ENDBRANCH  18  19
ENDBRANCH  17  18
ENDBRANCH   1  17
TORSDOF 10
ENDMDL
MODEL 2
REMARK VINA RESULT:    -6.548     13.729     16.579
REMARK INTER + INTRA:         -10.721
REMARK INTER:                 -10.006
REMARK INTRA:                  -0.715
REMARK UNBOUND:                -0.537
REMARK SMILES COc1cc(CNC(=O)CCCC/C=C/C(C)C)ccc1O
REMARK SMILES IDX 10 1 8 2 7 3 9 5 6 6 5 7 3 8 21 9 4 10 20 11 19 12 2 13 1 14
REMARK SMILES IDX 22 15 11 17 12 18 13 19 14 20 15 21 16 22 17 23 18 24
REMARK H PARENT 7 4 22 16
REMARK Flexibility Score: inf
ROOT
ATOM      1  C   UNL     1      93.560  95.603  74.819  1.00  0.00     0.100 C 
ENDROOT
BRANCH   1   2
ATOM      2  C   UNL     1      94.290  96.651  75.557  1.00  0.00     0.220 C 
ATOM      3  N   UNL     1      94.076  96.835  76.890  1.00  0.00    -0.352 N 
ATOM      4  H   UNL     1      93.380  96.225  77.298  1.00  0.00     0.163 HD
ATOM      5  O   UNL     1      95.125  97.346  74.929  1.00  0.00    -0.275 OA
BRANCH   3   6
ATOM      6  C   UNL     1      94.753  97.796  77.700  1.00  0.00     0.151 C 
BRANCH   6   7
ATOM      7  C   UNL     1      95.406  97.158  78.876  1.00  0.00    -0.025 A 
ATOM      8  C   UNL     1      96.759  97.350  80.924  1.00  0.00     0.160 A 
ATOM      9  C   UNL     1      96.640  95.961  81.133  1.00  0.00     0.157 A 
ATOM     10  C   UNL     1      96.143  97.935  79.797  1.00  0.00     0.056 A 
ATOM     11  C   UNL     1      95.924  95.170  80.213  1.00  0.00     0.050 A 
ATOM     12  C   UNL     1      95.303  95.765  79.097  1.00  0.00     0.009 A 
BRANCH   8  13
ATOM     13  O   UNL     1      97.510  98.113  81.781  1.00  0.00    -0.493 OA
ATOM     14  C   UNL     1      98.880  98.281  81.371  1.00  0.00     0.278 C 
ENDBRANCH   8  13
BRANCH   9  15
ATOM     15  O   UNL     1      97.210  95.368  82.215  1.00  0.00    -0.504 OA
ATOM     16  H   UNL     1      97.290  96.008  82.926  1.00  0.00     0.293 HD
ENDBRANCH   9  15
ENDBRANCH   6   7
ENDBRANCH   3   6
ENDBRANCH   1   2
BRANCH   1  17
ATOM     17  C   UNL     1      92.663  94.757  75.762  1.00  0.00     0.010 C 
BRANCH  17  18
ATOM     18  C   UNL     1      91.168  95.182  75.718  1.00  0.00     0.005 C 
BRANCH  18  19
ATOM     19  C   UNL     1      90.220  94.055  76.209  1.00  0.00     0.027 C 
BRANCH  19  20
ATOM     20  C   UNL     1      90.154  92.946  75.269  1.00  0.00    -0.031 C 
ATOM     21  C   UNL     1      89.883  91.675  75.616  1.00  0.00    -0.028 C 
BRANCH  21  22
ATOM     22  C   UNL     1      89.803  90.579  74.651  1.00  0.00     0.005 C 
ATOM     23  C   UNL     1      89.899  89.186  75.332  1.00  0.00     0.012 C 
ATOM     24  C   UNL     1      88.504  90.697  73.813  1.00  0.00     0.012 C 
ENDBRANCH  21  22
ENDBRANCH  19  20
ENDBRANCH  18  19
ENDBRANCH  17  18
ENDBRANCH   1  17
TORSDOF 10
ENDMDL
MODEL 3
REMARK VINA RESULT:    -6.410     15.494     18.902
REMARK INTER + INTRA:         -10.508
REMARK INTER:                  -9.837
REMARK INTRA:                  -0.671
REMARK UNBOUND:                -0.537
REMARK SMILES COc1cc(CNC(=O)CCCC/C=C/C(C)C)ccc1O
REMARK SMILES IDX 10 1 8 2 7 3 9 5 6 6 5 7 3 8 21 9 4 10 20 11 19 12 2 13 1 14
REMARK SMILES IDX 22 15 11 17 12 18 13 19 14 20 15 21 16 22 17 23 18 24
REMARK H PARENT 7 4 22 16
REMARK Flexibility Score: inf
ROOT
ATOM      1  C   UNL     1      92.525  95.262  75.066  1.00  0.00     0.100 C 
ENDROOT
BRANCH   1   2
ATOM      2  C   UNL     1      93.785  96.028  75.030  1.00  0.00     0.220 C 
ATOM      3  N   UNL     1      94.260  96.524  73.853  1.00  0.00    -0.352 N 
ATOM      4  H   UNL     1      93.701  96.303  73.041  1.00  0.00     0.163 HD
ATOM      5  O   UNL     1      94.388  96.227  76.113  1.00  0.00    -0.275 OA
BRANCH   3   6
ATOM      6  C   UNL     1      95.449  97.303  73.717  1.00  0.00     0.151 C 
BRANCH   6   7
ATOM      7  C   UNL     1      95.667  97.725  72.306  1.00  0.00    -0.025 A 
ATOM      8  C   UNL     1      97.142  97.910  70.344  1.00  0.00     0.160 A 
ATOM      9  C   UNL     1      96.094  98.505  69.611  1.00  0.00     0.157 A 
ATOM     10  C   UNL     1      96.920  97.528  71.683  1.00  0.00     0.056 A 
ATOM     11  C   UNL     1      94.845  98.726  70.225  1.00  0.00     0.050 A 
ATOM     12  C   UNL     1      94.629  98.331  71.560  1.00  0.00     0.009 A 
BRANCH   8  13
ATOM     13  O   UNL     1      98.378  97.753  69.771  1.00  0.00    -0.493 OA
ATOM     14  C   UNL     1      98.729  96.384  69.498  1.00  0.00     0.278 C 
ENDBRANCH   8  13
BRANCH   9  15
ATOM     15  O   UNL     1      96.271  98.873  68.316  1.00  0.00    -0.504 OA
ATOM     16  H   UNL     1      97.177  98.695  68.053  1.00  0.00     0.293 HD
ENDBRANCH   9  15
ENDBRANCH   6   7
ENDBRANCH   3   6
ENDBRANCH   1   2
BRANCH   1  17
ATOM     17  C   UNL     1      92.275  94.635  76.465  1.00  0.00     0.010 C 
BRANCH  17  18
ATOM     18  C   UNL     1      90.847  94.921  77.009  1.00  0.00     0.005 C 
BRANCH  18  19
ATOM     19  C   UNL     1      90.071  93.619  77.345  1.00  0.00     0.027 C 
BRANCH  19  20
ATOM     20  C   UNL     1      89.831  92.806  76.163  1.00  0.00    -0.031 C 
ATOM     21  C   UNL     1      89.899  91.462  76.143  1.00  0.00    -0.028 C 
BRANCH  21  22
ATOM     22  C   UNL     1      89.633  90.663  74.947  1.00  0.00     0.005 C 
ATOM     23  C   UNL     1      90.560  91.050  73.762  1.00  0.00     0.012 C 
ATOM     24  C   UNL     1      89.757  89.152  75.274  1.00  0.00     0.012 C 
ENDBRANCH  21  22
ENDBRANCH  19  20
ENDBRANCH  18  19
ENDBRANCH  17  18
ENDBRANCH   1  17
TORSDOF 10
ENDMDL
MODEL 4
REMARK VINA RESULT:    -6.370      3.970      7.488
REMARK INTER + INTRA:         -10.444
REMARK INTER:                  -9.767
REMARK INTRA:                  -0.677
REMARK UNBOUND:                -0.537
REMARK SMILES COc1cc(CNC(=O)CCCC/C=C/C(C)C)ccc1O
REMARK SMILES IDX 10 1 8 2 7 3 9 5 6 6 5 7 3 8 21 9 4 10 20 11 19 12 2 13 1 14
REMARK SMILES IDX 22 15 11 17 12 18 13 19 14 20 15 21 16 22 17 23 18 24
REMARK H PARENT 7 4 22 16
REMARK Flexibility Score: inf
ROOT
ATOM      1  C   UNL     1      98.204  83.166  79.163  1.00  0.00     0.100 C 
ENDROOT
BRANCH   1   2
ATOM      2  C   UNL     1      97.673  82.340  80.264  1.00  0.00     0.220 C 
ATOM      3  N   UNL     1      97.547  82.858  81.518  1.00  0.00    -0.352 N 
ATOM      4  H   UNL     1      97.862  83.813  81.619  1.00  0.00     0.163 HD
ATOM      5  O   UNL     1      97.322  81.164  80.005  1.00  0.00    -0.275 OA
BRANCH   3   6
ATOM      6  C   UNL     1      97.016  82.154  82.641  1.00  0.00     0.151 C 
BRANCH   6   7
ATOM      7  C   UNL     1      96.011  82.972  83.373  1.00  0.00    -0.025 A 
ATOM      8  C   UNL     1      93.937  83.115  84.693  1.00  0.00     0.160 A 
ATOM      9  C   UNL     1      94.094  84.513  84.790  1.00  0.00     0.157 A 
ATOM     10  C   UNL     1      94.894  82.359  83.984  1.00  0.00     0.056 A 
ATOM     11  C   UNL     1      95.193  85.141  84.169  1.00  0.00     0.050 A 
ATOM     12  C   UNL     1      96.149  84.376  83.474  1.00  0.00     0.009 A 
BRANCH   8  13
ATOM     13  O   UNL     1      92.835  82.507  85.239  1.00  0.00    -0.493 OA
ATOM     14  C   UNL     1      92.120  81.656  84.324  1.00  0.00     0.278 C 
ENDBRANCH   8  13
BRANCH   9  15
ATOM     15  O   UNL     1      93.198  85.269  85.476  1.00  0.00    -0.504 OA
ATOM     16  H   UNL     1      93.440  85.289  86.405  1.00  0.00     0.293 HD
ENDBRANCH   9  15
ENDBRANCH   6   7
ENDBRANCH   3   6
ENDBRANCH   1   2
BRANCH   1  17
ATOM     17  C   UNL     1      97.393  82.966  77.854  1.00  0.00     0.010 C 
BRANCH  17  18
ATOM     18  C   UNL     1      96.312  84.063  77.638  1.00  0.00     0.005 C 
BRANCH  18  19
ATOM     19  C   UNL     1      96.453  84.768  76.263  1.00  0.00     0.027 C 
BRANCH  19  20
ATOM     20  C   UNL     1      97.443  84.122  75.415  1.00  0.00    -0.031 C 
ATOM     21  C   UNL     1      97.896  84.634  74.256  1.00  0.00    -0.028 C 
BRANCH  21  22
ATOM     22  C   UNL     1      98.908  83.976  73.429  1.00  0.00     0.005 C 
ATOM     23  C   UNL     1      98.347  82.726  72.695  1.00  0.00     0.012 C 
ATOM     24  C   UNL     1      99.513  84.985  72.419  1.00  0.00     0.012 C 
ENDBRANCH  21  22
ENDBRANCH  19  20
ENDBRANCH  18  19
ENDBRANCH  17  18
ENDBRANCH   1  17
TORSDOF 10
ENDMDL
MODEL 5
REMARK VINA RESULT:    -6.239      4.874      8.780
REMARK INTER + INTRA:         -10.241
REMARK INTER:                  -9.599
REMARK INTRA:                  -0.642
REMARK UNBOUND:                -0.537
REMARK SMILES COc1cc(CNC(=O)CCCC/C=C/C(C)C)ccc1O
REMARK SMILES IDX 10 1 8 2 7 3 9 5 6 6 5 7 3 8 21 9 4 10 20 11 19 12 2 13 1 14
REMARK SMILES IDX 22 15 11 17 12 18 13 19 14 20 15 21 16 22 17 23 18 24
REMARK H PARENT 7 4 22 16
REMARK Flexibility Score: inf
ROOT
ATOM      1  C   UNL     1      93.571  82.095  86.002  1.00  0.00     0.100 C 
ENDROOT
BRANCH   1   2
ATOM      2  C   UNL     1      93.913  83.462  85.564  1.00  0.00     0.220 C 
ATOM      3  N   UNL     1      93.424  84.545  86.232  1.00  0.00    -0.352 N 
ATOM      4  H   UNL     1      92.813  84.327  87.007  1.00  0.00     0.163 HD
ATOM      5  O   UNL     1      94.680  83.594  84.579  1.00  0.00    -0.275 OA
BRANCH   3   6
ATOM      6  C   UNL     1      93.720  85.904  85.909  1.00  0.00     0.151 C 
BRANCH   6   7
ATOM      7  C   UNL     1      93.761  86.758  87.127  1.00  0.00    -0.025 A 
ATOM      8  C   UNL     1      94.377  88.876  88.221  1.00  0.00     0.160 A 
ATOM      9  C   UNL     1      93.831  88.409  89.435  1.00  0.00     0.157 A 
ATOM     10  C   UNL     1      94.339  88.047  87.081  1.00  0.00     0.056 A 
ATOM     11  C   UNL     1      93.268  87.119  89.500  1.00  0.00     0.050 A 
ATOM     12  C   UNL     1      93.225  86.303  88.353  1.00  0.00     0.009 A 
BRANCH   8  13
ATOM     13  O   UNL     1      94.985  90.105  88.169  1.00  0.00    -0.493 OA
ATOM     14  C   UNL     1      94.151  91.149  87.632  1.00  0.00     0.278 C 
ENDBRANCH   8  13
BRANCH   9  15
ATOM     15  O   UNL     1      93.839  89.187  90.548  1.00  0.00    -0.504 OA
ATOM     16  H   UNL     1      94.351  88.757  91.236  1.00  0.00     0.293 HD
ENDBRANCH   9  15
ENDBRANCH   6   7
ENDBRANCH   3   6
ENDBRANCH   1   2
BRANCH   1  17
ATOM     17  C   UNL     1      92.811  81.313  84.897  1.00  0.00     0.010 C 
BRANCH  17  18
ATOM     18  C   UNL     1      91.562  82.074  84.367  1.00  0.00     0.005 C 
BRANCH  18  19
ATOM     19  C   UNL     1      90.234  81.374  84.761  1.00  0.00     0.027 C 
BRANCH  19  20
ATOM     20  C   UNL     1      89.068  82.125  84.320  1.00  0.00    -0.031 C 
ATOM     21  C   UNL     1      88.340  82.928  85.117  1.00  0.00    -0.028 C 
BRANCH  21  22
ATOM     22  C   UNL     1      87.183  83.689  84.648  1.00  0.00     0.005 C 
ATOM     23  C   UNL     1      86.384  82.932  83.551  1.00  0.00     0.012 C 
ATOM     24  C   UNL     1      86.265  84.061  85.842  1.00  0.00     0.012 C 
ENDBRANCH  21  22
ENDBRANCH  19  20
ENDBRANCH  18  19
ENDBRANCH  17  18
ENDBRANCH   1  17
TORSDOF 10
ENDMDL
MODEL 6
REMARK VINA RESULT:    -6.060     21.514     24.460
REMARK INTER + INTRA:          -9.963
REMARK INTER:                  -8.228
REMARK INTRA:                  -1.735
REMARK UNBOUND:                -0.537
REMARK SMILES COc1cc(CNC(=O)CCCC/C=C/C(C)C)ccc1O
REMARK SMILES IDX 10 1 8 2 7 3 9 5 6 6 5 7 3 8 21 9 4 10 20 11 19 12 2 13 1 14
REMARK SMILES IDX 22 15 11 17 12 18 13 19 14 20 15 21 16 22 17 23 18 24
REMARK H PARENT 7 4 22 16
REMARK Flexibility Score: inf
ROOT
ATOM      1  C   UNL     1      74.882  84.871  63.974  1.00  0.00     0.100 C 
ENDROOT
BRANCH   1   2
ATOM      2  C   UNL     1      75.173  86.317  63.992  1.00  0.00     0.220 C 
ATOM      3  N   UNL     1      75.654  86.912  65.120  1.00  0.00    -0.352 N 
ATOM      4  H   UNL     1      75.763  86.296  65.914  1.00  0.00     0.163 HD
ATOM      5  O   UNL     1      74.988  86.972  62.938  1.00  0.00    -0.275 OA
BRANCH   3   6
ATOM      6  C   UNL     1      75.997  88.294  65.231  1.00  0.00     0.151 C 
BRANCH   6   7
ATOM      7  C   UNL     1      75.702  88.823  66.590  1.00  0.00    -0.025 A 
ATOM      8  C   UNL     1      74.088  89.701  68.229  1.00  0.00     0.160 A 
ATOM      9  C   UNL     1      75.119  89.815  69.185  1.00  0.00     0.157 A 
ATOM     10  C   UNL     1      74.389  89.209  66.942  1.00  0.00     0.056 A 
ATOM     11  C   UNL     1      76.436  89.452  68.843  1.00  0.00     0.050 A 
ATOM     12  C   UNL     1      76.725  88.950  67.559  1.00  0.00     0.009 A 
BRANCH   8  13
ATOM     13  O   UNL     1      72.817  90.115  68.536  1.00  0.00    -0.493 OA
ATOM     14  C   UNL     1      71.787  89.471  67.763  1.00  0.00     0.278 C 
ENDBRANCH   8  13
BRANCH   9  15
ATOM     15  O   UNL     1      74.860  90.272  70.437  1.00  0.00    -0.504 OA
ATOM     16  H   UNL     1      75.668  90.265  70.954  1.00  0.00     0.293 HD
ENDBRANCH   9  15
ENDBRANCH   6   7
ENDBRANCH   3   6
ENDBRANCH   1   2
BRANCH   1  17
ATOM     17  C   UNL     1      76.174  84.029  63.793  1.00  0.00     0.010 C 
BRANCH  17  18
ATOM     18  C   UNL     1      76.510  83.162  65.039  1.00  0.00     0.005 C 
BRANCH  18  19
ATOM     19  C   UNL     1      77.377  83.927  66.075  1.00  0.00     0.027 C 
BRANCH  19  20
ATOM     20  C   UNL     1      76.592  84.390  67.209  1.00  0.00    -0.031 C 
ATOM     21  C   UNL     1      77.058  85.214  68.165  1.00  0.00    -0.028 C 
BRANCH  21  22
ATOM     22  C   UNL     1      76.245  85.683  69.286  1.00  0.00     0.005 C 
ATOM     23  C   UNL     1      74.783  85.996  68.864  1.00  0.00     0.012 C 
ATOM     24  C   UNL     1      76.278  84.649  70.442  1.00  0.00     0.012 C 
ENDBRANCH  21  22
ENDBRANCH  19  20
ENDBRANCH  18  19
ENDBRANCH  17  18
ENDBRANCH   1  17
TORSDOF 10
ENDMDL
MODEL 7
REMARK VINA RESULT:    -6.046     20.504     23.991
REMARK INTER + INTRA:          -9.941
REMARK INTER:                  -9.269
REMARK INTRA:                  -0.672
REMARK UNBOUND:                -0.537
REMARK SMILES COc1cc(CNC(=O)CCCC/C=C/C(C)C)ccc1O
REMARK SMILES IDX 10 1 8 2 7 3 9 5 6 6 5 7 3 8 21 9 4 10 20 11 19 12 2 13 1 14
REMARK SMILES IDX 22 15 11 17 12 18 13 19 14 20 15 21 16 22 17 23 18 24
REMARK H PARENT 7 4 22 16
REMARK Flexibility Score: inf
ROOT
ATOM      1  C   UNL     1      82.072  63.984  70.407  1.00  0.00     0.100 C 
ENDROOT
BRANCH   1   2
ATOM      2  C   UNL     1      82.837  64.425  71.589  1.00  0.00     0.220 C 
ATOM      3  N   UNL     1      82.259  65.228  72.526  1.00  0.00    -0.352 N 
ATOM      4  H   UNL     1      81.306  65.500  72.326  1.00  0.00     0.163 HD
ATOM      5  O   UNL     1      84.018  64.021  71.715  1.00  0.00    -0.275 OA
BRANCH   3   6
ATOM      6  C   UNL     1      82.901  65.683  73.718  1.00  0.00     0.151 C 
BRANCH   6   7
ATOM      7  C   UNL     1      83.704  66.912  73.471  1.00  0.00    -0.025 A 
ATOM      8  C   UNL     1      85.716  68.263  73.905  1.00  0.00     0.160 A 
ATOM      9  C   UNL     1      85.256  69.240  72.998  1.00  0.00     0.157 A 
ATOM     10  C   UNL     1      84.935  67.111  74.135  1.00  0.00     0.056 A 
ATOM     11  C   UNL     1      84.021  69.066  72.344  1.00  0.00     0.050 A 
ATOM     12  C   UNL     1      83.254  67.906  72.571  1.00  0.00     0.009 A 
BRANCH   8  13
ATOM     13  O   UNL     1      86.886  68.460  74.594  1.00  0.00    -0.493 OA
ATOM     14  C   UNL     1      86.706  69.017  75.909  1.00  0.00     0.278 C 
ENDBRANCH   8  13
BRANCH   9  15
ATOM     15  O   UNL     1      85.990  70.355  72.745  1.00  0.00    -0.504 OA
ATOM     16  H   UNL     1      86.869  70.251  73.115  1.00  0.00     0.293 HD
ENDBRANCH   9  15
ENDBRANCH   6   7
ENDBRANCH   3   6
ENDBRANCH   1   2
BRANCH   1  17
ATOM     17  C   UNL     1      80.678  64.663  70.341  1.00  0.00     0.010 C 
BRANCH  17  18
ATOM     18  C   UNL     1      79.894  64.310  69.045  1.00  0.00     0.005 C 
BRANCH  18  19
ATOM     19  C   UNL     1      78.626  63.462  69.335  1.00  0.00     0.027 C 
BRANCH  19  20
ATOM     20  C   UNL     1      77.524  63.803  68.448  1.00  0.00    -0.031 C 
ATOM     21  C   UNL     1      76.739  64.885  68.600  1.00  0.00    -0.028 C 
BRANCH  21  22
ATOM     22  C   UNL     1      75.649  65.220  67.684  1.00  0.00     0.005 C 
ATOM     23  C   UNL     1      76.138  66.047  66.462  1.00  0.00     0.012 C 
ATOM     24  C   UNL     1      74.921  63.931  67.223  1.00  0.00     0.012 C 
ENDBRANCH  21  22
ENDBRANCH  19  20
ENDBRANCH  18  19
ENDBRANCH  17  18
ENDBRANCH   1  17
TORSDOF 10
ENDMDL
MODEL 8
REMARK VINA RESULT:    -5.961     22.031     24.296
REMARK INTER + INTRA:          -9.808
REMARK INTER:                  -8.239
REMARK INTRA:                  -1.569
REMARK UNBOUND:                -0.537
REMARK SMILES COc1cc(CNC(=O)CCCC/C=C/C(C)C)ccc1O
REMARK SMILES IDX 10 1 8 2 7 3 9 5 6 6 5 7 3 8 21 9 4 10 20 11 19 12 2 13 1 14
REMARK SMILES IDX 22 15 11 17 12 18 13 19 14 20 15 21 16 22 17 23 18 24
REMARK H PARENT 7 4 22 16
REMARK Flexibility Score: inf
ROOT
ATOM      1  C   UNL     1      77.048  83.944  65.921  1.00  0.00     0.100 C 
ENDROOT
BRANCH   1   2
ATOM      2  C   UNL     1      75.819  84.659  65.525  1.00  0.00     0.220 C 
ATOM      3  N   UNL     1      74.641  83.988  65.391  1.00  0.00    -0.352 N 
ATOM      4  H   UNL     1      74.696  82.992  65.557  1.00  0.00     0.163 HD
ATOM      5  O   UNL     1      75.888  85.898  65.342  1.00  0.00    -0.275 OA
BRANCH   3   6
ATOM      6  C   UNL     1      73.394  84.591  65.045  1.00  0.00     0.151 C 
BRANCH   6   7
ATOM      7  C   UNL     1      72.575  84.885  66.253  1.00  0.00    -0.025 A 
ATOM      8  C   UNL     1      72.036  86.355  68.152  1.00  0.00     0.160 A 
ATOM      9  C   UNL     1      71.011  85.471  68.547  1.00  0.00     0.157 A 
ATOM     10  C   UNL     1      72.809  86.053  67.012  1.00  0.00     0.056 A 
ATOM     11  C   UNL     1      70.779  84.292  67.811  1.00  0.00     0.050 A 
ATOM     12  C   UNL     1      71.548  84.005  66.667  1.00  0.00     0.009 A 
BRANCH   8  13
ATOM     13  O   UNL     1      72.309  87.470  68.903  1.00  0.00    -0.493 OA
ATOM     14  C   UNL     1      71.846  88.701  68.316  1.00  0.00     0.278 C 
ENDBRANCH   8  13
BRANCH   9  15
ATOM     15  O   UNL     1      70.240  85.738  69.633  1.00  0.00    -0.504 OA
ATOM     16  H   UNL     1      70.304  85.013  70.258  1.00  0.00     0.293 HD
ENDBRANCH   9  15
ENDBRANCH   6   7
ENDBRANCH   3   6
ENDBRANCH   1   2
BRANCH   1  17
ATOM     17  C   UNL     1      77.530  84.371  67.333  1.00  0.00     0.010 C 
BRANCH  17  18
ATOM     18  C   UNL     1      76.411  84.277  68.408  1.00  0.00     0.005 C 
BRANCH  18  19
ATOM     19  C   UNL     1      76.648  85.251  69.594  1.00  0.00     0.027 C 
BRANCH  19  20
ATOM     20  C   UNL     1      76.823  86.625  69.147  1.00  0.00    -0.031 C 
ATOM     21  C   UNL     1      75.835  87.389  68.649  1.00  0.00    -0.028 C 
BRANCH  21  22
ATOM     22  C   UNL     1      76.029  88.775  68.224  1.00  0.00     0.005 C 
ATOM     23  C   UNL     1      75.510  89.793  69.277  1.00  0.00     0.012 C 
ATOM     24  C   UNL     1      77.523  89.031  67.896  1.00  0.00     0.012 C 
ENDBRANCH  21  22
ENDBRANCH  19  20
ENDBRANCH  18  19
ENDBRANCH  17  18
ENDBRANCH   1  17
TORSDOF 10
ENDMDL
MODEL 9
REMARK VINA RESULT:    -5.855     20.786     22.582
REMARK INTER + INTRA:          -9.643
REMARK INTER:                  -8.951
REMARK INTRA:                  -0.692
REMARK UNBOUND:                -0.537
REMARK SMILES COc1cc(CNC(=O)CCCC/C=C/C(C)C)ccc1O
REMARK SMILES IDX 10 1 8 2 7 3 9 5 6 6 5 7 3 8 21 9 4 10 20 11 19 12 2 13 1 14
REMARK SMILES IDX 22 15 11 17 12 18 13 19 14 20 15 21 16 22 17 23 18 24
REMARK H PARENT 7 4 22 16
REMARK Flexibility Score: inf
ROOT
ATOM      1  C   UNL     1      72.599  91.542  72.343  1.00  0.00     0.100 C 
ENDROOT
BRANCH   1   2
ATOM      2  C   UNL     1      72.557  91.968  73.755  1.00  0.00     0.220 C 
ATOM      3  N   UNL     1      73.696  92.358  74.394  1.00  0.00    -0.352 N 
ATOM      4  H   UNL     1      74.537  92.305  73.836  1.00  0.00     0.163 HD
ATOM      5  O   UNL     1      71.446  91.982  74.337  1.00  0.00    -0.275 OA
BRANCH   3   6
ATOM      6  C   UNL     1      73.757  92.817  75.745  1.00  0.00     0.151 C 
BRANCH   6   7
ATOM      7  C   UNL     1      75.055  93.484  76.037  1.00  0.00    -0.025 A 
ATOM      8  C   UNL     1      77.258  94.280  75.278  1.00  0.00     0.160 A 
ATOM      9  C   UNL     1      77.527  94.772  76.572  1.00  0.00     0.157 A 
ATOM     10  C   UNL     1      76.027  93.640  75.023  1.00  0.00     0.056 A 
ATOM     11  C   UNL     1      76.576  94.606  77.598  1.00  0.00     0.050 A 
ATOM     12  C   UNL     1      75.345  93.976  77.331  1.00  0.00     0.009 A 
BRANCH   8  13
ATOM     13  O   UNL     1      78.207  94.381  74.293  1.00  0.00    -0.493 OA
ATOM     14  C   UNL     1      77.953  95.426  73.337  1.00  0.00     0.278 C 
ENDBRANCH   8  13
BRANCH   9  15
ATOM     15  O   UNL     1      78.697  95.405  76.847  1.00  0.00    -0.504 OA
ATOM     16  H   UNL     1      79.432  94.849  76.580  1.00  0.00     0.293 HD
ENDBRANCH   9  15
ENDBRANCH   6   7
ENDBRANCH   3   6
ENDBRANCH   1   2
BRANCH   1  17
ATOM     17  C   UNL     1      73.995  91.791  71.711  1.00  0.00     0.010 C 
BRANCH  17  18
ATOM     18  C   UNL     1      74.091  91.293  70.241  1.00  0.00     0.005 C 
BRANCH  18  19
ATOM     19  C   UNL     1      74.227  89.749  70.149  1.00  0.00     0.027 C 
BRANCH  19  20
ATOM     20  C   UNL     1      75.373  89.348  69.347  1.00  0.00    -0.031 C 
ATOM     21  C   UNL     1      75.517  88.132  68.789  1.00  0.00    -0.028 C 
BRANCH  21  22
ATOM     22  C   UNL     1      76.670  87.757  67.970  1.00  0.00     0.005 C 
ATOM     23  C   UNL     1      77.676  88.929  67.796  1.00  0.00     0.012 C 
ATOM     24  C   UNL     1      77.371  86.511  68.571  1.00  0.00     0.012 C 
ENDBRANCH  21  22
ENDBRANCH  19  20
ENDBRANCH  18  19
ENDBRANCH  17  18
ENDBRANCH   1  17
TORSDOF 10
ENDMDL
MODEL 10
REMARK VINA RESULT:    -5.838      3.617      6.115
REMARK INTER + INTRA:          -9.617
REMARK INTER:                  -8.620
REMARK INTRA:                  -0.998
REMARK UNBOUND:                -0.537
REMARK SMILES COc1cc(CNC(=O)CCCC/C=C/C(C)C)ccc1O
REMARK SMILES IDX 10 1 8 2 7 3 9 5 6 6 5 7 3 8 21 9 4 10 20 11 19 12 2 13 1 14
REMARK SMILES IDX 22 15 11 17 12 18 13 19 14 20 15 21 16 22 17 23 18 24
REMARK H PARENT 7 4 22 16
REMARK Flexibility Score: inf
ROOT
ATOM      1  C   UNL     1      94.077  82.467  87.984  1.00  0.00     0.100 C 
ENDROOT
BRANCH   1   2
ATOM      2  C   UNL     1      93.487  82.822  86.679  1.00  0.00     0.220 C 
ATOM      3  N   UNL     1      93.230  81.858  85.751  1.00  0.00    -0.352 N 
ATOM      4  H   UNL     1      93.495  80.922  86.024  1.00  0.00     0.163 HD
ATOM      5  O   UNL     1      93.210  84.027  86.462  1.00  0.00    -0.275 OA
BRANCH   3   6
ATOM      6  C   UNL     1      92.634  82.093  84.475  1.00  0.00     0.151 C 
BRANCH   6   7
ATOM      7  C   UNL     1      91.266  81.511  84.395  1.00  0.00    -0.025 A 
ATOM      8  C   UNL     1      88.826  81.773  84.600  1.00  0.00     0.160 A 
ATOM      9  C   UNL     1      88.650  80.424  84.230  1.00  0.00     0.157 A 
ATOM     10  C   UNL     1      90.131  82.303  84.681  1.00  0.00     0.056 A 
ATOM     11  C   UNL     1      89.772  79.617  83.961  1.00  0.00     0.050 A 
ATOM     12  C   UNL     1      91.071  80.158  84.033  1.00  0.00     0.009 A 
BRANCH   8  13
ATOM     13  O   UNL     1      87.740  82.545  84.927  1.00  0.00    -0.493 OA
ATOM     14  C   UNL     1      87.239  83.343  83.839  1.00  0.00     0.278 C 
ENDBRANCH   8  13
BRANCH   9  15
ATOM     15  O   UNL     1      87.406  79.887  84.129  1.00  0.00    -0.504 OA
ATOM     16  H   UNL     1      87.436  79.114  83.561  1.00  0.00     0.293 HD
ENDBRANCH   9  15
ENDBRANCH   6   7
ENDBRANCH   3   6
ENDBRANCH   1   2
BRANCH   1  17
ATOM     17  C   UNL     1      92.993  82.349  89.089  1.00  0.00     0.010 C 
BRANCH  17  18
ATOM     18  C   UNL     1      93.161  83.405  90.217  1.00  0.00     0.005 C 
BRANCH  18  19
ATOM     19  C   UNL     1      94.456  84.246  90.050  1.00  0.00     0.027 C 
BRANCH  19  20
ATOM     20  C   UNL     1      94.174  85.605  89.612  1.00  0.00    -0.031 C 
ATOM     21  C   UNL     1      92.936  86.088  89.397  1.00  0.00    -0.028 C 
BRANCH  21  22
ATOM     22  C   UNL     1      92.675  87.464  88.975  1.00  0.00     0.005 C 
ATOM     23  C   UNL     1      91.946  88.288  90.073  1.00  0.00     0.012 C 
ATOM     24  C   UNL     1      93.997  88.155  88.551  1.00  0.00     0.012 C 
ENDBRANCH  21  22
ENDBRANCH  19  20
ENDBRANCH  18  19
ENDBRANCH  17  18
ENDBRANCH   1  17
TORSDOF 10
ENDMDL
