MODEL 1
REMARK VINA RESULT:    -7.877      0.000      0.000
REMARK INTER + INTRA:          -9.371
REMARK INTER:                  -9.258
REMARK INTRA:                  -0.113
REMARK UNBOUND:                -0.113
REMARK SMILES O=C(/C=C/C=C/c1ccc2c(c1)OCO2)N1CCCCC1
REMARK SMILES IDX 3 1 4 2 2 3 1 4 16 5 17 6 21 7 18 8 20 9 19 10 5 11 6 12
REMARK SMILES IDX 7 13 12 14 8 15 11 16 9 17 13 18 10 19 14 20 15 21
REMARK H PARENT
REMARK Flexibility Score: inf
ROOT
ATOM      1  C   UNL     1      96.171  83.972  83.237  1.00  0.00     0.071 C 
ATOM      2  C   UNL     1      96.597  83.047  82.379  1.00  0.00     0.006 C 
ENDROOT
BRANCH   1   3
ATOM      3  C   UNL     1      96.136  83.625  84.672  1.00  0.00     0.246 C 
ATOM      4  O   UNL     1      97.001  84.116  85.398  1.00  0.00    -0.270 OA
ATOM      5  N   UNL     1      95.130  82.763  85.107  1.00  0.00    -0.339 N 
ATOM      6  C   UNL     1      95.073  82.396  86.525  1.00  0.00     0.120 C 
ATOM      7  C   UNL     1      94.109  82.123  84.265  1.00  0.00     0.120 C 
ATOM      8  C   UNL     1      93.689  82.654  87.112  1.00  0.00     0.022 C 
ATOM      9  C   UNL     1      92.706  82.357  84.823  1.00  0.00     0.022 C 
ATOM     10  C   UNL     1      92.609  81.955  86.292  1.00  0.00     0.004 C 
ENDBRANCH   1   3
BRANCH   2  11
ATOM     11  C   UNL     1      96.666  83.294  80.955  1.00  0.00     0.001 C 
ATOM     12  C   UNL     1      97.610  82.750  80.169  1.00  0.00     0.008 C 
BRANCH  12  13
ATOM     13  C   UNL     1      97.732  82.973  78.718  1.00  0.00    -0.022 A 
ATOM     14  C   UNL     1      96.823  83.809  78.084  1.00  0.00     0.058 A 
ATOM     15  C   UNL     1      98.761  82.337  78.019  1.00  0.00     0.012 A 
ATOM     16  C   UNL     1      96.978  83.987  76.725  1.00  0.00     0.166 A 
ATOM     17  C   UNL     1      98.895  82.535  76.643  1.00  0.00     0.051 A 
ATOM     18  O   UNL     1      96.193  84.761  75.926  1.00  0.00    -0.454 OA
ATOM     19  C   UNL     1      97.987  83.367  76.023  1.00  0.00     0.165 A 
ATOM     20  C   UNL     1      96.821  84.559  74.644  1.00  0.00     0.468 C 
ATOM     21  O   UNL     1      97.960  83.675  74.698  1.00  0.00    -0.454 OA
ENDBRANCH  12  13
ENDBRANCH   2  11
TORSDOF 3
ENDMDL
MODEL 2
REMARK VINA RESULT:    -7.873      1.155      1.854
REMARK INTER + INTRA:          -9.367
REMARK INTER:                  -9.029
REMARK INTRA:                  -0.337
REMARK UNBOUND:                -0.113
REMARK SMILES O=C(/C=C/C=C/c1ccc2c(c1)OCO2)N1CCCCC1
REMARK SMILES IDX 3 1 4 2 2 3 1 4 16 5 17 6 21 7 18 8 20 9 19 10 5 11 6 12
REMARK SMILES IDX 7 13 12 14 8 15 11 16 9 17 13 18 10 19 14 20 15 21
REMARK H PARENT
REMARK Flexibility Score: inf
ROOT
ATOM      1  C   UNL     1      96.469  83.176  82.462  1.00  0.00     0.071 C 
ATOM      2  C   UNL     1      97.096  82.642  81.416  1.00  0.00     0.006 C 
ENDROOT
BRANCH   1   3
ATOM      3  C   UNL     1      96.641  82.531  83.779  1.00  0.00     0.246 C 
ATOM      4  O   UNL     1      97.790  82.285  84.147  1.00  0.00    -0.270 OA
ATOM      5  N   UNL     1      95.493  82.240  84.514  1.00  0.00    -0.339 N 
ATOM      6  C   UNL     1      95.631  81.594  85.823  1.00  0.00     0.120 C 
ATOM      7  C   UNL     1      94.105  82.477  84.089  1.00  0.00     0.120 C 
ATOM      8  C   UNL     1      94.888  82.367  86.907  1.00  0.00     0.022 C 
ATOM      9  C   UNL     1      93.325  83.249  85.153  1.00  0.00     0.022 C 
ATOM     10  C   UNL     1      93.428  82.582  86.522  1.00  0.00     0.004 C 
ENDBRANCH   1   3
BRANCH   2  11
ATOM     11  C   UNL     1      96.989  83.202  80.086  1.00  0.00     0.001 C 
ATOM     12  C   UNL     1      97.490  82.594  78.999  1.00  0.00     0.008 C 
BRANCH  12  13
ATOM     13  C   UNL     1      97.416  83.122  77.626  1.00  0.00    -0.022 A 
ATOM     14  C   UNL     1      98.156  82.508  76.625  1.00  0.00     0.058 A 
ATOM     15  C   UNL     1      96.603  84.229  77.369  1.00  0.00     0.012 A 
ATOM     16  C   UNL     1      98.054  83.039  75.356  1.00  0.00     0.166 A 
ATOM     17  C   UNL     1      96.519  84.747  76.075  1.00  0.00     0.051 A 
ATOM     18  O   UNL     1      98.697  82.583  74.246  1.00  0.00    -0.454 OA
ATOM     19  C   UNL     1      97.257  84.129  75.087  1.00  0.00     0.165 A 
ATOM     20  C   UNL     1      98.215  83.508  73.249  1.00  0.00     0.468 C 
ATOM     21  O   UNL     1      97.301  84.491  73.776  1.00  0.00    -0.454 OA
ENDBRANCH  12  13
ENDBRANCH   2  11
TORSDOF 3
ENDMDL
MODEL 3
REMARK VINA RESULT:    -7.871      3.241      9.407
REMARK INTER + INTRA:          -9.365
REMARK INTER:                  -8.997
REMARK INTRA:                  -0.368
REMARK UNBOUND:                -0.113
REMARK SMILES O=C(/C=C/C=C/c1ccc2c(c1)OCO2)N1CCCCC1
REMARK SMILES IDX 3 1 4 2 2 3 1 4 16 5 17 6 21 7 18 8 20 9 19 10 5 11 6 12
REMARK SMILES IDX 7 13 12 14 8 15 11 16 9 17 13 18 10 19 14 20 15 21
REMARK H PARENT
REMARK Flexibility Score: inf
ROOT
ATOM      1  C   UNL     1      97.553  83.941  76.848  1.00  0.00     0.071 C 
ATOM      2  C   UNL     1      96.430  83.937  77.563  1.00  0.00     0.006 C 
ENDROOT
BRANCH   1   3
ATOM      3  C   UNL     1      97.471  84.334  75.428  1.00  0.00     0.246 C 
ATOM      4  O   UNL     1      96.362  84.635  74.983  1.00  0.00    -0.270 OA
ATOM      5  N   UNL     1      98.650  84.335  74.685  1.00  0.00    -0.339 N 
ATOM      6  C   UNL     1      98.600  84.716  73.270  1.00  0.00     0.120 C 
ATOM      7  C   UNL     1      99.982  83.940  75.167  1.00  0.00     0.120 C 
ATOM      8  C   UNL     1      99.607  85.816  72.953  1.00  0.00     0.022 C 
ATOM      9  C   UNL     1     101.023  85.018  74.864  1.00  0.00     0.022 C 
ATOM     10  C   UNL     1     101.011  85.414  73.391  1.00  0.00     0.004 C 
ENDBRANCH   1   3
BRANCH   2  11
ATOM     11  C   UNL     1      96.409  83.566  78.962  1.00  0.00     0.001 C 
ATOM     12  C   UNL     1      97.082  82.508  79.443  1.00  0.00     0.008 C 
BRANCH  12  13
ATOM     13  C   UNL     1      97.089  82.082  80.853  1.00  0.00    -0.022 A 
ATOM     14  C   UNL     1      97.051  83.046  81.850  1.00  0.00     0.058 A 
ATOM     15  C   UNL     1      97.134  80.717  81.147  1.00  0.00     0.012 A 
ATOM     16  C   UNL     1      97.059  82.598  83.155  1.00  0.00     0.166 A 
ATOM     17  C   UNL     1      97.141  80.291  82.477  1.00  0.00     0.051 A 
ATOM     18  O   UNL     1      97.028  83.381  84.268  1.00  0.00    -0.454 OA
ATOM     19  C   UNL     1      97.103  81.257  83.461  1.00  0.00     0.165 A 
ATOM     20  C   UNL     1      97.057  82.382  85.308  1.00  0.00     0.468 C 
ATOM     21  O   UNL     1      97.105  81.032  84.803  1.00  0.00    -0.454 OA
ENDBRANCH  12  13
ENDBRANCH   2  11
TORSDOF 3
ENDMDL
MODEL 4
REMARK VINA RESULT:    -7.768      6.918      8.827
REMARK INTER + INTRA:          -9.243
REMARK INTER:                  -8.943
REMARK INTRA:                  -0.301
REMARK UNBOUND:                -0.113
REMARK SMILES O=C(/C=C/C=C/c1ccc2c(c1)OCO2)N1CCCCC1
REMARK SMILES IDX 3 1 4 2 2 3 1 4 16 5 17 6 21 7 18 8 20 9 19 10 5 11 6 12
REMARK SMILES IDX 7 13 12 14 8 15 11 16 9 17 13 18 10 19 14 20 15 21
REMARK H PARENT
REMARK Flexibility Score: inf
ROOT
ATOM      1  C   UNL     1      93.239  85.720  86.411  1.00  0.00     0.071 C 
ATOM      2  C   UNL     1      93.517  84.731  85.563  1.00  0.00     0.006 C 
ENDROOT
BRANCH   1   3
ATOM      3  C   UNL     1      94.002  86.978  86.286  1.00  0.00     0.246 C 
ATOM      4  O   UNL     1      94.520  87.222  85.196  1.00  0.00    -0.270 OA
ATOM      5  N   UNL     1      94.088  87.800  87.408  1.00  0.00    -0.339 N 
ATOM      6  C   UNL     1      94.842  89.053  87.315  1.00  0.00     0.120 C 
ATOM      7  C   UNL     1      93.521  87.520  88.736  1.00  0.00     0.120 C 
ATOM      8  C   UNL     1      94.007  90.242  87.777  1.00  0.00     0.022 C 
ATOM      9  C   UNL     1      92.677  88.693  89.235  1.00  0.00     0.022 C 
ATOM     10  C   UNL     1      93.449  90.008  89.177  1.00  0.00     0.004 C 
ENDBRANCH   1   3
BRANCH   2  11
ATOM     11  C   UNL     1      92.824  83.461  85.608  1.00  0.00     0.001 C 
ATOM     12  C   UNL     1      92.730  82.647  84.544  1.00  0.00     0.008 C 
BRANCH  12  13
ATOM     13  C   UNL     1      92.031  81.351  84.532  1.00  0.00    -0.022 A 
ATOM     14  C   UNL     1      90.668  81.320  84.270  1.00  0.00     0.058 A 
ATOM     15  C   UNL     1      92.760  80.186  84.785  1.00  0.00     0.012 A 
ATOM     16  C   UNL     1      90.058  80.083  84.269  1.00  0.00     0.166 A 
ATOM     17  C   UNL     1      92.117  78.946  84.778  1.00  0.00     0.051 A 
ATOM     18  O   UNL     1      88.738  79.844  84.036  1.00  0.00    -0.454 OA
ATOM     19  C   UNL     1      90.763  78.927  84.517  1.00  0.00     0.165 A 
ATOM     20  C   UNL     1      88.692  78.408  84.165  1.00  0.00     0.468 C 
ATOM     21  O   UNL     1      89.973  77.820  84.470  1.00  0.00    -0.454 OA
ENDBRANCH  12  13
ENDBRANCH   2  11
TORSDOF 3
ENDMDL
MODEL 5
REMARK VINA RESULT:    -7.284      2.759      9.199
REMARK INTER + INTRA:          -8.674
REMARK INTER:                  -8.346
REMARK INTRA:                  -0.329
REMARK UNBOUND:                -0.113
REMARK SMILES O=C(/C=C/C=C/c1ccc2c(c1)OCO2)N1CCCCC1
REMARK SMILES IDX 3 1 4 2 2 3 1 4 16 5 17 6 21 7 18 8 20 9 19 10 5 11 6 12
REMARK SMILES IDX 7 13 12 14 8 15 11 16 9 17 13 18 10 19 14 20 15 21
REMARK H PARENT
REMARK Flexibility Score: inf
ROOT
ATOM      1  C   UNL     1      97.392  82.462  78.198  1.00  0.00     0.071 C 
ATOM      2  C   UNL     1      97.886  82.995  79.314  1.00  0.00     0.006 C 
ENDROOT
BRANCH   1   3
ATOM      3  C   UNL     1      98.335  82.119  77.115  1.00  0.00     0.246 C 
ATOM      4  O   UNL     1      98.967  81.068  77.224  1.00  0.00    -0.270 OA
ATOM      5  N   UNL     1      98.450  83.008  76.048  1.00  0.00    -0.339 N 
ATOM      6  C   UNL     1      99.382  82.697  74.960  1.00  0.00     0.120 C 
ATOM      7  C   UNL     1      97.746  84.292  75.907  1.00  0.00     0.120 C 
ATOM      8  C   UNL     1      98.693  82.756  73.602  1.00  0.00     0.022 C 
ATOM      9  C   UNL     1      97.044  84.391  74.553  1.00  0.00     0.022 C 
ATOM     10  C   UNL     1      97.999  84.100  73.399  1.00  0.00     0.004 C 
ENDBRANCH   1   3
BRANCH   2  11
ATOM     11  C   UNL     1      97.042  83.365  80.430  1.00  0.00     0.001 C 
ATOM     12  C   UNL     1      97.024  82.681  81.585  1.00  0.00     0.008 C 
BRANCH  12  13
ATOM     13  C   UNL     1      96.180  83.008  82.747  1.00  0.00    -0.022 A 
ATOM     14  C   UNL     1      95.509  81.986  83.404  1.00  0.00     0.058 A 
ATOM     15  C   UNL     1      96.078  84.340  83.157  1.00  0.00     0.012 A 
ATOM     16  C   UNL     1      94.731  82.341  84.487  1.00  0.00     0.166 A 
ATOM     17  C   UNL     1      95.283  84.672  84.257  1.00  0.00     0.051 A 
ATOM     18  O   UNL     1      93.999  81.491  85.257  1.00  0.00    -0.454 OA
ATOM     19  C   UNL     1      94.621  83.649  84.902  1.00  0.00     0.165 A 
ATOM     20  C   UNL     1      93.416  82.410  86.203  1.00  0.00     0.468 C 
ATOM     21  O   UNL     1      93.806  83.781  85.984  1.00  0.00    -0.454 OA
ENDBRANCH  12  13
ENDBRANCH   2  11
TORSDOF 3
ENDMDL
MODEL 6
REMARK VINA RESULT:    -7.214      7.290     10.183
REMARK INTER + INTRA:          -8.593
REMARK INTER:                  -8.194
REMARK INTRA:                  -0.399
REMARK UNBOUND:                -0.113
REMARK SMILES O=C(/C=C/C=C/c1ccc2c(c1)OCO2)N1CCCCC1
REMARK SMILES IDX 3 1 4 2 2 3 1 4 16 5 17 6 21 7 18 8 20 9 19 10 5 11 6 12
REMARK SMILES IDX 7 13 12 14 8 15 11 16 9 17 13 18 10 19 14 20 15 21
REMARK H PARENT
REMARK Flexibility Score: inf
ROOT
ATOM      1  C   UNL     1      93.805  83.323  87.038  1.00  0.00     0.071 C 
ATOM      2  C   UNL     1      93.658  83.628  88.326  1.00  0.00     0.006 C 
ENDROOT
BRANCH   1   3
ATOM      3  C   UNL     1      93.851  81.896  86.664  1.00  0.00     0.246 C 
ATOM      4  O   UNL     1      94.489  81.136  87.394  1.00  0.00    -0.270 OA
ATOM      5  N   UNL     1      93.176  81.505  85.509  1.00  0.00    -0.339 N 
ATOM      6  C   UNL     1      93.208  80.095  85.108  1.00  0.00     0.120 C 
ATOM      7  C   UNL     1      92.443  82.389  84.590  1.00  0.00     0.120 C 
ATOM      8  C   UNL     1      91.802  79.548  84.882  1.00  0.00     0.022 C 
ATOM      9  C   UNL     1      91.027  81.871  84.335  1.00  0.00     0.022 C 
ATOM     10  C   UNL     1      91.033  80.412  83.888  1.00  0.00     0.004 C 
ENDBRANCH   1   3
BRANCH   2  11
ATOM     11  C   UNL     1      93.603  84.998  88.791  1.00  0.00     0.001 C 
ATOM     12  C   UNL     1      93.310  86.028  87.981  1.00  0.00     0.008 C 
BRANCH  12  13
ATOM     13  C   UNL     1      93.248  87.439  88.399  1.00  0.00    -0.022 A 
ATOM     14  C   UNL     1      94.127  88.351  87.831  1.00  0.00     0.058 A 
ATOM     15  C   UNL     1      92.306  87.821  89.357  1.00  0.00     0.012 A 
ATOM     16  C   UNL     1      94.030  89.661  88.254  1.00  0.00     0.166 A 
ATOM     17  C   UNL     1      92.230  89.154  89.767  1.00  0.00     0.051 A 
ATOM     18  O   UNL     1      94.797  90.699  87.820  1.00  0.00    -0.454 OA
ATOM     19  C   UNL     1      93.107  90.052  89.196  1.00  0.00     0.165 A 
ATOM     20  C   UNL     1      94.253  91.786  88.596  1.00  0.00     0.468 C 
ATOM     21  O   UNL     1      93.180  91.383  89.471  1.00  0.00    -0.454 OA
ENDBRANCH  12  13
ENDBRANCH   2  11
TORSDOF 3
ENDMDL
MODEL 7
REMARK VINA RESULT:    -7.013     17.894     18.859
REMARK INTER + INTRA:          -8.356
REMARK INTER:                  -8.011
REMARK INTRA:                  -0.345
REMARK UNBOUND:                -0.113
REMARK SMILES O=C(/C=C/C=C/c1ccc2c(c1)OCO2)N1CCCCC1
REMARK SMILES IDX 3 1 4 2 2 3 1 4 16 5 17 6 21 7 18 8 20 9 19 10 5 11 6 12
REMARK SMILES IDX 7 13 12 14 8 15 11 16 9 17 13 18 10 19 14 20 15 21
REMARK H PARENT
REMARK Flexibility Score: inf
ROOT
ATOM      1  C   UNL     1      86.441  70.043  72.065  1.00  0.00     0.071 C 
ATOM      2  C   UNL     1      87.526  70.086  71.295  1.00  0.00     0.006 C 
ENDROOT
BRANCH   1   3
ATOM      3  C   UNL     1      86.506  69.261  73.315  1.00  0.00     0.246 C 
ATOM      4  O   UNL     1      87.350  69.591  74.150  1.00  0.00    -0.270 OA
ATOM      5  N   UNL     1      85.615  68.199  73.465  1.00  0.00    -0.339 N 
ATOM      6  C   UNL     1      85.661  67.400  74.693  1.00  0.00     0.120 C 
ATOM      7  C   UNL     1      84.628  67.747  72.473  1.00  0.00     0.120 C 
ATOM      8  C   UNL     1      84.286  67.305  75.346  1.00  0.00     0.022 C 
ATOM      9  C   UNL     1      83.234  67.635  73.092  1.00  0.00     0.022 C 
ATOM     10  C   UNL     1      83.247  66.784  74.359  1.00  0.00     0.004 C 
ENDBRANCH   1   3
BRANCH   2  11
ATOM     11  C   UNL     1      87.558  70.826  70.051  1.00  0.00     0.001 C 
ATOM     12  C   UNL     1      88.636  71.517  69.644  1.00  0.00     0.008 C 
BRANCH  12  13
ATOM     13  C   UNL     1      88.720  72.292  68.395  1.00  0.00    -0.022 A 
ATOM     14  C   UNL     1      89.887  72.986  68.107  1.00  0.00     0.058 A 
ATOM     15  C   UNL     1      87.621  72.308  67.532  1.00  0.00     0.012 A 
ATOM     16  C   UNL     1      89.918  73.697  66.925  1.00  0.00     0.166 A 
ATOM     17  C   UNL     1      87.679  73.036  66.342  1.00  0.00     0.051 A 
ATOM     18  O   UNL     1      90.964  74.438  66.467  1.00  0.00    -0.454 OA
ATOM     19  C   UNL     1      88.844  73.721  66.066  1.00  0.00     0.165 A 
ATOM     20  C   UNL     1      90.427  74.932  65.223  1.00  0.00     0.468 C 
ATOM     21  O   UNL     1      89.082  74.481  64.962  1.00  0.00    -0.454 OA
ENDBRANCH  12  13
ENDBRANCH   2  11
TORSDOF 3
ENDMDL
MODEL 8
REMARK VINA RESULT:    -6.963      2.958      4.106
REMARK INTER + INTRA:          -8.297
REMARK INTER:                  -7.891
REMARK INTRA:                  -0.407
REMARK UNBOUND:                -0.113
REMARK SMILES O=C(/C=C/C=C/c1ccc2c(c1)OCO2)N1CCCCC1
REMARK SMILES IDX 3 1 4 2 2 3 1 4 16 5 17 6 21 7 18 8 20 9 19 10 5 11 6 12
REMARK SMILES IDX 7 13 12 14 8 15 11 16 9 17 13 18 10 19 14 20 15 21
REMARK H PARENT
REMARK Flexibility Score: inf
ROOT
ATOM      1  C   UNL     1      96.962  81.573  81.363  1.00  0.00     0.071 C 
ATOM      2  C   UNL     1      97.017  82.881  81.120  1.00  0.00     0.006 C 
ENDROOT
BRANCH   1   3
ATOM      3  C   UNL     1      96.947  81.127  82.771  1.00  0.00     0.246 C 
ATOM      4  O   UNL     1      95.882  81.217  83.384  1.00  0.00    -0.270 OA
ATOM      5  N   UNL     1      98.136  80.642  83.312  1.00  0.00    -0.339 N 
ATOM      6  C   UNL     1      98.153  80.198  84.709  1.00  0.00     0.120 C 
ATOM      7  C   UNL     1      99.435  80.563  82.626  1.00  0.00     0.120 C 
ATOM      8  C   UNL     1      98.716  78.787  84.838  1.00  0.00     0.022 C 
ATOM      9  C   UNL     1     100.034  79.162  82.736  1.00  0.00     0.022 C 
ATOM     10  C   UNL     1     100.090  78.684  84.185  1.00  0.00     0.004 C 
ENDBRANCH   1   3
BRANCH   2  11
ATOM     11  C   UNL     1      97.036  83.413  79.774  1.00  0.00     0.001 C 
ATOM     12  C   UNL     1      97.335  82.664  78.701  1.00  0.00     0.008 C 
BRANCH  12  13
ATOM     13  C   UNL     1      97.378  83.156  77.313  1.00  0.00    -0.022 A 
ATOM     14  C   UNL     1      98.167  82.491  76.385  1.00  0.00     0.058 A 
ATOM     15  C   UNL     1      96.621  84.279  76.969  1.00  0.00     0.012 A 
ATOM     16  C   UNL     1      98.174  82.989  75.098  1.00  0.00     0.166 A 
ATOM     17  C   UNL     1      96.647  84.762  75.659  1.00  0.00     0.051 A 
ATOM     18  O   UNL     1      98.880  82.482  74.050  1.00  0.00    -0.454 OA
ATOM     19  C   UNL     1      97.434  84.094  74.744  1.00  0.00     0.165 A 
ATOM     20  C   UNL     1      98.502  83.393  72.998  1.00  0.00     0.468 C 
ATOM     21  O   UNL     1      97.584  84.418  73.431  1.00  0.00    -0.454 OA
ENDBRANCH  12  13
ENDBRANCH   2  11
TORSDOF 3
ENDMDL
MODEL 9
REMARK VINA RESULT:    -6.805      3.077      3.684
REMARK INTER + INTRA:          -8.112
REMARK INTER:                  -7.800
REMARK INTRA:                  -0.312
REMARK UNBOUND:                -0.113
REMARK SMILES O=C(/C=C/C=C/c1ccc2c(c1)OCO2)N1CCCCC1
REMARK SMILES IDX 3 1 4 2 2 3 1 4 16 5 17 6 21 7 18 8 20 9 19 10 5 11 6 12
REMARK SMILES IDX 7 13 12 14 8 15 11 16 9 17 13 18 10 19 14 20 15 21
REMARK H PARENT
REMARK Flexibility Score: inf
ROOT
ATOM      1  C   UNL     1      96.959  80.513  81.681  1.00  0.00     0.071 C 
ATOM      2  C   UNL     1      97.008  81.782  81.280  1.00  0.00     0.006 C 
ENDROOT
BRANCH   1   3
ATOM      3  C   UNL     1      96.561  80.241  83.076  1.00  0.00     0.246 C 
ATOM      4  O   UNL     1      96.405  81.208  83.823  1.00  0.00    -0.270 OA
ATOM      5  N   UNL     1      96.394  78.910  83.456  1.00  0.00    -0.339 N 
ATOM      6  C   UNL     1      96.005  78.608  84.837  1.00  0.00     0.120 C 
ATOM      7  C   UNL     1      96.615  77.730  82.607  1.00  0.00     0.120 C 
ATOM      8  C   UNL     1      94.777  77.706  84.884  1.00  0.00     0.022 C 
ATOM      9  C   UNL     1      95.405  76.797  82.631  1.00  0.00     0.022 C 
ATOM     10  C   UNL     1      94.994  76.442  84.058  1.00  0.00     0.004 C 
ENDBRANCH   1   3
BRANCH   2  11
ATOM     11  C   UNL     1      97.387  82.149  79.932  1.00  0.00     0.001 C 
ATOM     12  C   UNL     1      96.878  83.219  79.300  1.00  0.00     0.008 C 
BRANCH  12  13
ATOM     13  C   UNL     1      97.222  83.632  77.929  1.00  0.00    -0.022 A 
ATOM     14  C   UNL     1      98.435  83.230  77.386  1.00  0.00     0.058 A 
ATOM     15  C   UNL     1      96.317  84.419  77.211  1.00  0.00     0.012 A 
ATOM     16  C   UNL     1      98.711  83.642  76.098  1.00  0.00     0.166 A 
ATOM     17  C   UNL     1      96.623  84.822  75.909  1.00  0.00     0.051 A 
ATOM     18  O   UNL     1      99.841  83.355  75.394  1.00  0.00    -0.454 OA
ATOM     19  C   UNL     1      97.830  84.416  75.379  1.00  0.00     0.165 A 
ATOM     20  C   UNL     1      99.570  84.035  74.152  1.00  0.00     0.468 C 
ATOM     21  O   UNL     1      98.296  84.711  74.135  1.00  0.00    -0.454 OA
ENDBRANCH  12  13
ENDBRANCH   2  11
TORSDOF 3
ENDMDL
MODEL 10
REMARK VINA RESULT:    -6.769     23.552     24.811
REMARK INTER + INTRA:          -8.070
REMARK INTER:                  -7.701
REMARK INTRA:                  -0.369
REMARK UNBOUND:                -0.113
REMARK SMILES O=C(/C=C/C=C/c1ccc2c(c1)OCO2)N1CCCCC1
REMARK SMILES IDX 3 1 4 2 2 3 1 4 16 5 17 6 21 7 18 8 20 9 19 10 5 11 6 12
REMARK SMILES IDX 7 13 12 14 8 15 11 16 9 17 13 18 10 19 14 20 15 21
REMARK H PARENT
REMARK Flexibility Score: inf
ROOT
ATOM      1  C   UNL     1      74.445  92.107  71.708  1.00  0.00     0.071 C 
ATOM      2  C   UNL     1      73.666  91.164  71.182  1.00  0.00     0.006 C 
ENDROOT
BRANCH   1   3
ATOM      3  C   UNL     1      73.796  93.251  72.379  1.00  0.00     0.246 C 
ATOM      4  O   UNL     1      72.606  93.455  72.132  1.00  0.00    -0.270 OA
ATOM      5  N   UNL     1      74.572  94.026  73.239  1.00  0.00    -0.339 N 
ATOM      6  C   UNL     1      73.956  95.172  73.915  1.00  0.00     0.120 C 
ATOM      7  C   UNL     1      76.003  93.841  73.523  1.00  0.00     0.120 C 
ATOM      8  C   UNL     1      74.176  95.114  75.423  1.00  0.00     0.022 C 
ATOM      9  C   UNL     1      76.266  93.782  75.027  1.00  0.00     0.022 C 
ATOM     10  C   UNL     1      75.659  94.979  75.754  1.00  0.00     0.004 C 
ENDBRANCH   1   3
BRANCH   2  11
ATOM     11  C   UNL     1      74.209  90.006  70.506  1.00  0.00     0.001 C 
ATOM     12  C   UNL     1      75.267  90.076  69.682  1.00  0.00     0.008 C 
BRANCH  12  13
ATOM     13  C   UNL     1      75.855  88.933  68.963  1.00  0.00    -0.022 A 
ATOM     14  C   UNL     1      75.301  87.671  69.133  1.00  0.00     0.058 A 
ATOM     15  C   UNL     1      76.954  89.150  68.128  1.00  0.00     0.012 A 
ATOM     16  C   UNL     1      75.886  86.632  68.438  1.00  0.00     0.166 A 
ATOM     17  C   UNL     1      77.526  88.079  67.437  1.00  0.00     0.051 A 
ATOM     18  O   UNL     1      75.493  85.329  68.472  1.00  0.00    -0.454 OA
ATOM     19  C   UNL     1      76.969  86.830  67.613  1.00  0.00     0.165 A 
ATOM     20  C   UNL     1      76.451  84.730  67.575  1.00  0.00     0.468 C 
ATOM     21  O   UNL     1      77.390  85.677  67.026  1.00  0.00    -0.454 OA
ENDBRANCH  12  13
ENDBRANCH   2  11
TORSDOF 3
ENDMDL
