MODEL 1
REMARK VINA RESULT:    -6.269      0.000      0.000
REMARK INTER + INTRA:         -10.900
REMARK INTER:                 -10.117
REMARK INTRA:                  -0.783
REMARK UNBOUND:                -0.783
REMARK SMILES CCCCCCCCC(=O)NCc1ccc(O)c(OC)c1
REMARK SMILES IDX 7 1 6 2 5 3 4 4 3 5 2 6 1 7 8 8 9 9 10 10 11 11 12 13 13 14
REMARK SMILES IDX 21 15 14 16 18 17 15 18 16 19 19 20 20 21 17 22
REMARK H PARENT 11 12 17 23
REMARK Flexibility Score: inf
ROOT
ATOM      1  C   UNL     1      96.069  95.627  76.021  1.00  0.00     0.010 C 
ENDROOT
BRANCH   1   2
ATOM      2  C   UNL     1      96.546  95.389  77.483  1.00  0.00     0.001 C 
BRANCH   2   3
ATOM      3  C   UNL     1      95.985  94.063  78.077  1.00  0.00     0.000 C 
BRANCH   3   4
ATOM      4  C   UNL     1      95.120  94.265  79.354  1.00  0.00    -0.000 C 
BRANCH   4   5
ATOM      5  C   UNL     1      95.531  95.529  80.162  1.00  0.00    -0.000 C 
BRANCH   5   6
ATOM      6  C   UNL     1      95.870  95.204  81.642  1.00  0.00    -0.003 C 
ATOM      7  C   UNL     1      95.938  93.687  81.924  1.00  0.00     0.004 C 
ENDBRANCH   5   6
ENDBRANCH   4   5
ENDBRANCH   3   4
ENDBRANCH   2   3
ENDBRANCH   1   2
BRANCH   1   8
ATOM      8  C   UNL     1      95.604  94.335  75.292  1.00  0.00     0.100 C 
BRANCH   8   9
ATOM      9  C   UNL     1      94.127  94.212  75.301  1.00  0.00     0.220 C 
ATOM     10  O   UNL     1      93.454  95.159  75.772  1.00  0.00    -0.275 OA
ATOM     11  N   UNL     1      93.520  93.105  74.781  1.00  0.00    -0.352 N 
ATOM     12  H   UNL     1      94.155  92.369  74.509  1.00  0.00     0.163 HD
BRANCH  11  13
ATOM     13  C   UNL     1      92.111  92.930  74.604  1.00  0.00     0.151 C 
BRANCH  13  14
ATOM     14  C   UNL     1      91.474  92.082  75.646  1.00  0.00    -0.025 A 
ATOM     15  C   UNL     1      91.056  90.765  75.336  1.00  0.00     0.056 A 
ATOM     16  C   UNL     1      91.271  92.571  76.957  1.00  0.00     0.009 A 
ATOM     17  C   UNL     1      90.465  89.941  76.321  1.00  0.00     0.160 A 
ATOM     18  C   UNL     1      90.685  91.756  77.942  1.00  0.00     0.050 A 
ATOM     19  C   UNL     1      90.274  90.446  77.628  1.00  0.00     0.157 A 
BRANCH  17  20
ATOM     20  O   UNL     1      90.023  88.681  76.008  1.00  0.00    -0.493 OA
ATOM     21  C   UNL     1      91.062  87.687  75.957  1.00  0.00     0.278 C 
ENDBRANCH  17  20
BRANCH  19  22
ATOM     22  O   UNL     1      89.685  89.677  78.578  1.00  0.00    -0.504 OA
ATOM     23  H   UNL     1      89.725  88.754  78.313  1.00  0.00     0.293 HD
ENDBRANCH  19  22
ENDBRANCH  13  14
ENDBRANCH  11  13
ENDBRANCH   8   9
ENDBRANCH   1   8
TORSDOF 11
ENDMDL
MODEL 2
REMARK VINA RESULT:    -5.658     13.602     16.594
REMARK INTER + INTRA:          -9.914
REMARK INTER:                  -8.171
REMARK INTRA:                  -1.743
REMARK UNBOUND:                -0.783
REMARK SMILES CCCCCCCCC(=O)NCc1ccc(O)c(OC)c1
REMARK SMILES IDX 7 1 6 2 5 3 4 4 3 5 2 6 1 7 8 8 9 9 10 10 11 11 12 13 13 14
REMARK SMILES IDX 21 15 14 16 18 17 15 18 16 19 19 20 20 21 17 22
REMARK H PARENT 11 12 17 23
REMARK Flexibility Score: inf
ROOT
ATOM      1  C   UNL     1      83.851  90.380  84.382  1.00  0.00     0.010 C 
ENDROOT
BRANCH   1   2
ATOM      2  C   UNL     1      82.785  89.286  84.681  1.00  0.00     0.001 C 
BRANCH   2   3
ATOM      3  C   UNL     1      81.339  89.774  84.376  1.00  0.00     0.000 C 
BRANCH   3   4
ATOM      4  C   UNL     1      80.293  88.626  84.300  1.00  0.00    -0.000 C 
BRANCH   4   5
ATOM      5  C   UNL     1      80.945  87.216  84.349  1.00  0.00    -0.000 C 
BRANCH   5   6
ATOM      6  C   UNL     1      80.428  86.361  85.537  1.00  0.00    -0.003 C 
ATOM      7  C   UNL     1      81.546  85.978  86.532  1.00  0.00     0.004 C 
ENDBRANCH   5   6
ENDBRANCH   4   5
ENDBRANCH   3   4
ENDBRANCH   2   3
ENDBRANCH   1   2
BRANCH   1   8
ATOM      8  C   UNL     1      84.938  90.518  85.484  1.00  0.00     0.100 C 
BRANCH   8   9
ATOM      9  C   UNL     1      84.335  90.844  86.799  1.00  0.00     0.220 C 
ATOM     10  O   UNL     1      83.917  92.011  86.989  1.00  0.00    -0.275 OA
ATOM     11  N   UNL     1      84.215  89.885  87.764  1.00  0.00    -0.352 N 
ATOM     12  H   UNL     1      84.661  89.008  87.539  1.00  0.00     0.163 HD
BRANCH  11  13
ATOM     13  C   UNL     1      83.530  90.036  89.011  1.00  0.00     0.151 C 
BRANCH  13  14
ATOM     14  C   UNL     1      82.186  89.399  89.039  1.00  0.00    -0.025 A 
ATOM     15  C   UNL     1      81.817  88.562  90.120  1.00  0.00     0.056 A 
ATOM     16  C   UNL     1      81.258  89.611  87.994  1.00  0.00     0.009 A 
ATOM     17  C   UNL     1      80.537  87.963  90.169  1.00  0.00     0.160 A 
ATOM     18  C   UNL     1      79.983  89.019  88.037  1.00  0.00     0.050 A 
ATOM     19  C   UNL     1      79.622  88.190  89.117  1.00  0.00     0.157 A 
BRANCH  17  20
ATOM     20  O   UNL     1      80.197  87.119  91.196  1.00  0.00    -0.493 OA
ATOM     21  C   UNL     1      80.634  87.563  92.493  1.00  0.00     0.278 C 
ENDBRANCH  17  20
BRANCH  19  22
ATOM     22  O   UNL     1      78.399  87.602  89.136  1.00  0.00    -0.504 OA
ATOM     23  H   UNL     1      77.805  88.078  88.551  1.00  0.00     0.293 HD
ENDBRANCH  19  22
ENDBRANCH  13  14
ENDBRANCH  11  13
ENDBRANCH   8   9
ENDBRANCH   1   8
TORSDOF 11
ENDMDL
MODEL 3
REMARK VINA RESULT:    -5.520     13.055     16.348
REMARK INTER + INTRA:          -9.691
REMARK INTER:                  -8.983
REMARK INTRA:                  -0.708
REMARK UNBOUND:                -0.783
REMARK SMILES CCCCCCCCC(=O)NCc1ccc(O)c(OC)c1
REMARK SMILES IDX 7 1 6 2 5 3 4 4 3 5 2 6 1 7 8 8 9 9 10 10 11 11 12 13 13 14
REMARK SMILES IDX 21 15 14 16 18 17 15 18 16 19 19 20 20 21 17 22
REMARK H PARENT 11 12 17 23
REMARK Flexibility Score: inf
ROOT
ATOM      1  C   UNL     1      82.923  89.366  84.708  1.00  0.00     0.010 C 
ENDROOT
BRANCH   1   2
ATOM      2  C   UNL     1      81.503  89.868  84.318  1.00  0.00     0.001 C 
BRANCH   2   3
ATOM      3  C   UNL     1      80.386  89.197  85.171  1.00  0.00     0.000 C 
BRANCH   3   4
ATOM      4  C   UNL     1      79.414  88.309  84.344  1.00  0.00    -0.000 C 
BRANCH   4   5
ATOM      5  C   UNL     1      80.155  87.237  83.496  1.00  0.00    -0.000 C 
BRANCH   5   6
ATOM      6  C   UNL     1      80.934  86.218  84.372  1.00  0.00    -0.003 C 
ATOM      7  C   UNL     1      80.125  85.739  85.598  1.00  0.00     0.004 C 
ENDBRANCH   5   6
ENDBRANCH   4   5
ENDBRANCH   3   4
ENDBRANCH   2   3
ENDBRANCH   1   2
BRANCH   1   8
ATOM      8  C   UNL     1      83.962  90.505  84.903  1.00  0.00     0.100 C 
BRANCH   8   9
ATOM      9  C   UNL     1      84.040  90.928  86.322  1.00  0.00     0.220 C 
ATOM     10  O   UNL     1      85.020  90.545  87.005  1.00  0.00    -0.275 OA
ATOM     11  N   UNL     1      83.080  91.737  86.858  1.00  0.00    -0.352 N 
ATOM     12  H   UNL     1      82.294  91.913  86.249  1.00  0.00     0.163 HD
BRANCH  11  13
ATOM     13  C   UNL     1      83.115  92.325  88.163  1.00  0.00     0.151 C 
BRANCH  13  14
ATOM     14  C   UNL     1      83.033  93.810  88.156  1.00  0.00    -0.025 A 
ATOM     15  C   UNL     1      82.122  94.477  89.010  1.00  0.00     0.056 A 
ATOM     16  C   UNL     1      83.854  94.579  87.300  1.00  0.00     0.009 A 
ATOM     17  C   UNL     1      82.045  95.888  89.027  1.00  0.00     0.160 A 
ATOM     18  C   UNL     1      83.783  95.983  87.313  1.00  0.00     0.050 A 
ATOM     19  C   UNL     1      82.877  96.641  88.167  1.00  0.00     0.157 A 
BRANCH  17  20
ATOM     20  O   UNL     1      81.132  96.532  89.824  1.00  0.00    -0.493 OA
ATOM     21  C   UNL     1      79.825  96.660  89.237  1.00  0.00     0.278 C 
ENDBRANCH  17  20
BRANCH  19  22
ATOM     22  O   UNL     1      82.797  97.996  88.152  1.00  0.00    -0.504 OA
ATOM     23  H   UNL     1      82.357  98.299  88.950  1.00  0.00     0.293 HD
ENDBRANCH  19  22
ENDBRANCH  13  14
ENDBRANCH  11  13
ENDBRANCH   8   9
ENDBRANCH   1   8
TORSDOF 11
ENDMDL
MODEL 4
REMARK VINA RESULT:    -5.503     14.228     17.172
REMARK INTER + INTRA:          -9.665
REMARK INTER:                  -8.007
REMARK INTRA:                  -1.657
REMARK UNBOUND:                -0.783
REMARK SMILES CCCCCCCCC(=O)NCc1ccc(O)c(OC)c1
REMARK SMILES IDX 7 1 6 2 5 3 4 4 3 5 2 6 1 7 8 8 9 9 10 10 11 11 12 13 13 14
REMARK SMILES IDX 21 15 14 16 18 17 15 18 16 19 19 20 20 21 17 22
REMARK H PARENT 11 12 17 23
REMARK Flexibility Score: inf
ROOT
ATOM      1  C   UNL     1      80.944  89.686  84.326  1.00  0.00     0.010 C 
ENDROOT
BRANCH   1   2
ATOM      2  C   UNL     1      79.768  88.733  84.689  1.00  0.00     0.001 C 
BRANCH   2   3
ATOM      3  C   UNL     1      79.920  87.331  84.030  1.00  0.00     0.000 C 
BRANCH   3   4
ATOM      4  C   UNL     1      80.179  86.184  85.047  1.00  0.00    -0.000 C 
BRANCH   4   5
ATOM      5  C   UNL     1      80.303  86.697  86.510  1.00  0.00    -0.000 C 
BRANCH   5   6
ATOM      6  C   UNL     1      81.593  86.190  87.211  1.00  0.00    -0.003 C 
ATOM      7  C   UNL     1      82.662  85.693  86.214  1.00  0.00     0.004 C 
ENDBRANCH   5   6
ENDBRANCH   4   5
ENDBRANCH   3   4
ENDBRANCH   2   3
ENDBRANCH   1   2
BRANCH   1   8
ATOM      8  C   UNL     1      82.349  89.096  84.632  1.00  0.00     0.100 C 
BRANCH   8   9
ATOM      9  C   UNL     1      82.822  89.500  85.978  1.00  0.00     0.220 C 
ATOM     10  O   UNL     1      83.979  89.166  86.327  1.00  0.00    -0.275 OA
ATOM     11  N   UNL     1      82.023  90.241  86.801  1.00  0.00    -0.352 N 
ATOM     12  H   UNL     1      81.083  90.379  86.457  1.00  0.00     0.163 HD
BRANCH  11  13
ATOM     13  C   UNL     1      82.412  90.809  88.055  1.00  0.00     0.151 C 
BRANCH  13  14
ATOM     14  C   UNL     1      82.270  89.877  89.207  1.00  0.00    -0.025 A 
ATOM     15  C   UNL     1      81.032  89.239  89.458  1.00  0.00     0.056 A 
ATOM     16  C   UNL     1      83.359  89.616  90.069  1.00  0.00     0.009 A 
ATOM     17  C   UNL     1      80.886  88.339  90.538  1.00  0.00     0.160 A 
ATOM     18  C   UNL     1      83.221  88.720  91.144  1.00  0.00     0.050 A 
ATOM     19  C   UNL     1      81.987  88.087  91.387  1.00  0.00     0.157 A 
BRANCH  17  20
ATOM     20  O   UNL     1      79.674  87.754  90.804  1.00  0.00    -0.493 OA
ATOM     21  C   UNL     1      79.457  86.509  90.117  1.00  0.00     0.278 C 
ENDBRANCH  17  20
BRANCH  19  22
ATOM     22  O   UNL     1      81.856  87.245  92.444  1.00  0.00    -0.504 OA
ATOM     23  H   UNL     1      82.475  86.516  92.350  1.00  0.00     0.293 HD
ENDBRANCH  19  22
ENDBRANCH  13  14
ENDBRANCH  11  13
ENDBRANCH   8   9
ENDBRANCH   1   8
TORSDOF 11
ENDMDL
MODEL 5
REMARK VINA RESULT:    -5.488     24.906     28.481
REMARK INTER + INTRA:          -9.640
REMARK INTER:                  -8.221
REMARK INTRA:                  -1.419
REMARK UNBOUND:                -0.783
REMARK SMILES CCCCCCCCC(=O)NCc1ccc(O)c(OC)c1
REMARK SMILES IDX 7 1 6 2 5 3 4 4 3 5 2 6 1 7 8 8 9 9 10 10 11 11 12 13 13 14
REMARK SMILES IDX 21 15 14 16 18 17 15 18 16 19 19 20 20 21 17 22
REMARK H PARENT 11 12 17 23
REMARK Flexibility Score: inf
ROOT
ATOM      1  C   UNL     1      80.214  65.052  73.004  1.00  0.00     0.010 C 
ENDROOT
BRANCH   1   2
ATOM      2  C   UNL     1      80.403  65.859  74.320  1.00  0.00     0.001 C 
BRANCH   2   3
ATOM      3  C   UNL     1      81.605  65.338  75.163  1.00  0.00     0.000 C 
BRANCH   3   4
ATOM      4  C   UNL     1      82.613  64.477  74.350  1.00  0.00    -0.000 C 
BRANCH   4   5
ATOM      5  C   UNL     1      83.626  63.723  75.258  1.00  0.00    -0.000 C 
BRANCH   5   6
ATOM      6  C   UNL     1      83.500  64.124  76.753  1.00  0.00    -0.003 C 
ATOM      7  C   UNL     1      84.326  63.215  77.690  1.00  0.00     0.004 C 
ENDBRANCH   5   6
ENDBRANCH   4   5
ENDBRANCH   3   4
ENDBRANCH   2   3
ENDBRANCH   1   2
BRANCH   1   8
ATOM      8  C   UNL     1      80.091  65.940  71.734  1.00  0.00     0.100 C 
BRANCH   8   9
ATOM      9  C   UNL     1      81.399  66.530  71.360  1.00  0.00     0.220 C 
ATOM     10  O   UNL     1      82.231  65.805  70.764  1.00  0.00    -0.275 OA
ATOM     11  N   UNL     1      81.672  67.840  71.633  1.00  0.00    -0.352 N 
ATOM     12  H   UNL     1      80.970  68.305  72.190  1.00  0.00     0.163 HD
BRANCH  11  13
ATOM     13  C   UNL     1      82.831  68.560  71.202  1.00  0.00     0.151 C 
BRANCH  13  14
ATOM     14  C   UNL     1      83.869  68.715  72.255  1.00  0.00    -0.025 A 
ATOM     15  C   UNL     1      83.827  67.913  73.421  1.00  0.00     0.056 A 
ATOM     16  C   UNL     1      84.910  69.662  72.116  1.00  0.00     0.009 A 
ATOM     17  C   UNL     1      84.817  68.037  74.422  1.00  0.00     0.160 A 
ATOM     18  C   UNL     1      85.898  69.789  73.108  1.00  0.00     0.050 A 
ATOM     19  C   UNL     1      85.852  68.986  74.264  1.00  0.00     0.157 A 
BRANCH  17  20
ATOM     20  O   UNL     1      84.750  67.288  75.571  1.00  0.00    -0.493 OA
ATOM     21  C   UNL     1      83.909  67.851  76.593  1.00  0.00     0.278 C 
ENDBRANCH  17  20
BRANCH  19  22
ATOM     22  O   UNL     1      86.795  69.136  75.229  1.00  0.00    -0.504 OA
ATOM     23  H   UNL     1      87.356  69.885  75.015  1.00  0.00     0.293 HD
ENDBRANCH  19  22
ENDBRANCH  13  14
ENDBRANCH  11  13
ENDBRANCH   8   9
ENDBRANCH   1   8
TORSDOF 11
ENDMDL
MODEL 6
REMARK VINA RESULT:    -5.304     13.023     16.504
REMARK INTER + INTRA:          -9.342
REMARK INTER:                  -7.687
REMARK INTRA:                  -1.656
REMARK UNBOUND:                -0.783
REMARK SMILES CCCCCCCCC(=O)NCc1ccc(O)c(OC)c1
REMARK SMILES IDX 7 1 6 2 5 3 4 4 3 5 2 6 1 7 8 8 9 9 10 10 11 11 12 13 13 14
REMARK SMILES IDX 21 15 14 16 18 17 15 18 16 19 19 20 20 21 17 22
REMARK H PARENT 11 12 17 23
REMARK Flexibility Score: inf
ROOT
ATOM      1  C   UNL     1      80.084  87.386  87.896  1.00  0.00     0.010 C 
ENDROOT
BRANCH   1   2
ATOM      2  C   UNL     1      80.132  86.188  86.905  1.00  0.00     0.001 C 
BRANCH   2   3
ATOM      3  C   UNL     1      81.064  86.466  85.689  1.00  0.00     0.000 C 
BRANCH   3   4
ATOM      4  C   UNL     1      81.894  87.774  85.821  1.00  0.00    -0.000 C 
BRANCH   4   5
ATOM      5  C   UNL     1      82.026  88.540  84.474  1.00  0.00    -0.000 C 
BRANCH   5   6
ATOM      6  C   UNL     1      81.394  89.957  84.530  1.00  0.00    -0.003 C 
ATOM      7  C   UNL     1      80.008  89.969  85.213  1.00  0.00     0.004 C 
ENDBRANCH   5   6
ENDBRANCH   4   5
ENDBRANCH   3   4
ENDBRANCH   2   3
ENDBRANCH   1   2
BRANCH   1   8
ATOM      8  C   UNL     1      80.601  87.045  89.322  1.00  0.00     0.100 C 
BRANCH   8   9
ATOM      9  C   UNL     1      81.564  88.064  89.805  1.00  0.00     0.220 C 
ATOM     10  O   UNL     1      82.390  87.730  90.688  1.00  0.00    -0.275 OA
ATOM     11  N   UNL     1      81.565  89.323  89.277  1.00  0.00    -0.352 N 
ATOM     12  H   UNL     1      80.806  89.508  88.638  1.00  0.00     0.163 HD
BRANCH  11  13
ATOM     13  C   UNL     1      82.528  90.345  89.555  1.00  0.00     0.151 C 
BRANCH  13  14
ATOM     14  C   UNL     1      83.306  90.778  88.364  1.00  0.00    -0.025 A 
ATOM     15  C   UNL     1      83.327  92.141  87.984  1.00  0.00     0.056 A 
ATOM     16  C   UNL     1      84.033  89.843  87.592  1.00  0.00     0.009 A 
ATOM     17  C   UNL     1      84.076  92.570  86.864  1.00  0.00     0.160 A 
ATOM     18  C   UNL     1      84.782  90.263  86.478  1.00  0.00     0.050 A 
ATOM     19  C   UNL     1      84.800  91.622  86.107  1.00  0.00     0.157 A 
BRANCH  17  20
ATOM     20  O   UNL     1      84.061  93.885  86.472  1.00  0.00    -0.493 OA
ATOM     21  C   UNL     1      83.787  94.814  87.536  1.00  0.00     0.278 C 
ENDBRANCH  17  20
BRANCH  19  22
ATOM     22  O   UNL     1      85.503  92.014  85.014  1.00  0.00    -0.504 OA
ATOM     23  H   UNL     1      85.662  92.960  85.058  1.00  0.00     0.293 HD
ENDBRANCH  19  22
ENDBRANCH  13  14
ENDBRANCH  11  13
ENDBRANCH   8   9
ENDBRANCH   1   8
TORSDOF 11
ENDMDL
MODEL 7
REMARK VINA RESULT:    -5.284     13.876     16.480
REMARK INTER + INTRA:          -9.311
REMARK INTER:                  -8.192
REMARK INTRA:                  -1.119
REMARK UNBOUND:                -0.783
REMARK SMILES CCCCCCCCC(=O)NCc1ccc(O)c(OC)c1
REMARK SMILES IDX 7 1 6 2 5 3 4 4 3 5 2 6 1 7 8 8 9 9 10 10 11 11 12 13 13 14
REMARK SMILES IDX 21 15 14 16 18 17 15 18 16 19 19 20 20 21 17 22
REMARK H PARENT 11 12 17 23
REMARK Flexibility Score: inf
ROOT
ATOM      1  C   UNL     1      82.430  89.811  84.856  1.00  0.00     0.010 C 
ENDROOT
BRANCH   1   2
ATOM      2  C   UNL     1      80.948  89.345  84.929  1.00  0.00     0.001 C 
BRANCH   2   3
ATOM      3  C   UNL     1      80.556  88.438  83.725  1.00  0.00     0.000 C 
BRANCH   3   4
ATOM      4  C   UNL     1      79.892  87.095  84.142  1.00  0.00    -0.000 C 
BRANCH   4   5
ATOM      5  C   UNL     1      80.932  86.013  84.550  1.00  0.00    -0.000 C 
BRANCH   5   6
ATOM      6  C   UNL     1      81.016  85.818  86.088  1.00  0.00    -0.003 C 
ATOM      7  C   UNL     1      82.435  85.439  86.568  1.00  0.00     0.004 C 
ENDBRANCH   5   6
ENDBRANCH   4   5
ENDBRANCH   3   4
ENDBRANCH   2   3
ENDBRANCH   1   2
BRANCH   1   8
ATOM      8  C   UNL     1      83.420  88.883  85.615  1.00  0.00     0.100 C 
BRANCH   8   9
ATOM      9  C   UNL     1      83.958  89.545  86.828  1.00  0.00     0.220 C 
ATOM     10  O   UNL     1      85.081  90.098  86.755  1.00  0.00    -0.275 OA
ATOM     11  N   UNL     1      83.232  89.572  87.983  1.00  0.00    -0.352 N 
ATOM     12  H   UNL     1      82.385  89.023  87.957  1.00  0.00     0.163 HD
BRANCH  11  13
ATOM     13  C   UNL     1      83.576  90.294  89.170  1.00  0.00     0.151 C 
BRANCH  13  14
ATOM     14  C   UNL     1      82.862  91.591  89.313  1.00  0.00    -0.025 A 
ATOM     15  C   UNL     1      83.160  92.668  88.445  1.00  0.00     0.056 A 
ATOM     16  C   UNL     1      81.881  91.774  90.315  1.00  0.00     0.009 A 
ATOM     17  C   UNL     1      82.478  93.901  88.558  1.00  0.00     0.160 A 
ATOM     18  C   UNL     1      81.198  92.997  90.432  1.00  0.00     0.050 A 
ATOM     19  C   UNL     1      81.498  94.064  89.563  1.00  0.00     0.157 A 
BRANCH  17  20
ATOM     20  O   UNL     1      82.798  94.957  87.742  1.00  0.00    -0.493 OA
ATOM     21  C   UNL     1      84.060  95.576  88.050  1.00  0.00     0.278 C 
ENDBRANCH  17  20
BRANCH  19  22
ATOM     22  O   UNL     1      80.852  95.250  89.701  1.00  0.00    -0.504 OA
ATOM     23  H   UNL     1      80.334  95.426  88.912  1.00  0.00     0.293 HD
ENDBRANCH  19  22
ENDBRANCH  13  14
ENDBRANCH  11  13
ENDBRANCH   8   9
ENDBRANCH   1   8
TORSDOF 11
ENDMDL
MODEL 8
REMARK VINA RESULT:    -5.131     24.037     27.970
REMARK INTER + INTRA:          -9.064
REMARK INTER:                  -7.927
REMARK INTRA:                  -1.137
REMARK UNBOUND:                -0.783
REMARK SMILES CCCCCCCCC(=O)NCc1ccc(O)c(OC)c1
REMARK SMILES IDX 7 1 6 2 5 3 4 4 3 5 2 6 1 7 8 8 9 9 10 10 11 11 12 13 13 14
REMARK SMILES IDX 21 15 14 16 18 17 15 18 16 19 19 20 20 21 17 22
REMARK H PARENT 11 12 17 23
REMARK Flexibility Score: inf
ROOT
ATOM      1  C   UNL     1      81.923  64.511  74.162  1.00  0.00     0.010 C 
ENDROOT
BRANCH   1   2
ATOM      2  C   UNL     1      80.455  64.607  73.656  1.00  0.00     0.001 C 
BRANCH   2   3
ATOM      3  C   UNL     1      80.138  65.996  73.027  1.00  0.00     0.000 C 
BRANCH   3   4
ATOM      4  C   UNL     1      80.120  65.991  71.473  1.00  0.00    -0.000 C 
BRANCH   4   5
ATOM      5  C   UNL     1      81.118  67.012  70.857  1.00  0.00    -0.000 C 
BRANCH   5   6
ATOM      6  C   UNL     1      81.850  67.854  71.936  1.00  0.00    -0.003 C 
ATOM      7  C   UNL     1      82.949  68.764  71.344  1.00  0.00     0.004 C 
ENDBRANCH   5   6
ENDBRANCH   4   5
ENDBRANCH   3   4
ENDBRANCH   2   3
ENDBRANCH   1   2
BRANCH   1   8
ATOM      8  C   UNL     1      82.067  64.639  75.704  1.00  0.00     0.100 C 
BRANCH   8   9
ATOM      9  C   UNL     1      82.307  66.045  76.109  1.00  0.00     0.220 C 
ATOM     10  O   UNL     1      81.316  66.801  76.251  1.00  0.00    -0.275 OA
ATOM     11  N   UNL     1      83.575  66.492  76.349  1.00  0.00    -0.352 N 
ATOM     12  H   UNL     1      84.301  65.828  76.121  1.00  0.00     0.163 HD
BRANCH  11  13
ATOM     13  C   UNL     1      83.923  67.775  76.877  1.00  0.00     0.151 C 
BRANCH  13  14
ATOM     14  C   UNL     1      84.968  68.485  76.091  1.00  0.00    -0.025 A 
ATOM     15  C   UNL     1      85.108  68.238  74.705  1.00  0.00     0.056 A 
ATOM     16  C   UNL     1      85.838  69.412  76.710  1.00  0.00     0.009 A 
ATOM     17  C   UNL     1      86.085  68.918  73.942  1.00  0.00     0.160 A 
ATOM     18  C   UNL     1      86.811  70.092  75.957  1.00  0.00     0.050 A 
ATOM     19  C   UNL     1      86.943  69.843  74.577  1.00  0.00     0.157 A 
BRANCH  17  20
ATOM     20  O   UNL     1      86.247  68.646  72.607  1.00  0.00    -0.493 OA
ATOM     21  C   UNL     1      86.903  67.394  72.336  1.00  0.00     0.278 C 
ENDBRANCH  17  20
BRANCH  19  22
ATOM     22  O   UNL     1      87.904  70.485  73.864  1.00  0.00    -0.504 OA
ATOM     23  H   UNL     1      87.879  71.423  74.066  1.00  0.00     0.293 HD
ENDBRANCH  19  22
ENDBRANCH  13  14
ENDBRANCH  11  13
ENDBRANCH   8   9
ENDBRANCH   1   8
TORSDOF 11
ENDMDL
MODEL 9
REMARK VINA RESULT:    -5.061     24.394     28.220
REMARK INTER + INTRA:          -8.951
REMARK INTER:                  -7.955
REMARK INTRA:                  -0.996
REMARK UNBOUND:                -0.783
REMARK SMILES CCCCCCCCC(=O)NCc1ccc(O)c(OC)c1
REMARK SMILES IDX 7 1 6 2 5 3 4 4 3 5 2 6 1 7 8 8 9 9 10 10 11 11 12 13 13 14
REMARK SMILES IDX 21 15 14 16 18 17 15 18 16 19 19 20 20 21 17 22
REMARK H PARENT 11 12 17 23
REMARK Flexibility Score: inf
ROOT
ATOM      1  C   UNL     1      81.472  65.263  73.517  1.00  0.00     0.010 C 
ENDROOT
BRANCH   1   2
ATOM      2  C   UNL     1      80.163  65.203  72.677  1.00  0.00     0.001 C 
BRANCH   2   3
ATOM      3  C   UNL     1      80.188  66.195  71.476  1.00  0.00     0.000 C 
BRANCH   3   4
ATOM      4  C   UNL     1      81.620  66.574  71.006  1.00  0.00    -0.000 C 
BRANCH   4   5
ATOM      5  C   UNL     1      81.874  68.108  71.032  1.00  0.00    -0.000 C 
BRANCH   5   6
ATOM      6  C   UNL     1      83.370  68.461  71.249  1.00  0.00    -0.003 C 
ATOM      7  C   UNL     1      83.650  69.976  71.149  1.00  0.00     0.004 C 
ENDBRANCH   5   6
ENDBRANCH   4   5
ENDBRANCH   3   4
ENDBRANCH   2   3
ENDBRANCH   1   2
BRANCH   1   8
ATOM      8  C   UNL     1      81.639  64.078  74.508  1.00  0.00     0.100 C 
BRANCH   8   9
ATOM      9  C   UNL     1      82.876  64.217  75.312  1.00  0.00     0.220 C 
ATOM     10  O   UNL     1      83.752  63.324  75.216  1.00  0.00    -0.275 OA
ATOM     11  N   UNL     1      83.064  65.306  76.114  1.00  0.00    -0.352 N 
ATOM     12  H   UNL     1      82.263  65.916  76.184  1.00  0.00     0.163 HD
BRANCH  11  13
ATOM     13  C   UNL     1      84.265  65.624  76.824  1.00  0.00     0.151 C 
BRANCH  13  14
ATOM     14  C   UNL     1      84.862  66.931  76.442  1.00  0.00    -0.025 A 
ATOM     15  C   UNL     1      85.247  67.857  77.441  1.00  0.00     0.056 A 
ATOM     16  C   UNL     1      85.052  67.275  75.084  1.00  0.00     0.009 A 
ATOM     17  C   UNL     1      85.832  69.097  77.093  1.00  0.00     0.160 A 
ATOM     18  C   UNL     1      85.633  68.505  74.732  1.00  0.00     0.050 A 
ATOM     19  C   UNL     1      86.017  69.421  75.730  1.00  0.00     0.157 A 
BRANCH  17  20
ATOM     20  O   UNL     1      86.166  70.011  78.061  1.00  0.00    -0.493 OA
ATOM     21  C   UNL     1      87.254  69.601  78.908  1.00  0.00     0.278 C 
ENDBRANCH  17  20
BRANCH  19  22
ATOM     22  O   UNL     1      86.553  70.618  75.380  1.00  0.00    -0.504 OA
ATOM     23  H   UNL     1      85.865  71.288  75.378  1.00  0.00     0.293 HD
ENDBRANCH  19  22
ENDBRANCH  13  14
ENDBRANCH  11  13
ENDBRANCH   8   9
ENDBRANCH   1   8
TORSDOF 11
ENDMDL
MODEL 10
REMARK VINA RESULT:    -4.978     14.302     15.638
REMARK INTER + INTRA:          -8.817
REMARK INTER:                  -7.952
REMARK INTRA:                  -0.864
REMARK UNBOUND:                -0.783
REMARK SMILES CCCCCCCCC(=O)NCc1ccc(O)c(OC)c1
REMARK SMILES IDX 7 1 6 2 5 3 4 4 3 5 2 6 1 7 8 8 9 9 10 10 11 11 12 13 13 14
REMARK SMILES IDX 21 15 14 16 18 17 15 18 16 19 19 20 20 21 17 22
REMARK H PARENT 11 12 17 23
REMARK Flexibility Score: inf
ROOT
ATOM      1  C   UNL     1      81.819  92.508  89.566  1.00  0.00     0.010 C 
ENDROOT
BRANCH   1   2
ATOM      2  C   UNL     1      82.044  93.925  88.965  1.00  0.00     0.001 C 
BRANCH   2   3
ATOM      3  C   UNL     1      83.460  94.485  89.291  1.00  0.00     0.000 C 
BRANCH   3   4
ATOM      4  C   UNL     1      83.920  95.621  88.335  1.00  0.00    -0.000 C 
BRANCH   4   5
ATOM      5  C   UNL     1      82.878  95.928  87.222  1.00  0.00    -0.000 C 
BRANCH   5   6
ATOM      6  C   UNL     1      82.005  97.170  87.549  1.00  0.00    -0.003 C 
ATOM      7  C   UNL     1      80.834  97.358  86.560  1.00  0.00     0.004 C 
ENDBRANCH   5   6
ENDBRANCH   4   5
ENDBRANCH   3   4
ENDBRANCH   2   3
ENDBRANCH   1   2
BRANCH   1   8
ATOM      8  C   UNL     1      83.119  91.828  90.080  1.00  0.00     0.100 C 
BRANCH   8   9
ATOM      9  C   UNL     1      83.490  90.666  89.238  1.00  0.00     0.220 C 
ATOM     10  O   UNL     1      83.509  89.529  89.767  1.00  0.00    -0.275 OA
ATOM     11  N   UNL     1      83.774  90.832  87.913  1.00  0.00    -0.352 N 
ATOM     12  H   UNL     1      83.814  91.795  87.612  1.00  0.00     0.163 HD
BRANCH  11  13
ATOM     13  C   UNL     1      84.006  89.782  86.969  1.00  0.00     0.151 C 
BRANCH  13  14
ATOM     14  C   UNL     1      82.781  89.335  86.254  1.00  0.00    -0.025 A 
ATOM     15  C   UNL     1      81.964  88.320  86.805  1.00  0.00     0.056 A 
ATOM     16  C   UNL     1      82.413  89.910  85.015  1.00  0.00     0.009 A 
ATOM     17  C   UNL     1      80.787  87.897  86.145  1.00  0.00     0.160 A 
ATOM     18  C   UNL     1      81.243  89.495  84.354  1.00  0.00     0.050 A 
ATOM     19  C   UNL     1      80.433  88.486  84.910  1.00  0.00     0.157 A 
BRANCH  17  20
ATOM     20  O   UNL     1      80.019  86.884  86.660  1.00  0.00    -0.493 OA
ATOM     21  C   UNL     1      80.310  86.564  88.032  1.00  0.00     0.278 C 
ENDBRANCH  17  20
BRANCH  19  22
ATOM     22  O   UNL     1      79.321  88.073  84.250  1.00  0.00    -0.504 OA
ATOM     23  H   UNL     1      78.578  88.050  84.858  1.00  0.00     0.293 HD
ENDBRANCH  19  22
ENDBRANCH  13  14
ENDBRANCH  11  13
ENDBRANCH   8   9
ENDBRANCH   1   8
TORSDOF 11
ENDMDL
