MODEL 1
REMARK VINA RESULT:    -7.343      0.000      0.000
REMARK INTER + INTRA:         -13.661
REMARK INTER:                 -12.495
REMARK INTRA:                  -1.166
REMARK UNBOUND:                -1.166
REMARK SMILES C=C(C)[C@]12C[C@@H](C)[C@@]34O[C@](Cc5ccccc5)(O[C@@H]1[C@@H]3C=C(COC(=O)Cc1ccc(O)cc1)C[C@]1(O)C(=O)C(C)=C[C@@H]41)O2
REMARK SMILES IDX 23 1 22 2 21 3 20 4 9 5 8 6 10 7 6 8 18 10 44 11 19 12 5 13
REMARK SMILES IDX 7 14 4 15 11 16 12 17 13 18 17 19 14 20 16 21 15 22 2 23
REMARK SMILES IDX 3 24 1 25 35 26 36 27 43 28 38 29 42 30 39 32 40 33 41 34
REMARK SMILES IDX 37 35 24 37 25 38 26 39 27 40 28 41 29 42 34 43 30 44 33 45
REMARK SMILES IDX 31 46 32 47
REMARK H PARENT 37 36 32 48
REMARK Flexibility Score: 90.00
ROOT
ATOM      1  C   UNL     1      90.245  99.258  71.214  1.00  0.00     0.264 C 
ENDROOT
BRANCH   1   2
ATOM      2  C   UNL     1      91.551  99.964  71.494  1.00  0.00    -0.033 C 
ATOM      3  C   UNL     1      92.079  99.906  72.735  1.00  0.00    -0.015 C 
BRANCH   3   4
ATOM      4  C   UNL     1      93.324 100.582  73.287  1.00  0.00     0.078 C 
ATOM      5  O   UNL     1      95.183  98.969  73.056  1.00  0.00    -0.319 OA
ATOM      6  C   UNL     1      94.707 100.275  72.605  1.00  0.00     0.095 CG0
ATOM      7  C   UNL     1      95.016  98.705  74.462  1.00  0.00     0.289 C 
ATOM      8  C   UNL     1      95.729 101.393  73.069  1.00  0.00     0.023 C 
ATOM      9  G   UNL     1      94.543 100.118  71.065  1.00  0.00     0.000 G0
ATOM     10  O   UNL     1      93.649  98.815  74.850  1.00  0.00    -0.320 OA
ATOM     11  O   UNL     1      95.724  99.635  75.277  1.00  0.00    -0.313 OA
ATOM     12  C   UNL     1      93.485 100.241  74.789  1.00  0.00     0.170 C 
ATOM     13  C   UNL     1      95.431 101.873  74.523  1.00  0.00     0.049 C 
ATOM     14  C   UNL     1      97.217 101.020  72.951  1.00  0.00     0.011 C 
ATOM     15  C   UNL     1      94.823 100.757  75.373  1.00  0.00     0.122 C 
BRANCH   7  16
ATOM     16  C   UNL     1      95.518  97.302  74.745  1.00  0.00     0.135 C 
BRANCH  16  17
ATOM     17  C   UNL     1      94.945  96.743  76.023  1.00  0.00    -0.040 A 
ATOM     18  C   UNL     1      93.950  95.767  75.973  1.00  0.00     0.004 A 
ATOM     19  C   UNL     1      95.412  97.201  77.254  1.00  0.00     0.004 A 
ATOM     20  C   UNL     1      93.421  95.249  77.156  1.00  0.00     0.000 A 
ATOM     21  C   UNL     1      94.883  96.684  78.437  1.00  0.00     0.000 A 
ATOM     22  C   UNL     1      93.887  95.708  78.388  1.00  0.00     0.000 A 
ENDBRANCH  16  17
ENDBRANCH   7  16
BRANCH  15  23
ATOM     23  C   UNL     1      94.697 101.137  76.813  1.00  0.00    -0.046 C 
ATOM     24  C   UNL     1      93.639 102.149  77.140  1.00  0.00     0.042 C 
ATOM     25  C   UNL     1      95.484 100.604  77.759  1.00  0.00     0.010 C 
ENDBRANCH  15  23
ENDBRANCH   3   4
BRANCH   2  26
ATOM     26  C   UNL     1      92.120 100.670  70.278  1.00  0.00     0.078 C 
BRANCH  26  27
ATOM     27  C   UNL     1      93.561 101.168  70.370  1.00  0.00     0.140 C 
ATOM     28  C   UNL     1      94.493 100.136  71.040  1.00  0.00     0.086 CG0
ATOM     29  C   UNL     1      94.201 101.348  69.010  1.00  0.00     0.190 C 
ATOM     30  C   UNL     1      95.696 100.115  70.139  1.00  0.00    -0.010 C 
ATOM     31  G   UNL     1      94.692 100.288  72.576  1.00  0.00     0.000 G0
ATOM     32  O   UNL     1      93.700 101.941  68.065  1.00  0.00    -0.291 OA
ATOM     33  C   UNL     1      95.554 100.762  68.978  1.00  0.00    -0.008 C 
ATOM     34  C   UNL     1      96.482 100.880  67.834  1.00  0.00     0.048 C 
BRANCH  27  35
ATOM     35  O   UNL     1      93.628 102.460  70.949  1.00  0.00    -0.381 OA
ATOM     36  H   UNL     1      92.903 102.996  70.586  1.00  0.00     0.212 HD
ENDBRANCH  27  35
ENDBRANCH  26  27
ENDBRANCH   2  26
ENDBRANCH   1   2
BRANCH   1  37
ATOM     37  O   UNL     1      90.211  98.860  69.860  1.00  0.00    -0.461 OA
BRANCH  37  38
ATOM     38  C   UNL     1      88.988  98.455  69.376  1.00  0.00     0.310 C 
ATOM     39  O   UNL     1      88.592  97.298  69.350  1.00  0.00    -0.252 OA
BRANCH  38  40
ATOM     40  C   UNL     1      88.217  99.657  68.885  1.00  0.00     0.158 C 
BRANCH  40  41
ATOM     41  C   UNL     1      89.086 100.664  68.178  1.00  0.00    -0.037 A 
ATOM     42  C   UNL     1      89.036 102.009  68.545  1.00  0.00     0.008 A 
ATOM     43  C   UNL     1      89.940 100.252  67.155  1.00  0.00     0.008 A 
ATOM     44  C   UNL     1      89.840 102.942  67.889  1.00  0.00     0.046 A 
ATOM     45  C   UNL     1      90.745 101.185  66.500  1.00  0.00     0.046 A 
ATOM     46  C   UNL     1      90.694 102.529  66.867  1.00  0.00     0.115 A 
BRANCH  46  47
ATOM     47  O   UNL     1      91.478 103.439  66.227  1.00  0.00    -0.508 OA
ATOM     48  H   UNL     1      91.569 104.228  66.789  1.00  0.00     0.293 HD
ENDBRANCH  46  47
ENDBRANCH  40  41
ENDBRANCH  38  40
ENDBRANCH  37  38
ENDBRANCH   1  37
TORSDOF 10
ENDMDL
MODEL 2
REMARK VINA RESULT:    -7.197      1.934      3.026
REMARK INTER + INTRA:         -13.411
REMARK INTER:                 -12.745
REMARK INTRA:                  -0.666
REMARK UNBOUND:                -1.166
REMARK SMILES C=C(C)[C@]12C[C@@H](C)[C@@]34O[C@](Cc5ccccc5)(O[C@@H]1[C@@H]3C=C(COC(=O)Cc1ccc(O)cc1)C[C@]1(O)C(=O)C(C)=C[C@@H]41)O2
REMARK SMILES IDX 23 1 22 2 21 3 20 4 9 5 8 6 10 7 6 8 18 10 44 11 19 12 5 13
REMARK SMILES IDX 7 14 4 15 11 16 12 17 13 18 17 19 14 20 16 21 15 22 2 23
REMARK SMILES IDX 3 24 1 25 35 26 36 27 43 28 38 29 42 30 39 32 40 33 41 34
REMARK SMILES IDX 37 35 24 37 25 38 26 39 27 40 28 41 29 42 34 43 30 44 33 45
REMARK SMILES IDX 31 46 32 47
REMARK H PARENT 37 36 32 48
REMARK Flexibility Score: 90.00
ROOT
ATOM      1  C   UNL     1      91.334 101.373  73.214  1.00  0.00     0.264 C 
ENDROOT
BRANCH   1   2
ATOM      2  C   UNL     1      92.811 101.124  73.418  1.00  0.00    -0.033 C 
ATOM      3  C   UNL     1      93.224 100.485  74.532  1.00  0.00    -0.015 C 
BRANCH   3   4
ATOM      4  C   UNL     1      94.638 100.185  75.004  1.00  0.00     0.078 C 
ATOM      5  O   UNL     1      95.208  97.925  74.175  1.00  0.00    -0.319 OA
ATOM      6  C   UNL     1      95.574  99.336  74.067  1.00  0.00     0.095 CG0
ATOM      7  C   UNL     1      94.939  97.460  75.511  1.00  0.00     0.289 C 
ATOM      8  C   UNL     1      97.063  99.531  74.574  1.00  0.00     0.023 C 
ATOM      9  G   UNL     1      95.326  99.688  72.571  1.00  0.00     0.000 G0
ATOM     10  O   UNL     1      93.897  98.217  76.123  1.00  0.00    -0.320 OA
ATOM     11  O   UNL     1      96.068  97.595  76.371  1.00  0.00    -0.313 OA
ATOM     12  C   UNL     1      94.592  99.450  76.366  1.00  0.00     0.170 C 
ATOM     13  C   UNL     1      97.121  99.715  76.121  1.00  0.00     0.049 C 
ATOM     14  C   UNL     1      98.054  98.432  74.154  1.00  0.00     0.011 C 
ATOM     15  C   UNL     1      95.989  98.963  76.823  1.00  0.00     0.122 C 
BRANCH   7  16
ATOM     16  C   UNL     1      94.535  96.001  75.434  1.00  0.00     0.135 C 
BRANCH  16  17
ATOM     17  C   UNL     1      93.653  95.595  76.588  1.00  0.00    -0.040 A 
ATOM     18  C   UNL     1      92.312  95.976  76.610  1.00  0.00     0.004 A 
ATOM     19  C   UNL     1      94.181  94.838  77.634  1.00  0.00     0.004 A 
ATOM     20  C   UNL     1      91.497  95.600  77.678  1.00  0.00     0.000 A 
ATOM     21  C   UNL     1      93.365  94.462  78.702  1.00  0.00     0.000 A 
ATOM     22  C   UNL     1      92.024  94.843  78.724  1.00  0.00     0.000 A 
ENDBRANCH  16  17
ENDBRANCH   7  16
BRANCH  15  23
ATOM     23  C   UNL     1      96.129  98.974  78.311  1.00  0.00    -0.046 C 
ATOM     24  C   UNL     1      96.254 100.324  78.953  1.00  0.00     0.042 C 
ATOM     25  C   UNL     1      96.141  97.843  79.031  1.00  0.00     0.010 C 
ENDBRANCH  15  23
ENDBRANCH   3   4
BRANCH   2  26
ATOM     26  C   UNL     1      93.665 101.647  72.279  1.00  0.00     0.078 C 
BRANCH  26  27
ATOM     27  C   UNL     1      95.124 101.198  72.237  1.00  0.00     0.140 C 
ATOM     28  C   UNL     1      95.284  99.701  72.576  1.00  0.00     0.086 CG0
ATOM     29  C   UNL     1      95.718 101.282  70.847  1.00  0.00     0.190 C 
ATOM     30  C   UNL     1      96.224  99.200  71.514  1.00  0.00    -0.010 C 
ATOM     31  G   UNL     1      95.567  99.362  74.068  1.00  0.00     0.000 G0
ATOM     32  O   UNL     1      95.643 102.248  70.102  1.00  0.00    -0.291 OA
ATOM     33  C   UNL     1      96.465 100.054  70.515  1.00  0.00    -0.008 C 
ATOM     34  C   UNL     1      97.259  99.875  69.282  1.00  0.00     0.048 C 
BRANCH  27  35
ATOM     35  O   UNL     1      95.952 102.051  73.011  1.00  0.00    -0.381 OA
ATOM     36  H   UNL     1      95.901 102.947  72.638  1.00  0.00     0.212 HD
ENDBRANCH  27  35
ENDBRANCH  26  27
ENDBRANCH   2  26
ENDBRANCH   1   2
BRANCH   1  37
ATOM     37  O   UNL     1      91.155 102.263  72.134  1.00  0.00    -0.461 OA
BRANCH  37  38
ATOM     38  C   UNL     1      90.134 101.964  71.262  1.00  0.00     0.310 C 
ATOM     39  O   UNL     1      88.943 102.109  71.500  1.00  0.00    -0.252 OA
BRANCH  38  40
ATOM     40  C   UNL     1      90.711 101.432  69.973  1.00  0.00     0.158 C 
BRANCH  40  41
ATOM     41  C   UNL     1      90.025 100.178  69.495  1.00  0.00    -0.037 A 
ATOM     42  C   UNL     1      90.029  99.034  70.292  1.00  0.00     0.008 A 
ATOM     43  C   UNL     1      89.387 100.161  68.255  1.00  0.00     0.008 A 
ATOM     44  C   UNL     1      89.395  97.873  69.849  1.00  0.00     0.046 A 
ATOM     45  C   UNL     1      88.752  99.001  67.812  1.00  0.00     0.046 A 
ATOM     46  C   UNL     1      88.756  97.857  68.609  1.00  0.00     0.115 A 
BRANCH  46  47
ATOM     47  O   UNL     1      88.138  96.724  68.177  1.00  0.00    -0.508 OA
ATOM     48  H   UNL     1      87.681  96.307  68.929  1.00  0.00     0.293 HD
ENDBRANCH  46  47
ENDBRANCH  40  41
ENDBRANCH  38  40
ENDBRANCH  37  38
ENDBRANCH   1  37
TORSDOF 10
ENDMDL
MODEL 3
REMARK VINA RESULT:    -6.870     30.887     33.595
REMARK INTER + INTRA:         -12.856
REMARK INTER:                 -10.448
REMARK INTRA:                  -2.408
REMARK UNBOUND:                -1.166
REMARK SMILES C=C(C)[C@]12C[C@@H](C)[C@@]34O[C@](Cc5ccccc5)(O[C@@H]1[C@@H]3C=C(COC(=O)Cc1ccc(O)cc1)C[C@]1(O)C(=O)C(C)=C[C@@H]41)O2
REMARK SMILES IDX 23 1 22 2 21 3 20 4 9 5 8 6 10 7 6 8 18 10 44 11 19 12 5 13
REMARK SMILES IDX 7 14 4 15 11 16 12 17 13 18 17 19 14 20 16 21 15 22 2 23
REMARK SMILES IDX 3 24 1 25 35 26 36 27 43 28 38 29 42 30 39 32 40 33 41 34
REMARK SMILES IDX 37 35 24 37 25 38 26 39 27 40 28 41 29 42 34 43 30 44 33 45
REMARK SMILES IDX 31 46 32 47
REMARK H PARENT 37 36 32 48
REMARK Flexibility Score: 90.00
ROOT
ATOM      1  C   UNL     1      64.920  88.595  71.110  1.00  0.00     0.264 C 
ENDROOT
BRANCH   1   2
ATOM      2  C   UNL     1      65.021  87.403  72.033  1.00  0.00    -0.033 C 
ATOM      3  C   UNL     1      64.328  87.405  73.191  1.00  0.00    -0.015 C 
BRANCH   3   4
ATOM      4  C   UNL     1      64.318  86.377  74.311  1.00  0.00     0.078 C 
ATOM      5  O   UNL     1      62.454  84.820  73.844  1.00  0.00    -0.319 OA
ATOM      6  C   UNL     1      63.909  84.898  73.967  1.00  0.00     0.095 CG0
ATOM      7  C   UNL     1      61.713  85.542  74.846  1.00  0.00     0.289 C 
ATOM      8  C   UNL     1      64.383  83.978  75.166  1.00  0.00     0.023 C 
ATOM      9  G   UNL     1      64.439  84.491  72.561  1.00  0.00     0.000 G0
ATOM     10  O   UNL     1      62.064  86.922  74.856  1.00  0.00    -0.320 OA
ATOM     11  O   UNL     1      61.978  85.067  76.164  1.00  0.00    -0.313 OA
ATOM     12  C   UNL     1      63.372  86.845  75.445  1.00  0.00     0.170 C 
ATOM     13  C   UNL     1      64.305  84.730  76.530  1.00  0.00     0.049 C 
ATOM     14  C   UNL     1      63.660  82.625  75.287  1.00  0.00     0.011 C 
ATOM     15  C   UNL     1      63.182  85.768  76.541  1.00  0.00     0.122 C 
BRANCH   7  16
ATOM     16  C   UNL     1      60.235  85.390  74.544  1.00  0.00     0.135 C 
BRANCH  16  17
ATOM     17  C   UNL     1      59.919  85.690  73.100  1.00  0.00    -0.040 A 
ATOM     18  C   UNL     1      59.625  84.650  72.219  1.00  0.00     0.004 A 
ATOM     19  C   UNL     1      59.920  87.009  72.647  1.00  0.00     0.004 A 
ATOM     20  C   UNL     1      59.332  84.928  70.883  1.00  0.00     0.000 A 
ATOM     21  C   UNL     1      59.627  87.288  71.311  1.00  0.00     0.000 A 
ATOM     22  C   UNL     1      59.333  86.247  70.430  1.00  0.00     0.000 A 
ENDBRANCH  16  17
ENDBRANCH   7  16
BRANCH  15  23
ATOM     23  C   UNL     1      62.972  86.371  77.891  1.00  0.00    -0.046 C 
ATOM     24  C   UNL     1      62.988  87.870  77.956  1.00  0.00     0.042 C 
ATOM     25  C   UNL     1      62.779  85.617  78.983  1.00  0.00     0.010 C 
ENDBRANCH  15  23
ENDBRANCH   3   4
BRANCH   2  26
ATOM     26  C   UNL     1      65.928  86.310  71.499  1.00  0.00     0.078 C 
BRANCH  26  27
ATOM     27  C   UNL     1      65.891  84.961  72.213  1.00  0.00     0.140 C 
ATOM     28  C   UNL     1      64.453  84.520  72.553  1.00  0.00     0.086 CG0
ATOM     29  C   UNL     1      66.380  83.827  71.336  1.00  0.00     0.190 C 
ATOM     30  C   UNL     1      64.418  83.079  72.125  1.00  0.00    -0.010 C 
ATOM     31  G   UNL     1      63.933  84.909  73.968  1.00  0.00     0.000 G0
ATOM     32  O   UNL     1      67.412  83.833  70.681  1.00  0.00    -0.291 OA
ATOM     33  C   UNL     1      65.473  82.667  71.416  1.00  0.00    -0.008 C 
ATOM     34  C   UNL     1      65.736  81.363  70.772  1.00  0.00     0.048 C 
BRANCH  27  35
ATOM     35  O   UNL     1      66.775  84.936  73.321  1.00  0.00    -0.381 OA
ATOM     36  H   UNL     1      67.685  84.859  72.986  1.00  0.00     0.212 HD
ENDBRANCH  27  35
ENDBRANCH  26  27
ENDBRANCH   2  26
ENDBRANCH   1   2
BRANCH   1  37
ATOM     37  O   UNL     1      65.075  88.165  69.774  1.00  0.00    -0.461 OA
BRANCH  37  38
ATOM     38  C   UNL     1      63.936  88.155  69.004  1.00  0.00     0.310 C 
ATOM     39  O   UNL     1      62.911  88.773  69.256  1.00  0.00    -0.252 OA
BRANCH  38  40
ATOM     40  C   UNL     1      64.148  87.265  67.803  1.00  0.00     0.158 C 
BRANCH  40  41
ATOM     41  C   UNL     1      63.829  85.818  68.079  1.00  0.00    -0.037 A 
ATOM     42  C   UNL     1      64.742  84.823  67.728  1.00  0.00     0.008 A 
ATOM     43  C   UNL     1      62.622  85.474  68.686  1.00  0.00     0.008 A 
ATOM     44  C   UNL     1      64.446  83.484  67.983  1.00  0.00     0.046 A 
ATOM     45  C   UNL     1      62.326  84.134  68.942  1.00  0.00     0.046 A 
ATOM     46  C   UNL     1      63.238  83.140  68.590  1.00  0.00     0.115 A 
BRANCH  46  47
ATOM     47  O   UNL     1      62.950  81.833  68.839  1.00  0.00    -0.508 OA
ATOM     48  H   UNL     1      63.542  81.273  68.308  1.00  0.00     0.293 HD
ENDBRANCH  46  47
ENDBRANCH  40  41
ENDBRANCH  38  40
ENDBRANCH  37  38
ENDBRANCH   1  37
TORSDOF 10
ENDMDL
MODEL 4
REMARK VINA RESULT:    -6.758     28.433     32.919
REMARK INTER + INTRA:         -12.665
REMARK INTER:                  -9.935
REMARK INTRA:                  -2.730
REMARK UNBOUND:                -1.166
REMARK SMILES C=C(C)[C@]12C[C@@H](C)[C@@]34O[C@](Cc5ccccc5)(O[C@@H]1[C@@H]3C=C(COC(=O)Cc1ccc(O)cc1)C[C@]1(O)C(=O)C(C)=C[C@@H]41)O2
REMARK SMILES IDX 23 1 22 2 21 3 20 4 9 5 8 6 10 7 6 8 18 10 44 11 19 12 5 13
REMARK SMILES IDX 7 14 4 15 11 16 12 17 13 18 17 19 14 20 16 21 15 22 2 23
REMARK SMILES IDX 3 24 1 25 35 26 36 27 43 28 38 29 42 30 39 32 40 33 41 34
REMARK SMILES IDX 37 35 24 37 25 38 26 39 27 40 28 41 29 42 34 43 30 44 33 45
REMARK SMILES IDX 31 46 32 47
REMARK H PARENT 37 36 32 48
REMARK Flexibility Score: 90.00
ROOT
ATOM      1  C   UNL     1      62.845  83.889  69.236  1.00  0.00     0.264 C 
ENDROOT
BRANCH   1   2
ATOM      2  C   UNL     1      62.451  84.403  70.601  1.00  0.00    -0.033 C 
ATOM      3  C   UNL     1      63.360  84.391  71.598  1.00  0.00    -0.015 C 
BRANCH   3   4
ATOM      4  C   UNL     1      63.195  84.776  73.059  1.00  0.00     0.078 C 
ATOM      5  O   UNL     1      63.829  87.159  73.253  1.00  0.00    -0.319 OA
ATOM      6  C   UNL     1      62.707  86.233  73.399  1.00  0.00     0.095 CG0
ATOM      7  C   UNL     1      65.084  86.693  73.784  1.00  0.00     0.289 C 
ATOM      8  C   UNL     1      62.219  86.236  74.906  1.00  0.00     0.023 C 
ATOM      9  G   UNL     1      61.661  86.724  72.357  1.00  0.00     0.000 G0
ATOM     10  O   UNL     1      65.473  85.459  73.187  1.00  0.00    -0.320 OA
ATOM     11  O   UNL     1      65.020  86.440  75.186  1.00  0.00    -0.313 OA
ATOM     12  C   UNL     1      64.532  84.571  73.812  1.00  0.00     0.170 C 
ATOM     13  C   UNL     1      63.050  85.245  75.779  1.00  0.00     0.049 C 
ATOM     14  C   UNL     1      62.189  87.614  75.589  1.00  0.00     0.011 C 
ATOM     15  C   UNL     1      64.483  85.104  75.265  1.00  0.00     0.122 C 
BRANCH   7  16
ATOM     16  C   UNL     1      66.137  87.749  73.510  1.00  0.00     0.135 C 
BRANCH  16  17
ATOM     17  C   UNL     1      66.839  87.522  72.195  1.00  0.00    -0.040 A 
ATOM     18  C   UNL     1      68.196  87.202  72.174  1.00  0.00     0.004 A 
ATOM     19  C   UNL     1      66.129  87.630  70.999  1.00  0.00     0.004 A 
ATOM     20  C   UNL     1      68.845  86.991  70.957  1.00  0.00     0.000 A 
ATOM     21  C   UNL     1      66.778  87.419  69.782  1.00  0.00     0.000 A 
ATOM     22  C   UNL     1      68.135  87.100  69.761  1.00  0.00     0.000 A 
ENDBRANCH  16  17
ENDBRANCH   7  16
BRANCH  15  23
ATOM     23  C   UNL     1      65.346  84.304  76.186  1.00  0.00    -0.046 C 
ATOM     24  C   UNL     1      66.745  84.807  76.385  1.00  0.00     0.042 C 
ATOM     25  C   UNL     1      64.896  83.199  76.799  1.00  0.00     0.010 C 
ENDBRANCH  15  23
ENDBRANCH   3   4
BRANCH   2  26
ATOM     26  C   UNL     1      61.016  84.891  70.662  1.00  0.00     0.078 C 
BRANCH  26  27
ATOM     27  C   UNL     1      60.588  85.646  71.919  1.00  0.00     0.140 C 
ATOM     28  C   UNL     1      61.627  86.702  72.348  1.00  0.00     0.086 CG0
ATOM     29  C   UNL     1      59.345  86.482  71.699  1.00  0.00     0.190 C 
ATOM     30  C   UNL     1      60.791  87.917  72.639  1.00  0.00    -0.010 C 
ATOM     31  G   UNL     1      62.687  86.238  73.388  1.00  0.00     0.000 G0
ATOM     32  O   UNL     1      58.313  86.092  71.173  1.00  0.00    -0.291 OA
ATOM     33  C   UNL     1      59.512  87.836  72.260  1.00  0.00    -0.008 C 
ATOM     34  C   UNL     1      58.438  88.849  72.313  1.00  0.00     0.048 C 
BRANCH  27  35
ATOM     35  O   UNL     1      60.216  84.754  72.957  1.00  0.00    -0.381 OA
ATOM     36  H   UNL     1      60.237  85.239  73.800  1.00  0.00     0.212 HD
ENDBRANCH  27  35
ENDBRANCH  26  27
ENDBRANCH   2  26
ENDBRANCH   1   2
BRANCH   1  37
ATOM     37  O   UNL     1      63.653  82.741  69.385  1.00  0.00    -0.461 OA
BRANCH  37  38
ATOM     38  C   UNL     1      64.662  82.584  68.463  1.00  0.00     0.310 C 
ATOM     39  O   UNL     1      64.860  81.573  67.804  1.00  0.00    -0.252 OA
BRANCH  38  40
ATOM     40  C   UNL     1      65.483  83.849  68.393  1.00  0.00     0.158 C 
BRANCH  40  41
ATOM     41  C   UNL     1      66.803  83.734  69.110  1.00  0.00    -0.037 A 
ATOM     42  C   UNL     1      66.837  83.665  70.503  1.00  0.00     0.008 A 
ATOM     43  C   UNL     1      67.991  83.697  68.382  1.00  0.00     0.008 A 
ATOM     44  C   UNL     1      68.059  83.560  71.167  1.00  0.00     0.046 A 
ATOM     45  C   UNL     1      69.214  83.591  69.045  1.00  0.00     0.046 A 
ATOM     46  C   UNL     1      69.248  83.522  70.438  1.00  0.00     0.115 A 
BRANCH  46  47
ATOM     47  O   UNL     1      70.440  83.420  71.085  1.00  0.00    -0.508 OA
ATOM     48  H   UNL     1      70.686  82.480  71.147  1.00  0.00     0.293 HD
ENDBRANCH  46  47
ENDBRANCH  40  41
ENDBRANCH  38  40
ENDBRANCH  37  38
ENDBRANCH   1  37
TORSDOF 10
ENDMDL
MODEL 5
REMARK VINA RESULT:    -6.709     31.068     33.994
REMARK INTER + INTRA:         -12.581
REMARK INTER:                 -10.728
REMARK INTRA:                  -1.852
REMARK UNBOUND:                -1.166
REMARK SMILES C=C(C)[C@]12C[C@@H](C)[C@@]34O[C@](Cc5ccccc5)(O[C@@H]1[C@@H]3C=C(COC(=O)Cc1ccc(O)cc1)C[C@]1(O)C(=O)C(C)=C[C@@H]41)O2
REMARK SMILES IDX 23 1 22 2 21 3 20 4 9 5 8 6 10 7 6 8 18 10 44 11 19 12 5 13
REMARK SMILES IDX 7 14 4 15 11 16 12 17 13 18 17 19 14 20 16 21 15 22 2 23
REMARK SMILES IDX 3 24 1 25 35 26 36 27 43 28 38 29 42 30 39 32 40 33 41 34
REMARK SMILES IDX 37 35 24 37 25 38 26 39 27 40 28 41 29 42 34 43 30 44 33 45
REMARK SMILES IDX 31 46 32 47
REMARK H PARENT 37 36 32 48
REMARK Flexibility Score: 90.00
ROOT
ATOM      1  C   UNL     1      65.674  84.391  70.978  1.00  0.00     0.264 C 
ENDROOT
BRANCH   1   2
ATOM      2  C   UNL     1      65.380  85.332  72.124  1.00  0.00    -0.033 C 
ATOM      3  C   UNL     1      64.507  86.344  71.939  1.00  0.00    -0.015 C 
BRANCH   3   4
ATOM      4  C   UNL     1      64.103  87.456  72.894  1.00  0.00     0.078 C 
ATOM      5  O   UNL     1      62.099  86.669  74.110  1.00  0.00    -0.319 OA
ATOM      6  C   UNL     1      63.496  87.061  74.290  1.00  0.00     0.095 CG0
ATOM      7  C   UNL     1      61.335  87.506  73.220  1.00  0.00     0.289 C 
ATOM      8  C   UNL     1      63.565  88.340  75.222  1.00  0.00     0.023 C 
ATOM      9  G   UNL     1      64.187  85.785  74.852  1.00  0.00     0.000 G0
ATOM     10  O   UNL     1      61.929  87.563  71.926  1.00  0.00    -0.320 OA
ATOM     11  O   UNL     1      61.265  88.856  73.671  1.00  0.00    -0.313 OA
ATOM     12  C   UNL     1      63.071  88.386  72.210  1.00  0.00     0.170 C 
ATOM     13  C   UNL     1      63.383  89.655  74.405  1.00  0.00     0.049 C 
ATOM     14  C   UNL     1      62.593  88.342  76.415  1.00  0.00     0.011 C 
ATOM     15  C   UNL     1      62.489  89.442  73.182  1.00  0.00     0.122 C 
BRANCH   7  16
ATOM     16  C   UNL     1      59.935  86.935  73.116  1.00  0.00     0.135 C 
BRANCH  16  17
ATOM     17  C   UNL     1      59.122  87.617  72.045  1.00  0.00    -0.040 A 
ATOM     18  C   UNL     1      58.548  88.863  72.292  1.00  0.00     0.004 A 
ATOM     19  C   UNL     1      58.947  87.001  70.806  1.00  0.00     0.004 A 
ATOM     20  C   UNL     1      57.796  89.495  71.300  1.00  0.00     0.000 A 
ATOM     21  C   UNL     1      58.196  87.633  69.814  1.00  0.00     0.000 A 
ATOM     22  C   UNL     1      57.621  88.879  70.061  1.00  0.00     0.000 A 
ENDBRANCH  16  17
ENDBRANCH   7  16
BRANCH  15  23
ATOM     23  C   UNL     1      62.154  90.721  72.487  1.00  0.00    -0.046 C 
ATOM     24  C   UNL     1      63.257  91.350  71.689  1.00  0.00     0.042 C 
ATOM     25  C   UNL     1      60.935  91.275  72.571  1.00  0.00     0.010 C 
ENDBRANCH  15  23
ENDBRANCH   3   4
BRANCH   2  26
ATOM     26  C   UNL     1      66.141  84.984  73.390  1.00  0.00     0.078 C 
BRANCH  26  27
ATOM     27  C   UNL     1      65.745  85.722  74.667  1.00  0.00     0.140 C 
ATOM     28  C   UNL     1      64.214  85.799  74.846  1.00  0.00     0.086 CG0
ATOM     29  C   UNL     1      66.181  84.990  75.919  1.00  0.00     0.190 C 
ATOM     30  C   UNL     1      64.010  85.418  76.286  1.00  0.00    -0.010 C 
ATOM     31  G   UNL     1      63.523  87.077  74.288  1.00  0.00     0.000 G0
ATOM     32  O   UNL     1      67.300  84.541  76.123  1.00  0.00    -0.291 OA
ATOM     33  C   UNL     1      65.089  84.934  76.908  1.00  0.00    -0.008 C 
ATOM     34  C   UNL     1      65.236  84.393  78.275  1.00  0.00     0.048 C 
BRANCH  27  35
ATOM     35  O   UNL     1      66.397  86.977  74.765  1.00  0.00    -0.381 OA
ATOM     36  H   UNL     1      65.761  87.626  75.112  1.00  0.00     0.212 HD
ENDBRANCH  27  35
ENDBRANCH  26  27
ENDBRANCH   2  26
ENDBRANCH   1   2
BRANCH   1  37
ATOM     37  O   UNL     1      66.100  83.148  71.493  1.00  0.00    -0.461 OA
BRANCH  37  38
ATOM     38  C   UNL     1      65.507  82.030  70.951  1.00  0.00     0.310 C 
ATOM     39  O   UNL     1      66.096  81.008  70.631  1.00  0.00    -0.252 OA
BRANCH  38  40
ATOM     40  C   UNL     1      64.022  82.265  70.813  1.00  0.00     0.158 C 
BRANCH  40  41
ATOM     41  C   UNL     1      63.334  82.467  72.138  1.00  0.00    -0.037 A 
ATOM     42  C   UNL     1      63.771  81.770  73.265  1.00  0.00     0.008 A 
ATOM     43  C   UNL     1      62.260  83.351  72.239  1.00  0.00     0.008 A 
ATOM     44  C   UNL     1      63.133  81.957  74.492  1.00  0.00     0.046 A 
ATOM     45  C   UNL     1      61.623  83.539  73.466  1.00  0.00     0.046 A 
ATOM     46  C   UNL     1      62.059  82.842  74.592  1.00  0.00     0.115 A 
BRANCH  46  47
ATOM     47  O   UNL     1      61.437  83.024  75.789  1.00  0.00    -0.508 OA
ATOM     48  H   UNL     1      62.100  83.276  76.454  1.00  0.00     0.293 HD
ENDBRANCH  46  47
ENDBRANCH  40  41
ENDBRANCH  38  40
ENDBRANCH  37  38
ENDBRANCH   1  37
TORSDOF 10
ENDMDL
MODEL 6
REMARK VINA RESULT:    -6.707     18.595     23.470
REMARK INTER + INTRA:         -12.578
REMARK INTER:                 -12.214
REMARK INTRA:                  -0.364
REMARK UNBOUND:                -1.166
REMARK SMILES C=C(C)[C@]12C[C@@H](C)[C@@]34O[C@](Cc5ccccc5)(O[C@@H]1[C@@H]3C=C(COC(=O)Cc1ccc(O)cc1)C[C@]1(O)C(=O)C(C)=C[C@@H]41)O2
REMARK SMILES IDX 23 1 22 2 21 3 20 4 9 5 8 6 10 7 6 8 18 10 44 11 19 12 5 13
REMARK SMILES IDX 7 14 4 15 11 16 12 17 13 18 17 19 14 20 16 21 15 22 2 23
REMARK SMILES IDX 3 24 1 25 35 26 36 27 43 28 38 29 42 30 39 32 40 33 41 34
REMARK SMILES IDX 37 35 24 37 25 38 26 39 27 40 28 41 29 42 34 43 30 44 33 45
REMARK SMILES IDX 31 46 32 47
REMARK H PARENT 37 36 32 48
REMARK Flexibility Score: 90.00
ROOT
ATOM      1  C   UNL     1      98.252  81.421  83.846  1.00  0.00     0.264 C 
ENDROOT
BRANCH   1   2
ATOM      2  C   UNL     1      97.967  82.124  85.153  1.00  0.00    -0.033 C 
ATOM      3  C   UNL     1      96.714  82.103  85.653  1.00  0.00    -0.015 C 
BRANCH   3   4
ATOM      4  C   UNL     1      96.158  82.786  86.892  1.00  0.00     0.078 C 
ATOM      5  O   UNL     1      96.307  81.153  88.743  1.00  0.00    -0.319 OA
ATOM      6  C   UNL     1      96.804  82.450  88.286  1.00  0.00     0.095 CG0
ATOM      7  C   UNL     1      94.898  80.930  88.547  1.00  0.00     0.289 C 
ATOM      8  C   UNL     1      96.353  83.573  89.307  1.00  0.00     0.023 C 
ATOM      9  G   UNL     1      98.342  82.249  88.149  1.00  0.00     0.000 G0
ATOM     10  O   UNL     1      94.539  81.062  87.175  1.00  0.00    -0.320 OA
ATOM     11  O   UNL     1      94.096  81.879  89.248  1.00  0.00    -0.313 OA
ATOM     12  C   UNL     1      94.644  82.486  87.023  1.00  0.00     0.170 C 
ATOM     13  C   UNL     1      94.919  84.096  88.986  1.00  0.00     0.049 C 
ATOM     14  C   UNL     1      96.432  83.186  90.794  1.00  0.00     0.011 C 
ATOM     15  C   UNL     1      94.049  83.010  88.353  1.00  0.00     0.122 C 
BRANCH   7  16
ATOM     16  C   UNL     1      94.566  79.533  89.033  1.00  0.00     0.135 C 
BRANCH  16  17
ATOM     17  C   UNL     1      93.643  78.808  88.085  1.00  0.00    -0.040 A 
ATOM     18  C   UNL     1      94.145  77.811  87.249  1.00  0.00     0.004 A 
ATOM     19  C   UNL     1      92.288  79.136  88.046  1.00  0.00     0.004 A 
ATOM     20  C   UNL     1      93.291  77.140  86.373  1.00  0.00     0.000 A 
ATOM     21  C   UNL     1      91.435  78.465  87.169  1.00  0.00     0.000 A 
ATOM     22  C   UNL     1      91.936  77.468  86.334  1.00  0.00     0.000 A 
ENDBRANCH  16  17
ENDBRANCH   7  16
BRANCH  15  23
ATOM     23  C   UNL     1      92.623  83.431  88.203  1.00  0.00    -0.046 C 
ATOM     24  C   UNL     1      92.256  84.752  88.812  1.00  0.00     0.042 C 
ATOM     25  C   UNL     1      91.723  82.672  87.561  1.00  0.00     0.010 C 
ENDBRANCH  15  23
ENDBRANCH   3   4
BRANCH   2  26
ATOM     26  C   UNL     1      99.194  82.782  85.755  1.00  0.00     0.078 C 
BRANCH  26  27
ATOM     27  C   UNL     1      99.084  83.276  87.197  1.00  0.00     0.140 C 
ATOM     28  C   UNL     1      98.355  82.266  88.106  1.00  0.00     0.086 CG0
ATOM     29  C   UNL     1     100.434  83.404  87.870  1.00  0.00     0.190 C 
ATOM     30  C   UNL     1      99.224  82.206  89.331  1.00  0.00    -0.010 C 
ATOM     31  G   UNL     1      96.821  82.472  88.268  1.00  0.00     0.000 G0
ATOM     32  O   UNL     1     101.411  83.965  87.396  1.00  0.00    -0.291 OA
ATOM     33  C   UNL     1     100.411  82.812  89.221  1.00  0.00    -0.008 C 
ATOM     34  C   UNL     1     101.535  82.883  90.177  1.00  0.00     0.048 C 
BRANCH  27  35
ATOM     35  O   UNL     1      98.550  84.588  87.256  1.00  0.00    -0.381 OA
ATOM     36  H   UNL     1      98.442  84.834  88.190  1.00  0.00     0.212 HD
ENDBRANCH  27  35
ENDBRANCH  26  27
ENDBRANCH   2  26
ENDBRANCH   1   2
BRANCH   1  37
ATOM     37  O   UNL     1      99.230  82.146  83.130  1.00  0.00    -0.461 OA
BRANCH  37  38
ATOM     38  C   UNL     1      99.684  81.568  81.967  1.00  0.00     0.310 C 
ATOM     39  O   UNL     1      99.600  80.379  81.694  1.00  0.00    -0.252 OA
BRANCH  38  40
ATOM     40  C   UNL     1     100.298  82.629  81.085  1.00  0.00     0.158 C 
BRANCH  40  41
ATOM     41  C   UNL     1      99.435  82.980  79.900  1.00  0.00    -0.037 A 
ATOM     42  C   UNL     1     100.000  83.070  78.628  1.00  0.00     0.008 A 
ATOM     43  C   UNL     1      98.072  83.216  80.076  1.00  0.00     0.008 A 
ATOM     44  C   UNL     1      99.201  83.397  77.532  1.00  0.00     0.046 A 
ATOM     45  C   UNL     1      97.273  83.542  78.979  1.00  0.00     0.046 A 
ATOM     46  C   UNL     1      97.837  83.633  77.708  1.00  0.00     0.115 A 
BRANCH  46  47
ATOM     47  O   UNL     1      97.059  83.951  76.638  1.00  0.00    -0.508 OA
ATOM     48  H   UNL     1      96.957  84.918  76.599  1.00  0.00     0.293 HD
ENDBRANCH  46  47
ENDBRANCH  40  41
ENDBRANCH  38  40
ENDBRANCH  37  38
ENDBRANCH   1  37
TORSDOF 10
ENDMDL
MODEL 7
REMARK VINA RESULT:    -6.563     21.507     26.120
REMARK INTER + INTRA:         -12.333
REMARK INTER:                 -12.084
REMARK INTRA:                  -0.249
REMARK UNBOUND:                -1.166
REMARK SMILES C=C(C)[C@]12C[C@@H](C)[C@@]34O[C@](Cc5ccccc5)(O[C@@H]1[C@@H]3C=C(COC(=O)Cc1ccc(O)cc1)C[C@]1(O)C(=O)C(C)=C[C@@H]41)O2
REMARK SMILES IDX 23 1 22 2 21 3 20 4 9 5 8 6 10 7 6 8 18 10 44 11 19 12 5 13
REMARK SMILES IDX 7 14 4 15 11 16 12 17 13 18 17 19 14 20 16 21 15 22 2 23
REMARK SMILES IDX 3 24 1 25 35 26 36 27 43 28 38 29 42 30 39 32 40 33 41 34
REMARK SMILES IDX 37 35 24 37 25 38 26 39 27 40 28 41 29 42 34 43 30 44 33 45
REMARK SMILES IDX 31 46 32 47
REMARK H PARENT 37 36 32 48
REMARK Flexibility Score: 90.00
ROOT
ATOM      1  C   UNL     1      70.700  83.805  68.375  1.00  0.00     0.264 C 
ENDROOT
BRANCH   1   2
ATOM      2  C   UNL     1      71.900  84.245  67.569  1.00  0.00    -0.033 C 
ATOM      3  C   UNL     1      72.303  85.531  67.634  1.00  0.00    -0.015 C 
BRANCH   3   4
ATOM      4  C   UNL     1      73.417  86.234  66.875  1.00  0.00     0.078 C 
ATOM      5  O   UNL     1      75.454  86.069  68.267  1.00  0.00    -0.319 OA
ATOM      6  C   UNL     1      74.877  85.660  66.988  1.00  0.00     0.095 CG0
ATOM      7  C   UNL     1      75.201  87.435  68.647  1.00  0.00     0.289 C 
ATOM      8  C   UNL     1      75.729  86.283  65.806  1.00  0.00     0.023 C 
ATOM      9  G   UNL     1      74.857  84.105  67.050  1.00  0.00     0.000 G0
ATOM     10  O   UNL     1      73.803  87.706  68.706  1.00  0.00    -0.320 OA
ATOM     11  O   UNL     1      75.735  88.367  67.709  1.00  0.00    -0.313 OA
ATOM     12  C   UNL     1      73.491  87.720  67.305  1.00  0.00     0.170 C 
ATOM     13  C   UNL     1      75.263  87.731  65.465  1.00  0.00     0.049 C 
ATOM     14  C   UNL     1      77.254  86.275  66.015  1.00  0.00     0.011 C 
ATOM     15  C   UNL     1      74.711  88.452  66.696  1.00  0.00     0.122 C 
BRANCH   7  16
ATOM     16  C   UNL     1      75.828  87.673  70.007  1.00  0.00     0.135 C 
BRANCH  16  17
ATOM     17  C   UNL     1      75.067  88.699  70.810  1.00  0.00    -0.040 A 
ATOM     18  C   UNL     1      75.483  90.030  70.815  1.00  0.00     0.004 A 
ATOM     19  C   UNL     1      73.947  88.315  71.546  1.00  0.00     0.004 A 
ATOM     20  C   UNL     1      74.778  90.978  71.557  1.00  0.00     0.000 A 
ATOM     21  C   UNL     1      73.242  89.263  72.289  1.00  0.00     0.000 A 
ATOM     22  C   UNL     1      73.658  90.594  72.294  1.00  0.00     0.000 A 
ENDBRANCH  16  17
ENDBRANCH   7  16
BRANCH  15  23
ATOM     23  C   UNL     1      74.427  89.896  66.436  1.00  0.00    -0.046 C 
ATOM     24  C   UNL     1      73.800  90.219  65.112  1.00  0.00     0.042 C 
ATOM     25  C   UNL     1      74.716  90.849  67.334  1.00  0.00     0.010 C 
ENDBRANCH  15  23
ENDBRANCH   3   4
BRANCH   2  26
ATOM     26  C   UNL     1      72.520  83.120  66.762  1.00  0.00     0.078 C 
BRANCH  26  27
ATOM     27  C   UNL     1      73.850  83.410  66.068  1.00  0.00     0.140 C 
ATOM     28  C   UNL     1      74.859  84.104  67.006  1.00  0.00     0.086 CG0
ATOM     29  C   UNL     1      74.587  82.147  65.676  1.00  0.00     0.190 C 
ATOM     30  C   UNL     1      76.135  83.345  66.771  1.00  0.00    -0.010 C 
ATOM     31  G   UNL     1      74.877  85.660  66.963  1.00  0.00     0.000 G0
ATOM     32  O   UNL     1      74.098  81.197  65.082  1.00  0.00    -0.291 OA
ATOM     33  C   UNL     1      76.011  82.226  66.051  1.00  0.00    -0.008 C 
ATOM     34  C   UNL     1      77.019  81.205  65.698  1.00  0.00     0.048 C 
BRANCH  27  35
ATOM     35  O   UNL     1      73.656  84.084  64.836  1.00  0.00    -0.381 OA
ATOM     36  H   UNL     1      73.749  83.439  64.115  1.00  0.00     0.212 HD
ENDBRANCH  27  35
ENDBRANCH  26  27
ENDBRANCH   2  26
ENDBRANCH   1   2
BRANCH   1  37
ATOM     37  O   UNL     1      69.519  84.181  67.698  1.00  0.00    -0.461 OA
BRANCH  37  38
ATOM     38  C   UNL     1      68.639  84.969  68.402  1.00  0.00     0.310 C 
ATOM     39  O   UNL     1      68.257  86.078  68.056  1.00  0.00    -0.252 OA
BRANCH  38  40
ATOM     40  C   UNL     1      68.221  84.253  69.665  1.00  0.00     0.158 C 
BRANCH  40  41
ATOM     41  C   UNL     1      66.886  83.568  69.537  1.00  0.00    -0.037 A 
ATOM     42  C   UNL     1      66.352  82.871  70.621  1.00  0.00     0.008 A 
ATOM     43  C   UNL     1      66.182  83.629  68.334  1.00  0.00     0.008 A 
ATOM     44  C   UNL     1      65.116  82.236  70.503  1.00  0.00     0.046 A 
ATOM     45  C   UNL     1      64.945  82.994  68.215  1.00  0.00     0.046 A 
ATOM     46  C   UNL     1      64.413  82.297  69.299  1.00  0.00     0.115 A 
BRANCH  46  47
ATOM     47  O   UNL     1      63.207  81.677  69.184  1.00  0.00    -0.508 OA
ATOM     48  H   UNL     1      63.223  81.100  68.400  1.00  0.00     0.293 HD
ENDBRANCH  46  47
ENDBRANCH  40  41
ENDBRANCH  38  40
ENDBRANCH  37  38
ENDBRANCH   1  37
TORSDOF 10
ENDMDL
MODEL 8
REMARK VINA RESULT:    -6.519     22.866     27.480
REMARK INTER + INTRA:         -12.257
REMARK INTER:                 -12.045
REMARK INTRA:                  -0.212
REMARK UNBOUND:                -1.166
REMARK SMILES C=C(C)[C@]12C[C@@H](C)[C@@]34O[C@](Cc5ccccc5)(O[C@@H]1[C@@H]3C=C(COC(=O)Cc1ccc(O)cc1)C[C@]1(O)C(=O)C(C)=C[C@@H]41)O2
REMARK SMILES IDX 23 1 22 2 21 3 20 4 9 5 8 6 10 7 6 8 18 10 44 11 19 12 5 13
REMARK SMILES IDX 7 14 4 15 11 16 12 17 13 18 17 19 14 20 16 21 15 22 2 23
REMARK SMILES IDX 3 24 1 25 35 26 36 27 43 28 38 29 42 30 39 32 40 33 41 34
REMARK SMILES IDX 37 35 24 37 25 38 26 39 27 40 28 41 29 42 34 43 30 44 33 45
REMARK SMILES IDX 31 46 32 47
REMARK H PARENT 37 36 32 48
REMARK Flexibility Score: 90.00
ROOT
ATOM      1  C   UNL     1      68.953  83.490  68.654  1.00  0.00     0.264 C 
ENDROOT
BRANCH   1   2
ATOM      2  C   UNL     1      70.065  83.987  67.760  1.00  0.00    -0.033 C 
ATOM      3  C   UNL     1      70.439  85.281  67.830  1.00  0.00    -0.015 C 
BRANCH   3   4
ATOM      4  C   UNL     1      71.463  86.037  66.997  1.00  0.00     0.078 C 
ATOM      5  O   UNL     1      73.616  85.900  68.206  1.00  0.00    -0.319 OA
ATOM      6  C   UNL     1      72.943  85.506  66.970  1.00  0.00     0.095 CG0
ATOM      7  C   UNL     1      73.358  87.248  68.644  1.00  0.00     0.289 C 
ATOM      8  C   UNL     1      73.673  86.184  65.738  1.00  0.00     0.023 C 
ATOM      9  G   UNL     1      72.974  83.950  66.991  1.00  0.00     0.000 G0
ATOM     10  O   UNL     1      71.964  87.474  68.830  1.00  0.00    -0.320 OA
ATOM     11  O   UNL     1      73.782  88.218  67.690  1.00  0.00    -0.313 OA
ATOM     12  C   UNL     1      71.531  87.513  67.460  1.00  0.00     0.170 C 
ATOM     13  C   UNL     1      73.138  87.625  65.478  1.00  0.00     0.049 C 
ATOM     14  C   UNL     1      75.209  86.217  65.815  1.00  0.00     0.011 C 
ATOM     15  C   UNL     1      72.674  88.298  66.771  1.00  0.00     0.122 C 
BRANCH   7  16
ATOM     16  C   UNL     1      74.093  87.471  69.952  1.00  0.00     0.135 C 
BRANCH  16  17
ATOM     17  C   UNL     1      75.381  86.689  70.018  1.00  0.00    -0.040 A 
ATOM     18  C   UNL     1      75.374  85.371  70.473  1.00  0.00     0.004 A 
ATOM     19  C   UNL     1      76.578  87.285  69.624  1.00  0.00     0.004 A 
ATOM     20  C   UNL     1      76.566  84.647  70.534  1.00  0.00     0.000 A 
ATOM     21  C   UNL     1      77.770  86.561  69.685  1.00  0.00     0.000 A 
ATOM     22  C   UNL     1      77.763  85.244  70.140  1.00  0.00     0.000 A 
ENDBRANCH  16  17
ENDBRANCH   7  16
BRANCH  15  23
ATOM     23  C   UNL     1      72.327  89.738  66.575  1.00  0.00    -0.046 C 
ATOM     24  C   UNL     1      71.628  90.083  65.294  1.00  0.00     0.042 C 
ATOM     25  C   UNL     1      72.624  90.670  67.493  1.00  0.00     0.010 C 
ENDBRANCH  15  23
ENDBRANCH   3   4
BRANCH   2  26
ATOM     26  C   UNL     1      70.641  82.903  66.867  1.00  0.00     0.078 C 
BRANCH  26  27
ATOM     27  C   UNL     1      71.919  83.237  66.100  1.00  0.00     0.140 C 
ATOM     28  C   UNL     1      72.959  83.956  66.984  1.00  0.00     0.086 CG0
ATOM     29  C   UNL     1      72.670  81.998  65.658  1.00  0.00     0.190 C 
ATOM     30  C   UNL     1      74.242  83.238  66.671  1.00  0.00    -0.010 C 
ATOM     31  G   UNL     1      72.928  85.512  66.951  1.00  0.00     0.000 G0
ATOM     32  O   UNL     1      72.176  81.037  65.087  1.00  0.00    -0.291 OA
ATOM     33  C   UNL     1      74.110  82.119  65.952  1.00  0.00    -0.008 C 
ATOM     34  C   UNL     1      75.127  81.131  65.535  1.00  0.00     0.048 C 
BRANCH  27  35
ATOM     35  O   UNL     1      71.634  83.911  64.886  1.00  0.00    -0.381 OA
ATOM     36  H   UNL     1      72.303  83.655  64.229  1.00  0.00     0.212 HD
ENDBRANCH  27  35
ENDBRANCH  26  27
ENDBRANCH   2  26
ENDBRANCH   1   2
BRANCH   1  37
ATOM     37  O   UNL     1      67.717  83.973  68.173  1.00  0.00    -0.461 OA
BRANCH  37  38
ATOM     38  C   UNL     1      66.672  83.968  69.069  1.00  0.00     0.310 C 
ATOM     39  O   UNL     1      65.624  84.583  68.929  1.00  0.00    -0.252 OA
BRANCH  38  40
ATOM     40  C   UNL     1      67.022  83.088  70.245  1.00  0.00     0.158 C 
BRANCH  40  41
ATOM     41  C   UNL     1      65.852  82.841  71.162  1.00  0.00    -0.037 A 
ATOM     42  C   UNL     1      65.456  83.825  72.068  1.00  0.00     0.008 A 
ATOM     43  C   UNL     1      65.165  81.629  71.106  1.00  0.00     0.008 A 
ATOM     44  C   UNL     1      64.374  83.596  72.918  1.00  0.00     0.046 A 
ATOM     45  C   UNL     1      64.082  81.400  71.955  1.00  0.00     0.046 A 
ATOM     46  C   UNL     1      63.687  82.383  72.861  1.00  0.00     0.115 A 
BRANCH  46  47
ATOM     47  O   UNL     1      62.632  82.160  73.691  1.00  0.00    -0.508 OA
ATOM     48  H   UNL     1      62.575  81.207  73.881  1.00  0.00     0.293 HD
ENDBRANCH  46  47
ENDBRANCH  40  41
ENDBRANCH  38  40
ENDBRANCH  37  38
ENDBRANCH   1  37
TORSDOF 10
ENDMDL
MODEL 9
REMARK VINA RESULT:    -6.506     30.371     34.111
REMARK INTER + INTRA:         -12.236
REMARK INTER:                 -10.844
REMARK INTRA:                  -1.392
REMARK UNBOUND:                -1.166
REMARK SMILES C=C(C)[C@]12C[C@@H](C)[C@@]34O[C@](Cc5ccccc5)(O[C@@H]1[C@@H]3C=C(COC(=O)Cc1ccc(O)cc1)C[C@]1(O)C(=O)C(C)=C[C@@H]41)O2
REMARK SMILES IDX 23 1 22 2 21 3 20 4 9 5 8 6 10 7 6 8 18 10 44 11 19 12 5 13
REMARK SMILES IDX 7 14 4 15 11 16 12 17 13 18 17 19 14 20 16 21 15 22 2 23
REMARK SMILES IDX 3 24 1 25 35 26 36 27 43 28 38 29 42 30 39 32 40 33 41 34
REMARK SMILES IDX 37 35 24 37 25 38 26 39 27 40 28 41 29 42 34 43 30 44 33 45
REMARK SMILES IDX 31 46 32 47
REMARK H PARENT 37 36 32 48
REMARK Flexibility Score: 90.00
ROOT
ATOM      1  C   UNL     1      62.561  84.410  78.645  1.00  0.00     0.264 C 
ENDROOT
BRANCH   1   2
ATOM      2  C   UNL     1      63.076  85.161  77.439  1.00  0.00    -0.033 C 
ATOM      3  C   UNL     1      63.328  84.485  76.299  1.00  0.00    -0.015 C 
BRANCH   3   4
ATOM      4  C   UNL     1      63.916  84.986  74.989  1.00  0.00     0.078 C 
ATOM      5  O   UNL     1      62.012  85.616  73.541  1.00  0.00    -0.319 OA
ATOM      6  C   UNL     1      63.179  86.155  74.238  1.00  0.00     0.095 CG0
ATOM      7  C   UNL     1      62.226  84.364  72.861  1.00  0.00     0.289 C 
ATOM      8  C   UNL     1      64.191  86.756  73.177  1.00  0.00     0.023 C 
ATOM      9  G   UNL     1      62.587  87.178  75.251  1.00  0.00     0.000 G0
ATOM     10  O   UNL     1      62.685  83.359  73.760  1.00  0.00    -0.320 OA
ATOM     11  O   UNL     1      63.224  84.461  71.848  1.00  0.00    -0.313 OA
ATOM     12  C   UNL     1      64.029  83.815  73.982  1.00  0.00     0.170 C 
ATOM     13  C   UNL     1      65.138  85.657  72.604  1.00  0.00     0.049 C 
ATOM     14  C   UNL     1      63.547  87.531  72.015  1.00  0.00     0.011 C 
ATOM     15  C   UNL     1      64.460  84.286  72.572  1.00  0.00     0.122 C 
BRANCH   7  16
ATOM     16  C   UNL     1      60.914  83.934  72.236  1.00  0.00     0.135 C 
BRANCH  16  17
ATOM     17  C   UNL     1      60.045  85.113  71.874  1.00  0.00    -0.040 A 
ATOM     18  C   UNL     1      59.943  85.522  70.545  1.00  0.00     0.004 A 
ATOM     19  C   UNL     1      59.344  85.792  72.870  1.00  0.00     0.004 A 
ATOM     20  C   UNL     1      59.139  86.613  70.211  1.00  0.00     0.000 A 
ATOM     21  C   UNL     1      58.540  86.882  72.535  1.00  0.00     0.000 A 
ATOM     22  C   UNL     1      58.438  87.292  71.206  1.00  0.00     0.000 A 
ENDBRANCH  16  17
ENDBRANCH   7  16
BRANCH  15  23
ATOM     23  C   UNL     1      65.279  83.258  71.862  1.00  0.00    -0.046 C 
ATOM     24  C   UNL     1      66.685  83.653  71.519  1.00  0.00     0.042 C 
ATOM     25  C   UNL     1      64.786  82.051  71.549  1.00  0.00     0.010 C 
ENDBRANCH  15  23
ENDBRANCH   3   4
BRANCH   2  26
ATOM     26  C   UNL     1      63.240  86.649  77.689  1.00  0.00     0.078 C 
BRANCH  26  27
ATOM     27  C   UNL     1      63.482  87.538  76.472  1.00  0.00     0.140 C 
ATOM     28  C   UNL     1      62.585  87.152  75.278  1.00  0.00     0.086 CG0
ATOM     29  C   UNL     1      63.091  88.980  76.720  1.00  0.00     0.190 C 
ATOM     30  C   UNL     1      62.059  88.474  74.793  1.00  0.00    -0.010 C 
ATOM     31  G   UNL     1      63.197  86.152  74.255  1.00  0.00     0.000 G0
ATOM     32  O   UNL     1      63.416  89.645  77.692  1.00  0.00    -0.291 OA
ATOM     33  C   UNL     1      62.303  89.516  75.594  1.00  0.00    -0.008 C 
ATOM     34  C   UNL     1      61.874  90.925  75.479  1.00  0.00     0.048 C 
BRANCH  27  35
ATOM     35  O   UNL     1      64.861  87.613  76.150  1.00  0.00    -0.381 OA
ATOM     36  H   UNL     1      65.317  86.869  76.580  1.00  0.00     0.212 HD
ENDBRANCH  27  35
ENDBRANCH  26  27
ENDBRANCH   2  26
ENDBRANCH   1   2
BRANCH   1  37
ATOM     37  O   UNL     1      63.156  84.936  79.812  1.00  0.00    -0.461 OA
BRANCH  37  38
ATOM     38  C   UNL     1      63.593  84.017  80.738  1.00  0.00     0.310 C 
ATOM     39  O   UNL     1      62.905  83.135  81.231  1.00  0.00    -0.252 OA
BRANCH  38  40
ATOM     40  C   UNL     1      65.050  84.268  81.047  1.00  0.00     0.158 C 
BRANCH  40  41
ATOM     41  C   UNL     1      65.784  84.939  79.916  1.00  0.00    -0.037 A 
ATOM     42  C   UNL     1      66.210  84.190  78.819  1.00  0.00     0.008 A 
ATOM     43  C   UNL     1      66.038  86.309  79.964  1.00  0.00     0.008 A 
ATOM     44  C   UNL     1      66.890  84.811  77.771  1.00  0.00     0.046 A 
ATOM     45  C   UNL     1      66.719  86.931  78.916  1.00  0.00     0.046 A 
ATOM     46  C   UNL     1      67.145  86.182  77.820  1.00  0.00     0.115 A 
BRANCH  46  47
ATOM     47  O   UNL     1      67.809  86.787  76.799  1.00  0.00    -0.508 OA
ATOM     48  H   UNL     1      68.641  86.310  76.637  1.00  0.00     0.293 HD
ENDBRANCH  46  47
ENDBRANCH  40  41
ENDBRANCH  38  40
ENDBRANCH  37  38
ENDBRANCH   1  37
TORSDOF 10
ENDMDL
MODEL 10
REMARK VINA RESULT:    -6.341     29.984     32.553
REMARK INTER + INTRA:         -11.955
REMARK INTER:                  -9.702
REMARK INTRA:                  -2.252
REMARK UNBOUND:                -1.166
REMARK SMILES C=C(C)[C@]12C[C@@H](C)[C@@]34O[C@](Cc5ccccc5)(O[C@@H]1[C@@H]3C=C(COC(=O)Cc1ccc(O)cc1)C[C@]1(O)C(=O)C(C)=C[C@@H]41)O2
REMARK SMILES IDX 23 1 22 2 21 3 20 4 9 5 8 6 10 7 6 8 18 10 44 11 19 12 5 13
REMARK SMILES IDX 7 14 4 15 11 16 12 17 13 18 17 19 14 20 16 21 15 22 2 23
REMARK SMILES IDX 3 24 1 25 35 26 36 27 43 28 38 29 42 30 39 32 40 33 41 34
REMARK SMILES IDX 37 35 24 37 25 38 26 39 27 40 28 41 29 42 34 43 30 44 33 45
REMARK SMILES IDX 31 46 32 47
REMARK H PARENT 37 36 32 48
REMARK Flexibility Score: 90.00
ROOT
ATOM      1  C   UNL     1      62.063  88.130  71.381  1.00  0.00     0.264 C 
ENDROOT
BRANCH   1   2
ATOM      2  C   UNL     1      63.362  87.754  72.056  1.00  0.00    -0.033 C 
ATOM      3  C   UNL     1      63.416  87.709  73.403  1.00  0.00    -0.015 C 
BRANCH   3   4
ATOM      4  C   UNL     1      64.604  87.437  74.313  1.00  0.00     0.078 C 
ATOM      5  O   UNL     1      64.609  85.010  74.785  1.00  0.00    -0.319 OA
ATOM      6  C   UNL     1      65.377  86.078  74.148  1.00  0.00     0.095 CG0
ATOM      7  C   UNL     1      64.034  85.344  76.063  1.00  0.00     0.289 C 
ATOM      8  C   UNL     1      66.773  86.228  74.882  1.00  0.00     0.023 C 
ATOM      9  G   UNL     1      65.451  85.661  72.650  1.00  0.00     0.000 G0
ATOM     10  O   UNL     1      63.180  86.480  75.965  1.00  0.00    -0.320 OA
ATOM     11  O   UNL     1      65.023  85.687  77.030  1.00  0.00    -0.313 OA
ATOM     12  C   UNL     1      64.160  87.517  75.794  1.00  0.00     0.170 C 
ATOM     13  C   UNL     1      66.666  87.156  76.130  1.00  0.00     0.049 C 
ATOM     14  C   UNL     1      67.454  84.908  75.285  1.00  0.00     0.011 C 
ATOM     15  C   UNL     1      65.279  87.084  76.772  1.00  0.00     0.122 C 
BRANCH   7  16
ATOM     16  C   UNL     1      63.242  84.148  76.554  1.00  0.00     0.135 C 
BRANCH  16  17
ATOM     17  C   UNL     1      62.956  83.164  75.447  1.00  0.00    -0.040 A 
ATOM     18  C   UNL     1      63.945  82.272  75.035  1.00  0.00     0.004 A 
ATOM     19  C   UNL     1      61.702  83.149  74.837  1.00  0.00     0.004 A 
ATOM     20  C   UNL     1      63.680  81.361  74.011  1.00  0.00     0.000 A 
ATOM     21  C   UNL     1      61.437  82.238  73.813  1.00  0.00     0.000 A 
ATOM     22  C   UNL     1      62.426  81.345  73.400  1.00  0.00     0.000 A 
ENDBRANCH  16  17
ENDBRANCH   7  16
BRANCH  15  23
ATOM     23  C   UNL     1      65.208  87.822  78.069  1.00  0.00    -0.046 C 
ATOM     24  C   UNL     1      66.088  87.309  79.171  1.00  0.00     0.042 C 
ATOM     25  C   UNL     1      64.404  88.881  78.240  1.00  0.00     0.010 C 
ENDBRANCH  15  23
ENDBRANCH   3   4
BRANCH   2  26
ATOM     26  C   UNL     1      64.480  87.458  71.073  1.00  0.00     0.078 C 
BRANCH  26  27
ATOM     27  C   UNL     1      65.744  86.807  71.630  1.00  0.00     0.140 C 
ATOM     28  C   UNL     1      65.427  85.677  72.632  1.00  0.00     0.086 CG0
ATOM     29  C   UNL     1      66.541  86.082  70.566  1.00  0.00     0.190 C 
ATOM     30  C   UNL     1      66.339  84.562  72.203  1.00  0.00    -0.010 C 
ATOM     31  G   UNL     1      65.375  86.087  74.133  1.00  0.00     0.000 G0
ATOM     32  O   UNL     1      66.852  86.544  69.478  1.00  0.00    -0.291 OA
ATOM     33  C   UNL     1      66.957  84.747  71.033  1.00  0.00    -0.008 C 
ATOM     34  C   UNL     1      67.847  83.843  70.274  1.00  0.00     0.048 C 
BRANCH  27  35
ATOM     35  O   UNL     1      66.650  87.777  72.129  1.00  0.00    -0.381 OA
ATOM     36  H   UNL     1      67.115  88.178  71.376  1.00  0.00     0.212 HD
ENDBRANCH  27  35
ENDBRANCH  26  27
ENDBRANCH   2  26
ENDBRANCH   1   2
BRANCH   1  37
ATOM     37  O   UNL     1      61.068  87.191  71.728  1.00  0.00    -0.461 OA
BRANCH  37  38
ATOM     38  C   UNL     1      60.948  86.099  70.900  1.00  0.00     0.310 C 
ATOM     39  O   UNL     1      60.308  86.075  69.858  1.00  0.00    -0.252 OA
BRANCH  38  40
ATOM     40  C   UNL     1      61.727  84.941  71.477  1.00  0.00     0.158 C 
BRANCH  40  41
ATOM     41  C   UNL     1      62.649  84.296  70.475  1.00  0.00    -0.037 A 
ATOM     42  C   UNL     1      63.145  85.039  69.404  1.00  0.00     0.008 A 
ATOM     43  C   UNL     1      63.007  82.956  70.617  1.00  0.00     0.008 A 
ATOM     44  C   UNL     1      63.998  84.442  68.475  1.00  0.00     0.046 A 
ATOM     45  C   UNL     1      63.860  82.358  69.690  1.00  0.00     0.046 A 
ATOM     46  C   UNL     1      64.356  83.100  68.619  1.00  0.00     0.115 A 
BRANCH  46  47
ATOM     47  O   UNL     1      65.187  82.518  67.713  1.00  0.00    -0.508 OA
ATOM     48  H   UNL     1      65.598  81.735  68.120  1.00  0.00     0.293 HD
ENDBRANCH  46  47
ENDBRANCH  40  41
ENDBRANCH  38  40
ENDBRANCH  37  38
ENDBRANCH   1  37
TORSDOF 10
ENDMDL
