MODEL 1
REMARK VINA RESULT:    -5.763      0.000      0.000
REMARK INTER + INTRA:          -9.986
REMARK INTER:                  -8.963
REMARK INTRA:                  -1.022
REMARK UNBOUND:                -1.022
REMARK SMILES COc1cc(CNC(=O)CCCCCC(C)C)ccc1O
REMARK SMILES IDX 10 1 8 2 7 3 9 5 6 6 5 7 3 8 20 9 4 10 19 11 18 12 2 13 1 14
REMARK SMILES IDX 21 15 11 17 12 18 13 19 14 20 15 21 16 22 17 23
REMARK H PARENT 7 4 21 16
REMARK Flexibility Score: inf
ROOT
ATOM      1  C   UNL     1      97.538  82.083  77.412  1.00  0.00     0.100 C 
ENDROOT
BRANCH   1   2
ATOM      2  C   UNL     1      97.720  81.167  78.557  1.00  0.00     0.220 C 
ATOM      3  N   UNL     1      98.008  81.681  79.786  1.00  0.00    -0.352 N 
ATOM      4  H   UNL     1      98.209  82.671  79.797  1.00  0.00     0.163 HD
ATOM      5  O   UNL     1      97.564  79.934  78.381  1.00  0.00    -0.275 OA
BRANCH   3   6
ATOM      6  C   UNL     1      98.038  80.934  81.003  1.00  0.00     0.151 C 
BRANCH   6   7
ATOM      7  C   UNL     1      97.067  81.428  82.016  1.00  0.00    -0.025 A 
ATOM      8  C   UNL     1      95.704  81.047  84.027  1.00  0.00     0.160 A 
ATOM      9  C   UNL     1      95.270  82.389  83.985  1.00  0.00     0.157 A 
ATOM     10  C   UNL     1      96.584  80.570  83.032  1.00  0.00     0.056 A 
ATOM     11  C   UNL     1      95.723  83.244  82.964  1.00  0.00     0.050 A 
ATOM     12  C   UNL     1      96.619  82.770  81.990  1.00  0.00     0.009 A 
BRANCH   8  13
ATOM     13  O   UNL     1      95.259  80.193  85.002  1.00  0.00    -0.493 OA
ATOM     14  C   UNL     1      94.786  78.929  84.496  1.00  0.00     0.278 C 
ENDBRANCH   8  13
BRANCH   9  15
ATOM     15  O   UNL     1      94.422  82.857  84.935  1.00  0.00    -0.504 OA
ATOM     16  H   UNL     1      93.576  83.067  84.534  1.00  0.00     0.293 HD
ENDBRANCH   9  15
ENDBRANCH   6   7
ENDBRANCH   3   6
ENDBRANCH   1   2
BRANCH   1  17
ATOM     17  C   UNL     1      96.062  82.475  77.136  1.00  0.00     0.010 C 
BRANCH  17  18
ATOM     18  C   UNL     1      95.947  83.485  75.962  1.00  0.00     0.001 C 
BRANCH  18  19
ATOM     19  C   UNL     1      97.003  83.258  74.848  1.00  0.00     0.000 C 
BRANCH  19  20
ATOM     20  C   UNL     1      96.578  82.138  73.854  1.00  0.00     0.003 C 
BRANCH  20  21
ATOM     21  C   UNL     1      97.616  80.983  73.679  1.00  0.00    -0.017 C 
ATOM     22  C   UNL     1      97.215  79.742  74.531  1.00  0.00     0.007 C 
ATOM     23  C   UNL     1      99.070  81.419  74.022  1.00  0.00     0.007 C 
ENDBRANCH  20  21
ENDBRANCH  19  20
ENDBRANCH  18  19
ENDBRANCH  17  18
ENDBRANCH   1  17
TORSDOF 10
ENDMDL
MODEL 2
REMARK VINA RESULT:    -5.464      1.010      2.200
REMARK INTER + INTRA:          -9.521
REMARK INTER:                  -8.724
REMARK INTRA:                  -0.797
REMARK UNBOUND:                -1.022
REMARK SMILES COc1cc(CNC(=O)CCCCCC(C)C)ccc1O
REMARK SMILES IDX 10 1 8 2 7 3 9 5 6 6 5 7 3 8 20 9 4 10 19 11 18 12 2 13 1 14
REMARK SMILES IDX 21 15 11 17 12 18 13 19 14 20 15 21 16 22 17 23
REMARK H PARENT 7 4 21 16
REMARK Flexibility Score: inf
ROOT
ATOM      1  C   UNL     1      97.757  82.060  77.153  1.00  0.00     0.100 C 
ENDROOT
BRANCH   1   2
ATOM      2  C   UNL     1      98.102  81.036  78.162  1.00  0.00     0.220 C 
ATOM      3  N   UNL     1      98.388  81.423  79.437  1.00  0.00    -0.352 N 
ATOM      4  H   UNL     1      98.473  82.421  79.570  1.00  0.00     0.163 HD
ATOM      5  O   UNL     1      98.083  79.825  77.832  1.00  0.00    -0.275 OA
BRANCH   3   6
ATOM      6  C   UNL     1      98.566  80.539  80.544  1.00  0.00     0.151 C 
BRANCH   6   7
ATOM      7  C   UNL     1      97.502  80.671  81.575  1.00  0.00    -0.025 A 
ATOM      8  C   UNL     1      95.903  82.062  82.823  1.00  0.00     0.160 A 
ATOM      9  C   UNL     1      95.428  80.913  83.490  1.00  0.00     0.157 A 
ATOM     10  C   UNL     1      96.949  81.937  81.884  1.00  0.00     0.056 A 
ATOM     11  C   UNL     1      95.988  79.653  83.210  1.00  0.00     0.050 A 
ATOM     12  C   UNL     1      97.013  79.532  82.256  1.00  0.00     0.009 A 
BRANCH   8  13
ATOM     13  O   UNL     1      95.384  83.301  83.096  1.00  0.00    -0.493 OA
ATOM     14  C   UNL     1      96.373  84.273  83.485  1.00  0.00     0.278 C 
ENDBRANCH   8  13
BRANCH   9  15
ATOM     15  O   UNL     1      94.424  81.023  84.396  1.00  0.00    -0.504 OA
ATOM     16  H   UNL     1      94.773  80.881  85.279  1.00  0.00     0.293 HD
ENDBRANCH   9  15
ENDBRANCH   6   7
ENDBRANCH   3   6
ENDBRANCH   1   2
BRANCH   1  17
ATOM     17  C   UNL     1      96.250  82.431  77.110  1.00  0.00     0.010 C 
BRANCH  17  18
ATOM     18  C   UNL     1      95.957  83.509  76.030  1.00  0.00     0.001 C 
BRANCH  18  19
ATOM     19  C   UNL     1      96.860  83.385  74.774  1.00  0.00     0.000 C 
BRANCH  19  20
ATOM     20  C   UNL     1      96.373  82.266  73.808  1.00  0.00     0.003 C 
BRANCH  20  21
ATOM     21  C   UNL     1      97.425  81.150  73.506  1.00  0.00    -0.017 C 
ATOM     22  C   UNL     1      98.791  81.773  73.092  1.00  0.00     0.007 C 
ATOM     23  C   UNL     1      96.946  80.146  72.418  1.00  0.00     0.007 C 
ENDBRANCH  20  21
ENDBRANCH  19  20
ENDBRANCH  18  19
ENDBRANCH  17  18
ENDBRANCH   1  17
TORSDOF 10
ENDMDL
MODEL 3
REMARK VINA RESULT:    -5.341     23.865     25.885
REMARK INTER + INTRA:          -9.330
REMARK INTER:                  -8.030
REMARK INTRA:                  -1.300
REMARK UNBOUND:                -1.022
REMARK SMILES COc1cc(CNC(=O)CCCCCC(C)C)ccc1O
REMARK SMILES IDX 10 1 8 2 7 3 9 5 6 6 5 7 3 8 20 9 4 10 19 11 18 12 2 13 1 14
REMARK SMILES IDX 21 15 11 17 12 18 13 19 14 20 15 21 16 22 17 23
REMARK H PARENT 7 4 21 16
REMARK Flexibility Score: inf
ROOT
ATOM      1  C   UNL     1      74.254  85.201  68.468  1.00  0.00     0.100 C 
ENDROOT
BRANCH   1   2
ATOM      2  C   UNL     1      73.226  86.218  68.771  1.00  0.00     0.220 C 
ATOM      3  N   UNL     1      73.611  87.492  69.065  1.00  0.00    -0.352 N 
ATOM      4  H   UNL     1      74.605  87.619  69.185  1.00  0.00     0.163 HD
ATOM      5  O   UNL     1      72.014  85.896  68.710  1.00  0.00    -0.275 OA
BRANCH   3   6
ATOM      6  C   UNL     1      72.728  88.605  69.206  1.00  0.00     0.151 C 
BRANCH   6   7
ATOM      7  C   UNL     1      73.420  89.848  69.644  1.00  0.00    -0.025 A 
ATOM      8  C   UNL     1      73.421  91.954  70.913  1.00  0.00     0.160 A 
ATOM      9  C   UNL     1      74.760  92.181  70.531  1.00  0.00     0.157 A 
ATOM     10  C   UNL     1      72.753  90.799  70.452  1.00  0.00     0.056 A 
ATOM     11  C   UNL     1      75.423  91.255  69.705  1.00  0.00     0.050 A 
ATOM     12  C   UNL     1      74.761  90.095  69.269  1.00  0.00     0.009 A 
BRANCH   8  13
ATOM     13  O   UNL     1      72.750  92.853  71.701  1.00  0.00    -0.493 OA
ATOM     14  C   UNL     1      71.499  93.297  71.141  1.00  0.00     0.278 C 
ENDBRANCH   8  13
BRANCH   9  15
ATOM     15  O   UNL     1      75.410  93.289  70.967  1.00  0.00    -0.504 OA
ATOM     16  H   UNL     1      76.353  93.117  70.996  1.00  0.00     0.293 HD
ENDBRANCH   9  15
ENDBRANCH   6   7
ENDBRANCH   3   6
ENDBRANCH   1   2
BRANCH   1  17
ATOM     17  C   UNL     1      75.206  84.882  69.652  1.00  0.00     0.010 C 
BRANCH  17  18
ATOM     18  C   UNL     1      76.698  84.986  69.231  1.00  0.00     0.001 C 
BRANCH  18  19
ATOM     19  C   UNL     1      76.916  84.860  67.700  1.00  0.00     0.000 C 
BRANCH  19  20
ATOM     20  C   UNL     1      77.560  86.139  67.091  1.00  0.00     0.003 C 
BRANCH  20  21
ATOM     21  C   UNL     1      76.693  87.435  67.210  1.00  0.00    -0.017 C 
ATOM     22  C   UNL     1      75.753  87.590  65.979  1.00  0.00     0.007 C 
ATOM     23  C   UNL     1      77.550  88.721  67.392  1.00  0.00     0.007 C 
ENDBRANCH  20  21
ENDBRANCH  19  20
ENDBRANCH  18  19
ENDBRANCH  17  18
ENDBRANCH   1  17
TORSDOF 10
ENDMDL
MODEL 4
REMARK VINA RESULT:    -5.103      8.451     11.105
REMARK INTER + INTRA:          -8.959
REMARK INTER:                  -8.319
REMARK INTRA:                  -0.640
REMARK UNBOUND:                -1.022
REMARK SMILES COc1cc(CNC(=O)CCCCCC(C)C)ccc1O
REMARK SMILES IDX 10 1 8 2 7 3 9 5 6 6 5 7 3 8 20 9 4 10 19 11 18 12 2 13 1 14
REMARK SMILES IDX 21 15 11 17 12 18 13 19 14 20 15 21 16 22 17 23
REMARK H PARENT 7 4 21 16
REMARK Flexibility Score: inf
ROOT
ATOM      1  C   UNL     1      93.606  84.569  87.188  1.00  0.00     0.100 C 
ENDROOT
BRANCH   1   2
ATOM      2  C   UNL     1      93.145  83.203  86.865  1.00  0.00     0.220 C 
ATOM      3  N   UNL     1      92.507  82.974  85.682  1.00  0.00    -0.352 N 
ATOM      4  H   UNL     1      92.275  83.804  85.157  1.00  0.00     0.163 HD
ATOM      5  O   UNL     1      93.389  82.271  87.670  1.00  0.00    -0.275 OA
BRANCH   3   6
ATOM      6  C   UNL     1      92.165  81.686  85.169  1.00  0.00     0.151 C 
BRANCH   6   7
ATOM      7  C   UNL     1      90.725  81.353  85.339  1.00  0.00    -0.025 A 
ATOM      8  C   UNL     1      88.916  80.312  86.639  1.00  0.00     0.160 A 
ATOM      9  C   UNL     1      87.975  80.775  85.696  1.00  0.00     0.157 A 
ATOM     10  C   UNL     1      90.287  80.587  86.445  1.00  0.00     0.056 A 
ATOM     11  C   UNL     1      88.402  81.515  84.579  1.00  0.00     0.050 A 
ATOM     12  C   UNL     1      89.766  81.806  84.403  1.00  0.00     0.009 A 
BRANCH   8  13
ATOM     13  O   UNL     1      88.523  79.573  87.724  1.00  0.00    -0.493 OA
ATOM     14  C   UNL     1      88.774  78.161  87.589  1.00  0.00     0.278 C 
ENDBRANCH   8  13
BRANCH   9  15
ATOM     15  O   UNL     1      86.655  80.514  85.873  1.00  0.00    -0.504 OA
ATOM     16  H   UNL     1      86.369  79.860  85.231  1.00  0.00     0.293 HD
ENDBRANCH   9  15
ENDBRANCH   6   7
ENDBRANCH   3   6
ENDBRANCH   1   2
BRANCH   1  17
ATOM     17  C   UNL     1      94.938  84.972  86.500  1.00  0.00     0.010 C 
BRANCH  17  18
ATOM     18  C   UNL     1      95.889  85.711  87.482  1.00  0.00     0.001 C 
BRANCH  18  19
ATOM     19  C   UNL     1      95.144  86.426  88.640  1.00  0.00     0.000 C 
BRANCH  19  20
ATOM     20  C   UNL     1      95.911  87.682  89.146  1.00  0.00     0.003 C 
BRANCH  20  21
ATOM     21  C   UNL     1      95.003  88.852  89.649  1.00  0.00    -0.017 C 
ATOM     22  C   UNL     1      93.567  88.342  89.969  1.00  0.00     0.007 C 
ATOM     23  C   UNL     1      94.937  90.040  88.646  1.00  0.00     0.007 C 
ENDBRANCH  20  21
ENDBRANCH  19  20
ENDBRANCH  18  19
ENDBRANCH  17  18
ENDBRANCH   1  17
TORSDOF 10
ENDMDL
MODEL 5
REMARK VINA RESULT:    -5.087      4.254      9.004
REMARK INTER + INTRA:          -8.934
REMARK INTER:                  -8.044
REMARK INTRA:                  -0.890
REMARK UNBOUND:                -1.022
REMARK SMILES COc1cc(CNC(=O)CCCCCC(C)C)ccc1O
REMARK SMILES IDX 10 1 8 2 7 3 9 5 6 6 5 7 3 8 20 9 4 10 19 11 18 12 2 13 1 14
REMARK SMILES IDX 21 15 11 17 12 18 13 19 14 20 15 21 16 22 17 23
REMARK H PARENT 7 4 21 16
REMARK Flexibility Score: inf
ROOT
ATOM      1  C   UNL     1      95.947  82.631  77.300  1.00  0.00     0.100 C 
ENDROOT
BRANCH   1   2
ATOM      2  C   UNL     1      96.349  83.204  75.999  1.00  0.00     0.220 C 
ATOM      3  N   UNL     1      97.540  82.839  75.446  1.00  0.00    -0.352 N 
ATOM      4  H   UNL     1      98.136  82.288  76.047  1.00  0.00     0.163 HD
ATOM      5  O   UNL     1      95.564  83.985  75.409  1.00  0.00    -0.275 OA
BRANCH   3   6
ATOM      6  C   UNL     1      97.972  83.177  74.128  1.00  0.00     0.151 C 
BRANCH   6   7
ATOM      7  C   UNL     1      99.182  82.425  73.699  1.00  0.00    -0.025 A 
ATOM      8  C   UNL     1     100.389  81.117  72.002  1.00  0.00     0.160 A 
ATOM      9  C   UNL     1     101.511  81.050  72.855  1.00  0.00     0.157 A 
ATOM     10  C   UNL     1      99.226  81.787  72.436  1.00  0.00     0.056 A 
ATOM     11  C   UNL     1     101.470  81.659  74.123  1.00  0.00     0.050 A 
ATOM     12  C   UNL     1     100.317  82.346  74.540  1.00  0.00     0.009 A 
BRANCH   8  13
ATOM     13  O   UNL     1     100.402  80.514  70.772  1.00  0.00    -0.493 OA
ATOM     14  C   UNL     1      99.116  80.018  70.353  1.00  0.00     0.278 C 
ENDBRANCH   8  13
BRANCH   9  15
ATOM     15  O   UNL     1     102.634  80.407  72.448  1.00  0.00    -0.504 OA
ATOM     16  H   UNL     1     102.438  79.477  72.311  1.00  0.00     0.293 HD
ENDBRANCH   9  15
ENDBRANCH   6   7
ENDBRANCH   3   6
ENDBRANCH   1   2
BRANCH   1  17
ATOM     17  C   UNL     1      97.072  81.845  78.027  1.00  0.00     0.010 C 
BRANCH  17  18
ATOM     18  C   UNL     1      97.030  82.074  79.563  1.00  0.00     0.001 C 
BRANCH  18  19
ATOM     19  C   UNL     1      97.927  81.089  80.357  1.00  0.00     0.000 C 
BRANCH  19  20
ATOM     20  C   UNL     1      98.570  80.008  79.440  1.00  0.00     0.003 C 
BRANCH  20  21
ATOM     21  C   UNL     1     100.099  80.194  79.173  1.00  0.00    -0.017 C 
ATOM     22  C   UNL     1     100.457  79.813  77.706  1.00  0.00     0.007 C 
ATOM     23  C   UNL     1     100.988  79.390  80.166  1.00  0.00     0.007 C 
ENDBRANCH  20  21
ENDBRANCH  19  20
ENDBRANCH  18  19
ENDBRANCH  17  18
ENDBRANCH   1  17
TORSDOF 10
ENDMDL
MODEL 6
REMARK VINA RESULT:    -5.072      5.848      9.466
REMARK INTER + INTRA:          -8.911
REMARK INTER:                  -8.009
REMARK INTRA:                  -0.901
REMARK UNBOUND:                -1.022
REMARK SMILES COc1cc(CNC(=O)CCCCCC(C)C)ccc1O
REMARK SMILES IDX 10 1 8 2 7 3 9 5 6 6 5 7 3 8 20 9 4 10 19 11 18 12 2 13 1 14
REMARK SMILES IDX 21 15 11 17 12 18 13 19 14 20 15 21 16 22 17 23
REMARK H PARENT 7 4 21 16
REMARK Flexibility Score: inf
ROOT
ATOM      1  C   UNL     1      91.859  82.388  86.303  1.00  0.00     0.100 C 
ENDROOT
BRANCH   1   2
ATOM      2  C   UNL     1      91.762  83.342  87.428  1.00  0.00     0.220 C 
ATOM      3  N   UNL     1      92.891  83.696  88.104  1.00  0.00    -0.352 N 
ATOM      4  H   UNL     1      93.715  83.165  87.862  1.00  0.00     0.163 HD
ATOM      5  O   UNL     1      90.644  83.839  87.710  1.00  0.00    -0.275 OA
BRANCH   3   6
ATOM      6  C   UNL     1      92.969  84.728  89.088  1.00  0.00     0.151 C 
BRANCH   6   7
ATOM      7  C   UNL     1      94.020  85.739  88.792  1.00  0.00    -0.025 A 
ATOM      8  C   UNL     1      95.155  87.854  89.326  1.00  0.00     0.160 A 
ATOM      9  C   UNL     1      96.064  87.631  88.270  1.00  0.00     0.157 A 
ATOM     10  C   UNL     1      94.128  86.917  89.568  1.00  0.00     0.056 A 
ATOM     11  C   UNL     1      95.950  86.475  87.475  1.00  0.00     0.050 A 
ATOM     12  C   UNL     1      94.940  85.534  87.737  1.00  0.00     0.009 A 
BRANCH   8  13
ATOM     13  O   UNL     1      95.236  88.983  90.099  1.00  0.00    -0.493 OA
ATOM     14  C   UNL     1      94.200  89.948  89.832  1.00  0.00     0.278 C 
ENDBRANCH   8  13
BRANCH   9  15
ATOM     15  O   UNL     1      97.053  88.526  88.027  1.00  0.00    -0.504 OA
ATOM     16  H   UNL     1      97.790  88.082  87.602  1.00  0.00     0.293 HD
ENDBRANCH   9  15
ENDBRANCH   6   7
ENDBRANCH   3   6
ENDBRANCH   1   2
BRANCH   1  17
ATOM     17  C   UNL     1      93.303  81.904  85.999  1.00  0.00     0.010 C 
BRANCH  17  18
ATOM     18  C   UNL     1      93.392  81.207  84.613  1.00  0.00     0.001 C 
BRANCH  18  19
ATOM     19  C   UNL     1      94.743  80.481  84.376  1.00  0.00     0.000 C 
BRANCH  19  20
ATOM     20  C   UNL     1      95.915  81.478  84.145  1.00  0.00     0.003 C 
BRANCH  20  21
ATOM     21  C   UNL     1      95.714  82.468  82.952  1.00  0.00    -0.017 C 
ATOM     22  C   UNL     1      96.604  82.065  81.740  1.00  0.00     0.007 C 
ATOM     23  C   UNL     1      95.985  83.950  83.344  1.00  0.00     0.007 C 
ENDBRANCH  20  21
ENDBRANCH  19  20
ENDBRANCH  18  19
ENDBRANCH  17  18
ENDBRANCH   1  17
TORSDOF 10
ENDMDL
MODEL 7
REMARK VINA RESULT:    -5.006      1.735      2.722
REMARK INTER + INTRA:          -8.808
REMARK INTER:                  -8.030
REMARK INTRA:                  -0.779
REMARK UNBOUND:                -1.022
REMARK SMILES COc1cc(CNC(=O)CCCCCC(C)C)ccc1O
REMARK SMILES IDX 10 1 8 2 7 3 9 5 6 6 5 7 3 8 20 9 4 10 19 11 18 12 2 13 1 14
REMARK SMILES IDX 21 15 11 17 12 18 13 19 14 20 15 21 16 22 17 23
REMARK H PARENT 7 4 21 16
REMARK Flexibility Score: inf
ROOT
ATOM      1  C   UNL     1      99.708  79.495  78.720  1.00  0.00     0.100 C 
ENDROOT
BRANCH   1   2
ATOM      2  C   UNL     1      98.443  80.055  79.240  1.00  0.00     0.220 C 
ATOM      3  N   UNL     1      98.430  81.320  79.748  1.00  0.00    -0.352 N 
ATOM      4  H   UNL     1      99.340  81.745  79.853  1.00  0.00     0.163 HD
ATOM      5  O   UNL     1      97.396  79.367  79.164  1.00  0.00    -0.275 OA
BRANCH   3   6
ATOM      6  C   UNL     1      97.257  82.043  80.121  1.00  0.00     0.151 C 
BRANCH   6   7
ATOM      7  C   UNL     1      96.977  81.988  81.581  1.00  0.00    -0.025 A 
ATOM      8  C   UNL     1      97.425  81.037  83.804  1.00  0.00     0.160 A 
ATOM      9  C   UNL     1      96.491  81.930  84.372  1.00  0.00     0.157 A 
ATOM     10  C   UNL     1      97.648  81.059  82.411  1.00  0.00     0.056 A 
ATOM     11  C   UNL     1      95.798  82.840  83.552  1.00  0.00     0.050 A 
ATOM     12  C   UNL     1      96.043  82.873  82.169  1.00  0.00     0.009 A 
BRANCH   8  13
ATOM     13  O   UNL     1      98.096  80.130  84.582  1.00  0.00    -0.493 OA
ATOM     14  C   UNL     1      99.525  80.309  84.583  1.00  0.00     0.278 C 
ENDBRANCH   8  13
BRANCH   9  15
ATOM     15  O   UNL     1      96.268  81.915  85.710  1.00  0.00    -0.504 OA
ATOM     16  H   UNL     1      95.654  82.616  85.940  1.00  0.00     0.293 HD
ENDBRANCH   9  15
ENDBRANCH   6   7
ENDBRANCH   3   6
ENDBRANCH   1   2
BRANCH   1  17
ATOM     17  C   UNL     1     100.255  80.217  77.459  1.00  0.00     0.010 C 
BRANCH  17  18
ATOM     18  C   UNL     1      99.193  80.276  76.327  1.00  0.00     0.001 C 
BRANCH  18  19
ATOM     19  C   UNL     1      98.904  81.716  75.827  1.00  0.00     0.000 C 
BRANCH  19  20
ATOM     20  C   UNL     1      97.576  82.284  76.405  1.00  0.00     0.003 C 
BRANCH  20  21
ATOM     21  C   UNL     1      96.487  82.632  75.338  1.00  0.00    -0.017 C 
ATOM     22  C   UNL     1      97.006  82.339  73.900  1.00  0.00     0.007 C 
ATOM     23  C   UNL     1      95.991  84.104  75.438  1.00  0.00     0.007 C 
ENDBRANCH  20  21
ENDBRANCH  19  20
ENDBRANCH  18  19
ENDBRANCH  17  18
ENDBRANCH   1  17
TORSDOF 10
ENDMDL
MODEL 8
REMARK VINA RESULT:    -4.996      1.705      2.969
REMARK INTER + INTRA:          -8.794
REMARK INTER:                  -8.174
REMARK INTRA:                  -0.619
REMARK UNBOUND:                -1.022
REMARK SMILES COc1cc(CNC(=O)CCCCCC(C)C)ccc1O
REMARK SMILES IDX 10 1 8 2 7 3 9 5 6 6 5 7 3 8 20 9 4 10 19 11 18 12 2 13 1 14
REMARK SMILES IDX 21 15 11 17 12 18 13 19 14 20 15 21 16 22 17 23
REMARK H PARENT 7 4 21 16
REMARK Flexibility Score: inf
ROOT
ATOM      1  C   UNL     1      96.961  81.176  76.354  1.00  0.00     0.100 C 
ENDROOT
BRANCH   1   2
ATOM      2  C   UNL     1      97.540  81.299  77.708  1.00  0.00     0.220 C 
ATOM      3  N   UNL     1      97.773  80.173  78.441  1.00  0.00    -0.352 N 
ATOM      4  H   UNL     1      97.401  79.323  78.043  1.00  0.00     0.163 HD
ATOM      5  O   UNL     1      97.844  82.438  78.140  1.00  0.00    -0.275 OA
BRANCH   3   6
ATOM      6  C   UNL     1      98.480  80.132  79.681  1.00  0.00     0.151 C 
BRANCH   6   7
ATOM      7  C   UNL     1      97.591  80.266  80.866  1.00  0.00    -0.025 A 
ATOM      8  C   UNL     1      96.229  81.663  82.362  1.00  0.00     0.160 A 
ATOM      9  C   UNL     1      95.843  80.512  83.082  1.00  0.00     0.157 A 
ATOM     10  C   UNL     1      97.114  81.535  81.271  1.00  0.00     0.056 A 
ATOM     11  C   UNL     1      96.332  79.248  82.704  1.00  0.00     0.050 A 
ATOM     12  C   UNL     1      97.194  79.125  81.602  1.00  0.00     0.009 A 
BRANCH   8  13
ATOM     13  O   UNL     1      95.780  82.905  82.726  1.00  0.00    -0.493 OA
ATOM     14  C   UNL     1      96.771  83.711  83.391  1.00  0.00     0.278 C 
ENDBRANCH   8  13
BRANCH   9  15
ATOM     15  O   UNL     1      94.994  80.624  84.134  1.00  0.00    -0.504 OA
ATOM     16  H   UNL     1      94.673  81.527  84.192  1.00  0.00     0.293 HD
ENDBRANCH   9  15
ENDBRANCH   6   7
ENDBRANCH   3   6
ENDBRANCH   1   2
BRANCH   1  17
ATOM     17  C   UNL     1      97.208  82.408  75.441  1.00  0.00     0.010 C 
BRANCH  17  18
ATOM     18  C   UNL     1      96.730  82.146  73.986  1.00  0.00     0.001 C 
BRANCH  18  19
ATOM     19  C   UNL     1      97.823  81.515  73.083  1.00  0.00     0.000 C 
BRANCH  19  20
ATOM     20  C   UNL     1      99.260  81.870  73.563  1.00  0.00     0.003 C 
BRANCH  20  21
ATOM     21  C   UNL     1      99.986  82.967  72.719  1.00  0.00    -0.017 C 
ATOM     22  C   UNL     1     101.489  83.066  73.112  1.00  0.00     0.007 C 
ATOM     23  C   UNL     1      99.310  84.365  72.835  1.00  0.00     0.007 C 
ENDBRANCH  20  21
ENDBRANCH  19  20
ENDBRANCH  18  19
ENDBRANCH  17  18
ENDBRANCH   1  17
TORSDOF 10
ENDMDL
MODEL 9
REMARK VINA RESULT:    -4.939      7.994     11.305
REMARK INTER + INTRA:          -8.704
REMARK INTER:                  -8.255
REMARK INTRA:                  -0.449
REMARK UNBOUND:                -1.022
REMARK SMILES COc1cc(CNC(=O)CCCCCC(C)C)ccc1O
REMARK SMILES IDX 10 1 8 2 7 3 9 5 6 6 5 7 3 8 20 9 4 10 19 11 18 12 2 13 1 14
REMARK SMILES IDX 21 15 11 17 12 18 13 19 14 20 15 21 16 22 17 23
REMARK H PARENT 7 4 21 16
REMARK Flexibility Score: inf
ROOT
ATOM      1  C   UNL     1      92.861  84.025  87.310  1.00  0.00     0.100 C 
ENDROOT
BRANCH   1   2
ATOM      2  C   UNL     1      93.156  82.988  86.299  1.00  0.00     0.220 C 
ATOM      3  N   UNL     1      92.130  82.288  85.738  1.00  0.00    -0.352 N 
ATOM      4  H   UNL     1      91.227  82.445  86.162  1.00  0.00     0.163 HD
ATOM      5  O   UNL     1      94.347  82.803  85.947  1.00  0.00    -0.275 OA
BRANCH   3   6
ATOM      6  C   UNL     1      92.255  81.389  84.636  1.00  0.00     0.151 C 
BRANCH   6   7
ATOM      7  C   UNL     1      91.137  80.411  84.551  1.00  0.00    -0.025 A 
ATOM      8  C   UNL     1      88.751  79.924  84.213  1.00  0.00     0.160 A 
ATOM      9  C   UNL     1      89.019  78.543  84.322  1.00  0.00     0.157 A 
ATOM     10  C   UNL     1      89.808  80.849  84.346  1.00  0.00     0.056 A 
ATOM     11  C   UNL     1      90.334  78.097  84.552  1.00  0.00     0.050 A 
ATOM     12  C   UNL     1      91.386  79.022  84.660  1.00  0.00     0.009 A 
BRANCH   8  13
ATOM     13  O   UNL     1      87.475  80.380  84.009  1.00  0.00    -0.493 OA
ATOM     14  C   UNL     1      86.968  81.191  85.085  1.00  0.00     0.278 C 
ENDBRANCH   8  13
BRANCH   9  15
ATOM     15  O   UNL     1      88.010  77.645  84.197  1.00  0.00    -0.504 OA
ATOM     16  H   UNL     1      87.832  77.243  85.050  1.00  0.00     0.293 HD
ENDBRANCH   9  15
ENDBRANCH   6   7
ENDBRANCH   3   6
ENDBRANCH   1   2
BRANCH   1  17
ATOM     17  C   UNL     1      94.030  85.012  87.573  1.00  0.00     0.010 C 
BRANCH  17  18
ATOM     18  C   UNL     1      94.212  85.292  89.090  1.00  0.00     0.001 C 
BRANCH  18  19
ATOM     19  C   UNL     1      94.029  86.786  89.467  1.00  0.00     0.000 C 
BRANCH  19  20
ATOM     20  C   UNL     1      95.114  87.694  88.819  1.00  0.00     0.003 C 
BRANCH  20  21
ATOM     21  C   UNL     1      94.937  89.225  89.082  1.00  0.00    -0.017 C 
ATOM     22  C   UNL     1      96.182  89.810  89.811  1.00  0.00     0.007 C 
ATOM     23  C   UNL     1      93.645  89.555  89.883  1.00  0.00     0.007 C 
ENDBRANCH  20  21
ENDBRANCH  19  20
ENDBRANCH  18  19
ENDBRANCH  17  18
ENDBRANCH   1  17
TORSDOF 10
ENDMDL
MODEL 10
REMARK VINA RESULT:    -4.813     35.804     37.251
REMARK INTER + INTRA:          -8.508
REMARK INTER:                  -7.244
REMARK INTRA:                  -1.264
REMARK UNBOUND:                -1.022
REMARK SMILES COc1cc(CNC(=O)CCCCCC(C)C)ccc1O
REMARK SMILES IDX 10 1 8 2 7 3 9 5 6 6 5 7 3 8 20 9 4 10 19 11 18 12 2 13 1 14
REMARK SMILES IDX 21 15 11 17 12 18 13 19 14 20 15 21 16 22 17 23
REMARK H PARENT 7 4 21 16
REMARK Flexibility Score: inf
ROOT
ATOM      1  C   UNL     1      64.080  82.925  69.981  1.00  0.00     0.100 C 
ENDROOT
BRANCH   1   2
ATOM      2  C   UNL     1      62.672  83.092  69.564  1.00  0.00     0.220 C 
ATOM      3  N   UNL     1      61.988  84.205  69.950  1.00  0.00    -0.352 N 
ATOM      4  H   UNL     1      62.468  84.788  70.621  1.00  0.00     0.163 HD
ATOM      5  O   UNL     1      62.149  82.222  68.825  1.00  0.00    -0.275 OA
BRANCH   3   6
ATOM      6  C   UNL     1      60.691  84.576  69.481  1.00  0.00     0.151 C 
BRANCH   6   7
ATOM      7  C   UNL     1      59.796  85.068  70.563  1.00  0.00    -0.025 A 
ATOM      8  C   UNL     1      57.729  86.194  71.274  1.00  0.00     0.160 A 
ATOM      9  C   UNL     1      58.060  85.944  72.623  1.00  0.00     0.157 A 
ATOM     10  C   UNL     1      58.608  85.771  70.254  1.00  0.00     0.056 A 
ATOM     11  C   UNL     1      59.252  85.269  72.943  1.00  0.00     0.050 A 
ATOM     12  C   UNL     1      60.111  84.829  71.921  1.00  0.00     0.009 A 
BRANCH   8  13
ATOM     13  O   UNL     1      56.583  86.868  70.942  1.00  0.00    -0.493 OA
ATOM     14  C   UNL     1      56.796  87.970  70.040  1.00  0.00     0.278 C 
ENDBRANCH   8  13
BRANCH   9  15
ATOM     15  O   UNL     1      57.223  86.349  73.611  1.00  0.00    -0.504 OA
ATOM     16  H   UNL     1      56.825  85.581  74.028  1.00  0.00     0.293 HD
ENDBRANCH   9  15
ENDBRANCH   6   7
ENDBRANCH   3   6
ENDBRANCH   1   2
BRANCH   1  17
ATOM     17  C   UNL     1      64.272  82.699  71.505  1.00  0.00     0.010 C 
BRANCH  17  18
ATOM     18  C   UNL     1      63.729  81.313  71.951  1.00  0.00     0.001 C 
BRANCH  18  19
ATOM     19  C   UNL     1      62.955  81.358  73.295  1.00  0.00     0.000 C 
BRANCH  19  20
ATOM     20  C   UNL     1      62.416  82.782  73.616  1.00  0.00     0.003 C 
BRANCH  20  21
ATOM     21  C   UNL     1      63.006  83.435  74.909  1.00  0.00    -0.017 C 
ATOM     22  C   UNL     1      61.909  83.587  76.004  1.00  0.00     0.007 C 
ATOM     23  C   UNL     1      63.683  84.810  74.636  1.00  0.00     0.007 C 
ENDBRANCH  20  21
ENDBRANCH  19  20
ENDBRANCH  18  19
ENDBRANCH  17  18
ENDBRANCH   1  17
TORSDOF 10
ENDMDL
