MODEL 1
REMARK VINA RESULT:    -6.573      0.000      0.000
REMARK INTER + INTRA:         -12.986
REMARK INTER:                 -11.184
REMARK INTRA:                  -1.802
REMARK UNBOUND:                -1.802
REMARK SMILES C=C(C)[C@]12C[C@@H](C)[C@@]34O[C@](Cc5ccccc5)(O[C@@H]1[C@@H]3C=C(COC(=O)Cc1ccc(O)cc1)C[C@]1(O)C(=O)C(C)=C[C@@H]41)O2
REMARK SMILES IDX 23 1 22 2 21 3 20 4 9 5 8 6 10 7 6 8 18 10 44 11 19 12 5 13
REMARK SMILES IDX 7 14 4 15 11 16 12 17 13 18 17 19 14 20 16 21 15 22 2 23
REMARK SMILES IDX 3 24 1 25 35 26 36 27 43 28 38 29 42 30 39 32 40 33 41 34
REMARK SMILES IDX 37 35 24 37 25 38 26 39 27 40 28 41 29 42 34 43 30 44 33 45
REMARK SMILES IDX 31 46 32 47
REMARK H PARENT 37 36 32 48
REMARK Flexibility Score: 90.00
ROOT
ATOM      1  C   UNL     1      58.424  86.775  76.353  1.00  0.00     0.264 C 
ENDROOT
BRANCH   1   2
ATOM      2  C   UNL     1      59.823  86.614  75.804  1.00  0.00    -0.033 C 
ATOM      3  C   UNL     1      60.118  85.526  75.062  1.00  0.00    -0.015 C 
BRANCH   3   4
ATOM      4  C   UNL     1      61.449  85.096  74.466  1.00  0.00     0.078 C 
ATOM      5  O   UNL     1      61.524  85.979  72.157  1.00  0.00    -0.319 OA
ATOM      6  C   UNL     1      62.171  86.071  73.465  1.00  0.00     0.095 CG0
ATOM      7  C   UNL     1      61.193  84.644  71.728  1.00  0.00     0.289 C 
ATOM      8  C   UNL     1      63.678  85.599  73.338  1.00  0.00     0.023 C 
ATOM      9  G   UNL     1      61.968  87.554  73.893  1.00  0.00     0.000 G0
ATOM     10  O   UNL     1      60.343  83.993  72.668  1.00  0.00    -0.320 OA
ATOM     11  O   UNL     1      62.344  83.812  71.608  1.00  0.00    -0.313 OA
ATOM     12  C   UNL     1      61.283  83.746  73.726  1.00  0.00     0.170 C 
ATOM     13  C   UNL     1      63.806  84.051  73.471  1.00  0.00     0.049 C 
ATOM     14  C   UNL     1      64.412  86.064  72.068  1.00  0.00     0.011 C 
ATOM     15  C   UNL     1      62.559  83.333  72.952  1.00  0.00     0.122 C 
BRANCH   7  16
ATOM     16  C   UNL     1      60.496  84.737  70.385  1.00  0.00     0.135 C 
BRANCH  16  17
ATOM     17  C   UNL     1      61.435  84.452  69.238  1.00  0.00    -0.040 A 
ATOM     18  C   UNL     1      61.593  83.147  68.774  1.00  0.00     0.004 A 
ATOM     19  C   UNL     1      62.144  85.495  68.644  1.00  0.00     0.004 A 
ATOM     20  C   UNL     1      62.461  82.884  67.713  1.00  0.00     0.000 A 
ATOM     21  C   UNL     1      63.012  85.233  67.584  1.00  0.00     0.000 A 
ATOM     22  C   UNL     1      63.170  83.928  67.119  1.00  0.00     0.000 A 
ENDBRANCH  16  17
ENDBRANCH   7  16
BRANCH  15  23
ATOM     23  C   UNL     1      62.729  81.850  72.901  1.00  0.00    -0.046 C 
ATOM     24  C   UNL     1      63.519  81.314  71.744  1.00  0.00     0.042 C 
ATOM     25  C   UNL     1      62.207  81.043  73.837  1.00  0.00     0.010 C 
ENDBRANCH  15  23
ENDBRANCH   3   4
BRANCH   2  26
ATOM     26  C   UNL     1      60.745  87.759  76.175  1.00  0.00     0.078 C 
BRANCH  26  27
ATOM     27  C   UNL     1      62.084  87.843  75.445  1.00  0.00     0.140 C 
ATOM     28  C   UNL     1      61.945  87.555  73.936  1.00  0.00     0.086 CG0
ATOM     29  C   UNL     1      62.665  89.241  75.458  1.00  0.00     0.190 C 
ATOM     30  C   UNL     1      62.753  88.649  73.295  1.00  0.00    -0.010 C 
ATOM     31  G   UNL     1      62.173  86.080  73.495  1.00  0.00     0.000 G0
ATOM     32  O   UNL     1      62.776  89.953  76.444  1.00  0.00    -0.291 OA
ATOM     33  C   UNL     1      63.148  89.626  74.118  1.00  0.00    -0.008 C 
ATOM     34  C   UNL     1      63.874  90.879  73.827  1.00  0.00     0.048 C 
BRANCH  27  35
ATOM     35  O   UNL     1      63.075  87.059  76.089  1.00  0.00    -0.381 OA
ATOM     36  H   UNL     1      63.004  86.146  75.762  1.00  0.00     0.212 HD
ENDBRANCH  27  35
ENDBRANCH  26  27
ENDBRANCH   2  26
ENDBRANCH   1   2
BRANCH   1  37
ATOM     37  O   UNL     1      57.989  88.101  76.137  1.00  0.00    -0.461 OA
BRANCH  37  38
ATOM     38  C   UNL     1      56.842  88.250  75.393  1.00  0.00     0.310 C 
ATOM     39  O   UNL     1      55.710  88.014  75.791  1.00  0.00    -0.252 OA
BRANCH  38  40
ATOM     40  C   UNL     1      57.198  88.749  74.013  1.00  0.00     0.158 C 
BRANCH  40  41
ATOM     41  C   UNL     1      57.133  87.670  72.963  1.00  0.00    -0.037 A 
ATOM     42  C   UNL     1      56.760  86.373  73.317  1.00  0.00     0.008 A 
ATOM     43  C   UNL     1      57.446  87.967  71.637  1.00  0.00     0.008 A 
ATOM     44  C   UNL     1      56.700  85.374  72.345  1.00  0.00     0.046 A 
ATOM     45  C   UNL     1      57.386  86.968  70.664  1.00  0.00     0.046 A 
ATOM     46  C   UNL     1      57.013  85.672  71.019  1.00  0.00     0.115 A 
BRANCH  46  47
ATOM     47  O   UNL     1      56.956  84.697  70.071  1.00  0.00    -0.508 OA
ATOM     48  H   UNL     1      56.171  84.843  69.515  1.00  0.00     0.293 HD
ENDBRANCH  46  47
ENDBRANCH  40  41
ENDBRANCH  38  40
ENDBRANCH  37  38
ENDBRANCH   1  37
TORSDOF 10
ENDMDL
MODEL 2
REMARK VINA RESULT:    -6.524     28.243     31.511
REMARK INTER + INTRA:         -12.902
REMARK INTER:                 -12.487
REMARK INTRA:                  -0.415
REMARK UNBOUND:                -1.802
REMARK SMILES C=C(C)[C@]12C[C@@H](C)[C@@]34O[C@](Cc5ccccc5)(O[C@@H]1[C@@H]3C=C(COC(=O)Cc1ccc(O)cc1)C[C@]1(O)C(=O)C(C)=C[C@@H]41)O2
REMARK SMILES IDX 23 1 22 2 21 3 20 4 9 5 8 6 10 7 6 8 18 10 44 11 19 12 5 13
REMARK SMILES IDX 7 14 4 15 11 16 12 17 13 18 17 19 14 20 16 21 15 22 2 23
REMARK SMILES IDX 3 24 1 25 35 26 36 27 43 28 38 29 42 30 39 32 40 33 41 34
REMARK SMILES IDX 37 35 24 37 25 38 26 39 27 40 28 41 29 42 34 43 30 44 33 45
REMARK SMILES IDX 31 46 32 47
REMARK H PARENT 37 36 32 48
REMARK Flexibility Score: 90.00
ROOT
ATOM      1  C   UNL     1      86.330  65.978  77.757  1.00  0.00     0.264 C 
ENDROOT
BRANCH   1   2
ATOM      2  C   UNL     1      86.281  66.647  76.403  1.00  0.00    -0.033 C 
ATOM      3  C   UNL     1      85.506  66.117  75.434  1.00  0.00    -0.015 C 
BRANCH   3   4
ATOM      4  C   UNL     1      85.343  66.548  73.985  1.00  0.00     0.078 C 
ATOM      5  O   UNL     1      83.448  68.135  73.914  1.00  0.00    -0.319 OA
ATOM      6  C   UNL     1      84.889  68.024  73.690  1.00  0.00     0.095 CG0
ATOM      7  C   UNL     1      82.661  67.040  73.409  1.00  0.00     0.289 C 
ATOM      8  C   UNL     1      85.206  68.329  72.168  1.00  0.00     0.023 C 
ATOM      9  G   UNL     1      85.518  69.012  74.715  1.00  0.00     0.000 G0
ATOM     10  O   UNL     1      83.083  65.798  73.966  1.00  0.00    -0.320 OA
ATOM     11  O   UNL     1      82.785  66.890  71.996  1.00  0.00    -0.313 OA
ATOM     12  C   UNL     1      84.328  65.621  73.272  1.00  0.00     0.170 C 
ATOM     13  C   UNL     1      85.049  67.053  71.284  1.00  0.00     0.049 C 
ATOM     14  C   UNL     1      84.405  69.483  71.543  1.00  0.00     0.011 C 
ATOM     15  C   UNL     1      83.986  66.106  71.842  1.00  0.00     0.122 C 
BRANCH   7  16
ATOM     16  C   UNL     1      81.210  67.295  73.764  1.00  0.00     0.135 C 
BRANCH  16  17
ATOM     17  C   UNL     1      80.641  66.207  74.639  1.00  0.00    -0.040 A 
ATOM     18  C   UNL     1      80.247  64.993  74.077  1.00  0.00     0.004 A 
ATOM     19  C   UNL     1      80.509  66.415  76.012  1.00  0.00     0.004 A 
ATOM     20  C   UNL     1      79.721  63.986  74.887  1.00  0.00     0.000 A 
ATOM     21  C   UNL     1      79.983  65.408  76.822  1.00  0.00     0.000 A 
ATOM     22  C   UNL     1      79.589  64.195  76.259  1.00  0.00     0.000 A 
ENDBRANCH  16  17
ENDBRANCH   7  16
BRANCH  15  23
ATOM     23  C   UNL     1      83.690  64.969  70.919  1.00  0.00    -0.046 C 
ATOM     24  C   UNL     1      84.827  64.032  70.638  1.00  0.00     0.042 C 
ATOM     25  C   UNL     1      82.477  64.795  70.374  1.00  0.00     0.010 C 
ENDBRANCH  15  23
ENDBRANCH   3   4
BRANCH   2  26
ATOM     26  C   UNL     1      87.149  67.889  76.320  1.00  0.00     0.078 C 
BRANCH  26  27
ATOM     27  C   UNL     1      87.015  68.751  75.067  1.00  0.00     0.140 C 
ATOM     28  C   UNL     1      85.541  69.020  74.698  1.00  0.00     0.086 CG0
ATOM     29  C   UNL     1      87.560  70.150  75.264  1.00  0.00     0.190 C 
ATOM     30  C   UNL     1      85.516  70.494  74.407  1.00  0.00    -0.010 C 
ATOM     31  G   UNL     1      84.897  68.030  73.684  1.00  0.00     0.000 G0
ATOM     32  O   UNL     1      88.650  70.424  75.745  1.00  0.00    -0.291 OA
ATOM     33  C   UNL     1      86.624  71.162  74.740  1.00  0.00    -0.008 C 
ATOM     34  C   UNL     1      86.919  72.609  74.675  1.00  0.00     0.048 C 
BRANCH  27  35
ATOM     35  O   UNL     1      87.788  68.235  73.996  1.00  0.00    -0.381 OA
ATOM     36  H   UNL     1      87.346  68.464  73.161  1.00  0.00     0.212 HD
ENDBRANCH  27  35
ENDBRANCH  26  27
ENDBRANCH   2  26
ENDBRANCH   1   2
BRANCH   1  37
ATOM     37  O   UNL     1      86.625  64.608  77.591  1.00  0.00    -0.461 OA
BRANCH  37  38
ATOM     38  C   UNL     1      86.560  63.830  78.724  1.00  0.00     0.310 C 
ATOM     39  O   UNL     1      87.407  63.017  79.067  1.00  0.00    -0.252 OA
BRANCH  38  40
ATOM     40  C   UNL     1      85.287  64.138  79.474  1.00  0.00     0.158 C 
BRANCH  40  41
ATOM     41  C   UNL     1      85.491  64.235  80.964  1.00  0.00    -0.037 A 
ATOM     42  C   UNL     1      86.107  65.360  81.512  1.00  0.00     0.008 A 
ATOM     43  C   UNL     1      85.064  63.200  81.796  1.00  0.00     0.008 A 
ATOM     44  C   UNL     1      86.297  65.450  82.891  1.00  0.00     0.046 A 
ATOM     45  C   UNL     1      85.253  63.290  83.175  1.00  0.00     0.046 A 
ATOM     46  C   UNL     1      85.870  64.414  83.723  1.00  0.00     0.115 A 
BRANCH  46  47
ATOM     47  O   UNL     1      86.056  64.502  85.068  1.00  0.00    -0.508 OA
ATOM     48  H   UNL     1      86.258  65.425  85.299  1.00  0.00     0.293 HD
ENDBRANCH  46  47
ENDBRANCH  40  41
ENDBRANCH  38  40
ENDBRANCH  37  38
ENDBRANCH   1  37
TORSDOF 10
ENDMDL
MODEL 3
REMARK VINA RESULT:    -6.076      3.563      5.964
REMARK INTER + INTRA:         -12.139
REMARK INTER:                 -10.435
REMARK INTRA:                  -1.704
REMARK UNBOUND:                -1.802
REMARK SMILES C=C(C)[C@]12C[C@@H](C)[C@@]34O[C@](Cc5ccccc5)(O[C@@H]1[C@@H]3C=C(COC(=O)Cc1ccc(O)cc1)C[C@]1(O)C(=O)C(C)=C[C@@H]41)O2
REMARK SMILES IDX 23 1 22 2 21 3 20 4 9 5 8 6 10 7 6 8 18 10 44 11 19 12 5 13
REMARK SMILES IDX 7 14 4 15 11 16 12 17 13 18 17 19 14 20 16 21 15 22 2 23
REMARK SMILES IDX 3 24 1 25 35 26 36 27 43 28 38 29 42 30 39 32 40 33 41 34
REMARK SMILES IDX 37 35 24 37 25 38 26 39 27 40 28 41 29 42 34 43 30 44 33 45
REMARK SMILES IDX 31 46 32 47
REMARK H PARENT 37 36 32 48
REMARK Flexibility Score: 90.00
ROOT
ATOM      1  C   UNL     1      63.123  84.691  74.537  1.00  0.00     0.264 C 
ENDROOT
BRANCH   1   2
ATOM      2  C   UNL     1      64.395  85.285  73.977  1.00  0.00    -0.033 C 
ATOM      3  C   UNL     1      64.673  85.131  72.666  1.00  0.00    -0.015 C 
BRANCH   3   4
ATOM      4  C   UNL     1      65.904  85.560  71.883  1.00  0.00     0.078 C 
ATOM      5  O   UNL     1      65.421  87.798  70.950  1.00  0.00    -0.319 OA
ATOM      6  C   UNL     1      66.295  87.083  71.879  1.00  0.00     0.095 CG0
ATOM      7  C   UNL     1      65.175  87.129  69.698  1.00  0.00     0.289 C 
ATOM      8  C   UNL     1      67.793  87.192  71.377  1.00  0.00     0.023 C 
ATOM      9  G   UNL     1      66.004  87.733  73.263  1.00  0.00     0.000 G0
ATOM     10  O   UNL     1      64.609  85.838  69.904  1.00  0.00    -0.320 OA
ATOM     11  O   UNL     1      66.371  86.912  68.955  1.00  0.00    -0.313 OA
ATOM     12  C   UNL     1      65.759  85.136  70.401  1.00  0.00     0.170 C 
ATOM     13  C   UNL     1      68.129  86.086  70.331  1.00  0.00     0.049 C 
ATOM     14  C   UNL     1      68.205  88.565  70.816  1.00  0.00     0.011 C 
ATOM     15  C   UNL     1      66.899  85.690  69.512  1.00  0.00     0.122 C 
BRANCH   7  16
ATOM     16  C   UNL     1      64.223  87.983  68.884  1.00  0.00     0.135 C 
BRANCH  16  17
ATOM     17  C   UNL     1      62.782  87.744  69.262  1.00  0.00    -0.040 A 
ATOM     18  C   UNL     1      62.196  88.491  70.282  1.00  0.00     0.004 A 
ATOM     19  C   UNL     1      62.038  86.775  68.590  1.00  0.00     0.004 A 
ATOM     20  C   UNL     1      60.863  88.271  70.632  1.00  0.00     0.000 A 
ATOM     21  C   UNL     1      60.705  86.554  68.939  1.00  0.00     0.000 A 
ATOM     22  C   UNL     1      60.118  87.302  69.960  1.00  0.00     0.000 A 
ENDBRANCH  16  17
ENDBRANCH   7  16
BRANCH  15  23
ATOM     23  C   UNL     1      67.233  84.766  68.386  1.00  0.00    -0.046 C 
ATOM     24  C   UNL     1      68.466  83.930  68.559  1.00  0.00     0.042 C 
ATOM     25  C   UNL     1      66.473  84.688  67.284  1.00  0.00     0.010 C 
ENDBRANCH  15  23
ENDBRANCH   3   4
BRANCH   2  26
ATOM     26  C   UNL     1      65.220  86.015  75.019  1.00  0.00     0.078 C 
BRANCH  26  27
ATOM     27  C   UNL     1      66.398  86.849  74.518  1.00  0.00     0.140 C 
ATOM     28  C   UNL     1      66.022  87.716  73.298  1.00  0.00     0.086 CG0
ATOM     29  C   UNL     1      66.845  87.886  75.527  1.00  0.00     0.190 C 
ATOM     30  C   UNL     1      66.604  89.061  73.631  1.00  0.00    -0.010 C 
ATOM     31  G   UNL     1      66.300  87.089  71.901  1.00  0.00     0.000 G0
ATOM     32  O   UNL     1      67.063  87.674  76.711  1.00  0.00    -0.291 OA
ATOM     33  C   UNL     1      67.049  89.198  74.884  1.00  0.00    -0.008 C 
ATOM     34  C   UNL     1      67.598  90.383  75.575  1.00  0.00     0.048 C 
BRANCH  27  35
ATOM     35  O   UNL     1      67.552  86.050  74.320  1.00  0.00    -0.381 OA
ATOM     36  H   UNL     1      67.283  85.116  74.328  1.00  0.00     0.212 HD
ENDBRANCH  27  35
ENDBRANCH  26  27
ENDBRANCH   2  26
ENDBRANCH   1   2
BRANCH   1  37
ATOM     37  O   UNL     1      63.193  83.283  74.462  1.00  0.00    -0.461 OA
BRANCH  37  38
ATOM     38  C   UNL     1      62.128  82.652  73.862  1.00  0.00     0.310 C 
ATOM     39  O   UNL     1      60.971  83.048  73.890  1.00  0.00    -0.252 OA
BRANCH  38  40
ATOM     40  C   UNL     1      62.608  81.401  73.168  1.00  0.00     0.158 C 
BRANCH  40  41
ATOM     41  C   UNL     1      62.979  81.634  71.726  1.00  0.00    -0.037 A 
ATOM     42  C   UNL     1      61.989  81.940  70.792  1.00  0.00     0.008 A 
ATOM     43  C   UNL     1      64.311  81.543  71.325  1.00  0.00     0.008 A 
ATOM     44  C   UNL     1      62.332  82.155  69.457  1.00  0.00     0.046 A 
ATOM     45  C   UNL     1      64.655  81.759  69.990  1.00  0.00     0.046 A 
ATOM     46  C   UNL     1      63.665  82.064  69.056  1.00  0.00     0.115 A 
BRANCH  46  47
ATOM     47  O   UNL     1      64.000  82.274  67.754  1.00  0.00    -0.508 OA
ATOM     48  H   UNL     1      64.841  82.761  67.718  1.00  0.00     0.293 HD
ENDBRANCH  46  47
ENDBRANCH  40  41
ENDBRANCH  38  40
ENDBRANCH  37  38
ENDBRANCH   1  37
TORSDOF 10
ENDMDL
MODEL 4
REMARK VINA RESULT:    -6.043     32.268     35.518
REMARK INTER + INTRA:         -12.084
REMARK INTER:                 -11.420
REMARK INTRA:                  -0.664
REMARK UNBOUND:                -1.802
REMARK SMILES C=C(C)[C@]12C[C@@H](C)[C@@]34O[C@](Cc5ccccc5)(O[C@@H]1[C@@H]3C=C(COC(=O)Cc1ccc(O)cc1)C[C@]1(O)C(=O)C(C)=C[C@@H]41)O2
REMARK SMILES IDX 23 1 22 2 21 3 20 4 9 5 8 6 10 7 6 8 18 10 44 11 19 12 5 13
REMARK SMILES IDX 7 14 4 15 11 16 12 17 13 18 17 19 14 20 16 21 15 22 2 23
REMARK SMILES IDX 3 24 1 25 35 26 36 27 43 28 38 29 42 30 39 32 40 33 41 34
REMARK SMILES IDX 37 35 24 37 25 38 26 39 27 40 28 41 29 42 34 43 30 44 33 45
REMARK SMILES IDX 31 46 32 47
REMARK H PARENT 37 36 32 48
REMARK Flexibility Score: 90.00
ROOT
ATOM      1  C   UNL     1      91.871  84.837  89.108  1.00  0.00     0.264 C 
ENDROOT
BRANCH   1   2
ATOM      2  C   UNL     1      91.191  83.487  89.096  1.00  0.00    -0.033 C 
ATOM      3  C   UNL     1      90.810  82.952  87.918  1.00  0.00    -0.015 C 
BRANCH   3   4
ATOM      4  C   UNL     1      90.051  81.663  87.644  1.00  0.00     0.078 C 
ATOM      5  O   UNL     1      91.741  79.895  87.281  1.00  0.00    -0.319 OA
ATOM      6  C   UNL     1      90.658  80.311  88.170  1.00  0.00     0.095 CG0
ATOM      7  C   UNL     1      91.475  80.049  85.874  1.00  0.00     0.289 C 
ATOM      8  C   UNL     1      89.507  79.223  88.137  1.00  0.00     0.023 C 
ATOM      9  G   UNL     1      91.347  80.514  89.552  1.00  0.00     0.000 G0
ATOM     10  O   UNL     1      91.157  81.400  85.552  1.00  0.00    -0.320 OA
ATOM     11  O   UNL     1      90.355  79.277  85.446  1.00  0.00    -0.313 OA
ATOM     12  C   UNL     1      89.841  81.490  86.120  1.00  0.00     0.170 C 
ATOM     13  C   UNL     1      88.523  79.467  86.952  1.00  0.00     0.049 C 
ATOM     14  C   UNL     1      89.980  77.760  88.114  1.00  0.00     0.011 C 
ATOM     15  C   UNL     1      89.225  80.117  85.759  1.00  0.00     0.122 C 
BRANCH   7  16
ATOM     16  C   UNL     1      92.709  79.615  85.107  1.00  0.00     0.135 C 
BRANCH  16  17
ATOM     17  C   UNL     1      93.832  80.616  85.229  1.00  0.00    -0.040 A 
ATOM     18  C   UNL     1      94.140  81.451  84.156  1.00  0.00     0.004 A 
ATOM     19  C   UNL     1      94.560  80.704  86.415  1.00  0.00     0.004 A 
ATOM     20  C   UNL     1      95.179  82.377  84.269  1.00  0.00     0.000 A 
ATOM     21  C   UNL     1      95.598  81.630  86.527  1.00  0.00     0.000 A 
ATOM     22  C   UNL     1      95.907  82.465  85.455  1.00  0.00     0.000 A 
ENDBRANCH  16  17
ENDBRANCH   7  16
BRANCH  15  23
ATOM     23  C   UNL     1      88.349  80.194  84.551  1.00  0.00    -0.046 C 
ATOM     24  C   UNL     1      87.304  81.270  84.559  1.00  0.00     0.042 C 
ATOM     25  C   UNL     1      88.489  79.350  83.518  1.00  0.00     0.010 C 
ENDBRANCH  15  23
ENDBRANCH   3   4
BRANCH   2  26
ATOM     26  C   UNL     1      91.032  82.888  90.481  1.00  0.00     0.078 C 
BRANCH  26  27
ATOM     27  C   UNL     1      90.589  81.429  90.563  1.00  0.00     0.140 C 
ATOM     28  C   UNL     1      91.335  80.534  89.552  1.00  0.00     0.086 CG0
ATOM     29  C   UNL     1      90.945  80.788  91.888  1.00  0.00     0.190 C 
ATOM     30  C   UNL     1      91.731  79.336  90.370  1.00  0.00    -0.010 C 
ATOM     31  G   UNL     1      90.636  80.323  88.177  1.00  0.00     0.000 G0
ATOM     32  O   UNL     1      90.724  81.270  92.990  1.00  0.00    -0.291 OA
ATOM     33  C   UNL     1      91.551  79.458  91.688  1.00  0.00    -0.008 C 
ATOM     34  C   UNL     1      91.897  78.531  92.785  1.00  0.00     0.048 C 
BRANCH  27  35
ATOM     35  O   UNL     1      89.178  81.311  90.499  1.00  0.00    -0.381 OA
ATOM     36  H   UNL     1      88.949  80.366  90.485  1.00  0.00     0.212 HD
ENDBRANCH  27  35
ENDBRANCH  26  27
ENDBRANCH   2  26
ENDBRANCH   1   2
BRANCH   1  37
ATOM     37  O   UNL     1      93.044  84.762  89.891  1.00  0.00    -0.461 OA
BRANCH  37  38
ATOM     38  C   UNL     1      94.232  84.959  89.225  1.00  0.00     0.310 C 
ATOM     39  O   UNL     1      94.463  84.601  88.079  1.00  0.00    -0.252 OA
BRANCH  38  40
ATOM     40  C   UNL     1      95.201  85.684  90.128  1.00  0.00     0.158 C 
BRANCH  40  41
ATOM     41  C   UNL     1      95.375  87.135  89.760  1.00  0.00    -0.037 A 
ATOM     42  C   UNL     1      96.637  87.622  89.421  1.00  0.00     0.008 A 
ATOM     43  C   UNL     1      94.274  87.991  89.758  1.00  0.00     0.008 A 
ATOM     44  C   UNL     1      96.799  88.965  89.081  1.00  0.00     0.046 A 
ATOM     45  C   UNL     1      94.435  89.334  89.417  1.00  0.00     0.046 A 
ATOM     46  C   UNL     1      95.697  89.821  89.079  1.00  0.00     0.115 A 
BRANCH  46  47
ATOM     47  O   UNL     1      95.855  91.132  88.747  1.00  0.00    -0.508 OA
ATOM     48  H   UNL     1      95.131  91.647  89.144  1.00  0.00     0.293 HD
ENDBRANCH  46  47
ENDBRANCH  40  41
ENDBRANCH  38  40
ENDBRANCH  37  38
ENDBRANCH   1  37
TORSDOF 10
ENDMDL
MODEL 5
REMARK VINA RESULT:    -6.000      3.093      6.540
REMARK INTER + INTRA:         -12.010
REMARK INTER:                 -10.720
REMARK INTRA:                  -1.290
REMARK UNBOUND:                -1.802
REMARK SMILES C=C(C)[C@]12C[C@@H](C)[C@@]34O[C@](Cc5ccccc5)(O[C@@H]1[C@@H]3C=C(COC(=O)Cc1ccc(O)cc1)C[C@]1(O)C(=O)C(C)=C[C@@H]41)O2
REMARK SMILES IDX 23 1 22 2 21 3 20 4 9 5 8 6 10 7 6 8 18 10 44 11 19 12 5 13
REMARK SMILES IDX 7 14 4 15 11 16 12 17 13 18 17 19 14 20 16 21 15 22 2 23
REMARK SMILES IDX 3 24 1 25 35 26 36 27 43 28 38 29 42 30 39 32 40 33 41 34
REMARK SMILES IDX 37 35 24 37 25 38 26 39 27 40 28 41 29 42 34 43 30 44 33 45
REMARK SMILES IDX 31 46 32 47
REMARK H PARENT 37 36 32 48
REMARK Flexibility Score: 90.00
ROOT
ATOM      1  C   UNL     1      61.855  83.247  75.073  1.00  0.00     0.264 C 
ENDROOT
BRANCH   1   2
ATOM      2  C   UNL     1      62.274  84.529  74.390  1.00  0.00    -0.033 C 
ATOM      3  C   UNL     1      63.430  85.122  74.754  1.00  0.00    -0.015 C 
BRANCH   3   4
ATOM      4  C   UNL     1      64.029  86.437  74.283  1.00  0.00     0.078 C 
ATOM      5  O   UNL     1      65.547  85.905  72.404  1.00  0.00    -0.319 OA
ATOM      6  C   UNL     1      64.319  86.620  72.747  1.00  0.00     0.095 CG0
ATOM      7  C   UNL     1      66.626  86.047  73.347  1.00  0.00     0.289 C 
ATOM      8  C   UNL     1      64.522  88.168  72.479  1.00  0.00     0.023 C 
ATOM      9  G   UNL     1      63.217  85.932  71.890  1.00  0.00     0.000 G0
ATOM     10  O   UNL     1      66.236  85.618  74.649  1.00  0.00    -0.320 OA
ATOM     11  O   UNL     1      67.041  87.403  73.497  1.00  0.00    -0.313 OA
ATOM     12  C   UNL     1      65.366  86.700  75.019  1.00  0.00     0.170 C 
ATOM     13  C   UNL     1      65.185  88.878  73.699  1.00  0.00     0.049 C 
ATOM     14  C   UNL     1      65.300  88.521  71.199  1.00  0.00     0.011 C 
ATOM     15  C   UNL     1      66.115  87.936  74.465  1.00  0.00     0.122 C 
BRANCH   7  16
ATOM     16  C   UNL     1      67.794  85.212  72.861  1.00  0.00     0.135 C 
BRANCH  16  17
ATOM     17  C   UNL     1      68.242  85.616  71.478  1.00  0.00    -0.040 A 
ATOM     18  C   UNL     1      68.162  86.950  71.080  1.00  0.00     0.004 A 
ATOM     19  C   UNL     1      68.735  84.653  70.598  1.00  0.00     0.004 A 
ATOM     20  C   UNL     1      68.576  87.323  69.801  1.00  0.00     0.000 A 
ATOM     21  C   UNL     1      69.150  85.026  69.319  1.00  0.00     0.000 A 
ATOM     22  C   UNL     1      69.070  86.360  68.921  1.00  0.00     0.000 A 
ENDBRANCH  16  17
ENDBRANCH   7  16
BRANCH  15  23
ATOM     23  C   UNL     1      66.897  88.640  75.526  1.00  0.00    -0.046 C 
ATOM     24  C   UNL     1      67.367  87.795  76.673  1.00  0.00     0.042 C 
ATOM     25  C   UNL     1      67.165  89.953  75.457  1.00  0.00     0.010 C 
ENDBRANCH  15  23
ENDBRANCH   3   4
BRANCH   2  26
ATOM     26  C   UNL     1      61.289  84.989  73.332  1.00  0.00     0.078 C 
BRANCH  26  27
ATOM     27  C   UNL     1      61.739  86.114  72.402  1.00  0.00     0.140 C 
ATOM     28  C   UNL     1      63.189  85.922  71.913  1.00  0.00     0.086 CG0
ATOM     29  C   UNL     1      60.959  86.141  71.105  1.00  0.00     0.190 C 
ATOM     30  C   UNL     1      63.100  86.197  70.437  1.00  0.00    -0.010 C 
ATOM     31  G   UNL     1      64.295  86.623  72.754  1.00  0.00     0.000 G0
ATOM     32  O   UNL     1      59.742  86.093  71.009  1.00  0.00    -0.291 OA
ATOM     33  C   UNL     1      61.861  86.297  69.948  1.00  0.00    -0.008 C 
ATOM     34  C   UNL     1      61.399  86.477  68.556  1.00  0.00     0.048 C 
BRANCH  27  35
ATOM     35  O   UNL     1      61.491  87.388  72.973  1.00  0.00    -0.381 OA
ATOM     36  H   UNL     1      61.941  87.432  73.833  1.00  0.00     0.212 HD
ENDBRANCH  27  35
ENDBRANCH  26  27
ENDBRANCH   2  26
ENDBRANCH   1   2
BRANCH   1  37
ATOM     37  O   UNL     1      62.648  82.182  74.593  1.00  0.00    -0.461 OA
BRANCH  37  38
ATOM     38  C   UNL     1      62.183  81.536  73.471  1.00  0.00     0.310 C 
ATOM     39  O   UNL     1      61.005  81.434  73.157  1.00  0.00    -0.252 OA
BRANCH  38  40
ATOM     40  C   UNL     1      63.348  80.974  72.693  1.00  0.00     0.158 C 
BRANCH  40  41
ATOM     41  C   UNL     1      63.609  81.715  71.407  1.00  0.00    -0.037 A 
ATOM     42  C   UNL     1      62.652  81.709  70.392  1.00  0.00     0.008 A 
ATOM     43  C   UNL     1      64.807  82.407  71.231  1.00  0.00     0.008 A 
ATOM     44  C   UNL     1      62.894  82.394  69.201  1.00  0.00     0.046 A 
ATOM     45  C   UNL     1      65.048  83.093  70.041  1.00  0.00     0.046 A 
ATOM     46  C   UNL     1      64.092  83.087  69.026  1.00  0.00     0.115 A 
BRANCH  46  47
ATOM     47  O   UNL     1      64.328  83.755  67.864  1.00  0.00    -0.508 OA
ATOM     48  H   UNL     1      63.810  84.579  67.863  1.00  0.00     0.293 HD
ENDBRANCH  46  47
ENDBRANCH  40  41
ENDBRANCH  38  40
ENDBRANCH  37  38
ENDBRANCH   1  37
TORSDOF 10
ENDMDL
MODEL 6
REMARK VINA RESULT:    -5.918     28.155     31.608
REMARK INTER + INTRA:         -11.872
REMARK INTER:                 -10.177
REMARK INTRA:                  -1.694
REMARK UNBOUND:                -1.802
REMARK SMILES C=C(C)[C@]12C[C@@H](C)[C@@]34O[C@](Cc5ccccc5)(O[C@@H]1[C@@H]3C=C(COC(=O)Cc1ccc(O)cc1)C[C@]1(O)C(=O)C(C)=C[C@@H]41)O2
REMARK SMILES IDX 23 1 22 2 21 3 20 4 9 5 8 6 10 7 6 8 18 10 44 11 19 12 5 13
REMARK SMILES IDX 7 14 4 15 11 16 12 17 13 18 17 19 14 20 16 21 15 22 2 23
REMARK SMILES IDX 3 24 1 25 35 26 36 27 43 28 38 29 42 30 39 32 40 33 41 34
REMARK SMILES IDX 37 35 24 37 25 38 26 39 27 40 28 41 29 42 34 43 30 44 33 45
REMARK SMILES IDX 31 46 32 47
REMARK H PARENT 37 36 32 48
REMARK Flexibility Score: 90.00
ROOT
ATOM      1  C   UNL     1      86.487  66.286  77.808  1.00  0.00     0.264 C 
ENDROOT
BRANCH   1   2
ATOM      2  C   UNL     1      86.388  66.935  76.447  1.00  0.00    -0.033 C 
ATOM      3  C   UNL     1      85.588  66.384  75.511  1.00  0.00    -0.015 C 
BRANCH   3   4
ATOM      4  C   UNL     1      85.375  66.792  74.062  1.00  0.00     0.078 C 
ATOM      5  O   UNL     1      83.438  68.329  74.024  1.00  0.00    -0.319 OA
ATOM      6  C   UNL     1      84.874  68.252  73.762  1.00  0.00     0.095 CG0
ATOM      7  C   UNL     1      82.666  67.207  73.553  1.00  0.00     0.289 C 
ATOM      8  C   UNL     1      85.142  68.546  72.228  1.00  0.00     0.023 C 
ATOM      9  G   UNL     1      85.504  69.269  74.758  1.00  0.00     0.000 G0
ATOM     10  O   UNL     1      83.135  65.984  74.114  1.00  0.00    -0.320 OA
ATOM     11  O   UNL     1      82.755  67.043  72.140  1.00  0.00    -0.313 OA
ATOM     12  C   UNL     1      84.365  65.831  73.388  1.00  0.00     0.170 C 
ATOM     13  C   UNL     1      84.995  67.256  71.365  1.00  0.00     0.049 C 
ATOM     14  C   UNL     1      84.294  69.672  71.612  1.00  0.00     0.011 C 
ATOM     15  C   UNL     1      83.972  66.289  71.962  1.00  0.00     0.122 C 
BRANCH   7  16
ATOM     16  C   UNL     1      81.218  67.429  73.945  1.00  0.00     0.135 C 
BRANCH  16  17
ATOM     17  C   UNL     1      80.691  66.319  74.819  1.00  0.00    -0.040 A 
ATOM     18  C   UNL     1      80.264  65.122  74.245  1.00  0.00     0.004 A 
ATOM     19  C   UNL     1      80.632  66.490  76.202  1.00  0.00     0.004 A 
ATOM     20  C   UNL     1      79.777  64.095  75.055  1.00  0.00     0.000 A 
ATOM     21  C   UNL     1      80.145  65.463  77.011  1.00  0.00     0.000 A 
ATOM     22  C   UNL     1      79.718  64.266  76.437  1.00  0.00     0.000 A 
ENDBRANCH  16  17
ENDBRANCH   7  16
BRANCH  15  23
ATOM     23  C   UNL     1      83.681  65.133  71.061  1.00  0.00    -0.046 C 
ATOM     24  C   UNL     1      82.285  65.051  70.519  1.00  0.00     0.042 C 
ATOM     25  C   UNL     1      84.615  64.220  70.755  1.00  0.00     0.010 C 
ENDBRANCH  15  23
ENDBRANCH   3   4
BRANCH   2  26
ATOM     26  C   UNL     1      87.240  68.184  76.319  1.00  0.00     0.078 C 
BRANCH  26  27
ATOM     27  C   UNL     1      87.028  69.049  75.078  1.00  0.00     0.140 C 
ATOM     28  C   UNL     1      85.533  69.263  74.764  1.00  0.00     0.086 CG0
ATOM     29  C   UNL     1      87.527  70.466  75.267  1.00  0.00     0.190 C 
ATOM     30  C   UNL     1      85.442  70.738  74.486  1.00  0.00    -0.010 C 
ATOM     31  G   UNL     1      84.891  68.257  73.766  1.00  0.00     0.000 G0
ATOM     32  O   UNL     1      88.622  70.777  75.711  1.00  0.00    -0.291 OA
ATOM     33  C   UNL     1      86.536  71.445  74.784  1.00  0.00    -0.008 C 
ATOM     34  C   UNL     1      86.773  72.902  74.719  1.00  0.00     0.048 C 
BRANCH  27  35
ATOM     35  O   UNL     1      87.781  68.569  73.977  1.00  0.00    -0.381 OA
ATOM     36  H   UNL     1      88.623  69.054  73.946  1.00  0.00     0.212 HD
ENDBRANCH  27  35
ENDBRANCH  26  27
ENDBRANCH   2  26
ENDBRANCH   1   2
BRANCH   1  37
ATOM     37  O   UNL     1      85.740  65.088  77.810  1.00  0.00    -0.461 OA
BRANCH  37  38
ATOM     38  C   UNL     1      86.457  63.925  77.971  1.00  0.00     0.310 C 
ATOM     39  O   UNL     1      87.132  63.646  78.952  1.00  0.00    -0.252 OA
BRANCH  38  40
ATOM     40  C   UNL     1      86.281  63.052  76.752  1.00  0.00     0.158 C 
BRANCH  40  41
ATOM     41  C   UNL     1      87.315  63.312  75.688  1.00  0.00    -0.037 A 
ATOM     42  C   UNL     1      86.969  63.215  74.340  1.00  0.00     0.008 A 
ATOM     43  C   UNL     1      88.619  63.650  76.050  1.00  0.00     0.008 A 
ATOM     44  C   UNL     1      87.927  63.455  73.354  1.00  0.00     0.046 A 
ATOM     45  C   UNL     1      89.577  63.891  75.064  1.00  0.00     0.046 A 
ATOM     46  C   UNL     1      89.231  63.793  73.717  1.00  0.00     0.115 A 
BRANCH  46  47
ATOM     47  O   UNL     1      90.165  64.027  72.756  1.00  0.00    -0.508 OA
ATOM     48  H   UNL     1      90.309  63.209  72.249  1.00  0.00     0.293 HD
ENDBRANCH  46  47
ENDBRANCH  40  41
ENDBRANCH  38  40
ENDBRANCH  37  38
ENDBRANCH   1  37
TORSDOF 10
ENDMDL
MODEL 7
REMARK VINA RESULT:    -5.908     35.302     39.159
REMARK INTER + INTRA:         -11.853
REMARK INTER:                 -11.468
REMARK INTRA:                  -0.385
REMARK UNBOUND:                -1.802
REMARK SMILES C=C(C)[C@]12C[C@@H](C)[C@@]34O[C@](Cc5ccccc5)(O[C@@H]1[C@@H]3C=C(COC(=O)Cc1ccc(O)cc1)C[C@]1(O)C(=O)C(C)=C[C@@H]41)O2
REMARK SMILES IDX 23 1 22 2 21 3 20 4 9 5 8 6 10 7 6 8 18 10 44 11 19 12 5 13
REMARK SMILES IDX 7 14 4 15 11 16 12 17 13 18 17 19 14 20 16 21 15 22 2 23
REMARK SMILES IDX 3 24 1 25 35 26 36 27 43 28 38 29 42 30 39 32 40 33 41 34
REMARK SMILES IDX 37 35 24 37 25 38 26 39 27 40 28 41 29 42 34 43 30 44 33 45
REMARK SMILES IDX 31 46 32 47
REMARK H PARENT 37 36 32 48
REMARK Flexibility Score: 90.00
ROOT
ATOM      1  C   UNL     1      96.823  95.327  81.316  1.00  0.00     0.264 C 
ENDROOT
BRANCH   1   2
ATOM      2  C   UNL     1      97.554  96.639  81.143  1.00  0.00    -0.033 C 
ATOM      3  C   UNL     1      98.756  96.647  80.530  1.00  0.00    -0.015 C 
BRANCH   3   4
ATOM      4  C   UNL     1      99.716  97.805  80.303  1.00  0.00     0.078 C 
ATOM      5  O   UNL     1      99.198  98.743  78.074  1.00  0.00    -0.319 OA
ATOM      6  C   UNL     1      99.201  99.057  79.502  1.00  0.00     0.095 CG0
ATOM      7  C   UNL     1     100.354  98.027  77.599  1.00  0.00     0.289 C 
ATOM      8  C   UNL     1     100.210 100.247  79.773  1.00  0.00     0.023 C 
ATOM      9  G   UNL     1      97.711  99.354  79.837  1.00  0.00     0.000 G0
ATOM     10  O   UNL     1     100.530  96.801  78.302  1.00  0.00    -0.320 OA
ATOM     11  O   UNL     1     101.562  98.759  77.793  1.00  0.00    -0.313 OA
ATOM     12  C   UNL     1     100.983  97.301  79.570  1.00  0.00     0.170 C 
ATOM     13  C   UNL     1     101.669  99.729  79.963  1.00  0.00     0.049 C 
ATOM     14  C   UNL     1     100.202 101.374  78.726  1.00  0.00     0.011 C 
ATOM     15  C   UNL     1     101.927  98.456  79.156  1.00  0.00     0.122 C 
BRANCH   7  16
ATOM     16  C   UNL     1     100.166  97.749  76.121  1.00  0.00     0.135 C 
BRANCH  16  17
ATOM     17  C   UNL     1      98.736  97.401  75.788  1.00  0.00    -0.040 A 
ATOM     18  C   UNL     1      98.282  97.500  74.473  1.00  0.00     0.004 A 
ATOM     19  C   UNL     1      97.869  96.980  76.796  1.00  0.00     0.004 A 
ATOM     20  C   UNL     1      96.959  97.178  74.166  1.00  0.00     0.000 A 
ATOM     21  C   UNL     1      96.547  96.658  76.489  1.00  0.00     0.000 A 
ATOM     22  C   UNL     1      96.093  96.757  75.174  1.00  0.00     0.000 A 
ENDBRANCH  16  17
ENDBRANCH   7  16
BRANCH  15  23
ATOM     23  C   UNL     1     103.363  98.044  79.178  1.00  0.00    -0.046 C 
ATOM     24  C   UNL     1     104.134  98.398  80.415  1.00  0.00     0.042 C 
ATOM     25  C   UNL     1     103.930  97.394  78.151  1.00  0.00     0.010 C 
ENDBRANCH  15  23
ENDBRANCH   3   4
BRANCH   2  26
ATOM     26  C   UNL     1      96.793  97.824  81.705  1.00  0.00     0.078 C 
BRANCH  26  27
ATOM     27  C   UNL     1      97.306  99.217  81.347  1.00  0.00     0.140 C 
ATOM     28  C   UNL     1      97.700  99.329  79.859  1.00  0.00     0.086 CG0
ATOM     29  C   UNL     1      96.238 100.281  81.481  1.00  0.00     0.190 C 
ATOM     30  C   UNL     1      97.074 100.626  79.428  1.00  0.00    -0.010 C 
ATOM     31  G   UNL     1      99.195  99.054  79.523  1.00  0.00     0.000 G0
ATOM     32  O   UNL     1      95.505 100.432  82.447  1.00  0.00    -0.291 OA
ATOM     33  C   UNL     1      96.226 101.172  80.305  1.00  0.00    -0.008 C 
ATOM     34  C   UNL     1      95.382 102.378  80.187  1.00  0.00     0.048 C 
BRANCH  27  35
ATOM     35  O   UNL     1      98.321  99.642  82.241  1.00  0.00    -0.381 OA
ATOM     36  H   UNL     1      98.292 100.612  82.299  1.00  0.00     0.212 HD
ENDBRANCH  27  35
ENDBRANCH  26  27
ENDBRANCH   2  26
ENDBRANCH   1   2
BRANCH   1  37
ATOM     37  O   UNL     1      95.847  95.201  80.303  1.00  0.00    -0.461 OA
BRANCH  37  38
ATOM     38  C   UNL     1      95.434  93.921  80.015  1.00  0.00     0.310 C 
ATOM     39  O   UNL     1      95.246  93.040  80.842  1.00  0.00    -0.252 OA
BRANCH  38  40
ATOM     40  C   UNL     1      95.250  93.775  78.523  1.00  0.00     0.158 C 
BRANCH  40  41
ATOM     41  C   UNL     1      93.849  94.095  78.070  1.00  0.00    -0.037 A 
ATOM     42  C   UNL     1      92.814  93.192  78.313  1.00  0.00     0.008 A 
ATOM     43  C   UNL     1      93.587  95.293  77.407  1.00  0.00     0.008 A 
ATOM     44  C   UNL     1      91.517  93.488  77.892  1.00  0.00     0.046 A 
ATOM     45  C   UNL     1      92.290  95.590  76.986  1.00  0.00     0.046 A 
ATOM     46  C   UNL     1      91.255  94.687  77.229  1.00  0.00     0.115 A 
BRANCH  46  47
ATOM     47  O   UNL     1      89.990  94.975  76.818  1.00  0.00    -0.508 OA
ATOM     48  H   UNL     1      89.941  95.919  76.584  1.00  0.00     0.293 HD
ENDBRANCH  46  47
ENDBRANCH  40  41
ENDBRANCH  38  40
ENDBRANCH  37  38
ENDBRANCH   1  37
TORSDOF 10
ENDMDL
MODEL 8
REMARK VINA RESULT:    -5.859     36.071     39.251
REMARK INTER + INTRA:         -11.770
REMARK INTER:                  -9.423
REMARK INTRA:                  -2.348
REMARK UNBOUND:                -1.802
REMARK SMILES C=C(C)[C@]12C[C@@H](C)[C@@]34O[C@](Cc5ccccc5)(O[C@@H]1[C@@H]3C=C(COC(=O)Cc1ccc(O)cc1)C[C@]1(O)C(=O)C(C)=C[C@@H]41)O2
REMARK SMILES IDX 23 1 22 2 21 3 20 4 9 5 8 6 10 7 6 8 18 10 44 11 19 12 5 13
REMARK SMILES IDX 7 14 4 15 11 16 12 17 13 18 17 19 14 20 16 21 15 22 2 23
REMARK SMILES IDX 3 24 1 25 35 26 36 27 43 28 38 29 42 30 39 32 40 33 41 34
REMARK SMILES IDX 37 35 24 37 25 38 26 39 27 40 28 41 29 42 34 43 30 44 33 45
REMARK SMILES IDX 31 46 32 47
REMARK H PARENT 37 36 32 48
REMARK Flexibility Score: 90.00
ROOT
ATOM      1  C   UNL     1      96.847  77.531  75.775  1.00  0.00     0.264 C 
ENDROOT
BRANCH   1   2
ATOM      2  C   UNL     1      97.588  78.837  75.611  1.00  0.00    -0.033 C 
ATOM      3  C   UNL     1      98.664  78.888  74.798  1.00  0.00    -0.015 C 
BRANCH   3   4
ATOM      4  C   UNL     1      99.614  80.043  74.525  1.00  0.00     0.078 C 
ATOM      5  O   UNL     1      98.748  81.232  72.537  1.00  0.00    -0.319 OA
ATOM      6  C   UNL     1      99.017  81.386  73.965  1.00  0.00     0.095 CG0
ATOM      7  C   UNL     1      99.772  80.550  71.788  1.00  0.00     0.289 C 
ATOM      8  C   UNL     1     100.105  82.518  74.174  1.00  0.00     0.023 C 
ATOM      9  G   UNL     1      97.622  81.676  74.593  1.00  0.00     0.000 G0
ATOM     10  O   UNL     1     100.019  79.249  72.316  1.00  0.00    -0.320 OA
ATOM     11  O   UNL     1     101.024  81.230  71.837  1.00  0.00    -0.313 OA
ATOM     12  C   UNL     1     100.710  79.597  73.526  1.00  0.00     0.170 C 
ATOM     13  C   UNL     1     101.552  81.952  74.042  1.00  0.00     0.049 C 
ATOM     14  C   UNL     1      99.957  83.753  73.269  1.00  0.00     0.011 C 
ATOM     15  C   UNL     1     101.611  80.771  73.072  1.00  0.00     0.122 C 
BRANCH   7  16
ATOM     16  C   UNL     1      99.314  80.440  70.347  1.00  0.00     0.135 C 
BRANCH  16  17
ATOM     17  C   UNL     1      99.081  79.008  69.934  1.00  0.00    -0.040 A 
ATOM     18  C   UNL     1      97.810  78.447  70.049  1.00  0.00     0.004 A 
ATOM     19  C   UNL     1     100.138  78.247  69.438  1.00  0.00     0.004 A 
ATOM     20  C   UNL     1      97.595  77.122  69.666  1.00  0.00     0.000 A 
ATOM     21  C   UNL     1      99.923  76.922  69.055  1.00  0.00     0.000 A 
ATOM     22  C   UNL     1      98.652  76.361  69.169  1.00  0.00     0.000 A 
ENDBRANCH  16  17
ENDBRANCH   7  16
BRANCH  15  23
ATOM     23  C   UNL     1     103.011  80.329  72.792  1.00  0.00    -0.046 C 
ATOM     24  C   UNL     1     103.161  79.001  72.111  1.00  0.00     0.042 C 
ATOM     25  C   UNL     1     104.072  81.076  73.129  1.00  0.00     0.010 C 
ENDBRANCH  15  23
ENDBRANCH   3   4
BRANCH   2  26
ATOM     26  C   UNL     1      96.984  79.970  76.420  1.00  0.00     0.078 C 
BRANCH  26  27
ATOM     27  C   UNL     1      97.497  81.381  76.136  1.00  0.00     0.140 C 
ATOM     28  C   UNL     1      97.624  81.662  74.625  1.00  0.00     0.086 CG0
ATOM     29  C   UNL     1      96.526  82.452  76.586  1.00  0.00     0.190 C 
ATOM     30  C   UNL     1      96.999  83.021  74.468  1.00  0.00    -0.010 C 
ATOM     31  G   UNL     1      99.018  81.385  73.990  1.00  0.00     0.000 G0
ATOM     32  O   UNL     1      95.987  82.504  77.682  1.00  0.00    -0.291 OA
ATOM     33  C   UNL     1      96.351  83.480  75.543  1.00  0.00    -0.008 C 
ATOM     34  C   UNL     1      95.562  84.717  75.722  1.00  0.00     0.048 C 
BRANCH  27  35
ATOM     35  O   UNL     1      98.676  81.662  76.872  1.00  0.00    -0.381 OA
ATOM     36  H   UNL     1      99.383  81.888  76.244  1.00  0.00     0.212 HD
ENDBRANCH  27  35
ENDBRANCH  26  27
ENDBRANCH   2  26
ENDBRANCH   1   2
BRANCH   1  37
ATOM     37  O   UNL     1      97.726  76.558  76.298  1.00  0.00    -0.461 OA
BRANCH  37  38
ATOM     38  C   UNL     1      97.749  76.433  77.668  1.00  0.00     0.310 C 
ATOM     39  O   UNL     1      96.786  76.598  78.404  1.00  0.00    -0.252 OA
BRANCH  38  40
ATOM     40  C   UNL     1      99.142  76.063  78.117  1.00  0.00     0.158 C 
BRANCH  40  41
ATOM     41  C   UNL     1     100.180  77.075  77.707  1.00  0.00    -0.037 A 
ATOM     42  C   UNL     1     100.169  78.352  78.269  1.00  0.00     0.008 A 
ATOM     43  C   UNL     1     101.152  76.736  76.766  1.00  0.00     0.008 A 
ATOM     44  C   UNL     1     101.130  79.290  77.889  1.00  0.00     0.046 A 
ATOM     45  C   UNL     1     102.113  77.673  76.386  1.00  0.00     0.046 A 
ATOM     46  C   UNL     1     102.102  78.950  76.947  1.00  0.00     0.115 A 
BRANCH  46  47
ATOM     47  O   UNL     1     103.039  79.865  76.576  1.00  0.00    -0.508 OA
ATOM     48  H   UNL     1     103.902  79.597  76.937  1.00  0.00     0.293 HD
ENDBRANCH  46  47
ENDBRANCH  40  41
ENDBRANCH  38  40
ENDBRANCH  37  38
ENDBRANCH   1  37
TORSDOF 10
ENDMDL
MODEL 9
REMARK VINA RESULT:    -5.830      9.850     13.694
REMARK INTER + INTRA:         -11.722
REMARK INTER:                 -11.087
REMARK INTRA:                  -0.635
REMARK UNBOUND:                -1.802
REMARK SMILES C=C(C)[C@]12C[C@@H](C)[C@@]34O[C@](Cc5ccccc5)(O[C@@H]1[C@@H]3C=C(COC(=O)Cc1ccc(O)cc1)C[C@]1(O)C(=O)C(C)=C[C@@H]41)O2
REMARK SMILES IDX 23 1 22 2 21 3 20 4 9 5 8 6 10 7 6 8 18 10 44 11 19 12 5 13
REMARK SMILES IDX 7 14 4 15 11 16 12 17 13 18 17 19 14 20 16 21 15 22 2 23
REMARK SMILES IDX 3 24 1 25 35 26 36 27 43 28 38 29 42 30 39 32 40 33 41 34
REMARK SMILES IDX 37 35 24 37 25 38 26 39 27 40 28 41 29 42 34 43 30 44 33 45
REMARK SMILES IDX 31 46 32 47
REMARK H PARENT 37 36 32 48
REMARK Flexibility Score: 90.00
ROOT
ATOM      1  C   UNL     1      69.377  83.859  67.575  1.00  0.00     0.264 C 
ENDROOT
BRANCH   1   2
ATOM      2  C   UNL     1      70.493  84.383  66.700  1.00  0.00    -0.033 C 
ATOM      3  C   UNL     1      70.818  85.691  66.758  1.00  0.00    -0.015 C 
BRANCH   3   4
ATOM      4  C   UNL     1      71.834  86.470  65.939  1.00  0.00     0.078 C 
ATOM      5  O   UNL     1      73.951  86.457  67.217  1.00  0.00    -0.319 OA
ATOM      6  C   UNL     1      73.336  86.005  65.971  1.00  0.00     0.095 CG0
ATOM      7  C   UNL     1      73.621  87.803  67.612  1.00  0.00     0.289 C 
ATOM      8  C   UNL     1      74.075  86.684  64.745  1.00  0.00     0.023 C 
ATOM      9  G   UNL     1      73.433  84.452  66.032  1.00  0.00     0.000 G0
ATOM     10  O   UNL     1      72.213  87.972  67.749  1.00  0.00    -0.320 OA
ATOM     11  O   UNL     1      74.034  88.768  66.648  1.00  0.00    -0.313 OA
ATOM     12  C   UNL     1      71.824  87.959  66.366  1.00  0.00     0.170 C 
ATOM     13  C   UNL     1      73.486  88.094  64.432  1.00  0.00     0.049 C 
ATOM     14  C   UNL     1      75.605  86.787  64.869  1.00  0.00     0.011 C 
ATOM     15  C   UNL     1      72.952  88.777  65.692  1.00  0.00     0.122 C 
BRANCH   7  16
ATOM     16  C   UNL     1      74.303  88.089  68.936  1.00  0.00     0.135 C 
BRANCH  16  17
ATOM     17  C   UNL     1      74.199  89.543  69.323  1.00  0.00    -0.040 A 
ATOM     18  C   UNL     1      75.335  90.351  69.312  1.00  0.00     0.004 A 
ATOM     19  C   UNL     1      72.965  90.079  69.692  1.00  0.00     0.004 A 
ATOM     20  C   UNL     1      75.239  91.696  69.671  1.00  0.00     0.000 A 
ATOM     21  C   UNL     1      72.869  91.424  70.050  1.00  0.00     0.000 A 
ATOM     22  C   UNL     1      74.005  92.232  70.039  1.00  0.00     0.000 A 
ENDBRANCH  16  17
ENDBRANCH   7  16
BRANCH  15  23
ATOM     23  C   UNL     1      72.550  90.195  65.450  1.00  0.00    -0.046 C 
ATOM     24  C   UNL     1      73.662  91.202  65.417  1.00  0.00     0.042 C 
ATOM     25  C   UNL     1      71.269  90.548  65.272  1.00  0.00     0.010 C 
ENDBRANCH  15  23
ENDBRANCH   3   4
BRANCH   2  26
ATOM     26  C   UNL     1      71.130  83.307  65.840  1.00  0.00     0.078 C 
BRANCH  26  27
ATOM     27  C   UNL     1      72.416  83.675  65.101  1.00  0.00     0.140 C 
ATOM     28  C   UNL     1      73.414  84.428  66.005  1.00  0.00     0.086 CG0
ATOM     29  C   UNL     1      73.212  82.457  64.682  1.00  0.00     0.190 C 
ATOM     30  C   UNL     1      74.724  83.746  65.725  1.00  0.00    -0.010 C 
ATOM     31  G   UNL     1      73.337  85.982  65.964  1.00  0.00     0.000 G0
ATOM     32  O   UNL     1      72.760  81.480  64.104  1.00  0.00    -0.291 OA
ATOM     33  C   UNL     1      74.641  82.621  65.008  1.00  0.00    -0.008 C 
ATOM     34  C   UNL     1      75.696  81.662  64.619  1.00  0.00     0.048 C 
BRANCH  27  35
ATOM     35  O   UNL     1      72.139  84.336  63.878  1.00  0.00    -0.381 OA
ATOM     36  H   UNL     1      71.945  85.269  64.071  1.00  0.00     0.212 HD
ENDBRANCH  27  35
ENDBRANCH  26  27
ENDBRANCH   2  26
ENDBRANCH   1   2
BRANCH   1  37
ATOM     37  O   UNL     1      68.831  84.925  68.322  1.00  0.00    -0.461 OA
BRANCH  37  38
ATOM     38  C   UNL     1      68.400  84.619  69.592  1.00  0.00     0.310 C 
ATOM     39  O   UNL     1      69.049  83.999  70.424  1.00  0.00    -0.252 OA
BRANCH  38  40
ATOM     40  C   UNL     1      67.007  85.164  69.796  1.00  0.00     0.158 C 
BRANCH  40  41
ATOM     41  C   UNL     1      65.932  84.228  69.310  1.00  0.00    -0.037 A 
ATOM     42  C   UNL     1      65.521  83.161  70.110  1.00  0.00     0.008 A 
ATOM     43  C   UNL     1      65.347  84.426  68.059  1.00  0.00     0.008 A 
ATOM     44  C   UNL     1      64.526  82.293  69.658  1.00  0.00     0.046 A 
ATOM     45  C   UNL     1      64.352  83.559  67.608  1.00  0.00     0.046 A 
ATOM     46  C   UNL     1      63.941  82.493  68.407  1.00  0.00     0.115 A 
BRANCH  46  47
ATOM     47  O   UNL     1      62.971  81.646  67.967  1.00  0.00    -0.508 OA
ATOM     48  H   UNL     1      62.984  80.840  68.513  1.00  0.00     0.293 HD
ENDBRANCH  46  47
ENDBRANCH  40  41
ENDBRANCH  38  40
ENDBRANCH  37  38
ENDBRANCH   1  37
TORSDOF 10
ENDMDL
MODEL 10
REMARK VINA RESULT:    -5.630     10.443     14.315
REMARK INTER + INTRA:         -11.381
REMARK INTER:                 -10.112
REMARK INTRA:                  -1.270
REMARK UNBOUND:                -1.802
REMARK SMILES C=C(C)[C@]12C[C@@H](C)[C@@]34O[C@](Cc5ccccc5)(O[C@@H]1[C@@H]3C=C(COC(=O)Cc1ccc(O)cc1)C[C@]1(O)C(=O)C(C)=C[C@@H]41)O2
REMARK SMILES IDX 23 1 22 2 21 3 20 4 9 5 8 6 10 7 6 8 18 10 44 11 19 12 5 13
REMARK SMILES IDX 7 14 4 15 11 16 12 17 13 18 17 19 14 20 16 21 15 22 2 23
REMARK SMILES IDX 3 24 1 25 35 26 36 27 43 28 38 29 42 30 39 32 40 33 41 34
REMARK SMILES IDX 37 35 24 37 25 38 26 39 27 40 28 41 29 42 34 43 30 44 33 45
REMARK SMILES IDX 31 46 32 47
REMARK H PARENT 37 36 32 48
REMARK Flexibility Score: 90.00
ROOT
ATOM      1  C   UNL     1      76.913  87.822  68.011  1.00  0.00     0.264 C 
ENDROOT
BRANCH   1   2
ATOM      2  C   UNL     1      75.524  88.413  67.932  1.00  0.00    -0.033 C 
ATOM      3  C   UNL     1      74.545  87.716  67.318  1.00  0.00    -0.015 C 
BRANCH   3   4
ATOM      4  C   UNL     1      73.104  88.114  67.041  1.00  0.00     0.078 C 
ATOM      5  O   UNL     1      71.752  87.287  68.940  1.00  0.00    -0.319 OA
ATOM      6  C   UNL     1      72.189  88.505  68.260  1.00  0.00     0.095 CG0
ATOM      7  C   UNL     1      71.350  86.209  68.073  1.00  0.00     0.289 C 
ATOM      8  C   UNL     1      70.924  89.267  67.684  1.00  0.00     0.023 C 
ATOM      9  G   UNL     1      73.003  89.280  69.337  1.00  0.00     0.000 G0
ATOM     10  O   UNL     1      72.399  85.843  67.181  1.00  0.00    -0.320 OA
ATOM     11  O   UNL     1      70.245  86.563  67.244  1.00  0.00    -0.313 OA
ATOM     12  C   UNL     1      72.377  86.971  66.292  1.00  0.00     0.170 C 
ATOM     13  C   UNL     1      70.518  88.722  66.281  1.00  0.00     0.049 C 
ATOM     14  C   UNL     1      69.689  89.284  68.601  1.00  0.00     0.011 C 
ATOM     15  C   UNL     1      70.861  87.239  66.128  1.00  0.00     0.122 C 
BRANCH   7  16
ATOM     16  C   UNL     1      70.972  85.022  68.936  1.00  0.00     0.135 C 
BRANCH  16  17
ATOM     17  C   UNL     1      69.523  85.061  69.351  1.00  0.00    -0.040 A 
ATOM     18  C   UNL     1      68.594  84.233  68.721  1.00  0.00     0.004 A 
ATOM     19  C   UNL     1      69.112  85.926  70.365  1.00  0.00     0.004 A 
ATOM     20  C   UNL     1      67.253  84.269  69.106  1.00  0.00     0.000 A 
ATOM     21  C   UNL     1      67.771  85.962  70.749  1.00  0.00     0.000 A 
ATOM     22  C   UNL     1      66.842  85.134  70.119  1.00  0.00     0.000 A 
ENDBRANCH  16  17
ENDBRANCH   7  16
BRANCH  15  23
ATOM     23  C   UNL     1      70.320  86.652  64.865  1.00  0.00    -0.046 C 
ATOM     24  C   UNL     1      71.313  86.416  63.766  1.00  0.00     0.042 C 
ATOM     25  C   UNL     1      69.020  86.353  64.722  1.00  0.00     0.010 C 
ENDBRANCH  15  23
ENDBRANCH   3   4
BRANCH   2  26
ATOM     26  C   UNL     1      75.416  89.773  68.594  1.00  0.00     0.078 C 
BRANCH  26  27
ATOM     27  C   UNL     1      74.012  90.337  68.808  1.00  0.00     0.140 C 
ATOM     28  C   UNL     1      73.029  89.270  69.333  1.00  0.00     0.086 CG0
ATOM     29  C   UNL     1      73.968  91.385  69.900  1.00  0.00     0.190 C 
ATOM     30  C   UNL     1      72.314  89.974  70.452  1.00  0.00    -0.010 C 
ATOM     31  G   UNL     1      72.202  88.511  68.256  1.00  0.00     0.000 G0
ATOM     32  O   UNL     1      74.730  92.335  70.001  1.00  0.00    -0.291 OA
ATOM     33  C   UNL     1      72.834  91.151  70.813  1.00  0.00    -0.008 C 
ATOM     34  C   UNL     1      72.449  92.066  71.907  1.00  0.00     0.048 C 
BRANCH  27  35
ATOM     35  O   UNL     1      73.550  91.025  67.659  1.00  0.00    -0.381 OA
ATOM     36  H   UNL     1      72.577  91.029  67.674  1.00  0.00     0.212 HD
ENDBRANCH  27  35
ENDBRANCH  26  27
ENDBRANCH   2  26
ENDBRANCH   1   2
BRANCH   1  37
ATOM     37  O   UNL     1      77.067  86.855  66.994  1.00  0.00    -0.461 OA
BRANCH  37  38
ATOM     38  C   UNL     1      77.051  85.540  67.399  1.00  0.00     0.310 C 
ATOM     39  O   UNL     1      76.863  85.161  68.546  1.00  0.00    -0.252 OA
BRANCH  38  40
ATOM     40  C   UNL     1      77.302  84.644  66.210  1.00  0.00     0.158 C 
BRANCH  40  41
ATOM     41  C   UNL     1      76.031  84.143  65.574  1.00  0.00    -0.037 A 
ATOM     42  C   UNL     1      75.013  83.617  66.370  1.00  0.00     0.008 A 
ATOM     43  C   UNL     1      75.872  84.204  64.190  1.00  0.00     0.008 A 
ATOM     44  C   UNL     1      73.837  83.152  65.781  1.00  0.00     0.046 A 
ATOM     45  C   UNL     1      74.696  83.739  63.601  1.00  0.00     0.046 A 
ATOM     46  C   UNL     1      73.678  83.213  64.396  1.00  0.00     0.115 A 
BRANCH  46  47
ATOM     47  O   UNL     1      72.531  82.759  63.822  1.00  0.00    -0.508 OA
ATOM     48  H   UNL     1      71.780  82.978  64.401  1.00  0.00     0.293 HD
ENDBRANCH  46  47
ENDBRANCH  40  41
ENDBRANCH  38  40
ENDBRANCH  37  38
ENDBRANCH   1  37
TORSDOF 10
ENDMDL
