MODEL 1
REMARK VINA RESULT:    -6.483      0.000      0.000
REMARK INTER + INTRA:         -11.108
REMARK INTER:                 -10.462
REMARK INTRA:                  -0.646
REMARK UNBOUND:                -0.646
REMARK SMILES COc1cc(CNC(=O)CCCCC/C=C/C(C)C)ccc1O
REMARK SMILES IDX 11 1 10 2 8 3 7 4 9 6 6 7 5 8 3 9 22 10 4 11 21 12 20 13
REMARK SMILES IDX 2 14 1 15 23 16 12 18 13 19 14 20 15 21 16 22 17 23 18 24
REMARK SMILES IDX 19 25
REMARK H PARENT 7 5 23 17
REMARK Flexibility Score: inf
ROOT
ATOM      1  C   UNL     1      92.483 101.156  74.049  1.00  0.00     0.010 C 
ENDROOT
BRANCH   1   2
ATOM      2  C   UNL     1      92.690  99.620  74.061  1.00  0.00     0.100 C 
BRANCH   2   3
ATOM      3  C   UNL     1      93.383  99.117  75.263  1.00  0.00     0.220 C 
ATOM      4  N   UNL     1      93.368  97.785  75.546  1.00  0.00    -0.352 N 
ATOM      5  H   UNL     1      92.799  97.228  74.924  1.00  0.00     0.163 HD
ATOM      6  O   UNL     1      94.008  99.937  75.976  1.00  0.00    -0.275 OA
BRANCH   4   7
ATOM      7  C   UNL     1      94.073  97.157  76.616  1.00  0.00     0.151 C 
BRANCH   7   8
ATOM      8  C   UNL     1      93.249  96.146  77.328  1.00  0.00    -0.025 A 
ATOM      9  C   UNL     1      93.012  94.430  79.074  1.00  0.00     0.160 A 
ATOM     10  C   UNL     1      91.689  94.182  78.649  1.00  0.00     0.157 A 
ATOM     11  C   UNL     1      93.784  95.402  78.406  1.00  0.00     0.056 A 
ATOM     12  C   UNL     1      91.141  94.928  77.590  1.00  0.00     0.050 A 
ATOM     13  C   UNL     1      91.911  95.911  76.941  1.00  0.00     0.009 A 
BRANCH   9  14
ATOM     14  O   UNL     1      93.526  93.771  80.159  1.00  0.00    -0.493 OA
ATOM     15  C   UNL     1      94.915  94.044  80.409  1.00  0.00     0.278 C 
ENDBRANCH   9  14
BRANCH  10  16
ATOM     16  O   UNL     1      90.922  93.236  79.247  1.00  0.00    -0.504 OA
ATOM     17  H   UNL     1      91.143  92.373  78.887  1.00  0.00     0.293 HD
ENDBRANCH  10  16
ENDBRANCH   7   8
ENDBRANCH   4   7
ENDBRANCH   2   3
ENDBRANCH   1   2
BRANCH   1  18
ATOM     18  C   UNL     1      91.715 101.607  72.780  1.00  0.00     0.001 C 
BRANCH  18  19
ATOM     19  C   UNL     1      91.409 100.452  71.794  1.00  0.00     0.004 C 
BRANCH  19  20
ATOM     20  C   UNL     1      89.878 100.249  71.616  1.00  0.00     0.027 C 
BRANCH  20  21
ATOM     21  C   UNL     1      89.434 100.329  70.235  1.00  0.00    -0.031 C 
ATOM     22  C   UNL     1      89.107  99.238  69.520  1.00  0.00    -0.028 C 
BRANCH  22  23
ATOM     23  C   UNL     1      88.653  99.286  68.133  1.00  0.00     0.005 C 
ATOM     24  C   UNL     1      89.649 100.104  67.268  1.00  0.00     0.012 C 
ATOM     25  C   UNL     1      88.442  97.847  67.587  1.00  0.00     0.012 C 
ENDBRANCH  22  23
ENDBRANCH  20  21
ENDBRANCH  19  20
ENDBRANCH  18  19
ENDBRANCH   1  18
TORSDOF 11
ENDMDL
MODEL 2
REMARK VINA RESULT:    -6.324      2.293      4.166
REMARK INTER + INTRA:         -10.852
REMARK INTER:                  -9.645
REMARK INTRA:                  -1.206
REMARK UNBOUND:                -0.646
REMARK SMILES COc1cc(CNC(=O)CCCCC/C=C/C(C)C)ccc1O
REMARK SMILES IDX 11 1 10 2 8 3 7 4 9 6 6 7 5 8 3 9 22 10 4 11 21 12 20 13
REMARK SMILES IDX 2 14 1 15 23 16 12 18 13 19 14 20 15 21 16 22 17 23 18 24
REMARK SMILES IDX 19 25
REMARK H PARENT 7 5 23 17
REMARK Flexibility Score: inf
ROOT
ATOM      1  C   UNL     1      89.821  99.055  71.222  1.00  0.00     0.010 C 
ENDROOT
BRANCH   1   2
ATOM      2  C   UNL     1      91.192  99.640  70.793  1.00  0.00     0.100 C 
BRANCH   2   3
ATOM      3  C   UNL     1      91.948 100.265  71.894  1.00  0.00     0.220 C 
ATOM      4  N   UNL     1      91.988  99.665  73.116  1.00  0.00    -0.352 N 
ATOM      5  H   UNL     1      91.412  98.838  73.198  1.00  0.00     0.163 HD
ATOM      6  O   UNL     1      92.575 101.326  71.659  1.00  0.00    -0.275 OA
BRANCH   4   7
ATOM      7  C   UNL     1      92.756 100.109  74.233  1.00  0.00     0.151 C 
BRANCH   7   8
ATOM      8  C   UNL     1      93.351  98.984  75.000  1.00  0.00    -0.025 A 
ATOM      9  C   UNL     1      93.114  96.833  76.170  1.00  0.00     0.160 A 
ATOM     10  C   UNL     1      94.483  96.868  76.510  1.00  0.00     0.157 A 
ATOM     11  C   UNL     1      92.557  97.894  75.427  1.00  0.00     0.056 A 
ATOM     12  C   UNL     1      95.287  97.939  76.077  1.00  0.00     0.050 A 
ATOM     13  C   UNL     1      94.728  98.984  75.319  1.00  0.00     0.009 A 
BRANCH   9  14
ATOM     14  O   UNL     1      92.342  95.754  76.511  1.00  0.00    -0.493 OA
ATOM     15  C   UNL     1      91.356  96.032  77.518  1.00  0.00     0.278 C 
ENDBRANCH   9  14
BRANCH  10  16
ATOM     16  O   UNL     1      95.052  95.882  77.248  1.00  0.00    -0.504 OA
ATOM     17  H   UNL     1      95.531  95.285  76.668  1.00  0.00     0.293 HD
ENDBRANCH  10  16
ENDBRANCH   7   8
ENDBRANCH   4   7
ENDBRANCH   2   3
ENDBRANCH   1   2
BRANCH   1  18
ATOM     18  C   UNL     1      89.481  97.778  70.412  1.00  0.00     0.001 C 
BRANCH  18  19
ATOM     19  C   UNL     1      88.455  98.016  69.275  1.00  0.00     0.004 C 
BRANCH  19  20
ATOM     20  C   UNL     1      89.153  98.091  67.888  1.00  0.00     0.027 C 
BRANCH  20  21
ATOM     21  C   UNL     1      89.516  99.440  67.489  1.00  0.00    -0.031 C 
ATOM     22  C   UNL     1      88.836 100.521  67.910  1.00  0.00    -0.028 C 
BRANCH  22  23
ATOM     23  C   UNL     1      89.178 101.890  67.532  1.00  0.00     0.005 C 
ATOM     24  C   UNL     1      88.879 102.863  68.703  1.00  0.00     0.012 C 
ATOM     25  C   UNL     1      90.657 101.965  67.066  1.00  0.00     0.012 C 
ENDBRANCH  22  23
ENDBRANCH  20  21
ENDBRANCH  19  20
ENDBRANCH  18  19
ENDBRANCH   1  18
TORSDOF 11
ENDMDL
MODEL 3
REMARK VINA RESULT:    -6.115     16.414     18.907
REMARK INTER + INTRA:         -10.515
REMARK INTER:                 -10.001
REMARK INTRA:                  -0.514
REMARK UNBOUND:                -0.646
REMARK SMILES COc1cc(CNC(=O)CCCCC/C=C/C(C)C)ccc1O
REMARK SMILES IDX 11 1 10 2 8 3 7 4 9 6 6 7 5 8 3 9 22 10 4 11 21 12 20 13
REMARK SMILES IDX 2 14 1 15 23 16 12 18 13 19 14 20 15 21 16 22 17 23 18 24
REMARK SMILES IDX 19 25
REMARK H PARENT 7 5 23 17
REMARK Flexibility Score: inf
ROOT
ATOM      1  C   UNL     1      97.113  84.546  85.042  1.00  0.00     0.010 C 
ENDROOT
BRANCH   1   2
ATOM      2  C   UNL     1      97.241  83.078  84.562  1.00  0.00     0.100 C 
BRANCH   2   3
ATOM      3  C   UNL     1      98.414  82.827  83.704  1.00  0.00     0.220 C 
ATOM      4  N   UNL     1      98.351  83.102  82.372  1.00  0.00    -0.352 N 
ATOM      5  H   UNL     1      97.443  83.404  82.046  1.00  0.00     0.163 HD
ATOM      6  O   UNL     1      99.464  82.398  84.240  1.00  0.00    -0.275 OA
BRANCH   4   7
ATOM      7  C   UNL     1      99.436  82.999  81.451  1.00  0.00     0.151 C 
BRANCH   7   8
ATOM      8  C   UNL     1      99.002  83.148  80.037  1.00  0.00    -0.025 A 
ATOM      9  C   UNL     1      99.525  83.176  77.634  1.00  0.00     0.160 A 
ATOM     10  C   UNL     1      98.179  83.488  77.346  1.00  0.00     0.157 A 
ATOM     11  C   UNL     1      99.928  83.018  78.976  1.00  0.00     0.056 A 
ATOM     12  C   UNL     1      97.246  83.603  78.392  1.00  0.00     0.050 A 
ATOM     13  C   UNL     1      97.652  83.424  79.728  1.00  0.00     0.009 A 
BRANCH   9  14
ATOM     14  O   UNL     1     100.423  82.976  76.619  1.00  0.00    -0.493 OA
ATOM     15  C   UNL     1     101.791  83.221  76.987  1.00  0.00     0.278 C 
ENDBRANCH   9  14
BRANCH  10  16
ATOM     16  O   UNL     1      97.757  83.676  76.070  1.00  0.00    -0.504 OA
ATOM     17  H   UNL     1      96.875  83.308  75.968  1.00  0.00     0.293 HD
ENDBRANCH  10  16
ENDBRANCH   7   8
ENDBRANCH   4   7
ENDBRANCH   2   3
ENDBRANCH   1   2
BRANCH   1  18
ATOM     18  C   UNL     1      96.041  84.680  86.153  1.00  0.00     0.001 C 
BRANCH  18  19
ATOM     19  C   UNL     1      95.819  86.137  86.632  1.00  0.00     0.004 C 
BRANCH  19  20
ATOM     20  C   UNL     1      96.064  86.275  88.161  1.00  0.00     0.027 C 
BRANCH  20  21
ATOM     21  C   UNL     1      95.680  87.569  88.700  1.00  0.00    -0.031 C 
ATOM     22  C   UNL     1      95.300  87.730  89.980  1.00  0.00    -0.028 C 
BRANCH  22  23
ATOM     23  C   UNL     1      94.914  89.016  90.553  1.00  0.00     0.005 C 
ATOM     24  C   UNL     1      95.028  90.137  89.486  1.00  0.00     0.012 C 
ATOM     25  C   UNL     1      93.489  88.926  91.164  1.00  0.00     0.012 C 
ENDBRANCH  22  23
ENDBRANCH  20  21
ENDBRANCH  19  20
ENDBRANCH  18  19
ENDBRANCH   1  18
TORSDOF 11
ENDMDL
MODEL 4
REMARK VINA RESULT:    -6.086     15.708     17.352
REMARK INTER + INTRA:         -10.467
REMARK INTER:                  -9.744
REMARK INTRA:                  -0.724
REMARK UNBOUND:                -0.646
REMARK SMILES COc1cc(CNC(=O)CCCCC/C=C/C(C)C)ccc1O
REMARK SMILES IDX 11 1 10 2 8 3 7 4 9 6 6 7 5 8 3 9 22 10 4 11 21 12 20 13
REMARK SMILES IDX 2 14 1 15 23 16 12 18 13 19 14 20 15 21 16 22 17 23 18 24
REMARK SMILES IDX 19 25
REMARK H PARENT 7 5 23 17
REMARK Flexibility Score: inf
ROOT
ATOM      1  C   UNL     1      98.959  82.433  80.291  1.00  0.00     0.010 C 
ENDROOT
BRANCH   1   2
ATOM      2  C   UNL     1      98.032  83.194  81.274  1.00  0.00     0.100 C 
BRANCH   2   3
ATOM      3  C   UNL     1      98.216  82.817  82.688  1.00  0.00     0.220 C 
ATOM      4  N   UNL     1      98.184  83.775  83.655  1.00  0.00    -0.352 N 
ATOM      5  H   UNL     1      98.104  84.721  83.308  1.00  0.00     0.163 HD
ATOM      6  O   UNL     1      98.359  81.603  82.966  1.00  0.00    -0.275 OA
BRANCH   4   7
ATOM      7  C   UNL     1      98.251  83.538  85.060  1.00  0.00     0.151 C 
BRANCH   7   8
ATOM      8  C   UNL     1      97.030  83.991  85.776  1.00  0.00    -0.025 A 
ATOM      9  C   UNL     1      94.956  83.481  86.995  1.00  0.00     0.160 A 
ATOM     10  C   UNL     1      94.675  84.861  87.093  1.00  0.00     0.157 A 
ATOM     11  C   UNL     1      96.124  83.056  86.330  1.00  0.00     0.056 A 
ATOM     12  C   UNL     1      95.577  85.800  86.560  1.00  0.00     0.050 A 
ATOM     13  C   UNL     1      96.751  85.369  85.915  1.00  0.00     0.009 A 
BRANCH   9  14
ATOM     14  O   UNL     1      94.130  82.562  87.586  1.00  0.00    -0.493 OA
ATOM     15  C   UNL     1      93.285  81.853  86.665  1.00  0.00     0.278 C 
ENDBRANCH   9  14
BRANCH  10  16
ATOM     16  O   UNL     1      93.547  85.309  87.699  1.00  0.00    -0.504 OA
ATOM     17  H   UNL     1      93.544  85.027  88.617  1.00  0.00     0.293 HD
ENDBRANCH  10  16
ENDBRANCH   7   8
ENDBRANCH   4   7
ENDBRANCH   2   3
ENDBRANCH   1   2
BRANCH   1  18
ATOM     18  C   UNL     1      99.106  83.201  78.953  1.00  0.00     0.001 C 
BRANCH  18  19
ATOM     19  C   UNL     1      97.768  83.755  78.402  1.00  0.00     0.004 C 
BRANCH  19  20
ATOM     20  C   UNL     1      97.703  83.645  76.853  1.00  0.00     0.027 C 
BRANCH  20  21
ATOM     21  C   UNL     1      99.007  83.648  76.212  1.00  0.00    -0.031 C 
ATOM     22  C   UNL     1      99.520  84.746  75.629  1.00  0.00    -0.028 C 
BRANCH  22  23
ATOM     23  C   UNL     1     100.829  84.782  74.982  1.00  0.00     0.005 C 
ATOM     24  C   UNL     1     100.852  85.872  73.877  1.00  0.00     0.012 C 
ATOM     25  C   UNL     1     101.945  84.991  76.040  1.00  0.00     0.012 C 
ENDBRANCH  22  23
ENDBRANCH  20  21
ENDBRANCH  19  20
ENDBRANCH  18  19
ENDBRANCH   1  18
TORSDOF 11
ENDMDL
MODEL 5
REMARK VINA RESULT:    -6.059     16.422     19.356
REMARK INTER + INTRA:         -10.424
REMARK INTER:                  -9.719
REMARK INTRA:                  -0.706
REMARK UNBOUND:                -0.646
REMARK SMILES COc1cc(CNC(=O)CCCCC/C=C/C(C)C)ccc1O
REMARK SMILES IDX 11 1 10 2 8 3 7 4 9 6 6 7 5 8 3 9 22 10 4 11 21 12 20 13
REMARK SMILES IDX 2 14 1 15 23 16 12 18 13 19 14 20 15 21 16 22 17 23 18 24
REMARK SMILES IDX 19 25
REMARK H PARENT 7 5 23 17
REMARK Flexibility Score: inf
ROOT
ATOM      1  C   UNL     1      97.090  84.360  84.851  1.00  0.00     0.010 C 
ENDROOT
BRANCH   1   2
ATOM      2  C   UNL     1      97.386  82.873  84.527  1.00  0.00     0.100 C 
BRANCH   2   3
ATOM      3  C   UNL     1      98.539  82.672  83.629  1.00  0.00     0.220 C 
ATOM      4  N   UNL     1      98.446  83.027  82.317  1.00  0.00    -0.352 N 
ATOM      5  H   UNL     1      97.532  83.348  82.031  1.00  0.00     0.163 HD
ATOM      6  O   UNL     1      99.599  82.212  84.115  1.00  0.00    -0.275 OA
BRANCH   4   7
ATOM      7  C   UNL     1      99.510  82.977  81.368  1.00  0.00     0.151 C 
BRANCH   7   8
ATOM      8  C   UNL     1      99.035  83.129  79.968  1.00  0.00    -0.025 A 
ATOM      9  C   UNL     1      99.476  83.110  77.549  1.00  0.00     0.160 A 
ATOM     10  C   UNL     1      98.134  83.473  77.302  1.00  0.00     0.157 A 
ATOM     11  C   UNL     1      99.918  82.950  78.878  1.00  0.00     0.056 A 
ATOM     12  C   UNL     1      97.243  83.638  78.378  1.00  0.00     0.050 A 
ATOM     13  C   UNL     1      97.687  83.456  79.701  1.00  0.00     0.009 A 
BRANCH   9  14
ATOM     14  O   UNL     1     100.329  82.862  76.506  1.00  0.00    -0.493 OA
ATOM     15  C   UNL     1     101.247  83.933  76.230  1.00  0.00     0.278 C 
ENDBRANCH   9  14
BRANCH  10  16
ATOM     16  O   UNL     1      97.676  83.665  76.040  1.00  0.00    -0.504 OA
ATOM     17  H   UNL     1      97.555  82.814  75.611  1.00  0.00     0.293 HD
ENDBRANCH  10  16
ENDBRANCH   7   8
ENDBRANCH   4   7
ENDBRANCH   2   3
ENDBRANCH   1   2
BRANCH   1  18
ATOM     18  C   UNL     1      96.026  84.488  85.970  1.00  0.00     0.001 C 
BRANCH  18  19
ATOM     19  C   UNL     1      95.349  83.144  86.343  1.00  0.00     0.004 C 
BRANCH  19  20
ATOM     20  C   UNL     1      94.507  83.274  87.643  1.00  0.00     0.027 C 
BRANCH  20  21
ATOM     21  C   UNL     1      93.154  82.761  87.517  1.00  0.00    -0.031 C 
ATOM     22  C   UNL     1      92.779  81.963  86.501  1.00  0.00    -0.028 C 
BRANCH  22  23
ATOM     23  C   UNL     1      91.429  81.427  86.349  1.00  0.00     0.005 C 
ATOM     24  C   UNL     1      91.467  80.088  85.565  1.00  0.00     0.012 C 
ATOM     25  C   UNL     1      90.751  81.278  87.738  1.00  0.00     0.012 C 
ENDBRANCH  22  23
ENDBRANCH  20  21
ENDBRANCH  19  20
ENDBRANCH  18  19
ENDBRANCH   1  18
TORSDOF 11
ENDMDL
MODEL 6
REMARK VINA RESULT:    -6.027      2.692      4.460
REMARK INTER + INTRA:         -10.372
REMARK INTER:                  -9.182
REMARK INTRA:                  -1.190
REMARK UNBOUND:                -0.646
REMARK SMILES COc1cc(CNC(=O)CCCCC/C=C/C(C)C)ccc1O
REMARK SMILES IDX 11 1 10 2 8 3 7 4 9 6 6 7 5 8 3 9 22 10 4 11 21 12 20 13
REMARK SMILES IDX 2 14 1 15 23 16 12 18 13 19 14 20 15 21 16 22 17 23 18 24
REMARK SMILES IDX 19 25
REMARK H PARENT 7 5 23 17
REMARK Flexibility Score: inf
ROOT
ATOM      1  C   UNL     1      89.818  99.054  71.202  1.00  0.00     0.010 C 
ENDROOT
BRANCH   1   2
ATOM      2  C   UNL     1      91.200  99.602  70.763  1.00  0.00     0.100 C 
BRANCH   2   3
ATOM      3  C   UNL     1      91.920 100.334  71.821  1.00  0.00     0.220 C 
ATOM      4  N   UNL     1      91.928  99.851  73.095  1.00  0.00    -0.352 N 
ATOM      5  H   UNL     1      91.356  99.030  73.237  1.00  0.00     0.163 HD
ATOM      6  O   UNL     1      92.546 101.374  71.507  1.00  0.00    -0.275 OA
BRANCH   4   7
ATOM      7  C   UNL     1      92.660 100.404  74.187  1.00  0.00     0.151 C 
BRANCH   7   8
ATOM      8  C   UNL     1      93.294  99.362  75.036  1.00  0.00    -0.025 A 
ATOM      9  C   UNL     1      95.190  98.573  76.390  1.00  0.00     0.160 A 
ATOM     10  C   UNL     1      94.521  97.349  76.611  1.00  0.00     0.157 A 
ATOM     11  C   UNL     1      94.577  99.565  75.598  1.00  0.00     0.056 A 
ATOM     12  C   UNL     1      93.239  97.143  76.071  1.00  0.00     0.050 A 
ATOM     13  C   UNL     1      92.625  98.146  75.298  1.00  0.00     0.009 A 
BRANCH   9  14
ATOM     14  O   UNL     1      96.400  98.818  76.983  1.00  0.00    -0.493 OA
ATOM     15  C   UNL     1      97.501  98.896  76.062  1.00  0.00     0.278 C 
ENDBRANCH   9  14
BRANCH  10  16
ATOM     16  O   UNL     1      95.089  96.358  77.343  1.00  0.00    -0.504 OA
ATOM     17  H   UNL     1      94.718  96.362  78.229  1.00  0.00     0.293 HD
ENDBRANCH  10  16
ENDBRANCH   7   8
ENDBRANCH   4   7
ENDBRANCH   2   3
ENDBRANCH   1   2
BRANCH   1  18
ATOM     18  C   UNL     1      89.448  97.772  70.413  1.00  0.00     0.001 C 
BRANCH  18  19
ATOM     19  C   UNL     1      88.417  98.014  69.281  1.00  0.00     0.004 C 
BRANCH  19  20
ATOM     20  C   UNL     1      89.107  98.080  67.890  1.00  0.00     0.027 C 
BRANCH  20  21
ATOM     21  C   UNL     1      89.476  99.425  67.484  1.00  0.00    -0.031 C 
ATOM     22  C   UNL     1      88.809 100.513  67.909  1.00  0.00    -0.028 C 
BRANCH  22  23
ATOM     23  C   UNL     1      89.159 101.878  67.525  1.00  0.00     0.005 C 
ATOM     24  C   UNL     1      88.843 102.861  68.683  1.00  0.00     0.012 C 
ATOM     25  C   UNL     1      90.645 101.947  67.081  1.00  0.00     0.012 C 
ENDBRANCH  22  23
ENDBRANCH  20  21
ENDBRANCH  19  20
ENDBRANCH  18  19
ENDBRANCH   1  18
TORSDOF 11
ENDMDL
MODEL 7
REMARK VINA RESULT:    -5.959      6.459      9.303
REMARK INTER + INTRA:         -10.263
REMARK INTER:                  -8.400
REMARK INTRA:                  -1.863
REMARK UNBOUND:                -0.646
REMARK SMILES COc1cc(CNC(=O)CCCCC/C=C/C(C)C)ccc1O
REMARK SMILES IDX 11 1 10 2 8 3 7 4 9 6 6 7 5 8 3 9 22 10 4 11 21 12 20 13
REMARK SMILES IDX 2 14 1 15 23 16 12 18 13 19 14 20 15 21 16 22 17 23 18 24
REMARK SMILES IDX 19 25
REMARK H PARENT 7 5 23 17
REMARK Flexibility Score: inf
ROOT
ATOM      1  C   UNL     1      89.154  98.171  70.549  1.00  0.00     0.010 C 
ENDROOT
BRANCH   1   2
ATOM      2  C   UNL     1      90.586  98.510  71.037  1.00  0.00     0.100 C 
BRANCH   2   3
ATOM      3  C   UNL     1      90.956  99.928  70.875  1.00  0.00     0.220 C 
ATOM      4  N   UNL     1      89.994 100.890  70.928  1.00  0.00    -0.352 N 
ATOM      5  H   UNL     1      89.050 100.538  71.006  1.00  0.00     0.163 HD
ATOM      6  O   UNL     1      92.168 100.215  70.732  1.00  0.00    -0.275 OA
BRANCH   4   7
ATOM      7  C   UNL     1      90.224 102.297  70.883  1.00  0.00     0.151 C 
BRANCH   7   8
ATOM      8  C   UNL     1      89.105 103.079  71.468  1.00  0.00    -0.025 A 
ATOM      9  C   UNL     1      87.372 104.813  71.261  1.00  0.00     0.160 A 
ATOM     10  C   UNL     1      87.004 104.605  72.608  1.00  0.00     0.157 A 
ATOM     11  C   UNL     1      88.424 104.056  70.705  1.00  0.00     0.056 A 
ATOM     12  C   UNL     1      87.663 103.624  73.372  1.00  0.00     0.050 A 
ATOM     13  C   UNL     1      88.699 102.859  72.803  1.00  0.00     0.009 A 
BRANCH   9  14
ATOM     14  O   UNL     1      86.680 105.702  70.483  1.00  0.00    -0.493 OA
ATOM     15  C   UNL     1      86.145 105.135  69.276  1.00  0.00     0.278 C 
ENDBRANCH   9  14
BRANCH  10  16
ATOM     16  O   UNL     1      86.017 105.332  73.190  1.00  0.00    -0.504 OA
ATOM     17  H   UNL     1      85.963 105.108  74.122  1.00  0.00     0.293 HD
ENDBRANCH  10  16
ENDBRANCH   7   8
ENDBRANCH   4   7
ENDBRANCH   2   3
ENDBRANCH   1   2
BRANCH   1  18
ATOM     18  C   UNL     1      89.191  97.298  69.269  1.00  0.00     0.001 C 
BRANCH  18  19
ATOM     19  C   UNL     1      88.986  98.101  67.960  1.00  0.00     0.004 C 
BRANCH  19  20
ATOM     20  C   UNL     1      88.044  99.317  68.183  1.00  0.00     0.027 C 
BRANCH  20  21
ATOM     21  C   UNL     1      88.619 100.585  67.768  1.00  0.00    -0.031 C 
ATOM     22  C   UNL     1      89.902 100.700  67.381  1.00  0.00    -0.028 C 
BRANCH  22  23
ATOM     23  C   UNL     1      90.508 101.959  66.953  1.00  0.00     0.005 C 
ATOM     24  C   UNL     1      89.582 103.151  67.312  1.00  0.00     0.012 C 
ATOM     25  C   UNL     1      91.926 102.108  67.568  1.00  0.00     0.012 C 
ENDBRANCH  22  23
ENDBRANCH  20  21
ENDBRANCH  19  20
ENDBRANCH  18  19
ENDBRANCH   1  18
TORSDOF 11
ENDMDL
MODEL 8
REMARK VINA RESULT:    -5.854     16.406     19.854
REMARK INTER + INTRA:         -10.093
REMARK INTER:                  -9.370
REMARK INTRA:                  -0.723
REMARK UNBOUND:                -0.646
REMARK SMILES COc1cc(CNC(=O)CCCCC/C=C/C(C)C)ccc1O
REMARK SMILES IDX 11 1 10 2 8 3 7 4 9 6 6 7 5 8 3 9 22 10 4 11 21 12 20 13
REMARK SMILES IDX 2 14 1 15 23 16 12 18 13 19 14 20 15 21 16 22 17 23 18 24
REMARK SMILES IDX 19 25
REMARK H PARENT 7 5 23 17
REMARK Flexibility Score: inf
ROOT
ATOM      1  C   UNL     1      74.943  89.711  69.651  1.00  0.00     0.010 C 
ENDROOT
BRANCH   1   2
ATOM      2  C   UNL     1      75.123  88.610  70.728  1.00  0.00     0.100 C 
BRANCH   2   3
ATOM      3  C   UNL     1      75.849  87.418  70.251  1.00  0.00     0.220 C 
ATOM      4  N   UNL     1      77.072  87.556  69.668  1.00  0.00    -0.352 N 
ATOM      5  H   UNL     1      77.370  88.513  69.537  1.00  0.00     0.163 HD
ATOM      6  O   UNL     1      75.329  86.291  70.435  1.00  0.00    -0.275 OA
BRANCH   4   7
ATOM      7  C   UNL     1      77.919  86.486  69.253  1.00  0.00     0.151 C 
BRANCH   7   8
ATOM      8  C   UNL     1      77.648  86.050  67.858  1.00  0.00    -0.025 A 
ATOM      9  C   UNL     1      77.675  84.310  66.120  1.00  0.00     0.160 A 
ATOM     10  C   UNL     1      77.180  85.241  65.182  1.00  0.00     0.157 A 
ATOM     11  C   UNL     1      77.914  84.723  67.447  1.00  0.00     0.056 A 
ATOM     12  C   UNL     1      76.895  86.559  65.584  1.00  0.00     0.050 A 
ATOM     13  C   UNL     1      77.118  86.958  66.915  1.00  0.00     0.009 A 
BRANCH   9  14
ATOM     14  O   UNL     1      77.872  83.003  65.761  1.00  0.00    -0.493 OA
ATOM     15  C   UNL     1      76.706  82.174  65.898  1.00  0.00     0.278 C 
ENDBRANCH   9  14
BRANCH  10  16
ATOM     16  O   UNL     1      76.963  84.892  63.889  1.00  0.00    -0.504 OA
ATOM     17  H   UNL     1      76.173  85.333  63.566  1.00  0.00     0.293 HD
ENDBRANCH  10  16
ENDBRANCH   7   8
ENDBRANCH   4   7
ENDBRANCH   2   3
ENDBRANCH   1   2
BRANCH   1  18
ATOM     18  C   UNL     1      74.287  90.980  70.253  1.00  0.00     0.001 C 
BRANCH  18  19
ATOM     19  C   UNL     1      75.265  92.171  70.413  1.00  0.00     0.004 C 
BRANCH  19  20
ATOM     20  C   UNL     1      76.090  92.055  71.724  1.00  0.00     0.027 C 
BRANCH  20  21
ATOM     21  C   UNL     1      76.819  93.266  72.065  1.00  0.00    -0.031 C 
ATOM     22  C   UNL     1      78.138  93.260  72.328  1.00  0.00    -0.028 C 
BRANCH  22  23
ATOM     23  C   UNL     1      78.900  94.459  72.667  1.00  0.00     0.005 C 
ATOM     24  C   UNL     1      78.924  95.440  71.465  1.00  0.00     0.012 C 
ATOM     25  C   UNL     1      78.325  95.115  73.952  1.00  0.00     0.012 C 
ENDBRANCH  22  23
ENDBRANCH  20  21
ENDBRANCH  19  20
ENDBRANCH  18  19
ENDBRANCH   1  18
TORSDOF 11
ENDMDL
MODEL 9
REMARK VINA RESULT:    -5.808     15.916     18.031
REMARK INTER + INTRA:         -10.019
REMARK INTER:                  -9.317
REMARK INTRA:                  -0.702
REMARK UNBOUND:                -0.646
REMARK SMILES COc1cc(CNC(=O)CCCCC/C=C/C(C)C)ccc1O
REMARK SMILES IDX 11 1 10 2 8 3 7 4 9 6 6 7 5 8 3 9 22 10 4 11 21 12 20 13
REMARK SMILES IDX 2 14 1 15 23 16 12 18 13 19 14 20 15 21 16 22 17 23 18 24
REMARK SMILES IDX 19 25
REMARK H PARENT 7 5 23 17
REMARK Flexibility Score: inf
ROOT
ATOM      1  C   UNL     1      97.643  83.287  83.586  1.00  0.00     0.010 C 
ENDROOT
BRANCH   1   2
ATOM      2  C   UNL     1      97.827  83.820  85.031  1.00  0.00     0.100 C 
BRANCH   2   3
ATOM      3  C   UNL     1      96.993  84.993  85.349  1.00  0.00     0.220 C 
ATOM      4  N   UNL     1      95.775  84.821  85.933  1.00  0.00    -0.352 N 
ATOM      5  H   UNL     1      95.493  83.857  86.043  1.00  0.00     0.163 HD
ATOM      6  O   UNL     1      97.452  86.135  85.106  1.00  0.00    -0.275 OA
BRANCH   4   7
ATOM      7  C   UNL     1      94.913  85.867  86.379  1.00  0.00     0.151 C 
BRANCH   7   8
ATOM      8  C   UNL     1      94.905  86.010  87.858  1.00  0.00    -0.025 A 
ATOM      9  C   UNL     1      95.776  87.055  89.907  1.00  0.00     0.160 A 
ATOM     10  C   UNL     1      94.923  86.240  90.684  1.00  0.00     0.157 A 
ATOM     11  C   UNL     1      95.767  86.928  88.503  1.00  0.00     0.056 A 
ATOM     12  C   UNL     1      94.050  85.336  90.052  1.00  0.00     0.050 A 
ATOM     13  C   UNL     1      94.033  85.229  88.648  1.00  0.00     0.009 A 
BRANCH   9  14
ATOM     14  O   UNL     1      96.566  87.999  90.507  1.00  0.00    -0.493 OA
ATOM     15  C   UNL     1      96.927  89.094  89.649  1.00  0.00     0.278 C 
ENDBRANCH   9  14
BRANCH  10  16
ATOM     16  O   UNL     1      94.922  86.310  92.038  1.00  0.00    -0.504 OA
ATOM     17  H   UNL     1      95.389  85.552  92.398  1.00  0.00     0.293 HD
ENDBRANCH  10  16
ENDBRANCH   7   8
ENDBRANCH   4   7
ENDBRANCH   2   3
ENDBRANCH   1   2
BRANCH   1  18
ATOM     18  C   UNL     1      98.549  82.057  83.324  1.00  0.00     0.001 C 
BRANCH  18  19
ATOM     19  C   UNL     1      98.880  81.835  81.826  1.00  0.00     0.004 C 
BRANCH  19  20
ATOM     20  C   UNL     1      98.945  83.183  81.054  1.00  0.00     0.027 C 
BRANCH  20  21
ATOM     21  C   UNL     1      98.480  83.092  79.680  1.00  0.00    -0.031 C 
ATOM     22  C   UNL     1      99.312  83.210  78.631  1.00  0.00    -0.028 C 
BRANCH  22  23
ATOM     23  C   UNL     1      98.878  83.119  77.239  1.00  0.00     0.005 C 
ATOM     24  C   UNL     1      98.643  81.636  76.845  1.00  0.00     0.012 C 
ATOM     25  C   UNL     1      97.617  83.996  77.012  1.00  0.00     0.012 C 
ENDBRANCH  22  23
ENDBRANCH  20  21
ENDBRANCH  19  20
ENDBRANCH  18  19
ENDBRANCH   1  18
TORSDOF 11
ENDMDL
MODEL 10
REMARK VINA RESULT:    -5.736     19.675     23.068
REMARK INTER + INTRA:          -9.903
REMARK INTER:                  -9.074
REMARK INTRA:                  -0.830
REMARK UNBOUND:                -0.646
REMARK SMILES COc1cc(CNC(=O)CCCCC/C=C/C(C)C)ccc1O
REMARK SMILES IDX 11 1 10 2 8 3 7 4 9 6 6 7 5 8 3 9 22 10 4 11 21 12 20 13
REMARK SMILES IDX 2 14 1 15 23 16 12 18 13 19 14 20 15 21 16 22 17 23 18 24
REMARK SMILES IDX 19 25
REMARK H PARENT 7 5 23 17
REMARK Flexibility Score: inf
ROOT
ATOM      1  C   UNL     1      77.455  84.381  66.848  1.00  0.00     0.010 C 
ENDROOT
BRANCH   1   2
ATOM      2  C   UNL     1      78.014  84.147  68.276  1.00  0.00     0.100 C 
BRANCH   2   3
ATOM      3  C   UNL     1      77.793  85.276  69.199  1.00  0.00     0.220 C 
ATOM      4  N   UNL     1      77.342  86.467  68.718  1.00  0.00    -0.352 N 
ATOM      5  H   UNL     1      77.258  86.511  67.712  1.00  0.00     0.163 HD
ATOM      6  O   UNL     1      77.990  85.091  70.423  1.00  0.00    -0.275 OA
BRANCH   4   7
ATOM      7  C   UNL     1      76.996  87.604  69.508  1.00  0.00     0.151 C 
BRANCH   7   8
ATOM      8  C   UNL     1      75.566  87.607  69.911  1.00  0.00    -0.025 A 
ATOM      9  C   UNL     1      73.301  86.660  69.755  1.00  0.00     0.160 A 
ATOM     10  C   UNL     1      72.827  87.652  70.642  1.00  0.00     0.157 A 
ATOM     11  C   UNL     1      74.663  86.650  69.390  1.00  0.00     0.056 A 
ATOM     12  C   UNL     1      73.719  88.597  71.179  1.00  0.00     0.050 A 
ATOM     13  C   UNL     1      75.081  88.569  70.824  1.00  0.00     0.009 A 
BRANCH   9  14
ATOM     14  O   UNL     1      72.459  85.682  69.295  1.00  0.00    -0.493 OA
ATOM     15  C   UNL     1      72.404  85.580  67.863  1.00  0.00     0.278 C 
ENDBRANCH   9  14
BRANCH  10  16
ATOM     16  O   UNL     1      71.519  87.713  70.996  1.00  0.00    -0.504 OA
ATOM     17  H   UNL     1      71.330  88.576  71.373  1.00  0.00     0.293 HD
ENDBRANCH  10  16
ENDBRANCH   7   8
ENDBRANCH   4   7
ENDBRANCH   2   3
ENDBRANCH   1   2
BRANCH   1  18
ATOM     18  C   UNL     1      77.458  83.068  66.024  1.00  0.00     0.001 C 
BRANCH  18  19
ATOM     19  C   UNL     1      76.560  83.123  64.762  1.00  0.00     0.004 C 
BRANCH  19  20
ATOM     20  C   UNL     1      76.296  81.701  64.193  1.00  0.00     0.027 C 
BRANCH  20  21
ATOM     21  C   UNL     1      74.885  81.377  64.060  1.00  0.00    -0.031 C 
ATOM     22  C   UNL     1      74.148  80.941  65.097  1.00  0.00    -0.028 C 
BRANCH  22  23
ATOM     23  C   UNL     1      72.728  80.613  64.998  1.00  0.00     0.005 C 
ATOM     24  C   UNL     1      71.863  81.841  65.387  1.00  0.00     0.012 C 
ATOM     25  C   UNL     1      72.397  80.085  63.576  1.00  0.00     0.012 C 
ENDBRANCH  22  23
ENDBRANCH  20  21
ENDBRANCH  19  20
ENDBRANCH  18  19
ENDBRANCH   1  18
TORSDOF 11
ENDMDL
