MODEL 1
REMARK VINA RESULT:    -7.140      0.000      0.000
REMARK INTER + INTRA:          -8.750
REMARK INTER:                  -8.393
REMARK INTRA:                  -0.358
REMARK UNBOUND:                -0.358
REMARK SMILES O=C(/C=C/C=C/c1ccc2c(c1)OCO2)N1CCCCC1
REMARK SMILES IDX 3 1 4 2 2 3 1 4 16 5 17 6 21 7 18 8 20 9 19 10 5 11 6 12
REMARK SMILES IDX 7 13 12 14 8 15 11 16 9 17 13 18 10 19 14 20 15 21
REMARK H PARENT
REMARK Flexibility Score: inf
ROOT
ATOM      1  C   UNL     1      98.569  82.789  81.114  1.00  0.00     0.071 C 
ATOM      2  C   UNL     1      98.904  82.415  82.347  1.00  0.00     0.006 C 
ENDROOT
BRANCH   1   3
ATOM      3  C   UNL     1      99.603  82.722  80.062  1.00  0.00     0.246 C 
ATOM      4  O   UNL     1     100.685  82.215  80.360  1.00  0.00    -0.270 OA
ATOM      5  N   UNL     1      99.288  83.241  78.807  1.00  0.00    -0.339 N 
ATOM      6  C   UNL     1     100.297  83.194  77.744  1.00  0.00     0.120 C 
ATOM      7  C   UNL     1      98.026  83.894  78.429  1.00  0.00     0.120 C 
ATOM      8  C   UNL     1      99.744  82.545  76.480  1.00  0.00     0.022 C 
ATOM      9  C   UNL     1      97.441  83.273  77.161  1.00  0.00     0.022 C 
ATOM     10  C   UNL     1      98.462  83.236  76.027  1.00  0.00     0.004 C 
ENDBRANCH   1   3
BRANCH   2  11
ATOM     11  C   UNL     1      97.961  82.446  83.444  1.00  0.00     0.001 C 
ATOM     12  C   UNL     1      97.629  83.578  84.085  1.00  0.00     0.008 C 
BRANCH  12  13
ATOM     13  C   UNL     1      96.682  83.665  85.210  1.00  0.00    -0.022 A 
ATOM     14  C   UNL     1      96.350  84.913  85.718  1.00  0.00     0.058 A 
ATOM     15  C   UNL     1      96.145  82.487  85.736  1.00  0.00     0.012 A 
ATOM     16  C   UNL     1      95.459  84.943  86.772  1.00  0.00     0.166 A 
ATOM     17  C   UNL     1      95.245  82.547  86.802  1.00  0.00     0.051 A 
ATOM     18  O   UNL     1      95.011  86.061  87.406  1.00  0.00    -0.454 OA
ATOM     19  C   UNL     1      94.921  83.792  87.300  1.00  0.00     0.165 A 
ATOM     20  C   UNL     1      94.131  85.484  88.392  1.00  0.00     0.468 C 
ATOM     21  O   UNL     1      94.069  84.044  88.330  1.00  0.00    -0.454 OA
ENDBRANCH  12  13
ENDBRANCH   2  11
TORSDOF 3
ENDMDL
MODEL 2
REMARK VINA RESULT:    -7.069      2.721      8.907
REMARK INTER + INTRA:          -8.666
REMARK INTER:                  -8.277
REMARK INTRA:                  -0.388
REMARK UNBOUND:                -0.358
REMARK SMILES O=C(/C=C/C=C/c1ccc2c(c1)OCO2)N1CCCCC1
REMARK SMILES IDX 3 1 4 2 2 3 1 4 16 5 17 6 21 7 18 8 20 9 19 10 5 11 6 12
REMARK SMILES IDX 7 13 12 14 8 15 11 16 9 17 13 18 10 19 14 20 15 21
REMARK H PARENT
REMARK Flexibility Score: inf
ROOT
ATOM      1  C   UNL     1      96.662  82.857  85.160  1.00  0.00     0.071 C 
ATOM      2  C   UNL     1      97.714  82.155  84.743  1.00  0.00     0.006 C 
ENDROOT
BRANCH   1   3
ATOM      3  C   UNL     1      96.324  82.814  86.596  1.00  0.00     0.246 C 
ATOM      4  O   UNL     1      96.602  81.787  87.216  1.00  0.00    -0.270 OA
ATOM      5  N   UNL     1      95.709  83.935  87.152  1.00  0.00    -0.339 N 
ATOM      6  C   UNL     1      95.355  83.920  88.575  1.00  0.00     0.120 C 
ATOM      7  C   UNL     1      95.321  85.159  86.435  1.00  0.00     0.120 C 
ATOM      8  C   UNL     1      95.916  85.138  89.301  1.00  0.00     0.022 C 
ATOM      9  C   UNL     1      95.863  86.405  87.135  1.00  0.00     0.022 C 
ATOM     10  C   UNL     1      95.485  86.430  88.614  1.00  0.00     0.004 C 
ENDBRANCH   1   3
BRANCH   2  11
ATOM     11  C   UNL     1      98.124  82.133  83.355  1.00  0.00     0.001 C 
ATOM     12  C   UNL     1      97.910  83.161  82.518  1.00  0.00     0.008 C 
BRANCH  12  13
ATOM     13  C   UNL     1      98.299  83.189  81.098  1.00  0.00    -0.022 A 
ATOM     14  C   UNL     1      97.334  83.468  80.139  1.00  0.00     0.058 A 
ATOM     15  C   UNL     1      99.629  82.934  80.754  1.00  0.00     0.012 A 
ATOM     16  C   UNL     1      97.746  83.483  78.823  1.00  0.00     0.166 A 
ATOM     17  C   UNL     1     100.018  82.956  79.413  1.00  0.00     0.051 A 
ATOM     18  O   UNL     1      96.956  83.733  77.742  1.00  0.00    -0.454 OA
ATOM     19  C   UNL     1      99.052  83.234  78.469  1.00  0.00     0.165 A 
ATOM     20  C   UNL     1      97.913  83.613  76.669  1.00  0.00     0.468 C 
ATOM     21  O   UNL     1      99.245  83.297  77.123  1.00  0.00    -0.454 OA
ENDBRANCH  12  13
ENDBRANCH   2  11
TORSDOF 3
ENDMDL
MODEL 3
REMARK VINA RESULT:    -6.932      2.829      8.939
REMARK INTER + INTRA:          -8.506
REMARK INTER:                  -8.101
REMARK INTRA:                  -0.404
REMARK UNBOUND:                -0.358
REMARK SMILES O=C(/C=C/C=C/c1ccc2c(c1)OCO2)N1CCCCC1
REMARK SMILES IDX 3 1 4 2 2 3 1 4 16 5 17 6 21 7 18 8 20 9 19 10 5 11 6 12
REMARK SMILES IDX 7 13 12 14 8 15 11 16 9 17 13 18 10 19 14 20 15 21
REMARK H PARENT
REMARK Flexibility Score: inf
ROOT
ATOM      1  C   UNL     1      97.790  81.972  84.051  1.00  0.00     0.071 C 
ATOM      2  C   UNL     1      98.942  82.338  83.491  1.00  0.00     0.006 C 
ENDROOT
BRANCH   1   3
ATOM      3  C   UNL     1      97.716  81.933  85.525  1.00  0.00     0.246 C 
ATOM      4  O   UNL     1      98.341  81.043  86.103  1.00  0.00    -0.270 OA
ATOM      5  N   UNL     1      96.943  82.902  86.163  1.00  0.00    -0.339 N 
ATOM      6  C   UNL     1      96.846  82.886  87.626  1.00  0.00     0.120 C 
ATOM      7  C   UNL     1      96.149  83.951  85.506  1.00  0.00     0.120 C 
ATOM      8  C   UNL     1      97.198  84.244  88.223  1.00  0.00     0.022 C 
ATOM      9  C   UNL     1      96.471  85.330  86.081  1.00  0.00     0.022 C 
ATOM     10  C   UNL     1      96.350  85.350  87.602  1.00  0.00     0.004 C 
ENDBRANCH   1   3
BRANCH   2  11
ATOM     11  C   UNL     1      99.111  82.406  82.055  1.00  0.00     0.001 C 
ATOM     12  C   UNL     1      98.345  83.179  81.269  1.00  0.00     0.008 C 
BRANCH  12  13
ATOM     13  C   UNL     1      98.469  83.279  79.805  1.00  0.00    -0.022 A 
ATOM     14  C   UNL     1      99.706  83.058  79.215  1.00  0.00     0.058 A 
ATOM     15  C   UNL     1      97.337  83.595  79.049  1.00  0.00     0.012 A 
ATOM     16  C   UNL     1      99.772  83.163  77.841  1.00  0.00     0.166 A 
ATOM     17  C   UNL     1      97.432  83.695  77.659  1.00  0.00     0.051 A 
ATOM     18  O   UNL     1     100.886  82.985  77.079  1.00  0.00    -0.454 OA
ATOM     19  C   UNL     1      98.665  83.473  77.083  1.00  0.00     0.165 A 
ATOM     20  C   UNL     1     100.356  83.218  75.758  1.00  0.00     0.468 C 
ATOM     21  O   UNL     1      98.948  83.528  75.753  1.00  0.00    -0.454 OA
ENDBRANCH  12  13
ENDBRANCH   2  11
TORSDOF 3
ENDMDL
MODEL 4
REMARK VINA RESULT:    -6.867      3.442      9.034
REMARK INTER + INTRA:          -8.429
REMARK INTER:                  -8.066
REMARK INTRA:                  -0.363
REMARK UNBOUND:                -0.358
REMARK SMILES O=C(/C=C/C=C/c1ccc2c(c1)OCO2)N1CCCCC1
REMARK SMILES IDX 3 1 4 2 2 3 1 4 16 5 17 6 21 7 18 8 20 9 19 10 5 11 6 12
REMARK SMILES IDX 7 13 12 14 8 15 11 16 9 17 13 18 10 19 14 20 15 21
REMARK H PARENT
REMARK Flexibility Score: inf
ROOT
ATOM      1  C   UNL     1      97.561  83.612  85.219  1.00  0.00     0.071 C 
ATOM      2  C   UNL     1      97.779  82.723  84.251  1.00  0.00     0.006 C 
ENDROOT
BRANCH   1   3
ATOM      3  C   UNL     1      97.386  83.110  86.596  1.00  0.00     0.246 C 
ATOM      4  O   UNL     1      96.393  82.419  86.828  1.00  0.00    -0.270 OA
ATOM      5  N   UNL     1      98.350  83.456  87.541  1.00  0.00    -0.339 N 
ATOM      6  C   UNL     1      98.200  82.977  88.919  1.00  0.00     0.120 C 
ATOM      7  C   UNL     1      99.522  84.314  87.313  1.00  0.00     0.120 C 
ATOM      8  C   UNL     1      99.459  82.264  89.401  1.00  0.00     0.022 C 
ATOM      9  C   UNL     1     100.806  83.635  87.788  1.00  0.00     0.022 C 
ATOM     10  C   UNL     1     100.688  83.151  89.231  1.00  0.00     0.004 C 
ENDBRANCH   1   3
BRANCH   2  11
ATOM     11  C   UNL     1      97.963  83.118  82.871  1.00  0.00     0.001 C 
ATOM     12  C   UNL     1      98.550  82.325  81.960  1.00  0.00     0.008 C 
BRANCH  12  13
ATOM     13  C   UNL     1      98.769  82.680  80.548  1.00  0.00    -0.022 A 
ATOM     14  C   UNL     1      97.729  83.246  79.824  1.00  0.00     0.058 A 
ATOM     15  C   UNL     1     100.020  82.436  79.974  1.00  0.00     0.012 A 
ATOM     16  C   UNL     1      97.982  83.561  78.505  1.00  0.00     0.166 A 
ATOM     17  C   UNL     1     100.249  82.765  78.637  1.00  0.00     0.051 A 
ATOM     18  O   UNL     1      97.098  84.119  77.633  1.00  0.00    -0.454 OA
ATOM     19  C   UNL     1      99.209  83.327  77.927  1.00  0.00     0.165 A 
ATOM     20  C   UNL     1      97.905  84.209  76.442  1.00  0.00     0.468 C 
ATOM     21  O   UNL     1      99.246  83.709  76.621  1.00  0.00    -0.454 OA
ENDBRANCH  12  13
ENDBRANCH   2  11
TORSDOF 3
ENDMDL
MODEL 5
REMARK VINA RESULT:    -6.758      2.450      2.945
REMARK INTER + INTRA:          -8.301
REMARK INTER:                  -7.988
REMARK INTRA:                  -0.313
REMARK UNBOUND:                -0.358
REMARK SMILES O=C(/C=C/C=C/c1ccc2c(c1)OCO2)N1CCCCC1
REMARK SMILES IDX 3 1 4 2 2 3 1 4 16 5 17 6 21 7 18 8 20 9 19 10 5 11 6 12
REMARK SMILES IDX 7 13 12 14 8 15 11 16 9 17 13 18 10 19 14 20 15 21
REMARK H PARENT
REMARK Flexibility Score: inf
ROOT
ATOM      1  C   UNL     1      98.450  82.959  79.707  1.00  0.00     0.071 C 
ATOM      2  C   UNL     1      97.905  83.550  80.769  1.00  0.00     0.006 C 
ENDROOT
BRANCH   1   3
ATOM      3  C   UNL     1      98.168  83.528  78.374  1.00  0.00     0.246 C 
ATOM      4  O   UNL     1      97.093  84.108  78.219  1.00  0.00    -0.270 OA
ATOM      5  N   UNL     1      99.133  83.366  77.381  1.00  0.00    -0.339 N 
ATOM      6  C   UNL     1      98.879  83.915  76.046  1.00  0.00     0.120 C 
ATOM      7  C   UNL     1     100.406  82.641  77.516  1.00  0.00     0.120 C 
ATOM      8  C   UNL     1     100.027  84.805  75.582  1.00  0.00     0.022 C 
ATOM      9  C   UNL     1     101.583  83.501  77.057  1.00  0.00     0.022 C 
ATOM     10  C   UNL     1     101.358  84.063  75.656  1.00  0.00     0.004 C 
ENDBRANCH   1   3
BRANCH   2  11
ATOM     11  C   UNL     1      98.123  83.066  82.115  1.00  0.00     0.001 C 
ATOM     12  C   UNL     1      97.464  83.555  83.178  1.00  0.00     0.008 C 
BRANCH  12  13
ATOM     13  C   UNL     1      97.652  83.105  84.568  1.00  0.00    -0.022 A 
ATOM     14  C   UNL     1      97.981  84.039  85.541  1.00  0.00     0.058 A 
ATOM     15  C   UNL     1      97.494  81.750  84.869  1.00  0.00     0.012 A 
ATOM     16  C   UNL     1      98.146  83.570  86.828  1.00  0.00     0.166 A 
ATOM     17  C   UNL     1      97.667  81.303  86.181  1.00  0.00     0.051 A 
ATOM     18  O   UNL     1      98.469  84.322  87.916  1.00  0.00    -0.454 OA
ATOM     19  C   UNL     1      97.994  82.238  87.140  1.00  0.00     0.165 A 
ATOM     20  C   UNL     1      98.503  83.314  88.947  1.00  0.00     0.468 C 
ATOM     21  O   UNL     1      98.202  81.989  88.462  1.00  0.00    -0.454 OA
ENDBRANCH  12  13
ENDBRANCH   2  11
TORSDOF 3
ENDMDL
MODEL 6
REMARK VINA RESULT:    -6.753      3.350      9.213
REMARK INTER + INTRA:          -8.295
REMARK INTER:                  -7.963
REMARK INTRA:                  -0.332
REMARK UNBOUND:                -0.358
REMARK SMILES O=C(/C=C/C=C/c1ccc2c(c1)OCO2)N1CCCCC1
REMARK SMILES IDX 3 1 4 2 2 3 1 4 16 5 17 6 21 7 18 8 20 9 19 10 5 11 6 12
REMARK SMILES IDX 7 13 12 14 8 15 11 16 9 17 13 18 10 19 14 20 15 21
REMARK H PARENT
REMARK Flexibility Score: inf
ROOT
ATOM      1  C   UNL     1      94.776  82.384  86.320  1.00  0.00     0.071 C 
ATOM      2  C   UNL     1      96.079  82.661  86.307  1.00  0.00     0.006 C 
ENDROOT
BRANCH   1   3
ATOM      3  C   UNL     1      93.997  82.767  87.515  1.00  0.00     0.246 C 
ATOM      4  O   UNL     1      94.526  83.538  88.316  1.00  0.00    -0.270 OA
ATOM      5  N   UNL     1      92.720  82.227  87.658  1.00  0.00    -0.339 N 
ATOM      6  C   UNL     1      91.925  82.584  88.836  1.00  0.00     0.120 C 
ATOM      7  C   UNL     1      92.074  81.270  86.747  1.00  0.00     0.120 C 
ATOM      8  C   UNL     1      90.546  83.103  88.441  1.00  0.00     0.022 C 
ATOM      9  C   UNL     1      90.685  81.753  86.331  1.00  0.00     0.022 C 
ATOM     10  C   UNL     1      89.825  82.106  87.540  1.00  0.00     0.004 C 
ENDBRANCH   1   3
BRANCH   2  11
ATOM     11  C   UNL     1      96.925  82.324  85.182  1.00  0.00     0.001 C 
ATOM     12  C   UNL     1      97.375  83.242  84.311  1.00  0.00     0.008 C 
BRANCH  12  13
ATOM     13  C   UNL     1      98.230  82.954  83.147  1.00  0.00    -0.022 A 
ATOM     14  C   UNL     1      97.884  83.476  81.908  1.00  0.00     0.058 A 
ATOM     15  C   UNL     1      99.368  82.162  83.322  1.00  0.00     0.012 A 
ATOM     16  C   UNL     1      98.716  83.178  80.848  1.00  0.00     0.166 A 
ATOM     17  C   UNL     1     100.193  81.877  82.231  1.00  0.00     0.051 A 
ATOM     18  O   UNL     1      98.549  83.592  79.562  1.00  0.00    -0.454 OA
ATOM     19  C   UNL     1      99.840  82.400  81.005  1.00  0.00     0.165 A 
ATOM     20  C   UNL     1      99.694  82.986  78.928  1.00  0.00     0.468 C 
ATOM     21  O   UNL     1     100.518  82.229  79.838  1.00  0.00    -0.454 OA
ENDBRANCH  12  13
ENDBRANCH   2  11
TORSDOF 3
ENDMDL
MODEL 7
REMARK VINA RESULT:    -6.735      2.327      3.428
REMARK INTER + INTRA:          -8.274
REMARK INTER:                  -7.888
REMARK INTRA:                  -0.385
REMARK UNBOUND:                -0.358
REMARK SMILES O=C(/C=C/C=C/c1ccc2c(c1)OCO2)N1CCCCC1
REMARK SMILES IDX 3 1 4 2 2 3 1 4 16 5 17 6 21 7 18 8 20 9 19 10 5 11 6 12
REMARK SMILES IDX 7 13 12 14 8 15 11 16 9 17 13 18 10 19 14 20 15 21
REMARK H PARENT
REMARK Flexibility Score: inf
ROOT
ATOM      1  C   UNL     1      99.989  82.536  79.731  1.00  0.00     0.071 C 
ATOM      2  C   UNL     1      98.833  83.189  79.833  1.00  0.00     0.006 C 
ENDROOT
BRANCH   1   3
ATOM      3  C   UNL     1     100.658  82.510  78.415  1.00  0.00     0.246 C 
ATOM      4  O   UNL     1     100.125  83.127  77.493  1.00  0.00    -0.270 OA
ATOM      5  N   UNL     1     101.844  81.785  78.304  1.00  0.00    -0.339 N 
ATOM      6  C   UNL     1     102.529  81.736  77.009  1.00  0.00     0.120 C 
ATOM      7  C   UNL     1     102.486  81.000  79.369  1.00  0.00     0.120 C 
ATOM      8  C   UNL     1     103.992  82.145  77.136  1.00  0.00     0.022 C 
ATOM      9  C   UNL     1     103.958  81.380  79.526  1.00  0.00     0.022 C 
ATOM     10  C   UNL     1     104.703  81.310  78.196  1.00  0.00     0.004 C 
ENDBRANCH   1   3
BRANCH   2  11
ATOM     11  C   UNL     1      98.102  83.271  81.080  1.00  0.00     0.001 C 
ATOM     12  C   UNL     1      98.540  82.706  82.216  1.00  0.00     0.008 C 
BRANCH  12  13
ATOM     13  C   UNL     1      97.834  82.751  83.508  1.00  0.00    -0.022 A 
ATOM     14  C   UNL     1      97.276  83.949  83.931  1.00  0.00     0.058 A 
ATOM     15  C   UNL     1      97.745  81.585  84.273  1.00  0.00     0.012 A 
ATOM     16  C   UNL     1      96.624  83.941  85.148  1.00  0.00     0.166 A 
ATOM     17  C   UNL     1      97.080  81.605  85.501  1.00  0.00     0.051 A 
ATOM     18  O   UNL     1      96.016  85.009  85.734  1.00  0.00    -0.454 OA
ATOM     19  C   UNL     1      96.529  82.801  85.912  1.00  0.00     0.165 A 
ATOM     20  C   UNL     1      95.527  84.412  86.952  1.00  0.00     0.468 C 
ATOM     21  O   UNL     1      95.849  83.011  87.072  1.00  0.00    -0.454 OA
ENDBRANCH  12  13
ENDBRANCH   2  11
TORSDOF 3
ENDMDL
MODEL 8
REMARK VINA RESULT:    -6.613     23.955     26.133
REMARK INTER + INTRA:          -8.131
REMARK INTER:                  -7.752
REMARK INTRA:                  -0.379
REMARK UNBOUND:                -0.358
REMARK SMILES O=C(/C=C/C=C/c1ccc2c(c1)OCO2)N1CCCCC1
REMARK SMILES IDX 3 1 4 2 2 3 1 4 16 5 17 6 21 7 18 8 20 9 19 10 5 11 6 12
REMARK SMILES IDX 7 13 12 14 8 15 11 16 9 17 13 18 10 19 14 20 15 21
REMARK H PARENT
REMARK Flexibility Score: inf
ROOT
ATOM      1  C   UNL     1      75.381  91.612  71.599  1.00  0.00     0.071 C 
ATOM      2  C   UNL     1      75.057  91.242  70.362  1.00  0.00     0.006 C 
ENDROOT
BRANCH   1   3
ATOM      3  C   UNL     1      75.232  93.036  71.960  1.00  0.00     0.246 C 
ATOM      4  O   UNL     1      74.258  93.639  71.508  1.00  0.00    -0.270 OA
ATOM      5  N   UNL     1      76.204  93.604  72.782  1.00  0.00    -0.339 N 
ATOM      6  C   UNL     1      76.086  95.017  73.153  1.00  0.00     0.120 C 
ATOM      7  C   UNL     1      77.403  92.929  73.304  1.00  0.00     0.120 C 
ATOM      8  C   UNL     1      76.162  95.205  74.664  1.00  0.00     0.022 C 
ATOM      9  C   UNL     1      77.517  93.098  74.819  1.00  0.00     0.022 C 
ATOM     10  C   UNL     1      77.426  94.565  75.231  1.00  0.00     0.004 C 
ENDBRANCH   1   3
BRANCH   2  11
ATOM     11  C   UNL     1      75.170  89.870  69.915  1.00  0.00     0.001 C 
ATOM     12  C   UNL     1      76.080  89.017  70.411  1.00  0.00     0.008 C 
BRANCH  12  13
ATOM     13  C   UNL     1      76.244  87.616  69.987  1.00  0.00    -0.022 A 
ATOM     14  C   UNL     1      77.372  87.256  69.262  1.00  0.00     0.058 A 
ATOM     15  C   UNL     1      75.257  86.686  70.327  1.00  0.00     0.012 A 
ATOM     16  C   UNL     1      77.480  85.932  68.889  1.00  0.00     0.166 A 
ATOM     17  C   UNL     1      75.393  85.352  69.935  1.00  0.00     0.051 A 
ATOM     18  O   UNL     1      78.504  85.385  68.177  1.00  0.00    -0.454 OA
ATOM     19  C   UNL     1      76.517  85.005  69.216  1.00  0.00     0.165 A 
ATOM     20  C   UNL     1      78.076  84.010  68.094  1.00  0.00     0.468 C 
ATOM     21  O   UNL     1      76.817  83.762  68.751  1.00  0.00    -0.454 OA
ENDBRANCH  12  13
ENDBRANCH   2  11
TORSDOF 3
ENDMDL
MODEL 9
REMARK VINA RESULT:    -6.360     24.375     25.735
REMARK INTER + INTRA:          -7.833
REMARK INTER:                  -7.435
REMARK INTRA:                  -0.398
REMARK UNBOUND:                -0.358
REMARK SMILES O=C(/C=C/C=C/c1ccc2c(c1)OCO2)N1CCCCC1
REMARK SMILES IDX 3 1 4 2 2 3 1 4 16 5 17 6 21 7 18 8 20 9 19 10 5 11 6 12
REMARK SMILES IDX 7 13 12 14 8 15 11 16 9 17 13 18 10 19 14 20 15 21
REMARK H PARENT
REMARK Flexibility Score: inf
ROOT
ATOM      1  C   UNL     1      75.614  88.199  70.509  1.00  0.00     0.071 C 
ATOM      2  C   UNL     1      74.862  89.208  70.074  1.00  0.00     0.006 C 
ENDROOT
BRANCH   1   3
ATOM      3  C   UNL     1      75.204  86.825  70.157  1.00  0.00     0.246 C 
ATOM      4  O   UNL     1      74.002  86.560  70.202  1.00  0.00    -0.270 OA
ATOM      5  N   UNL     1      76.203  85.919  69.804  1.00  0.00    -0.339 N 
ATOM      6  C   UNL     1      75.827  84.546  69.454  1.00  0.00     0.120 C 
ATOM      7  C   UNL     1      77.649  86.185  69.783  1.00  0.00     0.120 C 
ATOM      8  C   UNL     1      76.404  84.137  68.103  1.00  0.00     0.022 C 
ATOM      9  C   UNL     1      78.266  85.784  68.443  1.00  0.00     0.022 C 
ATOM     10  C   UNL     1      77.914  84.348  68.067  1.00  0.00     0.004 C 
ENDBRANCH   1   3
BRANCH   2  11
ATOM     11  C   UNL     1      75.182  90.589  70.367  1.00  0.00     0.001 C 
ATOM     12  C   UNL     1      76.083  90.944  71.298  1.00  0.00     0.008 C 
BRANCH  12  13
ATOM     13  C   UNL     1      76.440  92.330  71.642  1.00  0.00    -0.022 A 
ATOM     14  C   UNL     1      75.579  93.359  71.283  1.00  0.00     0.058 A 
ATOM     15  C   UNL     1      77.637  92.573  72.321  1.00  0.00     0.012 A 
ATOM     16  C   UNL     1      75.957  94.640  71.627  1.00  0.00     0.166 A 
ATOM     17  C   UNL     1      77.994  93.881  72.657  1.00  0.00     0.051 A 
ATOM     18  O   UNL     1      75.255  95.777  71.365  1.00  0.00    -0.454 OA
ATOM     19  C   UNL     1      77.132  94.895  72.296  1.00  0.00     0.165 A 
ATOM     20  C   UNL     1      76.120  96.774  71.944  1.00  0.00     0.468 C 
ATOM     21  O   UNL     1      77.313  96.222  72.537  1.00  0.00    -0.454 OA
ENDBRANCH  12  13
ENDBRANCH   2  11
TORSDOF 3
ENDMDL
MODEL 10
REMARK VINA RESULT:    -6.260      2.923      9.376
REMARK INTER + INTRA:          -7.715
REMARK INTER:                  -7.353
REMARK INTRA:                  -0.363
REMARK UNBOUND:                -0.358
REMARK SMILES O=C(/C=C/C=C/c1ccc2c(c1)OCO2)N1CCCCC1
REMARK SMILES IDX 3 1 4 2 2 3 1 4 16 5 17 6 21 7 18 8 20 9 19 10 5 11 6 12
REMARK SMILES IDX 7 13 12 14 8 15 11 16 9 17 13 18 10 19 14 20 15 21
REMARK H PARENT
REMARK Flexibility Score: inf
ROOT
ATOM      1  C   UNL     1      98.909  82.528  82.885  1.00  0.00     0.071 C 
ATOM      2  C   UNL     1      98.641  81.907  81.738  1.00  0.00     0.006 C 
ENDROOT
BRANCH   1   3
ATOM      3  C   UNL     1      98.247  82.038  84.111  1.00  0.00     0.246 C 
ATOM      4  O   UNL     1      98.521  80.899  84.489  1.00  0.00    -0.270 OA
ATOM      5  N   UNL     1      97.355  82.895  84.754  1.00  0.00    -0.339 N 
ATOM      6  C   UNL     1      96.679  82.434  85.971  1.00  0.00     0.120 C 
ATOM      7  C   UNL     1      96.970  84.242  84.309  1.00  0.00     0.120 C 
ATOM      8  C   UNL     1      96.859  83.424  87.117  1.00  0.00     0.022 C 
ATOM      9  C   UNL     1      97.134  85.264  85.434  1.00  0.00     0.022 C 
ATOM     10  C   UNL     1      96.415  84.824  86.706  1.00  0.00     0.004 C 
ENDBRANCH   1   3
BRANCH   2  11
ATOM     11  C   UNL     1      99.241  82.314  80.485  1.00  0.00     0.001 C 
ATOM     12  C   UNL     1      98.539  82.898  79.500  1.00  0.00     0.008 C 
BRANCH  12  13
ATOM     13  C   UNL     1      99.096  83.323  78.204  1.00  0.00    -0.022 A 
ATOM     14  C   UNL     1     100.455  83.171  77.970  1.00  0.00     0.058 A 
ATOM     15  C   UNL     1      98.239  83.870  77.245  1.00  0.00     0.012 A 
ATOM     16  C   UNL     1     100.929  83.584  76.742  1.00  0.00     0.166 A 
ATOM     17  C   UNL     1      98.746  84.280  76.010  1.00  0.00     0.051 A 
ATOM     18  O   UNL     1     102.224  83.520  76.324  1.00  0.00    -0.454 OA
ATOM     19  C   UNL     1     100.098  84.124  75.788  1.00  0.00     0.165 A 
ATOM     20  C   UNL     1     102.112  84.080  74.999  1.00  0.00     0.468 C 
ATOM     21  O   UNL     1     100.766  84.465  74.653  1.00  0.00    -0.454 OA
ENDBRANCH  12  13
ENDBRANCH   2  11
TORSDOF 3
ENDMDL
