MODEL 1
REMARK VINA RESULT:    -6.162      0.000      0.000
REMARK INTER + INTRA:         -10.330
REMARK INTER:                  -9.584
REMARK INTRA:                  -0.746
REMARK UNBOUND:                -0.746
REMARK SMILES COc1cc(CNC(=O)CCCC/C=C/C(C)C)ccc1O
REMARK SMILES IDX 10 1 8 2 7 3 9 5 6 6 5 7 3 8 21 9 4 10 20 11 19 12 2 13 1 14
REMARK SMILES IDX 22 15 11 17 12 18 13 19 14 20 15 21 16 22 17 23 18 24
REMARK H PARENT 7 4 22 16
REMARK Flexibility Score: inf
ROOT
ATOM      1  C   UNL     1      74.769  81.933  65.800  1.00  0.00     0.100 C 
ENDROOT
BRANCH   1   2
ATOM      2  C   UNL     1      73.755  81.551  64.798  1.00  0.00     0.220 C 
ATOM      3  N   UNL     1      72.557  81.034  65.190  1.00  0.00    -0.352 N 
ATOM      4  H   UNL     1      72.447  80.920  66.188  1.00  0.00     0.163 HD
ATOM      5  O   UNL     1      74.020  81.738  63.586  1.00  0.00    -0.275 OA
BRANCH   3   6
ATOM      6  C   UNL     1      71.500  80.663  64.304  1.00  0.00     0.151 C 
BRANCH   6   7
ATOM      7  C   UNL     1      70.454  81.719  64.229  1.00  0.00    -0.025 A 
ATOM      8  C   UNL     1      69.076  83.433  65.338  1.00  0.00     0.160 A 
ATOM      9  C   UNL     1      68.475  83.750  64.102  1.00  0.00     0.157 A 
ATOM     10  C   UNL     1      70.057  82.421  65.390  1.00  0.00     0.056 A 
ATOM     11  C   UNL     1      68.846  83.046  62.940  1.00  0.00     0.050 A 
ATOM     12  C   UNL     1      69.835  82.045  63.000  1.00  0.00     0.009 A 
BRANCH   8  13
ATOM     13  O   UNL     1      68.671  84.070  66.483  1.00  0.00    -0.493 OA
ATOM     14  C   UNL     1      69.706  84.208  67.475  1.00  0.00     0.278 C 
ENDBRANCH   8  13
BRANCH   9  15
ATOM     15  O   UNL     1      67.537  84.728  64.015  1.00  0.00    -0.504 OA
ATOM     16  H   UNL     1      67.432  85.149  64.871  1.00  0.00     0.293 HD
ENDBRANCH   9  15
ENDBRANCH   6   7
ENDBRANCH   3   6
ENDBRANCH   1   2
BRANCH   1  17
ATOM     17  C   UNL     1      76.112  82.331  65.131  1.00  0.00     0.010 C 
BRANCH  17  18
ATOM     18  C   UNL     1      76.527  83.799  65.434  1.00  0.00     0.005 C 
BRANCH  18  19
ATOM     19  C   UNL     1      77.529  83.898  66.615  1.00  0.00     0.027 C 
BRANCH  19  20
ATOM     20  C   UNL     1      77.232  85.020  67.493  1.00  0.00    -0.031 C 
ATOM     21  C   UNL     1      77.188  86.303  67.091  1.00  0.00    -0.028 C 
BRANCH  21  22
ATOM     22  C   UNL     1      76.867  87.414  67.986  1.00  0.00     0.005 C 
ATOM     23  C   UNL     1      77.423  88.769  67.467  1.00  0.00     0.012 C 
ATOM     24  C   UNL     1      75.335  87.495  68.212  1.00  0.00     0.012 C 
ENDBRANCH  21  22
ENDBRANCH  19  20
ENDBRANCH  18  19
ENDBRANCH  17  18
ENDBRANCH   1  17
TORSDOF 10
ENDMDL
MODEL 2
REMARK VINA RESULT:    -5.939     25.405     27.813
REMARK INTER + INTRA:          -9.983
REMARK INTER:                  -9.444
REMARK INTRA:                  -0.539
REMARK UNBOUND:                -0.746
REMARK SMILES COc1cc(CNC(=O)CCCC/C=C/C(C)C)ccc1O
REMARK SMILES IDX 10 1 8 2 7 3 9 5 6 6 5 7 3 8 21 9 4 10 20 11 19 12 2 13 1 14
REMARK SMILES IDX 22 15 11 17 12 18 13 19 14 20 15 21 16 22 17 23 18 24
REMARK H PARENT 7 4 22 16
REMARK Flexibility Score: inf
ROOT
ATOM      1  C   UNL     1      94.968  81.462  83.797  1.00  0.00     0.100 C 
ENDROOT
BRANCH   1   2
ATOM      2  C   UNL     1      94.292  81.999  84.993  1.00  0.00     0.220 C 
ATOM      3  N   UNL     1      92.933  82.098  85.034  1.00  0.00    -0.352 N 
ATOM      4  H   UNL     1      92.459  81.803  84.192  1.00  0.00     0.163 HD
ATOM      5  O   UNL     1      95.000  82.337  85.972  1.00  0.00    -0.275 OA
BRANCH   3   6
ATOM      6  C   UNL     1      92.184  82.573  86.153  1.00  0.00     0.151 C 
BRANCH   6   7
ATOM      7  C   UNL     1      90.998  81.714  86.421  1.00  0.00    -0.025 A 
ATOM      8  C   UNL     1      89.636  79.736  85.877  1.00  0.00     0.160 A 
ATOM      9  C   UNL     1      88.752  80.055  86.929  1.00  0.00     0.157 A 
ATOM     10  C   UNL     1      90.748  80.569  85.631  1.00  0.00     0.056 A 
ATOM     11  C   UNL     1      88.978  81.204  87.712  1.00  0.00     0.050 A 
ATOM     12  C   UNL     1      90.098  82.023  87.467  1.00  0.00     0.009 A 
BRANCH   8  13
ATOM     13  O   UNL     1      89.384  78.655  85.071  1.00  0.00    -0.493 OA
ATOM     14  C   UNL     1      88.778  78.993  83.809  1.00  0.00     0.278 C 
ENDBRANCH   8  13
BRANCH   9  15
ATOM     15  O   UNL     1      87.680  79.267  87.201  1.00  0.00    -0.504 OA
ATOM     16  H   UNL     1      86.963  79.807  87.542  1.00  0.00     0.293 HD
ENDBRANCH   9  15
ENDBRANCH   6   7
ENDBRANCH   3   6
ENDBRANCH   1   2
BRANCH   1  17
ATOM     17  C   UNL     1      96.412  82.014  83.658  1.00  0.00     0.010 C 
BRANCH  17  18
ATOM     18  C   UNL     1      96.683  82.658  82.269  1.00  0.00     0.005 C 
BRANCH  18  19
ATOM     19  C   UNL     1      97.057  81.603  81.192  1.00  0.00     0.027 C 
BRANCH  19  20
ATOM     20  C   UNL     1      97.068  82.170  79.852  1.00  0.00    -0.031 C 
ATOM     21  C   UNL     1      97.292  81.458  78.732  1.00  0.00    -0.028 C 
BRANCH  21  22
ATOM     22  C   UNL     1      97.279  82.045  77.393  1.00  0.00     0.005 C 
ATOM     23  C   UNL     1      97.677  81.019  76.296  1.00  0.00     0.012 C 
ATOM     24  C   UNL     1      95.890  82.665  77.093  1.00  0.00     0.012 C 
ENDBRANCH  21  22
ENDBRANCH  19  20
ENDBRANCH  18  19
ENDBRANCH  17  18
ENDBRANCH   1  17
TORSDOF 10
ENDMDL
MODEL 3
REMARK VINA RESULT:    -5.810     26.148     29.326
REMARK INTER + INTRA:          -9.783
REMARK INTER:                  -8.543
REMARK INTRA:                  -1.240
REMARK UNBOUND:                -0.746
REMARK SMILES COc1cc(CNC(=O)CCCC/C=C/C(C)C)ccc1O
REMARK SMILES IDX 10 1 8 2 7 3 9 5 6 6 5 7 3 8 21 9 4 10 20 11 19 12 2 13 1 14
REMARK SMILES IDX 22 15 11 17 12 18 13 19 14 20 15 21 16 22 17 23 18 24
REMARK H PARENT 7 4 22 16
REMARK Flexibility Score: inf
ROOT
ATOM      1  C   UNL     1      97.907  82.571  73.576  1.00  0.00     0.100 C 
ENDROOT
BRANCH   1   2
ATOM      2  C   UNL     1      97.070  82.681  74.787  1.00  0.00     0.220 C 
ATOM      3  N   UNL     1      97.576  82.352  76.009  1.00  0.00    -0.352 N 
ATOM      4  H   UNL     1      98.530  82.018  76.000  1.00  0.00     0.163 HD
ATOM      5  O   UNL     1      95.896  83.105  74.659  1.00  0.00    -0.275 OA
BRANCH   3   6
ATOM      6  C   UNL     1      96.861  82.453  77.241  1.00  0.00     0.151 C 
BRANCH   6   7
ATOM      7  C   UNL     1      97.554  81.721  78.336  1.00  0.00    -0.025 A 
ATOM      8  C   UNL     1      97.821  81.234  80.735  1.00  0.00     0.160 A 
ATOM      9  C   UNL     1      98.851  80.319  80.435  1.00  0.00     0.157 A 
ATOM     10  C   UNL     1      97.184  81.927  79.684  1.00  0.00     0.056 A 
ATOM     11  C   UNL     1      99.244  80.117  79.097  1.00  0.00     0.050 A 
ATOM     12  C   UNL     1      98.594  80.805  78.054  1.00  0.00     0.009 A 
BRANCH   8  13
ATOM     13  O   UNL     1      97.480  81.482  82.040  1.00  0.00    -0.493 OA
ATOM     14  C   UNL     1      96.432  82.456  82.197  1.00  0.00     0.278 C 
ENDBRANCH   8  13
BRANCH   9  15
ATOM     15  O   UNL     1      99.475  79.625  81.422  1.00  0.00    -0.504 OA
ATOM     16  H   UNL     1     100.387  79.918  81.493  1.00  0.00     0.293 HD
ENDBRANCH   9  15
ENDBRANCH   6   7
ENDBRANCH   3   6
ENDBRANCH   1   2
BRANCH   1  17
ATOM     17  C   UNL     1      99.058  83.612  73.580  1.00  0.00     0.010 C 
BRANCH  17  18
ATOM     18  C   UNL     1     100.371  83.060  74.203  1.00  0.00     0.005 C 
BRANCH  18  19
ATOM     19  C   UNL     1     100.546  81.537  73.958  1.00  0.00     0.027 C 
BRANCH  19  20
ATOM     20  C   UNL     1     100.992  80.838  75.153  1.00  0.00    -0.031 C 
ATOM     21  C   UNL     1     102.270  80.491  75.394  1.00  0.00    -0.028 C 
BRANCH  21  22
ATOM     22  C   UNL     1     102.699  79.805  76.613  1.00  0.00     0.005 C 
ATOM     23  C   UNL     1     101.833  78.551  76.919  1.00  0.00     0.012 C 
ATOM     24  C   UNL     1     104.200  79.431  76.517  1.00  0.00     0.012 C 
ENDBRANCH  21  22
ENDBRANCH  19  20
ENDBRANCH  18  19
ENDBRANCH  17  18
ENDBRANCH   1  17
TORSDOF 10
ENDMDL
MODEL 4
REMARK VINA RESULT:    -5.767     19.006     21.853
REMARK INTER + INTRA:          -9.716
REMARK INTER:                  -8.169
REMARK INTRA:                  -1.548
REMARK UNBOUND:                -0.746
REMARK SMILES COc1cc(CNC(=O)CCCC/C=C/C(C)C)ccc1O
REMARK SMILES IDX 10 1 8 2 7 3 9 5 6 6 5 7 3 8 21 9 4 10 20 11 19 12 2 13 1 14
REMARK SMILES IDX 22 15 11 17 12 18 13 19 14 20 15 21 16 22 17 23 18 24
REMARK H PARENT 7 4 22 16
REMARK Flexibility Score: inf
ROOT
ATOM      1  C   UNL     1      82.454  65.099  76.187  1.00  0.00     0.100 C 
ENDROOT
BRANCH   1   2
ATOM      2  C   UNL     1      83.720  65.658  75.673  1.00  0.00     0.220 C 
ATOM      3  N   UNL     1      83.973  66.993  75.764  1.00  0.00    -0.352 N 
ATOM      4  H   UNL     1      83.231  67.541  76.177  1.00  0.00     0.163 HD
ATOM      5  O   UNL     1      84.558  64.867  75.176  1.00  0.00    -0.275 OA
BRANCH   3   6
ATOM      6  C   UNL     1      85.177  67.627  75.328  1.00  0.00     0.151 C 
BRANCH   6   7
ATOM      7  C   UNL     1      84.924  68.558  74.195  1.00  0.00    -0.025 A 
ATOM      8  C   UNL     1      85.314  70.726  73.094  1.00  0.00     0.160 A 
ATOM      9  C   UNL     1      84.469  70.340  72.033  1.00  0.00     0.157 A 
ATOM     10  C   UNL     1      85.532  69.834  74.165  1.00  0.00     0.056 A 
ATOM     11  C   UNL     1      83.841  69.079  72.059  1.00  0.00     0.050 A 
ATOM     12  C   UNL     1      84.073  68.190  73.127  1.00  0.00     0.009 A 
BRANCH   8  13
ATOM     13  O   UNL     1      85.875  71.978  73.106  1.00  0.00    -0.493 OA
ATOM     14  C   UNL     1      85.310  72.865  74.088  1.00  0.00     0.278 C 
ENDBRANCH   8  13
BRANCH   9  15
ATOM     15  O   UNL     1      84.249  71.170  70.981  1.00  0.00    -0.504 OA
ATOM     16  H   UNL     1      84.994  71.127  70.377  1.00  0.00     0.293 HD
ENDBRANCH   9  15
ENDBRANCH   6   7
ENDBRANCH   3   6
ENDBRANCH   1   2
BRANCH   1  17
ATOM     17  C   UNL     1      81.407  66.212  76.461  1.00  0.00     0.010 C 
BRANCH  17  18
ATOM     18  C   UNL     1      80.542  66.549  75.213  1.00  0.00     0.005 C 
BRANCH  18  19
ATOM     19  C   UNL     1      80.239  65.295  74.349  1.00  0.00     0.027 C 
BRANCH  19  20
ATOM     20  C   UNL     1      80.567  65.505  72.947  1.00  0.00    -0.031 C 
ATOM     21  C   UNL     1      81.810  65.416  72.440  1.00  0.00    -0.028 C 
BRANCH  21  22
ATOM     22  C   UNL     1      82.115  65.612  71.022  1.00  0.00     0.005 C 
ATOM     23  C   UNL     1      82.665  64.321  70.354  1.00  0.00     0.012 C 
ATOM     24  C   UNL     1      80.861  66.132  70.272  1.00  0.00     0.012 C 
ENDBRANCH  21  22
ENDBRANCH  19  20
ENDBRANCH  18  19
ENDBRANCH  17  18
ENDBRANCH   1  17
TORSDOF 10
ENDMDL
MODEL 5
REMARK VINA RESULT:    -5.691     21.184     24.024
REMARK INTER + INTRA:          -9.599
REMARK INTER:                  -8.732
REMARK INTRA:                  -0.867
REMARK UNBOUND:                -0.746
REMARK SMILES COc1cc(CNC(=O)CCCC/C=C/C(C)C)ccc1O
REMARK SMILES IDX 10 1 8 2 7 3 9 5 6 6 5 7 3 8 21 9 4 10 20 11 19 12 2 13 1 14
REMARK SMILES IDX 22 15 11 17 12 18 13 19 14 20 15 21 16 22 17 23 18 24
REMARK H PARENT 7 4 22 16
REMARK Flexibility Score: inf
ROOT
ATOM      1  C   UNL     1      79.759  65.263  75.308  1.00  0.00     0.100 C 
ENDROOT
BRANCH   1   2
ATOM      2  C   UNL     1      80.559  64.312  76.104  1.00  0.00     0.220 C 
ATOM      3  N   UNL     1      81.857  64.059  75.778  1.00  0.00    -0.352 N 
ATOM      4  H   UNL     1      82.194  64.547  74.959  1.00  0.00     0.163 HD
ATOM      5  O   UNL     1      80.017  63.767  77.096  1.00  0.00    -0.275 OA
BRANCH   3   6
ATOM      6  C   UNL     1      82.724  63.183  76.500  1.00  0.00     0.151 C 
BRANCH   6   7
ATOM      7  C   UNL     1      83.750  63.940  77.267  1.00  0.00    -0.025 A 
ATOM      8  C   UNL     1      85.046  66.002  77.629  1.00  0.00     0.160 A 
ATOM      9  C   UNL     1      85.690  65.405  78.733  1.00  0.00     0.157 A 
ATOM     10  C   UNL     1      84.085  65.264  76.906  1.00  0.00     0.056 A 
ATOM     11  C   UNL     1      85.380  64.078  79.092  1.00  0.00     0.050 A 
ATOM     12  C   UNL     1      84.411  63.354  78.372  1.00  0.00     0.009 A 
BRANCH   8  13
ATOM     13  O   UNL     1      85.391  67.270  77.235  1.00  0.00    -0.493 OA
ATOM     14  C   UNL     1      84.484  67.856  76.283  1.00  0.00     0.278 C 
ENDBRANCH   8  13
BRANCH   9  15
ATOM     15  O   UNL     1      86.610  66.092  79.457  1.00  0.00    -0.504 OA
ATOM     16  H   UNL     1      87.128  65.477  79.983  1.00  0.00     0.293 HD
ENDBRANCH   9  15
ENDBRANCH   6   7
ENDBRANCH   3   6
ENDBRANCH   1   2
BRANCH   1  17
ATOM     17  C   UNL     1      80.555  66.558  74.994  1.00  0.00     0.010 C 
BRANCH  17  18
ATOM     18  C   UNL     1      80.695  66.827  73.469  1.00  0.00     0.005 C 
BRANCH  18  19
ATOM     19  C   UNL     1      81.270  65.604  72.705  1.00  0.00     0.027 C 
BRANCH  19  20
ATOM     20  C   UNL     1      80.951  65.646  71.286  1.00  0.00    -0.031 C 
ATOM     21  C   UNL     1      81.870  65.682  70.304  1.00  0.00    -0.028 C 
BRANCH  21  22
ATOM     22  C   UNL     1      81.526  65.704  68.883  1.00  0.00     0.005 C 
ATOM     23  C   UNL     1      80.108  65.129  68.611  1.00  0.00     0.012 C 
ATOM     24  C   UNL     1      81.655  67.144  68.322  1.00  0.00     0.012 C 
ENDBRANCH  21  22
ENDBRANCH  19  20
ENDBRANCH  18  19
ENDBRANCH  17  18
ENDBRANCH   1  17
TORSDOF 10
ENDMDL
MODEL 6
REMARK VINA RESULT:    -5.668      5.159      8.001
REMARK INTER + INTRA:          -9.562
REMARK INTER:                  -7.924
REMARK INTRA:                  -1.638
REMARK UNBOUND:                -0.746
REMARK SMILES COc1cc(CNC(=O)CCCC/C=C/C(C)C)ccc1O
REMARK SMILES IDX 10 1 8 2 7 3 9 5 6 6 5 7 3 8 21 9 4 10 20 11 19 12 2 13 1 14
REMARK SMILES IDX 22 15 11 17 12 18 13 19 14 20 15 21 16 22 17 23 18 24
REMARK H PARENT 7 4 22 16
REMARK Flexibility Score: inf
ROOT
ATOM      1  C   UNL     1      75.658  87.524  64.595  1.00  0.00     0.100 C 
ENDROOT
BRANCH   1   2
ATOM      2  C   UNL     1      76.236  87.768  65.931  1.00  0.00     0.220 C 
ATOM      3  N   UNL     1      75.674  88.681  66.771  1.00  0.00    -0.352 N 
ATOM      4  H   UNL     1      74.873  89.170  66.396  1.00  0.00     0.163 HD
ATOM      5  O   UNL     1      77.238  87.095  66.274  1.00  0.00    -0.275 OA
BRANCH   3   6
ATOM      6  C   UNL     1      76.136  88.966  68.092  1.00  0.00     0.151 C 
BRANCH   6   7
ATOM      7  C   UNL     1      75.055  89.544  68.936  1.00  0.00    -0.025 A 
ATOM      8  C   UNL     1      74.217  91.357  70.376  1.00  0.00     0.160 A 
ATOM      9  C   UNL     1      72.996  90.669  70.534  1.00  0.00     0.157 A 
ATOM     10  C   UNL     1      75.235  90.788  69.582  1.00  0.00     0.056 A 
ATOM     11  C   UNL     1      72.810  89.419  69.912  1.00  0.00     0.050 A 
ATOM     12  C   UNL     1      73.827  88.864  69.111  1.00  0.00     0.009 A 
BRANCH   8  13
ATOM     13  O   UNL     1      74.428  92.543  71.033  1.00  0.00    -0.493 OA
ATOM     14  C   UNL     1      75.140  93.525  70.257  1.00  0.00     0.278 C 
ENDBRANCH   8  13
BRANCH   9  15
ATOM     15  O   UNL     1      71.992  91.196  71.281  1.00  0.00    -0.504 OA
ATOM     16  H   UNL     1      71.744  90.574  71.969  1.00  0.00     0.293 HD
ENDBRANCH   9  15
ENDBRANCH   6   7
ENDBRANCH   3   6
ENDBRANCH   1   2
BRANCH   1  17
ATOM     17  C   UNL     1      75.438  86.010  64.333  1.00  0.00     0.010 C 
BRANCH  17  18
ATOM     18  C   UNL     1      74.182  85.447  65.057  1.00  0.00     0.005 C 
BRANCH  18  19
ATOM     19  C   UNL     1      74.485  84.137  65.833  1.00  0.00     0.027 C 
BRANCH  19  20
ATOM     20  C   UNL     1      75.119  84.396  67.117  1.00  0.00    -0.031 C 
ATOM     21  C   UNL     1      74.685  85.311  68.004  1.00  0.00    -0.028 C 
BRANCH  21  22
ATOM     22  C   UNL     1      75.326  85.541  69.298  1.00  0.00     0.005 C 
ATOM     23  C   UNL     1      74.635  84.755  70.446  1.00  0.00     0.012 C 
ATOM     24  C   UNL     1      76.835  85.190  69.218  1.00  0.00     0.012 C 
ENDBRANCH  21  22
ENDBRANCH  19  20
ENDBRANCH  18  19
ENDBRANCH  17  18
ENDBRANCH   1  17
TORSDOF 10
ENDMDL
MODEL 7
REMARK VINA RESULT:    -5.651      8.018     12.347
REMARK INTER + INTRA:          -9.535
REMARK INTER:                  -8.899
REMARK INTRA:                  -0.636
REMARK UNBOUND:                -0.746
REMARK SMILES COc1cc(CNC(=O)CCCC/C=C/C(C)C)ccc1O
REMARK SMILES IDX 10 1 8 2 7 3 9 5 6 6 5 7 3 8 21 9 4 10 20 11 19 12 2 13 1 14
REMARK SMILES IDX 22 15 11 17 12 18 13 19 14 20 15 21 16 22 17 23 18 24
REMARK H PARENT 7 4 22 16
REMARK Flexibility Score: inf
ROOT
ATOM      1  C   UNL     1      74.285  90.768  69.145  1.00  0.00     0.100 C 
ENDROOT
BRANCH   1   2
ATOM      2  C   UNL     1      74.314  92.116  69.745  1.00  0.00     0.220 C 
ATOM      3  N   UNL     1      75.309  92.469  70.606  1.00  0.00    -0.352 N 
ATOM      4  H   UNL     1      75.980  91.740  70.803  1.00  0.00     0.163 HD
ATOM      5  O   UNL     1      73.413  92.928  69.420  1.00  0.00    -0.275 OA
BRANCH   3   6
ATOM      6  C   UNL     1      75.444  93.754  71.214  1.00  0.00     0.151 C 
BRANCH   6   7
ATOM      7  C   UNL     1      75.503  93.654  72.698  1.00  0.00    -0.025 A 
ATOM      8  C   UNL     1      76.796  93.769  74.789  1.00  0.00     0.160 A 
ATOM      9  C   UNL     1      75.629  93.486  75.528  1.00  0.00     0.157 A 
ATOM     10  C   UNL     1      76.723  93.848  73.383  1.00  0.00     0.056 A 
ATOM     11  C   UNL     1      74.409  93.270  74.857  1.00  0.00     0.050 A 
ATOM     12  C   UNL     1      74.343  93.362  73.453  1.00  0.00     0.009 A 
BRANCH   8  13
ATOM     13  O   UNL     1      77.999  93.915  75.433  1.00  0.00    -0.493 OA
ATOM     14  C   UNL     1      78.431  95.282  75.566  1.00  0.00     0.278 C 
ENDBRANCH   8  13
BRANCH   9  15
ATOM     15  O   UNL     1      75.663  93.415  76.884  1.00  0.00    -0.504 OA
ATOM     16  H   UNL     1      74.803  93.653  77.239  1.00  0.00     0.293 HD
ENDBRANCH   9  15
ENDBRANCH   6   7
ENDBRANCH   3   6
ENDBRANCH   1   2
BRANCH   1  17
ATOM     17  C   UNL     1      75.715  90.187  68.974  1.00  0.00     0.010 C 
BRANCH  17  18
ATOM     18  C   UNL     1      75.998  89.692  67.528  1.00  0.00     0.005 C 
BRANCH  18  19
ATOM     19  C   UNL     1      77.253  88.782  67.450  1.00  0.00     0.027 C 
BRANCH  19  20
ATOM     20  C   UNL     1      76.966  87.417  67.866  1.00  0.00    -0.031 C 
ATOM     21  C   UNL     1      76.815  86.384  67.018  1.00  0.00    -0.028 C 
BRANCH  21  22
ATOM     22  C   UNL     1      76.546  85.016  67.459  1.00  0.00     0.005 C 
ATOM     23  C   UNL     1      77.556  83.995  66.864  1.00  0.00     0.012 C 
ATOM     24  C   UNL     1      76.536  84.945  69.008  1.00  0.00     0.012 C 
ENDBRANCH  21  22
ENDBRANCH  19  20
ENDBRANCH  18  19
ENDBRANCH  17  18
ENDBRANCH   1  17
TORSDOF 10
ENDMDL
MODEL 8
REMARK VINA RESULT:    -5.559     21.838     24.598
REMARK INTER + INTRA:          -9.393
REMARK INTER:                  -8.687
REMARK INTRA:                  -0.706
REMARK UNBOUND:                -0.746
REMARK SMILES COc1cc(CNC(=O)CCCC/C=C/C(C)C)ccc1O
REMARK SMILES IDX 10 1 8 2 7 3 9 5 6 6 5 7 3 8 21 9 4 10 20 11 19 12 2 13 1 14
REMARK SMILES IDX 22 15 11 17 12 18 13 19 14 20 15 21 16 22 17 23 18 24
REMARK H PARENT 7 4 22 16
REMARK Flexibility Score: inf
ROOT
ATOM      1  C   UNL     1      79.802  65.439  75.355  1.00  0.00     0.100 C 
ENDROOT
BRANCH   1   2
ATOM      2  C   UNL     1      80.526  64.382  76.088  1.00  0.00     0.220 C 
ATOM      3  N   UNL     1      81.855  64.176  75.870  1.00  0.00    -0.352 N 
ATOM      4  H   UNL     1      82.271  64.776  75.171  1.00  0.00     0.163 HD
ATOM      5  O   UNL     1      79.888  63.701  76.927  1.00  0.00    -0.275 OA
BRANCH   3   6
ATOM      6  C   UNL     1      82.651  63.204  76.549  1.00  0.00     0.151 C 
BRANCH   6   7
ATOM      7  C   UNL     1      83.718  63.844  77.366  1.00  0.00    -0.025 A 
ATOM      8  C   UNL     1      85.354  63.724  79.201  1.00  0.00     0.160 A 
ATOM      9  C   UNL     1      85.767  65.043  78.920  1.00  0.00     0.157 A 
ATOM     10  C   UNL     1      84.333  63.138  78.424  1.00  0.00     0.056 A 
ATOM     11  C   UNL     1      85.149  65.766  77.881  1.00  0.00     0.050 A 
ATOM     12  C   UNL     1      84.139  65.169  77.102  1.00  0.00     0.009 A 
BRANCH   8  13
ATOM     13  O   UNL     1      85.907  63.040  80.254  1.00  0.00    -0.493 OA
ATOM     14  C   UNL     1      85.047  62.938  81.404  1.00  0.00     0.278 C 
ENDBRANCH   8  13
BRANCH   9  15
ATOM     15  O   UNL     1      86.756  65.631  79.641  1.00  0.00    -0.504 OA
ATOM     16  H   UNL     1      87.408  64.972  79.890  1.00  0.00     0.293 HD
ENDBRANCH   9  15
ENDBRANCH   6   7
ENDBRANCH   3   6
ENDBRANCH   1   2
BRANCH   1  17
ATOM     17  C   UNL     1      80.703  66.679  75.101  1.00  0.00     0.010 C 
BRANCH  17  18
ATOM     18  C   UNL     1      81.012  66.903  73.594  1.00  0.00     0.005 C 
BRANCH  18  19
ATOM     19  C   UNL     1      81.410  65.589  72.870  1.00  0.00     0.027 C 
BRANCH  19  20
ATOM     20  C   UNL     1      80.925  65.551  71.499  1.00  0.00    -0.031 C 
ATOM     21  C   UNL     1      81.421  66.305  70.501  1.00  0.00    -0.028 C 
BRANCH  21  22
ATOM     22  C   UNL     1      80.931  66.236  69.124  1.00  0.00     0.005 C 
ATOM     23  C   UNL     1      81.621  67.278  68.201  1.00  0.00     0.012 C 
ATOM     24  C   UNL     1      81.105  64.800  68.565  1.00  0.00     0.012 C 
ENDBRANCH  21  22
ENDBRANCH  19  20
ENDBRANCH  18  19
ENDBRANCH  17  18
ENDBRANCH   1  17
TORSDOF 10
ENDMDL
MODEL 9
REMARK VINA RESULT:    -5.508     27.109     28.823
REMARK INTER + INTRA:          -9.314
REMARK INTER:                  -8.583
REMARK INTRA:                  -0.731
REMARK UNBOUND:                -0.746
REMARK SMILES COc1cc(CNC(=O)CCCC/C=C/C(C)C)ccc1O
REMARK SMILES IDX 10 1 8 2 7 3 9 5 6 6 5 7 3 8 21 9 4 10 20 11 19 12 2 13 1 14
REMARK SMILES IDX 22 15 11 17 12 18 13 19 14 20 15 21 16 22 17 23 18 24
REMARK H PARENT 7 4 22 16
REMARK Flexibility Score: inf
ROOT
ATOM      1  C   UNL     1      98.445  81.162  77.865  1.00  0.00     0.100 C 
ENDROOT
BRANCH   1   2
ATOM      2  C   UNL     1      98.490  80.694  79.264  1.00  0.00     0.220 C 
ATOM      3  N   UNL     1      97.338  80.438  79.945  1.00  0.00    -0.352 N 
ATOM      4  H   UNL     1      96.488  80.616  79.427  1.00  0.00     0.163 HD
ATOM      5  O   UNL     1      99.614  80.519  79.794  1.00  0.00    -0.275 OA
BRANCH   3   6
ATOM      6  C   UNL     1      97.274  79.953  81.286  1.00  0.00     0.151 C 
BRANCH   6   7
ATOM      7  C   UNL     1      96.615  80.934  82.191  1.00  0.00    -0.025 A 
ATOM      8  C   UNL     1      95.281  81.409  84.206  1.00  0.00     0.160 A 
ATOM      9  C   UNL     1      95.368  82.791  83.938  1.00  0.00     0.157 A 
ATOM     10  C   UNL     1      95.902  80.494  83.330  1.00  0.00     0.056 A 
ATOM     11  C   UNL     1      96.058  83.243  82.796  1.00  0.00     0.050 A 
ATOM     12  C   UNL     1      96.685  82.323  81.934  1.00  0.00     0.009 A 
BRANCH   8  13
ATOM     13  O   UNL     1      94.555  80.961  85.279  1.00  0.00    -0.493 OA
ATOM     14  C   UNL     1      95.356  80.591  86.417  1.00  0.00     0.278 C 
ENDBRANCH   8  13
BRANCH   9  15
ATOM     15  O   UNL     1      94.792  83.699  84.768  1.00  0.00    -0.504 OA
ATOM     16  H   UNL     1      94.905  84.581  84.407  1.00  0.00     0.293 HD
ENDBRANCH   9  15
ENDBRANCH   6   7
ENDBRANCH   3   6
ENDBRANCH   1   2
BRANCH   1  17
ATOM     17  C   UNL     1      97.063  81.773  77.510  1.00  0.00     0.010 C 
BRANCH  17  18
ATOM     18  C   UNL     1      97.085  82.593  76.190  1.00  0.00     0.005 C 
BRANCH  18  19
ATOM     19  C   UNL     1      97.286  81.695  74.939  1.00  0.00     0.027 C 
BRANCH  19  20
ATOM     20  C   UNL     1      98.500  82.034  74.211  1.00  0.00    -0.031 C 
ATOM     21  C   UNL     1      98.550  82.908  73.190  1.00  0.00    -0.028 C 
BRANCH  21  22
ATOM     22  C   UNL     1      99.786  83.248  72.485  1.00  0.00     0.005 C 
ATOM     23  C   UNL     1      99.962  84.782  72.311  1.00  0.00     0.012 C 
ATOM     24  C   UNL     1     101.007  82.631  73.215  1.00  0.00     0.012 C 
ENDBRANCH  21  22
ENDBRANCH  19  20
ENDBRANCH  18  19
ENDBRANCH  17  18
ENDBRANCH   1  17
TORSDOF 10
ENDMDL
MODEL 10
REMARK VINA RESULT:    -5.465     22.246     25.071
REMARK INTER + INTRA:          -9.246
REMARK INTER:                  -8.536
REMARK INTRA:                  -0.710
REMARK UNBOUND:                -0.746
REMARK SMILES COc1cc(CNC(=O)CCCC/C=C/C(C)C)ccc1O
REMARK SMILES IDX 10 1 8 2 7 3 9 5 6 6 5 7 3 8 21 9 4 10 20 11 19 12 2 13 1 14
REMARK SMILES IDX 22 15 11 17 12 18 13 19 14 20 15 21 16 22 17 23 18 24
REMARK H PARENT 7 4 22 16
REMARK Flexibility Score: inf
ROOT
ATOM      1  C   UNL     1      81.013  64.004  76.266  1.00  0.00     0.100 C 
ENDROOT
BRANCH   1   2
ATOM      2  C   UNL     1      82.482  63.909  76.364  1.00  0.00     0.220 C 
ATOM      3  N   UNL     1      83.062  63.123  77.315  1.00  0.00    -0.352 N 
ATOM      4  H   UNL     1      82.415  62.654  77.933  1.00  0.00     0.163 HD
ATOM      5  O   UNL     1      83.174  64.549  75.536  1.00  0.00    -0.275 OA
BRANCH   3   6
ATOM      6  C   UNL     1      84.469  62.938  77.472  1.00  0.00     0.151 C 
BRANCH   6   7
ATOM      7  C   UNL     1      85.004  63.745  78.603  1.00  0.00    -0.025 A 
ATOM      8  C   UNL     1      86.097  65.792  79.427  1.00  0.00     0.160 A 
ATOM      9  C   UNL     1      86.010  65.307  80.748  1.00  0.00     0.157 A 
ATOM     10  C   UNL     1      85.596  65.006  78.367  1.00  0.00     0.056 A 
ATOM     11  C   UNL     1      85.440  64.042  80.996  1.00  0.00     0.050 A 
ATOM     12  C   UNL     1      84.931  63.271  79.933  1.00  0.00     0.009 A 
BRANCH   8  13
ATOM     13  O   UNL     1      86.710  66.992  79.173  1.00  0.00    -0.493 OA
ATOM     14  C   UNL     1      85.809  68.035  78.756  1.00  0.00     0.278 C 
ENDBRANCH   8  13
BRANCH   9  15
ATOM     15  O   UNL     1      86.471  66.043  81.792  1.00  0.00    -0.504 OA
ATOM     16  H   UNL     1      85.764  66.177  82.427  1.00  0.00     0.293 HD
ENDBRANCH   9  15
ENDBRANCH   6   7
ENDBRANCH   3   6
ENDBRANCH   1   2
BRANCH   1  17
ATOM     17  C   UNL     1      80.563  64.468  74.854  1.00  0.00     0.010 C 
BRANCH  17  18
ATOM     18  C   UNL     1      80.241  65.987  74.790  1.00  0.00     0.005 C 
BRANCH  18  19
ATOM     19  C   UNL     1      81.013  66.707  73.651  1.00  0.00     0.027 C 
BRANCH  19  20
ATOM     20  C   UNL     1      80.670  66.178  72.339  1.00  0.00    -0.031 C 
ATOM     21  C   UNL     1      81.485  66.223  71.269  1.00  0.00    -0.028 C 
BRANCH  21  22
ATOM     22  C   UNL     1      81.127  65.668  69.965  1.00  0.00     0.005 C 
ATOM     23  C   UNL     1      81.418  66.657  68.803  1.00  0.00     0.012 C 
ATOM     24  C   UNL     1      81.858  64.318  69.738  1.00  0.00     0.012 C 
ENDBRANCH  21  22
ENDBRANCH  19  20
ENDBRANCH  18  19
ENDBRANCH  17  18
ENDBRANCH   1  17
TORSDOF 10
ENDMDL
