MODEL 1
REMARK VINA RESULT:    -6.410      0.000      0.000
REMARK INTER + INTRA:         -11.215
REMARK INTER:                  -9.971
REMARK INTRA:                  -1.244
REMARK UNBOUND:                -1.244
REMARK SMILES COc1cc(CNC(=O)CCCCCC(C)C)ccc1O
REMARK SMILES IDX 10 1 8 2 7 3 9 5 6 6 5 7 3 8 20 9 4 10 19 11 18 12 2 13 1 14
REMARK SMILES IDX 21 15 11 17 12 18 13 19 14 20 15 21 16 22 17 23
REMARK H PARENT 7 4 21 16
REMARK Flexibility Score: inf
ROOT
ATOM      1  C   UNL     1      95.580  97.157  74.836  1.00  0.00     0.100 C 
ENDROOT
BRANCH   1   2
ATOM      2  C   UNL     1      96.738  97.035  75.745  1.00  0.00     0.220 C 
ATOM      3  N   UNL     1      96.552  96.553  77.006  1.00  0.00    -0.352 N 
ATOM      4  H   UNL     1      95.586  96.434  77.277  1.00  0.00     0.163 HD
ATOM      5  O   UNL     1      97.880  97.339  75.321  1.00  0.00    -0.275 OA
BRANCH   3   6
ATOM      6  C   UNL     1      97.596  96.223  77.922  1.00  0.00     0.151 C 
BRANCH   6   7
ATOM      7  C   UNL     1      97.160  95.285  78.992  1.00  0.00    -0.025 A 
ATOM      8  C   UNL     1      97.659  93.971  81.010  1.00  0.00     0.160 A 
ATOM      9  C   UNL     1      96.313  93.552  81.068  1.00  0.00     0.157 A 
ATOM     10  C   UNL     1      98.078  94.819  79.963  1.00  0.00     0.056 A 
ATOM     11  C   UNL     1      95.397  93.989  80.092  1.00  0.00     0.050 A 
ATOM     12  C   UNL     1      95.815  94.852  79.066  1.00  0.00     0.009 A 
BRANCH   8  13
ATOM     13  O   UNL     1      98.571  93.542  81.938  1.00  0.00    -0.493 OA
ATOM     14  C   UNL     1      99.162  94.606  82.708  1.00  0.00     0.278 C 
ENDBRANCH   8  13
BRANCH   9  15
ATOM     15  O   UNL     1      95.900  92.736  82.069  1.00  0.00    -0.504 OA
ATOM     16  H   UNL     1      96.662  92.421  82.561  1.00  0.00     0.293 HD
ENDBRANCH   9  15
ENDBRANCH   6   7
ENDBRANCH   3   6
ENDBRANCH   1   2
BRANCH   1  17
ATOM     17  C   UNL     1      95.124  95.816  74.199  1.00  0.00     0.010 C 
BRANCH  17  18
ATOM     18  C   UNL     1      93.850  95.258  74.890  1.00  0.00     0.001 C 
BRANCH  18  19
ATOM     19  C   UNL     1      93.120  96.304  75.774  1.00  0.00     0.000 C 
BRANCH  19  20
ATOM     20  C   UNL     1      92.634  95.697  77.122  1.00  0.00     0.003 C 
BRANCH  20  21
ATOM     21  C   UNL     1      91.885  94.331  77.000  1.00  0.00    -0.017 C 
ATOM     22  C   UNL     1      90.342  94.543  76.968  1.00  0.00     0.007 C 
ATOM     23  C   UNL     1      92.263  93.330  78.131  1.00  0.00     0.007 C 
ENDBRANCH  20  21
ENDBRANCH  19  20
ENDBRANCH  18  19
ENDBRANCH  17  18
ENDBRANCH   1  17
TORSDOF 10
ENDMDL
MODEL 2
REMARK VINA RESULT:    -5.326     12.695     15.035
REMARK INTER + INTRA:          -9.529
REMARK INTER:                  -8.922
REMARK INTRA:                  -0.607
REMARK UNBOUND:                -1.244
REMARK SMILES COc1cc(CNC(=O)CCCCCC(C)C)ccc1O
REMARK SMILES IDX 10 1 8 2 7 3 9 5 6 6 5 7 3 8 20 9 4 10 19 11 18 12 2 13 1 14
REMARK SMILES IDX 21 15 11 17 12 18 13 19 14 20 15 21 16 22 17 23
REMARK H PARENT 7 4 21 16
REMARK Flexibility Score: inf
ROOT
ATOM      1  C   UNL     1      96.342  79.736  81.961  1.00  0.00     0.100 C 
ENDROOT
BRANCH   1   2
ATOM      2  C   UNL     1      97.314  80.617  81.280  1.00  0.00     0.220 C 
ATOM      3  N   UNL     1      97.702  80.327  80.006  1.00  0.00    -0.352 N 
ATOM      4  H   UNL     1      97.386  79.433  79.659  1.00  0.00     0.163 HD
ATOM      5  O   UNL     1      97.730  81.641  81.876  1.00  0.00    -0.275 OA
BRANCH   3   6
ATOM      6  C   UNL     1      98.491  81.177  79.174  1.00  0.00     0.151 C 
BRANCH   6   7
ATOM      7  C   UNL     1      97.710  81.812  78.078  1.00  0.00    -0.025 A 
ATOM      8  C   UNL     1      97.510  82.509  75.728  1.00  0.00     0.160 A 
ATOM      9  C   UNL     1      96.197  82.960  75.976  1.00  0.00     0.157 A 
ATOM     10  C   UNL     1      98.265  81.955  76.784  1.00  0.00     0.056 A 
ATOM     11  C   UNL     1      95.645  82.848  77.266  1.00  0.00     0.050 A 
ATOM     12  C   UNL     1      96.393  82.273  78.307  1.00  0.00     0.009 A 
BRANCH   8  13
ATOM     13  O   UNL     1      98.074  82.627  74.485  1.00  0.00    -0.493 OA
ATOM     14  C   UNL     1      98.818  81.466  74.070  1.00  0.00     0.278 C 
ENDBRANCH   8  13
BRANCH   9  15
ATOM     15  O   UNL     1      95.464  83.496  74.969  1.00  0.00    -0.504 OA
ATOM     16  H   UNL     1      94.601  83.077  74.942  1.00  0.00     0.293 HD
ENDBRANCH   9  15
ENDBRANCH   6   7
ENDBRANCH   3   6
ENDBRANCH   1   2
BRANCH   1  17
ATOM     17  C   UNL     1      96.572  79.595  83.490  1.00  0.00     0.010 C 
BRANCH  17  18
ATOM     18  C   UNL     1      95.281  79.912  84.294  1.00  0.00     0.001 C 
BRANCH  18  19
ATOM     19  C   UNL     1      94.864  81.405  84.227  1.00  0.00     0.000 C 
BRANCH  19  20
ATOM     20  C   UNL     1      93.997  81.830  85.448  1.00  0.00     0.003 C 
BRANCH  20  21
ATOM     21  C   UNL     1      94.313  83.251  86.019  1.00  0.00    -0.017 C 
ATOM     22  C   UNL     1      93.000  84.035  86.313  1.00  0.00     0.007 C 
ATOM     23  C   UNL     1      95.236  84.087  85.085  1.00  0.00     0.007 C 
ENDBRANCH  20  21
ENDBRANCH  19  20
ENDBRANCH  18  19
ENDBRANCH  17  18
ENDBRANCH   1  17
TORSDOF 10
ENDMDL
MODEL 3
REMARK VINA RESULT:    -5.267     28.007     30.483
REMARK INTER + INTRA:          -9.436
REMARK INTER:                  -8.450
REMARK INTRA:                  -0.986
REMARK UNBOUND:                -1.244
REMARK SMILES COc1cc(CNC(=O)CCCCCC(C)C)ccc1O
REMARK SMILES IDX 10 1 8 2 7 3 9 5 6 6 5 7 3 8 20 9 4 10 19 11 18 12 2 13 1 14
REMARK SMILES IDX 21 15 11 17 12 18 13 19 14 20 15 21 16 22 17 23
REMARK H PARENT 7 4 21 16
REMARK Flexibility Score: inf
ROOT
ATOM      1  C   UNL     1      82.137  65.520  72.466  1.00  0.00     0.100 C 
ENDROOT
BRANCH   1   2
ATOM      2  C   UNL     1      82.754  66.595  71.662  1.00  0.00     0.220 C 
ATOM      3  N   UNL     1      83.565  67.505  72.271  1.00  0.00    -0.352 N 
ATOM      4  H   UNL     1      83.582  67.452  73.279  1.00  0.00     0.163 HD
ATOM      5  O   UNL     1      82.549  66.623  70.424  1.00  0.00    -0.275 OA
BRANCH   3   6
ATOM      6  C   UNL     1      84.357  68.483  71.595  1.00  0.00     0.151 C 
BRANCH   6   7
ATOM      7  C   UNL     1      84.804  69.589  72.483  1.00  0.00    -0.025 A 
ATOM      8  C   UNL     1      85.858  70.355  74.568  1.00  0.00     0.160 A 
ATOM      9  C   UNL     1      85.716  71.694  74.146  1.00  0.00     0.157 A 
ATOM     10  C   UNL     1      85.385  69.313  73.744  1.00  0.00     0.056 A 
ATOM     11  C   UNL     1      85.116  71.981  72.906  1.00  0.00     0.050 A 
ATOM     12  C   UNL     1      84.669  70.937  72.079  1.00  0.00     0.009 A 
BRANCH   8  13
ATOM     13  O   UNL     1      86.422  70.055  75.781  1.00  0.00    -0.493 OA
ATOM     14  C   UNL     1      85.467  69.663  76.785  1.00  0.00     0.278 C 
ENDBRANCH   8  13
BRANCH   9  15
ATOM     15  O   UNL     1      86.166  72.704  74.932  1.00  0.00    -0.504 OA
ATOM     16  H   UNL     1      86.470  73.428  74.380  1.00  0.00     0.293 HD
ENDBRANCH   9  15
ENDBRANCH   6   7
ENDBRANCH   3   6
ENDBRANCH   1   2
BRANCH   1  17
ATOM     17  C   UNL     1      80.708  65.845  72.978  1.00  0.00     0.010 C 
BRANCH  17  18
ATOM     18  C   UNL     1      80.745  66.709  74.268  1.00  0.00     0.001 C 
BRANCH  18  19
ATOM     19  C   UNL     1      79.805  66.188  75.387  1.00  0.00     0.000 C 
BRANCH  19  20
ATOM     20  C   UNL     1      80.593  65.551  76.568  1.00  0.00     0.003 C 
BRANCH  20  21
ATOM     21  C   UNL     1      80.734  63.996  76.506  1.00  0.00    -0.017 C 
ATOM     22  C   UNL     1      82.183  63.585  76.109  1.00  0.00     0.007 C 
ATOM     23  C   UNL     1      79.708  63.334  75.542  1.00  0.00     0.007 C 
ENDBRANCH  20  21
ENDBRANCH  19  20
ENDBRANCH  18  19
ENDBRANCH  17  18
ENDBRANCH   1  17
TORSDOF 10
ENDMDL
MODEL 4
REMARK VINA RESULT:    -5.234      3.407      4.854
REMARK INTER + INTRA:          -9.386
REMARK INTER:                  -8.626
REMARK INTRA:                  -0.760
REMARK UNBOUND:                -1.244
REMARK SMILES COc1cc(CNC(=O)CCCCCC(C)C)ccc1O
REMARK SMILES IDX 10 1 8 2 7 3 9 5 6 6 5 7 3 8 20 9 4 10 19 11 18 12 2 13 1 14
REMARK SMILES IDX 21 15 11 17 12 18 13 19 14 20 15 21 16 22 17 23
REMARK H PARENT 7 4 21 16
REMARK Flexibility Score: inf
ROOT
ATOM      1  C   UNL     1      95.250  92.964  78.880  1.00  0.00     0.100 C 
ENDROOT
BRANCH   1   2
ATOM      2  C   UNL     1      95.786  93.507  80.146  1.00  0.00     0.220 C 
ATOM      3  N   UNL     1      96.609  94.594  80.112  1.00  0.00    -0.352 N 
ATOM      4  H   UNL     1      96.903  94.876  79.188  1.00  0.00     0.163 HD
ATOM      5  O   UNL     1      95.438  92.981  81.231  1.00  0.00    -0.275 OA
BRANCH   3   6
ATOM      6  C   UNL     1      97.055  95.322  81.257  1.00  0.00     0.151 C 
BRANCH   6   7
ATOM      7  C   UNL     1      97.019  96.796  81.062  1.00  0.00    -0.025 A 
ATOM      8  C   UNL     1      96.266  99.025  81.780  1.00  0.00     0.160 A 
ATOM      9  C   UNL     1      97.004  99.610  80.730  1.00  0.00     0.157 A 
ATOM     10  C   UNL     1      96.263  97.621  81.928  1.00  0.00     0.056 A 
ATOM     11  C   UNL     1      97.738  98.798  79.846  1.00  0.00     0.050 A 
ATOM     12  C   UNL     1      97.750  97.403  80.013  1.00  0.00     0.009 A 
BRANCH   8  13
ATOM     13  O   UNL     1      95.529  99.796  82.640  1.00  0.00    -0.493 OA
ATOM     14  C   UNL     1      96.159 100.007  83.918  1.00  0.00     0.278 C 
ENDBRANCH   8  13
BRANCH   9  15
ATOM     15  O   UNL     1      97.012 100.958  80.578  1.00  0.00    -0.504 OA
ATOM     16  H   UNL     1      96.911 101.176  79.648  1.00  0.00     0.293 HD
ENDBRANCH   9  15
ENDBRANCH   6   7
ENDBRANCH   3   6
ENDBRANCH   1   2
BRANCH   1  17
ATOM     17  C   UNL     1      93.751  93.280  78.634  1.00  0.00     0.010 C 
BRANCH  17  18
ATOM     18  C   UNL     1      93.563  94.655  77.935  1.00  0.00     0.001 C 
BRANCH  18  19
ATOM     19  C   UNL     1      93.102  94.537  76.458  1.00  0.00     0.000 C 
BRANCH  19  20
ATOM     20  C   UNL     1      92.219  93.279  76.216  1.00  0.00     0.003 C 
BRANCH  20  21
ATOM     21  C   UNL     1      90.688  93.493  76.449  1.00  0.00    -0.017 C 
ATOM     22  C   UNL     1      90.361  95.003  76.643  1.00  0.00     0.007 C 
ATOM     23  C   UNL     1      90.139  92.670  77.651  1.00  0.00     0.007 C 
ENDBRANCH  20  21
ENDBRANCH  19  20
ENDBRANCH  18  19
ENDBRANCH  17  18
ENDBRANCH   1  17
TORSDOF 10
ENDMDL
MODEL 5
REMARK VINA RESULT:    -5.188     22.883     26.334
REMARK INTER + INTRA:          -9.313
REMARK INTER:                  -8.449
REMARK INTRA:                  -0.864
REMARK UNBOUND:                -1.244
REMARK SMILES COc1cc(CNC(=O)CCCCCC(C)C)ccc1O
REMARK SMILES IDX 10 1 8 2 7 3 9 5 6 6 5 7 3 8 20 9 4 10 19 11 18 12 2 13 1 14
REMARK SMILES IDX 21 15 11 17 12 18 13 19 14 20 15 21 16 22 17 23
REMARK H PARENT 7 4 21 16
REMARK Flexibility Score: inf
ROOT
ATOM      1  C   UNL     1      76.810  87.042  67.567  1.00  0.00     0.100 C 
ENDROOT
BRANCH   1   2
ATOM      2  C   UNL     1      76.623  86.341  66.279  1.00  0.00     0.220 C 
ATOM      3  N   UNL     1      76.964  85.025  66.178  1.00  0.00    -0.352 N 
ATOM      4  H   UNL     1      77.455  84.651  66.977  1.00  0.00     0.163 HD
ATOM      5  O   UNL     1      76.112  86.963  65.316  1.00  0.00    -0.275 OA
BRANCH   3   6
ATOM      6  C   UNL     1      76.678  84.187  65.058  1.00  0.00     0.151 C 
BRANCH   6   7
ATOM      7  C   UNL     1      75.415  83.416  65.212  1.00  0.00    -0.025 A 
ATOM      8  C   UNL     1      72.957  83.325  65.195  1.00  0.00     0.160 A 
ATOM      9  C   UNL     1      73.010  81.936  65.439  1.00  0.00     0.157 A 
ATOM     10  C   UNL     1      74.159  84.059  65.102  1.00  0.00     0.056 A 
ATOM     11  C   UNL     1      74.253  81.291  65.576  1.00  0.00     0.050 A 
ATOM     12  C   UNL     1      75.446  82.024  65.458  1.00  0.00     0.009 A 
BRANCH   8  13
ATOM     13  O   UNL     1      71.757  83.975  65.078  1.00  0.00    -0.493 OA
ATOM     14  C   UNL     1      71.267  84.521  66.318  1.00  0.00     0.278 C 
ENDBRANCH   8  13
BRANCH   9  15
ATOM     15  O   UNL     1      71.860  81.221  65.532  1.00  0.00    -0.504 OA
ATOM     16  H   UNL     1      72.039  80.300  65.330  1.00  0.00     0.293 HD
ENDBRANCH   9  15
ENDBRANCH   6   7
ENDBRANCH   3   6
ENDBRANCH   1   2
BRANCH   1  17
ATOM     17  C   UNL     1      77.585  88.383  67.457  1.00  0.00     0.010 C 
BRANCH  17  18
ATOM     18  C   UNL     1      76.620  89.599  67.405  1.00  0.00     0.001 C 
BRANCH  18  19
ATOM     19  C   UNL     1      75.788  89.782  68.702  1.00  0.00     0.000 C 
BRANCH  19  20
ATOM     20  C   UNL     1      74.257  89.727  68.431  1.00  0.00     0.003 C 
BRANCH  20  21
ATOM     21  C   UNL     1      73.445  88.821  69.413  1.00  0.00    -0.017 C 
ATOM     22  C   UNL     1      73.226  87.403  68.807  1.00  0.00     0.007 C 
ATOM     23  C   UNL     1      72.079  89.444  69.822  1.00  0.00     0.007 C 
ENDBRANCH  20  21
ENDBRANCH  19  20
ENDBRANCH  18  19
ENDBRANCH  17  18
ENDBRANCH   1  17
TORSDOF 10
ENDMDL
MODEL 6
REMARK VINA RESULT:    -5.171     23.955     27.688
REMARK INTER + INTRA:          -9.287
REMARK INTER:                  -7.742
REMARK INTRA:                  -1.545
REMARK UNBOUND:                -1.244
REMARK SMILES COc1cc(CNC(=O)CCCCCC(C)C)ccc1O
REMARK SMILES IDX 10 1 8 2 7 3 9 5 6 6 5 7 3 8 20 9 4 10 19 11 18 12 2 13 1 14
REMARK SMILES IDX 21 15 11 17 12 18 13 19 14 20 15 21 16 22 17 23
REMARK H PARENT 7 4 21 16
REMARK Flexibility Score: inf
ROOT
ATOM      1  C   UNL     1      70.175  82.904  65.934  1.00  0.00     0.100 C 
ENDROOT
BRANCH   1   2
ATOM      2  C   UNL     1      70.853  84.185  65.646  1.00  0.00     0.220 C 
ATOM      3  N   UNL     1      72.205  84.274  65.789  1.00  0.00    -0.352 N 
ATOM      4  H   UNL     1      72.641  83.471  66.218  1.00  0.00     0.163 HD
ATOM      5  O   UNL     1      70.171  85.156  65.235  1.00  0.00    -0.275 OA
BRANCH   3   6
ATOM      6  C   UNL     1      73.003  85.387  65.383  1.00  0.00     0.151 C 
BRANCH   6   7
ATOM      7  C   UNL     1      74.309  85.458  66.091  1.00  0.00    -0.025 A 
ATOM      8  C   UNL     1      76.366  86.683  66.652  1.00  0.00     0.160 A 
ATOM      9  C   UNL     1      76.766  85.622  67.492  1.00  0.00     0.157 A 
ATOM     10  C   UNL     1      75.150  86.587  65.943  1.00  0.00     0.056 A 
ATOM     11  C   UNL     1      75.951  84.484  67.626  1.00  0.00     0.050 A 
ATOM     12  C   UNL     1      74.729  84.404  66.936  1.00  0.00     0.009 A 
BRANCH   8  13
ATOM     13  O   UNL     1      77.156  87.792  66.493  1.00  0.00    -0.493 OA
ATOM     14  C   UNL     1      76.468  88.917  65.913  1.00  0.00     0.278 C 
ENDBRANCH   8  13
BRANCH   9  15
ATOM     15  O   UNL     1      77.935  85.704  68.177  1.00  0.00    -0.504 OA
ATOM     16  H   UNL     1      77.834  86.316  68.910  1.00  0.00     0.293 HD
ENDBRANCH   9  15
ENDBRANCH   6   7
ENDBRANCH   3   6
ENDBRANCH   1   2
BRANCH   1  17
ATOM     17  C   UNL     1      70.909  81.655  65.378  1.00  0.00     0.010 C 
BRANCH  17  18
ATOM     18  C   UNL     1      70.800  81.568  63.830  1.00  0.00     0.001 C 
BRANCH  18  19
ATOM     19  C   UNL     1      72.100  81.067  63.148  1.00  0.00     0.000 C 
BRANCH  19  20
ATOM     20  C   UNL     1      73.159  82.198  62.996  1.00  0.00     0.003 C 
BRANCH  20  21
ATOM     21  C   UNL     1      74.564  81.872  63.598  1.00  0.00    -0.017 C 
ATOM     22  C   UNL     1      74.437  81.378  65.070  1.00  0.00     0.007 C 
ATOM     23  C   UNL     1      75.548  83.075  63.522  1.00  0.00     0.007 C 
ENDBRANCH  20  21
ENDBRANCH  19  20
ENDBRANCH  18  19
ENDBRANCH  17  18
ENDBRANCH   1  17
TORSDOF 10
ENDMDL
MODEL 7
REMARK VINA RESULT:    -5.074      3.614      4.577
REMARK INTER + INTRA:          -9.136
REMARK INTER:                  -8.315
REMARK INTRA:                  -0.821
REMARK UNBOUND:                -1.244
REMARK SMILES COc1cc(CNC(=O)CCCCCC(C)C)ccc1O
REMARK SMILES IDX 10 1 8 2 7 3 9 5 6 6 5 7 3 8 20 9 4 10 19 11 18 12 2 13 1 14
REMARK SMILES IDX 21 15 11 17 12 18 13 19 14 20 15 21 16 22 17 23
REMARK H PARENT 7 4 21 16
REMARK Flexibility Score: inf
ROOT
ATOM      1  C   UNL     1      95.585  95.185  78.046  1.00  0.00     0.100 C 
ENDROOT
BRANCH   1   2
ATOM      2  C   UNL     1      96.292  95.256  79.342  1.00  0.00     0.220 C 
ATOM      3  N   UNL     1      95.602  95.614  80.462  1.00  0.00    -0.352 N 
ATOM      4  H   UNL     1      94.660  95.938  80.296  1.00  0.00     0.163 HD
ATOM      5  O   UNL     1      97.507  94.945  79.391  1.00  0.00    -0.275 OA
BRANCH   3   6
ATOM      6  C   UNL     1      96.112  95.556  81.794  1.00  0.00     0.151 C 
BRANCH   6   7
ATOM      7  C   UNL     1      96.367  96.900  82.381  1.00  0.00    -0.025 A 
ATOM      8  C   UNL     1      97.257  98.301  84.195  1.00  0.00     0.160 A 
ATOM      9  C   UNL     1      96.911  99.459  83.467  1.00  0.00     0.157 A 
ATOM     10  C   UNL     1      96.966  97.030  83.656  1.00  0.00     0.056 A 
ATOM     11  C   UNL     1      96.291  99.342  82.210  1.00  0.00     0.050 A 
ATOM     12  C   UNL     1      96.025  98.073  81.668  1.00  0.00     0.009 A 
BRANCH   8  13
ATOM     13  O   UNL     1      97.845  98.393  85.429  1.00  0.00    -0.493 OA
ATOM     14  C   UNL     1      97.302  97.479  86.402  1.00  0.00     0.278 C 
ENDBRANCH   8  13
BRANCH   9  15
ATOM     15  O   UNL     1      97.185 100.686  83.977  1.00  0.00    -0.504 OA
ATOM     16  H   UNL     1      97.342 101.304  83.259  1.00  0.00     0.293 HD
ENDBRANCH   9  15
ENDBRANCH   6   7
ENDBRANCH   3   6
ENDBRANCH   1   2
BRANCH   1  17
ATOM     17  C   UNL     1      95.087  93.763  77.669  1.00  0.00     0.010 C 
BRANCH  17  18
ATOM     18  C   UNL     1      94.082  93.211  78.718  1.00  0.00     0.001 C 
BRANCH  18  19
ATOM     19  C   UNL     1      92.603  93.298  78.259  1.00  0.00     0.000 C 
BRANCH  19  20
ATOM     20  C   UNL     1      92.475  93.571  76.732  1.00  0.00     0.003 C 
BRANCH  20  21
ATOM     21  C   UNL     1      91.572  94.789  76.352  1.00  0.00    -0.017 C 
ATOM     22  C   UNL     1      92.190  96.121  76.870  1.00  0.00     0.007 C 
ATOM     23  C   UNL     1      90.111  94.642  76.869  1.00  0.00     0.007 C 
ENDBRANCH  20  21
ENDBRANCH  19  20
ENDBRANCH  18  19
ENDBRANCH  17  18
ENDBRANCH   1  17
TORSDOF 10
ENDMDL
MODEL 8
REMARK VINA RESULT:    -4.993     13.754     15.554
REMARK INTER + INTRA:          -9.010
REMARK INTER:                  -8.271
REMARK INTRA:                  -0.739
REMARK UNBOUND:                -1.244
REMARK SMILES COc1cc(CNC(=O)CCCCCC(C)C)ccc1O
REMARK SMILES IDX 10 1 8 2 7 3 9 5 6 6 5 7 3 8 20 9 4 10 19 11 18 12 2 13 1 14
REMARK SMILES IDX 21 15 11 17 12 18 13 19 14 20 15 21 16 22 17 23
REMARK H PARENT 7 4 21 16
REMARK Flexibility Score: inf
ROOT
ATOM      1  C   UNL     1      97.774  81.345  78.301  1.00  0.00     0.100 C 
ENDROOT
BRANCH   1   2
ATOM      2  C   UNL     1      97.192  82.009  77.116  1.00  0.00     0.220 C 
ATOM      3  N   UNL     1      98.011  82.412  76.104  1.00  0.00    -0.352 N 
ATOM      4  H   UNL     1      98.999  82.340  76.303  1.00  0.00     0.163 HD
ATOM      5  O   UNL     1      95.946  82.152  77.049  1.00  0.00    -0.275 OA
BRANCH   3   6
ATOM      6  C   UNL     1      97.572  82.905  74.838  1.00  0.00     0.151 C 
BRANCH   6   7
ATOM      7  C   UNL     1      97.710  81.907  73.743  1.00  0.00    -0.025 A 
ATOM      8  C   UNL     1      99.079  80.809  72.020  1.00  0.00     0.160 A 
ATOM      9  C   UNL     1      97.996  79.962  71.702  1.00  0.00     0.157 A 
ATOM     10  C   UNL     1      98.924  81.788  73.024  1.00  0.00     0.056 A 
ATOM     11  C   UNL     1      96.776  80.090  72.392  1.00  0.00     0.050 A 
ATOM     12  C   UNL     1      96.636  81.051  73.408  1.00  0.00     0.009 A 
BRANCH   8  13
ATOM     13  O   UNL     1     100.269  80.714  71.346  1.00  0.00    -0.493 OA
ATOM     14  C   UNL     1     101.353  80.208  72.149  1.00  0.00     0.278 C 
ENDBRANCH   8  13
BRANCH   9  15
ATOM     15  O   UNL     1      98.134  79.019  70.737  1.00  0.00    -0.504 OA
ATOM     16  H   UNL     1      98.528  79.415  69.956  1.00  0.00     0.293 HD
ENDBRANCH   9  15
ENDBRANCH   6   7
ENDBRANCH   3   6
ENDBRANCH   1   2
BRANCH   1  17
ATOM     17  C   UNL     1      97.402  82.010  79.653  1.00  0.00     0.010 C 
BRANCH  17  18
ATOM     18  C   UNL     1      97.030  80.952  80.728  1.00  0.00     0.001 C 
BRANCH  18  19
ATOM     19  C   UNL     1      97.990  80.947  81.947  1.00  0.00     0.000 C 
BRANCH  19  20
ATOM     20  C   UNL     1      97.303  81.474  83.240  1.00  0.00     0.003 C 
BRANCH  20  21
ATOM     21  C   UNL     1      95.920  82.169  83.017  1.00  0.00    -0.017 C 
ATOM     22  C   UNL     1      96.046  83.714  83.162  1.00  0.00     0.007 C 
ATOM     23  C   UNL     1      94.813  81.631  83.969  1.00  0.00     0.007 C 
ENDBRANCH  20  21
ENDBRANCH  19  20
ENDBRANCH  18  19
ENDBRANCH  17  18
ENDBRANCH   1  17
TORSDOF 10
ENDMDL
MODEL 9
REMARK VINA RESULT:    -4.878     23.666     27.175
REMARK INTER + INTRA:          -8.832
REMARK INTER:                  -7.598
REMARK INTRA:                  -1.234
REMARK UNBOUND:                -1.244
REMARK SMILES COc1cc(CNC(=O)CCCCCC(C)C)ccc1O
REMARK SMILES IDX 10 1 8 2 7 3 9 5 6 6 5 7 3 8 20 9 4 10 19 11 18 12 2 13 1 14
REMARK SMILES IDX 21 15 11 17 12 18 13 19 14 20 15 21 16 22 17 23
REMARK H PARENT 7 4 21 16
REMARK Flexibility Score: inf
ROOT
ATOM      1  C   UNL     1      74.482  88.168  64.724  1.00  0.00     0.100 C 
ENDROOT
BRANCH   1   2
ATOM      2  C   UNL     1      73.907  87.071  65.530  1.00  0.00     0.220 C 
ATOM      3  N   UNL     1      74.702  86.029  65.905  1.00  0.00    -0.352 N 
ATOM      4  H   UNL     1      75.619  86.020  65.481  1.00  0.00     0.163 HD
ATOM      5  O   UNL     1      72.707  87.143  65.889  1.00  0.00    -0.275 OA
BRANCH   3   6
ATOM      6  C   UNL     1      74.329  84.999  66.820  1.00  0.00     0.151 C 
BRANCH   6   7
ATOM      7  C   UNL     1      73.767  83.796  66.149  1.00  0.00    -0.025 A 
ATOM      8  C   UNL     1      71.891  82.650  65.046  1.00  0.00     0.160 A 
ATOM      9  C   UNL     1      72.717  81.530  64.810  1.00  0.00     0.157 A 
ATOM     10  C   UNL     1      72.416  83.767  65.730  1.00  0.00     0.056 A 
ATOM     11  C   UNL     1      74.055  81.537  65.246  1.00  0.00     0.050 A 
ATOM     12  C   UNL     1      74.578  82.663  65.905  1.00  0.00     0.009 A 
BRANCH   8  13
ATOM     13  O   UNL     1      70.580  82.656  64.647  1.00  0.00    -0.493 OA
ATOM     14  C   UNL     1      69.640  82.599  65.738  1.00  0.00     0.278 C 
ENDBRANCH   8  13
BRANCH   9  15
ATOM     15  O   UNL     1      72.222  80.450  64.155  1.00  0.00    -0.504 OA
ATOM     16  H   UNL     1      72.947  79.895  63.860  1.00  0.00     0.293 HD
ENDBRANCH   9  15
ENDBRANCH   6   7
ENDBRANCH   3   6
ENDBRANCH   1   2
BRANCH   1  17
ATOM     17  C   UNL     1      76.028  88.277  64.803  1.00  0.00     0.010 C 
BRANCH  17  18
ATOM     18  C   UNL     1      76.475  89.315  65.869  1.00  0.00     0.001 C 
BRANCH  18  19
ATOM     19  C   UNL     1      77.256  88.686  67.053  1.00  0.00     0.000 C 
BRANCH  19  20
ATOM     20  C   UNL     1      76.315  88.248  68.212  1.00  0.00     0.003 C 
BRANCH  20  21
ATOM     21  C   UNL     1      75.053  89.149  68.415  1.00  0.00    -0.017 C 
ATOM     22  C   UNL     1      75.388  90.380  69.307  1.00  0.00     0.007 C 
ATOM     23  C   UNL     1      73.844  88.370  69.011  1.00  0.00     0.007 C 
ENDBRANCH  20  21
ENDBRANCH  19  20
ENDBRANCH  18  19
ENDBRANCH  17  18
ENDBRANCH   1  17
TORSDOF 10
ENDMDL
MODEL 10
REMARK VINA RESULT:    -4.830     14.133     16.202
REMARK INTER + INTRA:          -8.757
REMARK INTER:                  -7.920
REMARK INTRA:                  -0.837
REMARK UNBOUND:                -1.244
REMARK SMILES COc1cc(CNC(=O)CCCCCC(C)C)ccc1O
REMARK SMILES IDX 10 1 8 2 7 3 9 5 6 6 5 7 3 8 20 9 4 10 19 11 18 12 2 13 1 14
REMARK SMILES IDX 21 15 11 17 12 18 13 19 14 20 15 21 16 22 17 23
REMARK H PARENT 7 4 21 16
REMARK Flexibility Score: inf
ROOT
ATOM      1  C   UNL     1     101.585  79.829  79.516  1.00  0.00     0.100 C 
ENDROOT
BRANCH   1   2
ATOM      2  C   UNL     1     100.152  79.963  79.855  1.00  0.00     0.220 C 
ATOM      3  N   UNL     1      99.390  80.876  79.191  1.00  0.00    -0.352 N 
ATOM      4  H   UNL     1      99.905  81.503  78.590  1.00  0.00     0.163 HD
ATOM      5  O   UNL     1      99.658  79.199  80.720  1.00  0.00    -0.275 OA
BRANCH   3   6
ATOM      6  C   UNL     1      97.970  80.991  79.292  1.00  0.00     0.151 C 
BRANCH   6   7
ATOM      7  C   UNL     1      97.357  81.697  78.135  1.00  0.00    -0.025 A 
ATOM      8  C   UNL     1      97.344  82.256  75.741  1.00  0.00     0.160 A 
ATOM      9  C   UNL     1      96.151  82.988  75.920  1.00  0.00     0.157 A 
ATOM     10  C   UNL     1      97.949  81.632  76.852  1.00  0.00     0.056 A 
ATOM     11  C   UNL     1      95.568  83.082  77.197  1.00  0.00     0.050 A 
ATOM     12  C   UNL     1      96.162  82.438  78.295  1.00  0.00     0.009 A 
BRANCH   8  13
ATOM     13  O   UNL     1      97.939  82.169  74.510  1.00  0.00    -0.493 OA
ATOM     14  C   UNL     1      99.188  82.881  74.415  1.00  0.00     0.278 C 
ENDBRANCH   8  13
BRANCH   9  15
ATOM     15  O   UNL     1      95.563  83.594  74.859  1.00  0.00    -0.504 OA
ATOM     16  H   UNL     1      94.620  83.675  75.018  1.00  0.00     0.293 HD
ENDBRANCH   9  15
ENDBRANCH   6   7
ENDBRANCH   3   6
ENDBRANCH   1   2
BRANCH   1  17
ATOM     17  C   UNL     1     101.856  79.365  78.060  1.00  0.00     0.010 C 
BRANCH  17  18
ATOM     18  C   UNL     1     103.240  78.671  77.929  1.00  0.00     0.001 C 
BRANCH  18  19
ATOM     19  C   UNL     1     104.229  79.438  77.013  1.00  0.00     0.000 C 
BRANCH  19  20
ATOM     20  C   UNL     1     103.896  79.255  75.504  1.00  0.00     0.003 C 
BRANCH  20  21
ATOM     21  C   UNL     1     103.440  80.556  74.766  1.00  0.00    -0.017 C 
ATOM     22  C   UNL     1     101.907  80.532  74.494  1.00  0.00     0.007 C 
ATOM     23  C   UNL     1     104.214  80.800  73.438  1.00  0.00     0.007 C 
ENDBRANCH  20  21
ENDBRANCH  19  20
ENDBRANCH  18  19
ENDBRANCH  17  18
ENDBRANCH   1  17
TORSDOF 10
ENDMDL
