MODEL 1
REMARK VINA RESULT:    -6.752      0.000      0.000
REMARK INTER + INTRA:         -12.834
REMARK INTER:                 -11.094
REMARK INTRA:                  -1.739
REMARK UNBOUND:                -1.739
REMARK SMILES CCCCC[C@H](O)CC(=O)CCc1ccc(O)c(OC)c1
REMARK SMILES IDX 8 1 6 2 7 3 5 5 4 6 3 7 2 8 1 9 9 10 10 11 11 12 12 13 13 14
REMARK SMILES IDX 21 15 14 16 18 17 15 18 16 19 19 20 20 21 17 22
REMARK H PARENT 7 4 17 23
REMARK Flexibility Score: inf
ROOT
ATOM      1  C   UNL     1      90.317  88.209  78.032  1.00  0.00     0.107 C 
ENDROOT
BRANCH   1   2
ATOM      2  C   UNL     1      89.683  89.556  78.384  1.00  0.00     0.121 C 
BRANCH   2   3
ATOM      3  O   UNL     1      90.197  90.022  79.629  1.00  0.00    -0.393 OA
ATOM      4  H   UNL     1      89.460  90.050  80.264  1.00  0.00     0.210 HD
ENDBRANCH   2   3
BRANCH   2   5
ATOM      5  C   UNL     1      89.913  90.627  77.310  1.00  0.00     0.032 C 
BRANCH   5   6
ATOM      6  C   UNL     1      90.349  91.966  77.915  1.00  0.00     0.003 C 
BRANCH   6   7
ATOM      7  C   UNL     1      91.613  92.541  77.267  1.00  0.00    -0.000 C 
BRANCH   7   8
ATOM      8  C   UNL     1      91.451  93.981  76.783  1.00  0.00    -0.003 C 
ATOM      9  C   UNL     1      90.007  94.283  76.412  1.00  0.00     0.004 C 
ENDBRANCH   7   8
ENDBRANCH   6   7
ENDBRANCH   5   6
ENDBRANCH   2   5
ENDBRANCH   1   2
BRANCH   1  10
ATOM     10  C   UNL     1      90.081  87.798  76.587  1.00  0.00     0.135 C 
ATOM     11  O   UNL     1      88.944  87.579  76.170  1.00  0.00    -0.300 OA
BRANCH  10  12
ATOM     12  C   UNL     1      91.308  87.719  75.691  1.00  0.00     0.080 C 
BRANCH  12  13
ATOM     13  C   UNL     1      91.007  87.976  74.214  1.00  0.00     0.043 C 
BRANCH  13  14
ATOM     14  C   UNL     1      90.770  89.434  73.902  1.00  0.00    -0.044 A 
ATOM     15  C   UNL     1      89.513  89.861  73.472  1.00  0.00     0.054 A 
ATOM     16  C   UNL     1      91.808  90.356  74.046  1.00  0.00     0.008 A 
ATOM     17  C   UNL     1      89.295  91.208  73.185  1.00  0.00     0.160 A 
ATOM     18  C   UNL     1      91.589  91.703  73.759  1.00  0.00     0.050 A 
ATOM     19  C   UNL     1      90.333  92.129  73.329  1.00  0.00     0.157 A 
BRANCH  17  20
ATOM     20  O   UNL     1      88.064  91.613  72.765  1.00  0.00    -0.493 OA
ATOM     21  C   UNL     1      87.049  90.614  72.677  1.00  0.00     0.278 C 
ENDBRANCH  17  20
BRANCH  19  22
ATOM     22  O   UNL     1      90.132  93.448  73.052  1.00  0.00    -0.504 OA
ATOM     23  H   UNL     1      89.368  93.766  73.564  1.00  0.00     0.293 HD
ENDBRANCH  19  22
ENDBRANCH  13  14
ENDBRANCH  12  13
ENDBRANCH  10  12
ENDBRANCH   1  10
TORSDOF 12
ENDMDL
MODEL 2
REMARK VINA RESULT:    -6.613      2.565      6.135
REMARK INTER + INTRA:         -12.606
REMARK INTER:                 -10.896
REMARK INTRA:                  -1.710
REMARK UNBOUND:                -1.739
REMARK SMILES CCCCC[C@H](O)CC(=O)CCc1ccc(O)c(OC)c1
REMARK SMILES IDX 8 1 6 2 7 3 5 5 4 6 3 7 2 8 1 9 9 10 10 11 11 12 12 13 13 14
REMARK SMILES IDX 21 15 14 16 18 17 15 18 16 19 19 20 20 21 17 22
REMARK H PARENT 7 4 17 23
REMARK Flexibility Score: inf
ROOT
ATOM      1  C   UNL     1      88.748  92.122  72.620  1.00  0.00     0.107 C 
ENDROOT
BRANCH   1   2
ATOM      2  C   UNL     1      87.877  90.866  72.700  1.00  0.00     0.121 C 
BRANCH   2   3
ATOM      3  O   UNL     1      87.641  90.357  71.389  1.00  0.00    -0.393 OA
ATOM      4  H   UNL     1      87.498  91.116  70.797  1.00  0.00     0.210 HD
ENDBRANCH   2   3
BRANCH   2   5
ATOM      5  C   UNL     1      88.494  89.761  73.566  1.00  0.00     0.032 C 
BRANCH   5   6
ATOM      6  C   UNL     1      88.779  90.241  74.995  1.00  0.00     0.003 C 
BRANCH   6   7
ATOM      7  C   UNL     1      90.097  89.705  75.563  1.00  0.00    -0.000 C 
BRANCH   7   8
ATOM      8  C   UNL     1      90.904  88.879  74.563  1.00  0.00    -0.003 C 
ATOM      9  C   UNL     1      90.847  87.396  74.895  1.00  0.00     0.004 C 
ENDBRANCH   7   8
ENDBRANCH   6   7
ENDBRANCH   5   6
ENDBRANCH   2   5
ENDBRANCH   1   2
BRANCH   1  10
ATOM     10  C   UNL     1      90.156  91.839  72.121  1.00  0.00     0.135 C 
ATOM     11  O   UNL     1      90.348  91.379  70.995  1.00  0.00    -0.300 OA
BRANCH  10  12
ATOM     12  C   UNL     1      91.297  92.197  73.060  1.00  0.00     0.080 C 
BRANCH  12  13
ATOM     13  C   UNL     1      91.058  93.479  73.859  1.00  0.00     0.043 C 
BRANCH  13  14
ATOM     14  C   UNL     1      91.859  93.538  75.138  1.00  0.00    -0.044 A 
ATOM     15  C   UNL     1      93.138  94.093  75.135  1.00  0.00     0.054 A 
ATOM     16  C   UNL     1      91.318  93.036  76.323  1.00  0.00     0.008 A 
ATOM     17  C   UNL     1      93.877  94.148  76.318  1.00  0.00     0.160 A 
ATOM     18  C   UNL     1      92.057  93.091  77.505  1.00  0.00     0.050 A 
ATOM     19  C   UNL     1      93.337  93.646  77.502  1.00  0.00     0.157 A 
BRANCH  17  20
ATOM     20  O   UNL     1      95.126  94.692  76.302  1.00  0.00    -0.493 OA
ATOM     21  C   UNL     1      95.974  94.339  75.211  1.00  0.00     0.278 C 
ENDBRANCH  17  20
BRANCH  19  22
ATOM     22  O   UNL     1      94.048  93.694  78.662  1.00  0.00    -0.504 OA
ATOM     23  H   UNL     1      93.541  93.251  79.364  1.00  0.00     0.293 HD
ENDBRANCH  19  22
ENDBRANCH  13  14
ENDBRANCH  12  13
ENDBRANCH  10  12
ENDBRANCH   1  10
TORSDOF 12
ENDMDL
MODEL 3
REMARK VINA RESULT:    -6.313      2.029      5.679
REMARK INTER + INTRA:         -12.112
REMARK INTER:                 -11.241
REMARK INTRA:                  -0.871
REMARK UNBOUND:                -1.739
REMARK SMILES CCCCC[C@H](O)CC(=O)CCc1ccc(O)c(OC)c1
REMARK SMILES IDX 8 1 6 2 7 3 5 5 4 6 3 7 2 8 1 9 9 10 10 11 11 12 12 13 13 14
REMARK SMILES IDX 21 15 14 16 18 17 15 18 16 19 19 20 20 21 17 22
REMARK H PARENT 7 4 17 23
REMARK Flexibility Score: inf
ROOT
ATOM      1  C   UNL     1      88.528  92.071  72.094  1.00  0.00     0.107 C 
ENDROOT
BRANCH   1   2
ATOM      2  C   UNL     1      87.724  91.152  73.018  1.00  0.00     0.121 C 
BRANCH   2   3
ATOM      3  O   UNL     1      86.389  91.027  72.532  1.00  0.00    -0.393 OA
ATOM      4  H   UNL     1      86.270  90.112  72.223  1.00  0.00     0.210 HD
ENDBRANCH   2   3
BRANCH   2   5
ATOM      5  C   UNL     1      88.342  89.757  73.162  1.00  0.00     0.032 C 
BRANCH   5   6
ATOM      6  C   UNL     1      89.002  89.558  74.532  1.00  0.00     0.003 C 
BRANCH   6   7
ATOM      7  C   UNL     1      89.150  88.084  74.926  1.00  0.00    -0.000 C 
BRANCH   7   8
ATOM      8  C   UNL     1      90.449  87.777  75.668  1.00  0.00    -0.003 C 
ATOM      9  C   UNL     1      91.649  87.847  74.737  1.00  0.00     0.004 C 
ENDBRANCH   7   8
ENDBRANCH   6   7
ENDBRANCH   5   6
ENDBRANCH   2   5
ENDBRANCH   1   2
BRANCH   1  10
ATOM     10  C   UNL     1      89.921  91.542  71.794  1.00  0.00     0.135 C 
ATOM     11  O   UNL     1      90.127  90.817  70.821  1.00  0.00    -0.300 OA
BRANCH  10  12
ATOM     12  C   UNL     1      91.036  91.991  72.726  1.00  0.00     0.080 C 
BRANCH  12  13
ATOM     13  C   UNL     1      90.673  93.210  73.577  1.00  0.00     0.043 C 
BRANCH  13  14
ATOM     14  C   UNL     1      91.462  93.290  74.863  1.00  0.00    -0.044 A 
ATOM     15  C   UNL     1      91.004  92.632  76.004  1.00  0.00     0.054 A 
ATOM     16  C   UNL     1      92.648  94.023  74.908  1.00  0.00     0.008 A 
ATOM     17  C   UNL     1      91.734  92.706  77.191  1.00  0.00     0.160 A 
ATOM     18  C   UNL     1      93.378  94.097  76.094  1.00  0.00     0.050 A 
ATOM     19  C   UNL     1      92.920  93.439  77.236  1.00  0.00     0.157 A 
BRANCH  17  20
ATOM     20  O   UNL     1      91.277  92.059  78.299  1.00  0.00    -0.493 OA
ATOM     21  C   UNL     1      90.263  91.075  78.104  1.00  0.00     0.278 C 
ENDBRANCH  17  20
BRANCH  19  22
ATOM     22  O   UNL     1      93.641  93.519  78.389  1.00  0.00    -0.504 OA
ATOM     23  H   UNL     1      94.196  94.317  78.361  1.00  0.00     0.293 HD
ENDBRANCH  19  22
ENDBRANCH  13  14
ENDBRANCH  12  13
ENDBRANCH  10  12
ENDBRANCH   1  10
TORSDOF 12
ENDMDL
MODEL 4
REMARK VINA RESULT:    -6.183      2.205      5.168
REMARK INTER + INTRA:         -11.899
REMARK INTER:                  -9.989
REMARK INTRA:                  -1.910
REMARK UNBOUND:                -1.739
REMARK SMILES CCCCC[C@H](O)CC(=O)CCc1ccc(O)c(OC)c1
REMARK SMILES IDX 8 1 6 2 7 3 5 5 4 6 3 7 2 8 1 9 9 10 10 11 11 12 12 13 13 14
REMARK SMILES IDX 21 15 14 16 18 17 15 18 16 19 19 20 20 21 17 22
REMARK H PARENT 7 4 17 23
REMARK Flexibility Score: inf
ROOT
ATOM      1  C   UNL     1      88.641  90.775  73.565  1.00  0.00     0.107 C 
ENDROOT
BRANCH   1   2
ATOM      2  C   UNL     1      89.066  89.800  74.666  1.00  0.00     0.121 C 
BRANCH   2   3
ATOM      3  O   UNL     1      88.782  88.462  74.263  1.00  0.00    -0.393 OA
ATOM      4  H   UNL     1      88.499  87.968  75.051  1.00  0.00     0.210 HD
ENDBRANCH   2   3
BRANCH   2   5
ATOM      5  C   UNL     1      90.551  89.914  75.028  1.00  0.00     0.032 C 
BRANCH   5   6
ATOM      6  C   UNL     1      90.758  90.449  76.451  1.00  0.00     0.003 C 
BRANCH   6   7
ATOM      7  C   UNL     1      89.549  90.226  77.364  1.00  0.00    -0.000 C 
BRANCH   7   8
ATOM      8  C   UNL     1      89.820  89.259  78.515  1.00  0.00    -0.003 C 
ATOM      9  C   UNL     1      89.715  87.812  78.059  1.00  0.00     0.004 C 
ENDBRANCH   7   8
ENDBRANCH   6   7
ENDBRANCH   5   6
ENDBRANCH   2   5
ENDBRANCH   1   2
BRANCH   1  10
ATOM     10  C   UNL     1      89.652  90.873  72.434  1.00  0.00     0.135 C 
ATOM     11  O   UNL     1      89.869  89.913  71.695  1.00  0.00    -0.300 OA
BRANCH  10  12
ATOM     12  C   UNL     1      90.334  92.219  72.243  1.00  0.00     0.080 C 
BRANCH  12  13
ATOM     13  C   UNL     1      89.819  93.308  73.185  1.00  0.00     0.043 C 
BRANCH  13  14
ATOM     14  C   UNL     1      90.713  93.528  74.382  1.00  0.00    -0.044 A 
ATOM     15  C   UNL     1      92.089  93.321  74.272  1.00  0.00     0.054 A 
ATOM     16  C   UNL     1      90.164  93.938  75.597  1.00  0.00     0.008 A 
ATOM     17  C   UNL     1      92.914  93.524  75.378  1.00  0.00     0.160 A 
ATOM     18  C   UNL     1      90.990  94.142  76.703  1.00  0.00     0.050 A 
ATOM     19  C   UNL     1      92.365  93.934  76.593  1.00  0.00     0.157 A 
BRANCH  17  20
ATOM     20  O   UNL     1      94.256  93.318  75.260  1.00  0.00    -0.493 OA
ATOM     21  C   UNL     1      95.072  94.469  75.051  1.00  0.00     0.278 C 
ENDBRANCH  17  20
BRANCH  19  22
ATOM     22  O   UNL     1      93.160  94.137  77.680  1.00  0.00    -0.504 OA
ATOM     23  H   UNL     1      92.617  94.472  78.413  1.00  0.00     0.293 HD
ENDBRANCH  19  22
ENDBRANCH  13  14
ENDBRANCH  12  13
ENDBRANCH  10  12
ENDBRANCH   1  10
TORSDOF 12
ENDMDL
MODEL 5
REMARK VINA RESULT:    -5.853     12.073     14.986
REMARK INTER + INTRA:         -11.356
REMARK INTER:                  -9.448
REMARK INTRA:                  -1.908
REMARK UNBOUND:                -1.739
REMARK SMILES CCCCC[C@H](O)CC(=O)CCc1ccc(O)c(OC)c1
REMARK SMILES IDX 8 1 6 2 7 3 5 5 4 6 3 7 2 8 1 9 9 10 10 11 11 12 12 13 13 14
REMARK SMILES IDX 21 15 14 16 18 17 15 18 16 19 19 20 20 21 17 22
REMARK H PARENT 7 4 17 23
REMARK Flexibility Score: inf
ROOT
ATOM      1  C   UNL     1      80.974  87.048  83.653  1.00  0.00     0.107 C 
ENDROOT
BRANCH   1   2
ATOM      2  C   UNL     1      80.926  85.940  84.707  1.00  0.00     0.121 C 
BRANCH   2   3
ATOM      3  O   UNL     1      81.674  84.812  84.258  1.00  0.00    -0.393 OA
ATOM      4  H   UNL     1      81.681  84.828  83.285  1.00  0.00     0.210 HD
ENDBRANCH   2   3
BRANCH   2   5
ATOM      5  C   UNL     1      81.459  86.387  86.073  1.00  0.00     0.032 C 
BRANCH   5   6
ATOM      6  C   UNL     1      80.341  86.514  87.115  1.00  0.00     0.003 C 
BRANCH   6   7
ATOM      7  C   UNL     1      80.822  86.291  88.552  1.00  0.00    -0.000 C 
BRANCH   7   8
ATOM      8  C   UNL     1      81.640  87.453  89.111  1.00  0.00    -0.003 C 
ATOM      9  C   UNL     1      81.023  88.001  90.389  1.00  0.00     0.004 C 
ENDBRANCH   7   8
ENDBRANCH   6   7
ENDBRANCH   5   6
ENDBRANCH   2   5
ENDBRANCH   1   2
BRANCH   1  10
ATOM     10  C   UNL     1      80.079  88.230  83.989  1.00  0.00     0.135 C 
ATOM     11  O   UNL     1      78.853  88.124  83.957  1.00  0.00    -0.300 OA
BRANCH  10  12
ATOM     12  C   UNL     1      80.776  89.516  84.406  1.00  0.00     0.080 C 
BRANCH  12  13
ATOM     13  C   UNL     1      80.266  90.091  85.729  1.00  0.00     0.043 C 
BRANCH  13  14
ATOM     14  C   UNL     1      81.369  90.349  86.727  1.00  0.00    -0.044 A 
ATOM     15  C   UNL     1      82.684  90.001  86.419  1.00  0.00     0.054 A 
ATOM     16  C   UNL     1      81.072  90.934  87.958  1.00  0.00     0.008 A 
ATOM     17  C   UNL     1      83.703  90.240  87.342  1.00  0.00     0.160 A 
ATOM     18  C   UNL     1      82.090  91.174  88.881  1.00  0.00     0.050 A 
ATOM     19  C   UNL     1      83.405  90.826  88.573  1.00  0.00     0.157 A 
BRANCH  17  20
ATOM     20  O   UNL     1      84.983  89.896  87.030  1.00  0.00    -0.493 OA
ATOM     21  C   UNL     1      85.614  90.629  85.982  1.00  0.00     0.278 C 
ENDBRANCH  17  20
BRANCH  19  22
ATOM     22  O   UNL     1      84.391  91.065  89.482  1.00  0.00    -0.504 OA
ATOM     23  H   UNL     1      84.032  90.942  90.378  1.00  0.00     0.293 HD
ENDBRANCH  19  22
ENDBRANCH  13  14
ENDBRANCH  12  13
ENDBRANCH  10  12
ENDBRANCH   1  10
TORSDOF 12
ENDMDL
MODEL 6
REMARK VINA RESULT:    -5.780     12.697     14.721
REMARK INTER + INTRA:         -11.237
REMARK INTER:                  -9.323
REMARK INTRA:                  -1.915
REMARK UNBOUND:                -1.739
REMARK SMILES CCCCC[C@H](O)CC(=O)CCc1ccc(O)c(OC)c1
REMARK SMILES IDX 8 1 6 2 7 3 5 5 4 6 3 7 2 8 1 9 9 10 10 11 11 12 12 13 13 14
REMARK SMILES IDX 21 15 14 16 18 17 15 18 16 19 19 20 20 21 17 22
REMARK H PARENT 7 4 17 23
REMARK Flexibility Score: inf
ROOT
ATOM      1  C   UNL     1      80.288  85.736  86.187  1.00  0.00     0.107 C 
ENDROOT
BRANCH   1   2
ATOM      2  C   UNL     1      80.951  86.105  84.858  1.00  0.00     0.121 C 
BRANCH   2   3
ATOM      3  O   UNL     1      81.596  84.960  84.305  1.00  0.00    -0.393 OA
ATOM      4  H   UNL     1      81.190  84.169  84.702  1.00  0.00     0.210 HD
ENDBRANCH   2   3
BRANCH   2   5
ATOM      5  C   UNL     1      79.964  86.672  83.831  1.00  0.00     0.032 C 
BRANCH   5   6
ATOM      6  C   UNL     1      80.454  87.994  83.229  1.00  0.00     0.003 C 
BRANCH   6   7
ATOM      7  C   UNL     1      81.483  88.716  84.105  1.00  0.00    -0.000 C 
BRANCH   7   8
ATOM      8  C   UNL     1      81.051  90.119  84.527  1.00  0.00    -0.003 C 
ATOM      9  C   UNL     1      79.783  90.080  85.366  1.00  0.00     0.004 C 
ENDBRANCH   7   8
ENDBRANCH   6   7
ENDBRANCH   5   6
ENDBRANCH   2   5
ENDBRANCH   1   2
BRANCH   1  10
ATOM     10  C   UNL     1      80.455  86.807  87.253  1.00  0.00     0.135 C 
ATOM     11  O   UNL     1      79.504  87.159  87.950  1.00  0.00    -0.300 OA
BRANCH  10  12
ATOM     12  C   UNL     1      81.855  87.374  87.436  1.00  0.00     0.080 C 
BRANCH  12  13
ATOM     13  C   UNL     1      81.942  88.460  88.510  1.00  0.00     0.043 C 
BRANCH  13  14
ATOM     14  C   UNL     1      82.606  89.725  88.020  1.00  0.00    -0.044 A 
ATOM     15  C   UNL     1      82.261  90.956  88.578  1.00  0.00     0.054 A 
ATOM     16  C   UNL     1      83.566  89.661  87.009  1.00  0.00     0.008 A 
ATOM     17  C   UNL     1      82.876  92.123  88.125  1.00  0.00     0.160 A 
ATOM     18  C   UNL     1      84.181  90.829  86.556  1.00  0.00     0.050 A 
ATOM     19  C   UNL     1      83.835  92.060  87.114  1.00  0.00     0.157 A 
BRANCH  17  20
ATOM     20  O   UNL     1      82.530  93.320  88.677  1.00  0.00    -0.493 OA
ATOM     21  C   UNL     1      81.349  93.348  89.477  1.00  0.00     0.278 C 
ENDBRANCH  17  20
BRANCH  19  22
ATOM     22  O   UNL     1      84.443  93.193  86.664  1.00  0.00    -0.504 OA
ATOM     23  H   UNL     1      85.303  93.289  87.107  1.00  0.00     0.293 HD
ENDBRANCH  19  22
ENDBRANCH  13  14
ENDBRANCH  12  13
ENDBRANCH  10  12
ENDBRANCH   1  10
TORSDOF 12
ENDMDL
MODEL 7
REMARK VINA RESULT:    -5.580      4.025      7.310
REMARK INTER + INTRA:         -10.908
REMARK INTER:                  -9.820
REMARK INTRA:                  -1.088
REMARK UNBOUND:                -1.739
REMARK SMILES CCCCC[C@H](O)CC(=O)CCc1ccc(O)c(OC)c1
REMARK SMILES IDX 8 1 6 2 7 3 5 5 4 6 3 7 2 8 1 9 9 10 10 11 11 12 12 13 13 14
REMARK SMILES IDX 21 15 14 16 18 17 15 18 16 19 19 20 20 21 17 22
REMARK H PARENT 7 4 17 23
REMARK Flexibility Score: inf
ROOT
ATOM      1  C   UNL     1      90.367  92.666  76.157  1.00  0.00     0.107 C 
ENDROOT
BRANCH   1   2
ATOM      2  C   UNL     1      89.876  92.245  74.770  1.00  0.00     0.121 C 
BRANCH   2   3
ATOM      3  O   UNL     1      89.912  93.362  73.885  1.00  0.00    -0.393 OA
ATOM      4  H   UNL     1      90.776  93.798  73.992  1.00  0.00     0.210 HD
ENDBRANCH   2   3
BRANCH   2   5
ATOM      5  C   UNL     1      90.692  91.096  74.167  1.00  0.00     0.032 C 
BRANCH   5   6
ATOM      6  C   UNL     1      90.736  91.161  72.636  1.00  0.00     0.003 C 
BRANCH   6   7
ATOM      7  C   UNL     1      89.778  90.177  71.959  1.00  0.00    -0.000 C 
BRANCH   7   8
ATOM      8  C   UNL     1      88.400  90.768  71.665  1.00  0.00    -0.003 C 
ATOM      9  C   UNL     1      87.374  90.323  72.696  1.00  0.00     0.004 C 
ENDBRANCH   7   8
ENDBRANCH   6   7
ENDBRANCH   5   6
ENDBRANCH   2   5
ENDBRANCH   1   2
BRANCH   1  10
ATOM     10  C   UNL     1      90.536  94.170  76.299  1.00  0.00     0.135 C 
ATOM     11  O   UNL     1      89.558  94.918  76.309  1.00  0.00    -0.300 OA
BRANCH  10  12
ATOM     12  C   UNL     1      91.957  94.684  76.470  1.00  0.00     0.080 C 
BRANCH  12  13
ATOM     13  C   UNL     1      93.029  93.622  76.218  1.00  0.00     0.043 C 
BRANCH  13  14
ATOM     14  C   UNL     1      94.432  94.130  76.451  1.00  0.00    -0.044 A 
ATOM     15  C   UNL     1      94.855  94.442  77.743  1.00  0.00     0.054 A 
ATOM     16  C   UNL     1      95.305  94.287  75.374  1.00  0.00     0.008 A 
ATOM     17  C   UNL     1      96.152  94.911  77.958  1.00  0.00     0.160 A 
ATOM     18  C   UNL     1      96.601  94.756  75.588  1.00  0.00     0.050 A 
ATOM     19  C   UNL     1      97.024  95.068  76.880  1.00  0.00     0.157 A 
BRANCH  17  20
ATOM     20  O   UNL     1      96.554  95.213  79.224  1.00  0.00    -0.493 OA
ATOM     21  C   UNL     1      95.556  95.189  80.244  1.00  0.00     0.278 C 
ENDBRANCH  17  20
BRANCH  19  22
ATOM     22  O   UNL     1      98.292  95.525  77.077  1.00  0.00    -0.504 OA
ATOM     23  H   UNL     1      98.257  96.333  77.618  1.00  0.00     0.293 HD
ENDBRANCH  19  22
ENDBRANCH  13  14
ENDBRANCH  12  13
ENDBRANCH  10  12
ENDBRANCH   1  10
TORSDOF 12
ENDMDL
MODEL 8
REMARK VINA RESULT:    -5.542     12.182     15.339
REMARK INTER + INTRA:         -10.846
REMARK INTER:                  -8.797
REMARK INTRA:                  -2.048
REMARK UNBOUND:                -1.739
REMARK SMILES CCCCC[C@H](O)CC(=O)CCc1ccc(O)c(OC)c1
REMARK SMILES IDX 8 1 6 2 7 3 5 5 4 6 3 7 2 8 1 9 9 10 10 11 11 12 12 13 13 14
REMARK SMILES IDX 21 15 14 16 18 17 15 18 16 19 19 20 20 21 17 22
REMARK H PARENT 7 4 17 23
REMARK Flexibility Score: inf
ROOT
ATOM      1  C   UNL     1      80.949  85.933  85.173  1.00  0.00     0.107 C 
ENDROOT
BRANCH   1   2
ATOM      2  C   UNL     1      80.876  87.051  84.130  1.00  0.00     0.121 C 
BRANCH   2   3
ATOM      3  O   UNL     1      80.929  86.494  82.819  1.00  0.00    -0.393 OA
ATOM      4  H   UNL     1      80.855  87.226  82.182  1.00  0.00     0.210 HD
ENDBRANCH   2   3
BRANCH   2   5
ATOM      5  C   UNL     1      79.614  87.912  84.262  1.00  0.00     0.032 C 
BRANCH   5   6
ATOM      6  C   UNL     1      79.938  89.350  84.687  1.00  0.00     0.003 C 
BRANCH   6   7
ATOM      7  C   UNL     1      81.353  89.792  84.298  1.00  0.00    -0.000 C 
BRANCH   7   8
ATOM      8  C   UNL     1      82.294  89.951  85.491  1.00  0.00    -0.003 C 
ATOM      9  C   UNL     1      83.750  89.948  85.052  1.00  0.00     0.004 C 
ENDBRANCH   7   8
ENDBRANCH   6   7
ENDBRANCH   5   6
ENDBRANCH   2   5
ENDBRANCH   1   2
BRANCH   1  10
ATOM     10  C   UNL     1      82.083  86.119  86.167  1.00  0.00     0.135 C 
ATOM     11  O   UNL     1      83.235  86.322  85.783  1.00  0.00    -0.300 OA
BRANCH  10  12
ATOM     12  C   UNL     1      81.710  86.086  87.641  1.00  0.00     0.080 C 
BRANCH  12  13
ATOM     13  C   UNL     1      80.486  86.937  87.985  1.00  0.00     0.043 C 
BRANCH  13  14
ATOM     14  C   UNL     1      80.842  88.344  88.402  1.00  0.00    -0.044 A 
ATOM     15  C   UNL     1      82.096  88.613  88.950  1.00  0.00     0.054 A 
ATOM     16  C   UNL     1      79.915  89.374  88.240  1.00  0.00     0.008 A 
ATOM     17  C   UNL     1      82.424  89.914  89.334  1.00  0.00     0.160 A 
ATOM     18  C   UNL     1      80.243  90.675  88.624  1.00  0.00     0.050 A 
ATOM     19  C   UNL     1      81.497  90.944  89.172  1.00  0.00     0.157 A 
BRANCH  17  20
ATOM     20  O   UNL     1      83.652  90.165  89.868  1.00  0.00    -0.493 OA
ATOM     21  C   UNL     1      83.823  89.888  91.257  1.00  0.00     0.278 C 
ENDBRANCH  17  20
BRANCH  19  22
ATOM     22  O   UNL     1      81.805  92.218  89.543  1.00  0.00    -0.504 OA
ATOM     23  H   UNL     1      81.003  92.765  89.495  1.00  0.00     0.293 HD
ENDBRANCH  19  22
ENDBRANCH  13  14
ENDBRANCH  12  13
ENDBRANCH  10  12
ENDBRANCH   1  10
TORSDOF 12
ENDMDL
MODEL 9
REMARK VINA RESULT:    -5.475      3.933      7.151
REMARK INTER + INTRA:         -10.735
REMARK INTER:                  -9.724
REMARK INTRA:                  -1.010
REMARK UNBOUND:                -1.739
REMARK SMILES CCCCC[C@H](O)CC(=O)CCc1ccc(O)c(OC)c1
REMARK SMILES IDX 8 1 6 2 7 3 5 5 4 6 3 7 2 8 1 9 9 10 10 11 11 12 12 13 13 14
REMARK SMILES IDX 21 15 14 16 18 17 15 18 16 19 19 20 20 21 17 22
REMARK H PARENT 7 4 17 23
REMARK Flexibility Score: inf
ROOT
ATOM      1  C   UNL     1      90.323  92.557  76.327  1.00  0.00     0.107 C 
ENDROOT
BRANCH   1   2
ATOM      2  C   UNL     1      89.946  92.030  74.940  1.00  0.00     0.121 C 
BRANCH   2   3
ATOM      3  O   UNL     1      89.906  93.107  74.007  1.00  0.00    -0.393 OA
ATOM      4  H   UNL     1      89.144  93.669  74.235  1.00  0.00     0.210 HD
ENDBRANCH   2   3
BRANCH   2   5
ATOM      5  C   UNL     1      90.910  90.953  74.426  1.00  0.00     0.032 C 
BRANCH   5   6
ATOM      6  C   UNL     1      90.177  89.666  74.029  1.00  0.00     0.003 C 
BRANCH   6   7
ATOM      7  C   UNL     1      91.008  88.399  74.260  1.00  0.00    -0.000 C 
BRANCH   7   8
ATOM      8  C   UNL     1      90.396  87.444  75.283  1.00  0.00    -0.003 C 
ATOM      9  C   UNL     1      90.370  88.063  76.672  1.00  0.00     0.004 C 
ENDBRANCH   7   8
ENDBRANCH   6   7
ENDBRANCH   5   6
ENDBRANCH   2   5
ENDBRANCH   1   2
BRANCH   1  10
ATOM     10  C   UNL     1      90.498  94.067  76.362  1.00  0.00     0.135 C 
ATOM     11  O   UNL     1      89.532  94.819  76.237  1.00  0.00    -0.300 OA
BRANCH  10  12
ATOM     12  C   UNL     1      91.907  94.584  76.604  1.00  0.00     0.080 C 
BRANCH  12  13
ATOM     13  C   UNL     1      92.983  93.829  75.821  1.00  0.00     0.043 C 
BRANCH  13  14
ATOM     14  C   UNL     1      94.386  94.269  76.167  1.00  0.00    -0.044 A 
ATOM     15  C   UNL     1      94.770  94.390  77.502  1.00  0.00     0.054 A 
ATOM     16  C   UNL     1      95.297  94.554  75.150  1.00  0.00     0.008 A 
ATOM     17  C   UNL     1      96.066  94.795  77.820  1.00  0.00     0.160 A 
ATOM     18  C   UNL     1      96.593  94.960  75.467  1.00  0.00     0.050 A 
ATOM     19  C   UNL     1      96.978  95.081  76.803  1.00  0.00     0.157 A 
BRANCH  17  20
ATOM     20  O   UNL     1      96.430  94.910  79.128  1.00  0.00    -0.493 OA
ATOM     21  C   UNL     1      95.652  94.191  80.083  1.00  0.00     0.278 C 
ENDBRANCH  17  20
BRANCH  19  22
ATOM     22  O   UNL     1      98.246  95.478  77.101  1.00  0.00    -0.504 OA
ATOM     23  H   UNL     1      98.207  96.204  77.747  1.00  0.00     0.293 HD
ENDBRANCH  19  22
ENDBRANCH  13  14
ENDBRANCH  12  13
ENDBRANCH  10  12
ENDBRANCH   1  10
TORSDOF 12
ENDMDL
MODEL 10
REMARK VINA RESULT:    -5.370     12.838     15.709
REMARK INTER + INTRA:         -10.562
REMARK INTER:                  -8.229
REMARK INTRA:                  -2.333
REMARK UNBOUND:                -1.739
REMARK SMILES CCCCC[C@H](O)CC(=O)CCc1ccc(O)c(OC)c1
REMARK SMILES IDX 8 1 6 2 7 3 5 5 4 6 3 7 2 8 1 9 9 10 10 11 11 12 12 13 13 14
REMARK SMILES IDX 21 15 14 16 18 17 15 18 16 19 19 20 20 21 17 22
REMARK H PARENT 7 4 17 23
REMARK Flexibility Score: inf
ROOT
ATOM      1  C   UNL     1      80.125  86.077  85.179  1.00  0.00     0.107 C 
ENDROOT
BRANCH   1   2
ATOM      2  C   UNL     1      80.163  87.136  84.074  1.00  0.00     0.121 C 
BRANCH   2   3
ATOM      3  O   UNL     1      79.689  86.576  82.851  1.00  0.00    -0.393 OA
ATOM      4  H   UNL     1      79.624  87.295  82.200  1.00  0.00     0.210 HD
ENDBRANCH   2   3
BRANCH   2   5
ATOM      5  C   UNL     1      79.338  88.384  84.410  1.00  0.00     0.032 C 
BRANCH   5   6
ATOM      6  C   UNL     1      80.208  89.519  84.962  1.00  0.00     0.003 C 
BRANCH   6   7
ATOM      7  C   UNL     1      81.699  89.346  84.651  1.00  0.00    -0.000 C 
BRANCH   7   8
ATOM      8  C   UNL     1      82.615  89.749  85.805  1.00  0.00    -0.003 C 
ATOM      9  C   UNL     1      83.793  88.796  85.935  1.00  0.00     0.004 C 
ENDBRANCH   7   8
ENDBRANCH   6   7
ENDBRANCH   5   6
ENDBRANCH   2   5
ENDBRANCH   1   2
BRANCH   1  10
ATOM     10  C   UNL     1      81.485  85.827  85.811  1.00  0.00     0.135 C 
ATOM     11  O   UNL     1      82.431  85.421  85.136  1.00  0.00    -0.300 OA
BRANCH  10  12
ATOM     12  C   UNL     1      81.618  86.148  87.291  1.00  0.00     0.080 C 
BRANCH  12  13
ATOM     13  C   UNL     1      80.431  86.927  87.861  1.00  0.00     0.043 C 
BRANCH  13  14
ATOM     14  C   UNL     1      80.844  88.166  88.618  1.00  0.00    -0.044 A 
ATOM     15  C   UNL     1      80.058  89.317  88.557  1.00  0.00     0.054 A 
ATOM     16  C   UNL     1      82.014  88.160  89.379  1.00  0.00     0.008 A 
ATOM     17  C   UNL     1      80.440  90.461  89.257  1.00  0.00     0.160 A 
ATOM     18  C   UNL     1      82.396  89.304  90.080  1.00  0.00     0.050 A 
ATOM     19  C   UNL     1      81.610  90.455  90.018  1.00  0.00     0.157 A 
BRANCH  17  20
ATOM     20  O   UNL     1      79.664  91.578  89.189  1.00  0.00    -0.493 OA
ATOM     21  C   UNL     1      78.437  91.561  89.917  1.00  0.00     0.278 C 
ENDBRANCH  17  20
BRANCH  19  22
ATOM     22  O   UNL     1      81.994  91.565  90.706  1.00  0.00    -0.504 OA
ATOM     23  H   UNL     1      81.391  91.697  91.458  1.00  0.00     0.293 HD
ENDBRANCH  19  22
ENDBRANCH  13  14
ENDBRANCH  12  13
ENDBRANCH  10  12
ENDBRANCH   1  10
TORSDOF 12
ENDMDL
