MODEL 1
REMARK VINA RESULT:    -6.711      0.000      0.000
REMARK INTER + INTRA:         -12.824
REMARK INTER:                 -11.419
REMARK INTRA:                  -1.405
REMARK UNBOUND:                -1.405
REMARK SMILES C=C(C)[C@]12C[C@@H](C)[C@@]34O[C@](Cc5ccccc5)(O[C@@H]1[C@@H]3C=C(COC(=O)Cc1ccc(O)cc1)C[C@]1(O)C(=O)C(C)=C[C@@H]41)O2
REMARK SMILES IDX 23 1 22 2 21 3 20 4 9 5 8 6 10 7 6 8 18 10 44 11 19 12 5 13
REMARK SMILES IDX 7 14 4 15 11 16 12 17 13 18 17 19 14 20 16 21 15 22 2 23
REMARK SMILES IDX 3 24 1 25 35 26 36 27 43 28 38 29 42 30 39 32 40 33 41 34
REMARK SMILES IDX 37 35 24 37 25 38 26 39 27 40 28 41 29 42 34 43 30 44 33 45
REMARK SMILES IDX 31 46 32 47
REMARK H PARENT 37 36 32 48
REMARK Flexibility Score: 90.00
ROOT
ATOM      1  C   UNL     1      89.727  98.905  70.386  1.00  0.00     0.264 C 
ENDROOT
BRANCH   1   2
ATOM      2  C   UNL     1      90.705 100.038  70.599  1.00  0.00    -0.033 C 
ATOM      3  C   UNL     1      90.286 101.310  70.435  1.00  0.00    -0.015 C 
BRANCH   3   4
ATOM      4  C   UNL     1      91.078 102.605  70.513  1.00  0.00     0.078 C 
ATOM      5  O   UNL     1      90.891 103.424  72.840  1.00  0.00    -0.319 OA
ATOM      6  C   UNL     1      91.846 102.933  71.847  1.00  0.00     0.095 CG0
ATOM      7  C   UNL     1      89.911 104.355  72.343  1.00  0.00     0.289 C 
ATOM      8  C   UNL     1      92.900 104.071  71.526  1.00  0.00     0.023 C 
ATOM      9  G   UNL     1      92.433 101.638  72.480  1.00  0.00     0.000 G0
ATOM     10  O   UNL     1      89.157 103.791  71.273  1.00  0.00    -0.320 OA
ATOM     11  O   UNL     1      90.505 105.538  71.814  1.00  0.00    -0.313 OA
ATOM     12  C   UNL     1      90.147 103.810  70.232  1.00  0.00     0.170 C 
ATOM     13  C   UNL     1      92.374 105.044  70.426  1.00  0.00     0.049 C 
ATOM     14  C   UNL     1      93.383 104.886  72.738  1.00  0.00     0.011 C 
ATOM     15  C   UNL     1      90.851 105.169  70.462  1.00  0.00     0.122 C 
BRANCH   7  16
ATOM     16  C   UNL     1      88.984 104.723  73.484  1.00  0.00     0.135 C 
BRANCH  16  17
ATOM     17  C   UNL     1      89.603 104.437  74.830  1.00  0.00    -0.040 A 
ATOM     18  C   UNL     1      90.588 105.282  75.339  1.00  0.00     0.004 A 
ATOM     19  C   UNL     1      89.188 103.327  75.565  1.00  0.00     0.004 A 
ATOM     20  C   UNL     1      91.160 105.018  76.584  1.00  0.00     0.000 A 
ATOM     21  C   UNL     1      89.760 103.063  76.810  1.00  0.00     0.000 A 
ATOM     22  C   UNL     1      90.745 103.908  77.319  1.00  0.00     0.000 A 
ENDBRANCH  16  17
ENDBRANCH   7  16
BRANCH  15  23
ATOM     23  C   UNL     1      90.340 106.229  69.541  1.00  0.00    -0.046 C 
ATOM     24  C   UNL     1      90.484 105.956  68.073  1.00  0.00     0.042 C 
ATOM     25  C   UNL     1      89.785 107.360  70.000  1.00  0.00     0.010 C 
ENDBRANCH  15  23
ENDBRANCH   3   4
BRANCH   2  26
ATOM     26  C   UNL     1      92.090  99.563  70.996  1.00  0.00     0.078 C 
BRANCH  26  27
ATOM     27  C   UNL     1      93.077 100.621  71.485  1.00  0.00     0.140 C 
ATOM     28  C   UNL     1      92.426 101.618  72.466  1.00  0.00     0.086 CG0
ATOM     29  C   UNL     1      94.196 100.030  72.317  1.00  0.00     0.190 C 
ATOM     30  C   UNL     1      93.429 101.716  73.581  1.00  0.00    -0.010 C 
ATOM     31  G   UNL     1      91.851 102.921  71.838  1.00  0.00     0.000 G0
ATOM     32  O   UNL     1      94.869  99.058  72.009  1.00  0.00    -0.291 OA
ATOM     33  C   UNL     1      94.419 100.820  73.542  1.00  0.00    -0.008 C 
ATOM     34  C   UNL     1      95.517 100.572  74.499  1.00  0.00     0.048 C 
BRANCH  27  35
ATOM     35  O   UNL     1      93.751 101.240  70.402  1.00  0.00    -0.381 OA
ATOM     36  H   UNL     1      93.844 102.187  70.601  1.00  0.00     0.212 HD
ENDBRANCH  27  35
ENDBRANCH  26  27
ENDBRANCH   2  26
ENDBRANCH   1   2
BRANCH   1  37
ATOM     37  O   UNL     1      89.024  99.116  69.180  1.00  0.00    -0.461 OA
BRANCH  37  38
ATOM     38  C   UNL     1      89.416  98.350  68.107  1.00  0.00     0.310 C 
ATOM     39  O   UNL     1      89.443  97.127  68.089  1.00  0.00    -0.252 OA
BRANCH  38  40
ATOM     40  C   UNL     1      89.805  99.251  66.960  1.00  0.00     0.158 C 
BRANCH  40  41
ATOM     41  C   UNL     1      88.819 100.366  66.727  1.00  0.00    -0.037 A 
ATOM     42  C   UNL     1      87.497 100.070  66.393  1.00  0.00     0.008 A 
ATOM     43  C   UNL     1      89.226 101.695  66.846  1.00  0.00     0.008 A 
ATOM     44  C   UNL     1      86.584 101.103  66.176  1.00  0.00     0.046 A 
ATOM     45  C   UNL     1      88.314 102.727  66.631  1.00  0.00     0.046 A 
ATOM     46  C   UNL     1      86.993 102.432  66.296  1.00  0.00     0.115 A 
BRANCH  46  47
ATOM     47  O   UNL     1      86.102 103.438  66.085  1.00  0.00    -0.508 OA
ATOM     48  H   UNL     1      86.537 104.142  65.572  1.00  0.00     0.293 HD
ENDBRANCH  46  47
ENDBRANCH  40  41
ENDBRANCH  38  40
ENDBRANCH  37  38
ENDBRANCH   1  37
TORSDOF 10
ENDMDL
MODEL 2
REMARK VINA RESULT:    -6.600      3.304      6.942
REMARK INTER + INTRA:         -12.635
REMARK INTER:                 -11.864
REMARK INTRA:                  -0.770
REMARK UNBOUND:                -1.405
REMARK SMILES C=C(C)[C@]12C[C@@H](C)[C@@]34O[C@](Cc5ccccc5)(O[C@@H]1[C@@H]3C=C(COC(=O)Cc1ccc(O)cc1)C[C@]1(O)C(=O)C(C)=C[C@@H]41)O2
REMARK SMILES IDX 23 1 22 2 21 3 20 4 9 5 8 6 10 7 6 8 18 10 44 11 19 12 5 13
REMARK SMILES IDX 7 14 4 15 11 16 12 17 13 18 17 19 14 20 16 21 15 22 2 23
REMARK SMILES IDX 3 24 1 25 35 26 36 27 43 28 38 29 42 30 39 32 40 33 41 34
REMARK SMILES IDX 37 35 24 37 25 38 26 39 27 40 28 41 29 42 34 43 30 44 33 45
REMARK SMILES IDX 31 46 32 47
REMARK H PARENT 37 36 32 48
REMARK Flexibility Score: 90.00
ROOT
ATOM      1  C   UNL     1      89.546  98.933  70.325  1.00  0.00     0.264 C 
ENDROOT
BRANCH   1   2
ATOM      2  C   UNL     1      90.778  99.797  70.467  1.00  0.00    -0.033 C 
ATOM      3  C   UNL     1      91.848  99.315  71.134  1.00  0.00    -0.015 C 
BRANCH   3   4
ATOM      4  C   UNL     1      93.160 100.001  71.477  1.00  0.00     0.078 C 
ATOM      5  O   UNL     1      94.750  99.465  69.660  1.00  0.00    -0.319 OA
ATOM      6  C   UNL     1      94.038 100.568  70.301  1.00  0.00     0.095 CG0
ATOM      7  C   UNL     1      95.319  98.494  70.560  1.00  0.00     0.289 C 
ATOM      8  C   UNL     1      95.088 101.575  70.929  1.00  0.00     0.023 C 
ATOM      9  G   UNL     1      93.139 101.157  69.175  1.00  0.00     0.000 G0
ATOM     10  O   UNL     1      94.322  97.923  71.402  1.00  0.00    -0.320 OA
ATOM     11  O   UNL     1      96.283  99.069  71.439  1.00  0.00    -0.313 OA
ATOM     12  C   UNL     1      94.066  99.033  72.277  1.00  0.00     0.170 C 
ATOM     13  C   UNL     1      95.524 101.128  72.358  1.00  0.00     0.049 C 
ATOM     14  C   UNL     1      96.339 101.843  70.075  1.00  0.00     0.011 C 
ATOM     15  C   UNL     1      95.484  99.607  72.513  1.00  0.00     0.122 C 
BRANCH   7  16
ATOM     16  C   UNL     1      95.976  97.407  69.732  1.00  0.00     0.135 C 
BRANCH  16  17
ATOM     17  C   UNL     1      97.125  97.937  68.912  1.00  0.00    -0.040 A 
ATOM     18  C   UNL     1      98.399  97.388  69.059  1.00  0.00     0.004 A 
ATOM     19  C   UNL     1      96.914  98.976  68.006  1.00  0.00     0.004 A 
ATOM     20  C   UNL     1      99.462  97.878  68.299  1.00  0.00     0.000 A 
ATOM     21  C   UNL     1      97.977  99.466  67.246  1.00  0.00     0.000 A 
ATOM     22  C   UNL     1      99.250  98.917  67.394  1.00  0.00     0.000 A 
ENDBRANCH  16  17
ENDBRANCH   7  16
BRANCH  15  23
ATOM     23  C   UNL     1      96.068  99.147  73.809  1.00  0.00    -0.046 C 
ATOM     24  C   UNL     1      96.919 100.141  74.542  1.00  0.00     0.042 C 
ATOM     25  C   UNL     1      95.845  97.915  74.289  1.00  0.00     0.010 C 
ENDBRANCH  15  23
ENDBRANCH   3   4
BRANCH   2  26
ATOM     26  C   UNL     1      90.635 101.152  69.800  1.00  0.00     0.078 C 
BRANCH  26  27
ATOM     27  C   UNL     1      91.897 102.003  69.673  1.00  0.00     0.140 C 
ATOM     28  C   UNL     1      93.110 101.181  69.190  1.00  0.00     0.086 CG0
ATOM     29  C   UNL     1      91.775 103.064  68.599  1.00  0.00     0.190 C 
ATOM     30  C   UNL     1      93.717 102.048  68.122  1.00  0.00    -0.010 C 
ATOM     31  G   UNL     1      94.022 100.587  70.302  1.00  0.00     0.000 G0
ATOM     32  O   UNL     1      90.835 103.834  68.469  1.00  0.00    -0.291 OA
ATOM     33  C   UNL     1      92.979 103.097  67.748  1.00  0.00    -0.008 C 
ATOM     34  C   UNL     1      93.218 104.099  66.689  1.00  0.00     0.048 C 
BRANCH  27  35
ATOM     35  O   UNL     1      92.143 102.746  70.856  1.00  0.00    -0.381 OA
ATOM     36  H   UNL     1      92.987 103.217  70.751  1.00  0.00     0.212 HD
ENDBRANCH  27  35
ENDBRANCH  26  27
ENDBRANCH   2  26
ENDBRANCH   1   2
BRANCH   1  37
ATOM     37  O   UNL     1      89.099  98.975  68.987  1.00  0.00    -0.461 OA
BRANCH  37  38
ATOM     38  C   UNL     1      89.653  98.050  68.132  1.00  0.00     0.310 C 
ATOM     39  O   UNL     1      90.090  96.958  68.466  1.00  0.00    -0.252 OA
BRANCH  38  40
ATOM     40  C   UNL     1      89.636  98.593  66.723  1.00  0.00     0.158 C 
BRANCH  40  41
ATOM     41  C   UNL     1      88.782  99.826  66.579  1.00  0.00    -0.037 A 
ATOM     42  C   UNL     1      89.378 101.086  66.542  1.00  0.00     0.008 A 
ATOM     43  C   UNL     1      87.396  99.708  66.482  1.00  0.00     0.008 A 
ATOM     44  C   UNL     1      88.588 102.229  66.409  1.00  0.00     0.046 A 
ATOM     45  C   UNL     1      86.605 100.849  66.348  1.00  0.00     0.046 A 
ATOM     46  C   UNL     1      87.201 102.109  66.313  1.00  0.00     0.115 A 
BRANCH  46  47
ATOM     47  O   UNL     1      86.430 103.224  66.183  1.00  0.00    -0.508 OA
ATOM     48  H   UNL     1      86.987 103.958  65.869  1.00  0.00     0.293 HD
ENDBRANCH  46  47
ENDBRANCH  40  41
ENDBRANCH  38  40
ENDBRANCH  37  38
ENDBRANCH   1  37
TORSDOF 10
ENDMDL
MODEL 3
REMARK VINA RESULT:    -6.472      2.760      5.974
REMARK INTER + INTRA:         -12.418
REMARK INTER:                 -10.431
REMARK INTRA:                  -1.987
REMARK UNBOUND:                -1.405
REMARK SMILES C=C(C)[C@]12C[C@@H](C)[C@@]34O[C@](Cc5ccccc5)(O[C@@H]1[C@@H]3C=C(COC(=O)Cc1ccc(O)cc1)C[C@]1(O)C(=O)C(C)=C[C@@H]41)O2
REMARK SMILES IDX 23 1 22 2 21 3 20 4 9 5 8 6 10 7 6 8 18 10 44 11 19 12 5 13
REMARK SMILES IDX 7 14 4 15 11 16 12 17 13 18 17 19 14 20 16 21 15 22 2 23
REMARK SMILES IDX 3 24 1 25 35 26 36 27 43 28 38 29 42 30 39 32 40 33 41 34
REMARK SMILES IDX 37 35 24 37 25 38 26 39 27 40 28 41 29 42 34 43 30 44 33 45
REMARK SMILES IDX 31 46 32 47
REMARK H PARENT 37 36 32 48
REMARK Flexibility Score: 90.00
ROOT
ATOM      1  C   UNL     1      90.140  98.740  69.946  1.00  0.00     0.264 C 
ENDROOT
BRANCH   1   2
ATOM      2  C   UNL     1      90.741 100.123  70.047  1.00  0.00    -0.033 C 
ATOM      3  C   UNL     1      91.752 100.464  69.221  1.00  0.00    -0.015 C 
BRANCH   3   4
ATOM      4  C   UNL     1      92.567 101.746  69.172  1.00  0.00     0.078 C 
ATOM      5  O   UNL     1      91.450 103.249  67.556  1.00  0.00    -0.319 OA
ATOM      6  C   UNL     1      91.808 103.109  68.966  1.00  0.00     0.095 CG0
ATOM      7  C   UNL     1      92.476 102.865  66.620  1.00  0.00     0.289 C 
ATOM      8  C   UNL     1      92.798 104.276  69.374  1.00  0.00     0.023 C 
ATOM      9  G   UNL     1      90.442 103.099  69.714  1.00  0.00     0.000 G0
ATOM     10  O   UNL     1      92.882 101.514  66.823  1.00  0.00    -0.320 OA
ATOM     11  O   UNL     1      93.659 103.647  66.761  1.00  0.00    -0.313 OA
ATOM     12  C   UNL     1      93.624 101.655  68.044  1.00  0.00     0.170 C 
ATOM     13  C   UNL     1      94.278 103.912  69.043  1.00  0.00     0.049 C 
ATOM     14  C   UNL     1      92.469 105.658  68.785  1.00  0.00     0.011 C 
ATOM     15  C   UNL     1      94.376 102.991  67.827  1.00  0.00     0.122 C 
BRANCH   7  16
ATOM     16  C   UNL     1      91.925 103.030  65.218  1.00  0.00     0.135 C 
BRANCH  16  17
ATOM     17  C   UNL     1      91.635 104.474  64.890  1.00  0.00    -0.040 A 
ATOM     18  C   UNL     1      92.676 105.330  64.532  1.00  0.00     0.004 A 
ATOM     19  C   UNL     1      90.326 104.951  64.945  1.00  0.00     0.004 A 
ATOM     20  C   UNL     1      92.407 106.666  64.229  1.00  0.00     0.000 A 
ATOM     21  C   UNL     1      90.057 106.286  64.642  1.00  0.00     0.000 A 
ATOM     22  C   UNL     1      91.098 107.143  64.284  1.00  0.00     0.000 A 
ENDBRANCH  16  17
ENDBRANCH   7  16
BRANCH  15  23
ATOM     23  C   UNL     1      95.786 102.775  67.382  1.00  0.00    -0.046 C 
ATOM     24  C   UNL     1      96.462 101.540  67.900  1.00  0.00     0.042 C 
ATOM     25  C   UNL     1      96.412 103.637  66.567  1.00  0.00     0.010 C 
ENDBRANCH  15  23
ENDBRANCH   3   4
BRANCH   2  26
ATOM     26  C   UNL     1      90.084 100.982  71.111  1.00  0.00     0.078 C 
BRANCH  26  27
ATOM     27  C   UNL     1      90.466 102.460  71.149  1.00  0.00     0.140 C 
ATOM     28  C   UNL     1      90.445 103.104  69.747  1.00  0.00     0.086 CG0
ATOM     29  C   UNL     1      89.459 103.300  71.907  1.00  0.00     0.190 C 
ATOM     30  C   UNL     1      89.711 104.398  69.966  1.00  0.00    -0.010 C 
ATOM     31  G   UNL     1      91.799 103.115  68.978  1.00  0.00     0.000 G0
ATOM     32  O   UNL     1      89.011 103.041  73.013  1.00  0.00    -0.291 OA
ATOM     33  C   UNL     1      89.123 104.526  71.159  1.00  0.00    -0.008 C 
ATOM     34  C   UNL     1      88.263 105.607  71.684  1.00  0.00     0.048 C 
BRANCH  27  35
ATOM     35  O   UNL     1      91.678 102.665  71.855  1.00  0.00    -0.381 OA
ATOM     36  H   UNL     1      92.113 101.804  71.972  1.00  0.00     0.212 HD
ENDBRANCH  27  35
ENDBRANCH  26  27
ENDBRANCH   2  26
ENDBRANCH   1   2
BRANCH   1  37
ATOM     37  O   UNL     1      89.095  98.753  68.998  1.00  0.00    -0.461 OA
BRANCH  37  38
ATOM     38  C   UNL     1      89.292  97.997  67.865  1.00  0.00     0.310 C 
ATOM     39  O   UNL     1      89.227  96.776  67.816  1.00  0.00    -0.252 OA
BRANCH  38  40
ATOM     40  C   UNL     1      89.600  98.906  66.700  1.00  0.00     0.158 C 
BRANCH  40  41
ATOM     41  C   UNL     1      88.614 100.037  66.561  1.00  0.00    -0.037 A 
ATOM     42  C   UNL     1      87.266  99.763  66.331  1.00  0.00     0.008 A 
ATOM     43  C   UNL     1      89.050 101.358  66.661  1.00  0.00     0.008 A 
ATOM     44  C   UNL     1      86.354 100.811  66.201  1.00  0.00     0.046 A 
ATOM     45  C   UNL     1      88.138 102.406  66.532  1.00  0.00     0.046 A 
ATOM     46  C   UNL     1      86.790 102.133  66.302  1.00  0.00     0.115 A 
BRANCH  46  47
ATOM     47  O   UNL     1      85.900 103.154  66.175  1.00  0.00    -0.508 OA
ATOM     48  H   UNL     1      86.201 103.904  66.718  1.00  0.00     0.293 HD
ENDBRANCH  46  47
ENDBRANCH  40  41
ENDBRANCH  38  40
ENDBRANCH  37  38
ENDBRANCH   1  37
TORSDOF 10
ENDMDL
MODEL 4
REMARK VINA RESULT:    -6.415     23.573     26.828
REMARK INTER + INTRA:         -12.321
REMARK INTER:                 -11.714
REMARK INTRA:                  -0.606
REMARK UNBOUND:                -1.405
REMARK SMILES C=C(C)[C@]12C[C@@H](C)[C@@]34O[C@](Cc5ccccc5)(O[C@@H]1[C@@H]3C=C(COC(=O)Cc1ccc(O)cc1)C[C@]1(O)C(=O)C(C)=C[C@@H]41)O2
REMARK SMILES IDX 23 1 22 2 21 3 20 4 9 5 8 6 10 7 6 8 18 10 44 11 19 12 5 13
REMARK SMILES IDX 7 14 4 15 11 16 12 17 13 18 17 19 14 20 16 21 15 22 2 23
REMARK SMILES IDX 3 24 1 25 35 26 36 27 43 28 38 29 42 30 39 32 40 33 41 34
REMARK SMILES IDX 37 35 24 37 25 38 26 39 27 40 28 41 29 42 34 43 30 44 33 45
REMARK SMILES IDX 31 46 32 47
REMARK H PARENT 37 36 32 48
REMARK Flexibility Score: 90.00
ROOT
ATOM      1  C   UNL     1      95.440  82.882  85.405  1.00  0.00     0.264 C 
ENDROOT
BRANCH   1   2
ATOM      2  C   UNL     1      94.063  82.827  86.025  1.00  0.00    -0.033 C 
ATOM      3  C   UNL     1      93.143  81.982  85.516  1.00  0.00    -0.015 C 
BRANCH   3   4
ATOM      4  C   UNL     1      91.685  81.794  85.904  1.00  0.00     0.078 C 
ATOM      5  O   UNL     1      91.612  79.964  87.566  1.00  0.00    -0.319 OA
ATOM      6  C   UNL     1      91.352  81.391  87.387  1.00  0.00     0.095 CG0
ATOM      7  C   UNL     1      91.168  79.118  86.488  1.00  0.00     0.289 C 
ATOM      8  C   UNL     1      89.811  81.676  87.626  1.00  0.00     0.023 C 
ATOM      9  G   UNL     1      92.323  82.090  88.382  1.00  0.00     0.000 G0
ATOM     10  O   UNL     1      91.757  79.504  85.250  1.00  0.00    -0.320 OA
ATOM     11  O   UNL     1      89.759  79.193  86.285  1.00  0.00    -0.313 OA
ATOM     12  C   UNL     1      91.034  80.720  84.997  1.00  0.00     0.170 C 
ATOM     13  C   UNL     1      88.978  81.440  86.329  1.00  0.00     0.049 C 
ATOM     14  C   UNL     1      89.169  80.904  88.792  1.00  0.00     0.011 C 
ATOM     15  C   UNL     1      89.598  80.356  85.447  1.00  0.00     0.122 C 
BRANCH   7  16
ATOM     16  C   UNL     1      91.554  77.689  86.816  1.00  0.00     0.135 C 
BRANCH  16  17
ATOM     17  C   UNL     1      92.351  77.049  85.706  1.00  0.00    -0.040 A 
ATOM     18  C   UNL     1      93.744  77.063  85.750  1.00  0.00     0.004 A 
ATOM     19  C   UNL     1      91.692  76.442  84.637  1.00  0.00     0.004 A 
ATOM     20  C   UNL     1      94.481  76.470  84.723  1.00  0.00     0.000 A 
ATOM     21  C   UNL     1      92.428  75.850  83.611  1.00  0.00     0.000 A 
ATOM     22  C   UNL     1      93.822  75.864  83.654  1.00  0.00     0.000 A 
ENDBRANCH  16  17
ENDBRANCH   7  16
BRANCH  15  23
ATOM     23  C   UNL     1      88.725  79.987  84.292  1.00  0.00    -0.046 C 
ATOM     24  C   UNL     1      87.661  80.978  83.923  1.00  0.00     0.042 C 
ATOM     25  C   UNL     1      88.882  78.835  83.624  1.00  0.00     0.010 C 
ENDBRANCH  15  23
ENDBRANCH   3   4
BRANCH   2  26
ATOM     26  C   UNL     1      93.901  83.774  87.200  1.00  0.00     0.078 C 
BRANCH  26  27
ATOM     27  C   UNL     1      92.654  83.604  88.066  1.00  0.00     0.140 C 
ATOM     28  C   UNL     1      92.353  82.122  88.371  1.00  0.00     0.086 CG0
ATOM     29  C   UNL     1      92.826  84.193  89.451  1.00  0.00     0.190 C 
ATOM     30  C   UNL     1      92.062  82.121  89.846  1.00  0.00    -0.010 C 
ATOM     31  G   UNL     1      91.370  81.408  87.399  1.00  0.00     0.000 G0
ATOM     32  O   UNL     1      93.257  85.310  89.697  1.00  0.00    -0.291 OA
ATOM     33  C   UNL     1      92.344  83.260  90.486  1.00  0.00    -0.008 C 
ATOM     34  C   UNL     1      92.264  83.587  91.925  1.00  0.00     0.048 C 
BRANCH  27  35
ATOM     35  O   UNL     1      91.550  84.315  87.531  1.00  0.00    -0.381 OA
ATOM     36  H   UNL     1      90.763  83.747  87.588  1.00  0.00     0.212 HD
ENDBRANCH  27  35
ENDBRANCH  26  27
ENDBRANCH   2  26
ENDBRANCH   1   2
BRANCH   1  37
ATOM     37  O   UNL     1      95.484  82.016  84.291  1.00  0.00    -0.461 OA
BRANCH  37  38
ATOM     38  C   UNL     1      96.725  81.532  83.947  1.00  0.00     0.310 C 
ATOM     39  O   UNL     1      97.791  82.011  84.306  1.00  0.00    -0.252 OA
BRANCH  38  40
ATOM     40  C   UNL     1      96.564  80.320  83.060  1.00  0.00     0.158 C 
BRANCH  40  41
ATOM     41  C   UNL     1      96.923  80.592  81.622  1.00  0.00    -0.037 A 
ATOM     42  C   UNL     1      97.381  79.555  80.809  1.00  0.00     0.008 A 
ATOM     43  C   UNL     1      96.800  81.881  81.104  1.00  0.00     0.008 A 
ATOM     44  C   UNL     1      97.715  79.807  79.478  1.00  0.00     0.046 A 
ATOM     45  C   UNL     1      97.132  82.133  79.772  1.00  0.00     0.046 A 
ATOM     46  C   UNL     1      97.590  81.097  78.960  1.00  0.00     0.115 A 
BRANCH  46  47
ATOM     47  O   UNL     1      97.916  81.342  77.662  1.00  0.00    -0.508 OA
ATOM     48  H   UNL     1      97.414  82.116  77.351  1.00  0.00     0.293 HD
ENDBRANCH  46  47
ENDBRANCH  40  41
ENDBRANCH  38  40
ENDBRANCH  37  38
ENDBRANCH   1  37
TORSDOF 10
ENDMDL
MODEL 5
REMARK VINA RESULT:    -6.381     31.505     35.429
REMARK INTER + INTRA:         -12.263
REMARK INTER:                 -10.867
REMARK INTRA:                  -1.397
REMARK UNBOUND:                -1.405
REMARK SMILES C=C(C)[C@]12C[C@@H](C)[C@@]34O[C@](Cc5ccccc5)(O[C@@H]1[C@@H]3C=C(COC(=O)Cc1ccc(O)cc1)C[C@]1(O)C(=O)C(C)=C[C@@H]41)O2
REMARK SMILES IDX 23 1 22 2 21 3 20 4 9 5 8 6 10 7 6 8 18 10 44 11 19 12 5 13
REMARK SMILES IDX 7 14 4 15 11 16 12 17 13 18 17 19 14 20 16 21 15 22 2 23
REMARK SMILES IDX 3 24 1 25 35 26 36 27 43 28 38 29 42 30 39 32 40 33 41 34
REMARK SMILES IDX 37 35 24 37 25 38 26 39 27 40 28 41 29 42 34 43 30 44 33 45
REMARK SMILES IDX 31 46 32 47
REMARK H PARENT 37 36 32 48
REMARK Flexibility Score: 90.00
ROOT
ATOM      1  C   UNL     1      82.247  66.886  75.878  1.00  0.00     0.264 C 
ENDROOT
BRANCH   1   2
ATOM      2  C   UNL     1      83.755  66.988  75.850  1.00  0.00    -0.033 C 
ATOM      3  C   UNL     1      84.383  67.141  74.666  1.00  0.00    -0.015 C 
BRANCH   3   4
ATOM      4  C   UNL     1      85.872  67.192  74.362  1.00  0.00     0.078 C 
ATOM      5  O   UNL     1      86.533  69.575  74.393  1.00  0.00    -0.319 OA
ATOM      6  C   UNL     1      86.742  68.295  75.068  1.00  0.00     0.095 CG0
ATOM      7  C   UNL     1      86.503  69.513  72.954  1.00  0.00     0.289 C 
ATOM      8  C   UNL     1      88.262  67.871  74.926  1.00  0.00     0.023 C 
ATOM      9  G   UNL     1      86.250  68.541  76.524  1.00  0.00     0.000 G0
ATOM     10  O   UNL     1      85.492  68.620  72.494  1.00  0.00    -0.320 OA
ATOM     11  O   UNL     1      87.726  69.024  72.407  1.00  0.00    -0.313 OA
ATOM     12  C   UNL     1      86.093  67.362  72.839  1.00  0.00     0.170 C 
ATOM     13  C   UNL     1      88.523  67.117  73.586  1.00  0.00     0.049 C 
ATOM     14  C   UNL     1      89.284  69.011  75.077  1.00  0.00     0.011 C 
ATOM     15  C   UNL     1      87.581  67.590  72.478  1.00  0.00     0.122 C 
BRANCH   7  16
ATOM     16  C   UNL     1      86.235  70.907  72.424  1.00  0.00     0.135 C 
BRANCH  16  17
ATOM     17  C   UNL     1      87.156  71.267  71.285  1.00  0.00    -0.040 A 
ATOM     18  C   UNL     1      88.458  71.692  71.547  1.00  0.00     0.004 A 
ATOM     19  C   UNL     1      86.704  71.174  69.968  1.00  0.00     0.004 A 
ATOM     20  C   UNL     1      89.309  72.025  70.493  1.00  0.00     0.000 A 
ATOM     21  C   UNL     1      87.556  71.506  68.914  1.00  0.00     0.000 A 
ATOM     22  C   UNL     1      88.858  71.931  69.177  1.00  0.00     0.000 A 
ENDBRANCH  16  17
ENDBRANCH   7  16
BRANCH  15  23
ATOM     23  C   UNL     1      87.930  67.016  71.144  1.00  0.00    -0.046 C 
ATOM     24  C   UNL     1      87.702  65.542  70.978  1.00  0.00     0.042 C 
ATOM     25  C   UNL     1      88.419  67.773  70.151  1.00  0.00     0.010 C 
ENDBRANCH  15  23
ENDBRANCH   3   4
BRANCH   2  26
ATOM     26  C   UNL     1      84.383  66.907  77.228  1.00  0.00     0.078 C 
BRANCH  26  27
ATOM     27  C   UNL     1      85.869  67.242  77.339  1.00  0.00     0.140 C 
ATOM     28  C   UNL     1      86.243  68.509  76.541  1.00  0.00     0.086 CG0
ATOM     29  C   UNL     1      86.277  67.613  78.749  1.00  0.00     0.190 C 
ATOM     30  C   UNL     1      87.100  69.286  77.500  1.00  0.00    -0.010 C 
ATOM     31  G   UNL     1      86.742  68.279  75.084  1.00  0.00     0.000 G0
ATOM     32  O   UNL     1      86.000  66.980  79.756  1.00  0.00    -0.291 OA
ATOM     33  C   UNL     1      87.118  68.825  78.755  1.00  0.00    -0.008 C 
ATOM     34  C   UNL     1      87.773  69.373  79.960  1.00  0.00     0.048 C 
BRANCH  27  35
ATOM     35  O   UNL     1      86.678  66.117  77.038  1.00  0.00    -0.381 OA
ATOM     36  H   UNL     1      86.478  65.415  77.681  1.00  0.00     0.212 HD
ENDBRANCH  27  35
ENDBRANCH  26  27
ENDBRANCH   2  26
ENDBRANCH   1   2
BRANCH   1  37
ATOM     37  O   UNL     1      81.871  65.526  75.891  1.00  0.00    -0.461 OA
BRANCH  37  38
ATOM     38  C   UNL     1      80.940  65.144  74.953  1.00  0.00     0.310 C 
ATOM     39  O   UNL     1      80.358  64.068  74.937  1.00  0.00    -0.252 OA
BRANCH  38  40
ATOM     40  C   UNL     1      80.749  66.257  73.951  1.00  0.00     0.158 C 
BRANCH  40  41
ATOM     41  C   UNL     1      81.284  65.916  72.584  1.00  0.00    -0.037 A 
ATOM     42  C   UNL     1      80.563  66.271  71.444  1.00  0.00     0.008 A 
ATOM     43  C   UNL     1      82.500  65.246  72.459  1.00  0.00     0.008 A 
ATOM     44  C   UNL     1      81.058  65.954  70.179  1.00  0.00     0.046 A 
ATOM     45  C   UNL     1      82.996  64.930  71.193  1.00  0.00     0.046 A 
ATOM     46  C   UNL     1      82.275  65.283  70.054  1.00  0.00     0.115 A 
BRANCH  46  47
ATOM     47  O   UNL     1      82.758  64.975  68.819  1.00  0.00    -0.508 OA
ATOM     48  H   UNL     1      83.714  64.810  68.887  1.00  0.00     0.293 HD
ENDBRANCH  46  47
ENDBRANCH  40  41
ENDBRANCH  38  40
ENDBRANCH  37  38
ENDBRANCH   1  37
TORSDOF 10
ENDMDL
MODEL 6
REMARK VINA RESULT:    -6.341     23.202     26.336
REMARK INTER + INTRA:         -12.195
REMARK INTER:                 -11.289
REMARK INTRA:                  -0.907
REMARK UNBOUND:                -1.405
REMARK SMILES C=C(C)[C@]12C[C@@H](C)[C@@]34O[C@](Cc5ccccc5)(O[C@@H]1[C@@H]3C=C(COC(=O)Cc1ccc(O)cc1)C[C@]1(O)C(=O)C(C)=C[C@@H]41)O2
REMARK SMILES IDX 23 1 22 2 21 3 20 4 9 5 8 6 10 7 6 8 18 10 44 11 19 12 5 13
REMARK SMILES IDX 7 14 4 15 11 16 12 17 13 18 17 19 14 20 16 21 15 22 2 23
REMARK SMILES IDX 3 24 1 25 35 26 36 27 43 28 38 29 42 30 39 32 40 33 41 34
REMARK SMILES IDX 37 35 24 37 25 38 26 39 27 40 28 41 29 42 34 43 30 44 33 45
REMARK SMILES IDX 31 46 32 47
REMARK H PARENT 37 36 32 48
REMARK Flexibility Score: 90.00
ROOT
ATOM      1  C   UNL     1      95.687  78.488  85.456  1.00  0.00     0.264 C 
ENDROOT
BRANCH   1   2
ATOM      2  C   UNL     1      94.633  79.255  86.220  1.00  0.00    -0.033 C 
ATOM      3  C   UNL     1      95.015  80.123  87.180  1.00  0.00    -0.015 C 
BRANCH   3   4
ATOM      4  C   UNL     1      94.161  80.948  88.130  1.00  0.00     0.078 C 
ATOM      5  O   UNL     1      93.833  83.157  87.068  1.00  0.00    -0.319 OA
ATOM      6  C   UNL     1      93.124  81.960  87.517  1.00  0.00     0.095 CG0
ATOM      7  C   UNL     1      94.848  83.645  87.966  1.00  0.00     0.289 C 
ATOM      8  C   UNL     1      92.104  82.354  88.663  1.00  0.00     0.023 C 
ATOM      9  G   UNL     1      92.484  81.380  86.222  1.00  0.00     0.000 G0
ATOM     10  O   UNL     1      95.829  82.646  88.230  1.00  0.00    -0.320 OA
ATOM     11  O   UNL     1      94.317  84.009  89.238  1.00  0.00    -0.313 OA
ATOM     12  C   UNL     1      95.071  81.767  89.077  1.00  0.00     0.170 C 
ATOM     13  C   UNL     1      92.794  82.375  90.061  1.00  0.00     0.049 C 
ATOM     14  C   UNL     1      91.346  83.676  88.448  1.00  0.00     0.011 C 
ATOM     15  C   UNL     1      94.271  82.759  89.957  1.00  0.00     0.122 C 
BRANCH   7  16
ATOM     16  C   UNL     1      95.504  84.853  87.329  1.00  0.00     0.135 C 
BRANCH  16  17
ATOM     17  C   UNL     1      95.807  85.932  88.340  1.00  0.00    -0.040 A 
ATOM     18  C   UNL     1      97.088  86.041  88.881  1.00  0.00     0.004 A 
ATOM     19  C   UNL     1      94.806  86.819  88.732  1.00  0.00     0.004 A 
ATOM     20  C   UNL     1      97.368  87.039  89.815  1.00  0.00     0.000 A 
ATOM     21  C   UNL     1      95.086  87.817  89.666  1.00  0.00     0.000 A 
ATOM     22  C   UNL     1      96.366  87.926  90.207  1.00  0.00     0.000 A 
ENDBRANCH  16  17
ENDBRANCH   7  16
BRANCH  15  23
ATOM     23  C   UNL     1      94.907  82.962  91.294  1.00  0.00    -0.046 C 
ATOM     24  C   UNL     1      94.767  84.331  91.892  1.00  0.00     0.042 C 
ATOM     25  C   UNL     1      95.564  81.977  91.924  1.00  0.00     0.010 C 
ENDBRANCH  15  23
ENDBRANCH   3   4
BRANCH   2  26
ATOM     26  C   UNL     1      93.220  78.932  85.772  1.00  0.00     0.078 C 
BRANCH  26  27
ATOM     27  C   UNL     1      92.103  79.848  86.268  1.00  0.00     0.140 C 
ATOM     28  C   UNL     1      92.502  81.338  86.211  1.00  0.00     0.086 CG0
ATOM     29  C   UNL     1      90.879  79.805  85.379  1.00  0.00     0.190 C 
ATOM     30  C   UNL     1      91.301  81.998  85.595  1.00  0.00    -0.010 C 
ATOM     31  G   UNL     1      93.117  81.933  87.511  1.00  0.00     0.000 G0
ATOM     32  O   UNL     1      90.328  78.790  84.981  1.00  0.00    -0.291 OA
ATOM     33  C   UNL     1      90.384  81.165  85.092  1.00  0.00    -0.008 C 
ATOM     34  C   UNL     1      89.138  81.455  84.353  1.00  0.00     0.048 C 
BRANCH  27  35
ATOM     35  O   UNL     1      91.617  79.434  87.534  1.00  0.00    -0.381 OA
ATOM     36  H   UNL     1      91.931  78.529  87.702  1.00  0.00     0.212 HD
ENDBRANCH  27  35
ENDBRANCH  26  27
ENDBRANCH   2  26
ENDBRANCH   1   2
BRANCH   1  37
ATOM     37  O   UNL     1      95.506  78.697  84.072  1.00  0.00    -0.461 OA
BRANCH  37  38
ATOM     38  C   UNL     1      96.649  78.732  83.308  1.00  0.00     0.310 C 
ATOM     39  O   UNL     1      97.657  78.073  83.521  1.00  0.00    -0.252 OA
BRANCH  38  40
ATOM     40  C   UNL     1      96.465  79.708  82.170  1.00  0.00     0.158 C 
BRANCH  40  41
ATOM     41  C   UNL     1      96.262  81.125  82.639  1.00  0.00    -0.037 A 
ATOM     42  C   UNL     1      96.846  82.182  81.941  1.00  0.00     0.008 A 
ATOM     43  C   UNL     1      95.490  81.382  83.772  1.00  0.00     0.008 A 
ATOM     44  C   UNL     1      96.658  83.495  82.375  1.00  0.00     0.046 A 
ATOM     45  C   UNL     1      95.301  82.694  84.207  1.00  0.00     0.046 A 
ATOM     46  C   UNL     1      95.885  83.750  83.509  1.00  0.00     0.115 A 
BRANCH  46  47
ATOM     47  O   UNL     1      95.703  85.030  83.932  1.00  0.00    -0.508 OA
ATOM     48  H   UNL     1      95.681  85.041  84.905  1.00  0.00     0.293 HD
ENDBRANCH  46  47
ENDBRANCH  40  41
ENDBRANCH  38  40
ENDBRANCH  37  38
ENDBRANCH   1  37
TORSDOF 10
ENDMDL
MODEL 7
REMARK VINA RESULT:    -6.105     23.893     27.165
REMARK INTER + INTRA:         -11.793
REMARK INTER:                 -11.352
REMARK INTRA:                  -0.441
REMARK UNBOUND:                -1.405
REMARK SMILES C=C(C)[C@]12C[C@@H](C)[C@@]34O[C@](Cc5ccccc5)(O[C@@H]1[C@@H]3C=C(COC(=O)Cc1ccc(O)cc1)C[C@]1(O)C(=O)C(C)=C[C@@H]41)O2
REMARK SMILES IDX 23 1 22 2 21 3 20 4 9 5 8 6 10 7 6 8 18 10 44 11 19 12 5 13
REMARK SMILES IDX 7 14 4 15 11 16 12 17 13 18 17 19 14 20 16 21 15 22 2 23
REMARK SMILES IDX 3 24 1 25 35 26 36 27 43 28 38 29 42 30 39 32 40 33 41 34
REMARK SMILES IDX 37 35 24 37 25 38 26 39 27 40 28 41 29 42 34 43 30 44 33 45
REMARK SMILES IDX 31 46 32 47
REMARK H PARENT 37 36 32 48
REMARK Flexibility Score: 90.00
ROOT
ATOM      1  C   UNL     1      95.779  82.486  85.679  1.00  0.00     0.264 C 
ENDROOT
BRANCH   1   2
ATOM      2  C   UNL     1      94.363  82.505  86.207  1.00  0.00    -0.033 C 
ATOM      3  C   UNL     1      93.436  81.708  85.636  1.00  0.00    -0.015 C 
BRANCH   3   4
ATOM      4  C   UNL     1      91.948  81.598  85.927  1.00  0.00     0.078 C 
ATOM      5  O   UNL     1      91.671  79.794  87.596  1.00  0.00    -0.319 OA
ATOM      6  C   UNL     1      91.496  81.230  87.388  1.00  0.00     0.095 CG0
ATOM      7  C   UNL     1      91.257  78.958  86.498  1.00  0.00     0.289 C 
ATOM      8  C   UNL     1      89.959  81.595  87.521  1.00  0.00     0.023 C 
ATOM      9  G   UNL     1      92.433  81.892  88.440  1.00  0.00     0.000 G0
ATOM     10  O   UNL     1      91.946  79.300  85.299  1.00  0.00    -0.320 OA
ATOM     11  O   UNL     1      89.870  79.102  86.201  1.00  0.00    -0.313 OA
ATOM     12  C   UNL     1      91.305  80.547  84.988  1.00  0.00     0.170 C 
ATOM     13  C   UNL     1      89.203  81.386  86.173  1.00  0.00     0.049 C 
ATOM     14  C   UNL     1      89.203  80.870  88.647  1.00  0.00     0.011 C 
ATOM     15  C   UNL     1      89.825  80.261  85.344  1.00  0.00     0.122 C 
BRANCH   7  16
ATOM     16  C   UNL     1      91.548  77.516  86.864  1.00  0.00     0.135 C 
BRANCH  16  17
ATOM     17  C   UNL     1      90.287  76.698  86.989  1.00  0.00    -0.040 A 
ATOM     18  C   UNL     1      89.836  75.943  85.907  1.00  0.00     0.004 A 
ATOM     19  C   UNL     1      89.573  76.698  88.187  1.00  0.00     0.004 A 
ATOM     20  C   UNL     1      88.669  75.185  86.023  1.00  0.00     0.000 A 
ATOM     21  C   UNL     1      88.407  75.941  88.303  1.00  0.00     0.000 A 
ATOM     22  C   UNL     1      87.955  75.185  87.221  1.00  0.00     0.000 A 
ENDBRANCH  16  17
ENDBRANCH   7  16
BRANCH  15  23
ATOM     23  C   UNL     1      89.013  79.922  84.136  1.00  0.00    -0.046 C 
ATOM     24  C   UNL     1      87.681  80.603  84.022  1.00  0.00     0.042 C 
ATOM     25  C   UNL     1      89.449  79.059  83.207  1.00  0.00     0.010 C 
ENDBRANCH  15  23
ENDBRANCH   3   4
BRANCH   2  26
ATOM     26  C   UNL     1      94.174  83.460  87.371  1.00  0.00     0.078 C 
BRANCH  26  27
ATOM     27  C   UNL     1      92.859  83.370  88.141  1.00  0.00     0.140 C 
ATOM     28  C   UNL     1      92.446  81.910  88.422  1.00  0.00     0.086 CG0
ATOM     29  C   UNL     1      92.962  83.952  89.535  1.00  0.00     0.190 C 
ATOM     30  C   UNL     1      92.046  81.932  89.872  1.00  0.00    -0.010 C 
ATOM     31  G   UNL     1      91.496  81.253  87.378  1.00  0.00     0.000 G0
ATOM     32  O   UNL     1      93.441  85.041  89.814  1.00  0.00    -0.291 OA
ATOM     33  C   UNL     1      92.349  83.054  90.532  1.00  0.00    -0.008 C 
ATOM     34  C   UNL     1      92.182  83.391  91.960  1.00  0.00     0.048 C 
BRANCH  27  35
ATOM     35  O   UNL     1      91.843  84.144  87.526  1.00  0.00    -0.381 OA
ATOM     36  H   UNL     1      91.735  83.835  86.610  1.00  0.00     0.212 HD
ENDBRANCH  27  35
ENDBRANCH  26  27
ENDBRANCH   2  26
ENDBRANCH   1   2
BRANCH   1  37
ATOM     37  O   UNL     1      95.781  81.959  84.369  1.00  0.00    -0.461 OA
BRANCH  37  38
ATOM     38  C   UNL     1      96.815  81.107  84.058  1.00  0.00     0.310 C 
ATOM     39  O   UNL     1      97.945  81.174  84.523  1.00  0.00    -0.252 OA
BRANCH  38  40
ATOM     40  C   UNL     1      96.339  80.080  83.059  1.00  0.00     0.158 C 
BRANCH  40  41
ATOM     41  C   UNL     1      96.850  80.337  81.664  1.00  0.00    -0.037 A 
ATOM     42  C   UNL     1      96.832  81.630  81.142  1.00  0.00     0.008 A 
ATOM     43  C   UNL     1      97.340  79.282  80.896  1.00  0.00     0.008 A 
ATOM     44  C   UNL     1      97.304  81.868  79.851  1.00  0.00     0.046 A 
ATOM     45  C   UNL     1      97.813  79.519  79.604  1.00  0.00     0.046 A 
ATOM     46  C   UNL     1      97.794  80.812  79.082  1.00  0.00     0.115 A 
BRANCH  46  47
ATOM     47  O   UNL     1      98.254  81.044  77.822  1.00  0.00    -0.508 OA
ATOM     48  H   UNL     1      98.743  81.885  77.815  1.00  0.00     0.293 HD
ENDBRANCH  46  47
ENDBRANCH  40  41
ENDBRANCH  38  40
ENDBRANCH  37  38
ENDBRANCH   1  37
TORSDOF 10
ENDMDL
MODEL 8
REMARK VINA RESULT:    -6.038     23.159     27.180
REMARK INTER + INTRA:         -11.679
REMARK INTER:                 -11.181
REMARK INTRA:                  -0.498
REMARK UNBOUND:                -1.405
REMARK SMILES C=C(C)[C@]12C[C@@H](C)[C@@]34O[C@](Cc5ccccc5)(O[C@@H]1[C@@H]3C=C(COC(=O)Cc1ccc(O)cc1)C[C@]1(O)C(=O)C(C)=C[C@@H]41)O2
REMARK SMILES IDX 23 1 22 2 21 3 20 4 9 5 8 6 10 7 6 8 18 10 44 11 19 12 5 13
REMARK SMILES IDX 7 14 4 15 11 16 12 17 13 18 17 19 14 20 16 21 15 22 2 23
REMARK SMILES IDX 3 24 1 25 35 26 36 27 43 28 38 29 42 30 39 32 40 33 41 34
REMARK SMILES IDX 37 35 24 37 25 38 26 39 27 40 28 41 29 42 34 43 30 44 33 45
REMARK SMILES IDX 31 46 32 47
REMARK H PARENT 37 36 32 48
REMARK Flexibility Score: 90.00
ROOT
ATOM      1  C   UNL     1      68.554  84.830  69.848  1.00  0.00     0.264 C 
ENDROOT
BRANCH   1   2
ATOM      2  C   UNL     1      69.276  85.198  68.572  1.00  0.00    -0.033 C 
ATOM      3  C   UNL     1      69.818  86.428  68.453  1.00  0.00    -0.015 C 
BRANCH   3   4
ATOM      4  C   UNL     1      70.519  87.062  67.262  1.00  0.00     0.078 C 
ATOM      5  O   UNL     1      72.937  86.618  67.530  1.00  0.00    -0.319 OA
ATOM      6  C   UNL     1      71.787  86.344  66.671  1.00  0.00     0.095 CG0
ATOM      7  C   UNL     1      73.048  87.978  67.993  1.00  0.00     0.289 C 
ATOM      8  C   UNL     1      72.053  86.949  65.231  1.00  0.00     0.023 C 
ATOM      9  G   UNL     1      71.622  84.797  66.725  1.00  0.00     0.000 G0
ATOM     10  O   UNL     1      71.882  88.380  68.705  1.00  0.00    -0.320 OA
ATOM     11  O   UNL     1      73.183  88.907  66.920  1.00  0.00    -0.313 OA
ATOM     12  C   UNL     1      70.954  88.506  67.616  1.00  0.00     0.170 C 
ATOM     13  C   UNL     1      71.648  88.453  65.159  1.00  0.00     0.049 C 
ATOM     14  C   UNL     1      73.485  86.780  64.696  1.00  0.00     0.011 C 
ATOM     15  C   UNL     1      71.822  89.151  66.509  1.00  0.00     0.122 C 
BRANCH   7  16
ATOM     16  C   UNL     1      74.260  88.073  68.898  1.00  0.00     0.135 C 
BRANCH  16  17
ATOM     17  C   UNL     1      75.430  87.286  68.363  1.00  0.00    -0.040 A 
ATOM     18  C   UNL     1      76.260  87.842  67.391  1.00  0.00     0.004 A 
ATOM     19  C   UNL     1      75.681  86.000  68.842  1.00  0.00     0.004 A 
ATOM     20  C   UNL     1      77.343  87.114  66.896  1.00  0.00     0.000 A 
ATOM     21  C   UNL     1      76.764  85.272  68.348  1.00  0.00     0.000 A 
ATOM     22  C   UNL     1      77.594  85.828  67.375  1.00  0.00     0.000 A 
ENDBRANCH  16  17
ENDBRANCH   7  16
BRANCH  15  23
ATOM     23  C   UNL     1      71.615  90.628  66.422  1.00  0.00    -0.046 C 
ATOM     24  C   UNL     1      70.461  91.086  65.580  1.00  0.00     0.042 C 
ATOM     25  C   UNL     1      72.415  91.495  67.060  1.00  0.00     0.010 C 
ENDBRANCH  15  23
ENDBRANCH   3   4
BRANCH   2  26
ATOM     26  C   UNL     1      69.299  84.073  67.555  1.00  0.00     0.078 C 
BRANCH  26  27
ATOM     27  C   UNL     1      70.213  84.246  66.343  1.00  0.00     0.140 C 
ATOM     28  C   UNL     1      71.603  84.789  66.734  1.00  0.00     0.086 CG0
ATOM     29  C   UNL     1      70.553  82.928  65.681  1.00  0.00     0.190 C 
ATOM     30  C   UNL     1      72.551  83.908  65.969  1.00  0.00    -0.010 C 
ATOM     31  G   UNL     1      71.778  86.334  66.670  1.00  0.00     0.000 G0
ATOM     32  O   UNL     1      69.749  82.061  65.374  1.00  0.00    -0.291 OA
ATOM     33  C   UNL     1      71.997  82.838  65.390  1.00  0.00    -0.008 C 
ATOM     34  C   UNL     1      72.624  81.730  64.640  1.00  0.00     0.048 C 
BRANCH  27  35
ATOM     35  O   UNL     1      69.577  84.987  65.316  1.00  0.00    -0.381 OA
ATOM     36  H   UNL     1      70.221  85.614  64.946  1.00  0.00     0.212 HD
ENDBRANCH  27  35
ENDBRANCH  26  27
ENDBRANCH   2  26
ENDBRANCH   1   2
BRANCH   1  37
ATOM     37  O   UNL     1      67.497  83.944  69.547  1.00  0.00    -0.461 OA
BRANCH  37  38
ATOM     38  C   UNL     1      66.227  84.468  69.618  1.00  0.00     0.310 C 
ATOM     39  O   UNL     1      65.507  84.699  68.657  1.00  0.00    -0.252 OA
BRANCH  38  40
ATOM     40  C   UNL     1      65.863  84.711  71.063  1.00  0.00     0.158 C 
BRANCH  40  41
ATOM     41  C   UNL     1      64.774  83.794  71.557  1.00  0.00    -0.037 A 
ATOM     42  C   UNL     1      63.845  84.253  72.491  1.00  0.00     0.008 A 
ATOM     43  C   UNL     1      64.695  82.485  71.082  1.00  0.00     0.008 A 
ATOM     44  C   UNL     1      62.838  83.404  72.950  1.00  0.00     0.046 A 
ATOM     45  C   UNL     1      63.687  81.636  71.540  1.00  0.00     0.046 A 
ATOM     46  C   UNL     1      62.759  82.095  72.473  1.00  0.00     0.115 A 
BRANCH  46  47
ATOM     47  O   UNL     1      61.777  81.266  72.921  1.00  0.00    -0.508 OA
ATOM     48  H   UNL     1      61.165  81.077  72.188  1.00  0.00     0.293 HD
ENDBRANCH  46  47
ENDBRANCH  40  41
ENDBRANCH  38  40
ENDBRANCH  37  38
ENDBRANCH   1  37
TORSDOF 10
ENDMDL
MODEL 9
REMARK VINA RESULT:    -6.035     22.737     26.624
REMARK INTER + INTRA:         -11.674
REMARK INTER:                 -11.231
REMARK INTRA:                  -0.443
REMARK UNBOUND:                -1.405
REMARK SMILES C=C(C)[C@]12C[C@@H](C)[C@@]34O[C@](Cc5ccccc5)(O[C@@H]1[C@@H]3C=C(COC(=O)Cc1ccc(O)cc1)C[C@]1(O)C(=O)C(C)=C[C@@H]41)O2
REMARK SMILES IDX 23 1 22 2 21 3 20 4 9 5 8 6 10 7 6 8 18 10 44 11 19 12 5 13
REMARK SMILES IDX 7 14 4 15 11 16 12 17 13 18 17 19 14 20 16 21 15 22 2 23
REMARK SMILES IDX 3 24 1 25 35 26 36 27 43 28 38 29 42 30 39 32 40 33 41 34
REMARK SMILES IDX 37 35 24 37 25 38 26 39 27 40 28 41 29 42 34 43 30 44 33 45
REMARK SMILES IDX 31 46 32 47
REMARK H PARENT 37 36 32 48
REMARK Flexibility Score: 90.00
ROOT
ATOM      1  C   UNL     1      68.629  84.773  68.990  1.00  0.00     0.264 C 
ENDROOT
BRANCH   1   2
ATOM      2  C   UNL     1      69.586  85.083  67.862  1.00  0.00    -0.033 C 
ATOM      3  C   UNL     1      70.079  86.333  67.742  1.00  0.00    -0.015 C 
BRANCH   3   4
ATOM      4  C   UNL     1      70.984  86.915  66.668  1.00  0.00     0.078 C 
ATOM      5  O   UNL     1      73.310  86.653  67.467  1.00  0.00    -0.319 OA
ATOM      6  C   UNL     1      72.381  86.236  66.418  1.00  0.00     0.095 CG0
ATOM      7  C   UNL     1      73.257  88.050  67.815  1.00  0.00     0.289 C 
ATOM      8  C   UNL     1      72.915  86.739  65.014  1.00  0.00     0.023 C 
ATOM      9  G   UNL     1      72.282  84.691  66.581  1.00  0.00     0.000 G0
ATOM     10  O   UNL     1      71.949  88.430  68.232  1.00  0.00    -0.320 OA
ATOM     11  O   UNL     1      73.571  88.897  66.712  1.00  0.00    -0.313 OA
ATOM     12  C   UNL     1      71.266  88.407  66.968  1.00  0.00     0.170 C 
ATOM     13  C   UNL     1      72.465  88.203  64.722  1.00  0.00     0.049 C 
ATOM     14  C   UNL     1      74.435  86.622  64.804  1.00  0.00     0.011 C 
ATOM     15  C   UNL     1      72.317  89.017  66.009  1.00  0.00     0.122 C 
BRANCH   7  16
ATOM     16  C   UNL     1      74.245  88.297  68.938  1.00  0.00     0.135 C 
BRANCH  16  17
ATOM     17  C   UNL     1      74.200  89.723  69.428  1.00  0.00    -0.040 A 
ATOM     18  C   UNL     1      73.036  90.224  70.010  1.00  0.00     0.004 A 
ATOM     19  C   UNL     1      75.323  90.539  69.300  1.00  0.00     0.004 A 
ATOM     20  C   UNL     1      72.995  91.543  70.464  1.00  0.00     0.000 A 
ATOM     21  C   UNL     1      75.282  91.858  69.755  1.00  0.00     0.000 A 
ATOM     22  C   UNL     1      74.118  92.359  70.336  1.00  0.00     0.000 A 
ENDBRANCH  16  17
ENDBRANCH   7  16
BRANCH  15  23
ATOM     23  C   UNL     1      72.063  90.466  65.745  1.00  0.00    -0.046 C 
ATOM     24  C   UNL     1      71.292  90.786  64.499  1.00  0.00     0.042 C 
ATOM     25  C   UNL     1      72.500  91.425  66.575  1.00  0.00     0.010 C 
ENDBRANCH  15  23
ENDBRANCH   3   4
BRANCH   2  26
ATOM     26  C   UNL     1      69.879  83.883  66.982  1.00  0.00     0.078 C 
BRANCH  26  27
ATOM     27  C   UNL     1      71.023  84.016  65.979  1.00  0.00     0.140 C 
ATOM     28  C   UNL     1      72.264  84.696  66.594  1.00  0.00     0.086 CG0
ATOM     29  C   UNL     1      71.571  82.674  65.542  1.00  0.00     0.190 C 
ATOM     30  C   UNL     1      73.401  83.825  66.140  1.00  0.00    -0.010 C 
ATOM     31  G   UNL     1      72.363  86.239  66.410  1.00  0.00     0.000 G0
ATOM     32  O   UNL     1      70.900  81.725  65.163  1.00  0.00    -0.291 OA
ATOM     33  C   UNL     1      73.046  82.669  65.571  1.00  0.00    -0.008 C 
ATOM     34  C   UNL     1      73.880  81.550  65.089  1.00  0.00     0.048 C 
BRANCH  27  35
ATOM     35  O   UNL     1      70.584  84.612  64.769  1.00  0.00    -0.381 OA
ATOM     36  H   UNL     1      69.612  84.608  64.760  1.00  0.00     0.212 HD
ENDBRANCH  27  35
ENDBRANCH  26  27
ENDBRANCH   2  26
ENDBRANCH   1   2
BRANCH   1  37
ATOM     37  O   UNL     1      67.348  85.268  68.665  1.00  0.00    -0.461 OA
BRANCH  37  38
ATOM     38  C   UNL     1      66.332  84.341  68.620  1.00  0.00     0.310 C 
ATOM     39  O   UNL     1      65.381  84.379  67.852  1.00  0.00    -0.252 OA
BRANCH  38  40
ATOM     40  C   UNL     1      66.574  83.277  69.663  1.00  0.00     0.158 C 
BRANCH  40  41
ATOM     41  C   UNL     1      65.390  83.060  70.569  1.00  0.00    -0.037 A 
ATOM     42  C   UNL     1      64.823  81.791  70.684  1.00  0.00     0.008 A 
ATOM     43  C   UNL     1      64.859  84.128  71.291  1.00  0.00     0.008 A 
ATOM     44  C   UNL     1      63.725  81.590  71.522  1.00  0.00     0.046 A 
ATOM     45  C   UNL     1      63.762  83.928  72.130  1.00  0.00     0.046 A 
ATOM     46  C   UNL     1      63.195  82.659  72.244  1.00  0.00     0.115 A 
BRANCH  46  47
ATOM     47  O   UNL     1      62.124  82.463  73.061  1.00  0.00    -0.508 OA
ATOM     48  H   UNL     1      61.746  83.328  73.299  1.00  0.00     0.293 HD
ENDBRANCH  46  47
ENDBRANCH  40  41
ENDBRANCH  38  40
ENDBRANCH  37  38
ENDBRANCH   1  37
TORSDOF 10
ENDMDL
MODEL 10
REMARK VINA RESULT:    -5.861     24.058     26.615
REMARK INTER + INTRA:         -11.378
REMARK INTER:                 -10.833
REMARK INTRA:                  -0.545
REMARK UNBOUND:                -1.405
REMARK SMILES C=C(C)[C@]12C[C@@H](C)[C@@]34O[C@](Cc5ccccc5)(O[C@@H]1[C@@H]3C=C(COC(=O)Cc1ccc(O)cc1)C[C@]1(O)C(=O)C(C)=C[C@@H]41)O2
REMARK SMILES IDX 23 1 22 2 21 3 20 4 9 5 8 6 10 7 6 8 18 10 44 11 19 12 5 13
REMARK SMILES IDX 7 14 4 15 11 16 12 17 13 18 17 19 14 20 16 21 15 22 2 23
REMARK SMILES IDX 3 24 1 25 35 26 36 27 43 28 38 29 42 30 39 32 40 33 41 34
REMARK SMILES IDX 37 35 24 37 25 38 26 39 27 40 28 41 29 42 34 43 30 44 33 45
REMARK SMILES IDX 31 46 32 47
REMARK H PARENT 37 36 32 48
REMARK Flexibility Score: 90.00
ROOT
ATOM      1  C   UNL     1      95.758  78.746  84.797  1.00  0.00     0.264 C 
ENDROOT
BRANCH   1   2
ATOM      2  C   UNL     1      94.432  78.981  85.483  1.00  0.00    -0.033 C 
ATOM      3  C   UNL     1      94.378  79.811  86.546  1.00  0.00    -0.015 C 
BRANCH   3   4
ATOM      4  C   UNL     1      93.201  80.151  87.446  1.00  0.00     0.078 C 
ATOM      5  O   UNL     1      92.123  82.163  86.492  1.00  0.00    -0.319 OA
ATOM      6  C   UNL     1      91.903  80.748  86.787  1.00  0.00     0.095 CG0
ATOM      7  C   UNL     1      92.797  82.908  87.524  1.00  0.00     0.289 C 
ATOM      8  C   UNL     1      90.725  80.609  87.836  1.00  0.00     0.023 C 
ATOM      9  G   UNL     1      91.640  80.099  85.397  1.00  0.00     0.000 G0
ATOM     10  O   UNL     1      94.065  82.337  87.832  1.00  0.00    -0.320 OA
ATOM     11  O   UNL     1      92.070  82.915  88.750  1.00  0.00    -0.313 OA
ATOM     12  C   UNL     1      93.646  81.158  88.536  1.00  0.00     0.170 C 
ATOM     13  C   UNL     1      91.243  80.753  89.300  1.00  0.00     0.049 C 
ATOM     14  C   UNL     1      89.533  81.557  87.622  1.00  0.00     0.011 C 
ATOM     15  C   UNL     1      92.458  81.678  89.382  1.00  0.00     0.122 C 
BRANCH   7  16
ATOM     16  C   UNL     1      92.980  84.332  87.038  1.00  0.00     0.135 C 
BRANCH  16  17
ATOM     17  C   UNL     1      94.045  85.064  87.816  1.00  0.00    -0.040 A 
ATOM     18  C   UNL     1      95.335  85.175  87.299  1.00  0.00     0.004 A 
ATOM     19  C   UNL     1      93.738  85.630  89.054  1.00  0.00     0.004 A 
ATOM     20  C   UNL     1      96.320  85.853  88.019  1.00  0.00     0.000 A 
ATOM     21  C   UNL     1      94.723  86.307  89.774  1.00  0.00     0.000 A 
ATOM     22  C   UNL     1      96.013  86.418  89.256  1.00  0.00     0.000 A 
ENDBRANCH  16  17
ENDBRANCH   7  16
BRANCH  15  23
ATOM     23  C   UNL     1      92.860  81.974  90.790  1.00  0.00    -0.046 C 
ATOM     24  C   UNL     1      94.088  81.273  91.290  1.00  0.00     0.042 C 
ATOM     25  C   UNL     1      92.162  82.819  91.564  1.00  0.00     0.010 C 
ENDBRANCH  15  23
ENDBRANCH   3   4
BRANCH   2  26
ATOM     26  C   UNL     1      93.287  78.219  84.844  1.00  0.00     0.078 C 
BRANCH  26  27
ATOM     27  C   UNL     1      91.874  78.563  85.309  1.00  0.00     0.140 C 
ATOM     28  C   UNL     1      91.644  80.086  85.402  1.00  0.00     0.086 CG0
ATOM     29  C   UNL     1      90.815  78.135  84.315  1.00  0.00     0.190 C 
ATOM     30  C   UNL     1      90.311  80.280  84.734  1.00  0.00    -0.010 C 
ATOM     31  G   UNL     1      91.903  80.735  86.793  1.00  0.00     0.000 G0
ATOM     32  O   UNL     1      90.738  77.032  83.794  1.00  0.00    -0.291 OA
ATOM     33  C   UNL     1      89.832  79.211  84.091  1.00  0.00    -0.008 C 
ATOM     34  C   UNL     1      88.613  79.063  83.269  1.00  0.00     0.048 C 
BRANCH  27  35
ATOM     35  O   UNL     1      91.531  77.860  86.492  1.00  0.00    -0.381 OA
ATOM     36  H   UNL     1      92.197  77.166  86.640  1.00  0.00     0.212 HD
ENDBRANCH  27  35
ENDBRANCH  26  27
ENDBRANCH   2  26
ENDBRANCH   1   2
BRANCH   1  37
ATOM     37  O   UNL     1      95.684  79.215  83.467  1.00  0.00    -0.461 OA
BRANCH  37  38
ATOM     38  C   UNL     1      96.061  80.523  83.262  1.00  0.00     0.310 C 
ATOM     39  O   UNL     1      95.370  81.500  83.513  1.00  0.00    -0.252 OA
BRANCH  38  40
ATOM     40  C   UNL     1      97.454  80.560  82.681  1.00  0.00     0.158 C 
BRANCH  40  41
ATOM     41  C   UNL     1      97.479  80.303  81.197  1.00  0.00    -0.037 A 
ATOM     42  C   UNL     1      97.566  78.996  80.717  1.00  0.00     0.008 A 
ATOM     43  C   UNL     1      97.416  81.371  80.302  1.00  0.00     0.008 A 
ATOM     44  C   UNL     1      97.591  78.758  79.343  1.00  0.00     0.046 A 
ATOM     45  C   UNL     1      97.440  81.133  78.928  1.00  0.00     0.046 A 
ATOM     46  C   UNL     1      97.527  79.827  78.448  1.00  0.00     0.115 A 
BRANCH  46  47
ATOM     47  O   UNL     1      97.551  79.594  77.108  1.00  0.00    -0.508 OA
ATOM     48  H   UNL     1      97.128  78.736  76.928  1.00  0.00     0.293 HD
ENDBRANCH  46  47
ENDBRANCH  40  41
ENDBRANCH  38  40
ENDBRANCH  37  38
ENDBRANCH   1  37
TORSDOF 10
ENDMDL
