MODEL 1
REMARK VINA RESULT:    -6.082      0.000      0.000
REMARK INTER + INTRA:         -12.116
REMARK INTER:                  -9.993
REMARK INTRA:                  -2.123
REMARK UNBOUND:                -2.123
REMARK SMILES CCCCC[C@H](O)CC(=O)CCc1ccc(O)c(OC)c1
REMARK SMILES IDX 8 1 6 2 7 3 5 5 4 6 3 7 2 8 1 9 9 10 10 11 11 12 12 13 13 14
REMARK SMILES IDX 21 15 14 16 18 17 15 18 16 19 19 20 20 21 17 22
REMARK H PARENT 7 4 17 23
REMARK Flexibility Score: inf
ROOT
ATOM      1  C   UNL     1      80.076  86.935  84.967  1.00  0.00     0.107 C 
ENDROOT
BRANCH   1   2
ATOM      2  C   UNL     1      80.899  85.768  85.518  1.00  0.00     0.121 C 
BRANCH   2   3
ATOM      3  O   UNL     1      81.465  85.025  84.441  1.00  0.00    -0.393 OA
ATOM      4  H   UNL     1      81.183  84.099  84.537  1.00  0.00     0.210 HD
ENDBRANCH   2   3
BRANCH   2   5
ATOM      5  C   UNL     1      82.018  86.217  86.465  1.00  0.00     0.032 C 
BRANCH   5   6
ATOM      6  C   UNL     1      81.673  85.946  87.934  1.00  0.00     0.003 C 
BRANCH   6   7
ATOM      7  C   UNL     1      81.010  87.139  88.631  1.00  0.00    -0.000 C 
BRANCH   7   8
ATOM      8  C   UNL     1      79.484  87.085  88.618  1.00  0.00    -0.003 C 
ATOM      9  C   UNL     1      78.897  87.669  89.894  1.00  0.00     0.004 C 
ENDBRANCH   7   8
ENDBRANCH   6   7
ENDBRANCH   5   6
ENDBRANCH   2   5
ENDBRANCH   1   2
BRANCH   1  10
ATOM     10  C   UNL     1      80.832  87.768  83.945  1.00  0.00     0.135 C 
ATOM     11  O   UNL     1      81.285  87.255  82.922  1.00  0.00    -0.300 OA
BRANCH  10  12
ATOM     12  C   UNL     1      80.955  89.256  84.234  1.00  0.00     0.080 C 
BRANCH  12  13
ATOM     13  C   UNL     1      80.397  89.666  85.598  1.00  0.00     0.043 C 
BRANCH  13  14
ATOM     14  C   UNL     1      81.472  90.073  86.579  1.00  0.00    -0.044 A 
ATOM     15  C   UNL     1      82.815  89.854  86.273  1.00  0.00     0.054 A 
ATOM     16  C   UNL     1      81.120  90.667  87.790  1.00  0.00     0.008 A 
ATOM     17  C   UNL     1      83.806  90.231  87.179  1.00  0.00     0.160 A 
ATOM     18  C   UNL     1      82.111  91.045  88.697  1.00  0.00     0.050 A 
ATOM     19  C   UNL     1      83.454  90.826  88.391  1.00  0.00     0.157 A 
BRANCH  17  20
ATOM     20  O   UNL     1      85.115  90.011  86.870  1.00  0.00    -0.493 OA
ATOM     21  C   UNL     1      85.646  90.726  85.755  1.00  0.00     0.278 C 
ENDBRANCH  17  20
BRANCH  19  22
ATOM     22  O   UNL     1      84.413  91.198  89.284  1.00  0.00    -0.504 OA
ATOM     23  H   UNL     1      83.986  91.609  90.055  1.00  0.00     0.293 HD
ENDBRANCH  19  22
ENDBRANCH  13  14
ENDBRANCH  12  13
ENDBRANCH  10  12
ENDBRANCH   1  10
TORSDOF 12
ENDMDL
MODEL 2
REMARK VINA RESULT:    -5.516     12.605     15.676
REMARK INTER + INTRA:         -11.186
REMARK INTER:                 -10.752
REMARK INTRA:                  -0.434
REMARK UNBOUND:                -2.123
REMARK SMILES CCCCC[C@H](O)CC(=O)CCc1ccc(O)c(OC)c1
REMARK SMILES IDX 8 1 6 2 7 3 5 5 4 6 3 7 2 8 1 9 9 10 10 11 11 12 12 13 13 14
REMARK SMILES IDX 21 15 14 16 18 17 15 18 16 19 19 20 20 21 17 22
REMARK H PARENT 7 4 17 23
REMARK Flexibility Score: inf
ROOT
ATOM      1  C   UNL     1      91.184  94.507  76.480  1.00  0.00     0.107 C 
ENDROOT
BRANCH   1   2
ATOM      2  C   UNL     1      92.592  94.902  76.027  1.00  0.00     0.121 C 
BRANCH   2   3
ATOM      3  O   UNL     1      93.549  94.476  76.995  1.00  0.00    -0.393 OA
ATOM      4  H   UNL     1      93.963  93.660  76.664  1.00  0.00     0.210 HD
ENDBRANCH   2   3
BRANCH   2   5
ATOM      5  C   UNL     1      92.967  94.323  74.658  1.00  0.00     0.032 C 
BRANCH   5   6
ATOM      6  C   UNL     1      92.596  92.840  74.538  1.00  0.00     0.003 C 
BRANCH   6   7
ATOM      7  C   UNL     1      91.599  92.553  73.411  1.00  0.00    -0.000 C 
BRANCH   7   8
ATOM      8  C   UNL     1      90.169  92.981  73.735  1.00  0.00    -0.003 C 
ATOM      9  C   UNL     1      89.500  93.631  72.534  1.00  0.00     0.004 C 
ENDBRANCH   7   8
ENDBRANCH   6   7
ENDBRANCH   5   6
ENDBRANCH   2   5
ENDBRANCH   1   2
BRANCH   1  10
ATOM     10  C   UNL     1      91.164  93.250  77.334  1.00  0.00     0.135 C 
ATOM     11  O   UNL     1      92.167  92.887  77.949  1.00  0.00    -0.300 OA
BRANCH  10  12
ATOM     12  C   UNL     1      89.841  92.505  77.419  1.00  0.00     0.080 C 
BRANCH  12  13
ATOM     13  C   UNL     1      89.926  91.186  78.190  1.00  0.00     0.043 C 
BRANCH  13  14
ATOM     14  C   UNL     1      90.163  89.992  77.296  1.00  0.00    -0.044 A 
ATOM     15  C   UNL     1      90.495  90.180  75.955  1.00  0.00     0.054 A 
ATOM     16  C   UNL     1      90.048  88.701  77.813  1.00  0.00     0.008 A 
ATOM     17  C   UNL     1      90.714  89.076  75.130  1.00  0.00     0.160 A 
ATOM     18  C   UNL     1      90.267  87.598  76.989  1.00  0.00     0.050 A 
ATOM     19  C   UNL     1      90.599  87.785  75.647  1.00  0.00     0.157 A 
BRANCH  17  20
ATOM     20  O   UNL     1      91.038  89.271  73.822  1.00  0.00    -0.493 OA
ATOM     21  C   UNL     1      89.960  89.490  72.913  1.00  0.00     0.278 C 
ENDBRANCH  17  20
BRANCH  19  22
ATOM     22  O   UNL     1      90.811  86.700  74.852  1.00  0.00    -0.504 OA
ATOM     23  H   UNL     1      91.327  86.972  74.074  1.00  0.00     0.293 HD
ENDBRANCH  19  22
ENDBRANCH  13  14
ENDBRANCH  12  13
ENDBRANCH  10  12
ENDBRANCH   1  10
TORSDOF 12
ENDMDL
MODEL 3
REMARK VINA RESULT:    -5.374     12.547     15.854
REMARK INTER + INTRA:         -10.952
REMARK INTER:                 -10.006
REMARK INTRA:                  -0.946
REMARK UNBOUND:                -2.123
REMARK SMILES CCCCC[C@H](O)CC(=O)CCc1ccc(O)c(OC)c1
REMARK SMILES IDX 8 1 6 2 7 3 5 5 4 6 3 7 2 8 1 9 9 10 10 11 11 12 12 13 13 14
REMARK SMILES IDX 21 15 14 16 18 17 15 18 16 19 19 20 20 21 17 22
REMARK H PARENT 7 4 17 23
REMARK Flexibility Score: inf
ROOT
ATOM      1  C   UNL     1      89.648  93.142  74.694  1.00  0.00     0.107 C 
ENDROOT
BRANCH   1   2
ATOM      2  C   UNL     1      90.724  94.151  75.103  1.00  0.00     0.121 C 
BRANCH   2   3
ATOM      3  O   UNL     1      90.515  94.561  76.452  1.00  0.00    -0.393 OA
ATOM      4  H   UNL     1      90.813  95.484  76.532  1.00  0.00     0.210 HD
ENDBRANCH   2   3
BRANCH   2   5
ATOM      5  C   UNL     1      92.148  93.601  74.958  1.00  0.00     0.032 C 
BRANCH   5   6
ATOM      6  C   UNL     1      92.821  93.376  76.318  1.00  0.00     0.003 C 
BRANCH   6   7
ATOM      7  C   UNL     1      93.980  94.341  76.588  1.00  0.00    -0.000 C 
BRANCH   7   8
ATOM      8  C   UNL     1      95.168  94.148  75.646  1.00  0.00    -0.003 C 
ATOM      9  C   UNL     1      96.382  93.611  76.388  1.00  0.00     0.004 C 
ENDBRANCH   7   8
ENDBRANCH   6   7
ENDBRANCH   5   6
ENDBRANCH   2   5
ENDBRANCH   1   2
BRANCH   1  10
ATOM     10  C   UNL     1      89.680  92.803  73.213  1.00  0.00     0.135 C 
ATOM     11  O   UNL     1      89.616  93.689  72.360  1.00  0.00    -0.300 OA
BRANCH  10  12
ATOM     12  C   UNL     1      89.841  91.335  72.852  1.00  0.00     0.080 C 
BRANCH  12  13
ATOM     13  C   UNL     1      91.129  90.707  73.389  1.00  0.00     0.043 C 
BRANCH  13  14
ATOM     14  C   UNL     1      90.892  89.772  74.551  1.00  0.00    -0.044 A 
ATOM     15  C   UNL     1      90.607  90.288  75.815  1.00  0.00     0.054 A 
ATOM     16  C   UNL     1      90.958  88.391  74.359  1.00  0.00     0.008 A 
ATOM     17  C   UNL     1      90.388  89.423  76.887  1.00  0.00     0.160 A 
ATOM     18  C   UNL     1      90.739  87.527  75.432  1.00  0.00     0.050 A 
ATOM     19  C   UNL     1      90.454  88.043  76.696  1.00  0.00     0.157 A 
BRANCH  17  20
ATOM     20  O   UNL     1      90.111  89.939  78.118  1.00  0.00    -0.493 OA
ATOM     21  C   UNL     1      90.284  91.345  78.285  1.00  0.00     0.278 C 
ENDBRANCH  17  20
BRANCH  19  22
ATOM     22  O   UNL     1      90.242  87.189  77.735  1.00  0.00    -0.504 OA
ATOM     23  H   UNL     1      90.902  87.362  78.428  1.00  0.00     0.293 HD
ENDBRANCH  19  22
ENDBRANCH  13  14
ENDBRANCH  12  13
ENDBRANCH  10  12
ENDBRANCH   1  10
TORSDOF 12
ENDMDL
MODEL 4
REMARK VINA RESULT:    -5.003      1.968      3.903
REMARK INTER + INTRA:         -10.344
REMARK INTER:                  -8.796
REMARK INTRA:                  -1.547
REMARK UNBOUND:                -2.123
REMARK SMILES CCCCC[C@H](O)CC(=O)CCc1ccc(O)c(OC)c1
REMARK SMILES IDX 8 1 6 2 7 3 5 5 4 6 3 7 2 8 1 9 9 10 10 11 11 12 12 13 13 14
REMARK SMILES IDX 21 15 14 16 18 17 15 18 16 19 19 20 20 21 17 22
REMARK H PARENT 7 4 17 23
REMARK Flexibility Score: inf
ROOT
ATOM      1  C   UNL     1      80.614  86.905  89.137  1.00  0.00     0.107 C 
ENDROOT
BRANCH   1   2
ATOM      2  C   UNL     1      81.602  86.473  88.051  1.00  0.00     0.121 C 
BRANCH   2   3
ATOM      3  O   UNL     1      82.441  85.433  88.547  1.00  0.00    -0.393 OA
ATOM      4  H   UNL     1      83.310  85.521  88.117  1.00  0.00     0.210 HD
ENDBRANCH   2   3
BRANCH   2   5
ATOM      5  C   UNL     1      80.912  85.996  86.767  1.00  0.00     0.032 C 
BRANCH   5   6
ATOM      6  C   UNL     1      80.286  87.156  85.984  1.00  0.00     0.003 C 
BRANCH   6   7
ATOM      7  C   UNL     1      81.172  87.665  84.843  1.00  0.00    -0.000 C 
BRANCH   7   8
ATOM      8  C   UNL     1      80.386  88.124  83.616  1.00  0.00    -0.003 C 
ATOM      9  C   UNL     1      80.089  86.962  82.681  1.00  0.00     0.004 C 
ENDBRANCH   7   8
ENDBRANCH   6   7
ENDBRANCH   5   6
ENDBRANCH   2   5
ENDBRANCH   1   2
BRANCH   1  10
ATOM     10  C   UNL     1      81.162  87.997  90.041  1.00  0.00     0.135 C 
ATOM     11  O   UNL     1      82.241  87.859  90.617  1.00  0.00    -0.300 OA
BRANCH  10  12
ATOM     12  C   UNL     1      80.335  89.269  90.153  1.00  0.00     0.080 C 
BRANCH  12  13
ATOM     13  C   UNL     1      80.083  89.959  88.811  1.00  0.00     0.043 C 
BRANCH  13  14
ATOM     14  C   UNL     1      81.291  90.702  88.292  1.00  0.00    -0.044 A 
ATOM     15  C   UNL     1      82.014  90.193  87.213  1.00  0.00     0.054 A 
ATOM     16  C   UNL     1      81.684  91.899  88.892  1.00  0.00     0.008 A 
ATOM     17  C   UNL     1      83.129  90.881  86.734  1.00  0.00     0.160 A 
ATOM     18  C   UNL     1      82.799  92.587  88.413  1.00  0.00     0.050 A 
ATOM     19  C   UNL     1      83.522  92.077  87.334  1.00  0.00     0.157 A 
BRANCH  17  20
ATOM     20  O   UNL     1      83.827  90.373  85.680  1.00  0.00    -0.493 OA
ATOM     21  C   UNL     1      84.745  89.317  85.959  1.00  0.00     0.278 C 
ENDBRANCH  17  20
BRANCH  19  22
ATOM     22  O   UNL     1      84.609  92.758  86.875  1.00  0.00    -0.504 OA
ATOM     23  H   UNL     1      85.018  93.238  87.616  1.00  0.00     0.293 HD
ENDBRANCH  19  22
ENDBRANCH  13  14
ENDBRANCH  12  13
ENDBRANCH  10  12
ENDBRANCH   1  10
TORSDOF 12
ENDMDL
MODEL 5
REMARK VINA RESULT:    -4.960      1.937      4.607
REMARK INTER + INTRA:         -10.272
REMARK INTER:                  -8.504
REMARK INTRA:                  -1.768
REMARK UNBOUND:                -2.123
REMARK SMILES CCCCC[C@H](O)CC(=O)CCc1ccc(O)c(OC)c1
REMARK SMILES IDX 8 1 6 2 7 3 5 5 4 6 3 7 2 8 1 9 9 10 10 11 11 12 12 13 13 14
REMARK SMILES IDX 21 15 14 16 18 17 15 18 16 19 19 20 20 21 17 22
REMARK H PARENT 7 4 17 23
REMARK Flexibility Score: inf
ROOT
ATOM      1  C   UNL     1      81.480  87.971  84.307  1.00  0.00     0.107 C 
ENDROOT
BRANCH   1   2
ATOM      2  C   UNL     1      80.728  89.282  84.550  1.00  0.00     0.121 C 
BRANCH   2   3
ATOM      3  O   UNL     1      79.407  89.004  85.009  1.00  0.00    -0.393 OA
ATOM      4  H   UNL     1      78.923  89.847  85.051  1.00  0.00     0.210 HD
ENDBRANCH   2   3
BRANCH   2   5
ATOM      5  C   UNL     1      81.431  90.199  85.559  1.00  0.00     0.032 C 
BRANCH   5   6
ATOM      6  C   UNL     1      82.953  90.019  85.538  1.00  0.00     0.003 C 
BRANCH   6   7
ATOM      7  C   UNL     1      83.663  90.725  86.698  1.00  0.00    -0.000 C 
BRANCH   7   8
ATOM      8  C   UNL     1      84.384  92.007  86.285  1.00  0.00    -0.003 C 
ATOM      9  C   UNL     1      85.430  91.735  85.215  1.00  0.00     0.004 C 
ENDBRANCH   7   8
ENDBRANCH   6   7
ENDBRANCH   5   6
ENDBRANCH   2   5
ENDBRANCH   1   2
BRANCH   1  10
ATOM     10  C   UNL     1      80.565  86.758  84.266  1.00  0.00     0.135 C 
ATOM     11  O   UNL     1      79.839  86.545  83.295  1.00  0.00    -0.300 OA
BRANCH  10  12
ATOM     12  C   UNL     1      80.631  85.814  85.457  1.00  0.00     0.080 C 
BRANCH  12  13
ATOM     13  C   UNL     1      81.632  86.246  86.530  1.00  0.00     0.043 C 
BRANCH  13  14
ATOM     14  C   UNL     1      80.991  87.007  87.666  1.00  0.00    -0.044 A 
ATOM     15  C   UNL     1      81.706  88.003  88.330  1.00  0.00     0.054 A 
ATOM     16  C   UNL     1      79.682  86.713  88.051  1.00  0.00     0.008 A 
ATOM     17  C   UNL     1      81.113  88.706  89.379  1.00  0.00     0.160 A 
ATOM     18  C   UNL     1      79.089  87.415  89.099  1.00  0.00     0.050 A 
ATOM     19  C   UNL     1      79.804  88.412  89.764  1.00  0.00     0.157 A 
BRANCH  17  20
ATOM     20  O   UNL     1      81.821  89.676  90.021  1.00  0.00    -0.493 OA
ATOM     21  C   UNL     1      83.212  89.434  90.226  1.00  0.00     0.278 C 
ENDBRANCH  17  20
BRANCH  19  22
ATOM     22  O   UNL     1      79.214  89.091  90.786  1.00  0.00    -0.504 OA
ATOM     23  H   UNL     1      78.257  89.145  90.620  1.00  0.00     0.293 HD
ENDBRANCH  19  22
ENDBRANCH  13  14
ENDBRANCH  12  13
ENDBRANCH  10  12
ENDBRANCH   1  10
TORSDOF 12
ENDMDL
MODEL 6
REMARK VINA RESULT:    -4.884     22.568     25.189
REMARK INTER + INTRA:         -10.147
REMARK INTER:                  -8.113
REMARK INTRA:                  -2.034
REMARK UNBOUND:                -2.123
REMARK SMILES CCCCC[C@H](O)CC(=O)CCc1ccc(O)c(OC)c1
REMARK SMILES IDX 8 1 6 2 7 3 5 5 4 6 3 7 2 8 1 9 9 10 10 11 11 12 12 13 13 14
REMARK SMILES IDX 21 15 14 16 18 17 15 18 16 19 19 20 20 21 17 22
REMARK H PARENT 7 4 17 23
REMARK Flexibility Score: inf
ROOT
ATOM      1  C   UNL     1      63.063  84.116  69.413  1.00  0.00     0.107 C 
ENDROOT
BRANCH   1   2
ATOM      2  C   UNL     1      61.939  85.152  69.338  1.00  0.00     0.121 C 
BRANCH   2   3
ATOM      3  O   UNL     1      61.550  85.347  67.980  1.00  0.00    -0.393 OA
ATOM      4  H   UNL     1      61.649  84.496  67.518  1.00  0.00     0.210 HD
ENDBRANCH   2   3
BRANCH   2   5
ATOM      5  C   UNL     1      60.707  84.762  70.165  1.00  0.00     0.032 C 
BRANCH   5   6
ATOM      6  C   UNL     1      60.450  85.745  71.314  1.00  0.00     0.003 C 
BRANCH   6   7
ATOM      7  C   UNL     1      60.912  85.219  72.676  1.00  0.00    -0.000 C 
BRANCH   7   8
ATOM      8  C   UNL     1      62.137  85.945  73.229  1.00  0.00    -0.003 C 
ATOM      9  C   UNL     1      63.422  85.212  72.876  1.00  0.00     0.004 C 
ENDBRANCH   7   8
ENDBRANCH   6   7
ENDBRANCH   5   6
ENDBRANCH   2   5
ENDBRANCH   1   2
BRANCH   1  10
ATOM     10  C   UNL     1      62.604  82.712  69.055  1.00  0.00     0.135 C 
ATOM     11  O   UNL     1      62.027  82.486  67.992  1.00  0.00    -0.300 OA
BRANCH  10  12
ATOM     12  C   UNL     1      62.935  81.612  70.052  1.00  0.00     0.080 C 
BRANCH  12  13
ATOM     13  C   UNL     1      61.969  81.545  71.237  1.00  0.00     0.043 C 
BRANCH  13  14
ATOM     14  C   UNL     1      62.673  81.462  72.571  1.00  0.00    -0.044 A 
ATOM     15  C   UNL     1      62.045  81.938  73.722  1.00  0.00     0.054 A 
ATOM     16  C   UNL     1      63.951  80.909  72.651  1.00  0.00     0.008 A 
ATOM     17  C   UNL     1      62.696  81.860  74.953  1.00  0.00     0.160 A 
ATOM     18  C   UNL     1      64.602  80.831  73.882  1.00  0.00     0.050 A 
ATOM     19  C   UNL     1      63.975  81.307  75.033  1.00  0.00     0.157 A 
BRANCH  17  20
ATOM     20  O   UNL     1      62.074  82.329  76.070  1.00  0.00    -0.493 OA
ATOM     21  C   UNL     1      61.775  83.723  76.109  1.00  0.00     0.278 C 
ENDBRANCH  17  20
BRANCH  19  22
ATOM     22  O   UNL     1      64.620  81.226  76.230  1.00  0.00    -0.504 OA
ATOM     23  H   UNL     1      64.560  80.313  76.561  1.00  0.00     0.293 HD
ENDBRANCH  19  22
ENDBRANCH  13  14
ENDBRANCH  12  13
ENDBRANCH  10  12
ENDBRANCH   1  10
TORSDOF 12
ENDMDL
MODEL 7
REMARK VINA RESULT:    -4.825      2.561      4.276
REMARK INTER + INTRA:         -10.051
REMARK INTER:                  -8.900
REMARK INTRA:                  -1.151
REMARK UNBOUND:                -2.123
REMARK SMILES CCCCC[C@H](O)CC(=O)CCc1ccc(O)c(OC)c1
REMARK SMILES IDX 8 1 6 2 7 3 5 5 4 6 3 7 2 8 1 9 9 10 10 11 11 12 12 13 13 14
REMARK SMILES IDX 21 15 14 16 18 17 15 18 16 19 19 20 20 21 17 22
REMARK H PARENT 7 4 17 23
REMARK Flexibility Score: inf
ROOT
ATOM      1  C   UNL     1      82.920  89.926  84.982  1.00  0.00     0.107 C 
ENDROOT
BRANCH   1   2
ATOM      2  C   UNL     1      82.671  88.456  85.327  1.00  0.00     0.121 C 
BRANCH   2   3
ATOM      3  O   UNL     1      83.913  87.760  85.406  1.00  0.00    -0.393 OA
ATOM      4  H   UNL     1      84.531  88.183  84.785  1.00  0.00     0.210 HD
ENDBRANCH   2   3
BRANCH   2   5
ATOM      5  C   UNL     1      81.904  88.270  86.642  1.00  0.00     0.032 C 
BRANCH   5   6
ATOM      6  C   UNL     1      80.511  87.669  86.417  1.00  0.00     0.003 C 
BRANCH   6   7
ATOM      7  C   UNL     1      79.940  87.966  85.027  1.00  0.00    -0.000 C 
BRANCH   7   8
ATOM      8  C   UNL     1      79.879  86.741  84.116  1.00  0.00    -0.003 C 
ATOM      9  C   UNL     1      80.112  87.120  82.661  1.00  0.00     0.004 C 
ENDBRANCH   7   8
ENDBRANCH   6   7
ENDBRANCH   5   6
ENDBRANCH   2   5
ENDBRANCH   1   2
BRANCH   1  10
ATOM     10  C   UNL     1      84.384  90.322  85.085  1.00  0.00     0.135 C 
ATOM     11  O   UNL     1      85.192  89.992  84.217  1.00  0.00    -0.300 OA
BRANCH  10  12
ATOM     12  C   UNL     1      84.778  91.174  86.282  1.00  0.00     0.080 C 
BRANCH  12  13
ATOM     13  C   UNL     1      84.105  90.747  87.588  1.00  0.00     0.043 C 
BRANCH  13  14
ATOM     14  C   UNL     1      83.225  91.823  88.180  1.00  0.00    -0.044 A 
ATOM     15  C   UNL     1      83.537  93.168  87.979  1.00  0.00     0.054 A 
ATOM     16  C   UNL     1      82.101  91.471  88.928  1.00  0.00     0.008 A 
ATOM     17  C   UNL     1      82.723  94.160  88.526  1.00  0.00     0.160 A 
ATOM     18  C   UNL     1      81.288  92.463  89.475  1.00  0.00     0.050 A 
ATOM     19  C   UNL     1      81.599  93.808  89.274  1.00  0.00     0.157 A 
BRANCH  17  20
ATOM     20  O   UNL     1      83.037  95.470  88.323  1.00  0.00    -0.493 OA
ATOM     21  C   UNL     1      83.478  95.837  87.017  1.00  0.00     0.278 C 
ENDBRANCH  17  20
BRANCH  19  22
ATOM     22  O   UNL     1      80.797  94.768  89.812  1.00  0.00    -0.504 OA
ATOM     23  H   UNL     1      80.192  95.098  89.125  1.00  0.00     0.293 HD
ENDBRANCH  19  22
ENDBRANCH  13  14
ENDBRANCH  12  13
ENDBRANCH  10  12
ENDBRANCH   1  10
TORSDOF 12
ENDMDL
MODEL 8
REMARK VINA RESULT:    -4.789      2.364      5.092
REMARK INTER + INTRA:          -9.991
REMARK INTER:                  -8.187
REMARK INTRA:                  -1.804
REMARK UNBOUND:                -2.123
REMARK SMILES CCCCC[C@H](O)CC(=O)CCc1ccc(O)c(OC)c1
REMARK SMILES IDX 8 1 6 2 7 3 5 5 4 6 3 7 2 8 1 9 9 10 10 11 11 12 12 13 13 14
REMARK SMILES IDX 21 15 14 16 18 17 15 18 16 19 19 20 20 21 17 22
REMARK H PARENT 7 4 17 23
REMARK Flexibility Score: inf
ROOT
ATOM      1  C   UNL     1      81.423  87.780  84.289  1.00  0.00     0.107 C 
ENDROOT
BRANCH   1   2
ATOM      2  C   UNL     1      80.838  89.194  84.328  1.00  0.00     0.121 C 
BRANCH   2   3
ATOM      3  O   UNL     1      79.632  89.197  85.088  1.00  0.00    -0.393 OA
ATOM      4  H   UNL     1      79.583  88.354  85.571  1.00  0.00     0.210 HD
ENDBRANCH   2   3
BRANCH   2   5
ATOM      5  C   UNL     1      81.807  90.228  84.915  1.00  0.00     0.032 C 
BRANCH   5   6
ATOM      6  C   UNL     1      83.246  89.701  84.973  1.00  0.00     0.003 C 
BRANCH   6   7
ATOM      7  C   UNL     1      84.296  90.768  84.644  1.00  0.00    -0.000 C 
BRANCH   7   8
ATOM      8  C   UNL     1      85.068  91.264  85.865  1.00  0.00    -0.003 C 
ATOM      9  C   UNL     1      84.783  90.405  87.088  1.00  0.00     0.004 C 
ENDBRANCH   7   8
ENDBRANCH   6   7
ENDBRANCH   5   6
ENDBRANCH   2   5
ENDBRANCH   1   2
BRANCH   1  10
ATOM     10  C   UNL     1      80.378  86.697  84.500  1.00  0.00     0.135 C 
ATOM     11  O   UNL     1      79.456  86.542  83.698  1.00  0.00    -0.300 OA
BRANCH  10  12
ATOM     12  C   UNL     1      80.560  85.801  85.715  1.00  0.00     0.080 C 
BRANCH  12  13
ATOM     13  C   UNL     1      81.677  86.258  86.654  1.00  0.00     0.043 C 
BRANCH  13  14
ATOM     14  C   UNL     1      81.177  87.098  87.805  1.00  0.00    -0.044 A 
ATOM     15  C   UNL     1      80.152  86.621  88.623  1.00  0.00     0.054 A 
ATOM     16  C   UNL     1      81.740  88.351  88.051  1.00  0.00     0.008 A 
ATOM     17  C   UNL     1      79.691  87.398  89.687  1.00  0.00     0.160 A 
ATOM     18  C   UNL     1      81.279  89.127  89.114  1.00  0.00     0.050 A 
ATOM     19  C   UNL     1      80.254  88.650  89.932  1.00  0.00     0.157 A 
BRANCH  17  20
ATOM     20  O   UNL     1      78.689  86.922  90.478  1.00  0.00    -0.493 OA
ATOM     21  C   UNL     1      79.031  85.897  91.410  1.00  0.00     0.278 C 
ENDBRANCH  17  20
BRANCH  19  22
ATOM     22  O   UNL     1      79.812  89.417  90.967  1.00  0.00    -0.504 OA
ATOM     23  H   UNL     1      80.547  89.967  91.290  1.00  0.00     0.293 HD
ENDBRANCH  19  22
ENDBRANCH  13  14
ENDBRANCH  12  13
ENDBRANCH  10  12
ENDBRANCH   1  10
TORSDOF 12
ENDMDL
MODEL 9
REMARK VINA RESULT:    -4.768      2.086      5.110
REMARK INTER + INTRA:          -9.957
REMARK INTER:                  -8.362
REMARK INTRA:                  -1.595
REMARK UNBOUND:                -2.123
REMARK SMILES CCCCC[C@H](O)CC(=O)CCc1ccc(O)c(OC)c1
REMARK SMILES IDX 8 1 6 2 7 3 5 5 4 6 3 7 2 8 1 9 9 10 10 11 11 12 12 13 13 14
REMARK SMILES IDX 21 15 14 16 18 17 15 18 16 19 19 20 20 21 17 22
REMARK H PARENT 7 4 17 23
REMARK Flexibility Score: inf
ROOT
ATOM      1  C   UNL     1      84.210  91.583  85.973  1.00  0.00     0.107 C 
ENDROOT
BRANCH   1   2
ATOM      2  C   UNL     1      84.050  90.780  84.680  1.00  0.00     0.121 C 
BRANCH   2   3
ATOM      3  O   UNL     1      84.882  89.624  84.723  1.00  0.00    -0.393 OA
ATOM      4  H   UNL     1      84.460  88.933  84.182  1.00  0.00     0.210 HD
ENDBRANCH   2   3
BRANCH   2   5
ATOM      5  C   UNL     1      82.602  90.350  84.416  1.00  0.00     0.032 C 
BRANCH   5   6
ATOM      6  C   UNL     1      82.391  88.852  84.665  1.00  0.00     0.003 C 
BRANCH   6   7
ATOM      7  C   UNL     1      80.940  88.402  84.463  1.00  0.00    -0.000 C 
BRANCH   7   8
ATOM      8  C   UNL     1      80.811  86.998  83.876  1.00  0.00    -0.003 C 
ATOM      9  C   UNL     1      79.937  86.996  82.631  1.00  0.00     0.004 C 
ENDBRANCH   7   8
ENDBRANCH   6   7
ENDBRANCH   5   6
ENDBRANCH   2   5
ENDBRANCH   1   2
BRANCH   1  10
ATOM     10  C   UNL     1      84.051  90.735  87.225  1.00  0.00     0.135 C 
ATOM     11  O   UNL     1      84.799  89.782  87.442  1.00  0.00    -0.300 OA
BRANCH  10  12
ATOM     12  C   UNL     1      82.960  91.154  88.198  1.00  0.00     0.080 C 
BRANCH  12  13
ATOM     13  C   UNL     1      81.543  90.923  87.671  1.00  0.00     0.043 C 
BRANCH  13  14
ATOM     14  C   UNL     1      80.857  89.742  88.316  1.00  0.00    -0.044 A 
ATOM     15  C   UNL     1      81.328  88.450  88.084  1.00  0.00     0.054 A 
ATOM     16  C   UNL     1      79.752  89.944  89.144  1.00  0.00     0.008 A 
ATOM     17  C   UNL     1      80.694  87.359  88.680  1.00  0.00     0.160 A 
ATOM     18  C   UNL     1      79.119  88.854  89.740  1.00  0.00     0.050 A 
ATOM     19  C   UNL     1      79.590  87.561  89.508  1.00  0.00     0.157 A 
BRANCH  17  20
ATOM     20  O   UNL     1      81.163  86.102  88.446  1.00  0.00    -0.493 OA
ATOM     21  C   UNL     1      81.996  85.923  87.302  1.00  0.00     0.278 C 
ENDBRANCH  17  20
BRANCH  19  22
ATOM     22  O   UNL     1      78.963  86.505  90.096  1.00  0.00    -0.504 OA
ATOM     23  H   UNL     1      79.545  86.131  90.780  1.00  0.00     0.293 HD
ENDBRANCH  19  22
ENDBRANCH  13  14
ENDBRANCH  12  13
ENDBRANCH  10  12
ENDBRANCH   1  10
TORSDOF 12
ENDMDL
MODEL 10
REMARK VINA RESULT:    -4.735     19.332     21.390
REMARK INTER + INTRA:          -9.902
REMARK INTER:                  -8.648
REMARK INTRA:                  -1.254
REMARK UNBOUND:                -2.123
REMARK SMILES CCCCC[C@H](O)CC(=O)CCc1ccc(O)c(OC)c1
REMARK SMILES IDX 8 1 6 2 7 3 5 5 4 6 3 7 2 8 1 9 9 10 10 11 11 12 12 13 13 14
REMARK SMILES IDX 21 15 14 16 18 17 15 18 16 19 19 20 20 21 17 22
REMARK H PARENT 7 4 17 23
REMARK Flexibility Score: inf
ROOT
ATOM      1  C   UNL     1      78.073  85.795  65.127  1.00  0.00     0.107 C 
ENDROOT
BRANCH   1   2
ATOM      2  C   UNL     1      77.512  84.376  65.247  1.00  0.00     0.121 C 
BRANCH   2   3
ATOM      3  O   UNL     1      78.470  83.530  65.879  1.00  0.00    -0.393 OA
ATOM      4  H   UNL     1      78.314  82.621  65.568  1.00  0.00     0.210 HD
ENDBRANCH   2   3
BRANCH   2   5
ATOM      5  C   UNL     1      76.193  84.316  66.026  1.00  0.00     0.032 C 
BRANCH   5   6
ATOM      6  C   UNL     1      75.471  82.977  65.835  1.00  0.00     0.003 C 
BRANCH   6   7
ATOM      7  C   UNL     1      75.201  82.637  64.366  1.00  0.00    -0.000 C 
BRANCH   7   8
ATOM      8  C   UNL     1      75.349  81.151  64.044  1.00  0.00    -0.003 C 
ATOM      9  C   UNL     1      76.799  80.703  64.144  1.00  0.00     0.004 C 
ENDBRANCH   7   8
ENDBRANCH   6   7
ENDBRANCH   5   6
ENDBRANCH   2   5
ENDBRANCH   1   2
BRANCH   1  10
ATOM     10  C   UNL     1      78.359  86.439  66.475  1.00  0.00     0.135 C 
ATOM     11  O   UNL     1      78.764  85.767  67.423  1.00  0.00    -0.300 OA
BRANCH  10  12
ATOM     12  C   UNL     1      78.161  87.944  66.567  1.00  0.00     0.080 C 
BRANCH  12  13
ATOM     13  C   UNL     1      76.799  88.418  66.057  1.00  0.00     0.043 C 
BRANCH  13  14
ATOM     14  C   UNL     1      75.773  88.564  67.156  1.00  0.00    -0.044 A 
ATOM     15  C   UNL     1      74.879  87.527  67.418  1.00  0.00     0.054 A 
ATOM     16  C   UNL     1      75.721  89.738  67.908  1.00  0.00     0.008 A 
ATOM     17  C   UNL     1      73.933  87.662  68.434  1.00  0.00     0.160 A 
ATOM     18  C   UNL     1      74.775  89.874  68.924  1.00  0.00     0.050 A 
ATOM     19  C   UNL     1      73.880  88.836  69.187  1.00  0.00     0.157 A 
BRANCH  17  20
ATOM     20  O   UNL     1      73.064  86.642  68.681  1.00  0.00    -0.493 OA
ATOM     21  C   UNL     1      71.971  86.489  67.777  1.00  0.00     0.278 C 
ENDBRANCH  17  20
BRANCH  19  22
ATOM     22  O   UNL     1      72.961  88.980  70.181  1.00  0.00    -0.504 OA
ATOM     23  H   UNL     1      72.077  88.783  69.826  1.00  0.00     0.293 HD
ENDBRANCH  19  22
ENDBRANCH  13  14
ENDBRANCH  12  13
ENDBRANCH  10  12
ENDBRANCH   1  10
TORSDOF 12
ENDMDL
