MODEL 1
REMARK VINA RESULT:    -5.234      0.000      0.000
REMARK INTER + INTRA:         -10.182
REMARK INTER:                  -8.447
REMARK INTRA:                  -1.735
REMARK UNBOUND:                -1.735
REMARK SMILES CCCCCCCCC(=O)NCc1ccc(O)c(OC)c1
REMARK SMILES IDX 7 1 6 2 5 3 4 4 3 5 2 6 1 7 8 8 9 9 10 10 11 11 12 13 13 14
REMARK SMILES IDX 21 15 14 16 18 17 15 18 16 19 19 20 20 21 17 22
REMARK H PARENT 11 12 17 23
REMARK Flexibility Score: inf
ROOT
ATOM      1  C   UNL     1      79.764  87.972  83.956  1.00  0.00     0.010 C 
ENDROOT
BRANCH   1   2
ATOM      2  C   UNL     1      80.752  89.135  84.259  1.00  0.00     0.001 C 
BRANCH   2   3
ATOM      3  C   UNL     1      80.563  89.711  85.693  1.00  0.00     0.000 C 
BRANCH   3   4
ATOM      4  C   UNL     1      81.898  90.041  86.417  1.00  0.00    -0.000 C 
BRANCH   4   5
ATOM      5  C   UNL     1      82.980  88.943  86.210  1.00  0.00    -0.000 C 
BRANCH   5   6
ATOM      6  C   UNL     1      84.359  89.533  85.810  1.00  0.00    -0.003 C 
ATOM      7  C   UNL     1      84.267  90.526  84.631  1.00  0.00     0.004 C 
ENDBRANCH   5   6
ENDBRANCH   4   5
ENDBRANCH   3   4
ENDBRANCH   2   3
ENDBRANCH   1   2
BRANCH   1   8
ATOM      8  C   UNL     1      80.456  86.596  83.748  1.00  0.00     0.100 C 
BRANCH   8   9
ATOM      9  C   UNL     1      81.072  86.106  85.005  1.00  0.00     0.220 C 
ATOM     10  O   UNL     1      82.242  85.657  84.959  1.00  0.00    -0.275 OA
ATOM     11  N   UNL     1      80.387  86.171  86.185  1.00  0.00    -0.352 N 
ATOM     12  H   UNL     1      79.426  86.467  86.094  1.00  0.00     0.163 HD
BRANCH  11  13
ATOM     13  C   UNL     1      80.919  85.865  87.478  1.00  0.00     0.151 C 
BRANCH  13  14
ATOM     14  C   UNL     1      80.604  86.884  88.514  1.00  0.00    -0.025 A 
ATOM     15  C   UNL     1      81.644  87.470  89.275  1.00  0.00     0.056 A 
ATOM     16  C   UNL     1      79.270  87.282  88.761  1.00  0.00     0.009 A 
ATOM     17  C   UNL     1      81.362  88.453  90.252  1.00  0.00     0.160 A 
ATOM     18  C   UNL     1      78.983  88.260  89.730  1.00  0.00     0.050 A 
ATOM     19  C   UNL     1      80.023  88.841  90.481  1.00  0.00     0.157 A 
BRANCH  17  20
ATOM     20  O   UNL     1      82.367  88.989  91.017  1.00  0.00    -0.493 OA
ATOM     21  C   UNL     1      83.307  88.022  91.516  1.00  0.00     0.278 C 
ENDBRANCH  17  20
BRANCH  19  22
ATOM     22  O   UNL     1      79.733  89.764  91.434  1.00  0.00    -0.504 OA
ATOM     23  H   UNL     1      80.458  89.814  92.062  1.00  0.00     0.293 HD
ENDBRANCH  19  22
ENDBRANCH  13  14
ENDBRANCH  11  13
ENDBRANCH   8   9
ENDBRANCH   1   8
TORSDOF 11
ENDMDL
MODEL 2
REMARK VINA RESULT:    -5.101      2.936      4.823
REMARK INTER + INTRA:          -9.966
REMARK INTER:                  -8.427
REMARK INTRA:                  -1.539
REMARK UNBOUND:                -1.735
REMARK SMILES CCCCCCCCC(=O)NCc1ccc(O)c(OC)c1
REMARK SMILES IDX 7 1 6 2 5 3 4 4 3 5 2 6 1 7 8 8 9 9 10 10 11 11 12 13 13 14
REMARK SMILES IDX 21 15 14 16 18 17 15 18 16 19 19 20 20 21 17 22
REMARK H PARENT 11 12 17 23
REMARK Flexibility Score: inf
ROOT
ATOM      1  C   UNL     1      81.580  86.589  86.317  1.00  0.00     0.010 C 
ENDROOT
BRANCH   1   2
ATOM      2  C   UNL     1      81.088  85.761  85.095  1.00  0.00     0.001 C 
BRANCH   2   3
ATOM      3  C   UNL     1      79.857  86.413  84.399  1.00  0.00     0.000 C 
BRANCH   3   4
ATOM      4  C   UNL     1      80.142  87.826  83.816  1.00  0.00    -0.000 C 
BRANCH   4   5
ATOM      5  C   UNL     1      79.438  88.958  84.616  1.00  0.00    -0.000 C 
BRANCH   5   6
ATOM      6  C   UNL     1      80.446  89.927  85.290  1.00  0.00    -0.003 C 
ATOM      7  C   UNL     1      81.825  89.938  84.594  1.00  0.00     0.004 C 
ENDBRANCH   5   6
ENDBRANCH   4   5
ENDBRANCH   3   4
ENDBRANCH   2   3
ENDBRANCH   1   2
BRANCH   1   8
ATOM      8  C   UNL     1      80.586  86.599  87.511  1.00  0.00     0.100 C 
BRANCH   8   9
ATOM      9  C   UNL     1      80.865  87.725  88.436  1.00  0.00     0.220 C 
ATOM     10  O   UNL     1      79.928  88.152  89.153  1.00  0.00    -0.275 OA
ATOM     11  N   UNL     1      82.119  88.258  88.521  1.00  0.00    -0.352 N 
ATOM     12  H   UNL     1      82.772  87.900  87.840  1.00  0.00     0.163 HD
BRANCH  11  13
ATOM     13  C   UNL     1      82.545  89.243  89.467  1.00  0.00     0.151 C 
BRANCH  13  14
ATOM     14  C   UNL     1      82.869  90.561  88.859  1.00  0.00    -0.025 A 
ATOM     15  C   UNL     1      83.582  90.626  87.638  1.00  0.00     0.056 A 
ATOM     16  C   UNL     1      82.476  91.767  89.485  1.00  0.00     0.009 A 
ATOM     17  C   UNL     1      83.882  91.872  87.039  1.00  0.00     0.160 A 
ATOM     18  C   UNL     1      82.770  93.008  88.894  1.00  0.00     0.050 A 
ATOM     19  C   UNL     1      83.478  93.066  87.678  1.00  0.00     0.157 A 
BRANCH  17  20
ATOM     20  O   UNL     1      84.610  91.934  85.878  1.00  0.00    -0.493 OA
ATOM     21  C   UNL     1      85.660  90.954  85.788  1.00  0.00     0.278 C 
ENDBRANCH  17  20
BRANCH  19  22
ATOM     22  O   UNL     1      83.781  94.270  87.129  1.00  0.00    -0.504 OA
ATOM     23  H   UNL     1      83.857  94.177  86.177  1.00  0.00     0.293 HD
ENDBRANCH  19  22
ENDBRANCH  13  14
ENDBRANCH  11  13
ENDBRANCH   8   9
ENDBRANCH   1   8
TORSDOF 11
ENDMDL
MODEL 3
REMARK VINA RESULT:    -5.100      2.048      4.388
REMARK INTER + INTRA:          -9.965
REMARK INTER:                  -8.281
REMARK INTRA:                  -1.684
REMARK UNBOUND:                -1.735
REMARK SMILES CCCCCCCCC(=O)NCc1ccc(O)c(OC)c1
REMARK SMILES IDX 7 1 6 2 5 3 4 4 3 5 2 6 1 7 8 8 9 9 10 10 11 11 12 13 13 14
REMARK SMILES IDX 21 15 14 16 18 17 15 18 16 19 19 20 20 21 17 22
REMARK H PARENT 11 12 17 23
REMARK Flexibility Score: inf
ROOT
ATOM      1  C   UNL     1      80.583  85.731  85.253  1.00  0.00     0.010 C 
ENDROOT
BRANCH   1   2
ATOM      2  C   UNL     1      81.931  86.254  85.828  1.00  0.00     0.001 C 
BRANCH   2   3
ATOM      3  C   UNL     1      82.188  85.747  87.278  1.00  0.00     0.000 C 
BRANCH   3   4
ATOM      4  C   UNL     1      81.143  86.249  88.313  1.00  0.00    -0.000 C 
BRANCH   4   5
ATOM      5  C   UNL     1      81.655  87.459  89.145  1.00  0.00    -0.000 C 
BRANCH   5   6
ATOM      6  C   UNL     1      80.639  87.911  90.228  1.00  0.00    -0.003 C 
ATOM      7  C   UNL     1      79.188  87.969  89.702  1.00  0.00     0.004 C 
ENDBRANCH   5   6
ENDBRANCH   4   5
ENDBRANCH   3   4
ENDBRANCH   2   3
ENDBRANCH   1   2
BRANCH   1   8
ATOM      8  C   UNL     1      79.934  86.681  84.208  1.00  0.00     0.100 C 
BRANCH   8   9
ATOM      9  C   UNL     1      80.293  88.096  84.468  1.00  0.00     0.220 C 
ATOM     10  O   UNL     1      80.911  88.727  83.577  1.00  0.00    -0.275 OA
ATOM     11  N   UNL     1      79.932  88.700  85.638  1.00  0.00    -0.352 N 
ATOM     12  H   UNL     1      79.517  88.079  86.317  1.00  0.00     0.163 HD
BRANCH  11  13
ATOM     13  C   UNL     1      80.094  90.087  85.948  1.00  0.00     0.151 C 
BRANCH  13  14
ATOM     14  C   UNL     1      81.209  90.367  86.891  1.00  0.00    -0.025 A 
ATOM     15  C   UNL     1      82.539  90.034  86.541  1.00  0.00     0.056 A 
ATOM     16  C   UNL     1      80.964  90.963  88.150  1.00  0.00     0.009 A 
ATOM     17  C   UNL     1      83.612  90.309  87.420  1.00  0.00     0.160 A 
ATOM     18  C   UNL     1      82.026  91.240  89.028  1.00  0.00     0.050 A 
ATOM     19  C   UNL     1      83.348  90.909  88.672  1.00  0.00     0.157 A 
BRANCH  17  20
ATOM     20  O   UNL     1      84.895  89.947  87.096  1.00  0.00    -0.493 OA
ATOM     21  C   UNL     1      85.361  90.485  85.846  1.00  0.00     0.278 C 
ENDBRANCH  17  20
BRANCH  19  22
ATOM     22  O   UNL     1      84.363  91.156  89.539  1.00  0.00    -0.504 OA
ATOM     23  H   UNL     1      84.926  90.380  89.601  1.00  0.00     0.293 HD
ENDBRANCH  19  22
ENDBRANCH  13  14
ENDBRANCH  11  13
ENDBRANCH   8   9
ENDBRANCH   1   8
TORSDOF 11
ENDMDL
MODEL 4
REMARK VINA RESULT:    -4.898      2.157      6.049
REMARK INTER + INTRA:          -9.639
REMARK INTER:                  -8.014
REMARK INTRA:                  -1.624
REMARK UNBOUND:                -1.735
REMARK SMILES CCCCCCCCC(=O)NCc1ccc(O)c(OC)c1
REMARK SMILES IDX 7 1 6 2 5 3 4 4 3 5 2 6 1 7 8 8 9 9 10 10 11 11 12 13 13 14
REMARK SMILES IDX 21 15 14 16 18 17 15 18 16 19 19 20 20 21 17 22
REMARK H PARENT 11 12 17 23
REMARK Flexibility Score: inf
ROOT
ATOM      1  C   UNL     1      83.340  89.562  90.030  1.00  0.00     0.010 C 
ENDROOT
BRANCH   1   2
ATOM      2  C   UNL     1      82.971  89.770  91.527  1.00  0.00     0.001 C 
BRANCH   2   3
ATOM      3  C   UNL     1      81.721  88.942  91.946  1.00  0.00     0.000 C 
BRANCH   3   4
ATOM      4  C   UNL     1      80.646  88.820  90.829  1.00  0.00    -0.000 C 
BRANCH   4   5
ATOM      5  C   UNL     1      80.250  87.345  90.535  1.00  0.00    -0.000 C 
BRANCH   5   6
ATOM      6  C   UNL     1      80.255  87.018  89.018  1.00  0.00    -0.003 C 
ATOM      7  C   UNL     1      80.133  88.277  88.132  1.00  0.00     0.004 C 
ENDBRANCH   5   6
ENDBRANCH   4   5
ENDBRANCH   3   4
ENDBRANCH   2   3
ENDBRANCH   1   2
BRANCH   1   8
ATOM      8  C   UNL     1      83.603  90.885  89.257  1.00  0.00     0.100 C 
BRANCH   8   9
ATOM      9  C   UNL     1      82.926  90.883  87.938  1.00  0.00     0.220 C 
ATOM     10  O   UNL     1      81.783  91.394  87.855  1.00  0.00    -0.275 OA
ATOM     11  N   UNL     1      83.549  90.364  86.839  1.00  0.00    -0.352 N 
ATOM     12  H   UNL     1      84.425  89.903  87.035  1.00  0.00     0.163 HD
BRANCH  11  13
ATOM     13  C   UNL     1      83.063  90.430  85.495  1.00  0.00     0.151 C 
BRANCH  13  14
ATOM     14  C   UNL     1      82.128  89.330  85.138  1.00  0.00    -0.025 A 
ATOM     15  C   UNL     1      82.506  87.980  85.340  1.00  0.00     0.056 A 
ATOM     16  C   UNL     1      80.854  89.607  84.592  1.00  0.00     0.009 A 
ATOM     17  C   UNL     1      81.621  86.925  85.022  1.00  0.00     0.160 A 
ATOM     18  C   UNL     1      79.969  88.561  84.274  1.00  0.00     0.050 A 
ATOM     19  C   UNL     1      80.350  87.222  84.480  1.00  0.00     0.157 A 
BRANCH  17  20
ATOM     20  O   UNL     1      82.005  85.617  85.179  1.00  0.00    -0.493 OA
ATOM     21  C   UNL     1      82.558  85.316  86.473  1.00  0.00     0.278 C 
ENDBRANCH  17  20
BRANCH  19  22
ATOM     22  O   UNL     1      79.499  86.218  84.145  1.00  0.00    -0.504 OA
ATOM     23  H   UNL     1      78.788  86.569  83.604  1.00  0.00     0.293 HD
ENDBRANCH  19  22
ENDBRANCH  13  14
ENDBRANCH  11  13
ENDBRANCH   8   9
ENDBRANCH   1   8
TORSDOF 11
ENDMDL
MODEL 5
REMARK VINA RESULT:    -4.890     17.662     20.063
REMARK INTER + INTRA:          -9.626
REMARK INTER:                  -8.737
REMARK INTRA:                  -0.889
REMARK UNBOUND:                -1.735
REMARK SMILES CCCCCCCCC(=O)NCc1ccc(O)c(OC)c1
REMARK SMILES IDX 7 1 6 2 5 3 4 4 3 5 2 6 1 7 8 8 9 9 10 10 11 11 12 13 13 14
REMARK SMILES IDX 21 15 14 16 18 17 15 18 16 19 19 20 20 21 17 22
REMARK H PARENT 11 12 17 23
REMARK Flexibility Score: inf
ROOT
ATOM      1  C   UNL     1      62.623  83.763  75.867  1.00  0.00     0.010 C 
ENDROOT
BRANCH   1   2
ATOM      2  C   UNL     1      62.791  82.218  75.809  1.00  0.00     0.001 C 
BRANCH   2   3
ATOM      3  C   UNL     1      64.180  81.797  75.242  1.00  0.00     0.000 C 
BRANCH   3   4
ATOM      4  C   UNL     1      64.156  80.454  74.458  1.00  0.00    -0.000 C 
BRANCH   4   5
ATOM      5  C   UNL     1      64.200  80.658  72.917  1.00  0.00    -0.000 C 
BRANCH   5   6
ATOM      6  C   UNL     1      63.445  81.937  72.464  1.00  0.00    -0.003 C 
ATOM      7  C   UNL     1      62.013  81.643  71.966  1.00  0.00     0.004 C 
ENDBRANCH   5   6
ENDBRANCH   4   5
ENDBRANCH   3   4
ENDBRANCH   2   3
ENDBRANCH   1   2
BRANCH   1   8
ATOM      8  C   UNL     1      63.950  84.549  75.670  1.00  0.00     0.100 C 
BRANCH   8   9
ATOM      9  C   UNL     1      64.082  85.644  76.660  1.00  0.00     0.220 C 
ATOM     10  O   UNL     1      63.039  86.089  77.198  1.00  0.00    -0.275 OA
ATOM     11  N   UNL     1      65.312  86.131  76.996  1.00  0.00    -0.352 N 
ATOM     12  H   UNL     1      66.072  85.764  76.443  1.00  0.00     0.163 HD
BRANCH  11  13
ATOM     13  C   UNL     1      65.580  87.081  78.033  1.00  0.00     0.151 C 
BRANCH  13  14
ATOM     14  C   UNL     1      65.784  86.467  79.372  1.00  0.00    -0.025 A 
ATOM     15  C   UNL     1      64.842  86.684  80.406  1.00  0.00     0.056 A 
ATOM     16  C   UNL     1      66.917  85.664  79.639  1.00  0.00     0.009 A 
ATOM     17  C   UNL     1      65.014  86.093  81.679  1.00  0.00     0.160 A 
ATOM     18  C   UNL     1      67.094  85.073  80.902  1.00  0.00     0.050 A 
ATOM     19  C   UNL     1      66.151  85.290  81.926  1.00  0.00     0.157 A 
BRANCH  17  20
ATOM     20  O   UNL     1      64.122  86.338  82.692  1.00  0.00    -0.493 OA
ATOM     21  C   UNL     1      64.248  87.643  83.285  1.00  0.00     0.278 C 
ENDBRANCH  17  20
BRANCH  19  22
ATOM     22  O   UNL     1      66.344  84.737  83.150  1.00  0.00    -0.504 OA
ATOM     23  H   UNL     1      66.635  85.415  83.765  1.00  0.00     0.293 HD
ENDBRANCH  19  22
ENDBRANCH  13  14
ENDBRANCH  11  13
ENDBRANCH   8   9
ENDBRANCH   1   8
TORSDOF 11
ENDMDL
MODEL 6
REMARK VINA RESULT:    -4.872     17.035     20.667
REMARK INTER + INTRA:          -9.598
REMARK INTER:                  -9.107
REMARK INTRA:                  -0.491
REMARK UNBOUND:                -1.735
REMARK SMILES CCCCCCCCC(=O)NCc1ccc(O)c(OC)c1
REMARK SMILES IDX 7 1 6 2 5 3 4 4 3 5 2 6 1 7 8 8 9 9 10 10 11 11 12 13 13 14
REMARK SMILES IDX 21 15 14 16 18 17 15 18 16 19 19 20 20 21 17 22
REMARK H PARENT 11 12 17 23
REMARK Flexibility Score: inf
ROOT
ATOM      1  C   UNL     1      93.592  99.549  71.287  1.00  0.00     0.010 C 
ENDROOT
BRANCH   1   2
ATOM      2  C   UNL     1      92.339  99.755  70.388  1.00  0.00     0.001 C 
BRANCH   2   3
ATOM      3  C   UNL     1      91.794  98.411  69.821  1.00  0.00     0.000 C 
BRANCH   3   4
ATOM      4  C   UNL     1      90.525  98.572  68.938  1.00  0.00    -0.000 C 
BRANCH   4   5
ATOM      5  C   UNL     1      90.810  99.327  67.609  1.00  0.00    -0.000 C 
BRANCH   5   6
ATOM      6  C   UNL     1      90.493  98.468  66.355  1.00  0.00    -0.003 C 
ATOM      7  C   UNL     1      89.620  97.235  66.678  1.00  0.00     0.004 C 
ENDBRANCH   5   6
ENDBRANCH   4   5
ENDBRANCH   3   4
ENDBRANCH   2   3
ENDBRANCH   1   2
BRANCH   1   8
ATOM      8  C   UNL     1      93.259  99.326  72.789  1.00  0.00     0.100 C 
BRANCH   8   9
ATOM      9  C   UNL     1      94.309  98.523  73.461  1.00  0.00     0.220 C 
ATOM     10  O   UNL     1      95.388  99.088  73.763  1.00  0.00    -0.275 OA
ATOM     11  N   UNL     1      94.089  97.211  73.768  1.00  0.00    -0.352 N 
ATOM     12  H   UNL     1      93.226  96.836  73.404  1.00  0.00     0.163 HD
BRANCH  11  13
ATOM     13  C   UNL     1      94.961  96.375  74.535  1.00  0.00     0.151 C 
BRANCH  13  14
ATOM     14  C   UNL     1      94.248  95.416  75.421  1.00  0.00    -0.025 A 
ATOM     15  C   UNL     1      94.728  95.162  76.729  1.00  0.00     0.056 A 
ATOM     16  C   UNL     1      93.088  94.740  74.977  1.00  0.00     0.009 A 
ATOM     17  C   UNL     1      94.051  94.267  77.588  1.00  0.00     0.160 A 
ATOM     18  C   UNL     1      92.410  93.849  75.827  1.00  0.00     0.050 A 
ATOM     19  C   UNL     1      92.891  93.604  77.128  1.00  0.00     0.157 A 
BRANCH  17  20
ATOM     20  O   UNL     1      94.541  93.991  78.840  1.00  0.00    -0.493 OA
ATOM     21  C   UNL     1      95.872  94.483  79.073  1.00  0.00     0.278 C 
ENDBRANCH  17  20
BRANCH  19  22
ATOM     22  O   UNL     1      92.245  92.720  77.931  1.00  0.00    -0.504 OA
ATOM     23  H   UNL     1      92.695  92.669  78.778  1.00  0.00     0.293 HD
ENDBRANCH  19  22
ENDBRANCH  13  14
ENDBRANCH  11  13
ENDBRANCH   8   9
ENDBRANCH   1   8
TORSDOF 11
ENDMDL
MODEL 7
REMARK VINA RESULT:    -4.848      1.093      2.043
REMARK INTER + INTRA:          -9.558
REMARK INTER:                  -8.219
REMARK INTRA:                  -1.340
REMARK UNBOUND:                -1.735
REMARK SMILES CCCCCCCCC(=O)NCc1ccc(O)c(OC)c1
REMARK SMILES IDX 7 1 6 2 5 3 4 4 3 5 2 6 1 7 8 8 9 9 10 10 11 11 12 13 13 14
REMARK SMILES IDX 21 15 14 16 18 17 15 18 16 19 19 20 20 21 17 22
REMARK H PARENT 11 12 17 23
REMARK Flexibility Score: inf
ROOT
ATOM      1  C   UNL     1      79.876  88.110  83.950  1.00  0.00     0.010 C 
ENDROOT
BRANCH   1   2
ATOM      2  C   UNL     1      81.056  89.122  83.899  1.00  0.00     0.001 C 
BRANCH   2   3
ATOM      3  C   UNL     1      81.379  89.722  85.299  1.00  0.00     0.000 C 
BRANCH   3   4
ATOM      4  C   UNL     1      82.835  90.253  85.434  1.00  0.00    -0.000 C 
BRANCH   4   5
ATOM      5  C   UNL     1      83.855  89.127  85.766  1.00  0.00    -0.000 C 
BRANCH   5   6
ATOM      6  C   UNL     1      85.290  89.673  85.996  1.00  0.00    -0.003 C 
ATOM      7  C   UNL     1      85.412  91.184  85.701  1.00  0.00     0.004 C 
ENDBRANCH   5   6
ENDBRANCH   4   5
ENDBRANCH   3   4
ENDBRANCH   2   3
ENDBRANCH   1   2
BRANCH   1   8
ATOM      8  C   UNL     1      80.318  86.623  83.860  1.00  0.00     0.100 C 
BRANCH   8   9
ATOM      9  C   UNL     1      81.003  86.187  85.101  1.00  0.00     0.220 C 
ATOM     10  O   UNL     1      82.177  85.754  85.012  1.00  0.00    -0.275 OA
ATOM     11  N   UNL     1      80.377  86.286  86.311  1.00  0.00    -0.352 N 
ATOM     12  H   UNL     1      79.408  86.565  86.258  1.00  0.00     0.163 HD
BRANCH  11  13
ATOM     13  C   UNL     1      80.977  86.034  87.585  1.00  0.00     0.151 C 
BRANCH  13  14
ATOM     14  C   UNL     1      80.787  87.135  88.567  1.00  0.00    -0.025 A 
ATOM     15  C   UNL     1      79.643  87.157  89.401  1.00  0.00     0.056 A 
ATOM     16  C   UNL     1      81.737  88.176  88.684  1.00  0.00     0.009 A 
ATOM     17  C   UNL     1      79.458  88.188  90.350  1.00  0.00     0.160 A 
ATOM     18  C   UNL     1      81.560  89.203  89.628  1.00  0.00     0.050 A 
ATOM     19  C   UNL     1      80.421  89.218  90.456  1.00  0.00     0.157 A 
BRANCH  17  20
ATOM     20  O   UNL     1      78.329  88.231  91.128  1.00  0.00    -0.493 OA
ATOM     21  C   UNL     1      77.130  88.566  90.407  1.00  0.00     0.278 C 
ENDBRANCH  17  20
BRANCH  19  22
ATOM     22  O   UNL     1      80.245  90.229  91.344  1.00  0.00    -0.504 OA
ATOM     23  H   UNL     1      80.187  91.063  90.872  1.00  0.00     0.293 HD
ENDBRANCH  19  22
ENDBRANCH  13  14
ENDBRANCH  11  13
ENDBRANCH   8   9
ENDBRANCH   1   8
TORSDOF 11
ENDMDL
MODEL 8
REMARK VINA RESULT:    -4.822     23.792     25.367
REMARK INTER + INTRA:          -9.516
REMARK INTER:                  -8.728
REMARK INTRA:                  -0.789
REMARK UNBOUND:                -1.735
REMARK SMILES CCCCCCCCC(=O)NCc1ccc(O)c(OC)c1
REMARK SMILES IDX 7 1 6 2 5 3 4 4 3 5 2 6 1 7 8 8 9 9 10 10 11 11 12 13 13 14
REMARK SMILES IDX 21 15 14 16 18 17 15 18 16 19 19 20 20 21 17 22
REMARK H PARENT 11 12 17 23
REMARK Flexibility Score: inf
ROOT
ATOM      1  C   UNL     1      81.398  65.553  75.188  1.00  0.00     0.010 C 
ENDROOT
BRANCH   1   2
ATOM      2  C   UNL     1      81.084  64.388  74.205  1.00  0.00     0.001 C 
BRANCH   2   3
ATOM      3  C   UNL     1      80.095  64.817  73.081  1.00  0.00     0.000 C 
BRANCH   3   4
ATOM      4  C   UNL     1      80.133  66.338  72.760  1.00  0.00    -0.000 C 
BRANCH   4   5
ATOM      5  C   UNL     1      80.300  66.627  71.241  1.00  0.00    -0.000 C 
BRANCH   5   6
ATOM      6  C   UNL     1      81.773  66.919  70.848  1.00  0.00    -0.003 C 
ATOM      7  C   UNL     1      82.398  68.066  71.673  1.00  0.00     0.004 C 
ENDBRANCH   5   6
ENDBRANCH   4   5
ENDBRANCH   3   4
ENDBRANCH   2   3
ENDBRANCH   1   2
BRANCH   1   8
ATOM      8  C   UNL     1      81.724  65.085  76.634  1.00  0.00     0.100 C 
BRANCH   8   9
ATOM      9  C   UNL     1      83.175  64.830  76.805  1.00  0.00     0.220 C 
ATOM     10  O   UNL     1      83.985  65.635  76.288  1.00  0.00    -0.275 OA
ATOM     11  N   UNL     1      83.610  63.760  77.533  1.00  0.00    -0.352 N 
ATOM     12  H   UNL     1      82.878  63.130  77.829  1.00  0.00     0.163 HD
BRANCH  11  13
ATOM     13  C   UNL     1      84.970  63.487  77.886  1.00  0.00     0.151 C 
BRANCH  13  14
ATOM     14  C   UNL     1      85.391  64.100  79.174  1.00  0.00    -0.025 A 
ATOM     15  C   UNL     1      86.104  65.322  79.181  1.00  0.00     0.056 A 
ATOM     16  C   UNL     1      85.092  63.477  80.408  1.00  0.00     0.009 A 
ATOM     17  C   UNL     1      86.496  65.926  80.399  1.00  0.00     0.160 A 
ATOM     18  C   UNL     1      85.478  64.073  81.622  1.00  0.00     0.050 A 
ATOM     19  C   UNL     1      86.185  65.290  81.622  1.00  0.00     0.157 A 
BRANCH  17  20
ATOM     20  O   UNL     1      87.224  67.089  80.402  1.00  0.00    -0.493 OA
ATOM     21  C   UNL     1      88.343  67.086  79.498  1.00  0.00     0.278 C 
ENDBRANCH  17  20
BRANCH  19  22
ATOM     22  O   UNL     1      86.577  65.843  82.798  1.00  0.00    -0.504 OA
ATOM     23  H   UNL     1      86.574  66.800  82.718  1.00  0.00     0.293 HD
ENDBRANCH  19  22
ENDBRANCH  13  14
ENDBRANCH  11  13
ENDBRANCH   8   9
ENDBRANCH   1   8
TORSDOF 11
ENDMDL
MODEL 9
REMARK VINA RESULT:    -4.772      2.239      5.242
REMARK INTER + INTRA:          -9.436
REMARK INTER:                  -7.977
REMARK INTRA:                  -1.460
REMARK UNBOUND:                -1.735
REMARK SMILES CCCCCCCCC(=O)NCc1ccc(O)c(OC)c1
REMARK SMILES IDX 7 1 6 2 5 3 4 4 3 5 2 6 1 7 8 8 9 9 10 10 11 11 12 13 13 14
REMARK SMILES IDX 21 15 14 16 18 17 15 18 16 19 19 20 20 21 17 22
REMARK H PARENT 11 12 17 23
REMARK Flexibility Score: inf
ROOT
ATOM      1  C   UNL     1      81.103  91.777  89.429  1.00  0.00     0.010 C 
ENDROOT
BRANCH   1   2
ATOM      2  C   UNL     1      81.844  93.088  89.038  1.00  0.00     0.001 C 
BRANCH   2   3
ATOM      3  C   UNL     1      83.220  92.809  88.366  1.00  0.00     0.000 C 
BRANCH   3   4
ATOM      4  C   UNL     1      83.196  91.630  87.353  1.00  0.00    -0.000 C 
BRANCH   4   5
ATOM      5  C   UNL     1      84.334  90.600  87.604  1.00  0.00    -0.000 C 
BRANCH   5   6
ATOM      6  C   UNL     1      85.289  90.459  86.388  1.00  0.00    -0.003 C 
ATOM      7  C   UNL     1      85.297  91.711  85.483  1.00  0.00     0.004 C 
ENDBRANCH   5   6
ENDBRANCH   4   5
ENDBRANCH   3   4
ENDBRANCH   2   3
ENDBRANCH   1   2
BRANCH   1   8
ATOM      8  C   UNL     1      81.761  91.012  90.611  1.00  0.00     0.100 C 
BRANCH   8   9
ATOM      9  C   UNL     1      81.948  89.577  90.288  1.00  0.00     0.220 C 
ATOM     10  O   UNL     1      82.877  88.955  90.856  1.00  0.00    -0.275 OA
ATOM     11  N   UNL     1      81.109  88.947  89.413  1.00  0.00    -0.352 N 
ATOM     12  H   UNL     1      80.454  89.559  88.949  1.00  0.00     0.163 HD
BRANCH  11  13
ATOM     13  C   UNL     1      81.098  87.545  89.128  1.00  0.00     0.151 C 
BRANCH  13  14
ATOM     14  C   UNL     1      81.144  87.226  87.676  1.00  0.00    -0.025 A 
ATOM     15  C   UNL     1      81.989  87.963  86.812  1.00  0.00     0.056 A 
ATOM     16  C   UNL     1      80.348  86.191  87.134  1.00  0.00     0.009 A 
ATOM     17  C   UNL     1      82.056  87.660  85.432  1.00  0.00     0.160 A 
ATOM     18  C   UNL     1      80.411  85.884  85.763  1.00  0.00     0.050 A 
ATOM     19  C   UNL     1      81.256  86.619  84.909  1.00  0.00     0.157 A 
BRANCH  17  20
ATOM     20  O   UNL     1      82.844  88.402  84.589  1.00  0.00    -0.493 OA
ATOM     21  C   UNL     1      82.338  89.722  84.321  1.00  0.00     0.278 C 
ENDBRANCH  17  20
BRANCH  19  22
ATOM     22  O   UNL     1      81.289  86.333  83.582  1.00  0.00    -0.504 OA
ATOM     23  H   UNL     1      82.202  86.248  83.296  1.00  0.00     0.293 HD
ENDBRANCH  19  22
ENDBRANCH  13  14
ENDBRANCH  11  13
ENDBRANCH   8   9
ENDBRANCH   1   8
TORSDOF 11
ENDMDL
MODEL 10
REMARK VINA RESULT:    -4.650     24.230     25.987
REMARK INTER + INTRA:          -9.239
REMARK INTER:                  -7.598
REMARK INTRA:                  -1.641
REMARK UNBOUND:                -1.735
REMARK SMILES CCCCCCCCC(=O)NCc1ccc(O)c(OC)c1
REMARK SMILES IDX 7 1 6 2 5 3 4 4 3 5 2 6 1 7 8 8 9 9 10 10 11 11 12 13 13 14
REMARK SMILES IDX 21 15 14 16 18 17 15 18 16 19 19 20 20 21 17 22
REMARK H PARENT 11 12 17 23
REMARK Flexibility Score: inf
ROOT
ATOM      1  C   UNL     1      81.444  67.700  70.871  1.00  0.00     0.010 C 
ENDROOT
BRANCH   1   2
ATOM      2  C   UNL     1      80.192  67.014  71.491  1.00  0.00     0.001 C 
BRANCH   2   3
ATOM      3  C   UNL     1      80.500  65.573  71.996  1.00  0.00     0.000 C 
BRANCH   3   4
ATOM      4  C   UNL     1      80.221  65.368  73.512  1.00  0.00    -0.000 C 
BRANCH   4   5
ATOM      5  C   UNL     1      80.559  66.627  74.360  1.00  0.00    -0.000 C 
BRANCH   5   6
ATOM      6  C   UNL     1      81.305  66.277  75.676  1.00  0.00    -0.003 C 
ATOM      7  C   UNL     1      81.723  64.792  75.752  1.00  0.00     0.004 C 
ENDBRANCH   5   6
ENDBRANCH   4   5
ENDBRANCH   3   4
ENDBRANCH   2   3
ENDBRANCH   1   2
BRANCH   1   8
ATOM      8  C   UNL     1      82.788  67.022  71.257  1.00  0.00     0.100 C 
BRANCH   8   9
ATOM      9  C   UNL     1      83.468  67.755  72.352  1.00  0.00     0.220 C 
ATOM     10  O   UNL     1      83.495  69.008  72.303  1.00  0.00    -0.275 OA
ATOM     11  N   UNL     1      84.023  67.078  73.400  1.00  0.00    -0.352 N 
ATOM     12  H   UNL     1      84.021  66.074  73.296  1.00  0.00     0.163 HD
BRANCH  11  13
ATOM     13  C   UNL     1      84.578  67.671  74.578  1.00  0.00     0.151 C 
BRANCH  13  14
ATOM     14  C   UNL     1      84.977  66.684  75.617  1.00  0.00    -0.025 A 
ATOM     15  C   UNL     1      85.326  65.363  75.248  1.00  0.00     0.056 A 
ATOM     16  C   UNL     1      85.011  67.043  76.985  1.00  0.00     0.009 A 
ATOM     17  C   UNL     1      85.724  64.419  76.223  1.00  0.00     0.160 A 
ATOM     18  C   UNL     1      85.407  66.109  77.959  1.00  0.00     0.050 A 
ATOM     19  C   UNL     1      85.756  64.797  77.584  1.00  0.00     0.157 A 
BRANCH  17  20
ATOM     20  O   UNL     1      86.022  63.128  75.868  1.00  0.00    -0.493 OA
ATOM     21  C   UNL     1      87.276  62.980  75.179  1.00  0.00     0.278 C 
ENDBRANCH  17  20
BRANCH  19  22
ATOM     22  O   UNL     1      86.111  63.895  78.535  1.00  0.00    -0.504 OA
ATOM     23  H   UNL     1      86.357  64.358  79.339  1.00  0.00     0.293 HD
ENDBRANCH  19  22
ENDBRANCH  13  14
ENDBRANCH  11  13
ENDBRANCH   8   9
ENDBRANCH   1   8
TORSDOF 11
ENDMDL
