MODEL 1
REMARK VINA RESULT:    -6.061      0.000      0.000
REMARK INTER + INTRA:         -10.861
REMARK INTER:                  -9.958
REMARK INTRA:                  -0.902
REMARK UNBOUND:                -0.902
REMARK SMILES CCCCC[C@H](O)CC(=O)CCc1ccc(O)c(OC)c1
REMARK SMILES IDX 8 1 6 2 7 3 5 5 4 6 3 7 2 8 1 9 9 10 10 11 11 12 12 13 13 14
REMARK SMILES IDX 21 15 14 16 18 17 15 18 16 19 19 20 20 21 17 22
REMARK H PARENT 7 4 17 23
REMARK Flexibility Score: inf
ROOT
ATOM      1  C   UNL     1      89.426  80.729  83.477  1.00  0.00     0.107 C 
ENDROOT
BRANCH   1   2
ATOM      2  C   UNL     1      88.007  80.246  83.784  1.00  0.00     0.121 C 
BRANCH   2   3
ATOM      3  O   UNL     1      87.849  80.071  85.190  1.00  0.00    -0.393 OA
ATOM      4  H   UNL     1      88.735  79.963  85.578  1.00  0.00     0.210 HD
ENDBRANCH   2   3
BRANCH   2   5
ATOM      5  C   UNL     1      86.923  81.202  83.269  1.00  0.00     0.032 C 
BRANCH   5   6
ATOM      6  C   UNL     1      87.182  82.651  83.699  1.00  0.00     0.003 C 
BRANCH   6   7
ATOM      7  C   UNL     1      86.163  83.172  84.717  1.00  0.00    -0.000 C 
BRANCH   7   8
ATOM      8  C   UNL     1      86.693  84.312  85.585  1.00  0.00    -0.003 C 
ATOM      9  C   UNL     1      85.646  84.783  86.583  1.00  0.00     0.004 C 
ENDBRANCH   7   8
ENDBRANCH   6   7
ENDBRANCH   5   6
ENDBRANCH   2   5
ENDBRANCH   1   2
BRANCH   1  10
ATOM     10  C   UNL     1      90.481  80.072  84.352  1.00  0.00     0.135 C 
ATOM     11  O   UNL     1      90.550  78.846  84.448  1.00  0.00    -0.300 OA
BRANCH  10  12
ATOM     12  C   UNL     1      91.460  81.000  85.055  1.00  0.00     0.080 C 
BRANCH  12  13
ATOM     13  C   UNL     1      92.866  80.982  84.451  1.00  0.00     0.043 C 
BRANCH  13  14
ATOM     14  C   UNL     1      93.596  82.294  84.611  1.00  0.00    -0.044 A 
ATOM     15  C   UNL     1      93.079  83.282  85.449  1.00  0.00     0.054 A 
ATOM     16  C   UNL     1      94.788  82.517  83.921  1.00  0.00     0.008 A 
ATOM     17  C   UNL     1      93.755  84.493  85.597  1.00  0.00     0.160 A 
ATOM     18  C   UNL     1      95.463  83.728  84.069  1.00  0.00     0.050 A 
ATOM     19  C   UNL     1      94.947  84.717  84.907  1.00  0.00     0.157 A 
BRANCH  17  20
ATOM     20  O   UNL     1      93.241  85.451  86.418  1.00  0.00    -0.493 OA
ATOM     21  C   UNL     1      93.305  85.205  87.821  1.00  0.00     0.278 C 
ENDBRANCH  17  20
BRANCH  19  22
ATOM     22  O   UNL     1      95.615  85.895  85.043  1.00  0.00    -0.504 OA
ATOM     23  H   UNL     1      95.460  86.247  85.937  1.00  0.00     0.293 HD
ENDBRANCH  19  22
ENDBRANCH  13  14
ENDBRANCH  12  13
ENDBRANCH  10  12
ENDBRANCH   1  10
TORSDOF 12
ENDMDL
MODEL 2
REMARK VINA RESULT:    -6.035     20.407     23.651
REMARK INTER + INTRA:         -10.819
REMARK INTER:                  -9.988
REMARK INTRA:                  -0.831
REMARK UNBOUND:                -0.902
REMARK SMILES CCCCC[C@H](O)CC(=O)CCc1ccc(O)c(OC)c1
REMARK SMILES IDX 8 1 6 2 7 3 5 5 4 6 3 7 2 8 1 9 9 10 10 11 11 12 12 13 13 14
REMARK SMILES IDX 21 15 14 16 18 17 15 18 16 19 19 20 20 21 17 22
REMARK H PARENT 7 4 17 23
REMARK Flexibility Score: inf
ROOT
ATOM      1  C   UNL     1      79.428  65.372  70.482  1.00  0.00     0.107 C 
ENDROOT
BRANCH   1   2
ATOM      2  C   UNL     1      79.461  64.358  69.336  1.00  0.00     0.121 C 
BRANCH   2   3
ATOM      3  O   UNL     1      80.432  63.351  69.609  1.00  0.00    -0.393 OA
ATOM      4  H   UNL     1      80.466  62.754  68.841  1.00  0.00     0.210 HD
ENDBRANCH   2   3
BRANCH   2   5
ATOM      5  C   UNL     1      78.102  63.694  69.082  1.00  0.00     0.032 C 
BRANCH   5   6
ATOM      6  C   UNL     1      77.076  64.679  68.510  1.00  0.00     0.003 C 
BRANCH   6   7
ATOM      7  C   UNL     1      75.923  63.993  67.771  1.00  0.00    -0.000 C 
BRANCH   7   8
ATOM      8  C   UNL     1      75.514  64.702  66.481  1.00  0.00    -0.003 C 
ATOM      9  C   UNL     1      75.939  66.162  66.493  1.00  0.00     0.004 C 
ENDBRANCH   7   8
ENDBRANCH   6   7
ENDBRANCH   5   6
ENDBRANCH   2   5
ENDBRANCH   1   2
BRANCH   1  10
ATOM     10  C   UNL     1      80.778  65.553  71.157  1.00  0.00     0.135 C 
ATOM     11  O   UNL     1      81.797  65.741  70.493  1.00  0.00    -0.300 OA
BRANCH  10  12
ATOM     12  C   UNL     1      80.788  65.535  72.677  1.00  0.00     0.080 C 
BRANCH  12  13
ATOM     13  C   UNL     1      81.025  66.908  73.308  1.00  0.00     0.043 C 
BRANCH  13  14
ATOM     14  C   UNL     1      82.476  67.165  73.639  1.00  0.00    -0.044 A 
ATOM     15  C   UNL     1      83.265  67.925  72.775  1.00  0.00     0.054 A 
ATOM     16  C   UNL     1      83.026  66.643  74.809  1.00  0.00     0.008 A 
ATOM     17  C   UNL     1      84.605  68.162  73.083  1.00  0.00     0.160 A 
ATOM     18  C   UNL     1      84.366  66.880  75.117  1.00  0.00     0.050 A 
ATOM     19  C   UNL     1      85.155  67.639  74.253  1.00  0.00     0.157 A 
BRANCH  17  20
ATOM     20  O   UNL     1      85.366  68.905  72.231  1.00  0.00    -0.493 OA
ATOM     21  C   UNL     1      85.193  70.320  72.275  1.00  0.00     0.278 C 
ENDBRANCH  17  20
BRANCH  19  22
ATOM     22  O   UNL     1      86.462  67.864  74.564  1.00  0.00    -0.504 OA
ATOM     23  H   UNL     1      87.003  67.142  74.201  1.00  0.00     0.293 HD
ENDBRANCH  19  22
ENDBRANCH  13  14
ENDBRANCH  12  13
ENDBRANCH  10  12
ENDBRANCH   1  10
TORSDOF 12
ENDMDL
MODEL 3
REMARK VINA RESULT:    -5.730     21.484     24.888
REMARK INTER + INTRA:         -10.318
REMARK INTER:                  -9.643
REMARK INTRA:                  -0.675
REMARK UNBOUND:                -0.902
REMARK SMILES CCCCC[C@H](O)CC(=O)CCc1ccc(O)c(OC)c1
REMARK SMILES IDX 8 1 6 2 7 3 5 5 4 6 3 7 2 8 1 9 9 10 10 11 11 12 12 13 13 14
REMARK SMILES IDX 21 15 14 16 18 17 15 18 16 19 19 20 20 21 17 22
REMARK H PARENT 7 4 17 23
REMARK Flexibility Score: inf
ROOT
ATOM      1  C   UNL     1      78.848  65.256  70.113  1.00  0.00     0.107 C 
ENDROOT
BRANCH   1   2
ATOM      2  C   UNL     1      79.086  64.329  68.919  1.00  0.00     0.121 C 
BRANCH   2   3
ATOM      3  O   UNL     1      79.146  62.975  69.361  1.00  0.00    -0.393 OA
ATOM      4  H   UNL     1      79.445  62.430  68.613  1.00  0.00     0.210 HD
ENDBRANCH   2   3
BRANCH   2   5
ATOM      5  C   UNL     1      78.010  64.459  67.834  1.00  0.00     0.032 C 
BRANCH   5   6
ATOM      6  C   UNL     1      76.714  65.073  68.379  1.00  0.00     0.003 C 
BRANCH   6   7
ATOM      7  C   UNL     1      75.556  64.073  68.459  1.00  0.00    -0.000 C 
BRANCH   7   8
ATOM      8  C   UNL     1      74.867  63.825  67.119  1.00  0.00    -0.003 C 
ATOM      9  C   UNL     1      74.627  65.127  66.370  1.00  0.00     0.004 C 
ENDBRANCH   7   8
ENDBRANCH   6   7
ENDBRANCH   5   6
ENDBRANCH   2   5
ENDBRANCH   1   2
BRANCH   1  10
ATOM     10  C   UNL     1      80.132  65.658  70.821  1.00  0.00     0.135 C 
ATOM     11  O   UNL     1      81.093  66.094  70.188  1.00  0.00    -0.300 OA
BRANCH  10  12
ATOM     12  C   UNL     1      80.143  65.535  72.337  1.00  0.00     0.080 C 
BRANCH  12  13
ATOM     13  C   UNL     1      80.990  66.600  73.034  1.00  0.00     0.043 C 
BRANCH  13  14
ATOM     14  C   UNL     1      82.294  66.061  73.573  1.00  0.00    -0.044 A 
ATOM     15  C   UNL     1      82.834  64.888  73.047  1.00  0.00     0.054 A 
ATOM     16  C   UNL     1      82.957  66.738  74.597  1.00  0.00     0.008 A 
ATOM     17  C   UNL     1      84.039  64.391  73.546  1.00  0.00     0.160 A 
ATOM     18  C   UNL     1      84.162  66.241  75.096  1.00  0.00     0.050 A 
ATOM     19  C   UNL     1      84.702  65.068  74.570  1.00  0.00     0.157 A 
BRANCH  17  20
ATOM     20  O   UNL     1      84.557  63.244  73.025  1.00  0.00    -0.493 OA
ATOM     21  C   UNL     1      85.321  63.364  71.826  1.00  0.00     0.278 C 
ENDBRANCH  17  20
BRANCH  19  22
ATOM     22  O   UNL     1      85.879  64.592  75.064  1.00  0.00    -0.504 OA
ATOM     23  H   UNL     1      85.781  64.434  76.019  1.00  0.00     0.293 HD
ENDBRANCH  19  22
ENDBRANCH  13  14
ENDBRANCH  12  13
ENDBRANCH  10  12
ENDBRANCH   1  10
TORSDOF 12
ENDMDL
MODEL 4
REMARK VINA RESULT:    -5.650      3.854      6.357
REMARK INTER + INTRA:         -10.186
REMARK INTER:                  -9.288
REMARK INTRA:                  -0.898
REMARK UNBOUND:                -0.902
REMARK SMILES CCCCC[C@H](O)CC(=O)CCc1ccc(O)c(OC)c1
REMARK SMILES IDX 8 1 6 2 7 3 5 5 4 6 3 7 2 8 1 9 9 10 10 11 11 12 12 13 13 14
REMARK SMILES IDX 21 15 14 16 18 17 15 18 16 19 19 20 20 21 17 22
REMARK H PARENT 7 4 17 23
REMARK Flexibility Score: inf
ROOT
ATOM      1  C   UNL     1      94.060  82.669  84.526  1.00  0.00     0.107 C 
ENDROOT
BRANCH   1   2
ATOM      2  C   UNL     1      92.923  82.660  85.551  1.00  0.00     0.121 C 
BRANCH   2   3
ATOM      3  O   UNL     1      92.161  83.860  85.437  1.00  0.00    -0.393 OA
ATOM      4  H   UNL     1      91.300  83.707  85.865  1.00  0.00     0.210 HD
ENDBRANCH   2   3
BRANCH   2   5
ATOM      5  C   UNL     1      91.989  81.453  85.402  1.00  0.00     0.032 C 
BRANCH   5   6
ATOM      6  C   UNL     1      90.999  81.629  84.244  1.00  0.00     0.003 C 
BRANCH   6   7
ATOM      7  C   UNL     1      89.533  81.546  84.681  1.00  0.00    -0.000 C 
BRANCH   7   8
ATOM      8  C   UNL     1      88.674  80.663  83.779  1.00  0.00    -0.003 C 
ATOM      9  C   UNL     1      88.251  79.388  84.492  1.00  0.00     0.004 C 
ENDBRANCH   7   8
ENDBRANCH   6   7
ENDBRANCH   5   6
ENDBRANCH   2   5
ENDBRANCH   1   2
BRANCH   1  10
ATOM     10  C   UNL     1      95.169  83.647  84.875  1.00  0.00     0.135 C 
ATOM     11  O   UNL     1      95.096  84.354  85.880  1.00  0.00    -0.300 OA
BRANCH  10  12
ATOM     12  C   UNL     1      96.376  83.669  83.950  1.00  0.00     0.080 C 
BRANCH  12  13
ATOM     13  C   UNL     1      96.031  84.003  82.497  1.00  0.00     0.043 C 
BRANCH  13  14
ATOM     14  C   UNL     1      96.567  82.989  81.514  1.00  0.00    -0.044 A 
ATOM     15  C   UNL     1      96.906  83.384  80.220  1.00  0.00     0.054 A 
ATOM     16  C   UNL     1      96.721  81.657  81.900  1.00  0.00     0.008 A 
ATOM     17  C   UNL     1      97.401  82.447  79.313  1.00  0.00     0.160 A 
ATOM     18  C   UNL     1      97.216  80.720  80.993  1.00  0.00     0.050 A 
ATOM     19  C   UNL     1      97.556  81.115  79.699  1.00  0.00     0.157 A 
BRANCH  17  20
ATOM     20  O   UNL     1      97.729  82.845  78.051  1.00  0.00    -0.493 OA
ATOM     21  C   UNL     1      96.881  83.811  77.435  1.00  0.00     0.278 C 
ENDBRANCH  17  20
BRANCH  19  22
ATOM     22  O   UNL     1      98.038  80.192  78.822  1.00  0.00    -0.504 OA
ATOM     23  H   UNL     1      97.516  80.230  78.002  1.00  0.00     0.293 HD
ENDBRANCH  19  22
ENDBRANCH  13  14
ENDBRANCH  12  13
ENDBRANCH  10  12
ENDBRANCH   1  10
TORSDOF 12
ENDMDL
MODEL 5
REMARK VINA RESULT:    -5.633      6.155      8.870
REMARK INTER + INTRA:         -10.158
REMARK INTER:                  -9.416
REMARK INTRA:                  -0.742
REMARK UNBOUND:                -0.902
REMARK SMILES CCCCC[C@H](O)CC(=O)CCc1ccc(O)c(OC)c1
REMARK SMILES IDX 8 1 6 2 7 3 5 5 4 6 3 7 2 8 1 9 9 10 10 11 11 12 12 13 13 14
REMARK SMILES IDX 21 15 14 16 18 17 15 18 16 19 19 20 20 21 17 22
REMARK H PARENT 7 4 17 23
REMARK Flexibility Score: inf
ROOT
ATOM      1  C   UNL     1      90.623  74.430  81.765  1.00  0.00     0.107 C 
ENDROOT
BRANCH   1   2
ATOM      2  C   UNL     1      89.754  73.275  81.261  1.00  0.00     0.121 C 
BRANCH   2   3
ATOM      3  O   UNL     1      88.414  73.443  81.717  1.00  0.00    -0.393 OA
ATOM      4  H   UNL     1      88.348  73.042  82.602  1.00  0.00     0.210 HD
ENDBRANCH   2   3
BRANCH   2   5
ATOM      5  C   UNL     1      89.754  73.147  79.733  1.00  0.00     0.032 C 
BRANCH   5   6
ATOM      6  C   UNL     1      89.859  71.687  79.277  1.00  0.00     0.003 C 
BRANCH   6   7
ATOM      7  C   UNL     1      88.500  70.985  79.175  1.00  0.00    -0.000 C 
BRANCH   7   8
ATOM      8  C   UNL     1      88.302  70.222  77.866  1.00  0.00    -0.003 C 
ATOM      9  C   UNL     1      89.335  70.628  76.826  1.00  0.00     0.004 C 
ENDBRANCH   7   8
ENDBRANCH   6   7
ENDBRANCH   5   6
ENDBRANCH   2   5
ENDBRANCH   1   2
BRANCH   1  10
ATOM     10  C   UNL     1      90.490  74.666  83.261  1.00  0.00     0.135 C 
ATOM     11  O   UNL     1      90.195  73.745  84.023  1.00  0.00    -0.300 OA
BRANCH  10  12
ATOM     12  C   UNL     1      90.782  76.073  83.758  1.00  0.00     0.080 C 
BRANCH  12  13
ATOM     13  C   UNL     1      89.556  76.794  84.322  1.00  0.00     0.043 C 
BRANCH  13  14
ATOM     14  C   UNL     1      89.659  78.298  84.229  1.00  0.00    -0.044 A 
ATOM     15  C   UNL     1      88.508  79.082  84.306  1.00  0.00     0.054 A 
ATOM     16  C   UNL     1      90.905  78.902  84.066  1.00  0.00     0.008 A 
ATOM     17  C   UNL     1      88.604  80.471  84.222  1.00  0.00     0.160 A 
ATOM     18  C   UNL     1      91.002  80.292  83.981  1.00  0.00     0.050 A 
ATOM     19  C   UNL     1      89.851  81.076  84.059  1.00  0.00     0.157 A 
BRANCH  17  20
ATOM     20  O   UNL     1      87.473  81.227  84.298  1.00  0.00    -0.493 OA
ATOM     21  C   UNL     1      86.799  81.510  83.073  1.00  0.00     0.278 C 
ENDBRANCH  17  20
BRANCH  19  22
ATOM     22  O   UNL     1      89.957  82.431  83.974  1.00  0.00    -0.504 OA
ATOM     23  H   UNL     1      90.882  82.665  83.784  1.00  0.00     0.293 HD
ENDBRANCH  19  22
ENDBRANCH  13  14
ENDBRANCH  12  13
ENDBRANCH  10  12
ENDBRANCH   1  10
TORSDOF 12
ENDMDL
MODEL 6
REMARK VINA RESULT:    -5.548      7.488     10.954
REMARK INTER + INTRA:         -10.019
REMARK INTER:                  -9.276
REMARK INTRA:                  -0.743
REMARK UNBOUND:                -0.902
REMARK SMILES CCCCC[C@H](O)CC(=O)CCc1ccc(O)c(OC)c1
REMARK SMILES IDX 8 1 6 2 7 3 5 5 4 6 3 7 2 8 1 9 9 10 10 11 11 12 12 13 13 14
REMARK SMILES IDX 21 15 14 16 18 17 15 18 16 19 19 20 20 21 17 22
REMARK H PARENT 7 4 17 23
REMARK Flexibility Score: inf
ROOT
ATOM      1  C   UNL     1      97.751  83.503  76.675  1.00  0.00     0.107 C 
ENDROOT
BRANCH   1   2
ATOM      2  C   UNL     1      96.968  84.274  75.610  1.00  0.00     0.121 C 
BRANCH   2   3
ATOM      3  O   UNL     1      96.657  85.580  76.089  1.00  0.00    -0.393 OA
ATOM      4  H   UNL     1      95.942  85.494  76.744  1.00  0.00     0.210 HD
ENDBRANCH   2   3
BRANCH   2   5
ATOM      5  C   UNL     1      97.721  84.391  74.279  1.00  0.00     0.032 C 
BRANCH   5   6
ATOM      6  C   UNL     1      97.538  83.147  73.401  1.00  0.00     0.003 C 
BRANCH   6   7
ATOM      7  C   UNL     1      98.792  82.777  72.603  1.00  0.00    -0.000 C 
BRANCH   7   8
ATOM      8  C   UNL     1      98.580  81.617  71.632  1.00  0.00    -0.003 C 
ATOM      9  C   UNL     1      99.633  81.614  70.534  1.00  0.00     0.004 C 
ENDBRANCH   7   8
ENDBRANCH   6   7
ENDBRANCH   5   6
ENDBRANCH   2   5
ENDBRANCH   1   2
BRANCH   1  10
ATOM     10  C   UNL     1      97.111  83.575  78.053  1.00  0.00     0.135 C 
ATOM     11  O   UNL     1      95.926  83.880  78.185  1.00  0.00    -0.300 OA
BRANCH  10  12
ATOM     12  C   UNL     1      97.996  83.210  79.235  1.00  0.00     0.080 C 
BRANCH  12  13
ATOM     13  C   UNL     1      97.562  81.931  79.955  1.00  0.00     0.043 C 
BRANCH  13  14
ATOM     14  C   UNL     1      96.949  82.193  81.309  1.00  0.00    -0.044 A 
ATOM     15  C   UNL     1      96.710  81.134  82.184  1.00  0.00     0.054 A 
ATOM     16  C   UNL     1      96.621  83.496  81.686  1.00  0.00     0.008 A 
ATOM     17  C   UNL     1      96.144  81.377  83.436  1.00  0.00     0.160 A 
ATOM     18  C   UNL     1      96.055  83.740  82.937  1.00  0.00     0.050 A 
ATOM     19  C   UNL     1      95.816  82.680  83.812  1.00  0.00     0.157 A 
BRANCH  17  20
ATOM     20  O   UNL     1      95.915  80.334  84.282  1.00  0.00    -0.493 OA
ATOM     21  C   UNL     1      95.613  79.073  83.688  1.00  0.00     0.278 C 
ENDBRANCH  17  20
BRANCH  19  22
ATOM     22  O   UNL     1      95.263  82.930  85.031  1.00  0.00    -0.504 OA
ATOM     23  H   UNL     1      95.972  83.145  85.663  1.00  0.00     0.293 HD
ENDBRANCH  19  22
ENDBRANCH  13  14
ENDBRANCH  12  13
ENDBRANCH  10  12
ENDBRANCH   1  10
TORSDOF 12
ENDMDL
MODEL 7
REMARK VINA RESULT:    -5.462      2.679      7.126
REMARK INTER + INTRA:          -9.877
REMARK INTER:                  -8.273
REMARK INTRA:                  -1.604
REMARK UNBOUND:                -0.902
REMARK SMILES CCCCC[C@H](O)CC(=O)CCc1ccc(O)c(OC)c1
REMARK SMILES IDX 8 1 6 2 7 3 5 5 4 6 3 7 2 8 1 9 9 10 10 11 11 12 12 13 13 14
REMARK SMILES IDX 21 15 14 16 18 17 15 18 16 19 19 20 20 21 17 22
REMARK H PARENT 7 4 17 23
REMARK Flexibility Score: inf
ROOT
ATOM      1  C   UNL     1      94.899  80.439  83.993  1.00  0.00     0.107 C 
ENDROOT
BRANCH   1   2
ATOM      2  C   UNL     1      95.546  79.389  84.900  1.00  0.00     0.121 C 
BRANCH   2   3
ATOM      3  O   UNL     1      95.992  80.001  86.108  1.00  0.00    -0.393 OA
ATOM      4  H   UNL     1      95.354  80.698  86.340  1.00  0.00     0.210 HD
ENDBRANCH   2   3
BRANCH   2   5
ATOM      5  C   UNL     1      94.604  78.227  85.240  1.00  0.00     0.032 C 
BRANCH   5   6
ATOM      6  C   UNL     1      93.801  77.761  84.020  1.00  0.00     0.003 C 
BRANCH   6   7
ATOM      7  C   UNL     1      92.551  76.954  84.390  1.00  0.00    -0.000 C 
BRANCH   7   8
ATOM      8  C   UNL     1      91.763  76.457  83.179  1.00  0.00    -0.003 C 
ATOM      9  C   UNL     1      90.464  75.788  83.600  1.00  0.00     0.004 C 
ENDBRANCH   7   8
ENDBRANCH   6   7
ENDBRANCH   5   6
ENDBRANCH   2   5
ENDBRANCH   1   2
BRANCH   1  10
ATOM     10  C   UNL     1      94.499  81.702  84.737  1.00  0.00     0.135 C 
ATOM     11  O   UNL     1      95.222  82.698  84.727  1.00  0.00    -0.300 OA
BRANCH  10  12
ATOM     12  C   UNL     1      93.152  81.680  85.444  1.00  0.00     0.080 C 
BRANCH  12  13
ATOM     13  C   UNL     1      92.055  82.445  84.701  1.00  0.00     0.043 C 
BRANCH  13  14
ATOM     14  C   UNL     1      90.811  81.621  84.471  1.00  0.00    -0.044 A 
ATOM     15  C   UNL     1      89.552  82.208  84.595  1.00  0.00     0.054 A 
ATOM     16  C   UNL     1      90.921  80.272  84.133  1.00  0.00     0.008 A 
ATOM     17  C   UNL     1      88.403  81.446  84.381  1.00  0.00     0.160 A 
ATOM     18  C   UNL     1      89.773  79.510  83.919  1.00  0.00     0.050 A 
ATOM     19  C   UNL     1      88.514  80.097  84.043  1.00  0.00     0.157 A 
BRANCH  17  20
ATOM     20  O   UNL     1      87.179  82.030  84.506  1.00  0.00    -0.493 OA
ATOM     21  C   UNL     1      86.894  83.130  83.643  1.00  0.00     0.278 C 
ENDBRANCH  17  20
BRANCH  19  22
ATOM     22  O   UNL     1      87.399  79.343  83.832  1.00  0.00    -0.504 OA
ATOM     23  H   UNL     1      86.915  79.700  83.068  1.00  0.00     0.293 HD
ENDBRANCH  19  22
ENDBRANCH  13  14
ENDBRANCH  12  13
ENDBRANCH  10  12
ENDBRANCH   1  10
TORSDOF 12
ENDMDL
MODEL 8
REMARK VINA RESULT:    -5.279      8.630     12.439
REMARK INTER + INTRA:          -9.576
REMARK INTER:                  -8.495
REMARK INTRA:                  -1.082
REMARK UNBOUND:                -0.902
REMARK SMILES CCCCC[C@H](O)CC(=O)CCc1ccc(O)c(OC)c1
REMARK SMILES IDX 8 1 6 2 7 3 5 5 4 6 3 7 2 8 1 9 9 10 10 11 11 12 12 13 13 14
REMARK SMILES IDX 21 15 14 16 18 17 15 18 16 19 19 20 20 21 17 22
REMARK H PARENT 7 4 17 23
REMARK Flexibility Score: inf
ROOT
ATOM      1  C   UNL     1      98.371  83.163  74.141  1.00  0.00     0.107 C 
ENDROOT
BRANCH   1   2
ATOM      2  C   UNL     1      98.302  84.612  73.653  1.00  0.00     0.121 C 
BRANCH   2   3
ATOM      3  O   UNL     1      98.518  85.501  74.747  1.00  0.00    -0.393 OA
ATOM      4  H   UNL     1      99.176  86.161  74.469  1.00  0.00     0.210 HD
ENDBRANCH   2   3
BRANCH   2   5
ATOM      5  C   UNL     1      99.315  84.921  72.544  1.00  0.00     0.032 C 
BRANCH   5   6
ATOM      6  C   UNL     1     100.467  85.801  73.045  1.00  0.00     0.003 C 
BRANCH   6   7
ATOM      7  C   UNL     1     101.758  85.019  73.308  1.00  0.00    -0.000 C 
BRANCH   7   8
ATOM      8  C   UNL     1     102.277  85.157  74.738  1.00  0.00    -0.003 C 
ATOM      9  C   UNL     1     103.037  86.461  74.929  1.00  0.00     0.004 C 
ENDBRANCH   7   8
ENDBRANCH   6   7
ENDBRANCH   5   6
ENDBRANCH   2   5
ENDBRANCH   1   2
BRANCH   1  10
ATOM     10  C   UNL     1      98.631  83.048  75.634  1.00  0.00     0.135 C 
ATOM     11  O   UNL     1      99.762  83.203  76.094  1.00  0.00    -0.300 OA
BRANCH  10  12
ATOM     12  C   UNL     1      97.422  82.782  76.518  1.00  0.00     0.080 C 
BRANCH  12  13
ATOM     13  C   UNL     1      97.414  83.598  77.812  1.00  0.00     0.043 C 
BRANCH  13  14
ATOM     14  C   UNL     1      97.418  82.738  79.054  1.00  0.00    -0.044 A 
ATOM     15  C   UNL     1      97.182  83.314  80.302  1.00  0.00     0.054 A 
ATOM     16  C   UNL     1      97.659  81.367  78.951  1.00  0.00     0.008 A 
ATOM     17  C   UNL     1      97.185  82.519  81.448  1.00  0.00     0.160 A 
ATOM     18  C   UNL     1      97.662  80.572  80.098  1.00  0.00     0.050 A 
ATOM     19  C   UNL     1      97.426  81.148  81.346  1.00  0.00     0.157 A 
BRANCH  17  20
ATOM     20  O   UNL     1      96.954  83.093  82.662  1.00  0.00    -0.493 OA
ATOM     21  C   UNL     1      95.926  84.080  82.726  1.00  0.00     0.278 C 
ENDBRANCH  17  20
BRANCH  19  22
ATOM     22  O   UNL     1      97.431  80.362  82.458  1.00  0.00    -0.504 OA
ATOM     23  H   UNL     1      97.771  80.878  83.209  1.00  0.00     0.293 HD
ENDBRANCH  19  22
ENDBRANCH  13  14
ENDBRANCH  12  13
ENDBRANCH  10  12
ENDBRANCH   1  10
TORSDOF 12
ENDMDL
MODEL 9
REMARK VINA RESULT:    -5.254     12.378     14.658
REMARK INTER + INTRA:          -9.535
REMARK INTER:                  -7.245
REMARK INTRA:                  -2.290
REMARK UNBOUND:                -0.902
REMARK SMILES CCCCC[C@H](O)CC(=O)CCc1ccc(O)c(OC)c1
REMARK SMILES IDX 8 1 6 2 7 3 5 5 4 6 3 7 2 8 1 9 9 10 10 11 11 12 12 13 13 14
REMARK SMILES IDX 21 15 14 16 18 17 15 18 16 19 19 20 20 21 17 22
REMARK H PARENT 7 4 17 23
REMARK Flexibility Score: inf
ROOT
ATOM      1  C   UNL     1      77.552  72.952  84.315  1.00  0.00     0.107 C 
ENDROOT
BRANCH   1   2
ATOM      2  C   UNL     1      77.806  71.923  85.419  1.00  0.00     0.121 C 
BRANCH   2   3
ATOM      3  O   UNL     1      78.893  71.076  85.050  1.00  0.00    -0.393 OA
ATOM      4  H   UNL     1      79.066  70.473  85.793  1.00  0.00     0.210 HD
ENDBRANCH   2   3
BRANCH   2   5
ATOM      5  C   UNL     1      78.105  72.563  86.780  1.00  0.00     0.032 C 
BRANCH   5   6
ATOM      6  C   UNL     1      79.202  71.810  87.543  1.00  0.00     0.003 C 
BRANCH   6   7
ATOM      7  C   UNL     1      79.714  72.566  88.773  1.00  0.00    -0.000 C 
BRANCH   7   8
ATOM      8  C   UNL     1      78.637  73.389  89.478  1.00  0.00    -0.003 C 
ATOM      9  C   UNL     1      79.244  74.539  90.266  1.00  0.00     0.004 C 
ENDBRANCH   7   8
ENDBRANCH   6   7
ENDBRANCH   5   6
ENDBRANCH   2   5
ENDBRANCH   1   2
BRANCH   1  10
ATOM     10  C   UNL     1      78.664  73.003  83.280  1.00  0.00     0.135 C 
ATOM     11  O   UNL     1      78.786  72.112  82.439  1.00  0.00    -0.300 OA
BRANCH  10  12
ATOM     12  C   UNL     1      79.573  74.222  83.314  1.00  0.00     0.080 C 
BRANCH  12  13
ATOM     13  C   UNL     1      79.265  75.187  84.461  1.00  0.00     0.043 C 
BRANCH  13  14
ATOM     14  C   UNL     1      80.311  75.166  85.550  1.00  0.00    -0.044 A 
ATOM     15  C   UNL     1      81.314  74.197  85.535  1.00  0.00     0.054 A 
ATOM     16  C   UNL     1      80.274  76.117  86.570  1.00  0.00     0.008 A 
ATOM     17  C   UNL     1      82.280  74.180  86.541  1.00  0.00     0.160 A 
ATOM     18  C   UNL     1      81.240  76.099  87.576  1.00  0.00     0.050 A 
ATOM     19  C   UNL     1      82.243  75.130  87.561  1.00  0.00     0.157 A 
BRANCH  17  20
ATOM     20  O   UNL     1      83.255  73.228  86.517  1.00  0.00    -0.493 OA
ATOM     21  C   UNL     1      82.938  71.960  87.089  1.00  0.00     0.278 C 
ENDBRANCH  17  20
BRANCH  19  22
ATOM     22  O   UNL     1      83.181  75.123  88.549  1.00  0.00    -0.504 OA
ATOM     23  H   UNL     1      84.059  75.265  88.153  1.00  0.00     0.293 HD
ENDBRANCH  19  22
ENDBRANCH  13  14
ENDBRANCH  12  13
ENDBRANCH  10  12
ENDBRANCH   1  10
TORSDOF 12
ENDMDL
MODEL 10
REMARK VINA RESULT:    -5.186      4.221      7.112
REMARK INTER + INTRA:          -9.423
REMARK INTER:                  -8.274
REMARK INTRA:                  -1.149
REMARK UNBOUND:                -0.902
REMARK SMILES CCCCC[C@H](O)CC(=O)CCc1ccc(O)c(OC)c1
REMARK SMILES IDX 8 1 6 2 7 3 5 5 4 6 3 7 2 8 1 9 9 10 10 11 11 12 12 13 13 14
REMARK SMILES IDX 21 15 14 16 18 17 15 18 16 19 19 20 20 21 17 22
REMARK H PARENT 7 4 17 23
REMARK Flexibility Score: inf
ROOT
ATOM      1  C   UNL     1      95.321  82.127  85.260  1.00  0.00     0.107 C 
ENDROOT
BRANCH   1   2
ATOM      2  C   UNL     1      94.351  83.291  85.042  1.00  0.00     0.121 C 
BRANCH   2   3
ATOM      3  O   UNL     1      94.788  84.084  83.940  1.00  0.00    -0.393 OA
ATOM      4  H   UNL     1      95.738  83.919  83.814  1.00  0.00     0.210 HD
ENDBRANCH   2   3
BRANCH   2   5
ATOM      5  C   UNL     1      92.909  82.831  84.793  1.00  0.00     0.032 C 
BRANCH   5   6
ATOM      6  C   UNL     1      92.819  81.319  84.555  1.00  0.00     0.003 C 
BRANCH   6   7
ATOM      7  C   UNL     1      91.427  80.743  84.838  1.00  0.00    -0.000 C 
BRANCH   7   8
ATOM      8  C   UNL     1      90.526  80.685  83.606  1.00  0.00    -0.003 C 
ATOM      9  C   UNL     1      89.129  80.201  83.963  1.00  0.00     0.004 C 
ENDBRANCH   7   8
ENDBRANCH   6   7
ENDBRANCH   5   6
ENDBRANCH   2   5
ENDBRANCH   1   2
BRANCH   1  10
ATOM     10  C   UNL     1      96.751  82.463  84.871  1.00  0.00     0.135 C 
ATOM     11  O   UNL     1      97.320  83.448  85.342  1.00  0.00    -0.300 OA
BRANCH  10  12
ATOM     12  C   UNL     1      97.443  81.501  83.918  1.00  0.00     0.080 C 
BRANCH  12  13
ATOM     13  C   UNL     1      96.563  81.053  82.750  1.00  0.00     0.043 C 
BRANCH  13  14
ATOM     14  C   UNL     1      96.987  81.647  81.427  1.00  0.00    -0.044 A 
ATOM     15  C   UNL     1      97.646  80.856  80.486  1.00  0.00     0.054 A 
ATOM     16  C   UNL     1      96.720  82.987  81.147  1.00  0.00     0.008 A 
ATOM     17  C   UNL     1      98.037  81.405  79.265  1.00  0.00     0.160 A 
ATOM     18  C   UNL     1      97.110  83.537  79.926  1.00  0.00     0.050 A 
ATOM     19  C   UNL     1      97.769  82.745  78.985  1.00  0.00     0.157 A 
BRANCH  17  20
ATOM     20  O   UNL     1      98.680  80.623  78.354  1.00  0.00    -0.493 OA
ATOM     21  C   UNL     1      97.922  79.578  77.746  1.00  0.00     0.278 C 
ENDBRANCH  17  20
BRANCH  19  22
ATOM     22  O   UNL     1      98.146  83.293  77.796  1.00  0.00    -0.504 OA
ATOM     23  H   UNL     1      98.123  82.605  77.109  1.00  0.00     0.293 HD
ENDBRANCH  19  22
ENDBRANCH  13  14
ENDBRANCH  12  13
ENDBRANCH  10  12
ENDBRANCH   1  10
TORSDOF 12
ENDMDL
