MODEL 1
REMARK VINA RESULT:    -6.409      0.000      0.000
REMARK INTER + INTRA:         -10.921
REMARK INTER:                 -10.343
REMARK INTRA:                  -0.578
REMARK UNBOUND:                -0.578
REMARK SMILES COc1cc(CNC(=O)CCCCCCC(C)C)ccc1O
REMARK SMILES IDX 11 1 10 2 8 3 7 4 9 6 6 7 5 8 3 9 21 10 4 11 20 12 19 13
REMARK SMILES IDX 2 14 1 15 22 16 12 18 13 19 14 20 15 21 16 22 17 23 18 24
REMARK H PARENT 7 5 22 17
REMARK Flexibility Score: inf
ROOT
ATOM      1  C   UNL     1      96.496  82.725  82.357  1.00  0.00     0.010 C 
ENDROOT
BRANCH   1   2
ATOM      2  C   UNL     1      96.209  83.918  83.310  1.00  0.00     0.100 C 
BRANCH   2   3
ATOM      3  C   UNL     1      95.267  83.581  84.401  1.00  0.00     0.220 C 
ATOM      4  N   UNL     1      93.989  83.200  84.115  1.00  0.00    -0.352 N 
ATOM      5  H   UNL     1      93.754  83.217  83.133  1.00  0.00     0.163 HD
ATOM      6  O   UNL     1      95.677  83.630  85.587  1.00  0.00    -0.275 OA
BRANCH   4   7
ATOM      7  C   UNL     1      93.011  82.797  85.079  1.00  0.00     0.151 C 
BRANCH   7   8
ATOM      8  C   UNL     1      92.413  81.466  84.787  1.00  0.00    -0.025 A 
ATOM      9  C   UNL     1      90.472  80.097  84.149  1.00  0.00     0.160 A 
ATOM     10  C   UNL     1      91.275  78.936  84.185  1.00  0.00     0.157 A 
ATOM     11  C   UNL     1      91.041  81.348  84.467  1.00  0.00     0.056 A 
ATOM     12  C   UNL     1      92.633  79.036  84.540  1.00  0.00     0.050 A 
ATOM     13  C   UNL     1      93.201  80.292  84.829  1.00  0.00     0.009 A 
BRANCH   9  14
ATOM     14  O   UNL     1      89.141  80.006  83.843  1.00  0.00    -0.493 OA
ATOM     15  C   UNL     1      88.383  81.176  84.202  1.00  0.00     0.278 C 
ENDBRANCH   9  14
BRANCH  10  16
ATOM     16  O   UNL     1      90.753  77.718  83.884  1.00  0.00    -0.504 OA
ATOM     17  H   UNL     1      91.250  77.036  84.343  1.00  0.00     0.293 HD
ENDBRANCH  10  16
ENDBRANCH   7   8
ENDBRANCH   4   7
ENDBRANCH   2   3
ENDBRANCH   1   2
BRANCH   1  18
ATOM     18  C   UNL     1      96.918  83.198  80.936  1.00  0.00     0.001 C 
BRANCH  18  19
ATOM     19  C   UNL     1      97.426  82.050  80.019  1.00  0.00     0.000 C 
BRANCH  19  20
ATOM     20  C   UNL     1      97.960  82.594  78.664  1.00  0.00     0.000 C 
BRANCH  20  21
ATOM     21  C   UNL     1      96.996  83.582  77.950  1.00  0.00     0.003 C 
BRANCH  21  22
ATOM     22  C   UNL     1      97.226  83.714  76.408  1.00  0.00    -0.017 C 
ATOM     23  C   UNL     1      98.742  83.628  76.075  1.00  0.00     0.007 C 
ATOM     24  C   UNL     1      96.604  85.001  75.792  1.00  0.00     0.007 C 
ENDBRANCH  21  22
ENDBRANCH  20  21
ENDBRANCH  19  20
ENDBRANCH  18  19
ENDBRANCH   1  18
TORSDOF 11
ENDMDL
MODEL 2
REMARK VINA RESULT:    -5.870      2.399      4.603
REMARK INTER + INTRA:         -10.052
REMARK INTER:                  -9.369
REMARK INTRA:                  -0.682
REMARK UNBOUND:                -0.578
REMARK SMILES COc1cc(CNC(=O)CCCCCCC(C)C)ccc1O
REMARK SMILES IDX 11 1 10 2 8 3 7 4 9 6 6 7 5 8 3 9 21 10 4 11 20 12 19 13
REMARK SMILES IDX 2 14 1 15 22 16 12 18 13 19 14 20 15 21 16 22 17 23 18 24
REMARK H PARENT 7 5 22 17
REMARK Flexibility Score: inf
ROOT
ATOM      1  C   UNL     1      97.013  83.140  79.307  1.00  0.00     0.010 C 
ENDROOT
BRANCH   1   2
ATOM      2  C   UNL     1      97.533  81.744  79.748  1.00  0.00     0.100 C 
BRANCH   2   3
ATOM      3  C   UNL     1      97.287  81.453  81.178  1.00  0.00     0.220 C 
ATOM      4  N   UNL     1      97.678  82.339  82.139  1.00  0.00    -0.352 N 
ATOM      5  H   UNL     1      98.168  83.149  81.790  1.00  0.00     0.163 HD
ATOM      6  O   UNL     1      96.691  80.390  81.482  1.00  0.00    -0.275 OA
BRANCH   4   7
ATOM      7  C   UNL     1      97.442  82.192  83.543  1.00  0.00     0.151 C 
BRANCH   7   8
ATOM      8  C   UNL     1      96.248  82.943  84.019  1.00  0.00    -0.025 A 
ATOM      9  C   UNL     1      93.902  82.965  84.757  1.00  0.00     0.160 A 
ATOM     10  C   UNL     1      93.980  84.359  84.969  1.00  0.00     0.157 A 
ATOM     11  C   UNL     1      95.028  82.272  84.266  1.00  0.00     0.056 A 
ATOM     12  C   UNL     1      95.176  85.044  84.690  1.00  0.00     0.050 A 
ATOM     13  C   UNL     1      96.306  84.341  84.229  1.00  0.00     0.009 A 
BRANCH   9  14
ATOM     14  O   UNL     1      92.731  82.296  84.988  1.00  0.00    -0.493 OA
ATOM     15  C   UNL     1      92.778  80.903  84.626  1.00  0.00     0.278 C 
ENDBRANCH   9  14
BRANCH  10  16
ATOM     16  O   UNL     1      92.910  85.052  85.439  1.00  0.00    -0.504 OA
ATOM     17  H   UNL     1      92.300  85.226  84.718  1.00  0.00     0.293 HD
ENDBRANCH  10  16
ENDBRANCH   7   8
ENDBRANCH   4   7
ENDBRANCH   2   3
ENDBRANCH   1   2
BRANCH   1  18
ATOM     18  C   UNL     1      97.569  83.561  77.917  1.00  0.00     0.001 C 
BRANCH  18  19
ATOM     19  C   UNL     1      96.484  84.114  76.950  1.00  0.00     0.000 C 
BRANCH  19  20
ATOM     20  C   UNL     1      97.062  84.372  75.530  1.00  0.00     0.000 C 
BRANCH  20  21
ATOM     21  C   UNL     1      98.577  84.055  75.391  1.00  0.00     0.003 C 
BRANCH  21  22
ATOM     22  C   UNL     1      99.340  84.961  74.371  1.00  0.00    -0.017 C 
ATOM     23  C   UNL     1      98.918  84.615  72.915  1.00  0.00     0.007 C 
ATOM     24  C   UNL     1     100.889  84.901  74.518  1.00  0.00     0.007 C 
ENDBRANCH  21  22
ENDBRANCH  20  21
ENDBRANCH  19  20
ENDBRANCH  18  19
ENDBRANCH   1  18
TORSDOF 11
ENDMDL
MODEL 3
REMARK VINA RESULT:    -5.710     10.916     13.871
REMARK INTER + INTRA:          -9.793
REMARK INTER:                  -8.624
REMARK INTRA:                  -1.169
REMARK UNBOUND:                -0.578
REMARK SMILES COc1cc(CNC(=O)CCCCCCC(C)C)ccc1O
REMARK SMILES IDX 11 1 10 2 8 3 7 4 9 6 6 7 5 8 3 9 21 10 4 11 20 12 19 13
REMARK SMILES IDX 2 14 1 15 22 16 12 18 13 19 14 20 15 21 16 22 17 23 18 24
REMARK H PARENT 7 5 22 17
REMARK Flexibility Score: inf
ROOT
ATOM      1  C   UNL     1      95.633  93.936  92.214  1.00  0.00     0.010 C 
ENDROOT
BRANCH   1   2
ATOM      2  C   UNL     1      96.013  93.731  90.722  1.00  0.00     0.100 C 
BRANCH   2   3
ATOM      3  C   UNL     1      94.917  93.152  89.913  1.00  0.00     0.220 C 
ATOM      4  N   UNL     1      94.260  92.036  90.341  1.00  0.00    -0.352 N 
ATOM      5  H   UNL     1      94.615  91.641  91.200  1.00  0.00     0.163 HD
ATOM      6  O   UNL     1      94.592  93.724  88.844  1.00  0.00    -0.275 OA
BRANCH   4   7
ATOM      7  C   UNL     1      93.151  91.423  89.675  1.00  0.00     0.151 C 
BRANCH   7   8
ATOM      8  C   UNL     1      93.545  90.277  88.811  1.00  0.00    -0.025 A 
ATOM      9  C   UNL     1      93.354  87.900  88.207  1.00  0.00     0.160 A 
ATOM     10  C   UNL     1      94.259  88.096  87.141  1.00  0.00     0.157 A 
ATOM     11  C   UNL     1      93.019  88.986  89.044  1.00  0.00     0.056 A 
ATOM     12  C   UNL     1      94.820  89.367  86.923  1.00  0.00     0.050 A 
ATOM     13  C   UNL     1      94.458  90.453  87.745  1.00  0.00     0.009 A 
BRANCH   9  14
ATOM     14  O   UNL     1      92.833  86.659  88.452  1.00  0.00    -0.493 OA
ATOM     15  C   UNL     1      93.471  85.967  89.541  1.00  0.00     0.278 C 
ENDBRANCH   9  14
BRANCH  10  16
ATOM     16  O   UNL     1      94.600  87.068  86.321  1.00  0.00    -0.504 OA
ATOM     17  H   UNL     1      95.194  87.389  85.637  1.00  0.00     0.293 HD
ENDBRANCH  10  16
ENDBRANCH   7   8
ENDBRANCH   4   7
ENDBRANCH   2   3
ENDBRANCH   1   2
BRANCH   1  18
ATOM     18  C   UNL     1      94.907  95.290  92.455  1.00  0.00     0.001 C 
BRANCH  18  19
ATOM     19  C   UNL     1      95.500  96.472  91.639  1.00  0.00     0.000 C 
BRANCH  19  20
ATOM     20  C   UNL     1      94.383  97.354  91.013  1.00  0.00     0.000 C 
BRANCH  20  21
ATOM     21  C   UNL     1      93.476  96.607  89.996  1.00  0.00     0.003 C 
BRANCH  21  22
ATOM     22  C   UNL     1      91.963  96.560  90.386  1.00  0.00    -0.017 C 
ATOM     23  C   UNL     1      91.744  97.180  91.795  1.00  0.00     0.007 C 
ATOM     24  C   UNL     1      91.343  95.133  90.317  1.00  0.00     0.007 C 
ENDBRANCH  21  22
ENDBRANCH  20  21
ENDBRANCH  19  20
ENDBRANCH  18  19
ENDBRANCH   1  18
TORSDOF 11
ENDMDL
MODEL 4
REMARK VINA RESULT:    -5.528     41.684     43.935
REMARK INTER + INTRA:          -9.499
REMARK INTER:                  -9.025
REMARK INTRA:                  -0.474
REMARK UNBOUND:                -0.578
REMARK SMILES COc1cc(CNC(=O)CCCCCCC(C)C)ccc1O
REMARK SMILES IDX 11 1 10 2 8 3 7 4 9 6 6 7 5 8 3 9 21 10 4 11 20 12 19 13
REMARK SMILES IDX 2 14 1 15 22 16 12 18 13 19 14 20 15 21 16 22 17 23 18 24
REMARK H PARENT 7 5 22 17
REMARK Flexibility Score: inf
ROOT
ATOM      1  C   UNL     1      54.010  93.214  72.927  1.00  0.00     0.010 C 
ENDROOT
BRANCH   1   2
ATOM      2  C   UNL     1      54.535  93.584  71.512  1.00  0.00     0.100 C 
BRANCH   2   3
ATOM      3  C   UNL     1      55.394  92.536  70.915  1.00  0.00     0.220 C 
ATOM      4  N   UNL     1      55.104  92.028  69.682  1.00  0.00    -0.352 N 
ATOM      5  H   UNL     1      54.259  92.391  69.265  1.00  0.00     0.163 HD
ATOM      6  O   UNL     1      56.401  92.147  71.554  1.00  0.00    -0.275 OA
BRANCH   4   7
ATOM      7  C   UNL     1      55.890  91.058  68.982  1.00  0.00     0.151 C 
BRANCH   7   8
ATOM      8  C   UNL     1      55.265  90.603  67.710  1.00  0.00    -0.025 A 
ATOM      9  C   UNL     1      53.889  91.072  65.727  1.00  0.00     0.160 A 
ATOM     10  C   UNL     1      54.106  89.757  65.262  1.00  0.00     0.157 A 
ATOM     11  C   UNL     1      54.453  91.479  66.954  1.00  0.00     0.056 A 
ATOM     12  C   UNL     1      54.880  88.864  66.025  1.00  0.00     0.050 A 
ATOM     13  C   UNL     1      55.465  89.285  67.235  1.00  0.00     0.009 A 
BRANCH   9  14
ATOM     14  O   UNL     1      53.105  91.936  65.012  1.00  0.00    -0.493 OA
ATOM     15  C   UNL     1      52.432  92.915  65.824  1.00  0.00     0.278 C 
ENDBRANCH   9  14
BRANCH  10  16
ATOM     16  O   UNL     1      53.574  89.337  64.084  1.00  0.00    -0.504 OA
ATOM     17  H   UNL     1      54.281  89.156  63.460  1.00  0.00     0.293 HD
ENDBRANCH  10  16
ENDBRANCH   7   8
ENDBRANCH   4   7
ENDBRANCH   2   3
ENDBRANCH   1   2
BRANCH   1  18
ATOM     18  C   UNL     1      52.456  93.204  72.992  1.00  0.00     0.001 C 
BRANCH  18  19
ATOM     19  C   UNL     1      51.890  92.972  74.421  1.00  0.00     0.000 C 
BRANCH  19  20
ATOM     20  C   UNL     1      52.271  91.567  74.966  1.00  0.00     0.000 C 
BRANCH  20  21
ATOM     21  C   UNL     1      51.518  91.160  76.263  1.00  0.00     0.003 C 
BRANCH  21  22
ATOM     22  C   UNL     1      52.081  89.883  76.968  1.00  0.00    -0.017 C 
ATOM     23  C   UNL     1      50.956  88.828  77.162  1.00  0.00     0.007 C 
ATOM     24  C   UNL     1      52.791  90.178  78.322  1.00  0.00     0.007 C 
ENDBRANCH  21  22
ENDBRANCH  20  21
ENDBRANCH  19  20
ENDBRANCH  18  19
ENDBRANCH   1  18
TORSDOF 11
ENDMDL
MODEL 5
REMARK VINA RESULT:    -5.524      6.755     11.085
REMARK INTER + INTRA:          -9.492
REMARK INTER:                  -8.087
REMARK INTRA:                  -1.404
REMARK UNBOUND:                -0.578
REMARK SMILES COc1cc(CNC(=O)CCCCCCC(C)C)ccc1O
REMARK SMILES IDX 11 1 10 2 8 3 7 4 9 6 6 7 5 8 3 9 21 10 4 11 20 12 19 13
REMARK SMILES IDX 2 14 1 15 22 16 12 18 13 19 14 20 15 21 16 22 17 23 18 24
REMARK H PARENT 7 5 22 17
REMARK Flexibility Score: inf
ROOT
ATOM      1  C   UNL     1      97.191  83.455  79.237  1.00  0.00     0.010 C 
ENDROOT
BRANCH   1   2
ATOM      2  C   UNL     1      97.029  82.840  77.820  1.00  0.00     0.100 C 
BRANCH   2   3
ATOM      3  C   UNL     1      96.852  83.856  76.758  1.00  0.00     0.220 C 
ATOM      4  N   UNL     1      97.580  83.784  75.606  1.00  0.00    -0.352 N 
ATOM      5  H   UNL     1      98.250  83.029  75.578  1.00  0.00     0.163 HD
ATOM      6  O   UNL     1      96.004  84.766  76.931  1.00  0.00    -0.275 OA
BRANCH   4   7
ATOM      7  C   UNL     1      97.453  84.673  74.491  1.00  0.00     0.151 C 
BRANCH   7   8
ATOM      8  C   UNL     1      98.502  84.467  73.455  1.00  0.00    -0.025 A 
ATOM      9  C   UNL     1      99.648  83.002  71.846  1.00  0.00     0.160 A 
ATOM     10  C   UNL     1     100.470  84.079  71.448  1.00  0.00     0.157 A 
ATOM     11  C   UNL     1      98.685  83.199  72.858  1.00  0.00     0.056 A 
ATOM     12  C   UNL     1     100.324  85.336  72.062  1.00  0.00     0.050 A 
ATOM     13  C   UNL     1      99.340  85.533  73.051  1.00  0.00     0.009 A 
BRANCH   9  14
ATOM     14  O   UNL     1      99.809  81.766  71.283  1.00  0.00    -0.493 OA
ATOM     15  C   UNL     1      99.131  80.713  71.993  1.00  0.00     0.278 C 
ENDBRANCH   9  14
BRANCH  10  16
ATOM     16  O   UNL     1     101.407  83.918  70.477  1.00  0.00    -0.504 OA
ATOM     17  H   UNL     1     101.697  84.779  70.167  1.00  0.00     0.293 HD
ENDBRANCH  10  16
ENDBRANCH   7   8
ENDBRANCH   4   7
ENDBRANCH   2   3
ENDBRANCH   1   2
BRANCH   1  18
ATOM     18  C   UNL     1      98.267  82.712  80.079  1.00  0.00     0.001 C 
BRANCH  18  19
ATOM     19  C   UNL     1      98.131  81.164  80.045  1.00  0.00     0.000 C 
BRANCH  19  20
ATOM     20  C   UNL     1      99.452  80.483  79.587  1.00  0.00     0.000 C 
BRANCH  20  21
ATOM     21  C   UNL     1     100.388  81.404  78.756  1.00  0.00     0.003 C 
BRANCH  21  22
ATOM     22  C   UNL     1     100.496  81.026  77.243  1.00  0.00    -0.017 C 
ATOM     23  C   UNL     1     100.677  82.303  76.375  1.00  0.00     0.007 C 
ATOM     24  C   UNL     1      99.297  80.179  76.723  1.00  0.00     0.007 C 
ENDBRANCH  21  22
ENDBRANCH  20  21
ENDBRANCH  19  20
ENDBRANCH  18  19
ENDBRANCH   1  18
TORSDOF 11
ENDMDL
MODEL 6
REMARK VINA RESULT:    -5.161     24.427     28.398
REMARK INTER + INTRA:          -8.907
REMARK INTER:                  -8.063
REMARK INTRA:                  -0.844
REMARK UNBOUND:                -0.578
REMARK SMILES COc1cc(CNC(=O)CCCCCCC(C)C)ccc1O
REMARK SMILES IDX 11 1 10 2 8 3 7 4 9 6 6 7 5 8 3 9 21 10 4 11 20 12 19 13
REMARK SMILES IDX 2 14 1 15 22 16 12 18 13 19 14 20 15 21 16 22 17 23 18 24
REMARK H PARENT 7 5 22 17
REMARK Flexibility Score: inf
ROOT
ATOM      1  C   UNL     1      69.055  85.933  70.017  1.00  0.00     0.010 C 
ENDROOT
BRANCH   1   2
ATOM      2  C   UNL     1      70.028  84.724  70.070  1.00  0.00     0.100 C 
BRANCH   2   3
ATOM      3  C   UNL     1      70.604  84.378  68.750  1.00  0.00     0.220 C 
ATOM      4  N   UNL     1      71.425  85.256  68.106  1.00  0.00    -0.352 N 
ATOM      5  H   UNL     1      71.554  86.138  68.579  1.00  0.00     0.163 HD
ATOM      6  O   UNL     1      70.339  83.256  68.254  1.00  0.00    -0.275 OA
BRANCH   4   7
ATOM      7  C   UNL     1      72.083  85.008  66.859  1.00  0.00     0.151 C 
BRANCH   7   8
ATOM      8  C   UNL     1      73.557  84.844  66.995  1.00  0.00    -0.025 A 
ATOM      9  C   UNL     1      75.614  85.100  68.317  1.00  0.00     0.160 A 
ATOM     10  C   UNL     1      76.358  84.495  67.281  1.00  0.00     0.157 A 
ATOM     11  C   UNL     1      74.225  85.286  68.159  1.00  0.00     0.056 A 
ATOM     12  C   UNL     1      75.711  84.086  66.101  1.00  0.00     0.050 A 
ATOM     13  C   UNL     1      74.319  84.249  65.962  1.00  0.00     0.009 A 
BRANCH   9  14
ATOM     14  O   UNL     1      76.241  85.537  69.453  1.00  0.00    -0.493 OA
ATOM     15  C   UNL     1      76.051  84.674  70.589  1.00  0.00     0.278 C 
ENDBRANCH   9  14
BRANCH  10  16
ATOM     16  O   UNL     1      77.698  84.303  67.405  1.00  0.00    -0.504 OA
ATOM     17  H   UNL     1      77.873  83.377  67.585  1.00  0.00     0.293 HD
ENDBRANCH  10  16
ENDBRANCH   7   8
ENDBRANCH   4   7
ENDBRANCH   2   3
ENDBRANCH   1   2
BRANCH   1  18
ATOM     18  C   UNL     1      67.649  85.533  69.485  1.00  0.00     0.001 C 
BRANCH  18  19
ATOM     19  C   UNL     1      67.125  84.183  70.053  1.00  0.00     0.000 C 
BRANCH  19  20
ATOM     20  C   UNL     1      66.732  83.199  68.915  1.00  0.00     0.000 C 
BRANCH  20  21
ATOM     21  C   UNL     1      65.425  82.403  69.185  1.00  0.00     0.003 C 
BRANCH  21  22
ATOM     22  C   UNL     1      64.353  82.510  68.052  1.00  0.00    -0.017 C 
ATOM     23  C   UNL     1      63.393  81.288  68.094  1.00  0.00     0.007 C 
ATOM     24  C   UNL     1      64.962  82.677  66.629  1.00  0.00     0.007 C 
ENDBRANCH  21  22
ENDBRANCH  20  21
ENDBRANCH  19  20
ENDBRANCH  18  19
ENDBRANCH   1  18
TORSDOF 11
ENDMDL
MODEL 7
REMARK VINA RESULT:    -5.151      4.166      6.918
REMARK INTER + INTRA:          -8.890
REMARK INTER:                  -7.712
REMARK INTRA:                  -1.178
REMARK UNBOUND:                -0.578
REMARK SMILES COc1cc(CNC(=O)CCCCCCC(C)C)ccc1O
REMARK SMILES IDX 11 1 10 2 8 3 7 4 9 6 6 7 5 8 3 9 21 10 4 11 20 12 19 13
REMARK SMILES IDX 2 14 1 15 22 16 12 18 13 19 14 20 15 21 16 22 17 23 18 24
REMARK H PARENT 7 5 22 17
REMARK Flexibility Score: inf
ROOT
ATOM      1  C   UNL     1     100.272  81.041  76.774  1.00  0.00     0.010 C 
ENDROOT
BRANCH   1   2
ATOM      2  C   UNL     1      98.958  81.673  76.236  1.00  0.00     0.100 C 
BRANCH   2   3
ATOM      3  C   UNL     1      98.401  82.713  77.130  1.00  0.00     0.220 C 
ATOM      4  N   UNL     1      98.164  82.437  78.445  1.00  0.00    -0.352 N 
ATOM      5  H   UNL     1      98.357  81.484  78.717  1.00  0.00     0.163 HD
ATOM      6  O   UNL     1      98.176  83.854  76.658  1.00  0.00    -0.275 OA
BRANCH   4   7
ATOM      7  C   UNL     1      97.684  83.376  79.413  1.00  0.00     0.151 C 
BRANCH   7   8
ATOM      8  C   UNL     1      97.180  82.730  80.656  1.00  0.00    -0.025 A 
ATOM      9  C   UNL     1      96.160  82.912  82.887  1.00  0.00     0.160 A 
ATOM     10  C   UNL     1      96.177  81.506  83.012  1.00  0.00     0.157 A 
ATOM     11  C   UNL     1      96.678  83.514  81.721  1.00  0.00     0.056 A 
ATOM     12  C   UNL     1      96.710  80.717  81.976  1.00  0.00     0.050 A 
ATOM     13  C   UNL     1      97.198  81.323  80.802  1.00  0.00     0.009 A 
BRANCH   9  14
ATOM     14  O   UNL     1      95.680  83.690  83.905  1.00  0.00    -0.493 OA
ATOM     15  C   UNL     1      95.923  85.097  83.724  1.00  0.00     0.278 C 
ENDBRANCH   9  14
BRANCH  10  16
ATOM     16  O   UNL     1      95.686  80.899  84.124  1.00  0.00    -0.504 OA
ATOM     17  H   UNL     1      95.441  79.995  83.914  1.00  0.00     0.293 HD
ENDBRANCH  10  16
ENDBRANCH   7   8
ENDBRANCH   4   7
ENDBRANCH   2   3
ENDBRANCH   1   2
BRANCH   1  18
ATOM     18  C   UNL     1     101.454  82.051  76.771  1.00  0.00     0.001 C 
BRANCH  18  19
ATOM     19  C   UNL     1     102.850  81.383  76.917  1.00  0.00     0.000 C 
BRANCH  19  20
ATOM     20  C   UNL     1     103.298  81.311  78.404  1.00  0.00     0.000 C 
BRANCH  20  21
ATOM     21  C   UNL     1     102.614  80.181  79.221  1.00  0.00     0.003 C 
BRANCH  21  22
ATOM     22  C   UNL     1     101.471  80.665  80.172  1.00  0.00    -0.017 C 
ATOM     23  C   UNL     1     102.051  81.082  81.552  1.00  0.00     0.007 C 
ATOM     24  C   UNL     1     100.326  79.625  80.353  1.00  0.00     0.007 C 
ENDBRANCH  21  22
ENDBRANCH  20  21
ENDBRANCH  19  20
ENDBRANCH  18  19
ENDBRANCH   1  18
TORSDOF 11
ENDMDL
MODEL 8
REMARK VINA RESULT:    -5.123      5.537      8.863
REMARK INTER + INTRA:          -8.846
REMARK INTER:                  -7.356
REMARK INTRA:                  -1.490
REMARK UNBOUND:                -0.578
REMARK SMILES COc1cc(CNC(=O)CCCCCCC(C)C)ccc1O
REMARK SMILES IDX 11 1 10 2 8 3 7 4 9 6 6 7 5 8 3 9 21 10 4 11 20 12 19 13
REMARK SMILES IDX 2 14 1 15 22 16 12 18 13 19 14 20 15 21 16 22 17 23 18 24
REMARK H PARENT 7 5 22 17
REMARK Flexibility Score: inf
ROOT
ATOM      1  C   UNL     1     103.599  83.885  75.140  1.00  0.00     0.010 C 
ENDROOT
BRANCH   1   2
ATOM      2  C   UNL     1     103.415  82.351  75.307  1.00  0.00     0.100 C 
BRANCH   2   3
ATOM      3  C   UNL     1     102.794  81.973  76.597  1.00  0.00     0.220 C 
ATOM      4  N   UNL     1     101.436  81.941  76.725  1.00  0.00    -0.352 N 
ATOM      5  H   UNL     1     100.929  82.231  75.902  1.00  0.00     0.163 HD
ATOM      6  O   UNL     1     103.542  81.662  77.556  1.00  0.00    -0.275 OA
BRANCH   4   7
ATOM      7  C   UNL     1     100.727  81.536  77.900  1.00  0.00     0.151 C 
BRANCH   7   8
ATOM      8  C   UNL     1      99.383  82.167  78.021  1.00  0.00    -0.025 A 
ATOM      9  C   UNL     1      97.496  82.908  79.412  1.00  0.00     0.160 A 
ATOM     10  C   UNL     1      96.842  83.406  78.264  1.00  0.00     0.157 A 
ATOM     11  C   UNL     1      98.751  82.277  79.280  1.00  0.00     0.056 A 
ATOM     12  C   UNL     1      97.444  83.268  77.000  1.00  0.00     0.050 A 
ATOM     13  C   UNL     1      98.710  82.662  76.879  1.00  0.00     0.009 A 
BRANCH   9  14
ATOM     14  O   UNL     1      96.902  83.002  80.641  1.00  0.00    -0.493 OA
ATOM     15  C   UNL     1      96.799  81.745  81.334  1.00  0.00     0.278 C 
ENDBRANCH   9  14
BRANCH  10  16
ATOM     16  O   UNL     1      95.633  84.018  78.362  1.00  0.00    -0.504 OA
ATOM     17  H   UNL     1      95.438  84.473  77.539  1.00  0.00     0.293 HD
ENDBRANCH  10  16
ENDBRANCH   7   8
ENDBRANCH   4   7
ENDBRANCH   2   3
ENDBRANCH   1   2
BRANCH   1  18
ATOM     18  C   UNL     1     102.549  84.500  74.173  1.00  0.00     0.001 C 
BRANCH  18  19
ATOM     19  C   UNL     1     101.302  85.087  74.893  1.00  0.00     0.000 C 
BRANCH  19  20
ATOM     20  C   UNL     1     100.010  84.891  74.051  1.00  0.00     0.000 C 
BRANCH  20  21
ATOM     21  C   UNL     1     100.006  83.604  73.180  1.00  0.00     0.003 C 
BRANCH  21  22
ATOM     22  C   UNL     1      98.660  82.809  73.200  1.00  0.00    -0.017 C 
ATOM     23  C   UNL     1      98.460  82.044  71.861  1.00  0.00     0.007 C 
ATOM     24  C   UNL     1      97.417  83.692  73.514  1.00  0.00     0.007 C 
ENDBRANCH  21  22
ENDBRANCH  20  21
ENDBRANCH  19  20
ENDBRANCH  18  19
ENDBRANCH   1  18
TORSDOF 11
ENDMDL
MODEL 9
REMARK VINA RESULT:    -4.981      3.089      4.722
REMARK INTER + INTRA:          -8.616
REMARK INTER:                  -7.361
REMARK INTRA:                  -1.255
REMARK UNBOUND:                -0.578
REMARK SMILES COc1cc(CNC(=O)CCCCCCC(C)C)ccc1O
REMARK SMILES IDX 11 1 10 2 8 3 7 4 9 6 6 7 5 8 3 9 21 10 4 11 20 12 19 13
REMARK SMILES IDX 2 14 1 15 22 16 12 18 13 19 14 20 15 21 16 22 17 23 18 24
REMARK H PARENT 7 5 22 17
REMARK Flexibility Score: inf
ROOT
ATOM      1  C   UNL     1      98.423  78.242  84.212  1.00  0.00     0.010 C 
ENDROOT
BRANCH   1   2
ATOM      2  C   UNL     1      99.041  79.667  84.150  1.00  0.00     0.100 C 
BRANCH   2   3
ATOM      3  C   UNL     1      98.427  80.611  85.111  1.00  0.00     0.220 C 
ATOM      4  N   UNL     1      97.920  81.802  84.678  1.00  0.00    -0.352 N 
ATOM      5  H   UNL     1      98.043  81.978  83.692  1.00  0.00     0.163 HD
ATOM      6  O   UNL     1      98.364  80.283  86.321  1.00  0.00    -0.275 OA
BRANCH   4   7
ATOM      7  C   UNL     1      97.255  82.765  85.503  1.00  0.00     0.151 C 
BRANCH   7   8
ATOM      8  C   UNL     1      95.782  82.805  85.286  1.00  0.00    -0.025 A 
ATOM      9  C   UNL     1      93.587  83.808  85.759  1.00  0.00     0.160 A 
ATOM     10  C   UNL     1      92.981  82.917  84.847  1.00  0.00     0.157 A 
ATOM     11  C   UNL     1      94.977  83.733  85.986  1.00  0.00     0.056 A 
ATOM     12  C   UNL     1      93.765  81.963  84.174  1.00  0.00     0.050 A 
ATOM     13  C   UNL     1      95.157  81.913  84.383  1.00  0.00     0.009 A 
BRANCH   9  14
ATOM     14  O   UNL     1      92.827  84.714  86.448  1.00  0.00    -0.493 OA
ATOM     15  C   UNL     1      93.551  85.892  86.849  1.00  0.00     0.278 C 
ENDBRANCH   9  14
BRANCH  10  16
ATOM     16  O   UNL     1      91.644  82.966  84.610  1.00  0.00    -0.504 OA
ATOM     17  H   UNL     1      91.394  82.238  84.036  1.00  0.00     0.293 HD
ENDBRANCH  10  16
ENDBRANCH   7   8
ENDBRANCH   4   7
ENDBRANCH   2   3
ENDBRANCH   1   2
BRANCH   1  18
ATOM     18  C   UNL     1      97.605  77.902  82.934  1.00  0.00     0.001 C 
BRANCH  18  19
ATOM     19  C   UNL     1      96.608  79.018  82.513  1.00  0.00     0.000 C 
BRANCH  19  20
ATOM     20  C   UNL     1      97.058  79.723  81.203  1.00  0.00     0.000 C 
BRANCH  20  21
ATOM     21  C   UNL     1      96.937  81.272  81.238  1.00  0.00     0.003 C 
BRANCH  21  22
ATOM     22  C   UNL     1      97.700  82.011  80.091  1.00  0.00    -0.017 C 
ATOM     23  C   UNL     1      99.161  82.323  80.523  1.00  0.00     0.007 C 
ATOM     24  C   UNL     1      96.989  83.306  79.599  1.00  0.00     0.007 C 
ENDBRANCH  21  22
ENDBRANCH  20  21
ENDBRANCH  19  20
ENDBRANCH  18  19
ENDBRANCH   1  18
TORSDOF 11
ENDMDL
MODEL 10
REMARK VINA RESULT:    -4.841     15.243     18.241
REMARK INTER + INTRA:          -8.391
REMARK INTER:                  -6.271
REMARK INTRA:                  -2.120
REMARK UNBOUND:                -0.578
REMARK SMILES COc1cc(CNC(=O)CCCCCCC(C)C)ccc1O
REMARK SMILES IDX 11 1 10 2 8 3 7 4 9 6 6 7 5 8 3 9 21 10 4 11 20 12 19 13
REMARK SMILES IDX 2 14 1 15 22 16 12 18 13 19 14 20 15 21 16 22 17 23 18 24
REMARK H PARENT 7 5 22 17
REMARK Flexibility Score: inf
ROOT
ATOM      1  C   UNL     1      77.397  73.133  84.346  1.00  0.00     0.010 C 
ENDROOT
BRANCH   1   2
ATOM      2  C   UNL     1      78.568  73.736  83.522  1.00  0.00     0.100 C 
BRANCH   2   3
ATOM      3  C   UNL     1      79.422  74.656  84.306  1.00  0.00     0.220 C 
ATOM      4  N   UNL     1      80.773  74.473  84.350  1.00  0.00    -0.352 N 
ATOM      5  H   UNL     1      81.104  73.658  83.854  1.00  0.00     0.163 HD
ATOM      6  O   UNL     1      78.880  75.617  84.905  1.00  0.00    -0.275 OA
BRANCH   4   7
ATOM      7  C   UNL     1      81.702  75.328  85.025  1.00  0.00     0.151 C 
BRANCH   7   8
ATOM      8  C   UNL     1      82.114  74.811  86.358  1.00  0.00    -0.025 A 
ATOM      9  C   UNL     1      82.399  75.147  88.778  1.00  0.00     0.160 A 
ATOM     10  C   UNL     1      82.856  73.818  88.911  1.00  0.00     0.157 A 
ATOM     11  C   UNL     1      82.050  75.638  87.502  1.00  0.00     0.056 A 
ATOM     12  C   UNL     1      82.962  72.996  87.774  1.00  0.00     0.050 A 
ATOM     13  C   UNL     1      82.584  73.484  86.508  1.00  0.00     0.009 A 
BRANCH   9  14
ATOM     14  O   UNL     1      82.329  75.966  89.872  1.00  0.00    -0.493 OA
ATOM     15  C   UNL     1      81.008  76.078  90.430  1.00  0.00     0.278 C 
ENDBRANCH   9  14
BRANCH  10  16
ATOM     16  O   UNL     1      83.201  73.318  90.127  1.00  0.00    -0.504 OA
ATOM     17  H   UNL     1      84.158  73.281  90.197  1.00  0.00     0.293 HD
ENDBRANCH  10  16
ENDBRANCH   7   8
ENDBRANCH   4   7
ENDBRANCH   2   3
ENDBRANCH   1   2
BRANCH   1  18
ATOM     18  C   UNL     1      77.085  71.666  83.935  1.00  0.00     0.001 C 
BRANCH  18  19
ATOM     19  C   UNL     1      76.516  70.799  85.093  1.00  0.00     0.000 C 
BRANCH  19  20
ATOM     20  C   UNL     1      76.712  71.487  86.473  1.00  0.00     0.000 C 
BRANCH  20  21
ATOM     21  C   UNL     1      77.747  70.783  87.395  1.00  0.00     0.003 C 
BRANCH  21  22
ATOM     22  C   UNL     1      79.168  71.436  87.396  1.00  0.00    -0.017 C 
ATOM     23  C   UNL     1      79.059  72.974  87.590  1.00  0.00     0.007 C 
ATOM     24  C   UNL     1      80.009  71.104  86.128  1.00  0.00     0.007 C 
ENDBRANCH  21  22
ENDBRANCH  20  21
ENDBRANCH  19  20
ENDBRANCH  18  19
ENDBRANCH   1  18
TORSDOF 11
ENDMDL
