MODEL 1
REMARK VINA RESULT:    -6.867      0.000      0.000
REMARK INTER + INTRA:         -11.650
REMARK INTER:                 -11.083
REMARK INTRA:                  -0.568
REMARK UNBOUND:                -0.568
REMARK SMILES COc1cc(CNC(=O)CCCCCCC(C)C)ccc1O
REMARK SMILES IDX 11 1 10 2 8 3 7 4 9 6 6 7 5 8 3 9 21 10 4 11 20 12 19 13
REMARK SMILES IDX 2 14 1 15 22 16 12 18 13 19 14 20 15 21 16 22 17 23 18 24
REMARK H PARENT 7 5 22 17
REMARK Flexibility Score: inf
ROOT
ATOM      1  C   UNL     1      94.676  96.810  78.539  1.00  0.00     0.010 C 
ENDROOT
BRANCH   1   2
ATOM      2  C   UNL     1      94.091  95.382  78.362  1.00  0.00     0.100 C 
BRANCH   2   3
ATOM      3  C   UNL     1      92.712  95.378  77.823  1.00  0.00     0.220 C 
ATOM      4  N   UNL     1      91.897  94.303  78.025  1.00  0.00    -0.352 N 
ATOM      5  H   UNL     1      92.328  93.533  78.515  1.00  0.00     0.163 HD
ATOM      6  O   UNL     1      92.307  96.390  77.201  1.00  0.00    -0.275 OA
BRANCH   4   7
ATOM      7  C   UNL     1      90.532  94.210  77.602  1.00  0.00     0.151 C 
BRANCH   7   8
ATOM      8  C   UNL     1      90.342  93.318  76.425  1.00  0.00    -0.025 A 
ATOM      9  C   UNL     1      89.691  91.140  75.488  1.00  0.00     0.160 A 
ATOM     10  C   UNL     1      89.933  91.625  74.185  1.00  0.00     0.157 A 
ATOM     11  C   UNL     1      89.914  91.982  76.598  1.00  0.00     0.056 A 
ATOM     12  C   UNL     1      90.396  92.941  74.003  1.00  0.00     0.050 A 
ATOM     13  C   UNL     1      90.589  93.786  75.113  1.00  0.00     0.009 A 
BRANCH   9  14
ATOM     14  O   UNL     1      89.278  89.849  75.679  1.00  0.00    -0.493 OA
ATOM     15  C   UNL     1      90.158  88.868  75.101  1.00  0.00     0.278 C 
ENDBRANCH   9  14
BRANCH  10  16
ATOM     16  O   UNL     1      89.728  90.836  73.098  1.00  0.00    -0.504 OA
ATOM     17  H   UNL     1      90.574  90.531  72.760  1.00  0.00     0.293 HD
ENDBRANCH  10  16
ENDBRANCH   7   8
ENDBRANCH   4   7
ENDBRANCH   2   3
ENDBRANCH   1   2
BRANCH   1  18
ATOM     18  C   UNL     1      95.824  97.104  77.531  1.00  0.00     0.001 C 
BRANCH  18  19
ATOM     19  C   UNL     1      95.681  98.469  76.800  1.00  0.00     0.000 C 
BRANCH  19  20
ATOM     20  C   UNL     1      96.002  98.342  75.284  1.00  0.00     0.000 C 
BRANCH  20  21
ATOM     21  C   UNL     1      94.795  98.638  74.351  1.00  0.00     0.003 C 
BRANCH  21  22
ATOM     22  C   UNL     1      94.338  97.425  73.476  1.00  0.00    -0.017 C 
ATOM     23  C   UNL     1      94.075  96.179  74.367  1.00  0.00     0.007 C 
ATOM     24  C   UNL     1      95.328  97.075  72.326  1.00  0.00     0.007 C 
ENDBRANCH  21  22
ENDBRANCH  20  21
ENDBRANCH  19  20
ENDBRANCH  18  19
ENDBRANCH   1  18
TORSDOF 11
ENDMDL
MODEL 2
REMARK VINA RESULT:    -6.370     15.687     18.768
REMARK INTER + INTRA:         -10.848
REMARK INTER:                 -10.220
REMARK INTRA:                  -0.628
REMARK UNBOUND:                -0.568
REMARK SMILES COc1cc(CNC(=O)CCCCCCC(C)C)ccc1O
REMARK SMILES IDX 11 1 10 2 8 3 7 4 9 6 6 7 5 8 3 9 21 10 4 11 20 12 19 13
REMARK SMILES IDX 2 14 1 15 22 16 12 18 13 19 14 20 15 21 16 22 17 23 18 24
REMARK H PARENT 7 5 22 17
REMARK Flexibility Score: inf
ROOT
ATOM      1  C   UNL     1      90.315  76.386  84.032  1.00  0.00     0.010 C 
ENDROOT
BRANCH   1   2
ATOM      2  C   UNL     1      91.634  77.203  83.955  1.00  0.00     0.100 C 
BRANCH   2   3
ATOM      3  C   UNL     1      91.517  78.558  84.539  1.00  0.00     0.220 C 
ATOM      4  N   UNL     1      90.424  79.330  84.276  1.00  0.00    -0.352 N 
ATOM      5  H   UNL     1      89.761  78.917  83.637  1.00  0.00     0.163 HD
ATOM      6  O   UNL     1      92.431  78.967  85.297  1.00  0.00    -0.275 OA
BRANCH   4   7
ATOM      7  C   UNL     1      90.176  80.627  84.829  1.00  0.00     0.151 C 
BRANCH   7   8
ATOM      8  C   UNL     1      88.919  81.248  84.327  1.00  0.00    -0.025 A 
ATOM      9  C   UNL     1      87.342  83.135  84.293  1.00  0.00     0.160 A 
ATOM     10  C   UNL     1      86.548  82.458  83.342  1.00  0.00     0.157 A 
ATOM     11  C   UNL     1      88.509  82.518  84.792  1.00  0.00     0.056 A 
ATOM     12  C   UNL     1      86.925  81.176  82.901  1.00  0.00     0.050 A 
ATOM     13  C   UNL     1      88.107  80.579  83.381  1.00  0.00     0.009 A 
BRANCH   9  14
ATOM     14  O   UNL     1      86.963  84.365  84.759  1.00  0.00    -0.493 OA
ATOM     15  C   UNL     1      86.209  84.315  85.983  1.00  0.00     0.278 C 
ENDBRANCH   9  14
BRANCH  10  16
ATOM     16  O   UNL     1      85.418  83.026  82.846  1.00  0.00    -0.504 OA
ATOM     17  H   UNL     1      84.671  82.447  83.009  1.00  0.00     0.293 HD
ENDBRANCH  10  16
ENDBRANCH   7   8
ENDBRANCH   4   7
ENDBRANCH   2   3
ENDBRANCH   1   2
BRANCH   1  18
ATOM     18  C   UNL     1      90.560  74.859  83.861  1.00  0.00     0.001 C 
BRANCH  18  19
ATOM     19  C   UNL     1      91.579  74.510  82.740  1.00  0.00     0.000 C 
BRANCH  19  20
ATOM     20  C   UNL     1      90.909  74.509  81.338  1.00  0.00     0.000 C 
BRANCH  20  21
ATOM     21  C   UNL     1      91.848  74.062  80.183  1.00  0.00     0.003 C 
BRANCH  21  22
ATOM     22  C   UNL     1      91.300  74.356  78.748  1.00  0.00    -0.017 C 
ATOM     23  C   UNL     1      91.042  75.878  78.566  1.00  0.00     0.007 C 
ATOM     24  C   UNL     1      90.024  73.540  78.387  1.00  0.00     0.007 C 
ENDBRANCH  21  22
ENDBRANCH  20  21
ENDBRANCH  19  20
ENDBRANCH  18  19
ENDBRANCH   1  18
TORSDOF 11
ENDMDL
MODEL 3
REMARK VINA RESULT:    -6.009      3.760      5.538
REMARK INTER + INTRA:         -10.265
REMARK INTER:                  -9.180
REMARK INTRA:                  -1.085
REMARK UNBOUND:                -0.568
REMARK SMILES COc1cc(CNC(=O)CCCCCCC(C)C)ccc1O
REMARK SMILES IDX 11 1 10 2 8 3 7 4 9 6 6 7 5 8 3 9 21 10 4 11 20 12 19 13
REMARK SMILES IDX 2 14 1 15 22 16 12 18 13 19 14 20 15 21 16 22 17 23 18 24
REMARK H PARENT 7 5 22 17
REMARK Flexibility Score: inf
ROOT
ATOM      1  C   UNL     1      93.919  99.953  72.826  1.00  0.00     0.010 C 
ENDROOT
BRANCH   1   2
ATOM      2  C   UNL     1      93.701  98.538  72.222  1.00  0.00     0.100 C 
BRANCH   2   3
ATOM      3  C   UNL     1      94.315  97.458  73.026  1.00  0.00     0.220 C 
ATOM      4  N   UNL     1      93.778  97.103  74.229  1.00  0.00    -0.352 N 
ATOM      5  H   UNL     1      92.986  97.659  74.516  1.00  0.00     0.163 HD
ATOM      6  O   UNL     1      95.321  96.863  72.566  1.00  0.00    -0.275 OA
BRANCH   4   7
ATOM      7  C   UNL     1      94.249  96.040  75.063  1.00  0.00     0.151 C 
BRANCH   7   8
ATOM      8  C   UNL     1      93.164  95.375  75.835  1.00  0.00    -0.025 A 
ATOM      9  C   UNL     1      91.097  94.043  75.888  1.00  0.00     0.160 A 
ATOM     10  C   UNL     1      91.115  94.067  77.299  1.00  0.00     0.157 A 
ATOM     11  C   UNL     1      92.109  94.712  75.167  1.00  0.00     0.056 A 
ATOM     12  C   UNL     1      92.138  94.756  77.975  1.00  0.00     0.050 A 
ATOM     13  C   UNL     1      93.161  95.397  77.250  1.00  0.00     0.009 A 
BRANCH   9  14
ATOM     14  O   UNL     1      90.084  93.408  75.221  1.00  0.00    -0.493 OA
ATOM     15  C   UNL     1      90.519  92.270  74.455  1.00  0.00     0.278 C 
ENDBRANCH   9  14
BRANCH  10  16
ATOM     16  O   UNL     1      90.152  93.433  78.019  1.00  0.00    -0.504 OA
ATOM     17  H   UNL     1      90.297  93.590  78.955  1.00  0.00     0.293 HD
ENDBRANCH  10  16
ENDBRANCH   7   8
ENDBRANCH   4   7
ENDBRANCH   2   3
ENDBRANCH   1   2
BRANCH   1  18
ATOM     18  C   UNL     1      94.361 100.988  71.753  1.00  0.00     0.001 C 
BRANCH  18  19
ATOM     19  C   UNL     1      93.874 100.647  70.316  1.00  0.00     0.000 C 
BRANCH  19  20
ATOM     20  C   UNL     1      92.527 101.350  69.987  1.00  0.00     0.000 C 
BRANCH  20  21
ATOM     21  C   UNL     1      91.352 100.374  69.703  1.00  0.00     0.003 C 
BRANCH  21  22
ATOM     22  C   UNL     1      90.222 100.387  70.784  1.00  0.00    -0.017 C 
ATOM     23  C   UNL     1      88.860 100.774  70.142  1.00  0.00     0.007 C 
ATOM     24  C   UNL     1      90.531 101.306  72.002  1.00  0.00     0.007 C 
ENDBRANCH  21  22
ENDBRANCH  20  21
ENDBRANCH  19  20
ENDBRANCH  18  19
ENDBRANCH   1  18
TORSDOF 11
ENDMDL
MODEL 4
REMARK VINA RESULT:    -5.986     15.862     18.805
REMARK INTER + INTRA:         -10.227
REMARK INTER:                  -9.455
REMARK INTRA:                  -0.773
REMARK UNBOUND:                -0.568
REMARK SMILES COc1cc(CNC(=O)CCCCCCC(C)C)ccc1O
REMARK SMILES IDX 11 1 10 2 8 3 7 4 9 6 6 7 5 8 3 9 21 10 4 11 20 12 19 13
REMARK SMILES IDX 2 14 1 15 22 16 12 18 13 19 14 20 15 21 16 22 17 23 18 24
REMARK H PARENT 7 5 22 17
REMARK Flexibility Score: inf
ROOT
ATOM      1  C   UNL     1      91.538  75.315  81.486  1.00  0.00     0.010 C 
ENDROOT
BRANCH   1   2
ATOM      2  C   UNL     1      92.916  75.388  82.200  1.00  0.00     0.100 C 
BRANCH   2   3
ATOM      3  C   UNL     1      92.875  76.139  83.475  1.00  0.00     0.220 C 
ATOM      4  N   UNL     1      93.130  77.479  83.493  1.00  0.00    -0.352 N 
ATOM      5  H   UNL     1      93.382  77.873  82.598  1.00  0.00     0.163 HD
ATOM      6  O   UNL     1      92.578  75.523  84.528  1.00  0.00    -0.275 OA
BRANCH   4   7
ATOM      7  C   UNL     1      93.063  78.318  84.652  1.00  0.00     0.151 C 
BRANCH   7   8
ATOM      8  C   UNL     1      92.187  79.507  84.466  1.00  0.00    -0.025 A 
ATOM      9  C   UNL     1      90.001  80.470  83.882  1.00  0.00     0.160 A 
ATOM     10  C   UNL     1      90.496  81.764  84.152  1.00  0.00     0.157 A 
ATOM     11  C   UNL     1      90.853  79.355  84.022  1.00  0.00     0.056 A 
ATOM     12  C   UNL     1      91.833  81.932  84.556  1.00  0.00     0.050 A 
ATOM     13  C   UNL     1      92.670  80.811  84.723  1.00  0.00     0.009 A 
BRANCH   9  14
ATOM     14  O   UNL     1      88.713  80.300  83.450  1.00  0.00    -0.493 OA
ATOM     15  C   UNL     1      87.857  79.662  84.415  1.00  0.00     0.278 C 
ENDBRANCH   9  14
BRANCH  10  16
ATOM     16  O   UNL     1      89.698  82.857  84.023  1.00  0.00    -0.504 OA
ATOM     17  H   UNL     1      89.943  83.339  83.230  1.00  0.00     0.293 HD
ENDBRANCH  10  16
ENDBRANCH   7   8
ENDBRANCH   4   7
ENDBRANCH   2   3
ENDBRANCH   1   2
BRANCH   1  18
ATOM     18  C   UNL     1      91.681  75.038  79.962  1.00  0.00     0.001 C 
BRANCH  18  19
ATOM     19  C   UNL     1      90.387  74.482  79.303  1.00  0.00     0.000 C 
BRANCH  19  20
ATOM     20  C   UNL     1      90.253  74.948  77.826  1.00  0.00     0.000 C 
BRANCH  20  21
ATOM     21  C   UNL     1      91.554  75.553  77.228  1.00  0.00     0.003 C 
BRANCH  21  22
ATOM     22  C   UNL     1      91.320  76.686  76.175  1.00  0.00    -0.017 C 
ATOM     23  C   UNL     1      91.564  78.081  76.815  1.00  0.00     0.007 C 
ATOM     24  C   UNL     1      89.917  76.633  75.501  1.00  0.00     0.007 C 
ENDBRANCH  21  22
ENDBRANCH  20  21
ENDBRANCH  19  20
ENDBRANCH  18  19
ENDBRANCH   1  18
TORSDOF 11
ENDMDL
MODEL 5
REMARK VINA RESULT:    -5.980      4.233      9.073
REMARK INTER + INTRA:         -10.219
REMARK INTER:                  -9.232
REMARK INTRA:                  -0.987
REMARK UNBOUND:                -0.568
REMARK SMILES COc1cc(CNC(=O)CCCCCCC(C)C)ccc1O
REMARK SMILES IDX 11 1 10 2 8 3 7 4 9 6 6 7 5 8 3 9 21 10 4 11 20 12 19 13
REMARK SMILES IDX 2 14 1 15 22 16 12 18 13 19 14 20 15 21 16 22 17 23 18 24
REMARK H PARENT 7 5 22 17
REMARK Flexibility Score: inf
ROOT
ATOM      1  C   UNL     1      94.826  95.547  77.314  1.00  0.00     0.010 C 
ENDROOT
BRANCH   1   2
ATOM      2  C   UNL     1      95.059  94.306  78.218  1.00  0.00     0.100 C 
BRANCH   2   3
ATOM      3  C   UNL     1      95.363  94.655  79.624  1.00  0.00     0.220 C 
ATOM      4  N   UNL     1      96.381  95.514  79.916  1.00  0.00    -0.352 N 
ATOM      5  H   UNL     1      96.906  95.833  79.115  1.00  0.00     0.163 HD
ATOM      6  O   UNL     1      94.650  94.163  80.533  1.00  0.00    -0.275 OA
BRANCH   4   7
ATOM      7  C   UNL     1      96.728  95.968  81.229  1.00  0.00     0.151 C 
BRANCH   7   8
ATOM      8  C   UNL     1      96.628  97.445  81.384  1.00  0.00    -0.025 A 
ATOM      9  C   UNL     1      97.167  99.497  82.629  1.00  0.00     0.160 A 
ATOM     10  C   UNL     1      96.480 100.265  81.664  1.00  0.00     0.157 A 
ATOM     11  C   UNL     1      97.220  98.094  82.492  1.00  0.00     0.056 A 
ATOM     12  C   UNL     1      95.854  99.628  80.578  1.00  0.00     0.050 A 
ATOM     13  C   UNL     1      95.935  98.230  80.432  1.00  0.00     0.009 A 
BRANCH   9  14
ATOM     14  O   UNL     1      97.747 100.103  83.710  1.00  0.00    -0.493 OA
ATOM     15  C   UNL     1      96.903 100.139  84.876  1.00  0.00     0.278 C 
ENDBRANCH   9  14
BRANCH  10  16
ATOM     16  O   UNL     1      96.412 101.619  81.772  1.00  0.00    -0.504 OA
ATOM     17  H   UNL     1      97.028 101.917  82.444  1.00  0.00     0.293 HD
ENDBRANCH  10  16
ENDBRANCH   7   8
ENDBRANCH   4   7
ENDBRANCH   2   3
ENDBRANCH   1   2
BRANCH   1  18
ATOM     18  C   UNL     1      93.733  96.494  77.886  1.00  0.00     0.001 C 
BRANCH  18  19
ATOM     19  C   UNL     1      92.501  96.664  76.953  1.00  0.00     0.000 C 
BRANCH  19  20
ATOM     20  C   UNL     1      91.653  95.362  76.882  1.00  0.00     0.000 C 
BRANCH  20  21
ATOM     21  C   UNL     1      91.715  94.635  75.510  1.00  0.00     0.003 C 
BRANCH  21  22
ATOM     22  C   UNL     1      90.886  93.312  75.438  1.00  0.00    -0.017 C 
ATOM     23  C   UNL     1      89.965  93.315  74.185  1.00  0.00     0.007 C 
ATOM     24  C   UNL     1      90.057  93.021  76.723  1.00  0.00     0.007 C 
ENDBRANCH  21  22
ENDBRANCH  20  21
ENDBRANCH  19  20
ENDBRANCH  18  19
ENDBRANCH   1  18
TORSDOF 11
ENDMDL
MODEL 6
REMARK VINA RESULT:    -5.506     14.562     18.420
REMARK INTER + INTRA:          -9.453
REMARK INTER:                  -8.601
REMARK INTRA:                  -0.851
REMARK UNBOUND:                -0.568
REMARK SMILES COc1cc(CNC(=O)CCCCCCC(C)C)ccc1O
REMARK SMILES IDX 11 1 10 2 8 3 7 4 9 6 6 7 5 8 3 9 21 10 4 11 20 12 19 13
REMARK SMILES IDX 2 14 1 15 22 16 12 18 13 19 14 20 15 21 16 22 17 23 18 24
REMARK H PARENT 7 5 22 17
REMARK Flexibility Score: inf
ROOT
ATOM      1  C   UNL     1      90.111  77.425  84.393  1.00  0.00     0.010 C 
ENDROOT
BRANCH   1   2
ATOM      2  C   UNL     1      91.298  78.344  83.994  1.00  0.00     0.100 C 
BRANCH   2   3
ATOM      3  C   UNL     1      90.982  79.787  84.098  1.00  0.00     0.220 C 
ATOM      4  N   UNL     1      91.937  80.674  84.503  1.00  0.00    -0.352 N 
ATOM      5  H   UNL     1      92.820  80.256  84.755  1.00  0.00     0.163 HD
ATOM      6  O   UNL     1      89.831  80.174  83.783  1.00  0.00    -0.275 OA
BRANCH   4   7
ATOM      7  C   UNL     1      91.764  82.092  84.586  1.00  0.00     0.151 C 
BRANCH   7   8
ATOM      8  C   UNL     1      93.047  82.831  84.745  1.00  0.00    -0.025 A 
ATOM      9  C   UNL     1      95.437  83.083  84.227  1.00  0.00     0.160 A 
ATOM     10  C   UNL     1      95.485  84.258  85.008  1.00  0.00     0.157 A 
ATOM     11  C   UNL     1      94.225  82.369  84.117  1.00  0.00     0.056 A 
ATOM     12  C   UNL     1      94.328  84.706  85.671  1.00  0.00     0.050 A 
ATOM     13  C   UNL     1      93.114  84.005  85.532  1.00  0.00     0.009 A 
BRANCH   9  14
ATOM     14  O   UNL     1      96.567  82.617  83.611  1.00  0.00    -0.493 OA
ATOM     15  C   UNL     1      96.667  82.990  82.224  1.00  0.00     0.278 C 
ENDBRANCH   9  14
BRANCH  10  16
ATOM     16  O   UNL     1      96.639  84.965  85.133  1.00  0.00    -0.504 OA
ATOM     17  H   UNL     1      96.457  85.899  85.010  1.00  0.00     0.293 HD
ENDBRANCH  10  16
ENDBRANCH   7   8
ENDBRANCH   4   7
ENDBRANCH   2   3
ENDBRANCH   1   2
BRANCH   1  18
ATOM     18  C   UNL     1      90.331  75.953  83.942  1.00  0.00     0.001 C 
BRANCH  18  19
ATOM     19  C   UNL     1      91.818  75.500  83.985  1.00  0.00     0.000 C 
BRANCH  19  20
ATOM     20  C   UNL     1      92.198  74.666  82.730  1.00  0.00     0.000 C 
BRANCH  20  21
ATOM     21  C   UNL     1      92.197  75.475  81.403  1.00  0.00     0.003 C 
BRANCH  21  22
ATOM     22  C   UNL     1      91.076  75.065  80.392  1.00  0.00    -0.017 C 
ATOM     23  C   UNL     1      90.467  73.689  80.784  1.00  0.00     0.007 C 
ATOM     24  C   UNL     1      91.548  75.049  78.908  1.00  0.00     0.007 C 
ENDBRANCH  21  22
ENDBRANCH  20  21
ENDBRANCH  19  20
ENDBRANCH  18  19
ENDBRANCH   1  18
TORSDOF 11
ENDMDL
MODEL 7
REMARK VINA RESULT:    -5.489     11.852     15.080
REMARK INTER + INTRA:          -9.426
REMARK INTER:                  -8.631
REMARK INTRA:                  -0.795
REMARK UNBOUND:                -0.568
REMARK SMILES COc1cc(CNC(=O)CCCCCCC(C)C)ccc1O
REMARK SMILES IDX 11 1 10 2 8 3 7 4 9 6 6 7 5 8 3 9 21 10 4 11 20 12 19 13
REMARK SMILES IDX 2 14 1 15 22 16 12 18 13 19 14 20 15 21 16 22 17 23 18 24
REMARK H PARENT 7 5 22 17
REMARK Flexibility Score: inf
ROOT
ATOM      1  C   UNL     1      97.546  80.934  82.734  1.00  0.00     0.010 C 
ENDROOT
BRANCH   1   2
ATOM      2  C   UNL     1      97.005  80.232  81.458  1.00  0.00     0.100 C 
BRANCH   2   3
ATOM      3  C   UNL     1      97.827  80.492  80.255  1.00  0.00     0.220 C 
ATOM      4  N   UNL     1      98.153  81.770  79.906  1.00  0.00    -0.352 N 
ATOM      5  H   UNL     1      97.755  82.483  80.499  1.00  0.00     0.163 HD
ATOM      6  O   UNL     1      98.234  79.513  79.582  1.00  0.00    -0.275 OA
BRANCH   4   7
ATOM      7  C   UNL     1      98.986  82.137  78.802  1.00  0.00     0.151 C 
BRANCH   7   8
ATOM      8  C   UNL     1      98.260  82.893  77.744  1.00  0.00    -0.025 A 
ATOM      9  C   UNL     1      98.098  83.680  75.420  1.00  0.00     0.160 A 
ATOM     10  C   UNL     1      96.860  84.293  75.712  1.00  0.00     0.157 A 
ATOM     11  C   UNL     1      98.796  83.002  76.441  1.00  0.00     0.056 A 
ATOM     12  C   UNL     1      96.334  84.225  77.015  1.00  0.00     0.050 A 
ATOM     13  C   UNL     1      97.023  83.521  78.022  1.00  0.00     0.009 A 
BRANCH   9  14
ATOM     14  O   UNL     1      98.637  83.774  74.166  1.00  0.00    -0.493 OA
ATOM     15  C   UNL     1     100.020  83.384  74.098  1.00  0.00     0.278 C 
ENDBRANCH   9  14
BRANCH  10  16
ATOM     16  O   UNL     1      96.166  84.954  74.748  1.00  0.00    -0.504 OA
ATOM     17  H   UNL     1      95.960  85.841  75.054  1.00  0.00     0.293 HD
ENDBRANCH  10  16
ENDBRANCH   7   8
ENDBRANCH   4   7
ENDBRANCH   2   3
ENDBRANCH   1   2
BRANCH   1  18
ATOM     18  C   UNL     1      96.540  81.976  83.302  1.00  0.00     0.001 C 
BRANCH  18  19
ATOM     19  C   UNL     1      96.303  81.848  84.833  1.00  0.00     0.000 C 
BRANCH  19  20
ATOM     20  C   UNL     1      95.912  83.212  85.467  1.00  0.00     0.000 C 
BRANCH  20  21
ATOM     21  C   UNL     1      94.684  83.895  84.804  1.00  0.00     0.003 C 
BRANCH  21  22
ATOM     22  C   UNL     1      93.301  83.437  85.370  1.00  0.00    -0.017 C 
ATOM     23  C   UNL     1      93.414  83.113  86.887  1.00  0.00     0.007 C 
ATOM     24  C   UNL     1      92.677  82.235  84.602  1.00  0.00     0.007 C 
ENDBRANCH  21  22
ENDBRANCH  20  21
ENDBRANCH  19  20
ENDBRANCH  18  19
ENDBRANCH   1  18
TORSDOF 11
ENDMDL
MODEL 8
REMARK VINA RESULT:    -5.379     12.554     15.029
REMARK INTER + INTRA:          -9.249
REMARK INTER:                  -8.502
REMARK INTRA:                  -0.746
REMARK UNBOUND:                -0.568
REMARK SMILES COc1cc(CNC(=O)CCCCCCC(C)C)ccc1O
REMARK SMILES IDX 11 1 10 2 8 3 7 4 9 6 6 7 5 8 3 9 21 10 4 11 20 12 19 13
REMARK SMILES IDX 2 14 1 15 22 16 12 18 13 19 14 20 15 21 16 22 17 23 18 24
REMARK H PARENT 7 5 22 17
REMARK Flexibility Score: inf
ROOT
ATOM      1  C   UNL     1      97.956  83.036  79.560  1.00  0.00     0.010 C 
ENDROOT
BRANCH   1   2
ATOM      2  C   UNL     1      96.993  83.250  80.760  1.00  0.00     0.100 C 
BRANCH   2   3
ATOM      3  C   UNL     1      97.187  82.267  81.849  1.00  0.00     0.220 C 
ATOM      4  N   UNL     1      96.285  81.261  82.038  1.00  0.00    -0.352 N 
ATOM      5  H   UNL     1      95.489  81.287  81.418  1.00  0.00     0.163 HD
ATOM      6  O   UNL     1      98.208  82.365  82.574  1.00  0.00    -0.275 OA
BRANCH   4   7
ATOM      7  C   UNL     1      96.398  80.223  83.017  1.00  0.00     0.151 C 
BRANCH   7   8
ATOM      8  C   UNL     1      95.209  80.124  83.908  1.00  0.00    -0.025 A 
ATOM      9  C   UNL     1      93.393  81.207  85.164  1.00  0.00     0.160 A 
ATOM     10  C   UNL     1      92.915  79.941  85.569  1.00  0.00     0.157 A 
ATOM     11  C   UNL     1      94.545  81.289  84.354  1.00  0.00     0.056 A 
ATOM     12  C   UNL     1      93.591  78.776  85.164  1.00  0.00     0.050 A 
ATOM     13  C   UNL     1      94.723  78.864  84.331  1.00  0.00     0.009 A 
BRANCH   9  14
ATOM     14  O   UNL     1      92.767  82.349  85.585  1.00  0.00    -0.493 OA
ATOM     15  C   UNL     1      93.581  83.531  85.473  1.00  0.00     0.278 C 
ENDBRANCH   9  14
BRANCH  10  16
ATOM     16  O   UNL     1      91.809  79.832  86.351  1.00  0.00    -0.504 OA
ATOM     17  H   UNL     1      91.197  80.541  86.139  1.00  0.00     0.293 HD
ENDBRANCH  10  16
ENDBRANCH   7   8
ENDBRANCH   4   7
ENDBRANCH   2   3
ENDBRANCH   1   2
BRANCH   1  18
ATOM     18  C   UNL     1      97.467  81.907  78.609  1.00  0.00     0.001 C 
BRANCH  18  19
ATOM     19  C   UNL     1      97.413  82.328  77.113  1.00  0.00     0.000 C 
BRANCH  19  20
ATOM     20  C   UNL     1      97.545  83.869  76.947  1.00  0.00     0.000 C 
BRANCH  20  21
ATOM     21  C   UNL     1      96.955  84.419  75.619  1.00  0.00     0.003 C 
BRANCH  21  22
ATOM     22  C   UNL     1      97.965  84.462  74.427  1.00  0.00    -0.017 C 
ATOM     23  C   UNL     1      97.671  83.311  73.424  1.00  0.00     0.007 C 
ATOM     24  C   UNL     1      99.457  84.430  74.870  1.00  0.00     0.007 C 
ENDBRANCH  21  22
ENDBRANCH  20  21
ENDBRANCH  19  20
ENDBRANCH  18  19
ENDBRANCH   1  18
TORSDOF 11
ENDMDL
MODEL 9
REMARK VINA RESULT:    -5.335     15.937     19.441
REMARK INTER + INTRA:          -9.178
REMARK INTER:                  -8.424
REMARK INTRA:                  -0.754
REMARK UNBOUND:                -0.568
REMARK SMILES COc1cc(CNC(=O)CCCCCCC(C)C)ccc1O
REMARK SMILES IDX 11 1 10 2 8 3 7 4 9 6 6 7 5 8 3 9 21 10 4 11 20 12 19 13
REMARK SMILES IDX 2 14 1 15 22 16 12 18 13 19 14 20 15 21 16 22 17 23 18 24
REMARK H PARENT 7 5 22 17
REMARK Flexibility Score: inf
ROOT
ATOM      1  C   UNL     1      73.716  89.751  70.492  1.00  0.00     0.010 C 
ENDROOT
BRANCH   1   2
ATOM      2  C   UNL     1      74.563  91.014  70.812  1.00  0.00     0.100 C 
BRANCH   2   3
ATOM      3  C   UNL     1      73.867  91.978  71.693  1.00  0.00     0.220 C 
ATOM      4  N   UNL     1      73.198  91.542  72.799  1.00  0.00    -0.352 N 
ATOM      5  H   UNL     1      73.190  90.540  72.919  1.00  0.00     0.163 HD
ATOM      6  O   UNL     1      73.928  93.200  71.414  1.00  0.00    -0.275 OA
BRANCH   4   7
ATOM      7  C   UNL     1      72.539  92.384  73.752  1.00  0.00     0.151 C 
BRANCH   7   8
ATOM      8  C   UNL     1      73.336  92.603  74.990  1.00  0.00    -0.025 A 
ATOM      9  C   UNL     1      75.196  93.711  76.157  1.00  0.00     0.160 A 
ATOM     10  C   UNL     1      74.833  93.061  77.357  1.00  0.00     0.157 A 
ATOM     11  C   UNL     1      74.458  93.463  74.980  1.00  0.00     0.056 A 
ATOM     12  C   UNL     1      73.743  92.173  77.370  1.00  0.00     0.050 A 
ATOM     13  C   UNL     1      72.992  91.953  76.198  1.00  0.00     0.009 A 
BRANCH   9  14
ATOM     14  O   UNL     1      76.279  94.547  76.124  1.00  0.00    -0.493 OA
ATOM     15  C   UNL     1      77.389  94.028  75.369  1.00  0.00     0.278 C 
ENDBRANCH   9  14
BRANCH  10  16
ATOM     16  O   UNL     1      75.528  93.280  78.504  1.00  0.00    -0.504 OA
ATOM     17  H   UNL     1      76.077  94.060  78.402  1.00  0.00     0.293 HD
ENDBRANCH  10  16
ENDBRANCH   7   8
ENDBRANCH   4   7
ENDBRANCH   2   3
ENDBRANCH   1   2
BRANCH   1  18
ATOM     18  C   UNL     1      74.438  88.796  69.500  1.00  0.00     0.001 C 
BRANCH  18  19
ATOM     19  C   UNL     1      75.760  89.375  68.922  1.00  0.00     0.000 C 
BRANCH  19  20
ATOM     20  C   UNL     1      76.767  88.248  68.559  1.00  0.00     0.000 C 
BRANCH  20  21
ATOM     21  C   UNL     1      76.529  86.912  69.316  1.00  0.00     0.003 C 
BRANCH  21  22
ATOM     22  C   UNL     1      77.166  85.656  68.636  1.00  0.00    -0.017 C 
ATOM     23  C   UNL     1      77.193  85.829  67.092  1.00  0.00     0.007 C 
ATOM     24  C   UNL     1      76.474  84.317  69.023  1.00  0.00     0.007 C 
ENDBRANCH  21  22
ENDBRANCH  20  21
ENDBRANCH  19  20
ENDBRANCH  18  19
ENDBRANCH   1  18
TORSDOF 11
ENDMDL
MODEL 10
REMARK VINA RESULT:    -5.326      5.130      9.530
REMARK INTER + INTRA:          -9.163
REMARK INTER:                  -8.282
REMARK INTRA:                  -0.882
REMARK UNBOUND:                -0.568
REMARK SMILES COc1cc(CNC(=O)CCCCCCC(C)C)ccc1O
REMARK SMILES IDX 11 1 10 2 8 3 7 4 9 6 6 7 5 8 3 9 21 10 4 11 20 12 19 13
REMARK SMILES IDX 2 14 1 15 22 16 12 18 13 19 14 20 15 21 16 22 17 23 18 24
REMARK H PARENT 7 5 22 17
REMARK Flexibility Score: inf
ROOT
ATOM      1  C   UNL     1      95.029  95.730  77.568  1.00  0.00     0.010 C 
ENDROOT
BRANCH   1   2
ATOM      2  C   UNL     1      94.924  94.750  78.769  1.00  0.00     0.100 C 
BRANCH   2   3
ATOM      3  C   UNL     1      95.581  95.256  79.995  1.00  0.00     0.220 C 
ATOM      4  N   UNL     1      96.358  96.376  79.949  1.00  0.00    -0.352 N 
ATOM      5  H   UNL     1      96.468  96.775  79.028  1.00  0.00     0.163 HD
ATOM      6  O   UNL     1      95.387  94.647  81.076  1.00  0.00    -0.275 OA
BRANCH   4   7
ATOM      7  C   UNL     1      96.993  96.988  81.077  1.00  0.00     0.151 C 
BRANCH   7   8
ATOM      8  C   UNL     1      98.476  97.049  80.953  1.00  0.00    -0.025 A 
ATOM      9  C   UNL     1     100.682  97.440  81.967  1.00  0.00     0.160 A 
ATOM     10  C   UNL     1     101.304  97.125  80.739  1.00  0.00     0.157 A 
ATOM     11  C   UNL     1      99.275  97.419  82.059  1.00  0.00     0.056 A 
ATOM     12  C   UNL     1     100.518  96.794  79.620  1.00  0.00     0.050 A 
ATOM     13  C   UNL     1      99.114  96.746  79.728  1.00  0.00     0.009 A 
BRANCH   9  14
ATOM     14  O   UNL     1     101.436  97.802  83.050  1.00  0.00    -0.493 OA
ATOM     15  C   UNL     1     101.074  97.117  84.263  1.00  0.00     0.278 C 
ENDBRANCH   9  14
BRANCH  10  16
ATOM     16  O   UNL     1     102.658  97.140  80.620  1.00  0.00    -0.504 OA
ATOM     17  H   UNL     1     102.903  97.612  79.820  1.00  0.00     0.293 HD
ENDBRANCH  10  16
ENDBRANCH   7   8
ENDBRANCH   4   7
ENDBRANCH   2   3
ENDBRANCH   1   2
BRANCH   1  18
ATOM     18  C   UNL     1      93.734  96.570  77.381  1.00  0.00     0.001 C 
BRANCH  18  19
ATOM     19  C   UNL     1      93.224  96.619  75.913  1.00  0.00     0.000 C 
BRANCH  19  20
ATOM     20  C   UNL     1      93.100  95.194  75.304  1.00  0.00     0.000 C 
BRANCH  20  21
ATOM     21  C   UNL     1      92.020  94.304  75.978  1.00  0.00     0.003 C 
BRANCH  21  22
ATOM     22  C   UNL     1      90.553  94.615  75.536  1.00  0.00    -0.017 C 
ATOM     23  C   UNL     1      89.583  94.491  76.745  1.00  0.00     0.007 C 
ATOM     24  C   UNL     1      90.058  93.737  74.349  1.00  0.00     0.007 C 
ENDBRANCH  21  22
ENDBRANCH  20  21
ENDBRANCH  19  20
ENDBRANCH  18  19
ENDBRANCH   1  18
TORSDOF 11
ENDMDL
