MODEL 1
REMARK VINA RESULT:    -6.226      0.000      0.000
REMARK INTER + INTRA:         -11.356
REMARK INTER:                 -10.048
REMARK INTRA:                  -1.308
REMARK UNBOUND:                -1.308
REMARK SMILES COc1cc(CNC(=O)CCCCCCC(C)C)ccc1O
REMARK SMILES IDX 11 1 10 2 8 3 7 4 9 6 6 7 5 8 3 9 21 10 4 11 20 12 19 13
REMARK SMILES IDX 2 14 1 15 22 16 12 18 13 19 14 20 15 21 16 22 17 23 18 24
REMARK H PARENT 7 5 22 17
REMARK Flexibility Score: inf
ROOT
ATOM      1  C   UNL     1      94.838  96.714  75.480  1.00  0.00     0.010 C 
ENDROOT
BRANCH   1   2
ATOM      2  C   UNL     1      94.921  98.262  75.591  1.00  0.00     0.100 C 
BRANCH   2   3
ATOM      3  C   UNL     1      95.557  98.725  76.844  1.00  0.00     0.220 C 
ATOM      4  N   UNL     1      96.163  97.833  77.680  1.00  0.00    -0.352 N 
ATOM      5  H   UNL     1      96.093  96.869  77.390  1.00  0.00     0.163 HD
ATOM      6  O   UNL     1      95.548  99.953  77.105  1.00  0.00    -0.275 OA
BRANCH   4   7
ATOM      7  C   UNL     1      96.859  98.171  78.885  1.00  0.00     0.151 C 
BRANCH   7   8
ATOM      8  C   UNL     1      96.288  97.517  80.095  1.00  0.00    -0.025 A 
ATOM      9  C   UNL     1      95.836  95.485  81.404  1.00  0.00     0.160 A 
ATOM     10  C   UNL     1      95.243  96.268  82.418  1.00  0.00     0.157 A 
ATOM     11  C   UNL     1      96.336  96.113  80.243  1.00  0.00     0.056 A 
ATOM     12  C   UNL     1      95.154  97.663  82.264  1.00  0.00     0.050 A 
ATOM     13  C   UNL     1      95.682  98.286  81.116  1.00  0.00     0.009 A 
BRANCH   9  14
ATOM     14  O   UNL     1      95.891  94.123  81.526  1.00  0.00    -0.493 OA
ATOM     15  C   UNL     1      95.071  93.422  80.574  1.00  0.00     0.278 C 
ENDBRANCH   9  14
BRANCH  10  16
ATOM     16  O   UNL     1      94.751  95.690  83.546  1.00  0.00    -0.504 OA
ATOM     17  H   UNL     1      95.339  95.874  84.282  1.00  0.00     0.293 HD
ENDBRANCH  10  16
ENDBRANCH   7   8
ENDBRANCH   4   7
ENDBRANCH   2   3
ENDBRANCH   1   2
BRANCH   1  18
ATOM     18  C   UNL     1      93.547  96.147  76.137  1.00  0.00     0.001 C 
BRANCH  18  19
ATOM     19  C   UNL     1      93.820  95.156  77.303  1.00  0.00     0.000 C 
BRANCH  19  20
ATOM     20  C   UNL     1      92.866  95.408  78.504  1.00  0.00     0.000 C 
BRANCH  20  21
ATOM     21  C   UNL     1      91.780  94.313  78.696  1.00  0.00     0.003 C 
BRANCH  21  22
ATOM     22  C   UNL     1      90.913  94.028  77.426  1.00  0.00    -0.017 C 
ATOM     23  C   UNL     1      89.406  94.253  77.736  1.00  0.00     0.007 C 
ATOM     24  C   UNL     1      91.139  92.612  76.819  1.00  0.00     0.007 C 
ENDBRANCH  21  22
ENDBRANCH  20  21
ENDBRANCH  19  20
ENDBRANCH  18  19
ENDBRANCH   1  18
TORSDOF 11
ENDMDL
MODEL 2
REMARK VINA RESULT:    -5.421     12.619     14.496
REMARK INTER + INTRA:         -10.056
REMARK INTER:                  -9.166
REMARK INTRA:                  -0.891
REMARK UNBOUND:                -1.308
REMARK SMILES COc1cc(CNC(=O)CCCCCCC(C)C)ccc1O
REMARK SMILES IDX 11 1 10 2 8 3 7 4 9 6 6 7 5 8 3 9 21 10 4 11 20 12 19 13
REMARK SMILES IDX 2 14 1 15 22 16 12 18 13 19 14 20 15 21 16 22 17 23 18 24
REMARK H PARENT 7 5 22 17
REMARK Flexibility Score: inf
ROOT
ATOM      1  C   UNL     1      97.532  83.550  79.650  1.00  0.00     0.010 C 
ENDROOT
BRANCH   1   2
ATOM      2  C   UNL     1      98.921  83.178  80.238  1.00  0.00     0.100 C 
BRANCH   2   3
ATOM      3  C   UNL     1      98.838  82.486  81.543  1.00  0.00     0.220 C 
ATOM      4  N   UNL     1      98.483  83.173  82.667  1.00  0.00    -0.352 N 
ATOM      5  H   UNL     1      98.336  84.162  82.526  1.00  0.00     0.163 HD
ATOM      6  O   UNL     1      99.076  81.254  81.587  1.00  0.00    -0.275 OA
BRANCH   4   7
ATOM      7  C   UNL     1      98.313  82.600  83.967  1.00  0.00     0.151 C 
BRANCH   7   8
ATOM      8  C   UNL     1      97.402  83.388  84.842  1.00  0.00    -0.025 A 
ATOM      9  C   UNL     1      95.620  83.472  86.535  1.00  0.00     0.160 A 
ATOM     10  C   UNL     1      95.692  84.882  86.544  1.00  0.00     0.157 A 
ATOM     11  C   UNL     1      96.461  82.738  85.672  1.00  0.00     0.056 A 
ATOM     12  C   UNL     1      96.597  85.542  85.694  1.00  0.00     0.050 A 
ATOM     13  C   UNL     1      97.454  84.802  84.856  1.00  0.00     0.009 A 
BRANCH   9  14
ATOM     14  O   UNL     1      94.716  82.821  87.329  1.00  0.00    -0.493 OA
ATOM     15  C   UNL     1      93.735  82.067  86.593  1.00  0.00     0.278 C 
ENDBRANCH   9  14
BRANCH  10  16
ATOM     16  O   UNL     1      94.893  85.614  87.364  1.00  0.00    -0.504 OA
ATOM     17  H   UNL     1      95.368  85.818  88.173  1.00  0.00     0.293 HD
ENDBRANCH  10  16
ENDBRANCH   7   8
ENDBRANCH   4   7
ENDBRANCH   2   3
ENDBRANCH   1   2
BRANCH   1  18
ATOM     18  C   UNL     1      97.420  83.198  78.139  1.00  0.00     0.001 C 
BRANCH  18  19
ATOM     19  C   UNL     1      97.508  84.434  77.200  1.00  0.00     0.000 C 
BRANCH  19  20
ATOM     20  C   UNL     1      98.720  84.332  76.232  1.00  0.00     0.000 C 
BRANCH  20  21
ATOM     21  C   UNL     1      99.256  82.887  76.033  1.00  0.00     0.003 C 
BRANCH  21  22
ATOM     22  C   UNL     1     100.815  82.771  76.002  1.00  0.00    -0.017 C 
ATOM     23  C   UNL     1     101.250  81.501  75.217  1.00  0.00     0.007 C 
ATOM     24  C   UNL     1     101.472  82.790  77.413  1.00  0.00     0.007 C 
ENDBRANCH  21  22
ENDBRANCH  20  21
ENDBRANCH  19  20
ENDBRANCH  18  19
ENDBRANCH   1  18
TORSDOF 11
ENDMDL
MODEL 3
REMARK VINA RESULT:    -5.351     13.363     15.728
REMARK INTER + INTRA:          -9.943
REMARK INTER:                  -9.329
REMARK INTRA:                  -0.615
REMARK UNBOUND:                -1.308
REMARK SMILES COc1cc(CNC(=O)CCCCCCC(C)C)ccc1O
REMARK SMILES IDX 11 1 10 2 8 3 7 4 9 6 6 7 5 8 3 9 21 10 4 11 20 12 19 13
REMARK SMILES IDX 2 14 1 15 22 16 12 18 13 19 14 20 15 21 16 22 17 23 18 24
REMARK H PARENT 7 5 22 17
REMARK Flexibility Score: inf
ROOT
ATOM      1  C   UNL     1      96.992  82.792  85.942  1.00  0.00     0.010 C 
ENDROOT
BRANCH   1   2
ATOM      2  C   UNL     1      97.392  83.579  84.663  1.00  0.00     0.100 C 
BRANCH   2   3
ATOM      3  C   UNL     1      97.991  82.723  83.614  1.00  0.00     0.220 C 
ATOM      4  N   UNL     1      98.704  83.282  82.594  1.00  0.00    -0.352 N 
ATOM      5  H   UNL     1      98.736  84.291  82.606  1.00  0.00     0.163 HD
ATOM      6  O   UNL     1      97.850  81.479  83.699  1.00  0.00    -0.275 OA
BRANCH   4   7
ATOM      7  C   UNL     1      99.375  82.555  81.559  1.00  0.00     0.151 C 
BRANCH   7   8
ATOM      8  C   UNL     1      98.905  82.910  80.192  1.00  0.00    -0.025 A 
ATOM      9  C   UNL     1      99.301  83.028  77.768  1.00  0.00     0.160 A 
ATOM     10  C   UNL     1      98.001  83.544  77.578  1.00  0.00     0.157 A 
ATOM     11  C   UNL     1      99.749  82.733  79.073  1.00  0.00     0.056 A 
ATOM     12  C   UNL     1      97.165  83.762  78.689  1.00  0.00     0.050 A 
ATOM     13  C   UNL     1      97.608  83.438  79.986  1.00  0.00     0.009 A 
BRANCH   9  14
ATOM     14  O   UNL     1     100.136  82.849  76.699  1.00  0.00    -0.493 OA
ATOM     15  C   UNL     1     101.313  83.676  76.738  1.00  0.00     0.278 C 
ENDBRANCH   9  14
BRANCH  10  16
ATOM     16  O   UNL     1      97.543  83.839  76.333  1.00  0.00    -0.504 OA
ATOM     17  H   UNL     1      96.618  84.093  76.384  1.00  0.00     0.293 HD
ENDBRANCH  10  16
ENDBRANCH   7   8
ENDBRANCH   4   7
ENDBRANCH   2   3
ENDBRANCH   1   2
BRANCH   1  18
ATOM     18  C   UNL     1      95.461  82.524  86.012  1.00  0.00     0.001 C 
BRANCH  18  19
ATOM     19  C   UNL     1      95.002  81.860  87.341  1.00  0.00     0.000 C 
BRANCH  19  20
ATOM     20  C   UNL     1      93.480  82.062  87.585  1.00  0.00     0.000 C 
BRANCH  20  21
ATOM     21  C   UNL     1      92.575  81.551  86.430  1.00  0.00     0.003 C 
BRANCH  21  22
ATOM     22  C   UNL     1      92.145  80.053  86.556  1.00  0.00    -0.017 C 
ATOM     23  C   UNL     1      91.281  79.631  85.335  1.00  0.00     0.007 C 
ATOM     24  C   UNL     1      91.406  79.724  87.886  1.00  0.00     0.007 C 
ENDBRANCH  21  22
ENDBRANCH  20  21
ENDBRANCH  19  20
ENDBRANCH  18  19
ENDBRANCH   1  18
TORSDOF 11
ENDMDL
MODEL 4
REMARK VINA RESULT:    -5.340     13.001     14.455
REMARK INTER + INTRA:          -9.926
REMARK INTER:                  -9.352
REMARK INTRA:                  -0.574
REMARK UNBOUND:                -1.308
REMARK SMILES COc1cc(CNC(=O)CCCCCCC(C)C)ccc1O
REMARK SMILES IDX 11 1 10 2 8 3 7 4 9 6 6 7 5 8 3 9 21 10 4 11 20 12 19 13
REMARK SMILES IDX 2 14 1 15 22 16 12 18 13 19 14 20 15 21 16 22 17 23 18 24
REMARK H PARENT 7 5 22 17
REMARK Flexibility Score: inf
ROOT
ATOM      1  C   UNL     1      97.913  82.688  78.692  1.00  0.00     0.010 C 
ENDROOT
BRANCH   1   2
ATOM      2  C   UNL     1      98.956  83.214  79.718  1.00  0.00     0.100 C 
BRANCH   2   3
ATOM      3  C   UNL     1      98.980  82.437  80.977  1.00  0.00     0.220 C 
ATOM      4  N   UNL     1      99.009  83.077  82.182  1.00  0.00    -0.352 N 
ATOM      5  H   UNL     1      99.055  84.084  82.123  1.00  0.00     0.163 HD
ATOM      6  O   UNL     1      98.950  81.184  80.911  1.00  0.00    -0.275 OA
BRANCH   4   7
ATOM      7  C   UNL     1      98.977  82.434  83.460  1.00  0.00     0.151 C 
BRANCH   7   8
ATOM      8  C   UNL     1      98.338  83.264  84.518  1.00  0.00    -0.025 A 
ATOM      9  C   UNL     1      98.325  84.148  86.813  1.00  0.00     0.160 A 
ATOM     10  C   UNL     1      97.151  84.878  86.528  1.00  0.00     0.157 A 
ATOM     11  C   UNL     1      98.898  83.333  85.814  1.00  0.00     0.056 A 
ATOM     12  C   UNL     1      96.562  84.787  85.254  1.00  0.00     0.050 A 
ATOM     13  C   UNL     1      97.156  83.994  84.252  1.00  0.00     0.009 A 
BRANCH   9  14
ATOM     14  O   UNL     1      98.884  84.199  88.061  1.00  0.00    -0.493 OA
ATOM     15  C   UNL     1      99.395  82.934  88.520  1.00  0.00     0.278 C 
ENDBRANCH   9  14
BRANCH  10  16
ATOM     16  O   UNL     1      96.576  85.670  87.471  1.00  0.00    -0.504 OA
ATOM     17  H   UNL     1      97.165  86.399  87.678  1.00  0.00     0.293 HD
ENDBRANCH  10  16
ENDBRANCH   7   8
ENDBRANCH   4   7
ENDBRANCH   2   3
ENDBRANCH   1   2
BRANCH   1  18
ATOM     18  C   UNL     1      97.665  83.700  77.537  1.00  0.00     0.001 C 
BRANCH  18  19
ATOM     19  C   UNL     1      98.148  83.195  76.148  1.00  0.00     0.000 C 
BRANCH  19  20
ATOM     20  C   UNL     1      99.665  83.460  75.939  1.00  0.00     0.000 C 
BRANCH  20  21
ATOM     21  C   UNL     1      99.992  84.858  75.344  1.00  0.00     0.003 C 
BRANCH  21  22
ATOM     22  C   UNL     1     101.349  84.934  74.570  1.00  0.00    -0.017 C 
ATOM     23  C   UNL     1     101.247  85.943  73.392  1.00  0.00     0.007 C 
ATOM     24  C   UNL     1     101.858  83.553  74.062  1.00  0.00     0.007 C 
ENDBRANCH  21  22
ENDBRANCH  20  21
ENDBRANCH  19  20
ENDBRANCH  18  19
ENDBRANCH   1  18
TORSDOF 11
ENDMDL
MODEL 5
REMARK VINA RESULT:    -5.284     13.332     16.366
REMARK INTER + INTRA:          -9.835
REMARK INTER:                  -8.976
REMARK INTRA:                  -0.859
REMARK UNBOUND:                -1.308
REMARK SMILES COc1cc(CNC(=O)CCCCCCC(C)C)ccc1O
REMARK SMILES IDX 11 1 10 2 8 3 7 4 9 6 6 7 5 8 3 9 21 10 4 11 20 12 19 13
REMARK SMILES IDX 2 14 1 15 22 16 12 18 13 19 14 20 15 21 16 22 17 23 18 24
REMARK H PARENT 7 5 22 17
REMARK Flexibility Score: inf
ROOT
ATOM      1  C   UNL     1      98.016  81.461  84.037  1.00  0.00     0.010 C 
ENDROOT
BRANCH   1   2
ATOM      2  C   UNL     1      97.740  82.988  84.116  1.00  0.00     0.100 C 
BRANCH   2   3
ATOM      3  C   UNL     1      96.632  83.336  85.034  1.00  0.00     0.220 C 
ATOM      4  N   UNL     1      96.043  82.371  85.799  1.00  0.00    -0.352 N 
ATOM      5  H   UNL     1      96.394  81.438  85.644  1.00  0.00     0.163 HD
ATOM      6  O   UNL     1      96.267  84.534  85.110  1.00  0.00    -0.275 OA
BRANCH   4   7
ATOM      7  C   UNL     1      95.007  82.598  86.760  1.00  0.00     0.151 C 
BRANCH   7   8
ATOM      8  C   UNL     1      93.951  81.549  86.743  1.00  0.00    -0.025 A 
ATOM      9  C   UNL     1      91.602  80.896  86.415  1.00  0.00     0.160 A 
ATOM     10  C   UNL     1      91.940  79.548  86.666  1.00  0.00     0.157 A 
ATOM     11  C   UNL     1      92.605  81.887  86.474  1.00  0.00     0.056 A 
ATOM     12  C   UNL     1      93.269  79.204  86.974  1.00  0.00     0.050 A 
ATOM     13  C   UNL     1      94.270  80.195  87.002  1.00  0.00     0.009 A 
BRANCH   9  14
ATOM     14  O   UNL     1      90.306  81.246  86.153  1.00  0.00    -0.493 OA
ATOM     15  C   UNL     1      89.722  82.097  87.156  1.00  0.00     0.278 C 
ENDBRANCH   9  14
BRANCH  10  16
ATOM     16  O   UNL     1      90.994  78.573  86.617  1.00  0.00    -0.504 OA
ATOM     17  H   UNL     1      90.479  78.667  85.813  1.00  0.00     0.293 HD
ENDBRANCH  10  16
ENDBRANCH   7   8
ENDBRANCH   4   7
ENDBRANCH   2   3
ENDBRANCH   1   2
BRANCH   1  18
ATOM     18  C   UNL     1      98.791  81.071  82.746  1.00  0.00     0.001 C 
BRANCH  18  19
ATOM     19  C   UNL     1      99.876  82.104  82.330  1.00  0.00     0.000 C 
BRANCH  19  20
ATOM     20  C   UNL     1      99.717  82.533  80.844  1.00  0.00     0.000 C 
BRANCH  20  21
ATOM     21  C   UNL     1      98.385  83.270  80.533  1.00  0.00     0.003 C 
BRANCH  21  22
ATOM     22  C   UNL     1      97.661  82.782  79.236  1.00  0.00    -0.017 C 
ATOM     23  C   UNL     1      98.433  81.594  78.595  1.00  0.00     0.007 C 
ATOM     24  C   UNL     1      97.428  83.910  78.188  1.00  0.00     0.007 C 
ENDBRANCH  21  22
ENDBRANCH  20  21
ENDBRANCH  19  20
ENDBRANCH  18  19
ENDBRANCH   1  18
TORSDOF 11
ENDMDL
MODEL 6
REMARK VINA RESULT:    -5.173     13.075     15.964
REMARK INTER + INTRA:          -9.657
REMARK INTER:                  -8.812
REMARK INTRA:                  -0.845
REMARK UNBOUND:                -1.308
REMARK SMILES COc1cc(CNC(=O)CCCCCCC(C)C)ccc1O
REMARK SMILES IDX 11 1 10 2 8 3 7 4 9 6 6 7 5 8 3 9 21 10 4 11 20 12 19 13
REMARK SMILES IDX 2 14 1 15 22 16 12 18 13 19 14 20 15 21 16 22 17 23 18 24
REMARK H PARENT 7 5 22 17
REMARK Flexibility Score: inf
ROOT
ATOM      1  C   UNL     1      98.659  82.329  80.007  1.00  0.00     0.010 C 
ENDROOT
BRANCH   1   2
ATOM      2  C   UNL     1      97.644  83.341  79.406  1.00  0.00     0.100 C 
BRANCH   2   3
ATOM      3  C   UNL     1      97.928  83.686  77.995  1.00  0.00     0.220 C 
ATOM      4  N   UNL     1      99.215  83.770  77.552  1.00  0.00    -0.352 N 
ATOM      5  H   UNL     1      99.916  83.624  78.264  1.00  0.00     0.163 HD
ATOM      6  O   UNL     1      96.962  83.874  77.216  1.00  0.00    -0.275 OA
BRANCH   4   7
ATOM      7  C   UNL     1      99.608  84.038  76.202  1.00  0.00     0.151 C 
BRANCH   7   8
ATOM      8  C   UNL     1     100.250  82.872  75.535  1.00  0.00    -0.025 A 
ATOM      9  C   UNL     1     100.363  80.449  75.126  1.00  0.00     0.160 A 
ATOM     10  C   UNL     1     101.440  80.648  74.234  1.00  0.00     0.157 A 
ATOM     11  C   UNL     1      99.790  81.558  75.783  1.00  0.00     0.056 A 
ATOM     12  C   UNL     1     101.932  81.946  74.009  1.00  0.00     0.050 A 
ATOM     13  C   UNL     1     101.336  83.052  74.646  1.00  0.00     0.009 A 
BRANCH   9  14
ATOM     14  O   UNL     1      99.902  79.187  75.382  1.00  0.00    -0.493 OA
ATOM     15  C   UNL     1      98.678  78.866  74.697  1.00  0.00     0.278 C 
ENDBRANCH   9  14
BRANCH  10  16
ATOM     16  O   UNL     1     102.012  79.598  73.589  1.00  0.00    -0.504 OA
ATOM     17  H   UNL     1     102.775  79.905  73.093  1.00  0.00     0.293 HD
ENDBRANCH  10  16
ENDBRANCH   7   8
ENDBRANCH   4   7
ENDBRANCH   2   3
ENDBRANCH   1   2
BRANCH   1  18
ATOM     18  C   UNL     1      99.135  82.748  81.427  1.00  0.00     0.001 C 
BRANCH  18  19
ATOM     19  C   UNL     1      98.948  81.641  82.502  1.00  0.00     0.000 C 
BRANCH  19  20
ATOM     20  C   UNL     1      97.971  82.093  83.624  1.00  0.00     0.000 C 
BRANCH  20  21
ATOM     21  C   UNL     1      97.581  83.596  83.563  1.00  0.00     0.003 C 
BRANCH  21  22
ATOM     22  C   UNL     1      96.642  84.071  84.718  1.00  0.00    -0.017 C 
ATOM     23  C   UNL     1      97.206  85.359  85.383  1.00  0.00     0.007 C 
ATOM     24  C   UNL     1      96.369  82.978  85.793  1.00  0.00     0.007 C 
ENDBRANCH  21  22
ENDBRANCH  20  21
ENDBRANCH  19  20
ENDBRANCH  18  19
ENDBRANCH   1  18
TORSDOF 11
ENDMDL
MODEL 7
REMARK VINA RESULT:    -5.157     13.177     15.380
REMARK INTER + INTRA:          -9.631
REMARK INTER:                  -8.641
REMARK INTRA:                  -0.990
REMARK UNBOUND:                -1.308
REMARK SMILES COc1cc(CNC(=O)CCCCCCC(C)C)ccc1O
REMARK SMILES IDX 11 1 10 2 8 3 7 4 9 6 6 7 5 8 3 9 21 10 4 11 20 12 19 13
REMARK SMILES IDX 2 14 1 15 22 16 12 18 13 19 14 20 15 21 16 22 17 23 18 24
REMARK H PARENT 7 5 22 17
REMARK Flexibility Score: inf
ROOT
ATOM      1  C   UNL     1      97.840  81.949  84.033  1.00  0.00     0.010 C 
ENDROOT
BRANCH   1   2
ATOM      2  C   UNL     1      98.354  83.346  84.479  1.00  0.00     0.100 C 
BRANCH   2   3
ATOM      3  C   UNL     1      97.499  83.984  85.505  1.00  0.00     0.220 C 
ATOM      4  N   UNL     1      97.087  83.275  86.596  1.00  0.00    -0.352 N 
ATOM      5  H   UNL     1      97.373  82.307  86.602  1.00  0.00     0.163 HD
ATOM      6  O   UNL     1      97.186  85.191  85.362  1.00  0.00    -0.275 OA
BRANCH   4   7
ATOM      7  C   UNL     1      96.310  83.801  87.677  1.00  0.00     0.151 C 
BRANCH   7   8
ATOM      8  C   UNL     1      94.850  83.552  87.526  1.00  0.00    -0.025 A 
ATOM      9  C   UNL     1      93.002  82.122  86.757  1.00  0.00     0.160 A 
ATOM     10  C   UNL     1      92.069  83.047  87.273  1.00  0.00     0.157 A 
ATOM     11  C   UNL     1      94.382  82.389  86.871  1.00  0.00     0.056 A 
ATOM     12  C   UNL     1      92.521  84.226  87.893  1.00  0.00     0.050 A 
ATOM     13  C   UNL     1      93.901  84.473  88.028  1.00  0.00     0.009 A 
BRANCH   9  14
ATOM     14  O   UNL     1      92.572  80.991  86.118  1.00  0.00    -0.493 OA
ATOM     15  C   UNL     1      92.612  79.810  86.939  1.00  0.00     0.278 C 
ENDBRANCH   9  14
BRANCH  10  16
ATOM     16  O   UNL     1      90.733  82.816  87.177  1.00  0.00    -0.504 OA
ATOM     17  H   UNL     1      90.432  82.348  87.959  1.00  0.00     0.293 HD
ENDBRANCH  10  16
ENDBRANCH   7   8
ENDBRANCH   4   7
ENDBRANCH   2   3
ENDBRANCH   1   2
BRANCH   1  18
ATOM     18  C   UNL     1      98.676  81.362  82.861  1.00  0.00     0.001 C 
BRANCH  18  19
ATOM     19  C   UNL     1      99.834  82.288  82.392  1.00  0.00     0.000 C 
BRANCH  19  20
ATOM     20  C   UNL     1      99.620  82.777  80.932  1.00  0.00     0.000 C 
BRANCH  20  21
ATOM     21  C   UNL     1      98.192  83.319  80.645  1.00  0.00     0.003 C 
BRANCH  21  22
ATOM     22  C   UNL     1      97.604  82.898  79.258  1.00  0.00    -0.017 C 
ATOM     23  C   UNL     1      98.314  81.618  78.732  1.00  0.00     0.007 C 
ATOM     24  C   UNL     1      97.655  84.028  78.188  1.00  0.00     0.007 C 
ENDBRANCH  21  22
ENDBRANCH  20  21
ENDBRANCH  19  20
ENDBRANCH  18  19
ENDBRANCH   1  18
TORSDOF 11
ENDMDL
MODEL 8
REMARK VINA RESULT:    -5.110     14.513     16.798
REMARK INTER + INTRA:          -9.554
REMARK INTER:                  -8.538
REMARK INTRA:                  -1.016
REMARK UNBOUND:                -1.308
REMARK SMILES COc1cc(CNC(=O)CCCCCCC(C)C)ccc1O
REMARK SMILES IDX 11 1 10 2 8 3 7 4 9 6 6 7 5 8 3 9 21 10 4 11 20 12 19 13
REMARK SMILES IDX 2 14 1 15 22 16 12 18 13 19 14 20 15 21 16 22 17 23 18 24
REMARK H PARENT 7 5 22 17
REMARK Flexibility Score: inf
ROOT
ATOM      1  C   UNL     1      96.524  84.137  88.382  1.00  0.00     0.010 C 
ENDROOT
BRANCH   1   2
ATOM      2  C   UNL     1      95.448  84.026  89.498  1.00  0.00     0.100 C 
BRANCH   2   3
ATOM      3  C   UNL     1      94.086  84.375  89.034  1.00  0.00     0.220 C 
ATOM      4  N   UNL     1      93.244  83.404  88.576  1.00  0.00    -0.352 N 
ATOM      5  H   UNL     1      93.646  82.478  88.546  1.00  0.00     0.163 HD
ATOM      6  O   UNL     1      93.719  85.574  89.095  1.00  0.00    -0.275 OA
BRANCH   4   7
ATOM      7  C   UNL     1      91.891  83.614  88.157  1.00  0.00     0.151 C 
BRANCH   7   8
ATOM      8  C   UNL     1      91.365  82.515  87.301  1.00  0.00    -0.025 A 
ATOM      9  C   UNL     1      89.470  81.376  86.224  1.00  0.00     0.160 A 
ATOM     10  C   UNL     1      90.359  80.451  85.634  1.00  0.00     0.157 A 
ATOM     11  C   UNL     1      89.977  82.388  87.066  1.00  0.00     0.056 A 
ATOM     12  C   UNL     1      91.739  80.544  85.891  1.00  0.00     0.050 A 
ATOM     13  C   UNL     1      92.241  81.574  86.710  1.00  0.00     0.009 A 
BRANCH   9  14
ATOM     14  O   UNL     1      88.123  81.271  86.012  1.00  0.00    -0.493 OA
ATOM     15  C   UNL     1      87.547  82.418  85.361  1.00  0.00     0.278 C 
ENDBRANCH   9  14
BRANCH  10  16
ATOM     16  O   UNL     1      89.899  79.465  84.819  1.00  0.00    -0.504 OA
ATOM     17  H   UNL     1      90.638  78.938  84.506  1.00  0.00     0.293 HD
ENDBRANCH  10  16
ENDBRANCH   7   8
ENDBRANCH   4   7
ENDBRANCH   2   3
ENDBRANCH   1   2
BRANCH   1  18
ATOM     18  C   UNL     1      96.747  82.785  87.647  1.00  0.00     0.001 C 
BRANCH  18  19
ATOM     19  C   UNL     1      95.983  82.672  86.298  1.00  0.00     0.000 C 
BRANCH  19  20
ATOM     20  C   UNL     1      96.395  83.800  85.311  1.00  0.00     0.000 C 
BRANCH  20  21
ATOM     21  C   UNL     1      97.765  83.568  84.614  1.00  0.00     0.003 C 
BRANCH  21  22
ATOM     22  C   UNL     1      97.723  82.563  83.417  1.00  0.00    -0.017 C 
ATOM     23  C   UNL     1      98.266  81.174  83.855  1.00  0.00     0.007 C 
ATOM     24  C   UNL     1      98.475  83.067  82.150  1.00  0.00     0.007 C 
ENDBRANCH  21  22
ENDBRANCH  20  21
ENDBRANCH  19  20
ENDBRANCH  18  19
ENDBRANCH   1  18
TORSDOF 11
ENDMDL
MODEL 9
REMARK VINA RESULT:    -4.956      4.384      5.839
REMARK INTER + INTRA:          -9.305
REMARK INTER:                  -8.652
REMARK INTRA:                  -0.653
REMARK UNBOUND:                -1.308
REMARK SMILES COc1cc(CNC(=O)CCCCCCC(C)C)ccc1O
REMARK SMILES IDX 11 1 10 2 8 3 7 4 9 6 6 7 5 8 3 9 21 10 4 11 20 12 19 13
REMARK SMILES IDX 2 14 1 15 22 16 12 18 13 19 14 20 15 21 16 22 17 23 18 24
REMARK H PARENT 7 5 22 17
REMARK Flexibility Score: inf
ROOT
ATOM      1  C   UNL     1      96.911  95.380  80.928  1.00  0.00     0.010 C 
ENDROOT
BRANCH   1   2
ATOM      2  C   UNL     1      95.952  95.007  82.092  1.00  0.00     0.100 C 
BRANCH   2   3
ATOM      3  C   UNL     1      95.615  96.155  82.963  1.00  0.00     0.220 C 
ATOM      4  N   UNL     1      96.542  96.658  83.829  1.00  0.00    -0.352 N 
ATOM      5  H   UNL     1      97.420  96.160  83.842  1.00  0.00     0.163 HD
ATOM      6  O   UNL     1      94.473  96.666  82.870  1.00  0.00    -0.275 OA
BRANCH   4   7
ATOM      7  C   UNL     1      96.350  97.797  84.675  1.00  0.00     0.151 C 
BRANCH   7   8
ATOM      8  C   UNL     1      97.316  97.856  85.806  1.00  0.00    -0.025 A 
ATOM      9  C   UNL     1      99.494  97.260  86.780  1.00  0.00     0.160 A 
ATOM     10  C   UNL     1      99.181  98.002  87.940  1.00  0.00     0.157 A 
ATOM     11  C   UNL     1      98.554  97.177  85.732  1.00  0.00     0.056 A 
ATOM     12  C   UNL     1      97.937  98.650  88.042  1.00  0.00     0.050 A 
ATOM     13  C   UNL     1      97.015  98.588  86.979  1.00  0.00     0.009 A 
BRANCH   9  14
ATOM     14  O   UNL     1     100.686  96.593  86.688  1.00  0.00    -0.493 OA
ATOM     15  C   UNL     1     101.707  97.324  85.985  1.00  0.00     0.278 C 
ENDBRANCH   9  14
BRANCH  10  16
ATOM     16  O   UNL     1     100.068  98.097  88.966  1.00  0.00    -0.504 OA
ATOM     17  H   UNL     1      99.589  98.177  89.795  1.00  0.00     0.293 HD
ENDBRANCH  10  16
ENDBRANCH   7   8
ENDBRANCH   4   7
ENDBRANCH   2   3
ENDBRANCH   1   2
BRANCH   1  18
ATOM     18  C   UNL     1      96.147  95.653  79.602  1.00  0.00     0.001 C 
BRANCH  18  19
ATOM     19  C   UNL     1      95.251  94.469  79.139  1.00  0.00     0.000 C 
BRANCH  19  20
ATOM     20  C   UNL     1      94.523  94.791  77.804  1.00  0.00     0.000 C 
BRANCH  20  21
ATOM     21  C   UNL     1      93.318  95.760  77.953  1.00  0.00     0.003 C 
BRANCH  21  22
ATOM     22  C   UNL     1      91.920  95.103  77.706  1.00  0.00    -0.017 C 
ATOM     23  C   UNL     1      90.811  96.191  77.644  1.00  0.00     0.007 C 
ATOM     24  C   UNL     1      91.551  94.007  78.748  1.00  0.00     0.007 C 
ENDBRANCH  21  22
ENDBRANCH  20  21
ENDBRANCH  19  20
ENDBRANCH  18  19
ENDBRANCH   1  18
TORSDOF 11
ENDMDL
MODEL 10
REMARK VINA RESULT:    -4.941     13.813     16.235
REMARK INTER + INTRA:          -9.282
REMARK INTER:                  -8.118
REMARK INTRA:                  -1.164
REMARK UNBOUND:                -1.308
REMARK SMILES COc1cc(CNC(=O)CCCCCCC(C)C)ccc1O
REMARK SMILES IDX 11 1 10 2 8 3 7 4 9 6 6 7 5 8 3 9 21 10 4 11 20 12 19 13
REMARK SMILES IDX 2 14 1 15 22 16 12 18 13 19 14 20 15 21 16 22 17 23 18 24
REMARK H PARENT 7 5 22 17
REMARK Flexibility Score: inf
ROOT
ATOM      1  C   UNL     1      93.691  81.986  86.560  1.00  0.00     0.010 C 
ENDROOT
BRANCH   1   2
ATOM      2  C   UNL     1      94.298  83.207  87.304  1.00  0.00     0.100 C 
BRANCH   2   3
ATOM      3  C   UNL     1      95.597  83.645  86.745  1.00  0.00     0.220 C 
ATOM      4  N   UNL     1      95.752  83.795  85.398  1.00  0.00    -0.352 N 
ATOM      5  H   UNL     1      94.943  83.542  84.850  1.00  0.00     0.163 HD
ATOM      6  O   UNL     1      96.537  83.899  87.537  1.00  0.00    -0.275 OA
BRANCH   4   7
ATOM      7  C   UNL     1      96.938  84.267  84.750  1.00  0.00     0.151 C 
BRANCH   7   8
ATOM      8  C   UNL     1      97.588  83.237  83.894  1.00  0.00    -0.025 A 
ATOM      9  C   UNL     1      98.671  82.600  81.780  1.00  0.00     0.160 A 
ATOM     10  C   UNL     1      98.868  81.291  82.272  1.00  0.00     0.157 A 
ATOM     11  C   UNL     1      98.017  83.555  82.585  1.00  0.00     0.056 A 
ATOM     12  C   UNL     1      98.411  80.951  83.559  1.00  0.00     0.050 A 
ATOM     13  C   UNL     1      97.786  81.919  84.369  1.00  0.00     0.009 A 
BRANCH   9  14
ATOM     14  O   UNL     1      99.076  82.930  80.515  1.00  0.00    -0.493 OA
ATOM     15  C   UNL     1      97.990  83.137  79.594  1.00  0.00     0.278 C 
ENDBRANCH   9  14
BRANCH  10  16
ATOM     16  O   UNL     1      99.494  80.350  81.518  1.00  0.00    -0.504 OA
ATOM     17  H   UNL     1      98.944  79.564  81.467  1.00  0.00     0.293 HD
ENDBRANCH  10  16
ENDBRANCH   7   8
ENDBRANCH   4   7
ENDBRANCH   2   3
ENDBRANCH   1   2
BRANCH   1  18
ATOM     18  C   UNL     1      94.292  80.639  87.054  1.00  0.00     0.001 C 
BRANCH  18  19
ATOM     19  C   UNL     1      93.283  79.456  87.030  1.00  0.00     0.000 C 
BRANCH  19  20
ATOM     20  C   UNL     1      91.850  79.934  86.666  1.00  0.00     0.000 C 
BRANCH  20  21
ATOM     21  C   UNL     1      90.929  80.181  87.893  1.00  0.00     0.003 C 
BRANCH  21  22
ATOM     22  C   UNL     1      89.956  81.395  87.743  1.00  0.00    -0.017 C 
ATOM     23  C   UNL     1      89.977  81.932  86.284  1.00  0.00     0.007 C 
ATOM     24  C   UNL     1      90.234  82.548  88.751  1.00  0.00     0.007 C 
ENDBRANCH  21  22
ENDBRANCH  20  21
ENDBRANCH  19  20
ENDBRANCH  18  19
ENDBRANCH   1  18
TORSDOF 11
ENDMDL
