MODEL 1
REMARK VINA RESULT:    -5.829      0.000      0.000
REMARK INTER + INTRA:         -10.144
REMARK INTER:                  -9.066
REMARK INTRA:                  -1.078
REMARK UNBOUND:                -1.078
REMARK SMILES COc1cc(CNC(=O)CCCCCC(C)C)ccc1O
REMARK SMILES IDX 10 1 8 2 7 3 9 5 6 6 5 7 3 8 20 9 4 10 19 11 18 12 2 13 1 14
REMARK SMILES IDX 21 15 11 17 12 18 13 19 14 20 15 21 16 22 17 23
REMARK H PARENT 7 4 21 16
REMARK Flexibility Score: inf
ROOT
ATOM      1  C   UNL     1      92.696  94.866  75.301  1.00  0.00     0.100 C 
ENDROOT
BRANCH   1   2
ATOM      2  C   UNL     1      94.105  94.570  75.631  1.00  0.00     0.220 C 
ATOM      3  N   UNL     1      94.841  95.492  76.313  1.00  0.00    -0.352 N 
ATOM      4  H   UNL     1      94.394  96.389  76.433  1.00  0.00     0.163 HD
ATOM      5  O   UNL     1      94.584  93.454  75.312  1.00  0.00    -0.275 OA
BRANCH   3   6
ATOM      6  C   UNL     1      96.148  95.270  76.845  1.00  0.00     0.151 C 
BRANCH   6   7
ATOM      7  C   UNL     1      96.160  95.122  78.325  1.00  0.00    -0.025 A 
ATOM      8  C   UNL     1      96.663  96.027  80.555  1.00  0.00     0.160 A 
ATOM      9  C   UNL     1      96.120  94.867  81.146  1.00  0.00     0.157 A 
ATOM     10  C   UNL     1      96.697  96.139  79.149  1.00  0.00     0.056 A 
ATOM     11  C   UNL     1      95.607  93.837  80.336  1.00  0.00     0.050 A 
ATOM     12  C   UNL     1      95.621  93.965  78.937  1.00  0.00     0.009 A 
BRANCH   8  13
ATOM     13  O   UNL     1      97.186  97.032  81.326  1.00  0.00    -0.493 OA
ATOM     14  C   UNL     1      96.260  98.103  81.591  1.00  0.00     0.278 C 
ENDBRANCH   8  13
BRANCH   9  15
ATOM     15  O   UNL     1      96.085  94.748  82.497  1.00  0.00    -0.504 OA
ATOM     16  H   UNL     1      96.759  95.310  82.886  1.00  0.00     0.293 HD
ENDBRANCH   9  15
ENDBRANCH   6   7
ENDBRANCH   3   6
ENDBRANCH   1   2
BRANCH   1  17
ATOM     17  C   UNL     1      91.737  94.848  76.522  1.00  0.00     0.010 C 
BRANCH  17  18
ATOM     18  C   UNL     1      90.429  94.069  76.212  1.00  0.00     0.001 C 
BRANCH  18  19
ATOM     19  C   UNL     1      90.595  92.529  76.296  1.00  0.00     0.000 C 
BRANCH  19  20
ATOM     20  C   UNL     1      89.721  91.784  75.246  1.00  0.00     0.003 C 
BRANCH  20  21
ATOM     21  C   UNL     1      90.390  91.597  73.845  1.00  0.00    -0.017 C 
ATOM     22  C   UNL     1      91.936  91.469  73.980  1.00  0.00     0.007 C 
ATOM     23  C   UNL     1      90.033  92.737  72.847  1.00  0.00     0.007 C 
ENDBRANCH  20  21
ENDBRANCH  19  20
ENDBRANCH  18  19
ENDBRANCH  17  18
ENDBRANCH   1  17
TORSDOF 10
ENDMDL
MODEL 2
REMARK VINA RESULT:    -5.511      2.485      8.755
REMARK INTER + INTRA:          -9.650
REMARK INTER:                  -8.954
REMARK INTRA:                  -0.695
REMARK UNBOUND:                -1.078
REMARK SMILES COc1cc(CNC(=O)CCCCCC(C)C)ccc1O
REMARK SMILES IDX 10 1 8 2 7 3 9 5 6 6 5 7 3 8 20 9 4 10 19 11 18 12 2 13 1 14
REMARK SMILES IDX 21 15 11 17 12 18 13 19 14 20 15 21 16 22 17 23
REMARK H PARENT 7 4 21 16
REMARK Flexibility Score: inf
ROOT
ATOM      1  C   UNL     1      94.375  94.530  78.082  1.00  0.00     0.100 C 
ENDROOT
BRANCH   1   2
ATOM      2  C   UNL     1      94.165  94.039  76.704  1.00  0.00     0.220 C 
ATOM      3  N   UNL     1      92.900  93.976  76.201  1.00  0.00    -0.352 N 
ATOM      4  H   UNL     1      92.166  94.152  76.873  1.00  0.00     0.163 HD
ATOM      5  O   UNL     1      95.164  93.729  76.010  1.00  0.00    -0.275 OA
BRANCH   3   6
ATOM      6  C   UNL     1      92.569  93.688  74.842  1.00  0.00     0.151 C 
BRANCH   6   7
ATOM      7  C   UNL     1      91.626  92.547  74.699  1.00  0.00    -0.025 A 
ATOM      8  C   UNL     1      89.999  91.280  73.359  1.00  0.00     0.160 A 
ATOM      9  C   UNL     1      89.879  90.336  74.401  1.00  0.00     0.157 A 
ATOM     10  C   UNL     1      90.857  92.389  73.522  1.00  0.00     0.056 A 
ATOM     11  C   UNL     1      90.619  90.498  75.587  1.00  0.00     0.050 A 
ATOM     12  C   UNL     1      91.490  91.591  75.733  1.00  0.00     0.009 A 
BRANCH   8  13
ATOM     13  O   UNL     1      89.273  91.151  72.204  1.00  0.00    -0.493 OA
ATOM     14  C   UNL     1      90.038  90.660  71.087  1.00  0.00     0.278 C 
ENDBRANCH   8  13
BRANCH   9  15
ATOM     15  O   UNL     1      89.056  89.268  74.255  1.00  0.00    -0.504 OA
ATOM     16  H   UNL     1      88.660  89.285  73.381  1.00  0.00     0.293 HD
ENDBRANCH   9  15
ENDBRANCH   6   7
ENDBRANCH   3   6
ENDBRANCH   1   2
BRANCH   1  17
ATOM     17  C   UNL     1      95.745  94.139  78.698  1.00  0.00     0.010 C 
BRANCH  17  18
ATOM     18  C   UNL     1      95.600  93.695  80.180  1.00  0.00     0.001 C 
BRANCH  18  19
ATOM     19  C   UNL     1      96.447  94.546  81.163  1.00  0.00     0.000 C 
BRANCH  19  20
ATOM     20  C   UNL     1      97.283  95.635  80.430  1.00  0.00     0.003 C 
BRANCH  20  21
ATOM     21  C   UNL     1      96.752  97.097  80.593  1.00  0.00    -0.017 C 
ATOM     22  C   UNL     1      97.810  98.130  80.104  1.00  0.00     0.007 C 
ATOM     23  C   UNL     1      96.321  97.423  82.052  1.00  0.00     0.007 C 
ENDBRANCH  20  21
ENDBRANCH  19  20
ENDBRANCH  18  19
ENDBRANCH  17  18
ENDBRANCH   1  17
TORSDOF 10
ENDMDL
MODEL 3
REMARK VINA RESULT:    -5.414     28.585     31.005
REMARK INTER + INTRA:          -9.499
REMARK INTER:                  -8.872
REMARK INTRA:                  -0.626
REMARK UNBOUND:                -1.078
REMARK SMILES COc1cc(CNC(=O)CCCCCC(C)C)ccc1O
REMARK SMILES IDX 10 1 8 2 7 3 9 5 6 6 5 7 3 8 20 9 4 10 19 11 18 12 2 13 1 14
REMARK SMILES IDX 21 15 11 17 12 18 13 19 14 20 15 21 16 22 17 23
REMARK H PARENT 7 4 21 16
REMARK Flexibility Score: inf
ROOT
ATOM      1  C   UNL     1      81.747  64.771  75.938  1.00  0.00     0.100 C 
ENDROOT
BRANCH   1   2
ATOM      2  C   UNL     1      83.108  65.057  76.439  1.00  0.00     0.220 C 
ATOM      3  N   UNL     1      83.870  64.038  76.928  1.00  0.00    -0.352 N 
ATOM      4  H   UNL     1      83.385  63.159  77.034  1.00  0.00     0.163 HD
ATOM      5  O   UNL     1      83.549  66.230  76.366  1.00  0.00    -0.275 OA
BRANCH   3   6
ATOM      6  C   UNL     1      85.250  64.140  77.280  1.00  0.00     0.151 C 
BRANCH   6   7
ATOM      7  C   UNL     1      85.466  64.359  78.736  1.00  0.00    -0.025 A 
ATOM      8  C   UNL     1      86.323  65.742  80.580  1.00  0.00     0.160 A 
ATOM      9  C   UNL     1      85.819  64.810  81.511  1.00  0.00     0.157 A 
ATOM     10  C   UNL     1      86.160  65.502  79.199  1.00  0.00     0.056 A 
ATOM     11  C   UNL     1      85.151  63.656  81.061  1.00  0.00     0.050 A 
ATOM     12  C   UNL     1      84.971  63.435  79.685  1.00  0.00     0.009 A 
BRANCH   8  13
ATOM     13  O   UNL     1      86.994  66.862  80.996  1.00  0.00    -0.493 OA
ATOM     14  C   UNL     1      88.183  67.145  80.234  1.00  0.00     0.278 C 
ENDBRANCH   8  13
BRANCH   9  15
ATOM     15  O   UNL     1      85.973  65.030  82.841  1.00  0.00    -0.504 OA
ATOM     16  H   UNL     1      86.197  65.951  82.989  1.00  0.00     0.293 HD
ENDBRANCH   9  15
ENDBRANCH   6   7
ENDBRANCH   3   6
ENDBRANCH   1   2
BRANCH   1  17
ATOM     17  C   UNL     1      81.713  64.007  74.587  1.00  0.00     0.010 C 
BRANCH  17  18
ATOM     18  C   UNL     1      80.313  64.089  73.918  1.00  0.00     0.001 C 
BRANCH  18  19
ATOM     19  C   UNL     1      80.124  65.353  73.039  1.00  0.00     0.000 C 
BRANCH  19  20
ATOM     20  C   UNL     1      81.440  65.776  72.325  1.00  0.00     0.003 C 
BRANCH  20  21
ATOM     21  C   UNL     1      81.246  66.455  70.930  1.00  0.00    -0.017 C 
ATOM     22  C   UNL     1      81.748  67.929  70.956  1.00  0.00     0.007 C 
ATOM     23  C   UNL     1      79.773  66.402  70.432  1.00  0.00     0.007 C 
ENDBRANCH  20  21
ENDBRANCH  19  20
ENDBRANCH  18  19
ENDBRANCH  17  18
ENDBRANCH   1  17
TORSDOF 10
ENDMDL
MODEL 4
REMARK VINA RESULT:    -5.409      2.520      8.775
REMARK INTER + INTRA:          -9.492
REMARK INTER:                  -8.773
REMARK INTRA:                  -0.718
REMARK UNBOUND:                -1.078
REMARK SMILES COc1cc(CNC(=O)CCCCCC(C)C)ccc1O
REMARK SMILES IDX 10 1 8 2 7 3 9 5 6 6 5 7 3 8 20 9 4 10 19 11 18 12 2 13 1 14
REMARK SMILES IDX 21 15 11 17 12 18 13 19 14 20 15 21 16 22 17 23
REMARK H PARENT 7 4 21 16
REMARK Flexibility Score: inf
ROOT
ATOM      1  C   UNL     1      95.212  94.414  79.722  1.00  0.00     0.100 C 
ENDROOT
BRANCH   1   2
ATOM      2  C   UNL     1      94.947  94.004  78.327  1.00  0.00     0.220 C 
ATOM      3  N   UNL     1      93.659  93.856  77.906  1.00  0.00    -0.352 N 
ATOM      4  H   UNL     1      92.964  93.912  78.636  1.00  0.00     0.163 HD
ATOM      5  O   UNL     1      95.916  93.842  77.546  1.00  0.00    -0.275 OA
BRANCH   3   6
ATOM      6  C   UNL     1      93.258  93.635  76.553  1.00  0.00     0.151 C 
BRANCH   6   7
ATOM      7  C   UNL     1      91.960  92.916  76.439  1.00  0.00    -0.025 A 
ATOM      8  C   UNL     1      90.574  91.170  75.400  1.00  0.00     0.160 A 
ATOM      9  C   UNL     1      89.511  91.502  76.267  1.00  0.00     0.157 A 
ATOM     10  C   UNL     1      91.785  91.892  75.479  1.00  0.00     0.056 A 
ATOM     11  C   UNL     1      89.666  92.536  77.208  1.00  0.00     0.050 A 
ATOM     12  C   UNL     1      90.882  93.235  77.297  1.00  0.00     0.009 A 
BRANCH   8  13
ATOM     13  O   UNL     1      90.438  90.179  74.464  1.00  0.00    -0.493 OA
ATOM     14  C   UNL     1      91.274  89.031  74.705  1.00  0.00     0.278 C 
ENDBRANCH   8  13
BRANCH   9  15
ATOM     15  O   UNL     1      88.343  90.816  76.198  1.00  0.00    -0.504 OA
ATOM     16  H   UNL     1      88.453  89.954  76.605  1.00  0.00     0.293 HD
ENDBRANCH   9  15
ENDBRANCH   6   7
ENDBRANCH   3   6
ENDBRANCH   1   2
BRANCH   1  17
ATOM     17  C   UNL     1      96.328  95.482  79.872  1.00  0.00     0.010 C 
BRANCH  17  18
ATOM     18  C   UNL     1      97.409  95.041  80.897  1.00  0.00     0.001 C 
BRANCH  18  19
ATOM     19  C   UNL     1      98.676  95.936  80.881  1.00  0.00     0.000 C 
BRANCH  19  20
ATOM     20  C   UNL     1      98.784  96.825  82.154  1.00  0.00     0.003 C 
BRANCH  20  21
ATOM     21  C   UNL     1      98.051  98.203  82.061  1.00  0.00    -0.017 C 
ATOM     22  C   UNL     1      96.631  98.119  82.695  1.00  0.00     0.007 C 
ATOM     23  C   UNL     1      97.954  98.739  80.603  1.00  0.00     0.007 C 
ENDBRANCH  20  21
ENDBRANCH  19  20
ENDBRANCH  18  19
ENDBRANCH  17  18
ENDBRANCH   1  17
TORSDOF 10
ENDMDL
MODEL 5
REMARK VINA RESULT:    -5.392     29.112     32.077
REMARK INTER + INTRA:          -9.464
REMARK INTER:                  -8.024
REMARK INTRA:                  -1.440
REMARK UNBOUND:                -1.078
REMARK SMILES COc1cc(CNC(=O)CCCCCC(C)C)ccc1O
REMARK SMILES IDX 10 1 8 2 7 3 9 5 6 6 5 7 3 8 20 9 4 10 19 11 18 12 2 13 1 14
REMARK SMILES IDX 21 15 11 17 12 18 13 19 14 20 15 21 16 22 17 23
REMARK H PARENT 7 4 21 16
REMARK Flexibility Score: inf
ROOT
ATOM      1  C   UNL     1      61.260  83.822  71.911  1.00  0.00     0.100 C 
ENDROOT
BRANCH   1   2
ATOM      2  C   UNL     1      61.255  84.636  73.145  1.00  0.00     0.220 C 
ATOM      3  N   UNL     1      62.100  84.313  74.164  1.00  0.00    -0.352 N 
ATOM      4  H   UNL     1      62.589  83.437  74.049  1.00  0.00     0.163 HD
ATOM      5  O   UNL     1      60.500  85.637  73.211  1.00  0.00    -0.275 OA
BRANCH   3   6
ATOM      6  C   UNL     1      62.322  85.106  75.330  1.00  0.00     0.151 C 
BRANCH   6   7
ATOM      7  C   UNL     1      63.752  85.465  75.529  1.00  0.00    -0.025 A 
ATOM      8  C   UNL     1      65.944  86.085  74.601  1.00  0.00     0.160 A 
ATOM      9  C   UNL     1      66.458  86.214  75.909  1.00  0.00     0.157 A 
ATOM     10  C   UNL     1      64.600  85.693  74.419  1.00  0.00     0.056 A 
ATOM     11  C   UNL     1      65.631  85.965  77.019  1.00  0.00     0.050 A 
ATOM     12  C   UNL     1      64.287  85.598  76.831  1.00  0.00     0.009 A 
BRANCH   8  13
ATOM     13  O   UNL     1      66.738  86.304  73.506  1.00  0.00    -0.493 OA
ATOM     14  C   UNL     1      66.017  86.764  72.347  1.00  0.00     0.278 C 
ENDBRANCH   8  13
BRANCH   9  15
ATOM     15  O   UNL     1      67.749  86.588  76.094  1.00  0.00    -0.504 OA
ATOM     16  H   UNL     1      67.822  87.541  76.005  1.00  0.00     0.293 HD
ENDBRANCH   9  15
ENDBRANCH   6   7
ENDBRANCH   3   6
ENDBRANCH   1   2
BRANCH   1  17
ATOM     17  C   UNL     1      61.511  82.309  72.147  1.00  0.00     0.010 C 
BRANCH  17  18
ATOM     18  C   UNL     1      62.718  81.792  71.316  1.00  0.00     0.001 C 
BRANCH  18  19
ATOM     19  C   UNL     1      63.711  80.932  72.141  1.00  0.00     0.000 C 
BRANCH  19  20
ATOM     20  C   UNL     1      63.410  80.987  73.667  1.00  0.00     0.003 C 
BRANCH  20  21
ATOM     21  C   UNL     1      64.543  81.619  74.540  1.00  0.00    -0.017 C 
ATOM     22  C   UNL     1      65.881  80.842  74.361  1.00  0.00     0.007 C 
ATOM     23  C   UNL     1      64.169  81.697  76.049  1.00  0.00     0.007 C 
ENDBRANCH  20  21
ENDBRANCH  19  20
ENDBRANCH  18  19
ENDBRANCH  17  18
ENDBRANCH   1  17
TORSDOF 10
ENDMDL
MODEL 6
REMARK VINA RESULT:    -5.356      2.278      7.405
REMARK INTER + INTRA:          -9.408
REMARK INTER:                  -8.438
REMARK INTRA:                  -0.970
REMARK UNBOUND:                -1.078
REMARK SMILES COc1cc(CNC(=O)CCCCCC(C)C)ccc1O
REMARK SMILES IDX 10 1 8 2 7 3 9 5 6 6 5 7 3 8 20 9 4 10 19 11 18 12 2 13 1 14
REMARK SMILES IDX 21 15 11 17 12 18 13 19 14 20 15 21 16 22 17 23
REMARK H PARENT 7 4 21 16
REMARK Flexibility Score: inf
ROOT
ATOM      1  C   UNL     1      95.338  95.603  81.101  1.00  0.00     0.100 C 
ENDROOT
BRANCH   1   2
ATOM      2  C   UNL     1      95.182  94.513  80.116  1.00  0.00     0.220 C 
ATOM      3  N   UNL     1      95.001  94.820  78.801  1.00  0.00    -0.352 N 
ATOM      4  H   UNL     1      94.852  95.801  78.610  1.00  0.00     0.163 HD
ATOM      5  O   UNL     1      95.263  93.323  80.507  1.00  0.00    -0.275 OA
BRANCH   3   6
ATOM      6  C   UNL     1      95.009  93.878  77.728  1.00  0.00     0.151 C 
BRANCH   6   7
ATOM      7  C   UNL     1      93.725  93.834  76.978  1.00  0.00    -0.025 A 
ATOM      8  C   UNL     1      91.320  93.324  76.896  1.00  0.00     0.160 A 
ATOM      9  C   UNL     1      91.264  93.812  75.573  1.00  0.00     0.157 A 
ATOM     10  C   UNL     1      92.553  93.320  77.583  1.00  0.00     0.056 A 
ATOM     11  C   UNL     1      92.429  94.300  74.953  1.00  0.00     0.050 A 
ATOM     12  C   UNL     1      93.648  94.317  75.651  1.00  0.00     0.009 A 
BRANCH   8  13
ATOM     13  O   UNL     1      90.202  92.826  77.512  1.00  0.00    -0.493 OA
ATOM     14  C   UNL     1      90.406  91.547  78.142  1.00  0.00     0.278 C 
ENDBRANCH   8  13
BRANCH   9  15
ATOM     15  O   UNL     1      90.085  93.818  74.903  1.00  0.00    -0.504 OA
ATOM     16  H   UNL     1      90.159  93.267  74.120  1.00  0.00     0.293 HD
ENDBRANCH   9  15
ENDBRANCH   6   7
ENDBRANCH   3   6
ENDBRANCH   1   2
BRANCH   1  17
ATOM     17  C   UNL     1      96.759  96.227  81.143  1.00  0.00     0.010 C 
BRANCH  17  18
ATOM     18  C   UNL     1      96.752  97.701  80.653  1.00  0.00     0.001 C 
BRANCH  18  19
ATOM     19  C   UNL     1      97.102  97.853  79.150  1.00  0.00     0.000 C 
BRANCH  19  20
ATOM     20  C   UNL     1      97.985  96.681  78.630  1.00  0.00     0.003 C 
BRANCH  20  21
ATOM     21  C   UNL     1      98.443  96.810  77.141  1.00  0.00    -0.017 C 
ATOM     22  C   UNL     1      97.470  96.047  76.193  1.00  0.00     0.007 C 
ATOM     23  C   UNL     1      99.903  96.321  76.913  1.00  0.00     0.007 C 
ENDBRANCH  20  21
ENDBRANCH  19  20
ENDBRANCH  18  19
ENDBRANCH  17  18
ENDBRANCH   1  17
TORSDOF 10
ENDMDL
MODEL 7
REMARK VINA RESULT:    -5.345     14.318     16.360
REMARK INTER + INTRA:          -9.391
REMARK INTER:                  -8.838
REMARK INTRA:                  -0.553
REMARK UNBOUND:                -1.078
REMARK SMILES COc1cc(CNC(=O)CCCCCC(C)C)ccc1O
REMARK SMILES IDX 10 1 8 2 7 3 9 5 6 6 5 7 3 8 20 9 4 10 19 11 18 12 2 13 1 14
REMARK SMILES IDX 21 15 11 17 12 18 13 19 14 20 15 21 16 22 17 23
REMARK H PARENT 7 4 21 16
REMARK Flexibility Score: inf
ROOT
ATOM      1  C   UNL     1      95.383  81.522  83.972  1.00  0.00     0.100 C 
ENDROOT
BRANCH   1   2
ATOM      2  C   UNL     1      94.384  81.547  85.061  1.00  0.00     0.220 C 
ATOM      3  N   UNL     1      93.072  81.761  84.761  1.00  0.00    -0.352 N 
ATOM      4  H   UNL     1      92.893  82.024  83.802  1.00  0.00     0.163 HD
ATOM      5  O   UNL     1      94.761  81.327  86.238  1.00  0.00    -0.275 OA
BRANCH   3   6
ATOM      6  C   UNL     1      91.988  81.640  85.682  1.00  0.00     0.151 C 
BRANCH   6   7
ATOM      7  C   UNL     1      91.144  80.440  85.436  1.00  0.00    -0.025 A 
ATOM      8  C   UNL     1      89.053  79.435  84.620  1.00  0.00     0.160 A 
ATOM      9  C   UNL     1      89.562  78.150  84.906  1.00  0.00     0.157 A 
ATOM     10  C   UNL     1      89.839  80.572  84.904  1.00  0.00     0.056 A 
ATOM     11  C   UNL     1      90.848  78.009  85.460  1.00  0.00     0.050 A 
ATOM     12  C   UNL     1      91.635  79.144  85.718  1.00  0.00     0.009 A 
BRANCH   8  13
ATOM     13  O   UNL     1      87.796  79.595  84.099  1.00  0.00    -0.493 OA
ATOM     14  C   UNL     1      87.374  80.969  84.010  1.00  0.00     0.278 C 
ENDBRANCH   8  13
BRANCH   9  15
ATOM     15  O   UNL     1      88.814  77.050  84.639  1.00  0.00    -0.504 OA
ATOM     16  H   UNL     1      88.427  76.721  85.453  1.00  0.00     0.293 HD
ENDBRANCH   9  15
ENDBRANCH   6   7
ENDBRANCH   3   6
ENDBRANCH   1   2
BRANCH   1  17
ATOM     17  C   UNL     1      96.225  82.820  83.848  1.00  0.00     0.010 C 
BRANCH  17  18
ATOM     18  C   UNL     1      96.489  83.192  82.363  1.00  0.00     0.001 C 
BRANCH  18  19
ATOM     19  C   UNL     1      97.162  82.053  81.553  1.00  0.00     0.000 C 
BRANCH  19  20
ATOM     20  C   UNL     1      98.142  82.598  80.473  1.00  0.00     0.003 C 
BRANCH  20  21
ATOM     21  C   UNL     1      97.808  82.175  79.006  1.00  0.00    -0.017 C 
ATOM     22  C   UNL     1      98.812  82.816  78.002  1.00  0.00     0.007 C 
ATOM     23  C   UNL     1      96.348  82.520  78.594  1.00  0.00     0.007 C 
ENDBRANCH  20  21
ENDBRANCH  19  20
ENDBRANCH  18  19
ENDBRANCH  17  18
ENDBRANCH   1  17
TORSDOF 10
ENDMDL
MODEL 8
REMARK VINA RESULT:    -5.333     14.565     17.004
REMARK INTER + INTRA:          -9.373
REMARK INTER:                  -8.534
REMARK INTRA:                  -0.839
REMARK UNBOUND:                -1.078
REMARK SMILES COc1cc(CNC(=O)CCCCCC(C)C)ccc1O
REMARK SMILES IDX 10 1 8 2 7 3 9 5 6 6 5 7 3 8 20 9 4 10 19 11 18 12 2 13 1 14
REMARK SMILES IDX 21 15 11 17 12 18 13 19 14 20 15 21 16 22 17 23
REMARK H PARENT 7 4 21 16
REMARK Flexibility Score: inf
ROOT
ATOM      1  C   UNL     1      83.237  92.527  88.059  1.00  0.00     0.100 C 
ENDROOT
BRANCH   1   2
ATOM      2  C   UNL     1      83.542  91.220  87.440  1.00  0.00     0.220 C 
ATOM      3  N   UNL     1      83.359  91.055  86.099  1.00  0.00    -0.352 N 
ATOM      4  H   UNL     1      82.891  91.822  85.637  1.00  0.00     0.163 HD
ATOM      5  O   UNL     1      84.005  90.300  88.157  1.00  0.00    -0.275 OA
BRANCH   3   6
ATOM      6  C   UNL     1      83.772  89.914  85.348  1.00  0.00     0.151 C 
BRANCH   6   7
ATOM      7  C   UNL     1      82.657  88.974  85.052  1.00  0.00    -0.025 A 
ATOM      8  C   UNL     1      81.637  86.745  85.251  1.00  0.00     0.160 A 
ATOM      9  C   UNL     1      80.504  87.203  84.547  1.00  0.00     0.157 A 
ATOM     10  C   UNL     1      82.714  87.627  85.483  1.00  0.00     0.056 A 
ATOM     11  C   UNL     1      80.447  88.533  84.091  1.00  0.00     0.050 A 
ATOM     12  C   UNL     1      81.512  89.413  84.346  1.00  0.00     0.009 A 
BRANCH   8  13
ATOM     13  O   UNL     1      81.721  85.448  85.687  1.00  0.00    -0.493 OA
ATOM     14  C   UNL     1      82.583  85.271  86.827  1.00  0.00     0.278 C 
ENDBRANCH   8  13
BRANCH   9  15
ATOM     15  O   UNL     1      79.464  86.362  84.318  1.00  0.00    -0.504 OA
ATOM     16  H   UNL     1      78.643  86.795  84.562  1.00  0.00     0.293 HD
ENDBRANCH   9  15
ENDBRANCH   6   7
ENDBRANCH   3   6
ENDBRANCH   1   2
BRANCH   1  17
ATOM     17  C   UNL     1      82.240  92.454  89.246  1.00  0.00     0.010 C 
BRANCH  17  18
ATOM     18  C   UNL     1      81.325  93.708  89.303  1.00  0.00     0.001 C 
BRANCH  18  19
ATOM     19  C   UNL     1      81.899  94.850  90.182  1.00  0.00     0.000 C 
BRANCH  19  20
ATOM     20  C   UNL     1      82.309  96.092  89.339  1.00  0.00     0.003 C 
BRANCH  20  21
ATOM     21  C   UNL     1      82.187  95.909  87.792  1.00  0.00    -0.017 C 
ATOM     22  C   UNL     1      83.590  95.940  87.116  1.00  0.00     0.007 C 
ATOM     23  C   UNL     1      81.253  96.964  87.130  1.00  0.00     0.007 C 
ENDBRANCH  20  21
ENDBRANCH  19  20
ENDBRANCH  18  19
ENDBRANCH  17  18
ENDBRANCH   1  17
TORSDOF 10
ENDMDL
MODEL 9
REMARK VINA RESULT:    -5.316     29.160     31.948
REMARK INTER + INTRA:          -9.347
REMARK INTER:                  -8.876
REMARK INTRA:                  -0.471
REMARK UNBOUND:                -1.078
REMARK SMILES COc1cc(CNC(=O)CCCCCC(C)C)ccc1O
REMARK SMILES IDX 10 1 8 2 7 3 9 5 6 6 5 7 3 8 20 9 4 10 19 11 18 12 2 13 1 14
REMARK SMILES IDX 21 15 11 17 12 18 13 19 14 20 15 21 16 22 17 23
REMARK H PARENT 7 4 21 16
REMARK Flexibility Score: inf
ROOT
ATOM      1  C   UNL     1      85.341  63.851  76.807  1.00  0.00     0.100 C 
ENDROOT
BRANCH   1   2
ATOM      2  C   UNL     1      84.261  64.841  76.623  1.00  0.00     0.220 C 
ATOM      3  N   UNL     1      82.969  64.415  76.540  1.00  0.00    -0.352 N 
ATOM      4  H   UNL     1      82.855  63.414  76.479  1.00  0.00     0.163 HD
ATOM      5  O   UNL     1      84.553  66.062  76.588  1.00  0.00    -0.275 OA
BRANCH   3   6
ATOM      6  C   UNL     1      81.822  65.266  76.536  1.00  0.00     0.151 C 
BRANCH   6   7
ATOM      7  C   UNL     1      81.298  65.535  75.170  1.00  0.00    -0.025 A 
ATOM      8  C   UNL     1      81.123  67.002  73.204  1.00  0.00     0.160 A 
ATOM      9  C   UNL     1      80.358  66.019  72.541  1.00  0.00     0.157 A 
ATOM     10  C   UNL     1      81.572  66.762  74.520  1.00  0.00     0.056 A 
ATOM     11  C   UNL     1      80.057  64.806  73.188  1.00  0.00     0.050 A 
ATOM     12  C   UNL     1      80.528  64.563  74.489  1.00  0.00     0.009 A 
BRANCH   8  13
ATOM     13  O   UNL     1      81.410  68.198  72.600  1.00  0.00    -0.493 OA
ATOM     14  C   UNL     1      82.818  68.423  72.395  1.00  0.00     0.278 C 
ENDBRANCH   8  13
BRANCH   9  15
ATOM     15  O   UNL     1      79.919  66.241  71.277  1.00  0.00    -0.504 OA
ATOM     16  H   UNL     1      79.053  65.842  71.164  1.00  0.00     0.293 HD
ENDBRANCH   9  15
ENDBRANCH   6   7
ENDBRANCH   3   6
ENDBRANCH   1   2
BRANCH   1  17
ATOM     17  C   UNL     1      85.216  63.002  78.101  1.00  0.00     0.010 C 
BRANCH  17  18
ATOM     18  C   UNL     1      85.909  63.693  79.308  1.00  0.00     0.001 C 
BRANCH  18  19
ATOM     19  C   UNL     1      85.444  63.144  80.682  1.00  0.00     0.000 C 
BRANCH  19  20
ATOM     20  C   UNL     1      85.022  64.281  81.658  1.00  0.00     0.003 C 
BRANCH  20  21
ATOM     21  C   UNL     1      86.204  65.125  82.238  1.00  0.00    -0.017 C 
ATOM     22  C   UNL     1      85.846  65.687  83.646  1.00  0.00     0.007 C 
ATOM     23  C   UNL     1      86.639  66.284  81.295  1.00  0.00     0.007 C 
ENDBRANCH  20  21
ENDBRANCH  19  20
ENDBRANCH  18  19
ENDBRANCH  17  18
ENDBRANCH   1  17
TORSDOF 10
ENDMDL
MODEL 10
REMARK VINA RESULT:    -5.295     28.438     30.996
REMARK INTER + INTRA:          -9.314
REMARK INTER:                  -8.427
REMARK INTRA:                  -0.887
REMARK UNBOUND:                -1.078
REMARK SMILES COc1cc(CNC(=O)CCCCCC(C)C)ccc1O
REMARK SMILES IDX 10 1 8 2 7 3 9 5 6 6 5 7 3 8 20 9 4 10 19 11 18 12 2 13 1 14
REMARK SMILES IDX 21 15 11 17 12 18 13 19 14 20 15 21 16 22 17 23
REMARK H PARENT 7 4 21 16
REMARK Flexibility Score: inf
ROOT
ATOM      1  C   UNL     1      83.415  64.113  74.477  1.00  0.00     0.100 C 
ENDROOT
BRANCH   1   2
ATOM      2  C   UNL     1      84.346  63.665  75.534  1.00  0.00     0.220 C 
ATOM      3  N   UNL     1      83.892  63.529  76.812  1.00  0.00    -0.352 N 
ATOM      4  H   UNL     1      82.958  63.879  76.971  1.00  0.00     0.163 HD
ATOM      5  O   UNL     1      85.527  63.378  75.223  1.00  0.00    -0.275 OA
BRANCH   3   6
ATOM      6  C   UNL     1      84.628  62.945  77.887  1.00  0.00     0.151 C 
BRANCH   6   7
ATOM      7  C   UNL     1      85.276  63.954  78.768  1.00  0.00    -0.025 A 
ATOM      8  C   UNL     1      86.089  66.244  79.148  1.00  0.00     0.160 A 
ATOM      9  C   UNL     1      86.449  65.895  80.467  1.00  0.00     0.157 A 
ATOM     10  C   UNL     1      85.522  65.267  78.301  1.00  0.00     0.056 A 
ATOM     11  C   UNL     1      86.233  64.585  80.933  1.00  0.00     0.050 A 
ATOM     12  C   UNL     1      85.646  63.623  80.092  1.00  0.00     0.009 A 
BRANCH   8  13
ATOM     13  O   UNL     1      86.309  67.508  78.669  1.00  0.00    -0.493 OA
ATOM     14  C   UNL     1      85.598  67.801  77.450  1.00  0.00     0.278 C 
ENDBRANCH   8  13
BRANCH   9  15
ATOM     15  O   UNL     1      86.996  66.825  81.288  1.00  0.00    -0.504 OA
ATOM     16  H   UNL     1      86.577  67.675  81.134  1.00  0.00     0.293 HD
ENDBRANCH   9  15
ENDBRANCH   6   7
ENDBRANCH   3   6
ENDBRANCH   1   2
BRANCH   1  17
ATOM     17  C   UNL     1      82.011  64.525  74.996  1.00  0.00     0.010 C 
BRANCH  17  18
ATOM     18  C   UNL     1      80.877  63.836  74.187  1.00  0.00     0.001 C 
BRANCH  18  19
ATOM     19  C   UNL     1      79.845  64.835  73.599  1.00  0.00     0.000 C 
BRANCH  19  20
ATOM     20  C   UNL     1      80.198  66.312  73.938  1.00  0.00     0.003 C 
BRANCH  20  21
ATOM     21  C   UNL     1      80.470  67.227  72.699  1.00  0.00    -0.017 C 
ATOM     22  C   UNL     1      80.199  66.459  71.372  1.00  0.00     0.007 C 
ATOM     23  C   UNL     1      81.909  67.819  72.690  1.00  0.00     0.007 C 
ENDBRANCH  20  21
ENDBRANCH  19  20
ENDBRANCH  18  19
ENDBRANCH  17  18
ENDBRANCH   1  17
TORSDOF 10
ENDMDL
