MODEL 1
REMARK VINA RESULT:    -6.338      0.000      0.000
REMARK INTER + INTRA:         -10.883
REMARK INTER:                 -10.229
REMARK INTRA:                  -0.654
REMARK UNBOUND:                -0.654
REMARK SMILES COc1cc(CNC(=O)CCCCCCC(C)C)ccc1O
REMARK SMILES IDX 11 1 10 2 8 3 7 4 9 6 6 7 5 8 3 9 21 10 4 11 20 12 19 13
REMARK SMILES IDX 2 14 1 15 22 16 12 18 13 19 14 20 15 21 16 22 17 23 18 24
REMARK H PARENT 7 5 22 17
REMARK Flexibility Score: inf
ROOT
ATOM      1  C   UNL     1      91.295  95.229  76.403  1.00  0.00     0.010 C 
ENDROOT
BRANCH   1   2
ATOM      2  C   UNL     1      92.176  96.334  77.050  1.00  0.00     0.100 C 
BRANCH   2   3
ATOM      3  C   UNL     1      93.609  95.974  77.120  1.00  0.00     0.220 C 
ATOM      4  N   UNL     1      94.119  95.391  78.243  1.00  0.00    -0.352 N 
ATOM      5  H   UNL     1      93.457  95.281  78.998  1.00  0.00     0.163 HD
ATOM      6  O   UNL     1      94.335  96.193  76.119  1.00  0.00    -0.275 OA
BRANCH   4   7
ATOM      7  C   UNL     1      95.471  94.948  78.404  1.00  0.00     0.151 C 
BRANCH   7   8
ATOM      8  C   UNL     1      96.337  95.944  79.092  1.00  0.00    -0.025 A 
ATOM      9  C   UNL     1      97.343  96.827  81.155  1.00  0.00     0.160 A 
ATOM     10  C   UNL     1      98.022  97.812  80.405  1.00  0.00     0.157 A 
ATOM     11  C   UNL     1      96.493  95.914  80.496  1.00  0.00     0.056 A 
ATOM     12  C   UNL     1      97.844  97.877  79.011  1.00  0.00     0.050 A 
ATOM     13  C   UNL     1      97.017  96.944  78.357  1.00  0.00     0.009 A 
BRANCH   9  14
ATOM     14  O   UNL     1      97.477  96.780  82.516  1.00  0.00    -0.493 OA
ATOM     15  C   UNL     1      98.226  95.644  82.986  1.00  0.00     0.278 C 
ENDBRANCH   9  14
BRANCH  10  16
ATOM     16  O   UNL     1      98.845  98.706  81.013  1.00  0.00    -0.504 OA
ATOM     17  H   UNL     1      99.672  98.759  80.529  1.00  0.00     0.293 HD
ENDBRANCH  10  16
ENDBRANCH   7   8
ENDBRANCH   4   7
ENDBRANCH   2   3
ENDBRANCH   1   2
BRANCH   1  18
ATOM     18  C   UNL     1      90.949  94.093  77.408  1.00  0.00     0.001 C 
BRANCH  18  19
ATOM     19  C   UNL     1      89.575  93.416  77.139  1.00  0.00     0.000 C 
BRANCH  19  20
ATOM     20  C   UNL     1      89.746  91.960  76.621  1.00  0.00     0.000 C 
BRANCH  20  21
ATOM     21  C   UNL     1      90.274  91.861  75.163  1.00  0.00     0.003 C 
BRANCH  21  22
ATOM     22  C   UNL     1      89.843  90.564  74.403  1.00  0.00    -0.017 C 
ATOM     23  C   UNL     1      88.418  90.733  73.804  1.00  0.00     0.007 C 
ATOM     24  C   UNL     1      89.919  89.275  75.272  1.00  0.00     0.007 C 
ENDBRANCH  21  22
ENDBRANCH  20  21
ENDBRANCH  19  20
ENDBRANCH  18  19
ENDBRANCH   1  18
TORSDOF 11
ENDMDL
MODEL 2
REMARK VINA RESULT:    -6.126      3.829      5.929
REMARK INTER + INTRA:         -10.541
REMARK INTER:                  -9.926
REMARK INTRA:                  -0.615
REMARK UNBOUND:                -0.654
REMARK SMILES COc1cc(CNC(=O)CCCCCCC(C)C)ccc1O
REMARK SMILES IDX 11 1 10 2 8 3 7 4 9 6 6 7 5 8 3 9 21 10 4 11 20 12 19 13
REMARK SMILES IDX 2 14 1 15 22 16 12 18 13 19 14 20 15 21 16 22 17 23 18 24
REMARK H PARENT 7 5 22 17
REMARK Flexibility Score: inf
ROOT
ATOM      1  C   UNL     1      91.277  95.140  77.042  1.00  0.00     0.010 C 
ENDROOT
BRANCH   1   2
ATOM      2  C   UNL     1      92.660  95.447  77.680  1.00  0.00     0.100 C 
BRANCH   2   3
ATOM      3  C   UNL     1      93.686  95.840  76.689  1.00  0.00     0.220 C 
ATOM      4  N   UNL     1      94.183  97.111  76.679  1.00  0.00    -0.352 N 
ATOM      5  H   UNL     1      93.764  97.733  77.355  1.00  0.00     0.163 HD
ATOM      6  O   UNL     1      94.104  94.976  75.880  1.00  0.00    -0.275 OA
BRANCH   4   7
ATOM      7  C   UNL     1      95.216  97.588  75.810  1.00  0.00     0.151 C 
BRANCH   7   8
ATOM      8  C   UNL     1      94.691  98.303  74.614  1.00  0.00    -0.025 A 
ATOM      9  C   UNL     1      94.153 100.405  73.456  1.00  0.00     0.160 A 
ATOM     10  C   UNL     1      93.735  99.676  72.322  1.00  0.00     0.157 A 
ATOM     11  C   UNL     1      94.610  99.714  74.598  1.00  0.00     0.056 A 
ATOM     12  C   UNL     1      93.774  98.270  72.340  1.00  0.00     0.050 A 
ATOM     13  C   UNL     1      94.259  97.587  73.473  1.00  0.00     0.009 A 
BRANCH   9  14
ATOM     14  O   UNL     1      94.082 101.772  73.463  1.00  0.00    -0.493 OA
ATOM     15  C   UNL     1      92.780 102.282  73.802  1.00  0.00     0.278 C 
ENDBRANCH   9  14
BRANCH  10  16
ATOM     16  O   UNL     1      93.289 100.315  71.208  1.00  0.00    -0.504 OA
ATOM     17  H   UNL     1      92.330 100.358  71.228  1.00  0.00     0.293 HD
ENDBRANCH  10  16
ENDBRANCH   7   8
ENDBRANCH   4   7
ENDBRANCH   2   3
ENDBRANCH   1   2
BRANCH   1  18
ATOM     18  C   UNL     1      90.573  93.931  77.720  1.00  0.00     0.001 C 
BRANCH  18  19
ATOM     19  C   UNL     1      89.488  93.258  76.832  1.00  0.00     0.000 C 
BRANCH  19  20
ATOM     20  C   UNL     1      89.904  91.820  76.413  1.00  0.00     0.000 C 
BRANCH  20  21
ATOM     21  C   UNL     1      90.379  91.697  74.939  1.00  0.00     0.003 C 
BRANCH  21  22
ATOM     22  C   UNL     1      89.832  90.444  74.181  1.00  0.00    -0.017 C 
ATOM     23  C   UNL     1      88.344  90.655  73.783  1.00  0.00     0.007 C 
ATOM     24  C   UNL     1      90.002  89.112  74.971  1.00  0.00     0.007 C 
ENDBRANCH  21  22
ENDBRANCH  20  21
ENDBRANCH  19  20
ENDBRANCH  18  19
ENDBRANCH   1  18
TORSDOF 11
ENDMDL
MODEL 3
REMARK VINA RESULT:    -6.095     12.043     14.313
REMARK INTER + INTRA:         -10.491
REMARK INTER:                  -9.934
REMARK INTRA:                  -0.557
REMARK UNBOUND:                -0.654
REMARK SMILES COc1cc(CNC(=O)CCCCCCC(C)C)ccc1O
REMARK SMILES IDX 11 1 10 2 8 3 7 4 9 6 6 7 5 8 3 9 21 10 4 11 20 12 19 13
REMARK SMILES IDX 2 14 1 15 22 16 12 18 13 19 14 20 15 21 16 22 17 23 18 24
REMARK H PARENT 7 5 22 17
REMARK Flexibility Score: inf
ROOT
ATOM      1  C   UNL     1      96.503  82.638  83.584  1.00  0.00     0.010 C 
ENDROOT
BRANCH   1   2
ATOM      2  C   UNL     1      96.566  83.383  82.222  1.00  0.00     0.100 C 
BRANCH   2   3
ATOM      3  C   UNL     1      97.017  82.524  81.105  1.00  0.00     0.220 C 
ATOM      4  N   UNL     1      97.564  83.080  79.985  1.00  0.00    -0.352 N 
ATOM      5  H   UNL     1      97.583  84.089  79.982  1.00  0.00     0.163 HD
ATOM      6  O   UNL     1      96.909  81.279  81.222  1.00  0.00    -0.275 OA
BRANCH   4   7
ATOM      7  C   UNL     1      98.086  82.349  78.870  1.00  0.00     0.151 C 
BRANCH   7   8
ATOM      8  C   UNL     1      97.796  82.992  77.559  1.00  0.00    -0.025 A 
ATOM      9  C   UNL     1      98.251  83.222  75.153  1.00  0.00     0.160 A 
ATOM     10  C   UNL     1      97.221  84.181  75.048  1.00  0.00     0.157 A 
ATOM     11  C   UNL     1      98.543  82.649  76.409  1.00  0.00     0.056 A 
ATOM     12  C   UNL     1      96.496  84.559  76.193  1.00  0.00     0.050 A 
ATOM     13  C   UNL     1      96.774  83.962  77.438  1.00  0.00     0.009 A 
BRANCH   9  14
ATOM     14  O   UNL     1      98.988  82.876  74.053  1.00  0.00    -0.493 OA
ATOM     15  C   UNL     1     100.257  83.549  73.970  1.00  0.00     0.278 C 
ENDBRANCH   9  14
BRANCH  10  16
ATOM     16  O   UNL     1      96.919  84.750  73.851  1.00  0.00    -0.504 OA
ATOM     17  H   UNL     1      96.266  85.442  73.982  1.00  0.00     0.293 HD
ENDBRANCH  10  16
ENDBRANCH   7   8
ENDBRANCH   4   7
ENDBRANCH   2   3
ENDBRANCH   1   2
BRANCH   1  18
ATOM     18  C   UNL     1      95.226  83.001  84.393  1.00  0.00     0.001 C 
BRANCH  18  19
ATOM     19  C   UNL     1      93.968  82.188  83.977  1.00  0.00     0.000 C 
BRANCH  19  20
ATOM     20  C   UNL     1      92.889  82.190  85.096  1.00  0.00     0.000 C 
BRANCH  20  21
ATOM     21  C   UNL     1      91.438  81.973  84.583  1.00  0.00     0.003 C 
BRANCH  21  22
ATOM     22  C   UNL     1      91.151  80.539  84.032  1.00  0.00    -0.017 C 
ATOM     23  C   UNL     1      89.620  80.281  83.957  1.00  0.00     0.007 C 
ATOM     24  C   UNL     1      91.856  79.407  84.836  1.00  0.00     0.007 C 
ENDBRANCH  21  22
ENDBRANCH  20  21
ENDBRANCH  19  20
ENDBRANCH  18  19
ENDBRANCH   1  18
TORSDOF 11
ENDMDL
MODEL 4
REMARK VINA RESULT:    -5.884     13.507     16.710
REMARK INTER + INTRA:         -10.151
REMARK INTER:                  -9.572
REMARK INTRA:                  -0.578
REMARK UNBOUND:                -0.654
REMARK SMILES COc1cc(CNC(=O)CCCCCCC(C)C)ccc1O
REMARK SMILES IDX 11 1 10 2 8 3 7 4 9 6 6 7 5 8 3 9 21 10 4 11 20 12 19 13
REMARK SMILES IDX 2 14 1 15 22 16 12 18 13 19 14 20 15 21 16 22 17 23 18 24
REMARK H PARENT 7 5 22 17
REMARK Flexibility Score: inf
ROOT
ATOM      1  C   UNL     1      96.387  82.242  82.574  1.00  0.00     0.010 C 
ENDROOT
BRANCH   1   2
ATOM      2  C   UNL     1      95.830  81.896  83.983  1.00  0.00     0.100 C 
BRANCH   2   3
ATOM      3  C   UNL     1      94.466  82.421  84.217  1.00  0.00     0.220 C 
ATOM      4  N   UNL     1      93.391  81.581  84.191  1.00  0.00    -0.352 N 
ATOM      5  H   UNL     1      93.611  80.623  83.961  1.00  0.00     0.163 HD
ATOM      6  O   UNL     1      94.326  83.644  84.463  1.00  0.00    -0.275 OA
BRANCH   4   7
ATOM      7  C   UNL     1      92.038  81.963  84.460  1.00  0.00     0.151 C 
BRANCH   7   8
ATOM      8  C   UNL     1      91.075  80.833  84.343  1.00  0.00    -0.025 A 
ATOM      9  C   UNL     1      90.620  78.416  84.325  1.00  0.00     0.160 A 
ATOM     10  C   UNL     1      89.242  78.675  84.164  1.00  0.00     0.157 A 
ATOM     11  C   UNL     1      91.527  79.495  84.394  1.00  0.00     0.056 A 
ATOM     12  C   UNL     1      88.784  80.002  84.073  1.00  0.00     0.050 A 
ATOM     13  C   UNL     1      89.692  81.075  84.172  1.00  0.00     0.009 A 
BRANCH   9  14
ATOM     14  O   UNL     1      91.081  77.129  84.375  1.00  0.00    -0.493 OA
ATOM     15  C   UNL     1      91.749  76.704  83.173  1.00  0.00     0.278 C 
ENDBRANCH   9  14
BRANCH  10  16
ATOM     16  O   UNL     1      88.346  77.656  84.093  1.00  0.00    -0.504 OA
ATOM     17  H   UNL     1      88.554  77.099  83.339  1.00  0.00     0.293 HD
ENDBRANCH  10  16
ENDBRANCH   7   8
ENDBRANCH   4   7
ENDBRANCH   2   3
ENDBRANCH   1   2
BRANCH   1  18
ATOM     18  C   UNL     1      97.881  81.840  82.419  1.00  0.00     0.001 C 
BRANCH  18  19
ATOM     19  C   UNL     1      98.493  82.222  81.041  1.00  0.00     0.000 C 
BRANCH  19  20
ATOM     20  C   UNL     1      97.470  82.029  79.887  1.00  0.00     0.000 C 
BRANCH  20  21
ATOM     21  C   UNL     1      98.081  82.160  78.465  1.00  0.00     0.003 C 
BRANCH  21  22
ATOM     22  C   UNL     1      97.752  83.504  77.736  1.00  0.00    -0.017 C 
ATOM     23  C   UNL     1      96.242  83.845  77.881  1.00  0.00     0.007 C 
ATOM     24  C   UNL     1      98.174  83.522  76.238  1.00  0.00     0.007 C 
ENDBRANCH  21  22
ENDBRANCH  20  21
ENDBRANCH  19  20
ENDBRANCH  18  19
ENDBRANCH   1  18
TORSDOF 11
ENDMDL
MODEL 5
REMARK VINA RESULT:    -5.814      5.556      8.099
REMARK INTER + INTRA:         -10.037
REMARK INTER:                  -9.049
REMARK INTRA:                  -0.988
REMARK UNBOUND:                -0.654
REMARK SMILES COc1cc(CNC(=O)CCCCCCC(C)C)ccc1O
REMARK SMILES IDX 11 1 10 2 8 3 7 4 9 6 6 7 5 8 3 9 21 10 4 11 20 12 19 13
REMARK SMILES IDX 2 14 1 15 22 16 12 18 13 19 14 20 15 21 16 22 17 23 18 24
REMARK H PARENT 7 5 22 17
REMARK Flexibility Score: inf
ROOT
ATOM      1  C   UNL     1      93.750  95.796  75.099  1.00  0.00     0.010 C 
ENDROOT
BRANCH   1   2
ATOM      2  C   UNL     1      94.558  97.100  75.348  1.00  0.00     0.100 C 
BRANCH   2   3
ATOM      3  C   UNL     1      95.416  97.483  74.204  1.00  0.00     0.220 C 
ATOM      4  N   UNL     1      95.199  96.947  72.969  1.00  0.00    -0.352 N 
ATOM      5  H   UNL     1      94.459  96.261  72.932  1.00  0.00     0.163 HD
ATOM      6  O   UNL     1      96.326  98.328  74.392  1.00  0.00    -0.275 OA
BRANCH   4   7
ATOM      7  C   UNL     1      95.924  97.285  71.782  1.00  0.00     0.151 C 
BRANCH   7   8
ATOM      8  C   UNL     1      95.174  98.198  70.877  1.00  0.00    -0.025 A 
ATOM      9  C   UNL     1      93.439  99.908  70.537  1.00  0.00     0.160 A 
ATOM     10  C   UNL     1      93.770  99.975  69.166  1.00  0.00     0.157 A 
ATOM     11  C   UNL     1      94.129  99.009  71.377  1.00  0.00     0.056 A 
ATOM     12  C   UNL     1      94.781  99.145  68.649  1.00  0.00     0.050 A 
ATOM     13  C   UNL     1      95.486  98.270  69.498  1.00  0.00     0.009 A 
BRANCH   9  14
ATOM     14  O   UNL     1      92.430 100.682  71.043  1.00  0.00    -0.493 OA
ATOM     15  C   UNL     1      92.893 101.829  71.779  1.00  0.00     0.278 C 
ENDBRANCH   9  14
BRANCH  10  16
ATOM     16  O   UNL     1      93.120 100.830  68.334  1.00  0.00    -0.504 OA
ATOM     17  H   UNL     1      92.289 101.097  68.735  1.00  0.00     0.293 HD
ENDBRANCH  10  16
ENDBRANCH   7   8
ENDBRANCH   4   7
ENDBRANCH   2   3
ENDBRANCH   1   2
BRANCH   1  18
ATOM     18  C   UNL     1      93.748  94.860  76.341  1.00  0.00     0.001 C 
BRANCH  18  19
ATOM     19  C   UNL     1      92.585  95.139  77.334  1.00  0.00     0.000 C 
BRANCH  19  20
ATOM     20  C   UNL     1      91.333  95.703  76.604  1.00  0.00     0.000 C 
BRANCH  20  21
ATOM     21  C   UNL     1      90.028  94.902  76.867  1.00  0.00     0.003 C 
BRANCH  21  22
ATOM     22  C   UNL     1      89.761  93.742  75.853  1.00  0.00    -0.017 C 
ATOM     23  C   UNL     1      89.953  92.362  76.543  1.00  0.00     0.007 C 
ATOM     24  C   UNL     1      90.626  93.829  74.561  1.00  0.00     0.007 C 
ENDBRANCH  21  22
ENDBRANCH  20  21
ENDBRANCH  19  20
ENDBRANCH  18  19
ENDBRANCH   1  18
TORSDOF 11
ENDMDL
MODEL 6
REMARK VINA RESULT:    -5.693     16.921     19.765
REMARK INTER + INTRA:          -9.842
REMARK INTER:                  -9.164
REMARK INTRA:                  -0.678
REMARK UNBOUND:                -0.654
REMARK SMILES COc1cc(CNC(=O)CCCCCCC(C)C)ccc1O
REMARK SMILES IDX 11 1 10 2 8 3 7 4 9 6 6 7 5 8 3 9 21 10 4 11 20 12 19 13
REMARK SMILES IDX 2 14 1 15 22 16 12 18 13 19 14 20 15 21 16 22 17 23 18 24
REMARK H PARENT 7 5 22 17
REMARK Flexibility Score: inf
ROOT
ATOM      1  C   UNL     1      75.081  90.154  69.562  1.00  0.00     0.010 C 
ENDROOT
BRANCH   1   2
ATOM      2  C   UNL     1      74.174  90.408  70.797  1.00  0.00     0.100 C 
BRANCH   2   3
ATOM      3  C   UNL     1      74.115  91.833  71.196  1.00  0.00     0.220 C 
ATOM      4  N   UNL     1      74.219  92.185  72.510  1.00  0.00    -0.352 N 
ATOM      5  H   UNL     1      74.289  91.408  73.150  1.00  0.00     0.163 HD
ATOM      6  O   UNL     1      73.994  92.704  70.300  1.00  0.00    -0.275 OA
BRANCH   4   7
ATOM      7  C   UNL     1      74.234  93.528  73.007  1.00  0.00     0.151 C 
BRANCH   7   8
ATOM      8  C   UNL     1      75.425  93.829  73.848  1.00  0.00    -0.025 A 
ATOM      9  C   UNL     1      77.730  94.660  74.055  1.00  0.00     0.160 A 
ATOM     10  C   UNL     1      77.684  94.447  75.450  1.00  0.00     0.157 A 
ATOM     11  C   UNL     1      76.609  94.333  73.263  1.00  0.00     0.056 A 
ATOM     12  C   UNL     1      76.525  93.909  76.038  1.00  0.00     0.050 A 
ATOM     13  C   UNL     1      75.399  93.612  75.245  1.00  0.00     0.009 A 
BRANCH   9  14
ATOM     14  O   UNL     1      78.867  95.146  73.467  1.00  0.00    -0.493 OA
ATOM     15  C   UNL     1      78.788  96.540  73.117  1.00  0.00     0.278 C 
ENDBRANCH   9  14
BRANCH  10  16
ATOM     16  O   UNL     1      78.750  94.752  76.236  1.00  0.00    -0.504 OA
ATOM     17  H   UNL     1      78.700  94.247  77.051  1.00  0.00     0.293 HD
ENDBRANCH  10  16
ENDBRANCH   7   8
ENDBRANCH   4   7
ENDBRANCH   2   3
ENDBRANCH   1   2
BRANCH   1  18
ATOM     18  C   UNL     1      75.165  88.644  69.196  1.00  0.00     0.001 C 
BRANCH  18  19
ATOM     19  C   UNL     1      76.422  88.270  68.362  1.00  0.00     0.000 C 
BRANCH  19  20
ATOM     20  C   UNL     1      77.069  86.949  68.864  1.00  0.00     0.000 C 
BRANCH  20  21
ATOM     21  C   UNL     1      76.056  85.798  69.116  1.00  0.00     0.003 C 
BRANCH  21  22
ATOM     22  C   UNL     1      76.078  84.665  68.039  1.00  0.00    -0.017 C 
ATOM     23  C   UNL     1      77.454  84.629  67.315  1.00  0.00     0.007 C 
ATOM     24  C   UNL     1      74.920  84.762  67.003  1.00  0.00     0.007 C 
ENDBRANCH  21  22
ENDBRANCH  20  21
ENDBRANCH  19  20
ENDBRANCH  18  19
ENDBRANCH   1  18
TORSDOF 11
ENDMDL
MODEL 7
REMARK VINA RESULT:    -5.594     12.274     14.889
REMARK INTER + INTRA:          -9.681
REMARK INTER:                  -8.920
REMARK INTRA:                  -0.761
REMARK UNBOUND:                -0.654
REMARK SMILES COc1cc(CNC(=O)CCCCCCC(C)C)ccc1O
REMARK SMILES IDX 11 1 10 2 8 3 7 4 9 6 6 7 5 8 3 9 21 10 4 11 20 12 19 13
REMARK SMILES IDX 2 14 1 15 22 16 12 18 13 19 14 20 15 21 16 22 17 23 18 24
REMARK H PARENT 7 5 22 17
REMARK Flexibility Score: inf
ROOT
ATOM      1  C   UNL     1      96.957  81.152  81.461  1.00  0.00     0.010 C 
ENDROOT
BRANCH   1   2
ATOM      2  C   UNL     1      97.820  79.998  80.881  1.00  0.00     0.100 C 
BRANCH   2   3
ATOM      3  C   UNL     1      98.309  80.265  79.510  1.00  0.00     0.220 C 
ATOM      4  N   UNL     1      98.888  81.463  79.206  1.00  0.00    -0.352 N 
ATOM      5  H   UNL     1      98.903  82.128  79.965  1.00  0.00     0.163 HD
ATOM      6  O   UNL     1      98.202  79.361  78.646  1.00  0.00    -0.275 OA
BRANCH   4   7
ATOM      7  C   UNL     1      99.448  81.811  77.935  1.00  0.00     0.151 C 
BRANCH   7   8
ATOM      8  C   UNL     1      98.571  82.708  77.134  1.00  0.00    -0.025 A 
ATOM      9  C   UNL     1      98.007  83.778  74.992  1.00  0.00     0.160 A 
ATOM     10  C   UNL     1      96.879  84.382  75.588  1.00  0.00     0.157 A 
ATOM     11  C   UNL     1      98.853  82.962  75.772  1.00  0.00     0.056 A 
ATOM     12  C   UNL     1      96.609  84.169  76.952  1.00  0.00     0.050 A 
ATOM     13  C   UNL     1      97.442  83.330  77.718  1.00  0.00     0.009 A 
BRANCH   9  14
ATOM     14  O   UNL     1      98.301  84.010  73.676  1.00  0.00    -0.493 OA
ATOM     15  C   UNL     1      98.316  82.821  72.866  1.00  0.00     0.278 C 
ENDBRANCH   9  14
BRANCH  10  16
ATOM     16  O   UNL     1      96.047  85.174  74.861  1.00  0.00    -0.504 OA
ATOM     17  H   UNL     1      95.686  84.670  74.129  1.00  0.00     0.293 HD
ENDBRANCH  10  16
ENDBRANCH   7   8
ENDBRANCH   4   7
ENDBRANCH   2   3
ENDBRANCH   1   2
BRANCH   1  18
ATOM     18  C   UNL     1      97.758  82.042  82.453  1.00  0.00     0.001 C 
BRANCH  18  19
ATOM     19  C   UNL     1      96.949  82.461  83.713  1.00  0.00     0.000 C 
BRANCH  19  20
ATOM     20  C   UNL     1      95.668  81.595  83.884  1.00  0.00     0.000 C 
BRANCH  20  21
ATOM     21  C   UNL     1      94.351  82.416  83.965  1.00  0.00     0.003 C 
BRANCH  21  22
ATOM     22  C   UNL     1      93.215  81.740  84.799  1.00  0.00    -0.017 C 
ATOM     23  C   UNL     1      92.035  82.730  85.013  1.00  0.00     0.007 C 
ATOM     24  C   UNL     1      93.698  81.165  86.164  1.00  0.00     0.007 C 
ENDBRANCH  21  22
ENDBRANCH  20  21
ENDBRANCH  19  20
ENDBRANCH  18  19
ENDBRANCH   1  18
TORSDOF 11
ENDMDL
MODEL 8
REMARK VINA RESULT:    -5.533     12.091     14.770
REMARK INTER + INTRA:          -9.584
REMARK INTER:                  -8.868
REMARK INTRA:                  -0.716
REMARK UNBOUND:                -0.654
REMARK SMILES COc1cc(CNC(=O)CCCCCCC(C)C)ccc1O
REMARK SMILES IDX 11 1 10 2 8 3 7 4 9 6 6 7 5 8 3 9 21 10 4 11 20 12 19 13
REMARK SMILES IDX 2 14 1 15 22 16 12 18 13 19 14 20 15 21 16 22 17 23 18 24
REMARK H PARENT 7 5 22 17
REMARK Flexibility Score: inf
ROOT
ATOM      1  C   UNL     1      97.764  82.116  77.643  1.00  0.00     0.010 C 
ENDROOT
BRANCH   1   2
ATOM      2  C   UNL     1      97.083  83.492  77.882  1.00  0.00     0.100 C 
BRANCH   2   3
ATOM      3  C   UNL     1      96.824  84.241  76.632  1.00  0.00     0.220 C 
ATOM      4  N   UNL     1      97.520  83.948  75.496  1.00  0.00    -0.352 N 
ATOM      5  H   UNL     1      98.226  83.235  75.606  1.00  0.00     0.163 HD
ATOM      6  O   UNL     1      95.936  85.129  76.636  1.00  0.00    -0.275 OA
BRANCH   4   7
ATOM      7  C   UNL     1      97.316  84.564  74.219  1.00  0.00     0.151 C 
BRANCH   7   8
ATOM      8  C   UNL     1      98.414  84.289  73.253  1.00  0.00    -0.025 A 
ATOM      9  C   UNL     1      99.612  82.727  71.778  1.00  0.00     0.160 A 
ATOM     10  C   UNL     1     100.478  83.768  71.376  1.00  0.00     0.157 A 
ATOM     11  C   UNL     1      98.601  82.991  72.726  1.00  0.00     0.056 A 
ATOM     12  C   UNL     1     100.327  85.055  71.923  1.00  0.00     0.050 A 
ATOM     13  C   UNL     1      99.296  85.318  72.846  1.00  0.00     0.009 A 
BRANCH   9  14
ATOM     14  O   UNL     1      99.776  81.462  71.283  1.00  0.00    -0.493 OA
ATOM     15  C   UNL     1      98.547  80.721  71.169  1.00  0.00     0.278 C 
ENDBRANCH   9  14
BRANCH  10  16
ATOM     16  O   UNL     1     101.462  83.542  70.466  1.00  0.00    -0.504 OA
ATOM     17  H   UNL     1     101.932  84.362  70.294  1.00  0.00     0.293 HD
ENDBRANCH  10  16
ENDBRANCH   7   8
ENDBRANCH   4   7
ENDBRANCH   2   3
ENDBRANCH   1   2
BRANCH   1  18
ATOM     18  C   UNL     1      99.011  81.913  78.549  1.00  0.00     0.001 C 
BRANCH  18  19
ATOM     19  C   UNL     1      98.828  82.450  79.996  1.00  0.00     0.000 C 
BRANCH  19  20
ATOM     20  C   UNL     1      97.877  81.543  80.827  1.00  0.00     0.000 C 
BRANCH  20  21
ATOM     21  C   UNL     1      96.740  82.311  81.556  1.00  0.00     0.003 C 
BRANCH  21  22
ATOM     22  C   UNL     1      96.441  81.806  83.006  1.00  0.00    -0.017 C 
ATOM     23  C   UNL     1      95.332  82.674  83.665  1.00  0.00     0.007 C 
ATOM     24  C   UNL     1      97.700  81.744  83.919  1.00  0.00     0.007 C 
ENDBRANCH  21  22
ENDBRANCH  20  21
ENDBRANCH  19  20
ENDBRANCH  18  19
ENDBRANCH   1  18
TORSDOF 11
ENDMDL
MODEL 9
REMARK VINA RESULT:    -5.421     12.999     15.531
REMARK INTER + INTRA:          -9.402
REMARK INTER:                  -7.903
REMARK INTRA:                  -1.499
REMARK UNBOUND:                -0.654
REMARK SMILES COc1cc(CNC(=O)CCCCCCC(C)C)ccc1O
REMARK SMILES IDX 11 1 10 2 8 3 7 4 9 6 6 7 5 8 3 9 21 10 4 11 20 12 19 13
REMARK SMILES IDX 2 14 1 15 22 16 12 18 13 19 14 20 15 21 16 22 17 23 18 24
REMARK H PARENT 7 5 22 17
REMARK Flexibility Score: inf
ROOT
ATOM      1  C   UNL     1     102.759  79.678  79.475  1.00  0.00     0.010 C 
ENDROOT
BRANCH   1   2
ATOM      2  C   UNL     1     102.449  80.970  78.669  1.00  0.00     0.100 C 
BRANCH   2   3
ATOM      3  C   UNL     1     101.374  80.791  77.668  1.00  0.00     0.220 C 
ATOM      4  N   UNL     1     100.065  80.794  78.055  1.00  0.00    -0.352 N 
ATOM      5  H   UNL     1      99.920  80.880  79.050  1.00  0.00     0.163 HD
ATOM      6  O   UNL     1     101.691  80.663  76.460  1.00  0.00    -0.275 OA
BRANCH   4   7
ATOM      7  C   UNL     1      98.943  80.689  77.172  1.00  0.00     0.151 C 
BRANCH   7   8
ATOM      8  C   UNL     1      98.251  81.987  76.945  1.00  0.00    -0.025 A 
ATOM      9  C   UNL     1      97.930  84.024  75.604  1.00  0.00     0.160 A 
ATOM     10  C   UNL     1      96.906  84.443  76.481  1.00  0.00     0.157 A 
ATOM     11  C   UNL     1      98.607  82.811  75.853  1.00  0.00     0.056 A 
ATOM     12  C   UNL     1      96.570  83.651  77.594  1.00  0.00     0.050 A 
ATOM     13  C   UNL     1      97.229  82.427  77.820  1.00  0.00     0.009 A 
BRANCH   9  14
ATOM     14  O   UNL     1      98.292  84.806  74.541  1.00  0.00    -0.493 OA
ATOM     15  C   UNL     1      98.208  84.133  73.271  1.00  0.00     0.278 C 
ENDBRANCH   9  14
BRANCH  10  16
ATOM     16  O   UNL     1      96.239  85.607  76.267  1.00  0.00    -0.504 OA
ATOM     17  H   UNL     1      96.174  85.769  75.323  1.00  0.00     0.293 HD
ENDBRANCH  10  16
ENDBRANCH   7   8
ENDBRANCH   4   7
ENDBRANCH   2   3
ENDBRANCH   1   2
BRANCH   1  18
ATOM     18  C   UNL     1     102.117  79.701  80.891  1.00  0.00     0.001 C 
BRANCH  18  19
ATOM     19  C   UNL     1     101.752  81.127  81.390  1.00  0.00     0.000 C 
BRANCH  19  20
ATOM     20  C   UNL     1     100.332  81.166  82.021  1.00  0.00     0.000 C 
BRANCH  20  21
ATOM     21  C   UNL     1      99.304  82.016  81.223  1.00  0.00     0.003 C 
BRANCH  21  22
ATOM     22  C   UNL     1      97.809  81.740  81.590  1.00  0.00    -0.017 C 
ATOM     23  C   UNL     1      97.271  80.516  80.797  1.00  0.00     0.007 C 
ATOM     24  C   UNL     1      96.878  82.973  81.388  1.00  0.00     0.007 C 
ENDBRANCH  21  22
ENDBRANCH  20  21
ENDBRANCH  19  20
ENDBRANCH  18  19
ENDBRANCH   1  18
TORSDOF 11
ENDMDL
MODEL 10
REMARK VINA RESULT:    -5.369     12.368     15.070
REMARK INTER + INTRA:          -9.319
REMARK INTER:                  -7.515
REMARK INTRA:                  -1.804
REMARK UNBOUND:                -0.654
REMARK SMILES COc1cc(CNC(=O)CCCCCCC(C)C)ccc1O
REMARK SMILES IDX 11 1 10 2 8 3 7 4 9 6 6 7 5 8 3 9 21 10 4 11 20 12 19 13
REMARK SMILES IDX 2 14 1 15 22 16 12 18 13 19 14 20 15 21 16 22 17 23 18 24
REMARK H PARENT 7 5 22 17
REMARK Flexibility Score: inf
ROOT
ATOM      1  C   UNL     1      97.835  81.855  77.646  1.00  0.00     0.010 C 
ENDROOT
BRANCH   1   2
ATOM      2  C   UNL     1      96.969  83.099  77.990  1.00  0.00     0.100 C 
BRANCH   2   3
ATOM      3  C   UNL     1      96.756  84.001  76.835  1.00  0.00     0.220 C 
ATOM      4  N   UNL     1      97.422  83.789  75.663  1.00  0.00    -0.352 N 
ATOM      5  H   UNL     1      98.075  83.020  75.683  1.00  0.00     0.163 HD
ATOM      6  O   UNL     1      95.935  84.944  76.952  1.00  0.00    -0.275 OA
BRANCH   4   7
ATOM      7  C   UNL     1      97.253  84.557  74.467  1.00  0.00     0.151 C 
BRANCH   7   8
ATOM      8  C   UNL     1      98.353  84.360  73.484  1.00  0.00    -0.025 A 
ATOM      9  C   UNL     1      99.469  82.975  71.786  1.00  0.00     0.160 A 
ATOM     10  C   UNL     1     100.422  83.995  71.575  1.00  0.00     0.157 A 
ATOM     11  C   UNL     1      98.455  83.157  72.750  1.00  0.00     0.056 A 
ATOM     12  C   UNL     1     100.354  85.182  72.328  1.00  0.00     0.050 A 
ATOM     13  C   UNL     1      99.322  85.369  73.268  1.00  0.00     0.009 A 
BRANCH   9  14
ATOM     14  O   UNL     1      99.549  81.800  71.088  1.00  0.00    -0.493 OA
ATOM     15  C   UNL     1      98.319  81.054  71.064  1.00  0.00     0.278 C 
ENDBRANCH   9  14
BRANCH  10  16
ATOM     16  O   UNL     1     101.410  83.847  70.655  1.00  0.00    -0.504 OA
ATOM     17  H   UNL     1     101.945  84.643  70.629  1.00  0.00     0.293 HD
ENDBRANCH  10  16
ENDBRANCH   7   8
ENDBRANCH   4   7
ENDBRANCH   2   3
ENDBRANCH   1   2
BRANCH   1  18
ATOM     18  C   UNL     1      99.171  81.832  78.440  1.00  0.00     0.001 C 
BRANCH  18  19
ATOM     19  C   UNL     1     100.420  81.549  77.559  1.00  0.00     0.000 C 
BRANCH  19  20
ATOM     20  C   UNL     1     100.518  82.545  76.369  1.00  0.00     0.000 C 
BRANCH  20  21
ATOM     21  C   UNL     1     100.947  81.893  75.025  1.00  0.00     0.003 C 
BRANCH  21  22
ATOM     22  C   UNL     1     102.266  82.470  74.414  1.00  0.00    -0.017 C 
ATOM     23  C   UNL     1     102.737  81.599  73.216  1.00  0.00     0.007 C 
ATOM     24  C   UNL     1     103.415  82.637  75.452  1.00  0.00     0.007 C 
ENDBRANCH  21  22
ENDBRANCH  20  21
ENDBRANCH  19  20
ENDBRANCH  18  19
ENDBRANCH   1  18
TORSDOF 11
ENDMDL
