MODEL 1
REMARK VINA RESULT:    -5.948      0.000      0.000
REMARK INTER + INTRA:         -10.129
REMARK INTER:                  -9.599
REMARK INTRA:                  -0.530
REMARK UNBOUND:                -0.530
REMARK SMILES COc1cc(CNC(=O)CCCCCCC(C)C)ccc1O
REMARK SMILES IDX 11 1 10 2 8 3 7 4 9 6 6 7 5 8 3 9 21 10 4 11 20 12 19 13
REMARK SMILES IDX 2 14 1 15 22 16 12 18 13 19 14 20 15 21 16 22 17 23 18 24
REMARK H PARENT 7 5 22 17
REMARK Flexibility Score: inf
ROOT
ATOM      1  C   UNL     1      97.068  81.473  82.168  1.00  0.00     0.010 C 
ENDROOT
BRANCH   1   2
ATOM      2  C   UNL     1      96.392  81.738  83.542  1.00  0.00     0.100 C 
BRANCH   2   3
ATOM      3  C   UNL     1      96.585  83.122  84.031  1.00  0.00     0.220 C 
ATOM      4  N   UNL     1      95.520  83.967  84.144  1.00  0.00    -0.352 N 
ATOM      5  H   UNL     1      94.641  83.582  83.831  1.00  0.00     0.163 HD
ATOM      6  O   UNL     1      97.740  83.488  84.361  1.00  0.00    -0.275 OA
BRANCH   4   7
ATOM      7  C   UNL     1      95.576  85.303  84.657  1.00  0.00     0.151 C 
BRANCH   7   8
ATOM      8  C   UNL     1      94.748  85.497  85.879  1.00  0.00    -0.025 A 
ATOM      9  C   UNL     1      94.303  86.691  87.983  1.00  0.00     0.160 A 
ATOM     10  C   UNL     1      93.150  85.902  88.189  1.00  0.00     0.157 A 
ATOM     11  C   UNL     1      95.102  86.470  86.841  1.00  0.00     0.056 A 
ATOM     12  C   UNL     1      92.809  84.904  87.259  1.00  0.00     0.050 A 
ATOM     13  C   UNL     1      93.595  84.709  86.107  1.00  0.00     0.009 A 
BRANCH   9  14
ATOM     14  O   UNL     1      94.666  87.638  88.901  1.00  0.00    -0.493 OA
ATOM     15  C   UNL     1      94.435  88.989  88.463  1.00  0.00     0.278 C 
ENDBRANCH   9  14
BRANCH  10  16
ATOM     16  O   UNL     1      92.363  86.092  89.281  1.00  0.00    -0.504 OA
ATOM     17  H   UNL     1      91.527  85.638  89.154  1.00  0.00     0.293 HD
ENDBRANCH  10  16
ENDBRANCH   7   8
ENDBRANCH   4   7
ENDBRANCH   2   3
ENDBRANCH   1   2
BRANCH   1  18
ATOM     18  C   UNL     1      96.957  82.696  81.214  1.00  0.00     0.001 C 
BRANCH  18  19
ATOM     19  C   UNL     1      97.505  82.427  79.785  1.00  0.00     0.000 C 
BRANCH  19  20
ATOM     20  C   UNL     1      96.376  82.494  78.718  1.00  0.00     0.000 C 
BRANCH  20  21
ATOM     21  C   UNL     1      96.669  81.677  77.428  1.00  0.00     0.003 C 
BRANCH  21  22
ATOM     22  C   UNL     1      97.553  82.421  76.374  1.00  0.00    -0.017 C 
ATOM     23  C   UNL     1      97.340  83.958  76.473  1.00  0.00     0.007 C 
ATOM     24  C   UNL     1      97.327  81.932  74.913  1.00  0.00     0.007 C 
ENDBRANCH  21  22
ENDBRANCH  20  21
ENDBRANCH  19  20
ENDBRANCH  18  19
ENDBRANCH   1  18
TORSDOF 11
ENDMDL
MODEL 2
REMARK VINA RESULT:    -5.793     21.472     23.511
REMARK INTER + INTRA:          -9.880
REMARK INTER:                  -8.949
REMARK INTRA:                  -0.931
REMARK UNBOUND:                -0.530
REMARK SMILES COc1cc(CNC(=O)CCCCCCC(C)C)ccc1O
REMARK SMILES IDX 11 1 10 2 8 3 7 4 9 6 6 7 5 8 3 9 21 10 4 11 20 12 19 13
REMARK SMILES IDX 2 14 1 15 22 16 12 18 13 19 14 20 15 21 16 22 17 23 18 24
REMARK H PARENT 7 5 22 17
REMARK Flexibility Score: inf
ROOT
ATOM      1  C   UNL     1      82.425  66.085  75.722  1.00  0.00     0.010 C 
ENDROOT
BRANCH   1   2
ATOM      2  C   UNL     1      82.625  64.549  75.834  1.00  0.00     0.100 C 
BRANCH   2   3
ATOM      3  C   UNL     1      83.892  64.171  76.499  1.00  0.00     0.220 C 
ATOM      4  N   UNL     1      83.875  63.572  77.725  1.00  0.00    -0.352 N 
ATOM      5  H   UNL     1      82.956  63.462  78.127  1.00  0.00     0.163 HD
ATOM      6  O   UNL     1      84.974  64.391  75.902  1.00  0.00    -0.275 OA
BRANCH   4   7
ATOM      7  C   UNL     1      85.029  63.112  78.436  1.00  0.00     0.151 C 
BRANCH   7   8
ATOM      8  C   UNL     1      85.418  64.003  79.563  1.00  0.00    -0.025 A 
ATOM      9  C   UNL     1      86.428  66.095  80.373  1.00  0.00     0.160 A 
ATOM     10  C   UNL     1      86.123  65.729  81.702  1.00  0.00     0.157 A 
ATOM     11  C   UNL     1      86.090  65.222  79.317  1.00  0.00     0.056 A 
ATOM     12  C   UNL     1      85.490  64.500  81.963  1.00  0.00     0.050 A 
ATOM     13  C   UNL     1      85.130  63.648  80.901  1.00  0.00     0.009 A 
BRANCH   9  14
ATOM     14  O   UNL     1      87.079  67.269  80.111  1.00  0.00    -0.493 OA
ATOM     15  C   UNL     1      87.398  67.458  78.721  1.00  0.00     0.278 C 
ENDBRANCH   9  14
BRANCH  10  16
ATOM     16  O   UNL     1      86.438  66.549  82.740  1.00  0.00    -0.504 OA
ATOM     17  H   UNL     1      86.213  66.117  83.567  1.00  0.00     0.293 HD
ENDBRANCH  10  16
ENDBRANCH   7   8
ENDBRANCH   4   7
ENDBRANCH   2   3
ENDBRANCH   1   2
BRANCH   1  18
ATOM     18  C   UNL     1      81.253  66.457  74.769  1.00  0.00     0.001 C 
BRANCH  18  19
ATOM     19  C   UNL     1      80.497  65.225  74.196  1.00  0.00     0.000 C 
BRANCH  19  20
ATOM     20  C   UNL     1      80.108  65.435  72.706  1.00  0.00     0.000 C 
BRANCH  20  21
ATOM     21  C   UNL     1      80.301  66.890  72.196  1.00  0.00     0.003 C 
BRANCH  21  22
ATOM     22  C   UNL     1      81.277  67.030  70.983  1.00  0.00    -0.017 C 
ATOM     23  C   UNL     1      82.048  65.700  70.749  1.00  0.00     0.007 C 
ATOM     24  C   UNL     1      82.272  68.220  71.115  1.00  0.00     0.007 C 
ENDBRANCH  21  22
ENDBRANCH  20  21
ENDBRANCH  19  20
ENDBRANCH  18  19
ENDBRANCH   1  18
TORSDOF 11
ENDMDL
MODEL 3
REMARK VINA RESULT:    -5.793     25.150     26.865
REMARK INTER + INTRA:          -9.880
REMARK INTER:                  -8.749
REMARK INTRA:                  -1.131
REMARK UNBOUND:                -0.530
REMARK SMILES COc1cc(CNC(=O)CCCCCCC(C)C)ccc1O
REMARK SMILES IDX 11 1 10 2 8 3 7 4 9 6 6 7 5 8 3 9 21 10 4 11 20 12 19 13
REMARK SMILES IDX 2 14 1 15 22 16 12 18 13 19 14 20 15 21 16 22 17 23 18 24
REMARK H PARENT 7 5 22 17
REMARK Flexibility Score: inf
ROOT
ATOM      1  C   UNL     1      77.158  88.809  64.747  1.00  0.00     0.010 C 
ENDROOT
BRANCH   1   2
ATOM      2  C   UNL     1      77.571  90.030  63.880  1.00  0.00     0.100 C 
BRANCH   2   3
ATOM      3  C   UNL     1      77.049  91.316  64.394  1.00  0.00     0.220 C 
ATOM      4  N   UNL     1      77.487  92.497  63.869  1.00  0.00    -0.352 N 
ATOM      5  H   UNL     1      78.202  92.404  63.163  1.00  0.00     0.163 HD
ATOM      6  O   UNL     1      76.181  91.293  65.301  1.00  0.00    -0.275 OA
BRANCH   4   7
ATOM      7  C   UNL     1      77.013  93.794  64.245  1.00  0.00     0.151 C 
BRANCH   7   8
ATOM      8  C   UNL     1      77.795  94.406  65.354  1.00  0.00    -0.025 A 
ATOM      9  C   UNL     1      77.933  95.196  67.680  1.00  0.00     0.160 A 
ATOM     10  C   UNL     1      79.290  95.531  67.487  1.00  0.00     0.157 A 
ATOM     11  C   UNL     1      77.191  94.654  66.608  1.00  0.00     0.056 A 
ATOM     12  C   UNL     1      79.892  95.326  66.232  1.00  0.00     0.050 A 
ATOM     13  C   UNL     1      79.154  94.758  65.176  1.00  0.00     0.009 A 
BRANCH   9  14
ATOM     14  O   UNL     1      77.327  95.428  68.884  1.00  0.00    -0.493 OA
ATOM     15  C   UNL     1      76.490  94.346  69.331  1.00  0.00     0.278 C 
ENDBRANCH   9  14
BRANCH  10  16
ATOM     16  O   UNL     1      80.028  96.056  68.501  1.00  0.00    -0.504 OA
ATOM     17  H   UNL     1      80.372  95.345  69.047  1.00  0.00     0.293 HD
ENDBRANCH  10  16
ENDBRANCH   7   8
ENDBRANCH   4   7
ENDBRANCH   2   3
ENDBRANCH   1   2
BRANCH   1  18
ATOM     18  C   UNL     1      78.264  88.410  65.765  1.00  0.00     0.001 C 
BRANCH  18  19
ATOM     19  C   UNL     1      77.719  87.709  67.041  1.00  0.00     0.000 C 
BRANCH  19  20
ATOM     20  C   UNL     1      76.226  88.059  67.292  1.00  0.00     0.000 C 
BRANCH  20  21
ATOM     21  C   UNL     1      76.007  89.321  68.172  1.00  0.00     0.003 C 
BRANCH  21  22
ATOM     22  C   UNL     1      74.517  89.782  68.288  1.00  0.00    -0.017 C 
ATOM     23  C   UNL     1      74.441  91.304  68.596  1.00  0.00     0.007 C 
ATOM     24  C   UNL     1      73.692  88.973  69.332  1.00  0.00     0.007 C 
ENDBRANCH  21  22
ENDBRANCH  20  21
ENDBRANCH  19  20
ENDBRANCH  18  19
ENDBRANCH   1  18
TORSDOF 11
ENDMDL
MODEL 4
REMARK VINA RESULT:    -5.775     21.272     24.379
REMARK INTER + INTRA:          -9.850
REMARK INTER:                  -8.213
REMARK INTRA:                  -1.637
REMARK UNBOUND:                -0.530
REMARK SMILES COc1cc(CNC(=O)CCCCCCC(C)C)ccc1O
REMARK SMILES IDX 11 1 10 2 8 3 7 4 9 6 6 7 5 8 3 9 21 10 4 11 20 12 19 13
REMARK SMILES IDX 2 14 1 15 22 16 12 18 13 19 14 20 15 21 16 22 17 23 18 24
REMARK H PARENT 7 5 22 17
REMARK Flexibility Score: inf
ROOT
ATOM      1  C   UNL     1      80.128  65.765  73.252  1.00  0.00     0.010 C 
ENDROOT
BRANCH   1   2
ATOM      2  C   UNL     1      80.163  65.816  71.700  1.00  0.00     0.100 C 
BRANCH   2   3
ATOM      3  C   UNL     1      81.356  66.509  71.164  1.00  0.00     0.220 C 
ATOM      4  N   UNL     1      81.626  67.796  71.527  1.00  0.00    -0.352 N 
ATOM      5  H   UNL     1      80.937  68.217  72.133  1.00  0.00     0.163 HD
ATOM      6  O   UNL     1      82.120  65.881  70.391  1.00  0.00    -0.275 OA
BRANCH   4   7
ATOM      7  C   UNL     1      82.777  68.545  71.120  1.00  0.00     0.151 C 
BRANCH   7   8
ATOM      8  C   UNL     1      83.832  68.614  72.167  1.00  0.00    -0.025 A 
ATOM      9  C   UNL     1      86.028  69.420  72.927  1.00  0.00     0.160 A 
ATOM     10  C   UNL     1      85.831  68.788  74.174  1.00  0.00     0.157 A 
ATOM     11  C   UNL     1      85.038  69.313  71.929  1.00  0.00     0.056 A 
ATOM     12  C   UNL     1      84.653  68.057  74.410  1.00  0.00     0.050 A 
ATOM     13  C   UNL     1      83.655  67.979  73.419  1.00  0.00     0.009 A 
BRANCH   9  14
ATOM     14  O   UNL     1      87.188  70.100  72.673  1.00  0.00    -0.493 OA
ATOM     15  C   UNL     1      87.656  69.964  71.319  1.00  0.00     0.278 C 
ENDBRANCH   9  14
BRANCH  10  16
ATOM     16  O   UNL     1      86.769  68.873  75.154  1.00  0.00    -0.504 OA
ATOM     17  H   UNL     1      86.804  68.043  75.636  1.00  0.00     0.293 HD
ENDBRANCH  10  16
ENDBRANCH   7   8
ENDBRANCH   4   7
ENDBRANCH   2   3
ENDBRANCH   1   2
BRANCH   1  18
ATOM     18  C   UNL     1      79.815  64.339  73.786  1.00  0.00     0.001 C 
BRANCH  18  19
ATOM     19  C   UNL     1      81.082  63.506  74.130  1.00  0.00     0.000 C 
BRANCH  19  20
ATOM     20  C   UNL     1      82.347  64.404  74.225  1.00  0.00     0.000 C 
BRANCH  20  21
ATOM     21  C   UNL     1      83.323  64.011  75.370  1.00  0.00     0.003 C 
BRANCH  21  22
ATOM     22  C   UNL     1      83.224  64.911  76.645  1.00  0.00    -0.017 C 
ATOM     23  C   UNL     1      82.203  66.061  76.421  1.00  0.00     0.007 C 
ATOM     24  C   UNL     1      84.595  65.482  77.114  1.00  0.00     0.007 C 
ENDBRANCH  21  22
ENDBRANCH  20  21
ENDBRANCH  19  20
ENDBRANCH  18  19
ENDBRANCH   1  18
TORSDOF 11
ENDMDL
MODEL 5
REMARK VINA RESULT:    -5.737     21.750     24.458
REMARK INTER + INTRA:          -9.789
REMARK INTER:                  -8.266
REMARK INTRA:                  -1.523
REMARK UNBOUND:                -0.530
REMARK SMILES COc1cc(CNC(=O)CCCCCCC(C)C)ccc1O
REMARK SMILES IDX 11 1 10 2 8 3 7 4 9 6 6 7 5 8 3 9 21 10 4 11 20 12 19 13
REMARK SMILES IDX 2 14 1 15 22 16 12 18 13 19 14 20 15 21 16 22 17 23 18 24
REMARK H PARENT 7 5 22 17
REMARK Flexibility Score: inf
ROOT
ATOM      1  C   UNL     1      82.778  68.945  72.101  1.00  0.00     0.010 C 
ENDROOT
BRANCH   1   2
ATOM      2  C   UNL     1      84.286  68.805  72.445  1.00  0.00     0.100 C 
BRANCH   2   3
ATOM      3  C   UNL     1      84.733  67.399  72.556  1.00  0.00     0.220 C 
ATOM      4  N   UNL     1      84.178  66.570  73.488  1.00  0.00    -0.352 N 
ATOM      5  H   UNL     1      83.499  67.011  74.091  1.00  0.00     0.163 HD
ATOM      6  O   UNL     1      85.611  66.982  71.762  1.00  0.00    -0.275 OA
BRANCH   4   7
ATOM      7  C   UNL     1      84.487  65.182  73.648  1.00  0.00     0.151 C 
BRANCH   7   8
ATOM      8  C   UNL     1      84.574  64.761  75.074  1.00  0.00    -0.025 A 
ATOM      9  C   UNL     1      85.227  65.233  77.397  1.00  0.00     0.160 A 
ATOM     10  C   UNL     1      84.703  63.985  77.800  1.00  0.00     0.157 A 
ATOM     11  C   UNL     1      85.176  65.603  76.037  1.00  0.00     0.056 A 
ATOM     12  C   UNL     1      84.137  63.122  76.845  1.00  0.00     0.050 A 
ATOM     13  C   UNL     1      84.062  63.510  75.493  1.00  0.00     0.009 A 
BRANCH   9  14
ATOM     14  O   UNL     1      85.815  66.063  78.312  1.00  0.00    -0.493 OA
ATOM     15  C   UNL     1      85.746  67.457  77.960  1.00  0.00     0.278 C 
ENDBRANCH   9  14
BRANCH  10  16
ATOM     16  O   UNL     1      84.740  63.602  79.104  1.00  0.00    -0.504 OA
ATOM     17  H   UNL     1      84.351  64.290  79.650  1.00  0.00     0.293 HD
ENDBRANCH  10  16
ENDBRANCH   7   8
ENDBRANCH   4   7
ENDBRANCH   2   3
ENDBRANCH   1   2
BRANCH   1  18
ATOM     18  C   UNL     1      82.392  68.150  70.821  1.00  0.00     0.001 C 
BRANCH  18  19
ATOM     19  C   UNL     1      80.987  67.489  70.894  1.00  0.00     0.000 C 
BRANCH  19  20
ATOM     20  C   UNL     1      81.081  65.986  71.279  1.00  0.00     0.000 C 
BRANCH  20  21
ATOM     21  C   UNL     1      80.108  65.556  72.412  1.00  0.00     0.003 C 
BRANCH  21  22
ATOM     22  C   UNL     1      80.801  64.896  73.648  1.00  0.00    -0.017 C 
ATOM     23  C   UNL     1      80.061  63.591  74.054  1.00  0.00     0.007 C 
ATOM     24  C   UNL     1      80.935  65.849  74.873  1.00  0.00     0.007 C 
ENDBRANCH  21  22
ENDBRANCH  20  21
ENDBRANCH  19  20
ENDBRANCH  18  19
ENDBRANCH   1  18
TORSDOF 11
ENDMDL
MODEL 6
REMARK VINA RESULT:    -5.698     24.393     26.403
REMARK INTER + INTRA:          -9.726
REMARK INTER:                  -9.158
REMARK INTRA:                  -0.568
REMARK UNBOUND:                -0.530
REMARK SMILES COc1cc(CNC(=O)CCCCCCC(C)C)ccc1O
REMARK SMILES IDX 11 1 10 2 8 3 7 4 9 6 6 7 5 8 3 9 21 10 4 11 20 12 19 13
REMARK SMILES IDX 2 14 1 15 22 16 12 18 13 19 14 20 15 21 16 22 17 23 18 24
REMARK H PARENT 7 5 22 17
REMARK Flexibility Score: inf
ROOT
ATOM      1  C   UNL     1      77.275  89.181  63.691  1.00  0.00     0.010 C 
ENDROOT
BRANCH   1   2
ATOM      2  C   UNL     1      77.648  90.587  63.147  1.00  0.00     0.100 C 
BRANCH   2   3
ATOM      3  C   UNL     1      76.863  91.680  63.763  1.00  0.00     0.220 C 
ATOM      4  N   UNL     1      77.487  92.657  64.482  1.00  0.00    -0.352 N 
ATOM      5  H   UNL     1      78.484  92.535  64.582  1.00  0.00     0.163 HD
ATOM      6  O   UNL     1      75.620  91.700  63.589  1.00  0.00    -0.275 OA
BRANCH   4   7
ATOM      7  C   UNL     1      76.841  93.790  65.072  1.00  0.00     0.151 C 
BRANCH   7   8
ATOM      8  C   UNL     1      77.695  94.505  66.060  1.00  0.00    -0.025 A 
ATOM      9  C   UNL     1      77.995  95.504  68.287  1.00  0.00     0.160 A 
ATOM     10  C   UNL     1      79.331  95.827  67.965  1.00  0.00     0.157 A 
ATOM     11  C   UNL     1      77.183  94.863  67.328  1.00  0.00     0.056 A 
ATOM     12  C   UNL     1      79.841  95.510  66.692  1.00  0.00     0.050 A 
ATOM     13  C   UNL     1      79.033  94.844  65.750  1.00  0.00     0.009 A 
BRANCH   9  14
ATOM     14  O   UNL     1      77.478  95.843  69.508  1.00  0.00    -0.493 OA
ATOM     15  C   UNL     1      77.420  94.746  70.438  1.00  0.00     0.278 C 
ENDBRANCH   9  14
BRANCH  10  16
ATOM     16  O   UNL     1      80.136  96.446  68.869  1.00  0.00    -0.504 OA
ATOM     17  H   UNL     1      81.051  96.358  68.594  1.00  0.00     0.293 HD
ENDBRANCH  10  16
ENDBRANCH   7   8
ENDBRANCH   4   7
ENDBRANCH   2   3
ENDBRANCH   1   2
BRANCH   1  18
ATOM     18  C   UNL     1      77.889  88.913  65.095  1.00  0.00     0.001 C 
BRANCH  18  19
ATOM     19  C   UNL     1      77.954  87.406  65.474  1.00  0.00     0.000 C 
BRANCH  19  20
ATOM     20  C   UNL     1      77.293  87.134  66.854  1.00  0.00     0.000 C 
BRANCH  20  21
ATOM     21  C   UNL     1      77.984  86.017  67.683  1.00  0.00     0.003 C 
BRANCH  21  22
ATOM     22  C   UNL     1      77.178  84.679  67.771  1.00  0.00    -0.017 C 
ATOM     23  C   UNL     1      77.217  83.930  66.410  1.00  0.00     0.007 C 
ATOM     24  C   UNL     1      75.708  84.866  68.250  1.00  0.00     0.007 C 
ENDBRANCH  21  22
ENDBRANCH  20  21
ENDBRANCH  19  20
ENDBRANCH  18  19
ENDBRANCH   1  18
TORSDOF 11
ENDMDL
MODEL 7
REMARK VINA RESULT:    -5.655     22.051     24.880
REMARK INTER + INTRA:          -9.657
REMARK INTER:                  -8.745
REMARK INTRA:                  -0.912
REMARK UNBOUND:                -0.530
REMARK SMILES COc1cc(CNC(=O)CCCCCCC(C)C)ccc1O
REMARK SMILES IDX 11 1 10 2 8 3 7 4 9 6 6 7 5 8 3 9 21 10 4 11 20 12 19 13
REMARK SMILES IDX 2 14 1 15 22 16 12 18 13 19 14 20 15 21 16 22 17 23 18 24
REMARK H PARENT 7 5 22 17
REMARK Flexibility Score: inf
ROOT
ATOM      1  C   UNL     1      85.857  64.946  77.454  1.00  0.00     0.010 C 
ENDROOT
BRANCH   1   2
ATOM      2  C   UNL     1      84.523  64.421  76.855  1.00  0.00     0.100 C 
BRANCH   2   3
ATOM      3  C   UNL     1      83.649  65.499  76.340  1.00  0.00     0.220 C 
ATOM      4  N   UNL     1      82.294  65.342  76.330  1.00  0.00    -0.352 N 
ATOM      5  H   UNL     1      81.972  64.441  76.651  1.00  0.00     0.163 HD
ATOM      6  O   UNL     1      84.180  66.564  75.939  1.00  0.00    -0.275 OA
BRANCH   4   7
ATOM      7  C   UNL     1      81.350  66.334  75.911  1.00  0.00     0.151 C 
BRANCH   7   8
ATOM      8  C   UNL     1      81.039  66.271  74.456  1.00  0.00    -0.025 A 
ATOM      9  C   UNL     1      81.328  67.150  72.178  1.00  0.00     0.160 A 
ATOM     10  C   UNL     1      80.488  66.132  71.676  1.00  0.00     0.157 A 
ATOM     11  C   UNL     1      81.581  67.223  73.564  1.00  0.00     0.056 A 
ATOM     12  C   UNL     1      79.911  65.202  72.560  1.00  0.00     0.050 A 
ATOM     13  C   UNL     1      80.192  65.263  73.939  1.00  0.00     0.009 A 
BRANCH   9  14
ATOM     14  O   UNL     1      81.862  68.084  71.332  1.00  0.00    -0.493 OA
ATOM     15  C   UNL     1      82.941  68.840  71.910  1.00  0.00     0.278 C 
ENDBRANCH   9  14
BRANCH  10  16
ATOM     16  O   UNL     1      80.224  66.038  70.346  1.00  0.00    -0.504 OA
ATOM     17  H   UNL     1      80.255  65.117  70.079  1.00  0.00     0.293 HD
ENDBRANCH  10  16
ENDBRANCH   7   8
ENDBRANCH   4   7
ENDBRANCH   2   3
ENDBRANCH   1   2
BRANCH   1  18
ATOM     18  C   UNL     1      85.982  64.633  78.973  1.00  0.00     0.001 C 
BRANCH  18  19
ATOM     19  C   UNL     1      85.282  63.312  79.399  1.00  0.00     0.000 C 
BRANCH  19  20
ATOM     20  C   UNL     1      85.358  63.095  80.937  1.00  0.00     0.000 C 
BRANCH  20  21
ATOM     21  C   UNL     1      85.174  64.392  81.773  1.00  0.00     0.003 C 
BRANCH  21  22
ATOM     22  C   UNL     1      86.429  64.813  82.604  1.00  0.00    -0.017 C 
ATOM     23  C   UNL     1      86.680  66.342  82.474  1.00  0.00     0.007 C 
ATOM     24  C   UNL     1      87.717  64.017  82.239  1.00  0.00     0.007 C 
ENDBRANCH  21  22
ENDBRANCH  20  21
ENDBRANCH  19  20
ENDBRANCH  18  19
ENDBRANCH   1  18
TORSDOF 11
ENDMDL
MODEL 8
REMARK VINA RESULT:    -5.606     25.262     27.247
REMARK INTER + INTRA:          -9.577
REMARK INTER:                  -8.110
REMARK INTRA:                  -1.467
REMARK UNBOUND:                -0.530
REMARK SMILES COc1cc(CNC(=O)CCCCCCC(C)C)ccc1O
REMARK SMILES IDX 11 1 10 2 8 3 7 4 9 6 6 7 5 8 3 9 21 10 4 11 20 12 19 13
REMARK SMILES IDX 2 14 1 15 22 16 12 18 13 19 14 20 15 21 16 22 17 23 18 24
REMARK H PARENT 7 5 22 17
REMARK Flexibility Score: inf
ROOT
ATOM      1  C   UNL     1      75.931  84.021  67.067  1.00  0.00     0.010 C 
ENDROOT
BRANCH   1   2
ATOM      2  C   UNL     1      77.424  83.825  66.686  1.00  0.00     0.100 C 
BRANCH   2   3
ATOM      3  C   UNL     1      77.990  84.964  65.930  1.00  0.00     0.220 C 
ATOM      4  N   UNL     1      77.771  86.245  66.347  1.00  0.00    -0.352 N 
ATOM      5  H   UNL     1      77.174  86.328  67.157  1.00  0.00     0.163 HD
ATOM      6  O   UNL     1      78.691  84.725  64.916  1.00  0.00    -0.275 OA
BRANCH   4   7
ATOM      7  C   UNL     1      78.312  87.418  65.731  1.00  0.00     0.151 C 
BRANCH   7   8
ATOM      8  C   UNL     1      77.280  88.269  65.078  1.00  0.00    -0.025 A 
ATOM      9  C   UNL     1      76.632  90.381  63.999  1.00  0.00     0.160 A 
ATOM     10  C   UNL     1      75.328  89.879  63.792  1.00  0.00     0.157 A 
ATOM     11  C   UNL     1      77.590  89.581  64.655  1.00  0.00     0.056 A 
ATOM     12  C   UNL     1      74.996  88.589  64.243  1.00  0.00     0.050 A 
ATOM     13  C   UNL     1      75.966  87.784  64.872  1.00  0.00     0.009 A 
BRANCH   9  14
ATOM     14  O   UNL     1      76.954  91.650  63.599  1.00  0.00    -0.493 OA
ATOM     15  C   UNL     1      76.812  92.638  64.636  1.00  0.00     0.278 C 
ENDBRANCH   9  14
BRANCH  10  16
ATOM     16  O   UNL     1      74.385  90.628  63.164  1.00  0.00    -0.504 OA
ATOM     17  H   UNL     1      73.887  91.127  63.816  1.00  0.00     0.293 HD
ENDBRANCH  10  16
ENDBRANCH   7   8
ENDBRANCH   4   7
ENDBRANCH   2   3
ENDBRANCH   1   2
BRANCH   1  18
ATOM     18  C   UNL     1      75.745  84.308  68.585  1.00  0.00     0.001 C 
BRANCH  18  19
ATOM     19  C   UNL     1      74.495  85.172  68.910  1.00  0.00     0.000 C 
BRANCH  19  20
ATOM     20  C   UNL     1      74.554  86.554  68.201  1.00  0.00     0.000 C 
BRANCH  20  21
ATOM     21  C   UNL     1      73.644  87.639  68.842  1.00  0.00     0.003 C 
BRANCH  21  22
ATOM     22  C   UNL     1      74.085  89.111  68.553  1.00  0.00    -0.017 C 
ATOM     23  C   UNL     1      75.586  89.161  68.153  1.00  0.00     0.007 C 
ATOM     24  C   UNL     1      73.801  90.091  69.729  1.00  0.00     0.007 C 
ENDBRANCH  21  22
ENDBRANCH  20  21
ENDBRANCH  19  20
ENDBRANCH  18  19
ENDBRANCH   1  18
TORSDOF 11
ENDMDL
MODEL 9
REMARK VINA RESULT:    -5.583     21.436     24.135
REMARK INTER + INTRA:          -9.540
REMARK INTER:                  -7.403
REMARK INTRA:                  -2.137
REMARK UNBOUND:                -0.530
REMARK SMILES COc1cc(CNC(=O)CCCCCCC(C)C)ccc1O
REMARK SMILES IDX 11 1 10 2 8 3 7 4 9 6 6 7 5 8 3 9 21 10 4 11 20 12 19 13
REMARK SMILES IDX 2 14 1 15 22 16 12 18 13 19 14 20 15 21 16 22 17 23 18 24
REMARK H PARENT 7 5 22 17
REMARK Flexibility Score: inf
ROOT
ATOM      1  C   UNL     1      80.895  67.528  73.116  1.00  0.00     0.010 C 
ENDROOT
BRANCH   1   2
ATOM      2  C   UNL     1      80.459  66.224  73.840  1.00  0.00     0.100 C 
BRANCH   2   3
ATOM      3  C   UNL     1      81.105  66.044  75.160  1.00  0.00     0.220 C 
ATOM      4  N   UNL     1      81.486  64.802  75.578  1.00  0.00    -0.352 N 
ATOM      5  H   UNL     1      81.250  64.054  74.943  1.00  0.00     0.163 HD
ATOM      6  O   UNL     1      81.314  67.058  75.870  1.00  0.00    -0.275 OA
BRANCH   4   7
ATOM      7  C   UNL     1      82.168  64.516  76.803  1.00  0.00     0.151 C 
BRANCH   7   8
ATOM      8  C   UNL     1      83.644  64.413  76.643  1.00  0.00    -0.025 A 
ATOM      9  C   UNL     1      85.880  65.425  76.812  1.00  0.00     0.160 A 
ATOM     10  C   UNL     1      86.463  64.213  76.383  1.00  0.00     0.157 A 
ATOM     11  C   UNL     1      84.476  65.522  76.920  1.00  0.00     0.056 A 
ATOM     12  C   UNL     1      85.643  63.114  76.066  1.00  0.00     0.050 A 
ATOM     13  C   UNL     1      84.244  63.209  76.205  1.00  0.00     0.009 A 
BRANCH   9  14
ATOM     14  O   UNL     1      86.666  66.511  77.084  1.00  0.00    -0.493 OA
ATOM     15  C   UNL     1      86.046  67.471  77.959  1.00  0.00     0.278 C 
ENDBRANCH   9  14
BRANCH  10  16
ATOM     16  O   UNL     1      87.812  64.091  76.267  1.00  0.00    -0.504 OA
ATOM     17  H   UNL     1      88.038  63.903  75.354  1.00  0.00     0.293 HD
ENDBRANCH  10  16
ENDBRANCH   7   8
ENDBRANCH   4   7
ENDBRANCH   2   3
ENDBRANCH   1   2
BRANCH   1  18
ATOM     18  C   UNL     1      80.802  67.399  71.569  1.00  0.00     0.001 C 
BRANCH  18  19
ATOM     19  C   UNL     1      82.043  67.957  70.818  1.00  0.00     0.000 C 
BRANCH  19  20
ATOM     20  C   UNL     1      83.239  66.966  70.874  1.00  0.00     0.000 C 
BRANCH  20  21
ATOM     21  C   UNL     1      84.504  67.531  71.579  1.00  0.00     0.003 C 
BRANCH  21  22
ATOM     22  C   UNL     1      84.798  66.909  72.983  1.00  0.00    -0.017 C 
ATOM     23  C   UNL     1      84.131  65.510  73.109  1.00  0.00     0.007 C 
ATOM     24  C   UNL     1      84.376  67.823  74.172  1.00  0.00     0.007 C 
ENDBRANCH  21  22
ENDBRANCH  20  21
ENDBRANCH  19  20
ENDBRANCH  18  19
ENDBRANCH   1  18
TORSDOF 11
ENDMDL
MODEL 10
REMARK VINA RESULT:    -5.516     22.805     25.144
REMARK INTER + INTRA:          -9.433
REMARK INTER:                  -7.382
REMARK INTRA:                  -2.050
REMARK UNBOUND:                -0.530
REMARK SMILES COc1cc(CNC(=O)CCCCCCC(C)C)ccc1O
REMARK SMILES IDX 11 1 10 2 8 3 7 4 9 6 6 7 5 8 3 9 21 10 4 11 20 12 19 13
REMARK SMILES IDX 2 14 1 15 22 16 12 18 13 19 14 20 15 21 16 22 17 23 18 24
REMARK H PARENT 7 5 22 17
REMARK Flexibility Score: inf
ROOT
ATOM      1  C   UNL     1      82.778  65.885  76.377  1.00  0.00     0.010 C 
ENDROOT
BRANCH   1   2
ATOM      2  C   UNL     1      81.310  66.327  76.127  1.00  0.00     0.100 C 
BRANCH   2   3
ATOM      3  C   UNL     1      80.899  66.216  74.710  1.00  0.00     0.220 C 
ATOM      4  N   UNL     1      80.816  67.330  73.927  1.00  0.00    -0.352 N 
ATOM      5  H   UNL     1      81.011  68.197  74.406  1.00  0.00     0.163 HD
ATOM      6  O   UNL     1      80.653  65.077  74.242  1.00  0.00    -0.275 OA
BRANCH   4   7
ATOM      7  C   UNL     1      80.487  67.338  72.533  1.00  0.00     0.151 C 
BRANCH   7   8
ATOM      8  C   UNL     1      81.652  67.043  71.654  1.00  0.00    -0.025 A 
ATOM      9  C   UNL     1      83.894  67.620  70.825  1.00  0.00     0.160 A 
ATOM     10  C   UNL     1      83.893  66.465  70.013  1.00  0.00     0.157 A 
ATOM     11  C   UNL     1      82.768  67.910  71.623  1.00  0.00     0.056 A 
ATOM     12  C   UNL     1      82.772  65.615  70.005  1.00  0.00     0.050 A 
ATOM     13  C   UNL     1      81.663  65.895  70.827  1.00  0.00     0.009 A 
BRANCH   9  14
ATOM     14  O   UNL     1      84.963  68.474  70.810  1.00  0.00    -0.493 OA
ATOM     15  C   UNL     1      84.618  69.840  71.100  1.00  0.00     0.278 C 
ENDBRANCH   9  14
BRANCH  10  16
ATOM     16  O   UNL     1      84.964  66.161  69.233  1.00  0.00    -0.504 OA
ATOM     17  H   UNL     1      85.067  65.207  69.188  1.00  0.00     0.293 HD
ENDBRANCH  10  16
ENDBRANCH   7   8
ENDBRANCH   4   7
ENDBRANCH   2   3
ENDBRANCH   1   2
BRANCH   1  18
ATOM     18  C   UNL     1      82.873  64.407  76.852  1.00  0.00     0.001 C 
BRANCH  18  19
ATOM     19  C   UNL     1      84.328  63.928  77.121  1.00  0.00     0.000 C 
BRANCH  19  20
ATOM     20  C   UNL     1      85.367  64.801  76.362  1.00  0.00     0.000 C 
BRANCH  20  21
ATOM     21  C   UNL     1      85.904  64.159  75.053  1.00  0.00     0.003 C 
BRANCH  21  22
ATOM     22  C   UNL     1      85.419  64.855  73.740  1.00  0.00    -0.017 C 
ATOM     23  C   UNL     1      85.421  66.400  73.912  1.00  0.00     0.007 C 
ATOM     24  C   UNL     1      84.025  64.364  73.250  1.00  0.00     0.007 C 
ENDBRANCH  21  22
ENDBRANCH  20  21
ENDBRANCH  19  20
ENDBRANCH  18  19
ENDBRANCH   1  18
TORSDOF 11
ENDMDL
