MODEL 1
REMARK VINA RESULT:    -6.640      0.000      0.000
REMARK INTER + INTRA:         -11.693
REMARK INTER:                 -10.909
REMARK INTRA:                  -0.784
REMARK UNBOUND:                -0.784
REMARK SMILES CCCCC[C@H](O)CC(=O)CCc1ccc(O)c(OC)c1
REMARK SMILES IDX 8 1 6 2 7 3 5 5 4 6 3 7 2 8 1 9 9 10 10 11 11 12 12 13 13 14
REMARK SMILES IDX 21 15 14 16 18 17 15 18 16 19 19 20 20 21 17 22
REMARK H PARENT 7 4 17 23
REMARK Flexibility Score: inf
ROOT
ATOM      1  C   UNL     1      92.258  94.634  75.623  1.00  0.00     0.107 C 
ENDROOT
BRANCH   1   2
ATOM      2  C   UNL     1      93.542  93.927  76.062  1.00  0.00     0.121 C 
BRANCH   2   3
ATOM      3  O   UNL     1      94.201  93.372  74.926  1.00  0.00    -0.393 OA
ATOM      4  H   UNL     1      94.216  92.405  75.033  1.00  0.00     0.210 HD
ENDBRANCH   2   3
BRANCH   2   5
ATOM      5  C   UNL     1      94.512  94.851  76.807  1.00  0.00     0.032 C 
BRANCH   5   6
ATOM      6  C   UNL     1      95.239  94.127  77.947  1.00  0.00     0.003 C 
BRANCH   6   7
ATOM      7  C   UNL     1      95.400  94.985  79.206  1.00  0.00    -0.000 C 
BRANCH   7   8
ATOM      8  C   UNL     1      95.614  94.169  80.479  1.00  0.00    -0.003 C 
ATOM      9  C   UNL     1      95.421  95.023  81.724  1.00  0.00     0.004 C 
ENDBRANCH   7   8
ENDBRANCH   6   7
ENDBRANCH   5   6
ENDBRANCH   2   5
ENDBRANCH   1   2
BRANCH   1  10
ATOM     10  C   UNL     1      91.047  94.240  76.453  1.00  0.00     0.135 C 
ATOM     11  O   UNL     1      89.987  94.859  76.360  1.00  0.00    -0.300 OA
BRANCH  10  12
ATOM     12  C   UNL     1      91.205  93.026  77.356  1.00  0.00     0.080 C 
BRANCH  12  13
ATOM     13  C   UNL     1      89.892  92.295  77.639  1.00  0.00     0.043 C 
BRANCH  13  14
ATOM     14  C   UNL     1      89.766  90.991  76.887  1.00  0.00    -0.044 A 
ATOM     15  C   UNL     1      89.440  90.997  75.531  1.00  0.00     0.054 A 
ATOM     16  C   UNL     1      89.976  89.782  77.550  1.00  0.00     0.008 A 
ATOM     17  C   UNL     1      89.326  89.792  74.837  1.00  0.00     0.160 A 
ATOM     18  C   UNL     1      89.862  88.577  76.856  1.00  0.00     0.050 A 
ATOM     19  C   UNL     1      89.536  88.582  75.500  1.00  0.00     0.157 A 
BRANCH  17  20
ATOM     20  O   UNL     1      89.006  89.809  73.513  1.00  0.00    -0.493 OA
ATOM     21  C   UNL     1      87.756  90.394  73.156  1.00  0.00     0.278 C 
ENDBRANCH  17  20
BRANCH  19  22
ATOM     22  O   UNL     1      89.427  87.399  74.833  1.00  0.00    -0.504 OA
ATOM     23  H   UNL     1      89.467  86.669  75.475  1.00  0.00     0.293 HD
ENDBRANCH  19  22
ENDBRANCH  13  14
ENDBRANCH  12  13
ENDBRANCH  10  12
ENDBRANCH   1  10
TORSDOF 12
ENDMDL
MODEL 2
REMARK VINA RESULT:    -6.470      2.976      8.173
REMARK INTER + INTRA:         -11.414
REMARK INTER:                 -10.244
REMARK INTRA:                  -1.170
REMARK UNBOUND:                -0.784
REMARK SMILES CCCCC[C@H](O)CC(=O)CCc1ccc(O)c(OC)c1
REMARK SMILES IDX 8 1 6 2 7 3 5 5 4 6 3 7 2 8 1 9 9 10 10 11 11 12 12 13 13 14
REMARK SMILES IDX 21 15 14 16 18 17 15 18 16 19 19 20 20 21 17 22
REMARK H PARENT 7 4 17 23
REMARK Flexibility Score: inf
ROOT
ATOM      1  C   UNL     1      92.950  94.832  75.329  1.00  0.00     0.107 C 
ENDROOT
BRANCH   1   2
ATOM      2  C   UNL     1      92.215  93.816  74.452  1.00  0.00     0.121 C 
BRANCH   2   3
ATOM      3  O   UNL     1      92.871  92.552  74.524  1.00  0.00    -0.393 OA
ATOM      4  H   UNL     1      93.268  92.473  75.409  1.00  0.00     0.210 HD
ENDBRANCH   2   3
BRANCH   2   5
ATOM      5  C   UNL     1      90.742  93.642  74.840  1.00  0.00     0.032 C 
BRANCH   5   6
ATOM      6  C   UNL     1      90.459  94.137  76.264  1.00  0.00     0.003 C 
BRANCH   6   7
ATOM      7  C   UNL     1      89.890  93.050  77.182  1.00  0.00    -0.000 C 
BRANCH   7   8
ATOM      8  C   UNL     1      90.954  92.121  77.764  1.00  0.00    -0.003 C 
ATOM      9  C   UNL     1      90.336  91.074  78.677  1.00  0.00     0.004 C 
ENDBRANCH   7   8
ENDBRANCH   6   7
ENDBRANCH   5   6
ENDBRANCH   2   5
ENDBRANCH   1   2
BRANCH   1  10
ATOM     10  C   UNL     1      94.253  94.295  75.900  1.00  0.00     0.135 C 
ATOM     11  O   UNL     1      95.208  94.041  75.166  1.00  0.00    -0.300 OA
BRANCH  10  12
ATOM     12  C   UNL     1      94.321  94.137  77.411  1.00  0.00     0.080 C 
BRANCH  12  13
ATOM     13  C   UNL     1      95.748  94.047  77.956  1.00  0.00     0.043 C 
BRANCH  13  14
ATOM     14  C   UNL     1      95.888  94.617  79.347  1.00  0.00    -0.044 A 
ATOM     15  C   UNL     1      96.550  95.828  79.542  1.00  0.00     0.054 A 
ATOM     16  C   UNL     1      95.353  93.930  80.438  1.00  0.00     0.008 A 
ATOM     17  C   UNL     1      96.678  96.354  80.828  1.00  0.00     0.160 A 
ATOM     18  C   UNL     1      95.481  94.456  81.724  1.00  0.00     0.050 A 
ATOM     19  C   UNL     1      96.143  95.668  81.919  1.00  0.00     0.157 A 
BRANCH  17  20
ATOM     20  O   UNL     1      97.328  97.539  81.005  1.00  0.00    -0.493 OA
ATOM     21  C   UNL     1      96.766  98.687  80.374  1.00  0.00     0.278 C 
ENDBRANCH  17  20
BRANCH  19  22
ATOM     22  O   UNL     1      96.262  96.172  83.178  1.00  0.00    -0.504 OA
ATOM     23  H   UNL     1      95.960  95.503  83.817  1.00  0.00     0.293 HD
ENDBRANCH  19  22
ENDBRANCH  13  14
ENDBRANCH  12  13
ENDBRANCH  10  12
ENDBRANCH   1  10
TORSDOF 12
ENDMDL
MODEL 3
REMARK VINA RESULT:    -6.340     12.969     15.685
REMARK INTER + INTRA:         -11.201
REMARK INTER:                  -9.364
REMARK INTRA:                  -1.837
REMARK UNBOUND:                -0.784
REMARK SMILES CCCCC[C@H](O)CC(=O)CCc1ccc(O)c(OC)c1
REMARK SMILES IDX 8 1 6 2 7 3 5 5 4 6 3 7 2 8 1 9 9 10 10 11 11 12 12 13 13 14
REMARK SMILES IDX 21 15 14 16 18 17 15 18 16 19 19 20 20 21 17 22
REMARK H PARENT 7 4 17 23
REMARK Flexibility Score: inf
ROOT
ATOM      1  C   UNL     1      81.207  86.609  84.188  1.00  0.00     0.107 C 
ENDROOT
BRANCH   1   2
ATOM      2  C   UNL     1      80.734  86.182  85.580  1.00  0.00     0.121 C 
BRANCH   2   3
ATOM      3  O   UNL     1      79.940  85.001  85.479  1.00  0.00    -0.393 OA
ATOM      4  H   UNL     1      79.508  84.859  86.339  1.00  0.00     0.210 HD
ENDBRANCH   2   3
BRANCH   2   5
ATOM      5  C   UNL     1      81.889  85.932  86.557  1.00  0.00     0.032 C 
BRANCH   5   6
ATOM      6  C   UNL     1      81.560  86.416  87.974  1.00  0.00     0.003 C 
BRANCH   6   7
ATOM      7  C   UNL     1      80.082  86.769  88.167  1.00  0.00    -0.000 C 
BRANCH   7   8
ATOM      8  C   UNL     1      79.637  86.763  89.628  1.00  0.00    -0.003 C 
ATOM      9  C   UNL     1      79.163  88.139  90.069  1.00  0.00     0.004 C 
ENDBRANCH   7   8
ENDBRANCH   6   7
ENDBRANCH   5   6
ENDBRANCH   2   5
ENDBRANCH   1   2
BRANCH   1  10
ATOM     10  C   UNL     1      80.231  87.539  83.486  1.00  0.00     0.135 C 
ATOM     11  O   UNL     1      79.788  87.266  82.371  1.00  0.00    -0.300 OA
BRANCH  10  12
ATOM     12  C   UNL     1      79.805  88.783  84.250  1.00  0.00     0.080 C 
BRANCH  12  13
ATOM     13  C   UNL     1      80.876  89.875  84.294  1.00  0.00     0.043 C 
BRANCH  13  14
ATOM     14  C   UNL     1      81.620  89.921  85.607  1.00  0.00    -0.044 A 
ATOM     15  C   UNL     1      83.003  89.741  85.633  1.00  0.00     0.054 A 
ATOM     16  C   UNL     1      80.923  90.145  86.795  1.00  0.00     0.008 A 
ATOM     17  C   UNL     1      83.689  89.785  86.847  1.00  0.00     0.160 A 
ATOM     18  C   UNL     1      81.609  90.190  88.009  1.00  0.00     0.050 A 
ATOM     19  C   UNL     1      82.992  90.009  88.035  1.00  0.00     0.157 A 
BRANCH  17  20
ATOM     20  O   UNL     1      85.040  89.607  86.860  1.00  0.00    -0.493 OA
ATOM     21  C   UNL     1      85.764  90.059  85.717  1.00  0.00     0.278 C 
ENDBRANCH  17  20
BRANCH  19  22
ATOM     22  O   UNL     1      83.651  90.055  89.226  1.00  0.00    -0.504 OA
ATOM     23  H   UNL     1      84.609  90.038  89.059  1.00  0.00     0.293 HD
ENDBRANCH  19  22
ENDBRANCH  13  14
ENDBRANCH  12  13
ENDBRANCH  10  12
ENDBRANCH   1  10
TORSDOF 12
ENDMDL
MODEL 4
REMARK VINA RESULT:    -6.194      1.813      2.726
REMARK INTER + INTRA:         -10.960
REMARK INTER:                 -10.190
REMARK INTRA:                  -0.771
REMARK UNBOUND:                -0.784
REMARK SMILES CCCCC[C@H](O)CC(=O)CCc1ccc(O)c(OC)c1
REMARK SMILES IDX 8 1 6 2 7 3 5 5 4 6 3 7 2 8 1 9 9 10 10 11 11 12 12 13 13 14
REMARK SMILES IDX 21 15 14 16 18 17 15 18 16 19 19 20 20 21 17 22
REMARK H PARENT 7 4 17 23
REMARK Flexibility Score: inf
ROOT
ATOM      1  C   UNL     1      94.111  94.030  77.473  1.00  0.00     0.107 C 
ENDROOT
BRANCH   1   2
ATOM      2  C   UNL     1      95.599  94.010  77.831  1.00  0.00     0.121 C 
BRANCH   2   3
ATOM      3  O   UNL     1      96.339  93.384  76.786  1.00  0.00    -0.393 OA
ATOM      4  H   UNL     1      96.721  92.562  77.143  1.00  0.00     0.210 HD
ENDBRANCH   2   3
BRANCH   2   5
ATOM      5  C   UNL     1      96.174  95.408  78.089  1.00  0.00     0.032 C 
BRANCH   5   6
ATOM      6  C   UNL     1      96.903  95.492  79.436  1.00  0.00     0.003 C 
BRANCH   6   7
ATOM      7  C   UNL     1      96.072  96.162  80.535  1.00  0.00    -0.000 C 
BRANCH   7   8
ATOM      8  C   UNL     1      95.280  95.176  81.390  1.00  0.00    -0.003 C 
ATOM      9  C   UNL     1      96.029  93.862  81.559  1.00  0.00     0.004 C 
ENDBRANCH   7   8
ENDBRANCH   6   7
ENDBRANCH   5   6
ENDBRANCH   2   5
ENDBRANCH   1   2
BRANCH   1  10
ATOM     10  C   UNL     1      93.859  94.224  75.987  1.00  0.00     0.135 C 
ATOM     11  O   UNL     1      94.574  93.677  75.147  1.00  0.00    -0.300 OA
BRANCH  10  12
ATOM     12  C   UNL     1      92.662  95.081  75.604  1.00  0.00     0.080 C 
BRANCH  12  13
ATOM     13  C   UNL     1      91.427  94.836  76.473  1.00  0.00     0.043 C 
BRANCH  13  14
ATOM     14  C   UNL     1      90.701  93.559  76.124  1.00  0.00    -0.044 A 
ATOM     15  C   UNL     1      90.648  93.126  74.799  1.00  0.00     0.054 A 
ATOM     16  C   UNL     1      90.084  92.811  77.128  1.00  0.00     0.008 A 
ATOM     17  C   UNL     1      89.978  91.946  74.478  1.00  0.00     0.160 A 
ATOM     18  C   UNL     1      89.414  91.631  76.806  1.00  0.00     0.050 A 
ATOM     19  C   UNL     1      89.361  91.198  75.481  1.00  0.00     0.157 A 
BRANCH  17  20
ATOM     20  O   UNL     1      89.932  91.533  73.180  1.00  0.00    -0.493 OA
ATOM     21  C   UNL     1      89.057  92.243  72.305  1.00  0.00     0.278 C 
ENDBRANCH  17  20
BRANCH  19  22
ATOM     22  O   UNL     1      88.704  90.044  75.180  1.00  0.00    -0.504 OA
ATOM     23  H   UNL     1      89.125  89.632  74.406  1.00  0.00     0.293 HD
ENDBRANCH  19  22
ENDBRANCH  13  14
ENDBRANCH  12  13
ENDBRANCH  10  12
ENDBRANCH   1  10
TORSDOF 12
ENDMDL
MODEL 5
REMARK VINA RESULT:    -6.013     12.897     14.790
REMARK INTER + INTRA:         -10.663
REMARK INTER:                  -9.234
REMARK INTRA:                  -1.428
REMARK UNBOUND:                -0.784
REMARK SMILES CCCCC[C@H](O)CC(=O)CCc1ccc(O)c(OC)c1
REMARK SMILES IDX 8 1 6 2 7 3 5 5 4 6 3 7 2 8 1 9 9 10 10 11 11 12 12 13 13 14
REMARK SMILES IDX 21 15 14 16 18 17 15 18 16 19 19 20 20 21 17 22
REMARK H PARENT 7 4 17 23
REMARK Flexibility Score: inf
ROOT
ATOM      1  C   UNL     1      82.849  89.652  90.377  1.00  0.00     0.107 C 
ENDROOT
BRANCH   1   2
ATOM      2  C   UNL     1      83.444  90.768  89.516  1.00  0.00     0.121 C 
BRANCH   2   3
ATOM      3  O   UNL     1      84.471  91.442  90.241  1.00  0.00    -0.393 OA
ATOM      4  H   UNL     1      85.134  91.751  89.600  1.00  0.00     0.210 HD
ENDBRANCH   2   3
BRANCH   2   5
ATOM      5  C   UNL     1      84.015  90.261  88.187  1.00  0.00     0.032 C 
BRANCH   5   6
ATOM      6  C   UNL     1      83.502  91.074  86.992  1.00  0.00     0.003 C 
BRANCH   6   7
ATOM      7  C   UNL     1      83.446  90.269  85.690  1.00  0.00    -0.000 C 
BRANCH   7   8
ATOM      8  C   UNL     1      84.303  90.855  84.569  1.00  0.00    -0.003 C 
ATOM      9  C   UNL     1      85.407  91.743  85.123  1.00  0.00     0.004 C 
ENDBRANCH   7   8
ENDBRANCH   6   7
ENDBRANCH   5   6
ENDBRANCH   2   5
ENDBRANCH   1   2
BRANCH   1  10
ATOM     10  C   UNL     1      81.376  89.404  90.096  1.00  0.00     0.135 C 
ATOM     11  O   UNL     1      80.502  89.940  90.777  1.00  0.00    -0.300 OA
BRANCH  10  12
ATOM     12  C   UNL     1      81.049  88.506  88.912  1.00  0.00     0.080 C 
BRANCH  12  13
ATOM     13  C   UNL     1      80.411  89.246  87.736  1.00  0.00     0.043 C 
BRANCH  13  14
ATOM     14  C   UNL     1      80.563  88.515  86.423  1.00  0.00    -0.044 A 
ATOM     15  C   UNL     1      81.254  87.304  86.375  1.00  0.00     0.054 A 
ATOM     16  C   UNL     1      80.014  89.052  85.259  1.00  0.00     0.008 A 
ATOM     17  C   UNL     1      81.394  86.630  85.162  1.00  0.00     0.160 A 
ATOM     18  C   UNL     1      80.153  88.377  84.046  1.00  0.00     0.050 A 
ATOM     19  C   UNL     1      80.844  87.166  83.997  1.00  0.00     0.157 A 
BRANCH  17  20
ATOM     20  O   UNL     1      82.071  85.448  85.127  1.00  0.00    -0.493 OA
ATOM     21  C   UNL     1      82.781  85.072  86.306  1.00  0.00     0.278 C 
ENDBRANCH  17  20
BRANCH  19  22
ATOM     22  O   UNL     1      80.974  86.517  82.807  1.00  0.00    -0.504 OA
ATOM     23  H   UNL     1      80.100  86.448  82.387  1.00  0.00     0.293 HD
ENDBRANCH  19  22
ENDBRANCH  13  14
ENDBRANCH  12  13
ENDBRANCH  10  12
ENDBRANCH   1  10
TORSDOF 12
ENDMDL
MODEL 6
REMARK VINA RESULT:    -5.771      2.342      3.464
REMARK INTER + INTRA:         -10.266
REMARK INTER:                  -9.409
REMARK INTRA:                  -0.857
REMARK UNBOUND:                -0.784
REMARK SMILES CCCCC[C@H](O)CC(=O)CCc1ccc(O)c(OC)c1
REMARK SMILES IDX 8 1 6 2 7 3 5 5 4 6 3 7 2 8 1 9 9 10 10 11 11 12 12 13 13 14
REMARK SMILES IDX 21 15 14 16 18 17 15 18 16 19 19 20 20 21 17 22
REMARK H PARENT 7 4 17 23
REMARK Flexibility Score: inf
ROOT
ATOM      1  C   UNL     1      95.192  93.957  77.510  1.00  0.00     0.107 C 
ENDROOT
BRANCH   1   2
ATOM      2  C   UNL     1      95.223  94.592  78.903  1.00  0.00     0.121 C 
BRANCH   2   3
ATOM      3  O   UNL     1      94.820  93.634  79.879  1.00  0.00    -0.393 OA
ATOM      4  H   UNL     1      94.919  92.749  79.487  1.00  0.00     0.210 HD
ENDBRANCH   2   3
BRANCH   2   5
ATOM      5  C   UNL     1      96.603  95.146  79.279  1.00  0.00     0.032 C 
BRANCH   5   6
ATOM      6  C   UNL     1      96.660  96.675  79.167  1.00  0.00     0.003 C 
BRANCH   6   7
ATOM      7  C   UNL     1      97.687  97.169  78.144  1.00  0.00    -0.000 C 
BRANCH   7   8
ATOM      8  C   UNL     1      98.239  96.063  77.246  1.00  0.00    -0.003 C 
ATOM      9  C   UNL     1      99.756  95.992  77.323  1.00  0.00     0.004 C 
ENDBRANCH   7   8
ENDBRANCH   6   7
ENDBRANCH   5   6
ENDBRANCH   2   5
ENDBRANCH   1   2
BRANCH   1  10
ATOM     10  C   UNL     1      94.391  94.767  76.504  1.00  0.00     0.135 C 
ATOM     11  O   UNL     1      94.951  95.532  75.718  1.00  0.00    -0.300 OA
BRANCH  10  12
ATOM     12  C   UNL     1      92.886  94.546  76.494  1.00  0.00     0.080 C 
BRANCH  12  13
ATOM     13  C   UNL     1      92.443  93.295  77.256  1.00  0.00     0.043 C 
BRANCH  13  14
ATOM     14  C   UNL     1      91.329  92.545  76.566  1.00  0.00    -0.044 A 
ATOM     15  C   UNL     1      91.113  92.719  75.199  1.00  0.00     0.054 A 
ATOM     16  C   UNL     1      90.515  91.679  77.297  1.00  0.00     0.008 A 
ATOM     17  C   UNL     1      90.084  92.025  74.563  1.00  0.00     0.160 A 
ATOM     18  C   UNL     1      89.486  90.985  76.661  1.00  0.00     0.050 A 
ATOM     19  C   UNL     1      89.270  91.158  75.294  1.00  0.00     0.157 A 
BRANCH  17  20
ATOM     20  O   UNL     1      89.882  92.202  73.227  1.00  0.00    -0.493 OA
ATOM     21  C   UNL     1      90.677  91.416  72.342  1.00  0.00     0.278 C 
ENDBRANCH  17  20
BRANCH  19  22
ATOM     22  O   UNL     1      88.262  90.476  74.683  1.00  0.00    -0.504 OA
ATOM     23  H   UNL     1      87.961  90.980  73.908  1.00  0.00     0.293 HD
ENDBRANCH  19  22
ENDBRANCH  13  14
ENDBRANCH  12  13
ENDBRANCH  10  12
ENDBRANCH   1  10
TORSDOF 12
ENDMDL
MODEL 7
REMARK VINA RESULT:    -5.680      3.174      5.143
REMARK INTER + INTRA:         -10.116
REMARK INTER:                  -9.258
REMARK INTRA:                  -0.858
REMARK UNBOUND:                -0.784
REMARK SMILES CCCCC[C@H](O)CC(=O)CCc1ccc(O)c(OC)c1
REMARK SMILES IDX 8 1 6 2 7 3 5 5 4 6 3 7 2 8 1 9 9 10 10 11 11 12 12 13 13 14
REMARK SMILES IDX 21 15 14 16 18 17 15 18 16 19 19 20 20 21 17 22
REMARK H PARENT 7 4 17 23
REMARK Flexibility Score: inf
ROOT
ATOM      1  C   UNL     1      95.678  95.294  75.517  1.00  0.00     0.107 C 
ENDROOT
BRANCH   1   2
ATOM      2  C   UNL     1      95.958  96.793  75.638  1.00  0.00     0.121 C 
BRANCH   2   3
ATOM      3  O   UNL     1      97.316  97.002  76.022  1.00  0.00    -0.393 OA
ATOM      4  H   UNL     1      97.836  97.143  75.212  1.00  0.00     0.210 HD
ENDBRANCH   2   3
BRANCH   2   5
ATOM      5  C   UNL     1      95.677  97.563  74.342  1.00  0.00     0.032 C 
BRANCH   5   6
ATOM      6  C   UNL     1      94.238  97.359  73.852  1.00  0.00     0.003 C 
BRANCH   6   7
ATOM      7  C   UNL     1      93.701  98.542  73.040  1.00  0.00    -0.000 C 
BRANCH   7   8
ATOM      8  C   UNL     1      93.644  98.277  71.536  1.00  0.00    -0.003 C 
ATOM      9  C   UNL     1      92.577  99.127  70.863  1.00  0.00     0.004 C 
ENDBRANCH   7   8
ENDBRANCH   6   7
ENDBRANCH   5   6
ENDBRANCH   2   5
ENDBRANCH   1   2
BRANCH   1  10
ATOM     10  C   UNL     1      95.287  94.652  76.839  1.00  0.00     0.135 C 
ATOM     11  O   UNL     1      95.877  94.940  77.881  1.00  0.00    -0.300 OA
BRANCH  10  12
ATOM     12  C   UNL     1      94.114  93.685  76.808  1.00  0.00     0.080 C 
BRANCH  12  13
ATOM     13  C   UNL     1      92.749  94.375  76.777  1.00  0.00     0.043 C 
BRANCH  13  14
ATOM     14  C   UNL     1      91.613  93.426  76.477  1.00  0.00    -0.044 A 
ATOM     15  C   UNL     1      91.186  93.242  75.162  1.00  0.00     0.054 A 
ATOM     16  C   UNL     1      90.991  92.733  77.516  1.00  0.00     0.008 A 
ATOM     17  C   UNL     1      90.137  92.364  74.886  1.00  0.00     0.160 A 
ATOM     18  C   UNL     1      89.942  91.856  77.241  1.00  0.00     0.050 A 
ATOM     19  C   UNL     1      89.515  91.672  75.925  1.00  0.00     0.157 A 
BRANCH  17  20
ATOM     20  O   UNL     1      89.728  92.193  73.598  1.00  0.00    -0.493 OA
ATOM     21  C   UNL     1      89.569  93.369  72.807  1.00  0.00     0.278 C 
ENDBRANCH  17  20
BRANCH  19  22
ATOM     22  O   UNL     1      88.490  90.813  75.669  1.00  0.00    -0.504 OA
ATOM     23  H   UNL     1      87.666  91.321  75.576  1.00  0.00     0.293 HD
ENDBRANCH  19  22
ENDBRANCH  13  14
ENDBRANCH  12  13
ENDBRANCH  10  12
ENDBRANCH   1  10
TORSDOF 12
ENDMDL
MODEL 8
REMARK VINA RESULT:    -5.630     13.032     15.740
REMARK INTER + INTRA:         -10.035
REMARK INTER:                  -9.028
REMARK INTRA:                  -1.007
REMARK UNBOUND:                -0.784
REMARK SMILES CCCCC[C@H](O)CC(=O)CCc1ccc(O)c(OC)c1
REMARK SMILES IDX 8 1 6 2 7 3 5 5 4 6 3 7 2 8 1 9 9 10 10 11 11 12 12 13 13 14
REMARK SMILES IDX 21 15 14 16 18 17 15 18 16 19 19 20 20 21 17 22
REMARK H PARENT 7 4 17 23
REMARK Flexibility Score: inf
ROOT
ATOM      1  C   UNL     1      82.152  86.692  85.857  1.00  0.00     0.107 C 
ENDROOT
BRANCH   1   2
ATOM      2  C   UNL     1      81.578  86.045  87.120  1.00  0.00     0.121 C 
BRANCH   2   3
ATOM      3  O   UNL     1      82.576  85.245  87.750  1.00  0.00    -0.393 OA
ATOM      4  H   UNL     1      82.852  85.700  88.565  1.00  0.00     0.210 HD
ENDBRANCH   2   3
BRANCH   2   5
ATOM      5  C   UNL     1      81.042  87.069  88.128  1.00  0.00     0.032 C 
BRANCH   5   6
ATOM      6  C   UNL     1      79.566  86.827  88.466  1.00  0.00     0.003 C 
BRANCH   6   7
ATOM      7  C   UNL     1      79.051  87.714  89.605  1.00  0.00    -0.000 C 
BRANCH   7   8
ATOM      8  C   UNL     1      80.134  88.583  90.241  1.00  0.00    -0.003 C 
ATOM      9  C   UNL     1      80.498  88.085  91.632  1.00  0.00     0.004 C 
ENDBRANCH   7   8
ENDBRANCH   6   7
ENDBRANCH   5   6
ENDBRANCH   2   5
ENDBRANCH   1   2
BRANCH   1  10
ATOM     10  C   UNL     1      81.085  87.064  84.841  1.00  0.00     0.135 C 
ATOM     11  O   UNL     1      80.868  86.351  83.861  1.00  0.00    -0.300 OA
BRANCH  10  12
ATOM     12  C   UNL     1      80.282  88.324  85.125  1.00  0.00     0.080 C 
BRANCH  12  13
ATOM     13  C   UNL     1      80.860  89.581  84.472  1.00  0.00     0.043 C 
BRANCH  13  14
ATOM     14  C   UNL     1      82.145  90.045  85.114  1.00  0.00    -0.044 A 
ATOM     15  C   UNL     1      82.185  90.312  86.482  1.00  0.00     0.054 A 
ATOM     16  C   UNL     1      83.293  90.206  84.338  1.00  0.00     0.008 A 
ATOM     17  C   UNL     1      83.374  90.739  87.074  1.00  0.00     0.160 A 
ATOM     18  C   UNL     1      84.482  90.633  84.930  1.00  0.00     0.050 A 
ATOM     19  C   UNL     1      84.522  90.900  86.298  1.00  0.00     0.157 A 
BRANCH  17  20
ATOM     20  O   UNL     1      83.401  90.997  88.412  1.00  0.00    -0.493 OA
ATOM     21  C   UNL     1      82.706  92.159  88.862  1.00  0.00     0.278 C 
ENDBRANCH  17  20
BRANCH  19  22
ATOM     22  O   UNL     1      85.688  91.317  86.865  1.00  0.00    -0.504 OA
ATOM     23  H   UNL     1      85.721  91.007  87.786  1.00  0.00     0.293 HD
ENDBRANCH  19  22
ENDBRANCH  13  14
ENDBRANCH  12  13
ENDBRANCH  10  12
ENDBRANCH   1  10
TORSDOF 12
ENDMDL
MODEL 9
REMARK VINA RESULT:    -5.626     24.049     27.577
REMARK INTER + INTRA:         -10.028
REMARK INTER:                  -8.632
REMARK INTRA:                  -1.395
REMARK UNBOUND:                -0.784
REMARK SMILES CCCCC[C@H](O)CC(=O)CCc1ccc(O)c(OC)c1
REMARK SMILES IDX 8 1 6 2 7 3 5 5 4 6 3 7 2 8 1 9 9 10 10 11 11 12 12 13 13 14
REMARK SMILES IDX 21 15 14 16 18 17 15 18 16 19 19 20 20 21 17 22
REMARK H PARENT 7 4 17 23
REMARK Flexibility Score: inf
ROOT
ATOM      1  C   UNL     1      84.233  64.121  77.645  1.00  0.00     0.107 C 
ENDROOT
BRANCH   1   2
ATOM      2  C   UNL     1      85.606  64.704  77.301  1.00  0.00     0.121 C 
BRANCH   2   3
ATOM      3  O   UNL     1      86.334  63.781  76.494  1.00  0.00    -0.393 OA
ATOM      4  H   UNL     1      86.733  64.279  75.759  1.00  0.00     0.210 HD
ENDBRANCH   2   3
BRANCH   2   5
ATOM      5  C   UNL     1      85.521  66.051  76.574  1.00  0.00     0.032 C 
BRANCH   5   6
ATOM      6  C   UNL     1      85.307  67.218  77.547  1.00  0.00     0.003 C 
BRANCH   6   7
ATOM      7  C   UNL     1      84.736  68.471  76.875  1.00  0.00    -0.000 C 
BRANCH   7   8
ATOM      8  C   UNL     1      85.639  69.697  77.000  1.00  0.00    -0.003 C 
ATOM      9  C   UNL     1      86.593  69.566  78.176  1.00  0.00     0.004 C 
ENDBRANCH   7   8
ENDBRANCH   6   7
ENDBRANCH   5   6
ENDBRANCH   2   5
ENDBRANCH   1   2
BRANCH   1  10
ATOM     10  C   UNL     1      83.256  64.172  76.482  1.00  0.00     0.135 C 
ATOM     11  O   UNL     1      83.542  63.677  75.392  1.00  0.00    -0.300 OA
BRANCH  10  12
ATOM     12  C   UNL     1      81.907  64.821  76.753  1.00  0.00     0.080 C 
BRANCH  12  13
ATOM     13  C   UNL     1      81.756  66.210  76.131  1.00  0.00     0.043 C 
BRANCH  13  14
ATOM     14  C   UNL     1      81.277  66.169  74.700  1.00  0.00    -0.044 A 
ATOM     15  C   UNL     1      81.616  67.197  73.820  1.00  0.00     0.054 A 
ATOM     16  C   UNL     1      80.494  65.102  74.257  1.00  0.00     0.008 A 
ATOM     17  C   UNL     1      81.174  67.158  72.498  1.00  0.00     0.160 A 
ATOM     18  C   UNL     1      80.052  65.063  72.935  1.00  0.00     0.050 A 
ATOM     19  C   UNL     1      80.391  66.091  72.056  1.00  0.00     0.157 A 
BRANCH  17  20
ATOM     20  O   UNL     1      81.511  68.168  71.648  1.00  0.00    -0.493 OA
ATOM     21  C   UNL     1      82.833  68.148  71.111  1.00  0.00     0.278 C 
ENDBRANCH  17  20
BRANCH  19  22
ATOM     22  O   UNL     1      79.953  66.041  70.767  1.00  0.00    -0.504 OA
ATOM     23  H   UNL     1      80.695  66.244  70.172  1.00  0.00     0.293 HD
ENDBRANCH  19  22
ENDBRANCH  13  14
ENDBRANCH  12  13
ENDBRANCH  10  12
ENDBRANCH   1  10
TORSDOF 12
ENDMDL
MODEL 10
REMARK VINA RESULT:    -5.539      5.183      8.240
REMARK INTER + INTRA:          -9.885
REMARK INTER:                  -9.104
REMARK INTRA:                  -0.781
REMARK UNBOUND:                -0.784
REMARK SMILES CCCCC[C@H](O)CC(=O)CCc1ccc(O)c(OC)c1
REMARK SMILES IDX 8 1 6 2 7 3 5 5 4 6 3 7 2 8 1 9 9 10 10 11 11 12 12 13 13 14
REMARK SMILES IDX 21 15 14 16 18 17 15 18 16 19 19 20 20 21 17 22
REMARK H PARENT 7 4 17 23
REMARK Flexibility Score: inf
ROOT
ATOM      1  C   UNL     1      93.654  99.114  71.906  1.00  0.00     0.107 C 
ENDROOT
BRANCH   1   2
ATOM      2  C   UNL     1      93.781  98.995  70.385  1.00  0.00     0.121 C 
BRANCH   2   3
ATOM      3  O   UNL     1      94.206  97.680  70.037  1.00  0.00    -0.393 OA
ATOM      4  H   UNL     1      94.653  97.730  69.174  1.00  0.00     0.210 HD
ENDBRANCH   2   3
BRANCH   2   5
ATOM      5  C   UNL     1      92.476  99.316  69.647  1.00  0.00     0.032 C 
BRANCH   5   6
ATOM      6  C   UNL     1      91.361  98.320  69.988  1.00  0.00     0.003 C 
BRANCH   6   7
ATOM      7  C   UNL     1      90.297  98.202  68.892  1.00  0.00    -0.000 C 
BRANCH   7   8
ATOM      8  C   UNL     1      90.617  97.141  67.840  1.00  0.00    -0.003 C 
ATOM      9  C   UNL     1      89.657  97.221  66.663  1.00  0.00     0.004 C 
ENDBRANCH   7   8
ENDBRANCH   6   7
ENDBRANCH   5   6
ENDBRANCH   2   5
ENDBRANCH   1   2
BRANCH   1  10
ATOM     10  C   UNL     1      94.599  98.190  72.657  1.00  0.00     0.135 C 
ATOM     11  O   UNL     1      95.754  98.015  72.269  1.00  0.00    -0.300 OA
BRANCH  10  12
ATOM     12  C   UNL     1      94.056  97.540  73.920  1.00  0.00     0.080 C 
BRANCH  12  13
ATOM     13  C   UNL     1      94.971  96.458  74.497  1.00  0.00     0.043 C 
BRANCH  13  14
ATOM     14  C   UNL     1      94.235  95.455  75.353  1.00  0.00    -0.044 A 
ATOM     15  C   UNL     1      92.979  94.993  74.962  1.00  0.00     0.054 A 
ATOM     16  C   UNL     1      94.813  94.989  76.534  1.00  0.00     0.008 A 
ATOM     17  C   UNL     1      92.300  94.065  75.752  1.00  0.00     0.160 A 
ATOM     18  C   UNL     1      94.135  94.061  77.325  1.00  0.00     0.050 A 
ATOM     19  C   UNL     1      92.878  93.600  76.934  1.00  0.00     0.157 A 
BRANCH  17  20
ATOM     20  O   UNL     1      91.073  93.622  75.360  1.00  0.00    -0.493 OA
ATOM     21  C   UNL     1      91.036  92.679  74.291  1.00  0.00     0.278 C 
ENDBRANCH  17  20
BRANCH  19  22
ATOM     22  O   UNL     1      92.225  92.694  77.714  1.00  0.00    -0.504 OA
ATOM     23  H   UNL     1      92.451  91.797  77.414  1.00  0.00     0.293 HD
ENDBRANCH  19  22
ENDBRANCH  13  14
ENDBRANCH  12  13
ENDBRANCH  10  12
ENDBRANCH   1  10
TORSDOF 12
ENDMDL
