MODEL 1
REMARK VINA RESULT:    -6.844      0.000      0.000
REMARK INTER + INTRA:         -13.507
REMARK INTER:                 -11.644
REMARK INTRA:                  -1.862
REMARK UNBOUND:                -1.862
REMARK SMILES C=C(C)[C@]12C[C@@H](C)[C@@]34O[C@](Cc5ccccc5)(O[C@@H]1[C@@H]3C=C(COC(=O)Cc1ccc(O)cc1)C[C@]1(O)C(=O)C(C)=C[C@@H]41)O2
REMARK SMILES IDX 23 1 22 2 21 3 20 4 9 5 8 6 10 7 6 8 18 10 44 11 19 12 5 13
REMARK SMILES IDX 7 14 4 15 11 16 12 17 13 18 17 19 14 20 16 21 15 22 2 23
REMARK SMILES IDX 3 24 1 25 35 26 36 27 43 28 38 29 42 30 39 32 40 33 41 34
REMARK SMILES IDX 37 35 24 37 25 38 26 39 27 40 28 41 29 42 34 43 30 44 33 45
REMARK SMILES IDX 31 46 32 47
REMARK H PARENT 37 36 32 48
REMARK Flexibility Score: 90.00
ROOT
ATOM      1  C   UNL     1      89.599  98.550  70.356  1.00  0.00     0.264 C 
ENDROOT
BRANCH   1   2
ATOM      2  C   UNL     1      90.603  99.652  70.607  1.00  0.00    -0.033 C 
ATOM      3  C   UNL     1      91.863  99.326  70.961  1.00  0.00    -0.015 C 
BRANCH   3   4
ATOM      4  C   UNL     1      93.024 100.233  71.338  1.00  0.00     0.078 C 
ATOM      5  O   UNL     1      94.295 100.676  69.263  1.00  0.00    -0.319 OA
ATOM      6  C   UNL     1      93.492 101.319  70.301  1.00  0.00     0.095 CG0
ATOM      7  C   UNL     1      95.241  99.697  69.735  1.00  0.00     0.289 C 
ATOM      8  C   UNL     1      94.388 102.370  71.079  1.00  0.00     0.023 C 
ATOM      9  G   UNL     1      92.275 101.915  69.536  1.00  0.00     0.000 G0
ATOM     10  O   UNL     1      94.593  98.664  70.471  1.00  0.00    -0.320 OA
ATOM     11  O   UNL     1      96.204 100.258  70.624  1.00  0.00    -0.313 OA
ATOM     12  C   UNL     1      94.271  99.378  71.675  1.00  0.00     0.170 C 
ATOM     13  C   UNL     1      95.193 101.694  72.230  1.00  0.00     0.049 C 
ATOM     14  C   UNL     1      95.345 103.198  70.205  1.00  0.00     0.011 C 
ATOM     15  C   UNL     1      95.537 100.240  71.903  1.00  0.00     0.122 C 
BRANCH   7  16
ATOM     16  C   UNL     1      95.950  99.104  68.533  1.00  0.00     0.135 C 
BRANCH  16  17
ATOM     17  C   UNL     1      97.125  98.248  68.934  1.00  0.00    -0.040 A 
ATOM     18  C   UNL     1      98.417  98.617  68.560  1.00  0.00     0.004 A 
ATOM     19  C   UNL     1      96.920  97.088  69.680  1.00  0.00     0.004 A 
ATOM     20  C   UNL     1      99.504  97.826  68.932  1.00  0.00     0.000 A 
ATOM     21  C   UNL     1      98.007  96.297  70.052  1.00  0.00     0.000 A 
ATOM     22  C   UNL     1      99.299  96.666  69.677  1.00  0.00     0.000 A 
ENDBRANCH  16  17
ENDBRANCH   7  16
BRANCH  15  23
ATOM     23  C   UNL     1      96.460  99.628  72.906  1.00  0.00    -0.046 C 
ATOM     24  C   UNL     1      97.892  99.481  72.484  1.00  0.00     0.042 C 
ATOM     25  C   UNL     1      96.033  99.233  74.114  1.00  0.00     0.010 C 
ENDBRANCH  15  23
ENDBRANCH   3   4
BRANCH   2  26
ATOM     26  C   UNL     1      90.026 101.041  70.408  1.00  0.00     0.078 C 
BRANCH  26  27
ATOM     27  C   UNL     1      91.008 102.211  70.404  1.00  0.00     0.140 C 
ATOM     28  C   UNL     1      92.258 101.920  69.549  1.00  0.00     0.086 CG0
ATOM     29  C   UNL     1      90.437 103.445  69.738  1.00  0.00     0.190 C 
ATOM     30  C   UNL     1      92.429 103.177  68.741  1.00  0.00    -0.010 C 
ATOM     31  G   UNL     1      93.483 101.326  70.305  1.00  0.00     0.000 G0
ATOM     32  O   UNL     1      89.339 103.929  69.966  1.00  0.00    -0.291 OA
ATOM     33  C   UNL     1      91.411 104.040  68.804  1.00  0.00    -0.008 C 
ATOM     34  C   UNL     1      91.201 105.317  68.090  1.00  0.00     0.048 C 
BRANCH  27  35
ATOM     35  O   UNL     1      91.303 102.644  71.722  1.00  0.00    -0.381 OA
ATOM     36  H   UNL     1      91.365 103.614  71.719  1.00  0.00     0.212 HD
ENDBRANCH  27  35
ENDBRANCH  26  27
ENDBRANCH   2  26
ENDBRANCH   1   2
BRANCH   1  37
ATOM     37  O   UNL     1      89.000  98.743  69.092  1.00  0.00    -0.461 OA
BRANCH  37  38
ATOM     38  C   UNL     1      89.493  97.975  68.063  1.00  0.00     0.310 C 
ATOM     39  O   UNL     1      90.319  97.081  68.187  1.00  0.00    -0.252 OA
BRANCH  38  40
ATOM     40  C   UNL     1      88.856  98.405  66.763  1.00  0.00     0.158 C 
BRANCH  40  41
ATOM     41  C   UNL     1      88.764  99.902  66.622  1.00  0.00    -0.037 A 
ATOM     42  C   UNL     1      87.516 100.525  66.598  1.00  0.00     0.008 A 
ATOM     43  C   UNL     1      89.925 100.666  66.514  1.00  0.00     0.008 A 
ATOM     44  C   UNL     1      87.430 101.911  66.466  1.00  0.00     0.046 A 
ATOM     45  C   UNL     1      89.840 102.053  66.383  1.00  0.00     0.046 A 
ATOM     46  C   UNL     1      88.593 102.675  66.358  1.00  0.00     0.115 A 
BRANCH  46  47
ATOM     47  O   UNL     1      88.509 104.027  66.229  1.00  0.00    -0.508 OA
ATOM     48  H   UNL     1      88.678 104.267  65.302  1.00  0.00     0.293 HD
ENDBRANCH  46  47
ENDBRANCH  40  41
ENDBRANCH  38  40
ENDBRANCH  37  38
ENDBRANCH   1  37
TORSDOF 10
ENDMDL
MODEL 2
REMARK VINA RESULT:    -6.255     22.464     25.868
REMARK INTER + INTRA:         -12.505
REMARK INTER:                 -11.829
REMARK INTRA:                  -0.676
REMARK UNBOUND:                -1.862
REMARK SMILES C=C(C)[C@]12C[C@@H](C)[C@@]34O[C@](Cc5ccccc5)(O[C@@H]1[C@@H]3C=C(COC(=O)Cc1ccc(O)cc1)C[C@]1(O)C(=O)C(C)=C[C@@H]41)O2
REMARK SMILES IDX 23 1 22 2 21 3 20 4 9 5 8 6 10 7 6 8 18 10 44 11 19 12 5 13
REMARK SMILES IDX 7 14 4 15 11 16 12 17 13 18 17 19 14 20 16 21 15 22 2 23
REMARK SMILES IDX 3 24 1 25 35 26 36 27 43 28 38 29 42 30 39 32 40 33 41 34
REMARK SMILES IDX 37 35 24 37 25 38 26 39 27 40 28 41 29 42 34 43 30 44 33 45
REMARK SMILES IDX 31 46 32 47
REMARK H PARENT 37 36 32 48
REMARK Flexibility Score: 90.00
ROOT
ATOM      1  C   UNL     1      92.258  83.079  86.687  1.00  0.00     0.264 C 
ENDROOT
BRANCH   1   2
ATOM      2  C   UNL     1      92.477  83.267  88.170  1.00  0.00    -0.033 C 
ATOM      3  C   UNL     1      93.288  84.258  88.596  1.00  0.00    -0.015 C 
BRANCH   3   4
ATOM      4  C   UNL     1      93.728  84.605  90.009  1.00  0.00     0.078 C 
ATOM      5  O   UNL     1      92.149  86.309  90.857  1.00  0.00    -0.319 OA
ATOM      6  C   UNL     1      92.622  84.944  91.075  1.00  0.00     0.095 CG0
ATOM      7  C   UNL     1      93.177  87.279  90.574  1.00  0.00     0.289 C 
ATOM      8  C   UNL     1      93.291  84.844  92.508  1.00  0.00     0.023 C 
ATOM      9  G   UNL     1      91.360  84.058  90.864  1.00  0.00     0.000 G0
ATOM     10  O   UNL     1      93.940  86.906  89.430  1.00  0.00    -0.320 OA
ATOM     11  O   UNL     1      94.116  87.400  91.640  1.00  0.00    -0.313 OA
ATOM     12  C   UNL     1      94.696  85.814  89.977  1.00  0.00     0.170 C 
ATOM     13  C   UNL     1      94.790  85.274  92.471  1.00  0.00     0.049 C 
ATOM     14  C   UNL     1      92.569  85.610  93.630  1.00  0.00     0.011 C 
ATOM     15  C   UNL     1      95.050  86.328  91.393  1.00  0.00     0.122 C 
BRANCH   7  16
ATOM     16  C   UNL     1      92.512  88.619  90.333  1.00  0.00     0.135 C 
BRANCH  16  17
ATOM     17  C   UNL     1      93.519  89.721  90.118  1.00  0.00    -0.040 A 
ATOM     18  C   UNL     1      94.427  89.639  89.063  1.00  0.00     0.004 A 
ATOM     19  C   UNL     1      93.541  90.821  90.975  1.00  0.00     0.004 A 
ATOM     20  C   UNL     1      95.359  90.659  88.864  1.00  0.00     0.000 A 
ATOM     21  C   UNL     1      94.473  91.841  90.775  1.00  0.00     0.000 A 
ATOM     22  C   UNL     1      95.381  91.759  89.720  1.00  0.00     0.000 A 
ENDBRANCH  16  17
ENDBRANCH   7  16
BRANCH  15  23
ATOM     23  C   UNL     1      96.434  86.886  91.459  1.00  0.00    -0.046 C 
ATOM     24  C   UNL     1      96.554  88.303  91.937  1.00  0.00     0.042 C 
ATOM     25  C   UNL     1      97.508  86.162  91.110  1.00  0.00     0.010 C 
ENDBRANCH  15  23
ENDBRANCH   3   4
BRANCH   2  26
ATOM     26  C   UNL     1      91.710  82.270  89.018  1.00  0.00     0.078 C 
BRANCH  26  27
ATOM     27  C   UNL     1      91.652  82.531  90.521  1.00  0.00     0.140 C 
ATOM     28  C   UNL     1      91.371  84.013  90.846  1.00  0.00     0.086 CG0
ATOM     29  C   UNL     1      90.489  81.826  91.188  1.00  0.00     0.190 C 
ATOM     30  C   UNL     1      90.309  83.943  91.908  1.00  0.00    -0.010 C 
ATOM     31  G   UNL     1      92.620  84.913  91.074  1.00  0.00     0.000 G0
ATOM     32  O   UNL     1      90.195  80.649  91.039  1.00  0.00    -0.291 OA
ATOM     33  C   UNL     1      89.773  82.734  92.104  1.00  0.00    -0.008 C 
ATOM     34  C   UNL     1      88.669  82.315  92.991  1.00  0.00     0.048 C 
BRANCH  27  35
ATOM     35  O   UNL     1      92.790  82.005  91.183  1.00  0.00    -0.381 OA
ATOM     36  H   UNL     1      93.306  82.747  91.542  1.00  0.00     0.212 HD
ENDBRANCH  27  35
ENDBRANCH  26  27
ENDBRANCH   2  26
ENDBRANCH   1   2
BRANCH   1  37
ATOM     37  O   UNL     1      92.013  81.714  86.421  1.00  0.00    -0.461 OA
BRANCH  37  38
ATOM     38  C   UNL     1      92.531  81.222  85.246  1.00  0.00     0.310 C 
ATOM     39  O   UNL     1      91.932  81.172  84.181  1.00  0.00    -0.252 OA
BRANCH  38  40
ATOM     40  C   UNL     1      93.949  80.755  85.476  1.00  0.00     0.158 C 
BRANCH  40  41
ATOM     41  C   UNL     1      94.879  81.121  84.349  1.00  0.00    -0.037 A 
ATOM     42  C   UNL     1      95.107  82.462  84.041  1.00  0.00     0.008 A 
ATOM     43  C   UNL     1      95.511  80.120  83.612  1.00  0.00     0.008 A 
ATOM     44  C   UNL     1      95.968  82.802  82.996  1.00  0.00     0.046 A 
ATOM     45  C   UNL     1      96.372  80.459  82.568  1.00  0.00     0.046 A 
ATOM     46  C   UNL     1      96.600  81.799  82.260  1.00  0.00     0.115 A 
BRANCH  46  47
ATOM     47  O   UNL     1      97.439  82.130  81.241  1.00  0.00    -0.508 OA
ATOM     48  H   UNL     1      97.883  82.969  81.457  1.00  0.00     0.293 HD
ENDBRANCH  46  47
ENDBRANCH  40  41
ENDBRANCH  38  40
ENDBRANCH  37  38
ENDBRANCH   1  37
TORSDOF 10
ENDMDL
MODEL 3
REMARK VINA RESULT:    -6.186      3.904      8.631
REMARK INTER + INTRA:         -12.389
REMARK INTER:                 -12.197
REMARK INTRA:                  -0.191
REMARK UNBOUND:                -1.862
REMARK SMILES C=C(C)[C@]12C[C@@H](C)[C@@]34O[C@](Cc5ccccc5)(O[C@@H]1[C@@H]3C=C(COC(=O)Cc1ccc(O)cc1)C[C@]1(O)C(=O)C(C)=C[C@@H]41)O2
REMARK SMILES IDX 23 1 22 2 21 3 20 4 9 5 8 6 10 7 6 8 18 10 44 11 19 12 5 13
REMARK SMILES IDX 7 14 4 15 11 16 12 17 13 18 17 19 14 20 16 21 15 22 2 23
REMARK SMILES IDX 3 24 1 25 35 26 36 27 43 28 38 29 42 30 39 32 40 33 41 34
REMARK SMILES IDX 37 35 24 37 25 38 26 39 27 40 28 41 29 42 34 43 30 44 33 45
REMARK SMILES IDX 31 46 32 47
REMARK H PARENT 37 36 32 48
REMARK Flexibility Score: 90.00
ROOT
ATOM      1  C   UNL     1      95.188  97.253  73.370  1.00  0.00     0.264 C 
ENDROOT
BRANCH   1   2
ATOM      2  C   UNL     1      94.923  98.689  72.978  1.00  0.00    -0.033 C 
ATOM      3  C   UNL     1      94.386  98.954  71.769  1.00  0.00    -0.015 C 
BRANCH   3   4
ATOM      4  C   UNL     1      94.097 100.295  71.115  1.00  0.00     0.078 C 
ATOM      5  O   UNL     1      91.757 100.876  71.665  1.00  0.00    -0.319 OA
ATOM      6  C   UNL     1      93.142 101.300  71.858  1.00  0.00     0.095 CG0
ATOM      7  C   UNL     1      91.426 100.444  70.331  1.00  0.00     0.289 C 
ATOM      8  C   UNL     1      93.348 102.729  71.205  1.00  0.00     0.023 C 
ATOM      9  G   UNL     1      93.357 101.232  73.398  1.00  0.00     0.000 G0
ATOM     10  O   UNL     1      92.261  99.368  69.913  1.00  0.00    -0.320 OA
ATOM     11  O   UNL     1      91.614 101.475  69.365  1.00  0.00    -0.313 OA
ATOM     12  C   UNL     1      93.495 100.074  69.705  1.00  0.00     0.170 C 
ATOM     13  C   UNL     1      93.674 102.622  69.684  1.00  0.00     0.049 C 
ATOM     14  C   UNL     1      92.190 103.722  71.409  1.00  0.00     0.011 C 
ATOM     15  C   UNL     1      93.019 101.394  69.050  1.00  0.00     0.122 C 
BRANCH   7  16
ATOM     16  C   UNL     1      89.976 100.002  70.321  1.00  0.00     0.135 C 
BRANCH  16  17
ATOM     17  C   UNL     1      89.308 100.281  68.998  1.00  0.00    -0.040 A 
ATOM     18  C   UNL     1      88.837  99.225  68.218  1.00  0.00     0.004 A 
ATOM     19  C   UNL     1      89.161 101.595  68.556  1.00  0.00     0.004 A 
ATOM     20  C   UNL     1      88.219  99.484  66.994  1.00  0.00     0.000 A 
ATOM     21  C   UNL     1      88.542 101.853  67.332  1.00  0.00     0.000 A 
ATOM     22  C   UNL     1      88.072 100.798  66.552  1.00  0.00     0.000 A 
ENDBRANCH  16  17
ENDBRANCH   7  16
BRANCH  15  23
ATOM     23  C   UNL     1      93.167 101.368  67.564  1.00  0.00    -0.046 C 
ATOM     24  C   UNL     1      94.556 101.568  67.033  1.00  0.00     0.042 C 
ATOM     25  C   UNL     1      92.119 101.177  66.749  1.00  0.00     0.010 C 
ENDBRANCH  15  23
ENDBRANCH   3   4
BRANCH   2  26
ATOM     26  C   UNL     1      95.310  99.682  74.058  1.00  0.00     0.078 C 
BRANCH  26  27
ATOM     27  C   UNL     1      94.871 101.131  73.863  1.00  0.00     0.140 C 
ATOM     28  C   UNL     1      93.399 101.240  73.411  1.00  0.00     0.086 CG0
ATOM     29  C   UNL     1      94.872 101.917  75.157  1.00  0.00     0.190 C 
ATOM     30  C   UNL     1      92.841 102.321  74.294  1.00  0.00    -0.010 C 
ATOM     31  G   UNL     1      93.157 101.307  71.875  1.00  0.00     0.000 G0
ATOM     32  O   UNL     1      95.789 101.950  75.964  1.00  0.00    -0.291 OA
ATOM     33  C   UNL     1      93.632 102.703  75.301  1.00  0.00    -0.008 C 
ATOM     34  C   UNL     1      93.383 103.665  76.395  1.00  0.00     0.048 C 
BRANCH  27  35
ATOM     35  O   UNL     1      95.777 101.841  73.035  1.00  0.00    -0.381 OA
ATOM     36  H   UNL     1      96.168 101.215  72.401  1.00  0.00     0.212 HD
ENDBRANCH  27  35
ENDBRANCH  26  27
ENDBRANCH   2  26
ENDBRANCH   1   2
BRANCH   1  37
ATOM     37  O   UNL     1      94.885  97.079  74.737  1.00  0.00    -0.461 OA
BRANCH  37  38
ATOM     38  C   UNL     1      93.751  96.353  75.021  1.00  0.00     0.310 C 
ATOM     39  O   UNL     1      92.652  96.833  75.264  1.00  0.00    -0.252 OA
BRANCH  38  40
ATOM     40  C   UNL     1      94.074  94.879  74.983  1.00  0.00     0.158 C 
BRANCH  40  41
ATOM     41  C   UNL     1      94.126  94.254  76.353  1.00  0.00    -0.037 A 
ATOM     42  C   UNL     1      95.356  94.035  76.974  1.00  0.00     0.008 A 
ATOM     43  C   UNL     1      92.945  93.892  77.001  1.00  0.00     0.008 A 
ATOM     44  C   UNL     1      95.405  93.456  78.242  1.00  0.00     0.046 A 
ATOM     45  C   UNL     1      92.993  93.313  78.269  1.00  0.00     0.046 A 
ATOM     46  C   UNL     1      94.223  93.094  78.889  1.00  0.00     0.115 A 
BRANCH  46  47
ATOM     47  O   UNL     1      94.271  92.529  80.126  1.00  0.00    -0.508 OA
ATOM     48  H   UNL     1      94.719  91.667  80.062  1.00  0.00     0.293 HD
ENDBRANCH  46  47
ENDBRANCH  40  41
ENDBRANCH  38  40
ENDBRANCH  37  38
ENDBRANCH   1  37
TORSDOF 10
ENDMDL
MODEL 4
REMARK VINA RESULT:    -6.170     31.645     34.940
REMARK INTER + INTRA:         -12.360
REMARK INTER:                 -10.657
REMARK INTRA:                  -1.704
REMARK UNBOUND:                -1.862
REMARK SMILES C=C(C)[C@]12C[C@@H](C)[C@@]34O[C@](Cc5ccccc5)(O[C@@H]1[C@@H]3C=C(COC(=O)Cc1ccc(O)cc1)C[C@]1(O)C(=O)C(C)=C[C@@H]41)O2
REMARK SMILES IDX 23 1 22 2 21 3 20 4 9 5 8 6 10 7 6 8 18 10 44 11 19 12 5 13
REMARK SMILES IDX 7 14 4 15 11 16 12 17 13 18 17 19 14 20 16 21 15 22 2 23
REMARK SMILES IDX 3 24 1 25 35 26 36 27 43 28 38 29 42 30 39 32 40 33 41 34
REMARK SMILES IDX 37 35 24 37 25 38 26 39 27 40 28 41 29 42 34 43 30 44 33 45
REMARK SMILES IDX 31 46 32 47
REMARK H PARENT 37 36 32 48
REMARK Flexibility Score: 90.00
ROOT
ATOM      1  C   UNL     1      86.068  70.813  75.490  1.00  0.00     0.264 C 
ENDROOT
BRANCH   1   2
ATOM      2  C   UNL     1      85.762  69.354  75.740  1.00  0.00    -0.033 C 
ATOM      3  C   UNL     1      84.759  68.765  75.057  1.00  0.00    -0.015 C 
BRANCH   3   4
ATOM      4  C   UNL     1      84.209  67.353  75.177  1.00  0.00     0.078 C 
ATOM      5  O   UNL     1      85.405  65.969  73.512  1.00  0.00    -0.319 OA
ATOM      6  C   UNL     1      85.190  66.145  74.947  1.00  0.00     0.095 CG0
ATOM      7  C   UNL     1      84.224  66.084  72.695  1.00  0.00     0.289 C 
ATOM      8  C   UNL     1      84.499  64.847  75.536  1.00  0.00     0.023 C 
ATOM      9  G   UNL     1      86.604  66.465  75.515  1.00  0.00     0.000 G0
ATOM     10  O   UNL     1      83.589  67.346  72.877  1.00  0.00    -0.320 OA
ATOM     11  O   UNL     1      83.240  65.106  73.023  1.00  0.00    -0.313 OA
ATOM     12  C   UNL     1      83.033  67.161  74.188  1.00  0.00     0.170 C 
ATOM     13  C   UNL     1      82.948  64.901  75.376  1.00  0.00     0.049 C 
ATOM     14  C   UNL     1      85.021  63.510  74.982  1.00  0.00     0.011 C 
ATOM     15  C   UNL     1      82.535  65.695  74.136  1.00  0.00     0.122 C 
BRANCH   7  16
ATOM     16  C   UNL     1      84.634  65.920  71.244  1.00  0.00     0.135 C 
BRANCH  16  17
ATOM     17  C   UNL     1      83.442  65.875  70.321  1.00  0.00    -0.040 A 
ATOM     18  C   UNL     1      82.804  67.058  69.947  1.00  0.00     0.004 A 
ATOM     19  C   UNL     1      82.978  64.650  69.842  1.00  0.00     0.004 A 
ATOM     20  C   UNL     1      81.702  67.016  69.092  1.00  0.00     0.000 A 
ATOM     21  C   UNL     1      81.875  64.609  68.987  1.00  0.00     0.000 A 
ATOM     22  C   UNL     1      81.238  65.791  68.613  1.00  0.00     0.000 A 
ENDBRANCH  16  17
ENDBRANCH   7  16
BRANCH  15  23
ATOM     23  C   UNL     1      81.069  65.609  73.862  1.00  0.00    -0.046 C 
ATOM     24  C   UNL     1      80.187  65.366  75.050  1.00  0.00     0.042 C 
ATOM     25  C   UNL     1      80.570  65.742  72.624  1.00  0.00     0.010 C 
ENDBRANCH  15  23
ENDBRANCH   3   4
BRANCH   2  26
ATOM     26  C   UNL     1      86.678  68.721  76.771  1.00  0.00     0.078 C 
BRANCH  26  27
ATOM     27  C   UNL     1      86.623  67.201  76.913  1.00  0.00     0.140 C 
ATOM     28  C   UNL     1      86.612  66.487  75.546  1.00  0.00     0.086 CG0
ATOM     29  C   UNL     1      87.866  66.635  77.566  1.00  0.00     0.190 C 
ATOM     30  C   UNL     1      87.623  65.387  75.718  1.00  0.00    -0.010 C 
ATOM     31  G   UNL     1      85.210  66.150  74.960  1.00  0.00     0.000 G0
ATOM     32  O   UNL     1      88.378  67.051  78.595  1.00  0.00    -0.291 OA
ATOM     33  C   UNL     1      88.363  65.458  76.828  1.00  0.00    -0.008 C 
ATOM     34  C   UNL     1      89.487  64.612  77.279  1.00  0.00     0.048 C 
BRANCH  27  35
ATOM     35  O   UNL     1      85.574  66.799  77.778  1.00  0.00    -0.381 OA
ATOM     36  H   UNL     1      85.600  65.831  77.862  1.00  0.00     0.212 HD
ENDBRANCH  27  35
ENDBRANCH  26  27
ENDBRANCH   2  26
ENDBRANCH   1   2
BRANCH   1  37
ATOM     37  O   UNL     1      87.416  70.945  75.090  1.00  0.00    -0.461 OA
BRANCH  37  38
ATOM     38  C   UNL     1      87.687  71.952  74.193  1.00  0.00     0.310 C 
ATOM     39  O   UNL     1      88.585  72.774  74.310  1.00  0.00    -0.252 OA
BRANCH  38  40
ATOM     40  C   UNL     1      86.706  71.884  73.047  1.00  0.00     0.158 C 
BRANCH  40  41
ATOM     41  C   UNL     1      87.178  70.999  71.922  1.00  0.00    -0.037 A 
ATOM     42  C   UNL     1      86.874  69.638  71.930  1.00  0.00     0.008 A 
ATOM     43  C   UNL     1      87.918  71.541  70.871  1.00  0.00     0.008 A 
ATOM     44  C   UNL     1      87.312  68.818  70.889  1.00  0.00     0.046 A 
ATOM     45  C   UNL     1      88.355  70.722  69.829  1.00  0.00     0.046 A 
ATOM     46  C   UNL     1      88.052  69.361  69.839  1.00  0.00     0.115 A 
BRANCH  46  47
ATOM     47  O   UNL     1      88.479  68.562  68.823  1.00  0.00    -0.508 OA
ATOM     48  H   UNL     1      88.144  67.660  68.970  1.00  0.00     0.293 HD
ENDBRANCH  46  47
ENDBRANCH  40  41
ENDBRANCH  38  40
ENDBRANCH  37  38
ENDBRANCH   1  37
TORSDOF 10
ENDMDL
MODEL 5
REMARK VINA RESULT:    -6.036      2.851      5.873
REMARK INTER + INTRA:         -12.133
REMARK INTER:                 -11.413
REMARK INTRA:                  -0.721
REMARK UNBOUND:                -1.862
REMARK SMILES C=C(C)[C@]12C[C@@H](C)[C@@]34O[C@](Cc5ccccc5)(O[C@@H]1[C@@H]3C=C(COC(=O)Cc1ccc(O)cc1)C[C@]1(O)C(=O)C(C)=C[C@@H]41)O2
REMARK SMILES IDX 23 1 22 2 21 3 20 4 9 5 8 6 10 7 6 8 18 10 44 11 19 12 5 13
REMARK SMILES IDX 7 14 4 15 11 16 12 17 13 18 17 19 14 20 16 21 15 22 2 23
REMARK SMILES IDX 3 24 1 25 35 26 36 27 43 28 38 29 42 30 39 32 40 33 41 34
REMARK SMILES IDX 37 35 24 37 25 38 26 39 27 40 28 41 29 42 34 43 30 44 33 45
REMARK SMILES IDX 31 46 32 47
REMARK H PARENT 37 36 32 48
REMARK Flexibility Score: 90.00
ROOT
ATOM      1  C   UNL     1      92.834 101.795  72.798  1.00  0.00     0.264 C 
ENDROOT
BRANCH   1   2
ATOM      2  C   UNL     1      94.214 101.220  72.572  1.00  0.00    -0.033 C 
ATOM      3  C   UNL     1      94.758 100.424  73.516  1.00  0.00    -0.015 C 
BRANCH   3   4
ATOM      4  C   UNL     1      96.139  99.791  73.565  1.00  0.00     0.078 C 
ATOM      5  O   UNL     1      95.938  97.544  72.551  1.00  0.00    -0.319 OA
ATOM      6  C   UNL     1      96.573  98.849  72.382  1.00  0.00     0.095 CG0
ATOM      7  C   UNL     1      95.937  97.030  73.897  1.00  0.00     0.289 C 
ATOM      8  C   UNL     1      98.147  98.680  72.456  1.00  0.00     0.023 C 
ATOM      9  G   UNL     1      96.022  99.376  71.025  1.00  0.00     0.000 G0
ATOM     10  O   UNL     1      95.297  97.933  74.795  1.00  0.00    -0.320 OA
ATOM     11  O   UNL     1      97.255  96.847  74.409  1.00  0.00    -0.313 OA
ATOM     12  C   UNL     1      96.293  98.965  74.866  1.00  0.00     0.170 C 
ATOM     13  C   UNL     1      98.656  98.710  73.930  1.00  0.00     0.049 C 
ATOM     14  C   UNL     1      98.713  97.437  71.747  1.00  0.00     0.011 C 
ATOM     15  C   UNL     1      97.613  98.155  74.901  1.00  0.00     0.122 C 
BRANCH   7  16
ATOM     16  C   UNL     1      95.207  95.702  73.898  1.00  0.00     0.135 C 
BRANCH  16  17
ATOM     17  C   UNL     1      94.408  95.495  75.160  1.00  0.00    -0.040 A 
ATOM     18  C   UNL     1      93.074  95.897  75.216  1.00  0.00     0.004 A 
ATOM     19  C   UNL     1      95.005  94.902  76.272  1.00  0.00     0.004 A 
ATOM     20  C   UNL     1      92.336  95.705  76.385  1.00  0.00     0.000 A 
ATOM     21  C   UNL     1      94.267  94.710  77.441  1.00  0.00     0.000 A 
ATOM     22  C   UNL     1      92.933  95.111  77.496  1.00  0.00     0.000 A 
ENDBRANCH  16  17
ENDBRANCH   7  16
BRANCH  15  23
ATOM     23  C   UNL     1      98.143  98.006  76.290  1.00  0.00    -0.046 C 
ATOM     24  C   UNL     1      99.380  98.791  76.614  1.00  0.00     0.042 C 
ATOM     25  C   UNL     1      97.548  97.216  77.195  1.00  0.00     0.010 C 
ENDBRANCH  15  23
ENDBRANCH   3   4
BRANCH   2  26
ATOM     26  C   UNL     1      94.822 101.634  71.246  1.00  0.00     0.078 C 
BRANCH  26  27
ATOM     27  C   UNL     1      96.102 100.921  70.812  1.00  0.00     0.140 C 
ATOM     28  C   UNL     1      96.019  99.395  71.022  1.00  0.00     0.086 CG0
ATOM     29  C   UNL     1      96.351 101.031  69.323  1.00  0.00     0.190 C 
ATOM     30  C   UNL     1      96.553  98.835  69.733  1.00  0.00    -0.010 C 
ATOM     31  G   UNL     1      96.572  98.858  72.374  1.00  0.00     0.000 G0
ATOM     32  O   UNL     1      96.305 102.065  68.672  1.00  0.00    -0.291 OA
ATOM     33  C   UNL     1      96.723  99.724  68.750  1.00  0.00    -0.008 C 
ATOM     34  C   UNL     1      97.145  99.524  67.348  1.00  0.00     0.048 C 
BRANCH  27  35
ATOM     35  O   UNL     1      97.249 101.518  71.393  1.00  0.00    -0.381 OA
ATOM     36  H   UNL     1      96.993 101.910  72.245  1.00  0.00     0.212 HD
ENDBRANCH  27  35
ENDBRANCH  26  27
ENDBRANCH   2  26
ENDBRANCH   1   2
BRANCH   1  37
ATOM     37  O   UNL     1      91.992 101.419  71.729  1.00  0.00    -0.461 OA
BRANCH  37  38
ATOM     38  C   UNL     1      90.855 102.175  71.556  1.00  0.00     0.310 C 
ATOM     39  O   UNL     1      90.833 103.391  71.433  1.00  0.00    -0.252 OA
BRANCH  38  40
ATOM     40  C   UNL     1      89.646 101.271  71.542  1.00  0.00     0.158 C 
BRANCH  40  41
ATOM     41  C   UNL     1      89.689 100.250  70.436  1.00  0.00    -0.037 A 
ATOM     42  C   UNL     1      89.520 100.650  69.110  1.00  0.00     0.008 A 
ATOM     43  C   UNL     1      89.896  98.904  70.736  1.00  0.00     0.008 A 
ATOM     44  C   UNL     1      89.558  99.704  68.085  1.00  0.00     0.046 A 
ATOM     45  C   UNL     1      89.935  97.957  69.711  1.00  0.00     0.046 A 
ATOM     46  C   UNL     1      89.766  98.357  68.386  1.00  0.00     0.115 A 
BRANCH  46  47
ATOM     47  O   UNL     1      89.803  97.435  67.386  1.00  0.00    -0.508 OA
ATOM     48  H   UNL     1      90.557  96.839  67.535  1.00  0.00     0.293 HD
ENDBRANCH  46  47
ENDBRANCH  40  41
ENDBRANCH  38  40
ENDBRANCH  37  38
ENDBRANCH   1  37
TORSDOF 10
ENDMDL
MODEL 6
REMARK VINA RESULT:    -5.985     22.327     25.821
REMARK INTER + INTRA:         -12.046
REMARK INTER:                 -11.789
REMARK INTRA:                  -0.256
REMARK UNBOUND:                -1.862
REMARK SMILES C=C(C)[C@]12C[C@@H](C)[C@@]34O[C@](Cc5ccccc5)(O[C@@H]1[C@@H]3C=C(COC(=O)Cc1ccc(O)cc1)C[C@]1(O)C(=O)C(C)=C[C@@H]41)O2
REMARK SMILES IDX 23 1 22 2 21 3 20 4 9 5 8 6 10 7 6 8 18 10 44 11 19 12 5 13
REMARK SMILES IDX 7 14 4 15 11 16 12 17 13 18 17 19 14 20 16 21 15 22 2 23
REMARK SMILES IDX 3 24 1 25 35 26 36 27 43 28 38 29 42 30 39 32 40 33 41 34
REMARK SMILES IDX 37 35 24 37 25 38 26 39 27 40 28 41 29 42 34 43 30 44 33 45
REMARK SMILES IDX 31 46 32 47
REMARK H PARENT 37 36 32 48
REMARK Flexibility Score: 90.00
ROOT
ATOM      1  C   UNL     1      96.260  81.292  83.715  1.00  0.00     0.264 C 
ENDROOT
BRANCH   1   2
ATOM      2  C   UNL     1      95.072  81.753  84.528  1.00  0.00    -0.033 C 
ATOM      3  C   UNL     1      93.905  81.083  84.427  1.00  0.00    -0.015 C 
BRANCH   3   4
ATOM      4  C   UNL     1      92.561  81.385  85.071  1.00  0.00     0.078 C 
ATOM      5  O   UNL     1      92.473  80.109  87.188  1.00  0.00    -0.319 OA
ATOM      6  C   UNL     1      92.483  81.464  86.640  1.00  0.00     0.095 CG0
ATOM      7  C   UNL     1      91.637  79.168  86.487  1.00  0.00     0.289 C 
ATOM      8  C   UNL     1      91.127  82.191  87.017  1.00  0.00     0.023 C 
ATOM      9  G   UNL     1      93.773  82.109  87.226  1.00  0.00     0.000 G0
ATOM     10  O   UNL     1      92.008  79.068  85.115  1.00  0.00    -0.320 OA
ATOM     11  O   UNL     1      90.265  79.556  86.488  1.00  0.00    -0.313 OA
ATOM     12  C   UNL     1      91.518  80.328  84.630  1.00  0.00     0.170 C 
ATOM     13  C   UNL     1      90.000  81.868  85.989  1.00  0.00     0.049 C 
ATOM     14  C   UNL     1      90.609  81.927  88.441  1.00  0.00     0.011 C 
ATOM     15  C   UNL     1      90.172  80.476  85.380  1.00  0.00     0.122 C 
BRANCH   7  16
ATOM     16  C   UNL     1      91.779  77.816  87.156  1.00  0.00     0.135 C 
BRANCH  16  17
ATOM     17  C   UNL     1      91.608  76.679  86.179  1.00  0.00    -0.040 A 
ATOM     18  C   UNL     1      90.421  76.550  85.460  1.00  0.00     0.004 A 
ATOM     19  C   UNL     1      92.639  75.758  85.996  1.00  0.00     0.004 A 
ATOM     20  C   UNL     1      90.263  75.499  84.556  1.00  0.00     0.000 A 
ATOM     21  C   UNL     1      92.481  74.707  85.092  1.00  0.00     0.000 A 
ATOM     22  C   UNL     1      91.294  74.577  84.373  1.00  0.00     0.000 A 
ENDBRANCH  16  17
ENDBRANCH   7  16
BRANCH  15  23
ATOM     23  C   UNL     1      89.009  80.073  84.532  1.00  0.00    -0.046 C 
ATOM     24  C   UNL     1      87.652  80.449  85.048  1.00  0.00     0.042 C 
ATOM     25  C   UNL     1      89.170  79.413  83.376  1.00  0.00     0.010 C 
ENDBRANCH  15  23
ENDBRANCH   3   4
BRANCH   2  26
ATOM     26  C   UNL     1      95.375  82.961  85.394  1.00  0.00     0.078 C 
BRANCH  26  27
ATOM     27  C   UNL     1      94.337  83.343  86.447  1.00  0.00     0.140 C 
ATOM     28  C   UNL     1      93.796  82.114  87.207  1.00  0.00     0.086 CG0
ATOM     29  C   UNL     1      94.924  84.182  87.562  1.00  0.00     0.190 C 
ATOM     30  C   UNL     1      93.835  82.548  88.646  1.00  0.00    -0.010 C 
ATOM     31  G   UNL     1      92.497  81.473  86.637  1.00  0.00     0.000 G0
ATOM     32  O   UNL     1      95.628  85.170  87.410  1.00  0.00    -0.291 OA
ATOM     33  C   UNL     1      94.486  83.690  88.882  1.00  0.00    -0.008 C 
ATOM     34  C   UNL     1      94.789  84.366  90.160  1.00  0.00     0.048 C 
BRANCH  27  35
ATOM     35  O   UNL     1      93.324  84.170  85.899  1.00  0.00    -0.381 OA
ATOM     36  H   UNL     1      93.175  83.902  84.976  1.00  0.00     0.212 HD
ENDBRANCH  27  35
ENDBRANCH  26  27
ENDBRANCH   2  26
ENDBRANCH   1   2
BRANCH   1  37
ATOM     37  O   UNL     1      95.802  80.620  82.560  1.00  0.00    -0.461 OA
BRANCH  37  38
ATOM     38  C   UNL     1      96.739  79.878  81.879  1.00  0.00     0.310 C 
ATOM     39  O   UNL     1      96.760  78.656  81.821  1.00  0.00    -0.252 OA
BRANCH  38  40
ATOM     40  C   UNL     1      97.731  80.803  81.216  1.00  0.00     0.158 C 
BRANCH  40  41
ATOM     41  C   UNL     1      97.602  80.825  79.715  1.00  0.00    -0.037 A 
ATOM     42  C   UNL     1      97.865  79.672  78.975  1.00  0.00     0.008 A 
ATOM     43  C   UNL     1      97.220  81.998  79.064  1.00  0.00     0.008 A 
ATOM     44  C   UNL     1      97.747  79.693  77.585  1.00  0.00     0.046 A 
ATOM     45  C   UNL     1      97.100  82.019  77.674  1.00  0.00     0.046 A 
ATOM     46  C   UNL     1      97.364  80.867  76.935  1.00  0.00     0.115 A 
BRANCH  46  47
ATOM     47  O   UNL     1      97.249  80.886  75.579  1.00  0.00    -0.508 OA
ATOM     48  H   UNL     1      97.418  81.791  75.261  1.00  0.00     0.293 HD
ENDBRANCH  46  47
ENDBRANCH  40  41
ENDBRANCH  38  40
ENDBRANCH  37  38
ENDBRANCH   1  37
TORSDOF 10
ENDMDL
MODEL 7
REMARK VINA RESULT:    -5.965      3.038      7.642
REMARK INTER + INTRA:         -12.012
REMARK INTER:                 -10.632
REMARK INTRA:                  -1.379
REMARK UNBOUND:                -1.862
REMARK SMILES C=C(C)[C@]12C[C@@H](C)[C@@]34O[C@](Cc5ccccc5)(O[C@@H]1[C@@H]3C=C(COC(=O)Cc1ccc(O)cc1)C[C@]1(O)C(=O)C(C)=C[C@@H]41)O2
REMARK SMILES IDX 23 1 22 2 21 3 20 4 9 5 8 6 10 7 6 8 18 10 44 11 19 12 5 13
REMARK SMILES IDX 7 14 4 15 11 16 12 17 13 18 17 19 14 20 16 21 15 22 2 23
REMARK SMILES IDX 3 24 1 25 35 26 36 27 43 28 38 29 42 30 39 32 40 33 41 34
REMARK SMILES IDX 37 35 24 37 25 38 26 39 27 40 28 41 29 42 34 43 30 44 33 45
REMARK SMILES IDX 31 46 32 47
REMARK H PARENT 37 36 32 48
REMARK Flexibility Score: 90.00
ROOT
ATOM      1  C   UNL     1      96.495  99.952  73.619  1.00  0.00     0.264 C 
ENDROOT
BRANCH   1   2
ATOM      2  C   UNL     1      95.475 100.984  73.197  1.00  0.00    -0.033 C 
ATOM      3  C   UNL     1      94.887 100.873  71.988  1.00  0.00    -0.015 C 
BRANCH   3   4
ATOM      4  C   UNL     1      93.901 101.807  71.305  1.00  0.00     0.078 C 
ATOM      5  O   UNL     1      91.633 100.980  71.843  1.00  0.00    -0.319 OA
ATOM      6  C   UNL     1      92.537 102.114  72.027  1.00  0.00     0.095 CG0
ATOM      7  C   UNL     1      91.619 100.413  70.519  1.00  0.00     0.289 C 
ATOM      8  C   UNL     1      91.911 103.399  71.344  1.00  0.00     0.023 C 
ATOM      9  G   UNL     1      92.736 102.206  73.568  1.00  0.00     0.000 G0
ATOM     10  O   UNL     1      92.920  99.987  70.124  1.00  0.00    -0.320 OA
ATOM     11  O   UNL     1      91.205 101.354  69.531  1.00  0.00    -0.313 OA
ATOM     12  C   UNL     1      93.545 101.261  69.901  1.00  0.00     0.170 C 
ATOM     13  C   UNL     1      92.260 103.467  69.825  1.00  0.00     0.049 C 
ATOM     14  C   UNL     1      90.393 103.571  71.526  1.00  0.00     0.011 C 
ATOM     15  C   UNL     1      92.417 102.072  69.217  1.00  0.00     0.122 C 
BRANCH   7  16
ATOM     16  C   UNL     1      90.669  99.231  70.519  1.00  0.00     0.135 C 
BRANCH  16  17
ATOM     17  C   UNL     1      89.894  99.128  69.229  1.00  0.00    -0.040 A 
ATOM     18  C   UNL     1      90.286  98.216  68.250  1.00  0.00     0.004 A 
ATOM     19  C   UNL     1      88.784  99.945  69.017  1.00  0.00     0.004 A 
ATOM     20  C   UNL     1      89.568  98.121  67.057  1.00  0.00     0.000 A 
ATOM     21  C   UNL     1      88.066  99.849  67.824  1.00  0.00     0.000 A 
ATOM     22  C   UNL     1      88.458  98.938  66.845  1.00  0.00     0.000 A 
ENDBRANCH  16  17
ENDBRANCH   7  16
BRANCH  15  23
ATOM     23  C   UNL     1      92.571 102.107  67.732  1.00  0.00    -0.046 C 
ATOM     24  C   UNL     1      91.454 101.501  66.935  1.00  0.00     0.042 C 
ATOM     25  C   UNL     1      93.647 102.650  67.143  1.00  0.00     0.010 C 
ENDBRANCH  15  23
ENDBRANCH   3   4
BRANCH   2  26
ATOM     26  C   UNL     1      95.237 102.051  74.248  1.00  0.00     0.078 C 
BRANCH  26  27
ATOM     27  C   UNL     1      94.034 102.970  74.050  1.00  0.00     0.140 C 
ATOM     28  C   UNL     1      92.782 102.200  73.580  1.00  0.00     0.086 CG0
ATOM     29  C   UNL     1      93.562 103.596  75.346  1.00  0.00     0.190 C 
ATOM     30  C   UNL     1      91.688 102.741  74.457  1.00  0.00    -0.010 C 
ATOM     31  G   UNL     1      92.561 102.127  72.041  1.00  0.00     0.000 G0
ATOM     32  O   UNL     1      94.278 104.152  76.166  1.00  0.00    -0.291 OA
ATOM     33  C   UNL     1      92.095 103.505  75.475  1.00  0.00    -0.008 C 
ATOM     34  C   UNL     1      91.319 104.127  76.568  1.00  0.00     0.048 C 
BRANCH  27  35
ATOM     35  O   UNL     1      94.360 104.084  73.236  1.00  0.00    -0.381 OA
ATOM     36  H   UNL     1      94.197 103.844  72.308  1.00  0.00     0.212 HD
ENDBRANCH  27  35
ENDBRANCH  26  27
ENDBRANCH   2  26
ENDBRANCH   1   2
BRANCH   1  37
ATOM     37  O   UNL     1      96.651  99.001  72.588  1.00  0.00    -0.461 OA
BRANCH  37  38
ATOM     38  C   UNL     1      96.768  97.688  72.984  1.00  0.00     0.310 C 
ATOM     39  O   UNL     1      97.720  97.221  73.593  1.00  0.00    -0.252 OA
BRANCH  38  40
ATOM     40  C   UNL     1      95.543  96.920  72.550  1.00  0.00     0.158 C 
BRANCH  40  41
ATOM     41  C   UNL     1      94.700  96.455  73.710  1.00  0.00    -0.037 A 
ATOM     42  C   UNL     1      94.871  95.170  74.226  1.00  0.00     0.008 A 
ATOM     43  C   UNL     1      93.748  97.308  74.267  1.00  0.00     0.008 A 
ATOM     44  C   UNL     1      94.090  94.740  75.299  1.00  0.00     0.046 A 
ATOM     45  C   UNL     1      92.967  96.878  75.340  1.00  0.00     0.046 A 
ATOM     46  C   UNL     1      93.138  95.594  75.856  1.00  0.00     0.115 A 
BRANCH  46  47
ATOM     47  O   UNL     1      92.376  95.173  76.902  1.00  0.00    -0.508 OA
ATOM     48  H   UNL     1      91.618  95.775  77.003  1.00  0.00     0.293 HD
ENDBRANCH  46  47
ENDBRANCH  40  41
ENDBRANCH  38  40
ENDBRANCH  37  38
ENDBRANCH   1  37
TORSDOF 10
ENDMDL
MODEL 8
REMARK VINA RESULT:    -5.940     22.653     26.165
REMARK INTER + INTRA:         -11.970
REMARK INTER:                 -11.090
REMARK INTRA:                  -0.880
REMARK UNBOUND:                -1.862
REMARK SMILES C=C(C)[C@]12C[C@@H](C)[C@@]34O[C@](Cc5ccccc5)(O[C@@H]1[C@@H]3C=C(COC(=O)Cc1ccc(O)cc1)C[C@]1(O)C(=O)C(C)=C[C@@H]41)O2
REMARK SMILES IDX 23 1 22 2 21 3 20 4 9 5 8 6 10 7 6 8 18 10 44 11 19 12 5 13
REMARK SMILES IDX 7 14 4 15 11 16 12 17 13 18 17 19 14 20 16 21 15 22 2 23
REMARK SMILES IDX 3 24 1 25 35 26 36 27 43 28 38 29 42 30 39 32 40 33 41 34
REMARK SMILES IDX 37 35 24 37 25 38 26 39 27 40 28 41 29 42 34 43 30 44 33 45
REMARK SMILES IDX 31 46 32 47
REMARK H PARENT 37 36 32 48
REMARK Flexibility Score: 90.00
ROOT
ATOM      1  C   UNL     1      95.197  85.392  86.655  1.00  0.00     0.264 C 
ENDROOT
BRANCH   1   2
ATOM      2  C   UNL     1      93.969  84.720  87.224  1.00  0.00    -0.033 C 
ATOM      3  C   UNL     1      93.334  83.780  86.495  1.00  0.00    -0.015 C 
BRANCH   3   4
ATOM      4  C   UNL     1      92.054  83.020  86.803  1.00  0.00     0.078 C 
ATOM      5  O   UNL     1      92.716  80.906  87.900  1.00  0.00    -0.319 OA
ATOM      6  C   UNL     1      91.993  82.157  88.117  1.00  0.00     0.095 CG0
ATOM      7  C   UNL     1      92.482  80.272  86.628  1.00  0.00     0.289 C 
ATOM      8  C   UNL     1      90.470  81.838  88.411  1.00  0.00     0.023 C 
ATOM      9  G   UNL     1      92.765  82.856  89.274  1.00  0.00     0.000 G0
ATOM     10  O   UNL     1      92.807  81.142  85.548  1.00  0.00    -0.320 OA
ATOM     11  O   UNL     1      91.112  79.922  86.441  1.00  0.00    -0.313 OA
ATOM     12  C   UNL     1      91.712  82.067  85.632  1.00  0.00     0.170 C 
ATOM     13  C   UNL     1      89.652  81.684  87.092  1.00  0.00     0.049 C 
ATOM     14  C   UNL     1      90.212  80.620  89.315  1.00  0.00     0.011 C 
ATOM     15  C   UNL     1      90.514  81.140  85.952  1.00  0.00     0.122 C 
BRANCH   7  16
ATOM     16  C   UNL     1      93.336  79.022  86.556  1.00  0.00     0.135 C 
BRANCH  16  17
ATOM     17  C   UNL     1      92.564  77.837  86.030  1.00  0.00    -0.040 A 
ATOM     18  C   UNL     1      92.670  77.477  84.687  1.00  0.00     0.004 A 
ATOM     19  C   UNL     1      91.745  77.104  86.887  1.00  0.00     0.004 A 
ATOM     20  C   UNL     1      91.956  76.381  84.200  1.00  0.00     0.000 A 
ATOM     21  C   UNL     1      91.031  76.008  86.400  1.00  0.00     0.000 A 
ATOM     22  C   UNL     1      91.137  75.647  85.057  1.00  0.00     0.000 A 
ENDBRANCH  16  17
ENDBRANCH   7  16
BRANCH  15  23
ATOM     23  C   UNL     1      89.714  80.814  84.733  1.00  0.00    -0.046 C 
ATOM     24  C   UNL     1      88.712  81.845  84.305  1.00  0.00     0.042 C 
ATOM     25  C   UNL     1      89.882  79.667  84.060  1.00  0.00     0.010 C 
ENDBRANCH  15  23
ENDBRANCH   3   4
BRANCH   2  26
ATOM     26  C   UNL     1      93.608  85.217  88.612  1.00  0.00     0.078 C 
BRANCH  26  27
ATOM     27  C   UNL     1      92.582  84.404  89.399  1.00  0.00     0.140 C 
ATOM     28  C   UNL     1      92.800  82.885  89.248  1.00  0.00     0.086 CG0
ATOM     29  C   UNL     1      92.708  84.604  90.894  1.00  0.00     0.190 C 
ATOM     30  C   UNL     1      92.688  82.373  90.657  1.00  0.00    -0.010 C 
ATOM     31  G   UNL     1      91.994  82.185  88.115  1.00  0.00     0.000 G0
ATOM     32  O   UNL     1      92.787  85.684  91.460  1.00  0.00    -0.291 OA
ATOM     33  C   UNL     1      92.662  83.313  91.606  1.00  0.00    -0.008 C 
ATOM     34  C   UNL     1      92.640  83.178  93.078  1.00  0.00     0.048 C 
BRANCH  27  35
ATOM     35  O   UNL     1      91.258  84.824  89.112  1.00  0.00    -0.381 OA
ATOM     36  H   UNL     1      90.965  84.379  88.298  1.00  0.00     0.212 HD
ENDBRANCH  27  35
ENDBRANCH  26  27
ENDBRANCH   2  26
ENDBRANCH   1   2
BRANCH   1  37
ATOM     37  O   UNL     1      95.921  86.005  87.700  1.00  0.00    -0.461 OA
BRANCH  37  38
ATOM     38  C   UNL     1      96.153  87.355  87.569  1.00  0.00     0.310 C 
ATOM     39  O   UNL     1      96.086  87.980  86.520  1.00  0.00    -0.252 OA
BRANCH  38  40
ATOM     40  C   UNL     1      96.501  87.940  88.917  1.00  0.00     0.158 C 
BRANCH  40  41
ATOM     41  C   UNL     1      95.392  88.779  89.497  1.00  0.00    -0.037 A 
ATOM     42  C   UNL     1      94.493  88.216  90.403  1.00  0.00     0.008 A 
ATOM     43  C   UNL     1      95.264  90.118  89.129  1.00  0.00     0.008 A 
ATOM     44  C   UNL     1      93.465  88.993  90.940  1.00  0.00     0.046 A 
ATOM     45  C   UNL     1      94.238  90.895  89.666  1.00  0.00     0.046 A 
ATOM     46  C   UNL     1      93.338  90.333  90.571  1.00  0.00     0.115 A 
BRANCH  46  47
ATOM     47  O   UNL     1      92.336  91.090  91.094  1.00  0.00    -0.508 OA
ATOM     48  H   UNL     1      92.726  91.818  91.608  1.00  0.00     0.293 HD
ENDBRANCH  46  47
ENDBRANCH  40  41
ENDBRANCH  38  40
ENDBRANCH  37  38
ENDBRANCH   1  37
TORSDOF 10
ENDMDL
MODEL 9
REMARK VINA RESULT:    -5.794     23.116     26.087
REMARK INTER + INTRA:         -11.721
REMARK INTER:                 -10.882
REMARK INTRA:                  -0.839
REMARK UNBOUND:                -1.862
REMARK SMILES C=C(C)[C@]12C[C@@H](C)[C@@]34O[C@](Cc5ccccc5)(O[C@@H]1[C@@H]3C=C(COC(=O)Cc1ccc(O)cc1)C[C@]1(O)C(=O)C(C)=C[C@@H]41)O2
REMARK SMILES IDX 23 1 22 2 21 3 20 4 9 5 8 6 10 7 6 8 18 10 44 11 19 12 5 13
REMARK SMILES IDX 7 14 4 15 11 16 12 17 13 18 17 19 14 20 16 21 15 22 2 23
REMARK SMILES IDX 3 24 1 25 35 26 36 27 43 28 38 29 42 30 39 32 40 33 41 34
REMARK SMILES IDX 37 35 24 37 25 38 26 39 27 40 28 41 29 42 34 43 30 44 33 45
REMARK SMILES IDX 31 46 32 47
REMARK H PARENT 37 36 32 48
REMARK Flexibility Score: 90.00
ROOT
ATOM      1  C   UNL     1      94.385  85.231  86.699  1.00  0.00     0.264 C 
ENDROOT
BRANCH   1   2
ATOM      2  C   UNL     1      93.363  84.276  87.270  1.00  0.00    -0.033 C 
ATOM      3  C   UNL     1      92.722  83.425  86.442  1.00  0.00    -0.015 C 
BRANCH   3   4
ATOM      4  C   UNL     1      91.612  82.432  86.749  1.00  0.00     0.078 C 
ATOM      5  O   UNL     1      92.697  80.258  87.209  1.00  0.00    -0.319 OA
ATOM      6  C   UNL     1      91.886  81.310  87.817  1.00  0.00     0.095 CG0
ATOM      7  C   UNL     1      92.314  79.881  85.873  1.00  0.00     0.289 C 
ATOM      8  C   UNL     1      90.485  80.708  88.250  1.00  0.00     0.023 C 
ATOM      9  G   UNL     1      92.766  81.856  88.979  1.00  0.00     0.000 G0
ATOM     10  O   UNL     1      92.341  80.999  84.991  1.00  0.00    -0.320 OA
ATOM     11  O   UNL     1      90.982  79.375  85.812  1.00  0.00    -0.313 OA
ATOM     12  C   UNL     1      91.179  81.709  85.450  1.00  0.00     0.170 C 
ATOM     13  C   UNL     1      89.469  80.717  87.067  1.00  0.00     0.049 C 
ATOM     14  C   UNL     1      90.533  79.302  88.870  1.00  0.00     0.011 C 
ATOM     15  C   UNL     1      90.171  80.564  85.717  1.00  0.00     0.122 C 
BRANCH   7  16
ATOM     16  C   UNL     1      93.279  78.819  85.384  1.00  0.00     0.135 C 
BRANCH  16  17
ATOM     17  C   UNL     1      94.656  79.379  85.130  1.00  0.00    -0.040 A 
ATOM     18  C   UNL     1      94.939  80.013  83.920  1.00  0.00     0.004 A 
ATOM     19  C   UNL     1      95.646  79.263  86.105  1.00  0.00     0.004 A 
ATOM     20  C   UNL     1      96.213  80.532  83.686  1.00  0.00     0.000 A 
ATOM     21  C   UNL     1      96.920  79.782  85.871  1.00  0.00     0.000 A 
ATOM     22  C   UNL     1      97.203  80.416  84.662  1.00  0.00     0.000 A 
ENDBRANCH  16  17
ENDBRANCH   7  16
BRANCH  15  23
ATOM     23  C   UNL     1      89.210  80.388  84.587  1.00  0.00    -0.046 C 
ATOM     24  C   UNL     1      89.474  79.233  83.667  1.00  0.00     0.042 C 
ATOM     25  C   UNL     1      88.170  81.215  84.405  1.00  0.00     0.010 C 
ENDBRANCH  15  23
ENDBRANCH   3   4
BRANCH   2  26
ATOM     26  C   UNL     1      93.196  84.410  88.772  1.00  0.00     0.078 C 
BRANCH  26  27
ATOM     27  C   UNL     1      92.415  83.310  89.488  1.00  0.00     0.140 C 
ATOM     28  C   UNL     1      92.777  81.903  88.967  1.00  0.00     0.086 CG0
ATOM     29  C   UNL     1      92.765  83.213  90.958  1.00  0.00     0.190 C 
ATOM     30  C   UNL     1      92.961  81.101  90.226  1.00  0.00    -0.010 C 
ATOM     31  G   UNL     1      91.878  81.341  87.828  1.00  0.00     0.000 G0
ATOM     32  O   UNL     1      92.814  84.153  91.737  1.00  0.00    -0.291 OA
ATOM     33  C   UNL     1      92.987  81.811  91.358  1.00  0.00    -0.008 C 
ATOM     34  C   UNL     1      93.227  81.374  92.749  1.00  0.00     0.048 C 
BRANCH  27  35
ATOM     35  O   UNL     1      91.023  83.579  89.489  1.00  0.00    -0.381 OA
ATOM     36  H   UNL     1      90.720  83.630  88.567  1.00  0.00     0.212 HD
ENDBRANCH  27  35
ENDBRANCH  26  27
ENDBRANCH   2  26
ENDBRANCH   1   2
BRANCH   1  37
ATOM     37  O   UNL     1      95.384  85.478  87.666  1.00  0.00    -0.461 OA
BRANCH  37  38
ATOM     38  C   UNL     1      95.908  86.750  87.688  1.00  0.00     0.310 C 
ATOM     39  O   UNL     1      96.143  87.430  86.699  1.00  0.00    -0.252 OA
BRANCH  38  40
ATOM     40  C   UNL     1      96.144  87.173  89.118  1.00  0.00     0.158 C 
BRANCH  40  41
ATOM     41  C   UNL     1      95.091  88.120  89.632  1.00  0.00    -0.037 A 
ATOM     42  C   UNL     1      93.959  87.620  90.278  1.00  0.00     0.008 A 
ATOM     43  C   UNL     1      95.246  89.495  89.463  1.00  0.00     0.008 A 
ATOM     44  C   UNL     1      92.983  88.497  90.754  1.00  0.00     0.046 A 
ATOM     45  C   UNL     1      94.271  90.372  89.939  1.00  0.00     0.046 A 
ATOM     46  C   UNL     1      93.140  89.873  90.584  1.00  0.00     0.115 A 
BRANCH  46  47
ATOM     47  O   UNL     1      92.188  90.728  91.048  1.00  0.00    -0.508 OA
ATOM     48  H   UNL     1      92.078  90.589  92.005  1.00  0.00     0.293 HD
ENDBRANCH  46  47
ENDBRANCH  40  41
ENDBRANCH  38  40
ENDBRANCH  37  38
ENDBRANCH   1  37
TORSDOF 10
ENDMDL
MODEL 10
REMARK VINA RESULT:    -5.669     18.701     22.561
REMARK INTER + INTRA:         -11.509
REMARK INTER:                  -9.011
REMARK INTRA:                  -2.498
REMARK UNBOUND:                -1.862
REMARK SMILES C=C(C)[C@]12C[C@@H](C)[C@@]34O[C@](Cc5ccccc5)(O[C@@H]1[C@@H]3C=C(COC(=O)Cc1ccc(O)cc1)C[C@]1(O)C(=O)C(C)=C[C@@H]41)O2
REMARK SMILES IDX 23 1 22 2 21 3 20 4 9 5 8 6 10 7 6 8 18 10 44 11 19 12 5 13
REMARK SMILES IDX 7 14 4 15 11 16 12 17 13 18 17 19 14 20 16 21 15 22 2 23
REMARK SMILES IDX 3 24 1 25 35 26 36 27 43 28 38 29 42 30 39 32 40 33 41 34
REMARK SMILES IDX 37 35 24 37 25 38 26 39 27 40 28 41 29 42 34 43 30 44 33 45
REMARK SMILES IDX 31 46 32 47
REMARK H PARENT 37 36 32 48
REMARK Flexibility Score: 90.00
ROOT
ATOM      1  C   UNL     1     100.301  83.822  72.375  1.00  0.00     0.264 C 
ENDROOT
BRANCH   1   2
ATOM      2  C   UNL     1      99.342  82.781  72.905  1.00  0.00    -0.033 C 
ATOM      3  C   UNL     1      99.647  81.474  72.768  1.00  0.00    -0.015 C 
BRANCH   3   4
ATOM      4  C   UNL     1      98.829  80.248  73.142  1.00  0.00     0.078 C 
ATOM      5  O   UNL     1      99.517  79.590  75.424  1.00  0.00    -0.319 OA
ATOM      6  C   UNL     1      98.382  80.074  74.640  1.00  0.00     0.095 CG0
ATOM      7  C   UNL     1     100.302  78.558  74.797  1.00  0.00     0.289 C 
ATOM      8  C   UNL     1      97.224  78.993  74.673  1.00  0.00     0.023 C 
ATOM      9  G   UNL     1      98.030  81.450  75.276  1.00  0.00     0.000 G0
ATOM     10  O   UNL     1     100.810  78.986  73.537  1.00  0.00    -0.320 OA
ATOM     11  O   UNL     1      99.539  77.385  74.526  1.00  0.00    -0.313 OA
ATOM     12  C   UNL     1      99.603  78.963  72.759  1.00  0.00     0.170 C 
ATOM     13  C   UNL     1      97.423  77.908  73.571  1.00  0.00     0.049 C 
ATOM     14  C   UNL     1      96.999  78.306  76.030  1.00  0.00     0.011 C 
ATOM     15  C   UNL     1      98.904  77.677  73.264  1.00  0.00     0.122 C 
BRANCH   7  16
ATOM     16  C   UNL     1     101.452  78.209  75.722  1.00  0.00     0.135 C 
BRANCH  16  17
ATOM     17  C   UNL     1     102.786  78.603  75.140  1.00  0.00    -0.040 A 
ATOM     18  C   UNL     1     103.381  79.808  75.512  1.00  0.00     0.004 A 
ATOM     19  C   UNL     1     103.424  77.761  74.229  1.00  0.00     0.004 A 
ATOM     20  C   UNL     1     104.616  80.172  74.974  1.00  0.00     0.000 A 
ATOM     21  C   UNL     1     104.659  78.125  73.691  1.00  0.00     0.000 A 
ATOM     22  C   UNL     1     105.254  79.330  74.063  1.00  0.00     0.000 A 
ENDBRANCH  16  17
ENDBRANCH   7  16
BRANCH  15  23
ATOM     23  C   UNL     1      99.126  76.519  72.347  1.00  0.00    -0.046 C 
ATOM     24  C   UNL     1      99.601  76.852  70.964  1.00  0.00     0.042 C 
ATOM     25  C   UNL     1      98.913  75.254  72.737  1.00  0.00     0.010 C 
ENDBRANCH  15  23
ENDBRANCH   3   4
BRANCH   2  26
ATOM     26  C   UNL     1      98.111  83.382  73.558  1.00  0.00     0.078 C 
BRANCH  26  27
ATOM     27  C   UNL     1      97.211  82.438  74.352  1.00  0.00     0.140 C 
ATOM     28  C   UNL     1      98.020  81.474  75.245  1.00  0.00     0.086 CG0
ATOM     29  C   UNL     1      96.349  83.169  75.360  1.00  0.00     0.190 C 
ATOM     30  C   UNL     1      97.300  81.532  76.564  1.00  0.00    -0.010 C 
ATOM     31  G   UNL     1      98.364  80.089  74.624  1.00  0.00     0.000 G0
ATOM     32  O   UNL     1      95.674  84.160  75.127  1.00  0.00    -0.291 OA
ATOM     33  C   UNL     1      96.376  82.492  76.670  1.00  0.00    -0.008 C 
ATOM     34  C   UNL     1      95.545  82.889  77.825  1.00  0.00     0.048 C 
BRANCH  27  35
ATOM     35  O   UNL     1      96.272  81.788  73.512  1.00  0.00    -0.381 OA
ATOM     36  H   UNL     1      96.044  82.390  72.784  1.00  0.00     0.212 HD
ENDBRANCH  27  35
ENDBRANCH  26  27
ENDBRANCH   2  26
ENDBRANCH   1   2
BRANCH   1  37
ATOM     37  O   UNL     1     101.505  83.764  73.110  1.00  0.00    -0.461 OA
BRANCH  37  38
ATOM     38  C   UNL     1     102.667  83.757  72.372  1.00  0.00     0.310 C 
ATOM     39  O   UNL     1     102.933  84.542  71.474  1.00  0.00    -0.252 OA
BRANCH  38  40
ATOM     40  C   UNL     1     103.556  82.632  72.845  1.00  0.00     0.158 C 
BRANCH  40  41
ATOM     41  C   UNL     1     103.832  81.610  71.772  1.00  0.00    -0.037 A 
ATOM     42  C   UNL     1     102.843  80.697  71.407  1.00  0.00     0.008 A 
ATOM     43  C   UNL     1     105.077  81.577  71.144  1.00  0.00     0.008 A 
ATOM     44  C   UNL     1     103.098  79.751  70.415  1.00  0.00     0.046 A 
ATOM     45  C   UNL     1     105.333  80.631  70.151  1.00  0.00     0.046 A 
ATOM     46  C   UNL     1     104.344  79.718  69.787  1.00  0.00     0.115 A 
BRANCH  46  47
ATOM     47  O   UNL     1     104.593  78.794  68.819  1.00  0.00    -0.508 OA
ATOM     48  H   UNL     1     105.553  78.751  68.664  1.00  0.00     0.293 HD
ENDBRANCH  46  47
ENDBRANCH  40  41
ENDBRANCH  38  40
ENDBRANCH  37  38
ENDBRANCH   1  37
TORSDOF 10
ENDMDL
