MODEL 1
REMARK VINA RESULT:    -5.899      0.000      0.000
REMARK INTER + INTRA:         -10.396
REMARK INTER:                  -9.520
REMARK INTRA:                  -0.875
REMARK UNBOUND:                -0.875
REMARK SMILES COc1cc(CNC(=O)CCCCCCC(C)C)ccc1O
REMARK SMILES IDX 11 1 10 2 8 3 7 4 9 6 6 7 5 8 3 9 21 10 4 11 20 12 19 13
REMARK SMILES IDX 2 14 1 15 22 16 12 18 13 19 14 20 15 21 16 22 17 23 18 24
REMARK H PARENT 7 5 22 17
REMARK Flexibility Score: inf
ROOT
ATOM      1  C   UNL     1      97.236  81.335  77.176  1.00  0.00     0.010 C 
ENDROOT
BRANCH   1   2
ATOM      2  C   UNL     1      98.136  81.719  78.382  1.00  0.00     0.100 C 
BRANCH   2   3
ATOM      3  C   UNL     1      97.791  80.992  79.625  1.00  0.00     0.220 C 
ATOM      4  N   UNL     1      97.809  81.636  80.828  1.00  0.00    -0.352 N 
ATOM      5  H   UNL     1      98.112  82.598  80.786  1.00  0.00     0.163 HD
ATOM      6  O   UNL     1      97.460  79.784  79.542  1.00  0.00    -0.275 OA
BRANCH   4   7
ATOM      7  C   UNL     1      97.439  81.053  82.082  1.00  0.00     0.151 C 
BRANCH   7   8
ATOM      8  C   UNL     1      96.603  81.953  82.923  1.00  0.00    -0.025 A 
ATOM      9  C   UNL     1      94.919  82.260  84.688  1.00  0.00     0.160 A 
ATOM     10  C   UNL     1      95.038  83.662  84.561  1.00  0.00     0.157 A 
ATOM     11  C   UNL     1      95.687  81.418  83.857  1.00  0.00     0.056 A 
ATOM     12  C   UNL     1      95.917  84.206  83.607  1.00  0.00     0.050 A 
ATOM     13  C   UNL     1      96.703  83.359  82.801  1.00  0.00     0.009 A 
BRANCH   9  14
ATOM     14  O   UNL     1      94.037  81.721  85.585  1.00  0.00    -0.493 OA
ATOM     15  C   UNL     1      92.793  81.303  84.995  1.00  0.00     0.278 C 
ENDBRANCH   9  14
BRANCH  10  16
ATOM     16  O   UNL     1      94.309  84.497  85.347  1.00  0.00    -0.504 OA
ATOM     17  H   UNL     1      93.814  85.105  84.794  1.00  0.00     0.293 HD
ENDBRANCH  10  16
ENDBRANCH   7   8
ENDBRANCH   4   7
ENDBRANCH   2   3
ENDBRANCH   1   2
BRANCH   1  18
ATOM     18  C   UNL     1      95.938  82.189  77.117  1.00  0.00     0.001 C 
BRANCH  18  19
ATOM     19  C   UNL     1      96.080  83.490  76.278  1.00  0.00     0.000 C 
BRANCH  19  20
ATOM     20  C   UNL     1      96.152  83.184  74.756  1.00  0.00     0.000 C 
BRANCH  20  21
ATOM     21  C   UNL     1      97.588  83.224  74.165  1.00  0.00     0.003 C 
BRANCH  21  22
ATOM     22  C   UNL     1      98.129  81.841  73.675  1.00  0.00    -0.017 C 
ATOM     23  C   UNL     1      99.259  82.039  72.626  1.00  0.00     0.007 C 
ATOM     24  C   UNL     1      97.022  80.901  73.113  1.00  0.00     0.007 C 
ENDBRANCH  21  22
ENDBRANCH  20  21
ENDBRANCH  19  20
ENDBRANCH  18  19
ENDBRANCH   1  18
TORSDOF 11
ENDMDL
MODEL 2
REMARK VINA RESULT:    -5.877     12.601     14.321
REMARK INTER + INTRA:         -10.360
REMARK INTER:                  -9.183
REMARK INTRA:                  -1.177
REMARK UNBOUND:                -0.875
REMARK SMILES COc1cc(CNC(=O)CCCCCCC(C)C)ccc1O
REMARK SMILES IDX 11 1 10 2 8 3 7 4 9 6 6 7 5 8 3 9 21 10 4 11 20 12 19 13
REMARK SMILES IDX 2 14 1 15 22 16 12 18 13 19 14 20 15 21 16 22 17 23 18 24
REMARK H PARENT 7 5 22 17
REMARK Flexibility Score: inf
ROOT
ATOM      1  C   UNL     1      98.534  96.248  80.129  1.00  0.00     0.010 C 
ENDROOT
BRANCH   1   2
ATOM      2  C   UNL     1      97.042  96.082  80.529  1.00  0.00     0.100 C 
BRANCH   2   3
ATOM      3  C   UNL     1      96.435  94.832  80.017  1.00  0.00     0.220 C 
ATOM      4  N   UNL     1      95.260  94.870  79.324  1.00  0.00    -0.352 N 
ATOM      5  H   UNL     1      94.848  95.788  79.244  1.00  0.00     0.163 HD
ATOM      6  O   UNL     1      97.036  93.748  80.212  1.00  0.00    -0.275 OA
BRANCH   4   7
ATOM      7  C   UNL     1      94.612  93.739  78.734  1.00  0.00     0.151 C 
BRANCH   7   8
ATOM      8  C   UNL     1      93.297  94.070  78.120  1.00  0.00    -0.025 A 
ATOM      9  C   UNL     1      90.975  93.452  77.596  1.00  0.00     0.160 A 
ATOM     10  C   UNL     1      90.774  94.711  76.990  1.00  0.00     0.157 A 
ATOM     11  C   UNL     1      92.238  93.134  78.139  1.00  0.00     0.056 A 
ATOM     12  C   UNL     1      91.832  95.636  76.929  1.00  0.00     0.050 A 
ATOM     13  C   UNL     1      93.082  95.323  77.499  1.00  0.00     0.009 A 
BRANCH   9  14
ATOM     14  O   UNL     1      89.964  92.530  77.625  1.00  0.00    -0.493 OA
ATOM     15  C   UNL     1      90.034  91.559  76.565  1.00  0.00     0.278 C 
ENDBRANCH   9  14
BRANCH  10  16
ATOM     16  O   UNL     1      89.569  95.043  76.457  1.00  0.00    -0.504 OA
ATOM     17  H   UNL     1      89.005  95.407  77.145  1.00  0.00     0.293 HD
ENDBRANCH  10  16
ENDBRANCH   7   8
ENDBRANCH   4   7
ENDBRANCH   2   3
ENDBRANCH   1   2
BRANCH   1  18
ATOM     18  C   UNL     1      98.728  97.319  79.018  1.00  0.00     0.001 C 
BRANCH  18  19
ATOM     19  C   UNL     1      97.465  97.548  78.141  1.00  0.00     0.000 C 
BRANCH  19  20
ATOM     20  C   UNL     1      97.486  96.660  76.865  1.00  0.00     0.000 C 
BRANCH  20  21
ATOM     21  C   UNL     1      96.097  96.476  76.193  1.00  0.00     0.003 C 
BRANCH  21  22
ATOM     22  C   UNL     1      95.986  97.076  74.754  1.00  0.00    -0.017 C 
ATOM     23  C   UNL     1      96.005  98.630  74.809  1.00  0.00     0.007 C 
ATOM     24  C   UNL     1      94.743  96.574  73.961  1.00  0.00     0.007 C 
ENDBRANCH  21  22
ENDBRANCH  20  21
ENDBRANCH  19  20
ENDBRANCH  18  19
ENDBRANCH   1  18
TORSDOF 11
ENDMDL
MODEL 3
REMARK VINA RESULT:    -5.868     16.461     19.317
REMARK INTER + INTRA:         -10.346
REMARK INTER:                  -9.565
REMARK INTRA:                  -0.781
REMARK UNBOUND:                -0.875
REMARK SMILES COc1cc(CNC(=O)CCCCCCC(C)C)ccc1O
REMARK SMILES IDX 11 1 10 2 8 3 7 4 9 6 6 7 5 8 3 9 21 10 4 11 20 12 19 13
REMARK SMILES IDX 2 14 1 15 22 16 12 18 13 19 14 20 15 21 16 22 17 23 18 24
REMARK H PARENT 7 5 22 17
REMARK Flexibility Score: inf
ROOT
ATOM      1  C   UNL     1      94.489  96.543  75.386  1.00  0.00     0.010 C 
ENDROOT
BRANCH   1   2
ATOM      2  C   UNL     1      93.313  97.206  74.618  1.00  0.00     0.100 C 
BRANCH   2   3
ATOM      3  C   UNL     1      93.744  98.299  73.717  1.00  0.00     0.220 C 
ATOM      4  N   UNL     1      92.880  98.813  72.795  1.00  0.00    -0.352 N 
ATOM      5  H   UNL     1      91.978  98.360  72.764  1.00  0.00     0.163 HD
ATOM      6  O   UNL     1      94.907  98.754  73.837  1.00  0.00    -0.275 OA
BRANCH   4   7
ATOM      7  C   UNL     1      93.165  99.904  71.913  1.00  0.00     0.151 C 
BRANCH   7   8
ATOM      8  C   UNL     1      92.086 100.152  70.918  1.00  0.00    -0.025 A 
ATOM      9  C   UNL     1      90.111  99.370  69.679  1.00  0.00     0.160 A 
ATOM     10  C   UNL     1      90.000 100.632  69.055  1.00  0.00     0.157 A 
ATOM     11  C   UNL     1      91.162  99.134  70.590  1.00  0.00     0.056 A 
ATOM     12  C   UNL     1      90.937 101.640  69.344  1.00  0.00     0.050 A 
ATOM     13  C   UNL     1      91.967 101.408  70.276  1.00  0.00     0.009 A 
BRANCH   9  14
ATOM     14  O   UNL     1      89.228  98.369  69.376  1.00  0.00    -0.493 OA
ATOM     15  C   UNL     1      89.709  97.457  68.372  1.00  0.00     0.278 C 
ENDBRANCH   9  14
BRANCH  10  16
ATOM     16  O   UNL     1      88.999 100.886  68.172  1.00  0.00    -0.504 OA
ATOM     17  H   UNL     1      89.113 100.338  67.392  1.00  0.00     0.293 HD
ENDBRANCH  10  16
ENDBRANCH   7   8
ENDBRANCH   4   7
ENDBRANCH   2   3
ENDBRANCH   1   2
BRANCH   1  18
ATOM     18  C   UNL     1      94.776  95.098  74.886  1.00  0.00     0.001 C 
BRANCH  18  19
ATOM     19  C   UNL     1      93.944  94.006  75.615  1.00  0.00     0.000 C 
BRANCH  19  20
ATOM     20  C   UNL     1      93.495  94.478  77.027  1.00  0.00     0.000 C 
BRANCH  20  21
ATOM     21  C   UNL     1      92.467  93.538  77.715  1.00  0.00     0.003 C 
BRANCH  21  22
ATOM     22  C   UNL     1      91.058  93.506  77.036  1.00  0.00    -0.017 C 
ATOM     23  C   UNL     1      90.480  94.944  76.915  1.00  0.00     0.007 C 
ATOM     24  C   UNL     1      90.041  92.567  77.750  1.00  0.00     0.007 C 
ENDBRANCH  21  22
ENDBRANCH  20  21
ENDBRANCH  19  20
ENDBRANCH  18  19
ENDBRANCH   1  18
TORSDOF 11
ENDMDL
MODEL 4
REMARK VINA RESULT:    -5.698      3.745      9.597
REMARK INTER + INTRA:         -10.071
REMARK INTER:                  -9.185
REMARK INTRA:                  -0.885
REMARK UNBOUND:                -0.875
REMARK SMILES COc1cc(CNC(=O)CCCCCCC(C)C)ccc1O
REMARK SMILES IDX 11 1 10 2 8 3 7 4 9 6 6 7 5 8 3 9 21 10 4 11 20 12 19 13
REMARK SMILES IDX 2 14 1 15 22 16 12 18 13 19 14 20 15 21 16 22 17 23 18 24
REMARK H PARENT 7 5 22 17
REMARK Flexibility Score: inf
ROOT
ATOM      1  C   UNL     1      96.617  80.678  77.084  1.00  0.00     0.010 C 
ENDROOT
BRANCH   1   2
ATOM      2  C   UNL     1      96.038  82.113  77.225  1.00  0.00     0.100 C 
BRANCH   2   3
ATOM      3  C   UNL     1      96.298  82.967  76.044  1.00  0.00     0.220 C 
ATOM      4  N   UNL     1      97.213  82.587  75.107  1.00  0.00    -0.352 N 
ATOM      5  H   UNL     1      97.701  81.729  75.318  1.00  0.00     0.163 HD
ATOM      6  O   UNL     1      95.642  84.030  75.915  1.00  0.00    -0.275 OA
BRANCH   4   7
ATOM      7  C   UNL     1      97.504  83.300  73.900  1.00  0.00     0.151 C 
BRANCH   7   8
ATOM      8  C   UNL     1      98.955  83.316  73.563  1.00  0.00    -0.025 A 
ATOM      9  C   UNL     1     101.192  82.310  73.738  1.00  0.00     0.160 A 
ATOM     10  C   UNL     1     101.711  83.313  72.891  1.00  0.00     0.157 A 
ATOM     11  C   UNL     1      99.824  82.330  74.083  1.00  0.00     0.056 A 
ATOM     12  C   UNL     1     100.864  84.322  72.399  1.00  0.00     0.050 A 
ATOM     13  C   UNL     1      99.493  84.319  72.723  1.00  0.00     0.009 A 
BRANCH   9  14
ATOM     14  O   UNL     1     102.016  81.347  74.254  1.00  0.00    -0.493 OA
ATOM     15  C   UNL     1     101.503  80.010  74.115  1.00  0.00     0.278 C 
ENDBRANCH   9  14
BRANCH  10  16
ATOM     16  O   UNL     1     103.025  83.320  72.544  1.00  0.00    -0.504 OA
ATOM     17  H   UNL     1     103.309  82.424  72.349  1.00  0.00     0.293 HD
ENDBRANCH  10  16
ENDBRANCH   7   8
ENDBRANCH   4   7
ENDBRANCH   2   3
ENDBRANCH   1   2
BRANCH   1  18
ATOM     18  C   UNL     1      97.775  80.411  78.088  1.00  0.00     0.001 C 
BRANCH  18  19
ATOM     19  C   UNL     1      98.050  81.596  79.056  1.00  0.00     0.000 C 
BRANCH  19  20
ATOM     20  C   UNL     1      97.627  81.254  80.513  1.00  0.00     0.000 C 
BRANCH  20  21
ATOM     21  C   UNL     1      96.664  82.290  81.156  1.00  0.00     0.003 C 
BRANCH  21  22
ATOM     22  C   UNL     1      96.011  81.825  82.498  1.00  0.00    -0.017 C 
ATOM     23  C   UNL     1      96.359  82.816  83.645  1.00  0.00     0.007 C 
ATOM     24  C   UNL     1      96.385  80.369  82.904  1.00  0.00     0.007 C 
ENDBRANCH  21  22
ENDBRANCH  20  21
ENDBRANCH  19  20
ENDBRANCH  18  19
ENDBRANCH   1  18
TORSDOF 11
ENDMDL
MODEL 5
REMARK VINA RESULT:    -5.471     17.187     20.222
REMARK INTER + INTRA:          -9.705
REMARK INTER:                  -9.123
REMARK INTRA:                  -0.582
REMARK UNBOUND:                -0.875
REMARK SMILES COc1cc(CNC(=O)CCCCCCC(C)C)ccc1O
REMARK SMILES IDX 11 1 10 2 8 3 7 4 9 6 6 7 5 8 3 9 21 10 4 11 20 12 19 13
REMARK SMILES IDX 2 14 1 15 22 16 12 18 13 19 14 20 15 21 16 22 17 23 18 24
REMARK H PARENT 7 5 22 17
REMARK Flexibility Score: inf
ROOT
ATOM      1  C   UNL     1      94.738  98.000  73.960  1.00  0.00     0.010 C 
ENDROOT
BRANCH   1   2
ATOM      2  C   UNL     1      93.466  98.824  73.617  1.00  0.00     0.100 C 
BRANCH   2   3
ATOM      3  C   UNL     1      93.432  99.288  72.211  1.00  0.00     0.220 C 
ATOM      4  N   UNL     1      92.458 100.147  71.793  1.00  0.00    -0.352 N 
ATOM      5  H   UNL     1      91.774 100.383  72.497  1.00  0.00     0.163 HD
ATOM      6  O   UNL     1      94.328  98.894  71.426  1.00  0.00    -0.275 OA
BRANCH   4   7
ATOM      7  C   UNL     1      92.358 100.706  70.479  1.00  0.00     0.151 C 
BRANCH   7   8
ATOM      8  C   UNL     1      91.344 100.027  69.628  1.00  0.00    -0.025 A 
ATOM      9  C   UNL     1      90.293  99.682  67.431  1.00  0.00     0.160 A 
ATOM     10  C   UNL     1      89.442  98.704  67.989  1.00  0.00     0.157 A 
ATOM     11  C   UNL     1      91.223 100.349  68.257  1.00  0.00     0.056 A 
ATOM     12  C   UNL     1      89.526  98.402  69.360  1.00  0.00     0.050 A 
ATOM     13  C   UNL     1      90.476  99.050  70.173  1.00  0.00     0.009 A 
BRANCH   9  14
ATOM     14  O   UNL     1      90.193 100.011  66.106  1.00  0.00    -0.493 OA
ATOM     15  C   UNL     1      91.284 100.817  65.625  1.00  0.00     0.278 C 
ENDBRANCH   9  14
BRANCH  10  16
ATOM     16  O   UNL     1      88.536  98.047  67.217  1.00  0.00    -0.504 OA
ATOM     17  H   UNL     1      88.534  98.425  66.335  1.00  0.00     0.293 HD
ENDBRANCH  10  16
ENDBRANCH   7   8
ENDBRANCH   4   7
ENDBRANCH   2   3
ENDBRANCH   1   2
BRANCH   1  18
ATOM     18  C   UNL     1      94.395  96.551  74.409  1.00  0.00     0.001 C 
BRANCH  18  19
ATOM     19  C   UNL     1      95.179  96.083  75.667  1.00  0.00     0.000 C 
BRANCH  19  20
ATOM     20  C   UNL     1      94.492  94.865  76.348  1.00  0.00     0.000 C 
BRANCH  20  21
ATOM     21  C   UNL     1      94.098  95.104  77.832  1.00  0.00     0.003 C 
BRANCH  21  22
ATOM     22  C   UNL     1      95.064  94.451  78.875  1.00  0.00    -0.017 C 
ATOM     23  C   UNL     1      96.309  95.354  79.102  1.00  0.00     0.007 C 
ATOM     24  C   UNL     1      95.501  93.004  78.502  1.00  0.00     0.007 C 
ENDBRANCH  21  22
ENDBRANCH  20  21
ENDBRANCH  19  20
ENDBRANCH  18  19
ENDBRANCH   1  18
TORSDOF 11
ENDMDL
MODEL 6
REMARK VINA RESULT:    -5.295     25.111     27.237
REMARK INTER + INTRA:          -9.421
REMARK INTER:                  -7.844
REMARK INTRA:                  -1.577
REMARK UNBOUND:                -0.875
REMARK SMILES COc1cc(CNC(=O)CCCCCCC(C)C)ccc1O
REMARK SMILES IDX 11 1 10 2 8 3 7 4 9 6 6 7 5 8 3 9 21 10 4 11 20 12 19 13
REMARK SMILES IDX 2 14 1 15 22 16 12 18 13 19 14 20 15 21 16 22 17 23 18 24
REMARK H PARENT 7 5 22 17
REMARK Flexibility Score: inf
ROOT
ATOM      1  C   UNL     1      69.907  84.585  65.914  1.00  0.00     0.010 C 
ENDROOT
BRANCH   1   2
ATOM      2  C   UNL     1      69.740  84.217  67.414  1.00  0.00     0.100 C 
BRANCH   2   3
ATOM      3  C   UNL     1      70.539  85.074  68.319  1.00  0.00     0.220 C 
ATOM      4  N   UNL     1      71.562  85.831  67.827  1.00  0.00    -0.352 N 
ATOM      5  H   UNL     1      71.734  85.715  66.839  1.00  0.00     0.163 HD
ATOM      6  O   UNL     1      70.239  85.105  69.538  1.00  0.00    -0.275 OA
BRANCH   4   7
ATOM      7  C   UNL     1      72.362  86.737  68.594  1.00  0.00     0.151 C 
BRANCH   7   8
ATOM      8  C   UNL     1      73.822  86.470  68.480  1.00  0.00    -0.025 A 
ATOM      9  C   UNL     1      76.051  87.130  67.678  1.00  0.00     0.160 A 
ATOM     10  C   UNL     1      76.613  85.992  68.297  1.00  0.00     0.157 A 
ATOM     11  C   UNL     1      74.660  87.350  67.758  1.00  0.00     0.056 A 
ATOM     12  C   UNL     1      75.784  85.088  68.986  1.00  0.00     0.050 A 
ATOM     13  C   UNL     1      74.400  85.330  69.087  1.00  0.00     0.009 A 
BRANCH   9  14
ATOM     14  O   UNL     1      76.843  87.994  66.972  1.00  0.00    -0.493 OA
ATOM     15  C   UNL     1      76.405  88.208  65.618  1.00  0.00     0.278 C 
ENDBRANCH   9  14
BRANCH  10  16
ATOM     16  O   UNL     1      77.950  85.754  68.235  1.00  0.00    -0.504 OA
ATOM     17  H   UNL     1      78.400  86.542  67.924  1.00  0.00     0.293 HD
ENDBRANCH  10  16
ENDBRANCH   7   8
ENDBRANCH   4   7
ENDBRANCH   2   3
ENDBRANCH   1   2
BRANCH   1  18
ATOM     18  C   UNL     1      69.853  83.333  64.993  1.00  0.00     0.001 C 
BRANCH  18  19
ATOM     19  C   UNL     1      70.488  82.063  65.625  1.00  0.00     0.000 C 
BRANCH  19  20
ATOM     20  C   UNL     1      71.530  81.411  64.672  1.00  0.00     0.000 C 
BRANCH  20  21
ATOM     21  C   UNL     1      72.981  81.397  65.229  1.00  0.00     0.003 C 
BRANCH  21  22
ATOM     22  C   UNL     1      73.869  82.596  64.761  1.00  0.00    -0.017 C 
ATOM     23  C   UNL     1      73.696  83.807  65.719  1.00  0.00     0.007 C 
ATOM     24  C   UNL     1      73.611  83.026  63.286  1.00  0.00     0.007 C 
ENDBRANCH  21  22
ENDBRANCH  20  21
ENDBRANCH  19  20
ENDBRANCH  18  19
ENDBRANCH   1  18
TORSDOF 11
ENDMDL
MODEL 7
REMARK VINA RESULT:    -5.279      1.699      2.284
REMARK INTER + INTRA:          -9.395
REMARK INTER:                  -8.422
REMARK INTRA:                  -0.973
REMARK UNBOUND:                -0.875
REMARK SMILES COc1cc(CNC(=O)CCCCCCC(C)C)ccc1O
REMARK SMILES IDX 11 1 10 2 8 3 7 4 9 6 6 7 5 8 3 9 21 10 4 11 20 12 19 13
REMARK SMILES IDX 2 14 1 15 22 16 12 18 13 19 14 20 15 21 16 22 17 23 18 24
REMARK H PARENT 7 5 22 17
REMARK Flexibility Score: inf
ROOT
ATOM      1  C   UNL     1      97.241  80.833  77.824  1.00  0.00     0.010 C 
ENDROOT
BRANCH   1   2
ATOM      2  C   UNL     1      97.294  81.774  79.059  1.00  0.00     0.100 C 
BRANCH   2   3
ATOM      3  C   UNL     1      97.518  81.054  80.333  1.00  0.00     0.220 C 
ATOM      4  N   UNL     1      97.573  81.739  81.512  1.00  0.00    -0.352 N 
ATOM      5  H   UNL     1      97.496  82.741  81.420  1.00  0.00     0.163 HD
ATOM      6  O   UNL     1      97.629  79.804  80.306  1.00  0.00    -0.275 OA
BRANCH   4   7
ATOM      7  C   UNL     1      97.726  81.146  82.806  1.00  0.00     0.151 C 
BRANCH   7   8
ATOM      8  C   UNL     1      96.429  80.901  83.495  1.00  0.00    -0.025 A 
ATOM      9  C   UNL     1      94.933  79.403  84.747  1.00  0.00     0.160 A 
ATOM     10  C   UNL     1      93.979  80.438  84.850  1.00  0.00     0.157 A 
ATOM     11  C   UNL     1      96.141  79.636  84.055  1.00  0.00     0.056 A 
ATOM     12  C   UNL     1      94.238  81.690  84.263  1.00  0.00     0.050 A 
ATOM     13  C   UNL     1      95.458  81.925  83.599  1.00  0.00     0.009 A 
BRANCH   9  14
ATOM     14  O   UNL     1      94.674  78.170  85.280  1.00  0.00    -0.493 OA
ATOM     15  C   UNL     1      94.589  77.120  84.299  1.00  0.00     0.278 C 
ENDBRANCH   9  14
BRANCH  10  16
ATOM     16  O   UNL     1      92.806  80.242  85.508  1.00  0.00    -0.504 OA
ATOM     17  H   UNL     1      92.382  79.448  85.175  1.00  0.00     0.293 HD
ENDBRANCH  10  16
ENDBRANCH   7   8
ENDBRANCH   4   7
ENDBRANCH   2   3
ENDBRANCH   1   2
BRANCH   1  18
ATOM     18  C   UNL     1      96.271  81.358  76.728  1.00  0.00     0.001 C 
BRANCH  18  19
ATOM     19  C   UNL     1      96.281  82.905  76.571  1.00  0.00     0.000 C 
BRANCH  19  20
ATOM     20  C   UNL     1      96.021  83.333  75.099  1.00  0.00     0.000 C 
BRANCH  20  21
ATOM     21  C   UNL     1      97.025  82.735  74.075  1.00  0.00     0.003 C 
BRANCH  21  22
ATOM     22  C   UNL     1      98.516  83.144  74.311  1.00  0.00    -0.017 C 
ATOM     23  C   UNL     1      99.097  83.835  73.045  1.00  0.00     0.007 C 
ATOM     24  C   UNL     1      99.427  81.961  74.753  1.00  0.00     0.007 C 
ENDBRANCH  21  22
ENDBRANCH  20  21
ENDBRANCH  19  20
ENDBRANCH  18  19
ENDBRANCH   1  18
TORSDOF 11
ENDMDL
MODEL 8
REMARK VINA RESULT:    -5.211     31.584     33.415
REMARK INTER + INTRA:          -9.285
REMARK INTER:                  -7.981
REMARK INTRA:                  -1.304
REMARK UNBOUND:                -0.875
REMARK SMILES COc1cc(CNC(=O)CCCCCCC(C)C)ccc1O
REMARK SMILES IDX 11 1 10 2 8 3 7 4 9 6 6 7 5 8 3 9 21 10 4 11 20 12 19 13
REMARK SMILES IDX 2 14 1 15 22 16 12 18 13 19 14 20 15 21 16 22 17 23 18 24
REMARK H PARENT 7 5 22 17
REMARK Flexibility Score: inf
ROOT
ATOM      1  C   UNL     1      61.792  82.627  74.694  1.00  0.00     0.010 C 
ENDROOT
BRANCH   1   2
ATOM      2  C   UNL     1      62.951  83.620  74.982  1.00  0.00     0.100 C 
BRANCH   2   3
ATOM      3  C   UNL     1      63.182  84.584  73.883  1.00  0.00     0.220 C 
ATOM      4  N   UNL     1      64.421  84.710  73.326  1.00  0.00    -0.352 N 
ATOM      5  H   UNL     1      65.135  84.139  73.753  1.00  0.00     0.163 HD
ATOM      6  O   UNL     1      62.212  85.260  73.462  1.00  0.00    -0.275 OA
BRANCH   4   7
ATOM      7  C   UNL     1      64.749  85.563  72.224  1.00  0.00     0.151 C 
BRANCH   7   8
ATOM      8  C   UNL     1      66.062  85.240  71.602  1.00  0.00    -0.025 A 
ATOM      9  C   UNL     1      67.369  84.450  69.675  1.00  0.00     0.160 A 
ATOM     10  C   UNL     1      68.565  84.664  70.394  1.00  0.00     0.157 A 
ATOM     11  C   UNL     1      66.129  84.721  70.289  1.00  0.00     0.056 A 
ATOM     12  C   UNL     1      68.510  85.142  71.716  1.00  0.00     0.050 A 
ATOM     13  C   UNL     1      67.269  85.439  72.313  1.00  0.00     0.009 A 
BRANCH   9  14
ATOM     14  O   UNL     1      67.409  83.947  68.403  1.00  0.00    -0.493 OA
ATOM     15  C   UNL     1      66.704  84.750  67.439  1.00  0.00     0.278 C 
ENDBRANCH   9  14
BRANCH  10  16
ATOM     16  O   UNL     1      69.774  84.409  69.828  1.00  0.00    -0.504 OA
ATOM     17  H   UNL     1      69.669  83.754  69.134  1.00  0.00     0.293 HD
ENDBRANCH  10  16
ENDBRANCH   7   8
ENDBRANCH   4   7
ENDBRANCH   2   3
ENDBRANCH   1   2
BRANCH   1  18
ATOM     18  C   UNL     1      61.837  82.078  73.239  1.00  0.00     0.001 C 
BRANCH  18  19
ATOM     19  C   UNL     1      63.126  81.272  72.914  1.00  0.00     0.000 C 
BRANCH  19  20
ATOM     20  C   UNL     1      63.709  81.660  71.526  1.00  0.00     0.000 C 
BRANCH  20  21
ATOM     21  C   UNL     1      62.778  82.568  70.675  1.00  0.00     0.003 C 
BRANCH  21  22
ATOM     22  C   UNL     1      63.158  82.653  69.161  1.00  0.00    -0.017 C 
ATOM     23  C   UNL     1      62.097  83.477  68.379  1.00  0.00     0.007 C 
ATOM     24  C   UNL     1      63.370  81.263  68.491  1.00  0.00     0.007 C 
ENDBRANCH  21  22
ENDBRANCH  20  21
ENDBRANCH  19  20
ENDBRANCH  18  19
ENDBRANCH   1  18
TORSDOF 11
ENDMDL
MODEL 9
REMARK VINA RESULT:    -5.165     21.246     23.631
REMARK INTER + INTRA:          -9.211
REMARK INTER:                  -7.451
REMARK INTRA:                  -1.760
REMARK UNBOUND:                -0.875
REMARK SMILES COc1cc(CNC(=O)CCCCCCC(C)C)ccc1O
REMARK SMILES IDX 11 1 10 2 8 3 7 4 9 6 6 7 5 8 3 9 21 10 4 11 20 12 19 13
REMARK SMILES IDX 2 14 1 15 22 16 12 18 13 19 14 20 15 21 16 22 17 23 18 24
REMARK H PARENT 7 5 22 17
REMARK Flexibility Score: inf
ROOT
ATOM      1  C   UNL     1      85.000  66.126  77.440  1.00  0.00     0.010 C 
ENDROOT
BRANCH   1   2
ATOM      2  C   UNL     1      83.988  67.263  77.126  1.00  0.00     0.100 C 
BRANCH   2   3
ATOM      3  C   UNL     1      83.975  67.656  75.699  1.00  0.00     0.220 C 
ATOM      4  N   UNL     1      82.935  67.293  74.893  1.00  0.00    -0.352 N 
ATOM      5  H   UNL     1      82.236  66.718  75.341  1.00  0.00     0.163 HD
ATOM      6  O   UNL     1      84.924  68.348  75.257  1.00  0.00    -0.275 OA
BRANCH   4   7
ATOM      7  C   UNL     1      82.787  67.664  73.519  1.00  0.00     0.151 C 
BRANCH   7   8
ATOM      8  C   UNL     1      82.888  66.508  72.585  1.00  0.00    -0.025 A 
ATOM      9  C   UNL     1      81.911  65.109  70.814  1.00  0.00     0.160 A 
ATOM     10  C   UNL     1      83.091  64.335  70.772  1.00  0.00     0.157 A 
ATOM     11  C   UNL     1      81.812  66.176  71.732  1.00  0.00     0.056 A 
ATOM     12  C   UNL     1      84.154  64.631  71.644  1.00  0.00     0.050 A 
ATOM     13  C   UNL     1      84.059  65.716  72.537  1.00  0.00     0.009 A 
BRANCH   9  14
ATOM     14  O   UNL     1      80.856  64.805  69.998  1.00  0.00    -0.493 OA
ATOM     15  C   UNL     1      80.505  65.862  69.086  1.00  0.00     0.278 C 
ENDBRANCH   9  14
BRANCH  10  16
ATOM     16  O   UNL     1      83.214  63.300  69.900  1.00  0.00    -0.504 OA
ATOM     17  H   UNL     1      83.757  62.613  70.294  1.00  0.00     0.293 HD
ENDBRANCH  10  16
ENDBRANCH   7   8
ENDBRANCH   4   7
ENDBRANCH   2   3
ENDBRANCH   1   2
BRANCH   1  18
ATOM     18  C   UNL     1      84.309  64.737  77.544  1.00  0.00     0.001 C 
BRANCH  18  19
ATOM     19  C   UNL     1      84.419  63.884  76.249  1.00  0.00     0.000 C 
BRANCH  19  20
ATOM     20  C   UNL     1      83.079  63.863  75.461  1.00  0.00     0.000 C 
BRANCH  20  21
ATOM     21  C   UNL     1      81.822  64.129  76.336  1.00  0.00     0.003 C 
BRANCH  21  22
ATOM     22  C   UNL     1      80.527  64.468  75.527  1.00  0.00    -0.017 C 
ATOM     23  C   UNL     1      79.938  65.830  75.991  1.00  0.00     0.007 C 
ATOM     24  C   UNL     1      79.441  63.354  75.589  1.00  0.00     0.007 C 
ENDBRANCH  21  22
ENDBRANCH  20  21
ENDBRANCH  19  20
ENDBRANCH  18  19
ENDBRANCH   1  18
TORSDOF 11
ENDMDL
MODEL 10
REMARK VINA RESULT:    -5.143      4.566      7.212
REMARK INTER + INTRA:          -9.175
REMARK INTER:                  -8.040
REMARK INTRA:                  -1.135
REMARK UNBOUND:                -0.875
REMARK SMILES COc1cc(CNC(=O)CCCCCCC(C)C)ccc1O
REMARK SMILES IDX 11 1 10 2 8 3 7 4 9 6 6 7 5 8 3 9 21 10 4 11 20 12 19 13
REMARK SMILES IDX 2 14 1 15 22 16 12 18 13 19 14 20 15 21 16 22 17 23 18 24
REMARK H PARENT 7 5 22 17
REMARK Flexibility Score: inf
ROOT
ATOM      1  C   UNL     1     100.343  82.121  71.193  1.00  0.00     0.010 C 
ENDROOT
BRANCH   1   2
ATOM      2  C   UNL     1     100.612  82.920  72.498  1.00  0.00     0.100 C 
BRANCH   2   3
ATOM      3  C   UNL     1      99.383  83.471  73.111  1.00  0.00     0.220 C 
ATOM      4  N   UNL     1      98.315  82.660  73.362  1.00  0.00    -0.352 N 
ATOM      5  H   UNL     1      98.431  81.705  73.058  1.00  0.00     0.163 HD
ATOM      6  O   UNL     1      99.356  84.689  73.414  1.00  0.00    -0.275 OA
BRANCH   4   7
ATOM      7  C   UNL     1      97.100  83.067  74.001  1.00  0.00     0.151 C 
BRANCH   7   8
ATOM      8  C   UNL     1      97.040  82.691  75.440  1.00  0.00    -0.025 A 
ATOM      9  C   UNL     1      98.013  81.538  77.382  1.00  0.00     0.160 A 
ATOM     10  C   UNL     1      96.956  82.005  78.193  1.00  0.00     0.157 A 
ATOM     11  C   UNL     1      98.037  81.868  76.011  1.00  0.00     0.056 A 
ATOM     12  C   UNL     1      95.936  82.793  77.628  1.00  0.00     0.050 A 
ATOM     13  C   UNL     1      95.982  83.143  76.264  1.00  0.00     0.009 A 
BRANCH   9  14
ATOM     14  O   UNL     1      98.989  80.738  77.913  1.00  0.00    -0.493 OA
ATOM     15  C   UNL     1      99.831  80.118  76.925  1.00  0.00     0.278 C 
ENDBRANCH   9  14
BRANCH  10  16
ATOM     16  O   UNL     1      96.906  81.702  79.517  1.00  0.00    -0.504 OA
ATOM     17  H   UNL     1      96.086  82.034  79.890  1.00  0.00     0.293 HD
ENDBRANCH  10  16
ENDBRANCH   7   8
ENDBRANCH   4   7
ENDBRANCH   2   3
ENDBRANCH   1   2
BRANCH   1  18
ATOM     18  C   UNL     1     101.142  80.788  71.146  1.00  0.00     0.001 C 
BRANCH  18  19
ATOM     19  C   UNL     1     100.265  79.523  71.363  1.00  0.00     0.000 C 
BRANCH  19  20
ATOM     20  C   UNL     1      99.405  79.200  70.109  1.00  0.00     0.000 C 
BRANCH  20  21
ATOM     21  C   UNL     1      98.049  78.510  70.426  1.00  0.00     0.003 C 
BRANCH  21  22
ATOM     22  C   UNL     1      97.516  78.759  71.875  1.00  0.00    -0.017 C 
ATOM     23  C   UNL     1      96.848  77.472  72.437  1.00  0.00     0.007 C 
ATOM     24  C   UNL     1      96.543  79.970  71.984  1.00  0.00     0.007 C 
ENDBRANCH  21  22
ENDBRANCH  20  21
ENDBRANCH  19  20
ENDBRANCH  18  19
ENDBRANCH   1  18
TORSDOF 11
ENDMDL
