MODEL 1
REMARK VINA RESULT:    -7.434      0.000      0.000
REMARK INTER + INTRA:          -9.070
REMARK INTER:                  -8.737
REMARK INTRA:                  -0.333
REMARK UNBOUND:                -0.333
REMARK SMILES O=C(/C=C/C=C/c1ccc2c(c1)OCO2)N1CCCCC1
REMARK SMILES IDX 3 1 4 2 2 3 1 4 16 5 17 6 21 7 18 8 20 9 19 10 5 11 6 12
REMARK SMILES IDX 7 13 12 14 8 15 11 16 9 17 13 18 10 19 14 20 15 21
REMARK H PARENT
REMARK Flexibility Score: inf
ROOT
ATOM      1  C   UNL     1      96.618  82.272  82.643  1.00  0.00     0.071 C 
ATOM      2  C   UNL     1      97.161  81.673  81.585  1.00  0.00     0.006 C 
ENDROOT
BRANCH   1   3
ATOM      3  C   UNL     1      96.889  81.704  83.979  1.00  0.00     0.246 C 
ATOM      4  O   UNL     1      98.066  81.611  84.329  1.00  0.00    -0.270 OA
ATOM      5  N   UNL     1      95.798  81.307  84.749  1.00  0.00    -0.339 N 
ATOM      6  C   UNL     1      96.036  80.734  86.078  1.00  0.00     0.120 C 
ATOM      7  C   UNL     1      94.384  81.360  84.348  1.00  0.00     0.120 C 
ATOM      8  C   UNL     1      95.226  81.455  87.149  1.00  0.00     0.022 C 
ATOM      9  C   UNL     1      93.537  82.074  85.400  1.00  0.00     0.022 C 
ATOM     10  C   UNL     1      93.744  81.479  86.790  1.00  0.00     0.004 C 
ENDBRANCH   1   3
BRANCH   2  11
ATOM     11  C   UNL     1      96.952  82.155  80.236  1.00  0.00     0.001 C 
ATOM     12  C   UNL     1      97.464  81.540  79.158  1.00  0.00     0.008 C 
BRANCH  12  13
ATOM     13  C   UNL     1      97.291  81.992  77.767  1.00  0.00    -0.022 A 
ATOM     14  C   UNL     1      98.322  81.796  76.859  1.00  0.00     0.058 A 
ATOM     15  C   UNL     1      96.091  82.606  77.399  1.00  0.00     0.012 A 
ATOM     16  C   UNL     1      98.112  82.235  75.568  1.00  0.00     0.166 A 
ATOM     17  C   UNL     1      95.905  83.041  76.085  1.00  0.00     0.051 A 
ATOM     18  O   UNL     1      98.997  82.136  74.537  1.00  0.00    -0.454 OA
ATOM     19  C   UNL     1      96.936  82.841  75.191  1.00  0.00     0.165 A 
ATOM     20  C   UNL     1      98.244  82.749  73.470  1.00  0.00     0.468 C 
ATOM     21  O   UNL     1      96.936  83.198  73.878  1.00  0.00    -0.454 OA
ENDBRANCH  12  13
ENDBRANCH   2  11
TORSDOF 3
ENDMDL
MODEL 2
REMARK VINA RESULT:    -7.116      2.822      9.181
REMARK INTER + INTRA:          -8.696
REMARK INTER:                  -8.336
REMARK INTRA:                  -0.361
REMARK UNBOUND:                -0.333
REMARK SMILES O=C(/C=C/C=C/c1ccc2c(c1)OCO2)N1CCCCC1
REMARK SMILES IDX 3 1 4 2 2 3 1 4 16 5 17 6 21 7 18 8 20 9 19 10 5 11 6 12
REMARK SMILES IDX 7 13 12 14 8 15 11 16 9 17 13 18 10 19 14 20 15 21
REMARK H PARENT
REMARK Flexibility Score: inf
ROOT
ATOM      1  C   UNL     1      97.428  80.816  78.557  1.00  0.00     0.071 C 
ATOM      2  C   UNL     1      97.865  81.346  79.698  1.00  0.00     0.006 C 
ENDROOT
BRANCH   1   3
ATOM      3  C   UNL     1      98.326  80.853  77.386  1.00  0.00     0.246 C 
ATOM      4  O   UNL     1      99.259  80.049  77.359  1.00  0.00    -0.270 OA
ATOM      5  N   UNL     1      98.062  81.796  76.394  1.00  0.00    -0.339 N 
ATOM      6  C   UNL     1      98.939  81.859  75.221  1.00  0.00     0.120 C 
ATOM      7  C   UNL     1      96.987  82.799  76.413  1.00  0.00     0.120 C 
ATOM      8  C   UNL     1      98.142  81.781  73.924  1.00  0.00     0.022 C 
ATOM      9  C   UNL     1      96.166  82.754  75.125  1.00  0.00     0.022 C 
ATOM     10  C   UNL     1      97.052  82.848  73.886  1.00  0.00     0.004 C 
ENDBRANCH   1   3
BRANCH   2  11
ATOM     11  C   UNL     1      97.058  81.359  80.900  1.00  0.00     0.001 C 
ATOM     12  C   UNL     1      96.881  82.461  81.645  1.00  0.00     0.008 C 
BRANCH  12  13
ATOM     13  C   UNL     1      96.079  82.527  82.878  1.00  0.00    -0.022 A 
ATOM     14  C   UNL     1      95.881  83.758  83.490  1.00  0.00     0.058 A 
ATOM     15  C   UNL     1      95.539  81.349  83.399  1.00  0.00     0.012 A 
ATOM     16  C   UNL     1      95.122  83.769  84.643  1.00  0.00     0.166 A 
ATOM     17  C   UNL     1      94.775  81.389  84.568  1.00  0.00     0.051 A 
ATOM     18  O   UNL     1      94.816  84.867  85.386  1.00  0.00    -0.454 OA
ATOM     19  C   UNL     1      94.583  82.616  85.167  1.00  0.00     0.165 A 
ATOM     20  C   UNL     1      94.025  84.276  86.437  1.00  0.00     0.468 C 
ATOM     21  O   UNL     1      93.873  82.848  86.305  1.00  0.00    -0.454 OA
ENDBRANCH  12  13
ENDBRANCH   2  11
TORSDOF 3
ENDMDL
MODEL 3
REMARK VINA RESULT:    -6.902      1.648      2.410
REMARK INTER + INTRA:          -8.445
REMARK INTER:                  -8.131
REMARK INTRA:                  -0.315
REMARK UNBOUND:                -0.333
REMARK SMILES O=C(/C=C/C=C/c1ccc2c(c1)OCO2)N1CCCCC1
REMARK SMILES IDX 3 1 4 2 2 3 1 4 16 5 17 6 21 7 18 8 20 9 19 10 5 11 6 12
REMARK SMILES IDX 7 13 12 14 8 15 11 16 9 17 13 18 10 19 14 20 15 21
REMARK H PARENT
REMARK Flexibility Score: inf
ROOT
ATOM      1  C   UNL     1      95.663  82.193  83.841  1.00  0.00     0.071 C 
ATOM      2  C   UNL     1      96.589  81.721  83.010  1.00  0.00     0.006 C 
ENDROOT
BRANCH   1   3
ATOM      3  C   UNL     1      95.808  81.901  85.281  1.00  0.00     0.246 C 
ATOM      4  O   UNL     1      96.739  81.171  85.623  1.00  0.00    -0.270 OA
ATOM      5  N   UNL     1      94.881  82.466  86.156  1.00  0.00    -0.339 N 
ATOM      6  C   UNL     1      94.997  82.190  87.591  1.00  0.00     0.120 C 
ATOM      7  C   UNL     1      93.733  83.305  85.782  1.00  0.00     0.120 C 
ATOM      8  C   UNL     1      95.016  83.478  88.407  1.00  0.00     0.022 C 
ATOM      9  C   UNL     1      93.714  84.607  86.582  1.00  0.00     0.022 C 
ATOM     10  C   UNL     1      93.805  84.348  88.083  1.00  0.00     0.004 C 
ENDBRANCH   1   3
BRANCH   2  11
ATOM     11  C   UNL     1      96.533  81.955  81.582  1.00  0.00     0.001 C 
ATOM     12  C   UNL     1      97.412  81.416  80.723  1.00  0.00     0.008 C 
BRANCH  12  13
ATOM     13  C   UNL     1      97.406  81.627  79.265  1.00  0.00    -0.022 A 
ATOM     14  C   UNL     1      96.380  82.367  78.694  1.00  0.00     0.058 A 
ATOM     15  C   UNL     1      98.433  81.074  78.496  1.00  0.00     0.012 A 
ATOM     16  C   UNL     1      96.417  82.538  77.325  1.00  0.00     0.166 A 
ATOM     17  C   UNL     1      98.446  81.262  77.112  1.00  0.00     0.051 A 
ATOM     18  O   UNL     1      95.508  83.226  76.582  1.00  0.00    -0.454 OA
ATOM     19  C   UNL     1      97.423  82.000  76.555  1.00  0.00     0.165 A 
ATOM     20  C   UNL     1      96.055  83.061  75.258  1.00  0.00     0.468 C 
ATOM     21  O   UNL     1      97.270  82.284  75.233  1.00  0.00    -0.454 OA
ENDBRANCH  12  13
ENDBRANCH   2  11
TORSDOF 3
ENDMDL
MODEL 4
REMARK VINA RESULT:    -6.878      3.221      9.472
REMARK INTER + INTRA:          -8.417
REMARK INTER:                  -8.049
REMARK INTRA:                  -0.368
REMARK UNBOUND:                -0.333
REMARK SMILES O=C(/C=C/C=C/c1ccc2c(c1)OCO2)N1CCCCC1
REMARK SMILES IDX 3 1 4 2 2 3 1 4 16 5 17 6 21 7 18 8 20 9 19 10 5 11 6 12
REMARK SMILES IDX 7 13 12 14 8 15 11 16 9 17 13 18 10 19 14 20 15 21
REMARK H PARENT
REMARK Flexibility Score: inf
ROOT
ATOM      1  C   UNL     1      98.252  81.593  76.721  1.00  0.00     0.071 C 
ATOM      2  C   UNL     1      97.255  82.329  77.209  1.00  0.00     0.006 C 
ENDROOT
BRANCH   1   3
ATOM      3  C   UNL     1      98.764  81.921  75.376  1.00  0.00     0.246 C 
ATOM      4  O   UNL     1      98.190  82.814  74.751  1.00  0.00    -0.270 OA
ATOM      5  N   UNL     1      99.857  81.197  74.903  1.00  0.00    -0.339 N 
ATOM      6  C   UNL     1     100.385  81.497  73.568  1.00  0.00     0.120 C 
ATOM      7  C   UNL     1     100.539  80.097  75.600  1.00  0.00     0.120 C 
ATOM      8  C   UNL     1     101.885  81.769  73.610  1.00  0.00     0.022 C 
ATOM      9  C   UNL     1     102.048  80.331  75.660  1.00  0.00     0.022 C 
ATOM     10  C   UNL     1     102.630  80.617  74.278  1.00  0.00     0.004 C 
ENDBRANCH   1   3
BRANCH   2  11
ATOM     11  C   UNL     1      96.687  82.084  78.518  1.00  0.00     0.001 C 
ATOM     12  C   UNL     1      97.433  81.757  79.585  1.00  0.00     0.008 C 
BRANCH  12  13
ATOM     13  C   UNL     1      96.906  81.490  80.934  1.00  0.00    -0.022 A 
ATOM     14  C   UNL     1      96.506  82.556  81.727  1.00  0.00     0.058 A 
ATOM     15  C   UNL     1      96.824  80.168  81.379  1.00  0.00     0.012 A 
ATOM     16  C   UNL     1      96.019  82.255  82.982  1.00  0.00     0.166 A 
ATOM     17  C   UNL     1      96.327  79.892  82.655  1.00  0.00     0.051 A 
ATOM     18  O   UNL     1      95.580  83.155  83.905  1.00  0.00    -0.454 OA
ATOM     19  C   UNL     1      95.932  80.959  83.434  1.00  0.00     0.165 A 
ATOM     20  C   UNL     1      95.206  82.279  84.987  1.00  0.00     0.468 C 
ATOM     21  O   UNL     1      95.427  80.883  84.696  1.00  0.00    -0.454 OA
ENDBRANCH  12  13
ENDBRANCH   2  11
TORSDOF 3
ENDMDL
MODEL 5
REMARK VINA RESULT:    -6.866      2.150      2.420
REMARK INTER + INTRA:          -8.403
REMARK INTER:                  -7.970
REMARK INTRA:                  -0.433
REMARK UNBOUND:                -0.333
REMARK SMILES O=C(/C=C/C=C/c1ccc2c(c1)OCO2)N1CCCCC1
REMARK SMILES IDX 3 1 4 2 2 3 1 4 16 5 17 6 21 7 18 8 20 9 19 10 5 11 6 12
REMARK SMILES IDX 7 13 12 14 8 15 11 16 9 17 13 18 10 19 14 20 15 21
REMARK H PARENT
REMARK Flexibility Score: inf
ROOT
ATOM      1  C   UNL     1      97.970  80.819  82.087  1.00  0.00     0.071 C 
ATOM      2  C   UNL     1      96.980  81.654  81.779  1.00  0.00     0.006 C 
ENDROOT
BRANCH   1   3
ATOM      3  C   UNL     1      98.090  80.371  83.489  1.00  0.00     0.246 C 
ATOM      4  O   UNL     1      98.551  81.171  84.304  1.00  0.00    -0.270 OA
ATOM      5  N   UNL     1      97.680  79.074  83.794  1.00  0.00    -0.339 N 
ATOM      6  C   UNL     1      97.793  78.600  85.177  1.00  0.00     0.120 C 
ATOM      7  C   UNL     1      97.169  78.077  82.842  1.00  0.00     0.120 C 
ATOM      8  C   UNL     1      96.468  78.040  85.683  1.00  0.00     0.022 C 
ATOM      9  C   UNL     1      95.840  77.489  83.317  1.00  0.00     0.022 C 
ATOM     10  C   UNL     1      95.936  76.961  84.745  1.00  0.00     0.004 C 
ENDBRANCH   1   3
BRANCH   2  11
ATOM     11  C   UNL     1      96.781  82.148  80.433  1.00  0.00     0.001 C 
ATOM     12  C   UNL     1      97.343  81.573  79.357  1.00  0.00     0.008 C 
BRANCH  12  13
ATOM     13  C   UNL     1      97.181  82.038  77.970  1.00  0.00    -0.022 A 
ATOM     14  C   UNL     1      98.214  81.838  77.065  1.00  0.00     0.058 A 
ATOM     15  C   UNL     1      95.990  82.670  77.601  1.00  0.00     0.012 A 
ATOM     16  C   UNL     1      98.015  82.290  75.776  1.00  0.00     0.166 A 
ATOM     17  C   UNL     1      95.815  83.119  76.290  1.00  0.00     0.051 A 
ATOM     18  O   UNL     1      98.903  82.190  74.749  1.00  0.00    -0.454 OA
ATOM     19  C   UNL     1      96.848  82.914  75.399  1.00  0.00     0.165 A 
ATOM     20  C   UNL     1      98.163  82.820  73.684  1.00  0.00     0.468 C 
ATOM     21  O   UNL     1      96.858  83.282  74.089  1.00  0.00    -0.454 OA
ENDBRANCH  12  13
ENDBRANCH   2  11
TORSDOF 3
ENDMDL
MODEL 6
REMARK VINA RESULT:    -6.806      1.855      3.053
REMARK INTER + INTRA:          -8.332
REMARK INTER:                  -7.945
REMARK INTRA:                  -0.387
REMARK UNBOUND:                -0.333
REMARK SMILES O=C(/C=C/C=C/c1ccc2c(c1)OCO2)N1CCCCC1
REMARK SMILES IDX 3 1 4 2 2 3 1 4 16 5 17 6 21 7 18 8 20 9 19 10 5 11 6 12
REMARK SMILES IDX 7 13 12 14 8 15 11 16 9 17 13 18 10 19 14 20 15 21
REMARK H PARENT
REMARK Flexibility Score: inf
ROOT
ATOM      1  C   UNL     1      95.314  82.122  84.117  1.00  0.00     0.071 C 
ATOM      2  C   UNL     1      95.904  83.085  83.412  1.00  0.00     0.006 C 
ENDROOT
BRANCH   1   3
ATOM      3  C   UNL     1      94.855  82.443  85.484  1.00  0.00     0.246 C 
ATOM      4  O   UNL     1      95.611  83.106  86.196  1.00  0.00    -0.270 OA
ATOM      5  N   UNL     1      93.604  81.972  85.877  1.00  0.00    -0.339 N 
ATOM      6  C   UNL     1      93.124  82.271  87.230  1.00  0.00     0.120 C 
ATOM      7  C   UNL     1      92.695  81.142  85.072  1.00  0.00     0.120 C 
ATOM      8  C   UNL     1      91.739  82.907  87.202  1.00  0.00     0.022 C 
ATOM      9  C   UNL     1      91.292  81.746  85.022  1.00  0.00     0.022 C 
ATOM     10  C   UNL     1      90.755  82.041  86.420  1.00  0.00     0.004 C 
ENDBRANCH   1   3
BRANCH   2  11
ATOM     11  C   UNL     1      96.386  82.866  82.065  1.00  0.00     0.001 C 
ATOM     12  C   UNL     1      96.773  81.660  81.618  1.00  0.00     0.008 C 
BRANCH  12  13
ATOM     13  C   UNL     1      97.278  81.384  80.263  1.00  0.00    -0.022 A 
ATOM     14  C   UNL     1      96.908  82.221  79.220  1.00  0.00     0.058 A 
ATOM     15  C   UNL     1      98.118  80.285  80.064  1.00  0.00     0.012 A 
ATOM     16  C   UNL     1      97.407  81.922  77.969  1.00  0.00     0.166 A 
ATOM     17  C   UNL     1      98.609  80.004  78.787  1.00  0.00     0.051 A 
ATOM     18  O   UNL     1      97.162  82.616  76.824  1.00  0.00    -0.454 OA
ATOM     19  C   UNL     1      98.235  80.843  77.758  1.00  0.00     0.165 A 
ATOM     20  C   UNL     1      97.928  81.853  75.870  1.00  0.00     0.468 C 
ATOM     21  O   UNL     1      98.612  80.727  76.455  1.00  0.00    -0.454 OA
ENDBRANCH  12  13
ENDBRANCH   2  11
TORSDOF 3
ENDMDL
MODEL 7
REMARK VINA RESULT:    -6.639     16.462     19.937
REMARK INTER + INTRA:          -8.136
REMARK INTER:                  -7.748
REMARK INTRA:                  -0.388
REMARK UNBOUND:                -0.333
REMARK SMILES O=C(/C=C/C=C/c1ccc2c(c1)OCO2)N1CCCCC1
REMARK SMILES IDX 3 1 4 2 2 3 1 4 16 5 17 6 21 7 18 8 20 9 19 10 5 11 6 12
REMARK SMILES IDX 7 13 12 14 8 15 11 16 9 17 13 18 10 19 14 20 15 21
REMARK H PARENT
REMARK Flexibility Score: inf
ROOT
ATOM      1  C   UNL     1      93.007  99.311  70.723  1.00  0.00     0.071 C 
ATOM      2  C   UNL     1      93.031  99.697  71.997  1.00  0.00     0.006 C 
ENDROOT
BRANCH   1   3
ATOM      3  C   UNL     1      92.233 100.125  69.765  1.00  0.00     0.246 C 
ATOM      4  O   UNL     1      92.674 101.238  69.477  1.00  0.00    -0.270 OA
ATOM      5  N   UNL     1      91.054  99.582  69.256  1.00  0.00    -0.339 N 
ATOM      6  C   UNL     1      90.261 100.369  68.306  1.00  0.00     0.120 C 
ATOM      7  C   UNL     1      90.473  98.279  69.609  1.00  0.00     0.120 C 
ATOM      8  C   UNL     1      89.966  99.578  67.037  1.00  0.00     0.022 C 
ATOM      9  C   UNL     1      90.159  97.456  68.360  1.00  0.00     0.022 C 
ATOM     10  C   UNL     1      89.310  98.241  67.366  1.00  0.00     0.004 C 
ENDBRANCH   1   3
BRANCH   2  11
ATOM     11  C   UNL     1      93.761  98.965  73.010  1.00  0.00     0.001 C 
ATOM     12  C   UNL     1      93.239  97.916  73.666  1.00  0.00     0.008 C 
BRANCH  12  13
ATOM     13  C   UNL     1      93.934  97.142  74.709  1.00  0.00    -0.022 A 
ATOM     14  C   UNL     1      93.196  96.296  75.526  1.00  0.00     0.058 A 
ATOM     15  C   UNL     1      95.317  97.281  74.847  1.00  0.00     0.012 A 
ATOM     16  C   UNL     1      93.892  95.591  76.487  1.00  0.00     0.166 A 
ATOM     17  C   UNL     1      95.996  96.555  75.830  1.00  0.00     0.051 A 
ATOM     18  O   UNL     1      93.353  94.717  77.381  1.00  0.00    -0.454 OA
ATOM     19  C   UNL     1      95.254  95.717  76.636  1.00  0.00     0.165 A 
ATOM     20  C   UNL     1      94.529  94.307  78.108  1.00  0.00     0.468 C 
ATOM     21  O   UNL     1      95.739  94.938  77.640  1.00  0.00    -0.454 OA
ENDBRANCH  12  13
ENDBRANCH   2  11
TORSDOF 3
ENDMDL
MODEL 8
REMARK VINA RESULT:    -6.412     14.641     18.334
REMARK INTER + INTRA:          -7.869
REMARK INTER:                  -7.516
REMARK INTRA:                  -0.354
REMARK UNBOUND:                -0.333
REMARK SMILES O=C(/C=C/C=C/c1ccc2c(c1)OCO2)N1CCCCC1
REMARK SMILES IDX 3 1 4 2 2 3 1 4 16 5 17 6 21 7 18 8 20 9 19 10 5 11 6 12
REMARK SMILES IDX 7 13 12 14 8 15 11 16 9 17 13 18 10 19 14 20 15 21
REMARK H PARENT
REMARK Flexibility Score: inf
ROOT
ATOM      1  C   UNL     1      95.109  97.981  72.329  1.00  0.00     0.071 C 
ATOM      2  C   UNL     1      94.704  98.316  73.553  1.00  0.00     0.006 C 
ENDROOT
BRANCH   1   3
ATOM      3  C   UNL     1      95.891  98.970  71.561  1.00  0.00     0.246 C 
ATOM      4  O   UNL     1      95.854 100.142  71.938  1.00  0.00    -0.270 OA
ATOM      5  N   UNL     1      96.614  98.513  70.460  1.00  0.00    -0.339 N 
ATOM      6  C   UNL     1      97.396  99.472  69.675  1.00  0.00     0.120 C 
ATOM      7  C   UNL     1      96.647  97.132  69.954  1.00  0.00     0.120 C 
ATOM      8  C   UNL     1      98.843  99.017  69.520  1.00  0.00     0.022 C 
ATOM      9  C   UNL     1      98.083  96.640  69.782  1.00  0.00     0.022 C 
ATOM     10  C   UNL     1      98.914  97.607  68.943  1.00  0.00     0.004 C 
ENDBRANCH   1   3
BRANCH   2  11
ATOM     11  C   UNL     1      93.932  97.415  74.382  1.00  0.00     0.001 C 
ATOM     12  C   UNL     1      94.499  96.548  75.236  1.00  0.00     0.008 C 
BRANCH  12  13
ATOM     13  C   UNL     1      93.764  95.605  76.095  1.00  0.00    -0.022 A 
ATOM     14  C   UNL     1      92.508  95.167  75.697  1.00  0.00     0.058 A 
ATOM     15  C   UNL     1      94.350  95.176  77.288  1.00  0.00     0.012 A 
ATOM     16  C   UNL     1      91.858  94.284  76.535  1.00  0.00     0.166 A 
ATOM     17  C   UNL     1      93.670  94.282  78.118  1.00  0.00     0.051 A 
ATOM     18  O   UNL     1      90.626  93.744  76.324  1.00  0.00    -0.454 OA
ATOM     19  C   UNL     1      92.423  93.853  77.713  1.00  0.00     0.165 A 
ATOM     20  C   UNL     1      90.481  92.924  77.502  1.00  0.00     0.468 C 
ATOM     21  O   UNL     1      91.617  92.989  78.388  1.00  0.00    -0.454 OA
ENDBRANCH  12  13
ENDBRANCH   2  11
TORSDOF 3
ENDMDL
MODEL 9
REMARK VINA RESULT:    -6.393      8.425     10.067
REMARK INTER + INTRA:          -7.847
REMARK INTER:                  -7.506
REMARK INTRA:                  -0.342
REMARK UNBOUND:                -0.333
REMARK SMILES O=C(/C=C/C=C/c1ccc2c(c1)OCO2)N1CCCCC1
REMARK SMILES IDX 3 1 4 2 2 3 1 4 16 5 17 6 21 7 18 8 20 9 19 10 5 11 6 12
REMARK SMILES IDX 7 13 12 14 8 15 11 16 9 17 13 18 10 19 14 20 15 21
REMARK H PARENT
REMARK Flexibility Score: inf
ROOT
ATOM      1  C   UNL     1      93.890  85.053  88.233  1.00  0.00     0.071 C 
ATOM      2  C   UNL     1      93.500  84.563  87.058  1.00  0.00     0.006 C 
ENDROOT
BRANCH   1   3
ATOM      3  C   UNL     1      95.004  86.022  88.247  1.00  0.00     0.246 C 
ATOM      4  O   UNL     1      95.974  85.785  87.526  1.00  0.00    -0.270 OA
ATOM      5  N   UNL     1      94.886  87.136  89.078  1.00  0.00    -0.339 N 
ATOM      6  C   UNL     1      95.978  88.113  89.117  1.00  0.00     0.120 C 
ATOM      7  C   UNL     1      93.766  87.429  89.984  1.00  0.00     0.120 C 
ATOM      8  C   UNL     1      95.469  89.528  88.862  1.00  0.00     0.022 C 
ATOM      9  C   UNL     1      93.229  88.843  89.762  1.00  0.00     0.022 C 
ATOM     10  C   UNL     1      94.342  89.885  89.826  1.00  0.00     0.004 C 
ENDBRANCH   1   3
BRANCH   2  11
ATOM     11  C   UNL     1      92.419  83.609  86.943  1.00  0.00     0.001 C 
ATOM     12  C   UNL     1      92.205  82.883  85.833  1.00  0.00     0.008 C 
BRANCH  12  13
ATOM     13  C   UNL     1      91.117  81.906  85.659  1.00  0.00    -0.022 A 
ATOM     14  C   UNL     1      91.153  81.041  84.574  1.00  0.00     0.058 A 
ATOM     15  C   UNL     1      90.078  81.877  86.593  1.00  0.00     0.012 A 
ATOM     16  C   UNL     1      90.112  80.143  84.455  1.00  0.00     0.166 A 
ATOM     17  C   UNL     1      89.036  80.957  86.447  1.00  0.00     0.051 A 
ATOM     18  O   UNL     1      89.965  79.219  83.466  1.00  0.00    -0.454 OA
ATOM     19  C   UNL     1      89.081  80.102  85.366  1.00  0.00     0.165 A 
ATOM     20  C   UNL     1      88.726  78.592  83.858  1.00  0.00     0.468 C 
ATOM     21  O   UNL     1      88.160  79.148  85.063  1.00  0.00    -0.454 OA
ENDBRANCH  12  13
ENDBRANCH   2  11
TORSDOF 3
ENDMDL
MODEL 10
REMARK VINA RESULT:    -6.155      3.212      4.750
REMARK INTER + INTRA:          -7.567
REMARK INTER:                  -7.214
REMARK INTRA:                  -0.352
REMARK UNBOUND:                -0.333
REMARK SMILES O=C(/C=C/C=C/c1ccc2c(c1)OCO2)N1CCCCC1
REMARK SMILES IDX 3 1 4 2 2 3 1 4 16 5 17 6 21 7 18 8 20 9 19 10 5 11 6 12
REMARK SMILES IDX 7 13 12 14 8 15 11 16 9 17 13 18 10 19 14 20 15 21
REMARK H PARENT
REMARK Flexibility Score: inf
ROOT
ATOM      1  C   UNL     1      93.400  81.559  84.835  1.00  0.00     0.071 C 
ATOM      2  C   UNL     1      94.709  81.327  84.760  1.00  0.00     0.006 C 
ENDROOT
BRANCH   1   3
ATOM      3  C   UNL     1      92.729  81.343  86.132  1.00  0.00     0.246 C 
ATOM      4  O   UNL     1      93.357  81.628  87.152  1.00  0.00    -0.270 OA
ATOM      5  N   UNL     1      91.434  80.827  86.115  1.00  0.00    -0.339 N 
ATOM      6  C   UNL     1      90.744  80.596  87.388  1.00  0.00     0.120 C 
ATOM      7  C   UNL     1      90.671  80.433  84.922  1.00  0.00     0.120 C 
ATOM      8  C   UNL     1      89.376  81.269  87.410  1.00  0.00     0.022 C 
ATOM      9  C   UNL     1      89.289  81.086  84.909  1.00  0.00     0.022 C 
ATOM     10  C   UNL     1      88.535  80.838  86.212  1.00  0.00     0.004 C 
ENDBRANCH   1   3
BRANCH   2  11
ATOM     11  C   UNL     1      95.455  81.510  83.533  1.00  0.00     0.001 C 
ATOM     12  C   UNL     1      95.924  80.482  82.808  1.00  0.00     0.008 C 
BRANCH  12  13
ATOM     13  C   UNL     1      96.694  80.612  81.559  1.00  0.00    -0.022 A 
ATOM     14  C   UNL     1      97.383  79.509  81.073  1.00  0.00     0.058 A 
ATOM     15  C   UNL     1      96.709  81.842  80.897  1.00  0.00     0.012 A 
ATOM     16  C   UNL     1      98.089  79.680  79.899  1.00  0.00     0.166 A 
ATOM     17  C   UNL     1      97.432  81.987  79.711  1.00  0.00     0.051 A 
ATOM     18  O   UNL     1      98.826  78.726  79.266  1.00  0.00    -0.454 OA
ATOM     19  C   UNL     1      98.113  80.885  79.236  1.00  0.00     0.165 A 
ATOM     20  C   UNL     1      99.316  79.468  78.130  1.00  0.00     0.468 C 
ATOM     21  O   UNL     1      98.867  80.838  78.105  1.00  0.00    -0.454 OA
ENDBRANCH  12  13
ENDBRANCH   2  11
TORSDOF 3
ENDMDL
