MODEL 1
REMARK VINA RESULT:    -5.929      0.000      0.000
REMARK INTER + INTRA:         -10.256
REMARK INTER:                  -9.568
REMARK INTRA:                  -0.688
REMARK UNBOUND:                -0.688
REMARK SMILES COc1cc(CNC(=O)CCCCCCC(C)C)ccc1O
REMARK SMILES IDX 11 1 10 2 8 3 7 4 9 6 6 7 5 8 3 9 21 10 4 11 20 12 19 13
REMARK SMILES IDX 2 14 1 15 22 16 12 18 13 19 14 20 15 21 16 22 17 23 18 24
REMARK H PARENT 7 5 22 17
REMARK Flexibility Score: inf
ROOT
ATOM      1  C   UNL     1      97.185  81.833  77.968  1.00  0.00     0.010 C 
ENDROOT
BRANCH   1   2
ATOM      2  C   UNL     1      95.978  82.516  77.268  1.00  0.00     0.100 C 
BRANCH   2   3
ATOM      3  C   UNL     1      96.356  83.254  76.041  1.00  0.00     0.220 C 
ATOM      4  N   UNL     1      97.475  82.906  75.344  1.00  0.00    -0.352 N 
ATOM      5  H   UNL     1      98.014  82.160  75.759  1.00  0.00     0.163 HD
ATOM      6  O   UNL     1      95.612  84.186  75.648  1.00  0.00    -0.275 OA
BRANCH   4   7
ATOM      7  C   UNL     1      97.906  83.507  74.118  1.00  0.00     0.151 C 
BRANCH   7   8
ATOM      8  C   UNL     1      99.232  83.013  73.657  1.00  0.00    -0.025 A 
ATOM      9  C   UNL     1     100.926  82.796  71.886  1.00  0.00     0.160 A 
ATOM     10  C   UNL     1     101.777  82.113  72.782  1.00  0.00     0.157 A 
ATOM     11  C   UNL     1      99.654  83.223  72.324  1.00  0.00     0.056 A 
ATOM     12  C   UNL     1     101.353  81.864  74.099  1.00  0.00     0.050 A 
ATOM     13  C   UNL     1     100.094  82.319  74.538  1.00  0.00     0.009 A 
BRANCH   9  14
ATOM     14  O   UNL     1     101.313  83.010  70.592  1.00  0.00    -0.493 OA
ATOM     15  C   UNL     1     101.666  84.376  70.310  1.00  0.00     0.278 C 
ENDBRANCH   9  14
BRANCH  10  16
ATOM     16  O   UNL     1     103.007  81.689  72.387  1.00  0.00    -0.504 OA
ATOM     17  H   UNL     1     102.914  80.899  71.849  1.00  0.00     0.293 HD
ENDBRANCH  10  16
ENDBRANCH   7   8
ENDBRANCH   4   7
ENDBRANCH   2   3
ENDBRANCH   1   2
BRANCH   1  18
ATOM     18  C   UNL     1      97.108  81.950  79.517  1.00  0.00     0.001 C 
BRANCH  18  19
ATOM     19  C   UNL     1      97.610  80.684  80.267  1.00  0.00     0.000 C 
BRANCH  19  20
ATOM     20  C   UNL     1      97.642  80.905  81.806  1.00  0.00     0.000 C 
BRANCH  20  21
ATOM     21  C   UNL     1      96.259  80.759  82.499  1.00  0.00     0.003 C 
BRANCH  21  22
ATOM     22  C   UNL     1      95.920  81.893  83.520  1.00  0.00    -0.017 C 
ATOM     23  C   UNL     1      94.533  81.640  84.174  1.00  0.00     0.007 C 
ATOM     24  C   UNL     1      95.981  83.324  82.909  1.00  0.00     0.007 C 
ENDBRANCH  21  22
ENDBRANCH  20  21
ENDBRANCH  19  20
ENDBRANCH  18  19
ENDBRANCH   1  18
TORSDOF 11
ENDMDL
MODEL 2
REMARK VINA RESULT:    -5.858     23.496     26.020
REMARK INTER + INTRA:         -10.141
REMARK INTER:                  -8.140
REMARK INTRA:                  -2.001
REMARK UNBOUND:                -0.688
REMARK SMILES COc1cc(CNC(=O)CCCCCCC(C)C)ccc1O
REMARK SMILES IDX 11 1 10 2 8 3 7 4 9 6 6 7 5 8 3 9 21 10 4 11 20 12 19 13
REMARK SMILES IDX 2 14 1 15 22 16 12 18 13 19 14 20 15 21 16 22 17 23 18 24
REMARK H PARENT 7 5 22 17
REMARK Flexibility Score: inf
ROOT
ATOM      1  C   UNL     1      73.242  90.294  68.017  1.00  0.00     0.010 C 
ENDROOT
BRANCH   1   2
ATOM      2  C   UNL     1      72.991  89.426  69.280  1.00  0.00     0.100 C 
BRANCH   2   3
ATOM      3  C   UNL     1      72.883  87.980  68.983  1.00  0.00     0.220 C 
ATOM      4  N   UNL     1      73.892  87.128  69.327  1.00  0.00    -0.352 N 
ATOM      5  H   UNL     1      74.697  87.575  69.742  1.00  0.00     0.163 HD
ATOM      6  O   UNL     1      71.837  87.555  68.434  1.00  0.00    -0.275 OA
BRANCH   4   7
ATOM      7  C   UNL     1      73.874  85.709  69.144  1.00  0.00     0.151 C 
BRANCH   7   8
ATOM      8  C   UNL     1      75.017  85.207  68.334  1.00  0.00    -0.025 A 
ATOM      9  C   UNL     1      75.872  83.856  66.465  1.00  0.00     0.160 A 
ATOM     10  C   UNL     1      77.187  84.281  66.756  1.00  0.00     0.157 A 
ATOM     11  C   UNL     1      74.802  84.307  67.266  1.00  0.00     0.056 A 
ATOM     12  C   UNL     1      77.419  85.146  67.841  1.00  0.00     0.050 A 
ATOM     13  C   UNL     1      76.342  85.615  68.618  1.00  0.00     0.009 A 
BRANCH   9  14
ATOM     14  O   UNL     1      75.640  82.984  65.436  1.00  0.00    -0.493 OA
ATOM     15  C   UNL     1      75.163  83.616  64.235  1.00  0.00     0.278 C 
ENDBRANCH   9  14
BRANCH  10  16
ATOM     16  O   UNL     1      78.237  83.862  66.003  1.00  0.00    -0.504 OA
ATOM     17  H   UNL     1      79.052  83.978  66.498  1.00  0.00     0.293 HD
ENDBRANCH  10  16
ENDBRANCH   7   8
ENDBRANCH   4   7
ENDBRANCH   2   3
ENDBRANCH   1   2
BRANCH   1  18
ATOM     18  C   UNL     1      74.637  90.983  68.046  1.00  0.00     0.001 C 
BRANCH  18  19
ATOM     19  C   UNL     1      75.699  90.211  68.878  1.00  0.00     0.000 C 
BRANCH  19  20
ATOM     20  C   UNL     1      76.459  89.169  68.010  1.00  0.00     0.000 C 
BRANCH  20  21
ATOM     21  C   UNL     1      76.567  89.549  66.507  1.00  0.00     0.003 C 
BRANCH  21  22
ATOM     22  C   UNL     1      76.178  88.403  65.517  1.00  0.00    -0.017 C 
ATOM     23  C   UNL     1      76.263  88.901  64.047  1.00  0.00     0.007 C 
ATOM     24  C   UNL     1      74.779  87.779  65.801  1.00  0.00     0.007 C 
ENDBRANCH  21  22
ENDBRANCH  20  21
ENDBRANCH  19  20
ENDBRANCH  18  19
ENDBRANCH   1  18
TORSDOF 11
ENDMDL
MODEL 3
REMARK VINA RESULT:    -5.744     12.803     15.066
REMARK INTER + INTRA:          -9.957
REMARK INTER:                  -9.016
REMARK INTRA:                  -0.941
REMARK UNBOUND:                -0.688
REMARK SMILES COc1cc(CNC(=O)CCCCCCC(C)C)ccc1O
REMARK SMILES IDX 11 1 10 2 8 3 7 4 9 6 6 7 5 8 3 9 21 10 4 11 20 12 19 13
REMARK SMILES IDX 2 14 1 15 22 16 12 18 13 19 14 20 15 21 16 22 17 23 18 24
REMARK H PARENT 7 5 22 17
REMARK Flexibility Score: inf
ROOT
ATOM      1  C   UNL     1      96.206  93.370  78.170  1.00  0.00     0.010 C 
ENDROOT
BRANCH   1   2
ATOM      2  C   UNL     1      95.551  92.573  79.331  1.00  0.00     0.100 C 
BRANCH   2   3
ATOM      3  C   UNL     1      95.627  93.269  80.635  1.00  0.00     0.220 C 
ATOM      4  N   UNL     1      95.768  94.625  80.685  1.00  0.00    -0.352 N 
ATOM      5  H   UNL     1      95.856  95.073  79.784  1.00  0.00     0.163 HD
ATOM      6  O   UNL     1      95.536  92.589  81.687  1.00  0.00    -0.275 OA
BRANCH   4   7
ATOM      7  C   UNL     1      95.795  95.410  81.882  1.00  0.00     0.151 C 
BRANCH   7   8
ATOM      8  C   UNL     1      96.979  96.308  81.968  1.00  0.00    -0.025 A 
ATOM      9  C   UNL     1      99.003  97.267  80.952  1.00  0.00     0.160 A 
ATOM     10  C   UNL     1      99.214  98.051  82.107  1.00  0.00     0.157 A 
ATOM     11  C   UNL     1      97.900  96.389  80.899  1.00  0.00     0.056 A 
ATOM     12  C   UNL     1      98.326  97.950  83.193  1.00  0.00     0.050 A 
ATOM     13  C   UNL     1      97.211  97.094  83.122  1.00  0.00     0.009 A 
BRANCH   9  14
ATOM     14  O   UNL     1      99.882  97.328  79.905  1.00  0.00    -0.493 OA
ATOM     15  C   UNL     1     100.765  96.195  79.822  1.00  0.00     0.278 C 
ENDBRANCH   9  14
BRANCH  10  16
ATOM     16  O   UNL     1     100.269  98.904  82.186  1.00  0.00    -0.504 OA
ATOM     17  H   UNL     1     100.591  98.931  83.090  1.00  0.00     0.293 HD
ENDBRANCH  10  16
ENDBRANCH   7   8
ENDBRANCH   4   7
ENDBRANCH   2   3
ENDBRANCH   1   2
BRANCH   1  18
ATOM     18  C   UNL     1      95.152  93.912  77.162  1.00  0.00     0.001 C 
BRANCH  18  19
ATOM     19  C   UNL     1      94.429  95.201  77.644  1.00  0.00     0.000 C 
BRANCH  19  20
ATOM     20  C   UNL     1      92.898  95.129  77.384  1.00  0.00     0.000 C 
BRANCH  20  21
ATOM     21  C   UNL     1      92.259  93.752  77.718  1.00  0.00     0.003 C 
BRANCH  21  22
ATOM     22  C   UNL     1      90.867  93.503  77.050  1.00  0.00    -0.017 C 
ATOM     23  C   UNL     1      90.157  94.853  76.752  1.00  0.00     0.007 C 
ATOM     24  C   UNL     1      89.936  92.568  77.877  1.00  0.00     0.007 C 
ENDBRANCH  21  22
ENDBRANCH  20  21
ENDBRANCH  19  20
ENDBRANCH  18  19
ENDBRANCH   1  18
TORSDOF 11
ENDMDL
MODEL 4
REMARK VINA RESULT:    -5.627      2.370      2.709
REMARK INTER + INTRA:          -9.769
REMARK INTER:                  -9.179
REMARK INTRA:                  -0.590
REMARK UNBOUND:                -0.688
REMARK SMILES COc1cc(CNC(=O)CCCCCCC(C)C)ccc1O
REMARK SMILES IDX 11 1 10 2 8 3 7 4 9 6 6 7 5 8 3 9 21 10 4 11 20 12 19 13
REMARK SMILES IDX 2 14 1 15 22 16 12 18 13 19 14 20 15 21 16 22 17 23 18 24
REMARK H PARENT 7 5 22 17
REMARK Flexibility Score: inf
ROOT
ATOM      1  C   UNL     1      97.180  82.020  78.232  1.00  0.00     0.010 C 
ENDROOT
BRANCH   1   2
ATOM      2  C   UNL     1      95.883  82.497  77.521  1.00  0.00     0.100 C 
BRANCH   2   3
ATOM      3  C   UNL     1      96.116  82.973  76.139  1.00  0.00     0.220 C 
ATOM      4  N   UNL     1      96.758  82.178  75.235  1.00  0.00    -0.352 N 
ATOM      5  H   UNL     1      97.081  81.296  75.604  1.00  0.00     0.163 HD
ATOM      6  O   UNL     1      95.689  84.108  75.814  1.00  0.00    -0.275 OA
BRANCH   4   7
ATOM      7  C   UNL     1      96.987  82.508  73.861  1.00  0.00     0.151 C 
BRANCH   7   8
ATOM      8  C   UNL     1      97.486  81.358  73.057  1.00  0.00    -0.025 A 
ATOM      9  C   UNL     1      99.339  80.179  71.950  1.00  0.00     0.160 A 
ATOM     10  C   UNL     1      98.455  79.149  71.563  1.00  0.00     0.157 A 
ATOM     11  C   UNL     1      98.845  81.283  72.676  1.00  0.00     0.056 A 
ATOM     12  C   UNL     1      97.092  79.231  71.902  1.00  0.00     0.050 A 
ATOM     13  C   UNL     1      96.612  80.322  72.653  1.00  0.00     0.009 A 
BRANCH   9  14
ATOM     14  O   UNL     1     100.658  80.129  71.590  1.00  0.00    -0.493 OA
ATOM     15  C   UNL     1     101.027  81.102  70.597  1.00  0.00     0.278 C 
ENDBRANCH   9  14
BRANCH  10  16
ATOM     16  O   UNL     1      98.902  78.074  70.861  1.00  0.00    -0.504 OA
ATOM     17  H   UNL     1      98.712  78.200  69.929  1.00  0.00     0.293 HD
ENDBRANCH  10  16
ENDBRANCH   7   8
ENDBRANCH   4   7
ENDBRANCH   2   3
ENDBRANCH   1   2
BRANCH   1  18
ATOM     18  C   UNL     1      97.047  82.058  79.781  1.00  0.00     0.001 C 
BRANCH  18  19
ATOM     19  C   UNL     1      97.667  80.824  80.494  1.00  0.00     0.000 C 
BRANCH  19  20
ATOM     20  C   UNL     1      97.552  80.938  82.040  1.00  0.00     0.000 C 
BRANCH  20  21
ATOM     21  C   UNL     1      96.175  80.499  82.611  1.00  0.00     0.003 C 
BRANCH  21  22
ATOM     22  C   UNL     1      95.466  81.573  83.498  1.00  0.00    -0.017 C 
ATOM     23  C   UNL     1      95.897  83.004  83.068  1.00  0.00     0.007 C 
ATOM     24  C   UNL     1      95.692  81.372  85.026  1.00  0.00     0.007 C 
ENDBRANCH  21  22
ENDBRANCH  20  21
ENDBRANCH  19  20
ENDBRANCH  18  19
ENDBRANCH   1  18
TORSDOF 11
ENDMDL
MODEL 5
REMARK VINA RESULT:    -5.596      4.173      6.642
REMARK INTER + INTRA:          -9.718
REMARK INTER:                  -9.238
REMARK INTRA:                  -0.481
REMARK UNBOUND:                -0.688
REMARK SMILES COc1cc(CNC(=O)CCCCCCC(C)C)ccc1O
REMARK SMILES IDX 11 1 10 2 8 3 7 4 9 6 6 7 5 8 3 9 21 10 4 11 20 12 19 13
REMARK SMILES IDX 2 14 1 15 22 16 12 18 13 19 14 20 15 21 16 22 17 23 18 24
REMARK H PARENT 7 5 22 17
REMARK Flexibility Score: inf
ROOT
ATOM      1  C   UNL     1      95.800  83.783  83.769  1.00  0.00     0.010 C 
ENDROOT
BRANCH   1   2
ATOM      2  C   UNL     1      95.618  82.346  83.207  1.00  0.00     0.100 C 
BRANCH   2   3
ATOM      3  C   UNL     1      96.740  81.908  82.346  1.00  0.00     0.220 C 
ATOM      4  N   UNL     1      96.587  81.850  80.992  1.00  0.00    -0.352 N 
ATOM      5  H   UNL     1      95.661  82.081  80.662  1.00  0.00     0.163 HD
ATOM      6  O   UNL     1      97.835  81.617  82.887  1.00  0.00    -0.275 OA
BRANCH   4   7
ATOM      7  C   UNL     1      97.614  81.499  80.059  1.00  0.00     0.151 C 
BRANCH   7   8
ATOM      8  C   UNL     1      97.302  81.906  78.662  1.00  0.00    -0.025 A 
ATOM      9  C   UNL     1      97.971  82.113  76.304  1.00  0.00     0.160 A 
ATOM     10  C   UNL     1      96.700  82.641  75.987  1.00  0.00     0.157 A 
ATOM     11  C   UNL     1      98.269  81.769  77.639  1.00  0.00     0.056 A 
ATOM     12  C   UNL     1      95.743  82.819  77.003  1.00  0.00     0.050 A 
ATOM     13  C   UNL     1      96.037  82.445  78.329  1.00  0.00     0.009 A 
BRANCH   9  14
ATOM     14  O   UNL     1      98.922  81.973  75.331  1.00  0.00    -0.493 OA
ATOM     15  C   UNL     1      99.029  80.634  74.813  1.00  0.00     0.278 C 
ENDBRANCH   9  14
BRANCH  10  16
ATOM     16  O   UNL     1      96.386  82.983  74.710  1.00  0.00    -0.504 OA
ATOM     17  H   UNL     1      95.573  82.543  74.452  1.00  0.00     0.293 HD
ENDBRANCH  10  16
ENDBRANCH   7   8
ENDBRANCH   4   7
ENDBRANCH   2   3
ENDBRANCH   1   2
BRANCH   1  18
ATOM     18  C   UNL     1      95.116  83.962  85.154  1.00  0.00     0.001 C 
BRANCH  18  19
ATOM     19  C   UNL     1      95.180  85.416  85.701  1.00  0.00     0.000 C 
BRANCH  19  20
ATOM     20  C   UNL     1      95.302  85.440  87.251  1.00  0.00     0.000 C 
BRANCH  20  21
ATOM     21  C   UNL     1      96.027  86.694  87.814  1.00  0.00     0.003 C 
BRANCH  21  22
ATOM     22  C   UNL     1      95.346  87.329  89.070  1.00  0.00    -0.017 C 
ATOM     23  C   UNL     1      94.118  86.483  89.509  1.00  0.00     0.007 C 
ATOM     24  C   UNL     1      94.939  88.820  88.873  1.00  0.00     0.007 C 
ENDBRANCH  21  22
ENDBRANCH  20  21
ENDBRANCH  19  20
ENDBRANCH  18  19
ENDBRANCH   1  18
TORSDOF 11
ENDMDL
MODEL 6
REMARK VINA RESULT:    -5.474      1.407      2.575
REMARK INTER + INTRA:          -9.522
REMARK INTER:                  -8.748
REMARK INTRA:                  -0.774
REMARK UNBOUND:                -0.688
REMARK SMILES COc1cc(CNC(=O)CCCCCCC(C)C)ccc1O
REMARK SMILES IDX 11 1 10 2 8 3 7 4 9 6 6 7 5 8 3 9 21 10 4 11 20 12 19 13
REMARK SMILES IDX 2 14 1 15 22 16 12 18 13 19 14 20 15 21 16 22 17 23 18 24
REMARK H PARENT 7 5 22 17
REMARK Flexibility Score: inf
ROOT
ATOM      1  C   UNL     1      97.377  82.062  78.342  1.00  0.00     0.010 C 
ENDROOT
BRANCH   1   2
ATOM      2  C   UNL     1      96.069  82.075  77.502  1.00  0.00     0.100 C 
BRANCH   2   3
ATOM      3  C   UNL     1      96.223  82.745  76.191  1.00  0.00     0.220 C 
ATOM      4  N   UNL     1      96.987  82.178  75.213  1.00  0.00    -0.352 N 
ATOM      5  H   UNL     1      97.449  81.322  75.482  1.00  0.00     0.163 HD
ATOM      6  O   UNL     1      95.618  83.827  75.993  1.00  0.00    -0.275 OA
BRANCH   4   7
ATOM      7  C   UNL     1      97.162  82.703  73.892  1.00  0.00     0.151 C 
BRANCH   7   8
ATOM      8  C   UNL     1      98.591  82.871  73.512  1.00  0.00    -0.025 A 
ATOM      9  C   UNL     1     100.830  81.913  73.168  1.00  0.00     0.160 A 
ATOM     10  C   UNL     1     101.307  83.174  72.745  1.00  0.00     0.157 A 
ATOM     11  C   UNL     1      99.483  81.776  73.565  1.00  0.00     0.056 A 
ATOM     12  C   UNL     1     100.438  84.280  72.726  1.00  0.00     0.050 A 
ATOM     13  C   UNL     1      99.087  84.129  73.096  1.00  0.00     0.009 A 
BRANCH   9  14
ATOM     14  O   UNL     1     101.676  80.840  73.228  1.00  0.00    -0.493 OA
ATOM     15  C   UNL     1     102.314  80.676  74.508  1.00  0.00     0.278 C 
ENDBRANCH   9  14
BRANCH  10  16
ATOM     16  O   UNL     1     102.599  83.336  72.359  1.00  0.00    -0.504 OA
ATOM     17  H   UNL     1     103.106  83.704  73.087  1.00  0.00     0.293 HD
ENDBRANCH  10  16
ENDBRANCH   7   8
ENDBRANCH   4   7
ENDBRANCH   2   3
ENDBRANCH   1   2
BRANCH   1  18
ATOM     18  C   UNL     1      97.199  81.311  79.692  1.00  0.00     0.001 C 
BRANCH  18  19
ATOM     19  C   UNL     1      96.750  82.227  80.864  1.00  0.00     0.000 C 
BRANCH  19  20
ATOM     20  C   UNL     1      96.986  81.549  82.243  1.00  0.00     0.000 C 
BRANCH  20  21
ATOM     21  C   UNL     1      96.251  80.191  82.420  1.00  0.00     0.003 C 
BRANCH  21  22
ATOM     22  C   UNL     1      97.195  78.948  82.511  1.00  0.00    -0.017 C 
ATOM     23  C   UNL     1      98.677  79.398  82.645  1.00  0.00     0.007 C 
ATOM     24  C   UNL     1      97.034  77.952  81.324  1.00  0.00     0.007 C 
ENDBRANCH  21  22
ENDBRANCH  20  21
ENDBRANCH  19  20
ENDBRANCH  18  19
ENDBRANCH   1  18
TORSDOF 11
ENDMDL
MODEL 7
REMARK VINA RESULT:    -5.397     13.388     16.394
REMARK INTER + INTRA:          -9.398
REMARK INTER:                  -8.678
REMARK INTRA:                  -0.719
REMARK UNBOUND:                -0.688
REMARK SMILES COc1cc(CNC(=O)CCCCCCC(C)C)ccc1O
REMARK SMILES IDX 11 1 10 2 8 3 7 4 9 6 6 7 5 8 3 9 21 10 4 11 20 12 19 13
REMARK SMILES IDX 2 14 1 15 22 16 12 18 13 19 14 20 15 21 16 22 17 23 18 24
REMARK H PARENT 7 5 22 17
REMARK Flexibility Score: inf
ROOT
ATOM      1  C   UNL     1      95.909  95.239  79.551  1.00  0.00     0.010 C 
ENDROOT
BRANCH   1   2
ATOM      2  C   UNL     1      96.361  95.950  80.857  1.00  0.00     0.100 C 
BRANCH   2   3
ATOM      3  C   UNL     1      97.756  95.636  81.242  1.00  0.00     0.220 C 
ATOM      4  N   UNL     1      98.016  94.972  82.405  1.00  0.00    -0.352 N 
ATOM      5  H   UNL     1      97.202  94.771  82.967  1.00  0.00     0.163 HD
ATOM      6  O   UNL     1      98.684  95.970  80.465  1.00  0.00    -0.275 OA
BRANCH   4   7
ATOM      7  C   UNL     1      99.314  94.565  82.850  1.00  0.00     0.151 C 
BRANCH   7   8
ATOM      8  C   UNL     1      99.785  95.312  84.049  1.00  0.00    -0.025 A 
ATOM      9  C   UNL     1      99.375  96.963  85.825  1.00  0.00     0.160 A 
ATOM     10  C   UNL     1     100.657  96.709  86.360  1.00  0.00     0.157 A 
ATOM     11  C   UNL     1      98.957  96.278  84.665  1.00  0.00     0.056 A 
ATOM     12  C   UNL     1     101.505  95.778  85.734  1.00  0.00     0.050 A 
ATOM     13  C   UNL     1     101.069  95.076  84.593  1.00  0.00     0.009 A 
BRANCH   9  14
ATOM     14  O   UNL     1      98.558  97.896  86.404  1.00  0.00    -0.493 OA
ATOM     15  C   UNL     1      97.460  97.327  87.140  1.00  0.00     0.278 C 
ENDBRANCH   9  14
BRANCH  10  16
ATOM     16  O   UNL     1     101.086  97.355  87.476  1.00  0.00    -0.504 OA
ATOM     17  H   UNL     1     100.402  97.955  87.781  1.00  0.00     0.293 HD
ENDBRANCH  10  16
ENDBRANCH   7   8
ENDBRANCH   4   7
ENDBRANCH   2   3
ENDBRANCH   1   2
BRANCH   1  18
ATOM     18  C   UNL     1      95.840  93.694  79.718  1.00  0.00     0.001 C 
BRANCH  18  19
ATOM     19  C   UNL     1      94.625  93.041  79.001  1.00  0.00     0.000 C 
BRANCH  19  20
ATOM     20  C   UNL     1      93.760  94.100  78.262  1.00  0.00     0.000 C 
BRANCH  20  21
ATOM     21  C   UNL     1      92.486  93.522  77.586  1.00  0.00     0.003 C 
BRANCH  21  22
ATOM     22  C   UNL     1      91.677  94.553  76.733  1.00  0.00    -0.017 C 
ATOM     23  C   UNL     1      92.243  95.987  76.935  1.00  0.00     0.007 C 
ATOM     24  C   UNL     1      90.145  94.528  77.009  1.00  0.00     0.007 C 
ENDBRANCH  21  22
ENDBRANCH  20  21
ENDBRANCH  19  20
ENDBRANCH  18  19
ENDBRANCH   1  18
TORSDOF 11
ENDMDL
MODEL 8
REMARK VINA RESULT:    -5.373      1.759      2.283
REMARK INTER + INTRA:          -9.359
REMARK INTER:                  -8.386
REMARK INTRA:                  -0.973
REMARK UNBOUND:                -0.688
REMARK SMILES COc1cc(CNC(=O)CCCCCCC(C)C)ccc1O
REMARK SMILES IDX 11 1 10 2 8 3 7 4 9 6 6 7 5 8 3 9 21 10 4 11 20 12 19 13
REMARK SMILES IDX 2 14 1 15 22 16 12 18 13 19 14 20 15 21 16 22 17 23 18 24
REMARK H PARENT 7 5 22 17
REMARK Flexibility Score: inf
ROOT
ATOM      1  C   UNL     1      97.728  80.212  79.180  1.00  0.00     0.010 C 
ENDROOT
BRANCH   1   2
ATOM      2  C   UNL     1      97.451  81.673  78.730  1.00  0.00     0.100 C 
BRANCH   2   3
ATOM      3  C   UNL     1      96.835  81.764  77.387  1.00  0.00     0.220 C 
ATOM      4  N   UNL     1      96.932  82.915  76.661  1.00  0.00    -0.352 N 
ATOM      5  H   UNL     1      97.404  83.672  77.133  1.00  0.00     0.163 HD
ATOM      6  O   UNL     1      96.247  80.756  76.925  1.00  0.00    -0.275 OA
BRANCH   4   7
ATOM      7  C   UNL     1      96.429  83.099  75.333  1.00  0.00     0.151 C 
BRANCH   7   8
ATOM      8  C   UNL     1      97.392  82.684  74.277  1.00  0.00    -0.025 A 
ATOM      9  C   UNL     1      99.338  83.177  72.857  1.00  0.00     0.160 A 
ATOM     10  C   UNL     1      99.259  81.883  72.296  1.00  0.00     0.157 A 
ATOM     11  C   UNL     1      98.395  83.573  73.828  1.00  0.00     0.056 A 
ATOM     12  C   UNL     1      98.242  81.003  72.707  1.00  0.00     0.050 A 
ATOM     13  C   UNL     1      97.321  81.395  73.698  1.00  0.00     0.009 A 
BRANCH   9  14
ATOM     14  O   UNL     1     100.300  84.055  72.436  1.00  0.00    -0.493 OA
ATOM     15  C   UNL     1     101.403  84.189  73.350  1.00  0.00     0.278 C 
ENDBRANCH   9  14
BRANCH  10  16
ATOM     16  O   UNL     1     100.154  81.475  71.358  1.00  0.00    -0.504 OA
ATOM     17  H   UNL     1     100.672  82.228  71.062  1.00  0.00     0.293 HD
ENDBRANCH  10  16
ENDBRANCH   7   8
ENDBRANCH   4   7
ENDBRANCH   2   3
ENDBRANCH   1   2
BRANCH   1  18
ATOM     18  C   UNL     1      97.321  79.968  80.661  1.00  0.00     0.001 C 
BRANCH  18  19
ATOM     19  C   UNL     1      98.498  80.113  81.667  1.00  0.00     0.000 C 
BRANCH  19  20
ATOM     20  C   UNL     1      97.994  80.143  83.137  1.00  0.00     0.000 C 
BRANCH  20  21
ATOM     21  C   UNL     1      97.882  81.569  83.744  1.00  0.00     0.003 C 
BRANCH  21  22
ATOM     22  C   UNL     1      96.441  82.175  83.720  1.00  0.00    -0.017 C 
ATOM     23  C   UNL     1      95.375  81.043  83.717  1.00  0.00     0.007 C 
ATOM     24  C   UNL     1      96.195  83.157  82.537  1.00  0.00     0.007 C 
ENDBRANCH  21  22
ENDBRANCH  20  21
ENDBRANCH  19  20
ENDBRANCH  18  19
ENDBRANCH   1  18
TORSDOF 11
ENDMDL
MODEL 9
REMARK VINA RESULT:    -5.368     13.064     15.922
REMARK INTER + INTRA:          -9.352
REMARK INTER:                  -8.635
REMARK INTRA:                  -0.717
REMARK UNBOUND:                -0.688
REMARK SMILES COc1cc(CNC(=O)CCCCCCC(C)C)ccc1O
REMARK SMILES IDX 11 1 10 2 8 3 7 4 9 6 6 7 5 8 3 9 21 10 4 11 20 12 19 13
REMARK SMILES IDX 2 14 1 15 22 16 12 18 13 19 14 20 15 21 16 22 17 23 18 24
REMARK H PARENT 7 5 22 17
REMARK Flexibility Score: inf
ROOT
ATOM      1  C   UNL     1      95.758  94.198  80.509  1.00  0.00     0.010 C 
ENDROOT
BRANCH   1   2
ATOM      2  C   UNL     1      96.641  95.475  80.450  1.00  0.00     0.100 C 
BRANCH   2   3
ATOM      3  C   UNL     1      98.012  95.262  80.965  1.00  0.00     0.220 C 
ATOM      4  N   UNL     1      98.207  94.752  82.215  1.00  0.00    -0.352 N 
ATOM      5  H   UNL     1      97.361  94.588  82.740  1.00  0.00     0.163 HD
ATOM      6  O   UNL     1      98.984  95.537  80.219  1.00  0.00    -0.275 OA
BRANCH   4   7
ATOM      7  C   UNL     1      99.481  94.450  82.794  1.00  0.00     0.151 C 
BRANCH   7   8
ATOM      8  C   UNL     1      99.780  95.259  84.008  1.00  0.00    -0.025 A 
ATOM      9  C   UNL     1     101.328  95.912  85.804  1.00  0.00     0.160 A 
ATOM     10  C   UNL     1     100.374  96.828  86.296  1.00  0.00     0.157 A 
ATOM     11  C   UNL     1     101.018  95.122  84.677  1.00  0.00     0.056 A 
ATOM     12  C   UNL     1      99.124  96.946  85.663  1.00  0.00     0.050 A 
ATOM     13  C   UNL     1      98.831  96.175  84.520  1.00  0.00     0.009 A 
BRANCH   9  14
ATOM     14  O   UNL     1     102.532  95.761  86.436  1.00  0.00    -0.493 OA
ATOM     15  C   UNL     1     103.084  94.437  86.326  1.00  0.00     0.278 C 
ENDBRANCH   9  14
BRANCH  10  16
ATOM     16  O   UNL     1     100.646  97.601  87.381  1.00  0.00    -0.504 OA
ATOM     17  H   UNL     1     101.136  98.379  87.104  1.00  0.00     0.293 HD
ENDBRANCH  10  16
ENDBRANCH   7   8
ENDBRANCH   4   7
ENDBRANCH   2   3
ENDBRANCH   1   2
BRANCH   1  18
ATOM     18  C   UNL     1      96.059  93.222  79.336  1.00  0.00     0.001 C 
BRANCH  18  19
ATOM     19  C   UNL     1      95.297  93.564  78.025  1.00  0.00     0.000 C 
BRANCH  19  20
ATOM     20  C   UNL     1      93.926  94.234  78.318  1.00  0.00     0.000 C 
BRANCH  20  21
ATOM     21  C   UNL     1      92.718  93.257  78.284  1.00  0.00     0.003 C 
BRANCH  21  22
ATOM     22  C   UNL     1      91.402  93.869  77.704  1.00  0.00    -0.017 C 
ATOM     23  C   UNL     1      90.629  92.808  76.871  1.00  0.00     0.007 C 
ATOM     24  C   UNL     1      91.630  95.161  76.864  1.00  0.00     0.007 C 
ENDBRANCH  21  22
ENDBRANCH  20  21
ENDBRANCH  19  20
ENDBRANCH  18  19
ENDBRANCH   1  18
TORSDOF 11
ENDMDL
MODEL 10
REMARK VINA RESULT:    -5.310     11.702     13.983
REMARK INTER + INTRA:          -9.257
REMARK INTER:                  -8.557
REMARK INTRA:                  -0.700
REMARK UNBOUND:                -0.688
REMARK SMILES COc1cc(CNC(=O)CCCCCCC(C)C)ccc1O
REMARK SMILES IDX 11 1 10 2 8 3 7 4 9 6 6 7 5 8 3 9 21 10 4 11 20 12 19 13
REMARK SMILES IDX 2 14 1 15 22 16 12 18 13 19 14 20 15 21 16 22 17 23 18 24
REMARK H PARENT 7 5 22 17
REMARK Flexibility Score: inf
ROOT
ATOM      1  C   UNL     1      94.657  85.085  87.672  1.00  0.00     0.010 C 
ENDROOT
BRANCH   1   2
ATOM      2  C   UNL     1      94.127  84.696  86.264  1.00  0.00     0.100 C 
BRANCH   2   3
ATOM      3  C   UNL     1      93.840  83.251  86.126  1.00  0.00     0.220 C 
ATOM      4  N   UNL     1      92.764  82.828  85.402  1.00  0.00    -0.352 N 
ATOM      5  H   UNL     1      92.189  83.569  85.030  1.00  0.00     0.163 HD
ATOM      6  O   UNL     1      94.620  82.428  86.667  1.00  0.00    -0.275 OA
BRANCH   4   7
ATOM      7  C   UNL     1      92.422  81.460  85.153  1.00  0.00     0.151 C 
BRANCH   7   8
ATOM      8  C   UNL     1      90.976  81.170  85.357  1.00  0.00    -0.025 A 
ATOM      9  C   UNL     1      88.952  79.909  84.759  1.00  0.00     0.160 A 
ATOM     10  C   UNL     1      88.231  80.580  85.771  1.00  0.00     0.157 A 
ATOM     11  C   UNL     1      90.311  80.222  84.548  1.00  0.00     0.056 A 
ATOM     12  C   UNL     1      88.872  81.554  86.557  1.00  0.00     0.050 A 
ATOM     13  C   UNL     1      90.237  81.841  86.361  1.00  0.00     0.009 A 
BRANCH   9  14
ATOM     14  O   UNL     1      88.328  78.988  83.962  1.00  0.00    -0.493 OA
ATOM     15  C   UNL     1      88.693  77.627  84.253  1.00  0.00     0.278 C 
ENDBRANCH   9  14
BRANCH  10  16
ATOM     16  O   UNL     1      86.921  80.300  85.995  1.00  0.00    -0.504 OA
ATOM     17  H   UNL     1      86.390  80.659  85.280  1.00  0.00     0.293 HD
ENDBRANCH  10  16
ENDBRANCH   7   8
ENDBRANCH   4   7
ENDBRANCH   2   3
ENDBRANCH   1   2
BRANCH   1  18
ATOM     18  C   UNL     1      96.069  85.736  87.608  1.00  0.00     0.001 C 
BRANCH  18  19
ATOM     19  C   UNL     1      96.438  86.555  88.877  1.00  0.00     0.000 C 
BRANCH  19  20
ATOM     20  C   UNL     1      96.559  88.073  88.563  1.00  0.00     0.000 C 
BRANCH  20  21
ATOM     21  C   UNL     1      95.221  88.855  88.673  1.00  0.00     0.003 C 
BRANCH  21  22
ATOM     22  C   UNL     1      94.604  88.890  90.109  1.00  0.00    -0.017 C 
ATOM     23  C   UNL     1      93.320  89.767  90.128  1.00  0.00     0.007 C 
ATOM     24  C   UNL     1      95.603  89.361  91.207  1.00  0.00     0.007 C 
ENDBRANCH  21  22
ENDBRANCH  20  21
ENDBRANCH  19  20
ENDBRANCH  18  19
ENDBRANCH   1  18
TORSDOF 11
ENDMDL
