MODEL 1
REMARK VINA RESULT:    -6.325      0.000      0.000
REMARK INTER + INTRA:         -11.748
REMARK INTER:                 -10.577
REMARK INTRA:                  -1.171
REMARK UNBOUND:                -1.171
REMARK SMILES COc1cc(CNC(=O)CCCCCCCC(C)C)ccc1O
REMARK SMILES IDX 11 1 10 2 8 3 9 4 7 5 6 7 5 8 4 9 20 10 3 11 21 12 22 13
REMARK SMILES IDX 2 14 1 15 23 16 12 18 13 19 14 20 15 21 16 22 17 23 18 24
REMARK SMILES IDX 19 25
REMARK H PARENT 7 6 23 17
REMARK Flexibility Score: inf
ROOT
ATOM      1  C   UNL     1      94.306  98.391  75.714  1.00  0.00     0.010 C 
ENDROOT
BRANCH   1   2
ATOM      2  C   UNL     1      92.956  98.729  75.085  1.00  0.00     0.100 C 
BRANCH   2   3
ATOM      3  C   UNL     1      93.101  99.448  73.754  1.00  0.00     0.220 C 
ATOM      4  O   UNL     1      94.186  99.765  73.275  1.00  0.00    -0.275 OA
ATOM      5  N   UNL     1      91.867  99.699  73.173  1.00  0.00    -0.352 N 
ATOM      6  H   UNL     1      91.018  99.408  73.651  1.00  0.00     0.163 HD
BRANCH   5   7
ATOM      7  C   UNL     1      91.721 100.379  71.906  1.00  0.00     0.151 C 
BRANCH   7   8
ATOM      8  C   UNL     1      90.702  99.715  71.027  1.00  0.00    -0.025 A 
ATOM      9  C   UNL     1      90.288 100.344  69.858  1.00  0.00     0.056 A 
ATOM     10  C   UNL     1      90.183  98.479  71.390  1.00  0.00     0.009 A 
ATOM     11  C   UNL     1      89.341  99.727  69.041  1.00  0.00     0.160 A 
ATOM     12  C   UNL     1      89.234  97.862  70.573  1.00  0.00     0.050 A 
ATOM     13  C   UNL     1      88.813  98.486  69.399  1.00  0.00     0.157 A 
BRANCH  11  14
ATOM     14  O   UNL     1      88.937 100.347  67.897  1.00  0.00    -0.493 OA
ATOM     15  C   UNL     1      89.939 101.020  67.137  1.00  0.00     0.278 C 
ENDBRANCH  11  14
BRANCH  13  16
ATOM     16  O   UNL     1      87.888  97.873  68.609  1.00  0.00    -0.504 OA
ATOM     17  H   UNL     1      88.238  97.810  67.703  1.00  0.00     0.293 HD
ENDBRANCH  13  16
ENDBRANCH   7   8
ENDBRANCH   5   7
ENDBRANCH   2   3
ENDBRANCH   1   2
BRANCH   1  18
ATOM     18  C   UNL     1      94.839  97.014  75.312  1.00  0.00     0.001 C 
BRANCH  18  19
ATOM     19  C   UNL     1      94.074  95.813  75.880  1.00  0.00     0.000 C 
BRANCH  19  20
ATOM     20  C   UNL     1      94.203  95.678  77.399  1.00  0.00     0.000 C 
BRANCH  20  21
ATOM     21  C   UNL     1      92.905  95.994  78.152  1.00  0.00     0.000 C 
BRANCH  21  22
ATOM     22  C   UNL     1      91.653  95.877  77.277  1.00  0.00     0.003 C 
BRANCH  22  23
ATOM     23  C   UNL     1      90.784  94.649  77.611  1.00  0.00    -0.017 C 
ATOM     24  C   UNL     1      91.186  93.472  76.718  1.00  0.00     0.007 C 
ATOM     25  C   UNL     1      89.289  94.928  77.450  1.00  0.00     0.007 C 
ENDBRANCH  22  23
ENDBRANCH  21  22
ENDBRANCH  20  21
ENDBRANCH  19  20
ENDBRANCH  18  19
ENDBRANCH   1  18
TORSDOF 12
ENDMDL
MODEL 2
REMARK VINA RESULT:    -6.012      7.285     10.224
REMARK INTER + INTRA:         -11.225
REMARK INTER:                  -9.828
REMARK INTRA:                  -1.398
REMARK UNBOUND:                -1.171
REMARK SMILES COc1cc(CNC(=O)CCCCCCCC(C)C)ccc1O
REMARK SMILES IDX 11 1 10 2 8 3 9 4 7 5 6 7 5 8 4 9 20 10 3 11 21 12 22 13
REMARK SMILES IDX 2 14 1 15 23 16 12 18 13 19 14 20 15 21 16 22 17 23 18 24
REMARK SMILES IDX 19 25
REMARK H PARENT 7 6 23 17
REMARK Flexibility Score: inf
ROOT
ATOM      1  C   UNL     1      95.690  94.016  79.233  1.00  0.00     0.010 C 
ENDROOT
BRANCH   1   2
ATOM      2  C   UNL     1      94.920  93.386  80.392  1.00  0.00     0.100 C 
BRANCH   2   3
ATOM      3  C   UNL     1      95.092  94.158  81.689  1.00  0.00     0.220 C 
ATOM      4  O   UNL     1      95.377  93.625  82.758  1.00  0.00    -0.275 OA
ATOM      5  N   UNL     1      94.880  95.517  81.505  1.00  0.00    -0.352 N 
ATOM      6  H   UNL     1      94.637  95.867  80.583  1.00  0.00     0.163 HD
BRANCH   5   7
ATOM      7  C   UNL     1      94.974  96.477  82.581  1.00  0.00     0.151 C 
BRANCH   7   8
ATOM      8  C   UNL     1      95.381  97.835  82.088  1.00  0.00    -0.025 A 
ATOM      9  C   UNL     1      95.215  98.943  82.910  1.00  0.00     0.056 A 
ATOM     10  C   UNL     1      95.920  97.969  80.814  1.00  0.00     0.009 A 
ATOM     11  C   UNL     1      95.593 100.205  82.451  1.00  0.00     0.160 A 
ATOM     12  C   UNL     1      96.298  99.232  80.356  1.00  0.00     0.050 A 
ATOM     13  C   UNL     1      96.135 100.350  81.173  1.00  0.00     0.157 A 
BRANCH  11  14
ATOM     14  O   UNL     1      95.428 101.289  83.259  1.00  0.00    -0.493 OA
ATOM     15  C   UNL     1      94.091 101.742  83.470  1.00  0.00     0.278 C 
ENDBRANCH  11  14
BRANCH  13  16
ATOM     16  O   UNL     1      96.508 101.576  80.715  1.00  0.00    -0.504 OA
ATOM     17  H   UNL     1      95.770 102.198  80.837  1.00  0.00     0.293 HD
ENDBRANCH  13  16
ENDBRANCH   7   8
ENDBRANCH   5   7
ENDBRANCH   2   3
ENDBRANCH   1   2
BRANCH   1  18
ATOM     18  C   UNL     1      94.786  94.569  78.128  1.00  0.00     0.001 C 
BRANCH  18  19
ATOM     19  C   UNL     1      94.979  96.051  77.791  1.00  0.00     0.000 C 
BRANCH  19  20
ATOM     20  C   UNL     1      93.788  96.663  77.049  1.00  0.00     0.000 C 
BRANCH  20  21
ATOM     21  C   UNL     1      92.616  95.692  76.871  1.00  0.00     0.000 C 
BRANCH  21  22
ATOM     22  C   UNL     1      91.442  95.978  77.813  1.00  0.00     0.003 C 
BRANCH  22  23
ATOM     23  C   UNL     1      90.487  94.781  77.987  1.00  0.00    -0.017 C 
ATOM     24  C   UNL     1      91.257  93.473  77.789  1.00  0.00     0.007 C 
ATOM     25  C   UNL     1      89.302  94.831  77.021  1.00  0.00     0.007 C 
ENDBRANCH  22  23
ENDBRANCH  21  22
ENDBRANCH  20  21
ENDBRANCH  19  20
ENDBRANCH  18  19
ENDBRANCH   1  18
TORSDOF 12
ENDMDL
MODEL 3
REMARK VINA RESULT:    -5.820     19.613     22.242
REMARK INTER + INTRA:         -10.903
REMARK INTER:                  -9.625
REMARK INTRA:                  -1.278
REMARK UNBOUND:                -1.171
REMARK SMILES COc1cc(CNC(=O)CCCCCCCC(C)C)ccc1O
REMARK SMILES IDX 11 1 10 2 8 3 9 4 7 5 6 7 5 8 4 9 20 10 3 11 21 12 22 13
REMARK SMILES IDX 2 14 1 15 23 16 12 18 13 19 14 20 15 21 16 22 17 23 18 24
REMARK SMILES IDX 19 25
REMARK H PARENT 7 6 23 17
REMARK Flexibility Score: inf
ROOT
ATOM      1  C   UNL     1      76.320  87.036  66.189  1.00  0.00     0.010 C 
ENDROOT
BRANCH   1   2
ATOM      2  C   UNL     1      76.591  87.013  64.687  1.00  0.00     0.100 C 
BRANCH   2   3
ATOM      3  C   UNL     1      76.752  85.600  64.150  1.00  0.00     0.220 C 
ATOM      4  O   UNL     1      76.680  85.321  62.956  1.00  0.00    -0.275 OA
ATOM      5  N   UNL     1      76.978  84.689  65.171  1.00  0.00    -0.352 N 
ATOM      6  H   UNL     1      77.011  85.013  66.134  1.00  0.00     0.163 HD
BRANCH   5   7
ATOM      7  C   UNL     1      77.158  83.276  64.934  1.00  0.00     0.151 C 
BRANCH   7   8
ATOM      8  C   UNL     1      75.867  82.519  65.050  1.00  0.00    -0.025 A 
ATOM      9  C   UNL     1      74.852  83.010  65.863  1.00  0.00     0.056 A 
ATOM     10  C   UNL     1      75.699  81.334  64.343  1.00  0.00     0.009 A 
ATOM     11  C   UNL     1      73.652  82.306  65.970  1.00  0.00     0.160 A 
ATOM     12  C   UNL     1      74.499  80.630  64.451  1.00  0.00     0.050 A 
ATOM     13  C   UNL     1      73.476  81.116  65.264  1.00  0.00     0.157 A 
BRANCH  11  14
ATOM     14  O   UNL     1      72.660  82.791  66.768  1.00  0.00    -0.493 OA
ATOM     15  C   UNL     1      72.849  84.094  67.318  1.00  0.00     0.278 C 
ENDBRANCH  11  14
BRANCH  13  16
ATOM     16  O   UNL     1      72.309  80.420  65.360  1.00  0.00    -0.504 OA
ATOM     17  H   UNL     1      72.103  80.025  64.495  1.00  0.00     0.293 HD
ENDBRANCH  13  16
ENDBRANCH   7   8
ENDBRANCH   5   7
ENDBRANCH   2   3
ENDBRANCH   1   2
BRANCH   1  18
ATOM     18  C   UNL     1      77.447  87.677  67.003  1.00  0.00     0.001 C 
BRANCH  18  19
ATOM     19  C   UNL     1      78.300  86.711  67.832  1.00  0.00     0.000 C 
BRANCH  19  20
ATOM     20  C   UNL     1      77.574  86.168  69.066  1.00  0.00     0.000 C 
BRANCH  20  21
ATOM     21  C   UNL     1      76.916  87.261  69.916  1.00  0.00     0.000 C 
BRANCH  21  22
ATOM     22  C   UNL     1      75.393  87.122  70.011  1.00  0.00     0.003 C 
BRANCH  22  23
ATOM     23  C   UNL     1      74.670  88.456  70.275  1.00  0.00    -0.017 C 
ATOM     24  C   UNL     1      75.698  89.579  70.438  1.00  0.00     0.007 C 
ATOM     25  C   UNL     1      73.770  88.401  71.511  1.00  0.00     0.007 C 
ENDBRANCH  22  23
ENDBRANCH  21  22
ENDBRANCH  20  21
ENDBRANCH  19  20
ENDBRANCH  18  19
ENDBRANCH   1  18
TORSDOF 12
ENDMDL
MODEL 4
REMARK VINA RESULT:    -5.792     19.013     20.917
REMARK INTER + INTRA:         -10.857
REMARK INTER:                  -9.847
REMARK INTRA:                  -1.010
REMARK UNBOUND:                -1.171
REMARK SMILES COc1cc(CNC(=O)CCCCCCCC(C)C)ccc1O
REMARK SMILES IDX 11 1 10 2 8 3 9 4 7 5 6 7 5 8 4 9 20 10 3 11 21 12 22 13
REMARK SMILES IDX 2 14 1 15 23 16 12 18 13 19 14 20 15 21 16 22 17 23 18 24
REMARK SMILES IDX 19 25
REMARK H PARENT 7 6 23 17
REMARK Flexibility Score: inf
ROOT
ATOM      1  C   UNL     1      94.081  86.311  89.819  1.00  0.00     0.010 C 
ENDROOT
BRANCH   1   2
ATOM      2  C   UNL     1      93.021  86.844  90.779  1.00  0.00     0.100 C 
BRANCH   2   3
ATOM      3  C   UNL     1      91.722  86.059  90.702  1.00  0.00     0.220 C 
ATOM      4  O   UNL     1      90.620  86.556  90.915  1.00  0.00    -0.275 OA
ATOM      5  N   UNL     1      91.949  84.731  90.372  1.00  0.00    -0.352 N 
ATOM      6  H   UNL     1      92.900  84.406  90.224  1.00  0.00     0.163 HD
BRANCH   5   7
ATOM      7  C   UNL     1      90.884  83.763  90.241  1.00  0.00     0.151 C 
BRANCH   7   8
ATOM      8  C   UNL     1      90.953  83.025  88.936  1.00  0.00    -0.025 A 
ATOM      9  C   UNL     1      89.798  82.471  88.397  1.00  0.00     0.056 A 
ATOM     10  C   UNL     1      92.172  82.903  88.280  1.00  0.00     0.009 A 
ATOM     11  C   UNL     1      89.863  81.785  87.184  1.00  0.00     0.160 A 
ATOM     12  C   UNL     1      92.237  82.216  87.067  1.00  0.00     0.050 A 
ATOM     13  C   UNL     1      91.083  81.657  86.519  1.00  0.00     0.157 A 
BRANCH  11  14
ATOM     14  O   UNL     1      88.729  81.243  86.659  1.00  0.00    -0.493 OA
ATOM     15  C   UNL     1      87.972  82.062  85.768  1.00  0.00     0.278 C 
ENDBRANCH  11  14
BRANCH  13  16
ATOM     16  O   UNL     1      91.159  80.990  85.334  1.00  0.00    -0.504 OA
ATOM     17  H   UNL     1      90.571  81.421  84.690  1.00  0.00     0.293 HD
ENDBRANCH  13  16
ENDBRANCH   7   8
ENDBRANCH   5   7
ENDBRANCH   2   3
ENDBRANCH   1   2
BRANCH   1  18
ATOM     18  C   UNL     1      95.429  87.027  89.939  1.00  0.00     0.001 C 
BRANCH  18  19
ATOM     19  C   UNL     1      95.932  87.714  88.664  1.00  0.00     0.000 C 
BRANCH  19  20
ATOM     20  C   UNL     1      96.381  89.160  88.894  1.00  0.00     0.000 C 
BRANCH  20  21
ATOM     21  C   UNL     1      95.235  90.175  88.815  1.00  0.00     0.000 C 
BRANCH  21  22
ATOM     22  C   UNL     1      95.075  91.009  90.091  1.00  0.00     0.003 C 
BRANCH  22  23
ATOM     23  C   UNL     1      93.697  91.687  90.212  1.00  0.00    -0.017 C 
ATOM     24  C   UNL     1      93.799  92.906  91.132  1.00  0.00     0.007 C 
ATOM     25  C   UNL     1      92.619  90.737  90.735  1.00  0.00     0.007 C 
ENDBRANCH  22  23
ENDBRANCH  21  22
ENDBRANCH  20  21
ENDBRANCH  19  20
ENDBRANCH  18  19
ENDBRANCH   1  18
TORSDOF 12
ENDMDL
MODEL 5
REMARK VINA RESULT:    -5.747      7.289      9.875
REMARK INTER + INTRA:         -10.782
REMARK INTER:                  -9.305
REMARK INTRA:                  -1.477
REMARK UNBOUND:                -1.171
REMARK SMILES COc1cc(CNC(=O)CCCCCCCC(C)C)ccc1O
REMARK SMILES IDX 11 1 10 2 8 3 9 4 7 5 6 7 5 8 4 9 20 10 3 11 21 12 22 13
REMARK SMILES IDX 2 14 1 15 23 16 12 18 13 19 14 20 15 21 16 22 17 23 18 24
REMARK SMILES IDX 19 25
REMARK H PARENT 7 6 23 17
REMARK Flexibility Score: inf
ROOT
ATOM      1  C   UNL     1      95.668  93.881  79.380  1.00  0.00     0.010 C 
ENDROOT
BRANCH   1   2
ATOM      2  C   UNL     1      94.713  93.533  80.520  1.00  0.00     0.100 C 
BRANCH   2   3
ATOM      3  C   UNL     1      95.048  94.276  81.803  1.00  0.00     0.220 C 
ATOM      4  O   UNL     1      95.433  93.715  82.825  1.00  0.00    -0.275 OA
ATOM      5  N   UNL     1      94.854  95.642  81.665  1.00  0.00    -0.352 N 
ATOM      6  H   UNL     1      94.521  96.016  80.781  1.00  0.00     0.163 HD
BRANCH   5   7
ATOM      7  C   UNL     1      95.091  96.579  82.740  1.00  0.00     0.151 C 
BRANCH   7   8
ATOM      8  C   UNL     1      95.373  97.961  82.227  1.00  0.00    -0.025 A 
ATOM      9  C   UNL     1      95.875  98.129  80.942  1.00  0.00     0.056 A 
ATOM     10  C   UNL     1      95.130  99.059  83.043  1.00  0.00     0.009 A 
ATOM     11  C   UNL     1      96.137  99.414  80.466  1.00  0.00     0.160 A 
ATOM     12  C   UNL     1      95.393 100.344  82.567  1.00  0.00     0.050 A 
ATOM     13  C   UNL     1      95.896 100.522  81.279  1.00  0.00     0.157 A 
BRANCH  11  14
ATOM     14  O   UNL     1      96.629  99.575  79.206  1.00  0.00    -0.493 OA
ATOM     15  C   UNL     1      97.246  98.439  78.602  1.00  0.00     0.278 C 
ENDBRANCH  11  14
BRANCH  13  16
ATOM     16  O   UNL     1      96.147 101.781  80.825  1.00  0.00    -0.504 OA
ATOM     17  H   UNL     1      97.068 102.015  81.033  1.00  0.00     0.293 HD
ENDBRANCH  13  16
ENDBRANCH   7   8
ENDBRANCH   5   7
ENDBRANCH   2   3
ENDBRANCH   1   2
BRANCH   1  18
ATOM     18  C   UNL     1      94.957  94.365  78.114  1.00  0.00     0.001 C 
BRANCH  18  19
ATOM     19  C   UNL     1      94.750  95.880  78.007  1.00  0.00     0.000 C 
BRANCH  19  20
ATOM     20  C   UNL     1      93.364  96.336  78.473  1.00  0.00     0.000 C 
BRANCH  20  21
ATOM     21  C   UNL     1      92.226  95.844  77.573  1.00  0.00     0.000 C 
BRANCH  21  22
ATOM     22  C   UNL     1      91.228  94.936  78.299  1.00  0.00     0.003 C 
BRANCH  22  23
ATOM     23  C   UNL     1      90.474  93.975  77.359  1.00  0.00    -0.017 C 
ATOM     24  C   UNL     1      89.273  93.371  78.090  1.00  0.00     0.007 C 
ATOM     25  C   UNL     1      91.369  92.854  76.827  1.00  0.00     0.007 C 
ENDBRANCH  22  23
ENDBRANCH  21  22
ENDBRANCH  20  21
ENDBRANCH  19  20
ENDBRANCH  18  19
ENDBRANCH   1  18
TORSDOF 12
ENDMDL
MODEL 6
REMARK VINA RESULT:    -5.719      3.192      8.672
REMARK INTER + INTRA:         -10.735
REMARK INTER:                  -9.897
REMARK INTRA:                  -0.838
REMARK UNBOUND:                -1.171
REMARK SMILES COc1cc(CNC(=O)CCCCCCCC(C)C)ccc1O
REMARK SMILES IDX 11 1 10 2 8 3 9 4 7 5 6 7 5 8 4 9 20 10 3 11 21 12 22 13
REMARK SMILES IDX 2 14 1 15 23 16 12 18 13 19 14 20 15 21 16 22 17 23 18 24
REMARK SMILES IDX 19 25
REMARK H PARENT 7 6 23 17
REMARK Flexibility Score: inf
ROOT
ATOM      1  C   UNL     1      92.564  99.749  73.744  1.00  0.00     0.010 C 
ENDROOT
BRANCH   1   2
ATOM      2  C   UNL     1      94.037 100.097  73.944  1.00  0.00     0.100 C 
BRANCH   2   3
ATOM      3  C   UNL     1      94.885  98.873  74.247  1.00  0.00     0.220 C 
ATOM      4  O   UNL     1      95.973  98.659  73.719  1.00  0.00    -0.275 OA
ATOM      5  N   UNL     1      94.271  98.045  75.176  1.00  0.00    -0.352 N 
ATOM      6  H   UNL     1      93.362  98.300  75.551  1.00  0.00     0.163 HD
BRANCH   5   7
ATOM      7  C   UNL     1      94.861  96.809  75.634  1.00  0.00     0.151 C 
BRANCH   7   8
ATOM      8  C   UNL     1      93.944  96.056  76.553  1.00  0.00    -0.025 A 
ATOM      9  C   UNL     1      94.480  95.219  77.525  1.00  0.00     0.056 A 
ATOM     10  C   UNL     1      92.569  96.203  76.423  1.00  0.00     0.009 A 
ATOM     11  C   UNL     1      93.628  94.519  78.379  1.00  0.00     0.160 A 
ATOM     12  C   UNL     1      91.716  95.502  77.277  1.00  0.00     0.050 A 
ATOM     13  C   UNL     1      92.245  94.660  78.255  1.00  0.00     0.157 A 
BRANCH  11  14
ATOM     14  O   UNL     1      94.157  93.699  79.330  1.00  0.00    -0.493 OA
ATOM     15  C   UNL     1      94.817  94.324  80.429  1.00  0.00     0.278 C 
ENDBRANCH  11  14
BRANCH  13  16
ATOM     16  O   UNL     1      91.403  93.983  79.083  1.00  0.00    -0.504 OA
ATOM     17  H   UNL     1      91.774  93.984  79.982  1.00  0.00     0.293 HD
ENDBRANCH  13  16
ENDBRANCH   7   8
ENDBRANCH   5   7
ENDBRANCH   2   3
ENDBRANCH   1   2
BRANCH   1  18
ATOM     18  C   UNL     1      91.883 100.578  72.651  1.00  0.00     0.001 C 
BRANCH  18  19
ATOM     19  C   UNL     1      91.093  99.782  71.608  1.00  0.00     0.000 C 
BRANCH  19  20
ATOM     20  C   UNL     1      89.617 100.182  71.532  1.00  0.00     0.000 C 
BRANCH  20  21
ATOM     21  C   UNL     1      88.853  99.487  70.400  1.00  0.00     0.000 C 
BRANCH  21  22
ATOM     22  C   UNL     1      89.684  99.317  69.124  1.00  0.00     0.003 C 
BRANCH  22  23
ATOM     23  C   UNL     1      89.577  97.909  68.504  1.00  0.00    -0.017 C 
ATOM     24  C   UNL     1      88.258  97.781  67.738  1.00  0.00     0.007 C 
ATOM     25  C   UNL     1      89.673  96.799  69.551  1.00  0.00     0.007 C 
ENDBRANCH  22  23
ENDBRANCH  21  22
ENDBRANCH  20  21
ENDBRANCH  19  20
ENDBRANCH  18  19
ENDBRANCH   1  18
TORSDOF 12
ENDMDL
MODEL 7
REMARK VINA RESULT:    -5.618      1.137      2.122
REMARK INTER + INTRA:         -10.566
REMARK INTER:                  -9.930
REMARK INTRA:                  -0.636
REMARK UNBOUND:                -1.171
REMARK SMILES COc1cc(CNC(=O)CCCCCCCC(C)C)ccc1O
REMARK SMILES IDX 11 1 10 2 8 3 9 4 7 5 6 7 5 8 4 9 20 10 3 11 21 12 22 13
REMARK SMILES IDX 2 14 1 15 23 16 12 18 13 19 14 20 15 21 16 22 17 23 18 24
REMARK SMILES IDX 19 25
REMARK H PARENT 7 6 23 17
REMARK Flexibility Score: inf
ROOT
ATOM      1  C   UNL     1      94.033  98.478  75.511  1.00  0.00     0.010 C 
ENDROOT
BRANCH   1   2
ATOM      2  C   UNL     1      93.902  98.994  74.080  1.00  0.00     0.100 C 
BRANCH   2   3
ATOM      3  C   UNL     1      92.876 100.109  73.959  1.00  0.00     0.220 C 
ATOM      4  O   UNL     1      92.557 100.836  74.895  1.00  0.00    -0.275 OA
ATOM      5  N   UNL     1      92.354 100.184  72.676  1.00  0.00    -0.352 N 
ATOM      6  H   UNL     1      92.671  99.529  71.966  1.00  0.00     0.163 HD
BRANCH   5   7
ATOM      7  C   UNL     1      91.352 101.152  72.293  1.00  0.00     0.151 C 
BRANCH   7   8
ATOM      8  C   UNL     1      90.470 100.641  71.191  1.00  0.00    -0.025 A 
ATOM      9  C   UNL     1      90.017  99.328  71.225  1.00  0.00     0.056 A 
ATOM     10  C   UNL     1      90.116 101.487  70.146  1.00  0.00     0.009 A 
ATOM     11  C   UNL     1      89.198  98.854  70.201  1.00  0.00     0.160 A 
ATOM     12  C   UNL     1      89.297 101.012  69.121  1.00  0.00     0.050 A 
ATOM     13  C   UNL     1      88.838  99.695  69.148  1.00  0.00     0.157 A 
BRANCH  11  14
ATOM     14  O   UNL     1      88.756  97.565  70.238  1.00  0.00    -0.493 OA
ATOM     15  C   UNL     1      89.719  96.543  69.988  1.00  0.00     0.278 C 
ENDBRANCH  11  14
BRANCH  13  16
ATOM     16  O   UNL     1      88.038  99.244  68.143  1.00  0.00    -0.504 OA
ATOM     17  H   UNL     1      88.158  98.283  68.050  1.00  0.00     0.293 HD
ENDBRANCH  13  16
ENDBRANCH   7   8
ENDBRANCH   5   7
ENDBRANCH   2   3
ENDBRANCH   1   2
BRANCH   1  18
ATOM     18  C   UNL     1      94.538  97.035  75.595  1.00  0.00     0.001 C 
BRANCH  18  19
ATOM     19  C   UNL     1      93.512  95.998  76.067  1.00  0.00     0.000 C 
BRANCH  19  20
ATOM     20  C   UNL     1      93.956  95.236  77.319  1.00  0.00     0.000 C 
BRANCH  20  21
ATOM     21  C   UNL     1      93.041  95.463  78.528  1.00  0.00     0.000 C 
BRANCH  21  22
ATOM     22  C   UNL     1      91.975  94.375  78.694  1.00  0.00     0.003 C 
BRANCH  22  23
ATOM     23  C   UNL     1      91.120  94.155  77.431  1.00  0.00    -0.017 C 
ATOM     24  C   UNL     1      89.678  94.592  77.699  1.00  0.00     0.007 C 
ATOM     25  C   UNL     1      91.137  92.700  76.959  1.00  0.00     0.007 C 
ENDBRANCH  22  23
ENDBRANCH  21  22
ENDBRANCH  20  21
ENDBRANCH  19  20
ENDBRANCH  18  19
ENDBRANCH   1  18
TORSDOF 12
ENDMDL
MODEL 8
REMARK VINA RESULT:    -5.587      5.886      7.497
REMARK INTER + INTRA:         -10.514
REMARK INTER:                  -9.192
REMARK INTRA:                  -1.322
REMARK UNBOUND:                -1.171
REMARK SMILES COc1cc(CNC(=O)CCCCCCCC(C)C)ccc1O
REMARK SMILES IDX 11 1 10 2 8 3 9 4 7 5 6 7 5 8 4 9 20 10 3 11 21 12 22 13
REMARK SMILES IDX 2 14 1 15 23 16 12 18 13 19 14 20 15 21 16 22 17 23 18 24
REMARK SMILES IDX 19 25
REMARK H PARENT 7 6 23 17
REMARK Flexibility Score: inf
ROOT
ATOM      1  C   UNL     1      95.382  94.729  80.781  1.00  0.00     0.010 C 
ENDROOT
BRANCH   1   2
ATOM      2  C   UNL     1      96.716  95.322  81.230  1.00  0.00     0.100 C 
BRANCH   2   3
ATOM      3  C   UNL     1      97.134  96.514  80.384  1.00  0.00     0.220 C 
ATOM      4  O   UNL     1      98.305  96.790  80.142  1.00  0.00    -0.275 OA
ATOM      5  N   UNL     1      96.035  97.234  79.941  1.00  0.00    -0.352 N 
ATOM      6  H   UNL     1      95.100  96.935  80.203  1.00  0.00     0.163 HD
BRANCH   5   7
ATOM      7  C   UNL     1      96.154  98.420  79.124  1.00  0.00     0.151 C 
BRANCH   7   8
ATOM      8  C   UNL     1      96.063  98.104  77.659  1.00  0.00    -0.025 A 
ATOM      9  C   UNL     1      97.001  98.634  76.782  1.00  0.00     0.056 A 
ATOM     10  C   UNL     1      95.040  97.285  77.196  1.00  0.00     0.009 A 
ATOM     11  C   UNL     1      96.916  98.340  75.421  1.00  0.00     0.160 A 
ATOM     12  C   UNL     1      94.955  96.992  75.834  1.00  0.00     0.050 A 
ATOM     13  C   UNL     1      95.893  97.519  74.947  1.00  0.00     0.157 A 
BRANCH  11  14
ATOM     14  O   UNL     1      97.838  98.861  74.564  1.00  0.00    -0.493 OA
ATOM     15  C   UNL     1      99.141  99.111  75.087  1.00  0.00     0.278 C 
ENDBRANCH  11  14
BRANCH  13  16
ATOM     16  O   UNL     1      95.799  97.225  73.620  1.00  0.00    -0.504 OA
ATOM     17  H   UNL     1      96.678  96.968  73.291  1.00  0.00     0.293 HD
ENDBRANCH  13  16
ENDBRANCH   7   8
ENDBRANCH   5   7
ENDBRANCH   2   3
ENDBRANCH   1   2
BRANCH   1  18
ATOM     18  C   UNL     1      95.476  93.937  79.474  1.00  0.00     0.001 C 
BRANCH  18  19
ATOM     19  C   UNL     1      94.381  94.226  78.442  1.00  0.00     0.000 C 
BRANCH  19  20
ATOM     20  C   UNL     1      93.134  94.876  79.048  1.00  0.00     0.000 C 
BRANCH  20  21
ATOM     21  C   UNL     1      91.847  94.088  78.784  1.00  0.00     0.000 C 
BRANCH  21  22
ATOM     22  C   UNL     1      91.573  93.855  77.295  1.00  0.00     0.003 C 
BRANCH  22  23
ATOM     23  C   UNL     1      90.094  94.047  76.905  1.00  0.00    -0.017 C 
ATOM     24  C   UNL     1      89.200  93.784  78.119  1.00  0.00     0.007 C 
ATOM     25  C   UNL     1      89.670  93.141  75.748  1.00  0.00     0.007 C 
ENDBRANCH  22  23
ENDBRANCH  21  22
ENDBRANCH  20  21
ENDBRANCH  19  20
ENDBRANCH  18  19
ENDBRANCH   1  18
TORSDOF 12
ENDMDL
MODEL 9
REMARK VINA RESULT:    -5.518     16.940     19.334
REMARK INTER + INTRA:         -10.398
REMARK INTER:                  -9.743
REMARK INTRA:                  -0.655
REMARK UNBOUND:                -1.171
REMARK SMILES COc1cc(CNC(=O)CCCCCCCC(C)C)ccc1O
REMARK SMILES IDX 11 1 10 2 8 3 9 4 7 5 6 7 5 8 4 9 20 10 3 11 21 12 22 13
REMARK SMILES IDX 2 14 1 15 23 16 12 18 13 19 14 20 15 21 16 22 17 23 18 24
REMARK SMILES IDX 19 25
REMARK H PARENT 7 6 23 17
REMARK Flexibility Score: inf
ROOT
ATOM      1  C   UNL     1      97.415  82.126  84.562  1.00  0.00     0.010 C 
ENDROOT
BRANCH   1   2
ATOM      2  C   UNL     1      98.914  82.420  84.548  1.00  0.00     0.100 C 
BRANCH   2   3
ATOM      3  C   UNL     1      99.603  81.854  83.318  1.00  0.00     0.220 C 
ATOM      4  O   UNL     1     100.036  80.707  83.256  1.00  0.00    -0.275 OA
ATOM      5  N   UNL     1      99.683  82.794  82.301  1.00  0.00    -0.352 N 
ATOM      6  H   UNL     1      99.306  83.726  82.448  1.00  0.00     0.163 HD
BRANCH   5   7
ATOM      7  C   UNL     1     100.300  82.516  81.024  1.00  0.00     0.151 C 
BRANCH   7   8
ATOM      8  C   UNL     1      99.395  82.860  79.877  1.00  0.00    -0.025 A 
ATOM      9  C   UNL     1      99.897  82.860  78.581  1.00  0.00     0.056 A 
ATOM     10  C   UNL     1      98.064  83.174  80.123  1.00  0.00     0.009 A 
ATOM     11  C   UNL     1      99.056  83.180  77.515  1.00  0.00     0.160 A 
ATOM     12  C   UNL     1      97.223  83.494  79.056  1.00  0.00     0.050 A 
ATOM     13  C   UNL     1      97.718  83.497  77.753  1.00  0.00     0.157 A 
BRANCH  11  14
ATOM     14  O   UNL     1      99.552  83.180  76.247  1.00  0.00    -0.493 OA
ATOM     15  C   UNL     1     100.260  84.346  75.828  1.00  0.00     0.278 C 
ENDBRANCH  11  14
BRANCH  13  16
ATOM     16  O   UNL     1      96.887  83.810  76.720  1.00  0.00    -0.504 OA
ATOM     17  H   UNL     1      96.547  82.987  76.328  1.00  0.00     0.293 HD
ENDBRANCH  13  16
ENDBRANCH   7   8
ENDBRANCH   5   7
ENDBRANCH   2   3
ENDBRANCH   1   2
BRANCH   1  18
ATOM     18  C   UNL     1      96.708  82.617  85.828  1.00  0.00     0.001 C 
BRANCH  18  19
ATOM     19  C   UNL     1      95.792  81.599  86.515  1.00  0.00     0.000 C 
BRANCH  19  20
ATOM     20  C   UNL     1      94.543  82.231  87.135  1.00  0.00     0.000 C 
BRANCH  20  21
ATOM     21  C   UNL     1      93.233  81.702  86.541  1.00  0.00     0.000 C 
BRANCH  21  22
ATOM     22  C   UNL     1      92.011  82.548  86.916  1.00  0.00     0.003 C 
BRANCH  22  23
ATOM     23  C   UNL     1      91.656  82.483  88.415  1.00  0.00    -0.017 C 
ATOM     24  C   UNL     1      91.134  81.087  88.762  1.00  0.00     0.007 C 
ATOM     25  C   UNL     1      90.620  83.533  88.817  1.00  0.00     0.007 C 
ENDBRANCH  22  23
ENDBRANCH  21  22
ENDBRANCH  20  21
ENDBRANCH  19  20
ENDBRANCH  18  19
ENDBRANCH   1  18
TORSDOF 12
ENDMDL
MODEL 10
REMARK VINA RESULT:    -5.321     20.094     22.714
REMARK INTER + INTRA:         -10.069
REMARK INTER:                  -8.898
REMARK INTRA:                  -1.171
REMARK UNBOUND:                -1.171
REMARK SMILES COc1cc(CNC(=O)CCCCCCCC(C)C)ccc1O
REMARK SMILES IDX 11 1 10 2 8 3 9 4 7 5 6 7 5 8 4 9 20 10 3 11 21 12 22 13
REMARK SMILES IDX 2 14 1 15 23 16 12 18 13 19 14 20 15 21 16 22 17 23 18 24
REMARK SMILES IDX 19 25
REMARK H PARENT 7 6 23 17
REMARK Flexibility Score: inf
ROOT
ATOM      1  C   UNL     1      76.677  86.657  66.051  1.00  0.00     0.010 C 
ENDROOT
BRANCH   1   2
ATOM      2  C   UNL     1      76.684  87.239  64.639  1.00  0.00     0.100 C 
BRANCH   2   3
ATOM      3  C   UNL     1      75.407  86.925  63.878  1.00  0.00     0.220 C 
ATOM      4  O   UNL     1      74.622  87.788  63.494  1.00  0.00    -0.275 OA
ATOM      5  N   UNL     1      75.249  85.560  63.688  1.00  0.00    -0.352 N 
ATOM      6  H   UNL     1      75.948  84.919  64.053  1.00  0.00     0.163 HD
BRANCH   5   7
ATOM      7  C   UNL     1      74.114  84.991  63.000  1.00  0.00     0.151 C 
BRANCH   7   8
ATOM      8  C   UNL     1      73.663  83.705  63.628  1.00  0.00    -0.025 A 
ATOM      9  C   UNL     1      74.549  82.975  64.411  1.00  0.00     0.056 A 
ATOM     10  C   UNL     1      72.365  83.256  63.419  1.00  0.00     0.009 A 
ATOM     11  C   UNL     1      74.131  81.779  64.995  1.00  0.00     0.160 A 
ATOM     12  C   UNL     1      71.946  82.059  64.003  1.00  0.00     0.050 A 
ATOM     13  C   UNL     1      72.829  81.321  64.790  1.00  0.00     0.157 A 
BRANCH  11  14
ATOM     14  O   UNL     1      75.002  81.066  65.762  1.00  0.00    -0.493 OA
ATOM     15  C   UNL     1      75.669  81.770  66.808  1.00  0.00     0.278 C 
ENDBRANCH  11  14
BRANCH  13  16
ATOM     16  O   UNL     1      72.408  80.155  65.355  1.00  0.00    -0.504 OA
ATOM     17  H   UNL     1      71.455  80.218  65.539  1.00  0.00     0.293 HD
ENDBRANCH  13  16
ENDBRANCH   7   8
ENDBRANCH   5   7
ENDBRANCH   2   3
ENDBRANCH   1   2
BRANCH   1  18
ATOM     18  C   UNL     1      77.536  87.449  67.042  1.00  0.00     0.001 C 
BRANCH  18  19
ATOM     19  C   UNL     1      78.321  86.612  68.057  1.00  0.00     0.000 C 
BRANCH  19  20
ATOM     20  C   UNL     1      77.806  86.762  69.492  1.00  0.00     0.000 C 
BRANCH  20  21
ATOM     21  C   UNL     1      76.628  87.735  69.618  1.00  0.00     0.000 C 
BRANCH  21  22
ATOM     22  C   UNL     1      75.396  87.113  70.283  1.00  0.00     0.003 C 
BRANCH  22  23
ATOM     23  C   UNL     1      75.163  85.642  69.890  1.00  0.00    -0.017 C 
ATOM     24  C   UNL     1      73.690  85.429  69.532  1.00  0.00     0.007 C 
ATOM     25  C   UNL     1      75.569  84.668  70.997  1.00  0.00     0.007 C 
ENDBRANCH  22  23
ENDBRANCH  21  22
ENDBRANCH  20  21
ENDBRANCH  19  20
ENDBRANCH  18  19
ENDBRANCH   1  18
TORSDOF 12
ENDMDL
