MODEL 1
REMARK VINA RESULT:    -6.672      0.000      0.000
REMARK INTER + INTRA:         -11.660
REMARK INTER:                 -11.157
REMARK INTRA:                  -0.503
REMARK UNBOUND:                -0.503
REMARK SMILES COc1cc(CNC(=O)CCCCCCCC(C)C)ccc1O
REMARK SMILES IDX 11 1 10 2 8 3 9 4 7 5 6 7 5 8 4 9 20 10 3 11 21 12 22 13
REMARK SMILES IDX 2 14 1 15 23 16 12 18 13 19 14 20 15 21 16 22 17 23 18 24
REMARK SMILES IDX 19 25
REMARK H PARENT 7 6 23 17
REMARK Flexibility Score: inf
ROOT
ATOM      1  C   UNL     1      96.098  81.420  83.442  1.00  0.00     0.010 C 
ENDROOT
BRANCH   1   2
ATOM      2  C   UNL     1      95.213  82.661  83.353  1.00  0.00     0.100 C 
BRANCH   2   3
ATOM      3  C   UNL     1      94.309  82.816  84.565  1.00  0.00     0.220 C 
ATOM      4  O   UNL     1      94.698  83.252  85.644  1.00  0.00    -0.275 OA
ATOM      5  N   UNL     1      93.015  82.398  84.292  1.00  0.00    -0.352 N 
ATOM      6  H   UNL     1      92.787  82.039  83.368  1.00  0.00     0.163 HD
BRANCH   5   7
ATOM      7  C   UNL     1      91.957  82.431  85.276  1.00  0.00     0.151 C 
BRANCH   7   8
ATOM      8  C   UNL     1      90.714  81.748  84.786  1.00  0.00    -0.025 A 
ATOM      9  C   UNL     1      89.510  82.443  84.765  1.00  0.00     0.056 A 
ATOM     10  C   UNL     1      90.778  80.428  84.359  1.00  0.00     0.009 A 
ATOM     11  C   UNL     1      88.355  81.808  84.310  1.00  0.00     0.160 A 
ATOM     12  C   UNL     1      89.621  79.792  83.905  1.00  0.00     0.050 A 
ATOM     13  C   UNL     1      88.410  80.482  83.880  1.00  0.00     0.157 A 
BRANCH  11  14
ATOM     14  O   UNL     1      87.177  82.493  84.291  1.00  0.00    -0.493 OA
ATOM     15  C   UNL     1      87.055  83.597  85.187  1.00  0.00     0.278 C 
ENDBRANCH  11  14
BRANCH  13  16
ATOM     16  O   UNL     1      87.288  79.852  83.433  1.00  0.00    -0.504 OA
ATOM     17  H   UNL     1      86.958  79.261  84.132  1.00  0.00     0.293 HD
ENDBRANCH  13  16
ENDBRANCH   7   8
ENDBRANCH   5   7
ENDBRANCH   2   3
ENDBRANCH   1   2
BRANCH   1  18
ATOM     18  C   UNL     1      96.947  81.184  82.190  1.00  0.00     0.001 C 
BRANCH  18  19
ATOM     19  C   UNL     1      97.125  82.397  81.270  1.00  0.00     0.000 C 
BRANCH  19  20
ATOM     20  C   UNL     1      97.268  82.020  79.793  1.00  0.00     0.000 C 
BRANCH  20  21
ATOM     21  C   UNL     1      97.682  83.196  78.901  1.00  0.00     0.000 C 
BRANCH  21  22
ATOM     22  C   UNL     1      97.093  83.122  77.488  1.00  0.00     0.003 C 
BRANCH  22  23
ATOM     23  C   UNL     1      97.697  84.154  76.516  1.00  0.00    -0.017 C 
ATOM     24  C   UNL     1      96.576  84.871  75.760  1.00  0.00     0.007 C 
ATOM     25  C   UNL     1      98.667  83.521  75.518  1.00  0.00     0.007 C 
ENDBRANCH  22  23
ENDBRANCH  21  22
ENDBRANCH  20  21
ENDBRANCH  19  20
ENDBRANCH  18  19
ENDBRANCH   1  18
TORSDOF 12
ENDMDL
MODEL 2
REMARK VINA RESULT:    -6.049     16.206     19.951
REMARK INTER + INTRA:         -10.619
REMARK INTER:                  -9.618
REMARK INTRA:                  -1.001
REMARK UNBOUND:                -0.503
REMARK SMILES COc1cc(CNC(=O)CCCCCCCC(C)C)ccc1O
REMARK SMILES IDX 11 1 10 2 8 3 9 4 7 5 6 7 5 8 4 9 20 10 3 11 21 12 22 13
REMARK SMILES IDX 2 14 1 15 23 16 12 18 13 19 14 20 15 21 16 22 17 23 18 24
REMARK SMILES IDX 19 25
REMARK H PARENT 7 6 23 17
REMARK Flexibility Score: inf
ROOT
ATOM      1  C   UNL     1      94.550  96.977  73.651  1.00  0.00     0.010 C 
ENDROOT
BRANCH   1   2
ATOM      2  C   UNL     1      95.587  97.010  72.529  1.00  0.00     0.100 C 
BRANCH   2   3
ATOM      3  C   UNL     1      95.180  97.933  71.393  1.00  0.00     0.220 C 
ATOM      4  O   UNL     1      95.760  97.965  70.311  1.00  0.00    -0.275 OA
ATOM      5  N   UNL     1      94.094  98.722  71.740  1.00  0.00    -0.352 N 
ATOM      6  H   UNL     1      93.685  98.633  72.667  1.00  0.00     0.163 HD
BRANCH   5   7
ATOM      7  C   UNL     1      93.511  99.693  70.843  1.00  0.00     0.151 C 
BRANCH   7   8
ATOM      8  C   UNL     1      92.368 100.429  71.477  1.00  0.00    -0.025 A 
ATOM      9  C   UNL     1      91.087 100.289  70.957  1.00  0.00     0.056 A 
ATOM     10  C   UNL     1      92.601 101.243  72.579  1.00  0.00     0.009 A 
ATOM     11  C   UNL     1      90.024 100.973  71.547  1.00  0.00     0.160 A 
ATOM     12  C   UNL     1      91.538 101.928  73.168  1.00  0.00     0.050 A 
ATOM     13  C   UNL     1      90.249 101.793  72.653  1.00  0.00     0.157 A 
BRANCH  11  14
ATOM     14  O   UNL     1      88.769 100.834  71.034  1.00  0.00    -0.493 OA
ATOM     15  C   UNL     1      88.480 101.541  69.829  1.00  0.00     0.278 C 
ENDBRANCH  11  14
BRANCH  13  16
ATOM     16  O   UNL     1      89.220 102.466  73.238  1.00  0.00    -0.504 OA
ATOM     17  H   UNL     1      89.043 102.076  74.111  1.00  0.00     0.293 HD
ENDBRANCH  13  16
ENDBRANCH   7   8
ENDBRANCH   5   7
ENDBRANCH   2   3
ENDBRANCH   1   2
BRANCH   1  18
ATOM     18  C   UNL     1      95.117  97.369  75.018  1.00  0.00     0.001 C 
BRANCH  18  19
ATOM     19  C   UNL     1      94.126  98.025  75.985  1.00  0.00     0.000 C 
BRANCH  19  20
ATOM     20  C   UNL     1      93.804  97.155  77.203  1.00  0.00     0.000 C 
BRANCH  20  21
ATOM     21  C   UNL     1      92.409  96.521  77.149  1.00  0.00     0.000 C 
BRANCH  21  22
ATOM     22  C   UNL     1      92.380  95.076  77.657  1.00  0.00     0.003 C 
BRANCH  22  23
ATOM     23  C   UNL     1      91.486  94.146  76.813  1.00  0.00    -0.017 C 
ATOM     24  C   UNL     1      91.219  94.785  75.448  1.00  0.00     0.007 C 
ATOM     25  C   UNL     1      90.158  93.828  77.500  1.00  0.00     0.007 C 
ENDBRANCH  22  23
ENDBRANCH  21  22
ENDBRANCH  20  21
ENDBRANCH  19  20
ENDBRANCH  18  19
ENDBRANCH   1  18
TORSDOF 12
ENDMDL
MODEL 3
REMARK VINA RESULT:    -6.045     15.382     18.870
REMARK INTER + INTRA:         -10.613
REMARK INTER:                  -9.318
REMARK INTRA:                  -1.294
REMARK UNBOUND:                -0.503
REMARK SMILES COc1cc(CNC(=O)CCCCCCCC(C)C)ccc1O
REMARK SMILES IDX 11 1 10 2 8 3 9 4 7 5 6 7 5 8 4 9 20 10 3 11 21 12 22 13
REMARK SMILES IDX 2 14 1 15 23 16 12 18 13 19 14 20 15 21 16 22 17 23 18 24
REMARK SMILES IDX 19 25
REMARK H PARENT 7 6 23 17
REMARK Flexibility Score: inf
ROOT
ATOM      1  C   UNL     1      92.613  99.898  72.011  1.00  0.00     0.010 C 
ENDROOT
BRANCH   1   2
ATOM      2  C   UNL     1      93.905  99.669  72.793  1.00  0.00     0.100 C 
BRANCH   2   3
ATOM      3  C   UNL     1      94.353  98.218  72.758  1.00  0.00     0.220 C 
ATOM      4  O   UNL     1      94.913  97.709  71.790  1.00  0.00    -0.275 OA
ATOM      5  N   UNL     1      94.044  97.560  73.939  1.00  0.00    -0.352 N 
ATOM      6  H   UNL     1      93.568  98.062  74.684  1.00  0.00     0.163 HD
BRANCH   5   7
ATOM      7  C   UNL     1      94.355  96.167  74.164  1.00  0.00     0.151 C 
BRANCH   7   8
ATOM      8  C   UNL     1      93.456  95.551  75.196  1.00  0.00    -0.025 A 
ATOM      9  C   UNL     1      92.172  95.154  74.841  1.00  0.00     0.056 A 
ATOM     10  C   UNL     1      93.916  95.385  76.497  1.00  0.00     0.009 A 
ATOM     11  C   UNL     1      91.337  94.582  75.801  1.00  0.00     0.160 A 
ATOM     12  C   UNL     1      93.080  94.813  77.457  1.00  0.00     0.050 A 
ATOM     13  C   UNL     1      91.791  94.412  77.109  1.00  0.00     0.157 A 
BRANCH  11  14
ATOM     14  O   UNL     1      90.079  94.194  75.450  1.00  0.00    -0.493 OA
ATOM     15  C   UNL     1      89.908  93.662  74.137  1.00  0.00     0.278 C 
ENDBRANCH  11  14
BRANCH  13  16
ATOM     16  O   UNL     1      90.985  93.854  78.055  1.00  0.00    -0.504 OA
ATOM     17  H   UNL     1      90.669  94.552  78.653  1.00  0.00     0.293 HD
ENDBRANCH  13  16
ENDBRANCH   7   8
ENDBRANCH   5   7
ENDBRANCH   2   3
ENDBRANCH   1   2
BRANCH   1  18
ATOM     18  C   UNL     1      92.845 100.265  70.543  1.00  0.00     0.001 C 
BRANCH  18  19
ATOM     19  C   UNL     1      91.637 100.092  69.616  1.00  0.00     0.000 C 
BRANCH  19  20
ATOM     20  C   UNL     1      90.341  99.768  70.365  1.00  0.00     0.000 C 
BRANCH  20  21
ATOM     21  C   UNL     1      89.446 100.991  70.592  1.00  0.00     0.000 C 
BRANCH  21  22
ATOM     22  C   UNL     1      89.035 101.179  72.056  1.00  0.00     0.003 C 
BRANCH  22  23
ATOM     23  C   UNL     1      89.568 102.483  72.681  1.00  0.00    -0.017 C 
ATOM     24  C   UNL     1      90.621 103.105  71.760  1.00  0.00     0.007 C 
ATOM     25  C   UNL     1      90.166 102.266  74.072  1.00  0.00     0.007 C 
ENDBRANCH  22  23
ENDBRANCH  21  22
ENDBRANCH  20  21
ENDBRANCH  19  20
ENDBRANCH  18  19
ENDBRANCH   1  18
TORSDOF 12
ENDMDL
MODEL 4
REMARK VINA RESULT:    -5.942      1.686      2.580
REMARK INTER + INTRA:         -10.440
REMARK INTER:                  -9.429
REMARK INTRA:                  -1.011
REMARK UNBOUND:                -0.503
REMARK SMILES COc1cc(CNC(=O)CCCCCCCC(C)C)ccc1O
REMARK SMILES IDX 11 1 10 2 8 3 9 4 7 5 6 7 5 8 4 9 20 10 3 11 21 12 22 13
REMARK SMILES IDX 2 14 1 15 23 16 12 18 13 19 14 20 15 21 16 22 17 23 18 24
REMARK SMILES IDX 19 25
REMARK H PARENT 7 6 23 17
REMARK Flexibility Score: inf
ROOT
ATOM      1  C   UNL     1      95.524  80.498  85.255  1.00  0.00     0.010 C 
ENDROOT
BRANCH   1   2
ATOM      2  C   UNL     1      94.763  80.663  86.569  1.00  0.00     0.100 C 
BRANCH   2   3
ATOM      3  C   UNL     1      93.569  81.594  86.434  1.00  0.00     0.220 C 
ATOM      4  O   UNL     1      93.045  82.161  87.388  1.00  0.00    -0.275 OA
ATOM      5  N   UNL     1      93.157  81.705  85.114  1.00  0.00    -0.352 N 
ATOM      6  H   UNL     1      93.647  81.187  84.390  1.00  0.00     0.163 HD
BRANCH   5   7
ATOM      7  C   UNL     1      92.036  82.522  84.710  1.00  0.00     0.151 C 
BRANCH   7   8
ATOM      8  C   UNL     1      90.808  81.699  84.446  1.00  0.00    -0.025 A 
ATOM      9  C   UNL     1      89.555  82.297  84.503  1.00  0.00     0.056 A 
ATOM     10  C   UNL     1      90.937  80.348  84.149  1.00  0.00     0.009 A 
ATOM     11  C   UNL     1      88.414  81.532  84.258  1.00  0.00     0.160 A 
ATOM     12  C   UNL     1      89.796  79.583  83.904  1.00  0.00     0.050 A 
ATOM     13  C   UNL     1      88.534  80.175  83.959  1.00  0.00     0.157 A 
BRANCH  11  14
ATOM     14  O   UNL     1      87.187  82.122  84.315  1.00  0.00    -0.493 OA
ATOM     15  C   UNL     1      87.151  83.548  84.271  1.00  0.00     0.278 C 
ENDBRANCH  11  14
BRANCH  13  16
ATOM     16  O   UNL     1      87.428  79.418  83.717  1.00  0.00    -0.504 OA
ATOM     17  H   UNL     1      87.324  79.308  82.756  1.00  0.00     0.293 HD
ENDBRANCH  13  16
ENDBRANCH   7   8
ENDBRANCH   5   7
ENDBRANCH   2   3
ENDBRANCH   1   2
BRANCH   1  18
ATOM     18  C   UNL     1      96.728  81.435  85.126  1.00  0.00     0.001 C 
BRANCH  18  19
ATOM     19  C   UNL     1      96.621  82.508  84.037  1.00  0.00     0.000 C 
BRANCH  19  20
ATOM     20  C   UNL     1      96.295  81.937  82.654  1.00  0.00     0.000 C 
BRANCH  20  21
ATOM     21  C   UNL     1      97.502  81.297  81.959  1.00  0.00     0.000 C 
BRANCH  21  22
ATOM     22  C   UNL     1      97.305  81.114  80.450  1.00  0.00     0.003 C 
BRANCH  22  23
ATOM     23  C   UNL     1      98.223  82.011  79.598  1.00  0.00    -0.017 C 
ATOM     24  C   UNL     1      99.565  82.201  80.308  1.00  0.00     0.007 C 
ATOM     25  C   UNL     1      97.600  83.376  79.303  1.00  0.00     0.007 C 
ENDBRANCH  22  23
ENDBRANCH  21  22
ENDBRANCH  20  21
ENDBRANCH  19  20
ENDBRANCH  18  19
ENDBRANCH   1  18
TORSDOF 12
ENDMDL
MODEL 5
REMARK VINA RESULT:    -5.912     14.687     17.915
REMARK INTER + INTRA:         -10.391
REMARK INTER:                  -9.643
REMARK INTRA:                  -0.748
REMARK UNBOUND:                -0.503
REMARK SMILES COc1cc(CNC(=O)CCCCCCCC(C)C)ccc1O
REMARK SMILES IDX 11 1 10 2 8 3 9 4 7 5 6 7 5 8 4 9 20 10 3 11 21 12 22 13
REMARK SMILES IDX 2 14 1 15 23 16 12 18 13 19 14 20 15 21 16 22 17 23 18 24
REMARK SMILES IDX 19 25
REMARK H PARENT 7 6 23 17
REMARK Flexibility Score: inf
ROOT
ATOM      1  C   UNL     1      95.240  97.044  72.461  1.00  0.00     0.010 C 
ENDROOT
BRANCH   1   2
ATOM      2  C   UNL     1      96.305  97.444  73.480  1.00  0.00     0.100 C 
BRANCH   2   3
ATOM      3  C   UNL     1      95.703  98.018  74.752  1.00  0.00     0.220 C 
ATOM      4  O   UNL     1      96.160  99.000  75.329  1.00  0.00    -0.275 OA
ATOM      5  N   UNL     1      94.597  97.291  75.165  1.00  0.00    -0.352 N 
ATOM      6  H   UNL     1      94.297  96.483  74.627  1.00  0.00     0.163 HD
BRANCH   5   7
ATOM      7  C   UNL     1      93.842  97.621  76.353  1.00  0.00     0.151 C 
BRANCH   7   8
ATOM      8  C   UNL     1      92.975  96.481  76.801  1.00  0.00    -0.025 A 
ATOM      9  C   UNL     1      91.817  96.179  76.094  1.00  0.00     0.056 A 
ATOM     10  C   UNL     1      93.339  95.739  77.918  1.00  0.00     0.009 A 
ATOM     11  C   UNL     1      91.011  95.120  76.511  1.00  0.00     0.160 A 
ATOM     12  C   UNL     1      92.532  94.680  78.336  1.00  0.00     0.050 A 
ATOM     13  C   UNL     1      91.368  94.370  77.633  1.00  0.00     0.157 A 
BRANCH  11  14
ATOM     14  O   UNL     1      89.876  94.827  75.816  1.00  0.00    -0.493 OA
ATOM     15  C   UNL     1      90.023  94.026  74.644  1.00  0.00     0.278 C 
ENDBRANCH  11  14
BRANCH  13  16
ATOM     16  O   UNL     1      90.589  93.333  78.049  1.00  0.00    -0.504 OA
ATOM     17  H   UNL     1      90.181  92.912  77.273  1.00  0.00     0.293 HD
ENDBRANCH  13  16
ENDBRANCH   7   8
ENDBRANCH   5   7
ENDBRANCH   2   3
ENDBRANCH   1   2
BRANCH   1  18
ATOM     18  C   UNL     1      95.149  97.998  71.267  1.00  0.00     0.001 C 
BRANCH  18  19
ATOM     19  C   UNL     1      94.697  99.426  71.590  1.00  0.00     0.000 C 
BRANCH  19  20
ATOM     20  C   UNL     1      93.177  99.567  71.708  1.00  0.00     0.000 C 
BRANCH  20  21
ATOM     21  C   UNL     1      92.530 100.237  70.491  1.00  0.00     0.000 C 
BRANCH  21  22
ATOM     22  C   UNL     1      91.252 101.010  70.832  1.00  0.00     0.003 C 
BRANCH  22  23
ATOM     23  C   UNL     1      90.024 100.558  70.017  1.00  0.00    -0.017 C 
ATOM     24  C   UNL     1      90.114 101.115  68.595  1.00  0.00     0.007 C 
ATOM     25  C   UNL     1      88.704 100.992  70.657  1.00  0.00     0.007 C 
ENDBRANCH  22  23
ENDBRANCH  21  22
ENDBRANCH  20  21
ENDBRANCH  19  20
ENDBRANCH  18  19
ENDBRANCH   1  18
TORSDOF 12
ENDMDL
MODEL 6
REMARK VINA RESULT:    -5.764     13.388     15.262
REMARK INTER + INTRA:         -10.142
REMARK INTER:                  -9.098
REMARK INTRA:                  -1.044
REMARK UNBOUND:                -0.503
REMARK SMILES COc1cc(CNC(=O)CCCCCCCC(C)C)ccc1O
REMARK SMILES IDX 11 1 10 2 8 3 9 4 7 5 6 7 5 8 4 9 20 10 3 11 21 12 22 13
REMARK SMILES IDX 2 14 1 15 23 16 12 18 13 19 14 20 15 21 16 22 17 23 18 24
REMARK SMILES IDX 19 25
REMARK H PARENT 7 6 23 17
REMARK Flexibility Score: inf
ROOT
ATOM      1  C   UNL     1      96.426  97.305  79.191  1.00  0.00     0.010 C 
ENDROOT
BRANCH   1   2
ATOM      2  C   UNL     1      95.709  95.984  79.464  1.00  0.00     0.100 C 
BRANCH   2   3
ATOM      3  C   UNL     1      95.240  95.306  78.188  1.00  0.00     0.220 C 
ATOM      4  O   UNL     1      95.616  94.190  77.840  1.00  0.00    -0.275 OA
ATOM      5  N   UNL     1      94.354  96.106  77.481  1.00  0.00    -0.352 N 
ATOM      6  H   UNL     1      94.108  97.024  77.843  1.00  0.00     0.163 HD
BRANCH   5   7
ATOM      7  C   UNL     1      93.763  95.702  76.226  1.00  0.00     0.151 C 
BRANCH   7   8
ATOM      8  C   UNL     1      92.531  94.870  76.428  1.00  0.00    -0.025 A 
ATOM      9  C   UNL     1      91.894  94.305  75.329  1.00  0.00     0.056 A 
ATOM     10  C   UNL     1      92.038  94.672  77.712  1.00  0.00     0.009 A 
ATOM     11  C   UNL     1      90.749  93.532  75.517  1.00  0.00     0.160 A 
ATOM     12  C   UNL     1      90.892  93.899  77.900  1.00  0.00     0.050 A 
ATOM     13  C   UNL     1      90.247  93.329  76.803  1.00  0.00     0.157 A 
BRANCH  11  14
ATOM     14  O   UNL     1      90.127  92.981  74.437  1.00  0.00    -0.493 OA
ATOM     15  C   UNL     1      90.699  91.789  73.899  1.00  0.00     0.278 C 
ENDBRANCH  11  14
BRANCH  13  16
ATOM     16  O   UNL     1      89.129  92.575  76.999  1.00  0.00    -0.504 OA
ATOM     17  H   UNL     1      88.948  92.063  76.192  1.00  0.00     0.293 HD
ENDBRANCH  13  16
ENDBRANCH   7   8
ENDBRANCH   5   7
ENDBRANCH   2   3
ENDBRANCH   1   2
BRANCH   1  18
ATOM     18  C   UNL     1      95.659  98.531  79.692  1.00  0.00     0.001 C 
BRANCH  18  19
ATOM     19  C   UNL     1      95.544  98.667  81.214  1.00  0.00     0.000 C 
BRANCH  19  20
ATOM     20  C   UNL     1      96.492  99.716  81.801  1.00  0.00     0.000 C 
BRANCH  20  21
ATOM     21  C   UNL     1      97.970  99.319  81.713  1.00  0.00     0.000 C 
BRANCH  21  22
ATOM     22  C   UNL     1      98.340  98.152  82.633  1.00  0.00     0.003 C 
BRANCH  22  23
ATOM     23  C   UNL     1      98.572  96.826  81.881  1.00  0.00    -0.017 C 
ATOM     24  C   UNL     1      98.112  95.652  82.749  1.00  0.00     0.007 C 
ATOM     25  C   UNL     1     100.034  96.627  81.481  1.00  0.00     0.007 C 
ENDBRANCH  22  23
ENDBRANCH  21  22
ENDBRANCH  20  21
ENDBRANCH  19  20
ENDBRANCH  18  19
ENDBRANCH   1  18
TORSDOF 12
ENDMDL
MODEL 7
REMARK VINA RESULT:    -5.702     22.339     24.978
REMARK INTER + INTRA:         -10.039
REMARK INTER:                  -8.833
REMARK INTRA:                  -1.206
REMARK UNBOUND:                -0.503
REMARK SMILES COc1cc(CNC(=O)CCCCCCCC(C)C)ccc1O
REMARK SMILES IDX 11 1 10 2 8 3 9 4 7 5 6 7 5 8 4 9 20 10 3 11 21 12 22 13
REMARK SMILES IDX 2 14 1 15 23 16 12 18 13 19 14 20 15 21 16 22 17 23 18 24
REMARK SMILES IDX 19 25
REMARK H PARENT 7 6 23 17
REMARK Flexibility Score: inf
ROOT
ATOM      1  C   UNL     1      76.690  88.834  66.771  1.00  0.00     0.010 C 
ENDROOT
BRANCH   1   2
ATOM      2  C   UNL     1      77.554  88.267  67.896  1.00  0.00     0.100 C 
BRANCH   2   3
ATOM      3  C   UNL     1      77.223  86.816  68.204  1.00  0.00     0.220 C 
ATOM      4  O   UNL     1      76.761  86.445  69.280  1.00  0.00    -0.275 OA
ATOM      5  N   UNL     1      77.514  85.987  67.131  1.00  0.00    -0.352 N 
ATOM      6  H   UNL     1      77.906  86.385  66.282  1.00  0.00     0.163 HD
BRANCH   5   7
ATOM      7  C   UNL     1      77.301  84.559  67.164  1.00  0.00     0.151 C 
BRANCH   7   8
ATOM      8  C   UNL     1      76.371  84.105  66.077  1.00  0.00    -0.025 A 
ATOM      9  C   UNL     1      74.999  84.104  66.301  1.00  0.00     0.056 A 
ATOM     10  C   UNL     1      76.891  83.690  64.857  1.00  0.00     0.009 A 
ATOM     11  C   UNL     1      74.135  83.682  65.290  1.00  0.00     0.160 A 
ATOM     12  C   UNL     1      76.026  83.267  63.846  1.00  0.00     0.050 A 
ATOM     13  C   UNL     1      74.649  83.263  64.063  1.00  0.00     0.157 A 
BRANCH  11  14
ATOM     14  O   UNL     1      72.791  83.681  65.514  1.00  0.00    -0.493 OA
ATOM     15  C   UNL     1      72.120  84.937  65.426  1.00  0.00     0.278 C 
ENDBRANCH  11  14
BRANCH  13  16
ATOM     16  O   UNL     1      73.815  82.849  63.068  1.00  0.00    -0.504 OA
ATOM     17  H   UNL     1      73.416  82.000  63.323  1.00  0.00     0.293 HD
ENDBRANCH  13  16
ENDBRANCH   7   8
ENDBRANCH   5   7
ENDBRANCH   2   3
ENDBRANCH   1   2
BRANCH   1  18
ATOM     18  C   UNL     1      75.437  89.558  67.271  1.00  0.00     0.001 C 
BRANCH  18  19
ATOM     19  C   UNL     1      75.396  89.856  68.774  1.00  0.00     0.000 C 
BRANCH  19  20
ATOM     20  C   UNL     1      74.235  89.167  69.496  1.00  0.00     0.000 C 
BRANCH  20  21
ATOM     21  C   UNL     1      73.809  89.880  70.784  1.00  0.00     0.000 C 
BRANCH  21  22
ATOM     22  C   UNL     1      74.454  91.259  70.956  1.00  0.00     0.003 C 
BRANCH  22  23
ATOM     23  C   UNL     1      73.468  92.427  70.759  1.00  0.00    -0.017 C 
ATOM     24  C   UNL     1      72.036  91.941  70.995  1.00  0.00     0.007 C 
ATOM     25  C   UNL     1      73.574  93.056  69.369  1.00  0.00     0.007 C 
ENDBRANCH  22  23
ENDBRANCH  21  22
ENDBRANCH  20  21
ENDBRANCH  19  20
ENDBRANCH  18  19
ENDBRANCH   1  18
TORSDOF 12
ENDMDL
MODEL 8
REMARK VINA RESULT:    -5.700      3.399      6.549
REMARK INTER + INTRA:         -10.036
REMARK INTER:                  -8.203
REMARK INTRA:                  -1.833
REMARK UNBOUND:                -0.503
REMARK SMILES COc1cc(CNC(=O)CCCCCCCC(C)C)ccc1O
REMARK SMILES IDX 11 1 10 2 8 3 9 4 7 5 6 7 5 8 4 9 20 10 3 11 21 12 22 13
REMARK SMILES IDX 2 14 1 15 23 16 12 18 13 19 14 20 15 21 16 22 17 23 18 24
REMARK SMILES IDX 19 25
REMARK H PARENT 7 6 23 17
REMARK Flexibility Score: inf
ROOT
ATOM      1  C   UNL     1      92.019  78.022  84.680  1.00  0.00     0.010 C 
ENDROOT
BRANCH   1   2
ATOM      2  C   UNL     1      90.758  78.543  83.993  1.00  0.00     0.100 C 
BRANCH   2   3
ATOM      3  C   UNL     1      90.616  80.051  84.109  1.00  0.00     0.220 C 
ATOM      4  O   UNL     1      89.539  80.635  84.030  1.00  0.00    -0.275 OA
ATOM      5  N   UNL     1      91.845  80.665  84.303  1.00  0.00    -0.352 N 
ATOM      6  H   UNL     1      92.688  80.099  84.343  1.00  0.00     0.163 HD
BRANCH   5   7
ATOM      7  C   UNL     1      91.993  82.096  84.437  1.00  0.00     0.151 C 
BRANCH   7   8
ATOM      8  C   UNL     1      93.266  82.465  85.142  1.00  0.00    -0.025 A 
ATOM      9  C   UNL     1      94.239  83.194  84.469  1.00  0.00     0.056 A 
ATOM     10  C   UNL     1      93.458  82.073  86.462  1.00  0.00     0.009 A 
ATOM     11  C   UNL     1      95.421  83.536  85.125  1.00  0.00     0.160 A 
ATOM     12  C   UNL     1      94.641  82.415  87.117  1.00  0.00     0.050 A 
ATOM     13  C   UNL     1      95.623  83.147  86.450  1.00  0.00     0.157 A 
BRANCH  11  14
ATOM     14  O   UNL     1      96.373  84.251  84.462  1.00  0.00    -0.493 OA
ATOM     15  C   UNL     1      95.929  85.380  83.711  1.00  0.00     0.278 C 
ENDBRANCH  11  14
BRANCH  13  16
ATOM     16  O   UNL     1      96.773  83.475  87.101  1.00  0.00    -0.504 OA
ATOM     17  H   UNL     1      96.552  83.788  87.995  1.00  0.00     0.293 HD
ENDBRANCH  13  16
ENDBRANCH   7   8
ENDBRANCH   5   7
ENDBRANCH   2   3
ENDBRANCH   1   2
BRANCH   1  18
ATOM     18  C   UNL     1      92.975  77.294  83.731  1.00  0.00     0.001 C 
BRANCH  18  19
ATOM     19  C   UNL     1      94.466  77.433  84.056  1.00  0.00     0.000 C 
BRANCH  19  20
ATOM     20  C   UNL     1      94.780  78.629  84.958  1.00  0.00     0.000 C 
BRANCH  20  21
ATOM     21  C   UNL     1      95.407  79.810  84.209  1.00  0.00     0.000 C 
BRANCH  21  22
ATOM     22  C   UNL     1      96.530  79.395  83.253  1.00  0.00     0.003 C 
BRANCH  22  23
ATOM     23  C   UNL     1      96.609  80.265  81.983  1.00  0.00    -0.017 C 
ATOM     24  C   UNL     1      97.410  79.533  80.903  1.00  0.00     0.007 C 
ATOM     25  C   UNL     1      97.236  81.634  82.248  1.00  0.00     0.007 C 
ENDBRANCH  22  23
ENDBRANCH  21  22
ENDBRANCH  20  21
ENDBRANCH  19  20
ENDBRANCH  18  19
ENDBRANCH   1  18
TORSDOF 12
ENDMDL
MODEL 9
REMARK VINA RESULT:    -5.697      3.047      4.159
REMARK INTER + INTRA:         -10.030
REMARK INTER:                  -9.250
REMARK INTRA:                  -0.780
REMARK UNBOUND:                -0.503
REMARK SMILES COc1cc(CNC(=O)CCCCCCCC(C)C)ccc1O
REMARK SMILES IDX 11 1 10 2 8 3 9 4 7 5 6 7 5 8 4 9 20 10 3 11 21 12 22 13
REMARK SMILES IDX 2 14 1 15 23 16 12 18 13 19 14 20 15 21 16 22 17 23 18 24
REMARK SMILES IDX 19 25
REMARK H PARENT 7 6 23 17
REMARK Flexibility Score: inf
ROOT
ATOM      1  C   UNL     1      97.326  82.744  81.848  1.00  0.00     0.010 C 
ENDROOT
BRANCH   1   2
ATOM      2  C   UNL     1      96.218  83.697  82.292  1.00  0.00     0.100 C 
BRANCH   2   3
ATOM      3  C   UNL     1      96.215  83.920  83.796  1.00  0.00     0.220 C 
ATOM      4  O   UNL     1      96.038  85.019  84.313  1.00  0.00    -0.275 OA
ATOM      5  N   UNL     1      96.444  82.740  84.486  1.00  0.00    -0.352 N 
ATOM      6  H   UNL     1      96.592  81.876  83.970  1.00  0.00     0.163 HD
BRANCH   5   7
ATOM      7  C   UNL     1      96.499  82.674  85.929  1.00  0.00     0.151 C 
BRANCH   7   8
ATOM      8  C   UNL     1      95.270  82.037  86.509  1.00  0.00    -0.025 A 
ATOM      9  C   UNL     1      94.590  81.067  85.783  1.00  0.00     0.056 A 
ATOM     10  C   UNL     1      94.824  82.425  87.767  1.00  0.00     0.009 A 
ATOM     11  C   UNL     1      93.448  80.475  86.323  1.00  0.00     0.160 A 
ATOM     12  C   UNL     1      93.681  81.834  88.306  1.00  0.00     0.050 A 
ATOM     13  C   UNL     1      92.993  80.859  87.585  1.00  0.00     0.157 A 
BRANCH  11  14
ATOM     14  O   UNL     1      92.784  79.524  85.608  1.00  0.00    -0.493 OA
ATOM     15  C   UNL     1      91.916  79.982  84.572  1.00  0.00     0.278 C 
ENDBRANCH  11  14
BRANCH  13  16
ATOM     16  O   UNL     1      91.879  80.288  88.123  1.00  0.00    -0.504 OA
ATOM     17  H   UNL     1      91.130  80.424  87.517  1.00  0.00     0.293 HD
ENDBRANCH  13  16
ENDBRANCH   7   8
ENDBRANCH   5   7
ENDBRANCH   2   3
ENDBRANCH   1   2
BRANCH   1  18
ATOM     18  C   UNL     1      97.162  82.245  80.410  1.00  0.00     0.001 C 
BRANCH  18  19
ATOM     19  C   UNL     1      97.482  83.265  79.312  1.00  0.00     0.000 C 
BRANCH  19  20
ATOM     20  C   UNL     1      96.262  83.656  78.474  1.00  0.00     0.000 C 
BRANCH  20  21
ATOM     21  C   UNL     1      96.615  84.089  77.047  1.00  0.00     0.000 C 
BRANCH  21  22
ATOM     22  C   UNL     1      97.949  83.519  76.553  1.00  0.00     0.003 C 
BRANCH  22  23
ATOM     23  C   UNL     1      98.510  84.251  75.319  1.00  0.00    -0.017 C 
ATOM     24  C   UNL     1      97.590  84.020  74.118  1.00  0.00     0.007 C 
ATOM     25  C   UNL     1      99.931  83.807  74.970  1.00  0.00     0.007 C 
ENDBRANCH  22  23
ENDBRANCH  21  22
ENDBRANCH  20  21
ENDBRANCH  19  20
ENDBRANCH  18  19
ENDBRANCH   1  18
TORSDOF 12
ENDMDL
MODEL 10
REMARK VINA RESULT:    -5.516      3.256      6.113
REMARK INTER + INTRA:          -9.728
REMARK INTER:                  -7.723
REMARK INTRA:                  -2.005
REMARK UNBOUND:                -0.503
REMARK SMILES COc1cc(CNC(=O)CCCCCCCC(C)C)ccc1O
REMARK SMILES IDX 11 1 10 2 8 3 9 4 7 5 6 7 5 8 4 9 20 10 3 11 21 12 22 13
REMARK SMILES IDX 2 14 1 15 23 16 12 18 13 19 14 20 15 21 16 22 17 23 18 24
REMARK SMILES IDX 19 25
REMARK H PARENT 7 6 23 17
REMARK Flexibility Score: inf
ROOT
ATOM      1  C   UNL     1      93.715  77.955  84.552  1.00  0.00     0.010 C 
ENDROOT
BRANCH   1   2
ATOM      2  C   UNL     1      92.446  78.796  84.428  1.00  0.00     0.100 C 
BRANCH   2   3
ATOM      3  C   UNL     1      92.445  79.985  85.375  1.00  0.00     0.220 C 
ATOM      4  O   UNL     1      92.409  79.872  86.597  1.00  0.00    -0.275 OA
ATOM      5  N   UNL     1      92.480  81.187  84.684  1.00  0.00    -0.352 N 
ATOM      6  H   UNL     1      92.496  81.181  83.668  1.00  0.00     0.163 HD
BRANCH   5   7
ATOM      7  C   UNL     1      92.478  82.471  85.346  1.00  0.00     0.151 C 
BRANCH   7   8
ATOM      8  C   UNL     1      93.847  83.085  85.383  1.00  0.00    -0.025 A 
ATOM      9  C   UNL     1      94.835  82.515  86.177  1.00  0.00     0.056 A 
ATOM     10  C   UNL     1      94.113  84.218  84.623  1.00  0.00     0.009 A 
ATOM     11  C   UNL     1      96.107  83.086  86.212  1.00  0.00     0.160 A 
ATOM     12  C   UNL     1      95.385  84.789  84.659  1.00  0.00     0.050 A 
ATOM     13  C   UNL     1      96.383  84.224  85.453  1.00  0.00     0.157 A 
BRANCH  11  14
ATOM     14  O   UNL     1      97.073  82.525  86.992  1.00  0.00    -0.493 OA
ATOM     15  C   UNL     1      97.163  81.100  86.986  1.00  0.00     0.278 C 
ENDBRANCH  11  14
BRANCH  13  16
ATOM     16  O   UNL     1      97.621  84.790  85.478  1.00  0.00    -0.504 OA
ATOM     17  H   UNL     1      97.698  85.415  84.736  1.00  0.00     0.293 HD
ENDBRANCH  13  16
ENDBRANCH   7   8
ENDBRANCH   5   7
ENDBRANCH   2   3
ENDBRANCH   1   2
BRANCH   1  18
ATOM     18  C   UNL     1      94.963  78.778  84.884  1.00  0.00     0.001 C 
BRANCH  18  19
ATOM     19  C   UNL     1      95.842  79.163  83.690  1.00  0.00     0.000 C 
BRANCH  19  20
ATOM     20  C   UNL     1      95.653  80.616  83.243  1.00  0.00     0.000 C 
BRANCH  20  21
ATOM     21  C   UNL     1      96.972  81.344  82.962  1.00  0.00     0.000 C 
BRANCH  21  22
ATOM     22  C   UNL     1      96.808  82.566  82.052  1.00  0.00     0.003 C 
BRANCH  22  23
ATOM     23  C   UNL     1      97.584  82.451  80.725  1.00  0.00    -0.017 C 
ATOM     24  C   UNL     1      96.925  83.333  79.662  1.00  0.00     0.007 C 
ATOM     25  C   UNL     1      97.668  81.011  80.217  1.00  0.00     0.007 C 
ENDBRANCH  22  23
ENDBRANCH  21  22
ENDBRANCH  20  21
ENDBRANCH  19  20
ENDBRANCH  18  19
ENDBRANCH   1  18
TORSDOF 12
ENDMDL
