MODEL 1
REMARK VINA RESULT:    -6.165      0.000      0.000
REMARK INTER + INTRA:         -10.498
REMARK INTER:                  -9.590
REMARK INTRA:                  -0.908
REMARK UNBOUND:                -0.908
REMARK SMILES CCCCC/C=C/C(=O)CCc1ccc(O)c(OC)c1
REMARK SMILES IDX 6 1 7 2 8 3 9 4 10 5 11 6 12 7 17 8 20 9 15 10 14 11 13 12
REMARK SMILES IDX 18 13 19 14 16 15 5 17 4 18 3 19 2 20 1 21
REMARK H PARENT 16 16
REMARK Flexibility Score: inf
ROOT
ATOM      1  C   UNL     1      92.328  95.760  77.810  1.00  0.00    -0.023 C 
ATOM      2  C   UNL     1      92.354  96.508  76.700  1.00  0.00     0.043 C 
ENDROOT
BRANCH   2   3
ATOM      3  C   UNL     1      93.610  97.198  76.300  1.00  0.00     0.155 C 
ATOM      4  O   UNL     1      93.599  98.216  75.611  1.00  0.00    -0.295 OA
BRANCH   3   5
ATOM      5  C   UNL     1      94.908  96.550  76.742  1.00  0.00     0.085 C 
BRANCH   5   6
ATOM      6  C   UNL     1      95.663  97.439  77.731  1.00  0.00     0.044 C 
BRANCH   6   7
ATOM      7  C   UNL     1      95.486  97.002  79.166  1.00  0.00    -0.044 A 
ATOM      8  C   UNL     1      94.844  95.327  80.760  1.00  0.00     0.160 A 
ATOM      9  C   UNL     1      95.007  95.730  79.435  1.00  0.00     0.054 A 
ATOM     10  C   UNL     1      95.162  96.201  81.799  1.00  0.00     0.157 A 
ATOM     11  C   UNL     1      95.643  97.479  81.513  1.00  0.00     0.050 A 
ATOM     12  C   UNL     1      95.805  97.882  80.187  1.00  0.00     0.008 A 
BRANCH   8  13
ATOM     13  O   UNL     1      94.374  94.076  81.027  1.00  0.00    -0.493 OA
ATOM     14  C   UNL     1      95.238  92.981  80.729  1.00  0.00     0.278 C 
ENDBRANCH   8  13
BRANCH  10  15
ATOM     15  O   UNL     1      95.008  95.819  83.098  1.00  0.00    -0.504 OA
ATOM     16  H   UNL     1      95.832  96.017  83.574  1.00  0.00     0.293 HD
ENDBRANCH  10  15
ENDBRANCH   6   7
ENDBRANCH   5   6
ENDBRANCH   3   5
ENDBRANCH   2   3
BRANCH   1  17
ATOM     17  C   UNL     1      91.102  95.033  78.282  1.00  0.00     0.027 C 
BRANCH  17  18
ATOM     18  C   UNL     1      89.979  95.009  77.240  1.00  0.00     0.004 C 
BRANCH  18  19
ATOM     19  C   UNL     1      89.405  93.611  76.989  1.00  0.00     0.000 C 
BRANCH  19  20
ATOM     20  C   UNL     1      89.954  93.014  75.692  1.00  0.00    -0.003 C 
ATOM     21  C   UNL     1      91.231  92.228  75.938  1.00  0.00     0.004 C 
ENDBRANCH  19  20
ENDBRANCH  18  19
ENDBRANCH  17  18
ENDBRANCH   1  17
TORSDOF 10
ENDMDL
MODEL 2
REMARK VINA RESULT:    -6.052      1.498      2.347
REMARK INTER + INTRA:         -10.321
REMARK INTER:                  -9.286
REMARK INTRA:                  -1.035
REMARK UNBOUND:                -0.908
REMARK SMILES CCCCC/C=C/C(=O)CCc1ccc(O)c(OC)c1
REMARK SMILES IDX 6 1 7 2 8 3 9 4 10 5 11 6 12 7 17 8 20 9 15 10 14 11 13 12
REMARK SMILES IDX 18 13 19 14 16 15 5 17 4 18 3 19 2 20 1 21
REMARK H PARENT 16 16
REMARK Flexibility Score: inf
ROOT
ATOM      1  C   UNL     1      91.596  95.689  77.225  1.00  0.00    -0.023 C 
ATOM      2  C   UNL     1      92.239  96.754  76.731  1.00  0.00     0.043 C 
ENDROOT
BRANCH   2   3
ATOM      3  C   UNL     1      93.701  96.680  76.463  1.00  0.00     0.155 C 
ATOM      4  O   UNL     1      94.151  96.660  75.320  1.00  0.00    -0.295 OA
BRANCH   3   5
ATOM      5  C   UNL     1      94.605  96.577  77.676  1.00  0.00     0.085 C 
BRANCH   5   6
ATOM      6  C   UNL     1      95.101  95.144  77.878  1.00  0.00     0.044 C 
BRANCH   6   7
ATOM      7  C   UNL     1      95.225  94.766  79.336  1.00  0.00    -0.044 A 
ATOM      8  C   UNL     1      96.178  95.152  81.504  1.00  0.00     0.160 A 
ATOM      9  C   UNL     1      96.064  95.501  80.158  1.00  0.00     0.054 A 
ATOM     10  C   UNL     1      95.454  94.073  82.009  1.00  0.00     0.157 A 
ATOM     11  C   UNL     1      94.614  93.342  81.168  1.00  0.00     0.050 A 
ATOM     12  C   UNL     1      94.499  93.691  79.822  1.00  0.00     0.008 A 
BRANCH   8  13
ATOM     13  O   UNL     1      97.002  95.874  82.315  1.00  0.00    -0.493 OA
ATOM     14  C   UNL     1      98.133  96.493  81.705  1.00  0.00     0.278 C 
ENDBRANCH   8  13
BRANCH  10  15
ATOM     15  O   UNL     1      95.557  93.723  83.322  1.00  0.00    -0.504 OA
ATOM     16  H   UNL     1      94.867  94.195  83.819  1.00  0.00     0.293 HD
ENDBRANCH  10  15
ENDBRANCH   6   7
ENDBRANCH   5   6
ENDBRANCH   3   5
ENDBRANCH   2   3
BRANCH   1  17
ATOM     17  C   UNL     1      90.124  95.684  77.522  1.00  0.00     0.027 C 
BRANCH  17  18
ATOM     18  C   UNL     1      89.580  94.288  77.842  1.00  0.00     0.004 C 
BRANCH  18  19
ATOM     19  C   UNL     1      90.672  93.262  78.163  1.00  0.00     0.000 C 
BRANCH  19  20
ATOM     20  C   UNL     1      90.595  92.062  77.218  1.00  0.00    -0.003 C 
ATOM     21  C   UNL     1      91.379  92.309  75.939  1.00  0.00     0.004 C 
ENDBRANCH  19  20
ENDBRANCH  18  19
ENDBRANCH  17  18
ENDBRANCH   1  17
TORSDOF 10
ENDMDL
MODEL 3
REMARK VINA RESULT:    -5.913     21.263     26.048
REMARK INTER + INTRA:         -10.105
REMARK INTER:                  -9.405
REMARK INTRA:                  -0.701
REMARK UNBOUND:                -0.908
REMARK SMILES CCCCC/C=C/C(=O)CCc1ccc(O)c(OC)c1
REMARK SMILES IDX 6 1 7 2 8 3 9 4 10 5 11 6 12 7 17 8 20 9 15 10 14 11 13 12
REMARK SMILES IDX 18 13 19 14 16 15 5 17 4 18 3 19 2 20 1 21
REMARK H PARENT 16 16
REMARK Flexibility Score: inf
ROOT
ATOM      1  C   UNL     1      75.936  85.135  68.157  1.00  0.00    -0.023 C 
ATOM      2  C   UNL     1      76.425  83.892  68.077  1.00  0.00     0.043 C 
ENDROOT
BRANCH   2   3
ATOM      3  C   UNL     1      77.524  83.587  67.122  1.00  0.00     0.155 C 
ATOM      4  O   UNL     1      78.707  83.656  67.450  1.00  0.00    -0.295 OA
BRANCH   3   5
ATOM      5  C   UNL     1      77.112  83.236  65.705  1.00  0.00     0.085 C 
BRANCH   5   6
ATOM      6  C   UNL     1      76.988  81.722  65.522  1.00  0.00     0.044 C 
BRANCH   6   7
ATOM      7  C   UNL     1      75.686  81.314  64.874  1.00  0.00    -0.044 A 
ATOM      8  C   UNL     1      73.322  80.933  65.029  1.00  0.00     0.160 A 
ATOM      9  C   UNL     1      74.524  81.310  65.628  1.00  0.00     0.054 A 
ATOM     10  C   UNL     1      73.297  80.565  63.684  1.00  0.00     0.157 A 
ATOM     11  C   UNL     1      74.477  80.573  62.938  1.00  0.00     0.050 A 
ATOM     12  C   UNL     1      75.679  80.950  63.537  1.00  0.00     0.008 A 
BRANCH   8  13
ATOM     13  O   UNL     1      72.177  80.929  65.768  1.00  0.00    -0.493 OA
ATOM     14  C   UNL     1      71.726  82.185  66.271  1.00  0.00     0.278 C 
ENDBRANCH   8  13
BRANCH  10  15
ATOM     15  O   UNL     1      72.130  80.195  63.088  1.00  0.00    -0.504 OA
ATOM     16  H   UNL     1      71.404  80.349  63.716  1.00  0.00     0.293 HD
ENDBRANCH  10  15
ENDBRANCH   6   7
ENDBRANCH   5   6
ENDBRANCH   3   5
ENDBRANCH   2   3
BRANCH   1  17
ATOM     17  C   UNL     1      74.829  85.523  69.093  1.00  0.00     0.027 C 
BRANCH  17  18
ATOM     18  C   UNL     1      75.334  86.175  70.385  1.00  0.00     0.004 C 
BRANCH  18  19
ATOM     19  C   UNL     1      75.841  87.608  70.192  1.00  0.00     0.000 C 
BRANCH  19  20
ATOM     20  C   UNL     1      74.878  88.622  70.812  1.00  0.00    -0.003 C 
ATOM     21  C   UNL     1      75.444  90.032  70.758  1.00  0.00     0.004 C 
ENDBRANCH  19  20
ENDBRANCH  18  19
ENDBRANCH  17  18
ENDBRANCH   1  17
TORSDOF 10
ENDMDL
MODEL 4
REMARK VINA RESULT:    -5.759     31.145     34.106
REMARK INTER + INTRA:          -9.866
REMARK INTER:                  -8.256
REMARK INTRA:                  -1.610
REMARK UNBOUND:                -0.908
REMARK SMILES CCCCC/C=C/C(=O)CCc1ccc(O)c(OC)c1
REMARK SMILES IDX 6 1 7 2 8 3 9 4 10 5 11 6 12 7 17 8 20 9 15 10 14 11 13 12
REMARK SMILES IDX 18 13 19 14 16 15 5 17 4 18 3 19 2 20 1 21
REMARK H PARENT 16 16
REMARK Flexibility Score: inf
ROOT
ATOM      1  C   UNL     1      61.814  83.923  69.533  1.00  0.00    -0.023 C 
ATOM      2  C   UNL     1      63.116  84.042  69.242  1.00  0.00     0.043 C 
ENDROOT
BRANCH   2   3
ATOM      3  C   UNL     1      63.919  82.829  68.929  1.00  0.00     0.155 C 
ATOM      4  O   UNL     1      64.549  82.721  67.879  1.00  0.00    -0.295 OA
BRANCH   3   5
ATOM      5  C   UNL     1      63.879  81.709  69.951  1.00  0.00     0.085 C 
BRANCH   5   6
ATOM      6  C   UNL     1      64.711  82.056  71.187  1.00  0.00     0.044 C 
BRANCH   6   7
ATOM      7  C   UNL     1      63.863  82.325  72.408  1.00  0.00    -0.044 A 
ATOM      8  C   UNL     1      63.331  83.700  74.301  1.00  0.00     0.160 A 
ATOM      9  C   UNL     1      64.115  83.452  73.174  1.00  0.00     0.054 A 
ATOM     10  C   UNL     1      62.307  82.819  74.648  1.00  0.00     0.157 A 
ATOM     11  C   UNL     1      62.067  81.688  73.866  1.00  0.00     0.050 A 
ATOM     12  C   UNL     1      62.850  81.440  72.739  1.00  0.00     0.008 A 
BRANCH   8  13
ATOM     13  O   UNL     1      63.576  84.808  75.056  1.00  0.00    -0.493 OA
ATOM     14  C   UNL     1      64.764  85.541  74.765  1.00  0.00     0.278 C 
ENDBRANCH   8  13
BRANCH  10  15
ATOM     15  O   UNL     1      61.535  83.051  75.746  1.00  0.00    -0.504 OA
ATOM     16  H   UNL     1      61.007  82.254  75.921  1.00  0.00     0.293 HD
ENDBRANCH  10  15
ENDBRANCH   6   7
ENDBRANCH   5   6
ENDBRANCH   3   5
ENDBRANCH   2   3
BRANCH   1  17
ATOM     17  C   UNL     1      60.936  85.096  69.860  1.00  0.00     0.027 C 
BRANCH  17  18
ATOM     18  C   UNL     1      59.786  84.741  70.808  1.00  0.00     0.004 C 
BRANCH  18  19
ATOM     19  C   UNL     1      60.248  84.375  72.222  1.00  0.00     0.000 C 
BRANCH  19  20
ATOM     20  C   UNL     1      59.889  85.475  73.222  1.00  0.00    -0.003 C 
ATOM     21  C   UNL     1      58.983  86.523  72.596  1.00  0.00     0.004 C 
ENDBRANCH  19  20
ENDBRANCH  18  19
ENDBRANCH  17  18
ENDBRANCH   1  17
TORSDOF 10
ENDMDL
MODEL 5
REMARK VINA RESULT:    -5.626      2.293      4.575
REMARK INTER + INTRA:          -9.659
REMARK INTER:                  -8.492
REMARK INTRA:                  -1.167
REMARK UNBOUND:                -0.908
REMARK SMILES CCCCC/C=C/C(=O)CCc1ccc(O)c(OC)c1
REMARK SMILES IDX 6 1 7 2 8 3 9 4 10 5 11 6 12 7 17 8 20 9 15 10 14 11 13 12
REMARK SMILES IDX 18 13 19 14 16 15 5 17 4 18 3 19 2 20 1 21
REMARK H PARENT 16 16
REMARK Flexibility Score: inf
ROOT
ATOM      1  C   UNL     1      94.292  94.541  79.058  1.00  0.00    -0.023 C 
ATOM      2  C   UNL     1      95.273  93.923  79.727  1.00  0.00     0.043 C 
ENDROOT
BRANCH   2   3
ATOM      3  C   UNL     1      95.137  93.686  81.190  1.00  0.00     0.155 C 
ATOM      4  O   UNL     1      94.400  92.810  81.640  1.00  0.00    -0.295 OA
BRANCH   3   5
ATOM      5  C   UNL     1      95.914  94.615  82.101  1.00  0.00     0.085 C 
BRANCH   5   6
ATOM      6  C   UNL     1      96.974  95.397  81.323  1.00  0.00     0.044 C 
BRANCH   6   7
ATOM      7  C   UNL     1      96.630  96.859  81.167  1.00  0.00    -0.044 A 
ATOM      8  C   UNL     1      95.698  98.878  82.069  1.00  0.00     0.160 A 
ATOM      9  C   UNL     1      96.015  97.527  82.214  1.00  0.00     0.054 A 
ATOM     10  C   UNL     1      95.998  99.542  80.880  1.00  0.00     0.157 A 
ATOM     11  C   UNL     1      96.616  98.855  79.835  1.00  0.00     0.050 A 
ATOM     12  C   UNL     1      96.934  97.504  79.980  1.00  0.00     0.008 A 
BRANCH   8  13
ATOM     13  O   UNL     1      95.093  99.537  83.097  1.00  0.00    -0.493 OA
ATOM     14  C   UNL     1      95.929  99.976  84.166  1.00  0.00     0.278 C 
ENDBRANCH   8  13
BRANCH  10  15
ATOM     15  O   UNL     1      95.693 100.861  80.727  1.00  0.00    -0.504 OA
ATOM     16  H   UNL     1      95.472 101.227  81.601  1.00  0.00     0.293 HD
ENDBRANCH  10  15
ENDBRANCH   6   7
ENDBRANCH   5   6
ENDBRANCH   3   5
ENDBRANCH   2   3
BRANCH   1  17
ATOM     17  C   UNL     1      94.353  94.817  77.583  1.00  0.00     0.027 C 
BRANCH  17  18
ATOM     18  C   UNL     1      92.970  94.992  76.946  1.00  0.00     0.004 C 
BRANCH  18  19
ATOM     19  C   UNL     1      91.987  95.778  77.820  1.00  0.00     0.000 C 
BRANCH  19  20
ATOM     20  C   UNL     1      90.578  95.191  77.729  1.00  0.00    -0.003 C 
ATOM     21  C   UNL     1      90.493  93.838  78.416  1.00  0.00     0.004 C 
ENDBRANCH  19  20
ENDBRANCH  18  19
ENDBRANCH  17  18
ENDBRANCH   1  17
TORSDOF 10
ENDMDL
MODEL 6
REMARK VINA RESULT:    -5.607      3.584      5.092
REMARK INTER + INTRA:          -9.629
REMARK INTER:                  -8.985
REMARK INTRA:                  -0.644
REMARK UNBOUND:                -0.908
REMARK SMILES CCCCC/C=C/C(=O)CCc1ccc(O)c(OC)c1
REMARK SMILES IDX 6 1 7 2 8 3 9 4 10 5 11 6 12 7 17 8 20 9 15 10 14 11 13 12
REMARK SMILES IDX 18 13 19 14 16 15 5 17 4 18 3 19 2 20 1 21
REMARK H PARENT 16 16
REMARK Flexibility Score: inf
ROOT
ATOM      1  C   UNL     1      92.897  99.508  73.774  1.00  0.00    -0.023 C 
ATOM      2  C   UNL     1      94.188  99.692  74.079  1.00  0.00     0.043 C 
ENDROOT
BRANCH   2   3
ATOM      3  C   UNL     1      94.917  98.664  74.871  1.00  0.00     0.155 C 
ATOM      4  O   UNL     1      96.132  98.723  75.047  1.00  0.00    -0.295 OA
BRANCH   3   5
ATOM      5  C   UNL     1      94.090  97.511  75.405  1.00  0.00     0.085 C 
BRANCH   5   6
ATOM      6  C   UNL     1      94.278  97.346  76.914  1.00  0.00     0.044 C 
BRANCH   6   7
ATOM      7  C   UNL     1      93.396  96.269  77.501  1.00  0.00    -0.044 A 
ATOM      8  C   UNL     1      93.021  94.564  79.147  1.00  0.00     0.160 A 
ATOM      9  C   UNL     1      93.836  95.557  78.605  1.00  0.00     0.054 A 
ATOM     10  C   UNL     1      91.776  94.295  78.579  1.00  0.00     0.157 A 
ATOM     11  C   UNL     1      91.346  95.021  77.467  1.00  0.00     0.050 A 
ATOM     12  C   UNL     1      92.162  96.014  76.925  1.00  0.00     0.008 A 
BRANCH   8  13
ATOM     13  O   UNL     1      93.452  93.862  80.233  1.00  0.00    -0.493 OA
ATOM     14  C   UNL     1      94.843  93.555  80.295  1.00  0.00     0.278 C 
ENDBRANCH   8  13
BRANCH  10  15
ATOM     15  O   UNL     1      90.971  93.328  79.099  1.00  0.00    -0.504 OA
ATOM     16  H   UNL     1      91.415  92.946  79.876  1.00  0.00     0.293 HD
ENDBRANCH  10  15
ENDBRANCH   6   7
ENDBRANCH   5   6
ENDBRANCH   3   5
ENDBRANCH   2   3
BRANCH   1  17
ATOM     17  C   UNL     1      92.092 100.496  72.980  1.00  0.00     0.027 C 
BRANCH  17  18
ATOM     18  C   UNL     1      91.634  99.948  71.625  1.00  0.00     0.004 C 
BRANCH  18  19
ATOM     19  C   UNL     1      90.147  99.582  71.583  1.00  0.00     0.000 C 
BRANCH  19  20
ATOM     20  C   UNL     1      89.829  98.701  70.373  1.00  0.00    -0.003 C 
ATOM     21  C   UNL     1      89.657  97.245  70.775  1.00  0.00     0.004 C 
ENDBRANCH  19  20
ENDBRANCH  18  19
ENDBRANCH  17  18
ENDBRANCH   1  17
TORSDOF 10
ENDMDL
MODEL 7
REMARK VINA RESULT:    -5.528      2.124      4.505
REMARK INTER + INTRA:          -9.506
REMARK INTER:                  -8.436
REMARK INTRA:                  -1.070
REMARK UNBOUND:                -0.908
REMARK SMILES CCCCC/C=C/C(=O)CCc1ccc(O)c(OC)c1
REMARK SMILES IDX 6 1 7 2 8 3 9 4 10 5 11 6 12 7 17 8 20 9 15 10 14 11 13 12
REMARK SMILES IDX 18 13 19 14 16 15 5 17 4 18 3 19 2 20 1 21
REMARK H PARENT 16 16
REMARK Flexibility Score: inf
ROOT
ATOM      1  C   UNL     1      94.222  94.514  78.992  1.00  0.00    -0.023 C 
ATOM      2  C   UNL     1      95.289  94.015  79.627  1.00  0.00     0.043 C 
ENDROOT
BRANCH   2   3
ATOM      3  C   UNL     1      95.269  93.866  81.108  1.00  0.00     0.155 C 
ATOM      4  O   UNL     1      94.573  93.019  81.665  1.00  0.00    -0.295 OA
BRANCH   3   5
ATOM      5  C   UNL     1      96.111  94.848  81.898  1.00  0.00     0.085 C 
BRANCH   5   6
ATOM      6  C   UNL     1      95.247  95.950  82.515  1.00  0.00     0.044 C 
BRANCH   6   7
ATOM      7  C   UNL     1      95.518  97.311  81.919  1.00  0.00    -0.044 A 
ATOM      8  C   UNL     1      96.230  98.660  80.066  1.00  0.00     0.160 A 
ATOM      9  C   UNL     1      95.981  97.402  80.616  1.00  0.00     0.054 A 
ATOM     10  C   UNL     1      96.014  99.809  80.826  1.00  0.00     0.157 A 
ATOM     11  C   UNL     1      95.548  99.701  82.137  1.00  0.00     0.050 A 
ATOM     12  C   UNL     1      95.299  98.443  82.687  1.00  0.00     0.008 A 
BRANCH   8  13
ATOM     13  O   UNL     1      96.685  98.753  78.785  1.00  0.00    -0.493 OA
ATOM     14  C   UNL     1      95.751  98.473  77.744  1.00  0.00     0.278 C 
ENDBRANCH   8  13
BRANCH  10  15
ATOM     15  O   UNL     1      96.253 101.043  80.300  1.00  0.00    -0.504 OA
ATOM     16  H   UNL     1      96.439 101.656  81.032  1.00  0.00     0.293 HD
ENDBRANCH  10  15
ENDBRANCH   6   7
ENDBRANCH   5   6
ENDBRANCH   3   5
ENDBRANCH   2   3
BRANCH   1  17
ATOM     17  C   UNL     1      94.164  94.697  77.503  1.00  0.00     0.027 C 
BRANCH  17  18
ATOM     18  C   UNL     1      92.733  94.748  76.958  1.00  0.00     0.004 C 
BRANCH  18  19
ATOM     19  C   UNL     1      92.118  96.151  76.978  1.00  0.00     0.000 C 
BRANCH  19  20
ATOM     20  C   UNL     1      90.757  96.148  77.675  1.00  0.00    -0.003 C 
ATOM     21  C   UNL     1      90.169  94.748  77.742  1.00  0.00     0.004 C 
ENDBRANCH  19  20
ENDBRANCH  18  19
ENDBRANCH  17  18
ENDBRANCH   1  17
TORSDOF 10
ENDMDL
MODEL 8
REMARK VINA RESULT:    -5.507      6.202      9.979
REMARK INTER + INTRA:          -9.474
REMARK INTER:                  -8.813
REMARK INTRA:                  -0.661
REMARK UNBOUND:                -0.908
REMARK SMILES CCCCC/C=C/C(=O)CCc1ccc(O)c(OC)c1
REMARK SMILES IDX 6 1 7 2 8 3 9 4 10 5 11 6 12 7 17 8 20 9 15 10 14 11 13 12
REMARK SMILES IDX 18 13 19 14 16 15 5 17 4 18 3 19 2 20 1 21
REMARK H PARENT 16 16
REMARK Flexibility Score: inf
ROOT
ATOM      1  C   UNL     1      93.836  99.114  74.905  1.00  0.00    -0.023 C 
ATOM      2  C   UNL     1      92.651  99.454  74.382  1.00  0.00     0.043 C 
ENDROOT
BRANCH   2   3
ATOM      3  C   UNL     1      92.495 100.760  73.685  1.00  0.00     0.155 C 
ATOM      4  O   UNL     1      93.130 101.757  74.026  1.00  0.00    -0.295 OA
BRANCH   3   5
ATOM      5  C   UNL     1      91.473 100.812  72.567  1.00  0.00     0.085 C 
BRANCH   5   6
ATOM      6  C   UNL     1      91.931  99.994  71.358  1.00  0.00     0.044 C 
BRANCH   6   7
ATOM      7  C   UNL     1      90.781  99.387  70.590  1.00  0.00    -0.044 A 
ATOM      8  C   UNL     1      89.119  99.555  68.867  1.00  0.00     0.160 A 
ATOM      9  C   UNL     1      90.181 100.117  69.577  1.00  0.00     0.054 A 
ATOM     10  C   UNL     1      88.671  98.272  69.180  1.00  0.00     0.157 A 
ATOM     11  C   UNL     1      89.285  97.550  70.204  1.00  0.00     0.050 A 
ATOM     12  C   UNL     1      90.347  98.111  70.914  1.00  0.00     0.008 A 
BRANCH   8  13
ATOM     13  O   UNL     1      88.527 100.271  67.870  1.00  0.00    -0.493 OA
ATOM     14  C   UNL     1      89.023 101.587  67.634  1.00  0.00     0.278 C 
ENDBRANCH   8  13
BRANCH  10  15
ATOM     15  O   UNL     1      87.635  97.713  68.495  1.00  0.00    -0.504 OA
ATOM     16  H   UNL     1      87.157  98.423  68.033  1.00  0.00     0.293 HD
ENDBRANCH  10  15
ENDBRANCH   6   7
ENDBRANCH   5   6
ENDBRANCH   3   5
ENDBRANCH   2   3
BRANCH   1  17
ATOM     17  C   UNL     1      94.074  97.817  75.622  1.00  0.00     0.027 C 
BRANCH  17  18
ATOM     18  C   UNL     1      92.779  97.082  75.982  1.00  0.00     0.004 C 
BRANCH  18  19
ATOM     19  C   UNL     1      92.879  96.256  77.269  1.00  0.00     0.000 C 
BRANCH  19  20
ATOM     20  C   UNL     1      91.653  95.359  77.446  1.00  0.00    -0.003 C 
ATOM     21  C   UNL     1      90.378  96.178  77.575  1.00  0.00     0.004 C 
ENDBRANCH  19  20
ENDBRANCH  18  19
ENDBRANCH  17  18
ENDBRANCH   1  17
TORSDOF 10
ENDMDL
MODEL 9
REMARK VINA RESULT:    -5.501     20.978     23.693
REMARK INTER + INTRA:          -9.464
REMARK INTER:                  -8.758
REMARK INTRA:                  -0.706
REMARK UNBOUND:                -0.908
REMARK SMILES CCCCC/C=C/C(=O)CCc1ccc(O)c(OC)c1
REMARK SMILES IDX 6 1 7 2 8 3 9 4 10 5 11 6 12 7 17 8 20 9 15 10 14 11 13 12
REMARK SMILES IDX 18 13 19 14 16 15 5 17 4 18 3 19 2 20 1 21
REMARK H PARENT 16 16
REMARK Flexibility Score: inf
ROOT
ATOM      1  C   UNL     1      75.725  83.757  66.505  1.00  0.00    -0.023 C 
ATOM      2  C   UNL     1      76.516  83.310  67.488  1.00  0.00     0.043 C 
ENDROOT
BRANCH   2   3
ATOM      3  C   UNL     1      77.859  83.916  67.693  1.00  0.00     0.155 C 
ATOM      4  O   UNL     1      78.840  83.554  67.047  1.00  0.00    -0.295 OA
BRANCH   3   5
ATOM      5  C   UNL     1      77.967  84.969  68.779  1.00  0.00     0.085 C 
BRANCH   5   6
ATOM      6  C   UNL     1      78.335  86.334  68.195  1.00  0.00     0.044 C 
BRANCH   6   7
ATOM      7  C   UNL     1      77.209  87.336  68.292  1.00  0.00    -0.044 A 
ATOM      8  C   UNL     1      75.681  88.617  69.628  1.00  0.00     0.160 A 
ATOM      9  C   UNL     1      76.721  87.691  69.539  1.00  0.00     0.054 A 
ATOM     10  C   UNL     1      75.145  89.177  68.469  1.00  0.00     0.157 A 
ATOM     11  C   UNL     1      75.647  88.809  67.220  1.00  0.00     0.050 A 
ATOM     12  C   UNL     1      76.686  87.883  67.131  1.00  0.00     0.008 A 
BRANCH   8  13
ATOM     13  O   UNL     1      75.199  88.967  70.853  1.00  0.00    -0.493 OA
ATOM     14  C   UNL     1      74.053  88.261  71.325  1.00  0.00     0.278 C 
ENDBRANCH   8  13
BRANCH  10  15
ATOM     15  O   UNL     1      74.130  90.082  68.542  1.00  0.00    -0.504 OA
ATOM     16  H   UNL     1      74.097  90.431  69.450  1.00  0.00     0.293 HD
ENDBRANCH  10  15
ENDBRANCH   6   7
ENDBRANCH   5   6
ENDBRANCH   3   5
ENDBRANCH   2   3
BRANCH   1  17
ATOM     17  C   UNL     1      74.359  83.198  66.233  1.00  0.00     0.027 C 
BRANCH  17  18
ATOM     18  C   UNL     1      74.359  81.680  66.027  1.00  0.00     0.004 C 
BRANCH  18  19
ATOM     19  C   UNL     1      73.945  81.251  64.616  1.00  0.00     0.000 C 
BRANCH  19  20
ATOM     20  C   UNL     1      72.551  80.621  64.618  1.00  0.00    -0.003 C 
ATOM     21  C   UNL     1      72.346  79.718  63.412  1.00  0.00     0.004 C 
ENDBRANCH  19  20
ENDBRANCH  18  19
ENDBRANCH  17  18
ENDBRANCH   1  17
TORSDOF 10
ENDMDL
MODEL 10
REMARK VINA RESULT:    -5.406     21.109     23.764
REMARK INTER + INTRA:          -9.317
REMARK INTER:                  -8.373
REMARK INTRA:                  -0.944
REMARK UNBOUND:                -0.908
REMARK SMILES CCCCC/C=C/C(=O)CCc1ccc(O)c(OC)c1
REMARK SMILES IDX 6 1 7 2 8 3 9 4 10 5 11 6 12 7 17 8 20 9 15 10 14 11 13 12
REMARK SMILES IDX 18 13 19 14 16 15 5 17 4 18 3 19 2 20 1 21
REMARK H PARENT 16 16
REMARK Flexibility Score: inf
ROOT
ATOM      1  C   UNL     1      75.571  84.128  66.835  1.00  0.00    -0.023 C 
ATOM      2  C   UNL     1      76.479  83.409  67.508  1.00  0.00     0.043 C 
ENDROOT
BRANCH   2   3
ATOM      3  C   UNL     1      77.864  83.928  67.670  1.00  0.00     0.155 C 
ATOM      4  O   UNL     1      78.795  83.519  66.980  1.00  0.00    -0.295 OA
BRANCH   3   5
ATOM      5  C   UNL     1      78.079  84.952  68.768  1.00  0.00     0.085 C 
BRANCH   5   6
ATOM      6  C   UNL     1      78.325  86.345  68.187  1.00  0.00     0.044 C 
BRANCH   6   7
ATOM      7  C   UNL     1      77.181  87.298  68.443  1.00  0.00    -0.044 A 
ATOM      8  C   UNL     1      75.430  88.709  67.604  1.00  0.00     0.160 A 
ATOM      9  C   UNL     1      76.487  87.829  67.368  1.00  0.00     0.054 A 
ATOM     10  C   UNL     1      75.082  89.046  68.912  1.00  0.00     0.157 A 
ATOM     11  C   UNL     1      75.792  88.504  69.984  1.00  0.00     0.050 A 
ATOM     12  C   UNL     1      76.848  87.624  69.747  1.00  0.00     0.008 A 
BRANCH   8  13
ATOM     13  O   UNL     1      74.745  89.232  66.549  1.00  0.00    -0.493 OA
ATOM     14  C   UNL     1      74.933  88.607  65.280  1.00  0.00     0.278 C 
ENDBRANCH   8  13
BRANCH  10  15
ATOM     15  O   UNL     1      74.053  89.904  69.156  1.00  0.00    -0.504 OA
ATOM     16  H   UNL     1      74.010  90.065  70.114  1.00  0.00     0.293 HD
ENDBRANCH  10  15
ENDBRANCH   6   7
ENDBRANCH   5   6
ENDBRANCH   3   5
ENDBRANCH   2   3
BRANCH   1  17
ATOM     17  C   UNL     1      74.155  83.675  66.628  1.00  0.00     0.027 C 
BRANCH  17  18
ATOM     18  C   UNL     1      74.054  82.239  66.104  1.00  0.00     0.004 C 
BRANCH  18  19
ATOM     19  C   UNL     1      72.620  81.801  65.786  1.00  0.00     0.000 C 
BRANCH  19  20
ATOM     20  C   UNL     1      72.608  80.583  64.861  1.00  0.00    -0.003 C 
ATOM     21  C   UNL     1      73.743  80.638  63.851  1.00  0.00     0.004 C 
ENDBRANCH  19  20
ENDBRANCH  18  19
ENDBRANCH  17  18
ENDBRANCH   1  17
TORSDOF 10
ENDMDL
