MODEL 1
REMARK VINA RESULT:    -5.792      0.000      0.000
REMARK INTER + INTRA:         -10.127
REMARK INTER:                  -9.348
REMARK INTRA:                  -0.780
REMARK UNBOUND:                -0.780
REMARK SMILES CCCCCCCCC(=O)NCc1ccc(O)c(OC)c1
REMARK SMILES IDX 7 1 6 2 5 3 4 4 3 5 2 6 1 7 8 8 9 9 10 10 11 11 12 13 13 14
REMARK SMILES IDX 21 15 14 16 18 17 15 18 16 19 19 20 20 21 17 22
REMARK H PARENT 11 12 17 23
REMARK Flexibility Score: inf
ROOT
ATOM      1  C   UNL     1      77.957  86.002  67.788  1.00  0.00     0.010 C 
ENDROOT
BRANCH   1   2
ATOM      2  C   UNL     1      77.805  86.932  69.026  1.00  0.00     0.001 C 
BRANCH   2   3
ATOM      3  C   UNL     1      76.775  86.380  70.055  1.00  0.00     0.000 C 
BRANCH   3   4
ATOM      4  C   UNL     1      75.316  86.850  69.796  1.00  0.00    -0.000 C 
BRANCH   4   5
ATOM      5  C   UNL     1      74.831  87.900  70.837  1.00  0.00    -0.000 C 
BRANCH   5   6
ATOM      6  C   UNL     1      75.293  89.341  70.490  1.00  0.00    -0.003 C 
ATOM      7  C   UNL     1      75.022  89.719  69.017  1.00  0.00     0.004 C 
ENDBRANCH   5   6
ENDBRANCH   4   5
ENDBRANCH   3   4
ENDBRANCH   2   3
ENDBRANCH   1   2
BRANCH   1   8
ATOM      8  C   UNL     1      77.860  84.487  68.123  1.00  0.00     0.100 C 
BRANCH   8   9
ATOM      9  C   UNL     1      77.890  83.660  66.893  1.00  0.00     0.220 C 
ATOM     10  O   UNL     1      78.815  83.852  66.068  1.00  0.00    -0.275 OA
ATOM     11  N   UNL     1      76.947  82.694  66.683  1.00  0.00    -0.352 N 
ATOM     12  H   UNL     1      76.202  82.683  67.364  1.00  0.00     0.163 HD
BRANCH  11  13
ATOM     13  C   UNL     1      76.949  81.743  65.614  1.00  0.00     0.151 C 
BRANCH  13  14
ATOM     14  C   UNL     1      75.595  81.441  65.075  1.00  0.00    -0.025 A 
ATOM     15  C   UNL     1      74.448  81.638  65.881  1.00  0.00     0.056 A 
ATOM     16  C   UNL     1      75.429  80.952  63.759  1.00  0.00     0.009 A 
ATOM     17  C   UNL     1      73.154  81.373  65.377  1.00  0.00     0.160 A 
ATOM     18  C   UNL     1      74.145  80.687  63.252  1.00  0.00     0.050 A 
ATOM     19  C   UNL     1      73.008  80.888  64.057  1.00  0.00     0.157 A 
BRANCH  17  20
ATOM     20  O   UNL     1      72.047  81.524  66.172  1.00  0.00    -0.493 OA
ATOM     21  C   UNL     1      71.725  82.892  66.480  1.00  0.00     0.278 C 
ENDBRANCH  17  20
BRANCH  19  22
ATOM     22  O   UNL     1      71.774  80.603  63.567  1.00  0.00    -0.504 OA
ATOM     23  H   UNL     1      71.810  80.572  62.608  1.00  0.00     0.293 HD
ENDBRANCH  19  22
ENDBRANCH  13  14
ENDBRANCH  11  13
ENDBRANCH   8   9
ENDBRANCH   1   8
TORSDOF 11
ENDMDL
MODEL 2
REMARK VINA RESULT:    -5.552      2.027      4.237
REMARK INTER + INTRA:          -9.739
REMARK INTER:                  -8.443
REMARK INTRA:                  -1.297
REMARK UNBOUND:                -0.780
REMARK SMILES CCCCCCCCC(=O)NCc1ccc(O)c(OC)c1
REMARK SMILES IDX 7 1 6 2 5 3 4 4 3 5 2 6 1 7 8 8 9 9 10 10 11 11 12 13 13 14
REMARK SMILES IDX 21 15 14 16 18 17 15 18 16 19 19 20 20 21 17 22
REMARK H PARENT 11 12 17 23
REMARK Flexibility Score: inf
ROOT
ATOM      1  C   UNL     1      75.915  86.869  70.077  1.00  0.00     0.010 C 
ENDROOT
BRANCH   1   2
ATOM      2  C   UNL     1      77.400  86.896  69.615  1.00  0.00     0.001 C 
BRANCH   2   3
ATOM      3  C   UNL     1      77.544  87.294  68.116  1.00  0.00     0.000 C 
BRANCH   3   4
ATOM      4  C   UNL     1      77.885  86.099  67.181  1.00  0.00    -0.000 C 
BRANCH   4   5
ATOM      5  C   UNL     1      78.271  84.814  67.966  1.00  0.00    -0.000 C 
BRANCH   5   6
ATOM      6  C   UNL     1      78.152  83.529  67.102  1.00  0.00    -0.003 C 
ATOM      7  C   UNL     1      77.728  83.823  65.646  1.00  0.00     0.004 C 
ENDBRANCH   5   6
ENDBRANCH   4   5
ENDBRANCH   3   4
ENDBRANCH   2   3
ENDBRANCH   1   2
BRANCH   1   8
ATOM      8  C   UNL     1      75.267  85.457  70.030  1.00  0.00     0.100 C 
BRANCH   8   9
ATOM      9  C   UNL     1      74.204  85.384  68.999  1.00  0.00     0.220 C 
ATOM     10  O   UNL     1      73.043  85.738  69.315  1.00  0.00    -0.275 OA
ATOM     11  N   UNL     1      74.495  84.968  67.731  1.00  0.00    -0.352 N 
ATOM     12  H   UNL     1      75.437  84.625  67.610  1.00  0.00     0.163 HD
BRANCH  11  13
ATOM     13  C   UNL     1      73.596  84.988  66.618  1.00  0.00     0.151 C 
BRANCH  13  14
ATOM     14  C   UNL     1      73.289  83.640  66.069  1.00  0.00    -0.025 A 
ATOM     15  C   UNL     1      74.105  83.081  65.056  1.00  0.00     0.056 A 
ATOM     16  C   UNL     1      72.182  82.898  66.541  1.00  0.00     0.009 A 
ATOM     17  C   UNL     1      73.835  81.794  64.537  1.00  0.00     0.160 A 
ATOM     18  C   UNL     1      71.910  81.617  66.030  1.00  0.00     0.050 A 
ATOM     19  C   UNL     1      72.727  81.065  65.024  1.00  0.00     0.157 A 
BRANCH  17  20
ATOM     20  O   UNL     1      74.602  81.271  63.526  1.00  0.00    -0.493 OA
ATOM     21  C   UNL     1      75.987  81.090  63.870  1.00  0.00     0.278 C 
ENDBRANCH  17  20
BRANCH  19  22
ATOM     22  O   UNL     1      72.439  79.839  64.518  1.00  0.00    -0.504 OA
ATOM     23  H   UNL     1      72.781  79.162  65.106  1.00  0.00     0.293 HD
ENDBRANCH  19  22
ENDBRANCH  13  14
ENDBRANCH  11  13
ENDBRANCH   8   9
ENDBRANCH   1   8
TORSDOF 11
ENDMDL
MODEL 3
REMARK VINA RESULT:    -5.513      3.363      5.959
REMARK INTER + INTRA:          -9.677
REMARK INTER:                  -7.816
REMARK INTRA:                  -1.861
REMARK UNBOUND:                -0.780
REMARK SMILES CCCCCCCCC(=O)NCc1ccc(O)c(OC)c1
REMARK SMILES IDX 7 1 6 2 5 3 4 4 3 5 2 6 1 7 8 8 9 9 10 10 11 11 12 13 13 14
REMARK SMILES IDX 21 15 14 16 18 17 15 18 16 19 19 20 20 21 17 22
REMARK H PARENT 11 12 17 23
REMARK Flexibility Score: inf
ROOT
ATOM      1  C   UNL     1      75.176  90.249  70.051  1.00  0.00     0.010 C 
ENDROOT
BRANCH   1   2
ATOM      2  C   UNL     1      74.034  89.873  71.038  1.00  0.00     0.001 C 
BRANCH   2   3
ATOM      3  C   UNL     1      74.089  88.374  71.459  1.00  0.00     0.000 C 
BRANCH   3   4
ATOM      4  C   UNL     1      75.035  87.510  70.579  1.00  0.00    -0.000 C 
BRANCH   4   5
ATOM      5  C   UNL     1      74.263  86.522  69.659  1.00  0.00    -0.000 C 
BRANCH   5   6
ATOM      6  C   UNL     1      75.030  85.191  69.436  1.00  0.00    -0.003 C 
ATOM      7  C   UNL     1      75.960  84.830  70.616  1.00  0.00     0.004 C 
ENDBRANCH   5   6
ENDBRANCH   4   5
ENDBRANCH   3   4
ENDBRANCH   2   3
ENDBRANCH   1   2
BRANCH   1   8
ATOM      8  C   UNL     1      74.673  90.779  68.679  1.00  0.00     0.100 C 
BRANCH   8   9
ATOM      9  C   UNL     1      74.605  89.692  67.672  1.00  0.00     0.220 C 
ATOM     10  O   UNL     1      73.481  89.373  67.215  1.00  0.00    -0.275 OA
ATOM     11  N   UNL     1      75.744  89.077  67.237  1.00  0.00    -0.352 N 
ATOM     12  H   UNL     1      76.581  89.349  67.732  1.00  0.00     0.163 HD
BRANCH  11  13
ATOM     13  C   UNL     1      75.824  88.121  66.175  1.00  0.00     0.151 C 
BRANCH  13  14
ATOM     14  C   UNL     1      76.606  86.904  66.520  1.00  0.00    -0.025 A 
ATOM     15  C   UNL     1      76.383  85.692  65.822  1.00  0.00     0.056 A 
ATOM     16  C   UNL     1      77.578  86.930  67.547  1.00  0.00     0.009 A 
ATOM     17  C   UNL     1      77.130  84.532  66.127  1.00  0.00     0.160 A 
ATOM     18  C   UNL     1      78.325  85.780  67.854  1.00  0.00     0.050 A 
ATOM     19  C   UNL     1      78.100  84.579  67.154  1.00  0.00     0.157 A 
BRANCH  17  20
ATOM     20  O   UNL     1      76.883  83.348  65.479  1.00  0.00    -0.493 OA
ATOM     21  C   UNL     1      76.937  83.440  64.044  1.00  0.00     0.278 C 
ENDBRANCH  17  20
BRANCH  19  22
ATOM     22  O   UNL     1      78.808  83.466  67.477  1.00  0.00    -0.504 OA
ATOM     23  H   UNL     1      78.384  83.021  68.215  1.00  0.00     0.293 HD
ENDBRANCH  19  22
ENDBRANCH  13  14
ENDBRANCH  11  13
ENDBRANCH   8   9
ENDBRANCH   1   8
TORSDOF 11
ENDMDL
MODEL 4
REMARK VINA RESULT:    -5.309     25.257     28.052
REMARK INTER + INTRA:          -9.348
REMARK INTER:                  -8.345
REMARK INTRA:                  -1.002
REMARK UNBOUND:                -0.780
REMARK SMILES CCCCCCCCC(=O)NCc1ccc(O)c(OC)c1
REMARK SMILES IDX 7 1 6 2 5 3 4 4 3 5 2 6 1 7 8 8 9 9 10 10 11 11 12 13 13 14
REMARK SMILES IDX 21 15 14 16 18 17 15 18 16 19 19 20 20 21 17 22
REMARK H PARENT 11 12 17 23
REMARK Flexibility Score: inf
ROOT
ATOM      1  C   UNL     1      99.440  81.931  85.432  1.00  0.00     0.010 C 
ENDROOT
BRANCH   1   2
ATOM      2  C   UNL     1      98.866  81.364  86.762  1.00  0.00     0.001 C 
BRANCH   2   3
ATOM      3  C   UNL     1      98.782  82.447  87.877  1.00  0.00     0.000 C 
BRANCH   3   4
ATOM      4  C   UNL     1      98.230  83.814  87.382  1.00  0.00    -0.000 C 
BRANCH   4   5
ATOM      5  C   UNL     1      96.709  83.767  87.062  1.00  0.00    -0.000 C 
BRANCH   5   6
ATOM      6  C   UNL     1      96.382  84.310  85.645  1.00  0.00    -0.003 C 
ATOM      7  C   UNL     1      97.360  85.412  85.183  1.00  0.00     0.004 C 
ENDBRANCH   5   6
ENDBRANCH   4   5
ENDBRANCH   3   4
ENDBRANCH   2   3
ENDBRANCH   1   2
BRANCH   1   8
ATOM      8  C   UNL     1      98.529  81.686  84.197  1.00  0.00     0.100 C 
BRANCH   8   9
ATOM      9  C   UNL     1      99.329  81.531  82.958  1.00  0.00     0.220 C 
ATOM     10  O   UNL     1      99.615  80.371  82.575  1.00  0.00    -0.275 OA
ATOM     11  N   UNL     1      99.717  82.627  82.241  1.00  0.00    -0.352 N 
ATOM     12  H   UNL     1      99.509  83.510  82.683  1.00  0.00     0.163 HD
BRANCH  11  13
ATOM     13  C   UNL     1     100.364  82.604  80.965  1.00  0.00     0.151 C 
BRANCH  13  14
ATOM     14  C   UNL     1      99.463  82.929  79.828  1.00  0.00    -0.025 A 
ATOM     15  C   UNL     1      99.954  82.904  78.500  1.00  0.00     0.056 A 
ATOM     16  C   UNL     1      98.109  83.271  80.048  1.00  0.00     0.009 A 
ATOM     17  C   UNL     1      99.104  83.194  77.407  1.00  0.00     0.160 A 
ATOM     18  C   UNL     1      97.259  83.560  78.965  1.00  0.00     0.050 A 
ATOM     19  C   UNL     1      97.753  83.530  77.647  1.00  0.00     0.157 A 
BRANCH  17  20
ATOM     20  O   UNL     1      99.592  83.210  76.125  1.00  0.00    -0.493 OA
ATOM     21  C   UNL     1     100.134  84.478  75.717  1.00  0.00     0.278 C 
ENDBRANCH  17  20
BRANCH  19  22
ATOM     22  O   UNL     1      96.931  83.837  76.611  1.00  0.00    -0.504 OA
ATOM     23  H   UNL     1      96.620  83.027  76.199  1.00  0.00     0.293 HD
ENDBRANCH  19  22
ENDBRANCH  13  14
ENDBRANCH  11  13
ENDBRANCH   8   9
ENDBRANCH   1   8
TORSDOF 11
ENDMDL
MODEL 5
REMARK VINA RESULT:    -5.223      6.271     11.670
REMARK INTER + INTRA:          -9.208
REMARK INTER:                  -8.512
REMARK INTRA:                  -0.696
REMARK UNBOUND:                -0.780
REMARK SMILES CCCCCCCCC(=O)NCc1ccc(O)c(OC)c1
REMARK SMILES IDX 7 1 6 2 5 3 4 4 3 5 2 6 1 7 8 8 9 9 10 10 11 11 12 13 13 14
REMARK SMILES IDX 21 15 14 16 18 17 15 18 16 19 19 20 20 21 17 22
REMARK H PARENT 11 12 17 23
REMARK Flexibility Score: inf
ROOT
ATOM      1  C   UNL     1      75.964  88.810  70.311  1.00  0.00     0.010 C 
ENDROOT
BRANCH   1   2
ATOM      2  C   UNL     1      76.367  87.370  69.883  1.00  0.00     0.001 C 
BRANCH   2   3
ATOM      3  C   UNL     1      75.217  86.344  70.107  1.00  0.00     0.000 C 
BRANCH   3   4
ATOM      4  C   UNL     1      75.667  85.045  70.833  1.00  0.00    -0.000 C 
BRANCH   4   5
ATOM      5  C   UNL     1      77.034  84.512  70.317  1.00  0.00    -0.000 C 
BRANCH   5   6
ATOM      6  C   UNL     1      76.944  83.935  68.879  1.00  0.00    -0.003 C 
ATOM      7  C   UNL     1      78.032  84.496  67.937  1.00  0.00     0.004 C 
ENDBRANCH   5   6
ENDBRANCH   4   5
ENDBRANCH   3   4
ENDBRANCH   2   3
ENDBRANCH   1   2
BRANCH   1   8
ATOM      8  C   UNL     1      74.530  88.912  70.904  1.00  0.00     0.100 C 
BRANCH   8   9
ATOM      9  C   UNL     1      74.342  90.182  71.646  1.00  0.00     0.220 C 
ATOM     10  O   UNL     1      73.346  90.288  72.400  1.00  0.00    -0.275 OA
ATOM     11  N   UNL     1      75.251  91.194  71.530  1.00  0.00    -0.352 N 
ATOM     12  H   UNL     1      75.964  91.037  70.833  1.00  0.00     0.163 HD
BRANCH  11  13
ATOM     13  C   UNL     1      75.257  92.404  72.295  1.00  0.00     0.151 C 
BRANCH  13  14
ATOM     14  C   UNL     1      76.366  93.331  71.945  1.00  0.00    -0.025 A 
ATOM     15  C   UNL     1      76.170  94.344  70.976  1.00  0.00     0.056 A 
ATOM     16  C   UNL     1      77.631  93.217  72.567  1.00  0.00     0.009 A 
ATOM     17  C   UNL     1      77.210  95.243  70.646  1.00  0.00     0.160 A 
ATOM     18  C   UNL     1      78.669  94.109  72.244  1.00  0.00     0.050 A 
ATOM     19  C   UNL     1      78.466  95.116  71.281  1.00  0.00     0.157 A 
BRANCH  17  20
ATOM     20  O   UNL     1      77.030  96.197  69.676  1.00  0.00    -0.493 OA
ATOM     21  C   UNL     1      76.146  97.265  70.058  1.00  0.00     0.278 C 
ENDBRANCH  17  20
BRANCH  19  22
ATOM     22  O   UNL     1      79.483  95.955  70.956  1.00  0.00    -0.504 OA
ATOM     23  H   UNL     1      79.150  96.659  70.394  1.00  0.00     0.293 HD
ENDBRANCH  19  22
ENDBRANCH  13  14
ENDBRANCH  11  13
ENDBRANCH   8   9
ENDBRANCH   1   8
TORSDOF 11
ENDMDL
MODEL 6
REMARK VINA RESULT:    -5.188      2.000      3.059
REMARK INTER + INTRA:          -9.151
REMARK INTER:                  -8.528
REMARK INTRA:                  -0.623
REMARK UNBOUND:                -0.780
REMARK SMILES CCCCCCCCC(=O)NCc1ccc(O)c(OC)c1
REMARK SMILES IDX 7 1 6 2 5 3 4 4 3 5 2 6 1 7 8 8 9 9 10 10 11 11 12 13 13 14
REMARK SMILES IDX 21 15 14 16 18 17 15 18 16 19 19 20 20 21 17 22
REMARK H PARENT 11 12 17 23
REMARK Flexibility Score: inf
ROOT
ATOM      1  C   UNL     1      76.221  87.396  69.832  1.00  0.00     0.010 C 
ENDROOT
BRANCH   1   2
ATOM      2  C   UNL     1      76.113  88.859  70.350  1.00  0.00     0.001 C 
BRANCH   2   3
ATOM      3  C   UNL     1      74.716  89.485  70.063  1.00  0.00     0.000 C 
BRANCH   3   4
ATOM      4  C   UNL     1      74.002  90.032  71.330  1.00  0.00    -0.000 C 
BRANCH   4   5
ATOM      5  C   UNL     1      73.247  88.924  72.119  1.00  0.00    -0.000 C 
BRANCH   5   6
ATOM      6  C   UNL     1      71.834  89.376  72.576  1.00  0.00    -0.003 C 
ATOM      7  C   UNL     1      70.699  88.697  71.777  1.00  0.00     0.004 C 
ENDBRANCH   5   6
ENDBRANCH   4   5
ENDBRANCH   3   4
ENDBRANCH   2   3
ENDBRANCH   1   2
BRANCH   1   8
ATOM      8  C   UNL     1      77.680  86.921  69.586  1.00  0.00     0.100 C 
BRANCH   8   9
ATOM      9  C   UNL     1      77.816  86.253  68.270  1.00  0.00     0.220 C 
ATOM     10  O   UNL     1      77.985  86.968  67.254  1.00  0.00    -0.275 OA
ATOM     11  N   UNL     1      77.787  84.891  68.177  1.00  0.00    -0.352 N 
ATOM     12  H   UNL     1      77.560  84.418  69.039  1.00  0.00     0.163 HD
BRANCH  11  13
ATOM     13  C   UNL     1      78.046  84.128  66.994  1.00  0.00     0.151 C 
BRANCH  13  14
ATOM     14  C   UNL     1      76.911  83.264  66.575  1.00  0.00    -0.025 A 
ATOM     15  C   UNL     1      75.580  83.642  66.874  1.00  0.00     0.056 A 
ATOM     16  C   UNL     1      77.137  82.055  65.877  1.00  0.00     0.009 A 
ATOM     17  C   UNL     1      74.489  82.839  66.466  1.00  0.00     0.160 A 
ATOM     18  C   UNL     1      76.056  81.252  65.469  1.00  0.00     0.050 A 
ATOM     19  C   UNL     1      74.735  81.636  65.767  1.00  0.00     0.157 A 
BRANCH  17  20
ATOM     20  O   UNL     1      73.203  83.185  66.794  1.00  0.00    -0.493 OA
ATOM     21  C   UNL     1      72.632  84.198  65.947  1.00  0.00     0.278 C 
ENDBRANCH  17  20
BRANCH  19  22
ATOM     22  O   UNL     1      73.700  80.841  65.392  1.00  0.00    -0.504 OA
ATOM     23  H   UNL     1      73.178  81.289  64.722  1.00  0.00     0.293 HD
ENDBRANCH  19  22
ENDBRANCH  13  14
ENDBRANCH  11  13
ENDBRANCH   8   9
ENDBRANCH   1   8
TORSDOF 11
ENDMDL
MODEL 7
REMARK VINA RESULT:    -5.145     11.848     15.131
REMARK INTER + INTRA:          -9.083
REMARK INTER:                  -7.797
REMARK INTRA:                  -1.286
REMARK UNBOUND:                -0.780
REMARK SMILES CCCCCCCCC(=O)NCc1ccc(O)c(OC)c1
REMARK SMILES IDX 7 1 6 2 5 3 4 4 3 5 2 6 1 7 8 8 9 9 10 10 11 11 12 13 13 14
REMARK SMILES IDX 21 15 14 16 18 17 15 18 16 19 19 20 20 21 17 22
REMARK H PARENT 11 12 17 23
REMARK Flexibility Score: inf
ROOT
ATOM      1  C   UNL     1      58.932  86.169  72.819  1.00  0.00     0.010 C 
ENDROOT
BRANCH   1   2
ATOM      2  C   UNL     1      60.369  86.320  73.397  1.00  0.00     0.001 C 
BRANCH   2   3
ATOM      3  C   UNL     1      61.066  84.944  73.611  1.00  0.00     0.000 C 
BRANCH   3   4
ATOM      4  C   UNL     1      61.467  84.666  75.087  1.00  0.00    -0.000 C 
BRANCH   4   5
ATOM      5  C   UNL     1      62.058  83.242  75.291  1.00  0.00    -0.000 C 
BRANCH   5   6
ATOM      6  C   UNL     1      61.782  82.304  74.085  1.00  0.00    -0.003 C 
ATOM      7  C   UNL     1      62.878  81.233  73.896  1.00  0.00     0.004 C 
ENDBRANCH   5   6
ENDBRANCH   4   5
ENDBRANCH   3   4
ENDBRANCH   2   3
ENDBRANCH   1   2
BRANCH   1   8
ATOM      8  C   UNL     1      58.841  86.416  71.288  1.00  0.00     0.100 C 
BRANCH   8   9
ATOM      9  C   UNL     1      59.251  85.215  70.521  1.00  0.00     0.220 C 
ATOM     10  O   UNL     1      58.383  84.347  70.264  1.00  0.00    -0.275 OA
ATOM     11  N   UNL     1      60.537  85.078  70.083  1.00  0.00    -0.352 N 
ATOM     12  H   UNL     1      61.171  85.789  70.419  1.00  0.00     0.163 HD
BRANCH  11  13
ATOM     13  C   UNL     1      61.021  84.043  69.221  1.00  0.00     0.151 C 
BRANCH  13  14
ATOM     14  C   UNL     1      62.297  83.429  69.675  1.00  0.00    -0.025 A 
ATOM     15  C   UNL     1      62.947  83.913  70.836  1.00  0.00     0.056 A 
ATOM     16  C   UNL     1      62.885  82.361  68.959  1.00  0.00     0.009 A 
ATOM     17  C   UNL     1      64.152  83.329  71.289  1.00  0.00     0.160 A 
ATOM     18  C   UNL     1      64.083  81.774  69.406  1.00  0.00     0.050 A 
ATOM     19  C   UNL     1      64.722  82.259  70.563  1.00  0.00     0.157 A 
BRANCH  17  20
ATOM     20  O   UNL     1      64.802  83.827  72.390  1.00  0.00    -0.493 OA
ATOM     21  C   UNL     1      65.499  85.063  72.153  1.00  0.00     0.278 C 
ENDBRANCH  17  20
BRANCH  19  22
ATOM     22  O   UNL     1      65.893  81.704  70.970  1.00  0.00    -0.504 OA
ATOM     23  H   UNL     1      66.481  82.394  71.285  1.00  0.00     0.293 HD
ENDBRANCH  19  22
ENDBRANCH  13  14
ENDBRANCH  11  13
ENDBRANCH   8   9
ENDBRANCH   1   8
TORSDOF 11
ENDMDL
MODEL 8
REMARK VINA RESULT:    -5.097      2.267      3.466
REMARK INTER + INTRA:          -9.005
REMARK INTER:                  -8.046
REMARK INTRA:                  -0.959
REMARK UNBOUND:                -0.780
REMARK SMILES CCCCCCCCC(=O)NCc1ccc(O)c(OC)c1
REMARK SMILES IDX 7 1 6 2 5 3 4 4 3 5 2 6 1 7 8 8 9 9 10 10 11 11 12 13 13 14
REMARK SMILES IDX 21 15 14 16 18 17 15 18 16 19 19 20 20 21 17 22
REMARK H PARENT 11 12 17 23
REMARK Flexibility Score: inf
ROOT
ATOM      1  C   UNL     1      75.846  85.892  69.950  1.00  0.00     0.010 C 
ENDROOT
BRANCH   1   2
ATOM      2  C   UNL     1      74.938  87.063  70.425  1.00  0.00     0.001 C 
BRANCH   2   3
ATOM      3  C   UNL     1      75.693  88.425  70.438  1.00  0.00     0.000 C 
BRANCH   3   4
ATOM      4  C   UNL     1      75.162  89.446  69.393  1.00  0.00    -0.000 C 
BRANCH   4   5
ATOM      5  C   UNL     1      75.115  88.861  67.953  1.00  0.00    -0.000 C 
BRANCH   5   6
ATOM      6  C   UNL     1      75.035  89.964  66.864  1.00  0.00    -0.003 C 
ATOM      7  C   UNL     1      74.232  89.523  65.620  1.00  0.00     0.004 C 
ENDBRANCH   5   6
ENDBRANCH   4   5
ENDBRANCH   3   4
ENDBRANCH   2   3
ENDBRANCH   1   2
BRANCH   1   8
ATOM      8  C   UNL     1      77.319  86.307  69.682  1.00  0.00     0.100 C 
BRANCH   8   9
ATOM      9  C   UNL     1      77.833  85.697  68.431  1.00  0.00     0.220 C 
ATOM     10  O   UNL     1      78.306  86.455  67.551  1.00  0.00    -0.275 OA
ATOM     11  N   UNL     1      77.813  84.343  68.260  1.00  0.00    -0.352 N 
ATOM     12  H   UNL     1      77.333  83.837  68.990  1.00  0.00     0.163 HD
BRANCH  11  13
ATOM     13  C   UNL     1      78.403  83.630  67.169  1.00  0.00     0.151 C 
BRANCH  13  14
ATOM     14  C   UNL     1      77.445  83.297  66.080  1.00  0.00    -0.025 A 
ATOM     15  C   UNL     1      77.240  84.203  65.011  1.00  0.00     0.056 A 
ATOM     16  C   UNL     1      76.723  82.082  66.093  1.00  0.00     0.009 A 
ATOM     17  C   UNL     1      76.345  83.893  63.961  1.00  0.00     0.160 A 
ATOM     18  C   UNL     1      75.834  81.767  65.051  1.00  0.00     0.050 A 
ATOM     19  C   UNL     1      75.636  82.671  63.989  1.00  0.00     0.157 A 
BRANCH  17  20
ATOM     20  O   UNL     1      76.116  84.790  62.948  1.00  0.00    -0.493 OA
ATOM     21  C   UNL     1      75.353  85.943  63.344  1.00  0.00     0.278 C 
ENDBRANCH  17  20
BRANCH  19  22
ATOM     22  O   UNL     1      74.754  82.371  63.001  1.00  0.00    -0.504 OA
ATOM     23  H   UNL     1      75.234  82.087  62.220  1.00  0.00     0.293 HD
ENDBRANCH  19  22
ENDBRANCH  13  14
ENDBRANCH  11  13
ENDBRANCH   8   9
ENDBRANCH   1   8
TORSDOF 11
ENDMDL
MODEL 9
REMARK VINA RESULT:    -5.095      2.820      6.399
REMARK INTER + INTRA:          -9.001
REMARK INTER:                  -7.845
REMARK INTRA:                  -1.156
REMARK UNBOUND:                -0.780
REMARK SMILES CCCCCCCCC(=O)NCc1ccc(O)c(OC)c1
REMARK SMILES IDX 7 1 6 2 5 3 4 4 3 5 2 6 1 7 8 8 9 9 10 10 11 11 12 13 13 14
REMARK SMILES IDX 21 15 14 16 18 17 15 18 16 19 19 20 20 21 17 22
REMARK H PARENT 11 12 17 23
REMARK Flexibility Score: inf
ROOT
ATOM      1  C   UNL     1      72.893  80.227  64.308  1.00  0.00     0.010 C 
ENDROOT
BRANCH   1   2
ATOM      2  C   UNL     1      71.888  81.387  64.564  1.00  0.00     0.001 C 
BRANCH   2   3
ATOM      3  C   UNL     1      71.803  81.771  66.071  1.00  0.00     0.000 C 
BRANCH   3   4
ATOM      4  C   UNL     1      70.826  82.945  66.365  1.00  0.00    -0.000 C 
BRANCH   4   5
ATOM      5  C   UNL     1      69.976  82.711  67.646  1.00  0.00    -0.000 C 
BRANCH   5   6
ATOM      6  C   UNL     1      70.322  83.712  68.781  1.00  0.00    -0.003 C 
ATOM      7  C   UNL     1      69.675  83.334  70.132  1.00  0.00     0.004 C 
ENDBRANCH   5   6
ENDBRANCH   4   5
ENDBRANCH   3   4
ENDBRANCH   2   3
ENDBRANCH   1   2
BRANCH   1   8
ATOM      8  C   UNL     1      73.967  80.551  63.232  1.00  0.00     0.100 C 
BRANCH   8   9
ATOM      9  C   UNL     1      75.164  81.183  63.837  1.00  0.00     0.220 C 
ATOM     10  O   UNL     1      76.017  81.694  63.073  1.00  0.00    -0.275 OA
ATOM     11  N   UNL     1      75.312  81.231  65.193  1.00  0.00    -0.352 N 
ATOM     12  H   UNL     1      74.613  80.716  65.708  1.00  0.00     0.163 HD
BRANCH  11  13
ATOM     13  C   UNL     1      76.343  81.931  65.897  1.00  0.00     0.151 C 
BRANCH  13  14
ATOM     14  C   UNL     1      75.844  83.060  66.728  1.00  0.00    -0.025 A 
ATOM     15  C   UNL     1      76.580  83.494  67.856  1.00  0.00     0.056 A 
ATOM     16  C   UNL     1      74.631  83.714  66.411  1.00  0.00     0.009 A 
ATOM     17  C   UNL     1      76.127  84.577  68.644  1.00  0.00     0.160 A 
ATOM     18  C   UNL     1      74.175  84.792  67.191  1.00  0.00     0.050 A 
ATOM     19  C   UNL     1      74.915  85.221  68.310  1.00  0.00     0.157 A 
BRANCH  17  20
ATOM     20  O   UNL     1      76.821  84.969  69.762  1.00  0.00    -0.493 OA
ATOM     21  C   UNL     1      76.580  84.151  70.921  1.00  0.00     0.278 C 
ENDBRANCH  17  20
BRANCH  19  22
ATOM     22  O   UNL     1      74.453  86.244  69.073  1.00  0.00    -0.504 OA
ATOM     23  H   UNL     1      74.244  85.920  69.952  1.00  0.00     0.293 HD
ENDBRANCH  19  22
ENDBRANCH  13  14
ENDBRANCH  11  13
ENDBRANCH   8   9
ENDBRANCH   1   8
TORSDOF 11
ENDMDL
MODEL 10
REMARK VINA RESULT:    -5.065      2.518      3.543
REMARK INTER + INTRA:          -8.954
REMARK INTER:                  -7.720
REMARK INTRA:                  -1.234
REMARK UNBOUND:                -0.780
REMARK SMILES CCCCCCCCC(=O)NCc1ccc(O)c(OC)c1
REMARK SMILES IDX 7 1 6 2 5 3 4 4 3 5 2 6 1 7 8 8 9 9 10 10 11 11 12 13 13 14
REMARK SMILES IDX 21 15 14 16 18 17 15 18 16 19 19 20 20 21 17 22
REMARK H PARENT 11 12 17 23
REMARK Flexibility Score: inf
ROOT
ATOM      1  C   UNL     1      77.151  86.539  66.846  1.00  0.00     0.010 C 
ENDROOT
BRANCH   1   2
ATOM      2  C   UNL     1      78.251  86.871  67.895  1.00  0.00     0.001 C 
BRANCH   2   3
ATOM      3  C   UNL     1      77.760  86.642  69.355  1.00  0.00     0.000 C 
BRANCH   3   4
ATOM      4  C   UNL     1      77.515  85.148  69.707  1.00  0.00    -0.000 C 
BRANCH   4   5
ATOM      5  C   UNL     1      76.233  84.935  70.562  1.00  0.00    -0.000 C 
BRANCH   5   6
ATOM      6  C   UNL     1      75.115  85.957  70.223  1.00  0.00    -0.003 C 
ATOM      7  C   UNL     1      74.235  85.512  69.034  1.00  0.00     0.004 C 
ENDBRANCH   5   6
ENDBRANCH   4   5
ENDBRANCH   3   4
ENDBRANCH   2   3
ENDBRANCH   1   2
BRANCH   1   8
ATOM      8  C   UNL     1      76.317  87.772  66.397  1.00  0.00     0.100 C 
BRANCH   8   9
ATOM      9  C   UNL     1      75.245  87.382  65.449  1.00  0.00     0.220 C 
ATOM     10  O   UNL     1      74.917  88.197  64.554  1.00  0.00    -0.275 OA
ATOM     11  N   UNL     1      74.655  86.154  65.537  1.00  0.00    -0.352 N 
ATOM     12  H   UNL     1      74.932  85.614  66.343  1.00  0.00     0.163 HD
BRANCH  11  13
ATOM     13  C   UNL     1      73.716  85.609  64.603  1.00  0.00     0.151 C 
BRANCH  13  14
ATOM     14  C   UNL     1      73.364  84.188  64.865  1.00  0.00    -0.025 A 
ATOM     15  C   UNL     1      74.377  83.247  65.168  1.00  0.00     0.056 A 
ATOM     16  C   UNL     1      72.020  83.751  64.812  1.00  0.00     0.009 A 
ATOM     17  C   UNL     1      74.055  81.897  65.436  1.00  0.00     0.160 A 
ATOM     18  C   UNL     1      71.694  82.410  65.078  1.00  0.00     0.050 A 
ATOM     19  C   UNL     1      72.706  81.479  65.383  1.00  0.00     0.157 A 
BRANCH  17  20
ATOM     20  O   UNL     1      75.042  80.978  65.689  1.00  0.00    -0.493 OA
ATOM     21  C   UNL     1      76.365  81.538  65.758  1.00  0.00     0.278 C 
ENDBRANCH  17  20
BRANCH  19  22
ATOM     22  O   UNL     1      72.383  80.181  65.611  1.00  0.00    -0.504 OA
ATOM     23  H   UNL     1      72.076  80.082  66.515  1.00  0.00     0.293 HD
ENDBRANCH  19  22
ENDBRANCH  13  14
ENDBRANCH  11  13
ENDBRANCH   8   9
ENDBRANCH   1   8
TORSDOF 11
ENDMDL
