REMARK SMILES COc1cc(CNC(=O)CCCCCCC(C)C)ccc1O
REMARK SMILES IDX 11 1 10 2 8 3 7 4 9 6 6 7 5 8 3 9 21 10 4 11 20 12 19 13
REMARK SMILES IDX 2 14 1 15 22 16 12 18 13 19 14 20 15 21 16 22 17 23 18 24
REMARK H PARENT 7 5 22 17
REMARK Flexibility Score: inf
ROOT
ATOM      1  C   UNL     1       2.204   0.051   6.969  1.00  0.00     0.010 C 
ENDROOT
BRANCH   1   2
ATOM      2  C   UNL     1       0.778  -0.263   7.500  1.00  0.00     0.100 C 
BRANCH   2   3
ATOM      3  C   UNL     1      -0.296   0.134   6.562  1.00  0.00     0.220 C 
ATOM      4  N   UNL     1      -0.428  -0.496   5.359  1.00  0.00    -0.352 N 
ATOM      5  H   UNL     1       0.277  -1.193   5.169  1.00  0.00     0.163 HD
ATOM      6  O   UNL     1      -1.092   1.041   6.908  1.00  0.00    -0.275 OA
BRANCH   4   7
ATOM      7  C   UNL     1      -1.459  -0.238   4.400  1.00  0.00     0.151 C 
BRANCH   7   8
ATOM      8  C   UNL     1      -1.340   1.099   3.756  1.00  0.00    -0.025 A 
ATOM      9  C   UNL     1      -2.044   3.449   3.582  1.00  0.00     0.160 A 
ATOM     10  C   UNL     1      -1.089   3.662   2.564  1.00  0.00     0.157 A 
ATOM     11  C   UNL     1      -2.175   2.167   4.156  1.00  0.00     0.056 A 
ATOM     12  C   UNL     1      -0.279   2.597   2.130  1.00  0.00     0.050 A 
ATOM     13  C   UNL     1      -0.395   1.327   2.728  1.00  0.00     0.009 A 
BRANCH   9  14
ATOM     14  O   UNL     1      -2.864   4.468   3.984  1.00  0.00    -0.493 OA
ATOM     15  C   UNL     1      -2.414   5.139   5.175  1.00  0.00     0.278 C 
ENDBRANCH   9  14
BRANCH  10  16
ATOM     16  O   UNL     1      -0.942   4.886   1.992  1.00  0.00    -0.504 OA
ATOM     17  H   UNL     1      -0.862   5.552   2.679  1.00  0.00     0.293 HD
ENDBRANCH  10  16
ENDBRANCH   7   8
ENDBRANCH   4   7
ENDBRANCH   2   3
ENDBRANCH   1   2
BRANCH   1  18
ATOM     18  C   UNL     1       3.299  -0.198   8.045  1.00  0.00     0.001 C 
BRANCH  18  19
ATOM     19  C   UNL     1       4.748  -0.172   7.482  1.00  0.00     0.000 C 
BRANCH  19  20
ATOM     20  C   UNL     1       5.801  -0.404   8.602  1.00  0.00     0.000 C 
BRANCH  20  21
ATOM     21  C   UNL     1       7.255  -0.580   8.083  1.00  0.00     0.003 C 
BRANCH  21  22
ATOM     22  C   UNL     1       8.338  -0.686   9.206  1.00  0.00    -0.017 C 
ATOM     23  C   UNL     1       9.765  -0.654   8.590  1.00  0.00     0.007 C 
ATOM     24  C   UNL     1       8.168  -1.933  10.123  1.00  0.00     0.007 C 
ENDBRANCH  21  22
ENDBRANCH  20  21
ENDBRANCH  19  20
ENDBRANCH  18  19
ENDBRANCH   1  18
TORSDOF 11
