REMARK SMILES COc1cc(CNC(=O)CCCCCCCC(C)C)ccc1O
REMARK SMILES IDX 11 1 10 2 8 3 9 4 7 5 6 7 5 8 4 9 20 10 3 11 21 12 22 13
REMARK SMILES IDX 2 14 1 15 23 16 12 18 13 19 14 20 15 21 16 22 17 23 18 24
REMARK SMILES IDX 19 25
REMARK H PARENT 7 6 23 17
REMARK Flexibility Score: inf
ROOT
ATOM      1  C   UNL     1       1.558  -4.127  -0.043  1.00  0.00     0.010 C 
ENDROOT
BRANCH   1   2
ATOM      2  C   UNL     1       2.244  -3.204  -1.048  1.00  0.00     0.100 C 
BRANCH   2   3
ATOM      3  C   UNL     1       2.910  -2.013  -0.379  1.00  0.00     0.220 C 
ATOM      4  O   UNL     1       3.362  -2.047   0.762  1.00  0.00    -0.275 OA
ATOM      5  N   UNL     1       2.929  -0.905  -1.213  1.00  0.00    -0.352 N 
ATOM      6  H   UNL     1       2.519  -0.968  -2.141  1.00  0.00     0.163 HD
BRANCH   5   7
ATOM      7  C   UNL     1       3.498   0.363  -0.818  1.00  0.00     0.151 C 
BRANCH   7   8
ATOM      8  C   UNL     1       2.483   1.254  -0.163  1.00  0.00    -0.025 A 
ATOM      9  C   UNL     1       1.731   2.127  -0.940  1.00  0.00     0.056 A 
ATOM     10  C   UNL     1       2.306   1.197   1.214  1.00  0.00     0.009 A 
ATOM     11  C   UNL     1       0.788   2.955  -0.331  1.00  0.00     0.160 A 
ATOM     12  C   UNL     1       1.363   2.026   1.823  1.00  0.00     0.050 A 
ATOM     13  C   UNL     1       0.604   2.905   1.051  1.00  0.00     0.157 A 
BRANCH  11  14
ATOM     14  O   UNL     1       0.053   3.810  -1.096  1.00  0.00    -0.493 OA
ATOM     15  C   UNL     1      -1.183   3.318  -1.612  1.00  0.00     0.278 C 
ENDBRANCH  11  14
BRANCH  13  16
ATOM     16  O   UNL     1      -0.314   3.708   1.657  1.00  0.00    -0.504 OA
ATOM     17  H   UNL     1      -0.304   3.534   2.614  1.00  0.00     0.293 HD
ENDBRANCH  13  16
ENDBRANCH   7   8
ENDBRANCH   5   7
ENDBRANCH   2   3
ENDBRANCH   1   2
BRANCH   1  18
ATOM     18  C   UNL     1       0.467  -3.433   0.777  1.00  0.00     0.001 C 
BRANCH  18  19
ATOM     19  C   UNL     1      -0.665  -2.791  -0.032  1.00  0.00     0.000 C 
BRANCH  19  20
ATOM     20  C   UNL     1      -1.769  -2.191   0.843  1.00  0.00     0.000 C 
BRANCH  20  21
ATOM     21  C   UNL     1      -2.898  -1.538   0.038  1.00  0.00     0.000 C 
BRANCH  21  22
ATOM     22  C   UNL     1      -3.987  -0.914   0.917  1.00  0.00     0.003 C 
BRANCH  22  23
ATOM     23  C   UNL     1      -5.088  -0.195   0.113  1.00  0.00    -0.017 C 
ATOM     24  C   UNL     1      -5.860  -1.212  -0.731  1.00  0.00     0.007 C 
ATOM     25  C   UNL     1      -4.530   0.905  -0.791  1.00  0.00     0.007 C 
ENDBRANCH  22  23
ENDBRANCH  21  22
ENDBRANCH  20  21
ENDBRANCH  19  20
ENDBRANCH  18  19
ENDBRANCH   1  18
TORSDOF 12
