REMARK SMILES O=C(/C=C/C=C/c1ccc2c(c1)OCO2)N1CCCCC1
REMARK SMILES IDX 3 1 4 2 2 3 1 4 16 5 17 6 21 7 18 8 20 9 19 10 5 11 6 12
REMARK SMILES IDX 7 13 12 14 8 15 11 16 9 17 13 18 10 19 14 20 15 21
REMARK H PARENT
REMARK Flexibility Score: inf
ROOT
ATOM      1  C   UNL     1      -2.098   0.196   0.667  1.00  0.00     0.071 C 
ATOM      2  C   UNL     1      -1.087   0.971   0.279  1.00  0.00     0.006 C 
ENDROOT
BRANCH   1   3
ATOM      3  C   UNL     1      -3.453   0.782   0.691  1.00  0.00     0.246 C 
ATOM      4  O   UNL     1      -3.547   1.989   0.917  1.00  0.00    -0.270 OA
ATOM      5  N   UNL     1      -4.533  -0.069   0.462  1.00  0.00    -0.339 N 
ATOM      6  C   UNL     1      -5.891   0.483   0.485  1.00  0.00     0.120 C 
ATOM      7  C   UNL     1      -4.463  -1.520   0.234  1.00  0.00     0.120 C 
ATOM      8  C   UNL     1      -6.659   0.126  -0.783  1.00  0.00     0.022 C 
ATOM      9  C   UNL     1      -5.226  -1.919  -1.029  1.00  0.00     0.022 C 
ATOM     10  C   UNL     1      -6.654  -1.381  -1.019  1.00  0.00     0.004 C 
ENDBRANCH   1   3
BRANCH   2  11
ATOM     11  C   UNL     1       0.276   0.487   0.223  1.00  0.00     0.001 C 
ATOM     12  C   UNL     1       1.305   1.257  -0.166  1.00  0.00     0.008 C 
BRANCH  12  13
ATOM     13  C   UNL     1       2.707   0.814  -0.249  1.00  0.00    -0.022 A 
ATOM     14  C   UNL     1       3.104  -0.309   0.464  1.00  0.00     0.058 A 
ATOM     15  C   UNL     1       3.600   1.537  -1.044  1.00  0.00     0.012 A 
ATOM     16  C   UNL     1       4.427  -0.685   0.354  1.00  0.00     0.166 A 
ATOM     17  C   UNL     1       4.934   1.134  -1.137  1.00  0.00     0.051 A 
ATOM     18  O   UNL     1       5.008  -1.750   0.972  1.00  0.00    -0.454 OA
ATOM     19  C   UNL     1       5.318   0.017  -0.425  1.00  0.00     0.165 A 
ATOM     20  C   UNL     1       6.364  -1.639   0.494  1.00  0.00     0.468 C 
ATOM     21  O   UNL     1       6.568  -0.520  -0.393  1.00  0.00    -0.454 OA
ENDBRANCH  12  13
ENDBRANCH   2  11
TORSDOF 3
