REMARK SMILES C=C(C)[C@]12C[C@@H](C)[C@@]34O[C@](Cc5ccccc5)(O[C@@H]1[C@@H]3C=C(COC(=O)Cc1ccc(O)c(OC)c1)C[C@]1(O)C(=O)C(C)=C[C@@H]41)O2
REMARK SMILES IDX 23 1 22 2 21 3 20 4 9 5 8 6 10 7 6 8 18 9 46 10 19 11 5 12
REMARK SMILES IDX 7 13 4 14 45 15 38 16 44 17 40 18 42 20 41 21 43 22 39 23
REMARK SMILES IDX 11 25 12 26 13 27 17 28 14 29 16 30 15 31 2 32 3 33 1 34
REMARK SMILES IDX 37 35 24 37 25 38 26 39 27 40 28 41 36 42 29 43 33 44 30 45
REMARK SMILES IDX 31 46 34 47 35 48 32 49
REMARK H PARENT 39 24 32 50
REMARK Flexibility Score: 90.00
ROOT
ATOM      1  C   UNL     1      -1.813   3.343   1.998  1.00  0.00     0.264 C 
ENDROOT
BRANCH   1   2
ATOM      2  C   UNL     1      -0.929   2.853   0.875  1.00  0.00    -0.033 C 
ATOM      3  C   UNL     1       0.355   2.536   1.137  1.00  0.00    -0.015 C 
BRANCH   3   4
ATOM      4  C   UNL     1       1.455   2.100   0.183  1.00  0.00     0.078 C 
ATOM      5  O   UNL     1       1.403  -0.372   0.105  1.00  0.00    -0.319 OA
ATOM      6  C   UNL     1       1.211   0.826  -0.709  1.00  0.00     0.095 C 
ATOM      7  C   UNL     1       2.538  -0.340   0.991  1.00  0.00     0.289 C 
ATOM      8  C   UNL     1       2.284   0.844  -1.875  1.00  0.00     0.023 C 
ATOM      9  O   UNL     1       2.468   0.771   1.881  1.00  0.00    -0.320 OA
ATOM     10  O   UNL     1       3.769  -0.193   0.288  1.00  0.00    -0.313 OA
ATOM     11  C   UNL     1       2.763   1.842   0.971  1.00  0.00     0.170 C 
ATOM     12  C   UNL     1       3.630   1.475  -1.403  1.00  0.00     0.049 C 
ATOM     13  C   UNL     1       2.561  -0.515  -2.538  1.00  0.00     0.011 C 
ATOM     14  C   UNL     1       3.878   1.231   0.086  1.00  0.00     0.122 C 
BRANCH   6  15
ATOM     15  C   UNL     1      -0.274   0.750  -1.168  1.00  0.00     0.086 C 
ATOM     16  C   UNL     1      -0.919   2.081  -1.607  1.00  0.00     0.140 CG0
ATOM     17  C   UNL     1      -0.658  -0.203  -2.265  1.00  0.00    -0.010 C 
ATOM     18  C   UNL     1      -1.859   1.640  -2.709  1.00  0.00     0.190 C 
ATOM     19  G   UNL     1      -1.649   2.775  -0.458  1.00  0.00     0.000 G0
ATOM     20  C   UNL     1      -1.567   0.257  -3.131  1.00  0.00    -0.008 C 
ATOM     21  O   UNL     1      -2.717   2.337  -3.229  1.00  0.00    -0.291 OA
ATOM     22  C   UNL     1      -2.229  -0.420  -4.265  1.00  0.00     0.048 C 
BRANCH  16  23
ATOM     23  O   UNL     1      -0.023   2.965  -2.260  1.00  0.00    -0.381 OA
ATOM     24  H   UNL     1      -0.506   3.775  -2.493  1.00  0.00     0.212 HD
ENDBRANCH  16  23
ENDBRANCH   6  15
BRANCH   7  25
ATOM     25  C   UNL     1       2.559  -1.631   1.784  1.00  0.00     0.135 C 
BRANCH  25  26
ATOM     26  C   UNL     1       2.633  -2.843   0.889  1.00  0.00    -0.040 A 
ATOM     27  C   UNL     1       1.460  -3.447   0.435  1.00  0.00     0.004 A 
ATOM     28  C   UNL     1       3.873  -3.359   0.514  1.00  0.00     0.004 A 
ATOM     29  C   UNL     1       1.528  -4.568  -0.393  1.00  0.00     0.000 A 
ATOM     30  C   UNL     1       3.941  -4.480  -0.314  1.00  0.00     0.000 A 
ATOM     31  C   UNL     1       2.768  -5.084  -0.767  1.00  0.00     0.000 A 
ENDBRANCH  25  26
ENDBRANCH   7  25
BRANCH  14  32
ATOM     32  C   UNL     1       5.240   1.665   0.520  1.00  0.00    -0.046 C 
ATOM     33  C   UNL     1       5.566   3.116   0.326  1.00  0.00     0.042 C 
ATOM     34  C   UNL     1       6.122   0.806   1.053  1.00  0.00     0.010 C 
ENDBRANCH  14  32
ENDBRANCH   3   4
BRANCH   2  35
ATOM     35  C   UNL     1      -1.649   2.775  -0.458  1.00  0.00     0.078 CG0
ATOM     36  G   UNL     1      -0.919   2.081  -1.607  1.00  0.00     0.000 G0
ENDBRANCH   2  35
ENDBRANCH   1   2
BRANCH   1  37
ATOM     37  O   UNL     1      -2.905   2.462   2.151  1.00  0.00    -0.461 OA
BRANCH  37  38
ATOM     38  C   UNL     1      -2.723   1.413   3.022  1.00  0.00     0.310 C 
ATOM     39  O   UNL     1      -1.701   1.198   3.659  1.00  0.00    -0.252 OA
BRANCH  38  40
ATOM     40  C   UNL     1      -3.977   0.572   3.068  1.00  0.00     0.158 C 
BRANCH  40  41
ATOM     41  C   UNL     1      -3.964  -0.558   2.071  1.00  0.00    -0.033 A 
ATOM     42  C   UNL     1      -4.471  -0.360   0.786  1.00  0.00     0.054 A 
ATOM     43  C   UNL     1      -3.445  -1.801   2.432  1.00  0.00     0.008 A 
ATOM     44  C   UNL     1      -4.459  -1.406  -0.137  1.00  0.00     0.160 A 
ATOM     45  C   UNL     1      -3.433  -2.847   1.509  1.00  0.00     0.050 A 
ATOM     46  C   UNL     1      -3.940  -2.650   0.225  1.00  0.00     0.157 A 
BRANCH  44  47
ATOM     47  O   UNL     1      -4.957  -1.201  -1.388  1.00  0.00    -0.493 OA
ATOM     48  C   UNL     1      -5.469   0.099  -1.677  1.00  0.00     0.278 C 
ENDBRANCH  44  47
BRANCH  46  49
ATOM     49  O   UNL     1      -3.922  -3.678  -0.668  1.00  0.00    -0.504 OA
ATOM     50  H   UNL     1      -3.525  -4.458  -0.245  1.00  0.00     0.293 HD
ENDBRANCH  46  49
ENDBRANCH  40  41
ENDBRANCH  38  40
ENDBRANCH  37  38
ENDBRANCH   1  37
TORSDOF 11
