MODEL 1
REMARK VINA RESULT:    -6.562      0.000      0.000
REMARK INTER + INTRA:         -11.277
REMARK INTER:                 -10.591
REMARK INTRA:                  -0.687
REMARK UNBOUND:                -0.687
REMARK SMILES COc1cc(CNC(=O)CCCCCCC(C)C)ccc1O
REMARK SMILES IDX 11 1 10 2 8 3 7 4 9 6 6 7 5 8 3 9 21 10 4 11 20 12 19 13
REMARK SMILES IDX 2 14 1 15 22 16 12 18 13 19 14 20 15 21 16 22 17 23 18 24
REMARK H PARENT 7 5 22 17
REMARK Flexibility Score: inf
ROOT
ATOM      1  C   UNL     1      93.316  97.644  75.647  1.00  0.00     0.010 C 
ENDROOT
BRANCH   1   2
ATOM      2  C   UNL     1      94.768  97.368  75.167  1.00  0.00     0.100 C 
BRANCH   2   3
ATOM      3  C   UNL     1      95.794  97.736  76.168  1.00  0.00     0.220 C 
ATOM      4  N   UNL     1      95.508  97.680  77.501  1.00  0.00    -0.352 N 
ATOM      5  H   UNL     1      94.558  97.419  77.718  1.00  0.00     0.163 HD
ATOM      6  O   UNL     1      96.933  98.076  75.765  1.00  0.00    -0.275 OA
BRANCH   4   7
ATOM      7  C   UNL     1      96.435  97.956  78.557  1.00  0.00     0.151 C 
BRANCH   7   8
ATOM      8  C   UNL     1      96.022  97.378  79.866  1.00  0.00    -0.025 A 
ATOM      9  C   UNL     1      95.703  95.424  81.325  1.00  0.00     0.160 A 
ATOM     10  C   UNL     1      95.279  96.272  82.371  1.00  0.00     0.157 A 
ATOM     11  C   UNL     1      96.053  95.980  80.077  1.00  0.00     0.056 A 
ATOM     12  C   UNL     1      95.207  97.661  82.161  1.00  0.00     0.050 A 
ATOM     13  C   UNL     1      95.585  98.212  80.921  1.00  0.00     0.009 A 
BRANCH   9  14
ATOM     14  O   UNL     1      95.739  94.068  81.506  1.00  0.00    -0.493 OA
ATOM     15  C   UNL     1      94.714  93.359  80.786  1.00  0.00     0.278 C 
ENDBRANCH   9  14
BRANCH  10  16
ATOM     16  O   UNL     1      94.934  95.763  83.583  1.00  0.00    -0.504 OA
ATOM     17  H   UNL     1      94.448  94.945  83.460  1.00  0.00     0.293 HD
ENDBRANCH  10  16
ENDBRANCH   7   8
ENDBRANCH   4   7
ENDBRANCH   2   3
ENDBRANCH   1   2
BRANCH   1  18
ATOM     18  C   UNL     1      92.815  96.567  76.651  1.00  0.00     0.001 C 
BRANCH  18  19
ATOM     19  C   UNL     1      93.399  95.150  76.393  1.00  0.00     0.000 C 
BRANCH  19  20
ATOM     20  C   UNL     1      92.817  94.102  77.383  1.00  0.00     0.000 C 
BRANCH  20  21
ATOM     21  C   UNL     1      91.581  94.599  78.183  1.00  0.00     0.003 C 
BRANCH  21  22
ATOM     22  C   UNL     1      90.218  93.992  77.717  1.00  0.00    -0.017 C 
ATOM     23  C   UNL     1      89.215  95.123  77.352  1.00  0.00     0.007 C 
ATOM     24  C   UNL     1      89.584  93.013  78.748  1.00  0.00     0.007 C 
ENDBRANCH  21  22
ENDBRANCH  20  21
ENDBRANCH  19  20
ENDBRANCH  18  19
ENDBRANCH   1  18
TORSDOF 11
ENDMDL
MODEL 2
REMARK VINA RESULT:    -6.241      6.017      9.653
REMARK INTER + INTRA:         -10.758
REMARK INTER:                 -10.123
REMARK INTRA:                  -0.635
REMARK UNBOUND:                -0.687
REMARK SMILES COc1cc(CNC(=O)CCCCCCC(C)C)ccc1O
REMARK SMILES IDX 11 1 10 2 8 3 7 4 9 6 6 7 5 8 3 9 21 10 4 11 20 12 19 13
REMARK SMILES IDX 2 14 1 15 22 16 12 18 13 19 14 20 15 21 16 22 17 23 18 24
REMARK H PARENT 7 5 22 17
REMARK Flexibility Score: inf
ROOT
ATOM      1  C   UNL     1      93.894  99.162  75.384  1.00  0.00     0.010 C 
ENDROOT
BRANCH   1   2
ATOM      2  C   UNL     1      94.068  99.788  73.972  1.00  0.00     0.100 C 
BRANCH   2   3
ATOM      3  C   UNL     1      92.872 100.526  73.508  1.00  0.00     0.220 C 
ATOM      4  N   UNL     1      92.076 100.003  72.531  1.00  0.00    -0.352 N 
ATOM      5  H   UNL     1      92.399  99.128  72.148  1.00  0.00     0.163 HD
ATOM      6  O   UNL     1      92.596 101.625  74.048  1.00  0.00    -0.275 OA
BRANCH   4   7
ATOM      7  C   UNL     1      90.867 100.597  72.045  1.00  0.00     0.151 C 
BRANCH   7   8
ATOM      8  C   UNL     1      90.100  99.704  71.134  1.00  0.00    -0.025 A 
ATOM      9  C   UNL     1      88.695  99.397  69.139  1.00  0.00     0.160 A 
ATOM     10  C   UNL     1      88.673  98.003  69.366  1.00  0.00     0.157 A 
ATOM     11  C   UNL     1      89.391 100.237  70.033  1.00  0.00     0.056 A 
ATOM     12  C   UNL     1      89.343  97.465  70.480  1.00  0.00     0.050 A 
ATOM     13  C   UNL     1      90.060  98.307  71.352  1.00  0.00     0.009 A 
BRANCH   9  14
ATOM     14  O   UNL     1      88.014  99.935  68.081  1.00  0.00    -0.493 OA
ATOM     15  C   UNL     1      88.358 101.305  67.806  1.00  0.00     0.278 C 
ENDBRANCH   9  14
BRANCH  10  16
ATOM     16  O   UNL     1      88.009  97.170  68.522  1.00  0.00    -0.504 OA
ATOM     17  H   UNL     1      88.055  97.518  67.628  1.00  0.00     0.293 HD
ENDBRANCH  10  16
ENDBRANCH   7   8
ENDBRANCH   4   7
ENDBRANCH   2   3
ENDBRANCH   1   2
BRANCH   1  18
ATOM     18  C   UNL     1      93.171  97.786  75.331  1.00  0.00     0.001 C 
BRANCH  18  19
ATOM     19  C   UNL     1      94.093  96.581  75.669  1.00  0.00     0.000 C 
BRANCH  19  20
ATOM     20  C   UNL     1      93.609  95.830  76.941  1.00  0.00     0.000 C 
BRANCH  20  21
ATOM     21  C   UNL     1      92.064  95.782  77.104  1.00  0.00     0.003 C 
BRANCH  21  22
ATOM     22  C   UNL     1      91.565  94.963  78.339  1.00  0.00    -0.017 C 
ATOM     23  C   UNL     1      92.732  94.139  78.952  1.00  0.00     0.007 C 
ATOM     24  C   UNL     1      90.350  94.040  78.029  1.00  0.00     0.007 C 
ENDBRANCH  21  22
ENDBRANCH  20  21
ENDBRANCH  19  20
ENDBRANCH  18  19
ENDBRANCH   1  18
TORSDOF 11
ENDMDL
MODEL 3
REMARK VINA RESULT:    -6.207     12.916     14.421
REMARK INTER + INTRA:         -10.703
REMARK INTER:                  -9.604
REMARK INTRA:                  -1.099
REMARK UNBOUND:                -0.687
REMARK SMILES COc1cc(CNC(=O)CCCCCCC(C)C)ccc1O
REMARK SMILES IDX 11 1 10 2 8 3 7 4 9 6 6 7 5 8 3 9 21 10 4 11 20 12 19 13
REMARK SMILES IDX 2 14 1 15 22 16 12 18 13 19 14 20 15 21 16 22 17 23 18 24
REMARK H PARENT 7 5 22 17
REMARK Flexibility Score: inf
ROOT
ATOM      1  C   UNL     1      98.208  82.454  79.393  1.00  0.00     0.010 C 
ENDROOT
BRANCH   1   2
ATOM      2  C   UNL     1      99.534  83.037  79.955  1.00  0.00     0.100 C 
BRANCH   2   3
ATOM      3  C   UNL     1      99.792  82.653  81.361  1.00  0.00     0.220 C 
ATOM      4  N   UNL     1      98.766  82.592  82.259  1.00  0.00    -0.352 N 
ATOM      5  H   UNL     1      97.867  82.868  81.891  1.00  0.00     0.163 HD
ATOM      6  O   UNL     1     100.965  82.362  81.700  1.00  0.00    -0.275 OA
BRANCH   4   7
ATOM      7  C   UNL     1      98.886  82.179  83.624  1.00  0.00     0.151 C 
BRANCH   7   8
ATOM      8  C   UNL     1      98.262  83.132  84.583  1.00  0.00    -0.025 A 
ATOM      9  C   UNL     1      98.211  84.195  86.800  1.00  0.00     0.160 A 
ATOM     10  C   UNL     1      97.105  84.978  86.401  1.00  0.00     0.157 A 
ATOM     11  C   UNL     1      98.767  83.266  85.896  1.00  0.00     0.056 A 
ATOM     12  C   UNL     1      96.568  84.825  85.110  1.00  0.00     0.050 A 
ATOM     13  C   UNL     1      97.148  83.917  84.203  1.00  0.00     0.009 A 
BRANCH   9  14
ATOM     14  O   UNL     1      98.716  84.307  88.066  1.00  0.00    -0.493 OA
ATOM     15  C   UNL     1      99.640  83.261  88.417  1.00  0.00     0.278 C 
ENDBRANCH   9  14
BRANCH  10  16
ATOM     16  O   UNL     1      96.547  85.879  87.251  1.00  0.00    -0.504 OA
ATOM     17  H   UNL     1      95.881  85.443  87.787  1.00  0.00     0.293 HD
ENDBRANCH  10  16
ENDBRANCH   7   8
ENDBRANCH   4   7
ENDBRANCH   2   3
ENDBRANCH   1   2
BRANCH   1  18
ATOM     18  C   UNL     1      97.258  83.564  78.860  1.00  0.00     0.001 C 
BRANCH  18  19
ATOM     19  C   UNL     1      97.696  84.159  77.492  1.00  0.00     0.000 C 
BRANCH  19  20
ATOM     20  C   UNL     1      97.856  83.053  76.412  1.00  0.00     0.000 C 
BRANCH  20  21
ATOM     21  C   UNL     1      99.319  82.837  75.933  1.00  0.00     0.003 C 
BRANCH  21  22
ATOM     22  C   UNL     1     100.302  83.994  76.307  1.00  0.00    -0.017 C 
ATOM     23  C   UNL     1     100.428  85.002  75.130  1.00  0.00     0.007 C 
ATOM     24  C   UNL     1     101.710  83.499  76.753  1.00  0.00     0.007 C 
ENDBRANCH  21  22
ENDBRANCH  20  21
ENDBRANCH  19  20
ENDBRANCH  18  19
ENDBRANCH   1  18
TORSDOF 11
ENDMDL
MODEL 4
REMARK VINA RESULT:    -5.999      1.160      2.292
REMARK INTER + INTRA:         -10.367
REMARK INTER:                  -9.279
REMARK INTRA:                  -1.088
REMARK UNBOUND:                -0.687
REMARK SMILES COc1cc(CNC(=O)CCCCCCC(C)C)ccc1O
REMARK SMILES IDX 11 1 10 2 8 3 7 4 9 6 6 7 5 8 3 9 21 10 4 11 20 12 19 13
REMARK SMILES IDX 2 14 1 15 22 16 12 18 13 19 14 20 15 21 16 22 17 23 18 24
REMARK H PARENT 7 5 22 17
REMARK Flexibility Score: inf
ROOT
ATOM      1  C   UNL     1      94.332  97.495  75.378  1.00  0.00     0.010 C 
ENDROOT
BRANCH   1   2
ATOM      2  C   UNL     1      95.691  98.242  75.484  1.00  0.00     0.100 C 
BRANCH   2   3
ATOM      3  C   UNL     1      96.028  98.649  76.866  1.00  0.00     0.220 C 
ATOM      4  N   UNL     1      96.120  97.715  77.857  1.00  0.00    -0.352 N 
ATOM      5  H   UNL     1      95.899  96.773  77.569  1.00  0.00     0.163 HD
ATOM      6  O   UNL     1      96.251  99.862  77.099  1.00  0.00    -0.275 OA
BRANCH   4   7
ATOM      7  C   UNL     1      96.495  97.982  79.212  1.00  0.00     0.151 C 
BRANCH   7   8
ATOM      8  C   UNL     1      96.165  96.868  80.143  1.00  0.00    -0.025 A 
ATOM      9  C   UNL     1      95.398  96.090  82.346  1.00  0.00     0.160 A 
ATOM     10  C   UNL     1      95.493  94.751  81.908  1.00  0.00     0.157 A 
ATOM     11  C   UNL     1      95.752  97.135  81.468  1.00  0.00     0.056 A 
ATOM     12  C   UNL     1      95.940  94.470  80.605  1.00  0.00     0.050 A 
ATOM     13  C   UNL     1      96.264  95.520  79.723  1.00  0.00     0.009 A 
BRANCH   9  14
ATOM     14  O   UNL     1      95.002  96.372  83.625  1.00  0.00    -0.493 OA
ATOM     15  C   UNL     1      95.784  97.400  84.260  1.00  0.00     0.278 C 
ENDBRANCH   9  14
BRANCH  10  16
ATOM     16  O   UNL     1      95.160  93.723  82.733  1.00  0.00    -0.504 OA
ATOM     17  H   UNL     1      95.467  93.915  83.623  1.00  0.00     0.293 HD
ENDBRANCH  10  16
ENDBRANCH   7   8
ENDBRANCH   4   7
ENDBRANCH   2   3
ENDBRANCH   1   2
BRANCH   1  18
ATOM     18  C   UNL     1      94.512  95.950  75.351  1.00  0.00     0.001 C 
BRANCH  18  19
ATOM     19  C   UNL     1      93.743  95.210  76.482  1.00  0.00     0.000 C 
BRANCH  19  20
ATOM     20  C   UNL     1      92.975  96.205  77.397  1.00  0.00     0.000 C 
BRANCH  20  21
ATOM     21  C   UNL     1      91.453  95.914  77.518  1.00  0.00     0.003 C 
BRANCH  21  22
ATOM     22  C   UNL     1      91.100  94.620  78.322  1.00  0.00    -0.017 C 
ATOM     23  C   UNL     1      92.330  94.136  79.140  1.00  0.00     0.007 C 
ATOM     24  C   UNL     1      90.546  93.466  77.436  1.00  0.00     0.007 C 
ENDBRANCH  21  22
ENDBRANCH  20  21
ENDBRANCH  19  20
ENDBRANCH  18  19
ENDBRANCH   1  18
TORSDOF 11
ENDMDL
MODEL 5
REMARK VINA RESULT:    -5.998     20.977     24.876
REMARK INTER + INTRA:         -10.367
REMARK INTER:                  -9.163
REMARK INTRA:                  -1.204
REMARK UNBOUND:                -0.687
REMARK SMILES COc1cc(CNC(=O)CCCCCCC(C)C)ccc1O
REMARK SMILES IDX 11 1 10 2 8 3 7 4 9 6 6 7 5 8 3 9 21 10 4 11 20 12 19 13
REMARK SMILES IDX 2 14 1 15 22 16 12 18 13 19 14 20 15 21 16 22 17 23 18 24
REMARK H PARENT 7 5 22 17
REMARK Flexibility Score: inf
ROOT
ATOM      1  C   UNL     1      76.459  87.759  67.699  1.00  0.00     0.010 C 
ENDROOT
BRANCH   1   2
ATOM      2  C   UNL     1      77.899  87.249  67.410  1.00  0.00     0.100 C 
BRANCH   2   3
ATOM      3  C   UNL     1      78.004  85.773  67.394  1.00  0.00     0.220 C 
ATOM      4  N   UNL     1      77.470  85.055  66.364  1.00  0.00    -0.352 N 
ATOM      5  H   UNL     1      76.981  85.608  65.674  1.00  0.00     0.163 HD
ATOM      6  O   UNL     1      78.614  85.203  68.332  1.00  0.00    -0.275 OA
BRANCH   4   7
ATOM      7  C   UNL     1      77.561  83.635  66.212  1.00  0.00     0.151 C 
BRANCH   7   8
ATOM      8  C   UNL     1      76.233  82.969  66.116  1.00  0.00    -0.025 A 
ATOM      9  C   UNL     1      73.788  83.047  66.370  1.00  0.00     0.160 A 
ATOM     10  C   UNL     1      73.694  81.722  65.894  1.00  0.00     0.157 A 
ATOM     11  C   UNL     1      75.056  83.653  66.495  1.00  0.00     0.056 A 
ATOM     12  C   UNL     1      74.861  81.017  65.550  1.00  0.00     0.050 A 
ATOM     13  C   UNL     1      76.122  81.638  65.649  1.00  0.00     0.009 A 
BRANCH   9  14
ATOM     14  O   UNL     1      72.662  83.729  66.745  1.00  0.00    -0.493 OA
ATOM     15  C   UNL     1      72.910  84.783  67.693  1.00  0.00     0.278 C 
ENDBRANCH   9  14
BRANCH  10  16
ATOM     16  O   UNL     1      72.486  81.112  65.764  1.00  0.00    -0.504 OA
ATOM     17  H   UNL     1      71.973  81.248  66.565  1.00  0.00     0.293 HD
ENDBRANCH  10  16
ENDBRANCH   7   8
ENDBRANCH   4   7
ENDBRANCH   2   3
ENDBRANCH   1   2
BRANCH   1  18
ATOM     18  C   UNL     1      75.733  86.892  68.766  1.00  0.00     0.001 C 
BRANCH  18  19
ATOM     19  C   UNL     1      75.921  87.404  70.222  1.00  0.00     0.000 C 
BRANCH  19  20
ATOM     20  C   UNL     1      74.564  87.803  70.868  1.00  0.00     0.000 C 
BRANCH  20  21
ATOM     21  C   UNL     1      74.470  89.299  71.278  1.00  0.00     0.003 C 
BRANCH  21  22
ATOM     22  C   UNL     1      75.393  90.258  70.457  1.00  0.00    -0.017 C 
ATOM     23  C   UNL     1      75.877  91.439  71.345  1.00  0.00     0.007 C 
ATOM     24  C   UNL     1      74.735  90.792  69.150  1.00  0.00     0.007 C 
ENDBRANCH  21  22
ENDBRANCH  20  21
ENDBRANCH  19  20
ENDBRANCH  18  19
ENDBRANCH   1  18
TORSDOF 11
ENDMDL
MODEL 6
REMARK VINA RESULT:    -5.785      4.462      6.022
REMARK INTER + INTRA:         -10.023
REMARK INTER:                  -9.441
REMARK INTRA:                  -0.582
REMARK UNBOUND:                -0.687
REMARK SMILES COc1cc(CNC(=O)CCCCCCC(C)C)ccc1O
REMARK SMILES IDX 11 1 10 2 8 3 7 4 9 6 6 7 5 8 3 9 21 10 4 11 20 12 19 13
REMARK SMILES IDX 2 14 1 15 22 16 12 18 13 19 14 20 15 21 16 22 17 23 18 24
REMARK H PARENT 7 5 22 17
REMARK Flexibility Score: inf
ROOT
ATOM      1  C   UNL     1      92.859 100.333  73.059  1.00  0.00     0.010 C 
ENDROOT
BRANCH   1   2
ATOM      2  C   UNL     1      93.940  99.285  73.440  1.00  0.00     0.100 C 
BRANCH   2   3
ATOM      3  C   UNL     1      94.114  99.129  74.902  1.00  0.00     0.220 C 
ATOM      4  N   UNL     1      94.292  97.890  75.446  1.00  0.00    -0.352 N 
ATOM      5  H   UNL     1      94.249  97.129  74.784  1.00  0.00     0.163 HD
ATOM      6  O   UNL     1      94.117 100.158  75.621  1.00  0.00    -0.275 OA
BRANCH   4   7
ATOM      7  C   UNL     1      94.527  97.623  76.833  1.00  0.00     0.151 C 
BRANCH   7   8
ATOM      8  C   UNL     1      93.642  96.561  77.383  1.00  0.00    -0.025 A 
ATOM      9  C   UNL     1      93.213  94.791  79.037  1.00  0.00     0.160 A 
ATOM     10  C   UNL     1      91.942  94.563  78.467  1.00  0.00     0.157 A 
ATOM     11  C   UNL     1      94.059  95.774  78.481  1.00  0.00     0.056 A 
ATOM     12  C   UNL     1      91.531  95.313  77.350  1.00  0.00     0.050 A 
ATOM     13  C   UNL     1      92.369  96.312  76.818  1.00  0.00     0.009 A 
BRANCH   9  14
ATOM     14  O   UNL     1      93.639  94.040  80.099  1.00  0.00    -0.493 OA
ATOM     15  C   UNL     1      94.800  94.576  80.760  1.00  0.00     0.278 C 
ENDBRANCH   9  14
BRANCH  10  16
ATOM     16  O   UNL     1      91.107  93.622  78.981  1.00  0.00    -0.504 OA
ATOM     17  H   UNL     1      90.700  93.960  79.782  1.00  0.00     0.293 HD
ENDBRANCH  10  16
ENDBRANCH   7   8
ENDBRANCH   4   7
ENDBRANCH   2   3
ENDBRANCH   1   2
BRANCH   1  18
ATOM     18  C   UNL     1      92.256 100.069  71.649  1.00  0.00     0.001 C 
BRANCH  18  19
ATOM     19  C   UNL     1      90.730 100.349  71.558  1.00  0.00     0.000 C 
BRANCH  19  20
ATOM     20  C   UNL     1      89.918  99.036  71.369  1.00  0.00     0.000 C 
BRANCH  20  21
ATOM     21  C   UNL     1      88.831  99.113  70.262  1.00  0.00     0.003 C 
BRANCH  21  22
ATOM     22  C   UNL     1      89.214  98.399  68.924  1.00  0.00    -0.017 C 
ATOM     23  C   UNL     1      88.088  98.583  67.868  1.00  0.00     0.007 C 
ATOM     24  C   UNL     1      89.558  96.890  69.097  1.00  0.00     0.007 C 
ENDBRANCH  21  22
ENDBRANCH  20  21
ENDBRANCH  19  20
ENDBRANCH  18  19
ENDBRANCH   1  18
TORSDOF 11
ENDMDL
MODEL 7
REMARK VINA RESULT:    -5.699     19.083     23.164
REMARK INTER + INTRA:          -9.884
REMARK INTER:                  -9.300
REMARK INTRA:                  -0.584
REMARK UNBOUND:                -0.687
REMARK SMILES COc1cc(CNC(=O)CCCCCCC(C)C)ccc1O
REMARK SMILES IDX 11 1 10 2 8 3 7 4 9 6 6 7 5 8 3 9 21 10 4 11 20 12 19 13
REMARK SMILES IDX 2 14 1 15 22 16 12 18 13 19 14 20 15 21 16 22 17 23 18 24
REMARK H PARENT 7 5 22 17
REMARK Flexibility Score: inf
ROOT
ATOM      1  C   UNL     1      74.606  88.781  71.084  1.00  0.00     0.010 C 
ENDROOT
BRANCH   1   2
ATOM      2  C   UNL     1      75.764  88.367  70.134  1.00  0.00     0.100 C 
BRANCH   2   3
ATOM      3  C   UNL     1      76.039  86.913  70.147  1.00  0.00     0.220 C 
ATOM      4  N   UNL     1      77.216  86.430  69.654  1.00  0.00    -0.352 N 
ATOM      5  H   UNL     1      77.826  87.130  69.258  1.00  0.00     0.163 HD
ATOM      6  O   UNL     1      75.181  86.142  70.642  1.00  0.00    -0.275 OA
BRANCH   4   7
ATOM      7  C   UNL     1      77.615  85.055  69.666  1.00  0.00     0.151 C 
BRANCH   7   8
ATOM      8  C   UNL     1      77.329  84.350  68.387  1.00  0.00    -0.025 A 
ATOM      9  C   UNL     1      75.743  83.213  66.890  1.00  0.00     0.160 A 
ATOM     10  C   UNL     1      76.766  83.042  65.932  1.00  0.00     0.157 A 
ATOM     11  C   UNL     1      76.036  83.848  68.116  1.00  0.00     0.056 A 
ATOM     12  C   UNL     1      78.066  83.503  66.206  1.00  0.00     0.050 A 
ATOM     13  C   UNL     1      78.345  84.161  67.420  1.00  0.00     0.009 A 
BRANCH   9  14
ATOM     14  O   UNL     1      74.484  82.734  66.650  1.00  0.00    -0.493 OA
ATOM     15  C   UNL     1      73.457  83.740  66.721  1.00  0.00     0.278 C 
ENDBRANCH   9  14
BRANCH  10  16
ATOM     16  O   UNL     1      76.512  82.434  64.744  1.00  0.00    -0.504 OA
ATOM     17  H   UNL     1      77.090  81.673  64.645  1.00  0.00     0.293 HD
ENDBRANCH  10  16
ENDBRANCH   7   8
ENDBRANCH   4   7
ENDBRANCH   2   3
ENDBRANCH   1   2
BRANCH   1  18
ATOM     18  C   UNL     1      74.416  90.323  71.141  1.00  0.00     0.001 C 
BRANCH  18  19
ATOM     19  C   UNL     1      75.752  91.120  71.124  1.00  0.00     0.000 C 
BRANCH  19  20
ATOM     20  C   UNL     1      75.517  92.635  71.381  1.00  0.00     0.000 C 
BRANCH  20  21
ATOM     21  C   UNL     1      76.346  93.217  72.560  1.00  0.00     0.003 C 
BRANCH  21  22
ATOM     22  C   UNL     1      77.844  93.509  72.220  1.00  0.00    -0.017 C 
ATOM     23  C   UNL     1      78.740  92.308  72.635  1.00  0.00     0.007 C 
ATOM     24  C   UNL     1      78.380  94.831  72.844  1.00  0.00     0.007 C 
ENDBRANCH  21  22
ENDBRANCH  20  21
ENDBRANCH  19  20
ENDBRANCH  18  19
ENDBRANCH   1  18
TORSDOF 11
ENDMDL
MODEL 8
REMARK VINA RESULT:    -5.586     12.509     14.047
REMARK INTER + INTRA:          -9.702
REMARK INTER:                  -8.990
REMARK INTRA:                  -0.712
REMARK UNBOUND:                -0.687
REMARK SMILES COc1cc(CNC(=O)CCCCCCC(C)C)ccc1O
REMARK SMILES IDX 11 1 10 2 8 3 7 4 9 6 6 7 5 8 3 9 21 10 4 11 20 12 19 13
REMARK SMILES IDX 2 14 1 15 22 16 12 18 13 19 14 20 15 21 16 22 17 23 18 24
REMARK H PARENT 7 5 22 17
REMARK Flexibility Score: inf
ROOT
ATOM      1  C   UNL     1      97.853  84.220  84.870  1.00  0.00     0.010 C 
ENDROOT
BRANCH   1   2
ATOM      2  C   UNL     1      96.986  85.462  85.215  1.00  0.00     0.100 C 
BRANCH   2   3
ATOM      3  C   UNL     1      96.264  85.332  86.501  1.00  0.00     0.220 C 
ATOM      4  N   UNL     1      96.529  86.188  87.530  1.00  0.00    -0.352 N 
ATOM      5  H   UNL     1      97.263  86.855  87.344  1.00  0.00     0.163 HD
ATOM      6  O   UNL     1      95.392  84.436  86.613  1.00  0.00    -0.275 OA
BRANCH   4   7
ATOM      7  C   UNL     1      95.856  86.195  88.793  1.00  0.00     0.151 C 
BRANCH   7   8
ATOM      8  C   UNL     1      95.679  87.562  89.357  1.00  0.00    -0.025 A 
ATOM      9  C   UNL     1      95.026  89.029  91.219  1.00  0.00     0.160 A 
ATOM     10  C   UNL     1      95.380  90.161  90.454  1.00  0.00     0.157 A 
ATOM     11  C   UNL     1      95.160  87.741  90.659  1.00  0.00     0.056 A 
ATOM     12  C   UNL     1      95.861  89.998  89.142  1.00  0.00     0.050 A 
ATOM     13  C   UNL     1      96.020  88.707  88.600  1.00  0.00     0.009 A 
BRANCH   9  14
ATOM     14  O   UNL     1      94.521  89.179  92.482  1.00  0.00    -0.493 OA
ATOM     15  C   UNL     1      93.211  88.608  92.654  1.00  0.00     0.278 C 
ENDBRANCH   9  14
BRANCH  10  16
ATOM     16  O   UNL     1      95.260  91.414  90.967  1.00  0.00    -0.504 OA
ATOM     17  H   UNL     1      95.904  91.993  90.551  1.00  0.00     0.293 HD
ENDBRANCH  10  16
ENDBRANCH   7   8
ENDBRANCH   4   7
ENDBRANCH   2   3
ENDBRANCH   1   2
BRANCH   1  18
ATOM     18  C   UNL     1      97.441  83.575  83.516  1.00  0.00     0.001 C 
BRANCH  18  19
ATOM     19  C   UNL     1      98.135  82.213  83.234  1.00  0.00     0.000 C 
BRANCH  19  20
ATOM     20  C   UNL     1      99.443  82.396  82.413  1.00  0.00     0.000 C 
BRANCH  20  21
ATOM     21  C   UNL     1      99.251  83.153  81.070  1.00  0.00     0.003 C 
BRANCH  21  22
ATOM     22  C   UNL     1      98.214  82.501  80.099  1.00  0.00    -0.017 C 
ATOM     23  C   UNL     1      98.929  81.551  79.097  1.00  0.00     0.007 C 
ATOM     24  C   UNL     1      97.336  83.536  79.335  1.00  0.00     0.007 C 
ENDBRANCH  21  22
ENDBRANCH  20  21
ENDBRANCH  19  20
ENDBRANCH  18  19
ENDBRANCH   1  18
TORSDOF 11
ENDMDL
MODEL 9
REMARK VINA RESULT:    -5.586     13.428     15.868
REMARK INTER + INTRA:          -9.701
REMARK INTER:                  -8.948
REMARK INTRA:                  -0.753
REMARK UNBOUND:                -0.687
REMARK SMILES COc1cc(CNC(=O)CCCCCCC(C)C)ccc1O
REMARK SMILES IDX 11 1 10 2 8 3 7 4 9 6 6 7 5 8 3 9 21 10 4 11 20 12 19 13
REMARK SMILES IDX 2 14 1 15 22 16 12 18 13 19 14 20 15 21 16 22 17 23 18 24
REMARK H PARENT 7 5 22 17
REMARK Flexibility Score: inf
ROOT
ATOM      1  C   UNL     1      98.332  81.567  86.088  1.00  0.00     0.010 C 
ENDROOT
BRANCH   1   2
ATOM      2  C   UNL     1      98.783  82.736  85.169  1.00  0.00     0.100 C 
BRANCH   2   3
ATOM      3  C   UNL     1      99.519  82.283  83.967  1.00  0.00     0.220 C 
ATOM      4  N   UNL     1      99.285  82.865  82.755  1.00  0.00    -0.352 N 
ATOM      5  H   UNL     1      98.560  83.567  82.759  1.00  0.00     0.163 HD
ATOM      6  O   UNL     1     100.377  81.375  84.094  1.00  0.00    -0.275 OA
BRANCH   4   7
ATOM      7  C   UNL     1      99.975  82.552  81.541  1.00  0.00     0.151 C 
BRANCH   7   8
ATOM      8  C   UNL     1      99.209  82.922  80.319  1.00  0.00    -0.025 A 
ATOM      9  C   UNL     1      99.123  83.279  77.887  1.00  0.00     0.160 A 
ATOM     10  C   UNL     1      97.747  83.583  77.979  1.00  0.00     0.157 A 
ATOM     11  C   UNL     1      99.846  82.969  79.058  1.00  0.00     0.056 A 
ATOM     12  C   UNL     1      97.111  83.577  79.233  1.00  0.00     0.050 A 
ATOM     13  C   UNL     1      97.832  83.239  80.394  1.00  0.00     0.009 A 
BRANCH   9  14
ATOM     14  O   UNL     1      99.760  83.320  76.677  1.00  0.00    -0.493 OA
ATOM     15  C   UNL     1     101.146  83.698  76.765  1.00  0.00     0.278 C 
ENDBRANCH   9  14
BRANCH  10  16
ATOM     16  O   UNL     1      97.025  83.886  76.868  1.00  0.00    -0.504 OA
ATOM     17  H   UNL     1      97.584  84.355  76.242  1.00  0.00     0.293 HD
ENDBRANCH  10  16
ENDBRANCH   7   8
ENDBRANCH   4   7
ENDBRANCH   2   3
ENDBRANCH   1   2
BRANCH   1  18
ATOM     18  C   UNL     1      97.041  80.874  85.566  1.00  0.00     0.001 C 
BRANCH  18  19
ATOM     19  C   UNL     1      96.090  80.387  86.696  1.00  0.00     0.000 C 
BRANCH  19  20
ATOM     20  C   UNL     1      95.371  81.578  87.391  1.00  0.00     0.000 C 
BRANCH  20  21
ATOM     21  C   UNL     1      94.306  82.283  86.506  1.00  0.00     0.003 C 
BRANCH  21  22
ATOM     22  C   UNL     1      92.826  82.034  86.946  1.00  0.00    -0.017 C 
ATOM     23  C   UNL     1      92.738  81.870  88.489  1.00  0.00     0.007 C 
ATOM     24  C   UNL     1      92.156  80.824  86.230  1.00  0.00     0.007 C 
ENDBRANCH  21  22
ENDBRANCH  20  21
ENDBRANCH  19  20
ENDBRANCH  18  19
ENDBRANCH   1  18
TORSDOF 11
ENDMDL
MODEL 10
REMARK VINA RESULT:    -5.482     13.062     14.898
REMARK INTER + INTRA:          -9.534
REMARK INTER:                  -8.770
REMARK INTRA:                  -0.765
REMARK UNBOUND:                -0.687
REMARK SMILES COc1cc(CNC(=O)CCCCCCC(C)C)ccc1O
REMARK SMILES IDX 11 1 10 2 8 3 7 4 9 6 6 7 5 8 3 9 21 10 4 11 20 12 19 13
REMARK SMILES IDX 2 14 1 15 22 16 12 18 13 19 14 20 15 21 16 22 17 23 18 24
REMARK H PARENT 7 5 22 17
REMARK Flexibility Score: inf
ROOT
ATOM      1  C   UNL     1      97.429  82.610  84.690  1.00  0.00     0.010 C 
ENDROOT
BRANCH   1   2
ATOM      2  C   UNL     1      96.913  83.933  84.060  1.00  0.00     0.100 C 
BRANCH   2   3
ATOM      3  C   UNL     1      96.632  84.987  85.061  1.00  0.00     0.220 C 
ATOM      4  N   UNL     1      95.555  84.879  85.891  1.00  0.00    -0.352 N 
ATOM      5  H   UNL     1      94.975  84.070  85.726  1.00  0.00     0.163 HD
ATOM      6  O   UNL     1      97.418  85.962  85.144  1.00  0.00    -0.275 OA
BRANCH   4   7
ATOM      7  C   UNL     1      95.218  85.803  86.932  1.00  0.00     0.151 C 
BRANCH   7   8
ATOM      8  C   UNL     1      94.112  85.324  87.806  1.00  0.00    -0.025 A 
ATOM      9  C   UNL     1      92.874  85.437  89.928  1.00  0.00     0.160 A 
ATOM     10  C   UNL     1      91.980  84.449  89.462  1.00  0.00     0.157 A 
ATOM     11  C   UNL     1      93.943  85.853  89.106  1.00  0.00     0.056 A 
ATOM     12  C   UNL     1      92.161  83.887  88.185  1.00  0.00     0.050 A 
ATOM     13  C   UNL     1      93.213  84.328  87.358  1.00  0.00     0.009 A 
BRANCH   9  14
ATOM     14  O   UNL     1      92.730  85.962  91.184  1.00  0.00    -0.493 OA
ATOM     15  C   UNL     1      93.164  87.329  91.294  1.00  0.00     0.278 C 
ENDBRANCH   9  14
BRANCH  10  16
ATOM     16  O   UNL     1      90.943  84.028  90.233  1.00  0.00    -0.504 OA
ATOM     17  H   UNL     1      91.284  83.564  91.001  1.00  0.00     0.293 HD
ENDBRANCH  10  16
ENDBRANCH   7   8
ENDBRANCH   4   7
ENDBRANCH   2   3
ENDBRANCH   1   2
BRANCH   1  18
ATOM     18  C   UNL     1      98.766  82.138  84.052  1.00  0.00     0.001 C 
BRANCH  18  19
ATOM     19  C   UNL     1      98.581  81.135  82.879  1.00  0.00     0.000 C 
BRANCH  19  20
ATOM     20  C   UNL     1      99.339  81.600  81.604  1.00  0.00     0.000 C 
BRANCH  20  21
ATOM     21  C   UNL     1      99.060  83.074  81.199  1.00  0.00     0.003 C 
BRANCH  21  22
ATOM     22  C   UNL     1      98.749  83.284  79.681  1.00  0.00    -0.017 C 
ATOM     23  C   UNL     1      97.214  83.352  79.445  1.00  0.00     0.007 C 
ATOM     24  C   UNL     1      99.395  82.211  78.756  1.00  0.00     0.007 C 
ENDBRANCH  21  22
ENDBRANCH  20  21
ENDBRANCH  19  20
ENDBRANCH  18  19
ENDBRANCH   1  18
TORSDOF 11
ENDMDL
