MODEL 1
REMARK VINA RESULT:    -5.849      0.000      0.000
REMARK INTER + INTRA:         -10.177
REMARK INTER:                  -9.440
REMARK INTRA:                  -0.737
REMARK UNBOUND:                -0.737
REMARK SMILES COc1cc(CNC(=O)CCCCCCC(C)C)ccc1O
REMARK SMILES IDX 11 1 10 2 8 3 7 4 9 6 6 7 5 8 3 9 21 10 4 11 20 12 19 13
REMARK SMILES IDX 2 14 1 15 22 16 12 18 13 19 14 20 15 21 16 22 17 23 18 24
REMARK H PARENT 7 5 22 17
REMARK Flexibility Score: inf
ROOT
ATOM      1  C   UNL     1      91.466  94.740  77.111  1.00  0.00     0.010 C 
ENDROOT
BRANCH   1   2
ATOM      2  C   UNL     1      92.705  95.514  77.639  1.00  0.00     0.100 C 
BRANCH   2   3
ATOM      3  C   UNL     1      93.868  95.450  76.725  1.00  0.00     0.220 C 
ATOM      4  N   UNL     1      93.686  95.218  75.393  1.00  0.00    -0.352 N 
ATOM      5  H   UNL     1      92.727  95.058  75.120  1.00  0.00     0.163 HD
ATOM      6  O   UNL     1      95.016  95.636  77.198  1.00  0.00    -0.275 OA
BRANCH   4   7
ATOM      7  C   UNL     1      94.726  95.192  74.409  1.00  0.00     0.151 C 
BRANCH   7   8
ATOM      8  C   UNL     1      94.844  96.465  73.647  1.00  0.00    -0.025 A 
ATOM      9  C   UNL     1      95.867  97.774  71.833  1.00  0.00     0.160 A 
ATOM     10  C   UNL     1      95.043  98.874  72.160  1.00  0.00     0.157 A 
ATOM     11  C   UNL     1      95.774  96.587  72.590  1.00  0.00     0.056 A 
ATOM     12  C   UNL     1      94.141  98.778  73.234  1.00  0.00     0.050 A 
ATOM     13  C   UNL     1      94.033  97.580  73.966  1.00  0.00     0.009 A 
BRANCH   9  14
ATOM     14  O   UNL     1      96.776  97.870  70.815  1.00  0.00    -0.493 OA
ATOM     15  C   UNL     1      96.350  97.235  69.596  1.00  0.00     0.278 C 
ENDBRANCH   9  14
BRANCH  10  16
ATOM     16  O   UNL     1      95.112 100.031  71.449  1.00  0.00    -0.504 OA
ATOM     17  H   UNL     1      95.905 100.511  71.698  1.00  0.00     0.293 HD
ENDBRANCH  10  16
ENDBRANCH   7   8
ENDBRANCH   4   7
ENDBRANCH   2   3
ENDBRANCH   1   2
BRANCH   1  18
ATOM     18  C   UNL     1      91.375  93.304  77.703  1.00  0.00     0.001 C 
BRANCH  18  19
ATOM     19  C   UNL     1      89.987  92.632  77.505  1.00  0.00     0.000 C 
BRANCH  19  20
ATOM     20  C   UNL     1      90.095  91.337  76.652  1.00  0.00     0.000 C 
BRANCH  20  21
ATOM     21  C   UNL     1      88.971  91.178  75.591  1.00  0.00     0.003 C 
BRANCH  21  22
ATOM     22  C   UNL     1      89.475  90.783  74.164  1.00  0.00    -0.017 C 
ATOM     23  C   UNL     1      91.028  90.731  74.131  1.00  0.00     0.007 C 
ATOM     24  C   UNL     1      88.936  91.708  73.033  1.00  0.00     0.007 C 
ENDBRANCH  21  22
ENDBRANCH  20  21
ENDBRANCH  19  20
ENDBRANCH  18  19
ENDBRANCH   1  18
TORSDOF 11
ENDMDL
MODEL 2
REMARK VINA RESULT:    -5.647      4.069      5.851
REMARK INTER + INTRA:          -9.850
REMARK INTER:                  -9.218
REMARK INTRA:                  -0.631
REMARK UNBOUND:                -0.737
REMARK SMILES COc1cc(CNC(=O)CCCCCCC(C)C)ccc1O
REMARK SMILES IDX 11 1 10 2 8 3 7 4 9 6 6 7 5 8 3 9 21 10 4 11 20 12 19 13
REMARK SMILES IDX 2 14 1 15 22 16 12 18 13 19 14 20 15 21 16 22 17 23 18 24
REMARK H PARENT 7 5 22 17
REMARK Flexibility Score: inf
ROOT
ATOM      1  C   UNL     1      93.159  94.743  75.877  1.00  0.00     0.010 C 
ENDROOT
BRANCH   1   2
ATOM      2  C   UNL     1      94.315  93.822  76.358  1.00  0.00     0.100 C 
BRANCH   2   3
ATOM      3  C   UNL     1      94.464  93.791  77.830  1.00  0.00     0.220 C 
ATOM      4  N   UNL     1      95.239  94.717  78.464  1.00  0.00    -0.352 N 
ATOM      5  H   UNL     1      95.712  95.363  77.849  1.00  0.00     0.163 HD
ATOM      6  O   UNL     1      93.844  92.913  78.479  1.00  0.00    -0.275 OA
BRANCH   4   7
ATOM      7  C   UNL     1      95.411  94.820  79.882  1.00  0.00     0.151 C 
BRANCH   7   8
ATOM      8  C   UNL     1      96.025  96.108  80.306  1.00  0.00    -0.025 A 
ATOM      9  C   UNL     1      97.395  98.085  79.794  1.00  0.00     0.160 A 
ATOM     10  C   UNL     1      97.163  98.586  81.094  1.00  0.00     0.157 A 
ATOM     11  C   UNL     1      96.841  96.844  79.417  1.00  0.00     0.056 A 
ATOM     12  C   UNL     1      96.384  97.844  82.001  1.00  0.00     0.050 A 
ATOM     13  C   UNL     1      95.810  96.620  81.608  1.00  0.00     0.009 A 
BRANCH   9  14
ATOM     14  O   UNL     1      98.183  98.780  78.917  1.00  0.00    -0.493 OA
ATOM     15  C   UNL     1      99.485  98.199  78.723  1.00  0.00     0.278 C 
ENDBRANCH   9  14
BRANCH  10  16
ATOM     16  O   UNL     1      97.685  99.778  81.484  1.00  0.00    -0.504 OA
ATOM     17  H   UNL     1      98.335 100.068  80.840  1.00  0.00     0.293 HD
ENDBRANCH  10  16
ENDBRANCH   7   8
ENDBRANCH   4   7
ENDBRANCH   2   3
ENDBRANCH   1   2
BRANCH   1  18
ATOM     18  C   UNL     1      91.968  94.759  76.876  1.00  0.00     0.001 C 
BRANCH  18  19
ATOM     19  C   UNL     1      90.741  93.930  76.402  1.00  0.00     0.000 C 
BRANCH  19  20
ATOM     20  C   UNL     1      90.732  92.509  77.033  1.00  0.00     0.000 C 
BRANCH  20  21
ATOM     21  C   UNL     1      89.866  91.475  76.262  1.00  0.00     0.003 C 
BRANCH  21  22
ATOM     22  C   UNL     1      90.331  91.203  74.794  1.00  0.00    -0.017 C 
ATOM     23  C   UNL     1      89.173  91.484  73.796  1.00  0.00     0.007 C 
ATOM     24  C   UNL     1      90.905  89.772  74.574  1.00  0.00     0.007 C 
ENDBRANCH  21  22
ENDBRANCH  20  21
ENDBRANCH  19  20
ENDBRANCH  18  19
ENDBRANCH   1  18
TORSDOF 11
ENDMDL
MODEL 3
REMARK VINA RESULT:    -5.537     21.419     25.890
REMARK INTER + INTRA:          -9.672
REMARK INTER:                  -8.987
REMARK INTRA:                  -0.685
REMARK UNBOUND:                -0.737
REMARK SMILES COc1cc(CNC(=O)CCCCCCC(C)C)ccc1O
REMARK SMILES IDX 11 1 10 2 8 3 7 4 9 6 6 7 5 8 3 9 21 10 4 11 20 12 19 13
REMARK SMILES IDX 2 14 1 15 22 16 12 18 13 19 14 20 15 21 16 22 17 23 18 24
REMARK H PARENT 7 5 22 17
REMARK Flexibility Score: inf
ROOT
ATOM      1  C   UNL     1      75.384  83.381  65.874  1.00  0.00     0.010 C 
ENDROOT
BRANCH   1   2
ATOM      2  C   UNL     1      75.581  81.972  65.251  1.00  0.00     0.100 C 
BRANCH   2   3
ATOM      3  C   UNL     1      74.542  81.622  64.256  1.00  0.00     0.220 C 
ATOM      4  N   UNL     1      73.383  81.022  64.652  1.00  0.00    -0.352 N 
ATOM      5  H   UNL     1      73.333  80.811  65.638  1.00  0.00     0.163 HD
ATOM      6  O   UNL     1      74.741  81.911  63.051  1.00  0.00    -0.275 OA
BRANCH   4   7
ATOM      7  C   UNL     1      72.287  80.691  63.792  1.00  0.00     0.151 C 
BRANCH   7   8
ATOM      8  C   UNL     1      71.058  81.481  64.077  1.00  0.00    -0.025 A 
ATOM      9  C   UNL     1      69.684  82.792  65.639  1.00  0.00     0.160 A 
ATOM     10  C   UNL     1      68.740  83.026  64.616  1.00  0.00     0.157 A 
ATOM     11  C   UNL     1      70.824  82.008  65.368  1.00  0.00     0.056 A 
ATOM     12  C   UNL     1      68.942  82.475  63.338  1.00  0.00     0.050 A 
ATOM     13  C   UNL     1      70.097  81.717  63.066  1.00  0.00     0.009 A 
BRANCH   9  14
ATOM     14  O   UNL     1      69.478  83.291  66.897  1.00  0.00    -0.493 OA
ATOM     15  C   UNL     1      70.179  84.520  67.156  1.00  0.00     0.278 C 
ENDBRANCH   9  14
BRANCH  10  16
ATOM     16  O   UNL     1      67.631  83.777  64.850  1.00  0.00    -0.504 OA
ATOM     17  H   UNL     1      66.893  83.421  64.350  1.00  0.00     0.293 HD
ENDBRANCH  10  16
ENDBRANCH   7   8
ENDBRANCH   4   7
ENDBRANCH   2   3
ENDBRANCH   1   2
BRANCH   1  18
ATOM     18  C   UNL     1      76.700  84.209  65.881  1.00  0.00     0.001 C 
BRANCH  18  19
ATOM     19  C   UNL     1      77.227  84.537  67.306  1.00  0.00     0.000 C 
BRANCH  19  20
ATOM     20  C   UNL     1      77.550  86.050  67.463  1.00  0.00     0.000 C 
BRANCH  20  21
ATOM     21  C   UNL     1      76.533  86.994  66.763  1.00  0.00     0.003 C 
BRANCH  21  22
ATOM     22  C   UNL     1      76.872  88.516  66.879  1.00  0.00    -0.017 C 
ATOM     23  C   UNL     1      76.303  89.100  68.202  1.00  0.00     0.007 C 
ATOM     24  C   UNL     1      76.392  89.358  65.660  1.00  0.00     0.007 C 
ENDBRANCH  21  22
ENDBRANCH  20  21
ENDBRANCH  19  20
ENDBRANCH  18  19
ENDBRANCH   1  18
TORSDOF 11
ENDMDL
MODEL 4
REMARK VINA RESULT:    -5.515     13.351     16.789
REMARK INTER + INTRA:          -9.638
REMARK INTER:                  -8.750
REMARK INTRA:                  -0.888
REMARK UNBOUND:                -0.737
REMARK SMILES COc1cc(CNC(=O)CCCCCCC(C)C)ccc1O
REMARK SMILES IDX 11 1 10 2 8 3 7 4 9 6 6 7 5 8 3 9 21 10 4 11 20 12 19 13
REMARK SMILES IDX 2 14 1 15 22 16 12 18 13 19 14 20 15 21 16 22 17 23 18 24
REMARK H PARENT 7 5 22 17
REMARK Flexibility Score: inf
ROOT
ATOM      1  C   UNL     1      97.800  79.907  78.334  1.00  0.00     0.010 C 
ENDROOT
BRANCH   1   2
ATOM      2  C   UNL     1      98.903  79.802  79.424  1.00  0.00     0.100 C 
BRANCH   2   3
ATOM      3  C   UNL     1      98.366  79.821  80.803  1.00  0.00     0.220 C 
ATOM      4  N   UNL     1      97.027  79.969  81.019  1.00  0.00    -0.352 N 
ATOM      5  H   UNL     1      96.478  80.103  80.183  1.00  0.00     0.163 HD
ATOM      6  O   UNL     1      99.164  79.674  81.761  1.00  0.00    -0.275 OA
BRANCH   4   7
ATOM      7  C   UNL     1      96.390  79.944  82.301  1.00  0.00     0.151 C 
BRANCH   7   8
ATOM      8  C   UNL     1      96.149  81.301  82.862  1.00  0.00    -0.025 A 
ATOM      9  C   UNL     1      95.180  82.745  84.602  1.00  0.00     0.160 A 
ATOM     10  C   UNL     1      95.722  83.882  83.964  1.00  0.00     0.157 A 
ATOM     11  C   UNL     1      95.382  81.468  84.038  1.00  0.00     0.056 A 
ATOM     12  C   UNL     1      96.454  83.733  82.772  1.00  0.00     0.050 A 
ATOM     13  C   UNL     1      96.676  82.452  82.230  1.00  0.00     0.009 A 
BRANCH   9  14
ATOM     14  O   UNL     1      94.433  82.882  85.740  1.00  0.00    -0.493 OA
ATOM     15  C   UNL     1      95.146  82.549  86.946  1.00  0.00     0.278 C 
ENDBRANCH   9  14
BRANCH  10  16
ATOM     16  O   UNL     1      95.543  85.124  84.484  1.00  0.00    -0.504 OA
ATOM     17  H   UNL     1      96.001  85.187  85.325  1.00  0.00     0.293 HD
ENDBRANCH  10  16
ENDBRANCH   7   8
ENDBRANCH   4   7
ENDBRANCH   2   3
ENDBRANCH   1   2
BRANCH   1  18
ATOM     18  C   UNL     1      97.861  81.258  77.566  1.00  0.00     0.001 C 
BRANCH  18  19
ATOM     19  C   UNL     1      99.022  81.342  76.536  1.00  0.00     0.000 C 
BRANCH  19  20
ATOM     20  C   UNL     1      98.540  80.993  75.100  1.00  0.00     0.000 C 
BRANCH  20  21
ATOM     21  C   UNL     1      97.060  81.372  74.815  1.00  0.00     0.003 C 
BRANCH  21  22
ATOM     22  C   UNL     1      96.853  82.826  74.280  1.00  0.00    -0.017 C 
ATOM     23  C   UNL     1      98.202  83.423  73.790  1.00  0.00     0.007 C 
ATOM     24  C   UNL     1      96.177  83.780  75.308  1.00  0.00     0.007 C 
ENDBRANCH  21  22
ENDBRANCH  20  21
ENDBRANCH  19  20
ENDBRANCH  18  19
ENDBRANCH   1  18
TORSDOF 11
ENDMDL
MODEL 5
REMARK VINA RESULT:    -5.512     21.012     25.040
REMARK INTER + INTRA:          -9.632
REMARK INTER:                  -8.846
REMARK INTRA:                  -0.785
REMARK UNBOUND:                -0.737
REMARK SMILES COc1cc(CNC(=O)CCCCCCC(C)C)ccc1O
REMARK SMILES IDX 11 1 10 2 8 3 7 4 9 6 6 7 5 8 3 9 21 10 4 11 20 12 19 13
REMARK SMILES IDX 2 14 1 15 22 16 12 18 13 19 14 20 15 21 16 22 17 23 18 24
REMARK H PARENT 7 5 22 17
REMARK Flexibility Score: inf
ROOT
ATOM      1  C   UNL     1      70.338  83.669  66.464  1.00  0.00     0.010 C 
ENDROOT
BRANCH   1   2
ATOM      2  C   UNL     1      70.318  82.357  65.632  1.00  0.00     0.100 C 
BRANCH   2   3
ATOM      3  C   UNL     1      71.670  81.834  65.335  1.00  0.00     0.220 C 
ATOM      4  N   UNL     1      72.775  82.591  65.593  1.00  0.00    -0.352 N 
ATOM      5  H   UNL     1      72.578  83.516  65.948  1.00  0.00     0.163 HD
ATOM      6  O   UNL     1      71.776  80.674  64.865  1.00  0.00    -0.275 OA
BRANCH   4   7
ATOM      7  C   UNL     1      74.130  82.169  65.402  1.00  0.00     0.151 C 
BRANCH   7   8
ATOM      8  C   UNL     1      75.123  83.078  66.038  1.00  0.00    -0.025 A 
ATOM      9  C   UNL     1      75.690  84.745  67.755  1.00  0.00     0.160 A 
ATOM     10  C   UNL     1      77.021  84.779  67.285  1.00  0.00     0.157 A 
ATOM     11  C   UNL     1      74.748  83.910  67.118  1.00  0.00     0.056 A 
ATOM     12  C   UNL     1      77.396  83.985  66.186  1.00  0.00     0.050 A 
ATOM     13  C   UNL     1      76.458  83.132  65.573  1.00  0.00     0.009 A 
BRANCH   9  14
ATOM     14  O   UNL     1      75.305  85.543  68.798  1.00  0.00    -0.493 OA
ATOM     15  C   UNL     1      73.898  85.844  68.808  1.00  0.00     0.278 C 
ENDBRANCH   9  14
BRANCH  10  16
ATOM     16  O   UNL     1      77.949  85.575  67.878  1.00  0.00    -0.504 OA
ATOM     17  H   UNL     1      78.734  85.616  67.327  1.00  0.00     0.293 HD
ENDBRANCH  10  16
ENDBRANCH   7   8
ENDBRANCH   4   7
ENDBRANCH   2   3
ENDBRANCH   1   2
BRANCH   1  18
ATOM     18  C   UNL     1      68.916  84.084  66.940  1.00  0.00     0.001 C 
BRANCH  18  19
ATOM     19  C   UNL     1      68.661  83.824  68.452  1.00  0.00     0.000 C 
BRANCH  19  20
ATOM     20  C   UNL     1      69.416  84.850  69.343  1.00  0.00     0.000 C 
BRANCH  20  21
ATOM     21  C   UNL     1      69.090  84.739  70.858  1.00  0.00     0.003 C 
BRANCH  21  22
ATOM     22  C   UNL     1      68.009  85.747  71.366  1.00  0.00    -0.017 C 
ATOM     23  C   UNL     1      66.596  85.101  71.313  1.00  0.00     0.007 C 
ATOM     24  C   UNL     1      68.015  87.107  70.607  1.00  0.00     0.007 C 
ENDBRANCH  21  22
ENDBRANCH  20  21
ENDBRANCH  19  20
ENDBRANCH  18  19
ENDBRANCH   1  18
TORSDOF 11
ENDMDL
MODEL 6
REMARK VINA RESULT:    -5.421      4.607      7.267
REMARK INTER + INTRA:          -9.486
REMARK INTER:                  -8.685
REMARK INTRA:                  -0.801
REMARK UNBOUND:                -0.737
REMARK SMILES COc1cc(CNC(=O)CCCCCCC(C)C)ccc1O
REMARK SMILES IDX 11 1 10 2 8 3 7 4 9 6 6 7 5 8 3 9 21 10 4 11 20 12 19 13
REMARK SMILES IDX 2 14 1 15 22 16 12 18 13 19 14 20 15 21 16 22 17 23 18 24
REMARK H PARENT 7 5 22 17
REMARK Flexibility Score: inf
ROOT
ATOM      1  C   UNL     1      95.522  98.075  71.759  1.00  0.00     0.010 C 
ENDROOT
BRANCH   1   2
ATOM      2  C   UNL     1      95.559  99.288  70.789  1.00  0.00     0.100 C 
BRANCH   2   3
ATOM      3  C   UNL     1      94.263  99.997  70.688  1.00  0.00     0.220 C 
ATOM      4  N   UNL     1      93.106  99.372  71.052  1.00  0.00    -0.352 N 
ATOM      5  H   UNL     1      93.218  98.410  71.337  1.00  0.00     0.163 HD
ATOM      6  O   UNL     1      94.258 101.186  70.287  1.00  0.00    -0.275 OA
BRANCH   4   7
ATOM      7  C   UNL     1      91.807  99.974  71.052  1.00  0.00     0.151 C 
BRANCH   7   8
ATOM      8  C   UNL     1      90.963  99.549  69.901  1.00  0.00    -0.025 A 
ATOM      9  C   UNL     1      90.333  99.755  67.533  1.00  0.00     0.160 A 
ATOM     10  C   UNL     1      89.390  98.716  67.692  1.00  0.00     0.157 A 
ATOM     11  C   UNL     1      91.098 100.175  68.641  1.00  0.00     0.056 A 
ATOM     12  C   UNL     1      89.219  98.111  68.951  1.00  0.00     0.050 A 
ATOM     13  C   UNL     1      90.007  98.517  70.046  1.00  0.00     0.009 A 
BRANCH   9  14
ATOM     14  O   UNL     1      90.478 100.376  66.323  1.00  0.00    -0.493 OA
ATOM     15  C   UNL     1      90.332 101.806  66.384  1.00  0.00     0.278 C 
ENDBRANCH   9  14
BRANCH  10  16
ATOM     16  O   UNL     1      88.638  98.291  66.642  1.00  0.00    -0.504 OA
ATOM     17  H   UNL     1      88.525  97.339  66.695  1.00  0.00     0.293 HD
ENDBRANCH  10  16
ENDBRANCH   7   8
ENDBRANCH   4   7
ENDBRANCH   2   3
ENDBRANCH   1   2
BRANCH   1  18
ATOM     18  C   UNL     1      95.968  98.460  73.198  1.00  0.00     0.001 C 
BRANCH  18  19
ATOM     19  C   UNL     1      96.037  97.254  74.176  1.00  0.00     0.000 C 
BRANCH  19  20
ATOM     20  C   UNL     1      94.822  96.300  73.995  1.00  0.00     0.000 C 
BRANCH  20  21
ATOM     21  C   UNL     1      93.616  96.621  74.920  1.00  0.00     0.003 C 
BRANCH  21  22
ATOM     22  C   UNL     1      93.465  95.665  76.148  1.00  0.00    -0.017 C 
ATOM     23  C   UNL     1      93.672  94.186  75.714  1.00  0.00     0.007 C 
ATOM     24  C   UNL     1      92.114  95.826  76.904  1.00  0.00     0.007 C 
ENDBRANCH  21  22
ENDBRANCH  20  21
ENDBRANCH  19  20
ENDBRANCH  18  19
ENDBRANCH   1  18
TORSDOF 11
ENDMDL
MODEL 7
REMARK VINA RESULT:    -5.309      3.086      5.284
REMARK INTER + INTRA:          -9.304
REMARK INTER:                  -8.398
REMARK INTRA:                  -0.906
REMARK UNBOUND:                -0.737
REMARK SMILES COc1cc(CNC(=O)CCCCCCC(C)C)ccc1O
REMARK SMILES IDX 11 1 10 2 8 3 7 4 9 6 6 7 5 8 3 9 21 10 4 11 20 12 19 13
REMARK SMILES IDX 2 14 1 15 22 16 12 18 13 19 14 20 15 21 16 22 17 23 18 24
REMARK H PARENT 7 5 22 17
REMARK Flexibility Score: inf
ROOT
ATOM      1  C   UNL     1      95.370  97.109  74.677  1.00  0.00     0.010 C 
ENDROOT
BRANCH   1   2
ATOM      2  C   UNL     1      96.288  96.695  73.493  1.00  0.00     0.100 C 
BRANCH   2   3
ATOM      3  C   UNL     1      95.804  97.178  72.181  1.00  0.00     0.220 C 
ATOM      4  N   UNL     1      95.273  98.429  72.060  1.00  0.00    -0.352 N 
ATOM      5  H   UNL     1      95.206  98.943  72.926  1.00  0.00     0.163 HD
ATOM      6  O   UNL     1      95.916  96.424  71.183  1.00  0.00    -0.275 OA
BRANCH   4   7
ATOM      7  C   UNL     1      94.827  99.023  70.836  1.00  0.00     0.151 C 
BRANCH   7   8
ATOM      8  C   UNL     1      93.531  99.743  70.971  1.00  0.00    -0.025 A 
ATOM      9  C   UNL     1      91.204 100.091  70.257  1.00  0.00     0.160 A 
ATOM     10  C   UNL     1      91.044 101.081  71.251  1.00  0.00     0.157 A 
ATOM     11  C   UNL     1      92.449  99.444  70.113  1.00  0.00     0.056 A 
ATOM     12  C   UNL     1      92.126 101.415  72.086  1.00  0.00     0.050 A 
ATOM     13  C   UNL     1      93.358 100.745  71.955  1.00  0.00     0.009 A 
BRANCH   9  14
ATOM     14  O   UNL     1      90.170  99.785  69.414  1.00  0.00    -0.493 OA
ATOM     15  C   UNL     1      90.374 100.232  68.061  1.00  0.00     0.278 C 
ENDBRANCH   9  14
BRANCH  10  16
ATOM     16  O   UNL     1      89.857 101.721  71.412  1.00  0.00    -0.504 OA
ATOM     17  H   UNL     1      89.839 102.150  72.271  1.00  0.00     0.293 HD
ENDBRANCH  10  16
ENDBRANCH   7   8
ENDBRANCH   4   7
ENDBRANCH   2   3
ENDBRANCH   1   2
BRANCH   1  18
ATOM     18  C   UNL     1      93.990  96.394  74.627  1.00  0.00     0.001 C 
BRANCH  18  19
ATOM     19  C   UNL     1      94.055  94.880  74.974  1.00  0.00     0.000 C 
BRANCH  19  20
ATOM     20  C   UNL     1      94.095  94.647  76.511  1.00  0.00     0.000 C 
BRANCH  20  21
ATOM     21  C   UNL     1      92.961  95.365  77.294  1.00  0.00     0.003 C 
BRANCH  21  22
ATOM     22  C   UNL     1      91.694  94.486  77.553  1.00  0.00    -0.017 C 
ATOM     23  C   UNL     1      92.020  92.982  77.331  1.00  0.00     0.007 C 
ATOM     24  C   UNL     1      90.456  94.906  76.707  1.00  0.00     0.007 C 
ENDBRANCH  21  22
ENDBRANCH  20  21
ENDBRANCH  19  20
ENDBRANCH  18  19
ENDBRANCH   1  18
TORSDOF 11
ENDMDL
MODEL 8
REMARK VINA RESULT:    -5.254     10.778     12.575
REMARK INTER + INTRA:          -9.216
REMARK INTER:                  -8.501
REMARK INTRA:                  -0.714
REMARK UNBOUND:                -0.737
REMARK SMILES COc1cc(CNC(=O)CCCCCCC(C)C)ccc1O
REMARK SMILES IDX 11 1 10 2 8 3 7 4 9 6 6 7 5 8 3 9 21 10 4 11 20 12 19 13
REMARK SMILES IDX 2 14 1 15 22 16 12 18 13 19 14 20 15 21 16 22 17 23 18 24
REMARK H PARENT 7 5 22 17
REMARK Flexibility Score: inf
ROOT
ATOM      1  C   UNL     1      85.406 105.327  70.302  1.00  0.00     0.010 C 
ENDROOT
BRANCH   1   2
ATOM      2  C   UNL     1      85.314 105.565  68.769  1.00  0.00     0.100 C 
BRANCH   2   3
ATOM      3  C   UNL     1      86.475 105.029  68.024  1.00  0.00     0.220 C 
ATOM      4  N   UNL     1      86.291 104.369  66.844  1.00  0.00    -0.352 N 
ATOM      5  H   UNL     1      85.326 104.252  66.573  1.00  0.00     0.163 HD
ATOM      6  O   UNL     1      87.627 105.216  68.487  1.00  0.00    -0.275 OA
BRANCH   4   7
ATOM      7  C   UNL     1      87.337 103.859  66.010  1.00  0.00     0.151 C 
BRANCH   7   8
ATOM      8  C   UNL     1      87.626 102.418  66.246  1.00  0.00    -0.025 A 
ATOM      9  C   UNL     1      89.227 100.624  66.764  1.00  0.00     0.160 A 
ATOM     10  C   UNL     1      88.179  99.679  66.740  1.00  0.00     0.157 A 
ATOM     11  C   UNL     1      88.947 101.981  66.499  1.00  0.00     0.056 A 
ATOM     12  C   UNL     1      86.867 100.095  66.451  1.00  0.00     0.050 A 
ATOM     13  C   UNL     1      86.589 101.456  66.216  1.00  0.00     0.009 A 
BRANCH   9  14
ATOM     14  O   UNL     1      90.513 100.224  67.005  1.00  0.00    -0.493 OA
ATOM     15  C   UNL     1      91.500 101.225  66.697  1.00  0.00     0.278 C 
ENDBRANCH   9  14
BRANCH  10  16
ATOM     16  O   UNL     1      88.420  98.365  66.990  1.00  0.00    -0.504 OA
ATOM     17  H   UNL     1      89.221  98.095  66.534  1.00  0.00     0.293 HD
ENDBRANCH  10  16
ENDBRANCH   7   8
ENDBRANCH   4   7
ENDBRANCH   2   3
ENDBRANCH   1   2
BRANCH   1  18
ATOM     18  C   UNL     1      84.016 105.031  70.934  1.00  0.00     0.001 C 
BRANCH  18  19
ATOM     19  C   UNL     1      84.085 104.170  72.227  1.00  0.00     0.000 C 
BRANCH  19  20
ATOM     20  C   UNL     1      82.727 103.475  72.525  1.00  0.00     0.000 C 
BRANCH  20  21
ATOM     21  C   UNL     1      82.819 101.930  72.663  1.00  0.00     0.003 C 
BRANCH  21  22
ATOM     22  C   UNL     1      81.636 101.148  72.004  1.00  0.00    -0.017 C 
ATOM     23  C   UNL     1      81.178 101.853  70.697  1.00  0.00     0.007 C 
ATOM     24  C   UNL     1      80.425 100.926  72.957  1.00  0.00     0.007 C 
ENDBRANCH  21  22
ENDBRANCH  20  21
ENDBRANCH  19  20
ENDBRANCH  18  19
ENDBRANCH   1  18
TORSDOF 11
ENDMDL
MODEL 9
REMARK VINA RESULT:    -5.168     15.268     17.248
REMARK INTER + INTRA:          -9.077
REMARK INTER:                  -8.235
REMARK INTRA:                  -0.842
REMARK UNBOUND:                -0.737
REMARK SMILES COc1cc(CNC(=O)CCCCCCC(C)C)ccc1O
REMARK SMILES IDX 11 1 10 2 8 3 7 4 9 6 6 7 5 8 3 9 21 10 4 11 20 12 19 13
REMARK SMILES IDX 2 14 1 15 22 16 12 18 13 19 14 20 15 21 16 22 17 23 18 24
REMARK H PARENT 7 5 22 17
REMARK Flexibility Score: inf
ROOT
ATOM      1  C   UNL     1      94.594  85.424  88.408  1.00  0.00     0.010 C 
ENDROOT
BRANCH   1   2
ATOM      2  C   UNL     1      95.555  84.622  87.488  1.00  0.00     0.100 C 
BRANCH   2   3
ATOM      3  C   UNL     1      95.070  84.508  86.094  1.00  0.00     0.220 C 
ATOM      4  N   UNL     1      95.932  84.174  85.090  1.00  0.00    -0.352 N 
ATOM      5  H   UNL     1      96.893  84.065  85.379  1.00  0.00     0.163 HD
ATOM      6  O   UNL     1      93.851  84.699  85.863  1.00  0.00    -0.275 OA
BRANCH   4   7
ATOM      7  C   UNL     1      95.568  83.978  83.720  1.00  0.00     0.151 C 
BRANCH   7   8
ATOM      8  C   UNL     1      95.808  82.589  83.242  1.00  0.00    -0.025 A 
ATOM      9  C   UNL     1      96.719  81.044  81.558  1.00  0.00     0.160 A 
ATOM     10  C   UNL     1      96.311  79.944  82.344  1.00  0.00     0.157 A 
ATOM     11  C   UNL     1      96.448  82.355  82.003  1.00  0.00     0.056 A 
ATOM     12  C   UNL     1      95.638  80.163  83.560  1.00  0.00     0.050 A 
ATOM     13  C   UNL     1      95.397  81.475  84.012  1.00  0.00     0.009 A 
BRANCH   9  14
ATOM     14  O   UNL     1      97.338  80.841  80.355  1.00  0.00    -0.493 OA
ATOM     15  C   UNL     1      97.342  82.000  79.502  1.00  0.00     0.278 C 
ENDBRANCH   9  14
BRANCH  10  16
ATOM     16  O   UNL     1      96.556  78.670  81.940  1.00  0.00    -0.504 OA
ATOM     17  H   UNL     1      97.154  78.683  81.189  1.00  0.00     0.293 HD
ENDBRANCH  10  16
ENDBRANCH   7   8
ENDBRANCH   4   7
ENDBRANCH   2   3
ENDBRANCH   1   2
BRANCH   1  18
ATOM     18  C   UNL     1      95.333  86.055  89.622  1.00  0.00     0.001 C 
BRANCH  18  19
ATOM     19  C   UNL     1      94.387  86.761  90.634  1.00  0.00     0.000 C 
BRANCH  19  20
ATOM     20  C   UNL     1      93.439  87.768  89.925  1.00  0.00     0.000 C 
BRANCH  20  21
ATOM     21  C   UNL     1      93.446  89.194  90.544  1.00  0.00     0.003 C 
BRANCH  21  22
ATOM     22  C   UNL     1      94.494  90.170  89.917  1.00  0.00    -0.017 C 
ATOM     23  C   UNL     1      94.859  89.722  88.474  1.00  0.00     0.007 C 
ATOM     24  C   UNL     1      95.781  90.343  90.776  1.00  0.00     0.007 C 
ENDBRANCH  21  22
ENDBRANCH  20  21
ENDBRANCH  19  20
ENDBRANCH  18  19
ENDBRANCH   1  18
TORSDOF 11
ENDMDL
MODEL 10
REMARK VINA RESULT:    -4.990      4.354      7.254
REMARK INTER + INTRA:          -8.790
REMARK INTER:                  -7.931
REMARK INTRA:                  -0.859
REMARK UNBOUND:                -0.737
REMARK SMILES COc1cc(CNC(=O)CCCCCCC(C)C)ccc1O
REMARK SMILES IDX 11 1 10 2 8 3 7 4 9 6 6 7 5 8 3 9 21 10 4 11 20 12 19 13
REMARK SMILES IDX 2 14 1 15 22 16 12 18 13 19 14 20 15 21 16 22 17 23 18 24
REMARK H PARENT 7 5 22 17
REMARK Flexibility Score: inf
ROOT
ATOM      1  C   UNL     1      95.656  97.544  71.530  1.00  0.00     0.010 C 
ENDROOT
BRANCH   1   2
ATOM      2  C   UNL     1      95.557  98.607  70.401  1.00  0.00     0.100 C 
BRANCH   2   3
ATOM      3  C   UNL     1      94.507  99.622  70.644  1.00  0.00     0.220 C 
ATOM      4  N   UNL     1      93.362  99.285  71.305  1.00  0.00    -0.352 N 
ATOM      5  H   UNL     1      93.292  98.310  71.556  1.00  0.00     0.163 HD
ATOM      6  O   UNL     1      94.706 100.798  70.252  1.00  0.00    -0.275 OA
BRANCH   4   7
ATOM      7  C   UNL     1      92.308 100.192  71.647  1.00  0.00     0.151 C 
BRANCH   7   8
ATOM      8  C   UNL     1      91.255 100.289  70.599  1.00  0.00    -0.025 A 
ATOM      9  C   UNL     1      89.507  99.230  69.232  1.00  0.00     0.160 A 
ATOM     10  C   UNL     1      89.217 100.476  68.634  1.00  0.00     0.157 A 
ATOM     11  C   UNL     1      90.535  99.143  70.195  1.00  0.00     0.056 A 
ATOM     12  C   UNL     1      89.953 101.617  69.000  1.00  0.00     0.050 A 
ATOM     13  C   UNL     1      90.959 101.528  69.983  1.00  0.00     0.009 A 
BRANCH   9  14
ATOM     14  O   UNL     1      88.823  98.107  68.855  1.00  0.00    -0.493 OA
ATOM     15  C   UNL     1      89.636  97.133  68.175  1.00  0.00     0.278 C 
ENDBRANCH   9  14
BRANCH  10  16
ATOM     16  O   UNL     1      88.233 100.589  67.703  1.00  0.00    -0.504 OA
ATOM     17  H   UNL     1      87.934  99.714  67.447  1.00  0.00     0.293 HD
ENDBRANCH  10  16
ENDBRANCH   7   8
ENDBRANCH   4   7
ENDBRANCH   2   3
ENDBRANCH   1   2
BRANCH   1  18
ATOM     18  C   UNL     1      96.655  97.965  72.646  1.00  0.00     0.001 C 
BRANCH  18  19
ATOM     19  C   UNL     1      96.624  97.041  73.895  1.00  0.00     0.000 C 
BRANCH  19  20
ATOM     20  C   UNL     1      95.366  96.127  73.900  1.00  0.00     0.000 C 
BRANCH  20  21
ATOM     21  C   UNL     1      94.249  96.585  74.879  1.00  0.00     0.003 C 
BRANCH  21  22
ATOM     22  C   UNL     1      93.856  95.524  75.959  1.00  0.00    -0.017 C 
ATOM     23  C   UNL     1      94.841  95.582  77.160  1.00  0.00     0.007 C 
ATOM     24  C   UNL     1      93.758  94.073  75.403  1.00  0.00     0.007 C 
ENDBRANCH  21  22
ENDBRANCH  20  21
ENDBRANCH  19  20
ENDBRANCH  18  19
ENDBRANCH   1  18
TORSDOF 11
ENDMDL
