MODEL 1
REMARK VINA RESULT:    -6.074      0.000      0.000
REMARK INTER + INTRA:         -11.108
REMARK INTER:                  -9.981
REMARK INTRA:                  -1.128
REMARK UNBOUND:                -1.128
REMARK SMILES CCCCC[C@H](O)CC(=O)CCc1ccc(O)c(OC)c1
REMARK SMILES IDX 8 1 6 2 7 3 5 5 4 6 3 7 2 8 1 9 9 10 10 11 11 12 12 13 13 14
REMARK SMILES IDX 21 15 14 16 18 17 15 18 16 19 19 20 20 21 17 22
REMARK H PARENT 7 4 17 23
REMARK Flexibility Score: inf
ROOT
ATOM      1  C   UNL     1      95.212  93.602  77.577  1.00  0.00     0.107 C 
ENDROOT
BRANCH   1   2
ATOM      2  C   UNL     1      94.390  93.636  78.868  1.00  0.00     0.121 C 
BRANCH   2   3
ATOM      3  O   UNL     1      93.431  92.582  78.857  1.00  0.00    -0.393 OA
ATOM      4  H   UNL     1      93.753  91.892  78.250  1.00  0.00     0.210 HD
ENDBRANCH   2   3
BRANCH   2   5
ATOM      5  C   UNL     1      95.252  93.522  80.131  1.00  0.00     0.032 C 
BRANCH   5   6
ATOM      6  C   UNL     1      96.745  93.702  79.829  1.00  0.00     0.003 C 
BRANCH   6   7
ATOM      7  C   UNL     1      97.594  93.932  81.084  1.00  0.00    -0.000 C 
BRANCH   7   8
ATOM      8  C   UNL     1      98.882  94.708  80.817  1.00  0.00    -0.003 C 
ATOM      9  C   UNL     1      99.609  95.036  82.112  1.00  0.00     0.004 C 
ENDBRANCH   7   8
ENDBRANCH   6   7
ENDBRANCH   5   6
ENDBRANCH   2   5
ENDBRANCH   1   2
BRANCH   1  10
ATOM     10  C   UNL     1      95.126  94.894  76.781  1.00  0.00     0.135 C 
ATOM     11  O   UNL     1      95.661  95.925  77.188  1.00  0.00    -0.300 OA
BRANCH  10  12
ATOM     12  C   UNL     1      94.390  94.829  75.452  1.00  0.00     0.080 C 
BRANCH  12  13
ATOM     13  C   UNL     1      92.935  95.296  75.530  1.00  0.00     0.043 C 
BRANCH  13  14
ATOM     14  C   UNL     1      92.000  94.234  76.057  1.00  0.00    -0.044 A 
ATOM     15  C   UNL     1      91.984  92.967  75.474  1.00  0.00     0.054 A 
ATOM     16  C   UNL     1      91.151  94.521  77.126  1.00  0.00     0.008 A 
ATOM     17  C   UNL     1      91.120  91.986  75.962  1.00  0.00     0.160 A 
ATOM     18  C   UNL     1      90.287  93.540  77.614  1.00  0.00     0.050 A 
ATOM     19  C   UNL     1      90.271  92.273  77.032  1.00  0.00     0.157 A 
BRANCH  17  20
ATOM     20  O   UNL     1      91.114  90.752  75.385  1.00  0.00    -0.493 OA
ATOM     21  C   UNL     1      90.638  90.667  74.043  1.00  0.00     0.278 C 
ENDBRANCH  17  20
BRANCH  19  22
ATOM     22  O   UNL     1      89.424  91.324  77.516  1.00  0.00    -0.504 OA
ATOM     23  H   UNL     1      89.707  91.074  78.413  1.00  0.00     0.293 HD
ENDBRANCH  19  22
ENDBRANCH  13  14
ENDBRANCH  12  13
ENDBRANCH  10  12
ENDBRANCH   1  10
TORSDOF 12
ENDMDL
MODEL 2
REMARK VINA RESULT:    -5.750      3.159      5.870
REMARK INTER + INTRA:         -10.575
REMARK INTER:                  -8.978
REMARK INTRA:                  -1.597
REMARK UNBOUND:                -1.128
REMARK SMILES CCCCC[C@H](O)CC(=O)CCc1ccc(O)c(OC)c1
REMARK SMILES IDX 8 1 6 2 7 3 5 5 4 6 3 7 2 8 1 9 9 10 10 11 11 12 12 13 13 14
REMARK SMILES IDX 21 15 14 16 18 17 15 18 16 19 19 20 20 21 17 22
REMARK H PARENT 7 4 17 23
REMARK Flexibility Score: inf
ROOT
ATOM      1  C   UNL     1      92.772  92.974  77.849  1.00  0.00     0.107 C 
ENDROOT
BRANCH   1   2
ATOM      2  C   UNL     1      93.939  93.408  78.739  1.00  0.00     0.121 C 
BRANCH   2   3
ATOM      3  O   UNL     1      93.907  92.682  79.966  1.00  0.00    -0.393 OA
ATOM      4  H   UNL     1      93.637  91.769  79.764  1.00  0.00     0.210 HD
ENDBRANCH   2   3
BRANCH   2   5
ATOM      5  C   UNL     1      95.307  93.213  78.073  1.00  0.00     0.032 C 
BRANCH   5   6
ATOM      6  C   UNL     1      96.292  94.329  78.440  1.00  0.00     0.003 C 
BRANCH   6   7
ATOM      7  C   UNL     1      96.068  95.620  77.647  1.00  0.00    -0.000 C 
BRANCH   7   8
ATOM      8  C   UNL     1      97.340  96.443  77.446  1.00  0.00    -0.003 C 
ATOM      9  C   UNL     1      97.098  97.618  76.511  1.00  0.00     0.004 C 
ENDBRANCH   7   8
ENDBRANCH   6   7
ENDBRANCH   5   6
ENDBRANCH   2   5
ENDBRANCH   1   2
BRANCH   1  10
ATOM     10  C   UNL     1      92.130  94.132  77.101  1.00  0.00     0.135 C 
ATOM     11  O   UNL     1      91.098  94.659  77.517  1.00  0.00    -0.300 OA
BRANCH  10  12
ATOM     12  C   UNL     1      92.852  94.623  75.856  1.00  0.00     0.080 C 
BRANCH  12  13
ATOM     13  C   UNL     1      93.033  96.141  75.809  1.00  0.00     0.043 C 
BRANCH  13  14
ATOM     14  C   UNL     1      93.925  96.596  74.678  1.00  0.00    -0.044 A 
ATOM     15  C   UNL     1      93.789  97.882  74.155  1.00  0.00     0.054 A 
ATOM     16  C   UNL     1      94.886  95.729  74.156  1.00  0.00     0.008 A 
ATOM     17  C   UNL     1      94.614  98.301  73.112  1.00  0.00     0.160 A 
ATOM     18  C   UNL     1      95.711  96.148  73.112  1.00  0.00     0.050 A 
ATOM     19  C   UNL     1      95.574  97.434  72.590  1.00  0.00     0.157 A 
BRANCH  17  20
ATOM     20  O   UNL     1      94.471  99.559  72.609  1.00  0.00    -0.493 OA
ATOM     21  C   UNL     1      94.712 100.645  73.502  1.00  0.00     0.278 C 
ENDBRANCH  17  20
BRANCH  19  22
ATOM     22  O   UNL     1      96.386  97.832  71.571  1.00  0.00    -0.504 OA
ATOM     23  H   UNL     1      97.068  97.154  71.426  1.00  0.00     0.293 HD
ENDBRANCH  19  22
ENDBRANCH  13  14
ENDBRANCH  12  13
ENDBRANCH  10  12
ENDBRANCH   1  10
TORSDOF 12
ENDMDL
MODEL 3
REMARK VINA RESULT:    -5.708      2.690      6.965
REMARK INTER + INTRA:         -10.506
REMARK INTER:                  -9.460
REMARK INTRA:                  -1.046
REMARK UNBOUND:                -1.128
REMARK SMILES CCCCC[C@H](O)CC(=O)CCc1ccc(O)c(OC)c1
REMARK SMILES IDX 8 1 6 2 7 3 5 5 4 6 3 7 2 8 1 9 9 10 10 11 11 12 12 13 13 14
REMARK SMILES IDX 21 15 14 16 18 17 15 18 16 19 19 20 20 21 17 22
REMARK H PARENT 7 4 17 23
REMARK Flexibility Score: inf
ROOT
ATOM      1  C   UNL     1      94.303  94.501  78.777  1.00  0.00     0.107 C 
ENDROOT
BRANCH   1   2
ATOM      2  C   UNL     1      93.330  93.470  78.202  1.00  0.00     0.121 C 
BRANCH   2   3
ATOM      3  O   UNL     1      93.018  92.494  79.194  1.00  0.00    -0.393 OA
ATOM      4  H   UNL     1      92.056  92.517  79.341  1.00  0.00     0.210 HD
ENDBRANCH   2   3
BRANCH   2   5
ATOM      5  C   UNL     1      92.030  94.095  77.682  1.00  0.00     0.032 C 
BRANCH   5   6
ATOM      6  C   UNL     1      90.925  93.050  77.487  1.00  0.00     0.003 C 
BRANCH   6   7
ATOM      7  C   UNL     1      90.945  92.399  76.100  1.00  0.00    -0.000 C 
BRANCH   7   8
ATOM      8  C   UNL     1      90.149  91.097  76.024  1.00  0.00    -0.003 C 
ATOM      9  C   UNL     1      90.679  90.187  74.926  1.00  0.00     0.004 C 
ENDBRANCH   7   8
ENDBRANCH   6   7
ENDBRANCH   5   6
ENDBRANCH   2   5
ENDBRANCH   1   2
BRANCH   1  10
ATOM     10  C   UNL     1      95.746  94.023  78.779  1.00  0.00     0.135 C 
ATOM     11  O   UNL     1      96.050  92.929  79.254  1.00  0.00    -0.300 OA
BRANCH  10  12
ATOM     12  C   UNL     1      96.770  94.941  78.128  1.00  0.00     0.080 C 
BRANCH  12  13
ATOM     13  C   UNL     1      96.184  96.269  77.643  1.00  0.00     0.043 C 
BRANCH  13  14
ATOM     14  C   UNL     1      96.076  96.353  76.139  1.00  0.00    -0.044 A 
ATOM     15  C   UNL     1      96.991  97.118  75.415  1.00  0.00     0.054 A 
ATOM     16  C   UNL     1      95.060  95.666  75.474  1.00  0.00     0.008 A 
ATOM     17  C   UNL     1      96.890  97.195  74.026  1.00  0.00     0.160 A 
ATOM     18  C   UNL     1      94.959  95.743  74.084  1.00  0.00     0.050 A 
ATOM     19  C   UNL     1      95.874  96.508  73.361  1.00  0.00     0.157 A 
BRANCH  17  20
ATOM     20  O   UNL     1      97.789  97.945  73.330  1.00  0.00    -0.493 OA
ATOM     21  C   UNL     1      97.551  99.350  73.268  1.00  0.00     0.278 C 
ENDBRANCH  17  20
BRANCH  19  22
ATOM     22  O   UNL     1      95.766  96.575  72.005  1.00  0.00    -0.504 OA
ATOM     23  H   UNL     1      94.880  96.903  71.774  1.00  0.00     0.293 HD
ENDBRANCH  19  22
ENDBRANCH  13  14
ENDBRANCH  12  13
ENDBRANCH  10  12
ENDBRANCH   1  10
TORSDOF 12
ENDMDL
MODEL 4
REMARK VINA RESULT:    -5.558      3.170      8.068
REMARK INTER + INTRA:         -10.260
REMARK INTER:                  -8.919
REMARK INTRA:                  -1.341
REMARK UNBOUND:                -1.128
REMARK SMILES CCCCC[C@H](O)CC(=O)CCc1ccc(O)c(OC)c1
REMARK SMILES IDX 8 1 6 2 7 3 5 5 4 6 3 7 2 8 1 9 9 10 10 11 11 12 12 13 13 14
REMARK SMILES IDX 21 15 14 16 18 17 15 18 16 19 19 20 20 21 17 22
REMARK H PARENT 7 4 17 23
REMARK Flexibility Score: inf
ROOT
ATOM      1  C   UNL     1      95.505  93.017  78.823  1.00  0.00     0.107 C 
ENDROOT
BRANCH   1   2
ATOM      2  C   UNL     1      94.141  93.397  78.244  1.00  0.00     0.121 C 
BRANCH   2   3
ATOM      3  O   UNL     1      93.104  92.770  78.996  1.00  0.00    -0.393 OA
ATOM      4  H   UNL     1      93.166  93.091  79.912  1.00  0.00     0.210 HD
ENDBRANCH   2   3
BRANCH   2   5
ATOM      5  C   UNL     1      93.901  94.912  78.219  1.00  0.00     0.032 C 
BRANCH   5   6
ATOM      6  C   UNL     1      93.444  95.401  76.839  1.00  0.00     0.003 C 
BRANCH   6   7
ATOM      7  C   UNL     1      92.032  95.996  76.843  1.00  0.00    -0.000 C 
BRANCH   7   8
ATOM      8  C   UNL     1      90.932  94.962  77.077  1.00  0.00    -0.003 C 
ATOM      9  C   UNL     1      90.977  93.859  76.030  1.00  0.00     0.004 C 
ENDBRANCH   7   8
ENDBRANCH   6   7
ENDBRANCH   5   6
ENDBRANCH   2   5
ENDBRANCH   1   2
BRANCH   1  10
ATOM     10  C   UNL     1      95.556  93.111  80.339  1.00  0.00     0.135 C 
ATOM     11  O   UNL     1      95.084  92.219  81.045  1.00  0.00    -0.300 OA
BRANCH  10  12
ATOM     12  C   UNL     1      96.253  94.330  80.924  1.00  0.00     0.080 C 
BRANCH  12  13
ATOM     13  C   UNL     1      97.220  95.010  79.953  1.00  0.00     0.043 C 
BRANCH  13  14
ATOM     14  C   UNL     1      97.226  96.515  80.081  1.00  0.00    -0.044 A 
ATOM     15  C   UNL     1      96.831  97.115  81.277  1.00  0.00     0.054 A 
ATOM     16  C   UNL     1      97.628  97.305  79.004  1.00  0.00     0.008 A 
ATOM     17  C   UNL     1      96.838  98.505  81.394  1.00  0.00     0.160 A 
ATOM     18  C   UNL     1      97.636  98.695  79.121  1.00  0.00     0.050 A 
ATOM     19  C   UNL     1      97.240  99.295  80.317  1.00  0.00     0.157 A 
BRANCH  17  20
ATOM     20  O   UNL     1      96.449  99.080  82.567  1.00  0.00    -0.493 OA
ATOM     21  C   UNL     1      96.934  98.489  83.771  1.00  0.00     0.278 C 
ENDBRANCH  17  20
BRANCH  19  22
ATOM     22  O   UNL     1      97.251 100.653  80.420  1.00  0.00    -0.504 OA
ATOM     23  H   UNL     1      97.201 100.900  81.359  1.00  0.00     0.293 HD
ENDBRANCH  19  22
ENDBRANCH  13  14
ENDBRANCH  12  13
ENDBRANCH  10  12
ENDBRANCH   1  10
TORSDOF 12
ENDMDL
MODEL 5
REMARK VINA RESULT:    -5.461     11.259     14.588
REMARK INTER + INTRA:         -10.100
REMARK INTER:                  -8.192
REMARK INTRA:                  -1.908
REMARK UNBOUND:                -1.128
REMARK SMILES CCCCC[C@H](O)CC(=O)CCc1ccc(O)c(OC)c1
REMARK SMILES IDX 8 1 6 2 7 3 5 5 4 6 3 7 2 8 1 9 9 10 10 11 11 12 12 13 13 14
REMARK SMILES IDX 21 15 14 16 18 17 15 18 16 19 19 20 20 21 17 22
REMARK H PARENT 7 4 17 23
REMARK Flexibility Score: inf
ROOT
ATOM      1  C   UNL     1      90.815  98.269  68.733  1.00  0.00     0.107 C 
ENDROOT
BRANCH   1   2
ATOM      2  C   UNL     1      89.649  97.952  67.794  1.00  0.00     0.121 C 
BRANCH   2   3
ATOM      3  O   UNL     1      88.450  97.792  68.548  1.00  0.00    -0.393 OA
ATOM      4  H   UNL     1      88.593  98.194  69.423  1.00  0.00     0.210 HD
ENDBRANCH   2   3
BRANCH   2   5
ATOM      5  C   UNL     1      89.432  99.027  66.722  1.00  0.00     0.032 C 
BRANCH   5   6
ATOM      6  C   UNL     1      88.402 100.076  67.159  1.00  0.00     0.003 C 
BRANCH   6   7
ATOM      7  C   UNL     1      87.149 100.099  66.278  1.00  0.00    -0.000 C 
BRANCH   7   8
ATOM      8  C   UNL     1      86.489 101.474  66.188  1.00  0.00    -0.003 C 
ATOM      9  C   UNL     1      87.526 102.587  66.183  1.00  0.00     0.004 C 
ENDBRANCH   7   8
ENDBRANCH   6   7
ENDBRANCH   5   6
ENDBRANCH   2   5
ENDBRANCH   1   2
BRANCH   1  10
ATOM     10  C   UNL     1      90.411  99.140  69.912  1.00  0.00     0.135 C 
ATOM     11  O   UNL     1      89.713  98.690  70.821  1.00  0.00    -0.300 OA
BRANCH  10  12
ATOM     12  C   UNL     1      90.948 100.563  69.925  1.00  0.00     0.080 C 
BRANCH  12  13
ATOM     13  C   UNL     1      92.110 100.790  68.956  1.00  0.00     0.043 C 
BRANCH  13  14
ATOM     14  C   UNL     1      91.787 101.786  67.868  1.00  0.00    -0.044 A 
ATOM     15  C   UNL     1      92.218 101.556  66.561  1.00  0.00     0.054 A 
ATOM     16  C   UNL     1      91.057 102.936  68.169  1.00  0.00     0.008 A 
ATOM     17  C   UNL     1      91.919 102.476  65.556  1.00  0.00     0.160 A 
ATOM     18  C   UNL     1      90.757 103.856  67.164  1.00  0.00     0.050 A 
ATOM     19  C   UNL     1      91.189 103.626  65.858  1.00  0.00     0.157 A 
BRANCH  17  20
ATOM     20  O   UNL     1      92.346 102.241  64.284  1.00  0.00    -0.493 OA
ATOM     21  C   UNL     1      93.751 102.312  64.049  1.00  0.00     0.278 C 
ENDBRANCH  17  20
BRANCH  19  22
ATOM     22  O   UNL     1      90.890 104.531  64.885  1.00  0.00    -0.504 OA
ATOM     23  H   UNL     1      89.985 104.859  65.024  1.00  0.00     0.293 HD
ENDBRANCH  19  22
ENDBRANCH  13  14
ENDBRANCH  12  13
ENDBRANCH  10  12
ENDBRANCH   1  10
TORSDOF 12
ENDMDL
MODEL 6
REMARK VINA RESULT:    -5.447     12.456     14.003
REMARK INTER + INTRA:         -10.078
REMARK INTER:                  -7.997
REMARK INTRA:                  -2.081
REMARK UNBOUND:                -1.128
REMARK SMILES CCCCC[C@H](O)CC(=O)CCc1ccc(O)c(OC)c1
REMARK SMILES IDX 8 1 6 2 7 3 5 5 4 6 3 7 2 8 1 9 9 10 10 11 11 12 12 13 13 14
REMARK SMILES IDX 21 15 14 16 18 17 15 18 16 19 19 20 20 21 17 22
REMARK H PARENT 7 4 17 23
REMARK Flexibility Score: inf
ROOT
ATOM      1  C   UNL     1      96.084  82.437  77.559  1.00  0.00     0.107 C 
ENDROOT
BRANCH   1   2
ATOM      2  C   UNL     1      97.479  81.880  77.850  1.00  0.00     0.121 C 
BRANCH   2   3
ATOM      3  O   UNL     1      97.967  82.414  79.078  1.00  0.00    -0.393 OA
ATOM      4  H   UNL     1      98.860  82.766  78.916  1.00  0.00     0.210 HD
ENDBRANCH   2   3
BRANCH   2   5
ATOM      5  C   UNL     1      97.511  80.348  77.918  1.00  0.00     0.032 C 
BRANCH   5   6
ATOM      6  C   UNL     1      98.360  79.739  76.795  1.00  0.00     0.003 C 
BRANCH   6   7
ATOM      7  C   UNL     1      99.531  80.630  76.368  1.00  0.00    -0.000 C 
BRANCH   7   8
ATOM      8  C   UNL     1     100.473  79.965  75.366  1.00  0.00    -0.003 C 
ATOM      9  C   UNL     1     101.646  80.870  75.023  1.00  0.00     0.004 C 
ENDBRANCH   7   8
ENDBRANCH   6   7
ENDBRANCH   5   6
ENDBRANCH   2   5
ENDBRANCH   1   2
BRANCH   1  10
ATOM     10  C   UNL     1      96.002  83.177  76.234  1.00  0.00     0.135 C 
ATOM     11  O   UNL     1      95.595  84.338  76.181  1.00  0.00    -0.300 OA
BRANCH  10  12
ATOM     12  C   UNL     1      96.489  82.427  75.003  1.00  0.00     0.080 C 
BRANCH  12  13
ATOM     13  C   UNL     1      97.570  83.172  74.217  1.00  0.00     0.043 C 
BRANCH  13  14
ATOM     14  C   UNL     1      98.329  82.279  73.264  1.00  0.00    -0.044 A 
ATOM     15  C   UNL     1      99.500  82.738  72.662  1.00  0.00     0.054 A 
ATOM     16  C   UNL     1      97.856  80.997  72.985  1.00  0.00     0.008 A 
ATOM     17  C   UNL     1     100.200  81.912  71.782  1.00  0.00     0.160 A 
ATOM     18  C   UNL     1      98.556  80.171  72.105  1.00  0.00     0.050 A 
ATOM     19  C   UNL     1      99.728  80.629  71.503  1.00  0.00     0.157 A 
BRANCH  17  20
ATOM     20  O   UNL     1     101.344  82.371  71.199  1.00  0.00    -0.493 OA
ATOM     21  C   UNL     1     102.036  83.422  71.870  1.00  0.00     0.278 C 
ENDBRANCH  17  20
BRANCH  19  22
ATOM     22  O   UNL     1     100.403  79.814  70.645  1.00  0.00    -0.504 OA
ATOM     23  H   UNL     1     100.825  79.100  71.153  1.00  0.00     0.293 HD
ENDBRANCH  19  22
ENDBRANCH  13  14
ENDBRANCH  12  13
ENDBRANCH  10  12
ENDBRANCH   1  10
TORSDOF 12
ENDMDL
MODEL 7
REMARK VINA RESULT:    -5.386     12.059     14.056
REMARK INTER + INTRA:          -9.977
REMARK INTER:                  -9.223
REMARK INTRA:                  -0.754
REMARK UNBOUND:                -1.128
REMARK SMILES CCCCC[C@H](O)CC(=O)CCc1ccc(O)c(OC)c1
REMARK SMILES IDX 8 1 6 2 7 3 5 5 4 6 3 7 2 8 1 9 9 10 10 11 11 12 12 13 13 14
REMARK SMILES IDX 21 15 14 16 18 17 15 18 16 19 19 20 20 21 17 22
REMARK H PARENT 7 4 17 23
REMARK Flexibility Score: inf
ROOT
ATOM      1  C   UNL     1      97.423  82.488  76.209  1.00  0.00     0.107 C 
ENDROOT
BRANCH   1   2
ATOM      2  C   UNL     1      96.288  82.428  75.184  1.00  0.00     0.121 C 
BRANCH   2   3
ATOM      3  O   UNL     1      95.535  83.638  75.226  1.00  0.00    -0.393 OA
ATOM      4  H   UNL     1      94.593  83.400  75.288  1.00  0.00     0.210 HD
ENDBRANCH   2   3
BRANCH   2   5
ATOM      5  C   UNL     1      96.784  82.192  73.752  1.00  0.00     0.032 C 
BRANCH   5   6
ATOM      6  C   UNL     1      98.226  81.671  73.720  1.00  0.00     0.003 C 
BRANCH   6   7
ATOM      7  C   UNL     1      99.104  82.381  72.684  1.00  0.00    -0.000 C 
BRANCH   7   8
ATOM      8  C   UNL     1      99.376  83.847  73.014  1.00  0.00    -0.003 C 
ATOM      9  C   UNL     1     100.599  83.997  73.906  1.00  0.00     0.004 C 
ENDBRANCH   7   8
ENDBRANCH   6   7
ENDBRANCH   5   6
ENDBRANCH   2   5
ENDBRANCH   1   2
BRANCH   1  10
ATOM     10  C   UNL     1      97.295  81.440  77.302  1.00  0.00     0.135 C 
ATOM     11  O   UNL     1      96.862  80.315  77.052  1.00  0.00    -0.300 OA
BRANCH  10  12
ATOM     12  C   UNL     1      97.769  81.841  78.690  1.00  0.00     0.080 C 
BRANCH  12  13
ATOM     13  C   UNL     1      96.631  82.194  79.650  1.00  0.00     0.043 C 
BRANCH  13  14
ATOM     14  C   UNL     1      96.953  81.877  81.091  1.00  0.00    -0.044 A 
ATOM     15  C   UNL     1      97.737  80.766  81.403  1.00  0.00     0.054 A 
ATOM     16  C   UNL     1      96.465  82.695  82.111  1.00  0.00     0.008 A 
ATOM     17  C   UNL     1      98.034  80.474  82.734  1.00  0.00     0.160 A 
ATOM     18  C   UNL     1      96.762  82.403  83.442  1.00  0.00     0.050 A 
ATOM     19  C   UNL     1      97.546  81.292  83.754  1.00  0.00     0.157 A 
BRANCH  17  20
ATOM     20  O   UNL     1      98.801  79.386  83.027  1.00  0.00    -0.493 OA
ATOM     21  C   UNL     1      99.936  79.152  82.196  1.00  0.00     0.278 C 
ENDBRANCH  17  20
BRANCH  19  22
ATOM     22  O   UNL     1      97.829  81.017  85.057  1.00  0.00    -0.504 OA
ATOM     23  H   UNL     1      96.998  80.986  85.562  1.00  0.00     0.293 HD
ENDBRANCH  19  22
ENDBRANCH  13  14
ENDBRANCH  12  13
ENDBRANCH  10  12
ENDBRANCH   1  10
TORSDOF 12
ENDMDL
MODEL 8
REMARK VINA RESULT:    -5.378     10.706     13.050
REMARK INTER + INTRA:          -9.964
REMARK INTER:                  -9.150
REMARK INTRA:                  -0.815
REMARK UNBOUND:                -1.128
REMARK SMILES CCCCC[C@H](O)CC(=O)CCc1ccc(O)c(OC)c1
REMARK SMILES IDX 8 1 6 2 7 3 5 5 4 6 3 7 2 8 1 9 9 10 10 11 11 12 12 13 13 14
REMARK SMILES IDX 21 15 14 16 18 17 15 18 16 19 19 20 20 21 17 22
REMARK H PARENT 7 4 17 23
REMARK Flexibility Score: inf
ROOT
ATOM      1  C   UNL     1      88.997  99.345  69.134  1.00  0.00     0.107 C 
ENDROOT
BRANCH   1   2
ATOM      2  C   UNL     1      89.821  99.077  70.395  1.00  0.00     0.121 C 
BRANCH   2   3
ATOM      3  O   UNL     1      89.630  97.730  70.821  1.00  0.00    -0.393 OA
ATOM      4  H   UNL     1      90.079  97.622  71.678  1.00  0.00     0.210 HD
ENDBRANCH   2   3
BRANCH   2   5
ATOM      5  C   UNL     1      91.320  99.338  70.200  1.00  0.00     0.032 C 
BRANCH   5   6
ATOM      6  C   UNL     1      92.059  99.479  71.536  1.00  0.00     0.003 C 
BRANCH   6   7
ATOM      7  C   UNL     1      93.560  99.742  71.373  1.00  0.00    -0.000 C 
BRANCH   7   8
ATOM      8  C   UNL     1      94.426  98.989  72.381  1.00  0.00    -0.003 C 
ATOM      9  C   UNL     1      93.605  98.508  73.567  1.00  0.00     0.004 C 
ENDBRANCH   7   8
ENDBRANCH   6   7
ENDBRANCH   5   6
ENDBRANCH   2   5
ENDBRANCH   1   2
BRANCH   1  10
ATOM     10  C   UNL     1      89.379  98.444  67.970  1.00  0.00     0.135 C 
ATOM     11  O   UNL     1      89.781  97.297  68.164  1.00  0.00    -0.300 OA
BRANCH  10  12
ATOM     12  C   UNL     1      89.195  99.019  66.574  1.00  0.00     0.080 C 
BRANCH  12  13
ATOM     13  C   UNL     1      87.835  99.685  66.358  1.00  0.00     0.043 C 
BRANCH  13  14
ATOM     14  C   UNL     1      87.913 101.193  66.331  1.00  0.00    -0.044 A 
ATOM     15  C   UNL     1      89.153 101.829  66.392  1.00  0.00     0.054 A 
ATOM     16  C   UNL     1      86.744 101.950  66.246  1.00  0.00     0.008 A 
ATOM     17  C   UNL     1      89.223 103.222  66.366  1.00  0.00     0.160 A 
ATOM     18  C   UNL     1      86.814 103.343  66.220  1.00  0.00     0.050 A 
ATOM     19  C   UNL     1      88.054 103.979  66.281  1.00  0.00     0.157 A 
BRANCH  17  20
ATOM     20  O   UNL     1      90.440 103.833  66.427  1.00  0.00    -0.493 OA
ATOM     21  C   UNL     1      91.261 103.759  65.263  1.00  0.00     0.278 C 
ENDBRANCH  17  20
BRANCH  19  22
ATOM     22  O   UNL     1      88.111 105.340  66.255  1.00  0.00    -0.504 OA
ATOM     23  H   UNL     1      87.838 105.685  67.123  1.00  0.00     0.293 HD
ENDBRANCH  19  22
ENDBRANCH  13  14
ENDBRANCH  12  13
ENDBRANCH  10  12
ENDBRANCH   1  10
TORSDOF 12
ENDMDL
MODEL 9
REMARK VINA RESULT:    -5.372     11.826     13.717
REMARK INTER + INTRA:          -9.954
REMARK INTER:                  -9.165
REMARK INTRA:                  -0.789
REMARK UNBOUND:                -1.128
REMARK SMILES CCCCC[C@H](O)CC(=O)CCc1ccc(O)c(OC)c1
REMARK SMILES IDX 8 1 6 2 7 3 5 5 4 6 3 7 2 8 1 9 9 10 10 11 11 12 12 13 13 14
REMARK SMILES IDX 21 15 14 16 18 17 15 18 16 19 19 20 20 21 17 22
REMARK H PARENT 7 4 17 23
REMARK Flexibility Score: inf
ROOT
ATOM      1  C   UNL     1      97.453  82.321  76.582  1.00  0.00     0.107 C 
ENDROOT
BRANCH   1   2
ATOM      2  C   UNL     1      96.331  82.895  75.713  1.00  0.00     0.121 C 
BRANCH   2   3
ATOM      3  O   UNL     1      96.140  84.274  76.019  1.00  0.00    -0.393 OA
ATOM      4  H   UNL     1      97.009  84.654  76.237  1.00  0.00     0.210 HD
ENDBRANCH   2   3
BRANCH   2   5
ATOM      5  C   UNL     1      96.599  82.744  74.211  1.00  0.00     0.032 C 
BRANCH   5   6
ATOM      6  C   UNL     1      98.020  82.244  73.926  1.00  0.00     0.003 C 
BRANCH   6   7
ATOM      7  C   UNL     1      98.960  83.343  73.422  1.00  0.00    -0.000 C 
BRANCH   7   8
ATOM      8  C   UNL     1     100.311  83.369  74.136  1.00  0.00    -0.003 C 
ATOM      9  C   UNL     1     100.947  81.988  74.168  1.00  0.00     0.004 C 
ENDBRANCH   7   8
ENDBRANCH   6   7
ENDBRANCH   5   6
ENDBRANCH   2   5
ENDBRANCH   1   2
BRANCH   1  10
ATOM     10  C   UNL     1      97.045  81.060  77.326  1.00  0.00     0.135 C 
ATOM     11  O   UNL     1      96.354  80.199  76.780  1.00  0.00    -0.300 OA
BRANCH  10  12
ATOM     12  C   UNL     1      97.570  80.904  78.745  1.00  0.00     0.080 C 
BRANCH  12  13
ATOM     13  C   UNL     1      97.163  82.045  79.679  1.00  0.00     0.043 C 
BRANCH  13  14
ATOM     14  C   UNL     1      96.829  81.575  81.076  1.00  0.00    -0.044 A 
ATOM     15  C   UNL     1      96.617  82.505  82.093  1.00  0.00     0.054 A 
ATOM     16  C   UNL     1      96.733  80.210  81.347  1.00  0.00     0.008 A 
ATOM     17  C   UNL     1      96.308  82.070  83.382  1.00  0.00     0.160 A 
ATOM     18  C   UNL     1      96.424  79.775  82.636  1.00  0.00     0.050 A 
ATOM     19  C   UNL     1      96.212  80.705  83.653  1.00  0.00     0.157 A 
BRANCH  17  20
ATOM     20  O   UNL     1      96.104  82.989  84.367  1.00  0.00    -0.493 OA
ATOM     21  C   UNL     1      95.493  84.221  83.989  1.00  0.00     0.278 C 
ENDBRANCH  17  20
BRANCH  19  22
ATOM     22  O   UNL     1      95.911  80.269  84.908  1.00  0.00    -0.504 OA
ATOM     23  H   UNL     1      96.720  80.275  85.448  1.00  0.00     0.293 HD
ENDBRANCH  19  22
ENDBRANCH  13  14
ENDBRANCH  12  13
ENDBRANCH  10  12
ENDBRANCH   1  10
TORSDOF 12
ENDMDL
MODEL 10
REMARK VINA RESULT:    -5.335      2.938      7.636
REMARK INTER + INTRA:          -9.893
REMARK INTER:                  -8.207
REMARK INTRA:                  -1.687
REMARK UNBOUND:                -1.128
REMARK SMILES CCCCC[C@H](O)CC(=O)CCc1ccc(O)c(OC)c1
REMARK SMILES IDX 8 1 6 2 7 3 5 5 4 6 3 7 2 8 1 9 9 10 10 11 11 12 12 13 13 14
REMARK SMILES IDX 21 15 14 16 18 17 15 18 16 19 19 20 20 21 17 22
REMARK H PARENT 7 4 17 23
REMARK Flexibility Score: inf
ROOT
ATOM      1  C   UNL     1      95.467  92.900  78.747  1.00  0.00     0.107 C 
ENDROOT
BRANCH   1   2
ATOM      2  C   UNL     1      94.121  93.275  78.121  1.00  0.00     0.121 C 
BRANCH   2   3
ATOM      3  O   UNL     1      93.057  92.762  78.919  1.00  0.00    -0.393 OA
ATOM      4  H   UNL     1      93.276  91.843  79.151  1.00  0.00     0.210 HD
ENDBRANCH   2   3
BRANCH   2   5
ATOM      5  C   UNL     1      93.940  94.788  77.949  1.00  0.00     0.032 C 
BRANCH   5   6
ATOM      6  C   UNL     1      94.346  95.262  76.548  1.00  0.00     0.003 C 
BRANCH   6   7
ATOM      7  C   UNL     1      93.245  96.051  75.832  1.00  0.00    -0.000 C 
BRANCH   7   8
ATOM      8  C   UNL     1      93.721  96.752  74.561  1.00  0.00    -0.003 C 
ATOM      9  C   UNL     1      95.108  97.348  74.744  1.00  0.00     0.004 C 
ENDBRANCH   7   8
ENDBRANCH   6   7
ENDBRANCH   5   6
ENDBRANCH   2   5
ENDBRANCH   1   2
BRANCH   1  10
ATOM     10  C   UNL     1      95.479  93.040  80.260  1.00  0.00     0.135 C 
ATOM     11  O   UNL     1      94.872  92.243  80.975  1.00  0.00    -0.300 OA
BRANCH  10  12
ATOM     12  C   UNL     1      96.310  94.179  80.833  1.00  0.00     0.080 C 
BRANCH  12  13
ATOM     13  C   UNL     1      97.593  94.458  80.048  1.00  0.00     0.043 C 
BRANCH  13  14
ATOM     14  C   UNL     1      97.595  95.813  79.379  1.00  0.00    -0.044 A 
ATOM     15  C   UNL     1      97.457  96.969  80.146  1.00  0.00     0.054 A 
ATOM     16  C   UNL     1      97.734  95.906  77.994  1.00  0.00     0.008 A 
ATOM     17  C   UNL     1      97.460  98.220  79.528  1.00  0.00     0.160 A 
ATOM     18  C   UNL     1      97.737  97.156  77.376  1.00  0.00     0.050 A 
ATOM     19  C   UNL     1      97.599  98.313  78.143  1.00  0.00     0.157 A 
BRANCH  17  20
ATOM     20  O   UNL     1      97.324  99.343  80.287  1.00  0.00    -0.493 OA
ATOM     21  C   UNL     1      98.447  99.731  81.076  1.00  0.00     0.278 C 
ENDBRANCH  17  20
BRANCH  19  22
ATOM     22  O   UNL     1      97.603  99.528  77.527  1.00  0.00    -0.504 OA
ATOM     23  H   UNL     1      97.754 100.220  78.194  1.00  0.00     0.293 HD
ENDBRANCH  19  22
ENDBRANCH  13  14
ENDBRANCH  12  13
ENDBRANCH  10  12
ENDBRANCH   1  10
TORSDOF 12
ENDMDL
