MODEL 1
REMARK VINA RESULT:    -5.536      0.000      0.000
REMARK INTER + INTRA:         -10.954
REMARK INTER:                  -8.611
REMARK INTRA:                  -2.343
REMARK UNBOUND:                -2.343
REMARK SMILES COc1cc(CNC(=O)CCCC/C=C/C(C)C)ccc1O
REMARK SMILES IDX 10 1 8 2 7 3 9 5 6 6 5 7 3 8 21 9 4 10 20 11 19 12 2 13 1 14
REMARK SMILES IDX 22 15 11 17 12 18 13 19 14 20 15 21 16 22 17 23 18 24
REMARK H PARENT 7 4 22 16
REMARK Flexibility Score: inf
ROOT
ATOM      1  C   UNL     1      80.989  85.844  84.425  1.00  0.00     0.100 C 
ENDROOT
BRANCH   1   2
ATOM      2  C   UNL     1      81.583  86.165  85.737  1.00  0.00     0.220 C 
ATOM      3  N   UNL     1      80.791  86.313  86.836  1.00  0.00    -0.352 N 
ATOM      4  H   UNL     1      79.800  86.210  86.666  1.00  0.00     0.163 HD
ATOM      5  O   UNL     1      82.830  86.274  85.812  1.00  0.00    -0.275 OA
BRANCH   3   6
ATOM      6  C   UNL     1      81.268  86.592  88.153  1.00  0.00     0.151 C 
BRANCH   6   7
ATOM      7  C   UNL     1      81.159  88.040  88.479  1.00  0.00    -0.025 A 
ATOM      8  C   UNL     1      82.231  90.171  89.090  1.00  0.00     0.160 A 
ATOM      9  C   UNL     1      80.972  90.807  89.083  1.00  0.00     0.157 A 
ATOM     10  C   UNL     1      82.312  88.795  88.790  1.00  0.00     0.056 A 
ATOM     11  C   UNL     1      79.811  90.063  88.793  1.00  0.00     0.050 A 
ATOM     12  C   UNL     1      79.904  88.692  88.484  1.00  0.00     0.009 A 
BRANCH   8  13
ATOM     13  O   UNL     1      83.356  90.876  89.435  1.00  0.00    -0.493 OA
ATOM     14  C   UNL     1      83.833  90.604  90.766  1.00  0.00     0.278 C 
ENDBRANCH   8  13
BRANCH   9  15
ATOM     15  O   UNL     1      80.861  92.133  89.354  1.00  0.00    -0.504 OA
ATOM     16  H   UNL     1      81.283  92.325  90.194  1.00  0.00     0.293 HD
ENDBRANCH   9  15
ENDBRANCH   6   7
ENDBRANCH   3   6
ENDBRANCH   1   2
BRANCH   1  17
ATOM     17  C   UNL     1      79.903  86.876  84.019  1.00  0.00     0.010 C 
BRANCH  17  18
ATOM     18  C   UNL     1      80.495  88.269  83.663  1.00  0.00     0.005 C 
BRANCH  18  19
ATOM     19  C   UNL     1      80.114  89.356  84.704  1.00  0.00     0.027 C 
BRANCH  19  20
ATOM     20  C   UNL     1      81.285  89.938  85.342  1.00  0.00    -0.031 C 
ATOM     21  C   UNL     1      82.552  89.706  84.953  1.00  0.00    -0.028 C 
BRANCH  21  22
ATOM     22  C   UNL     1      83.714  90.317  85.597  1.00  0.00     0.005 C 
ATOM     23  C   UNL     1      84.742  89.259  86.084  1.00  0.00     0.012 C 
ATOM     24  C   UNL     1      84.382  91.338  84.640  1.00  0.00     0.012 C 
ENDBRANCH  21  22
ENDBRANCH  19  20
ENDBRANCH  18  19
ENDBRANCH  17  18
ENDBRANCH   1  17
TORSDOF 10
ENDMDL
MODEL 2
REMARK VINA RESULT:    -5.138      2.117      4.517
REMARK INTER + INTRA:         -10.335
REMARK INTER:                  -8.935
REMARK INTRA:                  -1.399
REMARK UNBOUND:                -2.343
REMARK SMILES COc1cc(CNC(=O)CCCC/C=C/C(C)C)ccc1O
REMARK SMILES IDX 10 1 8 2 7 3 9 5 6 6 5 7 3 8 21 9 4 10 20 11 19 12 2 13 1 14
REMARK SMILES IDX 22 15 11 17 12 18 13 19 14 20 15 21 16 22 17 23 18 24
REMARK H PARENT 7 4 22 16
REMARK Flexibility Score: inf
ROOT
ATOM      1  C   UNL     1      79.584  87.037  89.669  1.00  0.00     0.100 C 
ENDROOT
BRANCH   1   2
ATOM      2  C   UNL     1      79.774  88.492  89.827  1.00  0.00     0.220 C 
ATOM      3  N   UNL     1      79.882  89.298  88.733  1.00  0.00    -0.352 N 
ATOM      4  H   UNL     1      79.846  88.817  87.844  1.00  0.00     0.163 HD
ATOM      5  O   UNL     1      79.809  88.963  90.989  1.00  0.00    -0.275 OA
BRANCH   3   6
ATOM      6  C   UNL     1      80.036  90.717  88.777  1.00  0.00     0.151 C 
BRANCH   6   7
ATOM      7  C   UNL     1      81.348  91.142  88.218  1.00  0.00    -0.025 A 
ATOM      8  C   UNL     1      83.262  90.725  86.726  1.00  0.00     0.160 A 
ATOM      9  C   UNL     1      83.841  91.948  87.126  1.00  0.00     0.157 A 
ATOM     10  C   UNL     1      82.024  90.333  87.276  1.00  0.00     0.056 A 
ATOM     11  C   UNL     1      83.188  92.755  88.078  1.00  0.00     0.050 A 
ATOM     12  C   UNL     1      81.946  92.361  88.613  1.00  0.00     0.009 A 
BRANCH   8  13
ATOM     13  O   UNL     1      83.925  89.905  85.849  1.00  0.00    -0.493 OA
ATOM     14  C   UNL     1      83.805  90.300  84.470  1.00  0.00     0.278 C 
ENDBRANCH   8  13
BRANCH   9  15
ATOM     15  O   UNL     1      85.025  92.360  86.606  1.00  0.00    -0.504 OA
ATOM     16  H   UNL     1      85.481  91.612  86.213  1.00  0.00     0.293 HD
ENDBRANCH   9  15
ENDBRANCH   6   7
ENDBRANCH   3   6
ENDBRANCH   1   2
BRANCH   1  17
ATOM     17  C   UNL     1      79.990  86.557  88.250  1.00  0.00     0.010 C 
BRANCH  17  18
ATOM     18  C   UNL     1      81.497  86.190  88.143  1.00  0.00     0.005 C 
BRANCH  18  19
ATOM     19  C   UNL     1      81.898  85.756  86.707  1.00  0.00     0.027 C 
BRANCH  19  20
ATOM     20  C   UNL     1      81.079  86.399  85.691  1.00  0.00    -0.031 C 
ATOM     21  C   UNL     1      81.482  87.444  84.945  1.00  0.00    -0.028 C 
BRANCH  21  22
ATOM     22  C   UNL     1      80.648  88.063  83.915  1.00  0.00     0.005 C 
ATOM     23  C   UNL     1      80.140  87.032  82.870  1.00  0.00     0.012 C 
ATOM     24  C   UNL     1      79.462  88.819  84.568  1.00  0.00     0.012 C 
ENDBRANCH  21  22
ENDBRANCH  19  20
ENDBRANCH  18  19
ENDBRANCH  17  18
ENDBRANCH   1  17
TORSDOF 10
ENDMDL
MODEL 3
REMARK VINA RESULT:    -4.967     18.124     20.263
REMARK INTER + INTRA:         -10.069
REMARK INTER:                  -8.628
REMARK INTRA:                  -1.442
REMARK UNBOUND:                -2.343
REMARK SMILES COc1cc(CNC(=O)CCCC/C=C/C(C)C)ccc1O
REMARK SMILES IDX 10 1 8 2 7 3 9 5 6 6 5 7 3 8 21 9 4 10 20 11 19 12 2 13 1 14
REMARK SMILES IDX 22 15 11 17 12 18 13 19 14 20 15 21 16 22 17 23 18 24
REMARK H PARENT 7 4 22 16
REMARK Flexibility Score: inf
ROOT
ATOM      1  C   UNL     1      75.938  84.272  67.735  1.00  0.00     0.100 C 
ENDROOT
BRANCH   1   2
ATOM      2  C   UNL     1      74.929  85.057  68.472  1.00  0.00     0.220 C 
ATOM      3  N   UNL     1      74.460  86.231  67.963  1.00  0.00    -0.352 N 
ATOM      4  H   UNL     1      74.872  86.509  67.083  1.00  0.00     0.163 HD
ATOM      5  O   UNL     1      74.503  84.601  69.561  1.00  0.00    -0.275 OA
BRANCH   3   6
ATOM      6  C   UNL     1      73.464  87.047  68.580  1.00  0.00     0.151 C 
BRANCH   6   7
ATOM      7  C   UNL     1      73.963  88.427  68.825  1.00  0.00    -0.025 A 
ATOM      8  C   UNL     1      73.749  90.596  69.972  1.00  0.00     0.160 A 
ATOM      9  C   UNL     1      74.911  91.056  69.319  1.00  0.00     0.157 A 
ATOM     10  C   UNL     1      73.285  89.288  69.718  1.00  0.00     0.056 A 
ATOM     11  C   UNL     1      75.586  90.216  68.411  1.00  0.00     0.050 A 
ATOM     12  C   UNL     1      75.122  88.908  68.172  1.00  0.00     0.009 A 
BRANCH   8  13
ATOM     13  O   UNL     1      73.052  91.432  70.806  1.00  0.00    -0.493 OA
ATOM     14  C   UNL     1      72.576  90.799  72.008  1.00  0.00     0.278 C 
ENDBRANCH   8  13
BRANCH   9  15
ATOM     15  O   UNL     1      75.392  92.305  69.551  1.00  0.00    -0.504 OA
ATOM     16  H   UNL     1      75.181  92.568  70.450  1.00  0.00     0.293 HD
ENDBRANCH   9  15
ENDBRANCH   6   7
ENDBRANCH   3   6
ENDBRANCH   1   2
BRANCH   1  17
ATOM     17  C   UNL     1      77.382  84.695  68.115  1.00  0.00     0.010 C 
BRANCH  17  18
ATOM     18  C   UNL     1      78.107  85.464  66.974  1.00  0.00     0.005 C 
BRANCH  18  19
ATOM     19  C   UNL     1      77.969  87.003  67.118  1.00  0.00     0.027 C 
BRANCH  19  20
ATOM     20  C   UNL     1      77.541  87.633  65.877  1.00  0.00    -0.031 C 
ATOM     21  C   UNL     1      78.055  88.779  65.395  1.00  0.00    -0.028 C 
BRANCH  21  22
ATOM     22  C   UNL     1      77.624  89.384  64.135  1.00  0.00     0.005 C 
ATOM     23  C   UNL     1      77.117  88.326  63.117  1.00  0.00     0.012 C 
ATOM     24  C   UNL     1      76.539  90.460  64.401  1.00  0.00     0.012 C 
ENDBRANCH  21  22
ENDBRANCH  19  20
ENDBRANCH  18  19
ENDBRANCH  17  18
ENDBRANCH   1  17
TORSDOF 10
ENDMDL
MODEL 4
REMARK VINA RESULT:    -4.899     14.137     17.495
REMARK INTER + INTRA:          -9.963
REMARK INTER:                  -9.176
REMARK INTRA:                  -0.786
REMARK UNBOUND:                -2.343
REMARK SMILES COc1cc(CNC(=O)CCCC/C=C/C(C)C)ccc1O
REMARK SMILES IDX 10 1 8 2 7 3 9 5 6 6 5 7 3 8 21 9 4 10 20 11 19 12 2 13 1 14
REMARK SMILES IDX 22 15 11 17 12 18 13 19 14 20 15 21 16 22 17 23 18 24
REMARK H PARENT 7 4 22 16
REMARK Flexibility Score: inf
ROOT
ATOM      1  C   UNL     1      95.128  94.518  75.513  1.00  0.00     0.100 C 
ENDROOT
BRANCH   1   2
ATOM      2  C   UNL     1      93.697  94.266  75.255  1.00  0.00     0.220 C 
ATOM      3  N   UNL     1      93.280  93.052  74.799  1.00  0.00    -0.352 N 
ATOM      4  H   UNL     1      94.018  92.380  74.639  1.00  0.00     0.163 HD
ATOM      5  O   UNL     1      92.881  95.190  75.489  1.00  0.00    -0.275 OA
BRANCH   3   6
ATOM      6  C   UNL     1      91.920  92.697  74.549  1.00  0.00     0.151 C 
BRANCH   6   7
ATOM      7  C   UNL     1      91.362  91.861  75.647  1.00  0.00    -0.025 A 
ATOM      8  C   UNL     1      90.545  89.685  76.460  1.00  0.00     0.160 A 
ATOM      9  C   UNL     1      90.317  90.246  77.734  1.00  0.00     0.157 A 
ATOM     10  C   UNL     1      91.063  90.497  75.429  1.00  0.00     0.056 A 
ATOM     11  C   UNL     1      90.592  91.609  77.960  1.00  0.00     0.050 A 
ATOM     12  C   UNL     1      91.120  92.409  76.928  1.00  0.00     0.009 A 
BRANCH   8  13
ATOM     13  O   UNL     1      90.217  88.376  76.216  1.00  0.00    -0.493 OA
ATOM     14  C   UNL     1      90.900  87.799  75.088  1.00  0.00     0.278 C 
ENDBRANCH   8  13
BRANCH   9  15
ATOM     15  O   UNL     1      89.832  89.489  78.751  1.00  0.00    -0.504 OA
ATOM     16  H   UNL     1      90.559  89.047  79.197  1.00  0.00     0.293 HD
ENDBRANCH   9  15
ENDBRANCH   6   7
ENDBRANCH   3   6
ENDBRANCH   1   2
BRANCH   1  17
ATOM     17  C   UNL     1      95.681  93.587  76.625  1.00  0.00     0.010 C 
BRANCH  17  18
ATOM     18  C   UNL     1      95.884  94.319  77.982  1.00  0.00     0.005 C 
BRANCH  18  19
ATOM     19  C   UNL     1      96.364  95.784  77.796  1.00  0.00     0.027 C 
BRANCH  19  20
ATOM     20  C   UNL     1      97.787  95.860  77.501  1.00  0.00    -0.031 C 
ATOM     21  C   UNL     1      98.429  96.993  77.161  1.00  0.00    -0.028 C 
BRANCH  21  22
ATOM     22  C   UNL     1      99.865  97.050  76.888  1.00  0.00     0.005 C 
ATOM     23  C   UNL     1     100.645  95.905  77.590  1.00  0.00     0.012 C 
ATOM     24  C   UNL     1     100.120  97.036  75.358  1.00  0.00     0.012 C 
ENDBRANCH  21  22
ENDBRANCH  19  20
ENDBRANCH  18  19
ENDBRANCH  17  18
ENDBRANCH   1  17
TORSDOF 10
ENDMDL
MODEL 5
REMARK VINA RESULT:    -4.850     15.387     18.548
REMARK INTER + INTRA:          -9.888
REMARK INTER:                  -9.019
REMARK INTRA:                  -0.869
REMARK UNBOUND:                -2.343
REMARK SMILES COc1cc(CNC(=O)CCCC/C=C/C(C)C)ccc1O
REMARK SMILES IDX 10 1 8 2 7 3 9 5 6 6 5 7 3 8 21 9 4 10 20 11 19 12 2 13 1 14
REMARK SMILES IDX 22 15 11 17 12 18 13 19 14 20 15 21 16 22 17 23 18 24
REMARK H PARENT 7 4 22 16
REMARK Flexibility Score: inf
ROOT
ATOM      1  C   UNL     1      91.890  93.383  77.378  1.00  0.00     0.100 C 
ENDROOT
BRANCH   1   2
ATOM      2  C   UNL     1      93.306  93.732  77.148  1.00  0.00     0.220 C 
ATOM      3  N   UNL     1      93.826  93.716  75.889  1.00  0.00    -0.352 N 
ATOM      4  H   UNL     1      93.182  93.431  75.165  1.00  0.00     0.163 HD
ATOM      5  O   UNL     1      94.002  94.063  78.138  1.00  0.00    -0.275 OA
BRANCH   3   6
ATOM      6  C   UNL     1      95.170  94.068  75.559  1.00  0.00     0.151 C 
BRANCH   6   7
ATOM      7  C   UNL     1      95.240  95.397  74.893  1.00  0.00    -0.025 A 
ATOM      8  C   UNL     1      96.575  97.227  73.929  1.00  0.00     0.160 A 
ATOM      9  C   UNL     1      95.391  97.922  73.605  1.00  0.00     0.157 A 
ATOM     10  C   UNL     1      96.489  95.974  74.570  1.00  0.00     0.056 A 
ATOM     11  C   UNL     1      94.139  97.368  73.938  1.00  0.00     0.050 A 
ATOM     12  C   UNL     1      94.062  96.110  74.568  1.00  0.00     0.009 A 
BRANCH   8  13
ATOM     13  O   UNL     1      97.797  97.793  73.666  1.00  0.00    -0.493 OA
ATOM     14  C   UNL     1      98.519  98.201  74.842  1.00  0.00     0.278 C 
ENDBRANCH   8  13
BRANCH   9  15
ATOM     15  O   UNL     1      95.438  99.124  72.976  1.00  0.00    -0.504 OA
ATOM     16  H   UNL     1      96.239  99.179  72.449  1.00  0.00     0.293 HD
ENDBRANCH   9  15
ENDBRANCH   6   7
ENDBRANCH   3   6
ENDBRANCH   1   2
BRANCH   1  17
ATOM     17  C   UNL     1      90.948  94.148  76.410  1.00  0.00     0.010 C 
BRANCH  17  18
ATOM     18  C   UNL     1      90.410  93.255  75.257  1.00  0.00     0.005 C 
BRANCH  18  19
ATOM     19  C   UNL     1      90.266  94.036  73.923  1.00  0.00     0.027 C 
BRANCH  19  20
ATOM     20  C   UNL     1      89.596  93.250  72.898  1.00  0.00    -0.031 C 
ATOM     21  C   UNL     1      89.348  91.932  72.998  1.00  0.00    -0.028 C 
BRANCH  21  22
ATOM     22  C   UNL     1      88.655  91.165  71.963  1.00  0.00     0.005 C 
ATOM     23  C   UNL     1      89.631  90.309  71.110  1.00  0.00     0.012 C 
ATOM     24  C   UNL     1      87.554  90.278  72.600  1.00  0.00     0.012 C 
ENDBRANCH  21  22
ENDBRANCH  19  20
ENDBRANCH  18  19
ENDBRANCH  17  18
ENDBRANCH   1  17
TORSDOF 10
ENDMDL
MODEL 6
REMARK VINA RESULT:    -4.795     23.306     26.129
REMARK INTER + INTRA:          -9.801
REMARK INTER:                  -9.070
REMARK INTRA:                  -0.731
REMARK UNBOUND:                -2.343
REMARK SMILES COc1cc(CNC(=O)CCCC/C=C/C(C)C)ccc1O
REMARK SMILES IDX 10 1 8 2 7 3 9 5 6 6 5 7 3 8 21 9 4 10 20 11 19 12 2 13 1 14
REMARK SMILES IDX 22 15 11 17 12 18 13 19 14 20 15 21 16 22 17 23 18 24
REMARK H PARENT 7 4 22 16
REMARK Flexibility Score: inf
ROOT
ATOM      1  C   UNL     1      82.867  65.236  75.760  1.00  0.00     0.100 C 
ENDROOT
BRANCH   1   2
ATOM      2  C   UNL     1      84.042  64.620  76.405  1.00  0.00     0.220 C 
ATOM      3  N   UNL     1      83.889  63.805  77.486  1.00  0.00    -0.352 N 
ATOM      4  H   UNL     1      82.936  63.690  77.802  1.00  0.00     0.163 HD
ATOM      5  O   UNL     1      85.175  64.851  75.916  1.00  0.00    -0.275 OA
BRANCH   3   6
ATOM      6  C   UNL     1      84.956  63.137  78.161  1.00  0.00     0.151 C 
BRANCH   6   7
ATOM      7  C   UNL     1      85.400  63.894  79.364  1.00  0.00    -0.025 A 
ATOM      8  C   UNL     1      86.680  65.746  80.361  1.00  0.00     0.160 A 
ATOM      9  C   UNL     1      86.241  65.359  81.644  1.00  0.00     0.157 A 
ATOM     10  C   UNL     1      86.258  65.010  79.234  1.00  0.00     0.056 A 
ATOM     11  C   UNL     1      85.402  64.237  81.790  1.00  0.00     0.050 A 
ATOM     12  C   UNL     1      84.976  63.515  80.659  1.00  0.00     0.009 A 
BRANCH   8  13
ATOM     13  O   UNL     1      87.549  66.798  80.219  1.00  0.00    -0.493 OA
ATOM     14  C   UNL     1      86.964  67.966  79.615  1.00  0.00     0.278 C 
ENDBRANCH   8  13
BRANCH   9  15
ATOM     15  O   UNL     1      86.619  66.055  82.748  1.00  0.00    -0.504 OA
ATOM     16  H   UNL     1      87.215  66.762  82.493  1.00  0.00     0.293 HD
ENDBRANCH   9  15
ENDBRANCH   6   7
ENDBRANCH   3   6
ENDBRANCH   1   2
BRANCH   1  17
ATOM     17  C   UNL     1      82.553  64.574  74.391  1.00  0.00     0.010 C 
BRANCH  17  18
ATOM     18  C   UNL     1      81.382  63.554  74.466  1.00  0.00     0.005 C 
BRANCH  18  19
ATOM     19  C   UNL     1      80.046  64.149  73.944  1.00  0.00     0.027 C 
BRANCH  19  20
ATOM     20  C   UNL     1      80.245  65.007  72.786  1.00  0.00    -0.031 C 
ATOM     21  C   UNL     1      80.129  66.347  72.809  1.00  0.00    -0.028 C 
BRANCH  21  22
ATOM     22  C   UNL     1      80.353  67.193  71.637  1.00  0.00     0.005 C 
ATOM     23  C   UNL     1      81.836  67.637  71.505  1.00  0.00     0.012 C 
ATOM     24  C   UNL     1      79.877  66.464  70.353  1.00  0.00     0.012 C 
ENDBRANCH  21  22
ENDBRANCH  19  20
ENDBRANCH  18  19
ENDBRANCH  17  18
ENDBRANCH   1  17
TORSDOF 10
ENDMDL
MODEL 7
REMARK VINA RESULT:    -4.617     22.332     25.431
REMARK INTER + INTRA:          -9.524
REMARK INTER:                  -7.849
REMARK INTRA:                  -1.675
REMARK UNBOUND:                -2.343
REMARK SMILES COc1cc(CNC(=O)CCCC/C=C/C(C)C)ccc1O
REMARK SMILES IDX 10 1 8 2 7 3 9 5 6 6 5 7 3 8 21 9 4 10 20 11 19 12 2 13 1 14
REMARK SMILES IDX 22 15 11 17 12 18 13 19 14 20 15 21 16 22 17 23 18 24
REMARK H PARENT 7 4 22 16
REMARK Flexibility Score: inf
ROOT
ATOM      1  C   UNL     1      80.256  66.324  74.118  1.00  0.00     0.100 C 
ENDROOT
BRANCH   1   2
ATOM      2  C   UNL     1      81.416  66.350  75.029  1.00  0.00     0.220 C 
ATOM      3  N   UNL     1      82.597  65.777  74.662  1.00  0.00    -0.352 N 
ATOM      4  H   UNL     1      82.591  65.331  73.754  1.00  0.00     0.163 HD
ATOM      5  O   UNL     1      81.289  66.932  76.133  1.00  0.00    -0.275 OA
BRANCH   3   6
ATOM      6  C   UNL     1      83.784  65.776  75.455  1.00  0.00     0.151 C 
BRANCH   6   7
ATOM      7  C   UNL     1      84.512  67.070  75.352  1.00  0.00    -0.025 A 
ATOM      8  C   UNL     1      85.483  69.058  76.433  1.00  0.00     0.160 A 
ATOM      9  C   UNL     1      85.914  69.531  75.177  1.00  0.00     0.157 A 
ATOM     10  C   UNL     1      84.785  67.835  76.509  1.00  0.00     0.056 A 
ATOM     11  C   UNL     1      85.632  68.790  74.012  1.00  0.00     0.050 A 
ATOM     12  C   UNL     1      84.945  67.564  74.099  1.00  0.00     0.009 A 
BRANCH   8  13
ATOM     13  O   UNL     1      85.697  69.808  77.562  1.00  0.00    -0.493 OA
ATOM     14  C   UNL     1      86.742  69.302  78.413  1.00  0.00     0.278 C 
ENDBRANCH   8  13
BRANCH   9  15
ATOM     15  O   UNL     1      86.600  70.699  75.071  1.00  0.00    -0.504 OA
ATOM     16  H   UNL     1      86.075  71.414  75.437  1.00  0.00     0.293 HD
ENDBRANCH   9  15
ENDBRANCH   6   7
ENDBRANCH   3   6
ENDBRANCH   1   2
BRANCH   1  17
ATOM     17  C   UNL     1      80.538  65.464  72.856  1.00  0.00     0.010 C 
BRANCH  17  18
ATOM     18  C   UNL     1      80.162  66.190  71.534  1.00  0.00     0.005 C 
BRANCH  18  19
ATOM     19  C   UNL     1      81.128  67.362  71.208  1.00  0.00     0.027 C 
BRANCH  19  20
ATOM     20  C   UNL     1      82.523  66.949  71.251  1.00  0.00    -0.031 C 
ATOM     21  C   UNL     1      83.187  66.416  70.210  1.00  0.00    -0.028 C 
BRANCH  21  22
ATOM     22  C   UNL     1      84.595  66.027  70.270  1.00  0.00     0.005 C 
ATOM     23  C   UNL     1      85.541  67.254  70.385  1.00  0.00     0.012 C 
ATOM     24  C   UNL     1      84.828  65.038  71.442  1.00  0.00     0.012 C 
ENDBRANCH  21  22
ENDBRANCH  19  20
ENDBRANCH  18  19
ENDBRANCH  17  18
ENDBRANCH   1  17
TORSDOF 10
ENDMDL
MODEL 8
REMARK VINA RESULT:    -4.599     16.004     19.272
REMARK INTER + INTRA:          -9.497
REMARK INTER:                  -8.622
REMARK INTRA:                  -0.875
REMARK UNBOUND:                -2.343
REMARK SMILES COc1cc(CNC(=O)CCCC/C=C/C(C)C)ccc1O
REMARK SMILES IDX 10 1 8 2 7 3 9 5 6 6 5 7 3 8 21 9 4 10 20 11 19 12 2 13 1 14
REMARK SMILES IDX 22 15 11 17 12 18 13 19 14 20 15 21 16 22 17 23 18 24
REMARK H PARENT 7 4 22 16
REMARK Flexibility Score: inf
ROOT
ATOM      1  C   UNL     1      92.912  93.765  77.370  1.00  0.00     0.100 C 
ENDROOT
BRANCH   1   2
ATOM      2  C   UNL     1      94.313  94.127  77.081  1.00  0.00     0.220 C 
ATOM      3  N   UNL     1      94.689  94.485  75.822  1.00  0.00    -0.352 N 
ATOM      4  H   UNL     1      93.951  94.456  75.131  1.00  0.00     0.163 HD
ATOM      5  O   UNL     1      95.135  94.117  78.030  1.00  0.00    -0.275 OA
BRANCH   3   6
ATOM      6  C   UNL     1      96.009  94.882  75.447  1.00  0.00     0.151 C 
BRANCH   6   7
ATOM      7  C   UNL     1      95.985  96.030  74.499  1.00  0.00    -0.025 A 
ATOM      8  C   UNL     1      97.090  97.375  72.758  1.00  0.00     0.160 A 
ATOM      9  C   UNL     1      95.951  98.202  72.672  1.00  0.00     0.157 A 
ATOM     10  C   UNL     1      97.098  96.300  73.671  1.00  0.00     0.056 A 
ATOM     11  C   UNL     1      94.841  97.957  73.506  1.00  0.00     0.050 A 
ATOM     12  C   UNL     1      94.854  96.873  74.406  1.00  0.00     0.009 A 
BRANCH   8  13
ATOM     13  O   UNL     1      98.197  97.649  71.996  1.00  0.00    -0.493 OA
ATOM     14  C   UNL     1      98.318  96.829  70.819  1.00  0.00     0.278 C 
ENDBRANCH   8  13
BRANCH   9  15
ATOM     15  O   UNL     1      95.906  99.237  71.795  1.00  0.00    -0.504 OA
ATOM     16  H   UNL     1      96.473  99.047  71.045  1.00  0.00     0.293 HD
ENDBRANCH   9  15
ENDBRANCH   6   7
ENDBRANCH   3   6
ENDBRANCH   1   2
BRANCH   1  17
ATOM     17  C   UNL     1      91.957  94.221  76.234  1.00  0.00     0.010 C 
BRANCH  17  18
ATOM     18  C   UNL     1      91.274  93.031  75.503  1.00  0.00     0.005 C 
BRANCH  18  19
ATOM     19  C   UNL     1      92.116  92.510  74.307  1.00  0.00     0.027 C 
BRANCH  19  20
ATOM     20  C   UNL     1      91.845  91.110  74.016  1.00  0.00    -0.031 C 
ATOM     21  C   UNL     1      90.777  90.435  74.477  1.00  0.00    -0.028 C 
BRANCH  21  22
ATOM     22  C   UNL     1      90.514  89.033  74.155  1.00  0.00     0.005 C 
ATOM     23  C   UNL     1      91.554  88.075  74.800  1.00  0.00     0.012 C 
ATOM     24  C   UNL     1      89.072  88.648  74.575  1.00  0.00     0.012 C 
ENDBRANCH  21  22
ENDBRANCH  19  20
ENDBRANCH  18  19
ENDBRANCH  17  18
ENDBRANCH   1  17
TORSDOF 10
ENDMDL
MODEL 9
REMARK VINA RESULT:    -4.585     23.940     26.315
REMARK INTER + INTRA:          -9.475
REMARK INTER:                  -8.008
REMARK INTRA:                  -1.466
REMARK UNBOUND:                -2.343
REMARK SMILES COc1cc(CNC(=O)CCCC/C=C/C(C)C)ccc1O
REMARK SMILES IDX 10 1 8 2 7 3 9 5 6 6 5 7 3 8 21 9 4 10 20 11 19 12 2 13 1 14
REMARK SMILES IDX 22 15 11 17 12 18 13 19 14 20 15 21 16 22 17 23 18 24
REMARK H PARENT 7 4 22 16
REMARK Flexibility Score: inf
ROOT
ATOM      1  C   UNL     1      80.315  66.272  71.531  1.00  0.00     0.100 C 
ENDROOT
BRANCH   1   2
ATOM      2  C   UNL     1      81.685  66.414  71.002  1.00  0.00     0.220 C 
ATOM      3  N   UNL     1      82.477  67.448  71.401  1.00  0.00    -0.352 N 
ATOM      4  H   UNL     1      82.043  68.093  72.046  1.00  0.00     0.163 HD
ATOM      5  O   UNL     1      82.102  65.545  70.198  1.00  0.00    -0.275 OA
BRANCH   3   6
ATOM      6  C   UNL     1      83.824  67.656  70.974  1.00  0.00     0.151 C 
BRANCH   6   7
ATOM      7  C   UNL     1      84.649  68.272  72.049  1.00  0.00    -0.025 A 
ATOM      8  C   UNL     1      85.429  68.294  74.384  1.00  0.00     0.160 A 
ATOM      9  C   UNL     1      86.231  69.420  74.106  1.00  0.00     0.157 A 
ATOM     10  C   UNL     1      84.645  67.732  73.355  1.00  0.00     0.056 A 
ATOM     11  C   UNL     1      86.230  69.981  72.814  1.00  0.00     0.050 A 
ATOM     12  C   UNL     1      85.453  69.406  71.789  1.00  0.00     0.009 A 
BRANCH   8  13
ATOM     13  O   UNL     1      85.376  67.785  75.657  1.00  0.00    -0.493 OA
ATOM     14  C   UNL     1      84.043  67.673  76.189  1.00  0.00     0.278 C 
ENDBRANCH   8  13
BRANCH   9  15
ATOM     15  O   UNL     1      87.008  69.977  75.071  1.00  0.00    -0.504 OA
ATOM     16  H   UNL     1      87.366  70.810  74.754  1.00  0.00     0.293 HD
ENDBRANCH   9  15
ENDBRANCH   6   7
ENDBRANCH   3   6
ENDBRANCH   1   2
BRANCH   1  17
ATOM     17  C   UNL     1      80.162  66.956  72.916  1.00  0.00     0.010 C 
BRANCH  17  18
ATOM     18  C   UNL     1      79.964  65.939  74.074  1.00  0.00     0.005 C 
BRANCH  18  19
ATOM     19  C   UNL     1      80.179  64.471  73.615  1.00  0.00     0.027 C 
BRANCH  19  20
ATOM     20  C   UNL     1      81.313  63.850  74.283  1.00  0.00    -0.031 C 
ATOM     21  C   UNL     1      82.532  64.412  74.383  1.00  0.00    -0.028 C 
BRANCH  21  22
ATOM     22  C   UNL     1      83.653  63.777  75.077  1.00  0.00     0.005 C 
ATOM     23  C   UNL     1      85.028  64.258  74.537  1.00  0.00     0.012 C 
ATOM     24  C   UNL     1      83.544  64.019  76.605  1.00  0.00     0.012 C 
ENDBRANCH  21  22
ENDBRANCH  19  20
ENDBRANCH  18  19
ENDBRANCH  17  18
ENDBRANCH   1  17
TORSDOF 10
ENDMDL
MODEL 10
REMARK VINA RESULT:    -4.535     24.715     26.378
REMARK INTER + INTRA:          -9.398
REMARK INTER:                  -7.445
REMARK INTRA:                  -1.952
REMARK UNBOUND:                -2.343
REMARK SMILES COc1cc(CNC(=O)CCCC/C=C/C(C)C)ccc1O
REMARK SMILES IDX 10 1 8 2 7 3 9 5 6 6 5 7 3 8 21 9 4 10 20 11 19 12 2 13 1 14
REMARK SMILES IDX 22 15 11 17 12 18 13 19 14 20 15 21 16 22 17 23 18 24
REMARK H PARENT 7 4 22 16
REMARK Flexibility Score: inf
ROOT
ATOM      1  C   UNL     1      80.314  65.159  72.873  1.00  0.00     0.100 C 
ENDROOT
BRANCH   1   2
ATOM      2  C   UNL     1      80.746  65.586  74.218  1.00  0.00     0.220 C 
ATOM      3  N   UNL     1      81.462  64.744  75.014  1.00  0.00    -0.352 N 
ATOM      4  H   UNL     1      81.638  63.830  74.619  1.00  0.00     0.163 HD
ATOM      5  O   UNL     1      80.456  66.748  74.592  1.00  0.00    -0.275 OA
BRANCH   3   6
ATOM      6  C   UNL     1      81.954  65.071  76.314  1.00  0.00     0.151 C 
BRANCH   6   7
ATOM      7  C   UNL     1      83.383  64.687  76.471  1.00  0.00    -0.025 A 
ATOM      8  C   UNL     1      85.647  65.198  77.293  1.00  0.00     0.160 A 
ATOM      9  C   UNL     1      86.108  63.962  76.795  1.00  0.00     0.157 A 
ATOM     10  C   UNL     1      84.292  65.550  77.125  1.00  0.00     0.056 A 
ATOM     11  C   UNL     1      85.219  63.100  76.124  1.00  0.00     0.050 A 
ATOM     12  C   UNL     1      83.864  63.454  75.970  1.00  0.00     0.009 A 
BRANCH   8  13
ATOM     13  O   UNL     1      86.523  66.069  77.889  1.00  0.00    -0.493 OA
ATOM     14  C   UNL     1      86.920  67.169  77.050  1.00  0.00     0.278 C 
ENDBRANCH   8  13
BRANCH   9  15
ATOM     15  O   UNL     1      87.404  63.587  76.953  1.00  0.00    -0.504 OA
ATOM     16  H   UNL     1      87.777  64.035  77.715  1.00  0.00     0.293 HD
ENDBRANCH   9  15
ENDBRANCH   6   7
ENDBRANCH   3   6
ENDBRANCH   1   2
BRANCH   1  17
ATOM     17  C   UNL     1      80.108  66.372  71.926  1.00  0.00     0.010 C 
BRANCH  17  18
ATOM     18  C   UNL     1      81.307  66.598  70.963  1.00  0.00     0.005 C 
BRANCH  18  19
ATOM     19  C   UNL     1      81.956  67.997  71.145  1.00  0.00     0.027 C 
BRANCH  19  20
ATOM     20  C   UNL     1      82.874  68.032  72.274  1.00  0.00    -0.031 C 
ATOM     21  C   UNL     1      83.667  67.007  72.635  1.00  0.00    -0.028 C 
BRANCH  21  22
ATOM     22  C   UNL     1      84.597  67.071  73.762  1.00  0.00     0.005 C 
ATOM     23  C   UNL     1      85.753  66.041  73.631  1.00  0.00     0.012 C 
ATOM     24  C   UNL     1      85.154  68.510  73.917  1.00  0.00     0.012 C 
ENDBRANCH  21  22
ENDBRANCH  19  20
ENDBRANCH  18  19
ENDBRANCH  17  18
ENDBRANCH   1  17
TORSDOF 10
ENDMDL
