MODEL 1
REMARK VINA RESULT:    -5.822      0.000      0.000
REMARK INTER + INTRA:          -9.958
REMARK INTER:                  -9.396
REMARK INTRA:                  -0.563
REMARK UNBOUND:                -0.563
REMARK SMILES COc1cc(CNC(=O)CCCCCCC(C)C)ccc1O
REMARK SMILES IDX 11 1 10 2 8 3 7 4 9 6 6 7 5 8 3 9 21 10 4 11 20 12 19 13
REMARK SMILES IDX 2 14 1 15 22 16 12 18 13 19 14 20 15 21 16 22 17 23 18 24
REMARK H PARENT 7 5 22 17
REMARK Flexibility Score: inf
ROOT
ATOM      1  C   UNL     1      93.423  99.767  72.331  1.00  0.00     0.010 C 
ENDROOT
BRANCH   1   2
ATOM      2  C   UNL     1      93.015  99.938  73.821  1.00  0.00     0.100 C 
BRANCH   2   3
ATOM      3  C   UNL     1      93.997  99.361  74.766  1.00  0.00     0.220 C 
ATOM      4  N   UNL     1      93.921  98.045  75.119  1.00  0.00    -0.352 N 
ATOM      5  H   UNL     1      93.137  97.547  74.724  1.00  0.00     0.163 HD
ATOM      6  O   UNL     1      94.910 100.099  75.211  1.00  0.00    -0.275 OA
BRANCH   4   7
ATOM      7  C   UNL     1      94.845  97.365  75.976  1.00  0.00     0.151 C 
BRANCH   7   8
ATOM      8  C   UNL     1      94.191  96.378  76.878  1.00  0.00    -0.025 A 
ATOM      9  C   UNL     1      93.890  95.418  79.122  1.00  0.00     0.160 A 
ATOM     10  C   UNL     1      92.918  94.529  78.614  1.00  0.00     0.157 A 
ATOM     11  C   UNL     1      94.532  96.321  78.249  1.00  0.00     0.056 A 
ATOM     12  C   UNL     1      92.598  94.550  77.244  1.00  0.00     0.050 A 
ATOM     13  C   UNL     1      93.222  95.474  76.383  1.00  0.00     0.009 A 
BRANCH   9  14
ATOM     14  O   UNL     1      94.237  95.379  80.445  1.00  0.00    -0.493 OA
ATOM     15  C   UNL     1      94.653  96.652  80.973  1.00  0.00     0.278 C 
ENDBRANCH   9  14
BRANCH  10  16
ATOM     16  O   UNL     1      92.284  93.648  79.432  1.00  0.00    -0.504 OA
ATOM     17  H   UNL     1      91.478  93.343  79.009  1.00  0.00     0.293 HD
ENDBRANCH  10  16
ENDBRANCH   7   8
ENDBRANCH   4   7
ENDBRANCH   2   3
ENDBRANCH   1   2
BRANCH   1  18
ATOM     18  C   UNL     1      92.274 100.162  71.359  1.00  0.00     0.001 C 
BRANCH  18  19
ATOM     19  C   UNL     1      90.863  99.730  71.850  1.00  0.00     0.000 C 
BRANCH  19  20
ATOM     20  C   UNL     1      90.149  98.821  70.810  1.00  0.00     0.000 C 
BRANCH  20  21
ATOM     21  C   UNL     1      88.830  99.416  70.243  1.00  0.00     0.003 C 
BRANCH  21  22
ATOM     22  C   UNL     1      88.573  99.104  68.732  1.00  0.00    -0.017 C 
ATOM     23  C   UNL     1      89.218  97.745  68.340  1.00  0.00     0.007 C 
ATOM     24  C   UNL     1      89.052 100.232  67.771  1.00  0.00     0.007 C 
ENDBRANCH  21  22
ENDBRANCH  20  21
ENDBRANCH  19  20
ENDBRANCH  18  19
ENDBRANCH   1  18
TORSDOF 11
ENDMDL
MODEL 2
REMARK VINA RESULT:    -5.813     20.540     23.813
REMARK INTER + INTRA:          -9.944
REMARK INTER:                  -9.450
REMARK INTRA:                  -0.493
REMARK UNBOUND:                -0.563
REMARK SMILES COc1cc(CNC(=O)CCCCCCC(C)C)ccc1O
REMARK SMILES IDX 11 1 10 2 8 3 7 4 9 6 6 7 5 8 3 9 21 10 4 11 20 12 19 13
REMARK SMILES IDX 2 14 1 15 22 16 12 18 13 19 14 20 15 21 16 22 17 23 18 24
REMARK H PARENT 7 5 22 17
REMARK Flexibility Score: inf
ROOT
ATOM      1  C   UNL     1      75.879  85.785  70.087  1.00  0.00     0.010 C 
ENDROOT
BRANCH   1   2
ATOM      2  C   UNL     1      76.950  84.659  70.121  1.00  0.00     0.100 C 
BRANCH   2   3
ATOM      3  C   UNL     1      77.481  84.316  68.783  1.00  0.00     0.220 C 
ATOM      4  N   UNL     1      76.731  83.581  67.912  1.00  0.00    -0.352 N 
ATOM      5  H   UNL     1      75.841  83.274  68.277  1.00  0.00     0.163 HD
ATOM      6  O   UNL     1      78.620  84.735  68.461  1.00  0.00    -0.275 OA
BRANCH   4   7
ATOM      7  C   UNL     1      77.115  83.239  66.576  1.00  0.00     0.151 C 
BRANCH   7   8
ATOM      8  C   UNL     1      76.087  82.437  65.857  1.00  0.00    -0.025 A 
ATOM      9  C   UNL     1      73.767  81.647  65.645  1.00  0.00     0.160 A 
ATOM     10  C   UNL     1      74.112  80.945  64.469  1.00  0.00     0.157 A 
ATOM     11  C   UNL     1      74.760  82.371  66.339  1.00  0.00     0.056 A 
ATOM     12  C   UNL     1      75.438  80.971  64.001  1.00  0.00     0.050 A 
ATOM     13  C   UNL     1      76.417  81.719  64.683  1.00  0.00     0.009 A 
BRANCH   9  14
ATOM     14  O   UNL     1      72.489  81.596  66.130  1.00  0.00    -0.493 OA
ATOM     15  C   UNL     1      71.980  82.872  66.559  1.00  0.00     0.278 C 
ENDBRANCH   9  14
BRANCH  10  16
ATOM     16  O   UNL     1      73.177  80.238  63.781  1.00  0.00    -0.504 OA
ATOM     17  H   UNL     1      73.455  80.147  62.866  1.00  0.00     0.293 HD
ENDBRANCH  10  16
ENDBRANCH   7   8
ENDBRANCH   4   7
ENDBRANCH   2   3
ENDBRANCH   1   2
BRANCH   1  18
ATOM     18  C   UNL     1      76.517  87.198  69.966  1.00  0.00     0.001 C 
BRANCH  18  19
ATOM     19  C   UNL     1      75.483  88.332  69.713  1.00  0.00     0.000 C 
BRANCH  19  20
ATOM     20  C   UNL     1      75.725  89.546  70.653  1.00  0.00     0.000 C 
BRANCH  20  21
ATOM     21  C   UNL     1      74.436  90.101  71.321  1.00  0.00     0.003 C 
BRANCH  21  22
ATOM     22  C   UNL     1      73.444  89.005  71.831  1.00  0.00    -0.017 C 
ATOM     23  C   UNL     1      72.429  88.629  70.716  1.00  0.00     0.007 C 
ATOM     24  C   UNL     1      72.697  89.400  73.139  1.00  0.00     0.007 C 
ENDBRANCH  21  22
ENDBRANCH  20  21
ENDBRANCH  19  20
ENDBRANCH  18  19
ENDBRANCH   1  18
TORSDOF 11
ENDMDL
MODEL 3
REMARK VINA RESULT:    -5.782     21.624     25.131
REMARK INTER + INTRA:          -9.893
REMARK INTER:                  -8.716
REMARK INTRA:                  -1.177
REMARK UNBOUND:                -0.563
REMARK SMILES COc1cc(CNC(=O)CCCCCCC(C)C)ccc1O
REMARK SMILES IDX 11 1 10 2 8 3 7 4 9 6 6 7 5 8 3 9 21 10 4 11 20 12 19 13
REMARK SMILES IDX 2 14 1 15 22 16 12 18 13 19 14 20 15 21 16 22 17 23 18 24
REMARK H PARENT 7 5 22 17
REMARK Flexibility Score: inf
ROOT
ATOM      1  C   UNL     1      76.924  85.232  66.043  1.00  0.00     0.010 C 
ENDROOT
BRANCH   1   2
ATOM      2  C   UNL     1      77.527  84.312  64.947  1.00  0.00     0.100 C 
BRANCH   2   3
ATOM      3  C   UNL     1      76.811  83.025  64.804  1.00  0.00     0.220 C 
ATOM      4  N   UNL     1      76.167  82.472  65.872  1.00  0.00    -0.352 N 
ATOM      5  H   UNL     1      76.266  82.985  66.736  1.00  0.00     0.163 HD
ATOM      6  O   UNL     1      76.789  82.471  63.678  1.00  0.00    -0.275 OA
BRANCH   4   7
ATOM      7  C   UNL     1      75.396  81.266  65.839  1.00  0.00     0.151 C 
BRANCH   7   8
ATOM      8  C   UNL     1      74.026  81.461  65.290  1.00  0.00    -0.025 A 
ATOM      9  C   UNL     1      71.836  82.577  65.376  1.00  0.00     0.160 A 
ATOM     10  C   UNL     1      71.428  81.871  64.224  1.00  0.00     0.157 A 
ATOM     11  C   UNL     1      73.122  82.354  65.911  1.00  0.00     0.056 A 
ATOM     12  C   UNL     1      72.304  80.950  63.621  1.00  0.00     0.050 A 
ATOM     13  C   UNL     1      73.597  80.754  64.142  1.00  0.00     0.009 A 
BRANCH   9  14
ATOM     14  O   UNL     1      70.978  83.446  65.994  1.00  0.00    -0.493 OA
ATOM     15  C   UNL     1      71.206  83.579  67.409  1.00  0.00     0.278 C 
ENDBRANCH   9  14
BRANCH  10  16
ATOM     16  O   UNL     1      70.194  82.065  63.689  1.00  0.00    -0.504 OA
ATOM     17  H   UNL     1      69.535  82.035  64.386  1.00  0.00     0.293 HD
ENDBRANCH  10  16
ENDBRANCH   7   8
ENDBRANCH   4   7
ENDBRANCH   2   3
ENDBRANCH   1   2
BRANCH   1  18
ATOM     18  C   UNL     1      77.917  85.479  67.215  1.00  0.00     0.001 C 
BRANCH  18  19
ATOM     19  C   UNL     1      77.960  86.956  67.699  1.00  0.00     0.000 C 
BRANCH  19  20
ATOM     20  C   UNL     1      76.843  87.250  68.740  1.00  0.00     0.000 C 
BRANCH  20  21
ATOM     21  C   UNL     1      76.965  86.429  70.053  1.00  0.00     0.003 C 
BRANCH  21  22
ATOM     22  C   UNL     1      75.680  85.626  70.440  1.00  0.00    -0.017 C 
ATOM     23  C   UNL     1      76.062  84.314  71.181  1.00  0.00     0.007 C 
ATOM     24  C   UNL     1      74.749  85.317  69.231  1.00  0.00     0.007 C 
ENDBRANCH  21  22
ENDBRANCH  20  21
ENDBRANCH  19  20
ENDBRANCH  18  19
ENDBRANCH   1  18
TORSDOF 11
ENDMDL
MODEL 4
REMARK VINA RESULT:    -5.712     21.065     24.258
REMARK INTER + INTRA:          -9.782
REMARK INTER:                  -8.173
REMARK INTRA:                  -1.608
REMARK UNBOUND:                -0.563
REMARK SMILES COc1cc(CNC(=O)CCCCCCC(C)C)ccc1O
REMARK SMILES IDX 11 1 10 2 8 3 7 4 9 6 6 7 5 8 3 9 21 10 4 11 20 12 19 13
REMARK SMILES IDX 2 14 1 15 22 16 12 18 13 19 14 20 15 21 16 22 17 23 18 24
REMARK H PARENT 7 5 22 17
REMARK Flexibility Score: inf
ROOT
ATOM      1  C   UNL     1      71.167  84.848  67.907  1.00  0.00     0.010 C 
ENDROOT
BRANCH   1   2
ATOM      2  C   UNL     1      70.949  83.378  67.455  1.00  0.00     0.100 C 
BRANCH   2   3
ATOM      3  C   UNL     1      71.915  82.933  66.425  1.00  0.00     0.220 C 
ATOM      4  N   UNL     1      72.672  83.846  65.751  1.00  0.00    -0.352 N 
ATOM      5  H   UNL     1      72.479  84.809  65.985  1.00  0.00     0.163 HD
ATOM      6  O   UNL     1      72.037  81.703  66.207  1.00  0.00    -0.275 OA
BRANCH   4   7
ATOM      7  C   UNL     1      73.675  83.531  64.779  1.00  0.00     0.151 C 
BRANCH   7   8
ATOM      8  C   UNL     1      75.054  83.528  65.340  1.00  0.00    -0.025 A 
ATOM      9  C   UNL     1      76.988  84.750  66.242  1.00  0.00     0.160 A 
ATOM     10  C   UNL     1      77.666  83.529  66.450  1.00  0.00     0.157 A 
ATOM     11  C   UNL     1      75.698  84.742  65.672  1.00  0.00     0.056 A 
ATOM     12  C   UNL     1      77.051  82.317  66.087  1.00  0.00     0.050 A 
ATOM     13  C   UNL     1      75.751  82.314  65.546  1.00  0.00     0.009 A 
BRANCH   9  14
ATOM     14  O   UNL     1      77.592  85.937  66.555  1.00  0.00    -0.493 OA
ATOM     15  C   UNL     1      76.669  86.984  66.905  1.00  0.00     0.278 C 
ENDBRANCH   9  14
BRANCH  10  16
ATOM     16  O   UNL     1      78.910  83.507  66.996  1.00  0.00    -0.504 OA
ATOM     17  H   UNL     1      78.888  83.017  67.821  1.00  0.00     0.293 HD
ENDBRANCH  10  16
ENDBRANCH   7   8
ENDBRANCH   4   7
ENDBRANCH   2   3
ENDBRANCH   1   2
BRANCH   1  18
ATOM     18  C   UNL     1      72.059  84.946  69.178  1.00  0.00     0.001 C 
BRANCH  18  19
ATOM     19  C   UNL     1      73.491  85.482  68.898  1.00  0.00     0.000 C 
BRANCH  19  20
ATOM     20  C   UNL     1      73.925  86.533  69.958  1.00  0.00     0.000 C 
BRANCH  20  21
ATOM     21  C   UNL     1      75.406  86.408  70.410  1.00  0.00     0.003 C 
BRANCH  21  22
ATOM     22  C   UNL     1      76.006  84.970  70.284  1.00  0.00    -0.017 C 
ATOM     23  C   UNL     1      75.734  84.152  71.578  1.00  0.00     0.007 C 
ATOM     24  C   UNL     1      77.524  84.953  69.936  1.00  0.00     0.007 C 
ENDBRANCH  21  22
ENDBRANCH  20  21
ENDBRANCH  19  20
ENDBRANCH  18  19
ENDBRANCH   1  18
TORSDOF 11
ENDMDL
MODEL 5
REMARK VINA RESULT:    -5.688      2.153      3.330
REMARK INTER + INTRA:          -9.742
REMARK INTER:                  -8.881
REMARK INTRA:                  -0.862
REMARK UNBOUND:                -0.563
REMARK SMILES COc1cc(CNC(=O)CCCCCCC(C)C)ccc1O
REMARK SMILES IDX 11 1 10 2 8 3 7 4 9 6 6 7 5 8 3 9 21 10 4 11 20 12 19 13
REMARK SMILES IDX 2 14 1 15 22 16 12 18 13 19 14 20 15 21 16 22 17 23 18 24
REMARK H PARENT 7 5 22 17
REMARK Flexibility Score: inf
ROOT
ATOM      1  C   UNL     1      94.272  99.417  74.361  1.00  0.00     0.010 C 
ENDROOT
BRANCH   1   2
ATOM      2  C   UNL     1      95.030  99.550  75.711  1.00  0.00     0.100 C 
BRANCH   2   3
ATOM      3  C   UNL     1      94.994  98.316  76.526  1.00  0.00     0.220 C 
ATOM      4  N   UNL     1      94.461  97.168  76.016  1.00  0.00    -0.352 N 
ATOM      5  H   UNL     1      94.072  97.260  75.089  1.00  0.00     0.163 HD
ATOM      6  O   UNL     1      95.486  98.343  77.681  1.00  0.00    -0.275 OA
BRANCH   4   7
ATOM      7  C   UNL     1      94.425  95.904  76.687  1.00  0.00     0.151 C 
BRANCH   7   8
ATOM      8  C   UNL     1      93.042  95.428  76.968  1.00  0.00    -0.025 A 
ATOM      9  C   UNL     1      91.429  93.585  77.195  1.00  0.00     0.160 A 
ATOM     10  C   UNL     1      90.420  94.509  77.545  1.00  0.00     0.157 A 
ATOM     11  C   UNL     1      92.725  94.053  76.891  1.00  0.00     0.056 A 
ATOM     12  C   UNL     1      90.714  95.884  77.587  1.00  0.00     0.050 A 
ATOM     13  C   UNL     1      92.017  96.341  77.311  1.00  0.00     0.009 A 
BRANCH   9  14
ATOM     14  O   UNL     1      91.145  92.250  77.113  1.00  0.00    -0.493 OA
ATOM     15  C   UNL     1      91.283  91.708  75.787  1.00  0.00     0.278 C 
ENDBRANCH   9  14
BRANCH  10  16
ATOM     16  O   UNL     1      89.163  94.087  77.841  1.00  0.00    -0.504 OA
ATOM     17  H   UNL     1      89.128  93.805  78.758  1.00  0.00     0.293 HD
ENDBRANCH  10  16
ENDBRANCH   7   8
ENDBRANCH   4   7
ENDBRANCH   2   3
ENDBRANCH   1   2
BRANCH   1  18
ATOM     18  C   UNL     1      92.743  99.649  74.521  1.00  0.00     0.001 C 
BRANCH  18  19
ATOM     19  C   UNL     1      92.133 100.578  73.434  1.00  0.00     0.000 C 
BRANCH  19  20
ATOM     20  C   UNL     1      92.715 100.270  72.025  1.00  0.00     0.000 C 
BRANCH  20  21
ATOM     21  C   UNL     1      91.659  99.796  70.989  1.00  0.00     0.003 C 
BRANCH  21  22
ATOM     22  C   UNL     1      90.179  99.874  71.487  1.00  0.00    -0.017 C 
ATOM     23  C   UNL     1      89.395  98.599  71.067  1.00  0.00     0.007 C 
ATOM     24  C   UNL     1      89.427 101.155  71.017  1.00  0.00     0.007 C 
ENDBRANCH  21  22
ENDBRANCH  20  21
ENDBRANCH  19  20
ENDBRANCH  18  19
ENDBRANCH   1  18
TORSDOF 11
ENDMDL
MODEL 6
REMARK VINA RESULT:    -5.593     15.610     17.820
REMARK INTER + INTRA:          -9.588
REMARK INTER:                  -9.010
REMARK INTRA:                  -0.578
REMARK UNBOUND:                -0.563
REMARK SMILES COc1cc(CNC(=O)CCCCCCC(C)C)ccc1O
REMARK SMILES IDX 11 1 10 2 8 3 7 4 9 6 6 7 5 8 3 9 21 10 4 11 20 12 19 13
REMARK SMILES IDX 2 14 1 15 22 16 12 18 13 19 14 20 15 21 16 22 17 23 18 24
REMARK H PARENT 7 5 22 17
REMARK Flexibility Score: inf
ROOT
ATOM      1  C   UNL     1      98.495  82.636  83.524  1.00  0.00     0.010 C 
ENDROOT
BRANCH   1   2
ATOM      2  C   UNL     1      97.333  82.750  84.549  1.00  0.00     0.100 C 
BRANCH   2   3
ATOM      3  C   UNL     1      97.341  84.025  85.302  1.00  0.00     0.220 C 
ATOM      4  N   UNL     1      96.198  84.760  85.424  1.00  0.00    -0.352 N 
ATOM      5  H   UNL     1      95.400  84.384  84.932  1.00  0.00     0.163 HD
ATOM      6  O   UNL     1      98.411  84.398  85.842  1.00  0.00    -0.275 OA
BRANCH   4   7
ATOM      7  C   UNL     1      96.072  85.973  86.174  1.00  0.00     0.151 C 
BRANCH   7   8
ATOM      8  C   UNL     1      95.176  85.842  87.355  1.00  0.00    -0.025 A 
ATOM      9  C   UNL     1      93.199  84.847  88.429  1.00  0.00     0.160 A 
ATOM     10  C   UNL     1      93.487  85.553  89.618  1.00  0.00     0.157 A 
ATOM     11  C   UNL     1      94.033  85.011  87.303  1.00  0.00     0.056 A 
ATOM     12  C   UNL     1      94.599  86.413  89.669  1.00  0.00     0.050 A 
ATOM     13  C   UNL     1      95.444  86.549  88.551  1.00  0.00     0.009 A 
BRANCH   9  14
ATOM     14  O   UNL     1      92.098  84.039  88.356  1.00  0.00    -0.493 OA
ATOM     15  C   UNL     1      92.201  83.009  87.356  1.00  0.00     0.278 C 
ENDBRANCH   9  14
BRANCH  10  16
ATOM     16  O   UNL     1      92.701  85.416  90.717  1.00  0.00    -0.504 OA
ATOM     17  H   UNL     1      92.820  86.176  91.292  1.00  0.00     0.293 HD
ENDBRANCH  10  16
ENDBRANCH   7   8
ENDBRANCH   4   7
ENDBRANCH   2   3
ENDBRANCH   1   2
BRANCH   1  18
ATOM     18  C   UNL     1      98.120  83.239  82.141  1.00  0.00     0.001 C 
BRANCH  18  19
ATOM     19  C   UNL     1      99.198  83.010  81.044  1.00  0.00     0.000 C 
BRANCH  19  20
ATOM     20  C   UNL     1      98.552  82.709  79.662  1.00  0.00     0.000 C 
BRANCH  20  21
ATOM     21  C   UNL     1      99.483  82.989  78.450  1.00  0.00     0.003 C 
BRANCH  21  22
ATOM     22  C   UNL     1      98.765  83.617  77.210  1.00  0.00    -0.017 C 
ATOM     23  C   UNL     1      97.523  84.436  77.659  1.00  0.00     0.007 C 
ATOM     24  C   UNL     1      98.368  82.575  76.123  1.00  0.00     0.007 C 
ENDBRANCH  21  22
ENDBRANCH  20  21
ENDBRANCH  19  20
ENDBRANCH  18  19
ENDBRANCH   1  18
TORSDOF 11
ENDMDL
MODEL 7
REMARK VINA RESULT:    -5.551     20.493     22.856
REMARK INTER + INTRA:          -9.521
REMARK INTER:                  -7.551
REMARK INTRA:                  -1.970
REMARK UNBOUND:                -0.563
REMARK SMILES COc1cc(CNC(=O)CCCCCCC(C)C)ccc1O
REMARK SMILES IDX 11 1 10 2 8 3 7 4 9 6 6 7 5 8 3 9 21 10 4 11 20 12 19 13
REMARK SMILES IDX 2 14 1 15 22 16 12 18 13 19 14 20 15 21 16 22 17 23 18 24
REMARK H PARENT 7 5 22 17
REMARK Flexibility Score: inf
ROOT
ATOM      1  C   UNL     1      74.647  86.577  70.101  1.00  0.00     0.010 C 
ENDROOT
BRANCH   1   2
ATOM      2  C   UNL     1      75.769  85.656  70.656  1.00  0.00     0.100 C 
BRANCH   2   3
ATOM      3  C   UNL     1      76.868  85.427  69.691  1.00  0.00     0.220 C 
ATOM      4  N   UNL     1      76.973  84.234  69.037  1.00  0.00    -0.352 N 
ATOM      5  H   UNL     1      76.284  83.546  69.302  1.00  0.00     0.163 HD
ATOM      6  O   UNL     1      77.681  86.358  69.473  1.00  0.00    -0.275 OA
BRANCH   4   7
ATOM      7  C   UNL     1      77.956  83.920  68.044  1.00  0.00     0.151 C 
BRANCH   7   8
ATOM      8  C   UNL     1      77.363  83.485  66.750  1.00  0.00    -0.025 A 
ATOM      9  C   UNL     1      75.669  82.210  65.505  1.00  0.00     0.160 A 
ATOM     10  C   UNL     1      76.201  82.687  64.287  1.00  0.00     0.157 A 
ATOM     11  C   UNL     1      76.265  82.597  66.724  1.00  0.00     0.056 A 
ATOM     12  C   UNL     1      77.318  83.541  64.298  1.00  0.00     0.050 A 
ATOM     13  C   UNL     1      77.890  83.947  65.520  1.00  0.00     0.009 A 
BRANCH   9  14
ATOM     14  O   UNL     1      74.607  81.347  65.504  1.00  0.00    -0.493 OA
ATOM     15  C   UNL     1      73.373  81.946  65.940  1.00  0.00     0.278 C 
ENDBRANCH   9  14
BRANCH  10  16
ATOM     16  O   UNL     1      75.648  82.329  63.098  1.00  0.00    -0.504 OA
ATOM     17  H   UNL     1      76.314  81.905  62.551  1.00  0.00     0.293 HD
ENDBRANCH  10  16
ENDBRANCH   7   8
ENDBRANCH   4   7
ENDBRANCH   2   3
ENDBRANCH   1   2
BRANCH   1  18
ATOM     18  C   UNL     1      74.900  88.075  70.433  1.00  0.00     0.001 C 
BRANCH  18  19
ATOM     19  C   UNL     1      74.389  89.055  69.339  1.00  0.00     0.000 C 
BRANCH  19  20
ATOM     20  C   UNL     1      75.429  89.231  68.198  1.00  0.00     0.000 C 
BRANCH  20  21
ATOM     21  C   UNL     1      75.029  88.550  66.860  1.00  0.00     0.003 C 
BRANCH  21  22
ATOM     22  C   UNL     1      75.751  87.192  66.579  1.00  0.00    -0.017 C 
ATOM     23  C   UNL     1      76.691  87.320  65.348  1.00  0.00     0.007 C 
ATOM     24  C   UNL     1      74.776  85.991  66.398  1.00  0.00     0.007 C 
ENDBRANCH  21  22
ENDBRANCH  20  21
ENDBRANCH  19  20
ENDBRANCH  18  19
ENDBRANCH   1  18
TORSDOF 11
ENDMDL
MODEL 8
REMARK VINA RESULT:    -5.550     16.395     19.447
REMARK INTER + INTRA:          -9.519
REMARK INTER:                  -9.012
REMARK INTRA:                  -0.506
REMARK UNBOUND:                -0.563
REMARK SMILES COc1cc(CNC(=O)CCCCCCC(C)C)ccc1O
REMARK SMILES IDX 11 1 10 2 8 3 7 4 9 6 6 7 5 8 3 9 21 10 4 11 20 12 19 13
REMARK SMILES IDX 2 14 1 15 22 16 12 18 13 19 14 20 15 21 16 22 17 23 18 24
REMARK H PARENT 7 5 22 17
REMARK Flexibility Score: inf
ROOT
ATOM      1  C   UNL     1      98.215  82.442  84.793  1.00  0.00     0.010 C 
ENDROOT
BRANCH   1   2
ATOM      2  C   UNL     1      96.911  81.690  85.178  1.00  0.00     0.100 C 
BRANCH   2   3
ATOM      3  C   UNL     1      96.160  82.344  86.274  1.00  0.00     0.220 C 
ATOM      4  N   UNL     1      94.805  82.477  86.197  1.00  0.00    -0.352 N 
ATOM      5  H   UNL     1      94.397  82.140  85.337  1.00  0.00     0.163 HD
ATOM      6  O   UNL     1      96.794  82.748  87.279  1.00  0.00    -0.275 OA
BRANCH   4   7
ATOM      7  C   UNL     1      93.970  83.037  87.216  1.00  0.00     0.151 C 
BRANCH   7   8
ATOM      8  C   UNL     1      92.590  82.478  87.218  1.00  0.00    -0.025 A 
ATOM      9  C   UNL     1      90.950  80.855  86.369  1.00  0.00     0.160 A 
ATOM     10  C   UNL     1      89.975  81.378  87.246  1.00  0.00     0.157 A 
ATOM     11  C   UNL     1      92.242  81.420  86.348  1.00  0.00     0.056 A 
ATOM     12  C   UNL     1      90.298  82.457  88.089  1.00  0.00     0.050 A 
ATOM     13  C   UNL     1      91.599  82.997  88.084  1.00  0.00     0.009 A 
BRANCH   9  14
ATOM     14  O   UNL     1      90.634  79.831  85.517  1.00  0.00    -0.493 OA
ATOM     15  C   UNL     1      91.617  78.781  85.483  1.00  0.00     0.278 C 
ENDBRANCH   9  14
BRANCH  10  16
ATOM     16  O   UNL     1      88.721  80.855  87.287  1.00  0.00    -0.504 OA
ATOM     17  H   UNL     1      88.185  81.356  87.906  1.00  0.00     0.293 HD
ENDBRANCH  10  16
ENDBRANCH   7   8
ENDBRANCH   4   7
ENDBRANCH   2   3
ENDBRANCH   1   2
BRANCH   1  18
ATOM     18  C   UNL     1      98.265  82.793  83.279  1.00  0.00     0.001 C 
BRANCH  18  19
ATOM     19  C   UNL     1      98.803  81.641  82.385  1.00  0.00     0.000 C 
BRANCH  19  20
ATOM     20  C   UNL     1      99.370  82.177  81.041  1.00  0.00     0.000 C 
BRANCH  20  21
ATOM     21  C   UNL     1      98.399  83.110  80.266  1.00  0.00     0.003 C 
BRANCH  21  22
ATOM     22  C   UNL     1      98.416  82.922  78.714  1.00  0.00    -0.017 C 
ATOM     23  C   UNL     1      99.871  83.013  78.172  1.00  0.00     0.007 C 
ATOM     24  C   UNL     1      97.489  83.915  77.953  1.00  0.00     0.007 C 
ENDBRANCH  21  22
ENDBRANCH  20  21
ENDBRANCH  19  20
ENDBRANCH  18  19
ENDBRANCH   1  18
TORSDOF 11
ENDMDL
MODEL 9
REMARK VINA RESULT:    -5.539     31.149     33.370
REMARK INTER + INTRA:          -9.501
REMARK INTER:                  -8.149
REMARK INTRA:                  -1.352
REMARK UNBOUND:                -0.563
REMARK SMILES COc1cc(CNC(=O)CCCCCCC(C)C)ccc1O
REMARK SMILES IDX 11 1 10 2 8 3 7 4 9 6 6 7 5 8 3 9 21 10 4 11 20 12 19 13
REMARK SMILES IDX 2 14 1 15 22 16 12 18 13 19 14 20 15 21 16 22 17 23 18 24
REMARK H PARENT 7 5 22 17
REMARK Flexibility Score: inf
ROOT
ATOM      1  C   UNL     1      60.501  85.537  70.063  1.00  0.00     0.010 C 
ENDROOT
BRANCH   1   2
ATOM      2  C   UNL     1      59.135  85.536  70.803  1.00  0.00     0.100 C 
BRANCH   2   3
ATOM      3  C   UNL     1      59.251  85.853  72.245  1.00  0.00     0.220 C 
ATOM      4  N   UNL     1      60.016  85.074  73.062  1.00  0.00    -0.352 N 
ATOM      5  H   UNL     1      60.436  84.274  72.610  1.00  0.00     0.163 HD
ATOM      6  O   UNL     1      58.651  86.862  72.689  1.00  0.00    -0.275 OA
BRANCH   4   7
ATOM      7  C   UNL     1      60.248  85.315  74.454  1.00  0.00     0.151 C 
BRANCH   7   8
ATOM      8  C   UNL     1      61.503  84.691  74.957  1.00  0.00    -0.025 A 
ATOM      9  C   UNL     1      63.688  84.898  76.065  1.00  0.00     0.160 A 
ATOM     10  C   UNL     1      63.878  83.503  75.957  1.00  0.00     0.157 A 
ATOM     11  C   UNL     1      62.513  85.482  75.548  1.00  0.00     0.056 A 
ATOM     12  C   UNL     1      62.897  82.709  75.335  1.00  0.00     0.050 A 
ATOM     13  C   UNL     1      61.713  83.296  74.848  1.00  0.00     0.009 A 
BRANCH   9  14
ATOM     14  O   UNL     1      64.654  85.684  76.633  1.00  0.00    -0.493 OA
ATOM     15  C   UNL     1      64.445  85.937  78.034  1.00  0.00     0.278 C 
ENDBRANCH   9  14
BRANCH  10  16
ATOM     16  O   UNL     1      65.001  82.912  76.444  1.00  0.00    -0.504 OA
ATOM     17  H   UNL     1      65.755  83.171  75.910  1.00  0.00     0.293 HD
ENDBRANCH  10  16
ENDBRANCH   7   8
ENDBRANCH   4   7
ENDBRANCH   2   3
ENDBRANCH   1   2
BRANCH   1  18
ATOM     18  C   UNL     1      60.973  84.100  69.699  1.00  0.00     0.001 C 
BRANCH  18  19
ATOM     19  C   UNL     1      62.483  84.008  69.343  1.00  0.00     0.000 C 
BRANCH  19  20
ATOM     20  C   UNL     1      63.040  82.575  69.577  1.00  0.00     0.000 C 
BRANCH  20  21
ATOM     21  C   UNL     1      63.037  82.126  71.065  1.00  0.00     0.003 C 
BRANCH  21  22
ATOM     22  C   UNL     1      64.440  82.153  71.755  1.00  0.00    -0.017 C 
ATOM     23  C   UNL     1      64.751  83.575  72.301  1.00  0.00     0.007 C 
ATOM     24  C   UNL     1      65.597  81.657  70.838  1.00  0.00     0.007 C 
ENDBRANCH  21  22
ENDBRANCH  20  21
ENDBRANCH  19  20
ENDBRANCH  18  19
ENDBRANCH   1  18
TORSDOF 11
ENDMDL
MODEL 10
REMARK VINA RESULT:    -5.409      4.484      6.514
REMARK INTER + INTRA:          -9.291
REMARK INTER:                  -7.962
REMARK INTRA:                  -1.329
REMARK UNBOUND:                -0.563
REMARK SMILES COc1cc(CNC(=O)CCCCCCC(C)C)ccc1O
REMARK SMILES IDX 11 1 10 2 8 3 7 4 9 6 6 7 5 8 3 9 21 10 4 11 20 12 19 13
REMARK SMILES IDX 2 14 1 15 22 16 12 18 13 19 14 20 15 21 16 22 17 23 18 24
REMARK H PARENT 7 5 22 17
REMARK Flexibility Score: inf
ROOT
ATOM      1  C   UNL     1      96.636 100.742  79.018  1.00  0.00     0.010 C 
ENDROOT
BRANCH   1   2
ATOM      2  C   UNL     1      95.949 100.261  80.326  1.00  0.00     0.100 C 
BRANCH   2   3
ATOM      3  C   UNL     1      96.563  99.039  80.894  1.00  0.00     0.220 C 
ATOM      4  N   UNL     1      97.036  98.059  80.071  1.00  0.00    -0.352 N 
ATOM      5  H   UNL     1      96.887  98.227  79.087  1.00  0.00     0.163 HD
ATOM      6  O   UNL     1      96.660  98.939  82.141  1.00  0.00    -0.275 OA
BRANCH   4   7
ATOM      7  C   UNL     1      97.698  96.866  80.503  1.00  0.00     0.151 C 
BRANCH   7   8
ATOM      8  C   UNL     1      96.758  95.760  80.835  1.00  0.00    -0.025 A 
ATOM      9  C   UNL     1      95.027  94.157  80.141  1.00  0.00     0.160 A 
ATOM     10  C   UNL     1      94.995  93.622  81.447  1.00  0.00     0.157 A 
ATOM     11  C   UNL     1      95.893  95.232  79.850  1.00  0.00     0.056 A 
ATOM     12  C   UNL     1      95.823  94.165  82.446  1.00  0.00     0.050 A 
ATOM     13  C   UNL     1      96.707  95.219  82.141  1.00  0.00     0.009 A 
BRANCH   9  14
ATOM     14  O   UNL     1      94.197  93.663  79.172  1.00  0.00    -0.493 OA
ATOM     15  C   UNL     1      92.916  94.317  79.116  1.00  0.00     0.278 C 
ENDBRANCH   9  14
BRANCH  10  16
ATOM     16  O   UNL     1      94.170  92.588  81.757  1.00  0.00    -0.504 OA
ATOM     17  H   UNL     1      93.818  92.714  82.641  1.00  0.00     0.293 HD
ENDBRANCH  10  16
ENDBRANCH   7   8
ENDBRANCH   4   7
ENDBRANCH   2   3
ENDBRANCH   1   2
BRANCH   1  18
ATOM     18  C   UNL     1      95.835 100.331  77.749  1.00  0.00     0.001 C 
BRANCH  18  19
ATOM     19  C   UNL     1      96.684  99.574  76.690  1.00  0.00     0.000 C 
BRANCH  19  20
ATOM     20  C   UNL     1      96.264  98.081  76.581  1.00  0.00     0.000 C 
BRANCH  20  21
ATOM     21  C   UNL     1      94.808  97.794  77.042  1.00  0.00     0.003 C 
BRANCH  21  22
ATOM     22  C   UNL     1      93.816  97.446  75.884  1.00  0.00    -0.017 C 
ATOM     23  C   UNL     1      93.336  98.742  75.171  1.00  0.00     0.007 C 
ATOM     24  C   UNL     1      92.597  96.592  76.339  1.00  0.00     0.007 C 
ENDBRANCH  21  22
ENDBRANCH  20  21
ENDBRANCH  19  20
ENDBRANCH  18  19
ENDBRANCH   1  18
TORSDOF 11
ENDMDL
