MODEL 1
REMARK VINA RESULT:    -7.052      0.000      0.000
REMARK INTER + INTRA:         -11.794
REMARK INTER:                 -10.969
REMARK INTRA:                  -0.825
REMARK UNBOUND:                -0.825
REMARK SMILES COc1cc(CNC(=O)CCCC/C=C/C(C)C)ccc1O
REMARK SMILES IDX 10 1 8 2 7 3 9 5 6 6 5 7 3 8 21 9 4 10 20 11 19 12 2 13 1 14
REMARK SMILES IDX 22 15 11 17 12 18 13 19 14 20 15 21 16 22 17 23 18 24
REMARK H PARENT 7 4 22 16
REMARK Flexibility Score: inf
ROOT
ATOM      1  C   UNL     1      92.379  94.457  76.697  1.00  0.00     0.100 C 
ENDROOT
BRANCH   1   2
ATOM      2  C   UNL     1      91.159  93.666  76.448  1.00  0.00     0.220 C 
ATOM      3  N   UNL     1      90.764  92.708  77.333  1.00  0.00    -0.352 N 
ATOM      4  H   UNL     1      91.375  92.583  78.128  1.00  0.00     0.163 HD
ATOM      5  O   UNL     1      90.491  93.917  75.416  1.00  0.00    -0.275 OA
BRANCH   3   6
ATOM      6  C   UNL     1      89.585  91.912  77.201  1.00  0.00     0.151 C 
BRANCH   6   7
ATOM      7  C   UNL     1      89.887  90.586  76.597  1.00  0.00    -0.025 A 
ATOM      8  C   UNL     1      90.317  89.200  74.608  1.00  0.00     0.160 A 
ATOM      9  C   UNL     1      90.481  88.067  75.431  1.00  0.00     0.157 A 
ATOM     10  C   UNL     1      90.020  90.447  75.197  1.00  0.00     0.056 A 
ATOM     11  C   UNL     1      90.332  88.186  76.827  1.00  0.00     0.050 A 
ATOM     12  C   UNL     1      90.047  89.437  77.408  1.00  0.00     0.009 A 
BRANCH   8  13
ATOM     13  O   UNL     1      90.395  89.077  73.244  1.00  0.00    -0.493 OA
ATOM     14  C   UNL     1      89.890  90.214  72.521  1.00  0.00     0.278 C 
ENDBRANCH   8  13
BRANCH   9  15
ATOM     15  O   UNL     1      90.781  86.855  74.896  1.00  0.00    -0.504 OA
ATOM     16  H   UNL     1      91.619  86.908  74.432  1.00  0.00     0.293 HD
ENDBRANCH   9  15
ENDBRANCH   6   7
ENDBRANCH   3   6
ENDBRANCH   1   2
BRANCH   1  17
ATOM     17  C   UNL     1      93.354  94.401  75.490  1.00  0.00     0.010 C 
BRANCH  17  18
ATOM     18  C   UNL     1      94.754  94.996  75.815  1.00  0.00     0.005 C 
BRANCH  18  19
ATOM     19  C   UNL     1      95.552  94.117  76.814  1.00  0.00     0.027 C 
BRANCH  19  20
ATOM     20  C   UNL     1      95.720  94.768  78.104  1.00  0.00    -0.031 C 
ATOM     21  C   UNL     1      95.135  94.352  79.243  1.00  0.00    -0.028 C 
BRANCH  21  22
ATOM     22  C   UNL     1      95.333  95.011  80.533  1.00  0.00     0.005 C 
ATOM     23  C   UNL     1      95.821  94.024  81.630  1.00  0.00     0.012 C 
ATOM     24  C   UNL     1      96.317  96.200  80.383  1.00  0.00     0.012 C 
ENDBRANCH  21  22
ENDBRANCH  19  20
ENDBRANCH  18  19
ENDBRANCH  17  18
ENDBRANCH   1  17
TORSDOF 10
ENDMDL
MODEL 2
REMARK VINA RESULT:    -6.507      2.929      4.957
REMARK INTER + INTRA:         -10.946
REMARK INTER:                  -9.922
REMARK INTRA:                  -1.024
REMARK UNBOUND:                -0.825
REMARK SMILES COc1cc(CNC(=O)CCCC/C=C/C(C)C)ccc1O
REMARK SMILES IDX 10 1 8 2 7 3 9 5 6 6 5 7 3 8 21 9 4 10 20 11 19 12 2 13 1 14
REMARK SMILES IDX 22 15 11 17 12 18 13 19 14 20 15 21 16 22 17 23 18 24
REMARK H PARENT 7 4 22 16
REMARK Flexibility Score: inf
ROOT
ATOM      1  C   UNL     1      95.660  93.956  76.450  1.00  0.00     0.100 C 
ENDROOT
BRANCH   1   2
ATOM      2  C   UNL     1      94.304  94.247  76.953  1.00  0.00     0.220 C 
ATOM      3  N   UNL     1      93.314  94.623  76.095  1.00  0.00    -0.352 N 
ATOM      4  H   UNL     1      93.596  94.703  75.128  1.00  0.00     0.163 HD
ATOM      5  O   UNL     1      94.087  94.115  78.182  1.00  0.00    -0.275 OA
BRANCH   3   6
ATOM      6  C   UNL     1      91.965  94.895  76.476  1.00  0.00     0.151 C 
BRANCH   6   7
ATOM      7  C   UNL     1      91.079  93.727  76.219  1.00  0.00    -0.025 A 
ATOM      8  C   UNL     1      89.952  92.218  74.633  1.00  0.00     0.160 A 
ATOM      9  C   UNL     1      89.406  91.491  75.711  1.00  0.00     0.157 A 
ATOM     10  C   UNL     1      90.780  93.329  74.896  1.00  0.00     0.056 A 
ATOM     11  C   UNL     1      89.680  91.888  77.035  1.00  0.00     0.050 A 
ATOM     12  C   UNL     1      90.517  92.991  77.289  1.00  0.00     0.009 A 
BRANCH   8  13
ATOM     13  O   UNL     1      89.636  91.876  73.343  1.00  0.00    -0.493 OA
ATOM     14  C   UNL     1      89.273  92.994  72.511  1.00  0.00     0.278 C 
ENDBRANCH   8  13
BRANCH   9  15
ATOM     15  O   UNL     1      88.616  90.409  75.492  1.00  0.00    -0.504 OA
ATOM     16  H   UNL     1      89.155  89.615  75.480  1.00  0.00     0.293 HD
ENDBRANCH   9  15
ENDBRANCH   6   7
ENDBRANCH   3   6
ENDBRANCH   1   2
BRANCH   1  17
ATOM     17  C   UNL     1      95.829  94.397  74.971  1.00  0.00     0.010 C 
BRANCH  17  18
ATOM     18  C   UNL     1      96.690  95.683  74.817  1.00  0.00     0.005 C 
BRANCH  18  19
ATOM     19  C   UNL     1      95.937  96.957  75.288  1.00  0.00     0.027 C 
BRANCH  19  20
ATOM     20  C   UNL     1      95.339  97.680  74.176  1.00  0.00    -0.031 C 
ATOM     21  C   UNL     1      94.129  97.402  73.657  1.00  0.00    -0.028 C 
BRANCH  21  22
ATOM     22  C   UNL     1      93.538  98.156  72.552  1.00  0.00     0.005 C 
ATOM     23  C   UNL     1      93.243  99.632  72.936  1.00  0.00     0.012 C 
ATOM     24  C   UNL     1      94.454  98.083  71.303  1.00  0.00     0.012 C 
ENDBRANCH  21  22
ENDBRANCH  19  20
ENDBRANCH  18  19
ENDBRANCH  17  18
ENDBRANCH   1  17
TORSDOF 10
ENDMDL
MODEL 3
REMARK VINA RESULT:    -6.279      2.216      3.689
REMARK INTER + INTRA:         -10.591
REMARK INTER:                  -9.797
REMARK INTRA:                  -0.795
REMARK UNBOUND:                -0.825
REMARK SMILES COc1cc(CNC(=O)CCCC/C=C/C(C)C)ccc1O
REMARK SMILES IDX 10 1 8 2 7 3 9 5 6 6 5 7 3 8 21 9 4 10 20 11 19 12 2 13 1 14
REMARK SMILES IDX 22 15 11 17 12 18 13 19 14 20 15 21 16 22 17 23 18 24
REMARK H PARENT 7 4 22 16
REMARK Flexibility Score: inf
ROOT
ATOM      1  C   UNL     1      95.898  94.510  77.799  1.00  0.00     0.100 C 
ENDROOT
BRANCH   1   2
ATOM      2  C   UNL     1      94.912  94.176  76.753  1.00  0.00     0.220 C 
ATOM      3  N   UNL     1      93.582  94.384  76.964  1.00  0.00    -0.352 N 
ATOM      4  H   UNL     1      93.348  94.750  77.877  1.00  0.00     0.163 HD
ATOM      5  O   UNL     1      95.336  93.721  75.663  1.00  0.00    -0.275 OA
BRANCH   3   6
ATOM      6  C   UNL     1      92.554  94.125  76.008  1.00  0.00     0.151 C 
BRANCH   6   7
ATOM      7  C   UNL     1      91.787  92.896  76.350  1.00  0.00    -0.025 A 
ATOM      8  C   UNL     1      91.013  90.635  75.756  1.00  0.00     0.160 A 
ATOM      9  C   UNL     1      90.345  90.538  76.994  1.00  0.00     0.157 A 
ATOM     10  C   UNL     1      91.725  91.812  75.445  1.00  0.00     0.056 A 
ATOM     11  C   UNL     1      90.381  91.618  77.898  1.00  0.00     0.050 A 
ATOM     12  C   UNL     1      91.105  92.785  77.584  1.00  0.00     0.009 A 
BRANCH   8  13
ATOM     13  O   UNL     1      90.926  89.613  74.846  1.00  0.00    -0.493 OA
ATOM     14  C   UNL     1      89.951  89.832  73.809  1.00  0.00     0.278 C 
ENDBRANCH   8  13
BRANCH   9  15
ATOM     15  O   UNL     1      89.661  89.414  77.330  1.00  0.00    -0.504 OA
ATOM     16  H   UNL     1      89.628  89.332  78.286  1.00  0.00     0.293 HD
ENDBRANCH   9  15
ENDBRANCH   6   7
ENDBRANCH   3   6
ENDBRANCH   1   2
BRANCH   1  17
ATOM     17  C   UNL     1      95.211  94.807  79.159  1.00  0.00     0.010 C 
BRANCH  17  18
ATOM     18  C   UNL     1      95.870  94.052  80.347  1.00  0.00     0.005 C 
BRANCH  18  19
ATOM     19  C   UNL     1      95.548  94.708  81.717  1.00  0.00     0.027 C 
BRANCH  19  20
ATOM     20  C   UNL     1      95.833  96.135  81.720  1.00  0.00    -0.031 C 
ATOM     21  C   UNL     1      96.409  96.789  82.745  1.00  0.00    -0.028 C 
BRANCH  21  22
ATOM     22  C   UNL     1      96.704  98.221  82.719  1.00  0.00     0.005 C 
ATOM     23  C   UNL     1      98.190  98.522  83.060  1.00  0.00     0.012 C 
ATOM     24  C   UNL     1      96.320  98.823  81.343  1.00  0.00     0.012 C 
ENDBRANCH  21  22
ENDBRANCH  19  20
ENDBRANCH  18  19
ENDBRANCH  17  18
ENDBRANCH   1  17
TORSDOF 10
ENDMDL
MODEL 4
REMARK VINA RESULT:    -6.149      2.191      3.170
REMARK INTER + INTRA:         -10.390
REMARK INTER:                  -9.394
REMARK INTRA:                  -0.996
REMARK UNBOUND:                -0.825
REMARK SMILES COc1cc(CNC(=O)CCCC/C=C/C(C)C)ccc1O
REMARK SMILES IDX 10 1 8 2 7 3 9 5 6 6 5 7 3 8 21 9 4 10 20 11 19 12 2 13 1 14
REMARK SMILES IDX 22 15 11 17 12 18 13 19 14 20 15 21 16 22 17 23 18 24
REMARK H PARENT 7 4 22 16
REMARK Flexibility Score: inf
ROOT
ATOM      1  C   UNL     1      94.807  95.764  75.006  1.00  0.00     0.100 C 
ENDROOT
BRANCH   1   2
ATOM      2  C   UNL     1      94.460  94.656  75.917  1.00  0.00     0.220 C 
ATOM      3  N   UNL     1      93.260  94.640  76.561  1.00  0.00    -0.352 N 
ATOM      4  H   UNL     1      92.668  95.439  76.380  1.00  0.00     0.163 HD
ATOM      5  O   UNL     1      95.290  93.725  76.059  1.00  0.00    -0.275 OA
BRANCH   3   6
ATOM      6  C   UNL     1      92.818  93.601  77.436  1.00  0.00     0.151 C 
BRANCH   6   7
ATOM      7  C   UNL     1      91.653  92.868  76.868  1.00  0.00    -0.025 A 
ATOM      8  C   UNL     1      90.313  92.184  74.919  1.00  0.00     0.160 A 
ATOM      9  C   UNL     1      89.450  91.459  75.766  1.00  0.00     0.157 A 
ATOM     10  C   UNL     1      91.404  92.883  75.477  1.00  0.00     0.056 A 
ATOM     11  C   UNL     1      89.675  91.450  77.157  1.00  0.00     0.050 A 
ATOM     12  C   UNL     1      90.774  92.141  77.704  1.00  0.00     0.009 A 
BRANCH   8  13
ATOM     13  O   UNL     1      90.060  92.250  73.572  1.00  0.00    -0.493 OA
ATOM     14  C   UNL     1      90.978  91.490  72.765  1.00  0.00     0.278 C 
ENDBRANCH   8  13
BRANCH   9  15
ATOM     15  O   UNL     1      88.398  90.765  75.260  1.00  0.00    -0.504 OA
ATOM     16  H   UNL     1      87.670  91.366  75.088  1.00  0.00     0.293 HD
ENDBRANCH   9  15
ENDBRANCH   6   7
ENDBRANCH   3   6
ENDBRANCH   1   2
BRANCH   1  17
ATOM     17  C   UNL     1      96.302  96.161  75.130  1.00  0.00     0.010 C 
BRANCH  17  18
ATOM     18  C   UNL     1      96.508  97.522  75.854  1.00  0.00     0.005 C 
BRANCH  18  19
ATOM     19  C   UNL     1      97.397  97.388  77.120  1.00  0.00     0.027 C 
BRANCH  19  20
ATOM     20  C   UNL     1      96.725  96.658  78.185  1.00  0.00    -0.031 C 
ATOM     21  C   UNL     1      97.343  95.804  79.022  1.00  0.00    -0.028 C 
BRANCH  21  22
ATOM     22  C   UNL     1      96.651  95.096  80.099  1.00  0.00     0.005 C 
ATOM     23  C   UNL     1      95.831  96.056  81.004  1.00  0.00     0.012 C 
ATOM     24  C   UNL     1      95.747  93.981  79.512  1.00  0.00     0.012 C 
ENDBRANCH  21  22
ENDBRANCH  19  20
ENDBRANCH  18  19
ENDBRANCH  17  18
ENDBRANCH   1  17
TORSDOF 10
ENDMDL
MODEL 5
REMARK VINA RESULT:    -5.894      3.922      5.929
REMARK INTER + INTRA:          -9.993
REMARK INTER:                  -9.273
REMARK INTRA:                  -0.720
REMARK UNBOUND:                -0.825
REMARK SMILES COc1cc(CNC(=O)CCCC/C=C/C(C)C)ccc1O
REMARK SMILES IDX 10 1 8 2 7 3 9 5 6 6 5 7 3 8 21 9 4 10 20 11 19 12 2 13 1 14
REMARK SMILES IDX 22 15 11 17 12 18 13 19 14 20 15 21 16 22 17 23 18 24
REMARK H PARENT 7 4 22 16
REMARK Flexibility Score: inf
ROOT
ATOM      1  C   UNL     1      94.801  96.099  74.820  1.00  0.00     0.100 C 
ENDROOT
BRANCH   1   2
ATOM      2  C   UNL     1      94.599  95.042  75.830  1.00  0.00     0.220 C 
ATOM      3  N   UNL     1      93.355  94.786  76.323  1.00  0.00    -0.352 N 
ATOM      4  H   UNL     1      92.622  95.381  75.963  1.00  0.00     0.163 HD
ATOM      5  O   UNL     1      95.597  94.377  76.199  1.00  0.00    -0.275 OA
BRANCH   3   6
ATOM      6  C   UNL     1      93.050  93.767  77.276  1.00  0.00     0.151 C 
BRANCH   6   7
ATOM      7  C   UNL     1      91.863  92.970  76.863  1.00  0.00    -0.025 A 
ATOM      8  C   UNL     1      90.360  92.150  75.093  1.00  0.00     0.160 A 
ATOM      9  C   UNL     1      89.613  91.440  76.055  1.00  0.00     0.157 A 
ATOM     10  C   UNL     1      91.475  92.909  75.506  1.00  0.00     0.056 A 
ATOM     11  C   UNL     1      89.975  91.507  77.415  1.00  0.00     0.050 A 
ATOM     12  C   UNL     1      91.097  92.258  77.816  1.00  0.00     0.009 A 
BRANCH   8  13
ATOM     13  O   UNL     1      89.973  92.141  73.777  1.00  0.00    -0.493 OA
ATOM     14  C   UNL     1      90.866  91.422  72.907  1.00  0.00     0.278 C 
ENDBRANCH   8  13
BRANCH   9  15
ATOM     15  O   UNL     1      88.542  90.689  75.690  1.00  0.00    -0.504 OA
ATOM     16  H   UNL     1      88.038  90.448  76.471  1.00  0.00     0.293 HD
ENDBRANCH   9  15
ENDBRANCH   6   7
ENDBRANCH   3   6
ENDBRANCH   1   2
BRANCH   1  17
ATOM     17  C   UNL     1      95.920  97.088  75.242  1.00  0.00     0.010 C 
BRANCH  17  18
ATOM     18  C   UNL     1      97.077  97.170  74.206  1.00  0.00     0.005 C 
BRANCH  18  19
ATOM     19  C   UNL     1      97.173  95.894  73.326  1.00  0.00     0.027 C 
BRANCH  19  20
ATOM     20  C   UNL     1      97.931  96.127  72.106  1.00  0.00    -0.031 C 
ATOM     21  C   UNL     1      97.376  96.293  70.891  1.00  0.00    -0.028 C 
BRANCH  21  22
ATOM     22  C   UNL     1      98.157  96.546  69.681  1.00  0.00     0.005 C 
ATOM     23  C   UNL     1      99.203  95.429  69.410  1.00  0.00     0.012 C 
ATOM     24  C   UNL     1      97.214  96.728  68.463  1.00  0.00     0.012 C 
ENDBRANCH  21  22
ENDBRANCH  19  20
ENDBRANCH  18  19
ENDBRANCH  17  18
ENDBRANCH   1  17
TORSDOF 10
ENDMDL
MODEL 6
REMARK VINA RESULT:    -5.804     19.040     20.394
REMARK INTER + INTRA:          -9.853
REMARK INTER:                  -8.182
REMARK INTRA:                  -1.671
REMARK UNBOUND:                -0.825
REMARK SMILES COc1cc(CNC(=O)CCCC/C=C/C(C)C)ccc1O
REMARK SMILES IDX 10 1 8 2 7 3 9 5 6 6 5 7 3 8 21 9 4 10 20 11 19 12 2 13 1 14
REMARK SMILES IDX 22 15 11 17 12 18 13 19 14 20 15 21 16 22 17 23 18 24
REMARK H PARENT 7 4 22 16
REMARK Flexibility Score: inf
ROOT
ATOM      1  C   UNL     1      73.028  88.905  68.403  1.00  0.00     0.100 C 
ENDROOT
BRANCH   1   2
ATOM      2  C   UNL     1      73.190  87.475  68.076  1.00  0.00     0.220 C 
ATOM      3  N   UNL     1      74.158  86.733  68.683  1.00  0.00    -0.352 N 
ATOM      4  H   UNL     1      74.742  87.243  69.331  1.00  0.00     0.163 HD
ATOM      5  O   UNL     1      72.400  86.964  67.246  1.00  0.00    -0.275 OA
BRANCH   3   6
ATOM      6  C   UNL     1      74.376  85.339  68.462  1.00  0.00     0.151 C 
BRANCH   6   7
ATOM      7  C   UNL     1      75.605  85.100  67.657  1.00  0.00    -0.025 A 
ATOM      8  C   UNL     1      76.839  83.755  66.005  1.00  0.00     0.160 A 
ATOM      9  C   UNL     1      77.934  84.639  66.102  1.00  0.00     0.157 A 
ATOM     10  C   UNL     1      75.688  83.992  66.784  1.00  0.00     0.056 A 
ATOM     11  C   UNL     1      77.874  85.736  66.984  1.00  0.00     0.050 A 
ATOM     12  C   UNL     1      76.715  85.971  67.749  1.00  0.00     0.009 A 
BRANCH   8  13
ATOM     13  O   UNL     1      76.918  82.649  65.197  1.00  0.00    -0.493 OA
ATOM     14  C   UNL     1      75.739  82.415  64.405  1.00  0.00     0.278 C 
ENDBRANCH   8  13
BRANCH   9  15
ATOM     15  O   UNL     1      79.053  84.447  65.357  1.00  0.00    -0.504 OA
ATOM     16  H   UNL     1      78.935  83.678  64.794  1.00  0.00     0.293 HD
ENDBRANCH   9  15
ENDBRANCH   6   7
ENDBRANCH   3   6
ENDBRANCH   1   2
BRANCH   1  17
ATOM     17  C   UNL     1      74.202  89.431  69.270  1.00  0.00     0.010 C 
BRANCH  17  18
ATOM     18  C   UNL     1      75.412  89.916  68.422  1.00  0.00     0.005 C 
BRANCH  18  19
ATOM     19  C   UNL     1      74.969  90.648  67.127  1.00  0.00     0.027 C 
BRANCH  19  20
ATOM     20  C   UNL     1      75.768  90.256  65.976  1.00  0.00    -0.031 C 
ATOM     21  C   UNL     1      76.651  89.241  65.979  1.00  0.00    -0.028 C 
BRANCH  21  22
ATOM     22  C   UNL     1      77.429  88.851  64.804  1.00  0.00     0.005 C 
ATOM     23  C   UNL     1      76.800  87.644  64.053  1.00  0.00     0.012 C 
ATOM     24  C   UNL     1      77.606  90.063  63.852  1.00  0.00     0.012 C 
ENDBRANCH  21  22
ENDBRANCH  19  20
ENDBRANCH  18  19
ENDBRANCH  17  18
ENDBRANCH   1  17
TORSDOF 10
ENDMDL
MODEL 7
REMARK VINA RESULT:    -5.787     18.590     20.299
REMARK INTER + INTRA:          -9.826
REMARK INTER:                  -7.764
REMARK INTRA:                  -2.062
REMARK UNBOUND:                -0.825
REMARK SMILES COc1cc(CNC(=O)CCCC/C=C/C(C)C)ccc1O
REMARK SMILES IDX 10 1 8 2 7 3 9 5 6 6 5 7 3 8 21 9 4 10 20 11 19 12 2 13 1 14
REMARK SMILES IDX 22 15 11 17 12 18 13 19 14 20 15 21 16 22 17 23 18 24
REMARK H PARENT 7 4 22 16
REMARK Flexibility Score: inf
ROOT
ATOM      1  C   UNL     1      74.526  90.837  65.313  1.00  0.00     0.100 C 
ENDROOT
BRANCH   1   2
ATOM      2  C   UNL     1      75.601  90.063  64.664  1.00  0.00     0.220 C 
ATOM      3  N   UNL     1      76.813  89.920  65.270  1.00  0.00    -0.352 N 
ATOM      4  H   UNL     1      76.905  90.396  66.157  1.00  0.00     0.163 HD
ATOM      5  O   UNL     1      75.358  89.526  63.556  1.00  0.00    -0.275 OA
BRANCH   3   6
ATOM      6  C   UNL     1      77.905  89.167  64.741  1.00  0.00     0.151 C 
BRANCH   6   7
ATOM      7  C   UNL     1      77.914  87.774  65.266  1.00  0.00    -0.025 A 
ATOM      8  C   UNL     1      77.757  85.349  64.872  1.00  0.00     0.160 A 
ATOM      9  C   UNL     1      77.948  85.112  66.249  1.00  0.00     0.157 A 
ATOM     10  C   UNL     1      77.739  86.676  64.394  1.00  0.00     0.056 A 
ATOM     11  C   UNL     1      78.104  86.197  67.133  1.00  0.00     0.050 A 
ATOM     12  C   UNL     1      78.097  87.519  66.645  1.00  0.00     0.009 A 
BRANCH   8  13
ATOM     13  O   UNL     1      77.539  84.299  64.017  1.00  0.00    -0.493 OA
ATOM     14  C   UNL     1      76.157  84.111  63.659  1.00  0.00     0.278 C 
ENDBRANCH   8  13
BRANCH   9  15
ATOM     15  O   UNL     1      77.983  83.846  66.739  1.00  0.00    -0.504 OA
ATOM     16  H   UNL     1      78.718  83.370  66.345  1.00  0.00     0.293 HD
ENDBRANCH   9  15
ENDBRANCH   6   7
ENDBRANCH   3   6
ENDBRANCH   1   2
BRANCH   1  17
ATOM     17  C   UNL     1      74.981  91.413  66.681  1.00  0.00     0.010 C 
BRANCH  17  18
ATOM     18  C   UNL     1      74.307  90.705  67.890  1.00  0.00     0.005 C 
BRANCH  18  19
ATOM     19  C   UNL     1      75.241  89.659  68.557  1.00  0.00     0.027 C 
BRANCH  19  20
ATOM     20  C   UNL     1      75.057  88.327  68.000  1.00  0.00    -0.031 C 
ATOM     21  C   UNL     1      74.203  87.412  68.494  1.00  0.00    -0.028 C 
BRANCH  21  22
ATOM     22  C   UNL     1      74.021  86.085  67.906  1.00  0.00     0.005 C 
ATOM     23  C   UNL     1      74.355  86.063  66.388  1.00  0.00     0.012 C 
ATOM     24  C   UNL     1      74.867  85.037  68.674  1.00  0.00     0.012 C 
ENDBRANCH  21  22
ENDBRANCH  19  20
ENDBRANCH  18  19
ENDBRANCH  17  18
ENDBRANCH   1  17
TORSDOF 10
ENDMDL
MODEL 8
REMARK VINA RESULT:    -5.719     25.984     29.324
REMARK INTER + INTRA:          -9.721
REMARK INTER:                  -8.630
REMARK INTRA:                  -1.091
REMARK UNBOUND:                -0.825
REMARK SMILES COc1cc(CNC(=O)CCCC/C=C/C(C)C)ccc1O
REMARK SMILES IDX 10 1 8 2 7 3 9 5 6 6 5 7 3 8 21 9 4 10 20 11 19 12 2 13 1 14
REMARK SMILES IDX 22 15 11 17 12 18 13 19 14 20 15 21 16 22 17 23 18 24
REMARK H PARENT 7 4 22 16
REMARK Flexibility Score: inf
ROOT
ATOM      1  C   UNL     1      79.879  65.302  73.834  1.00  0.00     0.100 C 
ENDROOT
BRANCH   1   2
ATOM      2  C   UNL     1      80.828  64.215  74.142  1.00  0.00     0.220 C 
ATOM      3  N   UNL     1      82.138  64.490  74.394  1.00  0.00    -0.352 N 
ATOM      4  H   UNL     1      82.389  65.467  74.328  1.00  0.00     0.163 HD
ATOM      5  O   UNL     1      80.388  63.040  74.186  1.00  0.00    -0.275 OA
BRANCH   3   6
ATOM      6  C   UNL     1      83.126  63.516  74.732  1.00  0.00     0.151 C 
BRANCH   6   7
ATOM      7  C   UNL     1      83.887  63.909  75.949  1.00  0.00    -0.025 A 
ATOM      8  C   UNL     1      84.911  65.659  77.347  1.00  0.00     0.160 A 
ATOM      9  C   UNL     1      85.321  64.678  78.274  1.00  0.00     0.157 A 
ATOM     10  C   UNL     1      84.201  65.265  76.193  1.00  0.00     0.056 A 
ATOM     11  C   UNL     1      85.032  63.320  78.034  1.00  0.00     0.050 A 
ATOM     12  C   UNL     1      84.313  62.938  76.885  1.00  0.00     0.009 A 
BRANCH   8  13
ATOM     13  O   UNL     1      85.246  66.974  77.543  1.00  0.00    -0.493 OA
ATOM     14  C   UNL     1      85.699  67.648  76.354  1.00  0.00     0.278 C 
ENDBRANCH   8  13
BRANCH   9  15
ATOM     15  O   UNL     1      85.994  65.025  79.402  1.00  0.00    -0.504 OA
ATOM     16  H   UNL     1      86.808  65.475  79.163  1.00  0.00     0.293 HD
ENDBRANCH   9  15
ENDBRANCH   6   7
ENDBRANCH   3   6
ENDBRANCH   1   2
BRANCH   1  17
ATOM     17  C   UNL     1      80.576  66.690  73.847  1.00  0.00     0.010 C 
BRANCH  17  18
ATOM     18  C   UNL     1      80.731  67.302  72.426  1.00  0.00     0.005 C 
BRANCH  18  19
ATOM     19  C   UNL     1      80.184  66.364  71.316  1.00  0.00     0.027 C 
BRANCH  19  20
ATOM     20  C   UNL     1      81.253  65.759  70.536  1.00  0.00    -0.031 C 
ATOM     21  C   UNL     1      82.562  65.896  70.813  1.00  0.00    -0.028 C 
BRANCH  21  22
ATOM     22  C   UNL     1      83.620  65.262  70.026  1.00  0.00     0.005 C 
ATOM     23  C   UNL     1      83.067  64.562  68.753  1.00  0.00     0.012 C 
ATOM     24  C   UNL     1      84.710  66.301  69.656  1.00  0.00     0.012 C 
ENDBRANCH  21  22
ENDBRANCH  19  20
ENDBRANCH  18  19
ENDBRANCH  17  18
ENDBRANCH   1  17
TORSDOF 10
ENDMDL
MODEL 9
REMARK VINA RESULT:    -5.552     24.049     26.904
REMARK INTER + INTRA:          -9.461
REMARK INTER:                  -8.106
REMARK INTRA:                  -1.356
REMARK UNBOUND:                -0.825
REMARK SMILES COc1cc(CNC(=O)CCCC/C=C/C(C)C)ccc1O
REMARK SMILES IDX 10 1 8 2 7 3 9 5 6 6 5 7 3 8 21 9 4 10 20 11 19 12 2 13 1 14
REMARK SMILES IDX 22 15 11 17 12 18 13 19 14 20 15 21 16 22 17 23 18 24
REMARK H PARENT 7 4 22 16
REMARK Flexibility Score: inf
ROOT
ATOM      1  C   UNL     1      80.451  65.130  73.287  1.00  0.00     0.100 C 
ENDROOT
BRANCH   1   2
ATOM      2  C   UNL     1      81.310  65.195  74.485  1.00  0.00     0.220 C 
ATOM      3  N   UNL     1      81.556  66.388  75.095  1.00  0.00    -0.352 N 
ATOM      4  H   UNL     1      81.131  67.190  74.651  1.00  0.00     0.163 HD
ATOM      5  O   UNL     1      81.783  64.123  74.934  1.00  0.00    -0.275 OA
BRANCH   3   6
ATOM      6  C   UNL     1      82.344  66.553  76.275  1.00  0.00     0.151 C 
BRANCH   6   7
ATOM      7  C   UNL     1      83.603  67.295  75.991  1.00  0.00    -0.025 A 
ATOM      8  C   UNL     1      85.336  68.896  76.697  1.00  0.00     0.160 A 
ATOM      9  C   UNL     1      86.012  68.703  75.474  1.00  0.00     0.157 A 
ATOM     10  C   UNL     1      84.138  68.193  76.942  1.00  0.00     0.056 A 
ATOM     11  C   UNL     1      85.480  67.827  74.508  1.00  0.00     0.050 A 
ATOM     12  C   UNL     1      84.290  67.120  74.767  1.00  0.00     0.009 A 
BRANCH   8  13
ATOM     13  O   UNL     1      85.814  69.797  77.613  1.00  0.00    -0.493 OA
ATOM     14  C   UNL     1      86.678  69.219  78.609  1.00  0.00     0.278 C 
ENDBRANCH   8  13
BRANCH   9  15
ATOM     15  O   UNL     1      87.174  69.355  75.212  1.00  0.00    -0.504 OA
ATOM     16  H   UNL     1      87.191  70.187  75.691  1.00  0.00     0.293 HD
ENDBRANCH   9  15
ENDBRANCH   6   7
ENDBRANCH   3   6
ENDBRANCH   1   2
BRANCH   1  17
ATOM     17  C   UNL     1      80.177  66.541  72.701  1.00  0.00     0.010 C 
BRANCH  17  18
ATOM     18  C   UNL     1      80.437  66.623  71.171  1.00  0.00     0.005 C 
BRANCH  18  19
ATOM     19  C   UNL     1      81.950  66.557  70.825  1.00  0.00     0.027 C 
BRANCH  19  20
ATOM     20  C   UNL     1      82.624  67.821  71.080  1.00  0.00    -0.031 C 
ATOM     21  C   UNL     1      83.960  67.964  71.150  1.00  0.00    -0.028 C 
BRANCH  21  22
ATOM     22  C   UNL     1      84.619  69.248  71.388  1.00  0.00     0.005 C 
ATOM     23  C   UNL     1      85.866  69.448  70.483  1.00  0.00     0.012 C 
ATOM     24  C   UNL     1      83.609  70.411  71.203  1.00  0.00     0.012 C 
ENDBRANCH  21  22
ENDBRANCH  19  20
ENDBRANCH  18  19
ENDBRANCH  17  18
ENDBRANCH   1  17
TORSDOF 10
ENDMDL
MODEL 10
REMARK VINA RESULT:    -5.501     18.682     21.875
REMARK INTER + INTRA:          -9.382
REMARK INTER:                  -8.315
REMARK INTRA:                  -1.067
REMARK UNBOUND:                -0.825
REMARK SMILES COc1cc(CNC(=O)CCCC/C=C/C(C)C)ccc1O
REMARK SMILES IDX 10 1 8 2 7 3 9 5 6 6 5 7 3 8 21 9 4 10 20 11 19 12 2 13 1 14
REMARK SMILES IDX 22 15 11 17 12 18 13 19 14 20 15 21 16 22 17 23 18 24
REMARK H PARENT 7 4 22 16
REMARK Flexibility Score: inf
ROOT
ATOM      1  C   UNL     1      77.868  86.039  66.812  1.00  0.00     0.100 C 
ENDROOT
BRANCH   1   2
ATOM      2  C   UNL     1      77.891  85.050  65.717  1.00  0.00     0.220 C 
ATOM      3  N   UNL     1      76.801  84.273  65.464  1.00  0.00    -0.352 N 
ATOM      4  H   UNL     1      76.020  84.418  66.089  1.00  0.00     0.163 HD
ATOM      5  O   UNL     1      78.930  84.965  65.018  1.00  0.00    -0.275 OA
BRANCH   3   6
ATOM      6  C   UNL     1      76.711  83.312  64.412  1.00  0.00     0.151 C 
BRANCH   6   7
ATOM      7  C   UNL     1      75.388  82.630  64.406  1.00  0.00    -0.025 A 
ATOM      8  C   UNL     1      72.929  82.754  64.358  1.00  0.00     0.160 A 
ATOM      9  C   UNL     1      72.857  81.346  64.375  1.00  0.00     0.157 A 
ATOM     10  C   UNL     1      74.192  83.383  64.376  1.00  0.00     0.056 A 
ATOM     11  C   UNL     1      74.040  80.583  64.425  1.00  0.00     0.050 A 
ATOM     12  C   UNL     1      75.297  81.219  64.431  1.00  0.00     0.009 A 
BRANCH   8  13
ATOM     13  O   UNL     1      71.779  83.502  64.375  1.00  0.00    -0.493 OA
ATOM     14  C   UNL     1      71.731  84.479  65.432  1.00  0.00     0.278 C 
ENDBRANCH   8  13
BRANCH   9  15
ATOM     15  O   UNL     1      71.657  80.710  64.345  1.00  0.00    -0.504 OA
ATOM     16  H   UNL     1      71.134  80.976  65.105  1.00  0.00     0.293 HD
ENDBRANCH   9  15
ENDBRANCH   6   7
ENDBRANCH   3   6
ENDBRANCH   1   2
BRANCH   1  17
ATOM     17  C   UNL     1      78.327  87.441  66.327  1.00  0.00     0.010 C 
BRANCH  17  18
ATOM     18  C   UNL     1      77.207  88.220  65.581  1.00  0.00     0.005 C 
BRANCH  18  19
ATOM     19  C   UNL     1      76.536  89.294  66.480  1.00  0.00     0.027 C 
BRANCH  19  20
ATOM     20  C   UNL     1      75.613  88.705  67.438  1.00  0.00    -0.031 C 
ATOM     21  C   UNL     1      74.592  87.894  67.105  1.00  0.00    -0.028 C 
BRANCH  21  22
ATOM     22  C   UNL     1      73.688  87.298  68.088  1.00  0.00     0.005 C 
ATOM     23  C   UNL     1      74.196  85.920  68.597  1.00  0.00     0.012 C 
ATOM     24  C   UNL     1      73.461  88.275  69.270  1.00  0.00     0.012 C 
ENDBRANCH  21  22
ENDBRANCH  19  20
ENDBRANCH  18  19
ENDBRANCH  17  18
ENDBRANCH   1  17
TORSDOF 10
ENDMDL
