MODEL 1
REMARK VINA RESULT:    -7.336      0.000      0.000
REMARK INTER + INTRA:          -8.952
REMARK INTER:                  -8.623
REMARK INTRA:                  -0.329
REMARK UNBOUND:                -0.329
REMARK SMILES O=C(/C=C/C=C/c1ccc2c(c1)OCO2)N1CCCCC1
REMARK SMILES IDX 3 1 4 2 2 3 1 4 16 5 17 6 21 7 18 8 20 9 19 10 5 11 6 12
REMARK SMILES IDX 7 13 12 14 8 15 11 16 9 17 13 18 10 19 14 20 15 21
REMARK H PARENT
REMARK Flexibility Score: inf
ROOT
ATOM      1  C   UNL     1      95.982  81.894  82.796  1.00  0.00     0.071 C 
ATOM      2  C   UNL     1      96.945  81.903  81.876  1.00  0.00     0.006 C 
ENDROOT
BRANCH   1   3
ATOM      3  C   UNL     1      96.344  81.521  84.178  1.00  0.00     0.246 C 
ATOM      4  O   UNL     1      97.542  81.475  84.459  1.00  0.00    -0.270 OA
ATOM      5  N   UNL     1      95.308  81.243  85.068  1.00  0.00    -0.339 N 
ATOM      6  C   UNL     1      95.637  80.864  86.446  1.00  0.00     0.120 C 
ATOM      7  C   UNL     1      93.871  81.244  84.757  1.00  0.00     0.120 C 
ATOM      8  C   UNL     1      94.896  81.735  87.454  1.00  0.00     0.022 C 
ATOM      9  C   UNL     1      93.091  82.105  85.750  1.00  0.00     0.022 C 
ATOM     10  C   UNL     1      93.393  81.713  87.194  1.00  0.00     0.004 C 
ENDBRANCH   1   3
BRANCH   2  11
ATOM     11  C   UNL     1      96.688  82.254  80.496  1.00  0.00     0.001 C 
ATOM     12  C   UNL     1      97.393  81.744  79.473  1.00  0.00     0.008 C 
BRANCH  12  13
ATOM     13  C   UNL     1      97.179  82.072  78.053  1.00  0.00    -0.022 A 
ATOM     14  C   UNL     1      98.172  81.766  77.132  1.00  0.00     0.058 A 
ATOM     15  C   UNL     1      95.982  82.684  77.672  1.00  0.00     0.012 A 
ATOM     16  C   UNL     1      97.925  82.093  75.815  1.00  0.00     0.166 A 
ATOM     17  C   UNL     1      95.759  83.004  76.331  1.00  0.00     0.051 A 
ATOM     18  O   UNL     1      98.769  81.877  74.768  1.00  0.00    -0.454 OA
ATOM     19  C   UNL     1      96.751  82.695  75.424  1.00  0.00     0.165 A 
ATOM     20  C   UNL     1      97.993  82.410  73.675  1.00  0.00     0.468 C 
ATOM     21  O   UNL     1      96.712  82.931  74.085  1.00  0.00    -0.454 OA
ENDBRANCH  12  13
ENDBRANCH   2  11
TORSDOF 3
ENDMDL
MODEL 2
REMARK VINA RESULT:    -7.130      2.875      9.271
REMARK INTER + INTRA:          -8.709
REMARK INTER:                  -8.345
REMARK INTRA:                  -0.364
REMARK UNBOUND:                -0.329
REMARK SMILES O=C(/C=C/C=C/c1ccc2c(c1)OCO2)N1CCCCC1
REMARK SMILES IDX 3 1 4 2 2 3 1 4 16 5 17 6 21 7 18 8 20 9 19 10 5 11 6 12
REMARK SMILES IDX 7 13 12 14 8 15 11 16 9 17 13 18 10 19 14 20 15 21
REMARK H PARENT
REMARK Flexibility Score: inf
ROOT
ATOM      1  C   UNL     1      97.427  80.881  78.542  1.00  0.00     0.071 C 
ATOM      2  C   UNL     1      97.851  81.369  79.706  1.00  0.00     0.006 C 
ENDROOT
BRANCH   1   3
ATOM      3  C   UNL     1      98.364  80.895  77.400  1.00  0.00     0.246 C 
ATOM      4  O   UNL     1      99.305  80.101  77.427  1.00  0.00    -0.270 OA
ATOM      5  N   UNL     1      98.124  81.807  76.374  1.00  0.00    -0.339 N 
ATOM      6  C   UNL     1      99.040  81.848  75.230  1.00  0.00     0.120 C 
ATOM      7  C   UNL     1      97.039  82.799  76.328  1.00  0.00     0.120 C 
ATOM      8  C   UNL     1      98.287  81.724  73.909  1.00  0.00     0.022 C 
ATOM      9  C   UNL     1      96.262  82.709  75.015  1.00  0.00     0.022 C 
ATOM     10  C   UNL     1      97.189  82.777  73.805  1.00  0.00     0.004 C 
ENDBRANCH   1   3
BRANCH   2  11
ATOM     11  C   UNL     1      97.007  81.398  80.881  1.00  0.00     0.001 C 
ATOM     12  C   UNL     1      96.934  82.463  81.697  1.00  0.00     0.008 C 
BRANCH  12  13
ATOM     13  C   UNL     1      96.099  82.543  82.907  1.00  0.00    -0.022 A 
ATOM     14  C   UNL     1      95.892  83.779  83.504  1.00  0.00     0.058 A 
ATOM     15  C   UNL     1      95.538  81.372  83.422  1.00  0.00     0.012 A 
ATOM     16  C   UNL     1      95.103  83.804  84.636  1.00  0.00     0.166 A 
ATOM     17  C   UNL     1      94.743  81.426  84.569  1.00  0.00     0.051 A 
ATOM     18  O   UNL     1      94.784  84.910  85.363  1.00  0.00    -0.454 OA
ATOM     19  C   UNL     1      94.543  82.659  85.154  1.00  0.00     0.165 A 
ATOM     20  C   UNL     1      93.961  84.332  86.396  1.00  0.00     0.468 C 
ATOM     21  O   UNL     1      93.804  82.904  86.270  1.00  0.00    -0.454 OA
ENDBRANCH  12  13
ENDBRANCH   2  11
TORSDOF 3
ENDMDL
MODEL 3
REMARK VINA RESULT:    -6.914      2.805      9.539
REMARK INTER + INTRA:          -8.455
REMARK INTER:                  -8.081
REMARK INTRA:                  -0.374
REMARK UNBOUND:                -0.329
REMARK SMILES O=C(/C=C/C=C/c1ccc2c(c1)OCO2)N1CCCCC1
REMARK SMILES IDX 3 1 4 2 2 3 1 4 16 5 17 6 21 7 18 8 20 9 19 10 5 11 6 12
REMARK SMILES IDX 7 13 12 14 8 15 11 16 9 17 13 18 10 19 14 20 15 21
REMARK H PARENT
REMARK Flexibility Score: inf
ROOT
ATOM      1  C   UNL     1      97.029  81.503  77.823  1.00  0.00     0.071 C 
ATOM      2  C   UNL     1      97.475  82.061  78.947  1.00  0.00     0.006 C 
ENDROOT
BRANCH   1   3
ATOM      3  C   UNL     1      97.478  82.076  76.538  1.00  0.00     0.246 C 
ATOM      4  O   UNL     1      96.919  83.100  76.145  1.00  0.00    -0.270 OA
ATOM      5  N   UNL     1      98.499  81.416  75.855  1.00  0.00    -0.339 N 
ATOM      6  C   UNL     1      98.963  81.958  74.574  1.00  0.00     0.120 C 
ATOM      7  C   UNL     1      99.158  80.169  76.269  1.00  0.00     0.120 C 
ATOM      8  C   UNL     1     100.475  82.150  74.564  1.00  0.00     0.022 C 
ATOM      9  C   UNL     1     100.679  80.320  76.269  1.00  0.00     0.022 C 
ATOM     10  C   UNL     1     101.193  80.856  74.936  1.00  0.00     0.004 C 
ENDBRANCH   1   3
BRANCH   2  11
ATOM     11  C   UNL     1      97.091  81.571  80.254  1.00  0.00     0.001 C 
ATOM     12  C   UNL     1      96.708  82.385  81.251  1.00  0.00     0.008 C 
BRANCH  12  13
ATOM     13  C   UNL     1      96.315  81.941  82.599  1.00  0.00    -0.022 A 
ATOM     14  C   UNL     1      96.216  82.880  83.617  1.00  0.00     0.058 A 
ATOM     15  C   UNL     1      96.052  80.586  82.817  1.00  0.00     0.012 A 
ATOM     16  C   UNL     1      95.845  82.416  84.862  1.00  0.00     0.166 A 
ATOM     17  C   UNL     1      95.679  80.144  84.088  1.00  0.00     0.051 A 
ATOM     18  O   UNL     1      95.695  83.173  85.984  1.00  0.00    -0.454 OA
ATOM     19  C   UNL     1      95.583  81.085  85.092  1.00  0.00     0.165 A 
ATOM     20  C   UNL     1      95.309  82.169  86.944  1.00  0.00     0.468 C 
ATOM     21  O   UNL     1      95.236  80.841  86.385  1.00  0.00    -0.454 OA
ENDBRANCH  12  13
ENDBRANCH   2  11
TORSDOF 3
ENDMDL
MODEL 4
REMARK VINA RESULT:    -6.794     24.517     26.735
REMARK INTER + INTRA:          -8.314
REMARK INTER:                  -7.912
REMARK INTRA:                  -0.402
REMARK UNBOUND:                -0.329
REMARK SMILES O=C(/C=C/C=C/c1ccc2c(c1)OCO2)N1CCCCC1
REMARK SMILES IDX 3 1 4 2 2 3 1 4 16 5 17 6 21 7 18 8 20 9 19 10 5 11 6 12
REMARK SMILES IDX 7 13 12 14 8 15 11 16 9 17 13 18 10 19 14 20 15 21
REMARK H PARENT
REMARK Flexibility Score: inf
ROOT
ATOM      1  C   UNL     1      76.127  85.737  67.584  1.00  0.00     0.071 C 
ATOM      2  C   UNL     1      76.716  86.923  67.440  1.00  0.00     0.006 C 
ENDROOT
BRANCH   1   3
ATOM      3  C   UNL     1      76.617  84.613  66.763  1.00  0.00     0.246 C 
ATOM      4  O   UNL     1      77.789  84.266  66.915  1.00  0.00    -0.270 OA
ATOM      5  N   UNL     1      75.725  84.024  65.869  1.00  0.00    -0.339 N 
ATOM      6  C   UNL     1      76.185  82.908  65.035  1.00  0.00     0.120 C 
ATOM      7  C   UNL     1      74.335  84.439  65.627  1.00  0.00     0.120 C 
ATOM      8  C   UNL     1      75.261  81.702  65.160  1.00  0.00     0.022 C 
ATOM      9  C   UNL     1      73.376  83.254  65.740  1.00  0.00     0.022 C 
ATOM     10  C   UNL     1      73.816  82.087  64.860  1.00  0.00     0.004 C 
ENDBRANCH   1   3
BRANCH   2  11
ATOM     11  C   UNL     1      76.305  88.084  68.200  1.00  0.00     0.001 C 
ATOM     12  C   UNL     1      75.016  88.399  68.405  1.00  0.00     0.008 C 
BRANCH  12  13
ATOM     13  C   UNL     1      74.544  89.571  69.162  1.00  0.00    -0.022 A 
ATOM     14  C   UNL     1      73.257  89.565  69.683  1.00  0.00     0.058 A 
ATOM     15  C   UNL     1      75.404  90.657  69.336  1.00  0.00     0.012 A 
ATOM     16  C   UNL     1      72.860  90.684  70.384  1.00  0.00     0.166 A 
ATOM     17  C   UNL     1      74.977  91.778  70.051  1.00  0.00     0.051 A 
ATOM     18  O   UNL     1      71.644  90.871  70.968  1.00  0.00    -0.454 OA
ATOM     19  C   UNL     1      73.696  91.762  70.564  1.00  0.00     0.165 A 
ATOM     20  C   UNL     1      71.810  92.187  71.534  1.00  0.00     0.468 C 
ATOM     21  O   UNL     1      73.110  92.758  71.282  1.00  0.00    -0.454 OA
ENDBRANCH  12  13
ENDBRANCH   2  11
TORSDOF 3
ENDMDL
MODEL 5
REMARK VINA RESULT:    -6.768     16.404     19.800
REMARK INTER + INTRA:          -8.284
REMARK INTER:                  -7.900
REMARK INTRA:                  -0.383
REMARK UNBOUND:                -0.329
REMARK SMILES O=C(/C=C/C=C/c1ccc2c(c1)OCO2)N1CCCCC1
REMARK SMILES IDX 3 1 4 2 2 3 1 4 16 5 17 6 21 7 18 8 20 9 19 10 5 11 6 12
REMARK SMILES IDX 7 13 12 14 8 15 11 16 9 17 13 18 10 19 14 20 15 21
REMARK H PARENT
REMARK Flexibility Score: inf
ROOT
ATOM      1  C   UNL     1      92.162  99.580  71.760  1.00  0.00     0.071 C 
ATOM      2  C   UNL     1      93.460  99.479  72.039  1.00  0.00     0.006 C 
ENDROOT
BRANCH   1   3
ATOM      3  C   UNL     1      91.772 100.246  70.501  1.00  0.00     0.246 C 
ATOM      4  O   UNL     1      92.383 101.268  70.185  1.00  0.00    -0.270 OA
ATOM      5  N   UNL     1      90.738  99.678  69.758  1.00  0.00    -0.339 N 
ATOM      6  C   UNL     1      90.326 100.320  68.507  1.00  0.00     0.120 C 
ATOM      7  C   UNL     1      89.958  98.487  70.125  1.00  0.00     0.120 C 
ATOM      8  C   UNL     1      90.326  99.331  67.347  1.00  0.00     0.022 C 
ATOM      9  C   UNL     1      89.931  97.471  68.984  1.00  0.00     0.022 C 
ATOM     10  C   UNL     1      89.477  98.106  67.673  1.00  0.00     0.004 C 
ENDBRANCH   1   3
BRANCH   2  11
ATOM     11  C   UNL     1      93.939  98.844  73.248  1.00  0.00     0.001 C 
ATOM     12  C   UNL     1      93.708  97.551  73.531  1.00  0.00     0.008 C 
BRANCH  12  13
ATOM     13  C   UNL     1      94.165  96.858  74.747  1.00  0.00    -0.022 A 
ATOM     14  C   UNL     1      93.261  96.089  75.466  1.00  0.00     0.058 A 
ATOM     15  C   UNL     1      95.498  96.994  75.145  1.00  0.00     0.012 A 
ATOM     16  C   UNL     1      93.735  95.458  76.598  1.00  0.00     0.166 A 
ATOM     17  C   UNL     1      95.951  96.345  76.295  1.00  0.00     0.051 A 
ATOM     18  O   UNL     1      93.010  94.665  77.433  1.00  0.00    -0.454 OA
ATOM     19  C   UNL     1      95.045  95.583  77.002  1.00  0.00     0.165 A 
ATOM     20  C   UNL     1      94.010  94.305  78.408  1.00  0.00     0.468 C 
ATOM     21  O   UNL     1      95.304  94.884  78.140  1.00  0.00    -0.454 OA
ENDBRANCH  12  13
ENDBRANCH   2  11
TORSDOF 3
ENDMDL
MODEL 6
REMARK VINA RESULT:    -6.696     24.279     26.459
REMARK INTER + INTRA:          -8.199
REMARK INTER:                  -7.824
REMARK INTRA:                  -0.375
REMARK UNBOUND:                -0.329
REMARK SMILES O=C(/C=C/C=C/c1ccc2c(c1)OCO2)N1CCCCC1
REMARK SMILES IDX 3 1 4 2 2 3 1 4 16 5 17 6 21 7 18 8 20 9 19 10 5 11 6 12
REMARK SMILES IDX 7 13 12 14 8 15 11 16 9 17 13 18 10 19 14 20 15 21
REMARK H PARENT
REMARK Flexibility Score: inf
ROOT
ATOM      1  C   UNL     1      76.318  85.780  66.866  1.00  0.00     0.071 C 
ATOM      2  C   UNL     1      77.294  86.644  67.141  1.00  0.00     0.006 C 
ENDROOT
BRANCH   1   3
ATOM      3  C   UNL     1      76.689  84.469  66.298  1.00  0.00     0.246 C 
ATOM      4  O   UNL     1      77.827  84.054  66.522  1.00  0.00    -0.270 OA
ATOM      5  N   UNL     1      75.732  83.792  65.545  1.00  0.00    -0.339 N 
ATOM      6  C   UNL     1      76.073  82.490  64.964  1.00  0.00     0.120 C 
ATOM      7  C   UNL     1      74.381  84.275  65.219  1.00  0.00     0.120 C 
ATOM      8  C   UNL     1      75.046  81.427  65.336  1.00  0.00     0.022 C 
ATOM      9  C   UNL     1      73.321  83.234  65.575  1.00  0.00     0.022 C 
ATOM     10  C   UNL     1      73.637  81.874  64.959  1.00  0.00     0.004 C 
ENDBRANCH   1   3
BRANCH   2  11
ATOM     11  C   UNL     1      77.029  87.953  67.698  1.00  0.00     0.001 C 
ATOM     12  C   UNL     1      75.935  88.667  67.387  1.00  0.00     0.008 C 
BRANCH  12  13
ATOM     13  C   UNL     1      75.621  90.005  67.917  1.00  0.00    -0.022 A 
ATOM     14  C   UNL     1      75.621  91.091  67.054  1.00  0.00     0.058 A 
ATOM     15  C   UNL     1      75.331  90.143  69.277  1.00  0.00     0.012 A 
ATOM     16  C   UNL     1      75.320  92.323  67.597  1.00  0.00     0.166 A 
ATOM     17  C   UNL     1      75.030  91.402  69.801  1.00  0.00     0.051 A 
ATOM     18  O   UNL     1      75.270  93.504  66.920  1.00  0.00    -0.454 OA
ATOM     19  C   UNL     1      75.033  92.475  68.934  1.00  0.00     0.165 A 
ATOM     20  C   UNL     1      74.919  94.414  67.982  1.00  0.00     0.468 C 
ATOM     21  O   UNL     1      74.766  93.769  69.263  1.00  0.00    -0.454 OA
ENDBRANCH  12  13
ENDBRANCH   2  11
TORSDOF 3
ENDMDL
MODEL 7
REMARK VINA RESULT:    -6.587      2.037      2.848
REMARK INTER + INTRA:          -8.071
REMARK INTER:                  -7.743
REMARK INTRA:                  -0.328
REMARK UNBOUND:                -0.329
REMARK SMILES O=C(/C=C/C=C/c1ccc2c(c1)OCO2)N1CCCCC1
REMARK SMILES IDX 3 1 4 2 2 3 1 4 16 5 17 6 21 7 18 8 20 9 19 10 5 11 6 12
REMARK SMILES IDX 7 13 12 14 8 15 11 16 9 17 13 18 10 19 14 20 15 21
REMARK H PARENT
REMARK Flexibility Score: inf
ROOT
ATOM      1  C   UNL     1      97.027  81.017  81.183  1.00  0.00     0.071 C 
ATOM      2  C   UNL     1      96.744  81.992  80.322  1.00  0.00     0.006 C 
ENDROOT
BRANCH   1   3
ATOM      3  C   UNL     1      96.372  81.047  82.506  1.00  0.00     0.246 C 
ATOM      4  O   UNL     1      95.882  82.115  82.874  1.00  0.00    -0.270 OA
ATOM      5  N   UNL     1      96.356  79.868  83.250  1.00  0.00    -0.339 N 
ATOM      6  C   UNL     1      95.717  79.868  84.570  1.00  0.00     0.120 C 
ATOM      7  C   UNL     1      96.968  78.588  82.864  1.00  0.00     0.120 C 
ATOM      8  C   UNL     1      94.687  78.751  84.690  1.00  0.00     0.022 C 
ATOM      9  C   UNL     1      95.965  77.439  82.975  1.00  0.00     0.022 C 
ATOM     10  C   UNL     1      95.305  77.398  84.350  1.00  0.00     0.004 C 
ENDBRANCH   1   3
BRANCH   2  11
ATOM     11  C   UNL     1      97.337  82.048  79.002  1.00  0.00     0.001 C 
ATOM     12  C   UNL     1      96.620  82.300  77.895  1.00  0.00     0.008 C 
BRANCH  12  13
ATOM     13  C   UNL     1      97.170  82.361  76.530  1.00  0.00    -0.022 A 
ATOM     14  C   UNL     1      98.463  81.912  76.301  1.00  0.00     0.058 A 
ATOM     15  C   UNL     1      96.373  82.870  75.501  1.00  0.00     0.012 A 
ATOM     16  C   UNL     1      98.933  81.989  75.006  1.00  0.00     0.166 A 
ATOM     17  C   UNL     1      96.874  82.936  74.199  1.00  0.00     0.051 A 
ATOM     18  O   UNL     1     100.168  81.603  74.581  1.00  0.00    -0.454 OA
ATOM     19  C   UNL     1      98.160  82.487  73.983  1.00  0.00     0.165 A 
ATOM     20  C   UNL     1     100.084  81.914  73.175  1.00  0.00     0.468 C 
ATOM     21  O   UNL     1      98.813  82.476  72.789  1.00  0.00    -0.454 OA
ENDBRANCH  12  13
ENDBRANCH   2  11
TORSDOF 3
ENDMDL
MODEL 8
REMARK VINA RESULT:    -6.354     22.999     25.361
REMARK INTER + INTRA:          -7.797
REMARK INTER:                  -7.434
REMARK INTRA:                  -0.363
REMARK UNBOUND:                -0.329
REMARK SMILES O=C(/C=C/C=C/c1ccc2c(c1)OCO2)N1CCCCC1
REMARK SMILES IDX 3 1 4 2 2 3 1 4 16 5 17 6 21 7 18 8 20 9 19 10 5 11 6 12
REMARK SMILES IDX 7 13 12 14 8 15 11 16 9 17 13 18 10 19 14 20 15 21
REMARK H PARENT
REMARK Flexibility Score: inf
ROOT
ATOM      1  C   UNL     1      76.078  94.849  79.180  1.00  0.00     0.071 C 
ATOM      2  C   UNL     1      76.457  93.774  79.868  1.00  0.00     0.006 C 
ENDROOT
BRANCH   1   3
ATOM      3  C   UNL     1      76.949  95.314  78.083  1.00  0.00     0.246 C 
ATOM      4  O   UNL     1      77.935  95.988  78.385  1.00  0.00    -0.270 OA
ATOM      5  N   UNL     1      76.596  94.966  76.780  1.00  0.00    -0.339 N 
ATOM      6  C   UNL     1      77.438  95.418  75.669  1.00  0.00     0.120 C 
ATOM      7  C   UNL     1      75.404  94.203  76.378  1.00  0.00     0.120 C 
ATOM      8  C   UNL     1      77.853  94.255  74.775  1.00  0.00     0.022 C 
ATOM      9  C   UNL     1      75.779  93.028  75.475  1.00  0.00     0.022 C 
ATOM     10  C   UNL     1      76.634  93.474  74.293  1.00  0.00     0.004 C 
ENDBRANCH   1   3
BRANCH   2  11
ATOM     11  C   UNL     1      75.671  93.242  80.961  1.00  0.00     0.001 C 
ATOM     12  C   UNL     1      75.432  91.930  81.113  1.00  0.00     0.008 C 
BRANCH  12  13
ATOM     13  C   UNL     1      74.633  91.337  82.199  1.00  0.00    -0.022 A 
ATOM     14  C   UNL     1      73.384  90.806  81.908  1.00  0.00     0.058 A 
ATOM     15  C   UNL     1      75.155  91.325  83.495  1.00  0.00     0.012 A 
ATOM     16  C   UNL     1      72.674  90.262  82.958  1.00  0.00     0.166 A 
ATOM     17  C   UNL     1      74.415  90.768  84.540  1.00  0.00     0.051 A 
ATOM     18  O   UNL     1      71.438  89.697  82.878  1.00  0.00    -0.454 OA
ATOM     19  C   UNL     1      73.175  90.243  84.239  1.00  0.00     0.165 A 
ATOM     20  C   UNL     1      71.219  89.320  84.253  1.00  0.00     0.468 C 
ATOM     21  O   UNL     1      72.317  89.664  85.122  1.00  0.00    -0.454 OA
ENDBRANCH  12  13
ENDBRANCH   2  11
TORSDOF 3
ENDMDL
MODEL 9
REMARK VINA RESULT:    -6.249     19.347     22.642
REMARK INTER + INTRA:          -7.674
REMARK INTER:                  -7.343
REMARK INTRA:                  -0.331
REMARK UNBOUND:                -0.329
REMARK SMILES O=C(/C=C/C=C/c1ccc2c(c1)OCO2)N1CCCCC1
REMARK SMILES IDX 3 1 4 2 2 3 1 4 16 5 17 6 21 7 18 8 20 9 19 10 5 11 6 12
REMARK SMILES IDX 7 13 12 14 8 15 11 16 9 17 13 18 10 19 14 20 15 21
REMARK H PARENT
REMARK Flexibility Score: inf
ROOT
ATOM      1  C   UNL     1      90.270 100.034  69.409  1.00  0.00     0.071 C 
ATOM      2  C   UNL     1      90.553  99.451  70.572  1.00  0.00     0.006 C 
ENDROOT
BRANCH   1   3
ATOM      3  C   UNL     1      89.225  99.425  68.562  1.00  0.00     0.246 C 
ATOM      4  O   UNL     1      88.853  98.286  68.848  1.00  0.00    -0.270 OA
ATOM      5  N   UNL     1      88.734 100.175  67.495  1.00  0.00    -0.339 N 
ATOM      6  C   UNL     1      87.699  99.595  66.634  1.00  0.00     0.120 C 
ATOM      7  C   UNL     1      89.185 101.517  67.096  1.00  0.00     0.120 C 
ATOM      8  C   UNL     1      86.496 100.523  66.506  1.00  0.00     0.022 C 
ATOM      9  C   UNL     1      88.004 102.478  66.954  1.00  0.00     0.022 C 
ATOM     10  C   UNL     1      86.923 101.910  66.038  1.00  0.00     0.004 C 
ENDBRANCH   1   3
BRANCH   2  11
ATOM     11  C   UNL     1      91.561  99.974  71.470  1.00  0.00     0.001 C 
ATOM     12  C   UNL     1      92.522  99.206  72.008  1.00  0.00     0.008 C 
BRANCH  12  13
ATOM     13  C   UNL     1      93.566  99.683  72.931  1.00  0.00    -0.022 A 
ATOM     14  C   UNL     1      94.514  98.785  73.401  1.00  0.00     0.058 A 
ATOM     15  C   UNL     1      93.572 101.028  73.310  1.00  0.00     0.012 A 
ATOM     16  C   UNL     1      95.472  99.280  74.263  1.00  0.00     0.166 A 
ATOM     17  C   UNL     1      94.553 101.502  74.184  1.00  0.00     0.051 A 
ATOM     18  O   UNL     1      96.481  98.563  74.831  1.00  0.00    -0.454 OA
ATOM     19  C   UNL     1      95.490 100.602  74.645  1.00  0.00     0.165 A 
ATOM     20  C   UNL     1      97.136  99.583  75.611  1.00  0.00     0.468 C 
ATOM     21  O   UNL     1      96.513 100.879  75.498  1.00  0.00    -0.454 OA
ENDBRANCH  12  13
ENDBRANCH   2  11
TORSDOF 3
ENDMDL
MODEL 10
REMARK VINA RESULT:    -6.136      8.706     10.355
REMARK INTER + INTRA:          -7.541
REMARK INTER:                  -7.159
REMARK INTRA:                  -0.382
REMARK UNBOUND:                -0.329
REMARK SMILES O=C(/C=C/C=C/c1ccc2c(c1)OCO2)N1CCCCC1
REMARK SMILES IDX 3 1 4 2 2 3 1 4 16 5 17 6 21 7 18 8 20 9 19 10 5 11 6 12
REMARK SMILES IDX 7 13 12 14 8 15 11 16 9 17 13 18 10 19 14 20 15 21
REMARK H PARENT
REMARK Flexibility Score: inf
ROOT
ATOM      1  C   UNL     1      94.273  85.095  88.153  1.00  0.00     0.071 C 
ATOM      2  C   UNL     1      93.919  84.774  86.910  1.00  0.00     0.006 C 
ENDROOT
BRANCH   1   3
ATOM      3  C   UNL     1      95.231  86.204  88.338  1.00  0.00     0.246 C 
ATOM      4  O   UNL     1      96.279  86.164  87.692  1.00  0.00    -0.270 OA
ATOM      5  N   UNL     1      94.888  87.216  89.233  1.00  0.00    -0.339 N 
ATOM      6  C   UNL     1      95.822  88.327  89.441  1.00  0.00     0.120 C 
ATOM      7  C   UNL     1      93.670  87.275  90.054  1.00  0.00     0.120 C 
ATOM      8  C   UNL     1      95.136  89.675  89.245  1.00  0.00     0.022 C 
ATOM      9  C   UNL     1      92.954  88.615  89.887  1.00  0.00     0.022 C 
ATOM     10  C   UNL     1      93.897  89.791  90.127  1.00  0.00     0.004 C 
ENDBRANCH   1   3
BRANCH   2  11
ATOM     11  C   UNL     1      92.987  83.703  86.628  1.00  0.00     0.001 C 
ATOM     12  C   UNL     1      91.781  83.617  87.212  1.00  0.00     0.008 C 
BRANCH  12  13
ATOM     13  C   UNL     1      90.799  82.546  86.968  1.00  0.00    -0.022 A 
ATOM     14  C   UNL     1      90.599  82.096  85.670  1.00  0.00     0.058 A 
ATOM     15  C   UNL     1      90.096  82.012  88.051  1.00  0.00     0.012 A 
ATOM     16  C   UNL     1      89.669  81.092  85.493  1.00  0.00     0.166 A 
ATOM     17  C   UNL     1      89.161  80.996  87.842  1.00  0.00     0.051 A 
ATOM     18  O   UNL     1      89.330  80.520  84.305  1.00  0.00    -0.454 OA
ATOM     19  C   UNL     1      88.970  80.556  86.549  1.00  0.00     0.165 A 
ATOM     20  C   UNL     1      88.339  79.564  84.733  1.00  0.00     0.468 C 
ATOM     21  O   UNL     1      88.105  79.582  86.156  1.00  0.00    -0.454 OA
ENDBRANCH  12  13
ENDBRANCH   2  11
TORSDOF 3
ENDMDL
