MODEL 1
REMARK VINA RESULT:    -5.460      0.000      0.000
REMARK INTER + INTRA:         -10.377
REMARK INTER:                  -8.493
REMARK INTRA:                  -1.884
REMARK UNBOUND:                -1.884
REMARK SMILES COc1cc(CNC(=O)CCCC/C=C/C(C)C)ccc1O
REMARK SMILES IDX 10 1 8 2 7 3 9 5 6 6 5 7 3 8 21 9 4 10 20 11 19 12 2 13 1 14
REMARK SMILES IDX 22 15 11 17 12 18 13 19 14 20 15 21 16 22 17 23 18 24
REMARK H PARENT 7 4 22 16
REMARK Flexibility Score: inf
ROOT
ATOM      1  C   UNL     1      83.041  91.442  89.176  1.00  0.00     0.100 C 
ENDROOT
BRANCH   1   2
ATOM      2  C   UNL     1      83.397  90.746  87.924  1.00  0.00     0.220 C 
ATOM      3  N   UNL     1      82.777  91.066  86.754  1.00  0.00    -0.352 N 
ATOM      4  H   UNL     1      82.063  91.777  86.830  1.00  0.00     0.163 HD
ATOM      5  O   UNL     1      84.299  89.874  87.967  1.00  0.00    -0.275 OA
BRANCH   3   6
ATOM      6  C   UNL     1      83.071  90.476  85.487  1.00  0.00     0.151 C 
BRANCH   6   7
ATOM      7  C   UNL     1      82.112  89.386  85.156  1.00  0.00    -0.025 A 
ATOM      8  C   UNL     1      81.612  86.986  84.933  1.00  0.00     0.160 A 
ATOM      9  C   UNL     1      80.292  87.296  84.547  1.00  0.00     0.157 A 
ATOM     10  C   UNL     1      82.510  88.032  85.231  1.00  0.00     0.056 A 
ATOM     11  C   UNL     1      79.886  88.642  84.449  1.00  0.00     0.050 A 
ATOM     12  C   UNL     1      80.786  89.680  84.761  1.00  0.00     0.009 A 
BRANCH   8  13
ATOM     13  O   UNL     1      82.030  85.680  84.966  1.00  0.00    -0.493 OA
ATOM     14  C   UNL     1      82.840  85.351  86.110  1.00  0.00     0.278 C 
ENDBRANCH   8  13
BRANCH   9  15
ATOM     15  O   UNL     1      79.399  86.312  84.266  1.00  0.00    -0.504 OA
ATOM     16  H   UNL     1      79.867  85.533  83.956  1.00  0.00     0.293 HD
ENDBRANCH   9  15
ENDBRANCH   6   7
ENDBRANCH   3   6
ENDBRANCH   1   2
BRANCH   1  17
ATOM     17  C   UNL     1      81.740  92.273  89.017  1.00  0.00     0.010 C 
BRANCH  17  18
ATOM     18  C   UNL     1      80.474  91.514  89.506  1.00  0.00     0.005 C 
BRANCH  18  19
ATOM     19  C   UNL     1      79.763  90.750  88.356  1.00  0.00     0.027 C 
BRANCH  19  20
ATOM     20  C   UNL     1      79.966  89.312  88.447  1.00  0.00    -0.031 C 
ATOM     21  C   UNL     1      80.152  88.647  89.602  1.00  0.00    -0.028 C 
BRANCH  21  22
ATOM     22  C   UNL     1      80.335  87.197  89.671  1.00  0.00     0.005 C 
ATOM     23  C   UNL     1      79.394  86.534  90.716  1.00  0.00     0.012 C 
ATOM     24  C   UNL     1      80.139  86.564  88.269  1.00  0.00     0.012 C 
ENDBRANCH  21  22
ENDBRANCH  19  20
ENDBRANCH  18  19
ENDBRANCH  17  18
ENDBRANCH   1  17
TORSDOF 10
ENDMDL
MODEL 2
REMARK VINA RESULT:    -5.311      2.116      5.383
REMARK INTER + INTRA:         -10.145
REMARK INTER:                  -8.758
REMARK INTRA:                  -1.387
REMARK UNBOUND:                -1.884
REMARK SMILES COc1cc(CNC(=O)CCCC/C=C/C(C)C)ccc1O
REMARK SMILES IDX 10 1 8 2 7 3 9 5 6 6 5 7 3 8 21 9 4 10 20 11 19 12 2 13 1 14
REMARK SMILES IDX 22 15 11 17 12 18 13 19 14 20 15 21 16 22 17 23 18 24
REMARK H PARENT 7 4 22 16
REMARK Flexibility Score: inf
ROOT
ATOM      1  C   UNL     1      79.712  87.099  89.820  1.00  0.00     0.100 C 
ENDROOT
BRANCH   1   2
ATOM      2  C   UNL     1      79.931  88.557  89.869  1.00  0.00     0.220 C 
ATOM      3  N   UNL     1      79.773  89.319  88.750  1.00  0.00    -0.352 N 
ATOM      4  H   UNL     1      79.526  88.804  87.916  1.00  0.00     0.163 HD
ATOM      5  O   UNL     1      80.243  89.073  90.970  1.00  0.00    -0.275 OA
BRANCH   3   6
ATOM      6  C   UNL     1      79.930  90.737  88.700  1.00  0.00     0.151 C 
BRANCH   6   7
ATOM      7  C   UNL     1      81.265  91.120  88.164  1.00  0.00    -0.025 A 
ATOM      8  C   UNL     1      83.181  90.652  86.691  1.00  0.00     0.160 A 
ATOM      9  C   UNL     1      83.801  91.846  87.116  1.00  0.00     0.157 A 
ATOM     10  C   UNL     1      81.922  90.300  87.219  1.00  0.00     0.056 A 
ATOM     11  C   UNL     1      83.166  92.664  88.072  1.00  0.00     0.050 A 
ATOM     12  C   UNL     1      81.903  92.310  88.585  1.00  0.00     0.009 A 
BRANCH   8  13
ATOM     13  O   UNL     1      83.824  89.820  85.810  1.00  0.00    -0.493 OA
ATOM     14  C   UNL     1      83.744  90.243  84.437  1.00  0.00     0.278 C 
ENDBRANCH   8  13
BRANCH   9  15
ATOM     15  O   UNL     1      85.007  92.221  86.617  1.00  0.00    -0.504 OA
ATOM     16  H   UNL     1      85.532  91.440  86.426  1.00  0.00     0.293 HD
ENDBRANCH   9  15
ENDBRANCH   6   7
ENDBRANCH   3   6
ENDBRANCH   1   2
BRANCH   1  17
ATOM     17  C   UNL     1      80.141  86.501  88.453  1.00  0.00     0.010 C 
BRANCH  17  18
ATOM     18  C   UNL     1      81.665  86.205  88.374  1.00  0.00     0.005 C 
BRANCH  18  19
ATOM     19  C   UNL     1      82.112  85.786  86.948  1.00  0.00     0.027 C 
BRANCH  19  20
ATOM     20  C   UNL     1      81.801  86.803  85.955  1.00  0.00    -0.031 C 
ATOM     21  C   UNL     1      80.997  86.604  84.895  1.00  0.00    -0.028 C 
BRANCH  21  22
ATOM     22  C   UNL     1      80.682  87.648  83.920  1.00  0.00     0.005 C 
ATOM     23  C   UNL     1      79.998  87.078  82.646  1.00  0.00     0.012 C 
ATOM     24  C   UNL     1      79.805  88.746  84.574  1.00  0.00     0.012 C 
ENDBRANCH  21  22
ENDBRANCH  19  20
ENDBRANCH  18  19
ENDBRANCH  17  18
ENDBRANCH   1  17
TORSDOF 10
ENDMDL
MODEL 3
REMARK VINA RESULT:    -5.295     17.842     21.048
REMARK INTER + INTRA:         -10.120
REMARK INTER:                  -8.825
REMARK INTRA:                  -1.294
REMARK UNBOUND:                -1.884
REMARK SMILES COc1cc(CNC(=O)CCCC/C=C/C(C)C)ccc1O
REMARK SMILES IDX 10 1 8 2 7 3 9 5 6 6 5 7 3 8 21 9 4 10 20 11 19 12 2 13 1 14
REMARK SMILES IDX 22 15 11 17 12 18 13 19 14 20 15 21 16 22 17 23 18 24
REMARK H PARENT 7 4 22 16
REMARK Flexibility Score: inf
ROOT
ATOM      1  C   UNL     1      75.822  84.247  68.042  1.00  0.00     0.100 C 
ENDROOT
BRANCH   1   2
ATOM      2  C   UNL     1      74.777  85.071  68.681  1.00  0.00     0.220 C 
ATOM      3  N   UNL     1      74.458  86.296  68.177  1.00  0.00    -0.352 N 
ATOM      4  H   UNL     1      75.002  86.582  67.374  1.00  0.00     0.163 HD
ATOM      5  O   UNL     1      74.181  84.600  69.680  1.00  0.00    -0.275 OA
BRANCH   3   6
ATOM      6  C   UNL     1      73.444  87.154  68.701  1.00  0.00     0.151 C 
BRANCH   6   7
ATOM      7  C   UNL     1      73.949  88.541  68.896  1.00  0.00    -0.025 A 
ATOM      8  C   UNL     1      73.712  90.768  69.919  1.00  0.00     0.160 A 
ATOM      9  C   UNL     1      74.907  91.183  69.294  1.00  0.00     0.157 A 
ATOM     10  C   UNL     1      73.244  89.454  69.713  1.00  0.00     0.056 A 
ATOM     11  C   UNL     1      75.610  90.290  68.461  1.00  0.00     0.050 A 
ATOM     12  C   UNL     1      75.140  88.976  68.270  1.00  0.00     0.009 A 
BRANCH   8  13
ATOM     13  O   UNL     1      72.990  91.653  70.678  1.00  0.00    -0.493 OA
ATOM     14  C   UNL     1      73.265  91.578  72.089  1.00  0.00     0.278 C 
ENDBRANCH   8  13
BRANCH   9  15
ATOM     15  O   UNL     1      75.392  92.437  69.482  1.00  0.00    -0.504 OA
ATOM     16  H   UNL     1      74.899  93.057  68.939  1.00  0.00     0.293 HD
ENDBRANCH   9  15
ENDBRANCH   6   7
ENDBRANCH   3   6
ENDBRANCH   1   2
BRANCH   1  17
ATOM     17  C   UNL     1      77.238  84.840  68.272  1.00  0.00     0.010 C 
BRANCH  17  18
ATOM     18  C   UNL     1      77.856  85.449  66.982  1.00  0.00     0.005 C 
BRANCH  18  19
ATOM     19  C   UNL     1      77.981  86.995  67.059  1.00  0.00     0.027 C 
BRANCH  19  20
ATOM     20  C   UNL     1      78.072  87.603  65.741  1.00  0.00    -0.031 C 
ATOM     21  C   UNL     1      77.603  88.827  65.439  1.00  0.00    -0.028 C 
BRANCH  21  22
ATOM     22  C   UNL     1      77.723  89.428  64.110  1.00  0.00     0.005 C 
ATOM     23  C   UNL     1      76.914  88.649  63.036  1.00  0.00     0.012 C 
ATOM     24  C   UNL     1      77.294  90.917  64.154  1.00  0.00     0.012 C 
ENDBRANCH  21  22
ENDBRANCH  19  20
ENDBRANCH  18  19
ENDBRANCH  17  18
ENDBRANCH   1  17
TORSDOF 10
ENDMDL
MODEL 4
REMARK VINA RESULT:    -5.101     24.240     26.616
REMARK INTER + INTRA:          -9.818
REMARK INTER:                  -9.060
REMARK INTRA:                  -0.758
REMARK UNBOUND:                -1.884
REMARK SMILES COc1cc(CNC(=O)CCCC/C=C/C(C)C)ccc1O
REMARK SMILES IDX 10 1 8 2 7 3 9 5 6 6 5 7 3 8 21 9 4 10 20 11 19 12 2 13 1 14
REMARK SMILES IDX 22 15 11 17 12 18 13 19 14 20 15 21 16 22 17 23 18 24
REMARK H PARENT 7 4 22 16
REMARK Flexibility Score: inf
ROOT
ATOM      1  C   UNL     1      82.532  64.808  76.315  1.00  0.00     0.100 C 
ENDROOT
BRANCH   1   2
ATOM      2  C   UNL     1      83.884  64.609  76.871  1.00  0.00     0.220 C 
ATOM      3  N   UNL     1      84.116  63.636  77.795  1.00  0.00    -0.352 N 
ATOM      4  H   UNL     1      83.301  63.104  78.068  1.00  0.00     0.163 HD
ATOM      5  O   UNL     1      84.811  65.344  76.451  1.00  0.00    -0.275 OA
BRANCH   3   6
ATOM      6  C   UNL     1      85.390  63.342  78.369  1.00  0.00     0.151 C 
BRANCH   6   7
ATOM      7  C   UNL     1      85.613  64.108  79.626  1.00  0.00    -0.025 A 
ATOM      8  C   UNL     1      86.578  66.049  80.793  1.00  0.00     0.160 A 
ATOM      9  C   UNL     1      86.031  65.591  82.009  1.00  0.00     0.157 A 
ATOM     10  C   UNL     1      86.367  65.303  79.614  1.00  0.00     0.056 A 
ATOM     11  C   UNL     1      85.294  64.391  82.039  1.00  0.00     0.050 A 
ATOM     12  C   UNL     1      85.077  63.659  80.855  1.00  0.00     0.009 A 
BRANCH   8  13
ATOM     13  O   UNL     1      87.352  67.182  80.770  1.00  0.00    -0.493 OA
ATOM     14  C   UNL     1      88.767  66.925  80.718  1.00  0.00     0.278 C 
ENDBRANCH   8  13
BRANCH   9  15
ATOM     15  O   UNL     1      86.205  66.292  83.159  1.00  0.00    -0.504 OA
ATOM     16  H   UNL     1      87.140  66.467  83.289  1.00  0.00     0.293 HD
ENDBRANCH   9  15
ENDBRANCH   6   7
ENDBRANCH   3   6
ENDBRANCH   1   2
BRANCH   1  17
ATOM     17  C   UNL     1      82.471  64.434  74.809  1.00  0.00     0.010 C 
BRANCH  17  18
ATOM     18  C   UNL     1      81.211  63.599  74.444  1.00  0.00     0.005 C 
BRANCH  18  19
ATOM     19  C   UNL     1      80.020  64.490  74.000  1.00  0.00     0.027 C 
BRANCH  19  20
ATOM     20  C   UNL     1      80.282  65.164  72.737  1.00  0.00    -0.031 C 
ATOM     21  C   UNL     1      80.271  66.500  72.576  1.00  0.00    -0.028 C 
BRANCH  21  22
ATOM     22  C   UNL     1      80.556  67.156  71.301  1.00  0.00     0.005 C 
ATOM     23  C   UNL     1      82.067  67.112  70.940  1.00  0.00     0.012 C 
ATOM     24  C   UNL     1      79.700  66.528  70.171  1.00  0.00     0.012 C 
ENDBRANCH  21  22
ENDBRANCH  19  20
ENDBRANCH  18  19
ENDBRANCH  17  18
ENDBRANCH   1  17
TORSDOF 10
ENDMDL
MODEL 5
REMARK VINA RESULT:    -4.949     24.707     26.431
REMARK INTER + INTRA:          -9.582
REMARK INTER:                  -7.830
REMARK INTRA:                  -1.752
REMARK UNBOUND:                -1.884
REMARK SMILES COc1cc(CNC(=O)CCCC/C=C/C(C)C)ccc1O
REMARK SMILES IDX 10 1 8 2 7 3 9 5 6 6 5 7 3 8 21 9 4 10 20 11 19 12 2 13 1 14
REMARK SMILES IDX 22 15 11 17 12 18 13 19 14 20 15 21 16 22 17 23 18 24
REMARK H PARENT 7 4 22 16
REMARK Flexibility Score: inf
ROOT
ATOM      1  C   UNL     1      84.358  63.835  76.088  1.00  0.00     0.100 C 
ENDROOT
BRANCH   1   2
ATOM      2  C   UNL     1      84.381  64.138  74.644  1.00  0.00     0.220 C 
ATOM      3  N   UNL     1      85.406  64.857  74.105  1.00  0.00    -0.352 N 
ATOM      4  H   UNL     1      86.103  65.169  74.767  1.00  0.00     0.163 HD
ATOM      5  O   UNL     1      83.448  63.695  73.931  1.00  0.00    -0.275 OA
BRANCH   3   6
ATOM      6  C   UNL     1      85.538  65.175  72.719  1.00  0.00     0.151 C 
BRANCH   6   7
ATOM      7  C   UNL     1      85.039  66.546  72.423  1.00  0.00    -0.025 A 
ATOM      8  C   UNL     1      85.441  68.970  72.270  1.00  0.00     0.160 A 
ATOM      9  C   UNL     1      84.110  69.164  71.845  1.00  0.00     0.157 A 
ATOM     10  C   UNL     1      85.892  67.665  72.557  1.00  0.00     0.056 A 
ATOM     11  C   UNL     1      83.243  68.061  71.726  1.00  0.00     0.050 A 
ATOM     12  C   UNL     1      83.705  66.760  72.003  1.00  0.00     0.009 A 
BRANCH   8  13
ATOM     13  O   UNL     1      86.270  70.048  72.450  1.00  0.00    -0.493 OA
ATOM     14  C   UNL     1      87.572  69.893  71.857  1.00  0.00     0.278 C 
ENDBRANCH   8  13
BRANCH   9  15
ATOM     15  O   UNL     1      83.649  70.407  71.547  1.00  0.00    -0.504 OA
ATOM     16  H   UNL     1      82.991  70.668  72.196  1.00  0.00     0.293 HD
ENDBRANCH   9  15
ENDBRANCH   6   7
ENDBRANCH   3   6
ENDBRANCH   1   2
BRANCH   1  17
ATOM     17  C   UNL     1      83.211  64.589  76.813  1.00  0.00     0.010 C 
BRANCH  17  18
ATOM     18  C   UNL     1      83.411  66.131  76.819  1.00  0.00     0.005 C 
BRANCH  18  19
ATOM     19  C   UNL     1      82.145  66.893  76.342  1.00  0.00     0.027 C 
BRANCH  19  20
ATOM     20  C   UNL     1      81.287  66.061  75.511  1.00  0.00    -0.031 C 
ATOM     21  C   UNL     1      80.784  66.444  74.323  1.00  0.00    -0.028 C 
BRANCH  21  22
ATOM     22  C   UNL     1      79.939  65.584  73.495  1.00  0.00     0.005 C 
ATOM     23  C   UNL     1      80.174  65.813  71.976  1.00  0.00     0.012 C 
ATOM     24  C   UNL     1      80.159  64.095  73.871  1.00  0.00     0.012 C 
ENDBRANCH  21  22
ENDBRANCH  19  20
ENDBRANCH  18  19
ENDBRANCH  17  18
ENDBRANCH   1  17
TORSDOF 10
ENDMDL
MODEL 6
REMARK VINA RESULT:    -4.834     24.008     26.178
REMARK INTER + INTRA:          -9.402
REMARK INTER:                  -7.507
REMARK INTRA:                  -1.895
REMARK UNBOUND:                -1.884
REMARK SMILES COc1cc(CNC(=O)CCCC/C=C/C(C)C)ccc1O
REMARK SMILES IDX 10 1 8 2 7 3 9 5 6 6 5 7 3 8 21 9 4 10 20 11 19 12 2 13 1 14
REMARK SMILES IDX 22 15 11 17 12 18 13 19 14 20 15 21 16 22 17 23 18 24
REMARK H PARENT 7 4 22 16
REMARK Flexibility Score: inf
ROOT
ATOM      1  C   UNL     1      80.164  66.022  74.176  1.00  0.00     0.100 C 
ENDROOT
BRANCH   1   2
ATOM      2  C   UNL     1      80.498  66.387  72.785  1.00  0.00     0.220 C 
ATOM      3  N   UNL     1      81.112  67.571  72.510  1.00  0.00    -0.352 N 
ATOM      4  H   UNL     1      81.287  68.159  73.314  1.00  0.00     0.163 HD
ATOM      5  O   UNL     1      80.221  65.568  71.876  1.00  0.00    -0.275 OA
BRANCH   3   6
ATOM      6  C   UNL     1      81.505  68.002  71.206  1.00  0.00     0.151 C 
BRANCH   6   7
ATOM      7  C   UNL     1      82.946  68.370  71.163  1.00  0.00    -0.025 A 
ATOM      8  C   UNL     1      85.282  67.771  70.666  1.00  0.00     0.160 A 
ATOM      9  C   UNL     1      85.697  69.061  71.056  1.00  0.00     0.157 A 
ATOM     10  C   UNL     1      83.913  67.437  70.725  1.00  0.00     0.056 A 
ATOM     11  C   UNL     1      84.747  69.996  71.514  1.00  0.00     0.050 A 
ATOM     12  C   UNL     1      83.381  69.657  71.558  1.00  0.00     0.009 A 
BRANCH   8  13
ATOM     13  O   UNL     1      86.211  66.837  70.283  1.00  0.00    -0.493 OA
ATOM     14  C   UNL     1      86.133  66.468  68.893  1.00  0.00     0.278 C 
ENDBRANCH   8  13
BRANCH   9  15
ATOM     15  O   UNL     1      87.006  69.419  70.999  1.00  0.00    -0.504 OA
ATOM     16  H   UNL     1      87.075  70.341  70.739  1.00  0.00     0.293 HD
ENDBRANCH   9  15
ENDBRANCH   6   7
ENDBRANCH   3   6
ENDBRANCH   1   2
BRANCH   1  17
ATOM     17  C   UNL     1      80.962  64.776  74.648  1.00  0.00     0.010 C 
BRANCH  17  18
ATOM     18  C   UNL     1      81.735  65.020  75.974  1.00  0.00     0.005 C 
BRANCH  18  19
ATOM     19  C   UNL     1      81.841  66.528  76.327  1.00  0.00     0.027 C 
BRANCH  19  20
ATOM     20  C   UNL     1      83.174  67.056  76.080  1.00  0.00    -0.031 C 
ATOM     21  C   UNL     1      83.628  67.426  74.869  1.00  0.00    -0.028 C 
BRANCH  21  22
ATOM     22  C   UNL     1      84.967  67.973  74.647  1.00  0.00     0.005 C 
ATOM     23  C   UNL     1      85.510  68.726  75.893  1.00  0.00     0.012 C 
ATOM     24  C   UNL     1      85.941  66.847  74.213  1.00  0.00     0.012 C 
ENDBRANCH  21  22
ENDBRANCH  19  20
ENDBRANCH  18  19
ENDBRANCH  17  18
ENDBRANCH   1  17
TORSDOF 10
ENDMDL
MODEL 7
REMARK VINA RESULT:    -4.741     23.459     25.931
REMARK INTER + INTRA:          -9.259
REMARK INTER:                  -8.537
REMARK INTRA:                  -0.722
REMARK UNBOUND:                -1.884
REMARK SMILES COc1cc(CNC(=O)CCCC/C=C/C(C)C)ccc1O
REMARK SMILES IDX 10 1 8 2 7 3 9 5 6 6 5 7 3 8 21 9 4 10 20 11 19 12 2 13 1 14
REMARK SMILES IDX 22 15 11 17 12 18 13 19 14 20 15 21 16 22 17 23 18 24
REMARK H PARENT 7 4 22 16
REMARK Flexibility Score: inf
ROOT
ATOM      1  C   UNL     1      84.792  64.931  77.174  1.00  0.00     0.100 C 
ENDROOT
BRANCH   1   2
ATOM      2  C   UNL     1      83.381  65.139  76.792  1.00  0.00     0.220 C 
ATOM      3  N   UNL     1      82.940  66.374  76.423  1.00  0.00    -0.352 N 
ATOM      4  H   UNL     1      83.637  67.105  76.460  1.00  0.00     0.163 HD
ATOM      5  O   UNL     1      82.615  64.146  76.794  1.00  0.00    -0.275 OA
BRANCH   3   6
ATOM      6  C   UNL     1      81.607  66.673  76.006  1.00  0.00     0.151 C 
BRANCH   6   7
ATOM      7  C   UNL     1      81.422  66.428  74.550  1.00  0.00    -0.025 A 
ATOM      8  C   UNL     1      82.179  66.733  72.227  1.00  0.00     0.160 A 
ATOM      9  C   UNL     1      81.095  65.955  71.771  1.00  0.00     0.157 A 
ATOM     10  C   UNL     1      82.331  66.963  73.610  1.00  0.00     0.056 A 
ATOM     11  C   UNL     1      80.169  65.431  72.694  1.00  0.00     0.050 A 
ATOM     12  C   UNL     1      80.335  65.657  74.075  1.00  0.00     0.009 A 
BRANCH   8  13
ATOM     13  O   UNL     1      83.046  67.300  71.328  1.00  0.00    -0.493 OA
ATOM     14  C   UNL     1      82.783  68.688  71.054  1.00  0.00     0.278 C 
ENDBRANCH   8  13
BRANCH   9  15
ATOM     15  O   UNL     1      80.927  65.703  70.447  1.00  0.00    -0.504 OA
ATOM     16  H   UNL     1      81.775  65.486  70.052  1.00  0.00     0.293 HD
ENDBRANCH   9  15
ENDBRANCH   6   7
ENDBRANCH   3   6
ENDBRANCH   1   2
BRANCH   1  17
ATOM     17  C   UNL     1      84.978  63.621  77.985  1.00  0.00     0.010 C 
BRANCH  17  18
ATOM     18  C   UNL     1      85.764  63.836  79.309  1.00  0.00     0.005 C 
BRANCH  18  19
ATOM     19  C   UNL     1      84.986  63.318  80.549  1.00  0.00     0.027 C 
BRANCH  19  20
ATOM     20  C   UNL     1      85.173  64.176  81.710  1.00  0.00    -0.031 C 
ATOM     21  C   UNL     1      86.101  65.147  81.791  1.00  0.00    -0.028 C 
BRANCH  21  22
ATOM     22  C   UNL     1      86.258  66.011  82.960  1.00  0.00     0.005 C 
ATOM     23  C   UNL     1      87.103  65.340  84.079  1.00  0.00     0.012 C 
ATOM     24  C   UNL     1      86.874  67.371  82.543  1.00  0.00     0.012 C 
ENDBRANCH  21  22
ENDBRANCH  19  20
ENDBRANCH  18  19
ENDBRANCH  17  18
ENDBRANCH   1  17
TORSDOF 10
ENDMDL
MODEL 8
REMARK VINA RESULT:    -4.713     19.689     21.344
REMARK INTER + INTRA:          -9.214
REMARK INTER:                  -8.218
REMARK INTRA:                  -0.996
REMARK UNBOUND:                -1.884
REMARK SMILES COc1cc(CNC(=O)CCCC/C=C/C(C)C)ccc1O
REMARK SMILES IDX 10 1 8 2 7 3 9 5 6 6 5 7 3 8 21 9 4 10 20 11 19 12 2 13 1 14
REMARK SMILES IDX 22 15 11 17 12 18 13 19 14 20 15 21 16 22 17 23 18 24
REMARK H PARENT 7 4 22 16
REMARK Flexibility Score: inf
ROOT
ATOM      1  C   UNL     1      76.140  84.006  68.810  1.00  0.00     0.100 C 
ENDROOT
BRANCH   1   2
ATOM      2  C   UNL     1      76.898  84.641  67.716  1.00  0.00     0.220 C 
ATOM      3  N   UNL     1      77.498  85.850  67.902  1.00  0.00    -0.352 N 
ATOM      4  H   UNL     1      77.358  86.261  68.815  1.00  0.00     0.163 HD
ATOM      5  O   UNL     1      76.992  84.027  66.625  1.00  0.00    -0.275 OA
BRANCH   3   6
ATOM      6  C   UNL     1      78.279  86.533  66.920  1.00  0.00     0.151 C 
BRANCH   6   7
ATOM      7  C   UNL     1      77.608  87.777  66.456  1.00  0.00    -0.025 A 
ATOM      8  C   UNL     1      75.922  89.540  66.794  1.00  0.00     0.160 A 
ATOM      9  C   UNL     1      76.329  90.160  65.595  1.00  0.00     0.157 A 
ATOM     10  C   UNL     1      76.562  88.354  67.212  1.00  0.00     0.056 A 
ATOM     11  C   UNL     1      77.357  89.586  64.821  1.00  0.00     0.050 A 
ATOM     12  C   UNL     1      77.999  88.409  65.252  1.00  0.00     0.009 A 
BRANCH   8  13
ATOM     13  O   UNL     1      74.878  90.058  67.517  1.00  0.00    -0.493 OA
ATOM     14  C   UNL     1      75.280  90.754  68.712  1.00  0.00     0.278 C 
ENDBRANCH   8  13
BRANCH   9  15
ATOM     15  O   UNL     1      75.742  91.310  65.172  1.00  0.00    -0.504 OA
ATOM     16  H   UNL     1      74.789  91.198  65.163  1.00  0.00     0.293 HD
ENDBRANCH   9  15
ENDBRANCH   6   7
ENDBRANCH   3   6
ENDBRANCH   1   2
BRANCH   1  17
ATOM     17  C   UNL     1      74.822  84.769  69.112  1.00  0.00     0.010 C 
BRANCH  17  18
ATOM     18  C   UNL     1      74.111  85.281  67.827  1.00  0.00     0.005 C 
BRANCH  18  19
ATOM     19  C   UNL     1      73.026  86.347  68.138  1.00  0.00     0.027 C 
BRANCH  19  20
ATOM     20  C   UNL     1      71.680  85.810  68.010  1.00  0.00    -0.031 C 
ATOM     21  C   UNL     1      71.140  84.912  68.854  1.00  0.00    -0.028 C 
BRANCH  21  22
ATOM     22  C   UNL     1      69.776  84.401  68.718  1.00  0.00     0.005 C 
ATOM     23  C   UNL     1      68.710  85.440  69.165  1.00  0.00     0.012 C 
ATOM     24  C   UNL     1      69.521  83.939  67.260  1.00  0.00     0.012 C 
ENDBRANCH  21  22
ENDBRANCH  19  20
ENDBRANCH  18  19
ENDBRANCH  17  18
ENDBRANCH   1  17
TORSDOF 10
ENDMDL
MODEL 9
REMARK VINA RESULT:    -4.684     22.589     25.709
REMARK INTER + INTRA:          -9.170
REMARK INTER:                  -8.332
REMARK INTRA:                  -0.839
REMARK UNBOUND:                -1.884
REMARK SMILES COc1cc(CNC(=O)CCCC/C=C/C(C)C)ccc1O
REMARK SMILES IDX 10 1 8 2 7 3 9 5 6 6 5 7 3 8 21 9 4 10 20 11 19 12 2 13 1 14
REMARK SMILES IDX 22 15 11 17 12 18 13 19 14 20 15 21 16 22 17 23 18 24
REMARK H PARENT 7 4 22 16
REMARK Flexibility Score: inf
ROOT
ATOM      1  C   UNL     1      84.281  63.878  76.752  1.00  0.00     0.100 C 
ENDROOT
BRANCH   1   2
ATOM      2  C   UNL     1      83.072  64.715  76.622  1.00  0.00     0.220 C 
ATOM      3  N   UNL     1      83.100  65.858  75.882  1.00  0.00    -0.352 N 
ATOM      4  H   UNL     1      83.996  66.079  75.471  1.00  0.00     0.163 HD
ATOM      5  O   UNL     1      82.021  64.330  77.190  1.00  0.00    -0.275 OA
BRANCH   3   6
ATOM      6  C   UNL     1      81.980  66.718  75.668  1.00  0.00     0.151 C 
BRANCH   6   7
ATOM      7  C   UNL     1      81.406  66.540  74.307  1.00  0.00    -0.025 A 
ATOM      8  C   UNL     1      81.234  67.259  71.958  1.00  0.00     0.160 A 
ATOM      9  C   UNL     1      80.336  66.202  71.699  1.00  0.00     0.157 A 
ATOM     10  C   UNL     1      81.758  67.419  73.258  1.00  0.00     0.056 A 
ATOM     11  C   UNL     1      79.961  65.329  72.740  1.00  0.00     0.050 A 
ATOM     12  C   UNL     1      80.499  65.490  74.032  1.00  0.00     0.009 A 
BRANCH   8  13
ATOM     13  O   UNL     1      81.551  68.151  70.965  1.00  0.00    -0.493 OA
ATOM     14  C   UNL     1      82.880  68.694  71.066  1.00  0.00     0.278 C 
ENDBRANCH   8  13
BRANCH   9  15
ATOM     15  O   UNL     1      79.824  66.012  70.456  1.00  0.00    -0.504 OA
ATOM     16  H   UNL     1      79.111  66.637  70.304  1.00  0.00     0.293 HD
ENDBRANCH   9  15
ENDBRANCH   6   7
ENDBRANCH   3   6
ENDBRANCH   1   2
BRANCH   1  17
ATOM     17  C   UNL     1      84.602  63.564  78.238  1.00  0.00     0.010 C 
BRANCH  17  18
ATOM     18  C   UNL     1      85.469  64.663  78.915  1.00  0.00     0.005 C 
BRANCH  18  19
ATOM     19  C   UNL     1      86.295  65.481  77.886  1.00  0.00     0.027 C 
BRANCH  19  20
ATOM     20  C   UNL     1      86.024  66.908  77.976  1.00  0.00    -0.031 C 
ATOM     21  C   UNL     1      86.909  67.819  78.420  1.00  0.00    -0.028 C 
BRANCH  21  22
ATOM     22  C   UNL     1      86.622  69.252  78.483  1.00  0.00     0.005 C 
ATOM     23  C   UNL     1      87.898  70.097  78.752  1.00  0.00     0.012 C 
ATOM     24  C   UNL     1      85.915  69.715  77.183  1.00  0.00     0.012 C 
ENDBRANCH  21  22
ENDBRANCH  19  20
ENDBRANCH  18  19
ENDBRANCH  17  18
ENDBRANCH   1  17
TORSDOF 10
ENDMDL
MODEL 10
REMARK VINA RESULT:    -4.678      2.881      6.022
REMARK INTER + INTRA:          -9.161
REMARK INTER:                  -7.854
REMARK INTRA:                  -1.306
REMARK UNBOUND:                -1.884
REMARK SMILES COc1cc(CNC(=O)CCCC/C=C/C(C)C)ccc1O
REMARK SMILES IDX 10 1 8 2 7 3 9 5 6 6 5 7 3 8 21 9 4 10 20 11 19 12 2 13 1 14
REMARK SMILES IDX 22 15 11 17 12 18 13 19 14 20 15 21 16 22 17 23 18 24
REMARK H PARENT 7 4 22 16
REMARK Flexibility Score: inf
ROOT
ATOM      1  C   UNL     1      79.284  87.567  90.413  1.00  0.00     0.100 C 
ENDROOT
BRANCH   1   2
ATOM      2  C   UNL     1      79.733  88.963  90.574  1.00  0.00     0.220 C 
ATOM      3  N   UNL     1      79.472  89.889  89.609  1.00  0.00    -0.352 N 
ATOM      4  H   UNL     1      78.985  89.534  88.798  1.00  0.00     0.163 HD
ATOM      5  O   UNL     1      80.335  89.273  91.631  1.00  0.00    -0.275 OA
BRANCH   3   6
ATOM      6  C   UNL     1      79.833  91.269  89.684  1.00  0.00     0.151 C 
BRANCH   6   7
ATOM      7  C   UNL     1      81.064  91.554  88.898  1.00  0.00    -0.025 A 
ATOM      8  C   UNL     1      82.926  93.063  88.332  1.00  0.00     0.160 A 
ATOM      9  C   UNL     1      83.424  92.108  87.421  1.00  0.00     0.157 A 
ATOM     10  C   UNL     1      81.752  92.779  89.059  1.00  0.00     0.056 A 
ATOM     11  C   UNL     1      82.739  90.891  87.235  1.00  0.00     0.050 A 
ATOM     12  C   UNL     1      81.573  90.611  87.974  1.00  0.00     0.009 A 
BRANCH   8  13
ATOM     13  O   UNL     1      83.553  94.275  88.468  1.00  0.00    -0.493 OA
ATOM     14  C   UNL     1      82.724  95.303  89.041  1.00  0.00     0.278 C 
ENDBRANCH   8  13
BRANCH   9  15
ATOM     15  O   UNL     1      84.560  92.345  86.715  1.00  0.00    -0.504 OA
ATOM     16  H   UNL     1      84.907  93.209  86.947  1.00  0.00     0.293 HD
ENDBRANCH   9  15
ENDBRANCH   6   7
ENDBRANCH   3   6
ENDBRANCH   1   2
BRANCH   1  17
ATOM     17  C   UNL     1      79.325  87.121  88.926  1.00  0.00     0.010 C 
BRANCH  17  18
ATOM     18  C   UNL     1      80.769  87.048  88.355  1.00  0.00     0.005 C 
BRANCH  18  19
ATOM     19  C   UNL     1      80.884  86.058  87.164  1.00  0.00     0.027 C 
BRANCH  19  20
ATOM     20  C   UNL     1      80.667  86.716  85.884  1.00  0.00    -0.031 C 
ATOM     21  C   UNL     1      80.211  87.974  85.748  1.00  0.00    -0.028 C 
BRANCH  21  22
ATOM     22  C   UNL     1      80.020  88.622  84.451  1.00  0.00     0.005 C 
ATOM     23  C   UNL     1      80.994  89.814  84.238  1.00  0.00     0.012 C 
ATOM     24  C   UNL     1      80.157  87.584  83.308  1.00  0.00     0.012 C 
ENDBRANCH  21  22
ENDBRANCH  19  20
ENDBRANCH  18  19
ENDBRANCH  17  18
ENDBRANCH   1  17
TORSDOF 10
ENDMDL
