MODEL 1
REMARK VINA RESULT:    -7.404      0.000      0.000
REMARK INTER + INTRA:          -9.033
REMARK INTER:                  -8.703
REMARK INTRA:                  -0.331
REMARK UNBOUND:                -0.331
REMARK SMILES O=C(/C=C/C=C/c1ccc2c(c1)OCO2)N1CCCCC1
REMARK SMILES IDX 3 1 4 2 2 3 1 4 16 5 17 6 21 7 18 8 20 9 19 10 5 11 6 12
REMARK SMILES IDX 7 13 12 14 8 15 11 16 9 17 13 18 10 19 14 20 15 21
REMARK H PARENT
REMARK Flexibility Score: inf
ROOT
ATOM      1  C   UNL     1      95.991  82.176  82.856  1.00  0.00     0.071 C 
ATOM      2  C   UNL     1      96.863  81.866  81.898  1.00  0.00     0.006 C 
ENDROOT
BRANCH   1   3
ATOM      3  C   UNL     1      96.283  81.730  84.232  1.00  0.00     0.246 C 
ATOM      4  O   UNL     1      97.460  81.740  84.595  1.00  0.00    -0.270 OA
ATOM      5  N   UNL     1      95.211  81.325  85.026  1.00  0.00    -0.339 N 
ATOM      6  C   UNL     1      95.471  80.872  86.395  1.00  0.00     0.120 C 
ATOM      7  C   UNL     1      93.802  81.258  84.613  1.00  0.00     0.120 C 
ATOM      8  C   UNL     1      94.606  81.620  87.404  1.00  0.00     0.022 C 
ATOM      9  C   UNL     1      92.900  81.995  85.603  1.00  0.00     0.022 C 
ATOM     10  C   UNL     1      93.129  81.523  87.035  1.00  0.00     0.004 C 
ENDBRANCH   1   3
BRANCH   2  11
ATOM     11  C   UNL     1      96.663  82.259  80.519  1.00  0.00     0.001 C 
ATOM     12  C   UNL     1      97.333  81.698  79.500  1.00  0.00     0.008 C 
BRANCH  12  13
ATOM     13  C   UNL     1      97.175  82.064  78.082  1.00  0.00    -0.022 A 
ATOM     14  C   UNL     1      98.210  81.798  77.196  1.00  0.00     0.058 A 
ATOM     15  C   UNL     1      95.987  82.671  77.667  1.00  0.00     0.012 A 
ATOM     16  C   UNL     1      98.015  82.159  75.879  1.00  0.00     0.166 A 
ATOM     17  C   UNL     1      95.816  83.026  76.328  1.00  0.00     0.051 A 
ATOM     18  O   UNL     1      98.905  81.984  74.863  1.00  0.00    -0.454 OA
ATOM     19  C   UNL     1      96.850  82.756  75.456  1.00  0.00     0.165 A 
ATOM     20  C   UNL     1      98.169  82.539  73.754  1.00  0.00     0.468 C 
ATOM     21  O   UNL     1      96.864  83.031  74.123  1.00  0.00    -0.454 OA
ENDBRANCH  12  13
ENDBRANCH   2  11
TORSDOF 3
ENDMDL
MODEL 2
REMARK VINA RESULT:    -7.211      2.946      9.132
REMARK INTER + INTRA:          -8.806
REMARK INTER:                  -8.421
REMARK INTRA:                  -0.385
REMARK UNBOUND:                -0.331
REMARK SMILES O=C(/C=C/C=C/c1ccc2c(c1)OCO2)N1CCCCC1
REMARK SMILES IDX 3 1 4 2 2 3 1 4 16 5 17 6 21 7 18 8 20 9 19 10 5 11 6 12
REMARK SMILES IDX 7 13 12 14 8 15 11 16 9 17 13 18 10 19 14 20 15 21
REMARK H PARENT
REMARK Flexibility Score: inf
ROOT
ATOM      1  C   UNL     1      97.638  80.858  78.546  1.00  0.00     0.071 C 
ATOM      2  C   UNL     1      98.311  80.914  79.694  1.00  0.00     0.006 C 
ENDROOT
BRANCH   1   3
ATOM      3  C   UNL     1      98.406  80.664  77.300  1.00  0.00     0.246 C 
ATOM      4  O   UNL     1      99.217  79.738  77.269  1.00  0.00    -0.270 OA
ATOM      5  N   UNL     1      98.167  81.544  76.245  1.00  0.00    -0.339 N 
ATOM      6  C   UNL     1      98.918  81.380  74.997  1.00  0.00     0.120 C 
ATOM      7  C   UNL     1      97.242  82.688  76.260  1.00  0.00     0.120 C 
ATOM      8  C   UNL     1      97.987  81.301  73.792  1.00  0.00     0.022 C 
ATOM      9  C   UNL     1      96.292  82.646  75.063  1.00  0.00     0.022 C 
ATOM     10  C   UNL     1      97.050  82.504  73.746  1.00  0.00     0.004 C 
ENDBRANCH   1   3
BRANCH   2  11
ATOM     11  C   UNL     1      97.646  81.102  80.966  1.00  0.00     0.001 C 
ATOM     12  C   UNL     1      96.927  82.198  81.255  1.00  0.00     0.008 C 
BRANCH  12  13
ATOM     13  C   UNL     1      96.238  82.443  82.534  1.00  0.00    -0.022 A 
ATOM     14  C   UNL     1      96.127  83.745  83.002  1.00  0.00     0.058 A 
ATOM     15  C   UNL     1      95.716  81.357  83.241  1.00  0.00     0.012 A 
ATOM     16  C   UNL     1      95.473  83.924  84.204  1.00  0.00     0.166 A 
ATOM     17  C   UNL     1      95.060  81.568  84.456  1.00  0.00     0.051 A 
ATOM     18  O   UNL     1      95.263  85.116  84.828  1.00  0.00    -0.454 OA
ATOM     19  C   UNL     1      94.954  82.865  84.912  1.00  0.00     0.165 A 
ATOM     20  C   UNL     1      94.553  84.687  86.008  1.00  0.00     0.468 C 
ATOM     21  O   UNL     1      94.353  83.260  86.067  1.00  0.00    -0.454 OA
ENDBRANCH  12  13
ENDBRANCH   2  11
TORSDOF 3
ENDMDL
MODEL 3
REMARK VINA RESULT:    -7.162      2.861      9.538
REMARK INTER + INTRA:          -8.749
REMARK INTER:                  -8.487
REMARK INTRA:                  -0.262
REMARK UNBOUND:                -0.331
REMARK SMILES O=C(/C=C/C=C/c1ccc2c(c1)OCO2)N1CCCCC1
REMARK SMILES IDX 3 1 4 2 2 3 1 4 16 5 17 6 21 7 18 8 20 9 19 10 5 11 6 12
REMARK SMILES IDX 7 13 12 14 8 15 11 16 9 17 13 18 10 19 14 20 15 21
REMARK H PARENT
REMARK Flexibility Score: inf
ROOT
ATOM      1  C   UNL     1      96.311  81.965  77.191  1.00  0.00     0.071 C 
ATOM      2  C   UNL     1      97.154  82.206  78.193  1.00  0.00     0.006 C 
ENDROOT
BRANCH   1   3
ATOM      3  C   UNL     1      96.452  82.764  75.958  1.00  0.00     0.246 C 
ATOM      4  O   UNL     1      95.673  83.704  75.796  1.00  0.00    -0.270 OA
ATOM      5  N   UNL     1      97.452  82.399  75.058  1.00  0.00    -0.339 N 
ATOM      6  C   UNL     1      97.613  83.170  73.821  1.00  0.00     0.120 C 
ATOM      7  C   UNL     1      98.370  81.259  75.194  1.00  0.00     0.120 C 
ATOM      8  C   UNL     1      99.051  83.646  73.644  1.00  0.00     0.022 C 
ATOM      9  C   UNL     1      99.824  81.695  75.019  1.00  0.00     0.022 C 
ATOM     10  C   UNL     1     100.027  82.477  73.724  1.00  0.00     0.004 C 
ENDBRANCH   1   3
BRANCH   2  11
ATOM     11  C   UNL     1      97.095  81.475  79.441  1.00  0.00     0.001 C 
ATOM     12  C   UNL     1      96.686  82.034  80.592  1.00  0.00     0.008 C 
BRANCH  12  13
ATOM     13  C   UNL     1      96.614  81.341  81.889  1.00  0.00    -0.022 A 
ATOM     14  C   UNL     1      96.523  82.092  83.053  1.00  0.00     0.058 A 
ATOM     15  C   UNL     1      96.639  79.944  81.913  1.00  0.00     0.012 A 
ATOM     16  C   UNL     1      96.457  81.397  84.243  1.00  0.00     0.166 A 
ATOM     17  C   UNL     1      96.572  79.266  83.132  1.00  0.00     0.051 A 
ATOM     18  O   UNL     1      96.366  81.948  85.485  1.00  0.00    -0.454 OA
ATOM     19  C   UNL     1      96.481  80.022  84.282  1.00  0.00     0.165 A 
ATOM     20  C   UNL     1      96.335  80.765  86.309  1.00  0.00     0.468 C 
ATOM     21  O   UNL     1      96.408  79.539  85.552  1.00  0.00    -0.454 OA
ENDBRANCH  12  13
ENDBRANCH   2  11
TORSDOF 3
ENDMDL
MODEL 4
REMARK VINA RESULT:    -6.930     16.153     19.383
REMARK INTER + INTRA:          -8.476
REMARK INTER:                  -8.106
REMARK INTRA:                  -0.370
REMARK UNBOUND:                -0.331
REMARK SMILES O=C(/C=C/C=C/c1ccc2c(c1)OCO2)N1CCCCC1
REMARK SMILES IDX 3 1 4 2 2 3 1 4 16 5 17 6 21 7 18 8 20 9 19 10 5 11 6 12
REMARK SMILES IDX 7 13 12 14 8 15 11 16 9 17 13 18 10 19 14 20 15 21
REMARK H PARENT
REMARK Flexibility Score: inf
ROOT
ATOM      1  C   UNL     1      92.617  99.317  72.242  1.00  0.00     0.071 C 
ATOM      2  C   UNL     1      93.865  99.080  72.642  1.00  0.00     0.006 C 
ENDROOT
BRANCH   1   3
ATOM      3  C   UNL     1      92.421 100.043  70.972  1.00  0.00     0.246 C 
ATOM      4  O   UNL     1      93.341 100.763  70.580  1.00  0.00    -0.270 OA
ATOM      5  N   UNL     1      91.209  99.871  70.305  1.00  0.00    -0.339 N 
ATOM      6  C   UNL     1      90.983 100.583  69.044  1.00  0.00     0.120 C 
ATOM      7  C   UNL     1      90.073  99.058  70.765  1.00  0.00     0.120 C 
ATOM      8  C   UNL     1      90.554  99.629  67.935  1.00  0.00     0.022 C 
ATOM      9  C   UNL     1      89.611  98.089  69.676  1.00  0.00     0.022 C 
ATOM     10  C   UNL     1      89.340  98.809  68.358  1.00  0.00     0.004 C 
ENDBRANCH   1   3
BRANCH   2  11
ATOM     11  C   UNL     1      94.158  98.376  73.872  1.00  0.00     0.001 C 
ATOM     12  C   UNL     1      93.537  97.239  74.225  1.00  0.00     0.008 C 
BRANCH  12  13
ATOM     13  C   UNL     1      93.790  96.488  75.466  1.00  0.00    -0.022 A 
ATOM     14  C   UNL     1      95.101  96.275  75.871  1.00  0.00     0.058 A 
ATOM     15  C   UNL     1      92.703  96.011  76.203  1.00  0.00     0.012 A 
ATOM     16  C   UNL     1      95.287  95.567  77.041  1.00  0.00     0.166 A 
ATOM     17  C   UNL     1      92.921  95.297  77.383  1.00  0.00     0.051 A 
ATOM     18  O   UNL     1      96.488  95.254  77.602  1.00  0.00    -0.454 OA
ATOM     19  C   UNL     1      94.227  95.090  77.777  1.00  0.00     0.165 A 
ATOM     20  C   UNL     1      96.063  94.528  78.773  1.00  0.00     0.468 C 
ATOM     21  O   UNL     1      94.629  94.420  78.891  1.00  0.00    -0.454 OA
ENDBRANCH  12  13
ENDBRANCH   2  11
TORSDOF 3
ENDMDL
MODEL 5
REMARK VINA RESULT:    -6.824      2.225      2.490
REMARK INTER + INTRA:          -8.352
REMARK INTER:                  -7.930
REMARK INTRA:                  -0.421
REMARK UNBOUND:                -0.331
REMARK SMILES O=C(/C=C/C=C/c1ccc2c(c1)OCO2)N1CCCCC1
REMARK SMILES IDX 3 1 4 2 2 3 1 4 16 5 17 6 21 7 18 8 20 9 19 10 5 11 6 12
REMARK SMILES IDX 7 13 12 14 8 15 11 16 9 17 13 18 10 19 14 20 15 21
REMARK H PARENT
REMARK Flexibility Score: inf
ROOT
ATOM      1  C   UNL     1      97.624  80.849  82.139  1.00  0.00     0.071 C 
ATOM      2  C   UNL     1      96.875  81.897  81.802  1.00  0.00     0.006 C 
ENDROOT
BRANCH   1   3
ATOM      3  C   UNL     1      97.745  80.513  83.572  1.00  0.00     0.246 C 
ATOM      4  O   UNL     1      98.145  81.396  84.332  1.00  0.00    -0.270 OA
ATOM      5  N   UNL     1      97.403  79.221  83.967  1.00  0.00    -0.339 N 
ATOM      6  C   UNL     1      97.518  78.856  85.383  1.00  0.00     0.120 C 
ATOM      7  C   UNL     1      96.966  78.129  83.085  1.00  0.00     0.120 C 
ATOM      8  C   UNL     1      96.218  78.260  85.911  1.00  0.00     0.022 C 
ATOM      9  C   UNL     1      95.665  77.501  83.584  1.00  0.00     0.022 C 
ATOM     10  C   UNL     1      95.765  77.086  85.049  1.00  0.00     0.004 C 
ENDBRANCH   1   3
BRANCH   2  11
ATOM     11  C   UNL     1      96.696  82.305  80.425  1.00  0.00     0.001 C 
ATOM     12  C   UNL     1      97.310  81.691  79.400  1.00  0.00     0.008 C 
BRANCH  12  13
ATOM     13  C   UNL     1      97.171  82.069  77.984  1.00  0.00    -0.022 A 
ATOM     14  C   UNL     1      98.216  81.806  77.109  1.00  0.00     0.058 A 
ATOM     15  C   UNL     1      95.989  82.682  77.559  1.00  0.00     0.012 A 
ATOM     16  C   UNL     1      98.038  82.178  75.792  1.00  0.00     0.166 A 
ATOM     17  C   UNL     1      95.836  83.048  76.220  1.00  0.00     0.051 A 
ATOM     18  O   UNL     1      98.940  82.009  74.786  1.00  0.00    -0.454 OA
ATOM     19  C   UNL     1      96.880  82.782  75.359  1.00  0.00     0.165 A 
ATOM     20  C   UNL     1      98.219  82.574  73.672  1.00  0.00     0.468 C 
ATOM     21  O   UNL     1      96.911  83.067  74.029  1.00  0.00    -0.454 OA
ENDBRANCH  12  13
ENDBRANCH   2  11
TORSDOF 3
ENDMDL
MODEL 6
REMARK VINA RESULT:    -6.811     14.109     17.728
REMARK INTER + INTRA:          -8.337
REMARK INTER:                  -8.037
REMARK INTRA:                  -0.300
REMARK UNBOUND:                -0.331
REMARK SMILES O=C(/C=C/C=C/c1ccc2c(c1)OCO2)N1CCCCC1
REMARK SMILES IDX 3 1 4 2 2 3 1 4 16 5 17 6 21 7 18 8 20 9 19 10 5 11 6 12
REMARK SMILES IDX 7 13 12 14 8 15 11 16 9 17 13 18 10 19 14 20 15 21
REMARK H PARENT
REMARK Flexibility Score: inf
ROOT
ATOM      1  C   UNL     1      95.828  96.915  73.059  1.00  0.00     0.071 C 
ATOM      2  C   UNL     1      94.906  96.787  74.011  1.00  0.00     0.006 C 
ENDROOT
BRANCH   1   3
ATOM      3  C   UNL     1      95.572  97.877  71.968  1.00  0.00     0.246 C 
ATOM      4  O   UNL     1      94.826  98.826  72.210  1.00  0.00    -0.270 OA
ATOM      5  N   UNL     1      96.186  97.643  70.739  1.00  0.00    -0.339 N 
ATOM      6  C   UNL     1      95.946  98.577  69.635  1.00  0.00     0.120 C 
ATOM      7  C   UNL     1      97.045  96.498  70.400  1.00  0.00     0.120 C 
ATOM      8  C   UNL     1      97.255  99.079  69.035  1.00  0.00     0.022 C 
ATOM      9  C   UNL     1      98.368  96.961  69.791  1.00  0.00     0.022 C 
ATOM     10  C   UNL     1      98.148  97.914  68.619  1.00  0.00     0.004 C 
ENDBRANCH   1   3
BRANCH   2  11
ATOM     11  C   UNL     1      95.067  95.871  75.120  1.00  0.00     0.001 C 
ATOM     12  C   UNL     1      94.262  95.884  76.195  1.00  0.00     0.008 C 
BRANCH  12  13
ATOM     13  C   UNL     1      94.386  94.982  77.353  1.00  0.00    -0.022 A 
ATOM     14  C   UNL     1      95.461  95.135  78.217  1.00  0.00     0.058 A 
ATOM     15  C   UNL     1      93.416  93.995  77.550  1.00  0.00     0.012 A 
ATOM     16  C   UNL     1      95.534  94.267  79.287  1.00  0.00     0.166 A 
ATOM     17  C   UNL     1      93.514  93.130  78.641  1.00  0.00     0.051 A 
ATOM     18  O   UNL     1      96.506  94.254  80.240  1.00  0.00    -0.454 OA
ATOM     19  C   UNL     1      94.586  93.291  79.494  1.00  0.00     0.165 A 
ATOM     20  C   UNL     1      96.063  93.161  81.069  1.00  0.00     0.468 C 
ATOM     21  O   UNL     1      94.845  92.545  80.602  1.00  0.00    -0.454 OA
ENDBRANCH  12  13
ENDBRANCH   2  11
TORSDOF 3
ENDMDL
MODEL 7
REMARK VINA RESULT:    -6.646     24.290     26.376
REMARK INTER + INTRA:          -8.142
REMARK INTER:                  -7.723
REMARK INTRA:                  -0.420
REMARK UNBOUND:                -0.331
REMARK SMILES O=C(/C=C/C=C/c1ccc2c(c1)OCO2)N1CCCCC1
REMARK SMILES IDX 3 1 4 2 2 3 1 4 16 5 17 6 21 7 18 8 20 9 19 10 5 11 6 12
REMARK SMILES IDX 7 13 12 14 8 15 11 16 9 17 13 18 10 19 14 20 15 21
REMARK H PARENT
REMARK Flexibility Score: inf
ROOT
ATOM      1  C   UNL     1      76.621  85.750  66.421  1.00  0.00     0.071 C 
ATOM      2  C   UNL     1      76.704  86.069  67.711  1.00  0.00     0.006 C 
ENDROOT
BRANCH   1   3
ATOM      3  C   UNL     1      76.838  84.341  66.038  1.00  0.00     0.246 C 
ATOM      4  O   UNL     1      77.934  83.843  66.298  1.00  0.00    -0.270 OA
ATOM      5  N   UNL     1      75.793  83.671  65.405  1.00  0.00    -0.339 N 
ATOM      6  C   UNL     1      75.980  82.272  65.008  1.00  0.00     0.120 C 
ATOM      7  C   UNL     1      74.489  84.244  65.038  1.00  0.00     0.120 C 
ATOM      8  C   UNL     1      74.862  81.386  65.545  1.00  0.00     0.022 C 
ATOM      9  C   UNL     1      73.339  83.380  65.557  1.00  0.00     0.022 C 
ATOM     10  C   UNL     1      73.494  81.922  65.134  1.00  0.00     0.004 C 
ENDBRANCH   1   3
BRANCH   2  11
ATOM     11  C   UNL     1      76.507  87.423  68.183  1.00  0.00     0.001 C 
ATOM     12  C   UNL     1      75.782  88.330  67.508  1.00  0.00     0.008 C 
BRANCH  12  13
ATOM     13  C   UNL     1      75.557  89.720  67.937  1.00  0.00    -0.022 A 
ATOM     14  C   UNL     1      75.671  90.742  67.005  1.00  0.00     0.058 A 
ATOM     15  C   UNL     1      75.234  89.973  69.273  1.00  0.00     0.012 A 
ATOM     16  C   UNL     1      75.451  92.028  67.455  1.00  0.00     0.166 A 
ATOM     17  C   UNL     1      75.016  91.284  69.702  1.00  0.00     0.051 A 
ATOM     18  O   UNL     1      75.516  93.160  66.701  1.00  0.00    -0.454 OA
ATOM     19  C   UNL     1      75.132  92.292  68.767  1.00  0.00     0.165 A 
ATOM     20  C   UNL     1      75.203  94.165  67.686  1.00  0.00     0.468 C 
ATOM     21  O   UNL     1      74.958  93.621  69.000  1.00  0.00    -0.454 OA
ENDBRANCH  12  13
ENDBRANCH   2  11
TORSDOF 3
ENDMDL
MODEL 8
REMARK VINA RESULT:    -6.560      1.633      2.384
REMARK INTER + INTRA:          -8.041
REMARK INTER:                  -7.764
REMARK INTRA:                  -0.277
REMARK UNBOUND:                -0.331
REMARK SMILES O=C(/C=C/C=C/c1ccc2c(c1)OCO2)N1CCCCC1
REMARK SMILES IDX 3 1 4 2 2 3 1 4 16 5 17 6 21 7 18 8 20 9 19 10 5 11 6 12
REMARK SMILES IDX 7 13 12 14 8 15 11 16 9 17 13 18 10 19 14 20 15 21
REMARK H PARENT
REMARK Flexibility Score: inf
ROOT
ATOM      1  C   UNL     1      97.160  82.280  81.696  1.00  0.00     0.071 C 
ATOM      2  C   UNL     1      96.476  81.964  80.598  1.00  0.00     0.006 C 
ENDROOT
BRANCH   1   3
ATOM      3  C   UNL     1      96.472  82.175  82.998  1.00  0.00     0.246 C 
ATOM      4  O   UNL     1      95.977  83.201  83.465  1.00  0.00    -0.270 OA
ATOM      5  N   UNL     1      96.432  80.924  83.612  1.00  0.00    -0.339 N 
ATOM      6  C   UNL     1      95.760  80.789  84.908  1.00  0.00     0.120 C 
ATOM      7  C   UNL     1      97.048  79.688  83.107  1.00  0.00     0.120 C 
ATOM      8  C   UNL     1      94.722  79.672  84.884  1.00  0.00     0.022 C 
ATOM      9  C   UNL     1      96.038  78.541  83.072  1.00  0.00     0.022 C 
ATOM     10  C   UNL     1      95.343  78.359  84.418  1.00  0.00     0.004 C 
ENDBRANCH   1   3
BRANCH   2  11
ATOM     11  C   UNL     1      97.064  82.036  79.277  1.00  0.00     0.001 C 
ATOM     12  C   UNL     1      96.383  82.460  78.201  1.00  0.00     0.008 C 
BRANCH  12  13
ATOM     13  C   UNL     1      96.929  82.546  76.836  1.00  0.00    -0.022 A 
ATOM     14  C   UNL     1      98.158  81.960  76.562  1.00  0.00     0.058 A 
ATOM     15  C   UNL     1      96.195  83.215  75.853  1.00  0.00     0.012 A 
ATOM     16  C   UNL     1      98.628  82.067  75.269  1.00  0.00     0.166 A 
ATOM     17  C   UNL     1      96.695  83.307  74.552  1.00  0.00     0.051 A 
ATOM     18  O   UNL     1      99.804  81.564  74.803  1.00  0.00    -0.454 OA
ATOM     19  C   UNL     1      97.916  82.722  74.290  1.00  0.00     0.165 A 
ATOM     20  C   UNL     1      99.752  81.976  73.422  1.00  0.00     0.468 C 
ATOM     21  O   UNL     1      98.557  82.712  73.090  1.00  0.00    -0.454 OA
ENDBRANCH  12  13
ENDBRANCH   2  11
TORSDOF 3
ENDMDL
MODEL 9
REMARK VINA RESULT:    -6.318     19.430     22.331
REMARK INTER + INTRA:          -7.756
REMARK INTER:                  -7.363
REMARK INTRA:                  -0.394
REMARK UNBOUND:                -0.331
REMARK SMILES O=C(/C=C/C=C/c1ccc2c(c1)OCO2)N1CCCCC1
REMARK SMILES IDX 3 1 4 2 2 3 1 4 16 5 17 6 21 7 18 8 20 9 19 10 5 11 6 12
REMARK SMILES IDX 7 13 12 14 8 15 11 16 9 17 13 18 10 19 14 20 15 21
REMARK H PARENT
REMARK Flexibility Score: inf
ROOT
ATOM      1  C   UNL     1      92.781  99.853  71.456  1.00  0.00     0.071 C 
ATOM      2  C   UNL     1      91.583  99.286  71.334  1.00  0.00     0.006 C 
ENDROOT
BRANCH   1   3
ATOM      3  C   UNL     1      93.790  99.173  72.292  1.00  0.00     0.246 C 
ATOM      4  O   UNL     1      93.602  99.156  73.509  1.00  0.00    -0.270 OA
ATOM      5  N   UNL     1      94.888  98.601  71.651  1.00  0.00    -0.339 N 
ATOM      6  C   UNL     1      95.908  97.923  72.456  1.00  0.00     0.120 C 
ATOM      7  C   UNL     1      95.168  98.640  70.208  1.00  0.00     0.120 C 
ATOM      8  C   UNL     1      96.172  96.510  71.947  1.00  0.00     0.022 C 
ATOM      9  C   UNL     1      95.442  97.240  69.659  1.00  0.00     0.022 C 
ATOM     10  C   UNL     1      96.522  96.521  70.462  1.00  0.00     0.004 C 
ENDBRANCH   1   3
BRANCH   2  11
ATOM     11  C   UNL     1      90.530  99.877  70.536  1.00  0.00     0.001 C 
ATOM     12  C   UNL     1      90.505  99.804  69.195  1.00  0.00     0.008 C 
BRANCH  12  13
ATOM     13  C   UNL     1      89.464 100.394  68.336  1.00  0.00    -0.022 A 
ATOM     14  C   UNL     1      89.495 101.757  68.076  1.00  0.00     0.058 A 
ATOM     15  C   UNL     1      88.473  99.563  67.806  1.00  0.00     0.012 A 
ATOM     16  C   UNL     1      88.499 102.262  67.265  1.00  0.00     0.166 A 
ATOM     17  C   UNL     1      87.477 100.102  66.989  1.00  0.00     0.051 A 
ATOM     18  O   UNL     1      88.355 103.564  66.895  1.00  0.00    -0.454 OA
ATOM     19  C   UNL     1      87.517 101.457  66.736  1.00  0.00     0.165 A 
ATOM     20  C   UNL     1      87.172 103.488  66.074  1.00  0.00     0.468 C 
ATOM     21  O   UNL     1      86.635 102.153  65.969  1.00  0.00    -0.454 OA
ENDBRANCH  12  13
ENDBRANCH   2  11
TORSDOF 3
ENDMDL
MODEL 10
REMARK VINA RESULT:    -6.290      8.532     10.147
REMARK INTER + INTRA:          -7.723
REMARK INTER:                  -7.357
REMARK INTRA:                  -0.366
REMARK UNBOUND:                -0.331
REMARK SMILES O=C(/C=C/C=C/c1ccc2c(c1)OCO2)N1CCCCC1
REMARK SMILES IDX 3 1 4 2 2 3 1 4 16 5 17 6 21 7 18 8 20 9 19 10 5 11 6 12
REMARK SMILES IDX 7 13 12 14 8 15 11 16 9 17 13 18 10 19 14 20 15 21
REMARK H PARENT
REMARK Flexibility Score: inf
ROOT
ATOM      1  C   UNL     1      94.319  85.206  88.083  1.00  0.00     0.071 C 
ATOM      2  C   UNL     1      94.145  84.717  86.857  1.00  0.00     0.006 C 
ENDROOT
BRANCH   1   3
ATOM      3  C   UNL     1      95.586  85.906  88.378  1.00  0.00     0.246 C 
ATOM      4  O   UNL     1      96.621  85.432  87.908  1.00  0.00    -0.270 OA
ATOM      5  N   UNL     1      95.526  87.051  89.170  1.00  0.00    -0.339 N 
ATOM      6  C   UNL     1      96.767  87.765  89.485  1.00  0.00     0.120 C 
ATOM      7  C   UNL     1      94.317  87.621  89.784  1.00  0.00     0.120 C 
ATOM      8  C   UNL     1      96.663  89.245  89.134  1.00  0.00     0.022 C 
ATOM      9  C   UNL     1      94.179  89.108  89.458  1.00  0.00     0.022 C 
ATOM     10  C   UNL     1      95.449  89.881  89.803  1.00  0.00     0.004 C 
ENDBRANCH   1   3
BRANCH   2  11
ATOM     11  C   UNL     1      92.938  84.016  86.473  1.00  0.00     0.001 C 
ATOM     12  C   UNL     1      92.436  82.992  87.182  1.00  0.00     0.008 C 
BRANCH  12  13
ATOM     13  C   UNL     1      91.219  82.240  86.833  1.00  0.00    -0.022 A 
ATOM     14  C   UNL     1      91.040  81.814  85.524  1.00  0.00     0.058 A 
ATOM     15  C   UNL     1      90.277  81.975  87.830  1.00  0.00     0.012 A 
ATOM     16  C   UNL     1      89.885  81.112  85.246  1.00  0.00     0.166 A 
ATOM     17  C   UNL     1      89.116  81.263  87.521  1.00  0.00     0.051 A 
ATOM     18  O   UNL     1      89.527  80.614  84.031  1.00  0.00    -0.454 OA
ATOM     19  C   UNL     1      88.948  80.844  86.218  1.00  0.00     0.165 A 
ATOM     20  C   UNL     1      88.260  80.001  84.347  1.00  0.00     0.468 C 
ATOM     21  O   UNL     1      87.887  80.144  85.733  1.00  0.00    -0.454 OA
ENDBRANCH  12  13
ENDBRANCH   2  11
TORSDOF 3
ENDMDL
