MODEL 1
REMARK VINA RESULT:    -6.292      0.000      0.000
REMARK INTER + INTRA:         -10.634
REMARK INTER:                 -10.154
REMARK INTRA:                  -0.480
REMARK UNBOUND:                -0.480
REMARK SMILES CCCCCCCCC(=O)NCc1ccc(O)c(OC)c1
REMARK SMILES IDX 7 1 6 2 5 3 4 4 3 5 2 6 1 7 8 8 9 9 10 10 11 11 12 13 13 14
REMARK SMILES IDX 21 15 14 16 18 17 15 18 16 19 19 20 20 21 17 22
REMARK H PARENT 11 12 17 23
REMARK Flexibility Score: inf
ROOT
ATOM      1  C   UNL     1      91.567  75.381  80.263  1.00  0.00     0.010 C 
ENDROOT
BRANCH   1   2
ATOM      2  C   UNL     1      90.838  74.306  79.406  1.00  0.00     0.001 C 
BRANCH   2   3
ATOM      3  C   UNL     1      90.081  74.931  78.197  1.00  0.00     0.000 C 
BRANCH   3   4
ATOM      4  C   UNL     1      90.905  76.000  77.426  1.00  0.00    -0.000 C 
BRANCH   4   5
ATOM      5  C   UNL     1      90.262  76.384  76.062  1.00  0.00    -0.000 C 
BRANCH   5   6
ATOM      6  C   UNL     1      90.425  77.892  75.731  1.00  0.00    -0.003 C 
ATOM      7  C   UNL     1      91.711  78.503  76.329  1.00  0.00     0.004 C 
ENDBRANCH   5   6
ENDBRANCH   4   5
ENDBRANCH   3   4
ENDBRANCH   2   3
ENDBRANCH   1   2
BRANCH   1   8
ATOM      8  C   UNL     1      91.864  74.930  81.720  1.00  0.00     0.100 C 
BRANCH   8   9
ATOM      9  C   UNL     1      90.862  75.474  82.668  1.00  0.00     0.220 C 
ATOM     10  O   UNL     1      89.810  74.819  82.863  1.00  0.00    -0.275 OA
ATOM     11  N   UNL     1      91.098  76.644  83.331  1.00  0.00    -0.352 N 
ATOM     12  H   UNL     1      91.932  77.131  83.035  1.00  0.00     0.163 HD
BRANCH  11  13
ATOM     13  C   UNL     1      90.281  77.197  84.368  1.00  0.00     0.151 C 
BRANCH  13  14
ATOM     14  C   UNL     1      90.099  78.670  84.269  1.00  0.00    -0.025 A 
ATOM     15  C   UNL     1      88.801  79.231  84.312  1.00  0.00     0.056 A 
ATOM     16  C   UNL     1      91.211  79.531  84.128  1.00  0.00     0.009 A 
ATOM     17  C   UNL     1      88.613  80.631  84.236  1.00  0.00     0.160 A 
ATOM     18  C   UNL     1      91.032  80.924  84.054  1.00  0.00     0.050 A 
ATOM     19  C   UNL     1      89.737  81.477  84.100  1.00  0.00     0.157 A 
BRANCH  17  20
ATOM     20  O   UNL     1      87.352  81.170  84.236  1.00  0.00    -0.493 OA
ATOM     21  C   UNL     1      86.799  81.373  82.923  1.00  0.00     0.278 C 
ENDBRANCH  17  20
BRANCH  19  22
ATOM     22  O   UNL     1      89.572  82.820  84.000  1.00  0.00    -0.504 OA
ATOM     23  H   UNL     1      88.935  83.114  84.655  1.00  0.00     0.293 HD
ENDBRANCH  19  22
ENDBRANCH  13  14
ENDBRANCH  11  13
ENDBRANCH   8   9
ENDBRANCH   1   8
TORSDOF 11
ENDMDL
MODEL 2
REMARK VINA RESULT:    -6.260      5.439      7.264
REMARK INTER + INTRA:         -10.583
REMARK INTER:                 -10.041
REMARK INTRA:                  -0.541
REMARK UNBOUND:                -0.480
REMARK SMILES CCCCCCCCC(=O)NCc1ccc(O)c(OC)c1
REMARK SMILES IDX 7 1 6 2 5 3 4 4 3 5 2 6 1 7 8 8 9 9 10 10 11 11 12 13 13 14
REMARK SMILES IDX 21 15 14 16 18 17 15 18 16 19 19 20 20 21 17 22
REMARK H PARENT 11 12 17 23
REMARK Flexibility Score: inf
ROOT
ATOM      1  C   UNL     1      96.918  82.164  81.542  1.00  0.00     0.010 C 
ENDROOT
BRANCH   1   2
ATOM      2  C   UNL     1      98.350  82.350  80.964  1.00  0.00     0.001 C 
BRANCH   2   3
ATOM      3  C   UNL     1      98.330  82.797  79.473  1.00  0.00     0.000 C 
BRANCH   3   4
ATOM      4  C   UNL     1      96.974  83.407  79.019  1.00  0.00    -0.000 C 
BRANCH   4   5
ATOM      5  C   UNL     1      96.692  83.184  77.506  1.00  0.00    -0.000 C 
BRANCH   5   6
ATOM      6  C   UNL     1      96.415  84.512  76.750  1.00  0.00    -0.003 C 
ATOM      7  C   UNL     1      97.141  84.589  75.388  1.00  0.00     0.004 C 
ENDBRANCH   5   6
ENDBRANCH   4   5
ENDBRANCH   3   4
ENDBRANCH   2   3
ENDBRANCH   1   2
BRANCH   1   8
ATOM      8  C   UNL     1      96.453  83.328  82.460  1.00  0.00     0.100 C 
BRANCH   8   9
ATOM      9  C   UNL     1      95.702  82.823  83.635  1.00  0.00     0.220 C 
ATOM     10  O   UNL     1      96.273  82.011  84.402  1.00  0.00    -0.275 OA
ATOM     11  N   UNL     1      94.432  83.258  83.886  1.00  0.00    -0.352 N 
ATOM     12  H   UNL     1      94.039  83.840  83.162  1.00  0.00     0.163 HD
BRANCH  11  13
ATOM     13  C   UNL     1      93.662  82.956  85.054  1.00  0.00     0.151 C 
BRANCH  13  14
ATOM     14  C   UNL     1      92.702  81.835  84.868  1.00  0.00    -0.025 A 
ATOM     15  C   UNL     1      91.347  82.102  84.558  1.00  0.00     0.056 A 
ATOM     16  C   UNL     1      93.120  80.491  84.999  1.00  0.00     0.009 A 
ATOM     17  C   UNL     1      90.427  81.047  84.361  1.00  0.00     0.160 A 
ATOM     18  C   UNL     1      92.210  79.437  84.804  1.00  0.00     0.050 A 
ATOM     19  C   UNL     1      90.864  79.709  84.493  1.00  0.00     0.157 A 
BRANCH  17  20
ATOM     20  O   UNL     1      89.105  81.308  84.102  1.00  0.00    -0.493 OA
ATOM     21  C   UNL     1      88.468  82.148  85.081  1.00  0.00     0.278 C 
ENDBRANCH  17  20
BRANCH  19  22
ATOM     22  O   UNL     1      89.987  78.686  84.333  1.00  0.00    -0.504 OA
ATOM     23  H   UNL     1      89.210  79.000  83.865  1.00  0.00     0.293 HD
ENDBRANCH  19  22
ENDBRANCH  13  14
ENDBRANCH  11  13
ENDBRANCH   8   9
ENDBRANCH   1   8
TORSDOF 11
ENDMDL
MODEL 3
REMARK VINA RESULT:    -6.183     16.458     18.908
REMARK INTER + INTRA:         -10.459
REMARK INTER:                  -9.806
REMARK INTRA:                  -0.653
REMARK UNBOUND:                -0.480
REMARK SMILES CCCCCCCCC(=O)NCc1ccc(O)c(OC)c1
REMARK SMILES IDX 7 1 6 2 5 3 4 4 3 5 2 6 1 7 8 8 9 9 10 10 11 11 12 13 13 14
REMARK SMILES IDX 21 15 14 16 18 17 15 18 16 19 19 20 20 21 17 22
REMARK H PARENT 11 12 17 23
REMARK Flexibility Score: inf
ROOT
ATOM      1  C   UNL     1      91.128  95.008  76.785  1.00  0.00     0.010 C 
ENDROOT
BRANCH   1   2
ATOM      2  C   UNL     1      91.440  94.142  75.531  1.00  0.00     0.001 C 
BRANCH   2   3
ATOM      3  C   UNL     1      90.227  94.054  74.558  1.00  0.00     0.000 C 
BRANCH   3   4
ATOM      4  C   UNL     1      89.826  92.599  74.186  1.00  0.00    -0.000 C 
BRANCH   4   5
ATOM      5  C   UNL     1      89.929  91.621  75.390  1.00  0.00    -0.000 C 
BRANCH   5   6
ATOM      6  C   UNL     1      89.567  90.161  75.006  1.00  0.00    -0.003 C 
ATOM      7  C   UNL     1      90.684  89.457  74.204  1.00  0.00     0.004 C 
ENDBRANCH   5   6
ENDBRANCH   4   5
ENDBRANCH   3   4
ENDBRANCH   2   3
ENDBRANCH   1   2
BRANCH   1   8
ATOM      8  C   UNL     1      92.157  94.841  77.938  1.00  0.00     0.100 C 
BRANCH   8   9
ATOM      9  C   UNL     1      93.328  95.731  77.749  1.00  0.00     0.220 C 
ATOM     10  O   UNL     1      93.148  96.843  77.197  1.00  0.00    -0.275 OA
ATOM     11  N   UNL     1      94.563  95.355  78.193  1.00  0.00    -0.352 N 
ATOM     12  H   UNL     1      94.612  94.409  78.541  1.00  0.00     0.163 HD
BRANCH  11  13
ATOM     13  C   UNL     1      95.735  96.177  78.197  1.00  0.00     0.151 C 
BRANCH  13  14
ATOM     14  C   UNL     1      96.070  96.740  79.532  1.00  0.00    -0.025 A 
ATOM     15  C   UNL     1      95.786  98.095  79.825  1.00  0.00     0.056 A 
ATOM     16  C   UNL     1      96.677  95.940  80.527  1.00  0.00     0.009 A 
ATOM     17  C   UNL     1      96.082  98.640  81.095  1.00  0.00     0.160 A 
ATOM     18  C   UNL     1      96.973  96.475  81.793  1.00  0.00     0.050 A 
ATOM     19  C   UNL     1      96.685  97.824  82.079  1.00  0.00     0.157 A 
BRANCH  17  20
ATOM     20  O   UNL     1      95.845  99.965  81.363  1.00  0.00    -0.493 OA
ATOM     21  C   UNL     1      96.848 100.858  80.848  1.00  0.00     0.278 C 
ENDBRANCH  17  20
BRANCH  19  22
ATOM     22  O   UNL     1      97.000  98.339  83.295  1.00  0.00    -0.504 OA
ATOM     23  H   UNL     1      97.945  98.507  83.336  1.00  0.00     0.293 HD
ENDBRANCH  19  22
ENDBRANCH  13  14
ENDBRANCH  11  13
ENDBRANCH   8   9
ENDBRANCH   1   8
TORSDOF 11
ENDMDL
MODEL 4
REMARK VINA RESULT:    -6.165     16.630     19.185
REMARK INTER + INTRA:         -10.430
REMARK INTER:                  -9.627
REMARK INTRA:                  -0.803
REMARK UNBOUND:                -0.480
REMARK SMILES CCCCCCCCC(=O)NCc1ccc(O)c(OC)c1
REMARK SMILES IDX 7 1 6 2 5 3 4 4 3 5 2 6 1 7 8 8 9 9 10 10 11 11 12 13 13 14
REMARK SMILES IDX 21 15 14 16 18 17 15 18 16 19 19 20 20 21 17 22
REMARK H PARENT 11 12 17 23
REMARK Flexibility Score: inf
ROOT
ATOM      1  C   UNL     1      92.156  94.817  78.058  1.00  0.00     0.010 C 
ENDROOT
BRANCH   1   2
ATOM      2  C   UNL     1      90.977  94.068  77.373  1.00  0.00     0.001 C 
BRANCH   2   3
ATOM      3  C   UNL     1      90.544  94.747  76.040  1.00  0.00     0.000 C 
BRANCH   3   4
ATOM      4  C   UNL     1      91.014  93.986  74.767  1.00  0.00    -0.000 C 
BRANCH   4   5
ATOM      5  C   UNL     1      89.896  93.096  74.154  1.00  0.00    -0.000 C 
BRANCH   5   6
ATOM      6  C   UNL     1      90.151  91.581  74.378  1.00  0.00    -0.003 C 
ATOM      7  C   UNL     1      89.583  91.068  75.720  1.00  0.00     0.004 C 
ENDBRANCH   5   6
ENDBRANCH   4   5
ENDBRANCH   3   4
ENDBRANCH   2   3
ENDBRANCH   1   2
BRANCH   1   8
ATOM      8  C   UNL     1      93.463  94.838  77.216  1.00  0.00     0.100 C 
BRANCH   8   9
ATOM      9  C   UNL     1      94.170  96.134  77.350  1.00  0.00     0.220 C 
ATOM     10  O   UNL     1      93.499  97.190  77.263  1.00  0.00    -0.275 OA
ATOM     11  N   UNL     1      95.514  96.170  77.590  1.00  0.00    -0.352 N 
ATOM     12  H   UNL     1      95.968  95.269  77.555  1.00  0.00     0.163 HD
BRANCH  11  13
ATOM     13  C   UNL     1      96.281  97.343  77.876  1.00  0.00     0.151 C 
BRANCH  13  14
ATOM     14  C   UNL     1      96.368  97.666  79.326  1.00  0.00    -0.025 A 
ATOM     15  C   UNL     1      97.231  96.926  80.169  1.00  0.00     0.056 A 
ATOM     16  C   UNL     1      95.594  98.708  79.887  1.00  0.00     0.009 A 
ATOM     17  C   UNL     1      97.338  97.232  81.545  1.00  0.00     0.160 A 
ATOM     18  C   UNL     1      95.697  99.018  81.254  1.00  0.00     0.050 A 
ATOM     19  C   UNL     1      96.559  98.279  82.087  1.00  0.00     0.157 A 
BRANCH  17  20
ATOM     20  O   UNL     1      98.143  96.486  82.369  1.00  0.00    -0.493 OA
ATOM     21  C   UNL     1      97.596  95.204  82.725  1.00  0.00     0.278 C 
ENDBRANCH  17  20
BRANCH  19  22
ATOM     22  O   UNL     1      96.630  98.568  83.412  1.00  0.00    -0.504 OA
ATOM     23  H   UNL     1      97.371  99.159  83.571  1.00  0.00     0.293 HD
ENDBRANCH  19  22
ENDBRANCH  13  14
ENDBRANCH  11  13
ENDBRANCH   8   9
ENDBRANCH   1   8
TORSDOF 11
ENDMDL
MODEL 5
REMARK VINA RESULT:    -6.096      1.257      2.216
REMARK INTER + INTRA:         -10.318
REMARK INTER:                  -9.597
REMARK INTRA:                  -0.721
REMARK UNBOUND:                -0.480
REMARK SMILES CCCCCCCCC(=O)NCc1ccc(O)c(OC)c1
REMARK SMILES IDX 7 1 6 2 5 3 4 4 3 5 2 6 1 7 8 8 9 9 10 10 11 11 12 13 13 14
REMARK SMILES IDX 21 15 14 16 18 17 15 18 16 19 19 20 20 21 17 22
REMARK H PARENT 11 12 17 23
REMARK Flexibility Score: inf
ROOT
ATOM      1  C   UNL     1      91.701  74.736  80.133  1.00  0.00     0.010 C 
ENDROOT
BRANCH   1   2
ATOM      2  C   UNL     1      91.221  75.879  79.192  1.00  0.00     0.001 C 
BRANCH   2   3
ATOM      3  C   UNL     1      90.502  75.334  77.923  1.00  0.00     0.000 C 
BRANCH   3   4
ATOM      4  C   UNL     1      91.291  75.571  76.605  1.00  0.00    -0.000 C 
BRANCH   4   5
ATOM      5  C   UNL     1      90.433  76.264  75.508  1.00  0.00    -0.000 C 
BRANCH   5   6
ATOM      6  C   UNL     1      90.365  77.804  75.689  1.00  0.00    -0.003 C 
ATOM      7  C   UNL     1      91.688  78.406  76.211  1.00  0.00     0.004 C 
ENDBRANCH   5   6
ENDBRANCH   4   5
ENDBRANCH   3   4
ENDBRANCH   2   3
ENDBRANCH   1   2
BRANCH   1   8
ATOM      8  C   UNL     1      90.639  74.296  81.180  1.00  0.00     0.100 C 
BRANCH   8   9
ATOM      9  C   UNL     1      90.891  74.921  82.500  1.00  0.00     0.220 C 
ATOM     10  O   UNL     1      92.080  75.075  82.869  1.00  0.00    -0.275 OA
ATOM     11  N   UNL     1      89.851  75.343  83.278  1.00  0.00    -0.352 N 
ATOM     12  H   UNL     1      88.939  75.093  82.927  1.00  0.00     0.163 HD
BRANCH  11  13
ATOM     13  C   UNL     1      89.966  76.083  84.498  1.00  0.00     0.151 C 
BRANCH  13  14
ATOM     14  C   UNL     1      89.685  77.536  84.349  1.00  0.00    -0.025 A 
ATOM     15  C   UNL     1      90.751  78.465  84.294  1.00  0.00     0.056 A 
ATOM     16  C   UNL     1      88.357  78.014  84.264  1.00  0.00     0.009 A 
ATOM     17  C   UNL     1      90.500  79.848  84.136  1.00  0.00     0.160 A 
ATOM     18  C   UNL     1      88.101  79.388  84.105  1.00  0.00     0.050 A 
ATOM     19  C   UNL     1      89.166  80.307  84.048  1.00  0.00     0.157 A 
BRANCH  17  20
ATOM     20  O   UNL     1      91.533  80.751  84.125  1.00  0.00    -0.493 OA
ATOM     21  C   UNL     1      91.974  81.156  85.433  1.00  0.00     0.278 C 
ENDBRANCH  17  20
BRANCH  19  22
ATOM     22  O   UNL     1      88.908  81.634  83.922  1.00  0.00    -0.504 OA
ATOM     23  H   UNL     1      89.688  82.136  84.166  1.00  0.00     0.293 HD
ENDBRANCH  19  22
ENDBRANCH  13  14
ENDBRANCH  11  13
ENDBRANCH   8   9
ENDBRANCH   1   8
TORSDOF 11
ENDMDL
MODEL 6
REMARK VINA RESULT:    -5.889     18.520     21.119
REMARK INTER + INTRA:          -9.985
REMARK INTER:                  -9.387
REMARK INTRA:                  -0.597
REMARK UNBOUND:                -0.480
REMARK SMILES CCCCCCCCC(=O)NCc1ccc(O)c(OC)c1
REMARK SMILES IDX 7 1 6 2 5 3 4 4 3 5 2 6 1 7 8 8 9 9 10 10 11 11 12 13 13 14
REMARK SMILES IDX 21 15 14 16 18 17 15 18 16 19 19 20 20 21 17 22
REMARK H PARENT 11 12 17 23
REMARK Flexibility Score: inf
ROOT
ATOM      1  C   UNL     1      92.103  95.584  77.428  1.00  0.00     0.010 C 
ENDROOT
BRANCH   1   2
ATOM      2  C   UNL     1      90.698  95.587  76.760  1.00  0.00     0.001 C 
BRANCH   2   3
ATOM      3  C   UNL     1      90.006  94.195  76.839  1.00  0.00     0.000 C 
BRANCH   3   4
ATOM      4  C   UNL     1      90.624  93.132  75.887  1.00  0.00    -0.000 C 
BRANCH   4   5
ATOM      5  C   UNL     1      89.847  91.785  75.905  1.00  0.00    -0.000 C 
BRANCH   5   6
ATOM      6  C   UNL     1      90.038  90.969  74.598  1.00  0.00    -0.003 C 
ATOM      7  C   UNL     1      88.700  90.575  73.936  1.00  0.00     0.004 C 
ENDBRANCH   5   6
ENDBRANCH   4   5
ENDBRANCH   3   4
ENDBRANCH   2   3
ENDBRANCH   1   2
BRANCH   1   8
ATOM      8  C   UNL     1      93.077  96.650  76.852  1.00  0.00     0.100 C 
BRANCH   8   9
ATOM      9  C   UNL     1      93.852  96.111  75.708  1.00  0.00     0.220 C 
ATOM     10  O   UNL     1      94.110  94.883  75.690  1.00  0.00    -0.275 OA
ATOM     11  N   UNL     1      94.246  96.930  74.689  1.00  0.00    -0.352 N 
ATOM     12  H   UNL     1      94.062  97.910  74.847  1.00  0.00     0.163 HD
BRANCH  11  13
ATOM     13  C   UNL     1      94.870  96.509  73.472  1.00  0.00     0.151 C 
BRANCH  13  14
ATOM     14  C   UNL     1      94.794  97.514  72.379  1.00  0.00    -0.025 A 
ATOM     15  C   UNL     1      93.808  98.529  72.411  1.00  0.00     0.056 A 
ATOM     16  C   UNL     1      95.697  97.474  71.291  1.00  0.00     0.009 A 
ATOM     17  C   UNL     1      93.734  99.501  71.387  1.00  0.00     0.160 A 
ATOM     18  C   UNL     1      95.630  98.439  70.271  1.00  0.00     0.050 A 
ATOM     19  C   UNL     1      94.648  99.448  70.310  1.00  0.00     0.157 A 
BRANCH  17  20
ATOM     20  O   UNL     1      92.751 100.458  71.398  1.00  0.00    -0.493 OA
ATOM     21  C   UNL     1      91.440  99.959  71.078  1.00  0.00     0.278 C 
ENDBRANCH  17  20
BRANCH  19  22
ATOM     22  O   UNL     1      94.574 100.358  69.306  1.00  0.00    -0.504 OA
ATOM     23  H   UNL     1      95.027 100.018  68.531  1.00  0.00     0.293 HD
ENDBRANCH  19  22
ENDBRANCH  13  14
ENDBRANCH  11  13
ENDBRANCH   8   9
ENDBRANCH   1   8
TORSDOF 11
ENDMDL
MODEL 7
REMARK VINA RESULT:    -5.887      7.732      8.601
REMARK INTER + INTRA:          -9.982
REMARK INTER:                  -9.049
REMARK INTRA:                  -0.933
REMARK UNBOUND:                -0.480
REMARK SMILES CCCCCCCCC(=O)NCc1ccc(O)c(OC)c1
REMARK SMILES IDX 7 1 6 2 5 3 4 4 3 5 2 6 1 7 8 8 9 9 10 10 11 11 12 13 13 14
REMARK SMILES IDX 21 15 14 16 18 17 15 18 16 19 19 20 20 21 17 22
REMARK H PARENT 11 12 17 23
REMARK Flexibility Score: inf
ROOT
ATOM      1  C   UNL     1      99.055  82.595  80.650  1.00  0.00     0.010 C 
ENDROOT
BRANCH   1   2
ATOM      2  C   UNL     1      98.919  82.155  79.164  1.00  0.00     0.001 C 
BRANCH   2   3
ATOM      3  C   UNL     1      97.434  82.102  78.699  1.00  0.00     0.000 C 
BRANCH   3   4
ATOM      4  C   UNL     1      96.684  83.456  78.843  1.00  0.00    -0.000 C 
BRANCH   4   5
ATOM      5  C   UNL     1      96.246  84.049  77.473  1.00  0.00    -0.000 C 
BRANCH   5   6
ATOM      6  C   UNL     1      97.370  83.973  76.405  1.00  0.00    -0.003 C 
ATOM      7  C   UNL     1      96.979  84.650  75.073  1.00  0.00     0.004 C 
ENDBRANCH   5   6
ENDBRANCH   4   5
ENDBRANCH   3   4
ENDBRANCH   2   3
ENDBRANCH   1   2
BRANCH   1   8
ATOM      8  C   UNL     1      99.281  81.415  81.637  1.00  0.00     0.100 C 
BRANCH   8   9
ATOM      9  C   UNL     1      98.190  81.332  82.637  1.00  0.00     0.220 C 
ATOM     10  O   UNL     1      98.488  81.040  83.820  1.00  0.00    -0.275 OA
ATOM     11  N   UNL     1      96.899  81.595  82.278  1.00  0.00    -0.352 N 
ATOM     12  H   UNL     1      96.760  81.732  81.288  1.00  0.00     0.163 HD
BRANCH  11  13
ATOM     13  C   UNL     1      95.785  81.685  83.172  1.00  0.00     0.151 C 
BRANCH  13  14
ATOM     14  C   UNL     1      95.512  83.065  83.656  1.00  0.00    -0.025 A 
ATOM     15  C   UNL     1      94.523  83.291  84.643  1.00  0.00     0.056 A 
ATOM     16  C   UNL     1      96.228  84.170  83.141  1.00  0.00     0.009 A 
ATOM     17  C   UNL     1      94.265  84.595  85.125  1.00  0.00     0.160 A 
ATOM     18  C   UNL     1      95.977  85.469  83.616  1.00  0.00     0.050 A 
ATOM     19  C   UNL     1      94.993  85.687  84.600  1.00  0.00     0.157 A 
BRANCH  17  20
ATOM     20  O   UNL     1      93.277  84.818  86.050  1.00  0.00    -0.493 OA
ATOM     21  C   UNL     1      93.714  84.704  87.416  1.00  0.00     0.278 C 
ENDBRANCH  17  20
BRANCH  19  22
ATOM     22  O   UNL     1      94.739  86.949  85.034  1.00  0.00    -0.504 OA
ATOM     23  H   UNL     1      95.517  87.298  85.475  1.00  0.00     0.293 HD
ENDBRANCH  19  22
ENDBRANCH  13  14
ENDBRANCH  11  13
ENDBRANCH   8   9
ENDBRANCH   1   8
TORSDOF 11
ENDMDL
MODEL 8
REMARK VINA RESULT:    -5.878      5.413      7.368
REMARK INTER + INTRA:          -9.966
REMARK INTER:                  -9.369
REMARK INTRA:                  -0.598
REMARK UNBOUND:                -0.480
REMARK SMILES CCCCCCCCC(=O)NCc1ccc(O)c(OC)c1
REMARK SMILES IDX 7 1 6 2 5 3 4 4 3 5 2 6 1 7 8 8 9 9 10 10 11 11 12 13 13 14
REMARK SMILES IDX 21 15 14 16 18 17 15 18 16 19 19 20 20 21 17 22
REMARK H PARENT 11 12 17 23
REMARK Flexibility Score: inf
ROOT
ATOM      1  C   UNL     1      97.107  82.762  81.286  1.00  0.00     0.010 C 
ENDROOT
BRANCH   1   2
ATOM      2  C   UNL     1      96.898  83.350  79.861  1.00  0.00     0.001 C 
BRANCH   2   3
ATOM      3  C   UNL     1      97.636  82.521  78.768  1.00  0.00     0.000 C 
BRANCH   3   4
ATOM      4  C   UNL     1      97.034  82.686  77.344  1.00  0.00    -0.000 C 
BRANCH   4   5
ATOM      5  C   UNL     1      98.125  82.860  76.249  1.00  0.00    -0.000 C 
BRANCH   5   6
ATOM      6  C   UNL     1      97.959  84.180  75.448  1.00  0.00    -0.003 C 
ATOM      7  C   UNL     1      96.642  84.918  75.773  1.00  0.00     0.004 C 
ENDBRANCH   5   6
ENDBRANCH   4   5
ENDBRANCH   3   4
ENDBRANCH   2   3
ENDBRANCH   1   2
BRANCH   1   8
ATOM      8  C   UNL     1      96.327  83.517  82.399  1.00  0.00     0.100 C 
BRANCH   8   9
ATOM      9  C   UNL     1      95.630  82.573  83.305  1.00  0.00     0.220 C 
ATOM     10  O   UNL     1      95.948  81.360  83.261  1.00  0.00    -0.275 OA
ATOM     11  N   UNL     1      94.687  83.023  84.185  1.00  0.00    -0.352 N 
ATOM     12  H   UNL     1      94.447  83.997  84.077  1.00  0.00     0.163 HD
BRANCH  11  13
ATOM     13  C   UNL     1      94.051  82.241  85.201  1.00  0.00     0.151 C 
BRANCH  13  14
ATOM     14  C   UNL     1      92.733  81.685  84.794  1.00  0.00    -0.025 A 
ATOM     15  C   UNL     1      92.608  80.312  84.474  1.00  0.00     0.056 A 
ATOM     16  C   UNL     1      91.588  82.511  84.716  1.00  0.00     0.009 A 
ATOM     17  C   UNL     1      91.358  79.765  84.102  1.00  0.00     0.160 A 
ATOM     18  C   UNL     1      90.342  81.973  84.348  1.00  0.00     0.050 A 
ATOM     19  C   UNL     1      90.224  80.606  84.033  1.00  0.00     0.157 A 
BRANCH  17  20
ATOM     20  O   UNL     1      91.247  78.443  83.751  1.00  0.00    -0.493 OA
ATOM     21  C   UNL     1      92.253  77.594  84.330  1.00  0.00     0.278 C 
ENDBRANCH  17  20
BRANCH  19  22
ATOM     22  O   UNL     1      89.022  80.102  83.653  1.00  0.00    -0.504 OA
ATOM     23  H   UNL     1      88.577  80.732  83.081  1.00  0.00     0.293 HD
ENDBRANCH  19  22
ENDBRANCH  13  14
ENDBRANCH  11  13
ENDBRANCH   8   9
ENDBRANCH   1   8
TORSDOF 11
ENDMDL
MODEL 9
REMARK VINA RESULT:    -5.600     16.834     19.435
REMARK INTER + INTRA:          -9.518
REMARK INTER:                  -8.657
REMARK INTRA:                  -0.862
REMARK UNBOUND:                -0.480
REMARK SMILES CCCCCCCCC(=O)NCc1ccc(O)c(OC)c1
REMARK SMILES IDX 7 1 6 2 5 3 4 4 3 5 2 6 1 7 8 8 9 9 10 10 11 11 12 13 13 14
REMARK SMILES IDX 21 15 14 16 18 17 15 18 16 19 19 20 20 21 17 22
REMARK H PARENT 11 12 17 23
REMARK Flexibility Score: inf
ROOT
ATOM      1  C   UNL     1      94.062  95.269  76.270  1.00  0.00     0.010 C 
ENDROOT
BRANCH   1   2
ATOM      2  C   UNL     1      92.601  95.148  75.747  1.00  0.00     0.001 C 
BRANCH   2   3
ATOM      3  C   UNL     1      91.557  95.619  76.802  1.00  0.00     0.000 C 
BRANCH   3   4
ATOM      4  C   UNL     1      90.746  94.458  77.443  1.00  0.00    -0.000 C 
BRANCH   4   5
ATOM      5  C   UNL     1      89.712  93.835  76.463  1.00  0.00    -0.000 C 
BRANCH   5   6
ATOM      6  C   UNL     1      90.013  92.345  76.147  1.00  0.00    -0.003 C 
ATOM      7  C   UNL     1      90.537  92.129  74.710  1.00  0.00     0.004 C 
ENDBRANCH   5   6
ENDBRANCH   4   5
ENDBRANCH   3   4
ENDBRANCH   2   3
ENDBRANCH   1   2
BRANCH   1   8
ATOM      8  C   UNL     1      94.323  94.495  77.592  1.00  0.00     0.100 C 
BRANCH   8   9
ATOM      9  C   UNL     1      94.731  95.412  78.683  1.00  0.00     0.220 C 
ATOM     10  O   UNL     1      94.825  94.950  79.846  1.00  0.00    -0.275 OA
ATOM     11  N   UNL     1      95.024  96.719  78.418  1.00  0.00    -0.352 N 
ATOM     12  H   UNL     1      94.832  97.006  77.469  1.00  0.00     0.163 HD
BRANCH  11  13
ATOM     13  C   UNL     1      95.560  97.662  79.352  1.00  0.00     0.151 C 
BRANCH  13  14
ATOM     14  C   UNL     1      96.998  97.445  79.666  1.00  0.00    -0.025 A 
ATOM     15  C   UNL     1      97.412  97.249  81.005  1.00  0.00     0.056 A 
ATOM     16  C   UNL     1      97.972  97.435  78.642  1.00  0.00     0.009 A 
ATOM     17  C   UNL     1      98.773  97.024  81.318  1.00  0.00     0.160 A 
ATOM     18  C   UNL     1      99.327  97.211  78.946  1.00  0.00     0.050 A 
ATOM     19  C   UNL     1      99.732  97.013  80.280  1.00  0.00     0.157 A 
BRANCH  17  20
ATOM     20  O   UNL     1      99.178  96.876  82.621  1.00  0.00    -0.493 OA
ATOM     21  C   UNL     1      98.491  95.834  83.336  1.00  0.00     0.278 C 
ENDBRANCH  17  20
BRANCH  19  22
ATOM     22  O   UNL     1     101.045  96.825  80.567  1.00  0.00    -0.504 OA
ATOM     23  H   UNL     1     101.281  97.341  81.342  1.00  0.00     0.293 HD
ENDBRANCH  19  22
ENDBRANCH  13  14
ENDBRANCH  11  13
ENDBRANCH   8   9
ENDBRANCH   1   8
TORSDOF 11
ENDMDL
MODEL 10
REMARK VINA RESULT:    -5.560      6.828      8.266
REMARK INTER + INTRA:          -9.453
REMARK INTER:                  -8.781
REMARK INTRA:                  -0.673
REMARK UNBOUND:                -0.480
REMARK SMILES CCCCCCCCC(=O)NCc1ccc(O)c(OC)c1
REMARK SMILES IDX 7 1 6 2 5 3 4 4 3 5 2 6 1 7 8 8 9 9 10 10 11 11 12 13 13 14
REMARK SMILES IDX 21 15 14 16 18 17 15 18 16 19 19 20 20 21 17 22
REMARK H PARENT 11 12 17 23
REMARK Flexibility Score: inf
ROOT
ATOM      1  C   UNL     1      97.406  81.743  81.406  1.00  0.00     0.010 C 
ENDROOT
BRANCH   1   2
ATOM      2  C   UNL     1      97.692  81.412  79.913  1.00  0.00     0.001 C 
BRANCH   2   3
ATOM      3  C   UNL     1      97.951  82.692  79.065  1.00  0.00     0.000 C 
BRANCH   3   4
ATOM      4  C   UNL     1      97.189  82.710  77.710  1.00  0.00    -0.000 C 
BRANCH   4   5
ATOM      5  C   UNL     1      96.299  83.974  77.539  1.00  0.00    -0.000 C 
BRANCH   5   6
ATOM      6  C   UNL     1      96.592  84.734  76.217  1.00  0.00    -0.003 C 
ATOM      7  C   UNL     1      97.554  83.967  75.284  1.00  0.00     0.004 C 
ENDBRANCH   5   6
ENDBRANCH   4   5
ENDBRANCH   3   4
ENDBRANCH   2   3
ENDBRANCH   1   2
BRANCH   1   8
ATOM      8  C   UNL     1      96.765  83.142  81.629  1.00  0.00     0.100 C 
BRANCH   8   9
ATOM      9  C   UNL     1      96.413  83.354  83.054  1.00  0.00     0.220 C 
ATOM     10  O   UNL     1      97.215  82.953  83.931  1.00  0.00    -0.275 OA
ATOM     11  N   UNL     1      95.257  83.996  83.395  1.00  0.00    -0.352 N 
ATOM     12  H   UNL     1      94.647  84.198  82.617  1.00  0.00     0.163 HD
BRANCH  11  13
ATOM     13  C   UNL     1      94.876  84.384  84.718  1.00  0.00     0.151 C 
BRANCH  13  14
ATOM     14  C   UNL     1      94.103  83.345  85.450  1.00  0.00    -0.025 A 
ATOM     15  C   UNL     1      94.204  83.242  86.858  1.00  0.00     0.056 A 
ATOM     16  C   UNL     1      93.260  82.445  84.758  1.00  0.00     0.009 A 
ATOM     17  C   UNL     1      93.462  82.270  87.569  1.00  0.00     0.160 A 
ATOM     18  C   UNL     1      92.519  81.477  85.460  1.00  0.00     0.050 A 
ATOM     19  C   UNL     1      92.622  81.382  86.861  1.00  0.00     0.157 A 
BRANCH  17  20
ATOM     20  O   UNL     1      93.594  82.144  88.929  1.00  0.00    -0.493 OA
ATOM     21  C   UNL     1      94.868  82.574  89.439  1.00  0.00     0.278 C 
ENDBRANCH  17  20
BRANCH  19  22
ATOM     22  O   UNL     1      91.923  80.427  87.526  1.00  0.00    -0.504 OA
ATOM     23  H   UNL     1      92.181  79.559  87.205  1.00  0.00     0.293 HD
ENDBRANCH  19  22
ENDBRANCH  13  14
ENDBRANCH  11  13
ENDBRANCH   8   9
ENDBRANCH   1   8
TORSDOF 11
ENDMDL
