MODEL 1
REMARK VINA RESULT:    -7.524      0.000      0.000
REMARK INTER + INTRA:          -9.227
REMARK INTER:                  -8.843
REMARK INTRA:                  -0.383
REMARK UNBOUND:                -0.383
REMARK SMILES O=C(/C=C/C=C/c1ccc2c(c1)OCO2)N1CCCCC1
REMARK SMILES IDX 3 1 4 2 2 3 1 4 16 5 17 6 21 7 18 8 20 9 19 10 5 11 6 12
REMARK SMILES IDX 7 13 12 14 8 15 11 16 9 17 13 18 10 19 14 20 15 21
REMARK H PARENT
REMARK Flexibility Score: inf
ROOT
ATOM      1  C   UNL     1      97.675  83.948  77.167  1.00  0.00     0.071 C 
ATOM      2  C   UNL     1      97.145  82.836  77.673  1.00  0.00     0.006 C 
ENDROOT
BRANCH   1   3
ATOM      3  C   UNL     1      97.450  84.236  75.737  1.00  0.00     0.246 C 
ATOM      4  O   UNL     1      96.299  84.492  75.381  1.00  0.00    -0.270 OA
ATOM      5  N   UNL     1      98.553  84.193  74.885  1.00  0.00    -0.339 N 
ATOM      6  C   UNL     1      98.360  84.469  73.458  1.00  0.00     0.120 C 
ATOM      7  C   UNL     1      99.931  83.848  75.263  1.00  0.00     0.120 C 
ATOM      8  C   UNL     1      99.314  85.553  72.966  1.00  0.00     0.022 C 
ATOM      9  C   UNL     1     100.919  84.911  74.784  1.00  0.00     0.022 C 
ATOM     10  C   UNL     1     100.760  85.198  73.294  1.00  0.00     0.004 C 
ENDBRANCH   1   3
BRANCH   2  11
ATOM     11  C   UNL     1      97.311  82.469  79.064  1.00  0.00     0.001 C 
ATOM     12  C   UNL     1      96.871  83.235  80.075  1.00  0.00     0.008 C 
BRANCH  12  13
ATOM     13  C   UNL     1      97.020  82.913  81.504  1.00  0.00    -0.022 A 
ATOM     14  C   UNL     1      96.317  83.659  82.441  1.00  0.00     0.058 A 
ATOM     15  C   UNL     1      97.865  81.865  81.879  1.00  0.00     0.012 A 
ATOM     16  C   UNL     1      96.489  83.320  83.767  1.00  0.00     0.166 A 
ATOM     17  C   UNL     1      98.020  81.544  83.229  1.00  0.00     0.051 A 
ATOM     18  O   UNL     1      95.893  83.928  84.830  1.00  0.00    -0.454 OA
ATOM     19  C   UNL     1      97.318  82.291  84.151  1.00  0.00     0.165 A 
ATOM     20  C   UNL     1      96.440  83.165  85.925  1.00  0.00     0.468 C 
ATOM     21  O   UNL     1      97.344  82.124  85.502  1.00  0.00    -0.454 OA
ENDBRANCH  12  13
ENDBRANCH   2  11
TORSDOF 3
ENDMDL
MODEL 2
REMARK VINA RESULT:    -7.514      2.949      9.642
REMARK INTER + INTRA:          -9.216
REMARK INTER:                  -8.878
REMARK INTRA:                  -0.338
REMARK UNBOUND:                -0.383
REMARK SMILES O=C(/C=C/C=C/c1ccc2c(c1)OCO2)N1CCCCC1
REMARK SMILES IDX 3 1 4 2 2 3 1 4 16 5 17 6 21 7 18 8 20 9 19 10 5 11 6 12
REMARK SMILES IDX 7 13 12 14 8 15 11 16 9 17 13 18 10 19 14 20 15 21
REMARK H PARENT
REMARK Flexibility Score: inf
ROOT
ATOM      1  C   UNL     1      96.288  83.290  82.797  1.00  0.00     0.071 C 
ATOM      2  C   UNL     1      96.940  82.736  81.776  1.00  0.00     0.006 C 
ENDROOT
BRANCH   1   3
ATOM      3  C   UNL     1      96.357  82.621  84.111  1.00  0.00     0.246 C 
ATOM      4  O   UNL     1      97.468  82.493  84.627  1.00  0.00    -0.270 OA
ATOM      5  N   UNL     1      95.164  82.174  84.676  1.00  0.00    -0.339 N 
ATOM      6  C   UNL     1      95.201  81.501  85.977  1.00  0.00     0.120 C 
ATOM      7  C   UNL     1      93.827  82.268  84.070  1.00  0.00     0.120 C 
ATOM      8  C   UNL     1      94.235  82.145  86.966  1.00  0.00     0.022 C 
ATOM      9  C   UNL     1      92.827  82.907  85.034  1.00  0.00     0.022 C 
ATOM     10  C   UNL     1      92.824  82.207  86.390  1.00  0.00     0.004 C 
ENDBRANCH   1   3
BRANCH   2  11
ATOM     11  C   UNL     1      96.932  83.318  80.451  1.00  0.00     0.001 C 
ATOM     12  C   UNL     1      97.332  82.645  79.360  1.00  0.00     0.008 C 
BRANCH  12  13
ATOM     13  C   UNL     1      97.352  83.190  77.992  1.00  0.00    -0.022 A 
ATOM     14  C   UNL     1      98.284  82.705  77.084  1.00  0.00     0.058 A 
ATOM     15  C   UNL     1      96.430  84.182  77.644  1.00  0.00     0.012 A 
ATOM     16  C   UNL     1      98.263  83.247  75.815  1.00  0.00     0.166 A 
ATOM     17  C   UNL     1      96.432  84.712  76.352  1.00  0.00     0.051 A 
ATOM     18  O   UNL     1      99.091  82.908  74.789  1.00  0.00    -0.454 OA
ATOM     19  C   UNL     1      97.361  84.223  75.459  1.00  0.00     0.165 A 
ATOM     20  C   UNL     1      98.609  83.781  73.748  1.00  0.00     0.468 C 
ATOM     21  O   UNL     1      97.512  84.619  74.165  1.00  0.00    -0.454 OA
ENDBRANCH  12  13
ENDBRANCH   2  11
TORSDOF 3
ENDMDL
MODEL 3
REMARK VINA RESULT:    -7.480     12.334     13.365
REMARK INTER + INTRA:          -9.175
REMARK INTER:                  -8.854
REMARK INTRA:                  -0.321
REMARK UNBOUND:                -0.383
REMARK SMILES O=C(/C=C/C=C/c1ccc2c(c1)OCO2)N1CCCCC1
REMARK SMILES IDX 3 1 4 2 2 3 1 4 16 5 17 6 21 7 18 8 20 9 19 10 5 11 6 12
REMARK SMILES IDX 7 13 12 14 8 15 11 16 9 17 13 18 10 19 14 20 15 21
REMARK H PARENT
REMARK Flexibility Score: inf
ROOT
ATOM      1  C   UNL     1      92.114  95.025  76.928  1.00  0.00     0.071 C 
ATOM      2  C   UNL     1      93.438  95.008  77.065  1.00  0.00     0.006 C 
ENDROOT
BRANCH   1   3
ATOM      3  C   UNL     1      91.545  94.635  75.623  1.00  0.00     0.246 C 
ATOM      4  O   UNL     1      92.017  95.164  74.616  1.00  0.00    -0.270 OA
ATOM      5  N   UNL     1      90.511  93.700  75.618  1.00  0.00    -0.339 N 
ATOM      6  C   UNL     1      89.923  93.297  74.337  1.00  0.00     0.120 C 
ATOM      7  C   UNL     1      89.892  93.082  76.800  1.00  0.00     0.120 C 
ATOM      8  C   UNL     1      89.918  91.781  74.178  1.00  0.00     0.022 C 
ATOM      9  C   UNL     1      89.865  91.559  76.677  1.00  0.00     0.022 C 
ATOM     10  C   UNL     1      89.231  91.110  75.364  1.00  0.00     0.004 C 
ENDBRANCH   1   3
BRANCH   2  11
ATOM     11  C   UNL     1      94.088  95.374  78.305  1.00  0.00     0.001 C 
ATOM     12  C   UNL     1      95.186  96.147  78.350  1.00  0.00     0.008 C 
BRANCH  12  13
ATOM     13  C   UNL     1      95.890  96.542  79.581  1.00  0.00    -0.022 A 
ATOM     14  C   UNL     1      96.546  95.571  80.326  1.00  0.00     0.058 A 
ATOM     15  C   UNL     1      95.880  97.885  79.966  1.00  0.00     0.012 A 
ATOM     16  C   UNL     1      97.192  95.990  81.471  1.00  0.00     0.166 A 
ATOM     17  C   UNL     1      96.543  98.282  81.130  1.00  0.00     0.051 A 
ATOM     18  O   UNL     1      97.886  95.196  82.332  1.00  0.00    -0.454 OA
ATOM     19  C   UNL     1      97.191  97.309  81.863  1.00  0.00     0.165 A 
ATOM     20  C   UNL     1      98.321  96.163  83.309  1.00  0.00     0.468 C 
ATOM     21  O   UNL     1      97.883  97.507  83.017  1.00  0.00    -0.454 OA
ENDBRANCH  12  13
ENDBRANCH   2  11
TORSDOF 3
ENDMDL
MODEL 4
REMARK VINA RESULT:    -7.347      3.346      9.618
REMARK INTER + INTRA:          -9.019
REMARK INTER:                  -8.730
REMARK INTRA:                  -0.289
REMARK UNBOUND:                -0.383
REMARK SMILES O=C(/C=C/C=C/c1ccc2c(c1)OCO2)N1CCCCC1
REMARK SMILES IDX 3 1 4 2 2 3 1 4 16 5 17 6 21 7 18 8 20 9 19 10 5 11 6 12
REMARK SMILES IDX 7 13 12 14 8 15 11 16 9 17 13 18 10 19 14 20 15 21
REMARK H PARENT
REMARK Flexibility Score: inf
ROOT
ATOM      1  C   UNL     1      95.618  83.239  83.796  1.00  0.00     0.071 C 
ATOM      2  C   UNL     1      96.594  82.768  83.022  1.00  0.00     0.006 C 
ENDROOT
BRANCH   1   3
ATOM      3  C   UNL     1      95.598  82.830  85.214  1.00  0.00     0.246 C 
ATOM      4  O   UNL     1      96.238  83.515  86.013  1.00  0.00    -0.270 OA
ATOM      5  N   UNL     1      94.862  81.696  85.553  1.00  0.00    -0.339 N 
ATOM      6  C   UNL     1      94.828  81.262  86.953  1.00  0.00     0.120 C 
ATOM      7  C   UNL     1      94.124  80.829  84.623  1.00  0.00     0.120 C 
ATOM      8  C   UNL     1      93.396  81.083  87.446  1.00  0.00     0.022 C 
ATOM      9  C   UNL     1      92.682  80.621  85.085  1.00  0.00     0.022 C 
ATOM     10  C   UNL     1      92.617  80.142  86.533  1.00  0.00     0.004 C 
ENDBRANCH   1   3
BRANCH   2  11
ATOM     11  C   UNL     1      96.698  83.112  81.620  1.00  0.00     0.001 C 
ATOM     12  C   UNL     1      97.492  82.447  80.765  1.00  0.00     0.008 C 
BRANCH  12  13
ATOM     13  C   UNL     1      97.641  82.759  79.334  1.00  0.00    -0.022 A 
ATOM     14  C   UNL     1      96.726  83.610  78.729  1.00  0.00     0.058 A 
ATOM     15  C   UNL     1      98.701  82.190  78.623  1.00  0.00     0.012 A 
ATOM     16  C   UNL     1      96.908  83.872  77.387  1.00  0.00     0.166 A 
ATOM     17  C   UNL     1      98.861  82.473  77.265  1.00  0.00     0.051 A 
ATOM     18  O   UNL     1      96.122  84.674  76.617  1.00  0.00    -0.454 OA
ATOM     19  C   UNL     1      97.947  83.319  76.674  1.00  0.00     0.165 A 
ATOM     20  C   UNL     1      96.783  84.564  75.340  1.00  0.00     0.468 C 
ATOM     21  O   UNL     1      97.942  83.705  75.369  1.00  0.00    -0.454 OA
ENDBRANCH  12  13
ENDBRANCH   2  11
TORSDOF 3
ENDMDL
MODEL 5
REMARK VINA RESULT:    -7.035      2.168      3.134
REMARK INTER + INTRA:          -8.652
REMARK INTER:                  -8.276
REMARK INTRA:                  -0.376
REMARK UNBOUND:                -0.383
REMARK SMILES O=C(/C=C/C=C/c1ccc2c(c1)OCO2)N1CCCCC1
REMARK SMILES IDX 3 1 4 2 2 3 1 4 16 5 17 6 21 7 18 8 20 9 19 10 5 11 6 12
REMARK SMILES IDX 7 13 12 14 8 15 11 16 9 17 13 18 10 19 14 20 15 21
REMARK H PARENT
REMARK Flexibility Score: inf
ROOT
ATOM      1  C   UNL     1      97.350  82.223  78.818  1.00  0.00     0.071 C 
ATOM      2  C   UNL     1      97.899  81.929  79.996  1.00  0.00     0.006 C 
ENDROOT
BRANCH   1   3
ATOM      3  C   UNL     1      98.142  81.965  77.599  1.00  0.00     0.246 C 
ATOM      4  O   UNL     1      98.744  80.893  77.528  1.00  0.00    -0.270 OA
ATOM      5  N   UNL     1      98.160  82.952  76.615  1.00  0.00    -0.339 N 
ATOM      6  C   UNL     1      98.942  82.728  75.396  1.00  0.00     0.120 C 
ATOM      7  C   UNL     1      97.492  84.261  76.685  1.00  0.00     0.120 C 
ATOM      8  C   UNL     1      98.097  82.938  74.145  1.00  0.00     0.022 C 
ATOM      9  C   UNL     1      96.635  84.511  75.444  1.00  0.00     0.022 C 
ATOM     10  C   UNL     1      97.433  84.311  74.158  1.00  0.00     0.004 C 
ENDBRANCH   1   3
BRANCH   2  11
ATOM     11  C   UNL     1      97.201  82.147  81.245  1.00  0.00     0.001 C 
ATOM     12  C   UNL     1      96.712  83.344  81.606  1.00  0.00     0.008 C 
BRANCH  12  13
ATOM     13  C   UNL     1      96.003  83.622  82.866  1.00  0.00    -0.022 A 
ATOM     14  C   UNL     1      95.374  82.579  83.532  1.00  0.00     0.058 A 
ATOM     15  C   UNL     1      95.983  84.930  83.358  1.00  0.00     0.012 A 
ATOM     16  C   UNL     1      94.723  82.888  84.708  1.00  0.00     0.166 A 
ATOM     17  C   UNL     1      95.316  85.215  84.552  1.00  0.00     0.051 A 
ATOM     18  O   UNL     1      94.050  82.011  85.502  1.00  0.00    -0.454 OA
ATOM     19  C   UNL     1      94.695  84.171  85.205  1.00  0.00     0.165 A 
ATOM     20  C   UNL     1      93.595  82.887  86.554  1.00  0.00     0.468 C 
ATOM     21  O   UNL     1      94.000  84.259  86.372  1.00  0.00    -0.454 OA
ENDBRANCH  12  13
ENDBRANCH   2  11
TORSDOF 3
ENDMDL
MODEL 6
REMARK VINA RESULT:    -6.797     13.399     15.376
REMARK INTER + INTRA:          -8.372
REMARK INTER:                  -8.002
REMARK INTRA:                  -0.370
REMARK UNBOUND:                -0.383
REMARK SMILES O=C(/C=C/C=C/c1ccc2c(c1)OCO2)N1CCCCC1
REMARK SMILES IDX 3 1 4 2 2 3 1 4 16 5 17 6 21 7 18 8 20 9 19 10 5 11 6 12
REMARK SMILES IDX 7 13 12 14 8 15 11 16 9 17 13 18 10 19 14 20 15 21
REMARK H PARENT
REMARK Flexibility Score: inf
ROOT
ATOM      1  C   UNL     1      96.776  96.798  80.547  1.00  0.00     0.071 C 
ATOM      2  C   UNL     1      96.447  95.555  80.200  1.00  0.00     0.006 C 
ENDROOT
BRANCH   1   3
ATOM      3  C   UNL     1      97.564  96.989  81.781  1.00  0.00     0.246 C 
ATOM      4  O   UNL     1      98.315  96.074  82.124  1.00  0.00    -0.270 OA
ATOM      5  N   UNL     1      97.403  98.185  82.477  1.00  0.00    -0.339 N 
ATOM      6  C   UNL     1      98.168  98.401  83.709  1.00  0.00     0.120 C 
ATOM      7  C   UNL     1      96.484  99.278  82.124  1.00  0.00     0.120 C 
ATOM      8  C   UNL     1      98.933  99.719  83.665  1.00  0.00     0.022 C 
ATOM      9  C   UNL     1      97.215 100.620  82.074  1.00  0.00     0.022 C 
ATOM     10  C   UNL     1      97.998 100.884  83.357  1.00  0.00     0.004 C 
ENDBRANCH   1   3
BRANCH   2  11
ATOM     11  C   UNL     1      95.677  95.268  79.009  1.00  0.00     0.001 C 
ATOM     12  C   UNL     1      94.353  95.481  78.931  1.00  0.00     0.008 C 
BRANCH  12  13
ATOM     13  C   UNL     1      93.521  95.199  77.749  1.00  0.00    -0.022 A 
ATOM     14  C   UNL     1      92.185  94.868  77.927  1.00  0.00     0.058 A 
ATOM     15  C   UNL     1      94.100  95.272  76.479  1.00  0.00     0.012 A 
ATOM     16  C   UNL     1      91.446  94.614  76.790  1.00  0.00     0.166 A 
ATOM     17  C   UNL     1      93.329  95.009  75.345  1.00  0.00     0.051 A 
ATOM     18  O   UNL     1      90.128  94.274  76.754  1.00  0.00    -0.454 OA
ATOM     19  C   UNL     1      92.002  94.682  75.533  1.00  0.00     0.165 A 
ATOM     20  C   UNL     1      89.918  94.137  75.334  1.00  0.00     0.468 C 
ATOM     21  O   UNL     1      91.103  94.394  74.553  1.00  0.00    -0.454 OA
ENDBRANCH  12  13
ENDBRANCH   2  11
TORSDOF 3
ENDMDL
MODEL 7
REMARK VINA RESULT:    -6.772      3.307      9.353
REMARK INTER + INTRA:          -8.343
REMARK INTER:                  -7.976
REMARK INTRA:                  -0.367
REMARK UNBOUND:                -0.383
REMARK SMILES O=C(/C=C/C=C/c1ccc2c(c1)OCO2)N1CCCCC1
REMARK SMILES IDX 3 1 4 2 2 3 1 4 16 5 17 6 21 7 18 8 20 9 19 10 5 11 6 12
REMARK SMILES IDX 7 13 12 14 8 15 11 16 9 17 13 18 10 19 14 20 15 21
REMARK H PARENT
REMARK Flexibility Score: inf
ROOT
ATOM      1  C   UNL     1      95.936  83.107  84.062  1.00  0.00     0.071 C 
ATOM      2  C   UNL     1      96.399  82.334  83.082  1.00  0.00     0.006 C 
ENDROOT
BRANCH   1   3
ATOM      3  C   UNL     1      95.763  82.505  85.399  1.00  0.00     0.246 C 
ATOM      4  O   UNL     1      94.778  81.787  85.576  1.00  0.00    -0.270 OA
ATOM      5  N   UNL     1      96.720  82.793  86.370  1.00  0.00    -0.339 N 
ATOM      6  C   UNL     1      96.572  82.214  87.709  1.00  0.00     0.120 C 
ATOM      7  C   UNL     1      97.882  83.680  86.210  1.00  0.00     0.120 C 
ATOM      8  C   UNL     1      97.838  81.483  88.143  1.00  0.00     0.022 C 
ATOM      9  C   UNL     1      99.173  82.983  86.639  1.00  0.00     0.022 C 
ATOM     10  C   UNL     1      99.057  82.395  88.042  1.00  0.00     0.004 C 
ENDBRANCH   1   3
BRANCH   2  11
ATOM     11  C   UNL     1      96.602  82.833  81.738  1.00  0.00     0.001 C 
ATOM     12  C   UNL     1      97.211  82.116  80.781  1.00  0.00     0.008 C 
BRANCH  12  13
ATOM     13  C   UNL     1      97.450  82.577  79.403  1.00  0.00    -0.022 A 
ATOM     14  C   UNL     1      96.549  83.457  78.819  1.00  0.00     0.058 A 
ATOM     15  C   UNL     1      98.580  82.117  78.721  1.00  0.00     0.012 A 
ATOM     16  C   UNL     1      96.816  83.861  77.527  1.00  0.00     0.166 A 
ATOM     17  C   UNL     1      98.826  82.542  77.414  1.00  0.00     0.051 A 
ATOM     18  O   UNL     1      96.058  84.713  76.784  1.00  0.00    -0.454 OA
ATOM     19  C   UNL     1      97.924  83.416  76.843  1.00  0.00     0.165 A 
ATOM     20  C   UNL     1      96.813  84.755  75.557  1.00  0.00     0.468 C 
ATOM     21  O   UNL     1      97.999  83.934  75.587  1.00  0.00    -0.454 OA
ENDBRANCH  12  13
ENDBRANCH   2  11
TORSDOF 3
ENDMDL
MODEL 8
REMARK VINA RESULT:    -6.736     17.882     20.909
REMARK INTER + INTRA:          -8.300
REMARK INTER:                  -7.967
REMARK INTRA:                  -0.333
REMARK UNBOUND:                -0.383
REMARK SMILES O=C(/C=C/C=C/c1ccc2c(c1)OCO2)N1CCCCC1
REMARK SMILES IDX 3 1 4 2 2 3 1 4 16 5 17 6 21 7 18 8 20 9 19 10 5 11 6 12
REMARK SMILES IDX 7 13 12 14 8 15 11 16 9 17 13 18 10 19 14 20 15 21
REMARK H PARENT
REMARK Flexibility Score: inf
ROOT
ATOM      1  C   UNL     1      86.467  69.719  71.860  1.00  0.00     0.071 C 
ATOM      2  C   UNL     1      87.604  70.103  71.283  1.00  0.00     0.006 C 
ENDROOT
BRANCH   1   3
ATOM      3  C   UNL     1      86.550  68.981  73.136  1.00  0.00     0.246 C 
ATOM      4  O   UNL     1      87.462  69.281  73.908  1.00  0.00    -0.270 OA
ATOM      5  N   UNL     1      85.596  67.995  73.380  1.00  0.00    -0.339 N 
ATOM      6  C   UNL     1      85.657  67.242  74.637  1.00  0.00     0.120 C 
ATOM      7  C   UNL     1      84.522  67.579  72.466  1.00  0.00     0.120 C 
ATOM      8  C   UNL     1      84.320  67.272  75.369  1.00  0.00     0.022 C 
ATOM      9  C   UNL     1      83.164  67.593  73.166  1.00  0.00     0.022 C 
ATOM     10  C   UNL     1      83.190  66.792  74.464  1.00  0.00     0.004 C 
ENDBRANCH   1   3
BRANCH   2  11
ATOM     11  C   UNL     1      87.624  70.830  70.031  1.00  0.00     0.001 C 
ATOM     12  C   UNL     1      88.661  71.594  69.651  1.00  0.00     0.008 C 
BRANCH  12  13
ATOM     13  C   UNL     1      88.730  72.360  68.395  1.00  0.00    -0.022 A 
ATOM     14  C   UNL     1      89.901  73.034  68.079  1.00  0.00     0.058 A 
ATOM     15  C   UNL     1      87.614  72.386  67.555  1.00  0.00     0.012 A 
ATOM     16  C   UNL     1      89.918  73.737  66.892  1.00  0.00     0.166 A 
ATOM     17  C   UNL     1      87.658  73.105  66.359  1.00  0.00     0.051 A 
ATOM     18  O   UNL     1      90.964  74.460  66.407  1.00  0.00    -0.454 OA
ATOM     19  C   UNL     1      88.826  73.772  66.054  1.00  0.00     0.165 A 
ATOM     20  C   UNL     1      90.409  74.954  65.171  1.00  0.00     0.468 C 
ATOM     21  O   UNL     1      89.052  74.521  64.941  1.00  0.00    -0.454 OA
ENDBRANCH  12  13
ENDBRANCH   2  11
TORSDOF 3
ENDMDL
MODEL 9
REMARK VINA RESULT:    -6.674      1.483      2.179
REMARK INTER + INTRA:          -8.228
REMARK INTER:                  -7.897
REMARK INTRA:                  -0.331
REMARK UNBOUND:                -0.383
REMARK SMILES O=C(/C=C/C=C/c1ccc2c(c1)OCO2)N1CCCCC1
REMARK SMILES IDX 3 1 4 2 2 3 1 4 16 5 17 6 21 7 18 8 20 9 19 10 5 11 6 12
REMARK SMILES IDX 7 13 12 14 8 15 11 16 9 17 13 18 10 19 14 20 15 21
REMARK H PARENT
REMARK Flexibility Score: inf
ROOT
ATOM      1  C   UNL     1      96.649  83.254  78.001  1.00  0.00     0.071 C 
ATOM      2  C   UNL     1      97.426  83.592  79.028  1.00  0.00     0.006 C 
ENDROOT
BRANCH   1   3
ATOM      3  C   UNL     1      96.753  84.048  76.761  1.00  0.00     0.246 C 
ATOM      4  O   UNL     1      96.019  85.031  76.651  1.00  0.00    -0.270 OA
ATOM      5  N   UNL     1      97.668  83.629  75.796  1.00  0.00    -0.339 N 
ATOM      6  C   UNL     1      97.790  84.394  74.552  1.00  0.00     0.120 C 
ATOM      7  C   UNL     1      98.526  82.437  75.872  1.00  0.00     0.120 C 
ATOM      8  C   UNL     1      99.237  84.787  74.279  1.00  0.00     0.022 C 
ATOM      9  C   UNL     1      99.988  82.790  75.600  1.00  0.00     0.022 C 
ATOM     10  C   UNL     1     100.148  83.563  74.294  1.00  0.00     0.004 C 
ENDBRANCH   1   3
BRANCH   2  11
ATOM     11  C   UNL     1      97.396  82.874  80.285  1.00  0.00     0.001 C 
ATOM     12  C   UNL     1      96.666  83.281  81.336  1.00  0.00     0.008 C 
BRANCH  12  13
ATOM     13  C   UNL     1      96.605  82.595  82.638  1.00  0.00    -0.022 A 
ATOM     14  C   UNL     1      97.693  81.841  83.056  1.00  0.00     0.058 A 
ATOM     15  C   UNL     1      95.453  82.723  83.418  1.00  0.00     0.012 A 
ATOM     16  C   UNL     1      97.589  81.218  84.282  1.00  0.00     0.166 A 
ATOM     17  C   UNL     1      95.375  82.082  84.656  1.00  0.00     0.051 A 
ATOM     18  O   UNL     1      98.540  80.437  84.864  1.00  0.00    -0.454 OA
ATOM     19  C   UNL     1      96.461  81.334  85.062  1.00  0.00     0.165 A 
ATOM     20  C   UNL     1      97.884  80.076  86.096  1.00  0.00     0.468 C 
ATOM     21  O   UNL     1      96.564  80.642  86.229  1.00  0.00    -0.454 OA
ENDBRANCH  12  13
ENDBRANCH   2  11
TORSDOF 3
ENDMDL
MODEL 10
REMARK VINA RESULT:    -6.616      7.159     12.074
REMARK INTER + INTRA:          -8.160
REMARK INTER:                  -7.838
REMARK INTRA:                  -0.322
REMARK UNBOUND:                -0.383
REMARK SMILES O=C(/C=C/C=C/c1ccc2c(c1)OCO2)N1CCCCC1
REMARK SMILES IDX 3 1 4 2 2 3 1 4 16 5 17 6 21 7 18 8 20 9 19 10 5 11 6 12
REMARK SMILES IDX 7 13 12 14 8 15 11 16 9 17 13 18 10 19 14 20 15 21
REMARK H PARENT
REMARK Flexibility Score: inf
ROOT
ATOM      1  C   UNL     1      93.435  88.103  88.659  1.00  0.00     0.071 C 
ATOM      2  C   UNL     1      92.915  86.887  88.501  1.00  0.00     0.006 C 
ENDROOT
BRANCH   1   3
ATOM      3  C   UNL     1      92.708  89.064  89.512  1.00  0.00     0.246 C 
ATOM      4  O   UNL     1      91.983  88.605  90.396  1.00  0.00    -0.270 OA
ATOM      5  N   UNL     1      92.886  90.423  89.258  1.00  0.00    -0.339 N 
ATOM      6  C   UNL     1      92.173  91.401  90.085  1.00  0.00     0.120 C 
ATOM      7  C   UNL     1      93.706  91.006  88.186  1.00  0.00     0.120 C 
ATOM      8  C   UNL     1      93.128  92.433  90.674  1.00  0.00     0.022 C 
ATOM      9  C   UNL     1      94.676  92.051  88.737  1.00  0.00     0.022 C 
ATOM     10  C   UNL     1      93.956  93.099  89.580  1.00  0.00     0.004 C 
ENDBRANCH   1   3
BRANCH   2  11
ATOM     11  C   UNL     1      93.554  85.877  87.684  1.00  0.00     0.001 C 
ATOM     12  C   UNL     1      93.064  85.486  86.497  1.00  0.00     0.008 C 
BRANCH  12  13
ATOM     13  C   UNL     1      93.668  84.459  85.631  1.00  0.00    -0.022 A 
ATOM     14  C   UNL     1      94.902  84.709  85.048  1.00  0.00     0.058 A 
ATOM     15  C   UNL     1      92.980  83.262  85.420  1.00  0.00     0.012 A 
ATOM     16  C   UNL     1      95.427  83.717  84.245  1.00  0.00     0.166 A 
ATOM     17  C   UNL     1      93.535  82.274  84.602  1.00  0.00     0.051 A 
ATOM     18  O   UNL     1      96.618  83.770  83.586  1.00  0.00    -0.454 OA
ATOM     19  C   UNL     1      94.762  82.532  84.028  1.00  0.00     0.165 A 
ATOM     20  C   UNL     1      96.627  82.485  82.931  1.00  0.00     0.468 C 
ATOM     21  O   UNL     1      95.452  81.694  83.207  1.00  0.00    -0.454 OA
ENDBRANCH  12  13
ENDBRANCH   2  11
TORSDOF 3
ENDMDL
