MODEL 1
REMARK VINA RESULT:    -6.528      0.000      0.000
REMARK INTER + INTRA:         -10.972
REMARK INTER:                 -10.153
REMARK INTRA:                  -0.819
REMARK UNBOUND:                -0.819
REMARK SMILES COc1cc(CNC(=O)CCCCCC(C)C)ccc1O
REMARK SMILES IDX 10 1 8 2 7 3 9 5 6 6 5 7 3 8 20 9 4 10 19 11 18 12 2 13 1 14
REMARK SMILES IDX 21 15 11 17 12 18 13 19 14 20 15 21 16 22 17 23
REMARK H PARENT 7 4 21 16
REMARK Flexibility Score: inf
ROOT
ATOM      1  C   UNL     1      89.600  92.742  77.181  1.00  0.00     0.100 C 
ENDROOT
BRANCH   1   2
ATOM      2  C   UNL     1      90.380  93.780  76.475  1.00  0.00     0.220 C 
ATOM      3  N   UNL     1      91.585  93.456  75.928  1.00  0.00    -0.352 N 
ATOM      4  H   UNL     1      91.926  92.535  76.164  1.00  0.00     0.163 HD
ATOM      5  O   UNL     1      89.895  94.932  76.359  1.00  0.00    -0.275 OA
BRANCH   3   6
ATOM      6  C   UNL     1      92.357  94.306  75.078  1.00  0.00     0.151 C 
BRANCH   6   7
ATOM      7  C   UNL     1      93.655  94.711  75.681  1.00  0.00    -0.025 A 
ATOM      8  C   UNL     1      95.382  94.436  77.410  1.00  0.00     0.160 A 
ATOM      9  C   UNL     1      96.159  95.437  76.790  1.00  0.00     0.157 A 
ATOM     10  C   UNL     1      94.127  94.093  76.863  1.00  0.00     0.056 A 
ATOM     11  C   UNL     1      95.688  96.077  75.629  1.00  0.00     0.050 A 
ATOM     12  C   UNL     1      94.448  95.714  75.076  1.00  0.00     0.009 A 
BRANCH   8  13
ATOM     13  O   UNL     1      95.814  93.814  78.552  1.00  0.00    -0.493 OA
ATOM     14  C   UNL     1      95.238  94.349  79.759  1.00  0.00     0.278 C 
ENDBRANCH   8  13
BRANCH   9  15
ATOM     15  O   UNL     1      97.366  95.776  77.309  1.00  0.00    -0.504 OA
ATOM     16  H   UNL     1      97.875  96.254  76.651  1.00  0.00     0.293 HD
ENDBRANCH   9  15
ENDBRANCH   6   7
ENDBRANCH   3   6
ENDBRANCH   1   2
BRANCH   1  17
ATOM     17  C   UNL     1      90.309  91.363  77.271  1.00  0.00     0.010 C 
BRANCH  17  18
ATOM     18  C   UNL     1      89.432  90.229  76.673  1.00  0.00     0.001 C 
BRANCH  18  19
ATOM     19  C   UNL     1      88.697  90.640  75.370  1.00  0.00     0.000 C 
BRANCH  19  20
ATOM     20  C   UNL     1      89.620  90.548  74.120  1.00  0.00     0.003 C 
BRANCH  20  21
ATOM     21  C   UNL     1      88.891  90.179  72.787  1.00  0.00    -0.017 C 
ATOM     22  C   UNL     1      89.779  90.523  71.555  1.00  0.00     0.007 C 
ATOM     23  C   UNL     1      87.500  90.863  72.649  1.00  0.00     0.007 C 
ENDBRANCH  20  21
ENDBRANCH  19  20
ENDBRANCH  18  19
ENDBRANCH  17  18
ENDBRANCH   1  17
TORSDOF 10
ENDMDL
MODEL 2
REMARK VINA RESULT:    -6.190      3.005      7.504
REMARK INTER + INTRA:         -10.446
REMARK INTER:                  -9.454
REMARK INTRA:                  -0.992
REMARK UNBOUND:                -0.819
REMARK SMILES COc1cc(CNC(=O)CCCCCC(C)C)ccc1O
REMARK SMILES IDX 10 1 8 2 7 3 9 5 6 6 5 7 3 8 20 9 4 10 19 11 18 12 2 13 1 14
REMARK SMILES IDX 21 15 11 17 12 18 13 19 14 20 15 21 16 22 17 23
REMARK H PARENT 7 4 21 16
REMARK Flexibility Score: inf
ROOT
ATOM      1  C   UNL     1      92.834  94.195  77.140  1.00  0.00     0.100 C 
ENDROOT
BRANCH   1   2
ATOM      2  C   UNL     1      91.700  93.255  77.266  1.00  0.00     0.220 C 
ATOM      3  N   UNL     1      90.790  93.165  76.255  1.00  0.00    -0.352 N 
ATOM      4  H   UNL     1      90.890  93.861  75.530  1.00  0.00     0.163 HD
ATOM      5  O   UNL     1      91.622  92.528  78.286  1.00  0.00    -0.275 OA
BRANCH   3   6
ATOM      6  C   UNL     1      89.754  92.186  76.167  1.00  0.00     0.151 C 
BRANCH   6   7
ATOM      7  C   UNL     1      90.245  90.853  75.725  1.00  0.00    -0.025 A 
ATOM      8  C   UNL     1      90.468  88.433  76.097  1.00  0.00     0.160 A 
ATOM      9  C   UNL     1      91.121  88.304  74.853  1.00  0.00     0.157 A 
ATOM     10  C   UNL     1      90.052  89.708  76.534  1.00  0.00     0.056 A 
ATOM     11  C   UNL     1      91.342  89.440  74.052  1.00  0.00     0.050 A 
ATOM     12  C   UNL     1      90.903  90.704  74.482  1.00  0.00     0.009 A 
BRANCH   8  13
ATOM     13  O   UNL     1      90.261  87.342  76.901  1.00  0.00    -0.493 OA
ATOM     14  C   UNL     1      89.875  87.677  78.248  1.00  0.00     0.278 C 
ENDBRANCH   8  13
BRANCH   9  15
ATOM     15  O   UNL     1      91.527  87.083  74.425  1.00  0.00    -0.504 OA
ATOM     16  H   UNL     1      90.781  86.611  74.048  1.00  0.00     0.293 HD
ENDBRANCH   9  15
ENDBRANCH   6   7
ENDBRANCH   3   6
ENDBRANCH   1   2
BRANCH   1  17
ATOM     17  C   UNL     1      93.157  94.613  75.680  1.00  0.00     0.010 C 
BRANCH  17  18
ATOM     18  C   UNL     1      94.244  93.698  75.050  1.00  0.00     0.001 C 
BRANCH  18  19
ATOM     19  C   UNL     1      95.690  94.097  75.446  1.00  0.00     0.000 C 
BRANCH  19  20
ATOM     20  C   UNL     1      95.838  95.630  75.669  1.00  0.00     0.003 C 
BRANCH  20  21
ATOM     21  C   UNL     1      96.779  96.037  76.849  1.00  0.00    -0.017 C 
ATOM     22  C   UNL     1      96.216  95.530  78.209  1.00  0.00     0.007 C 
ATOM     23  C   UNL     1      97.035  97.571  76.916  1.00  0.00     0.007 C 
ENDBRANCH  20  21
ENDBRANCH  19  20
ENDBRANCH  18  19
ENDBRANCH  17  18
ENDBRANCH   1  17
TORSDOF 10
ENDMDL
MODEL 3
REMARK VINA RESULT:    -6.096      5.136      6.934
REMARK INTER + INTRA:         -10.300
REMARK INTER:                  -9.839
REMARK INTRA:                  -0.461
REMARK UNBOUND:                -0.819
REMARK SMILES COc1cc(CNC(=O)CCCCCC(C)C)ccc1O
REMARK SMILES IDX 10 1 8 2 7 3 9 5 6 6 5 7 3 8 20 9 4 10 19 11 18 12 2 13 1 14
REMARK SMILES IDX 21 15 11 17 12 18 13 19 14 20 15 21 16 22 17 23
REMARK H PARENT 7 4 21 16
REMARK Flexibility Score: inf
ROOT
ATOM      1  C   UNL     1      93.229  98.885  72.014  1.00  0.00     0.100 C 
ENDROOT
BRANCH   1   2
ATOM      2  C   UNL     1      94.315  98.078  72.608  1.00  0.00     0.220 C 
ATOM      3  N   UNL     1      94.104  97.444  73.796  1.00  0.00    -0.352 N 
ATOM      4  H   UNL     1      93.240  97.686  74.260  1.00  0.00     0.163 HD
ATOM      5  O   UNL     1      95.397  97.959  71.984  1.00  0.00    -0.275 OA
BRANCH   3   6
ATOM      6  C   UNL     1      94.994  96.501  74.393  1.00  0.00     0.151 C 
BRANCH   6   7
ATOM      7  C   UNL     1      94.302  95.517  75.269  1.00  0.00    -0.025 A 
ATOM      8  C   UNL     1      94.169  94.266  77.382  1.00  0.00     0.160 A 
ATOM      9  C   UNL     1      92.949  93.695  76.964  1.00  0.00     0.157 A 
ATOM     10  C   UNL     1      94.848  95.158  76.524  1.00  0.00     0.056 A 
ATOM     11  C   UNL     1      92.410  94.024  75.707  1.00  0.00     0.050 A 
ATOM     12  C   UNL     1      93.078  94.932  74.868  1.00  0.00     0.009 A 
BRANCH   8  13
ATOM     13  O   UNL     1      94.721  93.943  78.594  1.00  0.00    -0.493 OA
ATOM     14  C   UNL     1      95.956  94.629  78.873  1.00  0.00     0.278 C 
ENDBRANCH   8  13
BRANCH   9  15
ATOM     15  O   UNL     1      92.290  92.834  77.780  1.00  0.00    -0.504 OA
ATOM     16  H   UNL     1      91.784  93.330  78.427  1.00  0.00     0.293 HD
ENDBRANCH   9  15
ENDBRANCH   6   7
ENDBRANCH   3   6
ENDBRANCH   1   2
BRANCH   1  17
ATOM     17  C   UNL     1      92.954  98.581  70.516  1.00  0.00     0.010 C 
BRANCH  17  18
ATOM     18  C   UNL     1      91.721  99.366  69.990  1.00  0.00     0.001 C 
BRANCH  18  19
ATOM     19  C   UNL     1      90.741  98.492  69.163  1.00  0.00     0.000 C 
BRANCH  19  20
ATOM     20  C   UNL     1      90.613  98.982  67.692  1.00  0.00     0.003 C 
BRANCH  20  21
ATOM     21  C   UNL     1      90.163  97.888  66.669  1.00  0.00    -0.017 C 
ATOM     22  C   UNL     1      88.818  98.283  65.991  1.00  0.00     0.007 C 
ATOM     23  C   UNL     1      90.044  96.475  67.308  1.00  0.00     0.007 C 
ENDBRANCH  20  21
ENDBRANCH  19  20
ENDBRANCH  18  19
ENDBRANCH  17  18
ENDBRANCH   1  17
TORSDOF 10
ENDMDL
MODEL 4
REMARK VINA RESULT:    -5.974      2.692      4.373
REMARK INTER + INTRA:         -10.111
REMARK INTER:                  -9.629
REMARK INTRA:                  -0.481
REMARK UNBOUND:                -0.819
REMARK SMILES COc1cc(CNC(=O)CCCCCC(C)C)ccc1O
REMARK SMILES IDX 10 1 8 2 7 3 9 5 6 6 5 7 3 8 20 9 4 10 19 11 18 12 2 13 1 14
REMARK SMILES IDX 21 15 11 17 12 18 13 19 14 20 15 21 16 22 17 23
REMARK H PARENT 7 4 21 16
REMARK Flexibility Score: inf
ROOT
ATOM      1  C   UNL     1      92.766  93.284  76.080  1.00  0.00     0.100 C 
ENDROOT
BRANCH   1   2
ATOM      2  C   UNL     1      93.944  94.092  76.460  1.00  0.00     0.220 C 
ATOM      3  N   UNL     1      94.715  93.697  77.512  1.00  0.00    -0.352 N 
ATOM      4  H   UNL     1      94.339  92.930  78.051  1.00  0.00     0.163 HD
ATOM      5  O   UNL     1      94.234  95.105  75.777  1.00  0.00    -0.275 OA
BRANCH   3   6
ATOM      6  C   UNL     1      95.967  94.279  77.877  1.00  0.00     0.151 C 
BRANCH   6   7
ATOM      7  C   UNL     1      95.999  94.760  79.285  1.00  0.00    -0.025 A 
ATOM      8  C   UNL     1      96.384  96.560  80.915  1.00  0.00     0.160 A 
ATOM      9  C   UNL     1      95.996  95.694  81.959  1.00  0.00     0.157 A 
ATOM     10  C   UNL     1      96.401  96.082  79.587  1.00  0.00     0.056 A 
ATOM     11  C   UNL     1      95.621  94.369  81.673  1.00  0.00     0.050 A 
ATOM     12  C   UNL     1      95.617  93.907  80.346  1.00  0.00     0.009 A 
BRANCH   8  13
ATOM     13  O   UNL     1      96.772  97.849  81.174  1.00  0.00    -0.493 OA
ATOM     14  C   UNL     1      98.091  98.168  80.690  1.00  0.00     0.278 C 
ENDBRANCH   8  13
BRANCH   9  15
ATOM     15  O   UNL     1      95.979  96.143  83.239  1.00  0.00    -0.504 OA
ATOM     16  H   UNL     1      95.161  95.871  83.663  1.00  0.00     0.293 HD
ENDBRANCH   9  15
ENDBRANCH   6   7
ENDBRANCH   3   6
ENDBRANCH   1   2
BRANCH   1  17
ATOM     17  C   UNL     1      91.913  93.898  74.937  1.00  0.00     0.010 C 
BRANCH  17  18
ATOM     18  C   UNL     1      91.085  92.813  74.195  1.00  0.00     0.001 C 
BRANCH  18  19
ATOM     19  C   UNL     1      91.860  91.486  73.980  1.00  0.00     0.000 C 
BRANCH  19  20
ATOM     20  C   UNL     1      91.329  90.340  74.889  1.00  0.00     0.003 C 
BRANCH  20  21
ATOM     21  C   UNL     1      90.632  89.165  74.130  1.00  0.00    -0.017 C 
ATOM     22  C   UNL     1      89.086  89.228  74.307  1.00  0.00     0.007 C 
ATOM     23  C   UNL     1      91.162  87.767  74.564  1.00  0.00     0.007 C 
ENDBRANCH  20  21
ENDBRANCH  19  20
ENDBRANCH  18  19
ENDBRANCH  17  18
ENDBRANCH   1  17
TORSDOF 10
ENDMDL
MODEL 5
REMARK VINA RESULT:    -5.529      4.028      5.938
REMARK INTER + INTRA:          -9.419
REMARK INTER:                  -8.662
REMARK INTRA:                  -0.757
REMARK UNBOUND:                -0.819
REMARK SMILES COc1cc(CNC(=O)CCCCCC(C)C)ccc1O
REMARK SMILES IDX 10 1 8 2 7 3 9 5 6 6 5 7 3 8 20 9 4 10 19 11 18 12 2 13 1 14
REMARK SMILES IDX 21 15 11 17 12 18 13 19 14 20 15 21 16 22 17 23
REMARK H PARENT 7 4 21 16
REMARK Flexibility Score: inf
ROOT
ATOM      1  C   UNL     1      93.740  94.465  76.240  1.00  0.00     0.100 C 
ENDROOT
BRANCH   1   2
ATOM      2  C   UNL     1      94.586  95.239  75.308  1.00  0.00     0.220 C 
ATOM      3  N   UNL     1      94.130  96.427  74.819  1.00  0.00    -0.352 N 
ATOM      4  H   UNL     1      93.165  96.633  75.035  1.00  0.00     0.163 HD
ATOM      5  O   UNL     1      95.728  94.805  75.018  1.00  0.00    -0.275 OA
BRANCH   3   6
ATOM      6  C   UNL     1      94.904  97.352  74.055  1.00  0.00     0.151 C 
BRANCH   6   7
ATOM      7  C   UNL     1      94.073  98.243  73.201  1.00  0.00    -0.025 A 
ATOM      8  C   UNL     1      92.872 100.363  72.865  1.00  0.00     0.160 A 
ATOM      9  C   UNL     1      92.547  99.968  71.550  1.00  0.00     0.157 A 
ATOM     10  C   UNL     1      93.616  99.491  73.688  1.00  0.00     0.056 A 
ATOM     11  C   UNL     1      92.973  98.718  71.064  1.00  0.00     0.050 A 
ATOM     12  C   UNL     1      93.735  97.865  71.880  1.00  0.00     0.009 A 
BRANCH   8  13
ATOM     13  O   UNL     1      92.450 101.567  73.364  1.00  0.00    -0.493 OA
ATOM     14  C   UNL     1      91.771 101.467  74.631  1.00  0.00     0.278 C 
ENDBRANCH   8  13
BRANCH   9  15
ATOM     15  O   UNL     1      91.831 100.798  70.752  1.00  0.00    -0.504 OA
ATOM     16  H   UNL     1      91.942 100.535  69.835  1.00  0.00     0.293 HD
ENDBRANCH   9  15
ENDBRANCH   6   7
ENDBRANCH   3   6
ENDBRANCH   1   2
BRANCH   1  17
ATOM     17  C   UNL     1      92.465  93.860  75.593  1.00  0.00     0.010 C 
BRANCH  17  18
ATOM     18  C   UNL     1      91.172  94.490  76.180  1.00  0.00     0.001 C 
BRANCH  18  19
ATOM     19  C   UNL     1      90.275  93.471  76.931  1.00  0.00     0.000 C 
BRANCH  19  20
ATOM     20  C   UNL     1      91.029  92.148  77.250  1.00  0.00     0.003 C 
BRANCH  20  21
ATOM     21  C   UNL     1      90.420  90.865  76.597  1.00  0.00    -0.017 C 
ATOM     22  C   UNL     1      91.146  90.523  75.262  1.00  0.00     0.007 C 
ATOM     23  C   UNL     1      88.886  90.980  76.356  1.00  0.00     0.007 C 
ENDBRANCH  20  21
ENDBRANCH  19  20
ENDBRANCH  18  19
ENDBRANCH  17  18
ENDBRANCH   1  17
TORSDOF 10
ENDMDL
MODEL 6
REMARK VINA RESULT:    -5.504     12.309     14.130
REMARK INTER + INTRA:          -9.380
REMARK INTER:                  -8.661
REMARK INTRA:                  -0.719
REMARK UNBOUND:                -0.819
REMARK SMILES COc1cc(CNC(=O)CCCCCC(C)C)ccc1O
REMARK SMILES IDX 10 1 8 2 7 3 9 5 6 6 5 7 3 8 20 9 4 10 19 11 18 12 2 13 1 14
REMARK SMILES IDX 21 15 11 17 12 18 13 19 14 20 15 21 16 22 17 23
REMARK H PARENT 7 4 21 16
REMARK Flexibility Score: inf
ROOT
ATOM      1  C   UNL     1      97.500  83.926  83.548  1.00  0.00     0.100 C 
ENDROOT
BRANCH   1   2
ATOM      2  C   UNL     1      97.760  82.911  82.506  1.00  0.00     0.220 C 
ATOM      3  N   UNL     1      98.587  83.215  81.466  1.00  0.00    -0.352 N 
ATOM      4  H   UNL     1      98.866  84.185  81.415  1.00  0.00     0.163 HD
ATOM      5  O   UNL     1      97.245  81.772  82.624  1.00  0.00    -0.275 OA
BRANCH   3   6
ATOM      6  C   UNL     1      99.058  82.284  80.492  1.00  0.00     0.151 C 
BRANCH   6   7
ATOM      7  C   UNL     1      98.418  82.458  79.160  1.00  0.00    -0.025 A 
ATOM      8  C   UNL     1      98.603  82.864  76.742  1.00  0.00     0.160 A 
ATOM      9  C   UNL     1      97.205  82.721  76.613  1.00  0.00     0.157 A 
ATOM     10  C   UNL     1      99.198  82.750  78.016  1.00  0.00     0.056 A 
ATOM     11  C   UNL     1      96.416  82.457  77.748  1.00  0.00     0.050 A 
ATOM     12  C   UNL     1      97.018  82.321  79.011  1.00  0.00     0.009 A 
BRANCH   8  13
ATOM     13  O   UNL     1      99.386  83.141  75.652  1.00  0.00    -0.493 OA
ATOM     14  C   UNL     1     100.082  81.994  75.129  1.00  0.00     0.278 C 
ENDBRANCH   8  13
BRANCH   9  15
ATOM     15  O   UNL     1      96.622  82.831  75.393  1.00  0.00    -0.504 OA
ATOM     16  H   UNL     1      96.077  82.058  75.228  1.00  0.00     0.293 HD
ENDBRANCH   9  15
ENDBRANCH   6   7
ENDBRANCH   3   6
ENDBRANCH   1   2
BRANCH   1  17
ATOM     17  C   UNL     1      96.409  83.521  84.576  1.00  0.00     0.010 C 
BRANCH  17  18
ATOM     18  C   UNL     1      96.949  83.566  86.032  1.00  0.00     0.001 C 
BRANCH  18  19
ATOM     19  C   UNL     1      95.916  84.106  87.056  1.00  0.00     0.000 C 
BRANCH  19  20
ATOM     20  C   UNL     1      95.209  85.397  86.553  1.00  0.00     0.003 C 
BRANCH  20  21
ATOM     21  C   UNL     1      93.647  85.364  86.621  1.00  0.00    -0.017 C 
ATOM     22  C   UNL     1      93.147  85.687  88.060  1.00  0.00     0.007 C 
ATOM     23  C   UNL     1      93.050  84.010  86.140  1.00  0.00     0.007 C 
ENDBRANCH  20  21
ENDBRANCH  19  20
ENDBRANCH  18  19
ENDBRANCH  17  18
ENDBRANCH   1  17
TORSDOF 10
ENDMDL
MODEL 7
REMARK VINA RESULT:    -5.418     27.645     30.113
REMARK INTER + INTRA:          -9.247
REMARK INTER:                  -8.500
REMARK INTRA:                  -0.746
REMARK UNBOUND:                -0.819
REMARK SMILES COc1cc(CNC(=O)CCCCCC(C)C)ccc1O
REMARK SMILES IDX 10 1 8 2 7 3 9 5 6 6 5 7 3 8 20 9 4 10 19 11 18 12 2 13 1 14
REMARK SMILES IDX 21 15 11 17 12 18 13 19 14 20 15 21 16 22 17 23
REMARK H PARENT 7 4 21 16
REMARK Flexibility Score: inf
ROOT
ATOM      1  C   UNL     1      85.133  64.717  77.219  1.00  0.00     0.100 C 
ENDROOT
BRANCH   1   2
ATOM      2  C   UNL     1      84.055  65.662  76.858  1.00  0.00     0.220 C 
ATOM      3  N   UNL     1      82.831  65.178  76.504  1.00  0.00    -0.352 N 
ATOM      4  H   UNL     1      82.789  64.176  76.386  1.00  0.00     0.163 HD
ATOM      5  O   UNL     1      84.279  66.895  76.926  1.00  0.00    -0.275 OA
BRANCH   3   6
ATOM      6  C   UNL     1      81.662  65.971  76.301  1.00  0.00     0.151 C 
BRANCH   6   7
ATOM      7  C   UNL     1      81.187  65.962  74.891  1.00  0.00    -0.025 A 
ATOM      8  C   UNL     1      81.019  67.047  72.691  1.00  0.00     0.160 A 
ATOM      9  C   UNL     1      80.341  65.916  72.188  1.00  0.00     0.157 A 
ATOM     10  C   UNL     1      81.421  67.070  74.043  1.00  0.00     0.056 A 
ATOM     11  C   UNL     1      80.079  64.820  73.029  1.00  0.00     0.050 A 
ATOM     12  C   UNL     1      80.503  64.839  74.369  1.00  0.00     0.009 A 
BRANCH   8  13
ATOM     13  O   UNL     1      81.267  68.133  71.893  1.00  0.00    -0.493 OA
ATOM     14  C   UNL     1      82.565  68.113  71.268  1.00  0.00     0.278 C 
ENDBRANCH   8  13
BRANCH   9  15
ATOM     15  O   UNL     1      79.948  65.884  70.890  1.00  0.00    -0.504 OA
ATOM     16  H   UNL     1      79.364  66.625  70.713  1.00  0.00     0.293 HD
ENDBRANCH   9  15
ENDBRANCH   6   7
ENDBRANCH   3   6
ENDBRANCH   1   2
BRANCH   1  17
ATOM     17  C   UNL     1      85.445  64.656  78.739  1.00  0.00     0.010 C 
BRANCH  17  18
ATOM     18  C   UNL     1      85.701  63.198  79.212  1.00  0.00     0.001 C 
BRANCH  18  19
ATOM     19  C   UNL     1      85.400  62.977  80.718  1.00  0.00     0.000 C 
BRANCH  19  20
ATOM     20  C   UNL     1      85.097  64.312  81.459  1.00  0.00     0.003 C 
BRANCH  20  21
ATOM     21  C   UNL     1      86.202  64.773  82.465  1.00  0.00    -0.017 C 
ATOM     22  C   UNL     1      86.569  66.269  82.239  1.00  0.00     0.007 C 
ATOM     23  C   UNL     1      87.484  63.893  82.401  1.00  0.00     0.007 C 
ENDBRANCH  20  21
ENDBRANCH  19  20
ENDBRANCH  18  19
ENDBRANCH  17  18
ENDBRANCH   1  17
TORSDOF 10
ENDMDL
MODEL 8
REMARK VINA RESULT:    -5.397      3.833      6.010
REMARK INTER + INTRA:          -9.214
REMARK INTER:                  -8.455
REMARK INTRA:                  -0.759
REMARK UNBOUND:                -0.819
REMARK SMILES COc1cc(CNC(=O)CCCCCC(C)C)ccc1O
REMARK SMILES IDX 10 1 8 2 7 3 9 5 6 6 5 7 3 8 20 9 4 10 19 11 18 12 2 13 1 14
REMARK SMILES IDX 21 15 11 17 12 18 13 19 14 20 15 21 16 22 17 23
REMARK H PARENT 7 4 21 16
REMARK Flexibility Score: inf
ROOT
ATOM      1  C   UNL     1      94.621  94.567  76.966  1.00  0.00     0.100 C 
ENDROOT
BRANCH   1   2
ATOM      2  C   UNL     1      95.377  94.961  75.759  1.00  0.00     0.220 C 
ATOM      3  N   UNL     1      95.611  96.282  75.517  1.00  0.00    -0.352 N 
ATOM      4  H   UNL     1      95.124  96.919  76.131  1.00  0.00     0.163 HD
ATOM      5  O   UNL     1      95.825  94.066  75.002  1.00  0.00    -0.275 OA
BRANCH   3   6
ATOM      6  C   UNL     1      96.467  96.791  74.494  1.00  0.00     0.151 C 
BRANCH   6   7
ATOM      7  C   UNL     1      95.722  97.334  73.326  1.00  0.00    -0.025 A 
ATOM      8  C   UNL     1      95.601  97.845  70.923  1.00  0.00     0.160 A 
ATOM      9  C   UNL     1      94.278  98.306  71.090  1.00  0.00     0.157 A 
ATOM     10  C   UNL     1      96.321  97.380  72.045  1.00  0.00     0.056 A 
ATOM     11  C   UNL     1      93.682  98.289  72.364  1.00  0.00     0.050 A 
ATOM     12  C   UNL     1      94.395  97.802  73.473  1.00  0.00     0.009 A 
BRANCH   8  13
ATOM     13  O   UNL     1      96.207  97.871  69.695  1.00  0.00    -0.493 OA
ATOM     14  C   UNL     1      96.691  96.586  69.257  1.00  0.00     0.278 C 
ENDBRANCH   8  13
BRANCH   9  15
ATOM     15  O   UNL     1      93.578  98.757  70.019  1.00  0.00    -0.504 OA
ATOM     16  H   UNL     1      93.258  98.010  69.508  1.00  0.00     0.293 HD
ENDBRANCH   9  15
ENDBRANCH   6   7
ENDBRANCH   3   6
ENDBRANCH   1   2
BRANCH   1  17
ATOM     17  C   UNL     1      93.416  93.629  76.686  1.00  0.00     0.010 C 
BRANCH  17  18
ATOM     18  C   UNL     1      92.088  94.425  76.561  1.00  0.00     0.001 C 
BRANCH  18  19
ATOM     19  C   UNL     1      90.842  93.520  76.372  1.00  0.00     0.000 C 
BRANCH  19  20
ATOM     20  C   UNL     1      91.227  92.031  76.134  1.00  0.00     0.003 C 
BRANCH  20  21
ATOM     21  C   UNL     1      90.364  90.992  76.920  1.00  0.00    -0.017 C 
ATOM     22  C   UNL     1      88.906  90.953  76.373  1.00  0.00     0.007 C 
ATOM     23  C   UNL     1      90.352  91.254  78.454  1.00  0.00     0.007 C 
ENDBRANCH  20  21
ENDBRANCH  19  20
ENDBRANCH  18  19
ENDBRANCH  17  18
ENDBRANCH   1  17
TORSDOF 10
ENDMDL
MODEL 9
REMARK VINA RESULT:    -5.376     26.195     29.290
REMARK INTER + INTRA:          -9.182
REMARK INTER:                  -7.360
REMARK INTRA:                  -1.822
REMARK UNBOUND:                -0.819
REMARK SMILES COc1cc(CNC(=O)CCCCCC(C)C)ccc1O
REMARK SMILES IDX 10 1 8 2 7 3 9 5 6 6 5 7 3 8 20 9 4 10 19 11 18 12 2 13 1 14
REMARK SMILES IDX 21 15 11 17 12 18 13 19 14 20 15 21 16 22 17 23
REMARK H PARENT 7 4 21 16
REMARK Flexibility Score: inf
ROOT
ATOM      1  C   UNL     1      80.506  67.473  73.085  1.00  0.00     0.100 C 
ENDROOT
BRANCH   1   2
ATOM      2  C   UNL     1      80.829  66.409  74.058  1.00  0.00     0.220 C 
ATOM      3  N   UNL     1      81.070  65.144  73.613  1.00  0.00    -0.352 N 
ATOM      4  H   UNL     1      80.877  64.995  72.633  1.00  0.00     0.163 HD
ATOM      5  O   UNL     1      80.916  66.704  75.275  1.00  0.00    -0.275 OA
BRANCH   3   6
ATOM      6  C   UNL     1      81.559  64.069  74.415  1.00  0.00     0.151 C 
BRANCH   6   7
ATOM      7  C   UNL     1      83.040  64.071  74.557  1.00  0.00    -0.025 A 
ATOM      8  C   UNL     1      85.055  63.635  75.897  1.00  0.00     0.160 A 
ATOM      9  C   UNL     1      85.862  64.012  74.803  1.00  0.00     0.157 A 
ATOM     10  C   UNL     1      83.650  63.685  75.774  1.00  0.00     0.056 A 
ATOM     11  C   UNL     1      85.266  64.423  73.596  1.00  0.00     0.050 A 
ATOM     12  C   UNL     1      83.866  64.447  73.472  1.00  0.00     0.009 A 
BRANCH   8  13
ATOM     13  O   UNL     1      85.615  63.251  77.087  1.00  0.00    -0.493 OA
ATOM     14  C   UNL     1      85.497  64.236  78.131  1.00  0.00     0.278 C 
ENDBRANCH   8  13
BRANCH   9  15
ATOM     15  O   UNL     1      87.213  63.969  74.912  1.00  0.00    -0.504 OA
ATOM     16  H   UNL     1      87.605  64.561  74.266  1.00  0.00     0.293 HD
ENDBRANCH   9  15
ENDBRANCH   6   7
ENDBRANCH   3   6
ENDBRANCH   1   2
BRANCH   1  17
ATOM     17  C   UNL     1      80.529  67.010  71.603  1.00  0.00     0.010 C 
BRANCH  17  18
ATOM     18  C   UNL     1      81.666  67.706  70.804  1.00  0.00     0.001 C 
BRANCH  18  19
ATOM     19  C   UNL     1      82.918  66.812  70.608  1.00  0.00     0.000 C 
BRANCH  19  20
ATOM     20  C   UNL     1      84.201  67.456  71.210  1.00  0.00     0.003 C 
BRANCH  20  21
ATOM     21  C   UNL     1      83.942  68.575  72.271  1.00  0.00    -0.017 C 
ATOM     22  C   UNL     1      84.707  69.880  71.901  1.00  0.00     0.007 C 
ATOM     23  C   UNL     1      84.309  68.132  73.718  1.00  0.00     0.007 C 
ENDBRANCH  20  21
ENDBRANCH  19  20
ENDBRANCH  18  19
ENDBRANCH  17  18
ENDBRANCH   1  17
TORSDOF 10
ENDMDL
MODEL 10
REMARK VINA RESULT:    -5.370     24.875     27.400
REMARK INTER + INTRA:          -9.171
REMARK INTER:                  -7.702
REMARK INTRA:                  -1.469
REMARK UNBOUND:                -0.819
REMARK SMILES COc1cc(CNC(=O)CCCCCC(C)C)ccc1O
REMARK SMILES IDX 10 1 8 2 7 3 9 5 6 6 5 7 3 8 20 9 4 10 19 11 18 12 2 13 1 14
REMARK SMILES IDX 21 15 11 17 12 18 13 19 14 20 15 21 16 22 17 23
REMARK H PARENT 7 4 21 16
REMARK Flexibility Score: inf
ROOT
ATOM      1  C   UNL     1      80.449  65.352  74.499  1.00  0.00     0.100 C 
ENDROOT
BRANCH   1   2
ATOM      2  C   UNL     1      81.638  65.329  75.376  1.00  0.00     0.220 C 
ATOM      3  N   UNL     1      82.881  65.374  74.819  1.00  0.00    -0.352 N 
ATOM      4  H   UNL     1      82.900  65.286  73.813  1.00  0.00     0.163 HD
ATOM      5  O   UNL     1      81.476  65.311  76.621  1.00  0.00    -0.275 OA
BRANCH   3   6
ATOM      6  C   UNL     1      84.101  65.532  75.545  1.00  0.00     0.151 C 
BRANCH   6   7
ATOM      7  C   UNL     1      84.715  66.876  75.370  1.00  0.00    -0.025 A 
ATOM      8  C   UNL     1      85.485  69.009  76.321  1.00  0.00     0.160 A 
ATOM      9  C   UNL     1      85.944  69.409  75.048  1.00  0.00     0.157 A 
ATOM     10  C   UNL     1      84.856  67.754  76.470  1.00  0.00     0.056 A 
ATOM     11  C   UNL     1      85.785  68.554  73.942  1.00  0.00     0.050 A 
ATOM     12  C   UNL     1      85.180  67.296  74.102  1.00  0.00     0.009 A 
BRANCH   8  13
ATOM     13  O   UNL     1      85.612  69.834  77.408  1.00  0.00    -0.493 OA
ATOM     14  C   UNL     1      86.690  69.470  78.291  1.00  0.00     0.278 C 
ENDBRANCH   8  13
BRANCH   9  15
ATOM     15  O   UNL     1      86.548  70.614  74.894  1.00  0.00    -0.504 OA
ATOM     16  H   UNL     1      87.491  70.521  75.043  1.00  0.00     0.293 HD
ENDBRANCH   9  15
ENDBRANCH   6   7
ENDBRANCH   3   6
ENDBRANCH   1   2
BRANCH   1  17
ATOM     17  C   UNL     1      80.732  64.938  73.030  1.00  0.00     0.010 C 
BRANCH  17  18
ATOM     18  C   UNL     1      80.210  66.001  72.025  1.00  0.00     0.001 C 
BRANCH  18  19
ATOM     19  C   UNL     1      80.452  67.461  72.492  1.00  0.00     0.000 C 
BRANCH  19  20
ATOM     20  C   UNL     1      81.964  67.827  72.519  1.00  0.00     0.003 C 
BRANCH  20  21
ATOM     21  C   UNL     1      82.570  68.233  71.136  1.00  0.00    -0.017 C 
ATOM     22  C   UNL     1      83.475  67.098  70.572  1.00  0.00     0.007 C 
ATOM     23  C   UNL     1      83.365  69.570  71.194  1.00  0.00     0.007 C 
ENDBRANCH  20  21
ENDBRANCH  19  20
ENDBRANCH  18  19
ENDBRANCH  17  18
ENDBRANCH   1  17
TORSDOF 10
ENDMDL
