MODEL 1
REMARK VINA RESULT:    -5.764      0.000      0.000
REMARK INTER + INTRA:         -10.809
REMARK INTER:                  -9.302
REMARK INTRA:                  -1.507
REMARK UNBOUND:                -1.507
REMARK SMILES COc1cc(CNC(=O)CCCCC/C=C/C(C)C)ccc1O
REMARK SMILES IDX 11 1 10 2 8 3 7 4 9 6 6 7 5 8 3 9 22 10 4 11 21 12 20 13
REMARK SMILES IDX 2 14 1 15 23 16 12 18 13 19 14 20 15 21 16 22 17 23 18 24
REMARK SMILES IDX 19 25
REMARK H PARENT 7 5 23 17
REMARK Flexibility Score: inf
ROOT
ATOM      1  C   UNL     1      81.034  65.930  76.659  1.00  0.00     0.010 C 
ENDROOT
BRANCH   1   2
ATOM      2  C   UNL     1      82.184  64.981  76.235  1.00  0.00     0.100 C 
BRANCH   2   3
ATOM      3  C   UNL     1      83.491  65.648  76.091  1.00  0.00     0.220 C 
ATOM      4  N   UNL     1      83.627  66.696  75.232  1.00  0.00    -0.352 N 
ATOM      5  H   UNL     1      82.804  66.899  74.682  1.00  0.00     0.163 HD
ATOM      6  O   UNL     1      84.444  65.252  76.804  1.00  0.00    -0.275 OA
BRANCH   4   7
ATOM      7  C   UNL     1      84.802  67.488  75.069  1.00  0.00     0.151 C 
BRANCH   7   8
ATOM      8  C   UNL     1      84.703  68.429  73.924  1.00  0.00    -0.025 A 
ATOM      9  C   UNL     1      85.145  70.633  72.925  1.00  0.00     0.160 A 
ATOM     10  C   UNL     1      84.462  70.239  71.754  1.00  0.00     0.157 A 
ATOM     11  C   UNL     1      85.253  69.730  74.003  1.00  0.00     0.056 A 
ATOM     12  C   UNL     1      83.926  68.942  71.658  1.00  0.00     0.050 A 
ATOM     13  C   UNL     1      84.054  68.040  72.731  1.00  0.00     0.009 A 
BRANCH   9  14
ATOM     14  O   UNL     1      85.747  71.862  72.996  1.00  0.00    -0.493 OA
ATOM     15  C   UNL     1      85.137  72.761  73.936  1.00  0.00     0.278 C 
ENDBRANCH   9  14
BRANCH  10  16
ATOM     16  O   UNL     1      84.312  71.087  70.706  1.00  0.00    -0.504 OA
ATOM     17  H   UNL     1      83.377  71.247  70.556  1.00  0.00     0.293 HD
ENDBRANCH  10  16
ENDBRANCH   7   8
ENDBRANCH   4   7
ENDBRANCH   2   3
ENDBRANCH   1   2
BRANCH   1  18
ATOM     18  C   UNL     1      79.868  65.888  75.638  1.00  0.00     0.001 C 
BRANCH  18  19
ATOM     19  C   UNL     1      80.255  65.256  74.277  1.00  0.00     0.004 C 
BRANCH  19  20
ATOM     20  C   UNL     1      80.633  66.344  73.234  1.00  0.00     0.027 C 
BRANCH  20  21
ATOM     21  C   UNL     1      81.077  65.803  71.961  1.00  0.00    -0.031 C 
ATOM     22  C   UNL     1      80.963  66.489  70.809  1.00  0.00    -0.028 C 
BRANCH  22  23
ATOM     23  C   UNL     1      81.404  65.976  69.515  1.00  0.00     0.005 C 
ATOM     24  C   UNL     1      80.336  65.019  68.922  1.00  0.00     0.012 C 
ATOM     25  C   UNL     1      81.739  67.152  68.557  1.00  0.00     0.012 C 
ENDBRANCH  22  23
ENDBRANCH  20  21
ENDBRANCH  19  20
ENDBRANCH  18  19
ENDBRANCH   1  18
TORSDOF 11
ENDMDL
MODEL 2
REMARK VINA RESULT:    -5.745     17.770     21.230
REMARK INTER + INTRA:         -10.778
REMARK INTER:                 -10.161
REMARK INTRA:                  -0.617
REMARK UNBOUND:                -1.507
REMARK SMILES COc1cc(CNC(=O)CCCCC/C=C/C(C)C)ccc1O
REMARK SMILES IDX 11 1 10 2 8 3 7 4 9 6 6 7 5 8 3 9 22 10 4 11 21 12 20 13
REMARK SMILES IDX 2 14 1 15 23 16 12 18 13 19 14 20 15 21 16 22 17 23 18 24
REMARK SMILES IDX 19 25
REMARK H PARENT 7 5 23 17
REMARK Flexibility Score: inf
ROOT
ATOM      1  C   UNL     1      95.263  80.912  83.884  1.00  0.00     0.010 C 
ENDROOT
BRANCH   1   2
ATOM      2  C   UNL     1      95.164  82.430  84.185  1.00  0.00     0.100 C 
BRANCH   2   3
ATOM      3  C   UNL     1      94.431  82.750  85.424  1.00  0.00     0.220 C 
ATOM      4  N   UNL     1      93.073  82.850  85.402  1.00  0.00    -0.352 N 
ATOM      5  H   UNL     1      92.659  82.764  84.484  1.00  0.00     0.163 HD
ATOM      6  O   UNL     1      95.085  82.883  86.486  1.00  0.00    -0.275 OA
BRANCH   4   7
ATOM      7  C   UNL     1      92.238  83.057  86.540  1.00  0.00     0.151 C 
BRANCH   7   8
ATOM      8  C   UNL     1      91.011  82.219  86.509  1.00  0.00    -0.025 A 
ATOM      9  C   UNL     1      89.393  80.845  85.266  1.00  0.00     0.160 A 
ATOM     10  C   UNL     1      88.640  80.666  86.446  1.00  0.00     0.157 A 
ATOM     11  C   UNL     1      90.566  81.627  85.303  1.00  0.00     0.056 A 
ATOM     12  C   UNL     1      89.082  81.236  87.654  1.00  0.00     0.050 A 
ATOM     13  C   UNL     1      90.265  81.998  87.687  1.00  0.00     0.009 A 
BRANCH   9  14
ATOM     14  O   UNL     1      89.020  80.223  84.104  1.00  0.00    -0.493 OA
ATOM     15  C   UNL     1      89.856  79.113  83.737  1.00  0.00     0.278 C 
ENDBRANCH   9  14
BRANCH  10  16
ATOM     16  O   UNL     1      87.491  79.945  86.446  1.00  0.00    -0.504 OA
ATOM     17  H   UNL     1      87.126  79.925  87.335  1.00  0.00     0.293 HD
ENDBRANCH  10  16
ENDBRANCH   7   8
ENDBRANCH   4   7
ENDBRANCH   2   3
ENDBRANCH   1   2
BRANCH   1  18
ATOM     18  C   UNL     1      96.435  80.609  82.916  1.00  0.00     0.001 C 
BRANCH  18  19
ATOM     19  C   UNL     1      96.668  81.713  81.854  1.00  0.00     0.004 C 
BRANCH  19  20
ATOM     20  C   UNL     1      97.297  81.130  80.558  1.00  0.00     0.027 C 
BRANCH  20  21
ATOM     21  C   UNL     1      97.166  82.000  79.402  1.00  0.00    -0.031 C 
ATOM     22  C   UNL     1      97.492  81.600  78.160  1.00  0.00    -0.028 C 
BRANCH  22  23
ATOM     23  C   UNL     1      97.367  82.448  76.977  1.00  0.00     0.005 C 
ATOM     24  C   UNL     1      98.167  81.841  75.794  1.00  0.00     0.012 C 
ATOM     25  C   UNL     1      95.870  82.664  76.627  1.00  0.00     0.012 C 
ENDBRANCH  22  23
ENDBRANCH  20  21
ENDBRANCH  19  20
ENDBRANCH  18  19
ENDBRANCH   1  18
TORSDOF 11
ENDMDL
MODEL 3
REMARK VINA RESULT:    -5.617     17.858     20.657
REMARK INTER + INTRA:         -10.572
REMARK INTER:                 -10.007
REMARK INTRA:                  -0.566
REMARK UNBOUND:                -1.507
REMARK SMILES COc1cc(CNC(=O)CCCCC/C=C/C(C)C)ccc1O
REMARK SMILES IDX 11 1 10 2 8 3 7 4 9 6 6 7 5 8 3 9 22 10 4 11 21 12 20 13
REMARK SMILES IDX 2 14 1 15 23 16 12 18 13 19 14 20 15 21 16 22 17 23 18 24
REMARK SMILES IDX 19 25
REMARK H PARENT 7 5 23 17
REMARK Flexibility Score: inf
ROOT
ATOM      1  C   UNL     1      95.662  81.226  83.399  1.00  0.00     0.010 C 
ENDROOT
BRANCH   1   2
ATOM      2  C   UNL     1      96.601  82.183  82.620  1.00  0.00     0.100 C 
BRANCH   2   3
ATOM      3  C   UNL     1      97.384  81.523  81.559  1.00  0.00     0.220 C 
ATOM      4  N   UNL     1      97.386  82.037  80.298  1.00  0.00    -0.352 N 
ATOM      5  H   UNL     1      96.766  82.824  80.163  1.00  0.00     0.163 HD
ATOM      6  O   UNL     1      98.068  80.516  81.862  1.00  0.00    -0.275 OA
BRANCH   4   7
ATOM      7  C   UNL     1      98.171  81.557  79.208  1.00  0.00     0.151 C 
BRANCH   7   8
ATOM      8  C   UNL     1      97.611  81.943  77.886  1.00  0.00    -0.025 A 
ATOM      9  C   UNL     1      97.843  82.154  75.447  1.00  0.00     0.160 A 
ATOM     10  C   UNL     1      96.557  82.731  75.375  1.00  0.00     0.157 A 
ATOM     11  C   UNL     1      98.364  81.773  76.701  1.00  0.00     0.056 A 
ATOM     12  C   UNL     1      95.792  82.889  76.546  1.00  0.00     0.050 A 
ATOM     13  C   UNL     1      96.311  82.488  77.791  1.00  0.00     0.009 A 
BRANCH   9  14
ATOM     14  O   UNL     1      98.560  81.915  74.304  1.00  0.00    -0.493 OA
ATOM     15  C   UNL     1      98.431  80.575  73.799  1.00  0.00     0.278 C 
ENDBRANCH   9  14
BRANCH  10  16
ATOM     16  O   UNL     1      96.031  83.136  74.192  1.00  0.00    -0.504 OA
ATOM     17  H   UNL     1      95.176  83.546  74.346  1.00  0.00     0.293 HD
ENDBRANCH  10  16
ENDBRANCH   7   8
ENDBRANCH   4   7
ENDBRANCH   2   3
ENDBRANCH   1   2
BRANCH   1  18
ATOM     18  C   UNL     1      95.360  81.771  84.818  1.00  0.00     0.001 C 
BRANCH  18  19
ATOM     19  C   UNL     1      93.848  81.952  85.107  1.00  0.00     0.004 C 
BRANCH  19  20
ATOM     20  C   UNL     1      93.056  80.644  84.825  1.00  0.00     0.027 C 
BRANCH  20  21
ATOM     21  C   UNL     1      91.659  80.711  85.215  1.00  0.00    -0.031 C 
ATOM     22  C   UNL     1      90.658  80.475  84.348  1.00  0.00    -0.028 C 
BRANCH  22  23
ATOM     23  C   UNL     1      89.244  80.529  84.710  1.00  0.00     0.005 C 
ATOM     24  C   UNL     1      88.656  81.926  84.375  1.00  0.00     0.012 C 
ATOM     25  C   UNL     1      88.467  79.380  84.012  1.00  0.00     0.012 C 
ENDBRANCH  22  23
ENDBRANCH  20  21
ENDBRANCH  19  20
ENDBRANCH  18  19
ENDBRANCH   1  18
TORSDOF 11
ENDMDL
MODEL 4
REMARK VINA RESULT:    -5.407      2.817      5.390
REMARK INTER + INTRA:         -10.232
REMARK INTER:                  -8.371
REMARK INTRA:                  -1.861
REMARK UNBOUND:                -1.507
REMARK SMILES COc1cc(CNC(=O)CCCCC/C=C/C(C)C)ccc1O
REMARK SMILES IDX 11 1 10 2 8 3 7 4 9 6 6 7 5 8 3 9 22 10 4 11 21 12 20 13
REMARK SMILES IDX 2 14 1 15 23 16 12 18 13 19 14 20 15 21 16 22 17 23 18 24
REMARK SMILES IDX 19 25
REMARK H PARENT 7 5 23 17
REMARK Flexibility Score: inf
ROOT
ATOM      1  C   UNL     1      85.174  65.605  76.624  1.00  0.00     0.010 C 
ENDROOT
BRANCH   1   2
ATOM      2  C   UNL     1      84.779  67.099  76.753  1.00  0.00     0.100 C 
BRANCH   2   3
ATOM      3  C   UNL     1      84.147  67.659  75.544  1.00  0.00     0.220 C 
ATOM      4  N   UNL     1      82.980  67.131  75.082  1.00  0.00    -0.352 N 
ATOM      5  H   UNL     1      82.660  66.314  75.584  1.00  0.00     0.163 HD
ATOM      6  O   UNL     1      84.689  68.646  74.991  1.00  0.00    -0.275 OA
BRANCH   4   7
ATOM      7  C   UNL     1      82.216  67.635  73.988  1.00  0.00     0.151 C 
BRANCH   7   8
ATOM      8  C   UNL     1      82.137  66.676  72.856  1.00  0.00    -0.025 A 
ATOM      9  C   UNL     1      83.240  65.231  71.199  1.00  0.00     0.160 A 
ATOM     10  C   UNL     1      81.980  64.888  70.661  1.00  0.00     0.157 A 
ATOM     11  C   UNL     1      83.309  66.128  72.284  1.00  0.00     0.056 A 
ATOM     12  C   UNL     1      80.807  65.414  71.232  1.00  0.00     0.050 A 
ATOM     13  C   UNL     1      80.884  66.293  72.328  1.00  0.00     0.009 A 
BRANCH   9  14
ATOM     14  O   UNL     1      84.382  64.657  70.707  1.00  0.00    -0.493 OA
ATOM     15  C   UNL     1      85.574  65.425  70.944  1.00  0.00     0.278 C 
ENDBRANCH   9  14
BRANCH  10  16
ATOM     16  O   UNL     1      81.871  64.051  69.599  1.00  0.00    -0.504 OA
ATOM     17  H   UNL     1      82.175  63.175  69.849  1.00  0.00     0.293 HD
ENDBRANCH  10  16
ENDBRANCH   7   8
ENDBRANCH   4   7
ENDBRANCH   2   3
ENDBRANCH   1   2
BRANCH   1  18
ATOM     18  C   UNL     1      84.914  64.842  77.949  1.00  0.00     0.001 C 
BRANCH  18  19
ATOM     19  C   UNL     1      84.113  63.529  77.764  1.00  0.00     0.004 C 
BRANCH  19  20
ATOM     20  C   UNL     1      83.446  63.464  76.362  1.00  0.00     0.027 C 
BRANCH  20  21
ATOM     21  C   UNL     1      82.010  63.685  76.387  1.00  0.00    -0.031 C 
ATOM     22  C   UNL     1      81.332  64.131  75.314  1.00  0.00    -0.028 C 
BRANCH  22  23
ATOM     23  C   UNL     1      79.890  64.358  75.306  1.00  0.00     0.005 C 
ATOM     24  C   UNL     1      79.138  63.063  75.712  1.00  0.00     0.012 C 
ATOM     25  C   UNL     1      79.530  65.560  76.221  1.00  0.00     0.012 C 
ENDBRANCH  22  23
ENDBRANCH  20  21
ENDBRANCH  19  20
ENDBRANCH  18  19
ENDBRANCH   1  18
TORSDOF 11
ENDMDL
MODEL 5
REMARK VINA RESULT:    -5.327     18.864     21.164
REMARK INTER + INTRA:         -10.104
REMARK INTER:                  -9.308
REMARK INTRA:                  -0.796
REMARK UNBOUND:                -1.507
REMARK SMILES COc1cc(CNC(=O)CCCCC/C=C/C(C)C)ccc1O
REMARK SMILES IDX 11 1 10 2 8 3 7 4 9 6 6 7 5 8 3 9 22 10 4 11 21 12 20 13
REMARK SMILES IDX 2 14 1 15 23 16 12 18 13 19 14 20 15 21 16 22 17 23 18 24
REMARK SMILES IDX 19 25
REMARK H PARENT 7 5 23 17
REMARK Flexibility Score: inf
ROOT
ATOM      1  C   UNL     1      70.475  83.703  66.114  1.00  0.00     0.010 C 
ENDROOT
BRANCH   1   2
ATOM      2  C   UNL     1      70.502  82.260  65.545  1.00  0.00     0.100 C 
BRANCH   2   3
ATOM      3  C   UNL     1      71.855  81.761  65.237  1.00  0.00     0.220 C 
ATOM      4  N   UNL     1      72.937  82.561  65.448  1.00  0.00    -0.352 N 
ATOM      5  H   UNL     1      72.714  83.501  65.745  1.00  0.00     0.163 HD
ATOM      6  O   UNL     1      71.975  80.584  64.821  1.00  0.00    -0.275 OA
BRANCH   4   7
ATOM      7  C   UNL     1      74.300  82.172  65.285  1.00  0.00     0.151 C 
BRANCH   7   8
ATOM      8  C   UNL     1      75.240  83.067  66.007  1.00  0.00    -0.025 A 
ATOM      9  C   UNL     1      75.663  84.814  67.686  1.00  0.00     0.160 A 
ATOM     10  C   UNL     1      77.032  84.812  67.343  1.00  0.00     0.157 A 
ATOM     11  C   UNL     1      74.777  83.950  67.011  1.00  0.00     0.056 A 
ATOM     12  C   UNL     1      77.507  83.926  66.358  1.00  0.00     0.050 A 
ATOM     13  C   UNL     1      76.620  83.053  65.702  1.00  0.00     0.009 A 
BRANCH   9  14
ATOM     14  O   UNL     1      75.205  85.609  68.703  1.00  0.00    -0.493 OA
ATOM     15  C   UNL     1      75.025  84.920  69.952  1.00  0.00     0.278 C 
ENDBRANCH   9  14
BRANCH  10  16
ATOM     16  O   UNL     1      77.913  85.648  67.948  1.00  0.00    -0.504 OA
ATOM     17  H   UNL     1      78.675  85.146  68.248  1.00  0.00     0.293 HD
ENDBRANCH  10  16
ENDBRANCH   7   8
ENDBRANCH   4   7
ENDBRANCH   2   3
ENDBRANCH   1   2
BRANCH   1  18
ATOM     18  C   UNL     1      69.409  83.844  67.230  1.00  0.00     0.001 C 
BRANCH  18  19
ATOM     19  C   UNL     1      69.499  85.179  68.012  1.00  0.00     0.004 C 
BRANCH  19  20
ATOM     20  C   UNL     1      69.977  84.948  69.473  1.00  0.00     0.027 C 
BRANCH  20  21
ATOM     21  C   UNL     1      68.920  85.081  70.461  1.00  0.00    -0.031 C 
ATOM     22  C   UNL     1      68.286  86.245  70.684  1.00  0.00    -0.028 C 
BRANCH  22  23
ATOM     23  C   UNL     1      67.216  86.410  71.665  1.00  0.00     0.005 C 
ATOM     24  C   UNL     1      67.455  85.476  72.882  1.00  0.00     0.012 C 
ATOM     25  C   UNL     1      67.094  87.901  72.081  1.00  0.00     0.012 C 
ENDBRANCH  22  23
ENDBRANCH  20  21
ENDBRANCH  19  20
ENDBRANCH  18  19
ENDBRANCH   1  18
TORSDOF 11
ENDMDL
MODEL 6
REMARK VINA RESULT:    -5.290     18.720     21.503
REMARK INTER + INTRA:         -10.045
REMARK INTER:                  -7.731
REMARK INTRA:                  -2.314
REMARK UNBOUND:                -1.507
REMARK SMILES COc1cc(CNC(=O)CCCCC/C=C/C(C)C)ccc1O
REMARK SMILES IDX 11 1 10 2 8 3 7 4 9 6 6 7 5 8 3 9 22 10 4 11 21 12 20 13
REMARK SMILES IDX 2 14 1 15 23 16 12 18 13 19 14 20 15 21 16 22 17 23 18 24
REMARK SMILES IDX 19 25
REMARK H PARENT 7 5 23 17
REMARK Flexibility Score: inf
ROOT
ATOM      1  C   UNL     1     101.433  78.232  74.861  1.00  0.00     0.010 C 
ENDROOT
BRANCH   1   2
ATOM      2  C   UNL     1     100.750  77.644  73.599  1.00  0.00     0.100 C 
BRANCH   2   3
ATOM      3  C   UNL     1      99.297  77.888  73.534  1.00  0.00     0.220 C 
ATOM      4  N   UNL     1      98.662  78.483  74.581  1.00  0.00    -0.352 N 
ATOM      5  H   UNL     1      99.247  78.655  75.387  1.00  0.00     0.163 HD
ATOM      6  O   UNL     1      98.687  77.572  72.485  1.00  0.00    -0.275 OA
BRANCH   4   7
ATOM      7  C   UNL     1      97.287  78.863  74.610  1.00  0.00     0.151 C 
BRANCH   7   8
ATOM      8  C   UNL     1      97.098  80.308  74.902  1.00  0.00    -0.025 A 
ATOM      9  C   UNL     1      96.958  82.161  76.513  1.00  0.00     0.160 A 
ATOM     10  C   UNL     1      96.684  83.057  75.457  1.00  0.00     0.157 A 
ATOM     11  C   UNL     1      97.154  80.794  76.229  1.00  0.00     0.056 A 
ATOM     12  C   UNL     1      96.643  82.587  74.131  1.00  0.00     0.050 A 
ATOM     13  C   UNL     1      96.859  81.225  73.854  1.00  0.00     0.009 A 
BRANCH   9  14
ATOM     14  O   UNL     1      97.086  82.621  77.796  1.00  0.00    -0.493 OA
ATOM     15  C   UNL     1      97.747  81.706  78.686  1.00  0.00     0.278 C 
ENDBRANCH   9  14
BRANCH  10  16
ATOM     16  O   UNL     1      96.462  84.375  75.690  1.00  0.00    -0.504 OA
ATOM     17  H   UNL     1      97.290  84.855  75.621  1.00  0.00     0.293 HD
ENDBRANCH  10  16
ENDBRANCH   7   8
ENDBRANCH   4   7
ENDBRANCH   2   3
ENDBRANCH   1   2
BRANCH   1  18
ATOM     18  C   UNL     1     102.655  79.106  74.481  1.00  0.00     0.001 C 
BRANCH  18  19
ATOM     19  C   UNL     1     102.528  80.584  74.928  1.00  0.00     0.004 C 
BRANCH  19  20
ATOM     20  C   UNL     1     101.062  80.939  75.303  1.00  0.00     0.027 C 
BRANCH  20  21
ATOM     21  C   UNL     1     100.502  82.022  74.512  1.00  0.00    -0.031 C 
ATOM     22  C   UNL     1     100.462  81.984  73.168  1.00  0.00    -0.028 C 
BRANCH  22  23
ATOM     23  C   UNL     1      99.901  83.052  72.345  1.00  0.00     0.005 C 
ATOM     24  C   UNL     1      99.681  84.330  73.198  1.00  0.00     0.012 C 
ATOM     25  C   UNL     1     100.811  83.315  71.114  1.00  0.00     0.012 C 
ENDBRANCH  22  23
ENDBRANCH  20  21
ENDBRANCH  19  20
ENDBRANCH  18  19
ENDBRANCH   1  18
TORSDOF 11
ENDMDL
MODEL 7
REMARK VINA RESULT:    -5.272     21.574     25.036
REMARK INTER + INTRA:         -10.015
REMARK INTER:                  -9.224
REMARK INTRA:                  -0.791
REMARK UNBOUND:                -1.507
REMARK SMILES COc1cc(CNC(=O)CCCCC/C=C/C(C)C)ccc1O
REMARK SMILES IDX 11 1 10 2 8 3 7 4 9 6 6 7 5 8 3 9 22 10 4 11 21 12 20 13
REMARK SMILES IDX 2 14 1 15 23 16 12 18 13 19 14 20 15 21 16 22 17 23 18 24
REMARK SMILES IDX 19 25
REMARK H PARENT 7 5 23 17
REMARK Flexibility Score: inf
ROOT
ATOM      1  C   UNL     1      75.684  90.206  68.843  1.00  0.00     0.010 C 
ENDROOT
BRANCH   1   2
ATOM      2  C   UNL     1      74.225  90.304  69.360  1.00  0.00     0.100 C 
BRANCH   2   3
ATOM      3  C   UNL     1      73.887  91.608  69.960  1.00  0.00     0.220 C 
ATOM      4  N   UNL     1      74.702  92.150  70.907  1.00  0.00    -0.352 N 
ATOM      5  H   UNL     1      75.471  91.559  71.190  1.00  0.00     0.163 HD
ATOM      6  O   UNL     1      72.867  92.208  69.546  1.00  0.00    -0.275 OA
BRANCH   4   7
ATOM      7  C   UNL     1      74.546  93.441  71.495  1.00  0.00     0.151 C 
BRANCH   7   8
ATOM      8  C   UNL     1      75.543  93.706  72.565  1.00  0.00    -0.025 A 
ATOM      9  C   UNL     1      77.709  94.621  73.287  1.00  0.00     0.160 A 
ATOM     10  C   UNL     1      77.464  94.160  74.600  1.00  0.00     0.157 A 
ATOM     11  C   UNL     1      76.752  94.383  72.280  1.00  0.00     0.056 A 
ATOM     12  C   UNL     1      76.258  93.501  74.898  1.00  0.00     0.050 A 
ATOM     13  C   UNL     1      75.300  93.284  73.891  1.00  0.00     0.009 A 
BRANCH   9  14
ATOM     14  O   UNL     1      78.839  95.341  73.005  1.00  0.00    -0.493 OA
ATOM     15  C   UNL     1      78.673  96.309  71.957  1.00  0.00     0.278 C 
ENDBRANCH   9  14
BRANCH  10  16
ATOM     16  O   UNL     1      78.371  94.344  75.592  1.00  0.00    -0.504 OA
ATOM     17  H   UNL     1      77.912  94.547  76.411  1.00  0.00     0.293 HD
ENDBRANCH  10  16
ENDBRANCH   7   8
ENDBRANCH   4   7
ENDBRANCH   2   3
ENDBRANCH   1   2
BRANCH   1  18
ATOM     18  C   UNL     1      75.743  90.362  67.302  1.00  0.00     0.001 C 
BRANCH  18  19
ATOM     19  C   UNL     1      76.381  89.151  66.577  1.00  0.00     0.004 C 
BRANCH  19  20
ATOM     20  C   UNL     1      77.522  88.520  67.424  1.00  0.00     0.027 C 
BRANCH  20  21
ATOM     21  C   UNL     1      77.287  87.129  67.775  1.00  0.00    -0.031 C 
ATOM     22  C   UNL     1      76.635  86.282  66.959  1.00  0.00    -0.028 C 
BRANCH  22  23
ATOM     23  C   UNL     1      76.389  84.878  67.280  1.00  0.00     0.005 C 
ATOM     24  C   UNL     1      77.509  83.985  66.684  1.00  0.00     0.012 C 
ATOM     25  C   UNL     1      76.244  84.696  68.816  1.00  0.00     0.012 C 
ENDBRANCH  22  23
ENDBRANCH  20  21
ENDBRANCH  19  20
ENDBRANCH  18  19
ENDBRANCH   1  18
TORSDOF 11
ENDMDL
MODEL 8
REMARK VINA RESULT:    -5.164     31.784     35.517
REMARK INTER + INTRA:          -9.840
REMARK INTER:                  -8.852
REMARK INTRA:                  -0.989
REMARK UNBOUND:                -1.507
REMARK SMILES COc1cc(CNC(=O)CCCCC/C=C/C(C)C)ccc1O
REMARK SMILES IDX 11 1 10 2 8 3 7 4 9 6 6 7 5 8 3 9 22 10 4 11 21 12 20 13
REMARK SMILES IDX 2 14 1 15 23 16 12 18 13 19 14 20 15 21 16 22 17 23 18 24
REMARK SMILES IDX 19 25
REMARK H PARENT 7 5 23 17
REMARK Flexibility Score: inf
ROOT
ATOM      1  C   UNL     1      90.792  98.941  69.946  1.00  0.00     0.010 C 
ENDROOT
BRANCH   1   2
ATOM      2  C   UNL     1      89.600  98.129  69.377  1.00  0.00     0.100 C 
BRANCH   2   3
ATOM      3  C   UNL     1      89.229  98.495  67.997  1.00  0.00     0.220 C 
ATOM      4  N   UNL     1      88.088  99.202  67.767  1.00  0.00    -0.352 N 
ATOM      5  H   UNL     1      87.521  99.367  68.588  1.00  0.00     0.163 HD
ATOM      6  O   UNL     1      90.006  98.176  67.067  1.00  0.00    -0.275 OA
BRANCH   4   7
ATOM      7  C   UNL     1      87.663  99.702  66.500  1.00  0.00     0.151 C 
BRANCH   7   8
ATOM      8  C   UNL     1      87.782 101.180  66.399  1.00  0.00    -0.025 A 
ATOM      9  C   UNL     1      89.161 103.216  66.392  1.00  0.00     0.160 A 
ATOM     10  C   UNL     1      87.996 104.003  66.259  1.00  0.00     0.157 A 
ATOM     11  C   UNL     1      89.045 101.813  66.470  1.00  0.00     0.056 A 
ATOM     12  C   UNL     1      86.737 103.383  66.171  1.00  0.00     0.050 A 
ATOM     13  C   UNL     1      86.631 101.981  66.230  1.00  0.00     0.009 A 
BRANCH   9  14
ATOM     14  O   UNL     1      90.398 103.804  66.391  1.00  0.00    -0.493 OA
ATOM     15  C   UNL     1      91.383 103.099  65.618  1.00  0.00     0.278 C 
ENDBRANCH   9  14
BRANCH  10  16
ATOM     16  O   UNL     1      88.063 105.357  66.210  1.00  0.00    -0.504 OA
ATOM     17  H   UNL     1      87.358 105.691  65.648  1.00  0.00     0.293 HD
ENDBRANCH  10  16
ENDBRANCH   7   8
ENDBRANCH   4   7
ENDBRANCH   2   3
ENDBRANCH   1   2
BRANCH   1  18
ATOM     18  C   UNL     1      90.661 100.446  69.598  1.00  0.00     0.001 C 
BRANCH  18  19
ATOM     19  C   UNL     1      89.886 101.266  70.659  1.00  0.00     0.004 C 
BRANCH  19  20
ATOM     20  C   UNL     1      90.854 102.044  71.594  1.00  0.00     0.027 C 
BRANCH  20  21
ATOM     21  C   UNL     1      90.178 102.884  72.568  1.00  0.00    -0.031 C 
ATOM     22  C   UNL     1      90.649 103.061  73.815  1.00  0.00    -0.028 C 
BRANCH  22  23
ATOM     23  C   UNL     1      89.997 103.903  74.814  1.00  0.00     0.005 C 
ATOM     24  C   UNL     1      88.912 104.789  74.146  1.00  0.00     0.012 C 
ATOM     25  C   UNL     1      89.420 103.027  75.959  1.00  0.00     0.012 C 
ENDBRANCH  22  23
ENDBRANCH  20  21
ENDBRANCH  19  20
ENDBRANCH  18  19
ENDBRANCH   1  18
TORSDOF 11
ENDMDL
MODEL 9
REMARK VINA RESULT:    -5.135     27.116     32.079
REMARK INTER + INTRA:          -9.794
REMARK INTER:                  -8.966
REMARK INTRA:                  -0.828
REMARK UNBOUND:                -1.507
REMARK SMILES COc1cc(CNC(=O)CCCCC/C=C/C(C)C)ccc1O
REMARK SMILES IDX 11 1 10 2 8 3 7 4 9 6 6 7 5 8 3 9 22 10 4 11 21 12 20 13
REMARK SMILES IDX 2 14 1 15 23 16 12 18 13 19 14 20 15 21 16 22 17 23 18 24
REMARK SMILES IDX 19 25
REMARK H PARENT 7 5 23 17
REMARK Flexibility Score: inf
ROOT
ATOM      1  C   UNL     1      95.963  93.057  79.823  1.00  0.00     0.010 C 
ENDROOT
BRANCH   1   2
ATOM      2  C   UNL     1      97.067  94.099  80.140  1.00  0.00     0.100 C 
BRANCH   2   3
ATOM      3  C   UNL     1      96.725  95.018  81.241  1.00  0.00     0.220 C 
ATOM      4  N   UNL     1      97.646  95.918  81.684  1.00  0.00    -0.352 N 
ATOM      5  H   UNL     1      98.557  95.835  81.253  1.00  0.00     0.163 HD
ATOM      6  O   UNL     1      95.566  94.972  81.718  1.00  0.00    -0.275 OA
BRANCH   4   7
ATOM      7  C   UNL     1      97.417  96.924  82.669  1.00  0.00     0.151 C 
BRANCH   7   8
ATOM      8  C   UNL     1      98.371  96.840  83.805  1.00  0.00    -0.025 A 
ATOM      9  C   UNL     1      99.227  97.701  85.944  1.00  0.00     0.160 A 
ATOM     10  C   UNL     1     100.228  96.705  85.943  1.00  0.00     0.157 A 
ATOM     11  C   UNL     1      98.313  97.767  84.872  1.00  0.00     0.056 A 
ATOM     12  C   UNL     1     100.284  95.767  84.896  1.00  0.00     0.050 A 
ATOM     13  C   UNL     1      99.356  95.827  83.840  1.00  0.00     0.009 A 
BRANCH   9  14
ATOM     14  O   UNL     1      99.109  98.564  87.001  1.00  0.00    -0.493 OA
ATOM     15  C   UNL     1      98.196  98.123  88.020  1.00  0.00     0.278 C 
ENDBRANCH   9  14
BRANCH  10  16
ATOM     16  O   UNL     1     101.144  96.626  86.941  1.00  0.00    -0.504 OA
ATOM     17  H   UNL     1     100.713  96.329  87.747  1.00  0.00     0.293 HD
ENDBRANCH  10  16
ENDBRANCH   7   8
ENDBRANCH   4   7
ENDBRANCH   2   3
ENDBRANCH   1   2
BRANCH   1  18
ATOM     18  C   UNL     1      95.931  92.718  78.310  1.00  0.00     0.001 C 
BRANCH  18  19
ATOM     19  C   UNL     1      95.163  93.757  77.455  1.00  0.00     0.004 C 
BRANCH  19  20
ATOM     20  C   UNL     1      93.904  94.284  78.199  1.00  0.00     0.027 C 
BRANCH  20  21
ATOM     21  C   UNL     1      92.753  93.403  78.094  1.00  0.00    -0.031 C 
ATOM     22  C   UNL     1      92.178  93.108  76.914  1.00  0.00    -0.028 C 
BRANCH  22  23
ATOM     23  C   UNL     1      91.025  92.223  76.775  1.00  0.00     0.005 C 
ATOM     24  C   UNL     1      89.924  92.608  77.799  1.00  0.00     0.012 C 
ATOM     25  C   UNL     1      90.503  92.246  75.312  1.00  0.00     0.012 C 
ENDBRANCH  22  23
ENDBRANCH  20  21
ENDBRANCH  19  20
ENDBRANCH  18  19
ENDBRANCH   1  18
TORSDOF 11
ENDMDL
MODEL 10
REMARK VINA RESULT:    -5.045     19.145     21.630
REMARK INTER + INTRA:          -9.648
REMARK INTER:                  -7.676
REMARK INTRA:                  -1.972
REMARK UNBOUND:                -1.507
REMARK SMILES COc1cc(CNC(=O)CCCCC/C=C/C(C)C)ccc1O
REMARK SMILES IDX 11 1 10 2 8 3 7 4 9 6 6 7 5 8 3 9 22 10 4 11 21 12 20 13
REMARK SMILES IDX 2 14 1 15 23 16 12 18 13 19 14 20 15 21 16 22 17 23 18 24
REMARK SMILES IDX 19 25
REMARK H PARENT 7 5 23 17
REMARK Flexibility Score: inf
ROOT
ATOM      1  C   UNL     1      73.498  81.488  65.167  1.00  0.00     0.010 C 
ENDROOT
BRANCH   1   2
ATOM      2  C   UNL     1      73.126  82.325  63.916  1.00  0.00     0.100 C 
BRANCH   2   3
ATOM      3  C   UNL     1      72.581  83.660  64.227  1.00  0.00     0.220 C 
ATOM      4  N   UNL     1      73.255  84.776  63.833  1.00  0.00    -0.352 N 
ATOM      5  H   UNL     1      74.152  84.596  63.401  1.00  0.00     0.163 HD
ATOM      6  O   UNL     1      71.478  83.730  64.819  1.00  0.00    -0.275 OA
BRANCH   4   7
ATOM      7  C   UNL     1      72.797  86.118  63.983  1.00  0.00     0.151 C 
BRANCH   7   8
ATOM      8  C   UNL     1      73.803  86.998  64.632  1.00  0.00    -0.025 A 
ATOM      9  C   UNL     1      74.474  88.473  66.482  1.00  0.00     0.160 A 
ATOM     10  C   UNL     1      75.707  88.717  65.839  1.00  0.00     0.157 A 
ATOM     11  C   UNL     1      73.529  87.624  65.871  1.00  0.00     0.056 A 
ATOM     12  C   UNL     1      75.997  88.086  64.616  1.00  0.00     0.050 A 
ATOM     13  C   UNL     1      75.057  87.224  64.022  1.00  0.00     0.009 A 
BRANCH   9  14
ATOM     14  O   UNL     1      74.217  89.013  67.714  1.00  0.00    -0.493 OA
ATOM     15  C   UNL     1      73.816  88.051  68.705  1.00  0.00     0.278 C 
ENDBRANCH   9  14
BRANCH  10  16
ATOM     16  O   UNL     1      76.632  89.549  66.380  1.00  0.00    -0.504 OA
ATOM     17  H   UNL     1      77.068  89.109  67.114  1.00  0.00     0.293 HD
ENDBRANCH  10  16
ENDBRANCH   7   8
ENDBRANCH   4   7
ENDBRANCH   2   3
ENDBRANCH   1   2
BRANCH   1  18
ATOM     18  C   UNL     1      74.640  82.161  65.971  1.00  0.00     0.001 C 
BRANCH  18  19
ATOM     19  C   UNL     1      75.978  82.252  65.195  1.00  0.00     0.004 C 
BRANCH  19  20
ATOM     20  C   UNL     1      76.435  83.728  65.025  1.00  0.00     0.027 C 
BRANCH  20  21
ATOM     21  C   UNL     1      76.344  84.513  66.244  1.00  0.00    -0.031 C 
ATOM     22  C   UNL     1      77.125  84.274  67.313  1.00  0.00    -0.028 C 
BRANCH  22  23
ATOM     23  C   UNL     1      77.062  85.048  68.550  1.00  0.00     0.005 C 
ATOM     24  C   UNL     1      77.122  86.567  68.239  1.00  0.00     0.012 C 
ATOM     25  C   UNL     1      75.795  84.661  69.361  1.00  0.00     0.012 C 
ENDBRANCH  22  23
ENDBRANCH  20  21
ENDBRANCH  19  20
ENDBRANCH  18  19
ENDBRANCH   1  18
TORSDOF 11
ENDMDL
