MODEL 1
REMARK VINA RESULT:    -5.392      0.000      0.000
REMARK INTER + INTRA:          -9.981
REMARK INTER:                  -8.387
REMARK INTRA:                  -1.594
REMARK UNBOUND:                -1.594
REMARK SMILES CCCCC/C=C/C(=O)CCc1ccc(O)c(OC)c1
REMARK SMILES IDX 6 1 7 2 8 3 9 4 10 5 11 6 12 7 17 8 20 9 15 10 14 11 13 12
REMARK SMILES IDX 18 13 19 14 16 15 5 17 4 18 3 19 2 20 1 21
REMARK H PARENT 16 16
REMARK Flexibility Score: inf
ROOT
ATOM      1  C   UNL     1      90.556  98.901  70.681  1.00  0.00    -0.023 C 
ATOM      2  C   UNL     1      89.408  98.270  70.405  1.00  0.00     0.043 C 
ENDROOT
BRANCH   2   3
ATOM      3  C   UNL     1      89.310  97.403  69.199  1.00  0.00     0.155 C 
ATOM      4  O   UNL     1      89.555  96.200  69.243  1.00  0.00    -0.295 OA
BRANCH   3   5
ATOM      5  C   UNL     1      88.942  98.092  67.899  1.00  0.00     0.085 C 
BRANCH   5   6
ATOM      6  C   UNL     1      88.123  99.358  68.154  1.00  0.00     0.044 C 
BRANCH   6   7
ATOM      7  C   UNL     1      88.860 100.621  67.776  1.00  0.00    -0.044 A 
ATOM      8  C   UNL     1      88.927 103.014  67.612  1.00  0.00     0.160 A 
ATOM      9  C   UNL     1      88.245 101.849  67.962  1.00  0.00     0.054 A 
ATOM     10  C   UNL     1      90.214 102.938  67.081  1.00  0.00     0.157 A 
ATOM     11  C   UNL     1      90.820 101.694  66.898  1.00  0.00     0.050 A 
ATOM     12  C   UNL     1      90.138 100.528  67.248  1.00  0.00     0.008 A 
BRANCH   8  13
ATOM     13  O   UNL     1      88.324 104.223  67.795  1.00  0.00    -0.493 OA
ATOM     14  C   UNL     1      88.290 104.736  69.125  1.00  0.00     0.278 C 
ENDBRANCH   8  13
BRANCH  10  15
ATOM     15  O   UNL     1      90.890 104.069  66.736  1.00  0.00    -0.504 OA
ATOM     16  H   UNL     1      90.251 104.710  66.379  1.00  0.00     0.293 HD
ENDBRANCH  10  15
ENDBRANCH   6   7
ENDBRANCH   5   6
ENDBRANCH   3   5
ENDBRANCH   2   3
BRANCH   1  17
ATOM     17  C   UNL     1      90.736  99.792  71.875  1.00  0.00     0.027 C 
BRANCH  17  18
ATOM     18  C   UNL     1      90.858 101.275  71.507  1.00  0.00     0.004 C 
BRANCH  18  19
ATOM     19  C   UNL     1      89.509 101.967  71.292  1.00  0.00     0.000 C 
BRANCH  19  20
ATOM     20  C   UNL     1      89.281 103.067  72.331  1.00  0.00    -0.003 C 
ATOM     21  C   UNL     1      87.973 102.865  73.078  1.00  0.00     0.004 C 
ENDBRANCH  19  20
ENDBRANCH  18  19
ENDBRANCH  17  18
ENDBRANCH   1  17
TORSDOF 10
ENDMDL
MODEL 2
REMARK VINA RESULT:    -5.334      4.328      6.314
REMARK INTER + INTRA:          -9.891
REMARK INTER:                  -9.117
REMARK INTRA:                  -0.774
REMARK UNBOUND:                -1.594
REMARK SMILES CCCCC/C=C/C(=O)CCc1ccc(O)c(OC)c1
REMARK SMILES IDX 6 1 7 2 8 3 9 4 10 5 11 6 12 7 17 8 20 9 15 10 14 11 13 12
REMARK SMILES IDX 18 13 19 14 16 15 5 17 4 18 3 19 2 20 1 21
REMARK H PARENT 16 16
REMARK Flexibility Score: inf
ROOT
ATOM      1  C   UNL     1      94.177  98.689  75.238  1.00  0.00    -0.023 C 
ATOM      2  C   UNL     1      92.916  98.994  74.907  1.00  0.00     0.043 C 
ENDROOT
BRANCH   2   3
ATOM      3  C   UNL     1      92.647 100.100  73.948  1.00  0.00     0.155 C 
ATOM      4  O   UNL     1      92.683 101.280  74.292  1.00  0.00    -0.295 OA
BRANCH   3   5
ATOM      5  C   UNL     1      92.274  99.695  72.535  1.00  0.00     0.085 C 
BRANCH   5   6
ATOM      6  C   UNL     1      91.018 100.426  72.060  1.00  0.00     0.044 C 
BRANCH   6   7
ATOM      7  C   UNL     1      90.199  99.615  71.085  1.00  0.00    -0.044 A 
ATOM      8  C   UNL     1      88.952  99.472  69.040  1.00  0.00     0.160 A 
ATOM      9  C   UNL     1      89.708 100.222  69.941  1.00  0.00     0.054 A 
ATOM     10  C   UNL     1      88.696  98.125  69.295  1.00  0.00     0.157 A 
ATOM     11  C   UNL     1      89.197  97.528  70.452  1.00  0.00     0.050 A 
ATOM     12  C   UNL     1      89.953  98.278  71.353  1.00  0.00     0.008 A 
BRANCH   8  13
ATOM     13  O   UNL     1      88.468 100.067  67.913  1.00  0.00    -0.493 OA
ATOM     14  C   UNL     1      88.593 101.485  67.824  1.00  0.00     0.278 C 
ENDBRANCH   8  13
BRANCH  10  15
ATOM     15  O   UNL     1      87.960  97.382  68.423  1.00  0.00    -0.504 OA
ATOM     16  H   UNL     1      87.044  97.709  68.441  1.00  0.00     0.293 HD
ENDBRANCH  10  15
ENDBRANCH   6   7
ENDBRANCH   5   6
ENDBRANCH   3   5
ENDBRANCH   2   3
BRANCH   1  17
ATOM     17  C   UNL     1      94.531  97.590  76.196  1.00  0.00     0.027 C 
BRANCH  17  18
ATOM     18  C   UNL     1      94.122  96.200  75.696  1.00  0.00     0.004 C 
BRANCH  18  19
ATOM     19  C   UNL     1      93.800  95.213  76.821  1.00  0.00     0.000 C 
BRANCH  19  20
ATOM     20  C   UNL     1      92.868  95.842  77.857  1.00  0.00    -0.003 C 
ATOM     21  C   UNL     1      91.438  95.920  77.346  1.00  0.00     0.004 C 
ENDBRANCH  19  20
ENDBRANCH  18  19
ENDBRANCH  17  18
ENDBRANCH   1  17
TORSDOF 10
ENDMDL
MODEL 3
REMARK VINA RESULT:    -5.041     18.132     21.018
REMARK INTER + INTRA:          -9.435
REMARK INTER:                  -8.781
REMARK INTRA:                  -0.654
REMARK UNBOUND:                -1.594
REMARK SMILES CCCCC/C=C/C(=O)CCc1ccc(O)c(OC)c1
REMARK SMILES IDX 6 1 7 2 8 3 9 4 10 5 11 6 12 7 17 8 20 9 15 10 14 11 13 12
REMARK SMILES IDX 18 13 19 14 16 15 5 17 4 18 3 19 2 20 1 21
REMARK H PARENT 16 16
REMARK Flexibility Score: inf
ROOT
ATOM      1  C   UNL     1      77.527  84.428  66.799  1.00  0.00    -0.023 C 
ATOM      2  C   UNL     1      78.220  85.144  67.693  1.00  0.00     0.043 C 
ENDROOT
BRANCH   2   3
ATOM      3  C   UNL     1      77.819  86.546  67.993  1.00  0.00     0.155 C 
ATOM      4  O   UNL     1      77.702  87.390  67.107  1.00  0.00    -0.295 OA
BRANCH   3   5
ATOM      5  C   UNL     1      77.614  86.892  69.454  1.00  0.00     0.085 C 
BRANCH   5   6
ATOM      6  C   UNL     1      76.178  86.604  69.897  1.00  0.00     0.044 C 
BRANCH   6   7
ATOM      7  C   UNL     1      75.477  87.824  70.445  1.00  0.00    -0.044 A 
ATOM      8  C   UNL     1      73.659  88.793  71.677  1.00  0.00     0.160 A 
ATOM      9  C   UNL     1      74.307  87.666  71.171  1.00  0.00     0.054 A 
ATOM     10  C   UNL     1      74.189  90.063  71.451  1.00  0.00     0.157 A 
ATOM     11  C   UNL     1      75.368  90.206  70.718  1.00  0.00     0.050 A 
ATOM     12  C   UNL     1      76.015  89.079  70.212  1.00  0.00     0.008 A 
BRANCH   8  13
ATOM     13  O   UNL     1      72.509  88.640  72.391  1.00  0.00    -0.493 OA
ATOM     14  C   UNL     1      71.300  88.493  71.649  1.00  0.00     0.278 C 
ENDBRANCH   8  13
BRANCH  10  15
ATOM     15  O   UNL     1      73.566  91.171  71.941  1.00  0.00    -0.504 OA
ATOM     16  H   UNL     1      72.718  90.897  72.330  1.00  0.00     0.293 HD
ENDBRANCH  10  15
ENDBRANCH   6   7
ENDBRANCH   5   6
ENDBRANCH   3   5
ENDBRANCH   2   3
BRANCH   1  17
ATOM     17  C   UNL     1      77.868  83.011  66.442  1.00  0.00     0.027 C 
BRANCH  17  18
ATOM     18  C   UNL     1      76.792  82.330  65.589  1.00  0.00     0.004 C 
BRANCH  18  19
ATOM     19  C   UNL     1      75.644  81.734  66.410  1.00  0.00     0.000 C 
BRANCH  19  20
ATOM     20  C   UNL     1      74.562  81.149  65.502  1.00  0.00    -0.003 C 
ATOM     21  C   UNL     1      74.961  81.228  64.037  1.00  0.00     0.004 C 
ENDBRANCH  19  20
ENDBRANCH  18  19
ENDBRANCH  17  18
ENDBRANCH   1  17
TORSDOF 10
ENDMDL
MODEL 4
REMARK VINA RESULT:    -5.018      1.541      2.128
REMARK INTER + INTRA:          -9.399
REMARK INTER:                  -8.399
REMARK INTRA:                  -1.000
REMARK UNBOUND:                -1.594
REMARK SMILES CCCCC/C=C/C(=O)CCc1ccc(O)c(OC)c1
REMARK SMILES IDX 6 1 7 2 8 3 9 4 10 5 11 6 12 7 17 8 20 9 15 10 14 11 13 12
REMARK SMILES IDX 18 13 19 14 16 15 5 17 4 18 3 19 2 20 1 21
REMARK H PARENT 16 16
REMARK Flexibility Score: inf
ROOT
ATOM      1  C   UNL     1      90.683  99.162  70.841  1.00  0.00    -0.023 C 
ATOM      2  C   UNL     1      89.518  98.537  70.628  1.00  0.00     0.043 C 
ENDROOT
BRANCH   2   3
ATOM      3  C   UNL     1      89.428  97.467  69.598  1.00  0.00     0.155 C 
ATOM      4  O   UNL     1      89.595  96.281  69.877  1.00  0.00    -0.295 OA
BRANCH   3   5
ATOM      5  C   UNL     1      89.171  97.919  68.173  1.00  0.00     0.085 C 
BRANCH   5   6
ATOM      6  C   UNL     1      88.213  99.110  68.133  1.00  0.00     0.044 C 
BRANCH   6   7
ATOM      7  C   UNL     1      88.902 100.407  67.779  1.00  0.00    -0.044 A 
ATOM      8  C   UNL     1      88.913 102.806  67.740  1.00  0.00     0.160 A 
ATOM      9  C   UNL     1      88.276 101.609  68.067  1.00  0.00     0.054 A 
ATOM     10  C   UNL     1      90.167 102.785  67.130  1.00  0.00     0.157 A 
ATOM     11  C   UNL     1      90.785 101.566  66.847  1.00  0.00     0.050 A 
ATOM     12  C   UNL     1      90.147 100.369  67.174  1.00  0.00     0.008 A 
BRANCH   8  13
ATOM     13  O   UNL     1      88.299 103.990  68.021  1.00  0.00    -0.493 OA
ATOM     14  C   UNL     1      88.288 104.406  69.385  1.00  0.00     0.278 C 
ENDBRANCH   8  13
BRANCH  10  15
ATOM     15  O   UNL     1      90.800 103.948  66.807  1.00  0.00    -0.504 OA
ATOM     16  H   UNL     1      91.758 103.809  66.896  1.00  0.00     0.293 HD
ENDBRANCH  10  15
ENDBRANCH   6   7
ENDBRANCH   5   6
ENDBRANCH   3   5
ENDBRANCH   2   3
BRANCH   1  17
ATOM     17  C   UNL     1      90.855 100.250  71.860  1.00  0.00     0.027 C 
BRANCH  17  18
ATOM     18  C   UNL     1      92.298 100.385  72.358  1.00  0.00     0.004 C 
BRANCH  18  19
ATOM     19  C   UNL     1      92.541  99.727  73.720  1.00  0.00     0.000 C 
BRANCH  19  20
ATOM     20  C   UNL     1      92.542 100.767  74.842  1.00  0.00    -0.003 C 
ATOM     21  C   UNL     1      93.951 101.235  75.168  1.00  0.00     0.004 C 
ENDBRANCH  19  20
ENDBRANCH  18  19
ENDBRANCH  17  18
ENDBRANCH   1  17
TORSDOF 10
ENDMDL
MODEL 5
REMARK VINA RESULT:    -5.010     19.333     22.250
REMARK INTER + INTRA:          -9.387
REMARK INTER:                  -8.159
REMARK INTRA:                  -1.228
REMARK UNBOUND:                -1.594
REMARK SMILES CCCCC/C=C/C(=O)CCc1ccc(O)c(OC)c1
REMARK SMILES IDX 6 1 7 2 8 3 9 4 10 5 11 6 12 7 17 8 20 9 15 10 14 11 13 12
REMARK SMILES IDX 18 13 19 14 16 15 5 17 4 18 3 19 2 20 1 21
REMARK H PARENT 16 16
REMARK Flexibility Score: inf
ROOT
ATOM      1  C   UNL     1      77.032  83.491  66.469  1.00  0.00    -0.023 C 
ATOM      2  C   UNL     1      78.075  83.937  67.182  1.00  0.00     0.043 C 
ENDROOT
BRANCH   2   3
ATOM      3  C   UNL     1      78.064  85.323  67.723  1.00  0.00     0.155 C 
ATOM      4  O   UNL     1      77.927  86.303  66.994  1.00  0.00    -0.295 OA
BRANCH   3   5
ATOM      5  C   UNL     1      78.285  85.467  69.216  1.00  0.00     0.085 C 
BRANCH   5   6
ATOM      6  C   UNL     1      77.132  84.851  70.010  1.00  0.00     0.044 C 
BRANCH   6   7
ATOM      7  C   UNL     1      75.891  85.712  70.008  1.00  0.00    -0.044 A 
ATOM      8  C   UNL     1      73.523  85.938  69.687  1.00  0.00     0.160 A 
ATOM      9  C   UNL     1      74.669  85.142  69.688  1.00  0.00     0.054 A 
ATOM     10  C   UNL     1      73.614  87.293  70.005  1.00  0.00     0.157 A 
ATOM     11  C   UNL     1      74.852  87.852  70.324  1.00  0.00     0.050 A 
ATOM     12  C   UNL     1      75.998  87.057  70.325  1.00  0.00     0.008 A 
BRANCH   8  13
ATOM     13  O   UNL     1      72.321  85.380  69.373  1.00  0.00    -0.493 OA
ATOM     14  C   UNL     1      72.143  84.934  68.030  1.00  0.00     0.278 C 
ENDBRANCH   8  13
BRANCH  10  15
ATOM     15  O   UNL     1      72.503  88.080  70.007  1.00  0.00    -0.504 OA
ATOM     16  H   UNL     1      71.949  87.829  69.248  1.00  0.00     0.293 HD
ENDBRANCH  10  15
ENDBRANCH   6   7
ENDBRANCH   5   6
ENDBRANCH   3   5
ENDBRANCH   2   3
BRANCH   1  17
ATOM     17  C   UNL     1      76.967  82.108  65.889  1.00  0.00     0.027 C 
BRANCH  17  18
ATOM     18  C   UNL     1      75.654  81.384  66.206  1.00  0.00     0.004 C 
BRANCH  18  19
ATOM     19  C   UNL     1      74.461  82.328  66.389  1.00  0.00     0.000 C 
BRANCH  19  20
ATOM     20  C   UNL     1      73.209  81.774  65.707  1.00  0.00    -0.003 C 
ATOM     21  C   UNL     1      73.565  80.798  64.597  1.00  0.00     0.004 C 
ENDBRANCH  19  20
ENDBRANCH  18  19
ENDBRANCH  17  18
ENDBRANCH   1  17
TORSDOF 10
ENDMDL
MODEL 6
REMARK VINA RESULT:    -5.006     20.517     23.392
REMARK INTER + INTRA:          -9.381
REMARK INTER:                  -8.644
REMARK INTRA:                  -0.737
REMARK UNBOUND:                -1.594
REMARK SMILES CCCCC/C=C/C(=O)CCc1ccc(O)c(OC)c1
REMARK SMILES IDX 6 1 7 2 8 3 9 4 10 5 11 6 12 7 17 8 20 9 15 10 14 11 13 12
REMARK SMILES IDX 18 13 19 14 16 15 5 17 4 18 3 19 2 20 1 21
REMARK H PARENT 16 16
REMARK Flexibility Score: inf
ROOT
ATOM      1  C   UNL     1      77.602  85.628  67.131  1.00  0.00    -0.023 C 
ATOM      2  C   UNL     1      76.770  84.633  66.799  1.00  0.00     0.043 C 
ENDROOT
BRANCH   2   3
ATOM      3  C   UNL     1      77.285  83.457  66.047  1.00  0.00     0.155 C 
ATOM      4  O   UNL     1      78.281  83.530  65.330  1.00  0.00    -0.295 OA
BRANCH   3   5
ATOM      5  C   UNL     1      76.485  82.174  66.167  1.00  0.00     0.085 C 
BRANCH   5   6
ATOM      6  C   UNL     1      76.205  81.563  64.793  1.00  0.00     0.044 C 
BRANCH   6   7
ATOM      7  C   UNL     1      74.737  81.564  64.437  1.00  0.00    -0.044 A 
ATOM      8  C   UNL     1      72.510  82.370  64.824  1.00  0.00     0.160 A 
ATOM      9  C   UNL     1      73.866  82.369  65.154  1.00  0.00     0.054 A 
ATOM     10  C   UNL     1      72.044  81.567  63.783  1.00  0.00     0.157 A 
ATOM     11  C   UNL     1      72.934  80.762  63.072  1.00  0.00     0.050 A 
ATOM     12  C   UNL     1      74.290  80.761  63.402  1.00  0.00     0.008 A 
BRANCH   8  13
ATOM     13  O   UNL     1      71.651  83.161  65.526  1.00  0.00    -0.493 OA
ATOM     14  C   UNL     1      71.221  82.681  66.799  1.00  0.00     0.278 C 
ENDBRANCH   8  13
BRANCH  10  15
ATOM     15  O   UNL     1      70.723  81.560  63.452  1.00  0.00    -0.504 OA
ATOM     16  H   UNL     1      70.353  82.437  63.653  1.00  0.00     0.293 HD
ENDBRANCH  10  15
ENDBRANCH   6   7
ENDBRANCH   5   6
ENDBRANCH   3   5
ENDBRANCH   2   3
BRANCH   1  17
ATOM     17  C   UNL     1      77.162  86.847  67.888  1.00  0.00     0.027 C 
BRANCH  17  18
ATOM     18  C   UNL     1      77.668  86.873  69.334  1.00  0.00     0.004 C 
BRANCH  18  19
ATOM     19  C   UNL     1      77.511  85.535  70.063  1.00  0.00     0.000 C 
BRANCH  19  20
ATOM     20  C   UNL     1      76.050  85.278  70.438  1.00  0.00    -0.003 C 
ATOM     21  C   UNL     1      75.923  84.142  71.440  1.00  0.00     0.004 C 
ENDBRANCH  19  20
ENDBRANCH  18  19
ENDBRANCH  17  18
ENDBRANCH   1  17
TORSDOF 10
ENDMDL
MODEL 7
REMARK VINA RESULT:    -4.996     10.702     13.549
REMARK INTER + INTRA:          -9.365
REMARK INTER:                  -7.879
REMARK INTRA:                  -1.487
REMARK UNBOUND:                -1.594
REMARK SMILES CCCCC/C=C/C(=O)CCc1ccc(O)c(OC)c1
REMARK SMILES IDX 6 1 7 2 8 3 9 4 10 5 11 6 12 7 17 8 20 9 15 10 14 11 13 12
REMARK SMILES IDX 18 13 19 14 16 15 5 17 4 18 3 19 2 20 1 21
REMARK H PARENT 16 16
REMARK Flexibility Score: inf
ROOT
ATOM      1  C   UNL     1      93.675  94.475  79.397  1.00  0.00    -0.023 C 
ATOM      2  C   UNL     1      94.815  93.889  79.783  1.00  0.00     0.043 C 
ENDROOT
BRANCH   2   3
ATOM      3  C   UNL     1      95.130  93.761  81.232  1.00  0.00     0.155 C 
ATOM      4  O   UNL     1      94.685  92.840  81.914  1.00  0.00    -0.295 OA
BRANCH   3   5
ATOM      5  C   UNL     1      95.986  94.856  81.837  1.00  0.00     0.085 C 
BRANCH   5   6
ATOM      6  C   UNL     1      96.923  95.469  80.795  1.00  0.00     0.044 C 
BRANCH   6   7
ATOM      7  C   UNL     1      96.634  96.927  80.530  1.00  0.00    -0.044 A 
ATOM      8  C   UNL     1      96.366  99.169  81.342  1.00  0.00     0.160 A 
ATOM      9  C   UNL     1      96.632  97.822  81.588  1.00  0.00     0.054 A 
ATOM     10  C   UNL     1      96.105  99.604  80.043  1.00  0.00     0.157 A 
ATOM     11  C   UNL     1      96.109  98.690  78.988  1.00  0.00     0.050 A 
ATOM     12  C   UNL     1      96.376  97.343  79.234  1.00  0.00     0.008 A 
BRANCH   8  13
ATOM     13  O   UNL     1      96.364 100.051  82.381  1.00  0.00    -0.493 OA
ATOM     14  C   UNL     1      95.224 100.041  83.238  1.00  0.00     0.278 C 
ENDBRANCH   8  13
BRANCH  10  15
ATOM     15  O   UNL     1      95.844 100.917  79.791  1.00  0.00    -0.504 OA
ATOM     16  H   UNL     1      94.985 100.976  79.338  1.00  0.00     0.293 HD
ENDBRANCH  10  15
ENDBRANCH   6   7
ENDBRANCH   5   6
ENDBRANCH   3   5
ENDBRANCH   2   3
BRANCH   1  17
ATOM     17  C   UNL     1      93.285  94.642  77.957  1.00  0.00     0.027 C 
BRANCH  17  18
ATOM     18  C   UNL     1      94.421  95.186  77.086  1.00  0.00     0.004 C 
BRANCH  18  19
ATOM     19  C   UNL     1      93.981  96.293  76.123  1.00  0.00     0.000 C 
BRANCH  19  20
ATOM     20  C   UNL     1      95.038  96.541  75.046  1.00  0.00    -0.003 C 
ATOM     21  C   UNL     1      96.006  97.639  75.457  1.00  0.00     0.004 C 
ENDBRANCH  19  20
ENDBRANCH  18  19
ENDBRANCH  17  18
ENDBRANCH   1  17
TORSDOF 10
ENDMDL
MODEL 8
REMARK VINA RESULT:    -4.943     29.971     32.163
REMARK INTER + INTRA:          -9.283
REMARK INTER:                  -8.022
REMARK INTRA:                  -1.261
REMARK UNBOUND:                -1.594
REMARK SMILES CCCCC/C=C/C(=O)CCc1ccc(O)c(OC)c1
REMARK SMILES IDX 6 1 7 2 8 3 9 4 10 5 11 6 12 7 17 8 20 9 15 10 14 11 13 12
REMARK SMILES IDX 18 13 19 14 16 15 5 17 4 18 3 19 2 20 1 21
REMARK H PARENT 16 16
REMARK Flexibility Score: inf
ROOT
ATOM      1  C   UNL     1      60.705  85.101  73.765  1.00  0.00    -0.023 C 
ATOM      2  C   UNL     1      61.754  84.386  73.340  1.00  0.00     0.043 C 
ENDROOT
BRANCH   2   3
ATOM      3  C   UNL     1      62.213  83.207  74.124  1.00  0.00     0.155 C 
ATOM      4  O   UNL     1      61.543  82.735  75.039  1.00  0.00    -0.295 OA
BRANCH   3   5
ATOM      5  C   UNL     1      63.578  82.649  73.769  1.00  0.00     0.085 C 
BRANCH   5   6
ATOM      6  C   UNL     1      63.478  81.603  72.657  1.00  0.00     0.044 C 
BRANCH   6   7
ATOM      7  C   UNL     1      64.001  82.104  71.331  1.00  0.00    -0.044 A 
ATOM      8  C   UNL     1      65.681  83.260  70.066  1.00  0.00     0.160 A 
ATOM      9  C   UNL     1      65.199  82.798  71.291  1.00  0.00     0.054 A 
ATOM     10  C   UNL     1      64.958  83.022  68.898  1.00  0.00     0.157 A 
ATOM     11  C   UNL     1      63.752  82.322  68.954  1.00  0.00     0.050 A 
ATOM     12  C   UNL     1      63.270  81.861  70.179  1.00  0.00     0.008 A 
BRANCH   8  13
ATOM     13  O   UNL     1      66.860  83.942  70.025  1.00  0.00    -0.493 OA
ATOM     14  C   UNL     1      68.058  83.173  70.112  1.00  0.00     0.278 C 
ENDBRANCH   8  13
BRANCH  10  15
ATOM     15  O   UNL     1      65.418  83.468  67.696  1.00  0.00    -0.504 OA
ATOM     16  H   UNL     1      65.820  82.717  67.225  1.00  0.00     0.293 HD
ENDBRANCH  10  15
ENDBRANCH   6   7
ENDBRANCH   5   6
ENDBRANCH   3   5
ENDBRANCH   2   3
BRANCH   1  17
ATOM     17  C   UNL     1      60.181  86.302  73.033  1.00  0.00     0.027 C 
BRANCH  17  18
ATOM     18  C   UNL     1      58.776  86.091  72.458  1.00  0.00     0.004 C 
BRANCH  18  19
ATOM     19  C   UNL     1      58.745  86.015  70.928  1.00  0.00     0.000 C 
BRANCH  19  20
ATOM     20  C   UNL     1      59.055  84.599  70.439  1.00  0.00    -0.003 C 
ATOM     21  C   UNL     1      60.435  84.518  69.807  1.00  0.00     0.004 C 
ENDBRANCH  19  20
ENDBRANCH  18  19
ENDBRANCH  17  18
ENDBRANCH   1  17
TORSDOF 10
ENDMDL
MODEL 9
REMARK VINA RESULT:    -4.914     19.137     20.933
REMARK INTER + INTRA:          -9.237
REMARK INTER:                  -7.470
REMARK INTRA:                  -1.766
REMARK UNBOUND:                -1.594
REMARK SMILES CCCCC/C=C/C(=O)CCc1ccc(O)c(OC)c1
REMARK SMILES IDX 6 1 7 2 8 3 9 4 10 5 11 6 12 7 17 8 20 9 15 10 14 11 13 12
REMARK SMILES IDX 18 13 19 14 16 15 5 17 4 18 3 19 2 20 1 21
REMARK H PARENT 16 16
REMARK Flexibility Score: inf
ROOT
ATOM      1  C   UNL     1      75.503  88.233  68.985  1.00  0.00    -0.023 C 
ATOM      2  C   UNL     1      74.495  88.230  68.104  1.00  0.00     0.043 C 
ENDROOT
BRANCH   2   3
ATOM      3  C   UNL     1      74.648  88.933  66.801  1.00  0.00     0.155 C 
ATOM      4  O   UNL     1      73.931  89.881  66.487  1.00  0.00    -0.295 OA
BRANCH   3   5
ATOM      5  C   UNL     1      75.700  88.385  65.856  1.00  0.00     0.085 C 
BRANCH   5   6
ATOM      6  C   UNL     1      75.353  86.966  65.402  1.00  0.00     0.044 C 
BRANCH   6   7
ATOM      7  C   UNL     1      76.319  85.929  65.924  1.00  0.00    -0.044 A 
ATOM      8  C   UNL     1      77.020  83.639  66.078  1.00  0.00     0.160 A 
ATOM      9  C   UNL     1      76.128  84.597  65.596  1.00  0.00     0.054 A 
ATOM     10  C   UNL     1      78.091  84.027  66.883  1.00  0.00     0.157 A 
ATOM     11  C   UNL     1      78.270  85.373  67.206  1.00  0.00     0.050 A 
ATOM     12  C   UNL     1      77.377  86.330  66.723  1.00  0.00     0.008 A 
BRANCH   8  13
ATOM     13  O   UNL     1      76.835  82.328  65.757  1.00  0.00    -0.493 OA
ATOM     14  C   UNL     1      75.636  81.710  66.221  1.00  0.00     0.278 C 
ENDBRANCH   8  13
BRANCH  10  15
ATOM     15  O   UNL     1      78.970  83.102  67.360  1.00  0.00    -0.504 OA
ATOM     16  H   UNL     1      78.463  82.338  67.684  1.00  0.00     0.293 HD
ENDBRANCH  10  15
ENDBRANCH   6   7
ENDBRANCH   5   6
ENDBRANCH   3   5
ENDBRANCH   2   3
BRANCH   1  17
ATOM     17  C   UNL     1      75.427  87.549  70.319  1.00  0.00     0.027 C 
BRANCH  17  18
ATOM     18  C   UNL     1      74.664  86.221  70.273  1.00  0.00     0.004 C 
BRANCH  18  19
ATOM     19  C   UNL     1      75.420  85.104  69.547  1.00  0.00     0.000 C 
BRANCH  19  20
ATOM     20  C   UNL     1      76.557  84.556  70.411  1.00  0.00    -0.003 C 
ATOM     21  C   UNL     1      76.033  83.938  71.696  1.00  0.00     0.004 C 
ENDBRANCH  19  20
ENDBRANCH  18  19
ENDBRANCH  17  18
ENDBRANCH   1  17
TORSDOF 10
ENDMDL
MODEL 10
REMARK VINA RESULT:    -4.902      6.661      8.942
REMARK INTER + INTRA:          -9.218
REMARK INTER:                  -8.198
REMARK INTRA:                  -1.021
REMARK UNBOUND:                -1.594
REMARK SMILES CCCCC/C=C/C(=O)CCc1ccc(O)c(OC)c1
REMARK SMILES IDX 6 1 7 2 8 3 9 4 10 5 11 6 12 7 17 8 20 9 15 10 14 11 13 12
REMARK SMILES IDX 18 13 19 14 16 15 5 17 4 18 3 19 2 20 1 21
REMARK H PARENT 16 16
REMARK Flexibility Score: inf
ROOT
ATOM      1  C   UNL     1      92.005  96.123  77.662  1.00  0.00    -0.023 C 
ATOM      2  C   UNL     1      92.799  96.014  76.590  1.00  0.00     0.043 C 
ENDROOT
BRANCH   2   3
ATOM      3  C   UNL     1      94.259  95.788  76.767  1.00  0.00     0.155 C 
ATOM      4  O   UNL     1      94.704  94.726  77.198  1.00  0.00    -0.295 OA
BRANCH   3   5
ATOM      5  C   UNL     1      95.169  96.955  76.437  1.00  0.00     0.085 C 
BRANCH   5   6
ATOM      6  C   UNL     1      94.368  98.161  75.944  1.00  0.00     0.044 C 
BRANCH   6   7
ATOM      7  C   UNL     1      94.746  98.585  74.544  1.00  0.00    -0.044 A 
ATOM      8  C   UNL     1      94.315  99.909  72.590  1.00  0.00     0.160 A 
ATOM      9  C   UNL     1      93.964  99.518  73.882  1.00  0.00     0.054 A 
ATOM     10  C   UNL     1      95.441  99.362  71.976  1.00  0.00     0.157 A 
ATOM     11  C   UNL     1      96.219  98.423  72.656  1.00  0.00     0.050 A 
ATOM     12  C   UNL     1      95.868  98.032  73.948  1.00  0.00     0.008 A 
BRANCH   8  13
ATOM     13  O   UNL     1      93.547 100.826  71.937  1.00  0.00    -0.493 OA
ATOM     14  C   UNL     1      92.318 100.364  71.380  1.00  0.00     0.278 C 
ENDBRANCH   8  13
BRANCH  10  15
ATOM     15  O   UNL     1      95.794  99.736  70.715  1.00  0.00    -0.504 OA
ATOM     16  H   UNL     1      95.138  99.374  70.095  1.00  0.00     0.293 HD
ENDBRANCH  10  15
ENDBRANCH   6   7
ENDBRANCH   5   6
ENDBRANCH   3   5
ENDBRANCH   2   3
BRANCH   1  17
ATOM     17  C   UNL     1      90.525  96.351  77.568  1.00  0.00     0.027 C 
BRANCH  17  18
ATOM     18  C   UNL     1      89.724  95.054  77.418  1.00  0.00     0.004 C 
BRANCH  18  19
ATOM     19  C   UNL     1      90.212  93.922  78.328  1.00  0.00     0.000 C 
BRANCH  19  20
ATOM     20  C   UNL     1      90.299  92.599  77.566  1.00  0.00    -0.003 C 
ATOM     21  C   UNL     1      91.313  92.674  76.435  1.00  0.00     0.004 C 
ENDBRANCH  19  20
ENDBRANCH  18  19
ENDBRANCH  17  18
ENDBRANCH   1  17
TORSDOF 10
ENDMDL
