MODEL 1
REMARK VINA RESULT:    -5.288      0.000      0.000
REMARK INTER + INTRA:         -11.062
REMARK INTER:                  -8.843
REMARK INTRA:                  -2.219
REMARK UNBOUND:                -2.219
REMARK SMILES COc1cc(CNC(=O)CCCCCCCC(C)C)ccc1O
REMARK SMILES IDX 11 1 10 2 8 3 9 4 7 5 6 7 5 8 4 9 20 10 3 11 21 12 22 13
REMARK SMILES IDX 2 14 1 15 23 16 12 18 13 19 14 20 15 21 16 22 17 23 18 24
REMARK SMILES IDX 19 25
REMARK H PARENT 7 6 23 17
REMARK Flexibility Score: inf
ROOT
ATOM      1  C   UNL     1      88.695  99.995  66.737  1.00  0.00     0.010 C 
ENDROOT
BRANCH   1   2
ATOM      2  C   UNL     1      88.878  98.478  66.754  1.00  0.00     0.100 C 
BRANCH   2   3
ATOM      3  C   UNL     1      89.586  97.995  68.009  1.00  0.00     0.220 C 
ATOM      4  O   UNL     1      90.349  97.033  68.024  1.00  0.00    -0.275 OA
ATOM      5  N   UNL     1      89.252  98.768  69.111  1.00  0.00    -0.352 N 
ATOM      6  H   UNL     1      88.600  99.540  69.004  1.00  0.00     0.163 HD
BRANCH   5   7
ATOM      7  C   UNL     1      89.781  98.517  70.432  1.00  0.00     0.151 C 
BRANCH   7   8
ATOM      8  C   UNL     1      90.541  99.696  70.966  1.00  0.00    -0.025 A 
ATOM      9  C   UNL     1      89.891 100.912  71.138  1.00  0.00     0.056 A 
ATOM     10  C   UNL     1      91.887  99.559  71.283  1.00  0.00     0.009 A 
ATOM     11  C   UNL     1      90.597 102.008  71.634  1.00  0.00     0.160 A 
ATOM     12  C   UNL     1      92.594 100.656  71.778  1.00  0.00     0.050 A 
ATOM     13  C   UNL     1      91.949 101.880  71.954  1.00  0.00     0.157 A 
BRANCH  11  14
ATOM     14  O   UNL     1      89.957 103.199  71.801  1.00  0.00    -0.493 OA
ATOM     15  C   UNL     1      89.151 103.342  72.970  1.00  0.00     0.278 C 
ENDBRANCH  11  14
BRANCH  13  16
ATOM     16  O   UNL     1      92.650 102.942  72.439  1.00  0.00    -0.504 OA
ATOM     17  H   UNL     1      92.028 103.657  72.659  1.00  0.00     0.293 HD
ENDBRANCH  13  16
ENDBRANCH   7   8
ENDBRANCH   5   7
ENDBRANCH   2   3
ENDBRANCH   1   2
BRANCH   1  18
ATOM     18  C   UNL     1      87.267 100.433  66.400  1.00  0.00     0.001 C 
BRANCH  18  19
ATOM     19  C   UNL     1      87.029 101.946  66.357  1.00  0.00     0.000 C 
BRANCH  19  20
ATOM     20  C   UNL     1      88.051 102.742  67.174  1.00  0.00     0.000 C 
BRANCH  20  21
ATOM     21  C   UNL     1      88.977 103.609  66.314  1.00  0.00     0.000 C 
BRANCH  21  22
ATOM     22  C   UNL     1      90.461 103.268  66.488  1.00  0.00     0.003 C 
BRANCH  22  23
ATOM     23  C   UNL     1      90.823 102.813  67.915  1.00  0.00    -0.017 C 
ATOM     24  C   UNL     1      91.513 103.957  68.663  1.00  0.00     0.007 C 
ATOM     25  C   UNL     1      91.723 101.576  67.925  1.00  0.00     0.007 C 
ENDBRANCH  22  23
ENDBRANCH  21  22
ENDBRANCH  20  21
ENDBRANCH  19  20
ENDBRANCH  18  19
ENDBRANCH   1  18
TORSDOF 12
ENDMDL
MODEL 2
REMARK VINA RESULT:    -5.233      0.883      2.051
REMARK INTER + INTRA:         -10.970
REMARK INTER:                  -8.730
REMARK INTRA:                  -2.240
REMARK UNBOUND:                -2.219
REMARK SMILES COc1cc(CNC(=O)CCCCCCCC(C)C)ccc1O
REMARK SMILES IDX 11 1 10 2 8 3 9 4 7 5 6 7 5 8 4 9 20 10 3 11 21 12 22 13
REMARK SMILES IDX 2 14 1 15 23 16 12 18 13 19 14 20 15 21 16 22 17 23 18 24
REMARK SMILES IDX 19 25
REMARK H PARENT 7 6 23 17
REMARK Flexibility Score: inf
ROOT
ATOM      1  C   UNL     1      88.748  99.892  66.612  1.00  0.00     0.010 C 
ENDROOT
BRANCH   1   2
ATOM      2  C   UNL     1      88.952  98.383  66.719  1.00  0.00     0.100 C 
BRANCH   2   3
ATOM      3  C   UNL     1      89.618  97.980  68.024  1.00  0.00     0.220 C 
ATOM      4  O   UNL     1      90.393  97.033  68.121  1.00  0.00    -0.275 OA
ATOM      5  N   UNL     1      89.230  98.805  69.070  1.00  0.00    -0.352 N 
ATOM      6  H   UNL     1      88.572  99.560  68.896  1.00  0.00     0.163 HD
BRANCH   5   7
ATOM      7  C   UNL     1      89.711  98.634  70.422  1.00  0.00     0.151 C 
BRANCH   7   8
ATOM      8  C   UNL     1      90.577  99.780  70.858  1.00  0.00    -0.025 A 
ATOM      9  C   UNL     1      91.956  99.616  70.917  1.00  0.00     0.056 A 
ATOM     10  C   UNL     1      89.991 100.992  71.200  1.00  0.00     0.009 A 
ATOM     11  C   UNL     1      92.761 100.680  71.323  1.00  0.00     0.160 A 
ATOM     12  C   UNL     1      90.797 102.057  71.606  1.00  0.00     0.050 A 
ATOM     13  C   UNL     1      92.181 101.901  71.668  1.00  0.00     0.157 A 
BRANCH  11  14
ATOM     14  O   UNL     1      94.112 100.516  71.379  1.00  0.00    -0.493 OA
ATOM     15  C   UNL     1      94.821 100.547  70.141  1.00  0.00     0.278 C 
ENDBRANCH  11  14
BRANCH  13  16
ATOM     16  O   UNL     1      92.956 102.948  72.065  1.00  0.00    -0.504 OA
ATOM     17  H   UNL     1      93.365 103.354  71.282  1.00  0.00     0.293 HD
ENDBRANCH  13  16
ENDBRANCH   7   8
ENDBRANCH   5   7
ENDBRANCH   2   3
ENDBRANCH   1   2
BRANCH   1  18
ATOM     18  C   UNL     1      87.285 100.297  66.413  1.00  0.00     0.001 C 
BRANCH  18  19
ATOM     19  C   UNL     1      87.020 101.803  66.309  1.00  0.00     0.000 C 
BRANCH  19  20
ATOM     20  C   UNL     1      88.008 102.648  67.118  1.00  0.00     0.000 C 
BRANCH  20  21
ATOM     21  C   UNL     1      88.899 103.544  66.251  1.00  0.00     0.000 C 
BRANCH  21  22
ATOM     22  C   UNL     1      90.388 103.196  66.351  1.00  0.00     0.003 C 
BRANCH  22  23
ATOM     23  C   UNL     1      90.813 102.708  67.750  1.00  0.00    -0.017 C 
ATOM     24  C   UNL     1      91.494 103.848  68.511  1.00  0.00     0.007 C 
ATOM     25  C   UNL     1      91.747 101.500  67.691  1.00  0.00     0.007 C 
ENDBRANCH  22  23
ENDBRANCH  21  22
ENDBRANCH  20  21
ENDBRANCH  19  20
ENDBRANCH  18  19
ENDBRANCH   1  18
TORSDOF 12
ENDMDL
MODEL 3
REMARK VINA RESULT:    -5.195     20.674     23.487
REMARK INTER + INTRA:         -10.906
REMARK INTER:                 -10.415
REMARK INTRA:                  -0.491
REMARK UNBOUND:                -2.219
REMARK SMILES COc1cc(CNC(=O)CCCCCCCC(C)C)ccc1O
REMARK SMILES IDX 11 1 10 2 8 3 9 4 7 5 6 7 5 8 4 9 20 10 3 11 21 12 22 13
REMARK SMILES IDX 2 14 1 15 23 16 12 18 13 19 14 20 15 21 16 22 17 23 18 24
REMARK SMILES IDX 19 25
REMARK H PARENT 7 6 23 17
REMARK Flexibility Score: inf
ROOT
ATOM      1  C   UNL     1      95.459  83.454  83.600  1.00  0.00     0.010 C 
ENDROOT
BRANCH   1   2
ATOM      2  C   UNL     1      96.767  83.289  82.829  1.00  0.00     0.100 C 
BRANCH   2   3
ATOM      3  C   UNL     1      96.759  82.060  81.934  1.00  0.00     0.220 C 
ATOM      4  O   UNL     1      96.298  80.977  82.281  1.00  0.00    -0.275 OA
ATOM      5  N   UNL     1      97.339  82.324  80.702  1.00  0.00    -0.352 N 
ATOM      6  H   UNL     1      97.705  83.252  80.507  1.00  0.00     0.163 HD
BRANCH   5   7
ATOM      7  C   UNL     1      97.467  81.324  79.666  1.00  0.00     0.151 C 
BRANCH   7   8
ATOM      8  C   UNL     1      97.157  81.881  78.307  1.00  0.00    -0.025 A 
ATOM      9  C   UNL     1      98.099  81.777  77.291  1.00  0.00     0.056 A 
ATOM     10  C   UNL     1      95.931  82.495  78.080  1.00  0.00     0.009 A 
ATOM     11  C   UNL     1      97.811  82.295  76.028  1.00  0.00     0.160 A 
ATOM     12  C   UNL     1      95.644  83.014  76.817  1.00  0.00     0.050 A 
ATOM     13  C   UNL     1      96.583  82.914  75.790  1.00  0.00     0.157 A 
BRANCH  11  14
ATOM     14  O   UNL     1      98.737  82.192  75.034  1.00  0.00    -0.493 OA
ATOM     15  C   UNL     1      98.707  81.005  74.242  1.00  0.00     0.278 C 
ENDBRANCH  11  14
BRANCH  13  16
ATOM     16  O   UNL     1      96.290  83.423  74.562  1.00  0.00    -0.504 OA
ATOM     17  H   UNL     1      96.942  84.110  74.340  1.00  0.00     0.293 HD
ENDBRANCH  13  16
ENDBRANCH   7   8
ENDBRANCH   5   7
ENDBRANCH   2   3
ENDBRANCH   1   2
BRANCH   1  18
ATOM     18  C   UNL     1      95.506  84.570  84.648  1.00  0.00     0.001 C 
BRANCH  18  19
ATOM     19  C   UNL     1      94.392  84.541  85.700  1.00  0.00     0.000 C 
BRANCH  19  20
ATOM     20  C   UNL     1      94.908  84.708  87.132  1.00  0.00     0.000 C 
BRANCH  20  21
ATOM     21  C   UNL     1      95.713  85.996  87.344  1.00  0.00     0.000 C 
BRANCH  21  22
ATOM     22  C   UNL     1      95.167  86.872  88.476  1.00  0.00     0.003 C 
BRANCH  22  23
ATOM     23  C   UNL     1      95.608  88.346  88.379  1.00  0.00    -0.017 C 
ATOM     24  C   UNL     1      96.993  88.514  89.010  1.00  0.00     0.007 C 
ATOM     25  C   UNL     1      94.619  89.299  89.050  1.00  0.00     0.007 C 
ENDBRANCH  22  23
ENDBRANCH  21  22
ENDBRANCH  20  21
ENDBRANCH  19  20
ENDBRANCH  18  19
ENDBRANCH   1  18
TORSDOF 12
ENDMDL
MODEL 4
REMARK VINA RESULT:    -5.076      3.093      6.888
REMARK INTER + INTRA:         -10.708
REMARK INTER:                  -9.897
REMARK INTRA:                  -0.810
REMARK UNBOUND:                -2.219
REMARK SMILES COc1cc(CNC(=O)CCCCCCCC(C)C)ccc1O
REMARK SMILES IDX 11 1 10 2 8 3 9 4 7 5 6 7 5 8 4 9 20 10 3 11 21 12 22 13
REMARK SMILES IDX 2 14 1 15 23 16 12 18 13 19 14 20 15 21 16 22 17 23 18 24
REMARK SMILES IDX 19 25
REMARK H PARENT 7 6 23 17
REMARK Flexibility Score: inf
ROOT
ATOM      1  C   UNL     1      89.852  99.469  69.643  1.00  0.00     0.010 C 
ENDROOT
BRANCH   1   2
ATOM      2  C   UNL     1      89.524  98.268  68.759  1.00  0.00     0.100 C 
BRANCH   2   3
ATOM      3  C   UNL     1      88.986  98.679  67.399  1.00  0.00     0.220 C 
ATOM      4  O   UNL     1      89.522  98.366  66.339  1.00  0.00    -0.275 OA
ATOM      5  N   UNL     1      87.837  99.447  67.516  1.00  0.00    -0.352 N 
ATOM      6  H   UNL     1      87.471  99.666  68.439  1.00  0.00     0.163 HD
BRANCH   5   7
ATOM      7  C   UNL     1      87.127  99.975  66.374  1.00  0.00     0.151 C 
BRANCH   7   8
ATOM      8  C   UNL     1      87.205 101.473  66.308  1.00  0.00    -0.025 A 
ATOM      9  C   UNL     1      86.040 102.216  66.158  1.00  0.00     0.056 A 
ATOM     10  C   UNL     1      88.441 102.101  66.398  1.00  0.00     0.009 A 
ATOM     11  C   UNL     1      86.113 103.607  66.097  1.00  0.00     0.160 A 
ATOM     12  C   UNL     1      88.514 103.493  66.336  1.00  0.00     0.050 A 
ATOM     13  C   UNL     1      87.350 104.246  66.186  1.00  0.00     0.157 A 
BRANCH  11  14
ATOM     14  O   UNL     1      84.969 104.332  65.949  1.00  0.00    -0.493 OA
ATOM     15  C   UNL     1      84.483 104.512  64.620  1.00  0.00     0.278 C 
ENDBRANCH  11  14
BRANCH  13  16
ATOM     16  O   UNL     1      87.433 105.605  66.128  1.00  0.00    -0.504 OA
ATOM     17  H   UNL     1      88.370 105.865  66.150  1.00  0.00     0.293 HD
ENDBRANCH  13  16
ENDBRANCH   7   8
ENDBRANCH   5   7
ENDBRANCH   2   3
ENDBRANCH   1   2
BRANCH   1  18
ATOM     18  C   UNL     1      90.579  99.095  70.937  1.00  0.00     0.001 C 
BRANCH  18  19
ATOM     19  C   UNL     1      91.711 100.038  71.359  1.00  0.00     0.000 C 
BRANCH  19  20
ATOM     20  C   UNL     1      93.104  99.504  71.014  1.00  0.00     0.000 C 
BRANCH  20  21
ATOM     21  C   UNL     1      94.036  99.403  72.226  1.00  0.00     0.000 C 
BRANCH  21  22
ATOM     22  C   UNL     1      93.415  98.652  73.408  1.00  0.00     0.003 C 
BRANCH  22  23
ATOM     23  C   UNL     1      94.381  97.654  74.078  1.00  0.00    -0.017 C 
ATOM     24  C   UNL     1      95.381  97.129  73.045  1.00  0.00     0.007 C 
ATOM     25  C   UNL     1      93.651  96.480  74.730  1.00  0.00     0.007 C 
ENDBRANCH  22  23
ENDBRANCH  21  22
ENDBRANCH  20  21
ENDBRANCH  19  20
ENDBRANCH  18  19
ENDBRANCH   1  18
TORSDOF 12
ENDMDL
MODEL 5
REMARK VINA RESULT:    -5.056     19.895     23.030
REMARK INTER + INTRA:         -10.673
REMARK INTER:                  -9.636
REMARK INTRA:                  -1.037
REMARK UNBOUND:                -2.219
REMARK SMILES COc1cc(CNC(=O)CCCCCCCC(C)C)ccc1O
REMARK SMILES IDX 11 1 10 2 8 3 9 4 7 5 6 7 5 8 4 9 20 10 3 11 21 12 22 13
REMARK SMILES IDX 2 14 1 15 23 16 12 18 13 19 14 20 15 21 16 22 17 23 18 24
REMARK SMILES IDX 19 25
REMARK H PARENT 7 6 23 17
REMARK Flexibility Score: inf
ROOT
ATOM      1  C   UNL     1      97.337  81.430  77.752  1.00  0.00     0.010 C 
ENDROOT
BRANCH   1   2
ATOM      2  C   UNL     1      96.149  82.338  77.444  1.00  0.00     0.100 C 
BRANCH   2   3
ATOM      3  C   UNL     1      96.210  82.915  76.039  1.00  0.00     0.220 C 
ATOM      4  O   UNL     1      95.644  83.954  75.711  1.00  0.00    -0.275 OA
ATOM      5  N   UNL     1      96.969  82.118  75.194  1.00  0.00    -0.352 N 
ATOM      6  H   UNL     1      97.392  81.266  75.553  1.00  0.00     0.163 HD
BRANCH   5   7
ATOM      7  C   UNL     1      97.181  82.435  73.800  1.00  0.00     0.151 C 
BRANCH   7   8
ATOM      8  C   UNL     1      98.616  82.767  73.512  1.00  0.00    -0.025 A 
ATOM      9  C   UNL     1      99.579  81.766  73.569  1.00  0.00     0.056 A 
ATOM     10  C   UNL     1      98.968  84.073  73.192  1.00  0.00     0.009 A 
ATOM     11  C   UNL     1     100.912  82.075  73.302  1.00  0.00     0.160 A 
ATOM     12  C   UNL     1     100.302  84.382  72.925  1.00  0.00     0.050 A 
ATOM     13  C   UNL     1     101.274  83.384  72.980  1.00  0.00     0.157 A 
BRANCH  11  14
ATOM     14  O   UNL     1     101.853  81.092  73.359  1.00  0.00    -0.493 OA
ATOM     15  C   UNL     1     101.397  79.749  73.200  1.00  0.00     0.278 C 
ENDBRANCH  11  14
BRANCH  13  16
ATOM     16  O   UNL     1     102.573  83.698  72.716  1.00  0.00    -0.504 OA
ATOM     17  H   UNL     1     102.971  82.983  72.190  1.00  0.00     0.293 HD
ENDBRANCH  13  16
ENDBRANCH   7   8
ENDBRANCH   5   7
ENDBRANCH   2   3
ENDBRANCH   1   2
BRANCH   1  18
ATOM     18  C   UNL     1      98.058  81.790  79.054  1.00  0.00     0.001 C 
BRANCH  18  19
ATOM     19  C   UNL     1      97.188  81.801  80.315  1.00  0.00     0.000 C 
BRANCH  19  20
ATOM     20  C   UNL     1      96.919  80.402  80.876  1.00  0.00     0.000 C 
BRANCH  20  21
ATOM     21  C   UNL     1      96.590  80.398  82.373  1.00  0.00     0.000 C 
BRANCH  21  22
ATOM     22  C   UNL     1      97.239  81.556  83.139  1.00  0.00     0.003 C 
BRANCH  22  23
ATOM     23  C   UNL     1      96.224  82.441  83.889  1.00  0.00    -0.017 C 
ATOM     24  C   UNL     1      94.866  81.738  83.945  1.00  0.00     0.007 C 
ATOM     25  C   UNL     1      96.062  83.820  83.247  1.00  0.00     0.007 C 
ENDBRANCH  22  23
ENDBRANCH  21  22
ENDBRANCH  20  21
ENDBRANCH  19  20
ENDBRANCH  18  19
ENDBRANCH   1  18
TORSDOF 12
ENDMDL
MODEL 6
REMARK VINA RESULT:    -4.955     21.406     23.972
REMARK INTER + INTRA:         -10.505
REMARK INTER:                  -9.738
REMARK INTRA:                  -0.767
REMARK UNBOUND:                -2.219
REMARK SMILES COc1cc(CNC(=O)CCCCCCCC(C)C)ccc1O
REMARK SMILES IDX 11 1 10 2 8 3 9 4 7 5 6 7 5 8 4 9 20 10 3 11 21 12 22 13
REMARK SMILES IDX 2 14 1 15 23 16 12 18 13 19 14 20 15 21 16 22 17 23 18 24
REMARK SMILES IDX 19 25
REMARK H PARENT 7 6 23 17
REMARK Flexibility Score: inf
ROOT
ATOM      1  C   UNL     1      97.045  80.959  81.381  1.00  0.00     0.010 C 
ENDROOT
BRANCH   1   2
ATOM      2  C   UNL     1      96.591  82.375  81.728  1.00  0.00     0.100 C 
BRANCH   2   3
ATOM      3  C   UNL     1      96.687  82.666  83.216  1.00  0.00     0.220 C 
ATOM      4  O   UNL     1      97.680  82.407  83.891  1.00  0.00    -0.275 OA
ATOM      5  N   UNL     1      95.522  83.243  83.699  1.00  0.00    -0.352 N 
ATOM      6  H   UNL     1      94.745  83.411  83.066  1.00  0.00     0.163 HD
BRANCH   5   7
ATOM      7  C   UNL     1      95.347  83.612  85.085  1.00  0.00     0.151 C 
BRANCH   7   8
ATOM      8  C   UNL     1      94.021  83.159  85.623  1.00  0.00    -0.025 A 
ATOM      9  C   UNL     1      93.539  81.898  85.291  1.00  0.00     0.056 A 
ATOM     10  C   UNL     1      93.289  84.004  86.448  1.00  0.00     0.009 A 
ATOM     11  C   UNL     1      92.306  81.477  85.791  1.00  0.00     0.160 A 
ATOM     12  C   UNL     1      92.056  83.583  86.947  1.00  0.00     0.050 A 
ATOM     13  C   UNL     1      91.564  82.320  86.619  1.00  0.00     0.157 A 
BRANCH  11  14
ATOM     14  O   UNL     1      91.837  80.241  85.462  1.00  0.00    -0.493 OA
ATOM     15  C   UNL     1      92.805  79.248  85.128  1.00  0.00     0.278 C 
ENDBRANCH  11  14
BRANCH  13  16
ATOM     16  O   UNL     1      90.360  81.920  87.113  1.00  0.00    -0.504 OA
ATOM     17  H   UNL     1      90.503  81.450  87.953  1.00  0.00     0.293 HD
ENDBRANCH  13  16
ENDBRANCH   7   8
ENDBRANCH   5   7
ENDBRANCH   2   3
ENDBRANCH   1   2
BRANCH   1  18
ATOM     18  C   UNL     1      97.580  80.822  79.953  1.00  0.00     0.001 C 
BRANCH  18  19
ATOM     19  C   UNL     1      97.318  82.016  79.028  1.00  0.00     0.000 C 
BRANCH  19  20
ATOM     20  C   UNL     1      96.628  81.626  77.718  1.00  0.00     0.000 C 
BRANCH  20  21
ATOM     21  C   UNL     1      95.848  82.778  77.074  1.00  0.00     0.000 C 
BRANCH  21  22
ATOM     22  C   UNL     1      96.370  83.163  75.686  1.00  0.00     0.003 C 
BRANCH  22  23
ATOM     23  C   UNL     1      97.233  82.067  75.029  1.00  0.00    -0.017 C 
ATOM     24  C   UNL     1      98.687  82.536  74.944  1.00  0.00     0.007 C 
ATOM     25  C   UNL     1      96.733  81.686  73.635  1.00  0.00     0.007 C 
ENDBRANCH  22  23
ENDBRANCH  21  22
ENDBRANCH  20  21
ENDBRANCH  19  20
ENDBRANCH  18  19
ENDBRANCH   1  18
TORSDOF 12
ENDMDL
MODEL 7
REMARK VINA RESULT:    -4.881      2.791      5.520
REMARK INTER + INTRA:         -10.381
REMARK INTER:                  -8.915
REMARK INTRA:                  -1.465
REMARK UNBOUND:                -2.219
REMARK SMILES COc1cc(CNC(=O)CCCCCCCC(C)C)ccc1O
REMARK SMILES IDX 11 1 10 2 8 3 9 4 7 5 6 7 5 8 4 9 20 10 3 11 21 12 22 13
REMARK SMILES IDX 2 14 1 15 23 16 12 18 13 19 14 20 15 21 16 22 17 23 18 24
REMARK SMILES IDX 19 25
REMARK H PARENT 7 6 23 17
REMARK Flexibility Score: inf
ROOT
ATOM      1  C   UNL     1      89.286  99.281  69.703  1.00  0.00     0.010 C 
ENDROOT
BRANCH   1   2
ATOM      2  C   UNL     1      89.422  98.249  68.586  1.00  0.00     0.100 C 
BRANCH   2   3
ATOM      3  C   UNL     1      88.880  98.756  67.260  1.00  0.00     0.220 C 
ATOM      4  O   UNL     1      89.451  98.582  66.187  1.00  0.00    -0.275 OA
ATOM      5  N   UNL     1      87.682  99.436  67.426  1.00  0.00    -0.352 N 
ATOM      6  H   UNL     1      87.289  99.540  68.358  1.00  0.00     0.163 HD
BRANCH   5   7
ATOM      7  C   UNL     1      86.958 100.027  66.325  1.00  0.00     0.151 C 
BRANCH   7   8
ATOM      8  C   UNL     1      87.067 101.524  66.321  1.00  0.00    -0.025 A 
ATOM      9  C   UNL     1      85.962 102.293  65.975  1.00  0.00     0.056 A 
ATOM     10  C   UNL     1      88.272 102.126  66.663  1.00  0.00     0.009 A 
ATOM     11  C   UNL     1      86.064 103.685  65.971  1.00  0.00     0.160 A 
ATOM     12  C   UNL     1      88.374 103.518  66.658  1.00  0.00     0.050 A 
ATOM     13  C   UNL     1      87.270 104.297  66.313  1.00  0.00     0.157 A 
BRANCH  11  14
ATOM     14  O   UNL     1      84.979 104.435  65.631  1.00  0.00    -0.493 OA
ATOM     15  C   UNL     1      84.053 104.743  66.672  1.00  0.00     0.278 C 
ENDBRANCH  11  14
BRANCH  13  16
ATOM     16  O   UNL     1      87.382 105.654  66.313  1.00  0.00    -0.504 OA
ATOM     17  H   UNL     1      86.518 106.043  66.092  1.00  0.00     0.293 HD
ENDBRANCH  13  16
ENDBRANCH   7   8
ENDBRANCH   5   7
ENDBRANCH   2   3
ENDBRANCH   1   2
BRANCH   1  18
ATOM     18  C   UNL     1      90.363  99.155  70.785  1.00  0.00     0.001 C 
BRANCH  18  19
ATOM     19  C   UNL     1      91.431 100.254  70.789  1.00  0.00     0.000 C 
BRANCH  19  20
ATOM     20  C   UNL     1      91.219 101.309  69.700  1.00  0.00     0.000 C 
BRANCH  20  21
ATOM     21  C   UNL     1      92.184 101.168  68.518  1.00  0.00     0.000 C 
BRANCH  21  22
ATOM     22  C   UNL     1      91.537 101.487  67.166  1.00  0.00     0.003 C 
BRANCH  22  23
ATOM     23  C   UNL     1      92.523 102.074  66.137  1.00  0.00    -0.017 C 
ATOM     24  C   UNL     1      92.315 101.401  64.778  1.00  0.00     0.007 C 
ATOM     25  C   UNL     1      93.982 101.920  66.569  1.00  0.00     0.007 C 
ENDBRANCH  22  23
ENDBRANCH  21  22
ENDBRANCH  20  21
ENDBRANCH  19  20
ENDBRANCH  18  19
ENDBRANCH   1  18
TORSDOF 12
ENDMDL
MODEL 8
REMARK VINA RESULT:    -4.871     20.206     22.999
REMARK INTER + INTRA:         -10.365
REMARK INTER:                  -8.999
REMARK INTRA:                  -1.366
REMARK UNBOUND:                -2.219
REMARK SMILES COc1cc(CNC(=O)CCCCCCCC(C)C)ccc1O
REMARK SMILES IDX 11 1 10 2 8 3 9 4 7 5 6 7 5 8 4 9 20 10 3 11 21 12 22 13
REMARK SMILES IDX 2 14 1 15 23 16 12 18 13 19 14 20 15 21 16 22 17 23 18 24
REMARK SMILES IDX 19 25
REMARK H PARENT 7 6 23 17
REMARK Flexibility Score: inf
ROOT
ATOM      1  C   UNL     1     101.430  78.890  76.347  1.00  0.00     0.010 C 
ENDROOT
BRANCH   1   2
ATOM      2  C   UNL     1     101.414  78.607  77.848  1.00  0.00     0.100 C 
BRANCH   2   3
ATOM      3  C   UNL     1     100.747  79.721  78.639  1.00  0.00     0.220 C 
ATOM      4  O   UNL     1     101.308  80.334  79.543  1.00  0.00    -0.275 OA
ATOM      5  N   UNL     1      99.445  79.938  78.215  1.00  0.00    -0.352 N 
ATOM      6  H   UNL     1      99.060  79.371  77.465  1.00  0.00     0.163 HD
BRANCH   5   7
ATOM      7  C   UNL     1      98.584  80.936  78.808  1.00  0.00     0.151 C 
BRANCH   7   8
ATOM      8  C   UNL     1      97.753  81.643  77.777  1.00  0.00    -0.025 A 
ATOM      9  C   UNL     1      98.166  81.655  76.451  1.00  0.00     0.056 A 
ATOM     10  C   UNL     1      96.578  82.278  78.161  1.00  0.00     0.009 A 
ATOM     11  C   UNL     1      97.393  82.313  75.493  1.00  0.00     0.160 A 
ATOM     12  C   UNL     1      95.805  82.936  77.203  1.00  0.00     0.050 A 
ATOM     13  C   UNL     1      96.213  82.954  75.870  1.00  0.00     0.157 A 
BRANCH  11  14
ATOM     14  O   UNL     1      97.802  82.323  74.194  1.00  0.00    -0.493 OA
ATOM     15  C   UNL     1      97.490  81.175  73.407  1.00  0.00     0.278 C 
ENDBRANCH  11  14
BRANCH  13  16
ATOM     16  O   UNL     1      95.449  83.599  74.944  1.00  0.00    -0.504 OA
ATOM     17  H   UNL     1      94.888  82.948  74.488  1.00  0.00     0.293 HD
ENDBRANCH  13  16
ENDBRANCH   7   8
ENDBRANCH   5   7
ENDBRANCH   2   3
ENDBRANCH   1   2
BRANCH   1  18
ATOM     18  C   UNL     1     102.173  80.177  75.977  1.00  0.00     0.001 C 
BRANCH  18  19
ATOM     19  C   UNL     1     101.711  80.862  74.686  1.00  0.00     0.000 C 
BRANCH  19  20
ATOM     20  C   UNL     1     102.860  81.183  73.727  1.00  0.00     0.000 C 
BRANCH  20  21
ATOM     21  C   UNL     1     102.442  82.069  72.549  1.00  0.00     0.000 C 
BRANCH  21  22
ATOM     22  C   UNL     1     100.969  82.490  72.599  1.00  0.00     0.003 C 
BRANCH  22  23
ATOM     23  C   UNL     1     100.673  83.783  71.814  1.00  0.00    -0.017 C 
ATOM     24  C   UNL     1     101.977  84.542  71.556  1.00  0.00     0.007 C 
ATOM     25  C   UNL     1      99.682  84.695  72.538  1.00  0.00     0.007 C 
ENDBRANCH  22  23
ENDBRANCH  21  22
ENDBRANCH  20  21
ENDBRANCH  19  20
ENDBRANCH  18  19
ENDBRANCH   1  18
TORSDOF 12
ENDMDL
MODEL 9
REMARK VINA RESULT:    -4.674     15.871     18.015
REMARK INTER + INTRA:         -10.036
REMARK INTER:                  -9.101
REMARK INTRA:                  -0.935
REMARK UNBOUND:                -2.219
REMARK SMILES COc1cc(CNC(=O)CCCCCCCC(C)C)ccc1O
REMARK SMILES IDX 11 1 10 2 8 3 9 4 7 5 6 7 5 8 4 9 20 10 3 11 21 12 22 13
REMARK SMILES IDX 2 14 1 15 23 16 12 18 13 19 14 20 15 21 16 22 17 23 18 24
REMARK SMILES IDX 19 25
REMARK H PARENT 7 6 23 17
REMARK Flexibility Score: inf
ROOT
ATOM      1  C   UNL     1      74.534  90.557  69.654  1.00  0.00     0.010 C 
ENDROOT
BRANCH   1   2
ATOM      2  C   UNL     1      73.991  91.721  68.828  1.00  0.00     0.100 C 
BRANCH   2   3
ATOM      3  C   UNL     1      74.229  93.065  69.497  1.00  0.00     0.220 C 
ATOM      4  O   UNL     1      73.563  94.067  69.251  1.00  0.00    -0.275 OA
ATOM      5  N   UNL     1      75.283  93.008  70.396  1.00  0.00    -0.352 N 
ATOM      6  H   UNL     1      75.785  92.133  70.526  1.00  0.00     0.163 HD
BRANCH   5   7
ATOM      7  C   UNL     1      75.723  94.151  71.161  1.00  0.00     0.151 C 
BRANCH   7   8
ATOM      8  C   UNL     1      75.695  93.883  72.638  1.00  0.00    -0.025 A 
ATOM      9  C   UNL     1      76.854  94.042  73.388  1.00  0.00     0.056 A 
ATOM     10  C   UNL     1      74.510  93.479  73.240  1.00  0.00     0.009 A 
ATOM     11  C   UNL     1      76.828  93.792  74.760  1.00  0.00     0.160 A 
ATOM     12  C   UNL     1      74.484  93.229  74.613  1.00  0.00     0.050 A 
ATOM     13  C   UNL     1      75.643  93.385  75.373  1.00  0.00     0.157 A 
BRANCH  11  14
ATOM     14  O   UNL     1      77.967  93.948  75.492  1.00  0.00    -0.493 OA
ATOM     15  C   UNL     1      78.439  95.281  75.679  1.00  0.00     0.278 C 
ENDBRANCH  11  14
BRANCH  13  16
ATOM     16  O   UNL     1      75.604  93.139  76.712  1.00  0.00    -0.504 OA
ATOM     17  H   UNL     1      75.169  92.283  76.864  1.00  0.00     0.293 HD
ENDBRANCH  13  16
ENDBRANCH   7   8
ENDBRANCH   5   7
ENDBRANCH   2   3
ENDBRANCH   1   2
BRANCH   1  18
ATOM     18  C   UNL     1      75.327  89.540  68.828  1.00  0.00     0.001 C 
BRANCH  18  19
ATOM     19  C   UNL     1      75.610  89.941  67.376  1.00  0.00     0.000 C 
BRANCH  19  20
ATOM     20  C   UNL     1      76.900  89.329  66.821  1.00  0.00     0.000 C 
BRANCH  20  21
ATOM     21  C   UNL     1      77.376  88.099  67.600  1.00  0.00     0.000 C 
BRANCH  21  22
ATOM     22  C   UNL     1      77.180  86.784  66.837  1.00  0.00     0.003 C 
BRANCH  22  23
ATOM     23  C   UNL     1      77.519  85.533  67.671  1.00  0.00    -0.017 C 
ATOM     24  C   UNL     1      77.395  84.281  66.800  1.00  0.00     0.007 C 
ATOM     25  C   UNL     1      76.626  85.392  68.905  1.00  0.00     0.007 C 
ENDBRANCH  22  23
ENDBRANCH  21  22
ENDBRANCH  20  21
ENDBRANCH  19  20
ENDBRANCH  18  19
ENDBRANCH   1  18
TORSDOF 12
ENDMDL
MODEL 10
REMARK VINA RESULT:    -4.550      2.712      4.202
REMARK INTER + INTRA:          -9.828
REMARK INTER:                  -8.989
REMARK INTRA:                  -0.839
REMARK UNBOUND:                -2.219
REMARK SMILES COc1cc(CNC(=O)CCCCCCCC(C)C)ccc1O
REMARK SMILES IDX 11 1 10 2 8 3 9 4 7 5 6 7 5 8 4 9 20 10 3 11 21 12 22 13
REMARK SMILES IDX 2 14 1 15 23 16 12 18 13 19 14 20 15 21 16 22 17 23 18 24
REMARK SMILES IDX 19 25
REMARK H PARENT 7 6 23 17
REMARK Flexibility Score: inf
ROOT
ATOM      1  C   UNL     1      89.944  98.926  66.801  1.00  0.00     0.010 C 
ENDROOT
BRANCH   1   2
ATOM      2  C   UNL     1      89.693  98.029  68.011  1.00  0.00     0.100 C 
BRANCH   2   3
ATOM      3  C   UNL     1      90.011  98.726  69.324  1.00  0.00     0.220 C 
ATOM      4  O   UNL     1      89.398  98.512  70.366  1.00  0.00    -0.275 OA
ATOM      5  N   UNL     1      91.059  99.624  69.183  1.00  0.00    -0.352 N 
ATOM      6  H   UNL     1      91.500  99.743  68.275  1.00  0.00     0.163 HD
BRANCH   5   7
ATOM      7  C   UNL     1      91.556 100.425  70.278  1.00  0.00     0.151 C 
BRANCH   7   8
ATOM      8  C   UNL     1      92.709  99.765  70.978  1.00  0.00    -0.025 A 
ATOM      9  C   UNL     1      93.864  99.463  70.265  1.00  0.00     0.056 A 
ATOM     10  C   UNL     1      92.610  99.463  72.330  1.00  0.00     0.009 A 
ATOM     11  C   UNL     1      94.935  98.851  70.915  1.00  0.00     0.160 A 
ATOM     12  C   UNL     1      93.682  98.850  72.980  1.00  0.00     0.050 A 
ATOM     13  C   UNL     1      94.844  98.543  72.273  1.00  0.00     0.157 A 
BRANCH  11  14
ATOM     14  O   UNL     1      96.065  98.555  70.214  1.00  0.00    -0.493 OA
ATOM     15  C   UNL     1      96.871  99.655  69.792  1.00  0.00     0.278 C 
ENDBRANCH  11  14
BRANCH  13  16
ATOM     16  O   UNL     1      95.884  97.945  72.919  1.00  0.00    -0.504 OA
ATOM     17  H   UNL     1      96.715  98.196  72.481  1.00  0.00     0.293 HD
ENDBRANCH  13  16
ENDBRANCH   7   8
ENDBRANCH   5   7
ENDBRANCH   2   3
ENDBRANCH   1   2
BRANCH   1  18
ATOM     18  C   UNL     1      88.964 100.098  66.695  1.00  0.00     0.001 C 
BRANCH  18  19
ATOM     19  C   UNL     1      87.514  99.723  66.373  1.00  0.00     0.000 C 
BRANCH  19  20
ATOM     20  C   UNL     1      86.579 100.934  66.295  1.00  0.00     0.000 C 
BRANCH  20  21
ATOM     21  C   UNL     1      87.320 102.276  66.284  1.00  0.00     0.000 C 
BRANCH  21  22
ATOM     22  C   UNL     1      86.392 103.478  66.079  1.00  0.00     0.003 C 
BRANCH  22  23
ATOM     23  C   UNL     1      86.767 104.698  66.943  1.00  0.00    -0.017 C 
ATOM     24  C   UNL     1      88.055 104.407  67.718  1.00  0.00     0.007 C 
ATOM     25  C   UNL     1      85.657 105.088  67.919  1.00  0.00     0.007 C 
ENDBRANCH  22  23
ENDBRANCH  21  22
ENDBRANCH  20  21
ENDBRANCH  19  20
ENDBRANCH  18  19
ENDBRANCH   1  18
TORSDOF 12
ENDMDL
