MODEL 1
REMARK VINA RESULT:    -5.581      0.000      0.000
REMARK INTER + INTRA:         -11.872
REMARK INTER:                  -9.823
REMARK INTRA:                  -2.049
REMARK UNBOUND:                -2.049
REMARK SMILES C=C(C)[C@]12C[C@@H](C)[C@@]34O[C@](Cc5ccccc5)(O[C@@H]1[C@@H]3C=C(COC(=O)Cc1ccc(O)c(OC)c1)C[C@]1(O)C(=O)C(C)=C[C@@H]41)O2
REMARK SMILES IDX 23 1 22 2 21 3 20 4 9 5 8 6 10 7 6 8 18 9 46 10 19 11 5 12
REMARK SMILES IDX 7 13 4 14 45 15 38 16 44 17 40 18 42 20 41 21 43 22 39 23
REMARK SMILES IDX 11 25 12 26 13 27 17 28 14 29 16 30 15 31 2 32 3 33 1 34
REMARK SMILES IDX 37 35 24 37 25 38 26 39 27 40 28 41 36 42 29 43 33 44 30 45
REMARK SMILES IDX 31 46 34 47 35 48 32 49
REMARK H PARENT 39 24 32 50
REMARK Flexibility Score: 90.00
ROOT
ATOM      1  C   UNL     1      64.870  89.729  69.005  1.00  0.00     0.264 C 
ENDROOT
BRANCH   1   2
ATOM      2  C   UNL     1      65.374  88.997  70.226  1.00  0.00    -0.033 C 
ATOM      3  C   UNL     1      64.567  88.871  71.299  1.00  0.00    -0.015 C 
BRANCH   3   4
ATOM      4  C   UNL     1      64.859  88.257  72.659  1.00  0.00     0.078 C 
ATOM      5  O   UNL     1      64.182  85.881  72.536  1.00  0.00    -0.319 OA
ATOM      6  C   UNL     1      65.336  86.759  72.717  1.00  0.00     0.095 C 
ATOM      7  C   UNL     1      62.994  86.270  73.253  1.00  0.00     0.289 C 
ATOM      8  C   UNL     1      65.964  86.510  74.151  1.00  0.00     0.023 C 
ATOM      9  O   UNL     1      62.585  87.588  72.898  1.00  0.00    -0.320 OA
ATOM     10  O   UNL     1      63.198  86.296  74.663  1.00  0.00    -0.313 OA
ATOM     11  C   UNL     1      63.603  88.355  73.560  1.00  0.00     0.170 C 
ATOM     12  C   UNL     1      65.245  87.360  75.244  1.00  0.00     0.049 C 
ATOM     13  C   UNL     1      66.021  85.041  74.600  1.00  0.00     0.011 C 
ATOM     14  C   UNL     1      63.774  87.597  74.900  1.00  0.00     0.122 C 
BRANCH   6  15
ATOM     15  C   UNL     1      66.267  86.429  71.514  1.00  0.00     0.086 C 
ATOM     16  C   UNL     1      67.319  87.498  71.155  1.00  0.00     0.140 CG0
ATOM     17  C   UNL     1      67.056  85.150  71.522  1.00  0.00    -0.010 C 
ATOM     18  C   UNL     1      68.487  86.660  70.679  1.00  0.00     0.190 C 
ATOM     19  G   UNL     1      66.818  88.465  70.084  1.00  0.00     0.000 G0
ATOM     20  C   UNL     1      68.298  85.241  71.034  1.00  0.00    -0.008 C 
ATOM     21  O   UNL     1      69.485  87.089  70.120  1.00  0.00    -0.291 OA
ATOM     22  C   UNL     1      69.313  84.190  70.814  1.00  0.00     0.048 C 
BRANCH  16  23
ATOM     23  O   UNL     1      67.837  88.193  72.278  1.00  0.00    -0.381 OA
ATOM     24  H   UNL     1      67.601  87.699  73.080  1.00  0.00     0.212 HD
ENDBRANCH  16  23
ENDBRANCH   6  15
BRANCH   7  25
ATOM     25  C   UNL     1      61.893  85.284  72.918  1.00  0.00     0.135 C 
BRANCH  25  26
ATOM     26  C   UNL     1      62.430  84.040  72.255  1.00  0.00    -0.040 A 
ATOM     27  C   UNL     1      62.812  84.075  70.913  1.00  0.00     0.004 A 
ATOM     28  C   UNL     1      62.547  82.856  72.982  1.00  0.00     0.004 A 
ATOM     29  C   UNL     1      63.309  82.925  70.299  1.00  0.00     0.000 A 
ATOM     30  C   UNL     1      63.044  81.706  72.368  1.00  0.00     0.000 A 
ATOM     31  C   UNL     1      63.425  81.741  71.027  1.00  0.00     0.000 A 
ENDBRANCH  25  26
ENDBRANCH   7  25
BRANCH  14  32
ATOM     32  C   UNL     1      63.022  88.249  76.014  1.00  0.00    -0.046 C 
ATOM     33  C   UNL     1      63.823  88.615  77.228  1.00  0.00     0.042 C 
ATOM     34  C   UNL     1      61.705  88.493  75.933  1.00  0.00     0.010 C 
ENDBRANCH  14  32
ENDBRANCH   3   4
BRANCH   2  35
ATOM     35  C   UNL     1      66.788  88.472  70.064  1.00  0.00     0.078 CG0
ATOM     36  G   UNL     1      67.310  87.526  71.144  1.00  0.00     0.000 G0
ENDBRANCH   2  35
ENDBRANCH   1   2
BRANCH   1  37
ATOM     37  O   UNL     1      63.949  90.722  69.402  1.00  0.00    -0.461 OA
BRANCH  37  38
ATOM     38  C   UNL     1      62.650  90.549  68.984  1.00  0.00     0.310 C 
ATOM     39  O   UNL     1      62.308  90.304  67.835  1.00  0.00    -0.252 OA
BRANCH  38  40
ATOM     40  C   UNL     1      61.716  90.708  70.161  1.00  0.00     0.158 C 
BRANCH  40  41
ATOM     41  C   UNL     1      60.890  89.476  70.427  1.00  0.00    -0.033 A 
ATOM     42  C   UNL     1      59.794  89.544  71.288  1.00  0.00     0.054 A 
ATOM     43  C   UNL     1      61.221  88.268  69.813  1.00  0.00     0.008 A 
ATOM     44  C   UNL     1      59.030  88.403  71.535  1.00  0.00     0.160 A 
ATOM     45  C   UNL     1      60.457  87.128  70.060  1.00  0.00     0.050 A 
ATOM     46  C   UNL     1      59.362  87.195  70.921  1.00  0.00     0.157 A 
BRANCH  44  47
ATOM     47  O   UNL     1      57.963  88.482  72.378  1.00  0.00    -0.493 OA
ATOM     48  C   UNL     1      58.181  88.107  73.737  1.00  0.00     0.278 C 
ENDBRANCH  44  47
BRANCH  46  49
ATOM     49  O   UNL     1      58.622  86.075  71.153  1.00  0.00    -0.504 OA
ATOM     50  H   UNL     1      58.109  86.198  71.970  1.00  0.00     0.293 HD
ENDBRANCH  46  49
ENDBRANCH  40  41
ENDBRANCH  38  40
ENDBRANCH  37  38
ENDBRANCH   1  37
TORSDOF 11
ENDMDL
MODEL 2
REMARK VINA RESULT:    -5.573     34.106     37.406
REMARK INTER + INTRA:         -11.857
REMARK INTER:                 -10.100
REMARK INTRA:                  -1.757
REMARK UNBOUND:                -2.049
REMARK SMILES C=C(C)[C@]12C[C@@H](C)[C@@]34O[C@](Cc5ccccc5)(O[C@@H]1[C@@H]3C=C(COC(=O)Cc1ccc(O)c(OC)c1)C[C@]1(O)C(=O)C(C)=C[C@@H]41)O2
REMARK SMILES IDX 23 1 22 2 21 3 20 4 9 5 8 6 10 7 6 8 18 9 46 10 19 11 5 12
REMARK SMILES IDX 7 13 4 14 45 15 38 16 44 17 40 18 42 20 41 21 43 22 39 23
REMARK SMILES IDX 11 25 12 26 13 27 17 28 14 29 16 30 15 31 2 32 3 33 1 34
REMARK SMILES IDX 37 35 24 37 25 38 26 39 27 40 28 41 36 42 29 43 33 44 30 45
REMARK SMILES IDX 31 46 34 47 35 48 32 49
REMARK H PARENT 39 24 32 50
REMARK Flexibility Score: 90.00
ROOT
ATOM      1  C   UNL     1      97.185  83.702  75.602  1.00  0.00     0.264 C 
ENDROOT
BRANCH   1   2
ATOM      2  C   UNL     1      98.302  83.505  74.603  1.00  0.00    -0.033 C 
ATOM      3  C   UNL     1      99.552  83.895  74.927  1.00  0.00    -0.015 C 
BRANCH   3   4
ATOM      4  C   UNL     1     100.816  83.879  74.083  1.00  0.00     0.078 C 
ATOM      5  O   UNL     1     101.960  81.734  74.542  1.00  0.00    -0.319 OA
ATOM      6  C   UNL     1     101.302  82.504  73.489  1.00  0.00     0.095 C 
ATOM      7  C   UNL     1     102.846  82.486  75.394  1.00  0.00     0.289 C 
ATOM      8  C   UNL     1     102.347  82.820  72.341  1.00  0.00     0.023 C 
ATOM      9  O   UNL     1     102.164  83.568  76.022  1.00  0.00    -0.320 OA
ATOM     10  O   UNL     1     103.921  83.077  74.668  1.00  0.00    -0.313 OA
ATOM     11  C   UNL     1     102.001  84.449  74.900  1.00  0.00     0.170 C 
ATOM     12  C   UNL     1     103.172  84.105  72.657  1.00  0.00     0.049 C 
ATOM     13  C   UNL     1     103.305  81.671  71.986  1.00  0.00     0.011 C 
ATOM     14  C   UNL     1     103.355  84.304  74.162  1.00  0.00     0.122 C 
BRANCH   6  15
ATOM     15  C   UNL     1     100.089  81.626  73.067  1.00  0.00     0.086 C 
ATOM     16  C   UNL     1      98.949  82.353  72.322  1.00  0.00     0.140 CG0
ATOM     17  C   UNL     1     100.323  80.398  72.232  1.00  0.00    -0.010 C 
ATOM     18  C   UNL     1      98.458  81.291  71.362  1.00  0.00     0.190 C 
ATOM     19  G   UNL     1      97.854  82.834  73.273  1.00  0.00     0.000 G0
ATOM     20  C   UNL     1      99.410  80.167  71.284  1.00  0.00    -0.008 C 
ATOM     21  O   UNL     1      97.438  81.359  70.692  1.00  0.00    -0.291 OA
ATOM     22  C   UNL     1      99.276  79.031  70.348  1.00  0.00     0.048 C 
BRANCH  16  23
ATOM     23  O   UNL     1      99.394  83.398  71.473  1.00  0.00    -0.381 OA
ATOM     24  H   UNL     1     100.256  83.146  71.103  1.00  0.00     0.212 HD
ENDBRANCH  16  23
ENDBRANCH   6  15
BRANCH   7  25
ATOM     25  C   UNL     1     103.402  81.549  76.447  1.00  0.00     0.135 C 
BRANCH  25  26
ATOM     26  C   UNL     1     102.379  80.537  76.900  1.00  0.00    -0.040 A 
ATOM     27  C   UNL     1     102.626  79.174  76.732  1.00  0.00     0.004 A 
ATOM     28  C   UNL     1     101.188  80.962  77.487  1.00  0.00     0.004 A 
ATOM     29  C   UNL     1     101.680  78.237  77.151  1.00  0.00     0.000 A 
ATOM     30  C   UNL     1     100.242  80.026  77.905  1.00  0.00     0.000 A 
ATOM     31  C   UNL     1     100.489  78.663  77.737  1.00  0.00     0.000 A 
ENDBRANCH  25  26
ENDBRANCH   7  25
BRANCH  14  32
ATOM     32  C   UNL     1     104.292  85.422  74.483  1.00  0.00    -0.046 C 
ATOM     33  C   UNL     1     105.752  85.079  74.498  1.00  0.00     0.042 C 
ATOM     34  C   UNL     1     103.854  86.663  74.744  1.00  0.00     0.010 C 
ENDBRANCH  14  32
ENDBRANCH   3   4
BRANCH   2  35
ATOM     35  C   UNL     1      97.839  82.856  73.313  1.00  0.00     0.078 CG0
ATOM     36  G   UNL     1      98.919  82.366  72.350  1.00  0.00     0.000 G0
ENDBRANCH   2  35
ENDBRANCH   1   2
BRANCH   1  37
ATOM     37  O   UNL     1      97.733  83.821  76.897  1.00  0.00    -0.461 OA
BRANCH  37  38
ATOM     38  C   UNL     1      97.330  82.881  77.817  1.00  0.00     0.310 C 
ATOM     39  O   UNL     1      97.137  81.698  77.573  1.00  0.00    -0.252 OA
BRANCH  38  40
ATOM     40  C   UNL     1      97.163  83.535  79.168  1.00  0.00     0.158 C 
BRANCH  40  41
ATOM     41  C   UNL     1      97.790  82.743  80.286  1.00  0.00    -0.033 A 
ATOM     42  C   UNL     1      97.013  82.331  81.370  1.00  0.00     0.054 A 
ATOM     43  C   UNL     1      99.146  82.422  80.239  1.00  0.00     0.008 A 
ATOM     44  C   UNL     1      97.593  81.598  82.405  1.00  0.00     0.160 A 
ATOM     45  C   UNL     1      99.726  81.689  81.274  1.00  0.00     0.050 A 
ATOM     46  C   UNL     1      98.951  81.277  82.357  1.00  0.00     0.157 A 
BRANCH  44  47
ATOM     47  O   UNL     1      96.825  81.201  83.457  1.00  0.00    -0.493 OA
ATOM     48  C   UNL     1      95.945  80.099  83.239  1.00  0.00     0.278 C 
ENDBRANCH  44  47
BRANCH  46  49
ATOM     49  O   UNL     1      99.527  80.561  83.361  1.00  0.00    -0.504 OA
ATOM     50  H   UNL     1      98.839  80.058  83.828  1.00  0.00     0.293 HD
ENDBRANCH  46  49
ENDBRANCH  40  41
ENDBRANCH  38  40
ENDBRANCH  37  38
ENDBRANCH   1  37
TORSDOF 11
ENDMDL
MODEL 3
REMARK VINA RESULT:    -5.441     34.233     37.755
REMARK INTER + INTRA:         -11.625
REMARK INTER:                 -10.606
REMARK INTRA:                  -1.020
REMARK UNBOUND:                -2.049
REMARK SMILES C=C(C)[C@]12C[C@@H](C)[C@@]34O[C@](Cc5ccccc5)(O[C@@H]1[C@@H]3C=C(COC(=O)Cc1ccc(O)c(OC)c1)C[C@]1(O)C(=O)C(C)=C[C@@H]41)O2
REMARK SMILES IDX 23 1 22 2 21 3 20 4 9 5 8 6 10 7 6 8 18 9 46 10 19 11 5 12
REMARK SMILES IDX 7 13 4 14 45 15 38 16 44 17 40 18 42 20 41 21 43 22 39 23
REMARK SMILES IDX 11 25 12 26 13 27 17 28 14 29 16 30 15 31 2 32 3 33 1 34
REMARK SMILES IDX 37 35 24 37 25 38 26 39 27 40 28 41 36 42 29 43 33 44 30 45
REMARK SMILES IDX 31 46 34 47 35 48 32 49
REMARK H PARENT 39 24 32 50
REMARK Flexibility Score: 90.00
ROOT
ATOM      1  C   UNL     1      97.844  83.783  76.125  1.00  0.00     0.264 C 
ENDROOT
BRANCH   1   2
ATOM      2  C   UNL     1      98.950  83.041  75.411  1.00  0.00    -0.033 C 
ATOM      3  C   UNL     1      99.095  83.196  74.080  1.00  0.00    -0.015 C 
BRANCH   3   4
ATOM      4  C   UNL     1     100.064  82.513  73.128  1.00  0.00     0.078 C 
ATOM      5  O   UNL     1     102.054  83.972  72.957  1.00  0.00    -0.319 OA
ATOM      6  C   UNL     1     101.607  82.654  73.403  1.00  0.00     0.095 C 
ATOM      7  C   UNL     1     101.521  84.408  71.691  1.00  0.00     0.289 C 
ATOM      8  C   UNL     1     102.349  81.537  72.559  1.00  0.00     0.023 C 
ATOM      9  O   UNL     1     100.096  84.427  71.709  1.00  0.00    -0.320 OA
ATOM     10  O   UNL     1     101.881  83.536  70.624  1.00  0.00    -0.313 OA
ATOM     11  C   UNL     1      99.825  83.017  71.683  1.00  0.00     0.170 C 
ATOM     12  C   UNL     1     101.608  81.248  71.217  1.00  0.00     0.049 C 
ATOM     13  C   UNL     1     103.836  81.803  72.274  1.00  0.00     0.011 C 
ATOM     14  C   UNL     1     100.890  82.490  70.689  1.00  0.00     0.122 C 
BRANCH   6  15
ATOM     15  C   UNL     1     101.900  82.642  74.931  1.00  0.00     0.086 C 
ATOM     16  C   UNL     1     101.111  81.612  75.766  1.00  0.00     0.140 CG0
ATOM     17  C   UNL     1     103.314  82.470  75.409  1.00  0.00    -0.010 C 
ATOM     18  C   UNL     1     102.109  81.229  76.838  1.00  0.00     0.190 C 
ATOM     19  G   UNL     1      99.826  82.202  76.346  1.00  0.00     0.000 G0
ATOM     20  C   UNL     1     103.462  81.704  76.495  1.00  0.00    -0.008 C 
ATOM     21  O   UNL     1     101.858  80.570  77.836  1.00  0.00    -0.291 OA
ATOM     22  C   UNL     1     104.674  81.388  77.279  1.00  0.00     0.048 C 
BRANCH  16  23
ATOM     23  O   UNL     1     100.860  80.393  75.086  1.00  0.00    -0.381 OA
ATOM     24  H   UNL     1     101.540  79.751  75.347  1.00  0.00     0.212 HD
ENDBRANCH  16  23
ENDBRANCH   6  15
BRANCH   7  25
ATOM     25  C   UNL     1     102.048  85.800  71.408  1.00  0.00     0.135 C 
BRANCH  25  26
ATOM     26  C   UNL     1     102.928  85.832  70.183  1.00  0.00    -0.040 A 
ATOM     27  C   UNL     1     104.067  85.029  70.122  1.00  0.00     0.004 A 
ATOM     28  C   UNL     1     102.603  86.664  69.112  1.00  0.00     0.004 A 
ATOM     29  C   UNL     1     104.882  85.058  68.989  1.00  0.00     0.000 A 
ATOM     30  C   UNL     1     103.418  86.693  67.979  1.00  0.00     0.000 A 
ATOM     31  C   UNL     1     104.557  85.890  67.918  1.00  0.00     0.000 A 
ENDBRANCH  25  26
ENDBRANCH   7  25
BRANCH  14  32
ATOM     32  C   UNL     1     100.327  82.289  69.319  1.00  0.00    -0.046 C 
ATOM     33  C   UNL     1      99.192  81.315  69.206  1.00  0.00     0.042 C 
ATOM     34  C   UNL     1     100.810  82.942  68.251  1.00  0.00     0.010 C 
ENDBRANCH  14  32
ENDBRANCH   3   4
BRANCH   2  35
ATOM     35  C   UNL     1      99.791  82.187  76.341  1.00  0.00     0.078 CG0
ATOM     36  G   UNL     1     101.095  81.621  75.782  1.00  0.00     0.000 G0
ENDBRANCH   2  35
ENDBRANCH   1   2
BRANCH   1  37
ATOM     37  O   UNL     1      98.145  83.856  77.502  1.00  0.00    -0.461 OA
BRANCH  37  38
ATOM     38  C   UNL     1      97.096  83.644  78.366  1.00  0.00     0.310 C 
ATOM     39  O   UNL     1      95.923  83.539  78.035  1.00  0.00    -0.252 OA
BRANCH  38  40
ATOM     40  C   UNL     1      97.617  83.561  79.782  1.00  0.00     0.158 C 
BRANCH  40  41
ATOM     41  C   UNL     1      97.421  82.201  80.402  1.00  0.00    -0.033 A 
ATOM     42  C   UNL     1      97.804  81.055  79.703  1.00  0.00     0.054 A 
ATOM     43  C   UNL     1      96.858  82.088  81.673  1.00  0.00     0.008 A 
ATOM     44  C   UNL     1      97.623  79.796  80.277  1.00  0.00     0.160 A 
ATOM     45  C   UNL     1      96.677  80.829  82.246  1.00  0.00     0.050 A 
ATOM     46  C   UNL     1      97.059  79.684  81.549  1.00  0.00     0.157 A 
BRANCH  44  47
ATOM     47  O   UNL     1      98.000  78.685  79.586  1.00  0.00    -0.493 OA
ATOM     48  C   UNL     1      99.347  78.638  79.118  1.00  0.00     0.278 C 
ENDBRANCH  44  47
BRANCH  46  49
ATOM     49  O   UNL     1      96.879  78.460  82.119  1.00  0.00    -0.504 OA
ATOM     50  H   UNL     1      97.647  78.255  82.678  1.00  0.00     0.293 HD
ENDBRANCH  46  49
ENDBRANCH  40  41
ENDBRANCH  38  40
ENDBRANCH  37  38
ENDBRANCH   1  37
TORSDOF 11
ENDMDL
MODEL 4
REMARK VINA RESULT:    -5.317     34.368     37.680
REMARK INTER + INTRA:         -11.407
REMARK INTER:                  -8.848
REMARK INTRA:                  -2.559
REMARK UNBOUND:                -2.049
REMARK SMILES C=C(C)[C@]12C[C@@H](C)[C@@]34O[C@](Cc5ccccc5)(O[C@@H]1[C@@H]3C=C(COC(=O)Cc1ccc(O)c(OC)c1)C[C@]1(O)C(=O)C(C)=C[C@@H]41)O2
REMARK SMILES IDX 23 1 22 2 21 3 20 4 9 5 8 6 10 7 6 8 18 9 46 10 19 11 5 12
REMARK SMILES IDX 7 13 4 14 45 15 38 16 44 17 40 18 42 20 41 21 43 22 39 23
REMARK SMILES IDX 11 25 12 26 13 27 17 28 14 29 16 30 15 31 2 32 3 33 1 34
REMARK SMILES IDX 37 35 24 37 25 38 26 39 27 40 28 41 36 42 29 43 33 44 30 45
REMARK SMILES IDX 31 46 34 47 35 48 32 49
REMARK H PARENT 39 24 32 50
REMARK Flexibility Score: 90.00
ROOT
ATOM      1  C   UNL     1     102.155  83.894  73.942  1.00  0.00     0.264 C 
ENDROOT
BRANCH   1   2
ATOM      2  C   UNL     1     102.198  82.482  74.477  1.00  0.00    -0.033 C 
ATOM      3  C   UNL     1     101.892  82.256  75.770  1.00  0.00    -0.015 C 
BRANCH   3   4
ATOM      4  C   UNL     1     101.933  80.958  76.560  1.00  0.00     0.078 C 
ATOM      5  O   UNL     1      99.678  79.952  76.412  1.00  0.00    -0.319 OA
ATOM      6  C   UNL     1     101.077  79.741  76.046  1.00  0.00     0.095 C 
ATOM      7  C   UNL     1      99.458  80.455  77.743  1.00  0.00     0.289 C 
ATOM      8  C   UNL     1     101.616  78.437  76.767  1.00  0.00     0.023 C 
ATOM      9  O   UNL     1     100.141  81.689  77.949  1.00  0.00    -0.320 OA
ATOM     10  O   UNL     1      99.953  79.570  78.744  1.00  0.00    -0.313 OA
ATOM     11  C   UNL     1     101.496  81.218  78.022  1.00  0.00     0.170 C 
ATOM     12  C   UNL     1     102.121  78.749  78.209  1.00  0.00     0.049 C 
ATOM     13  C   UNL     1     100.634  77.255  76.813  1.00  0.00     0.011 C 
ATOM     14  C   UNL     1     101.351  79.910  78.839  1.00  0.00     0.122 C 
BRANCH   6  15
ATOM     15  C   UNL     1     101.068  79.691  74.490  1.00  0.00     0.086 C 
ATOM     16  C   UNL     1     102.421  79.947  73.794  1.00  0.00     0.140 CG0
ATOM     17  C   UNL     1     100.545  78.464  73.796  1.00  0.00    -0.010 C 
ATOM     18  C   UNL     1     102.339  79.046  72.580  1.00  0.00     0.190 C 
ATOM     19  G   UNL     1     102.609  81.417  73.421  1.00  0.00     0.000 G0
ATOM     20  C   UNL     1     101.220  78.093  72.704  1.00  0.00    -0.008 C 
ATOM     21  O   UNL     1     103.115  79.057  71.637  1.00  0.00    -0.291 OA
ATOM     22  C   UNL     1     100.948  77.006  71.741  1.00  0.00     0.048 C 
BRANCH  16  23
ATOM     23  O   UNL     1     103.539  79.448  74.510  1.00  0.00    -0.381 OA
ATOM     24  H   UNL     1     103.291  78.600  74.915  1.00  0.00     0.212 HD
ENDBRANCH  16  23
ENDBRANCH   6  15
BRANCH   7  25
ATOM     25  C   UNL     1      97.969  80.656  77.936  1.00  0.00     0.135 C 
BRANCH  25  26
ATOM     26  C   UNL     1      97.519  82.021  77.479  1.00  0.00    -0.040 A 
ATOM     27  C   UNL     1      97.917  82.506  76.232  1.00  0.00     0.004 A 
ATOM     28  C   UNL     1      96.703  82.798  78.300  1.00  0.00     0.004 A 
ATOM     29  C   UNL     1      97.501  83.768  75.809  1.00  0.00     0.000 A 
ATOM     30  C   UNL     1      96.287  84.061  77.877  1.00  0.00     0.000 A 
ATOM     31  C   UNL     1      96.686  84.545  76.631  1.00  0.00     0.000 A 
ENDBRANCH  25  26
ENDBRANCH   7  25
BRANCH  14  32
ATOM     32  C   UNL     1     101.690  80.108  80.281  1.00  0.00    -0.046 C 
ATOM     33  C   UNL     1     102.113  78.884  81.036  1.00  0.00     0.042 C 
ATOM     34  C   UNL     1     101.620  81.313  80.867  1.00  0.00     0.010 C 
ENDBRANCH  14  32
ENDBRANCH   3   4
BRANCH   2  35
ATOM     35  C   UNL     1     102.594  81.460  73.427  1.00  0.00     0.078 CG0
ATOM     36  G   UNL     1     102.418  79.985  73.786  1.00  0.00     0.000 G0
ENDBRANCH   2  35
ENDBRANCH   1   2
BRANCH   1  37
ATOM     37  O   UNL     1     100.843  84.400  74.064  1.00  0.00    -0.461 OA
BRANCH  37  38
ATOM     38  C   UNL     1     100.260  84.865  72.909  1.00  0.00     0.310 C 
ATOM     39  O   UNL     1     100.651  85.828  72.263  1.00  0.00    -0.252 OA
BRANCH  38  40
ATOM     40  C   UNL     1      99.068  84.005  72.563  1.00  0.00     0.158 C 
BRANCH  40  41
ATOM     41  C   UNL     1      99.429  82.811  71.717  1.00  0.00    -0.033 A 
ATOM     42  C   UNL     1     100.408  82.928  70.729  1.00  0.00     0.054 A 
ATOM     43  C   UNL     1      98.786  81.591  71.920  1.00  0.00     0.008 A 
ATOM     44  C   UNL     1     100.742  81.824  69.945  1.00  0.00     0.160 A 
ATOM     45  C   UNL     1      99.120  80.487  71.137  1.00  0.00     0.050 A 
ATOM     46  C   UNL     1     100.098  80.602  70.149  1.00  0.00     0.157 A 
BRANCH  44  47
ATOM     47  O   UNL     1     101.699  81.949  68.984  1.00  0.00    -0.493 OA
ATOM     48  C   UNL     1     103.038  82.165  69.426  1.00  0.00     0.278 C 
ENDBRANCH  44  47
BRANCH  46  49
ATOM     49  O   UNL     1     100.417  79.517  69.391  1.00  0.00    -0.504 OA
ATOM     50  H   UNL     1     100.058  79.640  68.495  1.00  0.00     0.293 HD
ENDBRANCH  46  49
ENDBRANCH  40  41
ENDBRANCH  38  40
ENDBRANCH  37  38
ENDBRANCH   1  37
TORSDOF 11
ENDMDL
MODEL 5
REMARK VINA RESULT:    -5.051     15.863     19.316
REMARK INTER + INTRA:         -10.939
REMARK INTER:                  -8.934
REMARK INTRA:                  -2.005
REMARK UNBOUND:                -2.049
REMARK SMILES C=C(C)[C@]12C[C@@H](C)[C@@]34O[C@](Cc5ccccc5)(O[C@@H]1[C@@H]3C=C(COC(=O)Cc1ccc(O)c(OC)c1)C[C@]1(O)C(=O)C(C)=C[C@@H]41)O2
REMARK SMILES IDX 23 1 22 2 21 3 20 4 9 5 8 6 10 7 6 8 18 9 46 10 19 11 5 12
REMARK SMILES IDX 7 13 4 14 45 15 38 16 44 17 40 18 42 20 41 21 43 22 39 23
REMARK SMILES IDX 11 25 12 26 13 27 17 28 14 29 16 30 15 31 2 32 3 33 1 34
REMARK SMILES IDX 37 35 24 37 25 38 26 39 27 40 28 41 36 42 29 43 33 44 30 45
REMARK SMILES IDX 31 46 34 47 35 48 32 49
REMARK H PARENT 39 24 32 50
REMARK Flexibility Score: 90.00
ROOT
ATOM      1  C   UNL     1      60.028  80.968  89.737  1.00  0.00     0.264 C 
ENDROOT
BRANCH   1   2
ATOM      2  C   UNL     1      59.796  80.626  88.284  1.00  0.00    -0.033 C 
ATOM      3  C   UNL     1      60.553  79.675  87.701  1.00  0.00    -0.015 C 
BRANCH   3   4
ATOM      4  C   UNL     1      60.571  79.208  86.255  1.00  0.00     0.078 C 
ATOM      5  O   UNL     1      59.003  77.301  86.096  1.00  0.00    -0.319 OA
ATOM      6  C   UNL     1      59.233  78.665  85.627  1.00  0.00     0.095 C 
ATOM      7  C   UNL     1      60.166  76.451  86.115  1.00  0.00     0.289 C 
ATOM      8  C   UNL     1      59.411  78.655  84.053  1.00  0.00     0.023 C 
ATOM      9  O   UNL     1      61.200  77.009  86.923  1.00  0.00    -0.320 OA
ATOM     10  O   UNL     1      60.737  76.286  84.820  1.00  0.00    -0.313 OA
ATOM     11  C   UNL     1      61.626  78.088  86.077  1.00  0.00     0.170 C 
ATOM     12  C   UNL     1      60.886  78.351  83.647  1.00  0.00     0.049 C 
ATOM     13  C   UNL     1      58.466  77.715  83.288  1.00  0.00     0.011 C 
ATOM     14  C   UNL     1      61.579  77.447  84.667  1.00  0.00     0.122 C 
BRANCH   6  15
ATOM     15  C   UNL     1      58.010  79.469  86.157  1.00  0.00     0.086 C 
ATOM     16  C   UNL     1      58.192  80.998  86.256  1.00  0.00     0.140 CG0
ATOM     17  C   UNL     1      56.679  79.319  85.475  1.00  0.00    -0.010 C 
ATOM     18  C   UNL     1      56.806  81.513  85.928  1.00  0.00     0.190 C 
ATOM     19  G   UNL     1      58.666  81.434  87.641  1.00  0.00     0.000 G0
ATOM     20  C   UNL     1      55.966  80.444  85.356  1.00  0.00    -0.008 C 
ATOM     21  O   UNL     1      56.429  82.667  86.064  1.00  0.00    -0.291 OA
ATOM     22  C   UNL     1      54.604  80.656  84.824  1.00  0.00     0.048 C 
BRANCH  16  23
ATOM     23  O   UNL     1      59.007  81.546  85.233  1.00  0.00    -0.381 OA
ATOM     24  H   UNL     1      58.827  81.067  84.407  1.00  0.00     0.212 HD
ENDBRANCH  16  23
ENDBRANCH   6  15
BRANCH   7  25
ATOM     25  C   UNL     1      59.759  75.100  86.665  1.00  0.00     0.135 C 
BRANCH  25  26
ATOM     26  C   UNL     1      59.293  75.189  88.097  1.00  0.00    -0.040 A 
ATOM     27  C   UNL     1      58.121  75.880  88.406  1.00  0.00     0.004 A 
ATOM     28  C   UNL     1      60.031  74.580  89.111  1.00  0.00     0.004 A 
ATOM     29  C   UNL     1      57.688  75.963  89.730  1.00  0.00     0.000 A 
ATOM     30  C   UNL     1      59.599  74.663  90.435  1.00  0.00     0.000 A 
ATOM     31  C   UNL     1      58.427  75.355  90.744  1.00  0.00     0.000 A 
ENDBRANCH  25  26
ENDBRANCH   7  25
BRANCH  14  32
ATOM     32  C   UNL     1      62.927  76.994  84.211  1.00  0.00    -0.046 C 
ATOM     33  C   UNL     1      63.186  77.066  82.736  1.00  0.00     0.042 C 
ATOM     34  C   UNL     1      63.855  76.549  85.072  1.00  0.00     0.010 C 
ENDBRANCH  14  32
ENDBRANCH   3   4
BRANCH   2  35
ATOM     35  C   UNL     1      58.679  81.436  87.653  1.00  0.00     0.078 CG0
ATOM     36  G   UNL     1      58.195  81.001  86.271  1.00  0.00     0.000 G0
ENDBRANCH   2  35
ENDBRANCH   1   2
BRANCH   1  37
ATOM     37  O   UNL     1      59.145  80.214  90.541  1.00  0.00    -0.461 OA
BRANCH  37  38
ATOM     38  C   UNL     1      58.827  80.753  91.766  1.00  0.00     0.310 C 
ATOM     39  O   UNL     1      59.528  81.537  92.392  1.00  0.00    -0.252 OA
BRANCH  38  40
ATOM     40  C   UNL     1      57.484  80.228  92.215  1.00  0.00     0.158 C 
BRANCH  40  41
ATOM     41  C   UNL     1      56.462  80.204  91.108  1.00  0.00    -0.033 A 
ATOM     42  C   UNL     1      55.807  79.014  90.789  1.00  0.00     0.054 A 
ATOM     43  C   UNL     1      56.171  81.371  90.402  1.00  0.00     0.008 A 
ATOM     44  C   UNL     1      54.861  78.992  89.764  1.00  0.00     0.160 A 
ATOM     45  C   UNL     1      55.225  81.349  89.377  1.00  0.00     0.050 A 
ATOM     46  C   UNL     1      54.570  80.160  89.058  1.00  0.00     0.157 A 
BRANCH  44  47
ATOM     47  O   UNL     1      54.228  77.824  89.462  1.00  0.00    -0.493 OA
ATOM     48  C   UNL     1      54.304  76.777  90.429  1.00  0.00     0.278 C 
ENDBRANCH  44  47
BRANCH  46  49
ATOM     49  O   UNL     1      53.648  80.150  88.056  1.00  0.00    -0.504 OA
ATOM     50  H   UNL     1      52.783  80.406  88.419  1.00  0.00     0.293 HD
ENDBRANCH  46  49
ENDBRANCH  40  41
ENDBRANCH  38  40
ENDBRANCH  37  38
ENDBRANCH   1  37
TORSDOF 11
ENDMDL
MODEL 6
REMARK VINA RESULT:    -5.008     33.702     36.983
REMARK INTER + INTRA:         -10.863
REMARK INTER:                 -10.033
REMARK INTRA:                  -0.830
REMARK UNBOUND:                -2.049
REMARK SMILES C=C(C)[C@]12C[C@@H](C)[C@@]34O[C@](Cc5ccccc5)(O[C@@H]1[C@@H]3C=C(COC(=O)Cc1ccc(O)c(OC)c1)C[C@]1(O)C(=O)C(C)=C[C@@H]41)O2
REMARK SMILES IDX 23 1 22 2 21 3 20 4 9 5 8 6 10 7 6 8 18 9 46 10 19 11 5 12
REMARK SMILES IDX 7 13 4 14 45 15 38 16 44 17 40 18 42 20 41 21 43 22 39 23
REMARK SMILES IDX 11 25 12 26 13 27 17 28 14 29 16 30 15 31 2 32 3 33 1 34
REMARK SMILES IDX 37 35 24 37 25 38 26 39 27 40 28 41 36 42 29 43 33 44 30 45
REMARK SMILES IDX 31 46 34 47 35 48 32 49
REMARK H PARENT 39 24 32 50
REMARK Flexibility Score: 90.00
ROOT
ATOM      1  C   UNL     1      96.464 102.149  83.670  1.00  0.00     0.264 C 
ENDROOT
BRANCH   1   2
ATOM      2  C   UNL     1      96.970 100.758  83.368  1.00  0.00    -0.033 C 
ATOM      3  C   UNL     1      96.538 100.126  82.258  1.00  0.00    -0.015 C 
BRANCH   3   4
ATOM      4  C   UNL     1      96.831  98.714  81.776  1.00  0.00     0.078 C 
ATOM      5  O   UNL     1      98.790  98.859  80.272  1.00  0.00    -0.319 OA
ATOM      6  C   UNL     1      98.331  98.300  81.542  1.00  0.00     0.095 C 
ATOM      7  C   UNL     1      97.854  98.762  79.182  1.00  0.00     0.289 C 
ATOM      8  C   UNL     1      98.386  96.718  81.467  1.00  0.00     0.023 C 
ATOM      9  O   UNL     1      96.618  99.395  79.503  1.00  0.00    -0.320 OA
ATOM     10  O   UNL     1      97.525  97.410  78.871  1.00  0.00    -0.313 OA
ATOM     11  C   UNL     1      96.087  98.449  80.444  1.00  0.00     0.170 C 
ATOM     12  C   UNL     1      97.089  96.131  80.829  1.00  0.00     0.049 C 
ATOM     13  C   UNL     1      99.616  96.133  80.754  1.00  0.00     0.011 C 
ATOM     14  C   UNL     1      96.476  97.091  79.808  1.00  0.00     0.122 C 
BRANCH   6  15
ATOM     15  C   UNL     1      99.257  98.951  82.610  1.00  0.00     0.086 C 
ATOM     16  C   UNL     1      98.732  98.941  84.061  1.00  0.00     0.140 CG0
ATOM     17  C   UNL     1     100.674  98.469  82.748  1.00  0.00    -0.010 C 
ATOM     18  C   UNL     1     100.004  98.783  84.867  1.00  0.00     0.190 C 
ATOM     19  G   UNL     1      97.975 100.222  84.408  1.00  0.00     0.000 G0
ATOM     20  C   UNL     1     101.133  98.391  84.001  1.00  0.00    -0.008 C 
ATOM     21  O   UNL     1     100.095  98.908  86.078  1.00  0.00    -0.291 OA
ATOM     22  C   UNL     1     102.479  98.044  84.502  1.00  0.00     0.048 C 
BRANCH  16  23
ATOM     23  O   UNL     1      97.977  97.788  84.391  1.00  0.00    -0.381 OA
ATOM     24  H   UNL     1      97.295  98.041  85.034  1.00  0.00     0.212 HD
ENDBRANCH  16  23
ENDBRANCH   6  15
BRANCH   7  25
ATOM     25  C   UNL     1      98.469  99.425  77.966  1.00  0.00     0.135 C 
BRANCH  25  26
ATOM     26  C   UNL     1      97.513  99.465  76.800  1.00  0.00    -0.040 A 
ATOM     27  C   UNL     1      96.586 100.502  76.693  1.00  0.00     0.004 A 
ATOM     28  C   UNL     1      97.558  98.467  75.827  1.00  0.00     0.004 A 
ATOM     29  C   UNL     1      95.702 100.539  75.614  1.00  0.00     0.000 A 
ATOM     30  C   UNL     1      96.674  98.504  74.748  1.00  0.00     0.000 A 
ATOM     31  C   UNL     1      95.746  99.540  74.643  1.00  0.00     0.000 A 
ENDBRANCH  25  26
ENDBRANCH   7  25
BRANCH  14  32
ATOM     32  C   UNL     1      95.341  96.479  79.054  1.00  0.00    -0.046 C 
ATOM     33  C   UNL     1      95.095  95.019  79.296  1.00  0.00     0.042 C 
ATOM     34  C   UNL     1      94.584  97.193  78.208  1.00  0.00     0.010 C 
ENDBRANCH  14  32
ENDBRANCH   3   4
BRANCH   2  35
ATOM     35  C   UNL     1      97.950 100.243  84.405  1.00  0.00     0.078 CG0
ATOM     36  G   UNL     1      98.740  98.982  84.056  1.00  0.00     0.000 G0
ENDBRANCH   2  35
ENDBRANCH   1   2
BRANCH   1  37
ATOM     37  O   UNL     1      95.258 102.060  84.399  1.00  0.00    -0.461 OA
BRANCH  37  38
ATOM     38  C   UNL     1      95.147 102.884  85.494  1.00  0.00     0.310 C 
ATOM     39  O   UNL     1      96.078 103.464  86.035  1.00  0.00    -0.252 OA
BRANCH  38  40
ATOM     40  C   UNL     1      93.701 102.959  85.924  1.00  0.00     0.158 C 
BRANCH  40  41
ATOM     41  C   UNL     1      93.292 101.815  86.816  1.00  0.00    -0.033 A 
ATOM     42  C   UNL     1      91.987 101.744  87.305  1.00  0.00     0.054 A 
ATOM     43  C   UNL     1      94.218 100.827  87.152  1.00  0.00     0.008 A 
ATOM     44  C   UNL     1      91.609 100.685  88.131  1.00  0.00     0.160 A 
ATOM     45  C   UNL     1      93.839  99.768  87.978  1.00  0.00     0.050 A 
ATOM     46  C   UNL     1      92.536  99.697  88.468  1.00  0.00     0.157 A 
BRANCH  44  47
ATOM     47  O   UNL     1      90.333 100.626  88.603  1.00  0.00    -0.493 OA
ATOM     48  C   UNL     1      90.014 101.461  89.716  1.00  0.00     0.278 C 
ENDBRANCH  44  47
BRANCH  46  49
ATOM     49  O   UNL     1      92.178  98.658  89.272  1.00  0.00    -0.504 OA
ATOM     50  H   UNL     1      91.423  98.929  89.821  1.00  0.00     0.293 HD
ENDBRANCH  46  49
ENDBRANCH  40  41
ENDBRANCH  38  40
ENDBRANCH  37  38
ENDBRANCH   1  37
TORSDOF 11
ENDMDL
MODEL 7
REMARK VINA RESULT:    -4.993     32.769     36.545
REMARK INTER + INTRA:         -10.837
REMARK INTER:                  -9.780
REMARK INTRA:                  -1.057
REMARK UNBOUND:                -2.049
REMARK SMILES C=C(C)[C@]12C[C@@H](C)[C@@]34O[C@](Cc5ccccc5)(O[C@@H]1[C@@H]3C=C(COC(=O)Cc1ccc(O)c(OC)c1)C[C@]1(O)C(=O)C(C)=C[C@@H]41)O2
REMARK SMILES IDX 23 1 22 2 21 3 20 4 9 5 8 6 10 7 6 8 18 9 46 10 19 11 5 12
REMARK SMILES IDX 7 13 4 14 45 15 38 16 44 17 40 18 42 20 41 21 43 22 39 23
REMARK SMILES IDX 11 25 12 26 13 27 17 28 14 29 16 30 15 31 2 32 3 33 1 34
REMARK SMILES IDX 37 35 24 37 25 38 26 39 27 40 28 41 36 42 29 43 33 44 30 45
REMARK SMILES IDX 31 46 34 47 35 48 32 49
REMARK H PARENT 39 24 32 50
REMARK Flexibility Score: 90.00
ROOT
ATOM      1  C   UNL     1      95.805 102.561  80.955  1.00  0.00     0.264 C 
ENDROOT
BRANCH   1   2
ATOM      2  C   UNL     1      96.032 101.122  81.356  1.00  0.00    -0.033 C 
ATOM      3  C   UNL     1      95.950 100.156  80.420  1.00  0.00    -0.015 C 
BRANCH   3   4
ATOM      4  C   UNL     1      96.058  98.648  80.577  1.00  0.00     0.078 C 
ATOM      5  O   UNL     1      98.429  98.052  80.199  1.00  0.00    -0.319 OA
ATOM      6  C   UNL     1      97.372  98.053  81.208  1.00  0.00     0.095 C 
ATOM      7  C   UNL     1      98.025  97.627  78.883  1.00  0.00     0.289 C 
ATOM      8  C   UNL     1      97.063  96.561  81.643  1.00  0.00     0.023 C 
ATOM      9  O   UNL     1      96.962  98.434  78.383  1.00  0.00    -0.320 OA
ATOM     10  O   UNL     1      97.530  96.291  78.874  1.00  0.00    -0.313 OA
ATOM     11  C   UNL     1      95.880  97.961  79.201  1.00  0.00     0.170 C 
ATOM     12  C   UNL     1      96.037  95.887  80.682  1.00  0.00     0.049 C 
ATOM     13  C   UNL     1      98.292  95.651  81.800  1.00  0.00     0.011 C 
ATOM     14  C   UNL     1      96.148  96.437  79.260  1.00  0.00     0.122 C 
BRANCH   6  15
ATOM     15  C   UNL     1      97.912  98.981  82.335  1.00  0.00     0.086 C 
ATOM     16  C   UNL     1      96.858  99.566  83.297  1.00  0.00     0.140 CG0
ATOM     17  C   UNL     1      98.984  98.471  83.258  1.00  0.00    -0.010 C 
ATOM     18  C   UNL     1      97.610  99.619  84.611  1.00  0.00     0.190 C 
ATOM     19  G   UNL     1      96.367 100.941  82.848  1.00  0.00     0.000 G0
ATOM     20  C   UNL     1      98.857  98.836  84.538  1.00  0.00    -0.008 C 
ATOM     21  O   UNL     1      97.227 100.186  85.623  1.00  0.00    -0.291 OA
ATOM     22  C   UNL     1      99.751  98.593  85.689  1.00  0.00     0.048 C 
BRANCH  16  23
ATOM     23  O   UNL     1      95.775  98.691  83.562  1.00  0.00    -0.381 OA
ATOM     24  H   UNL     1      95.233  99.078  84.269  1.00  0.00     0.212 HD
ENDBRANCH  16  23
ENDBRANCH   6  15
BRANCH   7  25
ATOM     25  C   UNL     1      99.223  97.730  77.961  1.00  0.00     0.135 C 
BRANCH  25  26
ATOM     26  C   UNL     1     100.519  97.469  78.687  1.00  0.00    -0.040 A 
ATOM     27  C   UNL     1     100.954  96.158  78.887  1.00  0.00     0.004 A 
ATOM     28  C   UNL     1     101.283  98.536  79.157  1.00  0.00     0.004 A 
ATOM     29  C   UNL     1     102.153  95.916  79.559  1.00  0.00     0.000 A 
ATOM     30  C   UNL     1     102.482  98.295  79.829  1.00  0.00     0.000 A 
ATOM     31  C   UNL     1     102.916  96.984  80.029  1.00  0.00     0.000 A 
ENDBRANCH  25  26
ENDBRANCH   7  25
BRANCH  14  32
ATOM     32  C   UNL     1      95.305  95.681  78.284  1.00  0.00    -0.046 C 
ATOM     33  C   UNL     1      94.156  96.432  77.681  1.00  0.00     0.042 C 
ATOM     34  C   UNL     1      95.562  94.403  77.966  1.00  0.00     0.010 C 
ENDBRANCH  14  32
ENDBRANCH   3   4
BRANCH   2  35
ATOM     35  C   UNL     1      96.343 100.958  82.832  1.00  0.00     0.078 CG0
ATOM     36  G   UNL     1      96.842  99.589  83.293  1.00  0.00     0.000 G0
ENDBRANCH   2  35
ENDBRANCH   1   2
BRANCH   1  37
ATOM     37  O   UNL     1      94.728 103.089  81.699  1.00  0.00    -0.461 OA
BRANCH  37  38
ATOM     38  C   UNL     1      94.684 104.459  81.816  1.00  0.00     0.310 C 
ATOM     39  O   UNL     1      94.493 105.069  82.859  1.00  0.00    -0.252 OA
BRANCH  38  40
ATOM     40  C   UNL     1      94.906 105.089  80.461  1.00  0.00     0.158 C 
BRANCH  40  41
ATOM     41  C   UNL     1      93.684 105.038  79.582  1.00  0.00    -0.033 A 
ATOM     42  C   UNL     1      92.439 105.406  80.095  1.00  0.00     0.054 A 
ATOM     43  C   UNL     1      93.796 104.623  78.255  1.00  0.00     0.008 A 
ATOM     44  C   UNL     1      91.307 105.359  79.280  1.00  0.00     0.160 A 
ATOM     45  C   UNL     1      92.664 104.576  77.440  1.00  0.00     0.050 A 
ATOM     46  C   UNL     1      91.420 104.943  77.953  1.00  0.00     0.157 A 
BRANCH  44  47
ATOM     47  O   UNL     1      90.098 105.720  79.793  1.00  0.00    -0.493 OA
ATOM     48  C   UNL     1      90.062 106.894  80.603  1.00  0.00     0.278 C 
ENDBRANCH  44  47
BRANCH  46  49
ATOM     49  O   UNL     1      90.322 104.894  77.148  1.00  0.00    -0.504 OA
ATOM     50  H   UNL     1      89.674 104.281  77.534  1.00  0.00     0.293 HD
ENDBRANCH  46  49
ENDBRANCH  40  41
ENDBRANCH  38  40
ENDBRANCH  37  38
ENDBRANCH   1  37
TORSDOF 11
ENDMDL
MODEL 8
REMARK VINA RESULT:    -4.744     14.072     17.751
REMARK INTER + INTRA:         -10.399
REMARK INTER:                  -8.773
REMARK INTRA:                  -1.626
REMARK UNBOUND:                -2.049
REMARK SMILES C=C(C)[C@]12C[C@@H](C)[C@@]34O[C@](Cc5ccccc5)(O[C@@H]1[C@@H]3C=C(COC(=O)Cc1ccc(O)c(OC)c1)C[C@]1(O)C(=O)C(C)=C[C@@H]41)O2
REMARK SMILES IDX 23 1 22 2 21 3 20 4 9 5 8 6 10 7 6 8 18 9 46 10 19 11 5 12
REMARK SMILES IDX 7 13 4 14 45 15 38 16 44 17 40 18 42 20 41 21 43 22 39 23
REMARK SMILES IDX 11 25 12 26 13 27 17 28 14 29 16 30 15 31 2 32 3 33 1 34
REMARK SMILES IDX 37 35 24 37 25 38 26 39 27 40 28 41 36 42 29 43 33 44 30 45
REMARK SMILES IDX 31 46 34 47 35 48 32 49
REMARK H PARENT 39 24 32 50
REMARK Flexibility Score: 90.00
ROOT
ATOM      1  C   UNL     1      76.872  98.013  77.650  1.00  0.00     0.264 C 
ENDROOT
BRANCH   1   2
ATOM      2  C   UNL     1      76.603  98.769  76.370  1.00  0.00    -0.033 C 
ATOM      3  C   UNL     1      77.613  98.976  75.502  1.00  0.00    -0.015 C 
BRANCH   3   4
ATOM      4  C   UNL     1      77.621  99.761  74.200  1.00  0.00     0.078 C 
ATOM      5  O   UNL     1      77.080  98.163  72.392  1.00  0.00    -0.319 OA
ATOM      6  C   UNL     1      76.594  99.358  73.077  1.00  0.00     0.095 C 
ATOM      7  C   UNL     1      78.489  98.152  72.094  1.00  0.00     0.289 C 
ATOM      8  C   UNL     1      76.517 100.558  72.045  1.00  0.00     0.023 C 
ATOM      9  O   UNL     1      79.268  98.309  73.277  1.00  0.00    -0.320 OA
ATOM     10  O   UNL     1      78.869  99.225  71.238  1.00  0.00    -0.313 OA
ATOM     11  C   UNL     1      79.027  99.697  73.555  1.00  0.00     0.170 C 
ATOM     12  C   UNL     1      77.890 101.286  71.912  1.00  0.00     0.049 C 
ATOM     13  C   UNL     1      75.994 100.193  70.646  1.00  0.00     0.011 C 
ATOM     14  C   UNL     1      79.062 100.332  72.143  1.00  0.00     0.122 C 
BRANCH   6  15
ATOM     15  C   UNL     1      75.236  98.924  73.700  1.00  0.00     0.086 C 
ATOM     16  C   UNL     1      74.720  99.784  74.873  1.00  0.00     0.140 CG0
ATOM     17  C   UNL     1      74.030  98.783  72.814  1.00  0.00    -0.010 C 
ATOM     18  C   UNL     1      73.220  99.738  74.676  1.00  0.00     0.190 C 
ATOM     19  G   UNL     1      75.150  99.227  76.229  1.00  0.00     0.000 G0
ATOM     20  C   UNL     1      72.878  99.206  73.344  1.00  0.00    -0.008 C 
ATOM     21  O   UNL     1      72.388 100.132  75.480  1.00  0.00    -0.291 OA
ATOM     22  C   UNL     1      71.504  99.146  72.804  1.00  0.00     0.048 C 
BRANCH  16  23
ATOM     23  O   UNL     1      75.035 101.162  74.756  1.00  0.00    -0.381 OA
ATOM     24  H   UNL     1      74.276 101.678  75.074  1.00  0.00     0.212 HD
ENDBRANCH  16  23
ENDBRANCH   6  15
BRANCH   7  25
ATOM     25  C   UNL     1      78.825  96.832  71.431  1.00  0.00     0.135 C 
BRANCH  25  26
ATOM     26  C   UNL     1      78.043  96.623  70.158  1.00  0.00    -0.040 A 
ATOM     27  C   UNL     1      78.712  96.511  68.939  1.00  0.00     0.004 A 
ATOM     28  C   UNL     1      76.651  96.541  70.200  1.00  0.00     0.004 A 
ATOM     29  C   UNL     1      77.989  96.318  67.761  1.00  0.00     0.000 A 
ATOM     30  C   UNL     1      75.928  96.348  69.022  1.00  0.00     0.000 A 
ATOM     31  C   UNL     1      76.597  96.237  67.803  1.00  0.00     0.000 A 
ENDBRANCH  25  26
ENDBRANCH   7  25
BRANCH  14  32
ATOM     32  C   UNL     1      80.383 100.961  71.842  1.00  0.00    -0.046 C 
ATOM     33  C   UNL     1      81.117 101.550  73.010  1.00  0.00     0.042 C 
ATOM     34  C   UNL     1      80.885 100.998  70.599  1.00  0.00     0.010 C 
ENDBRANCH  14  32
ENDBRANCH   3   4
BRANCH   2  35
ATOM     35  C   UNL     1      75.156  99.204  76.229  1.00  0.00     0.078 CG0
ATOM     36  G   UNL     1      74.731  99.794  74.886  1.00  0.00     0.000 G0
ENDBRANCH   2  35
ENDBRANCH   1   2
BRANCH   1  37
ATOM     37  O   UNL     1      76.305  96.724  77.560  1.00  0.00    -0.461 OA
BRANCH  37  38
ATOM     38  C   UNL     1      77.144  95.718  77.139  1.00  0.00     0.310 C 
ATOM     39  O   UNL     1      78.312  95.870  76.809  1.00  0.00    -0.252 OA
BRANCH  38  40
ATOM     40  C   UNL     1      76.401  94.404  77.148  1.00  0.00     0.158 C 
BRANCH  40  41
ATOM     41  C   UNL     1      75.789  94.065  75.813  1.00  0.00    -0.033 A 
ATOM     42  C   UNL     1      74.483  93.577  75.748  1.00  0.00     0.054 A 
ATOM     43  C   UNL     1      76.528  94.239  74.643  1.00  0.00     0.008 A 
ATOM     44  C   UNL     1      73.917  93.263  74.512  1.00  0.00     0.160 A 
ATOM     45  C   UNL     1      75.961  93.925  73.407  1.00  0.00     0.050 A 
ATOM     46  C   UNL     1      74.657  93.437  73.342  1.00  0.00     0.157 A 
BRANCH  44  47
ATOM     47  O   UNL     1      72.642  92.787  74.462  1.00  0.00    -0.493 OA
ATOM     48  C   UNL     1      72.472  91.375  74.570  1.00  0.00     0.278 C 
ENDBRANCH  44  47
BRANCH  46  49
ATOM     49  O   UNL     1      74.114  93.135  72.130  1.00  0.00    -0.504 OA
ATOM     50  H   UNL     1      73.759  93.947  71.731  1.00  0.00     0.293 HD
ENDBRANCH  46  49
ENDBRANCH  40  41
ENDBRANCH  38  40
ENDBRANCH  37  38
ENDBRANCH   1  37
TORSDOF 11
ENDMDL
MODEL 9
REMARK VINA RESULT:    -4.565     14.904     18.235
REMARK INTER + INTRA:         -10.083
REMARK INTER:                  -9.131
REMARK INTRA:                  -0.952
REMARK UNBOUND:                -2.049
REMARK SMILES C=C(C)[C@]12C[C@@H](C)[C@@]34O[C@](Cc5ccccc5)(O[C@@H]1[C@@H]3C=C(COC(=O)Cc1ccc(O)c(OC)c1)C[C@]1(O)C(=O)C(C)=C[C@@H]41)O2
REMARK SMILES IDX 23 1 22 2 21 3 20 4 9 5 8 6 10 7 6 8 18 9 46 10 19 11 5 12
REMARK SMILES IDX 7 13 4 14 45 15 38 16 44 17 40 18 42 20 41 21 43 22 39 23
REMARK SMILES IDX 11 25 12 26 13 27 17 28 14 29 16 30 15 31 2 32 3 33 1 34
REMARK SMILES IDX 37 35 24 37 25 38 26 39 27 40 28 41 36 42 29 43 33 44 30 45
REMARK SMILES IDX 31 46 34 47 35 48 32 49
REMARK H PARENT 39 24 32 50
REMARK Flexibility Score: 90.00
ROOT
ATOM      1  C   UNL     1      78.513  99.750  75.384  1.00  0.00     0.264 C 
ENDROOT
BRANCH   1   2
ATOM      2  C   UNL     1      78.139  98.384  74.857  1.00  0.00    -0.033 C 
ATOM      3  C   UNL     1      77.374  97.573  75.615  1.00  0.00    -0.015 C 
BRANCH   3   4
ATOM      4  C   UNL     1      76.930  96.143  75.352  1.00  0.00     0.078 C 
ATOM      5  O   UNL     1      74.748  96.269  74.192  1.00  0.00    -0.319 OA
ATOM      6  C   UNL     1      76.134  95.838  74.028  1.00  0.00     0.095 C 
ATOM      7  C   UNL     1      74.149  95.949  75.462  1.00  0.00     0.289 C 
ATOM      8  C   UNL     1      76.172  94.271  73.796  1.00  0.00     0.023 C 
ATOM      9  O   UNL     1      74.897  96.504  76.541  1.00  0.00    -0.320 OA
ATOM     10  O   UNL     1      74.111  94.545  75.703  1.00  0.00    -0.313 OA
ATOM     11  C   UNL     1      76.046  95.643  76.521  1.00  0.00     0.170 C 
ATOM     12  C   UNL     1      76.172  93.493  75.148  1.00  0.00     0.049 C 
ATOM     13  C   UNL     1      75.067  93.712  72.885  1.00  0.00     0.011 C 
ATOM     14  C   UNL     1      75.419  94.255  76.239  1.00  0.00     0.122 C 
BRANCH   6  15
ATOM     15  C   UNL     1      76.672  96.701  72.850  1.00  0.00     0.086 C 
ATOM     16  C   UNL     1      78.206  96.838  72.752  1.00  0.00     0.140 CG0
ATOM     17  C   UNL     1      76.261  96.366  71.443  1.00  0.00    -0.010 C 
ATOM     18  C   UNL     1      78.434  96.897  71.256  1.00  0.00     0.190 C 
ATOM     19  G   UNL     1      78.721  98.083  73.472  1.00  0.00     0.000 G0
ATOM     20  C   UNL     1      77.221  96.493  70.521  1.00  0.00    -0.008 C 
ATOM     21  O   UNL     1      79.488  97.188  70.711  1.00  0.00    -0.291 OA
ATOM     22  C   UNL     1      77.157  96.332  69.053  1.00  0.00     0.048 C 
BRANCH  16  23
ATOM     23  O   UNL     1      78.913  95.677  73.156  1.00  0.00    -0.381 OA
ATOM     24  H   UNL     1      78.594  94.925  72.631  1.00  0.00     0.212 HD
ENDBRANCH  16  23
ENDBRANCH   6  15
BRANCH   7  25
ATOM     25  C   UNL     1      72.739  96.503  75.477  1.00  0.00     0.135 C 
BRANCH  25  26
ATOM     26  C   UNL     1      71.837  95.729  76.405  1.00  0.00    -0.040 A 
ATOM     27  C   UNL     1      70.800  94.955  75.884  1.00  0.00     0.004 A 
ATOM     28  C   UNL     1      72.039  95.786  77.784  1.00  0.00     0.004 A 
ATOM     29  C   UNL     1      69.965  94.238  76.742  1.00  0.00     0.000 A 
ATOM     30  C   UNL     1      71.205  95.070  78.642  1.00  0.00     0.000 A 
ATOM     31  C   UNL     1      70.168  94.296  78.121  1.00  0.00     0.000 A 
ENDBRANCH  25  26
ENDBRANCH   7  25
BRANCH  14  32
ATOM     32  C   UNL     1      75.249  93.452  77.487  1.00  0.00    -0.046 C 
ATOM     33  C   UNL     1      75.944  93.973  78.710  1.00  0.00     0.042 C 
ATOM     34  C   UNL     1      74.516  92.328  77.514  1.00  0.00     0.010 C 
ENDBRANCH  14  32
ENDBRANCH   3   4
BRANCH   2  35
ATOM     35  C   UNL     1      78.699  98.106  73.475  1.00  0.00     0.078 CG0
ATOM     36  G   UNL     1      78.197  96.853  72.758  1.00  0.00     0.000 G0
ENDBRANCH   2  35
ENDBRANCH   1   2
BRANCH   1  37
ATOM     37  O   UNL     1      78.812 100.603  74.299  1.00  0.00    -0.461 OA
BRANCH  37  38
ATOM     38  C   UNL     1      79.811 101.525  74.508  1.00  0.00     0.310 C 
ATOM     39  O   UNL     1      79.655 102.625  75.019  1.00  0.00    -0.252 OA
BRANCH  38  40
ATOM     40  C   UNL     1      81.123 100.969  74.007  1.00  0.00     0.158 C 
BRANCH  40  41
ATOM     41  C   UNL     1      81.402 101.324  72.570  1.00  0.00    -0.033 A 
ATOM     42  C   UNL     1      82.373 102.279  72.263  1.00  0.00     0.054 A 
ATOM     43  C   UNL     1      80.691 100.699  71.546  1.00  0.00     0.008 A 
ATOM     44  C   UNL     1      82.631 102.607  70.932  1.00  0.00     0.160 A 
ATOM     45  C   UNL     1      80.949 101.027  70.215  1.00  0.00     0.050 A 
ATOM     46  C   UNL     1      81.919 101.981  69.908  1.00  0.00     0.157 A 
BRANCH  44  47
ATOM     47  O   UNL     1      83.581 103.540  70.644  1.00  0.00    -0.493 OA
ATOM     48  C   UNL     1      84.786 103.074  70.039  1.00  0.00     0.278 C 
ENDBRANCH  44  47
BRANCH  46  49
ATOM     49  O   UNL     1      82.163 102.293  68.605  1.00  0.00    -0.504 OA
ATOM     50  H   UNL     1      82.690 103.109  68.568  1.00  0.00     0.293 HD
ENDBRANCH  46  49
ENDBRANCH  40  41
ENDBRANCH  38  40
ENDBRANCH  37  38
ENDBRANCH   1  37
TORSDOF 11
ENDMDL
MODEL 10
REMARK VINA RESULT:    -4.547     33.057     37.138
REMARK INTER + INTRA:         -10.051
REMARK INTER:                  -8.238
REMARK INTRA:                  -1.813
REMARK UNBOUND:                -2.049
REMARK SMILES C=C(C)[C@]12C[C@@H](C)[C@@]34O[C@](Cc5ccccc5)(O[C@@H]1[C@@H]3C=C(COC(=O)Cc1ccc(O)c(OC)c1)C[C@]1(O)C(=O)C(C)=C[C@@H]41)O2
REMARK SMILES IDX 23 1 22 2 21 3 20 4 9 5 8 6 10 7 6 8 18 9 46 10 19 11 5 12
REMARK SMILES IDX 7 13 4 14 45 15 38 16 44 17 40 18 42 20 41 21 43 22 39 23
REMARK SMILES IDX 11 25 12 26 13 27 17 28 14 29 16 30 15 31 2 32 3 33 1 34
REMARK SMILES IDX 37 35 24 37 25 38 26 39 27 40 28 41 36 42 29 43 33 44 30 45
REMARK SMILES IDX 31 46 34 47 35 48 32 49
REMARK H PARENT 39 24 32 50
REMARK Flexibility Score: 90.00
ROOT
ATOM      1  C   UNL     1      95.098 101.959  82.033  1.00  0.00     0.264 C 
ENDROOT
BRANCH   1   2
ATOM      2  C   UNL     1      95.842 100.645  82.001  1.00  0.00    -0.033 C 
ATOM      3  C   UNL     1      95.542  99.740  81.048  1.00  0.00    -0.015 C 
BRANCH   3   4
ATOM      4  C   UNL     1      96.083  98.334  80.848  1.00  0.00     0.078 C 
ATOM      5  O   UNL     1      98.027  98.518  79.330  1.00  0.00    -0.319 OA
ATOM      6  C   UNL     1      97.638  98.145  80.688  1.00  0.00     0.095 C 
ATOM      7  C   UNL     1      97.150  98.052  78.287  1.00  0.00     0.289 C 
ATOM      8  C   UNL     1      97.961  96.612  80.922  1.00  0.00     0.023 C 
ATOM      9  O   UNL     1      95.817  98.514  78.487  1.00  0.00    -0.320 OA
ATOM     10  O   UNL     1      97.063  96.630  78.248  1.00  0.00    -0.313 OA
ATOM     11  C   UNL     1      95.430  97.691  79.599  1.00  0.00     0.170 C 
ATOM     12  C   UNL     1      96.800  95.699  80.422  1.00  0.00     0.049 C 
ATOM     13  C   UNL     1      99.291  96.119  80.328  1.00  0.00     0.011 C 
ATOM     14  C   UNL     1      96.060  96.323  79.238  1.00  0.00     0.122 C 
BRANCH   6  15
ATOM     15  C   UNL     1      98.411  99.139  81.601  1.00  0.00     0.086 C 
ATOM     16  C   UNL     1      97.852  99.330  83.026  1.00  0.00     0.140 CG0
ATOM     17  C   UNL     1      99.884  98.938  81.828  1.00  0.00    -0.010 C 
ATOM     18  C   UNL     1      99.107  99.549  83.843  1.00  0.00     0.190 C 
ATOM     19  G   UNL     1      96.885 100.510  83.112  1.00  0.00     0.000 G0
ATOM     20  C   UNL     1     100.311  99.186  83.070  1.00  0.00    -0.008 C 
ATOM     21  O   UNL     1      99.140  99.925  85.005  1.00  0.00    -0.291 OA
ATOM     22  C   UNL     1     101.679  99.174  83.626  1.00  0.00     0.048 C 
BRANCH  16  23
ATOM     23  O   UNL     1      97.285  98.156  83.582  1.00  0.00    -0.381 OA
ATOM     24  H   UNL     1      96.428  97.995  83.154  1.00  0.00     0.212 HD
ENDBRANCH  16  23
ENDBRANCH   6  15
BRANCH   7  25
ATOM     25  C   UNL     1      97.675  98.563  76.960  1.00  0.00     0.135 C 
BRANCH  25  26
ATOM     26  C   UNL     1      96.562  99.019  76.050  1.00  0.00    -0.040 A 
ATOM     27  C   UNL     1      95.805  98.080  75.350  1.00  0.00     0.004 A 
ATOM     28  C   UNL     1      96.289 100.380  75.909  1.00  0.00     0.004 A 
ATOM     29  C   UNL     1      94.775  98.502  74.508  1.00  0.00     0.000 A 
ATOM     30  C   UNL     1      95.260 100.801  75.067  1.00  0.00     0.000 A 
ATOM     31  C   UNL     1      94.503  99.862  74.367  1.00  0.00     0.000 A 
ENDBRANCH  25  26
ENDBRANCH   7  25
BRANCH  14  32
ATOM     32  C   UNL     1      95.065  95.391  78.627  1.00  0.00    -0.046 C 
ATOM     33  C   UNL     1      93.921  96.030  77.897  1.00  0.00     0.042 C 
ATOM     34  C   UNL     1      95.188  94.059  78.725  1.00  0.00     0.010 C 
ENDBRANCH  14  32
ENDBRANCH   3   4
BRANCH   2  35
ATOM     35  C   UNL     1      96.881 100.523  83.100  1.00  0.00     0.078 CG0
ATOM     36  G   UNL     1      97.848  99.343  83.020  1.00  0.00     0.000 G0
ENDBRANCH   2  35
ENDBRANCH   1   2
BRANCH   1  37
ATOM     37  O   UNL     1      96.002 103.013  81.779  1.00  0.00    -0.461 OA
BRANCH  37  38
ATOM     38  C   UNL     1      96.249 103.298  80.456  1.00  0.00     0.310 C 
ATOM     39  O   UNL     1      95.502 103.930  79.722  1.00  0.00    -0.252 OA
BRANCH  38  40
ATOM     40  C   UNL     1      97.580 102.709  80.053  1.00  0.00     0.158 C 
BRANCH  40  41
ATOM     41  C   UNL     1      98.222 103.440  78.902  1.00  0.00    -0.033 A 
ATOM     42  C   UNL     1      98.163 102.902  77.616  1.00  0.00     0.054 A 
ATOM     43  C   UNL     1      98.874 104.653  79.121  1.00  0.00     0.008 A 
ATOM     44  C   UNL     1      98.757 103.578  76.549  1.00  0.00     0.160 A 
ATOM     45  C   UNL     1      99.468 105.329  78.055  1.00  0.00     0.050 A 
ATOM     46  C   UNL     1      99.410 104.792  76.770  1.00  0.00     0.157 A 
BRANCH  44  47
ATOM     47  O   UNL     1      98.694 103.043  75.299  1.00  0.00    -0.493 OA
ATOM     48  C   UNL     1      99.605 101.986  74.998  1.00  0.00     0.278 C 
ENDBRANCH  44  47
BRANCH  46  49
ATOM     49  O   UNL     1      99.992 105.461  75.737  1.00  0.00    -0.504 OA
ATOM     50  H   UNL     1     100.244 106.350  76.037  1.00  0.00     0.293 HD
ENDBRANCH  46  49
ENDBRANCH  40  41
ENDBRANCH  38  40
ENDBRANCH  37  38
ENDBRANCH   1  37
TORSDOF 11
ENDMDL
