MODEL 1
REMARK VINA RESULT:    -5.693      0.000      0.000
REMARK INTER + INTRA:         -10.091
REMARK INTER:                  -9.187
REMARK INTRA:                  -0.903
REMARK UNBOUND:                -0.903
REMARK SMILES CCCCCCCCC(=O)NCc1ccc(O)c(OC)c1
REMARK SMILES IDX 7 1 6 2 5 3 4 4 3 5 2 6 1 7 8 8 9 9 10 10 11 11 12 13 13 14
REMARK SMILES IDX 21 15 14 16 18 17 15 18 16 19 19 20 20 21 17 22
REMARK H PARENT 11 12 17 23
REMARK Flexibility Score: inf
ROOT
ATOM      1  C   UNL     1      91.071  99.111  71.116  1.00  0.00     0.010 C 
ENDROOT
BRANCH   1   2
ATOM      2  C   UNL     1      89.517  99.113  71.171  1.00  0.00     0.001 C 
BRANCH   2   3
ATOM      3  C   UNL     1      88.894  98.002  70.275  1.00  0.00     0.000 C 
BRANCH   3   4
ATOM      4  C   UNL     1      89.382  98.040  68.799  1.00  0.00    -0.000 C 
BRANCH   4   5
ATOM      5  C   UNL     1      88.365  98.731  67.848  1.00  0.00    -0.000 C 
BRANCH   5   6
ATOM      6  C   UNL     1      88.420 100.280  67.940  1.00  0.00    -0.003 C 
ATOM      7  C   UNL     1      89.764 100.862  67.449  1.00  0.00     0.004 C 
ENDBRANCH   5   6
ENDBRANCH   4   5
ENDBRANCH   3   4
ENDBRANCH   2   3
ENDBRANCH   1   2
BRANCH   1   8
ATOM      8  C   UNL     1      91.707 100.524  71.237  1.00  0.00     0.100 C 
BRANCH   8   9
ATOM      9  C   UNL     1      92.490 100.658  72.489  1.00  0.00     0.220 C 
ATOM     10  O   UNL     1      93.160 101.704  72.664  1.00  0.00    -0.275 OA
ATOM     11  N   UNL     1      92.455  99.676  73.438  1.00  0.00    -0.352 N 
ATOM     12  H   UNL     1      91.957  98.843  73.159  1.00  0.00     0.163 HD
BRANCH  11  13
ATOM     13  C   UNL     1      93.049  99.748  74.738  1.00  0.00     0.151 C 
BRANCH  13  14
ATOM     14  C   UNL     1      93.452  98.427  75.289  1.00  0.00    -0.025 A 
ATOM     15  C   UNL     1      92.471  97.520  75.756  1.00  0.00     0.056 A 
ATOM     16  C   UNL     1      94.814  98.054  75.360  1.00  0.00     0.009 A 
ATOM     17  C   UNL     1      92.838  96.254  76.267  1.00  0.00     0.160 A 
ATOM     18  C   UNL     1      95.186  96.795  75.866  1.00  0.00     0.050 A 
ATOM     19  C   UNL     1      94.204  95.897  76.326  1.00  0.00     0.157 A 
BRANCH  17  20
ATOM     20  O   UNL     1      91.888  95.394  76.759  1.00  0.00    -0.493 OA
ATOM     21  C   UNL     1      91.417  95.728  78.076  1.00  0.00     0.278 C 
ENDBRANCH  17  20
BRANCH  19  22
ATOM     22  O   UNL     1      94.574  94.696  76.838  1.00  0.00    -0.504 OA
ATOM     23  H   UNL     1      94.623  94.048  76.131  1.00  0.00     0.293 HD
ENDBRANCH  19  22
ENDBRANCH  13  14
ENDBRANCH  11  13
ENDBRANCH   8   9
ENDBRANCH   1   8
TORSDOF 11
ENDMDL
MODEL 2
REMARK VINA RESULT:    -5.543     18.868     20.796
REMARK INTER + INTRA:          -9.850
REMARK INTER:                  -9.169
REMARK INTRA:                  -0.681
REMARK UNBOUND:                -0.903
REMARK SMILES CCCCCCCCC(=O)NCc1ccc(O)c(OC)c1
REMARK SMILES IDX 7 1 6 2 5 3 4 4 3 5 2 6 1 7 8 8 9 9 10 10 11 11 12 13 13 14
REMARK SMILES IDX 21 15 14 16 18 17 15 18 16 19 19 20 20 21 17 22
REMARK H PARENT 11 12 17 23
REMARK Flexibility Score: inf
ROOT
ATOM      1  C   UNL     1      96.609  85.259  85.969  1.00  0.00     0.010 C 
ENDROOT
BRANCH   1   2
ATOM      2  C   UNL     1      96.361  83.969  85.134  1.00  0.00     0.001 C 
BRANCH   2   3
ATOM      3  C   UNL     1      97.527  82.946  85.270  1.00  0.00     0.000 C 
BRANCH   3   4
ATOM      4  C   UNL     1      97.908  82.249  83.933  1.00  0.00    -0.000 C 
BRANCH   4   5
ATOM      5  C   UNL     1      97.826  83.207  82.711  1.00  0.00    -0.000 C 
BRANCH   5   6
ATOM      6  C   UNL     1      98.849  82.847  81.601  1.00  0.00    -0.003 C 
ATOM      7  C   UNL     1      98.317  83.133  80.179  1.00  0.00     0.004 C 
ENDBRANCH   5   6
ENDBRANCH   4   5
ENDBRANCH   3   4
ENDBRANCH   2   3
ENDBRANCH   1   2
BRANCH   1   8
ATOM      8  C   UNL     1      95.318  85.871  86.579  1.00  0.00     0.100 C 
BRANCH   8   9
ATOM      9  C   UNL     1      94.576  84.872  87.386  1.00  0.00     0.220 C 
ATOM     10  O   UNL     1      95.168  84.327  88.348  1.00  0.00    -0.275 OA
ATOM     11  N   UNL     1      93.273  84.580  87.102  1.00  0.00    -0.352 N 
ATOM     12  H   UNL     1      92.923  85.010  86.258  1.00  0.00     0.163 HD
BRANCH  11  13
ATOM     13  C   UNL     1      92.413  83.747  87.886  1.00  0.00     0.151 C 
BRANCH  13  14
ATOM     14  C   UNL     1      91.847  82.594  87.137  1.00  0.00    -0.025 A 
ATOM     15  C   UNL     1      90.450  82.492  86.934  1.00  0.00     0.056 A 
ATOM     16  C   UNL     1      92.687  81.580  86.620  1.00  0.00     0.009 A 
ATOM     17  C   UNL     1      89.899  81.410  86.209  1.00  0.00     0.160 A 
ATOM     18  C   UNL     1      92.146  80.502  85.898  1.00  0.00     0.050 A 
ATOM     19  C   UNL     1      90.755  80.409  85.697  1.00  0.00     0.157 A 
BRANCH  17  20
ATOM     20  O   UNL     1      88.542  81.292  86.050  1.00  0.00    -0.493 OA
ATOM     21  C   UNL     1      87.905  82.471  85.525  1.00  0.00     0.278 C 
ENDBRANCH  17  20
BRANCH  19  22
ATOM     22  O   UNL     1      90.239  79.350  85.022  1.00  0.00    -0.504 OA
ATOM     23  H   UNL     1      90.953  78.774  84.738  1.00  0.00     0.293 HD
ENDBRANCH  19  22
ENDBRANCH  13  14
ENDBRANCH  11  13
ENDBRANCH   8   9
ENDBRANCH   1   8
TORSDOF 11
ENDMDL
MODEL 3
REMARK VINA RESULT:    -5.445     19.811     21.525
REMARK INTER + INTRA:          -9.691
REMARK INTER:                  -7.699
REMARK INTRA:                  -1.992
REMARK UNBOUND:                -0.903
REMARK SMILES CCCCCCCCC(=O)NCc1ccc(O)c(OC)c1
REMARK SMILES IDX 7 1 6 2 5 3 4 4 3 5 2 6 1 7 8 8 9 9 10 10 11 11 12 13 13 14
REMARK SMILES IDX 21 15 14 16 18 17 15 18 16 19 19 20 20 21 17 22
REMARK H PARENT 11 12 17 23
REMARK Flexibility Score: inf
ROOT
ATOM      1  C   UNL     1      76.645  83.455  66.108  1.00  0.00     0.010 C 
ENDROOT
BRANCH   1   2
ATOM      2  C   UNL     1      76.670  83.305  64.559  1.00  0.00     0.001 C 
BRANCH   2   3
ATOM      3  C   UNL     1      77.251  84.566  63.855  1.00  0.00     0.000 C 
BRANCH   3   4
ATOM      4  C   UNL     1      76.369  85.837  64.015  1.00  0.00    -0.000 C 
BRANCH   4   5
ATOM      5  C   UNL     1      77.135  87.020  64.672  1.00  0.00    -0.000 C 
BRANCH   5   6
ATOM      6  C   UNL     1      76.685  87.282  66.135  1.00  0.00    -0.003 C 
ATOM      7  C   UNL     1      75.236  86.821  66.409  1.00  0.00     0.004 C 
ENDBRANCH   5   6
ENDBRANCH   4   5
ENDBRANCH   3   4
ENDBRANCH   2   3
ENDBRANCH   1   2
BRANCH   1   8
ATOM      8  C   UNL     1      78.055  83.568  66.752  1.00  0.00     0.100 C 
BRANCH   8   9
ATOM      9  C   UNL     1      78.002  84.301  68.040  1.00  0.00     0.220 C 
ATOM     10  O   UNL     1      78.787  85.264  68.209  1.00  0.00    -0.275 OA
ATOM     11  N   UNL     1      77.099  83.949  69.002  1.00  0.00    -0.352 N 
ATOM     12  H   UNL     1      76.578  83.109  68.798  1.00  0.00     0.163 HD
BRANCH  11  13
ATOM     13  C   UNL     1      76.855  84.661  70.220  1.00  0.00     0.151 C 
BRANCH  13  14
ATOM     14  C   UNL     1      75.930  85.815  70.066  1.00  0.00    -0.025 A 
ATOM     15  C   UNL     1      74.538  85.598  69.928  1.00  0.00     0.056 A 
ATOM     16  C   UNL     1      76.418  87.142  70.052  1.00  0.00     0.009 A 
ATOM     17  C   UNL     1      73.644  86.686  69.799  1.00  0.00     0.160 A 
ATOM     18  C   UNL     1      75.535  88.228  69.925  1.00  0.00     0.050 A 
ATOM     19  C   UNL     1      74.151  88.006  69.791  1.00  0.00     0.157 A 
BRANCH  17  20
ATOM     20  O   UNL     1      72.300  86.473  69.623  1.00  0.00    -0.493 OA
ATOM     21  C   UNL     1      71.966  85.800  68.397  1.00  0.00     0.278 C 
ENDBRANCH  17  20
BRANCH  19  22
ATOM     22  O   UNL     1      73.308  89.060  69.641  1.00  0.00    -0.504 OA
ATOM     23  H   UNL     1      72.415  88.790  69.867  1.00  0.00     0.293 HD
ENDBRANCH  19  22
ENDBRANCH  13  14
ENDBRANCH  11  13
ENDBRANCH   8   9
ENDBRANCH   1   8
TORSDOF 11
ENDMDL
MODEL 4
REMARK VINA RESULT:    -5.351     19.355     21.436
REMARK INTER + INTRA:          -9.540
REMARK INTER:                  -7.525
REMARK INTRA:                  -2.015
REMARK UNBOUND:                -0.903
REMARK SMILES CCCCCCCCC(=O)NCc1ccc(O)c(OC)c1
REMARK SMILES IDX 7 1 6 2 5 3 4 4 3 5 2 6 1 7 8 8 9 9 10 10 11 11 12 13 13 14
REMARK SMILES IDX 21 15 14 16 18 17 15 18 16 19 19 20 20 21 17 22
REMARK H PARENT 11 12 17 23
REMARK Flexibility Score: inf
ROOT
ATOM      1  C   UNL     1      77.075  82.869  66.278  1.00  0.00     0.010 C 
ENDROOT
BRANCH   1   2
ATOM      2  C   UNL     1      76.927  83.077  64.744  1.00  0.00     0.001 C 
BRANCH   2   3
ATOM      3  C   UNL     1      76.816  84.582  64.361  1.00  0.00     0.000 C 
BRANCH   3   4
ATOM      4  C   UNL     1      75.503  85.258  64.851  1.00  0.00    -0.000 C 
BRANCH   4   5
ATOM      5  C   UNL     1      75.712  86.740  65.272  1.00  0.00    -0.000 C 
BRANCH   5   6
ATOM      6  C   UNL     1      77.137  87.007  65.826  1.00  0.00    -0.003 C 
ATOM      7  C   UNL     1      77.126  87.792  67.156  1.00  0.00     0.004 C 
ENDBRANCH   5   6
ENDBRANCH   4   5
ENDBRANCH   3   4
ENDBRANCH   2   3
ENDBRANCH   1   2
BRANCH   1   8
ATOM      8  C   UNL     1      78.303  83.594  66.897  1.00  0.00     0.100 C 
BRANCH   8   9
ATOM      9  C   UNL     1      77.959  84.230  68.191  1.00  0.00     0.220 C 
ATOM     10  O   UNL     1      78.721  85.121  68.638  1.00  0.00    -0.275 OA
ATOM     11  N   UNL     1      76.825  83.870  68.861  1.00  0.00    -0.352 N 
ATOM     12  H   UNL     1      76.334  83.086  68.459  1.00  0.00     0.163 HD
BRANCH  11  13
ATOM     13  C   UNL     1      76.314  84.503  70.039  1.00  0.00     0.151 C 
BRANCH  13  14
ATOM     14  C   UNL     1      75.357  85.607  69.760  1.00  0.00    -0.025 A 
ATOM     15  C   UNL     1      75.308  86.738  70.610  1.00  0.00     0.056 A 
ATOM     16  C   UNL     1      74.481  85.548  68.651  1.00  0.00     0.009 A 
ATOM     17  C   UNL     1      74.416  87.803  70.348  1.00  0.00     0.160 A 
ATOM     18  C   UNL     1      73.593  86.604  68.385  1.00  0.00     0.050 A 
ATOM     19  C   UNL     1      73.551  87.728  69.232  1.00  0.00     0.157 A 
BRANCH  17  20
ATOM     20  O   UNL     1      74.340  88.879  71.196  1.00  0.00    -0.493 OA
ATOM     21  C   UNL     1      75.270  89.934  70.893  1.00  0.00     0.278 C 
ENDBRANCH  17  20
BRANCH  19  22
ATOM     22  O   UNL     1      72.670  88.730  68.982  1.00  0.00    -0.504 OA
ATOM     23  H   UNL     1      73.095  89.577  69.140  1.00  0.00     0.293 HD
ENDBRANCH  19  22
ENDBRANCH  13  14
ENDBRANCH  11  13
ENDBRANCH   8   9
ENDBRANCH   1   8
TORSDOF 11
ENDMDL
MODEL 5
REMARK VINA RESULT:    -5.299     20.510     23.558
REMARK INTER + INTRA:          -9.455
REMARK INTER:                  -8.488
REMARK INTRA:                  -0.967
REMARK UNBOUND:                -0.903
REMARK SMILES CCCCCCCCC(=O)NCc1ccc(O)c(OC)c1
REMARK SMILES IDX 7 1 6 2 5 3 4 4 3 5 2 6 1 7 8 8 9 9 10 10 11 11 12 13 13 14
REMARK SMILES IDX 21 15 14 16 18 17 15 18 16 19 19 20 20 21 17 22
REMARK H PARENT 11 12 17 23
REMARK Flexibility Score: inf
ROOT
ATOM      1  C   UNL     1      77.896  86.604  67.708  1.00  0.00     0.010 C 
ENDROOT
BRANCH   1   2
ATOM      2  C   UNL     1      77.707  87.002  69.201  1.00  0.00     0.001 C 
BRANCH   2   3
ATOM      3  C   UNL     1      76.406  87.826  69.431  1.00  0.00     0.000 C 
BRANCH   3   4
ATOM      4  C   UNL     1      75.410  87.161  70.423  1.00  0.00    -0.000 C 
BRANCH   4   5
ATOM      5  C   UNL     1      75.087  85.686  70.051  1.00  0.00    -0.000 C 
BRANCH   5   6
ATOM      6  C   UNL     1      75.530  84.683  71.151  1.00  0.00    -0.003 C 
ATOM      7  C   UNL     1      76.846  83.953  70.802  1.00  0.00     0.004 C 
ENDBRANCH   5   6
ENDBRANCH   4   5
ENDBRANCH   3   4
ENDBRANCH   2   3
ENDBRANCH   1   2
BRANCH   1   8
ATOM      8  C   UNL     1      76.773  87.129  66.770  1.00  0.00     0.100 C 
BRANCH   8   9
ATOM      9  C   UNL     1      76.829  86.473  65.442  1.00  0.00     0.220 C 
ATOM     10  O   UNL     1      77.150  87.167  64.448  1.00  0.00    -0.275 OA
ATOM     11  N   UNL     1      76.564  85.139  65.315  1.00  0.00    -0.352 N 
ATOM     12  H   UNL     1      76.232  84.698  66.160  1.00  0.00     0.163 HD
BRANCH  11  13
ATOM     13  C   UNL     1      76.720  84.366  64.121  1.00  0.00     0.151 C 
BRANCH  13  14
ATOM     14  C   UNL     1      75.773  83.224  64.016  1.00  0.00    -0.025 A 
ATOM     15  C   UNL     1      74.441  83.358  64.476  1.00  0.00     0.056 A 
ATOM     16  C   UNL     1      76.183  81.989  63.463  1.00  0.00     0.009 A 
ATOM     17  C   UNL     1      73.525  82.287  64.367  1.00  0.00     0.160 A 
ATOM     18  C   UNL     1      75.276  80.920  63.351  1.00  0.00     0.050 A 
ATOM     19  C   UNL     1      73.952  81.061  63.808  1.00  0.00     0.157 A 
BRANCH  17  20
ATOM     20  O   UNL     1      72.247  82.405  64.852  1.00  0.00    -0.493 OA
ATOM     21  C   UNL     1      72.133  82.192  66.270  1.00  0.00     0.278 C 
ENDBRANCH  17  20
BRANCH  19  22
ATOM     22  O   UNL     1      73.092  80.015  63.720  1.00  0.00    -0.504 OA
ATOM     23  H   UNL     1      73.575  79.193  63.836  1.00  0.00     0.293 HD
ENDBRANCH  19  22
ENDBRANCH  13  14
ENDBRANCH  11  13
ENDBRANCH   8   9
ENDBRANCH   1   8
TORSDOF 11
ENDMDL
MODEL 6
REMARK VINA RESULT:    -5.157     18.948     20.322
REMARK INTER + INTRA:          -9.226
REMARK INTER:                  -8.666
REMARK INTRA:                  -0.559
REMARK UNBOUND:                -0.903
REMARK SMILES CCCCCCCCC(=O)NCc1ccc(O)c(OC)c1
REMARK SMILES IDX 7 1 6 2 5 3 4 4 3 5 2 6 1 7 8 8 9 9 10 10 11 11 12 13 13 14
REMARK SMILES IDX 21 15 14 16 18 17 15 18 16 19 19 20 20 21 17 22
REMARK H PARENT 11 12 17 23
REMARK Flexibility Score: inf
ROOT
ATOM      1  C   UNL     1      96.806  85.256  86.088  1.00  0.00     0.010 C 
ENDROOT
BRANCH   1   2
ATOM      2  C   UNL     1      96.705  83.897  85.337  1.00  0.00     0.001 C 
BRANCH   2   3
ATOM      3  C   UNL     1      97.235  83.992  83.876  1.00  0.00     0.000 C 
BRANCH   3   4
ATOM      4  C   UNL     1      98.047  82.746  83.421  1.00  0.00    -0.000 C 
BRANCH   4   5
ATOM      5  C   UNL     1      97.765  81.494  84.299  1.00  0.00    -0.000 C 
BRANCH   5   6
ATOM      6  C   UNL     1      98.458  80.216  83.753  1.00  0.00    -0.003 C 
ATOM      7  C   UNL     1      99.176  80.451  82.406  1.00  0.00     0.004 C 
ENDBRANCH   5   6
ENDBRANCH   4   5
ENDBRANCH   3   4
ENDBRANCH   2   3
ENDBRANCH   1   2
BRANCH   1   8
ATOM      8  C   UNL     1      95.449  85.767  86.649  1.00  0.00     0.100 C 
BRANCH   8   9
ATOM      9  C   UNL     1      95.625  86.440  87.958  1.00  0.00     0.220 C 
ATOM     10  O   UNL     1      95.380  85.786  89.001  1.00  0.00    -0.275 OA
ATOM     11  N   UNL     1      96.071  87.729  88.022  1.00  0.00    -0.352 N 
ATOM     12  H   UNL     1      96.153  88.187  87.126  1.00  0.00     0.163 HD
BRANCH  11  13
ATOM     13  C   UNL     1      96.413  88.437  89.218  1.00  0.00     0.151 C 
BRANCH  13  14
ATOM     14  C   UNL     1      95.270  89.160  89.837  1.00  0.00    -0.025 A 
ATOM     15  C   UNL     1      94.623  88.625  90.977  1.00  0.00     0.056 A 
ATOM     16  C   UNL     1      94.809  90.384  89.301  1.00  0.00     0.009 A 
ATOM     17  C   UNL     1      93.547  89.310  91.586  1.00  0.00     0.160 A 
ATOM     18  C   UNL     1      93.739  91.070  89.903  1.00  0.00     0.050 A 
ATOM     19  C   UNL     1      93.102  90.534  91.039  1.00  0.00     0.157 A 
BRANCH  17  20
ATOM     20  O   UNL     1      92.893  88.770  92.665  1.00  0.00    -0.493 OA
ATOM     21  C   UNL     1      93.491  87.563  93.172  1.00  0.00     0.278 C 
ENDBRANCH  17  20
BRANCH  19  22
ATOM     22  O   UNL     1      92.052  91.190  91.597  1.00  0.00    -0.504 OA
ATOM     23  H   UNL     1      91.665  90.647  92.287  1.00  0.00     0.293 HD
ENDBRANCH  19  22
ENDBRANCH  13  14
ENDBRANCH  11  13
ENDBRANCH   8   9
ENDBRANCH   1   8
TORSDOF 11
ENDMDL
MODEL 7
REMARK VINA RESULT:    -5.065     19.853     22.863
REMARK INTER + INTRA:          -9.078
REMARK INTER:                  -7.638
REMARK INTRA:                  -1.439
REMARK UNBOUND:                -0.903
REMARK SMILES CCCCCCCCC(=O)NCc1ccc(O)c(OC)c1
REMARK SMILES IDX 7 1 6 2 5 3 4 4 3 5 2 6 1 7 8 8 9 9 10 10 11 11 12 13 13 14
REMARK SMILES IDX 21 15 14 16 18 17 15 18 16 19 19 20 20 21 17 22
REMARK H PARENT 11 12 17 23
REMARK Flexibility Score: inf
ROOT
ATOM      1  C   UNL     1      76.177  88.132  69.545  1.00  0.00     0.010 C 
ENDROOT
BRANCH   1   2
ATOM      2  C   UNL     1      75.337  87.325  70.576  1.00  0.00     0.001 C 
BRANCH   2   3
ATOM      3  C   UNL     1      74.989  85.897  70.064  1.00  0.00     0.000 C 
BRANCH   3   4
ATOM      4  C   UNL     1      75.710  84.759  70.840  1.00  0.00    -0.000 C 
BRANCH   4   5
ATOM      5  C   UNL     1      77.206  84.615  70.439  1.00  0.00    -0.000 C 
BRANCH   5   6
ATOM      6  C   UNL     1      77.387  84.138  68.973  1.00  0.00    -0.003 C 
ATOM      7  C   UNL     1      78.151  85.157  68.100  1.00  0.00     0.004 C 
ENDBRANCH   5   6
ENDBRANCH   4   5
ENDBRANCH   3   4
ENDBRANCH   2   3
ENDBRANCH   1   2
BRANCH   1   8
ATOM      8  C   UNL     1      75.346  88.690  68.355  1.00  0.00     0.100 C 
BRANCH   8   9
ATOM      9  C   UNL     1      75.645  87.960  67.100  1.00  0.00     0.220 C 
ATOM     10  O   UNL     1      76.823  87.973  66.669  1.00  0.00    -0.275 OA
ATOM     11  N   UNL     1      74.664  87.268  66.449  1.00  0.00    -0.352 N 
ATOM     12  H   UNL     1      73.739  87.395  66.833  1.00  0.00     0.163 HD
BRANCH  11  13
ATOM     13  C   UNL     1      74.853  86.414  65.316  1.00  0.00     0.151 C 
BRANCH  13  14
ATOM     14  C   UNL     1      74.359  85.026  65.519  1.00  0.00    -0.025 A 
ATOM     15  C   UNL     1      75.258  83.997  65.890  1.00  0.00     0.056 A 
ATOM     16  C   UNL     1      72.993  84.708  65.344  1.00  0.00     0.009 A 
ATOM     17  C   UNL     1      74.800  82.677  66.104  1.00  0.00     0.160 A 
ATOM     18  C   UNL     1      72.531  83.397  65.556  1.00  0.00     0.050 A 
ATOM     19  C   UNL     1      73.430  82.379  65.927  1.00  0.00     0.157 A 
BRANCH  17  20
ATOM     20  O   UNL     1      75.679  81.673  66.422  1.00  0.00    -0.493 OA
ATOM     21  C   UNL     1      76.910  81.710  65.678  1.00  0.00     0.278 C 
ENDBRANCH  17  20
BRANCH  19  22
ATOM     22  O   UNL     1      72.979  81.110  66.103  1.00  0.00    -0.504 OA
ATOM     23  H   UNL     1      72.291  80.924  65.459  1.00  0.00     0.293 HD
ENDBRANCH  19  22
ENDBRANCH  13  14
ENDBRANCH  11  13
ENDBRANCH   8   9
ENDBRANCH   1   8
TORSDOF 11
ENDMDL
MODEL 8
REMARK VINA RESULT:    -4.975     18.728     20.564
REMARK INTER + INTRA:          -8.932
REMARK INTER:                  -7.714
REMARK INTRA:                  -1.219
REMARK UNBOUND:                -0.903
REMARK SMILES CCCCCCCCC(=O)NCc1ccc(O)c(OC)c1
REMARK SMILES IDX 7 1 6 2 5 3 4 4 3 5 2 6 1 7 8 8 9 9 10 10 11 11 12 13 13 14
REMARK SMILES IDX 21 15 14 16 18 17 15 18 16 19 19 20 20 21 17 22
REMARK H PARENT 11 12 17 23
REMARK Flexibility Score: inf
ROOT
ATOM      1  C   UNL     1      94.711  84.715  89.038  1.00  0.00     0.010 C 
ENDROOT
BRANCH   1   2
ATOM      2  C   UNL     1      93.284  84.924  88.453  1.00  0.00     0.001 C 
BRANCH   2   3
ATOM      3  C   UNL     1      92.184  84.262  89.334  1.00  0.00     0.000 C 
BRANCH   3   4
ATOM      4  C   UNL     1      91.905  82.774  88.978  1.00  0.00    -0.000 C 
BRANCH   4   5
ATOM      5  C   UNL     1      91.112  82.614  87.650  1.00  0.00    -0.000 C 
BRANCH   5   6
ATOM      6  C   UNL     1      91.956  81.950  86.528  1.00  0.00    -0.003 C 
ATOM      7  C   UNL     1      93.354  81.505  87.013  1.00  0.00     0.004 C 
ENDBRANCH   5   6
ENDBRANCH   4   5
ENDBRANCH   3   4
ENDBRANCH   2   3
ENDBRANCH   1   2
BRANCH   1   8
ATOM      8  C   UNL     1      95.855  85.035  88.035  1.00  0.00     0.100 C 
BRANCH   8   9
ATOM      9  C   UNL     1      95.969  86.493  87.793  1.00  0.00     0.220 C 
ATOM     10  O   UNL     1      95.737  86.925  86.638  1.00  0.00    -0.275 OA
ATOM     11  N   UNL     1      96.291  87.342  88.813  1.00  0.00    -0.352 N 
ATOM     12  H   UNL     1      96.541  86.883  89.676  1.00  0.00     0.163 HD
BRANCH  11  13
ATOM     13  C   UNL     1      96.294  88.772  88.740  1.00  0.00     0.151 C 
BRANCH  13  14
ATOM     14  C   UNL     1      95.181  89.414  89.489  1.00  0.00    -0.025 A 
ATOM     15  C   UNL     1      94.383  88.650  90.374  1.00  0.00     0.056 A 
ATOM     16  C   UNL     1      94.897  90.790  89.330  1.00  0.00     0.009 A 
ATOM     17  C   UNL     1      93.332  89.250  91.105  1.00  0.00     0.160 A 
ATOM     18  C   UNL     1      93.854  91.393  90.055  1.00  0.00     0.050 A 
ATOM     19  C   UNL     1      93.066  90.628  90.936  1.00  0.00     0.157 A 
BRANCH  17  20
ATOM     20  O   UNL     1      92.533  88.499  91.930  1.00  0.00    -0.493 OA
ATOM     21  C   UNL     1      92.733  87.080  91.810  1.00  0.00     0.278 C 
ENDBRANCH  17  20
BRANCH  19  22
ATOM     22  O   UNL     1      92.044  91.213  91.611  1.00  0.00    -0.504 OA
ATOM     23  H   UNL     1      92.207  91.152  92.555  1.00  0.00     0.293 HD
ENDBRANCH  19  22
ENDBRANCH  13  14
ENDBRANCH  11  13
ENDBRANCH   8   9
ENDBRANCH   1   8
TORSDOF 11
ENDMDL
MODEL 9
REMARK VINA RESULT:    -4.794      4.217      5.595
REMARK INTER + INTRA:          -8.640
REMARK INTER:                  -8.104
REMARK INTRA:                  -0.536
REMARK UNBOUND:                -0.903
REMARK SMILES CCCCCCCCC(=O)NCc1ccc(O)c(OC)c1
REMARK SMILES IDX 7 1 6 2 5 3 4 4 3 5 2 6 1 7 8 8 9 9 10 10 11 11 12 13 13 14
REMARK SMILES IDX 21 15 14 16 18 17 15 18 16 19 19 20 20 21 17 22
REMARK H PARENT 11 12 17 23
REMARK Flexibility Score: inf
ROOT
ATOM      1  C   UNL     1      93.325 101.819  75.765  1.00  0.00     0.010 C 
ENDROOT
BRANCH   1   2
ATOM      2  C   UNL     1      92.424 102.827  76.536  1.00  0.00     0.001 C 
BRANCH   2   3
ATOM      3  C   UNL     1      90.943 102.778  76.058  1.00  0.00     0.000 C 
BRANCH   3   4
ATOM      4  C   UNL     1      89.996 103.722  76.853  1.00  0.00    -0.000 C 
BRANCH   4   5
ATOM      5  C   UNL     1      88.616 103.072  77.154  1.00  0.00    -0.000 C 
BRANCH   5   6
ATOM      6  C   UNL     1      87.435 103.863  76.530  1.00  0.00    -0.003 C 
ATOM      7  C   UNL     1      87.780 104.467  75.150  1.00  0.00     0.004 C 
ENDBRANCH   5   6
ENDBRANCH   4   5
ENDBRANCH   3   4
ENDBRANCH   2   3
ENDBRANCH   1   2
BRANCH   1   8
ATOM      8  C   UNL     1      92.562 100.979  74.702  1.00  0.00     0.100 C 
BRANCH   8   9
ATOM      9  C   UNL     1      93.240  99.685  74.450  1.00  0.00     0.220 C 
ATOM     10  O   UNL     1      93.909  99.559  73.396  1.00  0.00    -0.275 OA
ATOM     11  N   UNL     1      93.159  98.670  75.359  1.00  0.00    -0.352 N 
ATOM     12  H   UNL     1      92.527  98.846  76.127  1.00  0.00     0.163 HD
BRANCH  11  13
ATOM     13  C   UNL     1      93.877  97.434  75.299  1.00  0.00     0.151 C 
BRANCH  13  14
ATOM     14  C   UNL     1      93.517  96.475  76.378  1.00  0.00    -0.025 A 
ATOM     15  C   UNL     1      94.517  95.683  76.991  1.00  0.00     0.056 A 
ATOM     16  C   UNL     1      92.177  96.335  76.808  1.00  0.00     0.009 A 
ATOM     17  C   UNL     1      94.193  94.781  78.029  1.00  0.00     0.160 A 
ATOM     18  C   UNL     1      91.848  95.440  77.841  1.00  0.00     0.050 A 
ATOM     19  C   UNL     1      92.849  94.657  78.448  1.00  0.00     0.157 A 
BRANCH  17  20
ATOM     20  O   UNL     1      95.157  93.984  78.593  1.00  0.00    -0.493 OA
ATOM     21  C   UNL     1      95.891  94.612  79.658  1.00  0.00     0.278 C 
ENDBRANCH  17  20
BRANCH  19  22
ATOM     22  O   UNL     1      92.516  93.775  79.426  1.00  0.00    -0.504 OA
ATOM     23  H   UNL     1      92.505  92.886  79.065  1.00  0.00     0.293 HD
ENDBRANCH  19  22
ENDBRANCH  13  14
ENDBRANCH  11  13
ENDBRANCH   8   9
ENDBRANCH   1   8
TORSDOF 11
ENDMDL
MODEL 10
REMARK VINA RESULT:    -4.754     29.640     31.847
REMARK INTER + INTRA:          -8.575
REMARK INTER:                  -7.540
REMARK INTRA:                  -1.036
REMARK UNBOUND:                -0.903
REMARK SMILES CCCCCCCCC(=O)NCc1ccc(O)c(OC)c1
REMARK SMILES IDX 7 1 6 2 5 3 4 4 3 5 2 6 1 7 8 8 9 9 10 10 11 11 12 13 13 14
REMARK SMILES IDX 21 15 14 16 18 17 15 18 16 19 19 20 20 21 17 22
REMARK H PARENT 11 12 17 23
REMARK Flexibility Score: inf
ROOT
ATOM      1  C   UNL     1      61.407  84.793  73.423  1.00  0.00     0.010 C 
ENDROOT
BRANCH   1   2
ATOM      2  C   UNL     1      60.095  85.502  73.867  1.00  0.00     0.001 C 
BRANCH   2   3
ATOM      3  C   UNL     1      59.303  86.086  72.660  1.00  0.00     0.000 C 
BRANCH   3   4
ATOM      4  C   UNL     1      58.484  85.023  71.874  1.00  0.00    -0.000 C 
BRANCH   4   5
ATOM      5  C   UNL     1      58.751  85.071  70.343  1.00  0.00    -0.000 C 
BRANCH   5   6
ATOM      6  C   UNL     1      60.198  84.644  69.976  1.00  0.00    -0.003 C 
ATOM      7  C   UNL     1      61.085  85.835  69.552  1.00  0.00     0.004 C 
ENDBRANCH   5   6
ENDBRANCH   4   5
ENDBRANCH   3   4
ENDBRANCH   2   3
ENDBRANCH   1   2
BRANCH   1   8
ATOM      8  C   UNL     1      61.292  83.245  73.349  1.00  0.00     0.100 C 
BRANCH   8   9
ATOM      9  C   UNL     1      62.286  82.587  74.231  1.00  0.00     0.220 C 
ATOM     10  O   UNL     1      62.462  81.351  74.111  1.00  0.00    -0.275 OA
ATOM     11  N   UNL     1      63.009  83.319  75.129  1.00  0.00    -0.352 N 
ATOM     12  H   UNL     1      62.726  84.285  75.203  1.00  0.00     0.163 HD
BRANCH  11  13
ATOM     13  C   UNL     1      64.088  82.829  75.930  1.00  0.00     0.151 C 
BRANCH  13  14
ATOM     14  C   UNL     1      65.113  83.858  76.252  1.00  0.00    -0.025 A 
ATOM     15  C   UNL     1      65.622  84.699  75.234  1.00  0.00     0.056 A 
ATOM     16  C   UNL     1      65.598  84.012  77.571  1.00  0.00     0.009 A 
ATOM     17  C   UNL     1      66.584  85.693  75.529  1.00  0.00     0.160 A 
ATOM     18  C   UNL     1      66.554  84.999  77.871  1.00  0.00     0.050 A 
ATOM     19  C   UNL     1      67.054  85.835  76.854  1.00  0.00     0.157 A 
BRANCH  17  20
ATOM     20  O   UNL     1      67.107  86.479  74.533  1.00  0.00    -0.493 OA
ATOM     21  C   UNL     1      67.271  85.803  73.274  1.00  0.00     0.278 C 
ENDBRANCH  17  20
BRANCH  19  22
ATOM     22  O   UNL     1      67.997  86.767  77.148  1.00  0.00    -0.504 OA
ATOM     23  H   UNL     1      68.522  86.948  76.365  1.00  0.00     0.293 HD
ENDBRANCH  19  22
ENDBRANCH  13  14
ENDBRANCH  11  13
ENDBRANCH   8   9
ENDBRANCH   1   8
TORSDOF 11
ENDMDL
