MODEL 1
REMARK VINA RESULT:    -7.142      0.000      0.000
REMARK INTER + INTRA:          -8.776
REMARK INTER:                  -8.394
REMARK INTRA:                  -0.382
REMARK UNBOUND:                -0.382
REMARK SMILES O=C(/C=C/C=C/c1ccc2c(c1)OCO2)N1CCCCC1
REMARK SMILES IDX 3 1 4 2 2 3 1 4 16 5 17 6 21 7 18 8 20 9 19 10 5 11 6 12
REMARK SMILES IDX 7 13 12 14 8 15 11 16 9 17 13 18 10 19 14 20 15 21
REMARK H PARENT
REMARK Flexibility Score: inf
ROOT
ATOM      1  C   UNL     1      97.303  80.806  78.809  1.00  0.00     0.071 C 
ATOM      2  C   UNL     1      97.937  81.178  79.919  1.00  0.00     0.006 C 
ENDROOT
BRANCH   1   3
ATOM      3  C   UNL     1      98.082  80.731  77.557  1.00  0.00     0.246 C 
ATOM      4  O   UNL     1      98.899  79.816  77.448  1.00  0.00    -0.270 OA
ATOM      5  N   UNL     1      97.846  81.703  76.586  1.00  0.00    -0.339 N 
ATOM      6  C   UNL     1      98.608  81.658  75.334  1.00  0.00     0.120 C 
ATOM      7  C   UNL     1      96.914  82.835  76.698  1.00  0.00     0.120 C 
ATOM      8  C   UNL     1      97.686  81.685  74.119  1.00  0.00     0.022 C 
ATOM      9  C   UNL     1      95.973  82.898  75.494  1.00  0.00     0.022 C 
ATOM     10  C   UNL     1      96.742  82.882  74.176  1.00  0.00     0.004 C 
ENDBRANCH   1   3
BRANCH   2  11
ATOM     11  C   UNL     1      97.259  81.281  81.194  1.00  0.00     0.001 C 
ATOM     12  C   UNL     1      96.671  82.412  81.615  1.00  0.00     0.008 C 
BRANCH  12  13
ATOM     13  C   UNL     1      95.976  82.574  82.903  1.00  0.00    -0.022 A 
ATOM     14  C   UNL     1      95.887  83.838  83.469  1.00  0.00     0.058 A 
ATOM     15  C   UNL     1      95.424  81.449  83.521  1.00  0.00     0.012 A 
ATOM     16  C   UNL     1      95.227  83.939  84.676  1.00  0.00     0.166 A 
ATOM     17  C   UNL     1      94.761  81.580  84.743  1.00  0.00     0.051 A 
ATOM     18  O   UNL     1      95.036  85.084  85.389  1.00  0.00    -0.454 OA
ATOM     19  C   UNL     1      94.678  82.840  85.297  1.00  0.00     0.165 A 
ATOM     20  C   UNL     1      94.306  84.581  86.526  1.00  0.00     0.468 C 
ATOM     21  O   UNL     1      94.075  83.158  86.475  1.00  0.00    -0.454 OA
ENDBRANCH  12  13
ENDBRANCH   2  11
TORSDOF 3
ENDMDL
MODEL 2
REMARK VINA RESULT:    -7.131      2.083      2.840
REMARK INTER + INTRA:          -8.764
REMARK INTER:                  -8.574
REMARK INTRA:                  -0.189
REMARK UNBOUND:                -0.382
REMARK SMILES O=C(/C=C/C=C/c1ccc2c(c1)OCO2)N1CCCCC1
REMARK SMILES IDX 3 1 4 2 2 3 1 4 16 5 17 6 21 7 18 8 20 9 19 10 5 11 6 12
REMARK SMILES IDX 7 13 12 14 8 15 11 16 9 17 13 18 10 19 14 20 15 21
REMARK H PARENT
REMARK Flexibility Score: inf
ROOT
ATOM      1  C   UNL     1      96.062  82.227  77.286  1.00  0.00     0.071 C 
ATOM      2  C   UNL     1      96.991  82.256  78.240  1.00  0.00     0.006 C 
ENDROOT
BRANCH   1   3
ATOM      3  C   UNL     1      96.337  82.948  76.027  1.00  0.00     0.246 C 
ATOM      4  O   UNL     1      95.721  83.995  75.825  1.00  0.00    -0.270 OA
ATOM      5  N   UNL     1      97.268  82.394  75.150  1.00  0.00    -0.339 N 
ATOM      6  C   UNL     1      97.557  83.084  73.890  1.00  0.00     0.120 C 
ATOM      7  C   UNL     1      97.988  81.125  75.336  1.00  0.00     0.120 C 
ATOM      8  C   UNL     1      99.054  83.313  73.711  1.00  0.00     0.022 C 
ATOM      9  C   UNL     1      99.495  81.313  75.161  1.00  0.00     0.022 C 
ATOM     10  C   UNL     1      99.827  82.005  73.842  1.00  0.00     0.004 C 
ENDBRANCH   1   3
BRANCH   2  11
ATOM     11  C   UNL     1      96.814  81.581  79.508  1.00  0.00     0.001 C 
ATOM     12  C   UNL     1      96.697  82.240  80.672  1.00  0.00     0.008 C 
BRANCH  12  13
ATOM     13  C   UNL     1      96.523  81.603  81.988  1.00  0.00    -0.022 A 
ATOM     14  C   UNL     1      96.375  82.405  83.112  1.00  0.00     0.058 A 
ATOM     15  C   UNL     1      96.513  80.208  82.071  1.00  0.00     0.012 A 
ATOM     16  C   UNL     1      96.215  81.763  84.323  1.00  0.00     0.166 A 
ATOM     17  C   UNL     1      96.349  79.585  83.309  1.00  0.00     0.051 A 
ATOM     18  O   UNL     1      96.057  82.367  85.532  1.00  0.00    -0.454 OA
ATOM     19  C   UNL     1      96.202  80.390  84.419  1.00  0.00     0.165 A 
ATOM     20  C   UNL     1      95.943  81.221  86.400  1.00  0.00     0.468 C 
ATOM     21  O   UNL     1      96.034  79.963  85.700  1.00  0.00    -0.454 OA
ENDBRANCH  12  13
ENDBRANCH   2  11
TORSDOF 3
ENDMDL
MODEL 3
REMARK VINA RESULT:    -7.001     13.640     15.253
REMARK INTER + INTRA:          -8.610
REMARK INTER:                  -8.216
REMARK INTRA:                  -0.395
REMARK UNBOUND:                -0.382
REMARK SMILES O=C(/C=C/C=C/c1ccc2c(c1)OCO2)N1CCCCC1
REMARK SMILES IDX 3 1 4 2 2 3 1 4 16 5 17 6 21 7 18 8 20 9 19 10 5 11 6 12
REMARK SMILES IDX 7 13 12 14 8 15 11 16 9 17 13 18 10 19 14 20 15 21
REMARK H PARENT
REMARK Flexibility Score: inf
ROOT
ATOM      1  C   UNL     1      95.807  96.552  73.702  1.00  0.00     0.071 C 
ATOM      2  C   UNL     1      95.435  96.841  74.948  1.00  0.00     0.006 C 
ENDROOT
BRANCH   1   3
ATOM      3  C   UNL     1      96.988  97.246  73.152  1.00  0.00     0.246 C 
ATOM      4  O   UNL     1      97.976  97.353  73.879  1.00  0.00    -0.270 OA
ATOM      5  N   UNL     1      96.905  97.738  71.850  1.00  0.00    -0.339 N 
ATOM      6  C   UNL     1      98.060  98.436  71.278  1.00  0.00     0.120 C 
ATOM      7  C   UNL     1      95.730  97.670  70.969  1.00  0.00     0.120 C 
ATOM      8  C   UNL     1      98.462  97.840  69.933  1.00  0.00     0.022 C 
ATOM      9  C   UNL     1      96.094  97.079  69.606  1.00  0.00     0.022 C 
ATOM     10  C   UNL     1      97.277  97.807  68.974  1.00  0.00     0.004 C 
ENDBRANCH   1   3
BRANCH   2  11
ATOM     11  C   UNL     1      94.291  96.213  75.574  1.00  0.00     0.001 C 
ATOM     12  C   UNL     1      93.947  94.936  75.344  1.00  0.00     0.008 C 
BRANCH  12  13
ATOM     13  C   UNL     1      92.790  94.251  75.946  1.00  0.00    -0.022 A 
ATOM     14  C   UNL     1      92.427  92.997  75.476  1.00  0.00     0.058 A 
ATOM     15  C   UNL     1      92.090  94.884  76.977  1.00  0.00     0.012 A 
ATOM     16  C   UNL     1      91.338  92.396  76.072  1.00  0.00     0.166 A 
ATOM     17  C   UNL     1      90.991  94.252  77.562  1.00  0.00     0.051 A 
ATOM     18  O   UNL     1      90.826  91.175  75.753  1.00  0.00    -0.454 OA
ATOM     19  C   UNL     1      90.638  93.006  77.087  1.00  0.00     0.165 A 
ATOM     20  C   UNL     1      89.727  91.086  76.683  1.00  0.00     0.468 C 
ATOM     21  O   UNL     1      89.602  92.245  77.532  1.00  0.00    -0.454 OA
ENDBRANCH  12  13
ENDBRANCH   2  11
TORSDOF 3
ENDMDL
MODEL 4
REMARK VINA RESULT:    -6.957      2.944      8.912
REMARK INTER + INTRA:          -8.558
REMARK INTER:                  -8.209
REMARK INTRA:                  -0.349
REMARK UNBOUND:                -0.382
REMARK SMILES O=C(/C=C/C=C/c1ccc2c(c1)OCO2)N1CCCCC1
REMARK SMILES IDX 3 1 4 2 2 3 1 4 16 5 17 6 21 7 18 8 20 9 19 10 5 11 6 12
REMARK SMILES IDX 7 13 12 14 8 15 11 16 9 17 13 18 10 19 14 20 15 21
REMARK H PARENT
REMARK Flexibility Score: inf
ROOT
ATOM      1  C   UNL     1      95.747  81.397  83.272  1.00  0.00     0.071 C 
ATOM      2  C   UNL     1      96.599  82.248  82.703  1.00  0.00     0.006 C 
ENDROOT
BRANCH   1   3
ATOM      3  C   UNL     1      95.775  81.264  84.743  1.00  0.00     0.246 C 
ATOM      4  O   UNL     1      96.873  81.322  85.298  1.00  0.00    -0.270 OA
ATOM      5  N   UNL     1      94.561  81.078  85.402  1.00  0.00    -0.339 N 
ATOM      6  C   UNL     1      94.559  80.937  86.861  1.00  0.00     0.120 C 
ATOM      7  C   UNL     1      93.239  80.959  84.770  1.00  0.00     0.120 C 
ATOM      8  C   UNL     1      93.589  81.917  87.513  1.00  0.00     0.022 C 
ATOM      9  C   UNL     1      92.236  81.924  85.400  1.00  0.00     0.022 C 
ATOM     10  C   UNL     1      92.191  81.780  86.919  1.00  0.00     0.004 C 
ENDBRANCH   1   3
BRANCH   2  11
ATOM     11  C   UNL     1      96.646  82.446  81.270  1.00  0.00     0.001 C 
ATOM     12  C   UNL     1      97.248  81.583  80.437  1.00  0.00     0.008 C 
BRANCH  12  13
ATOM     13  C   UNL     1      97.333  81.740  78.975  1.00  0.00    -0.022 A 
ATOM     14  C   UNL     1      96.335  82.442  78.312  1.00  0.00     0.058 A 
ATOM     15  C   UNL     1      98.415  81.177  78.295  1.00  0.00     0.012 A 
ATOM     16  C   UNL     1      96.459  82.563  76.943  1.00  0.00     0.166 A 
ATOM     17  C   UNL     1      98.515  81.315  76.908  1.00  0.00     0.051 A 
ATOM     18  O   UNL     1      95.590  83.209  76.118  1.00  0.00    -0.454 OA
ATOM     19  C   UNL     1      97.519  82.014  76.260  1.00  0.00     0.165 A 
ATOM     20  C   UNL     1      96.223  83.005  74.838  1.00  0.00     0.468 C 
ATOM     21  O   UNL     1      97.448  82.248  74.921  1.00  0.00    -0.454 OA
ENDBRANCH  12  13
ENDBRANCH   2  11
TORSDOF 3
ENDMDL
MODEL 5
REMARK VINA RESULT:    -6.728     16.006     17.629
REMARK INTER + INTRA:          -8.290
REMARK INTER:                  -7.935
REMARK INTRA:                  -0.355
REMARK UNBOUND:                -0.382
REMARK SMILES O=C(/C=C/C=C/c1ccc2c(c1)OCO2)N1CCCCC1
REMARK SMILES IDX 3 1 4 2 2 3 1 4 16 5 17 6 21 7 18 8 20 9 19 10 5 11 6 12
REMARK SMILES IDX 7 13 12 14 8 15 11 16 9 17 13 18 10 19 14 20 15 21
REMARK H PARENT
REMARK Flexibility Score: inf
ROOT
ATOM      1  C   UNL     1      93.091  99.832  72.417  1.00  0.00     0.071 C 
ATOM      2  C   UNL     1      93.538  98.595  72.624  1.00  0.00     0.006 C 
ENDROOT
BRANCH   1   3
ATOM      3  C   UNL     1      92.936 100.290  71.021  1.00  0.00     0.246 C 
ATOM      4  O   UNL     1      93.952 100.646  70.423  1.00  0.00    -0.270 OA
ATOM      5  N   UNL     1      91.653 100.293  70.478  1.00  0.00    -0.339 N 
ATOM      6  C   UNL     1      91.467 100.748  69.096  1.00  0.00     0.120 C 
ATOM      7  C   UNL     1      90.413  99.919  71.174  1.00  0.00     0.120 C 
ATOM      8  C   UNL     1      90.705  99.718  68.269  1.00  0.00     0.022 C 
ATOM      9  C   UNL     1      89.618  98.889  70.373  1.00  0.00     0.022 C 
ATOM     10  C   UNL     1      89.384  99.349  68.937  1.00  0.00     0.004 C 
ENDBRANCH   1   3
BRANCH   2  11
ATOM     11  C   UNL     1      93.723  98.057  73.955  1.00  0.00     0.001 C 
ATOM     12  C   UNL     1      93.746  96.739  74.209  1.00  0.00     0.008 C 
BRANCH  12  13
ATOM     13  C   UNL     1      93.923  96.139  75.542  1.00  0.00    -0.022 A 
ATOM     14  C   UNL     1      95.208  95.909  76.015  1.00  0.00     0.058 A 
ATOM     15  C   UNL     1      92.791  95.817  76.296  1.00  0.00     0.012 A 
ATOM     16  C   UNL     1      95.322  95.345  77.270  1.00  0.00     0.166 A 
ATOM     17  C   UNL     1      92.936  95.247  77.563  1.00  0.00     0.051 A 
ATOM     18  O   UNL     1      96.487  95.043  77.905  1.00  0.00    -0.454 OA
ATOM     19  C   UNL     1      94.216  95.023  78.023  1.00  0.00     0.165 A 
ATOM     20  C   UNL     1      95.990  94.494  79.143  1.00  0.00     0.468 C 
ATOM     21  O   UNL     1      94.550  94.479  79.225  1.00  0.00    -0.454 OA
ENDBRANCH  12  13
ENDBRANCH   2  11
TORSDOF 3
ENDMDL
MODEL 6
REMARK VINA RESULT:    -6.652      3.106      8.747
REMARK INTER + INTRA:          -8.200
REMARK INTER:                  -7.816
REMARK INTRA:                  -0.384
REMARK UNBOUND:                -0.382
REMARK SMILES O=C(/C=C/C=C/c1ccc2c(c1)OCO2)N1CCCCC1
REMARK SMILES IDX 3 1 4 2 2 3 1 4 16 5 17 6 21 7 18 8 20 9 19 10 5 11 6 12
REMARK SMILES IDX 7 13 12 14 8 15 11 16 9 17 13 18 10 19 14 20 15 21
REMARK H PARENT
REMARK Flexibility Score: inf
ROOT
ATOM      1  C   UNL     1      96.656  80.247  81.782  1.00  0.00     0.071 C 
ATOM      2  C   UNL     1      97.615  79.890  80.930  1.00  0.00     0.006 C 
ENDROOT
BRANCH   1   3
ATOM      3  C   UNL     1      96.690  79.678  83.144  1.00  0.00     0.246 C 
ATOM      4  O   UNL     1      97.425  78.708  83.337  1.00  0.00    -0.270 OA
ATOM      5  N   UNL     1      95.887  80.271  84.116  1.00  0.00    -0.339 N 
ATOM      6  C   UNL     1      95.895  79.724  85.477  1.00  0.00     0.120 C 
ATOM      7  C   UNL     1      94.965  81.398  83.913  1.00  0.00     0.120 C 
ATOM      8  C   UNL     1      96.176  80.809  86.511  1.00  0.00     0.022 C 
ATOM      9  C   UNL     1      95.213  82.507  84.935  1.00  0.00     0.022 C 
ATOM     10  C   UNL     1      95.199  81.971  86.364  1.00  0.00     0.004 C 
ENDBRANCH   1   3
BRANCH   2  11
ATOM     11  C   UNL     1      97.666  80.395  79.574  1.00  0.00     0.001 C 
ATOM     12  C   UNL     1      96.996  81.490  79.181  1.00  0.00     0.008 C 
BRANCH  12  13
ATOM     13  C   UNL     1      97.006  82.041  77.815  1.00  0.00    -0.022 A 
ATOM     14  C   UNL     1      98.118  81.832  77.010  1.00  0.00     0.058 A 
ATOM     15  C   UNL     1      95.895  82.760  77.366  1.00  0.00     0.012 A 
ATOM     16  C   UNL     1      98.080  82.367  75.739  1.00  0.00     0.166 A 
ATOM     17  C   UNL     1      95.884  83.291  76.074  1.00  0.00     0.051 A 
ATOM     18  O   UNL     1      99.065  82.273  74.804  1.00  0.00    -0.454 OA
ATOM     19  C   UNL     1      96.993  83.077  75.283  1.00  0.00     0.165 A 
ATOM     20  C   UNL     1      98.476  83.004  73.709  1.00  0.00     0.468 C 
ATOM     21  O   UNL     1      97.161  83.517  74.006  1.00  0.00    -0.454 OA
ENDBRANCH  12  13
ENDBRANCH   2  11
TORSDOF 3
ENDMDL
MODEL 7
REMARK VINA RESULT:    -6.584     16.911     18.887
REMARK INTER + INTRA:          -8.120
REMARK INTER:                  -7.772
REMARK INTRA:                  -0.348
REMARK UNBOUND:                -0.382
REMARK SMILES O=C(/C=C/C=C/c1ccc2c(c1)OCO2)N1CCCCC1
REMARK SMILES IDX 3 1 4 2 2 3 1 4 16 5 17 6 21 7 18 8 20 9 19 10 5 11 6 12
REMARK SMILES IDX 7 13 12 14 8 15 11 16 9 17 13 18 10 19 14 20 15 21
REMARK H PARENT
REMARK Flexibility Score: inf
ROOT
ATOM      1  C   UNL     1      91.493  99.928  71.139  1.00  0.00     0.071 C 
ATOM      2  C   UNL     1      92.750  99.665  71.492  1.00  0.00     0.006 C 
ENDROOT
BRANCH   1   3
ATOM      3  C   UNL     1      91.267 100.700  69.901  1.00  0.00     0.246 C 
ATOM      4  O   UNL     1      91.877 101.763  69.774  1.00  0.00    -0.270 OA
ATOM      5  N   UNL     1      90.377 100.179  68.963  1.00  0.00    -0.339 N 
ATOM      6  C   UNL     1      90.128 100.927  67.727  1.00  0.00     0.120 C 
ATOM      7  C   UNL     1      89.598  98.940  69.100  1.00  0.00     0.120 C 
ATOM      8  C   UNL     1      90.337 100.052  66.495  1.00  0.00     0.022 C 
ATOM      9  C   UNL     1      89.779  98.036  67.881  1.00  0.00     0.022 C 
ATOM     10  C   UNL     1      89.498  98.781  66.579  1.00  0.00     0.004 C 
ENDBRANCH   1   3
BRANCH   2  11
ATOM     11  C   UNL     1      93.072  98.915  72.688  1.00  0.00     0.001 C 
ATOM     12  C   UNL     1      94.257  98.311  72.869  1.00  0.00     0.008 C 
BRANCH  12  13
ATOM     13  C   UNL     1      94.633  97.530  74.060  1.00  0.00    -0.022 A 
ATOM     14  C   UNL     1      93.672  96.748  74.687  1.00  0.00     0.058 A 
ATOM     15  C   UNL     1      95.948  97.598  74.527  1.00  0.00     0.012 A 
ATOM     16  C   UNL     1      94.073  96.035  75.798  1.00  0.00     0.166 A 
ATOM     17  C   UNL     1      96.326  96.866  75.655  1.00  0.00     0.051 A 
ATOM     18  O   UNL     1      93.284  95.217  76.548  1.00  0.00    -0.454 OA
ATOM     19  C   UNL     1      95.364  96.092  76.269  1.00  0.00     0.165 A 
ATOM     20  C   UNL     1      94.225  94.765  77.543  1.00  0.00     0.468 C 
ATOM     21  O   UNL     1      95.547  95.317  77.373  1.00  0.00    -0.454 OA
ENDBRANCH  12  13
ENDBRANCH   2  11
TORSDOF 3
ENDMDL
MODEL 8
REMARK VINA RESULT:    -6.558     16.859     19.422
REMARK INTER + INTRA:          -8.090
REMARK INTER:                  -7.744
REMARK INTRA:                  -0.346
REMARK UNBOUND:                -0.382
REMARK SMILES O=C(/C=C/C=C/c1ccc2c(c1)OCO2)N1CCCCC1
REMARK SMILES IDX 3 1 4 2 2 3 1 4 16 5 17 6 21 7 18 8 20 9 19 10 5 11 6 12
REMARK SMILES IDX 7 13 12 14 8 15 11 16 9 17 13 18 10 19 14 20 15 21
REMARK H PARENT
REMARK Flexibility Score: inf
ROOT
ATOM      1  C   UNL     1      93.499  96.962  74.833  1.00  0.00     0.071 C 
ATOM      2  C   UNL     1      94.088  97.952  74.165  1.00  0.00     0.006 C 
ENDROOT
BRANCH   1   3
ATOM      3  C   UNL     1      94.360  95.983  75.527  1.00  0.00     0.246 C 
ATOM      4  O   UNL     1      95.572  96.198  75.536  1.00  0.00    -0.270 OA
ATOM      5  N   UNL     1      93.744  94.882  76.119  1.00  0.00    -0.339 N 
ATOM      6  C   UNL     1      94.574  93.890  76.810  1.00  0.00     0.120 C 
ATOM      7  C   UNL     1      92.308  94.569  76.089  1.00  0.00     0.120 C 
ATOM      8  C   UNL     1      94.075  93.638  78.229  1.00  0.00     0.022 C 
ATOM      9  C   UNL     1      91.770  94.306  77.496  1.00  0.00     0.022 C 
ATOM     10  C   UNL     1      92.599  93.255  78.230  1.00  0.00     0.004 C 
ENDBRANCH   1   3
BRANCH   2  11
ATOM     11  C   UNL     1      93.329  98.959  73.454  1.00  0.00     0.001 C 
ATOM     12  C   UNL     1      92.937  98.807  72.179  1.00  0.00     0.008 C 
BRANCH  12  13
ATOM     13  C   UNL     1      92.172  99.801  71.407  1.00  0.00    -0.022 A 
ATOM     14  C   UNL     1      91.490  99.393  70.269  1.00  0.00     0.058 A 
ATOM     15  C   UNL     1      92.153 101.129  71.843  1.00  0.00     0.012 A 
ATOM     16  C   UNL     1      90.788 100.360  69.579  1.00  0.00     0.166 A 
ATOM     17  C   UNL     1      91.433 102.087  71.125  1.00  0.00     0.051 A 
ATOM     18  O   UNL     1      90.061 100.162  68.445  1.00  0.00    -0.454 OA
ATOM     19  C   UNL     1      90.760 101.671  69.996  1.00  0.00     0.165 A 
ATOM     20  C   UNL     1      89.573 101.496  68.196  1.00  0.00     0.468 C 
ATOM     21  O   UNL     1      90.012 102.459  69.176  1.00  0.00    -0.454 OA
ENDBRANCH  12  13
ENDBRANCH   2  11
TORSDOF 3
ENDMDL
MODEL 9
REMARK VINA RESULT:    -6.443      2.420      3.708
REMARK INTER + INTRA:          -7.954
REMARK INTER:                  -7.577
REMARK INTRA:                  -0.377
REMARK UNBOUND:                -0.382
REMARK SMILES O=C(/C=C/C=C/c1ccc2c(c1)OCO2)N1CCCCC1
REMARK SMILES IDX 3 1 4 2 2 3 1 4 16 5 17 6 21 7 18 8 20 9 19 10 5 11 6 12
REMARK SMILES IDX 7 13 12 14 8 15 11 16 9 17 13 18 10 19 14 20 15 21
REMARK H PARENT
REMARK Flexibility Score: inf
ROOT
ATOM      1  C   UNL     1      98.156  80.986  77.488  1.00  0.00     0.071 C 
ATOM      2  C   UNL     1      97.482  82.057  77.904  1.00  0.00     0.006 C 
ENDROOT
BRANCH   1   3
ATOM      3  C   UNL     1      98.839  81.059  76.182  1.00  0.00     0.246 C 
ATOM      4  O   UNL     1      98.346  81.790  75.322  1.00  0.00    -0.270 OA
ATOM      5  N   UNL     1      99.991  80.294  76.007  1.00  0.00    -0.339 N 
ATOM      6  C   UNL     1     100.688  80.342  74.718  1.00  0.00     0.120 C 
ATOM      7  C   UNL     1     100.582  79.377  76.992  1.00  0.00     0.120 C 
ATOM      8  C   UNL     1     102.167  80.667  74.897  1.00  0.00     0.022 C 
ATOM      9  C   UNL     1     102.069  79.669  77.197  1.00  0.00     0.022 C 
ATOM     10  C   UNL     1     102.826  79.697  75.872  1.00  0.00     0.004 C 
ENDBRANCH   1   3
BRANCH   2  11
ATOM     11  C   UNL     1      96.780  82.081  79.170  1.00  0.00     0.001 C 
ATOM     12  C   UNL     1      97.349  81.694  80.323  1.00  0.00     0.008 C 
BRANCH  12  13
ATOM     13  C   UNL     1      96.679  81.690  81.635  1.00  0.00    -0.022 A 
ATOM     14  C   UNL     1      96.382  80.476  82.238  1.00  0.00     0.058 A 
ATOM     15  C   UNL     1      96.362  82.911  82.236  1.00  0.00     0.012 A 
ATOM     16  C   UNL     1      95.755  80.524  83.467  1.00  0.00     0.166 A 
ATOM     17  C   UNL     1      95.727  82.930  83.480  1.00  0.00     0.051 A 
ATOM     18  O   UNL     1      95.382  79.450  84.215  1.00  0.00    -0.454 OA
ATOM     19  C   UNL     1      95.436  81.719  84.072  1.00  0.00     0.165 A 
ATOM     20  C   UNL     1      94.792  80.103  85.358  1.00  0.00     0.468 C 
ATOM     21  O   UNL     1      94.824  81.542  85.274  1.00  0.00    -0.454 OA
ENDBRANCH  12  13
ENDBRANCH   2  11
TORSDOF 3
ENDMDL
MODEL 10
REMARK VINA RESULT:    -6.311     14.617     16.234
REMARK INTER + INTRA:          -7.800
REMARK INTER:                  -7.424
REMARK INTRA:                  -0.376
REMARK UNBOUND:                -0.382
REMARK SMILES O=C(/C=C/C=C/c1ccc2c(c1)OCO2)N1CCCCC1
REMARK SMILES IDX 3 1 4 2 2 3 1 4 16 5 17 6 21 7 18 8 20 9 19 10 5 11 6 12
REMARK SMILES IDX 7 13 12 14 8 15 11 16 9 17 13 18 10 19 14 20 15 21
REMARK H PARENT
REMARK Flexibility Score: inf
ROOT
ATOM      1  C   UNL     1      94.614  98.486  72.392  1.00  0.00     0.071 C 
ATOM      2  C   UNL     1      95.005  98.018  73.576  1.00  0.00     0.006 C 
ENDROOT
BRANCH   1   3
ATOM      3  C   UNL     1      95.555  99.338  71.637  1.00  0.00     0.246 C 
ATOM      4  O   UNL     1      95.674 100.510  71.995  1.00  0.00    -0.270 OA
ATOM      5  N   UNL     1      96.240  98.761  70.569  1.00  0.00    -0.339 N 
ATOM      6  C   UNL     1      97.176  99.584  69.797  1.00  0.00     0.120 C 
ATOM      7  C   UNL     1      96.091  97.381  70.084  1.00  0.00     0.120 C 
ATOM      8  C   UNL     1      98.548  98.924  69.700  1.00  0.00     0.022 C 
ATOM      9  C   UNL     1      97.447  96.686  69.969  1.00  0.00     0.022 C 
ATOM     10  C   UNL     1      98.435  97.508  69.145  1.00  0.00     0.004 C 
ENDBRANCH   1   3
BRANCH   2  11
ATOM     11  C   UNL     1      94.153  97.176  74.389  1.00  0.00     0.001 C 
ATOM     12  C   UNL     1      94.640  96.273  75.256  1.00  0.00     0.008 C 
BRANCH  12  13
ATOM     13  C   UNL     1      93.821  95.387  76.100  1.00  0.00    -0.022 A 
ATOM     14  C   UNL     1      92.535  95.061  75.690  1.00  0.00     0.058 A 
ATOM     15  C   UNL     1      94.360  94.898  77.293  1.00  0.00     0.012 A 
ATOM     16  C   UNL     1      91.807  94.228  76.514  1.00  0.00     0.166 A 
ATOM     17  C   UNL     1      93.601  94.056  78.108  1.00  0.00     0.051 A 
ATOM     18  O   UNL     1      90.536  93.795  76.289  1.00  0.00    -0.454 OA
ATOM     19  C   UNL     1      92.325  93.738  77.691  1.00  0.00     0.165 A 
ATOM     20  C   UNL     1      90.313  92.979  77.457  1.00  0.00     0.468 C 
ATOM     21  O   UNL     1      91.444  92.938  78.351  1.00  0.00    -0.454 OA
ENDBRANCH  12  13
ENDBRANCH   2  11
TORSDOF 3
ENDMDL
