MODEL 1
REMARK VINA RESULT:    -6.752      0.000      0.000
REMARK INTER + INTRA:         -11.377
REMARK INTER:                 -10.502
REMARK INTRA:                  -0.876
REMARK UNBOUND:                -0.876
REMARK SMILES COc1cc(CNC(=O)CCCC/C=C/C(C)C)ccc1O
REMARK SMILES IDX 10 1 8 2 7 3 9 5 6 6 5 7 3 8 21 9 4 10 20 11 19 12 2 13 1 14
REMARK SMILES IDX 22 15 11 17 12 18 13 19 14 20 15 21 16 22 17 23 18 24
REMARK H PARENT 7 4 22 16
REMARK Flexibility Score: inf
ROOT
ATOM      1  C   UNL     1      92.336  94.376  75.245  1.00  0.00     0.100 C 
ENDROOT
BRANCH   1   2
ATOM      2  C   UNL     1      93.741  94.740  75.513  1.00  0.00     0.220 C 
ATOM      3  N   UNL     1      94.525  93.944  76.293  1.00  0.00    -0.352 N 
ATOM      4  H   UNL     1      94.062  93.130  76.673  1.00  0.00     0.163 HD
ATOM      5  O   UNL     1      94.193  95.784  74.984  1.00  0.00    -0.275 OA
BRANCH   3   6
ATOM      6  C   UNL     1      95.901  94.190  76.585  1.00  0.00     0.151 C 
BRANCH   6   7
ATOM      7  C   UNL     1      96.062  94.961  77.848  1.00  0.00    -0.025 A 
ATOM      8  C   UNL     1      95.636  95.208  80.261  1.00  0.00     0.160 A 
ATOM      9  C   UNL     1      96.376  96.408  80.270  1.00  0.00     0.157 A 
ATOM     10  C   UNL     1      95.484  94.497  79.052  1.00  0.00     0.056 A 
ATOM     11  C   UNL     1      96.941  96.893  79.074  1.00  0.00     0.050 A 
ATOM     12  C   UNL     1      96.794  96.171  77.874  1.00  0.00     0.009 A 
BRANCH   8  13
ATOM     13  O   UNL     1      95.028  94.766  81.409  1.00  0.00    -0.493 OA
ATOM     14  C   UNL     1      95.675  93.633  82.016  1.00  0.00     0.278 C 
ENDBRANCH   8  13
BRANCH   9  15
ATOM     15  O   UNL     1      96.552  97.109  81.419  1.00  0.00    -0.504 OA
ATOM     16  H   UNL     1      96.706  98.034  81.211  1.00  0.00     0.293 HD
ENDBRANCH   9  15
ENDBRANCH   6   7
ENDBRANCH   3   6
ENDBRANCH   1   2
BRANCH   1  17
ATOM     17  C   UNL     1      91.412  94.746  76.436  1.00  0.00     0.010 C 
BRANCH  17  18
ATOM     18  C   UNL     1      90.074  93.956  76.432  1.00  0.00     0.005 C 
BRANCH  18  19
ATOM     19  C   UNL     1      90.090  92.760  77.422  1.00  0.00     0.027 C 
BRANCH  19  20
ATOM     20  C   UNL     1      89.793  91.498  76.761  1.00  0.00    -0.031 C 
ATOM     21  C   UNL     1      90.721  90.587  76.417  1.00  0.00    -0.028 C 
BRANCH  21  22
ATOM     22  C   UNL     1      90.397  89.316  75.771  1.00  0.00     0.005 C 
ATOM     23  C   UNL     1      91.305  89.031  74.542  1.00  0.00     0.012 C 
ATOM     24  C   UNL     1      90.477  88.157  76.798  1.00  0.00     0.012 C 
ENDBRANCH  21  22
ENDBRANCH  19  20
ENDBRANCH  18  19
ENDBRANCH  17  18
ENDBRANCH   1  17
TORSDOF 10
ENDMDL
MODEL 2
REMARK VINA RESULT:    -6.540      1.225      2.055
REMARK INTER + INTRA:         -11.048
REMARK INTER:                 -10.235
REMARK INTRA:                  -0.813
REMARK UNBOUND:                -0.876
REMARK SMILES COc1cc(CNC(=O)CCCC/C=C/C(C)C)ccc1O
REMARK SMILES IDX 10 1 8 2 7 3 9 5 6 6 5 7 3 8 21 9 4 10 20 11 19 12 2 13 1 14
REMARK SMILES IDX 22 15 11 17 12 18 13 19 14 20 15 21 16 22 17 23 18 24
REMARK H PARENT 7 4 22 16
REMARK Flexibility Score: inf
ROOT
ATOM      1  C   UNL     1      92.489  94.184  75.235  1.00  0.00     0.100 C 
ENDROOT
BRANCH   1   2
ATOM      2  C   UNL     1      93.756  94.880  75.533  1.00  0.00     0.220 C 
ATOM      3  N   UNL     1      94.626  94.369  76.449  1.00  0.00    -0.352 N 
ATOM      4  H   UNL     1      94.320  93.519  76.901  1.00  0.00     0.163 HD
ATOM      5  O   UNL     1      94.014  95.934  74.904  1.00  0.00    -0.275 OA
BRANCH   3   6
ATOM      6  C   UNL     1      95.888  94.947  76.785  1.00  0.00     0.151 C 
BRANCH   6   7
ATOM      7  C   UNL     1      96.130  94.917  78.253  1.00  0.00    -0.025 A 
ATOM      8  C   UNL     1      97.343  95.747  80.228  1.00  0.00     0.160 A 
ATOM      9  C   UNL     1      96.590  94.886  81.053  1.00  0.00     0.157 A 
ATOM     10  C   UNL     1      97.108  95.753  78.837  1.00  0.00     0.056 A 
ATOM     11  C   UNL     1      95.625  94.032  80.482  1.00  0.00     0.050 A 
ATOM     12  C   UNL     1      95.389  94.054  79.094  1.00  0.00     0.009 A 
BRANCH   8  13
ATOM     13  O   UNL     1      98.329  96.531  80.771  1.00  0.00    -0.493 OA
ATOM     14  C   UNL     1      99.630  95.916  80.780  1.00  0.00     0.278 C 
ENDBRANCH   8  13
BRANCH   9  15
ATOM     15  O   UNL     1      96.783  94.865  82.397  1.00  0.00    -0.504 OA
ATOM     16  H   UNL     1      95.992  95.182  82.840  1.00  0.00     0.293 HD
ENDBRANCH   9  15
ENDBRANCH   6   7
ENDBRANCH   3   6
ENDBRANCH   1   2
BRANCH   1  17
ATOM     17  C   UNL     1      91.524  94.205  76.451  1.00  0.00     0.010 C 
BRANCH  17  18
ATOM     18  C   UNL     1      91.630  92.927  77.329  1.00  0.00     0.005 C 
BRANCH  18  19
ATOM     19  C   UNL     1      90.247  92.266  77.579  1.00  0.00     0.027 C 
BRANCH  19  20
ATOM     20  C   UNL     1      90.221  90.874  77.157  1.00  0.00    -0.031 C 
ATOM     21  C   UNL     1      90.580  90.448  75.933  1.00  0.00    -0.028 C 
BRANCH  21  22
ATOM     22  C   UNL     1      90.565  89.041  75.536  1.00  0.00     0.005 C 
ATOM     23  C   UNL     1      90.611  88.083  76.759  1.00  0.00     0.012 C 
ATOM     24  C   UNL     1      89.327  88.747  74.650  1.00  0.00     0.012 C 
ENDBRANCH  21  22
ENDBRANCH  19  20
ENDBRANCH  18  19
ENDBRANCH  17  18
ENDBRANCH   1  17
TORSDOF 10
ENDMDL
MODEL 3
REMARK VINA RESULT:    -6.081      2.178      3.337
REMARK INTER + INTRA:         -10.333
REMARK INTER:                  -9.532
REMARK INTRA:                  -0.801
REMARK UNBOUND:                -0.876
REMARK SMILES COc1cc(CNC(=O)CCCC/C=C/C(C)C)ccc1O
REMARK SMILES IDX 10 1 8 2 7 3 9 5 6 6 5 7 3 8 21 9 4 10 20 11 19 12 2 13 1 14
REMARK SMILES IDX 22 15 11 17 12 18 13 19 14 20 15 21 16 22 17 23 18 24
REMARK H PARENT 7 4 22 16
REMARK Flexibility Score: inf
ROOT
ATOM      1  C   UNL     1      90.190  93.760  76.345  1.00  0.00     0.100 C 
ENDROOT
BRANCH   1   2
ATOM      2  C   UNL     1      91.409  93.332  77.059  1.00  0.00     0.220 C 
ATOM      3  N   UNL     1      92.516  94.126  77.073  1.00  0.00    -0.352 N 
ATOM      4  H   UNL     1      92.431  94.986  76.549  1.00  0.00     0.163 HD
ATOM      5  O   UNL     1      91.385  92.234  77.666  1.00  0.00    -0.275 OA
BRANCH   3   6
ATOM      6  C   UNL     1      93.731  93.819  77.759  1.00  0.00     0.151 C 
BRANCH   6   7
ATOM      7  C   UNL     1      94.893  94.524  77.153  1.00  0.00    -0.025 A 
ATOM      8  C   UNL     1      96.923  95.893  77.413  1.00  0.00     0.160 A 
ATOM      9  C   UNL     1      97.126  95.858  76.018  1.00  0.00     0.157 A 
ATOM     10  C   UNL     1      95.809  95.229  77.967  1.00  0.00     0.056 A 
ATOM     11  C   UNL     1      96.211  95.176  75.192  1.00  0.00     0.050 A 
ATOM     12  C   UNL     1      95.108  94.506  75.755  1.00  0.00     0.009 A 
BRANCH   8  13
ATOM     13  O   UNL     1      97.774  96.611  78.215  1.00  0.00    -0.493 OA
ATOM     14  C   UNL     1      97.206  96.993  79.481  1.00  0.00     0.278 C 
ENDBRANCH   8  13
BRANCH   9  15
ATOM     15  O   UNL     1      98.196  96.476  75.455  1.00  0.00    -0.504 OA
ATOM     16  H   UNL     1      98.617  97.044  76.104  1.00  0.00     0.293 HD
ENDBRANCH   9  15
ENDBRANCH   6   7
ENDBRANCH   3   6
ENDBRANCH   1   2
BRANCH   1  17
ATOM     17  C   UNL     1      90.222  93.335  74.852  1.00  0.00     0.010 C 
BRANCH  17  18
ATOM     18  C   UNL     1      91.660  93.312  74.260  1.00  0.00     0.005 C 
BRANCH  18  19
ATOM     19  C   UNL     1      92.071  91.901  73.761  1.00  0.00     0.027 C 
BRANCH  19  20
ATOM     20  C   UNL     1      91.112  90.880  74.156  1.00  0.00    -0.031 C 
ATOM     21  C   UNL     1      91.443  89.728  74.767  1.00  0.00    -0.028 C 
BRANCH  21  22
ATOM     22  C   UNL     1      90.459  88.724  75.173  1.00  0.00     0.005 C 
ATOM     23  C   UNL     1      90.822  87.303  74.661  1.00  0.00     0.012 C 
ATOM     24  C   UNL     1      90.291  88.731  76.715  1.00  0.00     0.012 C 
ENDBRANCH  21  22
ENDBRANCH  19  20
ENDBRANCH  18  19
ENDBRANCH  17  18
ENDBRANCH   1  17
TORSDOF 10
ENDMDL
MODEL 4
REMARK VINA RESULT:    -6.050      5.214      7.569
REMARK INTER + INTRA:         -10.285
REMARK INTER:                  -9.529
REMARK INTRA:                  -0.756
REMARK UNBOUND:                -0.876
REMARK SMILES COc1cc(CNC(=O)CCCC/C=C/C(C)C)ccc1O
REMARK SMILES IDX 10 1 8 2 7 3 9 5 6 6 5 7 3 8 21 9 4 10 20 11 19 12 2 13 1 14
REMARK SMILES IDX 22 15 11 17 12 18 13 19 14 20 15 21 16 22 17 23 18 24
REMARK H PARENT 7 4 22 16
REMARK Flexibility Score: inf
ROOT
ATOM      1  C   UNL     1      95.201  98.320  71.876  1.00  0.00     0.100 C 
ENDROOT
BRANCH   1   2
ATOM      2  C   UNL     1      95.943  97.563  72.903  1.00  0.00     0.220 C 
ATOM      3  N   UNL     1      95.332  97.187  74.061  1.00  0.00    -0.352 N 
ATOM      4  H   UNL     1      94.371  97.486  74.153  1.00  0.00     0.163 HD
ATOM      5  O   UNL     1      97.137  97.259  72.667  1.00  0.00    -0.275 OA
BRANCH   3   6
ATOM      6  C   UNL     1      95.950  96.427  75.100  1.00  0.00     0.151 C 
BRANCH   6   7
ATOM      7  C   UNL     1      94.976  95.525  75.772  1.00  0.00    -0.025 A 
ATOM      8  C   UNL     1      92.819  94.337  75.763  1.00  0.00     0.160 A 
ATOM      9  C   UNL     1      93.114  93.790  77.029  1.00  0.00     0.157 A 
ATOM     10  C   UNL     1      93.750  95.200  75.148  1.00  0.00     0.056 A 
ATOM     11  C   UNL     1      94.324  94.121  77.672  1.00  0.00     0.050 A 
ATOM     12  C   UNL     1      95.252  94.974  77.044  1.00  0.00     0.009 A 
BRANCH   8  13
ATOM     13  O   UNL     1      91.614  94.071  75.163  1.00  0.00    -0.493 OA
ATOM     14  C   UNL     1      91.633  92.924  74.293  1.00  0.00     0.278 C 
ENDBRANCH   8  13
BRANCH   9  15
ATOM     15  O   UNL     1      92.245  92.946  77.642  1.00  0.00    -0.504 OA
ATOM     16  H   UNL     1      92.160  93.189  78.567  1.00  0.00     0.293 HD
ENDBRANCH   9  15
ENDBRANCH   6   7
ENDBRANCH   3   6
ENDBRANCH   1   2
BRANCH   1  17
ATOM     17  C   UNL     1      93.755  98.643  72.337  1.00  0.00     0.010 C 
BRANCH  17  18
ATOM     18  C   UNL     1      92.696  98.398  71.225  1.00  0.00     0.005 C 
BRANCH  18  19
ATOM     19  C   UNL     1      92.449  99.661  70.356  1.00  0.00     0.027 C 
BRANCH  19  20
ATOM     20  C   UNL     1      91.479  99.417  69.299  1.00  0.00    -0.031 C 
ATOM     21  C   UNL     1      90.940  98.213  69.031  1.00  0.00    -0.028 C 
BRANCH  21  22
ATOM     22  C   UNL     1      89.951  97.994  67.976  1.00  0.00     0.005 C 
ATOM     23  C   UNL     1      90.025  99.078  66.865  1.00  0.00     0.012 C 
ATOM     24  C   UNL     1      90.113  96.574  67.375  1.00  0.00     0.012 C 
ENDBRANCH  21  22
ENDBRANCH  19  20
ENDBRANCH  18  19
ENDBRANCH  17  18
ENDBRANCH   1  17
TORSDOF 10
ENDMDL
MODEL 5
REMARK VINA RESULT:    -6.032      1.661      2.644
REMARK INTER + INTRA:         -10.257
REMARK INTER:                  -9.200
REMARK INTRA:                  -1.057
REMARK UNBOUND:                -0.876
REMARK SMILES COc1cc(CNC(=O)CCCC/C=C/C(C)C)ccc1O
REMARK SMILES IDX 10 1 8 2 7 3 9 5 6 6 5 7 3 8 21 9 4 10 20 11 19 12 2 13 1 14
REMARK SMILES IDX 22 15 11 17 12 18 13 19 14 20 15 21 16 22 17 23 18 24
REMARK H PARENT 7 4 22 16
REMARK Flexibility Score: inf
ROOT
ATOM      1  C   UNL     1      91.145  94.482  76.432  1.00  0.00     0.100 C 
ENDROOT
BRANCH   1   2
ATOM      2  C   UNL     1      92.468  93.854  76.618  1.00  0.00     0.220 C 
ATOM      3  N   UNL     1      93.606  94.597  76.516  1.00  0.00    -0.352 N 
ATOM      4  H   UNL     1      93.461  95.570  76.286  1.00  0.00     0.163 HD
ATOM      5  O   UNL     1      92.509  92.631  76.895  1.00  0.00    -0.275 OA
BRANCH   3   6
ATOM      6  C   UNL     1      94.928  94.093  76.710  1.00  0.00     0.151 C 
BRANCH   6   7
ATOM      7  C   UNL     1      95.521  94.589  77.982  1.00  0.00    -0.025 A 
ATOM      8  C   UNL     1      97.094  96.070  79.162  1.00  0.00     0.160 A 
ATOM      9  C   UNL     1      96.648  95.559  80.399  1.00  0.00     0.157 A 
ATOM     10  C   UNL     1      96.529  95.579  77.967  1.00  0.00     0.056 A 
ATOM     11  C   UNL     1      95.657  94.558  80.429  1.00  0.00     0.050 A 
ATOM     12  C   UNL     1      95.090  94.082  79.231  1.00  0.00     0.009 A 
BRANCH   8  13
ATOM     13  O   UNL     1      98.104  96.997  79.125  1.00  0.00    -0.493 OA
ATOM     14  C   UNL     1      97.707  98.278  78.602  1.00  0.00     0.278 C 
ENDBRANCH   8  13
BRANCH   9  15
ATOM     15  O   UNL     1      97.162  96.020  81.569  1.00  0.00    -0.504 OA
ATOM     16  H   UNL     1      97.829  96.686  81.386  1.00  0.00     0.293 HD
ENDBRANCH   9  15
ENDBRANCH   6   7
ENDBRANCH   3   6
ENDBRANCH   1   2
BRANCH   1  17
ATOM     17  C   UNL     1      90.152  93.524  75.720  1.00  0.00     0.010 C 
BRANCH  17  18
ATOM     18  C   UNL     1      90.379  93.449  74.184  1.00  0.00     0.005 C 
BRANCH  18  19
ATOM     19  C   UNL     1      90.642  91.999  73.696  1.00  0.00     0.027 C 
BRANCH  19  20
ATOM     20  C   UNL     1      90.326  91.012  74.717  1.00  0.00    -0.031 C 
ATOM     21  C   UNL     1      91.025  89.879  74.916  1.00  0.00    -0.028 C 
BRANCH  21  22
ATOM     22  C   UNL     1      90.700  88.910  75.963  1.00  0.00     0.005 C 
ATOM     23  C   UNL     1      89.957  89.563  77.161  1.00  0.00     0.012 C 
ATOM     24  C   UNL     1      89.873  87.739  75.371  1.00  0.00     0.012 C 
ENDBRANCH  21  22
ENDBRANCH  19  20
ENDBRANCH  18  19
ENDBRANCH  17  18
ENDBRANCH   1  17
TORSDOF 10
ENDMDL
MODEL 6
REMARK VINA RESULT:    -5.896     13.728     16.198
REMARK INTER + INTRA:         -10.046
REMARK INTER:                  -8.441
REMARK INTRA:                  -1.605
REMARK UNBOUND:                -0.876
REMARK SMILES COc1cc(CNC(=O)CCCC/C=C/C(C)C)ccc1O
REMARK SMILES IDX 10 1 8 2 7 3 9 5 6 6 5 7 3 8 21 9 4 10 20 11 19 12 2 13 1 14
REMARK SMILES IDX 22 15 11 17 12 18 13 19 14 20 15 21 16 22 17 23 18 24
REMARK H PARENT 7 4 22 16
REMARK Flexibility Score: inf
ROOT
ATOM      1  C   UNL     1      84.790  92.340  86.129  1.00  0.00     0.100 C 
ENDROOT
BRANCH   1   2
ATOM      2  C   UNL     1      83.951  92.099  87.319  1.00  0.00     0.220 C 
ATOM      3  N   UNL     1      84.222  91.058  88.155  1.00  0.00    -0.352 N 
ATOM      4  H   UNL     1      85.003  90.480  87.879  1.00  0.00     0.163 HD
ATOM      5  O   UNL     1      83.004  92.890  87.546  1.00  0.00    -0.275 OA
BRANCH   3   6
ATOM      6  C   UNL     1      83.493  90.759  89.346  1.00  0.00     0.151 C 
BRANCH   6   7
ATOM      7  C   UNL     1      82.328  89.875  89.066  1.00  0.00    -0.025 A 
ATOM      8  C   UNL     1      81.393  87.617  88.766  1.00  0.00     0.160 A 
ATOM      9  C   UNL     1      80.115  88.173  88.553  1.00  0.00     0.157 A 
ATOM     10  C   UNL     1      82.487  88.471  89.018  1.00  0.00     0.056 A 
ATOM     11  C   UNL     1      79.945  89.572  88.579  1.00  0.00     0.050 A 
ATOM     12  C   UNL     1      81.041  90.416  88.843  1.00  0.00     0.009 A 
BRANCH   8  13
ATOM     13  O   UNL     1      81.576  86.260  88.676  1.00  0.00    -0.493 OA
ATOM     14  C   UNL     1      82.116  85.823  87.415  1.00  0.00     0.278 C 
ENDBRANCH   8  13
BRANCH   9  15
ATOM     15  O   UNL     1      79.039  87.378  88.321  1.00  0.00    -0.504 OA
ATOM     16  H   UNL     1      78.565  87.697  87.550  1.00  0.00     0.293 HD
ENDBRANCH   9  15
ENDBRANCH   6   7
ENDBRANCH   3   6
ENDBRANCH   1   2
BRANCH   1  17
ATOM     17  C   UNL     1      84.950  91.056  85.271  1.00  0.00     0.010 C 
BRANCH  17  18
ATOM     18  C   UNL     1      83.591  90.487  84.774  1.00  0.00     0.005 C 
BRANCH  18  19
ATOM     19  C   UNL     1      83.258  89.112  85.413  1.00  0.00     0.027 C 
BRANCH  19  20
ATOM     20  C   UNL     1      81.879  88.716  85.172  1.00  0.00    -0.031 C 
ATOM     21  C   UNL     1      81.469  88.015  84.099  1.00  0.00    -0.028 C 
BRANCH  21  22
ATOM     22  C   UNL     1      80.079  87.611  83.888  1.00  0.00     0.005 C 
ATOM     23  C   UNL     1      79.842  87.041  82.462  1.00  0.00     0.012 C 
ATOM     24  C   UNL     1      79.647  86.589  84.971  1.00  0.00     0.012 C 
ENDBRANCH  21  22
ENDBRANCH  19  20
ENDBRANCH  18  19
ENDBRANCH  17  18
ENDBRANCH   1  17
TORSDOF 10
ENDMDL
MODEL 7
REMARK VINA RESULT:    -5.855     27.277     30.331
REMARK INTER + INTRA:          -9.983
REMARK INTER:                  -9.294
REMARK INTRA:                  -0.688
REMARK UNBOUND:                -0.876
REMARK SMILES COc1cc(CNC(=O)CCCC/C=C/C(C)C)ccc1O
REMARK SMILES IDX 10 1 8 2 7 3 9 5 6 6 5 7 3 8 21 9 4 10 20 11 19 12 2 13 1 14
REMARK SMILES IDX 22 15 11 17 12 18 13 19 14 20 15 21 16 22 17 23 18 24
REMARK H PARENT 7 4 22 16
REMARK Flexibility Score: inf
ROOT
ATOM      1  C   UNL     1      83.204  65.473  76.123  1.00  0.00     0.100 C 
ENDROOT
BRANCH   1   2
ATOM      2  C   UNL     1      84.068  64.600  76.941  1.00  0.00     0.220 C 
ATOM      3  N   UNL     1      85.345  64.972  77.235  1.00  0.00    -0.352 N 
ATOM      4  H   UNL     1      85.636  65.854  76.834  1.00  0.00     0.163 HD
ATOM      5  O   UNL     1      83.586  63.525  77.373  1.00  0.00    -0.275 OA
BRANCH   3   6
ATOM      6  C   UNL     1      86.249  64.217  78.042  1.00  0.00     0.151 C 
BRANCH   6   7
ATOM      7  C   UNL     1      86.100  64.548  79.486  1.00  0.00    -0.025 A 
ATOM      8  C   UNL     1      86.600  66.019  81.396  1.00  0.00     0.160 A 
ATOM      9  C   UNL     1      85.809  65.204  82.232  1.00  0.00     0.157 A 
ATOM     10  C   UNL     1      86.740  65.683  80.033  1.00  0.00     0.056 A 
ATOM     11  C   UNL     1      85.181  64.059  81.705  1.00  0.00     0.050 A 
ATOM     12  C   UNL     1      85.316  63.737  80.340  1.00  0.00     0.009 A 
BRANCH   8  13
ATOM     13  O   UNL     1      87.268  67.098  81.918  1.00  0.00    -0.493 OA
ATOM     14  C   UNL     1      87.870  67.951  80.928  1.00  0.00     0.278 C 
ENDBRANCH   8  13
BRANCH   9  15
ATOM     15  O   UNL     1      85.644  65.507  83.545  1.00  0.00    -0.504 OA
ATOM     16  H   UNL     1      84.728  65.364  83.794  1.00  0.00     0.293 HD
ENDBRANCH   9  15
ENDBRANCH   6   7
ENDBRANCH   3   6
ENDBRANCH   1   2
BRANCH   1  17
ATOM     17  C   UNL     1      81.796  64.851  75.915  1.00  0.00     0.010 C 
BRANCH  17  18
ATOM     18  C   UNL     1      81.679  64.050  74.588  1.00  0.00     0.005 C 
BRANCH  18  19
ATOM     19  C   UNL     1      80.270  64.170  73.948  1.00  0.00     0.027 C 
BRANCH  19  20
ATOM     20  C   UNL     1      80.280  65.001  72.753  1.00  0.00    -0.031 C 
ATOM     21  C   UNL     1      80.292  66.346  72.769  1.00  0.00    -0.028 C 
BRANCH  21  22
ATOM     22  C   UNL     1      80.323  67.162  71.555  1.00  0.00     0.005 C 
ATOM     23  C   UNL     1      81.745  67.706  71.246  1.00  0.00     0.012 C 
ATOM     24  C   UNL     1      79.766  66.355  70.353  1.00  0.00     0.012 C 
ENDBRANCH  21  22
ENDBRANCH  19  20
ENDBRANCH  18  19
ENDBRANCH  17  18
ENDBRANCH   1  17
TORSDOF 10
ENDMDL
MODEL 8
REMARK VINA RESULT:    -5.681     25.817     28.563
REMARK INTER + INTRA:          -9.711
REMARK INTER:                  -8.220
REMARK INTRA:                  -1.491
REMARK UNBOUND:                -0.876
REMARK SMILES COc1cc(CNC(=O)CCCC/C=C/C(C)C)ccc1O
REMARK SMILES IDX 10 1 8 2 7 3 9 5 6 6 5 7 3 8 21 9 4 10 20 11 19 12 2 13 1 14
REMARK SMILES IDX 22 15 11 17 12 18 13 19 14 20 15 21 16 22 17 23 18 24
REMARK H PARENT 7 4 22 16
REMARK Flexibility Score: inf
ROOT
ATOM      1  C   UNL     1      81.614  64.371  73.985  1.00  0.00     0.100 C 
ENDROOT
BRANCH   1   2
ATOM      2  C   UNL     1      82.013  65.090  75.210  1.00  0.00     0.220 C 
ATOM      3  N   UNL     1      83.321  65.139  75.589  1.00  0.00    -0.352 N 
ATOM      4  H   UNL     1      83.958  64.635  74.987  1.00  0.00     0.163 HD
ATOM      5  O   UNL     1      81.120  65.671  75.874  1.00  0.00    -0.275 OA
BRANCH   3   6
ATOM      6  C   UNL     1      83.813  65.833  76.736  1.00  0.00     0.151 C 
BRANCH   6   7
ATOM      7  C   UNL     1      84.547  67.069  76.352  1.00  0.00    -0.025 A 
ATOM      8  C   UNL     1      85.767  69.108  77.000  1.00  0.00     0.160 A 
ATOM      9  C   UNL     1      85.967  69.421  75.640  1.00  0.00     0.157 A 
ATOM     10  C   UNL     1      85.058  67.938  77.343  1.00  0.00     0.056 A 
ATOM     11  C   UNL     1      85.447  68.575  74.641  1.00  0.00     0.050 A 
ATOM     12  C   UNL     1      84.751  67.403  74.993  1.00  0.00     0.009 A 
BRANCH   8  13
ATOM     13  O   UNL     1      86.214  69.962  77.976  1.00  0.00    -0.493 OA
ATOM     14  C   UNL     1      86.951  69.316  79.030  1.00  0.00     0.278 C 
ENDBRANCH   8  13
BRANCH   9  15
ATOM     15  O   UNL     1      86.657  70.533  75.276  1.00  0.00    -0.504 OA
ATOM     16  H   UNL     1      87.114  70.892  76.040  1.00  0.00     0.293 HD
ENDBRANCH   9  15
ENDBRANCH   6   7
ENDBRANCH   3   6
ENDBRANCH   1   2
BRANCH   1  17
ATOM     17  C   UNL     1      80.194  64.786  73.514  1.00  0.00     0.010 C 
BRANCH  17  18
ATOM     18  C   UNL     1      80.219  65.748  72.294  1.00  0.00     0.005 C 
BRANCH  18  19
ATOM     19  C   UNL     1      80.357  67.236  72.717  1.00  0.00     0.027 C 
BRANCH  19  20
ATOM     20  C   UNL     1      81.668  67.778  72.391  1.00  0.00    -0.031 C 
ATOM     21  C   UNL     1      82.091  68.033  71.140  1.00  0.00    -0.028 C 
BRANCH  21  22
ATOM     22  C   UNL     1      83.406  68.597  70.837  1.00  0.00     0.005 C 
ATOM     23  C   UNL     1      83.664  69.930  71.591  1.00  0.00     0.012 C 
ATOM     24  C   UNL     1      84.518  67.561  71.148  1.00  0.00     0.012 C 
ENDBRANCH  21  22
ENDBRANCH  19  20
ENDBRANCH  18  19
ENDBRANCH  17  18
ENDBRANCH   1  17
TORSDOF 10
ENDMDL
MODEL 9
REMARK VINA RESULT:    -5.663     28.165     30.623
REMARK INTER + INTRA:          -9.684
REMARK INTER:                  -8.296
REMARK INTRA:                  -1.388
REMARK UNBOUND:                -0.876
REMARK SMILES COc1cc(CNC(=O)CCCC/C=C/C(C)C)ccc1O
REMARK SMILES IDX 10 1 8 2 7 3 9 5 6 6 5 7 3 8 21 9 4 10 20 11 19 12 2 13 1 14
REMARK SMILES IDX 22 15 11 17 12 18 13 19 14 20 15 21 16 22 17 23 18 24
REMARK H PARENT 7 4 22 16
REMARK Flexibility Score: inf
ROOT
ATOM      1  C   UNL     1      83.552  67.561  71.963  1.00  0.00     0.100 C 
ENDROOT
BRANCH   1   2
ATOM      2  C   UNL     1      83.929  66.154  72.201  1.00  0.00     0.220 C 
ATOM      3  N   UNL     1      84.427  65.767  73.409  1.00  0.00    -0.352 N 
ATOM      4  H   UNL     1      84.530  66.510  74.086  1.00  0.00     0.163 HD
ATOM      5  O   UNL     1      83.755  65.329  71.272  1.00  0.00    -0.275 OA
BRANCH   3   6
ATOM      6  C   UNL     1      84.790  64.429  73.749  1.00  0.00     0.151 C 
BRANCH   6   7
ATOM      7  C   UNL     1      84.880  64.245  75.224  1.00  0.00    -0.025 A 
ATOM      8  C   UNL     1      85.606  65.063  77.430  1.00  0.00     0.160 A 
ATOM      9  C   UNL     1      85.044  63.921  78.039  1.00  0.00     0.157 A 
ATOM     10  C   UNL     1      85.521  65.213  76.030  1.00  0.00     0.056 A 
ATOM     11  C   UNL     1      84.420  62.938  77.246  1.00  0.00     0.050 A 
ATOM     12  C   UNL     1      84.329  63.103  75.850  1.00  0.00     0.009 A 
BRANCH   8  13
ATOM     13  O   UNL     1      86.272  65.990  78.190  1.00  0.00    -0.493 OA
ATOM     14  C   UNL     1      85.732  67.321  78.100  1.00  0.00     0.278 C 
ENDBRANCH   8  13
BRANCH   9  15
ATOM     15  O   UNL     1      85.097  63.753  79.385  1.00  0.00    -0.504 OA
ATOM     16  H   UNL     1      85.706  64.391  79.764  1.00  0.00     0.293 HD
ENDBRANCH   9  15
ENDBRANCH   6   7
ENDBRANCH   3   6
ENDBRANCH   1   2
BRANCH   1  17
ATOM     17  C   UNL     1      82.495  67.687  70.833  1.00  0.00     0.010 C 
BRANCH  17  18
ATOM     18  C   UNL     1      81.041  67.797  71.374  1.00  0.00     0.005 C 
BRANCH  18  19
ATOM     19  C   UNL     1      80.172  66.570  70.987  1.00  0.00     0.027 C 
BRANCH  19  20
ATOM     20  C   UNL     1      80.438  65.420  71.838  1.00  0.00    -0.031 C 
ATOM     21  C   UNL     1      80.591  65.488  73.173  1.00  0.00    -0.028 C 
BRANCH  21  22
ATOM     22  C   UNL     1      80.838  64.315  74.013  1.00  0.00     0.005 C 
ATOM     23  C   UNL     1      81.317  64.703  75.439  1.00  0.00     0.012 C 
ATOM     24  C   UNL     1      79.570  63.426  74.077  1.00  0.00     0.012 C 
ENDBRANCH  21  22
ENDBRANCH  19  20
ENDBRANCH  18  19
ENDBRANCH  17  18
ENDBRANCH   1  17
TORSDOF 10
ENDMDL
MODEL 10
REMARK VINA RESULT:    -5.504     27.165     29.966
REMARK INTER + INTRA:          -9.436
REMARK INTER:                  -7.257
REMARK INTRA:                  -2.179
REMARK UNBOUND:                -0.876
REMARK SMILES COc1cc(CNC(=O)CCCC/C=C/C(C)C)ccc1O
REMARK SMILES IDX 10 1 8 2 7 3 9 5 6 6 5 7 3 8 21 9 4 10 20 11 19 12 2 13 1 14
REMARK SMILES IDX 22 15 11 17 12 18 13 19 14 20 15 21 16 22 17 23 18 24
REMARK H PARENT 7 4 22 16
REMARK Flexibility Score: inf
ROOT
ATOM      1  C   UNL     1      80.314  65.567  72.479  1.00  0.00     0.100 C 
ENDROOT
BRANCH   1   2
ATOM      2  C   UNL     1      80.602  65.322  73.905  1.00  0.00     0.220 C 
ATOM      3  N   UNL     1      81.022  66.337  74.711  1.00  0.00    -0.352 N 
ATOM      4  H   UNL     1      81.135  67.229  74.249  1.00  0.00     0.163 HD
ATOM      5  O   UNL     1      80.428  64.163  74.354  1.00  0.00    -0.275 OA
BRANCH   3   6
ATOM      6  C   UNL     1      81.296  66.211  76.106  1.00  0.00     0.151 C 
BRANCH   6   7
ATOM      7  C   UNL     1      82.741  65.961  76.359  1.00  0.00    -0.025 A 
ATOM      8  C   UNL     1      85.062  66.781  76.435  1.00  0.00     0.160 A 
ATOM      9  C   UNL     1      85.499  65.508  76.856  1.00  0.00     0.157 A 
ATOM     10  C   UNL     1      83.690  66.995  76.189  1.00  0.00     0.056 A 
ATOM     11  C   UNL     1      84.567  64.462  77.011  1.00  0.00     0.050 A 
ATOM     12  C   UNL     1      83.198  64.688  76.774  1.00  0.00     0.009 A 
BRANCH   8  13
ATOM     13  O   UNL     1      85.973  67.784  76.220  1.00  0.00    -0.493 OA
ATOM     14  C   UNL     1      85.778  68.498  74.985  1.00  0.00     0.278 C 
ENDBRANCH   8  13
BRANCH   9  15
ATOM     15  O   UNL     1      86.811  65.272  77.114  1.00  0.00    -0.504 OA
ATOM     16  H   UNL     1      87.029  64.370  76.868  1.00  0.00     0.293 HD
ENDBRANCH   9  15
ENDBRANCH   6   7
ENDBRANCH   3   6
ENDBRANCH   1   2
BRANCH   1  17
ATOM     17  C   UNL     1      80.280  67.085  72.155  1.00  0.00     0.010 C 
BRANCH  17  18
ATOM     18  C   UNL     1      81.199  67.470  70.961  1.00  0.00     0.005 C 
BRANCH  18  19
ATOM     19  C   UNL     1      82.447  68.276  71.411  1.00  0.00     0.027 C 
BRANCH  19  20
ATOM     20  C   UNL     1      83.303  67.507  72.301  1.00  0.00    -0.031 C 
ATOM     21  C   UNL     1      83.922  66.364  71.955  1.00  0.00    -0.028 C 
BRANCH  21  22
ATOM     22  C   UNL     1      84.795  65.617  72.860  1.00  0.00     0.005 C 
ATOM     23  C   UNL     1      84.174  64.260  73.292  1.00  0.00     0.012 C 
ATOM     24  C   UNL     1      86.187  65.407  72.210  1.00  0.00     0.012 C 
ENDBRANCH  21  22
ENDBRANCH  19  20
ENDBRANCH  18  19
ENDBRANCH  17  18
ENDBRANCH   1  17
TORSDOF 10
ENDMDL
