MODEL 1
REMARK VINA RESULT:    -6.012      0.000      0.000
REMARK INTER + INTRA:         -10.220
REMARK INTER:                  -9.350
REMARK INTRA:                  -0.869
REMARK UNBOUND:                -0.869
REMARK SMILES COc1cc(CNC(=O)CCCC/C=C/C(C)C)ccc1O
REMARK SMILES IDX 10 1 8 2 7 3 9 5 6 6 5 7 3 8 21 9 4 10 20 11 19 12 2 13 1 14
REMARK SMILES IDX 22 15 11 17 12 18 13 19 14 20 15 21 16 22 17 23 18 24
REMARK H PARENT 7 4 22 16
REMARK Flexibility Score: inf
ROOT
ATOM      1  C   UNL     1      75.517  81.357  66.440  1.00  0.00     0.100 C 
ENDROOT
BRANCH   1   2
ATOM      2  C   UNL     1      74.338  81.402  65.553  1.00  0.00     0.220 C 
ATOM      3  N   UNL     1      73.119  81.766  66.042  1.00  0.00    -0.352 N 
ATOM      4  H   UNL     1      73.099  81.969  67.032  1.00  0.00     0.163 HD
ATOM      5  O   UNL     1      74.497  81.119  64.341  1.00  0.00    -0.275 OA
BRANCH   3   6
ATOM      6  C   UNL     1      71.927  81.871  65.263  1.00  0.00     0.151 C 
BRANCH   6   7
ATOM      7  C   UNL     1      70.801  82.432  66.059  1.00  0.00    -0.025 A 
ATOM      8  C   UNL     1      69.768  82.908  68.243  1.00  0.00     0.160 A 
ATOM      9  C   UNL     1      68.673  83.515  67.593  1.00  0.00     0.157 A 
ATOM     10  C   UNL     1      70.820  82.371  67.471  1.00  0.00     0.056 A 
ATOM     11  C   UNL     1      68.632  83.566  66.186  1.00  0.00     0.050 A 
ATOM     12  C   UNL     1      69.692  83.038  65.424  1.00  0.00     0.009 A 
BRANCH   8  13
ATOM     13  O   UNL     1      69.782  82.798  69.610  1.00  0.00    -0.493 OA
ATOM     14  C   UNL     1      70.466  83.874  70.279  1.00  0.00     0.278 C 
ENDBRANCH   8  13
BRANCH   9  15
ATOM     15  O   UNL     1      67.651  84.054  68.307  1.00  0.00    -0.504 OA
ATOM     16  H   UNL     1      67.774  85.003  68.377  1.00  0.00     0.293 HD
ENDBRANCH   9  15
ENDBRANCH   6   7
ENDBRANCH   3   6
ENDBRANCH   1   2
BRANCH   1  17
ATOM     17  C   UNL     1      76.817  81.737  65.682  1.00  0.00     0.010 C 
BRANCH  17  18
ATOM     18  C   UNL     1      77.178  83.243  65.817  1.00  0.00     0.005 C 
BRANCH  18  19
ATOM     19  C   UNL     1      78.249  83.499  66.912  1.00  0.00     0.027 C 
BRANCH  19  20
ATOM     20  C   UNL     1      77.747  84.352  67.979  1.00  0.00    -0.031 C 
ATOM     21  C   UNL     1      76.736  84.019  68.801  1.00  0.00    -0.028 C 
BRANCH  21  22
ATOM     22  C   UNL     1      76.262  84.884  69.881  1.00  0.00     0.005 C 
ATOM     23  C   UNL     1      76.245  84.158  71.254  1.00  0.00     0.012 C 
ATOM     24  C   UNL     1      77.117  86.175  69.948  1.00  0.00     0.012 C 
ENDBRANCH  21  22
ENDBRANCH  19  20
ENDBRANCH  18  19
ENDBRANCH  17  18
ENDBRANCH   1  17
TORSDOF 10
ENDMDL
MODEL 2
REMARK VINA RESULT:    -5.931      4.718      8.216
REMARK INTER + INTRA:         -10.094
REMARK INTER:                  -9.490
REMARK INTRA:                  -0.604
REMARK UNBOUND:                -0.869
REMARK SMILES COc1cc(CNC(=O)CCCC/C=C/C(C)C)ccc1O
REMARK SMILES IDX 10 1 8 2 7 3 9 5 6 6 5 7 3 8 21 9 4 10 20 11 19 12 2 13 1 14
REMARK SMILES IDX 22 15 11 17 12 18 13 19 14 20 15 21 16 22 17 23 18 24
REMARK H PARENT 7 4 22 16
REMARK Flexibility Score: inf
ROOT
ATOM      1  C   UNL     1      74.844  87.609  70.503  1.00  0.00     0.100 C 
ENDROOT
BRANCH   1   2
ATOM      2  C   UNL     1      76.054  86.824  70.188  1.00  0.00     0.220 C 
ATOM      3  N   UNL     1      76.043  85.466  70.291  1.00  0.00    -0.352 N 
ATOM      4  H   UNL     1      75.171  85.069  70.614  1.00  0.00     0.163 HD
ATOM      5  O   UNL     1      77.076  87.441  69.803  1.00  0.00    -0.275 OA
BRANCH   3   6
ATOM      6  C   UNL     1      77.147  84.615  69.979  1.00  0.00     0.151 C 
BRANCH   6   7
ATOM      7  C   UNL     1      77.130  84.198  68.551  1.00  0.00    -0.025 A 
ATOM      8  C   UNL     1      75.894  83.359  66.593  1.00  0.00     0.160 A 
ATOM      9  C   UNL     1      77.074  83.416  65.823  1.00  0.00     0.157 A 
ATOM     10  C   UNL     1      75.933  83.748  67.949  1.00  0.00     0.056 A 
ATOM     11  C   UNL     1      78.278  83.844  66.415  1.00  0.00     0.050 A 
ATOM     12  C   UNL     1      78.305  84.241  67.766  1.00  0.00     0.009 A 
BRANCH   8  13
ATOM     13  O   UNL     1      74.733  82.882  66.040  1.00  0.00    -0.493 OA
ATOM     14  C   UNL     1      74.642  81.445  66.017  1.00  0.00     0.278 C 
ENDBRANCH   8  13
BRANCH   9  15
ATOM     15  O   UNL     1      77.067  83.062  64.512  1.00  0.00    -0.504 OA
ATOM     16  H   UNL     1      77.345  83.808  63.977  1.00  0.00     0.293 HD
ENDBRANCH   9  15
ENDBRANCH   6   7
ENDBRANCH   3   6
ENDBRANCH   1   2
BRANCH   1  17
ATOM     17  C   UNL     1      74.976  89.081  70.028  1.00  0.00     0.010 C 
BRANCH  17  18
ATOM     18  C   UNL     1      74.967  90.099  71.203  1.00  0.00     0.005 C 
BRANCH  18  19
ATOM     19  C   UNL     1      75.455  91.507  70.768  1.00  0.00     0.027 C 
BRANCH  19  20
ATOM     20  C   UNL     1      76.178  92.188  71.831  1.00  0.00    -0.031 C 
ATOM     21  C   UNL     1      77.513  92.142  71.987  1.00  0.00    -0.028 C 
BRANCH  21  22
ATOM     22  C   UNL     1      78.222  92.851  73.052  1.00  0.00     0.005 C 
ATOM     23  C   UNL     1      78.951  94.120  72.532  1.00  0.00     0.012 C 
ATOM     24  C   UNL     1      77.243  93.208  74.201  1.00  0.00     0.012 C 
ENDBRANCH  21  22
ENDBRANCH  19  20
ENDBRANCH  18  19
ENDBRANCH  17  18
ENDBRANCH   1  17
TORSDOF 10
ENDMDL
MODEL 3
REMARK VINA RESULT:    -5.919     25.522     28.010
REMARK INTER + INTRA:         -10.076
REMARK INTER:                  -9.470
REMARK INTRA:                  -0.606
REMARK UNBOUND:                -0.869
REMARK SMILES COc1cc(CNC(=O)CCCC/C=C/C(C)C)ccc1O
REMARK SMILES IDX 10 1 8 2 7 3 9 5 6 6 5 7 3 8 21 9 4 10 20 11 19 12 2 13 1 14
REMARK SMILES IDX 22 15 11 17 12 18 13 19 14 20 15 21 16 22 17 23 18 24
REMARK H PARENT 7 4 22 16
REMARK Flexibility Score: inf
ROOT
ATOM      1  C   UNL     1      96.461  84.243  84.900  1.00  0.00     0.100 C 
ENDROOT
BRANCH   1   2
ATOM      2  C   UNL     1      95.968  83.545  86.103  1.00  0.00     0.220 C 
ATOM      3  N   UNL     1      94.634  83.498  86.377  1.00  0.00    -0.352 N 
ATOM      4  H   UNL     1      94.046  83.989  85.718  1.00  0.00     0.163 HD
ATOM      5  O   UNL     1      96.807  82.979  86.845  1.00  0.00    -0.275 OA
BRANCH   3   6
ATOM      6  C   UNL     1      94.054  82.823  87.493  1.00  0.00     0.151 C 
BRANCH   6   7
ATOM      7  C   UNL     1      93.194  81.688  87.059  1.00  0.00    -0.025 A 
ATOM      8  C   UNL     1      91.029  80.851  86.239  1.00  0.00     0.160 A 
ATOM      9  C   UNL     1      91.546  79.539  86.210  1.00  0.00     0.157 A 
ATOM     10  C   UNL     1      91.856  81.911  86.664  1.00  0.00     0.056 A 
ATOM     11  C   UNL     1      92.873  79.298  86.620  1.00  0.00     0.050 A 
ATOM     12  C   UNL     1      93.694  80.366  87.032  1.00  0.00     0.009 A 
BRANCH   8  13
ATOM     13  O   UNL     1      89.719  81.081  85.904  1.00  0.00    -0.493 OA
ATOM     14  C   UNL     1      88.866  81.362  87.029  1.00  0.00     0.278 C 
ENDBRANCH   8  13
BRANCH   9  15
ATOM     15  O   UNL     1      90.781  78.497  85.793  1.00  0.00    -0.504 OA
ATOM     16  H   UNL     1      90.081  78.338  86.431  1.00  0.00     0.293 HD
ENDBRANCH   9  15
ENDBRANCH   6   7
ENDBRANCH   3   6
ENDBRANCH   1   2
BRANCH   1  17
ATOM     17  C   UNL     1      97.767  83.601  84.360  1.00  0.00     0.010 C 
BRANCH  17  18
ATOM     18  C   UNL     1      97.702  83.283  82.840  1.00  0.00     0.005 C 
BRANCH  18  19
ATOM     19  C   UNL     1      98.935  82.477  82.351  1.00  0.00     0.027 C 
BRANCH  19  20
ATOM     20  C   UNL     1      98.947  82.318  80.905  1.00  0.00    -0.031 C 
ATOM     21  C   UNL     1      98.386  83.187  80.044  1.00  0.00    -0.028 C 
BRANCH  21  22
ATOM     22  C   UNL     1      98.427  83.016  78.592  1.00  0.00     0.005 C 
ATOM     23  C   UNL     1      97.563  84.074  77.850  1.00  0.00     0.012 C 
ATOM     24  C   UNL     1      99.894  83.050  78.089  1.00  0.00     0.012 C 
ENDBRANCH  21  22
ENDBRANCH  19  20
ENDBRANCH  18  19
ENDBRANCH  17  18
ENDBRANCH   1  17
TORSDOF 10
ENDMDL
MODEL 4
REMARK VINA RESULT:    -5.740      3.340      7.176
REMARK INTER + INTRA:          -9.797
REMARK INTER:                  -8.929
REMARK INTRA:                  -0.868
REMARK UNBOUND:                -0.869
REMARK SMILES COc1cc(CNC(=O)CCCC/C=C/C(C)C)ccc1O
REMARK SMILES IDX 10 1 8 2 7 3 9 5 6 6 5 7 3 8 21 9 4 10 20 11 19 12 2 13 1 14
REMARK SMILES IDX 22 15 11 17 12 18 13 19 14 20 15 21 16 22 17 23 18 24
REMARK H PARENT 7 4 22 16
REMARK Flexibility Score: inf
ROOT
ATOM      1  C   UNL     1      76.116  82.085  64.424  1.00  0.00     0.100 C 
ENDROOT
BRANCH   1   2
ATOM      2  C   UNL     1      77.112  83.019  64.985  1.00  0.00     0.220 C 
ATOM      3  N   UNL     1      77.556  82.869  66.265  1.00  0.00    -0.352 N 
ATOM      4  H   UNL     1      77.136  82.105  66.776  1.00  0.00     0.163 HD
ATOM      5  O   UNL     1      77.551  83.932  64.245  1.00  0.00    -0.275 OA
BRANCH   3   6
ATOM      6  C   UNL     1      78.539  83.696  66.889  1.00  0.00     0.151 C 
BRANCH   6   7
ATOM      7  C   UNL     1      77.911  84.817  67.642  1.00  0.00    -0.025 A 
ATOM      8  C   UNL     1      76.669  85.630  69.606  1.00  0.00     0.160 A 
ATOM      9  C   UNL     1      76.726  86.945  69.099  1.00  0.00     0.157 A 
ATOM     10  C   UNL     1      77.259  84.579  68.873  1.00  0.00     0.056 A 
ATOM     11  C   UNL     1      77.356  87.194  67.863  1.00  0.00     0.050 A 
ATOM     12  C   UNL     1      77.952  86.140  67.144  1.00  0.00     0.009 A 
BRANCH   8  13
ATOM     13  O   UNL     1      76.001  85.373  70.776  1.00  0.00    -0.493 OA
ATOM     14  C   UNL     1      76.155  84.024  71.255  1.00  0.00     0.278 C 
ENDBRANCH   8  13
BRANCH   9  15
ATOM     15  O   UNL     1      76.180  87.981  69.786  1.00  0.00    -0.504 OA
ATOM     16  H   UNL     1      76.800  88.713  69.809  1.00  0.00     0.293 HD
ENDBRANCH   9  15
ENDBRANCH   6   7
ENDBRANCH   3   6
ENDBRANCH   1   2
BRANCH   1  17
ATOM     17  C   UNL     1      74.939  81.846  65.407  1.00  0.00     0.010 C 
BRANCH  17  18
ATOM     18  C   UNL     1      73.946  80.758  64.909  1.00  0.00     0.005 C 
BRANCH  18  19
ATOM     19  C   UNL     1      73.733  80.812  63.372  1.00  0.00     0.027 C 
BRANCH  19  20
ATOM     20  C   UNL     1      72.500  81.497  63.015  1.00  0.00    -0.031 C 
ATOM     21  C   UNL     1      71.591  81.933  63.906  1.00  0.00    -0.028 C 
BRANCH  21  22
ATOM     22  C   UNL     1      70.367  82.637  63.525  1.00  0.00     0.005 C 
ATOM     23  C   UNL     1      69.368  82.765  64.708  1.00  0.00     0.012 C 
ATOM     24  C   UNL     1      70.711  84.031  62.939  1.00  0.00     0.012 C 
ENDBRANCH  21  22
ENDBRANCH  19  20
ENDBRANCH  18  19
ENDBRANCH  17  18
ENDBRANCH   1  17
TORSDOF 10
ENDMDL
MODEL 5
REMARK VINA RESULT:    -5.706     23.262     27.121
REMARK INTER + INTRA:          -9.744
REMARK INTER:                  -8.916
REMARK INTRA:                  -0.828
REMARK UNBOUND:                -0.869
REMARK SMILES COc1cc(CNC(=O)CCCC/C=C/C(C)C)ccc1O
REMARK SMILES IDX 10 1 8 2 7 3 9 5 6 6 5 7 3 8 21 9 4 10 20 11 19 12 2 13 1 14
REMARK SMILES IDX 22 15 11 17 12 18 13 19 14 20 15 21 16 22 17 23 18 24
REMARK H PARENT 7 4 22 16
REMARK Flexibility Score: inf
ROOT
ATOM      1  C   UNL     1      92.907  98.978  74.776  1.00  0.00     0.100 C 
ENDROOT
BRANCH   1   2
ATOM      2  C   UNL     1      94.109  98.323  75.326  1.00  0.00     0.220 C 
ATOM      3  N   UNL     1      94.324  98.290  76.671  1.00  0.00    -0.352 N 
ATOM      4  H   UNL     1      93.623  98.759  77.227  1.00  0.00     0.163 HD
ATOM      5  O   UNL     1      94.908  97.781  74.524  1.00  0.00    -0.275 OA
BRANCH   3   6
ATOM      6  C   UNL     1      95.437  97.656  77.303  1.00  0.00     0.151 C 
BRANCH   6   7
ATOM      7  C   UNL     1      95.000  96.537  78.182  1.00  0.00    -0.025 A 
ATOM      8  C   UNL     1      94.704  95.591  80.436  1.00  0.00     0.160 A 
ATOM      9  C   UNL     1      94.155  94.420  79.873  1.00  0.00     0.157 A 
ATOM     10  C   UNL     1      95.123  96.636  79.586  1.00  0.00     0.056 A 
ATOM     11  C   UNL     1      94.045  94.298  78.474  1.00  0.00     0.050 A 
ATOM     12  C   UNL     1      94.455  95.352  77.634  1.00  0.00     0.009 A 
BRANCH   8  13
ATOM     13  O   UNL     1      94.874  95.687  81.794  1.00  0.00    -0.493 OA
ATOM     14  C   UNL     1      96.234  95.506  82.229  1.00  0.00     0.278 C 
ENDBRANCH   8  13
BRANCH   9  15
ATOM     15  O   UNL     1      93.730  93.400  80.664  1.00  0.00    -0.504 OA
ATOM     16  H   UNL     1      94.123  92.577  80.364  1.00  0.00     0.293 HD
ENDBRANCH   9  15
ENDBRANCH   6   7
ENDBRANCH   3   6
ENDBRANCH   1   2
BRANCH   1  17
ATOM     17  C   UNL     1      93.076 100.519  74.705  1.00  0.00     0.010 C 
BRANCH  17  18
ATOM     18  C   UNL     1      92.549 101.125  73.373  1.00  0.00     0.005 C 
BRANCH  18  19
ATOM     19  C   UNL     1      92.798 100.189  72.159  1.00  0.00     0.027 C 
BRANCH  19  20
ATOM     20  C   UNL     1      91.600 100.010  71.353  1.00  0.00    -0.031 C 
ATOM     21  C   UNL     1      90.562  99.228  71.703  1.00  0.00    -0.028 C 
BRANCH  21  22
ATOM     22  C   UNL     1      89.359  99.078  70.885  1.00  0.00     0.005 C 
ATOM     23  C   UNL     1      89.248 100.178  69.793  1.00  0.00     0.012 C 
ATOM     24  C   UNL     1      89.314  97.663  70.252  1.00  0.00     0.012 C 
ENDBRANCH  21  22
ENDBRANCH  19  20
ENDBRANCH  18  19
ENDBRANCH  17  18
ENDBRANCH   1  17
TORSDOF 10
ENDMDL
MODEL 6
REMARK VINA RESULT:    -5.687     26.651     28.738
REMARK INTER + INTRA:          -9.715
REMARK INTER:                  -9.084
REMARK INTRA:                  -0.630
REMARK UNBOUND:                -0.869
REMARK SMILES COc1cc(CNC(=O)CCCC/C=C/C(C)C)ccc1O
REMARK SMILES IDX 10 1 8 2 7 3 9 5 6 6 5 7 3 8 21 9 4 10 20 11 19 12 2 13 1 14
REMARK SMILES IDX 22 15 11 17 12 18 13 19 14 20 15 21 16 22 17 23 18 24
REMARK H PARENT 7 4 22 16
REMARK Flexibility Score: inf
ROOT
ATOM      1  C   UNL     1      96.890  83.950  84.569  1.00  0.00     0.100 C 
ENDROOT
BRANCH   1   2
ATOM      2  C   UNL     1      96.643  84.464  85.930  1.00  0.00     0.220 C 
ATOM      3  N   UNL     1      95.528  85.200  86.199  1.00  0.00    -0.352 N 
ATOM      4  H   UNL     1      94.928  85.371  85.404  1.00  0.00     0.163 HD
ATOM      5  O   UNL     1      97.473  84.185  86.829  1.00  0.00    -0.275 OA
BRANCH   3   6
ATOM      6  C   UNL     1      95.181  85.715  87.485  1.00  0.00     0.151 C 
BRANCH   6   7
ATOM      7  C   UNL     1      93.918  85.113  87.992  1.00  0.00    -0.025 A 
ATOM      8  C   UNL     1      92.037  83.551  87.702  1.00  0.00     0.160 A 
ATOM      9  C   UNL     1      91.518  83.942  88.953  1.00  0.00     0.157 A 
ATOM     10  C   UNL     1      93.229  84.141  87.232  1.00  0.00     0.056 A 
ATOM     11  C   UNL     1      92.182  84.925  89.713  1.00  0.00     0.050 A 
ATOM     12  C   UNL     1      93.379  85.500  89.242  1.00  0.00     0.009 A 
BRANCH   8  13
ATOM     13  O   UNL     1      91.359  82.643  86.928  1.00  0.00    -0.493 OA
ATOM     14  C   UNL     1      91.871  81.301  87.014  1.00  0.00     0.278 C 
ENDBRANCH   8  13
BRANCH   9  15
ATOM     15  O   UNL     1      90.379  83.384  89.439  1.00  0.00    -0.504 OA
ATOM     16  H   UNL     1      90.477  82.430  89.469  1.00  0.00     0.293 HD
ENDBRANCH   9  15
ENDBRANCH   6   7
ENDBRANCH   3   6
ENDBRANCH   1   2
BRANCH   1  17
ATOM     17  C   UNL     1      98.044  82.912  84.550  1.00  0.00     0.010 C 
BRANCH  17  18
ATOM     18  C   UNL     1      98.584  82.634  83.119  1.00  0.00     0.005 C 
BRANCH  18  19
ATOM     19  C   UNL     1      97.818  83.436  82.032  1.00  0.00     0.027 C 
BRANCH  19  20
ATOM     20  C   UNL     1      98.323  83.165  80.695  1.00  0.00    -0.031 C 
ATOM     21  C   UNL     1      97.639  83.415  79.563  1.00  0.00    -0.028 C 
BRANCH  21  22
ATOM     22  C   UNL     1      98.174  83.154  78.228  1.00  0.00     0.005 C 
ATOM     23  C   UNL     1      97.642  84.162  77.171  1.00  0.00     0.012 C 
ATOM     24  C   UNL     1      99.725  83.156  78.262  1.00  0.00     0.012 C 
ENDBRANCH  21  22
ENDBRANCH  19  20
ENDBRANCH  18  19
ENDBRANCH  17  18
ENDBRANCH   1  17
TORSDOF 10
ENDMDL
MODEL 7
REMARK VINA RESULT:    -5.649     26.996     29.579
REMARK INTER + INTRA:          -9.655
REMARK INTER:                  -8.632
REMARK INTRA:                  -1.023
REMARK UNBOUND:                -0.869
REMARK SMILES COc1cc(CNC(=O)CCCC/C=C/C(C)C)ccc1O
REMARK SMILES IDX 10 1 8 2 7 3 9 5 6 6 5 7 3 8 21 9 4 10 20 11 19 12 2 13 1 14
REMARK SMILES IDX 22 15 11 17 12 18 13 19 14 20 15 21 16 22 17 23 18 24
REMARK H PARENT 7 4 22 16
REMARK Flexibility Score: inf
ROOT
ATOM      1  C   UNL     1     100.543  80.303  83.309  1.00  0.00     0.100 C 
ENDROOT
BRANCH   1   2
ATOM      2  C   UNL     1     101.194  81.058  82.221  1.00  0.00     0.220 C 
ATOM      3  N   UNL     1     100.556  81.244  81.031  1.00  0.00    -0.352 N 
ATOM      4  H   UNL     1      99.645  80.812  80.963  1.00  0.00     0.163 HD
ATOM      5  O   UNL     1     102.333  81.539  82.432  1.00  0.00    -0.275 OA
BRANCH   3   6
ATOM      6  C   UNL     1     101.084  81.984  79.930  1.00  0.00     0.151 C 
BRANCH   6   7
ATOM      7  C   UNL     1     100.000  82.587  79.107  1.00  0.00    -0.025 A 
ATOM      8  C   UNL     1      99.195  83.441  76.942  1.00  0.00     0.160 A 
ATOM      9  C   UNL     1      97.938  83.719  77.518  1.00  0.00     0.157 A 
ATOM     10  C   UNL     1     100.214  82.881  77.741  1.00  0.00     0.056 A 
ATOM     11  C   UNL     1      97.717  83.450  78.883  1.00  0.00     0.050 A 
ATOM     12  C   UNL     1      98.736  82.879  79.670  1.00  0.00     0.009 A 
BRANCH   8  13
ATOM     13  O   UNL     1      99.437  83.762  75.631  1.00  0.00    -0.493 OA
ATOM     14  C   UNL     1     100.519  84.693  75.444  1.00  0.00     0.278 C 
ENDBRANCH   8  13
BRANCH   9  15
ATOM     15  O   UNL     1      96.932  84.246  76.774  1.00  0.00    -0.504 OA
ATOM     16  H   UNL     1      96.621  83.591  76.145  1.00  0.00     0.293 HD
ENDBRANCH   9  15
ENDBRANCH   6   7
ENDBRANCH   3   6
ENDBRANCH   1   2
BRANCH   1  17
ATOM     17  C   UNL     1      99.041  80.047  83.010  1.00  0.00     0.010 C 
BRANCH  17  18
ATOM     18  C   UNL     1      98.095  80.924  83.877  1.00  0.00     0.005 C 
BRANCH  18  19
ATOM     19  C   UNL     1      98.055  82.401  83.398  1.00  0.00     0.027 C 
BRANCH  19  20
ATOM     20  C   UNL     1      97.286  83.247  84.299  1.00  0.00    -0.031 C 
ATOM     21  C   UNL     1      97.033  82.948  85.586  1.00  0.00    -0.028 C 
BRANCH  21  22
ATOM     22  C   UNL     1      96.275  83.824  86.479  1.00  0.00     0.005 C 
ATOM     23  C   UNL     1      96.122  85.260  85.906  1.00  0.00     0.012 C 
ATOM     24  C   UNL     1      94.888  83.202  86.789  1.00  0.00     0.012 C 
ENDBRANCH  21  22
ENDBRANCH  19  20
ENDBRANCH  18  19
ENDBRANCH  17  18
ENDBRANCH   1  17
TORSDOF 10
ENDMDL
MODEL 8
REMARK VINA RESULT:    -5.598      9.589     12.513
REMARK INTER + INTRA:          -9.576
REMARK INTER:                  -7.973
REMARK INTRA:                  -1.603
REMARK UNBOUND:                -0.869
REMARK SMILES COc1cc(CNC(=O)CCCC/C=C/C(C)C)ccc1O
REMARK SMILES IDX 10 1 8 2 7 3 9 5 6 6 5 7 3 8 21 9 4 10 20 11 19 12 2 13 1 14
REMARK SMILES IDX 22 15 11 17 12 18 13 19 14 20 15 21 16 22 17 23 18 24
REMARK H PARENT 7 4 22 16
REMARK Flexibility Score: inf
ROOT
ATOM      1  C   UNL     1      64.658  83.511  67.905  1.00  0.00     0.100 C 
ENDROOT
BRANCH   1   2
ATOM      2  C   UNL     1      64.610  82.423  68.900  1.00  0.00     0.220 C 
ATOM      3  N   UNL     1      65.018  82.640  70.182  1.00  0.00    -0.352 N 
ATOM      4  H   UNL     1      65.364  83.572  70.367  1.00  0.00     0.163 HD
ATOM      5  O   UNL     1      64.164  81.308  68.538  1.00  0.00    -0.275 OA
BRANCH   3   6
ATOM      6  C   UNL     1      64.982  81.666  71.226  1.00  0.00     0.151 C 
BRANCH   6   7
ATOM      7  C   UNL     1      64.065  82.076  72.324  1.00  0.00    -0.025 A 
ATOM      8  C   UNL     1      63.425  83.686  74.074  1.00  0.00     0.160 A 
ATOM      9  C   UNL     1      62.316  82.882  74.408  1.00  0.00     0.157 A 
ATOM     10  C   UNL     1      64.290  83.275  73.038  1.00  0.00     0.056 A 
ATOM     11  C   UNL     1      62.090  81.674  73.719  1.00  0.00     0.050 A 
ATOM     12  C   UNL     1      62.952  81.278  72.678  1.00  0.00     0.009 A 
BRANCH   8  13
ATOM     13  O   UNL     1      63.686  84.829  74.786  1.00  0.00    -0.493 OA
ATOM     14  C   UNL     1      63.229  86.035  74.147  1.00  0.00     0.278 C 
ENDBRANCH   8  13
BRANCH   9  15
ATOM     15  O   UNL     1      61.457  83.255  75.392  1.00  0.00    -0.504 OA
ATOM     16  H   UNL     1      61.078  82.474  75.801  1.00  0.00     0.293 HD
ENDBRANCH   9  15
ENDBRANCH   6   7
ENDBRANCH   3   6
ENDBRANCH   1   2
BRANCH   1  17
ATOM     17  C   UNL     1      64.448  84.900  68.564  1.00  0.00     0.010 C 
BRANCH  17  18
ATOM     18  C   UNL     1      62.951  85.222  68.835  1.00  0.00     0.005 C 
BRANCH  18  19
ATOM     19  C   UNL     1      62.606  85.201  70.348  1.00  0.00     0.027 C 
BRANCH  19  20
ATOM     20  C   UNL     1      61.190  84.967  70.584  1.00  0.00    -0.031 C 
ATOM     21  C   UNL     1      60.598  85.062  71.788  1.00  0.00    -0.028 C 
BRANCH  21  22
ATOM     22  C   UNL     1      59.167  84.842  71.999  1.00  0.00     0.005 C 
ATOM     23  C   UNL     1      58.495  86.019  72.757  1.00  0.00     0.012 C 
ATOM     24  C   UNL     1      58.460  84.581  70.643  1.00  0.00     0.012 C 
ENDBRANCH  21  22
ENDBRANCH  19  20
ENDBRANCH  18  19
ENDBRANCH  17  18
ENDBRANCH   1  17
TORSDOF 10
ENDMDL
MODEL 9
REMARK VINA RESULT:    -5.593      1.384      2.133
REMARK INTER + INTRA:          -9.568
REMARK INTER:                  -8.323
REMARK INTRA:                  -1.245
REMARK UNBOUND:                -0.869
REMARK SMILES COc1cc(CNC(=O)CCCC/C=C/C(C)C)ccc1O
REMARK SMILES IDX 10 1 8 2 7 3 9 5 6 6 5 7 3 8 21 9 4 10 20 11 19 12 2 13 1 14
REMARK SMILES IDX 22 15 11 17 12 18 13 19 14 20 15 21 16 22 17 23 18 24
REMARK H PARENT 7 4 22 16
REMARK Flexibility Score: inf
ROOT
ATOM      1  C   UNL     1      74.721  80.937  64.642  1.00  0.00     0.100 C 
ENDROOT
BRANCH   1   2
ATOM      2  C   UNL     1      73.447  81.680  64.614  1.00  0.00     0.220 C 
ATOM      3  N   UNL     1      72.465  81.405  65.518  1.00  0.00    -0.352 N 
ATOM      4  H   UNL     1      72.678  80.658  66.164  1.00  0.00     0.163 HD
ATOM      5  O   UNL     1      73.307  82.583  63.753  1.00  0.00    -0.275 OA
BRANCH   3   6
ATOM      6  C   UNL     1      71.213  82.087  65.595  1.00  0.00     0.151 C 
BRANCH   6   7
ATOM      7  C   UNL     1      71.073  82.831  66.876  1.00  0.00    -0.025 A 
ATOM      8  C   UNL     1      69.922  83.172  69.026  1.00  0.00     0.160 A 
ATOM      9  C   UNL     1      70.806  84.227  69.333  1.00  0.00     0.157 A 
ATOM     10  C   UNL     1      70.062  82.487  67.801  1.00  0.00     0.056 A 
ATOM     11  C   UNL     1      71.807  84.595  68.412  1.00  0.00     0.050 A 
ATOM     12  C   UNL     1      71.947  83.896  67.197  1.00  0.00     0.009 A 
BRANCH   8  13
ATOM     13  O   UNL     1      68.905  82.854  69.889  1.00  0.00    -0.493 OA
ATOM     14  C   UNL     1      67.667  83.535  69.615  1.00  0.00     0.278 C 
ENDBRANCH   8  13
BRANCH   9  15
ATOM     15  O   UNL     1      70.707  84.899  70.509  1.00  0.00    -0.504 OA
ATOM     16  H   UNL     1      71.555  85.293  70.726  1.00  0.00     0.293 HD
ENDBRANCH   9  15
ENDBRANCH   6   7
ENDBRANCH   3   6
ENDBRANCH   1   2
BRANCH   1  17
ATOM     17  C   UNL     1      75.926  81.876  64.917  1.00  0.00     0.010 C 
BRANCH  17  18
ATOM     18  C   UNL     1      76.011  82.333  66.401  1.00  0.00     0.005 C 
BRANCH  18  19
ATOM     19  C   UNL     1      75.531  83.797  66.596  1.00  0.00     0.027 C 
BRANCH  19  20
ATOM     20  C   UNL     1      75.860  84.308  67.918  1.00  0.00    -0.031 C 
ATOM     21  C   UNL     1      76.956  83.955  68.614  1.00  0.00    -0.028 C 
BRANCH  21  22
ATOM     22  C   UNL     1      77.277  84.498  69.934  1.00  0.00     0.005 C 
ATOM     23  C   UNL     1      77.611  86.014  69.883  1.00  0.00     0.012 C 
ATOM     24  C   UNL     1      76.116  84.220  70.925  1.00  0.00     0.012 C 
ENDBRANCH  21  22
ENDBRANCH  19  20
ENDBRANCH  18  19
ENDBRANCH  17  18
ENDBRANCH   1  17
TORSDOF 10
ENDMDL
MODEL 10
REMARK VINA RESULT:    -5.509      2.717      5.456
REMARK INTER + INTRA:          -9.438
REMARK INTER:                  -7.926
REMARK INTRA:                  -1.512
REMARK UNBOUND:                -0.869
REMARK SMILES COc1cc(CNC(=O)CCCC/C=C/C(C)C)ccc1O
REMARK SMILES IDX 10 1 8 2 7 3 9 5 6 6 5 7 3 8 21 9 4 10 20 11 19 12 2 13 1 14
REMARK SMILES IDX 22 15 11 17 12 18 13 19 14 20 15 21 16 22 17 23 18 24
REMARK H PARENT 7 4 22 16
REMARK Flexibility Score: inf
ROOT
ATOM      1  C   UNL     1      75.502  85.589  69.935  1.00  0.00     0.100 C 
ENDROOT
BRANCH   1   2
ATOM      2  C   UNL     1      74.215  85.427  69.233  1.00  0.00     0.220 C 
ATOM      3  N   UNL     1      74.174  84.913  67.972  1.00  0.00    -0.352 N 
ATOM      4  H   UNL     1      75.076  84.686  67.575  1.00  0.00     0.163 HD
ATOM      5  O   UNL     1      73.165  85.754  69.838  1.00  0.00    -0.275 OA
BRANCH   3   6
ATOM      6  C   UNL     1      72.981  84.688  67.221  1.00  0.00     0.151 C 
BRANCH   6   7
ATOM      7  C   UNL     1      73.091  83.470  66.372  1.00  0.00    -0.025 A 
ATOM      8  C   UNL     1      74.482  81.774  65.253  1.00  0.00     0.160 A 
ATOM      9  C   UNL     1      73.319  81.138  64.770  1.00  0.00     0.157 A 
ATOM     10  C   UNL     1      74.357  82.933  66.047  1.00  0.00     0.056 A 
ATOM     11  C   UNL     1      72.051  81.673  65.070  1.00  0.00     0.050 A 
ATOM     12  C   UNL     1      71.936  82.824  65.873  1.00  0.00     0.009 A 
BRANCH   8  13
ATOM     13  O   UNL     1      75.721  81.295  64.910  1.00  0.00    -0.493 OA
ATOM     14  C   UNL     1      76.797  81.827  65.704  1.00  0.00     0.278 C 
ENDBRANCH   8  13
BRANCH   9  15
ATOM     15  O   UNL     1      73.404  80.012  64.015  1.00  0.00    -0.504 OA
ATOM     16  H   UNL     1      72.542  79.592  63.969  1.00  0.00     0.293 HD
ENDBRANCH   9  15
ENDBRANCH   6   7
ENDBRANCH   3   6
ENDBRANCH   1   2
BRANCH   1  17
ATOM     17  C   UNL     1      76.048  87.036  69.805  1.00  0.00     0.010 C 
BRANCH  17  18
ATOM     18  C   UNL     1      77.595  87.088  69.662  1.00  0.00     0.005 C 
BRANCH  18  19
ATOM     19  C   UNL     1      78.112  86.194  68.503  1.00  0.00     0.027 C 
BRANCH  19  20
ATOM     20  C   UNL     1      77.605  86.627  67.209  1.00  0.00    -0.031 C 
ATOM     21  C   UNL     1      77.289  85.792  66.203  1.00  0.00    -0.028 C 
BRANCH  21  22
ATOM     22  C   UNL     1      76.763  86.249  64.917  1.00  0.00     0.005 C 
ATOM     23  C   UNL     1      76.673  85.099  63.875  1.00  0.00     0.012 C 
ATOM     24  C   UNL     1      75.381  86.926  65.114  1.00  0.00     0.012 C 
ENDBRANCH  21  22
ENDBRANCH  19  20
ENDBRANCH  18  19
ENDBRANCH  17  18
ENDBRANCH   1  17
TORSDOF 10
ENDMDL
