MODEL 1
REMARK VINA RESULT:    -5.748      0.000      0.000
REMARK INTER + INTRA:         -10.291
REMARK INTER:                  -9.444
REMARK INTRA:                  -0.847
REMARK UNBOUND:                -0.847
REMARK SMILES CCCCC[C@H](O)CC(=O)CCc1ccc(O)c(OC)c1
REMARK SMILES IDX 8 1 6 2 7 3 5 5 4 6 3 7 2 8 1 9 9 10 10 11 11 12 12 13 13 14
REMARK SMILES IDX 21 15 14 16 18 17 15 18 16 19 19 20 20 21 17 22
REMARK H PARENT 7 4 17 23
REMARK Flexibility Score: inf
ROOT
ATOM      1  C   UNL     1      75.505  83.892  66.024  1.00  0.00     0.107 C 
ENDROOT
BRANCH   1   2
ATOM      2  C   UNL     1      76.871  84.316  66.568  1.00  0.00     0.121 C 
BRANCH   2   3
ATOM      3  O   UNL     1      77.898  83.905  65.669  1.00  0.00    -0.393 OA
ATOM      4  H   UNL     1      77.607  84.123  64.766  1.00  0.00     0.210 HD
ENDBRANCH   2   3
BRANCH   2   5
ATOM      5  C   UNL     1      76.981  85.827  66.804  1.00  0.00     0.032 C 
BRANCH   5   6
ATOM      6  C   UNL     1      76.450  86.235  68.184  1.00  0.00     0.003 C 
BRANCH   6   7
ATOM      7  C   UNL     1      76.668  85.165  69.258  1.00  0.00    -0.000 C 
BRANCH   7   8
ATOM      8  C   UNL     1      75.374  84.664  69.896  1.00  0.00    -0.003 C 
ATOM      9  C   UNL     1      74.193  85.545  69.516  1.00  0.00     0.004 C 
ENDBRANCH   7   8
ENDBRANCH   6   7
ENDBRANCH   5   6
ENDBRANCH   2   5
ENDBRANCH   1   2
BRANCH   1  10
ATOM     10  C   UNL     1      75.461  82.435  65.593  1.00  0.00     0.135 C 
ATOM     11  O   UNL     1      76.448  81.891  65.098  1.00  0.00    -0.300 OA
BRANCH  10  12
ATOM     12  C   UNL     1      74.160  81.688  65.848  1.00  0.00     0.080 C 
BRANCH  12  13
ATOM     13  C   UNL     1      73.517  81.123  64.580  1.00  0.00     0.043 C 
BRANCH  13  14
ATOM     14  C   UNL     1      72.098  81.595  64.376  1.00  0.00    -0.044 A 
ATOM     15  C   UNL     1      71.395  82.173  65.433  1.00  0.00     0.054 A 
ATOM     16  C   UNL     1      71.489  81.453  63.128  1.00  0.00     0.008 A 
ATOM     17  C   UNL     1      70.084  82.610  65.242  1.00  0.00     0.160 A 
ATOM     18  C   UNL     1      70.178  81.889  62.938  1.00  0.00     0.050 A 
ATOM     19  C   UNL     1      69.475  82.468  63.995  1.00  0.00     0.157 A 
BRANCH  17  20
ATOM     20  O   UNL     1      69.408  83.173  66.282  1.00  0.00    -0.493 OA
ATOM     21  C   UNL     1      70.007  84.306  66.908  1.00  0.00     0.278 C 
ENDBRANCH  17  20
BRANCH  19  22
ATOM     22  O   UNL     1      68.196  82.890  63.797  1.00  0.00    -0.504 OA
ATOM     23  H   UNL     1      68.138  83.837  64.013  1.00  0.00     0.293 HD
ENDBRANCH  19  22
ENDBRANCH  13  14
ENDBRANCH  12  13
ENDBRANCH  10  12
ENDBRANCH   1  10
TORSDOF 12
ENDMDL
MODEL 2
REMARK VINA RESULT:    -5.716      3.036      7.185
REMARK INTER + INTRA:         -10.239
REMARK INTER:                  -9.443
REMARK INTRA:                  -0.796
REMARK UNBOUND:                -0.847
REMARK SMILES CCCCC[C@H](O)CC(=O)CCc1ccc(O)c(OC)c1
REMARK SMILES IDX 8 1 6 2 7 3 5 5 4 6 3 7 2 8 1 9 9 10 10 11 11 12 12 13 13 14
REMARK SMILES IDX 21 15 14 16 18 17 15 18 16 19 19 20 20 21 17 22
REMARK H PARENT 7 4 17 23
REMARK Flexibility Score: inf
ROOT
ATOM      1  C   UNL     1      75.641  83.696  66.361  1.00  0.00     0.107 C 
ENDROOT
BRANCH   1   2
ATOM      2  C   UNL     1      75.742  82.972  65.017  1.00  0.00     0.121 C 
BRANCH   2   3
ATOM      3  O   UNL     1      76.421  81.730  65.186  1.00  0.00    -0.393 OA
ATOM      4  H   UNL     1      77.367  81.883  65.013  1.00  0.00     0.210 HD
ENDBRANCH   2   3
BRANCH   2   5
ATOM      5  C   UNL     1      74.375  82.715  64.370  1.00  0.00     0.032 C 
BRANCH   5   6
ATOM      6  C   UNL     1      73.768  81.379  64.816  1.00  0.00     0.003 C 
BRANCH   6   7
ATOM      7  C   UNL     1      72.303  81.210  64.400  1.00  0.00    -0.000 C 
BRANCH   7   8
ATOM      8  C   UNL     1      72.128  80.569  63.025  1.00  0.00    -0.003 C 
ATOM      9  C   UNL     1      70.823  79.793  62.937  1.00  0.00     0.004 C 
ENDBRANCH   7   8
ENDBRANCH   6   7
ENDBRANCH   5   6
ENDBRANCH   2   5
ENDBRANCH   1   2
BRANCH   1  10
ATOM     10  C   UNL     1      76.995  84.092  66.927  1.00  0.00     0.135 C 
ATOM     11  O   UNL     1      78.025  83.528  66.558  1.00  0.00    -0.300 OA
BRANCH  10  12
ATOM     12  C   UNL     1      77.008  85.239  67.926  1.00  0.00     0.080 C 
BRANCH  12  13
ATOM     13  C   UNL     1      77.165  86.616  67.279  1.00  0.00     0.043 C 
BRANCH  13  14
ATOM     14  C   UNL     1      76.254  87.660  67.881  1.00  0.00    -0.044 A 
ATOM     15  C   UNL     1      74.987  87.300  68.339  1.00  0.00     0.054 A 
ATOM     16  C   UNL     1      76.681  88.985  67.977  1.00  0.00     0.008 A 
ATOM     17  C   UNL     1      74.147  88.265  68.895  1.00  0.00     0.160 A 
ATOM     18  C   UNL     1      75.841  89.950  68.534  1.00  0.00     0.050 A 
ATOM     19  C   UNL     1      74.573  89.590  68.992  1.00  0.00     0.157 A 
BRANCH  17  20
ATOM     20  O   UNL     1      72.911  87.902  69.339  1.00  0.00    -0.493 OA
ATOM     21  C   UNL     1      71.913  87.656  68.349  1.00  0.00     0.278 C 
ENDBRANCH  17  20
BRANCH  19  22
ATOM     22  O   UNL     1      73.762  90.541  69.533  1.00  0.00    -0.504 OA
ATOM     23  H   UNL     1      72.898  90.512  69.086  1.00  0.00     0.293 HD
ENDBRANCH  19  22
ENDBRANCH  13  14
ENDBRANCH  12  13
ENDBRANCH  10  12
ENDBRANCH   1  10
TORSDOF 12
ENDMDL
MODEL 3
REMARK VINA RESULT:    -5.703     24.858     28.233
REMARK INTER + INTRA:         -10.217
REMARK INTER:                  -8.937
REMARK INTRA:                  -1.280
REMARK UNBOUND:                -0.847
REMARK SMILES CCCCC[C@H](O)CC(=O)CCc1ccc(O)c(OC)c1
REMARK SMILES IDX 8 1 6 2 7 3 5 5 4 6 3 7 2 8 1 9 9 10 10 11 11 12 12 13 13 14
REMARK SMILES IDX 21 15 14 16 18 17 15 18 16 19 19 20 20 21 17 22
REMARK H PARENT 7 4 17 23
REMARK Flexibility Score: inf
ROOT
ATOM      1  C   UNL     1      95.751  95.313  80.356  1.00  0.00     0.107 C 
ENDROOT
BRANCH   1   2
ATOM      2  C   UNL     1      96.177  93.853  80.531  1.00  0.00     0.121 C 
BRANCH   2   3
ATOM      3  O   UNL     1      95.784  93.387  81.820  1.00  0.00    -0.393 OA
ATOM      4  H   UNL     1      96.286  92.575  82.008  1.00  0.00     0.210 HD
ENDBRANCH   2   3
BRANCH   2   5
ATOM      5  C   UNL     1      95.595  92.925  79.459  1.00  0.00     0.032 C 
BRANCH   5   6
ATOM      6  C   UNL     1      94.062  92.972  79.426  1.00  0.00     0.003 C 
BRANCH   6   7
ATOM      7  C   UNL     1      93.497  93.336  78.049  1.00  0.00    -0.000 C 
BRANCH   7   8
ATOM      8  C   UNL     1      91.972  93.429  78.019  1.00  0.00    -0.003 C 
ATOM      9  C   UNL     1      91.502  94.520  77.070  1.00  0.00     0.004 C 
ENDBRANCH   7   8
ENDBRANCH   6   7
ENDBRANCH   5   6
ENDBRANCH   2   5
ENDBRANCH   1   2
BRANCH   1  10
ATOM     10  C   UNL     1      96.866  96.200  79.826  1.00  0.00     0.135 C 
ATOM     11  O   UNL     1      97.709  96.678  80.585  1.00  0.00    -0.300 OA
BRANCH  10  12
ATOM     12  C   UNL     1      96.907  96.420  78.322  1.00  0.00     0.080 C 
BRANCH  12  13
ATOM     13  C   UNL     1      95.606  96.043  77.610  1.00  0.00     0.043 C 
BRANCH  13  14
ATOM     14  C   UNL     1      95.687  96.192  76.110  1.00  0.00    -0.044 A 
ATOM     15  C   UNL     1      96.701  96.963  75.539  1.00  0.00     0.054 A 
ATOM     16  C   UNL     1      94.749  95.560  75.294  1.00  0.00     0.008 A 
ATOM     17  C   UNL     1      96.775  97.099  74.153  1.00  0.00     0.160 A 
ATOM     18  C   UNL     1      94.823  95.696  73.908  1.00  0.00     0.050 A 
ATOM     19  C   UNL     1      95.837  96.467  73.337  1.00  0.00     0.157 A 
BRANCH  17  20
ATOM     20  O   UNL     1      97.769  97.855  73.607  1.00  0.00    -0.493 OA
ATOM     21  C   UNL     1      98.074  99.090  74.253  1.00  0.00     0.278 C 
ENDBRANCH  17  20
BRANCH  19  22
ATOM     22  O   UNL     1      95.899  96.593  71.983  1.00  0.00    -0.504 OA
ATOM     23  H   UNL     1      95.684  97.510  71.740  1.00  0.00     0.293 HD
ENDBRANCH  19  22
ENDBRANCH  13  14
ENDBRANCH  12  13
ENDBRANCH  10  12
ENDBRANCH   1  10
TORSDOF 12
ENDMDL
MODEL 4
REMARK VINA RESULT:    -5.667     23.262     26.641
REMARK INTER + INTRA:         -10.159
REMARK INTER:                  -9.413
REMARK INTRA:                  -0.746
REMARK UNBOUND:                -0.847
REMARK SMILES CCCCC[C@H](O)CC(=O)CCc1ccc(O)c(OC)c1
REMARK SMILES IDX 8 1 6 2 7 3 5 5 4 6 3 7 2 8 1 9 9 10 10 11 11 12 12 13 13 14
REMARK SMILES IDX 21 15 14 16 18 17 15 18 16 19 19 20 20 21 17 22
REMARK H PARENT 7 4 17 23
REMARK Flexibility Score: inf
ROOT
ATOM      1  C   UNL     1      95.129  80.685  84.113  1.00  0.00     0.107 C 
ENDROOT
BRANCH   1   2
ATOM      2  C   UNL     1      96.140  81.571  83.381  1.00  0.00     0.121 C 
BRANCH   2   3
ATOM      3  O   UNL     1      97.292  81.767  84.198  1.00  0.00    -0.393 OA
ATOM      4  H   UNL     1      97.063  81.498  85.104  1.00  0.00     0.210 HD
ENDBRANCH   2   3
BRANCH   2   5
ATOM      5  C   UNL     1      96.574  80.993  82.028  1.00  0.00     0.032 C 
BRANCH   5   6
ATOM      6  C   UNL     1      96.805  82.090  80.981  1.00  0.00     0.003 C 
BRANCH   6   7
ATOM      7  C   UNL     1      97.535  81.590  79.730  1.00  0.00    -0.000 C 
BRANCH   7   8
ATOM      8  C   UNL     1      96.938  82.111  78.424  1.00  0.00    -0.003 C 
ATOM      9  C   UNL     1      96.960  81.044  77.340  1.00  0.00     0.004 C 
ENDBRANCH   7   8
ENDBRANCH   6   7
ENDBRANCH   5   6
ENDBRANCH   2   5
ENDBRANCH   1   2
BRANCH   1  10
ATOM     10  C   UNL     1      94.539  81.349  85.347  1.00  0.00     0.135 C 
ATOM     11  O   UNL     1      95.131  82.267  85.915  1.00  0.00    -0.300 OA
BRANCH  10  12
ATOM     12  C   UNL     1      93.176  80.853  85.802  1.00  0.00     0.080 C 
BRANCH  12  13
ATOM     13  C   UNL     1      92.015  81.388  84.962  1.00  0.00     0.043 C 
BRANCH  13  14
ATOM     14  C   UNL     1      90.947  80.352  84.701  1.00  0.00    -0.044 A 
ATOM     15  C   UNL     1      89.638  80.752  84.430  1.00  0.00     0.054 A 
ATOM     16  C   UNL     1      91.270  78.995  84.731  1.00  0.00     0.008 A 
ATOM     17  C   UNL     1      88.653  79.794  84.188  1.00  0.00     0.160 A 
ATOM     18  C   UNL     1      90.285  78.038  84.489  1.00  0.00     0.050 A 
ATOM     19  C   UNL     1      88.976  78.437  84.218  1.00  0.00     0.157 A 
BRANCH  17  20
ATOM     20  O   UNL     1      87.379  80.197  83.924  1.00  0.00    -0.493 OA
ATOM     21  C   UNL     1      87.012  81.508  84.350  1.00  0.00     0.278 C 
ENDBRANCH  17  20
BRANCH  19  22
ATOM     22  O   UNL     1      88.023  77.493  83.983  1.00  0.00    -0.504 OA
ATOM     23  H   UNL     1      88.400  76.795  83.421  1.00  0.00     0.293 HD
ENDBRANCH  19  22
ENDBRANCH  13  14
ENDBRANCH  12  13
ENDBRANCH  10  12
ENDBRANCH   1  10
TORSDOF 12
ENDMDL
MODEL 5
REMARK VINA RESULT:    -5.607     25.024     27.732
REMARK INTER + INTRA:         -10.060
REMARK INTER:                  -9.010
REMARK INTRA:                  -1.050
REMARK UNBOUND:                -0.847
REMARK SMILES CCCCC[C@H](O)CC(=O)CCc1ccc(O)c(OC)c1
REMARK SMILES IDX 8 1 6 2 7 3 5 5 4 6 3 7 2 8 1 9 9 10 10 11 11 12 12 13 13 14
REMARK SMILES IDX 21 15 14 16 18 17 15 18 16 19 19 20 20 21 17 22
REMARK H PARENT 7 4 17 23
REMARK Flexibility Score: inf
ROOT
ATOM      1  C   UNL     1      97.162  82.882  74.167  1.00  0.00     0.107 C 
ENDROOT
BRANCH   1   2
ATOM      2  C   UNL     1      98.178  81.774  74.452  1.00  0.00     0.121 C 
BRANCH   2   3
ATOM      3  O   UNL     1      98.504  81.094  73.243  1.00  0.00    -0.393 OA
ATOM      4  H   UNL     1      97.849  80.386  73.113  1.00  0.00     0.210 HD
ENDBRANCH   2   3
BRANCH   2   5
ATOM      5  C   UNL     1      99.466  82.293  75.103  1.00  0.00     0.032 C 
BRANCH   5   6
ATOM      6  C   UNL     1     100.528  82.666  74.061  1.00  0.00     0.003 C 
BRANCH   6   7
ATOM      7  C   UNL     1     100.503  84.148  73.674  1.00  0.00    -0.000 C 
BRANCH   7   8
ATOM      8  C   UNL     1     100.024  84.400  72.246  1.00  0.00    -0.003 C 
ATOM      9  C   UNL     1     101.195  84.581  71.292  1.00  0.00     0.004 C 
ENDBRANCH   7   8
ENDBRANCH   6   7
ENDBRANCH   5   6
ENDBRANCH   2   5
ENDBRANCH   1   2
BRANCH   1  10
ATOM     10  C   UNL     1      96.344  83.270  75.388  1.00  0.00     0.135 C 
ATOM     11  O   UNL     1      95.885  84.405  75.508  1.00  0.00    -0.300 OA
BRANCH  10  12
ATOM     12  C   UNL     1      96.092  82.176  76.415  1.00  0.00     0.080 C 
BRANCH  12  13
ATOM     13  C   UNL     1      96.088  82.679  77.860  1.00  0.00     0.043 C 
BRANCH  13  14
ATOM     14  C   UNL     1      97.000  81.885  78.766  1.00  0.00    -0.044 A 
ATOM     15  C   UNL     1      96.862  81.979  80.150  1.00  0.00     0.054 A 
ATOM     16  C   UNL     1      97.980  81.058  78.216  1.00  0.00     0.008 A 
ATOM     17  C   UNL     1      97.704  81.245  80.986  1.00  0.00     0.160 A 
ATOM     18  C   UNL     1      98.822  80.324  79.051  1.00  0.00     0.050 A 
ATOM     19  C   UNL     1      98.685  80.418  80.436  1.00  0.00     0.157 A 
BRANCH  17  20
ATOM     20  O   UNL     1      97.561  81.344  82.337  1.00  0.00    -0.493 OA
ATOM     21  C   UNL     1      96.240  81.215  82.859  1.00  0.00     0.278 C 
ENDBRANCH  17  20
BRANCH  19  22
ATOM     22  O   UNL     1      99.513  79.696  81.241  1.00  0.00    -0.504 OA
ATOM     23  H   UNL     1      99.085  79.572  82.106  1.00  0.00     0.293 HD
ENDBRANCH  19  22
ENDBRANCH  13  14
ENDBRANCH  12  13
ENDBRANCH  10  12
ENDBRANCH   1  10
TORSDOF 12
ENDMDL
MODEL 6
REMARK VINA RESULT:    -5.501      3.515      7.002
REMARK INTER + INTRA:          -9.885
REMARK INTER:                  -7.737
REMARK INTRA:                  -2.148
REMARK UNBOUND:                -0.847
REMARK SMILES CCCCC[C@H](O)CC(=O)CCc1ccc(O)c(OC)c1
REMARK SMILES IDX 8 1 6 2 7 3 5 5 4 6 3 7 2 8 1 9 9 10 10 11 11 12 12 13 13 14
REMARK SMILES IDX 21 15 14 16 18 17 15 18 16 19 19 20 20 21 17 22
REMARK H PARENT 7 4 17 23
REMARK Flexibility Score: inf
ROOT
ATOM      1  C   UNL     1      72.094  89.639  67.853  1.00  0.00     0.107 C 
ENDROOT
BRANCH   1   2
ATOM      2  C   UNL     1      73.025  90.481  68.730  1.00  0.00     0.121 C 
BRANCH   2   3
ATOM      3  O   UNL     1      73.206  89.845  69.993  1.00  0.00    -0.393 OA
ATOM      4  H   UNL     1      73.267  88.886  69.837  1.00  0.00     0.210 HD
ENDBRANCH   2   3
BRANCH   2   5
ATOM      5  C   UNL     1      74.396  90.726  68.087  1.00  0.00     0.032 C 
BRANCH   5   6
ATOM      6  C   UNL     1      75.542  90.180  68.947  1.00  0.00     0.003 C 
BRANCH   6   7
ATOM      7  C   UNL     1      76.459  89.212  68.193  1.00  0.00    -0.000 C 
BRANCH   7   8
ATOM      8  C   UNL     1      76.534  89.485  66.691  1.00  0.00    -0.003 C 
ATOM      9  C   UNL     1      76.453  88.195  65.889  1.00  0.00     0.004 C 
ENDBRANCH   7   8
ENDBRANCH   6   7
ENDBRANCH   5   6
ENDBRANCH   2   5
ENDBRANCH   1   2
BRANCH   1  10
ATOM     10  C   UNL     1      72.014  88.186  68.294  1.00  0.00     0.135 C 
ATOM     11  O   UNL     1      71.123  87.804  69.053  1.00  0.00    -0.300 OA
BRANCH  10  12
ATOM     12  C   UNL     1      73.054  87.239  67.716  1.00  0.00     0.080 C 
BRANCH  12  13
ATOM     13  C   UNL     1      73.838  86.465  68.777  1.00  0.00     0.043 C 
BRANCH  13  14
ATOM     14  C   UNL     1      74.988  85.672  68.203  1.00  0.00    -0.044 A 
ATOM     15  C   UNL     1      74.787  84.861  67.086  1.00  0.00     0.054 A 
ATOM     16  C   UNL     1      76.251  85.752  68.790  1.00  0.00     0.008 A 
ATOM     17  C   UNL     1      75.851  84.130  66.556  1.00  0.00     0.160 A 
ATOM     18  C   UNL     1      77.314  85.021  68.259  1.00  0.00     0.050 A 
ATOM     19  C   UNL     1      77.114  84.210  67.143  1.00  0.00     0.157 A 
BRANCH  17  20
ATOM     20  O   UNL     1      75.642  83.341  65.465  1.00  0.00    -0.493 OA
ATOM     21  C   UNL     1      74.805  82.199  65.641  1.00  0.00     0.278 C 
ENDBRANCH  17  20
BRANCH  19  22
ATOM     22  O   UNL     1      78.159  83.500  66.634  1.00  0.00    -0.504 OA
ATOM     23  H   UNL     1      78.618  83.047  67.361  1.00  0.00     0.293 HD
ENDBRANCH  19  22
ENDBRANCH  13  14
ENDBRANCH  12  13
ENDBRANCH  10  12
ENDBRANCH   1  10
TORSDOF 12
ENDMDL
MODEL 7
REMARK VINA RESULT:    -5.358     24.772     26.795
REMARK INTER + INTRA:          -9.651
REMARK INTER:                  -7.156
REMARK INTRA:                  -2.495
REMARK UNBOUND:                -0.847
REMARK SMILES CCCCC[C@H](O)CC(=O)CCc1ccc(O)c(OC)c1
REMARK SMILES IDX 8 1 6 2 7 3 5 5 4 6 3 7 2 8 1 9 9 10 10 11 11 12 12 13 13 14
REMARK SMILES IDX 21 15 14 16 18 17 15 18 16 19 19 20 20 21 17 22
REMARK H PARENT 7 4 17 23
REMARK Flexibility Score: inf
ROOT
ATOM      1  C   UNL     1      97.826  82.207  77.063  1.00  0.00     0.107 C 
ENDROOT
BRANCH   1   2
ATOM      2  C   UNL     1      97.799  80.806  77.680  1.00  0.00     0.121 C 
BRANCH   2   3
ATOM      3  O   UNL     1      97.118  80.842  78.932  1.00  0.00    -0.393 OA
ATOM      4  H   UNL     1      97.174  81.751  79.275  1.00  0.00     0.210 HD
ENDBRANCH   2   3
BRANCH   2   5
ATOM      5  C   UNL     1      97.133  79.764  76.772  1.00  0.00     0.032 C 
BRANCH   5   6
ATOM      6  C   UNL     1      98.071  78.592  76.456  1.00  0.00     0.003 C 
BRANCH   6   7
ATOM      7  C   UNL     1      98.922  78.817  75.202  1.00  0.00    -0.000 C 
BRANCH   7   8
ATOM      8  C   UNL     1     100.415  78.959  75.493  1.00  0.00    -0.003 C 
ATOM      9  C   UNL     1     100.813  80.418  75.651  1.00  0.00     0.004 C 
ENDBRANCH   7   8
ENDBRANCH   6   7
ENDBRANCH   5   6
ENDBRANCH   2   5
ENDBRANCH   1   2
BRANCH   1  10
ATOM     10  C   UNL     1      96.454  82.691  76.624  1.00  0.00     0.135 C 
ATOM     11  O   UNL     1      95.539  82.822  77.437  1.00  0.00    -0.300 OA
BRANCH  10  12
ATOM     12  C   UNL     1      96.294  83.043  75.153  1.00  0.00     0.080 C 
BRANCH  12  13
ATOM     13  C   UNL     1      97.610  83.044  74.374  1.00  0.00     0.043 C 
BRANCH  13  14
ATOM     14  C   UNL     1      97.735  81.879  73.421  1.00  0.00    -0.044 A 
ATOM     15  C   UNL     1      98.934  81.656  72.744  1.00  0.00     0.054 A 
ATOM     16  C   UNL     1      96.650  81.025  73.218  1.00  0.00     0.008 A 
ATOM     17  C   UNL     1      99.049  80.579  71.865  1.00  0.00     0.160 A 
ATOM     18  C   UNL     1      96.765  79.948  72.339  1.00  0.00     0.050 A 
ATOM     19  C   UNL     1      97.964  79.725  71.662  1.00  0.00     0.157 A 
BRANCH  17  20
ATOM     20  O   UNL     1     100.225  80.371  71.210  1.00  0.00    -0.493 OA
ATOM     21  C   UNL     1     101.318  79.877  71.981  1.00  0.00     0.278 C 
ENDBRANCH  17  20
BRANCH  19  22
ATOM     22  O   UNL     1      98.064  78.670  70.806  1.00  0.00    -0.504 OA
ATOM     23  H   UNL     1      98.945  78.678  70.395  1.00  0.00     0.293 HD
ENDBRANCH  19  22
ENDBRANCH  13  14
ENDBRANCH  12  13
ENDBRANCH  10  12
ENDBRANCH   1  10
TORSDOF 12
ENDMDL
MODEL 8
REMARK VINA RESULT:    -5.250     24.952     29.947
REMARK INTER + INTRA:          -9.474
REMARK INTER:                  -8.293
REMARK INTRA:                  -1.181
REMARK UNBOUND:                -0.847
REMARK SMILES CCCCC[C@H](O)CC(=O)CCc1ccc(O)c(OC)c1
REMARK SMILES IDX 8 1 6 2 7 3 5 5 4 6 3 7 2 8 1 9 9 10 10 11 11 12 12 13 13 14
REMARK SMILES IDX 21 15 14 16 18 17 15 18 16 19 19 20 20 21 17 22
REMARK H PARENT 7 4 17 23
REMARK Flexibility Score: inf
ROOT
ATOM      1  C   UNL     1      96.126  93.880  79.403  1.00  0.00     0.107 C 
ENDROOT
BRANCH   1   2
ATOM      2  C   UNL     1      95.018  92.828  79.325  1.00  0.00     0.121 C 
BRANCH   2   3
ATOM      3  O   UNL     1      94.748  92.312  80.626  1.00  0.00    -0.393 OA
ATOM      4  H   UNL     1      95.245  91.482  80.727  1.00  0.00     0.210 HD
ENDBRANCH   2   3
BRANCH   2   5
ATOM      5  C   UNL     1      93.718  93.369  78.717  1.00  0.00     0.032 C 
BRANCH   5   6
ATOM      6  C   UNL     1      93.938  94.688  77.966  1.00  0.00     0.003 C 
BRANCH   6   7
ATOM      7  C   UNL     1      92.643  95.299  77.421  1.00  0.00    -0.000 C 
BRANCH   7   8
ATOM      8  C   UNL     1      91.555  94.267  77.129  1.00  0.00    -0.003 C 
ATOM      9  C   UNL     1      90.222  94.936  76.830  1.00  0.00     0.004 C 
ENDBRANCH   7   8
ENDBRANCH   6   7
ENDBRANCH   5   6
ENDBRANCH   2   5
ENDBRANCH   1   2
BRANCH   1  10
ATOM     10  C   UNL     1      96.464  94.284  80.829  1.00  0.00     0.135 C 
ATOM     11  O   UNL     1      95.606  94.759  81.572  1.00  0.00    -0.300 OA
BRANCH  10  12
ATOM     12  C   UNL     1      97.891  94.029  81.289  1.00  0.00     0.080 C 
BRANCH  12  13
ATOM     13  C   UNL     1      98.722  95.303  81.453  1.00  0.00     0.043 C 
BRANCH  13  14
ATOM     14  C   UNL     1      98.768  96.144  80.199  1.00  0.00    -0.044 A 
ATOM     15  C   UNL     1      98.144  97.391  80.173  1.00  0.00     0.054 A 
ATOM     16  C   UNL     1      99.435  95.674  79.068  1.00  0.00     0.008 A 
ATOM     17  C   UNL     1      98.187  98.168  79.015  1.00  0.00     0.160 A 
ATOM     18  C   UNL     1      99.479  96.451  77.910  1.00  0.00     0.050 A 
ATOM     19  C   UNL     1      98.854  97.697  77.884  1.00  0.00     0.157 A 
BRANCH  17  20
ATOM     20  O   UNL     1      97.573  99.384  79.001  1.00  0.00    -0.493 OA
ATOM     21  C   UNL     1      97.202  99.937  80.262  1.00  0.00     0.278 C 
ENDBRANCH  17  20
BRANCH  19  22
ATOM     22  O   UNL     1      98.904  98.447  76.747  1.00  0.00    -0.504 OA
ATOM     23  H   UNL     1      98.271  99.181  76.824  1.00  0.00     0.293 HD
ENDBRANCH  19  22
ENDBRANCH  13  14
ENDBRANCH  12  13
ENDBRANCH  10  12
ENDBRANCH   1  10
TORSDOF 12
ENDMDL
MODEL 9
REMARK VINA RESULT:    -5.228     24.925     28.125
REMARK INTER + INTRA:          -9.438
REMARK INTER:                  -8.605
REMARK INTRA:                  -0.833
REMARK UNBOUND:                -0.847
REMARK SMILES CCCCC[C@H](O)CC(=O)CCc1ccc(O)c(OC)c1
REMARK SMILES IDX 8 1 6 2 7 3 5 5 4 6 3 7 2 8 1 9 9 10 10 11 11 12 12 13 13 14
REMARK SMILES IDX 21 15 14 16 18 17 15 18 16 19 19 20 20 21 17 22
REMARK H PARENT 7 4 17 23
REMARK Flexibility Score: inf
ROOT
ATOM      1  C   UNL     1      97.446  82.432  76.627  1.00  0.00     0.107 C 
ENDROOT
BRANCH   1   2
ATOM      2  C   UNL     1      96.268  82.575  75.660  1.00  0.00     0.121 C 
BRANCH   2   3
ATOM      3  O   UNL     1      95.570  83.790  75.925  1.00  0.00    -0.393 OA
ATOM      4  H   UNL     1      95.074  83.673  76.754  1.00  0.00     0.210 HD
ENDBRANCH   2   3
BRANCH   2   5
ATOM      5  C   UNL     1      96.694  82.548  74.187  1.00  0.00     0.032 C 
BRANCH   5   6
ATOM      6  C   UNL     1      97.921  83.430  73.926  1.00  0.00     0.003 C 
BRANCH   6   7
ATOM      7  C   UNL     1      98.991  82.742  73.071  1.00  0.00    -0.000 C 
BRANCH   7   8
ATOM      8  C   UNL     1      98.996  81.220  73.205  1.00  0.00    -0.003 C 
ATOM      9  C   UNL     1      99.029  80.545  71.843  1.00  0.00     0.004 C 
ENDBRANCH   7   8
ENDBRANCH   6   7
ENDBRANCH   5   6
ENDBRANCH   2   5
ENDBRANCH   1   2
BRANCH   1  10
ATOM     10  C   UNL     1      97.633  81.010  77.131  1.00  0.00     0.135 C 
ATOM     11  O   UNL     1      97.951  80.103  76.362  1.00  0.00    -0.300 OA
BRANCH  10  12
ATOM     12  C   UNL     1      97.454  80.787  78.625  1.00  0.00     0.080 C 
BRANCH  12  13
ATOM     13  C   UNL     1      97.073  82.053  79.394  1.00  0.00     0.043 C 
BRANCH  13  14
ATOM     14  C   UNL     1      97.101  81.866  80.893  1.00  0.00    -0.044 A 
ATOM     15  C   UNL     1      97.919  80.888  81.459  1.00  0.00     0.054 A 
ATOM     16  C   UNL     1      96.308  82.672  81.711  1.00  0.00     0.008 A 
ATOM     17  C   UNL     1      97.945  80.717  82.843  1.00  0.00     0.160 A 
ATOM     18  C   UNL     1      96.334  82.501  83.095  1.00  0.00     0.050 A 
ATOM     19  C   UNL     1      97.152  81.523  83.661  1.00  0.00     0.157 A 
BRANCH  17  20
ATOM     20  O   UNL     1      98.747  79.758  83.384  1.00  0.00    -0.493 OA
ATOM     21  C   UNL     1      98.981  78.591  82.599  1.00  0.00     0.278 C 
ENDBRANCH  17  20
BRANCH  19  22
ATOM     22  O   UNL     1      97.169  81.365  85.014  1.00  0.00    -0.504 OA
ATOM     23  H   UNL     1      97.806  80.667  85.243  1.00  0.00     0.293 HD
ENDBRANCH  19  22
ENDBRANCH  13  14
ENDBRANCH  12  13
ENDBRANCH  10  12
ENDBRANCH   1  10
TORSDOF 12
ENDMDL
MODEL 10
REMARK VINA RESULT:    -5.183     25.157     30.119
REMARK INTER + INTRA:          -9.363
REMARK INTER:                  -8.312
REMARK INTRA:                  -1.050
REMARK UNBOUND:                -0.847
REMARK SMILES CCCCC[C@H](O)CC(=O)CCc1ccc(O)c(OC)c1
REMARK SMILES IDX 8 1 6 2 7 3 5 5 4 6 3 7 2 8 1 9 9 10 10 11 11 12 12 13 13 14
REMARK SMILES IDX 21 15 14 16 18 17 15 18 16 19 19 20 20 21 17 22
REMARK H PARENT 7 4 17 23
REMARK Flexibility Score: inf
ROOT
ATOM      1  C   UNL     1      96.676  94.221  78.794  1.00  0.00     0.107 C 
ENDROOT
BRANCH   1   2
ATOM      2  C   UNL     1      95.827  93.060  78.270  1.00  0.00     0.121 C 
BRANCH   2   3
ATOM      3  O   UNL     1      95.515  92.169  79.339  1.00  0.00    -0.393 OA
ATOM      4  H   UNL     1      94.934  91.472  78.986  1.00  0.00     0.210 HD
ENDBRANCH   2   3
BRANCH   2   5
ATOM      5  C   UNL     1      94.526  93.521  77.602  1.00  0.00     0.032 C 
BRANCH   5   6
ATOM      6  C   UNL     1      93.308  93.325  78.514  1.00  0.00     0.003 C 
BRANCH   6   7
ATOM      7  C   UNL     1      91.972  93.536  77.795  1.00  0.00    -0.000 C 
BRANCH   7   8
ATOM      8  C   UNL     1      92.059  94.497  76.611  1.00  0.00    -0.003 C 
ATOM      9  C   UNL     1      91.820  95.935  77.045  1.00  0.00     0.004 C 
ENDBRANCH   7   8
ENDBRANCH   6   7
ENDBRANCH   5   6
ENDBRANCH   2   5
ENDBRANCH   1   2
BRANCH   1  10
ATOM     10  C   UNL     1      96.597  94.384  80.303  1.00  0.00     0.135 C 
ATOM     11  O   UNL     1      95.513  94.374  80.885  1.00  0.00    -0.300 OA
BRANCH  10  12
ATOM     12  C   UNL     1      97.919  94.511  81.045  1.00  0.00     0.080 C 
BRANCH  12  13
ATOM     13  C   UNL     1      97.913  95.589  82.130  1.00  0.00     0.043 C 
BRANCH  13  14
ATOM     14  C   UNL     1      97.616  96.969  81.593  1.00  0.00    -0.044 A 
ATOM     15  C   UNL     1      96.658  97.769  82.215  1.00  0.00     0.054 A 
ATOM     16  C   UNL     1      98.300  97.442  80.473  1.00  0.00     0.008 A 
ATOM     17  C   UNL     1      96.385  99.043  81.718  1.00  0.00     0.160 A 
ATOM     18  C   UNL     1      98.027  98.717  79.976  1.00  0.00     0.050 A 
ATOM     19  C   UNL     1      97.069  99.517  80.598  1.00  0.00     0.157 A 
BRANCH  17  20
ATOM     20  O   UNL     1      95.447  99.815  82.335  1.00  0.00    -0.493 OA
ATOM     21  C   UNL     1      95.779 100.336  83.621  1.00  0.00     0.278 C 
ENDBRANCH  17  20
BRANCH  19  22
ATOM     22  O   UNL     1      96.811 100.760  80.104  1.00  0.00    -0.504 OA
ATOM     23  H   UNL     1      95.852 100.852  79.965  1.00  0.00     0.293 HD
ENDBRANCH  19  22
ENDBRANCH  13  14
ENDBRANCH  12  13
ENDBRANCH  10  12
ENDBRANCH   1  10
TORSDOF 12
ENDMDL
