MODEL 1
REMARK VINA RESULT:    -7.501      0.000      0.000
REMARK INTER + INTRA:         -13.094
REMARK INTER:                 -12.762
REMARK INTRA:                  -0.331
REMARK UNBOUND:                -0.331
REMARK SMILES C=C(C)[C@]12C[C@@H](C)[C@@]34O[C@](Cc5ccccc5)(O[C@@H]1[C@@H]3C=C(COC(=O)Cc1ccc(O)cc1)C[C@]1(O)C(=O)C(C)=C[C@@H]41)O2
REMARK SMILES IDX 23 1 22 2 21 3 20 4 9 5 8 6 10 7 6 8 18 10 44 11 19 12 5 13
REMARK SMILES IDX 7 14 4 15 11 16 12 17 13 18 17 19 14 20 16 21 15 22 2 23
REMARK SMILES IDX 3 24 1 25 35 26 36 27 43 28 38 29 42 30 39 32 40 33 41 34
REMARK SMILES IDX 37 35 24 37 25 38 26 39 27 40 28 41 29 42 34 43 30 44 33 45
REMARK SMILES IDX 31 46 32 47
REMARK H PARENT 37 36 32 48
REMARK Flexibility Score: 90.00
ROOT
ATOM      1  C   UNL     1      96.766  83.538  78.799  1.00  0.00     0.264 C 
ENDROOT
BRANCH   1   2
ATOM      2  C   UNL     1      97.457  82.516  79.671  1.00  0.00    -0.033 C 
ATOM      3  C   UNL     1      97.347  82.611  81.013  1.00  0.00    -0.015 C 
BRANCH   3   4
ATOM      4  C   UNL     1      97.997  81.767  82.097  1.00  0.00     0.078 C 
ATOM      5  O   UNL     1      96.424  79.933  82.624  1.00  0.00    -0.319 OA
ATOM      6  C   UNL     1      97.753  80.213  82.083  1.00  0.00     0.095 CG0
ATOM      7  C   UNL     1      96.062  80.694  83.792  1.00  0.00     0.289 C 
ATOM      8  C   UNL     1      98.848  79.547  83.015  1.00  0.00     0.023 C 
ATOM      9  G   UNL     1      97.700  79.674  80.624  1.00  0.00     0.000 G0
ATOM     10  O   UNL     1      96.131  82.094  83.540  1.00  0.00    -0.320 OA
ATOM     11  O   UNL     1      96.942  80.456  84.888  1.00  0.00    -0.313 OA
ATOM     12  C   UNL     1      97.555  82.272  83.493  1.00  0.00     0.170 C 
ATOM     13  C   UNL     1      99.223  80.476  84.210  1.00  0.00     0.049 C 
ATOM     14  C   UNL     1      98.500  78.147  83.548  1.00  0.00     0.011 C 
ATOM     15  C   UNL     1      98.045  81.352  84.638  1.00  0.00     0.122 C 
BRANCH   7  16
ATOM     16  C   UNL     1      94.649  80.312  84.188  1.00  0.00     0.135 C 
BRANCH  16  17
ATOM     17  C   UNL     1      93.930  81.444  84.879  1.00  0.00    -0.040 A 
ATOM     18  C   UNL     1      94.493  82.045  86.004  1.00  0.00     0.004 A 
ATOM     19  C   UNL     1      92.701  81.888  84.391  1.00  0.00     0.004 A 
ATOM     20  C   UNL     1      93.827  83.092  86.643  1.00  0.00     0.000 A 
ATOM     21  C   UNL     1      92.035  82.935  85.030  1.00  0.00     0.000 A 
ATOM     22  C   UNL     1      92.598  83.536  86.155  1.00  0.00     0.000 A 
ENDBRANCH  16  17
ENDBRANCH   7  16
BRANCH  15  23
ATOM     23  C   UNL     1      98.324  82.116  85.891  1.00  0.00    -0.046 C 
ATOM     24  C   UNL     1      97.971  83.574  85.870  1.00  0.00     0.042 C 
ATOM     25  C   UNL     1      98.859  81.533  86.974  1.00  0.00     0.010 C 
ENDBRANCH  15  23
ENDBRANCH   3   4
BRANCH   2  26
ATOM     26  C   UNL     1      98.211  81.466  78.876  1.00  0.00     0.078 C 
BRANCH  26  27
ATOM     27  C   UNL     1      98.748  80.260  79.645  1.00  0.00     0.140 C 
ATOM     28  C   UNL     1      97.709  79.686  80.630  1.00  0.00     0.086 CG0
ATOM     29  C   UNL     1      99.030  79.077  78.743  1.00  0.00     0.190 C 
ATOM     30  C   UNL     1      97.780  78.204  80.389  1.00  0.00    -0.010 C 
ATOM     31  G   UNL     1      97.775  80.227  82.088  1.00  0.00     0.000 G0
ATOM     32  O   UNL     1      99.662  79.118  77.698  1.00  0.00    -0.291 OA
ATOM     33  C   UNL     1      98.491  77.831  79.321  1.00  0.00    -0.008 C 
ATOM     34  C   UNL     1      98.707  76.489  78.742  1.00  0.00     0.048 C 
BRANCH  27  35
ATOM     35  O   UNL     1     100.005  80.542  80.237  1.00  0.00    -0.381 OA
ATOM     36  H   UNL     1      99.851  81.015  81.073  1.00  0.00     0.212 HD
ENDBRANCH  27  35
ENDBRANCH  26  27
ENDBRANCH   2  26
ENDBRANCH   1   2
BRANCH   1  37
ATOM     37  O   UNL     1      97.656  83.970  77.792  1.00  0.00    -0.461 OA
BRANCH  37  38
ATOM     38  C   UNL     1      97.121  84.125  76.534  1.00  0.00     0.310 C 
ATOM     39  O   UNL     1      96.164  84.835  76.260  1.00  0.00    -0.252 OA
BRANCH  38  40
ATOM     40  C   UNL     1      97.898  83.284  75.549  1.00  0.00     0.158 C 
BRANCH  40  41
ATOM     41  C   UNL     1      98.943  84.071  74.802  1.00  0.00    -0.037 A 
ATOM     42  C   UNL     1      98.597  84.766  73.643  1.00  0.00     0.008 A 
ATOM     43  C   UNL     1     100.257  84.104  75.267  1.00  0.00     0.008 A 
ATOM     44  C   UNL     1      99.565  85.493  72.950  1.00  0.00     0.046 A 
ATOM     45  C   UNL     1     101.226  84.832  74.575  1.00  0.00     0.046 A 
ATOM     46  C   UNL     1     100.880  85.526  73.416  1.00  0.00     0.115 A 
BRANCH  46  47
ATOM     47  O   UNL     1     101.824  86.236  72.740  1.00  0.00    -0.508 OA
ATOM     48  H   UNL     1     102.071  87.015  73.268  1.00  0.00     0.293 HD
ENDBRANCH  46  47
ENDBRANCH  40  41
ENDBRANCH  38  40
ENDBRANCH  37  38
ENDBRANCH   1  37
TORSDOF 10
ENDMDL
MODEL 2
REMARK VINA RESULT:    -7.358     33.804     37.687
REMARK INTER + INTRA:         -12.851
REMARK INTER:                 -12.243
REMARK INTRA:                  -0.608
REMARK UNBOUND:                -0.331
REMARK SMILES C=C(C)[C@]12C[C@@H](C)[C@@]34O[C@](Cc5ccccc5)(O[C@@H]1[C@@H]3C=C(COC(=O)Cc1ccc(O)cc1)C[C@]1(O)C(=O)C(C)=C[C@@H]41)O2
REMARK SMILES IDX 23 1 22 2 21 3 20 4 9 5 8 6 10 7 6 8 18 10 44 11 19 12 5 13
REMARK SMILES IDX 7 14 4 15 11 16 12 17 13 18 17 19 14 20 16 21 15 22 2 23
REMARK SMILES IDX 3 24 1 25 35 26 36 27 43 28 38 29 42 30 39 32 40 33 41 34
REMARK SMILES IDX 37 35 24 37 25 38 26 39 27 40 28 41 29 42 34 43 30 44 33 45
REMARK SMILES IDX 31 46 32 47
REMARK H PARENT 37 36 32 48
REMARK Flexibility Score: 90.00
ROOT
ATOM      1  C   UNL     1      59.281  88.647  72.288  1.00  0.00     0.264 C 
ENDROOT
BRANCH   1   2
ATOM      2  C   UNL     1      60.302  87.781  72.989  1.00  0.00    -0.033 C 
ATOM      3  C   UNL     1      60.897  86.780  72.307  1.00  0.00    -0.015 C 
BRANCH   3   4
ATOM      4  C   UNL     1      61.885  85.734  72.796  1.00  0.00     0.078 C 
ATOM      5  O   UNL     1      64.151  86.627  72.367  1.00  0.00    -0.319 OA
ATOM      6  C   UNL     1      63.238  86.222  73.434  1.00  0.00     0.095 CG0
ATOM      7  C   UNL     1      64.186  85.753  71.222  1.00  0.00     0.289 C 
ATOM      8  C   UNL     1      63.864  84.999  74.223  1.00  0.00     0.023 C 
ATOM      9  G   UNL     1      63.020  87.516  74.270  1.00  0.00     0.000 G0
ATOM     10  O   UNL     1      62.893  85.609  70.641  1.00  0.00    -0.320 OA
ATOM     11  O   UNL     1      64.606  84.433  71.560  1.00  0.00    -0.313 OA
ATOM     12  C   UNL     1      62.263  84.783  71.633  1.00  0.00     0.170 C 
ATOM     13  C   UNL     1      63.534  83.642  73.531  1.00  0.00     0.049 C 
ATOM     14  C   UNL     1      65.378  85.085  74.482  1.00  0.00     0.011 C 
ATOM     15  C   UNL     1      63.394  83.798  72.016  1.00  0.00     0.122 C 
BRANCH   7  16
ATOM     16  C   UNL     1      65.143  86.342  70.205  1.00  0.00     0.135 C 
BRANCH  16  17
ATOM     17  C   UNL     1      66.470  85.626  70.195  1.00  0.00    -0.040 A 
ATOM     18  C   UNL     1      67.423  85.908  71.173  1.00  0.00     0.004 A 
ATOM     19  C   UNL     1      66.744  84.681  69.206  1.00  0.00     0.004 A 
ATOM     20  C   UNL     1      68.650  85.245  71.164  1.00  0.00     0.000 A 
ATOM     21  C   UNL     1      67.972  84.018  69.197  1.00  0.00     0.000 A 
ATOM     22  C   UNL     1      68.924  84.300  70.175  1.00  0.00     0.000 A 
ENDBRANCH  16  17
ENDBRANCH   7  16
BRANCH  15  23
ATOM     23  C   UNL     1      63.258  82.486  71.314  1.00  0.00    -0.046 C 
ATOM     24  C   UNL     1      62.634  81.374  72.105  1.00  0.00     0.042 C 
ATOM     25  C   UNL     1      63.669  82.312  70.050  1.00  0.00     0.010 C 
ENDBRANCH  15  23
ENDBRANCH   3   4
BRANCH   2  26
ATOM     26  C   UNL     1      60.532  88.182  74.434  1.00  0.00     0.078 C 
BRANCH  26  27
ATOM     27  C   UNL     1      61.722  87.550  75.153  1.00  0.00     0.140 C 
ATOM     28  C   UNL     1      62.989  87.523  74.272  1.00  0.00     0.086 CG0
ATOM     29  C   UNL     1      62.175  88.361  76.348  1.00  0.00     0.190 C 
ATOM     30  C   UNL     1      64.068  88.012  75.197  1.00  0.00    -0.010 C 
ATOM     31  G   UNL     1      63.221  86.224  73.446  1.00  0.00     0.000 G0
ATOM     32  O   UNL     1      61.445  88.797  77.226  1.00  0.00    -0.291 OA
ATOM     33  C   UNL     1      63.642  88.516  76.359  1.00  0.00    -0.008 C 
ATOM     34  C   UNL     1      64.401  89.151  77.456  1.00  0.00     0.048 C 
BRANCH  27  35
ATOM     35  O   UNL     1      61.383  86.290  75.708  1.00  0.00    -0.381 OA
ATOM     36  H   UNL     1      61.560  86.318  76.663  1.00  0.00     0.212 HD
ENDBRANCH  27  35
ENDBRANCH  26  27
ENDBRANCH   2  26
ENDBRANCH   1   2
BRANCH   1  37
ATOM     37  O   UNL     1      59.945  89.537  71.416  1.00  0.00    -0.461 OA
BRANCH  37  38
ATOM     38  C   UNL     1      59.269  89.882  70.269  1.00  0.00     0.310 C 
ATOM     39  O   UNL     1      59.653  90.701  69.446  1.00  0.00    -0.252 OA
BRANCH  38  40
ATOM     40  C   UNL     1      57.984  89.093  70.186  1.00  0.00     0.158 C 
BRANCH  40  41
ATOM     41  C   UNL     1      56.921  89.785  69.372  1.00  0.00    -0.037 A 
ATOM     42  C   UNL     1      56.567  89.285  68.119  1.00  0.00     0.008 A 
ATOM     43  C   UNL     1      56.292  90.925  69.871  1.00  0.00     0.008 A 
ATOM     44  C   UNL     1      55.583  89.926  67.364  1.00  0.00     0.046 A 
ATOM     45  C   UNL     1      55.308  91.566  69.117  1.00  0.00     0.046 A 
ATOM     46  C   UNL     1      54.954  91.067  67.864  1.00  0.00     0.115 A 
BRANCH  46  47
ATOM     47  O   UNL     1      53.995  91.692  67.129  1.00  0.00    -0.508 OA
ATOM     48  H   UNL     1      54.308  91.779  66.211  1.00  0.00     0.293 HD
ENDBRANCH  46  47
ENDBRANCH  40  41
ENDBRANCH  38  40
ENDBRANCH  37  38
ENDBRANCH   1  37
TORSDOF 10
ENDMDL
MODEL 3
REMARK VINA RESULT:    -7.341      2.927      9.111
REMARK INTER + INTRA:         -12.822
REMARK INTER:                 -12.614
REMARK INTRA:                  -0.208
REMARK UNBOUND:                -0.331
REMARK SMILES C=C(C)[C@]12C[C@@H](C)[C@@]34O[C@](Cc5ccccc5)(O[C@@H]1[C@@H]3C=C(COC(=O)Cc1ccc(O)cc1)C[C@]1(O)C(=O)C(C)=C[C@@H]41)O2
REMARK SMILES IDX 23 1 22 2 21 3 20 4 9 5 8 6 10 7 6 8 18 10 44 11 19 12 5 13
REMARK SMILES IDX 7 14 4 15 11 16 12 17 13 18 17 19 14 20 16 21 15 22 2 23
REMARK SMILES IDX 3 24 1 25 35 26 36 27 43 28 38 29 42 30 39 32 40 33 41 34
REMARK SMILES IDX 37 35 24 37 25 38 26 39 27 40 28 41 29 42 34 43 30 44 33 45
REMARK SMILES IDX 31 46 32 47
REMARK H PARENT 37 36 32 48
REMARK Flexibility Score: 90.00
ROOT
ATOM      1  C   UNL     1      94.301  81.334  84.309  1.00  0.00     0.264 C 
ENDROOT
BRANCH   1   2
ATOM      2  C   UNL     1      95.672  80.700  84.297  1.00  0.00    -0.033 C 
ATOM      3  C   UNL     1      96.210  80.317  83.120  1.00  0.00    -0.015 C 
BRANCH   3   4
ATOM      4  C   UNL     1      97.521  79.597  82.848  1.00  0.00     0.078 C 
ATOM      5  O   UNL     1      99.231  81.339  82.450  1.00  0.00    -0.319 OA
ATOM      6  C   UNL     1      98.856  80.255  83.356  1.00  0.00     0.095 CG0
ATOM      7  C   UNL     1      99.077  81.049  81.047  1.00  0.00     0.289 C 
ATOM      8  C   UNL     1      99.981  79.139  83.331  1.00  0.00     0.023 C 
ATOM      9  G   UNL     1      98.640  80.955  84.730  1.00  0.00     0.000 G0
ATOM     10  O   UNL     1      97.735  80.683  80.739  1.00  0.00    -0.320 OA
ATOM     11  O   UNL     1      99.882  79.950  80.629  1.00  0.00    -0.313 OA
ATOM     12  C   UNL     1      97.691  79.372  81.325  1.00  0.00     0.170 C 
ATOM     13  C   UNL     1      99.762  78.132  82.160  1.00  0.00     0.049 C 
ATOM     14  C   UNL     1     101.428  79.660  83.291  1.00  0.00     0.011 C 
ATOM     15  C   UNL     1      99.082  78.797  80.962  1.00  0.00     0.122 C 
BRANCH   7  16
ATOM     16  C   UNL     1      99.465  82.286  80.262  1.00  0.00     0.135 C 
BRANCH  16  17
ATOM     17  C   UNL     1      98.448  82.625  79.200  1.00  0.00    -0.040 A 
ATOM     18  C   UNL     1      97.295  83.333  79.539  1.00  0.00     0.004 A 
ATOM     19  C   UNL     1      98.662  82.230  77.880  1.00  0.00     0.004 A 
ATOM     20  C   UNL     1      96.355  83.647  78.557  1.00  0.00     0.000 A 
ATOM     21  C   UNL     1      97.721  82.543  76.898  1.00  0.00     0.000 A 
ATOM     22  C   UNL     1      96.569  83.252  77.236  1.00  0.00     0.000 A 
ENDBRANCH  16  17
ENDBRANCH   7  16
BRANCH  15  23
ATOM     23  C   UNL     1      99.025  77.903  79.766  1.00  0.00    -0.046 C 
ATOM     24  C   UNL     1      98.008  76.802  79.811  1.00  0.00     0.042 C 
ATOM     25  C   UNL     1      99.838  78.074  78.713  1.00  0.00     0.010 C 
ENDBRANCH  15  23
ENDBRANCH   3   4
BRANCH   2  26
ATOM     26  C   UNL     1      96.287  80.583  85.679  1.00  0.00     0.078 C 
BRANCH  26  27
ATOM     27  C   UNL     1      97.759  80.182  85.756  1.00  0.00     0.140 C 
ATOM     28  C   UNL     1      98.627  80.946  84.735  1.00  0.00     0.086 CG0
ATOM     29  C   UNL     1      98.396  80.564  87.075  1.00  0.00     0.190 C 
ATOM     30  C   UNL     1      99.817  81.381  85.543  1.00  0.00    -0.010 C 
ATOM     31  G   UNL     1      98.850  80.245  83.363  1.00  0.00     0.000 G0
ATOM     32  O   UNL     1      97.927  80.336  88.180  1.00  0.00    -0.291 OA
ATOM     33  C   UNL     1      99.707  81.206  86.863  1.00  0.00    -0.008 C 
ATOM     34  C   UNL     1     100.630  81.585  87.954  1.00  0.00     0.048 C 
BRANCH  27  35
ATOM     35  O   UNL     1      97.916  78.774  85.700  1.00  0.00    -0.381 OA
ATOM     36  H   UNL     1      98.745  78.540  86.152  1.00  0.00     0.212 HD
ENDBRANCH  27  35
ENDBRANCH  26  27
ENDBRANCH   2  26
ENDBRANCH   1   2
BRANCH   1  37
ATOM     37  O   UNL     1      93.745  81.218  85.602  1.00  0.00    -0.461 OA
BRANCH  37  38
ATOM     38  C   UNL     1      92.393  80.966  85.662  1.00  0.00     0.310 C 
ATOM     39  O   UNL     1      91.778  80.675  86.677  1.00  0.00    -0.252 OA
BRANCH  38  40
ATOM     40  C   UNL     1      91.793  81.106  84.283  1.00  0.00     0.158 C 
BRANCH  40  41
ATOM     41  C   UNL     1      90.295  81.264  84.308  1.00  0.00    -0.037 A 
ATOM     42  C   UNL     1      89.477  80.226  83.862  1.00  0.00     0.008 A 
ATOM     43  C   UNL     1      89.726  82.448  84.776  1.00  0.00     0.008 A 
ATOM     44  C   UNL     1      88.090  80.372  83.883  1.00  0.00     0.046 A 
ATOM     45  C   UNL     1      88.338  82.594  84.798  1.00  0.00     0.046 A 
ATOM     46  C   UNL     1      87.521  81.557  84.352  1.00  0.00     0.115 A 
BRANCH  46  47
ATOM     47  O   UNL     1      86.167  81.700  84.372  1.00  0.00    -0.508 OA
ATOM     48  H   UNL     1      85.925  82.486  83.853  1.00  0.00     0.293 HD
ENDBRANCH  46  47
ENDBRANCH  40  41
ENDBRANCH  38  40
ENDBRANCH  37  38
ENDBRANCH   1  37
TORSDOF 10
ENDMDL
MODEL 4
REMARK VINA RESULT:    -7.326      4.970      8.933
REMARK INTER + INTRA:         -12.796
REMARK INTER:                 -12.525
REMARK INTRA:                  -0.271
REMARK UNBOUND:                -0.331
REMARK SMILES C=C(C)[C@]12C[C@@H](C)[C@@]34O[C@](Cc5ccccc5)(O[C@@H]1[C@@H]3C=C(COC(=O)Cc1ccc(O)cc1)C[C@]1(O)C(=O)C(C)=C[C@@H]41)O2
REMARK SMILES IDX 23 1 22 2 21 3 20 4 9 5 8 6 10 7 6 8 18 10 44 11 19 12 5 13
REMARK SMILES IDX 7 14 4 15 11 16 12 17 13 18 17 19 14 20 16 21 15 22 2 23
REMARK SMILES IDX 3 24 1 25 35 26 36 27 43 28 38 29 42 30 39 32 40 33 41 34
REMARK SMILES IDX 37 35 24 37 25 38 26 39 27 40 28 41 29 42 34 43 30 44 33 45
REMARK SMILES IDX 31 46 32 47
REMARK H PARENT 37 36 32 48
REMARK Flexibility Score: 90.00
ROOT
ATOM      1  C   UNL     1      93.357  84.288  87.718  1.00  0.00     0.264 C 
ENDROOT
BRANCH   1   2
ATOM      2  C   UNL     1      94.667  83.850  87.105  1.00  0.00    -0.033 C 
ATOM      3  C   UNL     1      95.401  82.903  87.725  1.00  0.00    -0.015 C 
BRANCH   3   4
ATOM      4  C   UNL     1      96.769  82.350  87.361  1.00  0.00     0.078 C 
ATOM      5  O   UNL     1      96.389  80.373  85.925  1.00  0.00    -0.319 OA
ATOM      6  C   UNL     1      96.965  81.716  85.935  1.00  0.00     0.095 CG0
ATOM      7  C   UNL     1      96.663  79.577  87.094  1.00  0.00     0.289 C 
ATOM      8  C   UNL     1      98.523  81.620  85.663  1.00  0.00     0.023 C 
ATOM      9  G   UNL     1      96.147  82.497  84.865  1.00  0.00     0.000 G0
ATOM     10  O   UNL     1      96.209  80.225  88.279  1.00  0.00    -0.320 OA
ATOM     11  O   UNL     1      98.059  79.358  87.286  1.00  0.00    -0.313 OA
ATOM     12  C   UNL     1      97.190  81.269  88.387  1.00  0.00     0.170 C 
ATOM     13  C   UNL     1      99.318  81.353  86.977  1.00  0.00     0.049 C 
ATOM     14  C   UNL     1      98.946  80.596  84.595  1.00  0.00     0.011 C 
ATOM     15  C   UNL     1      98.496  80.544  87.981  1.00  0.00     0.122 C 
BRANCH   7  16
ATOM     16  C   UNL     1      95.960  78.244  86.936  1.00  0.00     0.135 C 
BRANCH  16  17
ATOM     17  C   UNL     1      94.703  78.360  86.111  1.00  0.00    -0.040 A 
ATOM     18  C   UNL     1      94.480  77.484  85.050  1.00  0.00     0.004 A 
ATOM     19  C   UNL     1      93.763  79.346  86.411  1.00  0.00     0.004 A 
ATOM     20  C   UNL     1      93.316  77.592  84.288  1.00  0.00     0.000 A 
ATOM     21  C   UNL     1      92.599  79.454  85.649  1.00  0.00     0.000 A 
ATOM     22  C   UNL     1      92.377  78.577  84.588  1.00  0.00     0.000 A 
ENDBRANCH  16  17
ENDBRANCH   7  16
BRANCH  15  23
ATOM     23  C   UNL     1      99.297  80.122  89.171  1.00  0.00    -0.046 C 
ATOM     24  C   UNL     1     100.053  78.833  89.037  1.00  0.00     0.042 C 
ATOM     25  C   UNL     1      99.337  80.854  90.294  1.00  0.00     0.010 C 
ENDBRANCH  15  23
ENDBRANCH   3   4
BRANCH   2  26
ATOM     26  C   UNL     1      94.986  84.567  85.807  1.00  0.00     0.078 C 
BRANCH  26  27
ATOM     27  C   UNL     1      96.175  84.051  84.998  1.00  0.00     0.140 C 
ATOM     28  C   UNL     1      96.170  82.513  84.870  1.00  0.00     0.086 CG0
ATOM     29  C   UNL     1      96.131  84.498  83.552  1.00  0.00     0.190 C 
ATOM     30  C   UNL     1      96.458  82.283  83.412  1.00  0.00    -0.010 C 
ATOM     31  G   UNL     1      96.984  81.733  85.942  1.00  0.00     0.000 G0
ATOM     32  O   UNL     1      95.937  85.642  83.171  1.00  0.00    -0.291 OA
ATOM     33  C   UNL     1      96.416  83.373  82.641  1.00  0.00    -0.008 C 
ATOM     34  C   UNL     1      96.565  83.510  81.178  1.00  0.00     0.048 C 
BRANCH  27  35
ATOM     35  O   UNL     1      97.399  84.581  85.479  1.00  0.00    -0.381 OA
ATOM     36  H   UNL     1      97.284  84.814  86.416  1.00  0.00     0.212 HD
ENDBRANCH  27  35
ENDBRANCH  26  27
ENDBRANCH   2  26
ENDBRANCH   1   2
BRANCH   1  37
ATOM     37  O   UNL     1      93.574  84.669  89.060  1.00  0.00    -0.461 OA
BRANCH  37  38
ATOM     38  C   UNL     1      93.649  86.021  89.303  1.00  0.00     0.310 C 
ATOM     39  O   UNL     1      94.043  86.527  90.345  1.00  0.00    -0.252 OA
BRANCH  38  40
ATOM     40  C   UNL     1      93.170  86.779  88.088  1.00  0.00     0.158 C 
BRANCH  40  41
ATOM     41  C   UNL     1      93.603  88.222  88.087  1.00  0.00    -0.037 A 
ATOM     42  C   UNL     1      93.022  89.125  88.978  1.00  0.00     0.008 A 
ATOM     43  C   UNL     1      94.583  88.656  87.195  1.00  0.00     0.008 A 
ATOM     44  C   UNL     1      93.422  90.461  88.977  1.00  0.00     0.046 A 
ATOM     45  C   UNL     1      94.983  89.993  87.194  1.00  0.00     0.046 A 
ATOM     46  C   UNL     1      94.403  90.895  88.084  1.00  0.00     0.115 A 
BRANCH  46  47
ATOM     47  O   UNL     1      94.792  92.199  88.083  1.00  0.00    -0.508 OA
ATOM     48  H   UNL     1      95.419  92.342  88.813  1.00  0.00     0.293 HD
ENDBRANCH  46  47
ENDBRANCH  40  41
ENDBRANCH  38  40
ENDBRANCH  37  38
ENDBRANCH   1  37
TORSDOF 10
ENDMDL
MODEL 5
REMARK VINA RESULT:    -7.302      4.026      8.539
REMARK INTER + INTRA:         -12.755
REMARK INTER:                 -12.077
REMARK INTRA:                  -0.678
REMARK UNBOUND:                -0.331
REMARK SMILES C=C(C)[C@]12C[C@@H](C)[C@@]34O[C@](Cc5ccccc5)(O[C@@H]1[C@@H]3C=C(COC(=O)Cc1ccc(O)cc1)C[C@]1(O)C(=O)C(C)=C[C@@H]41)O2
REMARK SMILES IDX 23 1 22 2 21 3 20 4 9 5 8 6 10 7 6 8 18 10 44 11 19 12 5 13
REMARK SMILES IDX 7 14 4 15 11 16 12 17 13 18 17 19 14 20 16 21 15 22 2 23
REMARK SMILES IDX 3 24 1 25 35 26 36 27 43 28 38 29 42 30 39 32 40 33 41 34
REMARK SMILES IDX 37 35 24 37 25 38 26 39 27 40 28 41 29 42 34 43 30 44 33 45
REMARK SMILES IDX 31 46 32 47
REMARK H PARENT 37 36 32 48
REMARK Flexibility Score: 90.00
ROOT
ATOM      1  C   UNL     1      92.616  82.919  85.176  1.00  0.00     0.264 C 
ENDROOT
BRANCH   1   2
ATOM      2  C   UNL     1      94.056  82.472  85.067  1.00  0.00    -0.033 C 
ATOM      3  C   UNL     1      94.578  81.689  86.033  1.00  0.00    -0.015 C 
BRANCH   3   4
ATOM      4  C   UNL     1      95.999  81.174  86.195  1.00  0.00     0.078 C 
ATOM      5  O   UNL     1      96.093  78.962  85.093  1.00  0.00    -0.319 OA
ATOM      6  C   UNL     1      96.624  80.322  85.029  1.00  0.00     0.095 CG0
ATOM      7  C   UNL     1      96.011  78.395  86.415  1.00  0.00     0.289 C 
ATOM      8  C   UNL     1      98.192  80.284  85.250  1.00  0.00     0.023 C 
ATOM      9  G   UNL     1      96.157  80.856  83.643  1.00  0.00     0.000 G0
ATOM     10  O   UNL     1      95.213  79.202  87.276  1.00  0.00    -0.320 OA
ATOM     11  O   UNL     1      97.287  78.303  87.046  1.00  0.00    -0.313 OA
ATOM     12  C   UNL     1      96.103  80.311  87.477  1.00  0.00     0.170 C 
ATOM     13  C   UNL     1      98.556  80.296  86.767  1.00  0.00     0.049 C 
ATOM     14  C   UNL     1      98.929  79.124  84.559  1.00  0.00     0.011 C 
ATOM     15  C   UNL     1      97.480  79.616  87.613  1.00  0.00     0.122 C 
BRANCH   7  16
ATOM     16  C   UNL     1      95.404  77.011  86.301  1.00  0.00     0.135 C 
BRANCH  16  17
ATOM     17  C   UNL     1      95.426  76.498  84.882  1.00  0.00    -0.040 A 
ATOM     18  C   UNL     1      94.256  76.494  84.124  1.00  0.00     0.004 A 
ATOM     19  C   UNL     1      96.617  76.028  84.330  1.00  0.00     0.004 A 
ATOM     20  C   UNL     1      94.276  76.020  82.812  1.00  0.00     0.000 A 
ATOM     21  C   UNL     1      96.637  75.554  83.018  1.00  0.00     0.000 A 
ATOM     22  C   UNL     1      95.467  75.550  82.260  1.00  0.00     0.000 A 
ENDBRANCH  16  17
ENDBRANCH   7  16
BRANCH  15  23
ATOM     23  C   UNL     1      97.889  79.455  89.041  1.00  0.00    -0.046 C 
ATOM     24  C   UNL     1      97.520  78.155  89.693  1.00  0.00     0.042 C 
ATOM     25  C   UNL     1      98.548  80.417  89.703  1.00  0.00     0.010 C 
ENDBRANCH  15  23
ENDBRANCH   3   4
BRANCH   2  26
ATOM     26  C   UNL     1      94.746  82.987  83.818  1.00  0.00     0.078 C 
BRANCH  26  27
ATOM     27  C   UNL     1      96.122  82.409  83.492  1.00  0.00     0.140 C 
ATOM     28  C   UNL     1      96.160  80.874  83.640  1.00  0.00     0.086 CG0
ATOM     29  C   UNL     1      96.504  82.605  82.040  1.00  0.00     0.190 C 
ATOM     30  C   UNL     1      96.866  80.419  82.393  1.00  0.00    -0.010 C 
ATOM     31  G   UNL     1      96.625  80.330  85.023  1.00  0.00     0.000 G0
ATOM     32  O   UNL     1      96.427  83.657  81.423  1.00  0.00    -0.291 OA
ATOM     33  C   UNL     1      97.049  81.361  81.463  1.00  0.00    -0.008 C 
ATOM     34  C   UNL     1      97.622  81.259  80.105  1.00  0.00     0.048 C 
BRANCH  27  35
ATOM     35  O   UNL     1      97.148  83.079  84.205  1.00  0.00    -0.381 OA
ATOM     36  H   UNL     1      96.734  83.639  84.883  1.00  0.00     0.212 HD
ENDBRANCH  27  35
ENDBRANCH  26  27
ENDBRANCH   2  26
ENDBRANCH   1   2
BRANCH   1  37
ATOM     37  O   UNL     1      91.836  82.214  84.235  1.00  0.00    -0.461 OA
BRANCH  37  38
ATOM     38  C   UNL     1      91.264  81.043  84.676  1.00  0.00     0.310 C 
ATOM     39  O   UNL     1      91.656  79.920  84.393  1.00  0.00    -0.252 OA
BRANCH  38  40
ATOM     40  C   UNL     1      90.082  81.362  85.560  1.00  0.00     0.158 C 
BRANCH  40  41
ATOM     41  C   UNL     1      88.846  81.727  84.779  1.00  0.00    -0.037 A 
ATOM     42  C   UNL     1      88.345  80.852  83.816  1.00  0.00     0.008 A 
ATOM     43  C   UNL     1      88.202  82.941  85.019  1.00  0.00     0.008 A 
ATOM     44  C   UNL     1      87.201  81.191  83.092  1.00  0.00     0.046 A 
ATOM     45  C   UNL     1      87.058  83.280  84.297  1.00  0.00     0.046 A 
ATOM     46  C   UNL     1      86.558  82.405  83.333  1.00  0.00     0.115 A 
BRANCH  46  47
ATOM     47  O   UNL     1      85.443  82.736  82.627  1.00  0.00    -0.508 OA
ATOM     48  H   UNL     1      84.658  82.428  83.114  1.00  0.00     0.293 HD
ENDBRANCH  46  47
ENDBRANCH  40  41
ENDBRANCH  38  40
ENDBRANCH  37  38
ENDBRANCH   1  37
TORSDOF 10
ENDMDL
MODEL 6
REMARK VINA RESULT:    -7.065      4.060      8.613
REMARK INTER + INTRA:         -12.353
REMARK INTER:                 -11.912
REMARK INTRA:                  -0.441
REMARK UNBOUND:                -0.331
REMARK SMILES C=C(C)[C@]12C[C@@H](C)[C@@]34O[C@](Cc5ccccc5)(O[C@@H]1[C@@H]3C=C(COC(=O)Cc1ccc(O)cc1)C[C@]1(O)C(=O)C(C)=C[C@@H]41)O2
REMARK SMILES IDX 23 1 22 2 21 3 20 4 9 5 8 6 10 7 6 8 18 10 44 11 19 12 5 13
REMARK SMILES IDX 7 14 4 15 11 16 12 17 13 18 17 19 14 20 16 21 15 22 2 23
REMARK SMILES IDX 3 24 1 25 35 26 36 27 43 28 38 29 42 30 39 32 40 33 41 34
REMARK SMILES IDX 37 35 24 37 25 38 26 39 27 40 28 41 29 42 34 43 30 44 33 45
REMARK SMILES IDX 31 46 32 47
REMARK H PARENT 37 36 32 48
REMARK Flexibility Score: 90.00
ROOT
ATOM      1  C   UNL     1      93.139  81.240  85.833  1.00  0.00     0.264 C 
ENDROOT
BRANCH   1   2
ATOM      2  C   UNL     1      94.575  81.258  85.363  1.00  0.00    -0.033 C 
ATOM      3  C   UNL     1      95.394  80.244  85.708  1.00  0.00    -0.015 C 
BRANCH   3   4
ATOM      4  C   UNL     1      96.879  80.066  85.431  1.00  0.00     0.078 C 
ATOM      5  O   UNL     1      97.070  78.778  83.328  1.00  0.00    -0.319 OA
ATOM      6  C   UNL     1      97.368  80.074  83.936  1.00  0.00     0.095 CG0
ATOM      7  C   UNL     1      97.349  77.632  84.156  1.00  0.00     0.289 C 
ATOM      8  C   UNL     1      98.936  80.300  83.945  1.00  0.00     0.023 C 
ATOM      9  G   UNL     1      96.550  81.094  83.092  1.00  0.00     0.000 G0
ATOM     10  O   UNL     1      96.636  77.697  85.387  1.00  0.00    -0.320 OA
ATOM     11  O   UNL     1      98.726  77.543  84.513  1.00  0.00    -0.313 OA
ATOM     12  C   UNL     1      97.373  78.735  86.051  1.00  0.00     0.170 C 
ATOM     13  C   UNL     1      99.600  79.648  85.197  1.00  0.00     0.049 C 
ATOM     14  C   UNL     1      99.678  79.842  82.678  1.00  0.00     0.011 C 
ATOM     15  C   UNL     1      98.836  78.408  85.662  1.00  0.00     0.122 C 
BRANCH   7  16
ATOM     16  C   UNL     1      96.944  76.386  83.393  1.00  0.00     0.135 C 
BRANCH  16  17
ATOM     17  C   UNL     1      95.659  75.795  83.916  1.00  0.00    -0.040 A 
ATOM     18  C   UNL     1      95.694  74.810  84.902  1.00  0.00     0.004 A 
ATOM     19  C   UNL     1      94.435  76.234  83.412  1.00  0.00     0.004 A 
ATOM     20  C   UNL     1      94.504  74.263  85.385  1.00  0.00     0.000 A 
ATOM     21  C   UNL     1      93.245  75.688  83.895  1.00  0.00     0.000 A 
ATOM     22  C   UNL     1      93.281  74.703  84.881  1.00  0.00     0.000 A 
ENDBRANCH  16  17
ENDBRANCH   7  16
BRANCH  15  23
ATOM     23  C   UNL     1      99.551  77.665  86.743  1.00  0.00    -0.046 C 
ATOM     24  C   UNL     1     101.026  77.474  86.550  1.00  0.00     0.042 C 
ATOM     25  C   UNL     1      98.911  77.195  87.824  1.00  0.00     0.010 C 
ENDBRANCH  15  23
ENDBRANCH   3   4
BRANCH   2  26
ATOM     26  C   UNL     1      94.909  82.474  84.518  1.00  0.00     0.078 C 
BRANCH  26  27
ATOM     27  C   UNL     1      96.246  82.463  83.778  1.00  0.00     0.140 C 
ATOM     28  C   UNL     1      96.530  81.103  83.107  1.00  0.00     0.086 CG0
ATOM     29  C   UNL     1      96.265  83.416  82.602  1.00  0.00     0.190 C 
ATOM     30  C   UNL     1      96.999  81.484  81.730  1.00  0.00    -0.010 C 
ATOM     31  G   UNL     1      97.362  80.087  83.943  1.00  0.00     0.000 G0
ATOM     32  O   UNL     1      95.906  84.584  82.631  1.00  0.00    -0.291 OA
ATOM     33  C   UNL     1      96.837  82.770  81.406  1.00  0.00    -0.008 C 
ATOM     34  C   UNL     1      97.102  83.471  80.133  1.00  0.00     0.048 C 
BRANCH  27  35
ATOM     35  O   UNL     1      97.300  82.925  84.606  1.00  0.00    -0.381 OA
ATOM     36  H   UNL     1      97.729  83.678  84.164  1.00  0.00     0.212 HD
ENDBRANCH  27  35
ENDBRANCH  26  27
ENDBRANCH   2  26
ENDBRANCH   1   2
BRANCH   1  37
ATOM     37  O   UNL     1      92.646  79.918  85.774  1.00  0.00    -0.461 OA
BRANCH  37  38
ATOM     38  C   UNL     1      91.891  79.599  84.669  1.00  0.00     0.310 C 
ATOM     39  O   UNL     1      91.640  78.463  84.294  1.00  0.00    -0.252 OA
BRANCH  38  40
ATOM     40  C   UNL     1      91.423  80.867  83.996  1.00  0.00     0.158 C 
BRANCH  40  41
ATOM     41  C   UNL     1      89.952  81.126  84.187  1.00  0.00    -0.037 A 
ATOM     42  C   UNL     1      89.014  80.219  83.694  1.00  0.00     0.008 A 
ATOM     43  C   UNL     1      89.526  82.273  84.858  1.00  0.00     0.008 A 
ATOM     44  C   UNL     1      87.651  80.459  83.871  1.00  0.00     0.046 A 
ATOM     45  C   UNL     1      88.163  82.513  85.035  1.00  0.00     0.046 A 
ATOM     46  C   UNL     1      87.226  81.607  84.542  1.00  0.00     0.115 A 
BRANCH  46  47
ATOM     47  O   UNL     1      85.896  81.841  84.713  1.00  0.00    -0.508 OA
ATOM     48  H   UNL     1      85.611  82.522  84.080  1.00  0.00     0.293 HD
ENDBRANCH  46  47
ENDBRANCH  40  41
ENDBRANCH  38  40
ENDBRANCH  37  38
ENDBRANCH   1  37
TORSDOF 10
ENDMDL
MODEL 7
REMARK VINA RESULT:    -6.911     25.869     29.214
REMARK INTER + INTRA:         -12.090
REMARK INTER:                 -11.049
REMARK INTRA:                  -1.042
REMARK UNBOUND:                -0.331
REMARK SMILES C=C(C)[C@]12C[C@@H](C)[C@@]34O[C@](Cc5ccccc5)(O[C@@H]1[C@@H]3C=C(COC(=O)Cc1ccc(O)cc1)C[C@]1(O)C(=O)C(C)=C[C@@H]41)O2
REMARK SMILES IDX 23 1 22 2 21 3 20 4 9 5 8 6 10 7 6 8 18 10 44 11 19 12 5 13
REMARK SMILES IDX 7 14 4 15 11 16 12 17 13 18 17 19 14 20 16 21 15 22 2 23
REMARK SMILES IDX 3 24 1 25 35 26 36 27 43 28 38 29 42 30 39 32 40 33 41 34
REMARK SMILES IDX 37 35 24 37 25 38 26 39 27 40 28 41 29 42 34 43 30 44 33 45
REMARK SMILES IDX 31 46 32 47
REMARK H PARENT 37 36 32 48
REMARK Flexibility Score: 90.00
ROOT
ATOM      1  C   UNL     1      70.455  85.705  66.532  1.00  0.00     0.264 C 
ENDROOT
BRANCH   1   2
ATOM      2  C   UNL     1      71.813  86.352  66.388  1.00  0.00    -0.033 C 
ATOM      3  C   UNL     1      71.984  87.625  66.803  1.00  0.00    -0.015 C 
BRANCH   3   4
ATOM      4  C   UNL     1      73.211  88.517  66.702  1.00  0.00     0.078 C 
ATOM      5  O   UNL     1      74.483  88.233  68.804  1.00  0.00    -0.319 OA
ATOM      6  C   UNL     1      74.552  88.022  67.359  1.00  0.00     0.095 CG0
ATOM      7  C   UNL     1      73.918  89.493  69.215  1.00  0.00     0.289 C 
ATOM      8  C   UNL     1      75.731  88.894  66.758  1.00  0.00     0.023 C 
ATOM      9  G   UNL     1      74.711  86.482  67.200  1.00  0.00     0.000 G0
ATOM     10  O   UNL     1      72.602  89.664  68.698  1.00  0.00    -0.320 OA
ATOM     11  O   UNL     1      74.668  90.607  68.734  1.00  0.00    -0.313 OA
ATOM     12  C   UNL     1      72.904  89.905  67.315  1.00  0.00     0.170 C 
ATOM     13  C   UNL     1      75.264  90.348  66.445  1.00  0.00     0.049 C 
ATOM     14  C   UNL     1      77.015  88.942  67.604  1.00  0.00     0.011 C 
ATOM     15  C   UNL     1      74.160  90.807  67.399  1.00  0.00     0.122 C 
BRANCH   7  16
ATOM     16  C   UNL     1      73.883  89.526  70.730  1.00  0.00     0.135 C 
BRANCH  16  17
ATOM     17  C   UNL     1      73.543  90.897  71.260  1.00  0.00    -0.040 A 
ATOM     18  C   UNL     1      74.555  91.830  71.482  1.00  0.00     0.004 A 
ATOM     19  C   UNL     1      72.216  91.231  71.526  1.00  0.00     0.004 A 
ATOM     20  C   UNL     1      74.241  93.098  71.971  1.00  0.00     0.000 A 
ATOM     21  C   UNL     1      71.901  92.499  72.016  1.00  0.00     0.000 A 
ATOM     22  C   UNL     1      72.913  93.432  72.238  1.00  0.00     0.000 A 
ENDBRANCH  16  17
ENDBRANCH   7  16
BRANCH  15  23
ATOM     23  C   UNL     1      73.825  92.253  67.236  1.00  0.00    -0.046 C 
ATOM     24  C   UNL     1      74.236  92.886  65.939  1.00  0.00     0.042 C 
ATOM     25  C   UNL     1      73.192  92.947  68.193  1.00  0.00     0.010 C 
ENDBRANCH  15  23
ENDBRANCH   3   4
BRANCH   2  26
ATOM     26  C   UNL     1      72.850  85.432  65.773  1.00  0.00     0.078 C 
BRANCH  26  27
ATOM     27  C   UNL     1      74.304  85.899  65.803  1.00  0.00     0.140 C 
ATOM     28  C   UNL     1      74.711  86.454  67.183  1.00  0.00     0.086 CG0
ATOM     29  C   UNL     1      75.283  84.761  65.609  1.00  0.00     0.190 C 
ATOM     30  C   UNL     1      76.042  85.806  67.443  1.00  0.00    -0.010 C 
ATOM     31  G   UNL     1      74.559  87.992  67.376  1.00  0.00     0.000 G0
ATOM     32  O   UNL     1      75.220  83.915  64.729  1.00  0.00    -0.291 OA
ATOM     33  C   UNL     1      76.380  84.832  66.593  1.00  0.00    -0.008 C 
ATOM     34  C   UNL     1      77.555  83.936  66.591  1.00  0.00     0.048 C 
BRANCH  27  35
ATOM     35  O   UNL     1      74.589  86.777  64.726  1.00  0.00    -0.381 OA
ATOM     36  H   UNL     1      73.851  87.405  64.640  1.00  0.00     0.212 HD
ENDBRANCH  27  35
ENDBRANCH  26  27
ENDBRANCH   2  26
ENDBRANCH   1   2
BRANCH   1  37
ATOM     37  O   UNL     1      70.510  84.728  67.550  1.00  0.00    -0.461 OA
BRANCH  37  38
ATOM     38  C   UNL     1      69.309  84.387  68.129  1.00  0.00     0.310 C 
ATOM     39  O   UNL     1      68.253  84.250  67.528  1.00  0.00    -0.252 OA
BRANCH  38  40
ATOM     40  C   UNL     1      69.500  84.209  69.616  1.00  0.00     0.158 C 
BRANCH  40  41
ATOM     41  C   UNL     1      68.935  85.351  70.422  1.00  0.00    -0.037 A 
ATOM     42  C   UNL     1      69.300  86.663  70.123  1.00  0.00     0.008 A 
ATOM     43  C   UNL     1      68.047  85.095  71.466  1.00  0.00     0.008 A 
ATOM     44  C   UNL     1      68.778  87.720  70.869  1.00  0.00     0.046 A 
ATOM     45  C   UNL     1      67.524  86.152  72.213  1.00  0.00     0.046 A 
ATOM     46  C   UNL     1      67.890  87.464  71.914  1.00  0.00     0.115 A 
BRANCH  46  47
ATOM     47  O   UNL     1      67.381  88.495  72.642  1.00  0.00    -0.508 OA
ATOM     48  H   UNL     1      66.865  89.073  72.053  1.00  0.00     0.293 HD
ENDBRANCH  46  47
ENDBRANCH  40  41
ENDBRANCH  38  40
ENDBRANCH  37  38
ENDBRANCH   1  37
TORSDOF 10
ENDMDL
MODEL 8
REMARK VINA RESULT:    -6.832      5.938     11.165
REMARK INTER + INTRA:         -11.956
REMARK INTER:                 -11.649
REMARK INTRA:                  -0.307
REMARK UNBOUND:                -0.331
REMARK SMILES C=C(C)[C@]12C[C@@H](C)[C@@]34O[C@](Cc5ccccc5)(O[C@@H]1[C@@H]3C=C(COC(=O)Cc1ccc(O)cc1)C[C@]1(O)C(=O)C(C)=C[C@@H]41)O2
REMARK SMILES IDX 23 1 22 2 21 3 20 4 9 5 8 6 10 7 6 8 18 10 44 11 19 12 5 13
REMARK SMILES IDX 7 14 4 15 11 16 12 17 13 18 17 19 14 20 16 21 15 22 2 23
REMARK SMILES IDX 3 24 1 25 35 26 36 27 43 28 38 29 42 30 39 32 40 33 41 34
REMARK SMILES IDX 37 35 24 37 25 38 26 39 27 40 28 41 29 42 34 43 30 44 33 45
REMARK SMILES IDX 31 46 32 47
REMARK H PARENT 37 36 32 48
REMARK Flexibility Score: 90.00
ROOT
ATOM      1  C   UNL     1      92.574  80.726  90.581  1.00  0.00     0.264 C 
ENDROOT
BRANCH   1   2
ATOM      2  C   UNL     1      93.296  81.637  89.615  1.00  0.00    -0.033 C 
ATOM      3  C   UNL     1      93.559  81.199  88.366  1.00  0.00    -0.015 C 
BRANCH   3   4
ATOM      4  C   UNL     1      94.326  81.881  87.245  1.00  0.00     0.078 C 
ATOM      5  O   UNL     1      92.671  83.119  85.887  1.00  0.00    -0.319 OA
ATOM      6  C   UNL     1      93.836  83.292  86.753  1.00  0.00     0.095 CG0
ATOM      7  C   UNL     1      92.763  82.035  84.943  1.00  0.00     0.289 C 
ATOM      8  C   UNL     1      95.014  83.946  85.920  1.00  0.00     0.023 C 
ATOM      9  G   UNL     1      93.309  84.142  87.946  1.00  0.00     0.000 G0
ATOM     10  O   UNL     1      92.990  80.792  85.601  1.00  0.00    -0.320 OA
ATOM     11  O   UNL     1      93.851  82.196  84.037  1.00  0.00    -0.313 OA
ATOM     12  C   UNL     1      94.360  80.965  85.997  1.00  0.00     0.170 C 
ATOM     13  C   UNL     1      95.841  82.868  85.155  1.00  0.00     0.049 C 
ATOM     14  C   UNL     1      94.596  85.056  84.942  1.00  0.00     0.011 C 
ATOM     15  C   UNL     1      94.979  81.666  84.764  1.00  0.00     0.122 C 
BRANCH   7  16
ATOM     16  C   UNL     1      91.463  81.972  84.164  1.00  0.00     0.135 C 
BRANCH  16  17
ATOM     17  C   UNL     1      90.837  80.601  84.216  1.00  0.00    -0.040 A 
ATOM     18  C   UNL     1      91.644  79.464  84.175  1.00  0.00     0.004 A 
ATOM     19  C   UNL     1      89.452  80.471  84.305  1.00  0.00     0.004 A 
ATOM     20  C   UNL     1      91.064  78.195  84.223  1.00  0.00     0.000 A 
ATOM     21  C   UNL     1      88.872  79.203  84.353  1.00  0.00     0.000 A 
ATOM     22  C   UNL     1      89.679  78.066  84.312  1.00  0.00     0.000 A 
ENDBRANCH  16  17
ENDBRANCH   7  16
BRANCH  15  23
ATOM     23  C   UNL     1      95.703  80.706  83.876  1.00  0.00    -0.046 C 
ATOM     24  C   UNL     1      95.709  79.273  84.317  1.00  0.00     0.042 C 
ATOM     25  C   UNL     1      96.311  81.103  82.749  1.00  0.00     0.010 C 
ENDBRANCH  15  23
ENDBRANCH   3   4
BRANCH   2  26
ATOM     26  C   UNL     1      93.635  82.990  90.212  1.00  0.00     0.078 C 
BRANCH  26  27
ATOM     27  C   UNL     1      94.150  84.065  89.258  1.00  0.00     0.140 C 
ATOM     28  C   UNL     1      93.319  84.139  87.959  1.00  0.00     0.086 CG0
ATOM     29  C   UNL     1      93.997  85.462  89.821  1.00  0.00     0.190 C 
ATOM     30  C   UNL     1      93.087  85.613  87.776  1.00  0.00    -0.010 C 
ATOM     31  G   UNL     1      93.843  83.294  86.762  1.00  0.00     0.000 G0
ATOM     32  O   UNL     1      94.338  85.815  90.940  1.00  0.00    -0.291 OA
ATOM     33  C   UNL     1      93.431  86.380  88.815  1.00  0.00    -0.008 C 
ATOM     34  C   UNL     1      93.272  87.835  89.017  1.00  0.00     0.048 C 
BRANCH  27  35
ATOM     35  O   UNL     1      95.545  83.939  89.039  1.00  0.00    -0.381 OA
ATOM     36  H   UNL     1      95.749  82.999  88.896  1.00  0.00     0.212 HD
ENDBRANCH  27  35
ENDBRANCH  26  27
ENDBRANCH   2  26
ENDBRANCH   1   2
BRANCH   1  37
ATOM     37  O   UNL     1      93.016  80.994  91.894  1.00  0.00    -0.461 OA
BRANCH  37  38
ATOM     38  C   UNL     1      94.124  80.296  92.317  1.00  0.00     0.310 C 
ATOM     39  O   UNL     1      94.237  79.078  92.295  1.00  0.00    -0.252 OA
BRANCH  38  40
ATOM     40  C   UNL     1      95.172  81.264  92.810  1.00  0.00     0.158 C 
BRANCH  40  41
ATOM     41  C   UNL     1      96.298  81.461  91.830  1.00  0.00    -0.037 A 
ATOM     42  C   UNL     1      96.379  80.660  90.690  1.00  0.00     0.008 A 
ATOM     43  C   UNL     1      97.261  82.442  92.060  1.00  0.00     0.008 A 
ATOM     44  C   UNL     1      97.423  80.841  89.782  1.00  0.00     0.046 A 
ATOM     45  C   UNL     1      98.305  82.625  91.153  1.00  0.00     0.046 A 
ATOM     46  C   UNL     1      98.386  81.824  90.014  1.00  0.00     0.115 A 
BRANCH  46  47
ATOM     47  O   UNL     1      99.404  82.000  89.129  1.00  0.00    -0.508 OA
ATOM     48  H   UNL     1      99.462  81.217  88.554  1.00  0.00     0.293 HD
ENDBRANCH  46  47
ENDBRANCH  40  41
ENDBRANCH  38  40
ENDBRANCH  37  38
ENDBRANCH   1  37
TORSDOF 10
ENDMDL
MODEL 9
REMARK VINA RESULT:    -6.688      3.571      9.524
REMARK INTER + INTRA:         -11.711
REMARK INTER:                 -11.813
REMARK INTRA:                   0.103
REMARK UNBOUND:                -0.331
REMARK SMILES C=C(C)[C@]12C[C@@H](C)[C@@]34O[C@](Cc5ccccc5)(O[C@@H]1[C@@H]3C=C(COC(=O)Cc1ccc(O)cc1)C[C@]1(O)C(=O)C(C)=C[C@@H]41)O2
REMARK SMILES IDX 23 1 22 2 21 3 20 4 9 5 8 6 10 7 6 8 18 10 44 11 19 12 5 13
REMARK SMILES IDX 7 14 4 15 11 16 12 17 13 18 17 19 14 20 16 21 15 22 2 23
REMARK SMILES IDX 3 24 1 25 35 26 36 27 43 28 38 29 42 30 39 32 40 33 41 34
REMARK SMILES IDX 37 35 24 37 25 38 26 39 27 40 28 41 29 42 34 43 30 44 33 45
REMARK SMILES IDX 31 46 32 47
REMARK H PARENT 37 36 32 48
REMARK Flexibility Score: 90.00
ROOT
ATOM      1  C   UNL     1      92.563  79.768  86.432  1.00  0.00     0.264 C 
ENDROOT
BRANCH   1   2
ATOM      2  C   UNL     1      94.073  79.734  86.368  1.00  0.00    -0.033 C 
ATOM      3  C   UNL     1      94.679  79.606  85.169  1.00  0.00    -0.015 C 
BRANCH   3   4
ATOM      4  C   UNL     1      96.158  79.472  84.845  1.00  0.00     0.078 C 
ATOM      5  O   UNL     1      97.023  81.757  84.466  1.00  0.00    -0.319 OA
ATOM      6  C   UNL     1      97.139  80.595  85.345  1.00  0.00     0.095 CG0
ATOM      7  C   UNL     1      96.951  81.459  83.058  1.00  0.00     0.289 C 
ATOM      8  C   UNL     1      98.612  80.019  85.260  1.00  0.00     0.023 C 
ATOM      9  G   UNL     1      96.708  81.124  86.744  1.00  0.00     0.000 G0
ATOM     10  O   UNL     1      95.855  80.596  82.768  1.00  0.00    -0.320 OA
ATOM     11  O   UNL     1      98.112  80.778  82.588  1.00  0.00    -0.313 OA
ATOM     12  C   UNL     1      96.353  79.364  83.313  1.00  0.00     0.170 C 
ATOM     13  C   UNL     1      98.772  79.031  84.063  1.00  0.00     0.049 C 
ATOM     14  C   UNL     1      99.733  81.072  85.204  1.00  0.00     0.011 C 
ATOM     15  C   UNL     1      97.846  79.395  82.902  1.00  0.00     0.122 C 
BRANCH   7  16
ATOM     16  C   UNL     1      96.791  82.764  82.304  1.00  0.00     0.135 C 
BRANCH  16  17
ATOM     17  C   UNL     1      97.441  82.715  80.944  1.00  0.00    -0.040 A 
ATOM     18  C   UNL     1      98.802  82.435  80.831  1.00  0.00     0.004 A 
ATOM     19  C   UNL     1      96.680  82.950  79.799  1.00  0.00     0.004 A 
ATOM     20  C   UNL     1      99.404  82.390  79.572  1.00  0.00     0.000 A 
ATOM     21  C   UNL     1      97.281  82.905  78.541  1.00  0.00     0.000 A 
ATOM     22  C   UNL     1      98.642  82.625  78.428  1.00  0.00     0.000 A 
ENDBRANCH  16  17
ENDBRANCH   7  16
BRANCH  15  23
ATOM     23  C   UNL     1      98.109  78.577  81.680  1.00  0.00    -0.046 C 
ATOM     24  C   UNL     1      97.621  79.150  80.382  1.00  0.00     0.042 C 
ATOM     25  C   UNL     1      98.744  77.398  81.739  1.00  0.00     0.010 C 
ENDBRANCH  15  23
ENDBRANCH   3   4
BRANCH   2  26
ATOM     26  C   UNL     1      94.730  79.862  87.729  1.00  0.00     0.078 C 
BRANCH  26  27
ATOM     27  C   UNL     1      96.247  80.041  87.758  1.00  0.00     0.140 C 
ATOM     28  C   UNL     1      96.728  81.108  86.754  1.00  0.00     0.086 CG0
ATOM     29  C   UNL     1      96.741  80.592  89.079  1.00  0.00     0.190 C 
ATOM     30  C   UNL     1      97.697  81.932  87.555  1.00  0.00    -0.010 C 
ATOM     31  G   UNL     1      97.148  80.587  85.349  1.00  0.00     0.000 G0
ATOM     32  O   UNL     1      96.431  80.168  90.183  1.00  0.00    -0.291 OA
ATOM     33  C   UNL     1      97.708  81.685  88.869  1.00  0.00    -0.008 C 
ATOM     34  C   UNL     1      98.459  82.348  89.955  1.00  0.00     0.048 C 
BRANCH  27  35
ATOM     35  O   UNL     1      96.918  78.797  87.638  1.00  0.00    -0.381 OA
ATOM     36  H   UNL     1      96.567  78.334  86.859  1.00  0.00     0.212 HD
ENDBRANCH  27  35
ENDBRANCH  26  27
ENDBRANCH   2  26
ENDBRANCH   1   2
BRANCH   1  37
ATOM     37  O   UNL     1      92.071  80.596  85.401  1.00  0.00    -0.461 OA
BRANCH  37  38
ATOM     38  C   UNL     1      91.235  79.997  84.487  1.00  0.00     0.310 C 
ATOM     39  O   UNL     1      90.994  78.800  84.435  1.00  0.00    -0.252 OA
BRANCH  38  40
ATOM     40  C   UNL     1      90.664  81.047  83.564  1.00  0.00     0.158 C 
BRANCH  40  41
ATOM     41  C   UNL     1      89.279  81.488  83.960  1.00  0.00    -0.037 A 
ATOM     42  C   UNL     1      89.110  82.606  84.776  1.00  0.00     0.008 A 
ATOM     43  C   UNL     1      88.165  80.778  83.512  1.00  0.00     0.008 A 
ATOM     44  C   UNL     1      87.828  83.014  85.145  1.00  0.00     0.046 A 
ATOM     45  C   UNL     1      86.883  81.186  83.880  1.00  0.00     0.046 A 
ATOM     46  C   UNL     1      86.714  82.304  84.696  1.00  0.00     0.115 A 
BRANCH  46  47
ATOM     47  O   UNL     1      85.463  82.702  85.056  1.00  0.00    -0.508 OA
ATOM     48  H   UNL     1      85.309  83.601  84.718  1.00  0.00     0.293 HD
ENDBRANCH  46  47
ENDBRANCH  40  41
ENDBRANCH  38  40
ENDBRANCH  37  38
ENDBRANCH   1  37
TORSDOF 10
ENDMDL
MODEL 10
REMARK VINA RESULT:    -6.566     30.230     33.602
REMARK INTER + INTRA:         -11.503
REMARK INTER:                 -11.079
REMARK INTRA:                  -0.424
REMARK UNBOUND:                -0.331
REMARK SMILES C=C(C)[C@]12C[C@@H](C)[C@@]34O[C@](Cc5ccccc5)(O[C@@H]1[C@@H]3C=C(COC(=O)Cc1ccc(O)cc1)C[C@]1(O)C(=O)C(C)=C[C@@H]41)O2
REMARK SMILES IDX 23 1 22 2 21 3 20 4 9 5 8 6 10 7 6 8 18 10 44 11 19 12 5 13
REMARK SMILES IDX 7 14 4 15 11 16 12 17 13 18 17 19 14 20 16 21 15 22 2 23
REMARK SMILES IDX 3 24 1 25 35 26 36 27 43 28 38 29 42 30 39 32 40 33 41 34
REMARK SMILES IDX 37 35 24 37 25 38 26 39 27 40 28 41 29 42 34 43 30 44 33 45
REMARK SMILES IDX 31 46 32 47
REMARK H PARENT 37 36 32 48
REMARK Flexibility Score: 90.00
ROOT
ATOM      1  C   UNL     1      67.697  87.056  69.112  1.00  0.00     0.264 C 
ENDROOT
BRANCH   1   2
ATOM      2  C   UNL     1      66.731  87.064  70.273  1.00  0.00    -0.033 C 
ATOM      3  C   UNL     1      65.477  86.601  70.091  1.00  0.00    -0.015 C 
BRANCH   3   4
ATOM      4  C   UNL     1      64.308  86.572  71.062  1.00  0.00     0.078 C 
ATOM      5  O   UNL     1      64.373  84.378  72.202  1.00  0.00    -0.319 OA
ATOM      6  C   UNL     1      64.490  85.817  72.430  1.00  0.00     0.095 CG0
ATOM      7  C   UNL     1      63.311  83.980  71.313  1.00  0.00     0.289 C 
ATOM      8  C   UNL     1      63.328  86.290  73.398  1.00  0.00     0.023 C 
ATOM      9  G   UNL     1      65.935  86.006  72.978  1.00  0.00     0.000 G0
ATOM     10  O   UNL     1      63.443  84.603  70.038  1.00  0.00    -0.320 OA
ATOM     11  O   UNL     1      62.027  84.364  71.798  1.00  0.00    -0.313 OA
ATOM     12  C   UNL     1      63.068  85.948  70.375  1.00  0.00     0.170 C 
ATOM     13  C   UNL     1      62.019  86.600  72.610  1.00  0.00     0.049 C 
ATOM     14  C   UNL     1      63.009  85.337  74.563  1.00  0.00     0.011 C 
ATOM     15  C   UNL     1      61.892  85.731  71.358  1.00  0.00     0.122 C 
BRANCH   7  16
ATOM     16  C   UNL     1      63.363  82.474  71.156  1.00  0.00     0.135 C 
BRANCH  16  17
ATOM     17  C   UNL     1      63.846  82.062  69.788  1.00  0.00    -0.040 A 
ATOM     18  C   UNL     1      65.213  82.031  69.511  1.00  0.00     0.004 A 
ATOM     19  C   UNL     1      62.926  81.714  68.800  1.00  0.00     0.004 A 
ATOM     20  C   UNL     1      65.660  81.650  68.245  1.00  0.00     0.000 A 
ATOM     21  C   UNL     1      63.373  81.333  67.534  1.00  0.00     0.000 A 
ATOM     22  C   UNL     1      64.739  81.302  67.258  1.00  0.00     0.000 A 
ENDBRANCH  16  17
ENDBRANCH   7  16
BRANCH  15  23
ATOM     23  C   UNL     1      60.565  85.881  70.687  1.00  0.00    -0.046 C 
ATOM     24  C   UNL     1      60.575  86.542  69.341  1.00  0.00     0.042 C 
ATOM     25  C   UNL     1      59.430  85.449  71.257  1.00  0.00     0.010 C 
ENDBRANCH  15  23
ENDBRANCH   3   4
BRANCH   2  26
ATOM     26  C   UNL     1      67.339  87.612  71.551  1.00  0.00     0.078 C 
BRANCH  26  27
ATOM     27  C   UNL     1      66.532  87.444  72.836  1.00  0.00     0.140 C 
ATOM     28  C   UNL     1      65.947  86.023  72.977  1.00  0.00     0.086 CG0
ATOM     29  C   UNL     1      67.388  87.568  74.079  1.00  0.00     0.190 C 
ATOM     30  C   UNL     1      66.260  85.656  74.402  1.00  0.00    -0.010 C 
ATOM     31  G   UNL     1      64.503  85.819  72.435  1.00  0.00     0.000 G0
ATOM     32  O   UNL     1      68.189  88.464  74.300  1.00  0.00    -0.291 OA
ATOM     33  C   UNL     1      67.088  86.489  75.039  1.00  0.00    -0.008 C 
ATOM     34  C   UNL     1      67.668  86.401  76.395  1.00  0.00     0.048 C 
BRANCH  27  35
ATOM     35  O   UNL     1      65.570  88.475  72.983  1.00  0.00    -0.381 OA
ATOM     36  H   UNL     1      65.937  89.155  73.574  1.00  0.00     0.212 HD
ENDBRANCH  27  35
ENDBRANCH  26  27
ENDBRANCH   2  26
ENDBRANCH   1   2
BRANCH   1  37
ATOM     37  O   UNL     1      69.020  87.092  69.605  1.00  0.00    -0.461 OA
BRANCH  37  38
ATOM     38  C   UNL     1      69.728  85.915  69.533  1.00  0.00     0.310 C 
ATOM     39  O   UNL     1      69.888  85.134  70.460  1.00  0.00    -0.252 OA
BRANCH  38  40
ATOM     40  C   UNL     1      70.273  85.739  68.136  1.00  0.00     0.158 C 
BRANCH  40  41
ATOM     41  C   UNL     1      71.727  86.117  68.020  1.00  0.00    -0.037 A 
ATOM     42  C   UNL     1      72.086  87.345  67.463  1.00  0.00     0.008 A 
ATOM     43  C   UNL     1      72.714  85.241  68.470  1.00  0.00     0.008 A 
ATOM     44  C   UNL     1      73.432  87.695  67.355  1.00  0.00     0.046 A 
ATOM     45  C   UNL     1      74.060  85.590  68.363  1.00  0.00     0.046 A 
ATOM     46  C   UNL     1      74.419  86.817  67.805  1.00  0.00     0.115 A 
BRANCH  46  47
ATOM     47  O   UNL     1      75.732  87.158  67.700  1.00  0.00    -0.508 OA
ATOM     48  H   UNL     1      76.277  86.362  67.830  1.00  0.00     0.293 HD
ENDBRANCH  46  47
ENDBRANCH  40  41
ENDBRANCH  38  40
ENDBRANCH  37  38
ENDBRANCH   1  37
TORSDOF 10
ENDMDL
