MODEL 1
REMARK VINA RESULT:    -6.573      0.000      0.000
REMARK INTER + INTRA:         -10.976
REMARK INTER:                 -10.223
REMARK INTRA:                  -0.753
REMARK UNBOUND:                -0.753
REMARK SMILES COc1cc(CNC(=O)CCCCCC(C)C)ccc1O
REMARK SMILES IDX 10 1 8 2 7 3 9 5 6 6 5 7 3 8 20 9 4 10 19 11 18 12 2 13 1 14
REMARK SMILES IDX 21 15 11 17 12 18 13 19 14 20 15 21 16 22 17 23
REMARK H PARENT 7 4 21 16
REMARK Flexibility Score: inf
ROOT
ATOM      1  C   UNL     1      91.075  92.767  77.340  1.00  0.00     0.100 C 
ENDROOT
BRANCH   1   2
ATOM      2  C   UNL     1      92.194  93.692  77.066  1.00  0.00     0.220 C 
ATOM      3  N   UNL     1      93.476  93.248  77.198  1.00  0.00    -0.352 N 
ATOM      4  H   UNL     1      93.569  92.331  77.611  1.00  0.00     0.163 HD
ATOM      5  O   UNL     1      91.940  94.857  76.676  1.00  0.00    -0.275 OA
BRANCH   3   6
ATOM      6  C   UNL     1      94.641  93.973  76.803  1.00  0.00     0.151 C 
BRANCH   6   7
ATOM      7  C   UNL     1      95.298  94.685  77.933  1.00  0.00    -0.025 A 
ATOM      8  C   UNL     1      95.587  95.041  80.349  1.00  0.00     0.160 A 
ATOM      9  C   UNL     1      96.596  95.991  80.086  1.00  0.00     0.157 A 
ATOM     10  C   UNL     1      94.931  94.408  79.271  1.00  0.00     0.056 A 
ATOM     11  C   UNL     1      96.950  96.294  78.758  1.00  0.00     0.050 A 
ATOM     12  C   UNL     1      96.310  95.642  77.690  1.00  0.00     0.009 A 
BRANCH   8  13
ATOM     13  O   UNL     1      95.213  94.746  81.634  1.00  0.00    -0.493 OA
ATOM     14  C   UNL     1      95.738  93.496  82.120  1.00  0.00     0.278 C 
ENDBRANCH   8  13
BRANCH   9  15
ATOM     15  O   UNL     1      97.230  96.607  81.115  1.00  0.00    -0.504 OA
ATOM     16  H   UNL     1      97.672  95.951  81.658  1.00  0.00     0.293 HD
ENDBRANCH   9  15
ENDBRANCH   6   7
ENDBRANCH   3   6
ENDBRANCH   1   2
BRANCH   1  17
ATOM     17  C   UNL     1      89.925  92.831  76.299  1.00  0.00     0.010 C 
BRANCH  17  18
ATOM     18  C   UNL     1      90.358  92.238  74.930  1.00  0.00     0.001 C 
BRANCH  18  19
ATOM     19  C   UNL     1      90.432  93.295  73.797  1.00  0.00     0.000 C 
BRANCH  19  20
ATOM     20  C   UNL     1      89.452  92.976  72.630  1.00  0.00     0.003 C 
BRANCH  20  21
ATOM     21  C   UNL     1      89.279  91.455  72.311  1.00  0.00    -0.017 C 
ATOM     22  C   UNL     1      90.153  91.040  71.091  1.00  0.00     0.007 C 
ATOM     23  C   UNL     1      87.795  91.054  72.065  1.00  0.00     0.007 C 
ENDBRANCH  20  21
ENDBRANCH  19  20
ENDBRANCH  18  19
ENDBRANCH  17  18
ENDBRANCH   1  17
TORSDOF 10
ENDMDL
MODEL 2
REMARK VINA RESULT:    -6.085      3.284      7.711
REMARK INTER + INTRA:         -10.216
REMARK INTER:                  -9.300
REMARK INTRA:                  -0.917
REMARK UNBOUND:                -0.753
REMARK SMILES COc1cc(CNC(=O)CCCCCC(C)C)ccc1O
REMARK SMILES IDX 10 1 8 2 7 3 9 5 6 6 5 7 3 8 20 9 4 10 19 11 18 12 2 13 1 14
REMARK SMILES IDX 21 15 11 17 12 18 13 19 14 20 15 21 16 22 17 23
REMARK H PARENT 7 4 21 16
REMARK Flexibility Score: inf
ROOT
ATOM      1  C   UNL     1      95.043  94.335  77.762  1.00  0.00     0.100 C 
ENDROOT
BRANCH   1   2
ATOM      2  C   UNL     1      93.735  94.122  77.110  1.00  0.00     0.220 C 
ATOM      3  N   UNL     1      92.868  93.208  77.630  1.00  0.00    -0.352 N 
ATOM      4  H   UNL     1      93.249  92.634  78.369  1.00  0.00     0.163 HD
ATOM      5  O   UNL     1      93.431  94.820  76.111  1.00  0.00    -0.275 OA
BRANCH   3   6
ATOM      6  C   UNL     1      91.516  93.025  77.210  1.00  0.00     0.151 C 
BRANCH   6   7
ATOM      7  C   UNL     1      91.328  91.825  76.350  1.00  0.00    -0.025 A 
ATOM      8  C   UNL     1      90.353  89.598  75.980  1.00  0.00     0.160 A 
ATOM      9  C   UNL     1      90.916  89.569  74.687  1.00  0.00     0.157 A 
ATOM     10  C   UNL     1      90.578  90.717  76.810  1.00  0.00     0.056 A 
ATOM     11  C   UNL     1      91.686  90.654  74.229  1.00  0.00     0.050 A 
ATOM     12  C   UNL     1      91.886  91.776  75.051  1.00  0.00     0.009 A 
BRANCH   8  13
ATOM     13  O   UNL     1      89.617  88.544  76.453  1.00  0.00    -0.493 OA
ATOM     14  C   UNL     1      90.154  87.948  77.649  1.00  0.00     0.278 C 
ENDBRANCH   8  13
BRANCH   9  15
ATOM     15  O   UNL     1      90.707  88.498  73.881  1.00  0.00    -0.504 OA
ATOM     16  H   UNL     1      89.764  88.368  73.758  1.00  0.00     0.293 HD
ENDBRANCH   9  15
ENDBRANCH   6   7
ENDBRANCH   3   6
ENDBRANCH   1   2
BRANCH   1  17
ATOM     17  C   UNL     1      96.246  94.381  76.780  1.00  0.00     0.010 C 
BRANCH  17  18
ATOM     18  C   UNL     1      97.052  95.701  76.924  1.00  0.00     0.001 C 
BRANCH  18  19
ATOM     19  C   UNL     1      97.547  96.272  75.569  1.00  0.00     0.000 C 
BRANCH  19  20
ATOM     20  C   UNL     1      96.402  96.367  74.519  1.00  0.00     0.003 C 
BRANCH  20  21
ATOM     21  C   UNL     1      95.327  97.464  74.812  1.00  0.00    -0.017 C 
ATOM     22  C   UNL     1      94.222  97.466  73.715  1.00  0.00     0.007 C 
ATOM     23  C   UNL     1      95.939  98.887  74.956  1.00  0.00     0.007 C 
ENDBRANCH  20  21
ENDBRANCH  19  20
ENDBRANCH  18  19
ENDBRANCH  17  18
ENDBRANCH   1  17
TORSDOF 10
ENDMDL
MODEL 3
REMARK VINA RESULT:    -6.050     15.572     17.656
REMARK INTER + INTRA:         -10.163
REMARK INTER:                  -8.235
REMARK INTRA:                  -1.928
REMARK UNBOUND:                -0.753
REMARK SMILES COc1cc(CNC(=O)CCCCCC(C)C)ccc1O
REMARK SMILES IDX 10 1 8 2 7 3 9 5 6 6 5 7 3 8 20 9 4 10 19 11 18 12 2 13 1 14
REMARK SMILES IDX 21 15 11 17 12 18 13 19 14 20 15 21 16 22 17 23
REMARK H PARENT 7 4 21 16
REMARK Flexibility Score: inf
ROOT
ATOM      1  C   UNL     1      80.649  86.201  84.133  1.00  0.00     0.100 C 
ENDROOT
BRANCH   1   2
ATOM      2  C   UNL     1      81.409  86.385  85.386  1.00  0.00     0.220 C 
ATOM      3  N   UNL     1      80.800  86.142  86.581  1.00  0.00    -0.352 N 
ATOM      4  H   UNL     1      79.805  85.974  86.524  1.00  0.00     0.163 HD
ATOM      5  O   UNL     1      82.617  86.722  85.322  1.00  0.00    -0.275 OA
BRANCH   3   6
ATOM      6  C   UNL     1      81.458  86.111  87.848  1.00  0.00     0.151 C 
BRANCH   6   7
ATOM      7  C   UNL     1      80.915  87.106  88.812  1.00  0.00    -0.025 A 
ATOM      8  C   UNL     1      81.275  88.790  90.567  1.00  0.00     0.160 A 
ATOM      9  C   UNL     1      79.889  89.049  90.600  1.00  0.00     0.157 A 
ATOM     10  C   UNL     1      81.778  87.808  89.687  1.00  0.00     0.056 A 
ATOM     11  C   UNL     1      79.019  88.339  89.752  1.00  0.00     0.050 A 
ATOM     12  C   UNL     1      79.528  87.379  88.861  1.00  0.00     0.009 A 
BRANCH   8  13
ATOM     13  O   UNL     1      82.137  89.457  91.398  1.00  0.00    -0.493 OA
ATOM     14  C   UNL     1      83.398  88.786  91.589  1.00  0.00     0.278 C 
ENDBRANCH   8  13
BRANCH   9  15
ATOM     15  O   UNL     1      79.396  89.990  91.444  1.00  0.00    -0.504 OA
ATOM     16  H   UNL     1      78.436  89.977  91.413  1.00  0.00     0.293 HD
ENDBRANCH   9  15
ENDBRANCH   6   7
ENDBRANCH   3   6
ENDBRANCH   1   2
BRANCH   1  17
ATOM     17  C   UNL     1      80.256  87.525  83.424  1.00  0.00     0.010 C 
BRANCH  17  18
ATOM     18  C   UNL     1      79.405  88.439  84.349  1.00  0.00     0.001 C 
BRANCH  18  19
ATOM     19  C   UNL     1      80.114  89.768  84.724  1.00  0.00     0.000 C 
BRANCH  19  20
ATOM     20  C   UNL     1      80.353  89.895  86.256  1.00  0.00     0.003 C 
BRANCH  20  21
ATOM     21  C   UNL     1      81.854  89.977  86.686  1.00  0.00    -0.017 C 
ATOM     22  C   UNL     1      82.070  91.104  87.738  1.00  0.00     0.007 C 
ATOM     23  C   UNL     1      82.817  90.180  85.480  1.00  0.00     0.007 C 
ENDBRANCH  20  21
ENDBRANCH  19  20
ENDBRANCH  18  19
ENDBRANCH  17  18
ENDBRANCH   1  17
TORSDOF 10
ENDMDL
MODEL 4
REMARK VINA RESULT:    -5.886      3.031      8.314
REMARK INTER + INTRA:          -9.907
REMARK INTER:                  -9.023
REMARK INTRA:                  -0.884
REMARK UNBOUND:                -0.753
REMARK SMILES COc1cc(CNC(=O)CCCCCC(C)C)ccc1O
REMARK SMILES IDX 10 1 8 2 7 3 9 5 6 6 5 7 3 8 20 9 4 10 19 11 18 12 2 13 1 14
REMARK SMILES IDX 21 15 11 17 12 18 13 19 14 20 15 21 16 22 17 23
REMARK H PARENT 7 4 21 16
REMARK Flexibility Score: inf
ROOT
ATOM      1  C   UNL     1      95.497  95.503  76.697  1.00  0.00     0.100 C 
ENDROOT
BRANCH   1   2
ATOM      2  C   UNL     1      94.482  95.056  75.720  1.00  0.00     0.220 C 
ATOM      3  N   UNL     1      93.854  93.861  75.906  1.00  0.00    -0.352 N 
ATOM      4  H   UNL     1      94.235  93.292  76.649  1.00  0.00     0.163 HD
ATOM      5  O   UNL     1      94.187  95.810  74.761  1.00  0.00    -0.275 OA
BRANCH   3   6
ATOM      6  C   UNL     1      92.741  93.390  75.146  1.00  0.00     0.151 C 
BRANCH   6   7
ATOM      7  C   UNL     1      91.879  92.440  75.899  1.00  0.00    -0.025 A 
ATOM      8  C   UNL     1      90.691  90.292  76.041  1.00  0.00     0.160 A 
ATOM      9  C   UNL     1      90.293  90.601  77.359  1.00  0.00     0.157 A 
ATOM     10  C   UNL     1      91.465  91.220  75.313  1.00  0.00     0.056 A 
ATOM     11  C   UNL     1      90.677  91.823  77.942  1.00  0.00     0.050 A 
ATOM     12  C   UNL     1      91.468  92.732  77.221  1.00  0.00     0.009 A 
BRANCH   8  13
ATOM     13  O   UNL     1      90.311  89.116  75.448  1.00  0.00    -0.493 OA
ATOM     14  C   UNL     1      89.212  89.257  74.527  1.00  0.00     0.278 C 
ENDBRANCH   8  13
BRANCH   9  15
ATOM     15  O   UNL     1      89.547  89.716  78.067  1.00  0.00    -0.504 OA
ATOM     16  H   UNL     1      90.125  89.084  78.499  1.00  0.00     0.293 HD
ENDBRANCH   9  15
ENDBRANCH   6   7
ENDBRANCH   3   6
ENDBRANCH   1   2
BRANCH   1  17
ATOM     17  C   UNL     1      96.935  94.999  76.397  1.00  0.00     0.010 C 
BRANCH  17  18
ATOM     18  C   UNL     1      97.996  95.762  77.237  1.00  0.00     0.001 C 
BRANCH  18  19
ATOM     19  C   UNL     1      97.404  96.457  78.492  1.00  0.00     0.000 C 
BRANCH  19  20
ATOM     20  C   UNL     1      97.885  95.792  79.814  1.00  0.00     0.003 C 
BRANCH  20  21
ATOM     21  C   UNL     1      96.746  95.209  80.712  1.00  0.00    -0.017 C 
ATOM     22  C   UNL     1      96.034  94.019  80.003  1.00  0.00     0.007 C 
ATOM     23  C   UNL     1      95.700  96.281  81.135  1.00  0.00     0.007 C 
ENDBRANCH  20  21
ENDBRANCH  19  20
ENDBRANCH  18  19
ENDBRANCH  17  18
ENDBRANCH   1  17
TORSDOF 10
ENDMDL
MODEL 5
REMARK VINA RESULT:    -5.821      2.257      8.865
REMARK INTER + INTRA:          -9.806
REMARK INTER:                  -9.002
REMARK INTRA:                  -0.804
REMARK UNBOUND:                -0.753
REMARK SMILES COc1cc(CNC(=O)CCCCCC(C)C)ccc1O
REMARK SMILES IDX 10 1 8 2 7 3 9 5 6 6 5 7 3 8 20 9 4 10 19 11 18 12 2 13 1 14
REMARK SMILES IDX 21 15 11 17 12 18 13 19 14 20 15 21 16 22 17 23
REMARK H PARENT 7 4 21 16
REMARK Flexibility Score: inf
ROOT
ATOM      1  C   UNL     1      96.011  94.884  78.246  1.00  0.00     0.100 C 
ENDROOT
BRANCH   1   2
ATOM      2  C   UNL     1      95.385  94.811  76.910  1.00  0.00     0.220 C 
ATOM      3  N   UNL     1      94.480  93.825  76.648  1.00  0.00    -0.352 N 
ATOM      4  H   UNL     1      94.401  93.119  77.366  1.00  0.00     0.163 HD
ATOM      5  O   UNL     1      95.668  95.686  76.056  1.00  0.00    -0.275 OA
BRANCH   3   6
ATOM      6  C   UNL     1      93.677  93.739  75.470  1.00  0.00     0.151 C 
BRANCH   6   7
ATOM      7  C   UNL     1      92.358  93.093  75.709  1.00  0.00    -0.025 A 
ATOM      8  C   UNL     1      90.373  91.919  74.855  1.00  0.00     0.160 A 
ATOM      9  C   UNL     1      89.878  91.804  76.171  1.00  0.00     0.157 A 
ATOM     10  C   UNL     1      91.600  92.579  74.630  1.00  0.00     0.056 A 
ATOM     11  C   UNL     1      90.610  92.335  77.248  1.00  0.00     0.050 A 
ATOM     12  C   UNL     1      91.843  92.970  77.020  1.00  0.00     0.009 A 
BRANCH   8  13
ATOM     13  O   UNL     1      89.666  91.426  73.790  1.00  0.00    -0.493 OA
ATOM     14  C   UNL     1      89.316  92.424  72.812  1.00  0.00     0.278 C 
ENDBRANCH   8  13
BRANCH   9  15
ATOM     15  O   UNL     1      88.698  91.174  76.398  1.00  0.00    -0.504 OA
ATOM     16  H   UNL     1      88.047  91.472  75.759  1.00  0.00     0.293 HD
ENDBRANCH   9  15
ENDBRANCH   6   7
ENDBRANCH   3   6
ENDBRANCH   1   2
BRANCH   1  17
ATOM     17  C   UNL     1      95.247  94.108  79.353  1.00  0.00     0.010 C 
BRANCH  17  18
ATOM     18  C   UNL     1      95.811  94.423  80.766  1.00  0.00     0.001 C 
BRANCH  18  19
ATOM     19  C   UNL     1      95.362  95.802  81.316  1.00  0.00     0.000 C 
BRANCH  19  20
ATOM     20  C   UNL     1      96.453  96.464  82.206  1.00  0.00     0.003 C 
BRANCH  20  21
ATOM     21  C   UNL     1      97.062  97.785  81.632  1.00  0.00    -0.017 C 
ATOM     22  C   UNL     1      96.033  98.952  81.714  1.00  0.00     0.007 C 
ATOM     23  C   UNL     1      97.577  97.629  80.172  1.00  0.00     0.007 C 
ENDBRANCH  20  21
ENDBRANCH  19  20
ENDBRANCH  18  19
ENDBRANCH  17  18
ENDBRANCH   1  17
TORSDOF 10
ENDMDL
MODEL 6
REMARK VINA RESULT:    -5.783     14.450     16.564
REMARK INTER + INTRA:          -9.747
REMARK INTER:                  -8.342
REMARK INTRA:                  -1.405
REMARK UNBOUND:                -0.753
REMARK SMILES COc1cc(CNC(=O)CCCCCC(C)C)ccc1O
REMARK SMILES IDX 10 1 8 2 7 3 9 5 6 6 5 7 3 8 20 9 4 10 19 11 18 12 2 13 1 14
REMARK SMILES IDX 21 15 11 17 12 18 13 19 14 20 15 21 16 22 17 23
REMARK H PARENT 7 4 21 16
REMARK Flexibility Score: inf
ROOT
ATOM      1  C   UNL     1      79.782  86.240  84.552  1.00  0.00     0.100 C 
ENDROOT
BRANCH   1   2
ATOM      2  C   UNL     1      80.021  87.676  84.302  1.00  0.00     0.220 C 
ATOM      3  N   UNL     1      79.786  88.578  85.297  1.00  0.00    -0.352 N 
ATOM      4  H   UNL     1      79.327  88.199  86.113  1.00  0.00     0.163 HD
ATOM      5  O   UNL     1      80.479  88.032  83.188  1.00  0.00    -0.275 OA
BRANCH   3   6
ATOM      6  C   UNL     1      80.135  89.961  85.252  1.00  0.00     0.151 C 
BRANCH   6   7
ATOM      7  C   UNL     1      81.525  90.229  85.710  1.00  0.00    -0.025 A 
ATOM      8  C   UNL     1      83.096  90.880  87.486  1.00  0.00     0.160 A 
ATOM      9  C   UNL     1      84.177  90.673  86.603  1.00  0.00     0.157 A 
ATOM     10  C   UNL     1      81.777  90.675  87.029  1.00  0.00     0.056 A 
ATOM     11  C   UNL     1      83.936  90.255  85.281  1.00  0.00     0.050 A 
ATOM     12  C   UNL     1      82.621  90.029  84.839  1.00  0.00     0.009 A 
BRANCH   8  13
ATOM     13  O   UNL     1      83.307  91.307  88.771  1.00  0.00    -0.493 OA
ATOM     14  C   UNL     1      82.285  92.193  89.266  1.00  0.00     0.278 C 
ENDBRANCH   8  13
BRANCH   9  15
ATOM     15  O   UNL     1      85.449  90.870  87.031  1.00  0.00    -0.504 OA
ATOM     16  H   UNL     1      85.458  90.932  87.989  1.00  0.00     0.293 HD
ENDBRANCH   9  15
ENDBRANCH   6   7
ENDBRANCH   3   6
ENDBRANCH   1   2
BRANCH   1  17
ATOM     17  C   UNL     1      80.104  85.781  86.000  1.00  0.00     0.010 C 
BRANCH  17  18
ATOM     18  C   UNL     1      81.566  86.124  86.397  1.00  0.00     0.001 C 
BRANCH  18  19
ATOM     19  C   UNL     1      81.826  86.042  87.924  1.00  0.00     0.000 C 
BRANCH  19  20
ATOM     20  C   UNL     1      81.763  87.438  88.607  1.00  0.00     0.003 C 
BRANCH  20  21
ATOM     21  C   UNL     1      80.326  87.919  88.996  1.00  0.00    -0.017 C 
ATOM     22  C   UNL     1      80.391  89.093  90.017  1.00  0.00     0.007 C 
ATOM     23  C   UNL     1      79.437  86.772  89.559  1.00  0.00     0.007 C 
ENDBRANCH  20  21
ENDBRANCH  19  20
ENDBRANCH  18  19
ENDBRANCH  17  18
ENDBRANCH   1  17
TORSDOF 10
ENDMDL
MODEL 7
REMARK VINA RESULT:    -5.633     15.928     18.033
REMARK INTER + INTRA:          -9.514
REMARK INTER:                  -8.048
REMARK INTRA:                  -1.466
REMARK UNBOUND:                -0.753
REMARK SMILES COc1cc(CNC(=O)CCCCCC(C)C)ccc1O
REMARK SMILES IDX 10 1 8 2 7 3 9 5 6 6 5 7 3 8 20 9 4 10 19 11 18 12 2 13 1 14
REMARK SMILES IDX 21 15 11 17 12 18 13 19 14 20 15 21 16 22 17 23
REMARK H PARENT 7 4 21 16
REMARK Flexibility Score: inf
ROOT
ATOM      1  C   UNL     1      80.223  86.560  83.909  1.00  0.00     0.100 C 
ENDROOT
BRANCH   1   2
ATOM      2  C   UNL     1      80.991  86.189  85.116  1.00  0.00     0.220 C 
ATOM      3  N   UNL     1      80.482  86.478  86.347  1.00  0.00    -0.352 N 
ATOM      4  H   UNL     1      79.655  87.057  86.340  1.00  0.00     0.163 HD
ATOM      5  O   UNL     1      82.078  85.577  84.982  1.00  0.00    -0.275 OA
BRANCH   3   6
ATOM      6  C   UNL     1      81.028  86.028  87.588  1.00  0.00     0.151 C 
BRANCH   6   7
ATOM      7  C   UNL     1      80.752  86.955  88.718  1.00  0.00    -0.025 A 
ATOM      8  C   UNL     1      79.238  87.800  90.462  1.00  0.00     0.160 A 
ATOM      9  C   UNL     1      80.249  88.674  90.913  1.00  0.00     0.157 A 
ATOM     10  C   UNL     1      79.489  86.960  89.356  1.00  0.00     0.056 A 
ATOM     11  C   UNL     1      81.500  88.697  90.269  1.00  0.00     0.050 A 
ATOM     12  C   UNL     1      81.751  87.841  89.183  1.00  0.00     0.009 A 
BRANCH   8  13
ATOM     13  O   UNL     1      78.007  87.776  91.063  1.00  0.00    -0.493 OA
ATOM     14  C   UNL     1      76.996  88.514  90.350  1.00  0.00     0.278 C 
ENDBRANCH   8  13
BRANCH   9  15
ATOM     15  O   UNL     1      80.018  89.487  91.974  1.00  0.00    -0.504 OA
ATOM     16  H   UNL     1      80.773  89.465  92.566  1.00  0.00     0.293 HD
ENDBRANCH   9  15
ENDBRANCH   6   7
ENDBRANCH   3   6
ENDBRANCH   1   2
BRANCH   1  17
ATOM     17  C   UNL     1      80.281  88.070  83.554  1.00  0.00     0.010 C 
BRANCH  17  18
ATOM     18  C   UNL     1      79.458  88.925  84.557  1.00  0.00     0.001 C 
BRANCH  18  19
ATOM     19  C   UNL     1      80.199  90.204  85.029  1.00  0.00     0.000 C 
BRANCH  19  20
ATOM     20  C   UNL     1      81.102  89.938  86.268  1.00  0.00     0.003 C 
BRANCH  20  21
ATOM     21  C   UNL     1      82.630  90.172  86.034  1.00  0.00    -0.017 C 
ATOM     22  C   UNL     1      83.388  88.817  85.919  1.00  0.00     0.007 C 
ATOM     23  C   UNL     1      83.281  91.058  87.136  1.00  0.00     0.007 C 
ENDBRANCH  20  21
ENDBRANCH  19  20
ENDBRANCH  18  19
ENDBRANCH  17  18
ENDBRANCH   1  17
TORSDOF 10
ENDMDL
MODEL 8
REMARK VINA RESULT:    -5.579     27.596     30.117
REMARK INTER + INTRA:          -9.429
REMARK INTER:                  -8.641
REMARK INTRA:                  -0.789
REMARK UNBOUND:                -0.753
REMARK SMILES COc1cc(CNC(=O)CCCCCC(C)C)ccc1O
REMARK SMILES IDX 10 1 8 2 7 3 9 5 6 6 5 7 3 8 20 9 4 10 19 11 18 12 2 13 1 14
REMARK SMILES IDX 21 15 11 17 12 18 13 19 14 20 15 21 16 22 17 23
REMARK H PARENT 7 4 21 16
REMARK Flexibility Score: inf
ROOT
ATOM      1  C   UNL     1      83.164  65.013  75.371  1.00  0.00     0.100 C 
ENDROOT
BRANCH   1   2
ATOM      2  C   UNL     1      83.916  64.040  76.191  1.00  0.00     0.220 C 
ATOM      3  N   UNL     1      84.204  64.339  77.489  1.00  0.00    -0.352 N 
ATOM      4  H   UNL     1      83.989  65.287  77.764  1.00  0.00     0.163 HD
ATOM      5  O   UNL     1      84.238  62.938  75.684  1.00  0.00    -0.275 OA
BRANCH   3   6
ATOM      6  C   UNL     1      84.766  63.431  78.436  1.00  0.00     0.151 C 
BRANCH   6   7
ATOM      7  C   UNL     1      85.380  64.113  79.607  1.00  0.00    -0.025 A 
ATOM      8  C   UNL     1      86.885  65.825  80.530  1.00  0.00     0.160 A 
ATOM      9  C   UNL     1      86.499  65.458  81.836  1.00  0.00     0.157 A 
ATOM     10  C   UNL     1      86.338  65.139  79.425  1.00  0.00     0.056 A 
ATOM     11  C   UNL     1      85.567  64.422  82.030  1.00  0.00     0.050 A 
ATOM     12  C   UNL     1      85.008  63.758  80.924  1.00  0.00     0.009 A 
BRANCH   8  13
ATOM     13  O   UNL     1      87.806  66.818  80.320  1.00  0.00    -0.493 OA
ATOM     14  C   UNL     1      87.246  68.022  79.759  1.00  0.00     0.278 C 
ENDBRANCH   8  13
BRANCH   9  15
ATOM     15  O   UNL     1      87.020  66.110  82.905  1.00  0.00    -0.504 OA
ATOM     16  H   UNL     1      87.659  66.760  82.603  1.00  0.00     0.293 HD
ENDBRANCH   9  15
ENDBRANCH   6   7
ENDBRANCH   3   6
ENDBRANCH   1   2
BRANCH   1  17
ATOM     17  C   UNL     1      81.621  64.876  75.473  1.00  0.00     0.010 C 
BRANCH  17  18
ATOM     18  C   UNL     1      81.044  64.023  74.311  1.00  0.00     0.001 C 
BRANCH  18  19
ATOM     19  C   UNL     1      80.118  64.825  73.358  1.00  0.00     0.000 C 
BRANCH  19  20
ATOM     20  C   UNL     1      80.096  66.343  73.700  1.00  0.00     0.003 C 
BRANCH  20  21
ATOM     21  C   UNL     1      80.407  67.294  72.498  1.00  0.00    -0.017 C 
ATOM     22  C   UNL     1      80.160  66.572  71.140  1.00  0.00     0.007 C 
ATOM     23  C   UNL     1      81.852  67.871  72.542  1.00  0.00     0.007 C 
ENDBRANCH  20  21
ENDBRANCH  19  20
ENDBRANCH  18  19
ENDBRANCH  17  18
ENDBRANCH   1  17
TORSDOF 10
ENDMDL
MODEL 9
REMARK VINA RESULT:    -5.411     14.531     16.465
REMARK INTER + INTRA:          -9.168
REMARK INTER:                  -8.142
REMARK INTRA:                  -1.026
REMARK UNBOUND:                -0.753
REMARK SMILES COc1cc(CNC(=O)CCCCCC(C)C)ccc1O
REMARK SMILES IDX 10 1 8 2 7 3 9 5 6 6 5 7 3 8 20 9 4 10 19 11 18 12 2 13 1 14
REMARK SMILES IDX 21 15 11 17 12 18 13 19 14 20 15 21 16 22 17 23
REMARK H PARENT 7 4 21 16
REMARK Flexibility Score: inf
ROOT
ATOM      1  C   UNL     1      79.899  87.447  84.585  1.00  0.00     0.100 C 
ENDROOT
BRANCH   1   2
ATOM      2  C   UNL     1      80.300  87.002  85.936  1.00  0.00     0.220 C 
ATOM      3  N   UNL     1      80.231  87.879  86.977  1.00  0.00    -0.352 N 
ATOM      4  H   UNL     1      80.028  88.833  86.717  1.00  0.00     0.163 HD
ATOM      5  O   UNL     1      80.657  85.811  86.104  1.00  0.00    -0.275 OA
BRANCH   3   6
ATOM      6  C   UNL     1      80.420  87.539  88.351  1.00  0.00     0.151 C 
BRANCH   6   7
ATOM      7  C   UNL     1      81.449  88.377  89.024  1.00  0.00    -0.025 A 
ATOM      8  C   UNL     1      82.591  89.116  91.073  1.00  0.00     0.160 A 
ATOM      9  C   UNL     1      83.453  89.923  90.299  1.00  0.00     0.157 A 
ATOM     10  C   UNL     1      81.584  88.363  90.433  1.00  0.00     0.056 A 
ATOM     11  C   UNL     1      83.311  89.964  88.900  1.00  0.00     0.050 A 
ATOM     12  C   UNL     1      82.321  89.194  88.266  1.00  0.00     0.009 A 
BRANCH   8  13
ATOM     13  O   UNL     1      82.700  89.076  92.438  1.00  0.00    -0.493 OA
ATOM     14  C   UNL     1      83.174  87.815  92.948  1.00  0.00     0.278 C 
ENDBRANCH   8  13
BRANCH   9  15
ATOM     15  O   UNL     1      84.423  90.651  90.904  1.00  0.00    -0.504 OA
ATOM     16  H   UNL     1      84.400  90.493  91.851  1.00  0.00     0.293 HD
ENDBRANCH   9  15
ENDBRANCH   6   7
ENDBRANCH   3   6
ENDBRANCH   1   2
BRANCH   1  17
ATOM     17  C   UNL     1      81.036  88.119  83.770  1.00  0.00     0.010 C 
BRANCH  17  18
ATOM     18  C   UNL     1      81.253  89.596  84.200  1.00  0.00     0.001 C 
BRANCH  18  19
ATOM     19  C   UNL     1      82.531  89.808  85.054  1.00  0.00     0.000 C 
BRANCH  19  20
ATOM     20  C   UNL     1      83.728  90.324  84.202  1.00  0.00     0.003 C 
BRANCH  20  21
ATOM     21  C   UNL     1      84.962  90.813  85.028  1.00  0.00    -0.017 C 
ATOM     22  C   UNL     1      85.440  89.711  86.018  1.00  0.00     0.007 C 
ATOM     23  C   UNL     1      84.689  92.139  85.796  1.00  0.00     0.007 C 
ENDBRANCH  20  21
ENDBRANCH  19  20
ENDBRANCH  18  19
ENDBRANCH  17  18
ENDBRANCH   1  17
TORSDOF 10
ENDMDL
MODEL 10
REMARK VINA RESULT:    -5.384     14.481     16.889
REMARK INTER + INTRA:          -9.127
REMARK INTER:                  -8.489
REMARK INTRA:                  -0.637
REMARK UNBOUND:                -0.753
REMARK SMILES COc1cc(CNC(=O)CCCCCC(C)C)ccc1O
REMARK SMILES IDX 10 1 8 2 7 3 9 5 6 6 5 7 3 8 20 9 4 10 19 11 18 12 2 13 1 14
REMARK SMILES IDX 21 15 11 17 12 18 13 19 14 20 15 21 16 22 17 23
REMARK H PARENT 7 4 21 16
REMARK Flexibility Score: inf
ROOT
ATOM      1  C   UNL     1      82.587  92.192  88.931  1.00  0.00     0.100 C 
ENDROOT
BRANCH   1   2
ATOM      2  C   UNL     1      83.064  91.168  87.978  1.00  0.00     0.220 C 
ATOM      3  N   UNL     1      82.617  91.192  86.691  1.00  0.00    -0.352 N 
ATOM      4  H   UNL     1      81.871  91.849  86.512  1.00  0.00     0.163 HD
ATOM      5  O   UNL     1      83.905  90.321  88.366  1.00  0.00    -0.275 OA
BRANCH   3   6
ATOM      6  C   UNL     1      83.122  90.378  85.631  1.00  0.00     0.151 C 
BRANCH   6   7
ATOM      7  C   UNL     1      82.183  89.297  85.227  1.00  0.00    -0.025 A 
ATOM      8  C   UNL     1      81.339  87.001  85.480  1.00  0.00     0.160 A 
ATOM      9  C   UNL     1      80.352  87.259  84.505  1.00  0.00     0.157 A 
ATOM     10  C   UNL     1      82.260  88.015  85.821  1.00  0.00     0.056 A 
ATOM     11  C   UNL     1      80.284  88.522  83.889  1.00  0.00     0.050 A 
ATOM     12  C   UNL     1      81.188  89.535  84.250  1.00  0.00     0.009 A 
BRANCH   8  13
ATOM     13  O   UNL     1      81.436  85.772  86.078  1.00  0.00    -0.493 OA
ATOM     14  C   UNL     1      82.772  85.234  86.090  1.00  0.00     0.278 C 
ENDBRANCH   8  13
BRANCH   9  15
ATOM     15  O   UNL     1      79.464  86.290  84.168  1.00  0.00    -0.504 OA
ATOM     16  H   UNL     1      79.855  85.713  83.508  1.00  0.00     0.293 HD
ENDBRANCH   9  15
ENDBRANCH   6   7
ENDBRANCH   3   6
ENDBRANCH   1   2
BRANCH   1  17
ATOM     17  C   UNL     1      83.231  93.591  88.739  1.00  0.00     0.010 C 
BRANCH  17  18
ATOM     18  C   UNL     1      82.158  94.684  88.476  1.00  0.00     0.001 C 
BRANCH  18  19
ATOM     19  C   UNL     1      82.649  95.816  87.536  1.00  0.00     0.000 C 
BRANCH  19  20
ATOM     20  C   UNL     1      82.449  97.228  88.161  1.00  0.00     0.003 C 
BRANCH  20  21
ATOM     21  C   UNL     1      81.195  98.006  87.645  1.00  0.00    -0.017 C 
ATOM     22  C   UNL     1      80.039  97.950  88.687  1.00  0.00     0.007 C 
ATOM     23  C   UNL     1      80.693  97.496  86.263  1.00  0.00     0.007 C 
ENDBRANCH  20  21
ENDBRANCH  19  20
ENDBRANCH  18  19
ENDBRANCH  17  18
ENDBRANCH   1  17
TORSDOF 10
ENDMDL
