MODEL 1
REMARK VINA RESULT:    -6.408      0.000      0.000
REMARK INTER + INTRA:         -11.605
REMARK INTER:                  -9.967
REMARK INTRA:                  -1.637
REMARK UNBOUND:                -1.637
REMARK SMILES COc1cc(CNC(=O)CCCC/C=C/C(C)C)ccc1O
REMARK SMILES IDX 10 1 8 2 7 3 9 5 6 6 5 7 3 8 21 9 4 10 20 11 19 12 2 13 1 14
REMARK SMILES IDX 22 15 11 17 12 18 13 19 14 20 15 21 16 22 17 23 18 24
REMARK H PARENT 7 4 22 16
REMARK Flexibility Score: inf
ROOT
ATOM      1  C   UNL     1      96.396  97.658  74.420  1.00  0.00     0.100 C 
ENDROOT
BRANCH   1   2
ATOM      2  C   UNL     1      97.319  97.144  75.451  1.00  0.00     0.220 C 
ATOM      3  N   UNL     1      96.844  96.726  76.657  1.00  0.00    -0.352 N 
ATOM      4  H   UNL     1      95.846  96.822  76.780  1.00  0.00     0.163 HD
ATOM      5  O   UNL     1      98.541  97.082  75.173  1.00  0.00    -0.275 OA
BRANCH   3   6
ATOM      6  C   UNL     1      97.648  96.184  77.707  1.00  0.00     0.151 C 
BRANCH   6   7
ATOM      7  C   UNL     1      96.899  95.174  78.502  1.00  0.00    -0.025 A 
ATOM      8  C   UNL     1      95.822  94.496  80.610  1.00  0.00     0.160 A 
ATOM      9  C   UNL     1      95.454  93.266  80.028  1.00  0.00     0.157 A 
ATOM     10  C   UNL     1      96.542  95.436  79.844  1.00  0.00     0.056 A 
ATOM     11  C   UNL     1      95.819  92.982  78.697  1.00  0.00     0.050 A 
ATOM     12  C   UNL     1      96.528  93.932  77.936  1.00  0.00     0.009 A 
BRANCH   8  13
ATOM     13  O   UNL     1      95.526  94.750  81.925  1.00  0.00    -0.493 OA
ATOM     14  C   UNL     1      95.885  96.074  82.362  1.00  0.00     0.278 C 
ENDBRANCH   8  13
BRANCH   9  15
ATOM     15  O   UNL     1      94.749  92.344  80.734  1.00  0.00    -0.504 OA
ATOM     16  H   UNL     1      95.245  91.523  80.773  1.00  0.00     0.293 HD
ENDBRANCH   9  15
ENDBRANCH   6   7
ENDBRANCH   3   6
ENDBRANCH   1   2
BRANCH   1  17
ATOM     17  C   UNL     1      94.913  97.387  74.793  1.00  0.00     0.010 C 
BRANCH  17  18
ATOM     18  C   UNL     1      94.335  96.124  74.095  1.00  0.00     0.005 C 
BRANCH  18  19
ATOM     19  C   UNL     1      94.536  94.838  74.941  1.00  0.00     0.027 C 
BRANCH  19  20
ATOM     20  C   UNL     1      93.337  94.477  75.682  1.00  0.00    -0.031 C 
ATOM     21  C   UNL     1      93.046  94.929  76.915  1.00  0.00    -0.028 C 
BRANCH  21  22
ATOM     22  C   UNL     1      91.824  94.568  77.634  1.00  0.00     0.005 C 
ATOM     23  C   UNL     1      90.543  94.888  76.816  1.00  0.00     0.012 C 
ATOM     24  C   UNL     1      91.863  93.072  78.040  1.00  0.00     0.012 C 
ENDBRANCH  21  22
ENDBRANCH  19  20
ENDBRANCH  18  19
ENDBRANCH  17  18
ENDBRANCH   1  17
TORSDOF 10
ENDMDL
MODEL 2
REMARK VINA RESULT:    -6.143      0.982      2.074
REMARK INTER + INTRA:         -11.192
REMARK INTER:                 -10.169
REMARK INTRA:                  -1.024
REMARK UNBOUND:                -1.637
REMARK SMILES COc1cc(CNC(=O)CCCC/C=C/C(C)C)ccc1O
REMARK SMILES IDX 10 1 8 2 7 3 9 5 6 6 5 7 3 8 21 9 4 10 20 11 19 12 2 13 1 14
REMARK SMILES IDX 22 15 11 17 12 18 13 19 14 20 15 21 16 22 17 23 18 24
REMARK H PARENT 7 4 22 16
REMARK Flexibility Score: inf
ROOT
ATOM      1  C   UNL     1      96.368  97.301  74.387  1.00  0.00     0.100 C 
ENDROOT
BRANCH   1   2
ATOM      2  C   UNL     1      97.404  97.066  75.412  1.00  0.00     0.220 C 
ATOM      3  N   UNL     1      97.053  96.770  76.694  1.00  0.00    -0.352 N 
ATOM      4  H   UNL     1      96.058  96.753  76.871  1.00  0.00     0.163 HD
ATOM      5  O   UNL     1      98.607  97.123  75.061  1.00  0.00    -0.275 OA
BRANCH   3   6
ATOM      6  C   UNL     1      97.975  96.495  77.749  1.00  0.00     0.151 C 
BRANCH   6   7
ATOM      7  C   UNL     1      97.273  96.252  79.039  1.00  0.00    -0.025 A 
ATOM      8  C   UNL     1      95.986  94.759  80.514  1.00  0.00     0.160 A 
ATOM      9  C   UNL     1      95.948  95.765  81.501  1.00  0.00     0.157 A 
ATOM     10  C   UNL     1      96.645  95.012  79.293  1.00  0.00     0.056 A 
ATOM     11  C   UNL     1      96.553  97.014  81.255  1.00  0.00     0.050 A 
ATOM     12  C   UNL     1      97.219  97.253  80.037  1.00  0.00     0.009 A 
BRANCH   8  13
ATOM     13  O   UNL     1      95.342  93.566  80.723  1.00  0.00    -0.493 OA
ATOM     14  C   UNL     1      94.828  92.958  79.523  1.00  0.00     0.278 C 
ENDBRANCH   8  13
BRANCH   9  15
ATOM     15  O   UNL     1      95.332  95.549  82.692  1.00  0.00    -0.504 OA
ATOM     16  H   UNL     1      94.727  94.809  82.611  1.00  0.00     0.293 HD
ENDBRANCH   9  15
ENDBRANCH   6   7
ENDBRANCH   3   6
ENDBRANCH   1   2
BRANCH   1  17
ATOM     17  C   UNL     1      94.974  96.808  74.859  1.00  0.00     0.010 C 
BRANCH  17  18
ATOM     18  C   UNL     1      94.647  95.367  74.376  1.00  0.00     0.005 C 
BRANCH  18  19
ATOM     19  C   UNL     1      94.401  94.389  75.557  1.00  0.00     0.027 C 
BRANCH  19  20
ATOM     20  C   UNL     1      93.110  94.611  76.191  1.00  0.00    -0.031 C 
ATOM     21  C   UNL     1      92.418  93.662  76.847  1.00  0.00    -0.028 C 
BRANCH  21  22
ATOM     22  C   UNL     1      91.130  93.913  77.495  1.00  0.00     0.005 C 
ATOM     23  C   UNL     1      90.324  95.037  76.788  1.00  0.00     0.012 C 
ATOM     24  C   UNL     1      90.304  92.602  77.569  1.00  0.00     0.012 C 
ENDBRANCH  21  22
ENDBRANCH  19  20
ENDBRANCH  18  19
ENDBRANCH  17  18
ENDBRANCH   1  17
TORSDOF 10
ENDMDL
MODEL 3
REMARK VINA RESULT:    -5.856      6.082      9.420
REMARK INTER + INTRA:         -10.746
REMARK INTER:                  -9.962
REMARK INTRA:                  -0.784
REMARK UNBOUND:                -1.637
REMARK SMILES COc1cc(CNC(=O)CCCC/C=C/C(C)C)ccc1O
REMARK SMILES IDX 10 1 8 2 7 3 9 5 6 6 5 7 3 8 21 9 4 10 20 11 19 12 2 13 1 14
REMARK SMILES IDX 22 15 11 17 12 18 13 19 14 20 15 21 16 22 17 23 18 24
REMARK H PARENT 7 4 22 16
REMARK Flexibility Score: inf
ROOT
ATOM      1  C   UNL     1      94.587  99.016  73.842  1.00  0.00     0.100 C 
ENDROOT
BRANCH   1   2
ATOM      2  C   UNL     1      93.790 100.033  73.130  1.00  0.00     0.220 C 
ATOM      3  N   UNL     1      93.601  99.945  71.784  1.00  0.00    -0.352 N 
ATOM      4  H   UNL     1      94.061  99.163  71.338  1.00  0.00     0.163 HD
ATOM      5  O   UNL     1      93.277 100.961  73.802  1.00  0.00    -0.275 OA
BRANCH   3   6
ATOM      6  C   UNL     1      92.823 100.857  71.008  1.00  0.00     0.151 C 
BRANCH   6   7
ATOM      7  C   UNL     1      91.658 100.181  70.375  1.00  0.00    -0.025 A 
ATOM      8  C   UNL     1      90.089  99.962  68.490  1.00  0.00     0.160 A 
ATOM      9  C   UNL     1      89.450  98.889  69.146  1.00  0.00     0.157 A 
ATOM     10  C   UNL     1      91.184 100.598  69.111  1.00  0.00     0.056 A 
ATOM     11  C   UNL     1      89.899  98.474  70.415  1.00  0.00     0.050 A 
ATOM     12  C   UNL     1      91.000  99.108  71.022  1.00  0.00     0.009 A 
BRANCH   8  13
ATOM     13  O   UNL     1      89.614 100.412  67.284  1.00  0.00    -0.493 OA
ATOM     14  C   UNL     1      90.309  99.876  66.143  1.00  0.00     0.278 C 
ENDBRANCH   8  13
BRANCH   9  15
ATOM     15  O   UNL     1      88.401  98.246  68.569  1.00  0.00    -0.504 OA
ATOM     16  H   UNL     1      88.721  97.678  67.865  1.00  0.00     0.293 HD
ENDBRANCH   9  15
ENDBRANCH   6   7
ENDBRANCH   3   6
ENDBRANCH   1   2
BRANCH   1  17
ATOM     17  C   UNL     1      93.741  97.759  74.180  1.00  0.00     0.010 C 
BRANCH  17  18
ATOM     18  C   UNL     1      94.521  96.431  73.972  1.00  0.00     0.005 C 
BRANCH  18  19
ATOM     19  C   UNL     1      94.809  95.699  75.311  1.00  0.00     0.027 C 
BRANCH  19  20
ATOM     20  C   UNL     1      93.631  95.019  75.828  1.00  0.00    -0.031 C 
ATOM     21  C   UNL     1      93.007  95.352  76.972  1.00  0.00    -0.028 C 
BRANCH  21  22
ATOM     22  C   UNL     1      91.812  94.666  77.463  1.00  0.00     0.005 C 
ATOM     23  C   UNL     1      90.750  94.463  76.347  1.00  0.00     0.012 C 
ATOM     24  C   UNL     1      92.199  93.312  78.111  1.00  0.00     0.012 C 
ENDBRANCH  21  22
ENDBRANCH  19  20
ENDBRANCH  18  19
ENDBRANCH  17  18
ENDBRANCH   1  17
TORSDOF 10
ENDMDL
MODEL 4
REMARK VINA RESULT:    -5.659      2.447      6.298
REMARK INTER + INTRA:         -10.439
REMARK INTER:                  -9.313
REMARK INTRA:                  -1.126
REMARK UNBOUND:                -1.637
REMARK SMILES COc1cc(CNC(=O)CCCC/C=C/C(C)C)ccc1O
REMARK SMILES IDX 10 1 8 2 7 3 9 5 6 6 5 7 3 8 21 9 4 10 20 11 19 12 2 13 1 14
REMARK SMILES IDX 22 15 11 17 12 18 13 19 14 20 15 21 16 22 17 23 18 24
REMARK H PARENT 7 4 22 16
REMARK Flexibility Score: inf
ROOT
ATOM      1  C   UNL     1      96.121  95.575  81.418  1.00  0.00     0.100 C 
ENDROOT
BRANCH   1   2
ATOM      2  C   UNL     1      95.581  94.540  80.514  1.00  0.00     0.220 C 
ATOM      3  N   UNL     1      95.286  94.840  79.219  1.00  0.00    -0.352 N 
ATOM      4  H   UNL     1      95.442  95.804  78.957  1.00  0.00     0.163 HD
ATOM      5  O   UNL     1      95.427  93.380  80.967  1.00  0.00    -0.275 OA
BRANCH   3   6
ATOM      6  C   UNL     1      94.791  93.906  78.258  1.00  0.00     0.151 C 
BRANCH   6   7
ATOM      7  C   UNL     1      93.400  94.235  77.842  1.00  0.00    -0.025 A 
ATOM      8  C   UNL     1      91.064  93.542  77.490  1.00  0.00     0.160 A 
ATOM      9  C   UNL     1      90.739  94.849  77.072  1.00  0.00     0.157 A 
ATOM     10  C   UNL     1      92.390  93.247  77.869  1.00  0.00     0.056 A 
ATOM     11  C   UNL     1      91.739  95.839  77.021  1.00  0.00     0.050 A 
ATOM     12  C   UNL     1      93.058  95.538  77.413  1.00  0.00     0.009 A 
BRANCH   8  13
ATOM     13  O   UNL     1      90.108  92.558  77.478  1.00  0.00    -0.493 OA
ATOM     14  C   UNL     1      90.284  91.582  76.434  1.00  0.00     0.278 C 
ENDBRANCH   8  13
BRANCH   9  15
ATOM     15  O   UNL     1      89.469  95.169  76.713  1.00  0.00    -0.504 OA
ATOM     16  H   UNL     1      89.479  95.621  75.866  1.00  0.00     0.293 HD
ENDBRANCH   9  15
ENDBRANCH   6   7
ENDBRANCH   3   6
ENDBRANCH   1   2
BRANCH   1  17
ATOM     17  C   UNL     1      97.362  96.278  80.807  1.00  0.00     0.010 C 
BRANCH  17  18
ATOM     18  C   UNL     1      98.496  95.284  80.430  1.00  0.00     0.005 C 
BRANCH  18  19
ATOM     19  C   UNL     1      99.142  95.617  79.058  1.00  0.00     0.027 C 
BRANCH  19  20
ATOM     20  C   UNL     1      98.248  96.383  78.203  1.00  0.00    -0.031 C 
ATOM     21  C   UNL     1      98.516  96.706  76.925  1.00  0.00    -0.028 C 
BRANCH  21  22
ATOM     22  C   UNL     1      97.592  97.460  76.078  1.00  0.00     0.005 C 
ATOM     23  C   UNL     1      98.177  97.728  74.663  1.00  0.00     0.012 C 
ATOM     24  C   UNL     1      96.230  96.725  75.983  1.00  0.00     0.012 C 
ENDBRANCH  21  22
ENDBRANCH  19  20
ENDBRANCH  18  19
ENDBRANCH  17  18
ENDBRANCH   1  17
TORSDOF 10
ENDMDL
MODEL 5
REMARK VINA RESULT:    -5.527      5.671      7.367
REMARK INTER + INTRA:         -10.234
REMARK INTER:                  -9.620
REMARK INTRA:                  -0.614
REMARK UNBOUND:                -1.637
REMARK SMILES COc1cc(CNC(=O)CCCC/C=C/C(C)C)ccc1O
REMARK SMILES IDX 10 1 8 2 7 3 9 5 6 6 5 7 3 8 21 9 4 10 20 11 19 12 2 13 1 14
REMARK SMILES IDX 22 15 11 17 12 18 13 19 14 20 15 21 16 22 17 23 18 24
REMARK H PARENT 7 4 22 16
REMARK Flexibility Score: inf
ROOT
ATOM      1  C   UNL     1      92.369  99.381  71.547  1.00  0.00     0.100 C 
ENDROOT
BRANCH   1   2
ATOM      2  C   UNL     1      93.312  99.217  72.670  1.00  0.00     0.220 C 
ATOM      3  N   UNL     1      93.472  98.002  73.266  1.00  0.00    -0.352 N 
ATOM      4  H   UNL     1      92.890  97.265  72.895  1.00  0.00     0.163 HD
ATOM      5  O   UNL     1      93.973 100.217  73.041  1.00  0.00    -0.275 OA
BRANCH   3   6
ATOM      6  C   UNL     1      94.379  97.732  74.335  1.00  0.00     0.151 C 
BRANCH   6   7
ATOM      7  C   UNL     1      93.998  96.498  75.076  1.00  0.00    -0.025 A 
ATOM      8  C   UNL     1      92.431  95.297  76.547  1.00  0.00     0.160 A 
ATOM      9  C   UNL     1      93.247  94.148  76.479  1.00  0.00     0.157 A 
ATOM     10  C   UNL     1      92.815  96.460  75.848  1.00  0.00     0.056 A 
ATOM     11  C   UNL     1      94.440  94.178  75.730  1.00  0.00     0.050 A 
ATOM     12  C   UNL     1      94.809  95.340  75.026  1.00  0.00     0.009 A 
BRANCH   8  13
ATOM     13  O   UNL     1      91.303  95.294  77.328  1.00  0.00    -0.493 OA
ATOM     14  C   UNL     1      90.124  94.817  76.654  1.00  0.00     0.278 C 
ENDBRANCH   8  13
BRANCH   9  15
ATOM     15  O   UNL     1      92.899  93.008  77.130  1.00  0.00    -0.504 OA
ATOM     16  H   UNL     1      91.943  92.960  77.205  1.00  0.00     0.293 HD
ENDBRANCH   9  15
ENDBRANCH   6   7
ENDBRANCH   3   6
ENDBRANCH   1   2
BRANCH   1  17
ATOM     17  C   UNL     1      91.730 100.796  71.539  1.00  0.00     0.010 C 
BRANCH  17  18
ATOM     18  C   UNL     1      90.250 100.788  71.062  1.00  0.00     0.005 C 
BRANCH  18  19
ATOM     19  C   UNL     1      89.754  99.363  70.698  1.00  0.00     0.027 C 
BRANCH  19  20
ATOM     20  C   UNL     1      89.530  99.210  69.268  1.00  0.00    -0.031 C 
ATOM     21  C   UNL     1      88.978 100.155  68.485  1.00  0.00    -0.028 C 
BRANCH  21  22
ATOM     22  C   UNL     1      88.780  99.988  67.045  1.00  0.00     0.005 C 
ATOM     23  C   UNL     1      89.385  98.658  66.517  1.00  0.00     0.012 C 
ATOM     24  C   UNL     1      87.272 100.086  66.697  1.00  0.00     0.012 C 
ENDBRANCH  21  22
ENDBRANCH  19  20
ENDBRANCH  18  19
ENDBRANCH  17  18
ENDBRANCH   1  17
TORSDOF 10
ENDMDL
MODEL 6
REMARK VINA RESULT:    -5.424      3.986      5.422
REMARK INTER + INTRA:         -10.074
REMARK INTER:                  -9.371
REMARK INTRA:                  -0.703
REMARK UNBOUND:                -1.637
REMARK SMILES COc1cc(CNC(=O)CCCC/C=C/C(C)C)ccc1O
REMARK SMILES IDX 10 1 8 2 7 3 9 5 6 6 5 7 3 8 21 9 4 10 20 11 19 12 2 13 1 14
REMARK SMILES IDX 22 15 11 17 12 18 13 19 14 20 15 21 16 22 17 23 18 24
REMARK H PARENT 7 4 22 16
REMARK Flexibility Score: inf
ROOT
ATOM      1  C   UNL     1      93.289  98.491  73.733  1.00  0.00     0.100 C 
ENDROOT
BRANCH   1   2
ATOM      2  C   UNL     1      94.156  97.300  73.824  1.00  0.00     0.220 C 
ATOM      3  N   UNL     1      93.878  96.309  74.716  1.00  0.00    -0.352 N 
ATOM      4  H   UNL     1      93.069  96.474  75.299  1.00  0.00     0.163 HD
ATOM      5  O   UNL     1      95.136  97.220  73.044  1.00  0.00    -0.275 OA
BRANCH   3   6
ATOM      6  C   UNL     1      94.633  95.106  74.860  1.00  0.00     0.151 C 
BRANCH   6   7
ATOM      7  C   UNL     1      94.323  94.415  76.142  1.00  0.00    -0.025 A 
ATOM      8  C   UNL     1      95.058  93.549  78.326  1.00  0.00     0.160 A 
ATOM      9  C   UNL     1      93.743  93.118  78.599  1.00  0.00     0.157 A 
ATOM     10  C   UNL     1      95.336  94.190  77.100  1.00  0.00     0.056 A 
ATOM     11  C   UNL     1      92.727  93.318  77.644  1.00  0.00     0.050 A 
ATOM     12  C   UNL     1      93.011  93.970  76.428  1.00  0.00     0.009 A 
BRANCH   8  13
ATOM     13  O   UNL     1      96.065  93.298  79.223  1.00  0.00    -0.493 OA
ATOM     14  C   UNL     1      96.638  94.481  79.808  1.00  0.00     0.278 C 
ENDBRANCH   8  13
BRANCH   9  15
ATOM     15  O   UNL     1      93.440  92.509  79.774  1.00  0.00    -0.504 OA
ATOM     16  H   UNL     1      93.957  91.704  79.861  1.00  0.00     0.293 HD
ENDBRANCH   9  15
ENDBRANCH   6   7
ENDBRANCH   3   6
ENDBRANCH   1   2
BRANCH   1  17
ATOM     17  C   UNL     1      93.979  99.644  72.955  1.00  0.00     0.010 C 
BRANCH  17  18
ATOM     18  C   UNL     1      93.333  99.909  71.566  1.00  0.00     0.005 C 
BRANCH  18  19
ATOM     19  C   UNL     1      92.082 100.824  71.662  1.00  0.00     0.027 C 
BRANCH  19  20
ATOM     20  C   UNL     1      90.929 100.247  70.989  1.00  0.00    -0.031 C 
ATOM     21  C   UNL     1      90.967  99.120  70.256  1.00  0.00    -0.028 C 
BRANCH  21  22
ATOM     22  C   UNL     1      89.790  98.547  69.603  1.00  0.00     0.005 C 
ATOM     23  C   UNL     1      88.946  99.620  68.862  1.00  0.00     0.012 C 
ATOM     24  C   UNL     1      90.213  97.411  68.635  1.00  0.00     0.012 C 
ENDBRANCH  21  22
ENDBRANCH  19  20
ENDBRANCH  18  19
ENDBRANCH  17  18
ENDBRANCH   1  17
TORSDOF 10
ENDMDL
MODEL 7
REMARK VINA RESULT:    -5.304     27.826     30.708
REMARK INTER + INTRA:          -9.887
REMARK INTER:                  -8.484
REMARK INTRA:                  -1.403
REMARK UNBOUND:                -1.637
REMARK SMILES COc1cc(CNC(=O)CCCC/C=C/C(C)C)ccc1O
REMARK SMILES IDX 10 1 8 2 7 3 9 5 6 6 5 7 3 8 21 9 4 10 20 11 19 12 2 13 1 14
REMARK SMILES IDX 22 15 11 17 12 18 13 19 14 20 15 21 16 22 17 23 18 24
REMARK H PARENT 7 4 22 16
REMARK Flexibility Score: inf
ROOT
ATOM      1  C   UNL     1      82.174  65.714  76.406  1.00  0.00     0.100 C 
ENDROOT
BRANCH   1   2
ATOM      2  C   UNL     1      83.348  66.594  76.252  1.00  0.00     0.220 C 
ATOM      3  N   UNL     1      84.154  66.487  75.160  1.00  0.00    -0.352 N 
ATOM      4  H   UNL     1      83.894  65.760  74.507  1.00  0.00     0.163 HD
ATOM      5  O   UNL     1      83.564  67.453  77.141  1.00  0.00    -0.275 OA
BRANCH   3   6
ATOM      6  C   UNL     1      85.293  67.309  74.902  1.00  0.00     0.151 C 
BRANCH   6   7
ATOM      7  C   UNL     1      85.010  68.317  73.843  1.00  0.00    -0.025 A 
ATOM      8  C   UNL     1      85.336  70.572  72.910  1.00  0.00     0.160 A 
ATOM      9  C   UNL     1      84.498  70.244  71.824  1.00  0.00     0.157 A 
ATOM     10  C   UNL     1      85.582  69.608  73.909  1.00  0.00     0.056 A 
ATOM     11  C   UNL     1      83.905  68.968  71.755  1.00  0.00     0.050 A 
ATOM     12  C   UNL     1      84.166  68.007  72.751  1.00  0.00     0.009 A 
BRANCH   8  13
ATOM     13  O   UNL     1      85.863  71.834  73.016  1.00  0.00    -0.493 OA
ATOM     14  C   UNL     1      85.087  72.727  73.837  1.00  0.00     0.278 C 
ENDBRANCH   8  13
BRANCH   9  15
ATOM     15  O   UNL     1      84.251  71.145  70.838  1.00  0.00    -0.504 OA
ATOM     16  H   UNL     1      85.083  71.471  70.486  1.00  0.00     0.293 HD
ENDBRANCH   9  15
ENDBRANCH   6   7
ENDBRANCH   3   6
ENDBRANCH   1   2
BRANCH   1  17
ATOM     17  C   UNL     1      82.038  64.727  75.215  1.00  0.00     0.010 C 
BRANCH  17  18
ATOM     18  C   UNL     1      80.649  64.805  74.521  1.00  0.00     0.005 C 
BRANCH  18  19
ATOM     19  C   UNL     1      80.572  65.954  73.480  1.00  0.00     0.027 C 
BRANCH  19  20
ATOM     20  C   UNL     1      80.945  65.510  72.146  1.00  0.00    -0.031 C 
ATOM     21  C   UNL     1      81.161  66.336  71.106  1.00  0.00    -0.028 C 
BRANCH  21  22
ATOM     22  C   UNL     1      81.555  65.869  69.777  1.00  0.00     0.005 C 
ATOM     23  C   UNL     1      80.482  64.946  69.135  1.00  0.00     0.012 C 
ATOM     24  C   UNL     1      81.871  67.075  68.856  1.00  0.00     0.012 C 
ENDBRANCH  21  22
ENDBRANCH  19  20
ENDBRANCH  18  19
ENDBRANCH  17  18
ENDBRANCH   1  17
TORSDOF 10
ENDMDL
MODEL 8
REMARK VINA RESULT:    -5.163     12.756     14.914
REMARK INTER + INTRA:          -9.669
REMARK INTER:                  -8.751
REMARK INTRA:                  -0.918
REMARK UNBOUND:                -1.637
REMARK SMILES COc1cc(CNC(=O)CCCC/C=C/C(C)C)ccc1O
REMARK SMILES IDX 10 1 8 2 7 3 9 5 6 6 5 7 3 8 21 9 4 10 20 11 19 12 2 13 1 14
REMARK SMILES IDX 22 15 11 17 12 18 13 19 14 20 15 21 16 22 17 23 18 24
REMARK H PARENT 7 4 22 16
REMARK Flexibility Score: inf
ROOT
ATOM      1  C   UNL     1     100.290  80.280  79.369  1.00  0.00     0.100 C 
ENDROOT
BRANCH   1   2
ATOM      2  C   UNL     1      99.382  79.814  80.435  1.00  0.00     0.220 C 
ATOM      3  N   UNL     1      98.047  80.078  80.369  1.00  0.00    -0.352 N 
ATOM      4  H   UNL     1      97.758  80.621  79.567  1.00  0.00     0.163 HD
ATOM      5  O   UNL     1      99.871  79.154  81.383  1.00  0.00    -0.275 OA
BRANCH   3   6
ATOM      6  C   UNL     1      97.082  79.646  81.329  1.00  0.00     0.151 C 
BRANCH   6   7
ATOM      7  C   UNL     1      96.551  80.788  82.123  1.00  0.00    -0.025 A 
ATOM      8  C   UNL     1      95.292  81.627  84.065  1.00  0.00     0.160 A 
ATOM      9  C   UNL     1      95.548  82.953  83.658  1.00  0.00     0.157 A 
ATOM     10  C   UNL     1      95.793  80.558  83.293  1.00  0.00     0.056 A 
ATOM     11  C   UNL     1      96.285  83.197  82.483  1.00  0.00     0.050 A 
ATOM     12  C   UNL     1      96.792  82.124  81.725  1.00  0.00     0.009 A 
BRANCH   8  13
ATOM     13  O   UNL     1      94.518  81.384  85.171  1.00  0.00    -0.493 OA
ATOM     14  C   UNL     1      93.116  81.233  84.886  1.00  0.00     0.278 C 
ENDBRANCH   8  13
BRANCH   9  15
ATOM     15  O   UNL     1      95.091  84.005  84.386  1.00  0.00    -0.504 OA
ATOM     16  H   UNL     1      95.452  83.962  85.274  1.00  0.00     0.293 HD
ENDBRANCH   9  15
ENDBRANCH   6   7
ENDBRANCH   3   6
ENDBRANCH   1   2
BRANCH   1  17
ATOM     17  C   UNL     1     100.366  79.265  78.198  1.00  0.00     0.010 C 
BRANCH  17  18
ATOM     18  C   UNL     1      99.310  79.539  77.090  1.00  0.00     0.005 C 
BRANCH  18  19
ATOM     19  C   UNL     1      99.792  80.600  76.064  1.00  0.00     0.027 C 
BRANCH  19  20
ATOM     20  C   UNL     1      98.748  81.560  75.739  1.00  0.00    -0.031 C 
ATOM     21  C   UNL     1      97.833  82.009  76.618  1.00  0.00    -0.028 C 
BRANCH  21  22
ATOM     22  C   UNL     1      96.804  82.990  76.274  1.00  0.00     0.005 C 
ATOM     23  C   UNL     1      96.353  82.876  74.792  1.00  0.00     0.012 C 
ATOM     24  C   UNL     1      95.593  82.855  77.233  1.00  0.00     0.012 C 
ENDBRANCH  21  22
ENDBRANCH  19  20
ENDBRANCH  18  19
ENDBRANCH  17  18
ENDBRANCH   1  17
TORSDOF 10
ENDMDL
MODEL 9
REMARK VINA RESULT:    -5.098     22.815     26.293
REMARK INTER + INTRA:          -9.567
REMARK INTER:                  -8.780
REMARK INTRA:                  -0.787
REMARK UNBOUND:                -1.637
REMARK SMILES COc1cc(CNC(=O)CCCC/C=C/C(C)C)ccc1O
REMARK SMILES IDX 10 1 8 2 7 3 9 5 6 6 5 7 3 8 21 9 4 10 20 11 19 12 2 13 1 14
REMARK SMILES IDX 22 15 11 17 12 18 13 19 14 20 15 21 16 22 17 23 18 24
REMARK H PARENT 7 4 22 16
REMARK Flexibility Score: inf
ROOT
ATOM      1  C   UNL     1      76.132  85.538  68.465  1.00  0.00     0.100 C 
ENDROOT
BRANCH   1   2
ATOM      2  C   UNL     1      76.295  84.416  67.521  1.00  0.00     0.220 C 
ATOM      3  N   UNL     1      75.215  83.897  66.872  1.00  0.00    -0.352 N 
ATOM      4  H   UNL     1      74.330  84.322  67.109  1.00  0.00     0.163 HD
ATOM      5  O   UNL     1      77.452  83.975  67.319  1.00  0.00    -0.275 OA
BRANCH   3   6
ATOM      6  C   UNL     1      75.271  82.836  65.917  1.00  0.00     0.151 C 
BRANCH   6   7
ATOM      7  C   UNL     1      73.919  82.506  65.388  1.00  0.00    -0.025 A 
ATOM      8  C   UNL     1      71.550  83.101  65.081  1.00  0.00     0.160 A 
ATOM      9  C   UNL     1      71.340  81.902  64.370  1.00  0.00     0.157 A 
ATOM     10  C   UNL     1      72.835  83.391  65.585  1.00  0.00     0.056 A 
ATOM     11  C   UNL     1      72.407  81.000  64.183  1.00  0.00     0.050 A 
ATOM     12  C   UNL     1      73.689  81.304  64.679  1.00  0.00     0.009 A 
BRANCH   8  13
ATOM     13  O   UNL     1      70.500  83.950  65.322  1.00  0.00    -0.493 OA
ATOM     14  C   UNL     1      70.264  84.210  66.718  1.00  0.00     0.278 C 
ENDBRANCH   8  13
BRANCH   9  15
ATOM     15  O   UNL     1      70.118  81.599  63.860  1.00  0.00    -0.504 OA
ATOM     16  H   UNL     1      69.612  81.107  64.510  1.00  0.00     0.293 HD
ENDBRANCH   9  15
ENDBRANCH   6   7
ENDBRANCH   3   6
ENDBRANCH   1   2
BRANCH   1  17
ATOM     17  C   UNL     1      77.138  86.683  68.173  1.00  0.00     0.010 C 
BRANCH  17  18
ATOM     18  C   UNL     1      76.950  87.309  66.762  1.00  0.00     0.005 C 
BRANCH  18  19
ATOM     19  C   UNL     1      76.664  88.834  66.825  1.00  0.00     0.027 C 
BRANCH  19  20
ATOM     20  C   UNL     1      75.704  89.168  67.867  1.00  0.00    -0.031 C 
ATOM     21  C   UNL     1      75.837  90.207  68.712  1.00  0.00    -0.028 C 
BRANCH  21  22
ATOM     22  C   UNL     1      74.849  90.536  69.740  1.00  0.00     0.005 C 
ATOM     23  C   UNL     1      74.671  92.069  69.916  1.00  0.00     0.012 C 
ATOM     24  C   UNL     1      73.494  89.855  69.418  1.00  0.00     0.012 C 
ENDBRANCH  21  22
ENDBRANCH  19  20
ENDBRANCH  18  19
ENDBRANCH  17  18
ENDBRANCH   1  17
TORSDOF 10
ENDMDL
MODEL 10
REMARK VINA RESULT:    -5.074     22.126     24.667
REMARK INTER + INTRA:          -9.529
REMARK INTER:                  -7.811
REMARK INTRA:                  -1.719
REMARK UNBOUND:                -1.637
REMARK SMILES COc1cc(CNC(=O)CCCC/C=C/C(C)C)ccc1O
REMARK SMILES IDX 10 1 8 2 7 3 9 5 6 6 5 7 3 8 21 9 4 10 20 11 19 12 2 13 1 14
REMARK SMILES IDX 22 15 11 17 12 18 13 19 14 20 15 21 16 22 17 23 18 24
REMARK H PARENT 7 4 22 16
REMARK Flexibility Score: inf
ROOT
ATOM      1  C   UNL     1      72.269  89.959  68.861  1.00  0.00     0.100 C 
ENDROOT
BRANCH   1   2
ATOM      2  C   UNL     1      72.115  88.578  68.365  1.00  0.00     0.220 C 
ATOM      3  N   UNL     1      72.845  87.563  68.906  1.00  0.00    -0.352 N 
ATOM      4  H   UNL     1      73.492  87.843  69.631  1.00  0.00     0.163 HD
ATOM      5  O   UNL     1      71.279  88.366  67.453  1.00  0.00    -0.275 OA
BRANCH   3   6
ATOM      6  C   UNL     1      72.747  86.192  68.521  1.00  0.00     0.151 C 
BRANCH   6   7
ATOM      7  C   UNL     1      74.078  85.626  68.170  1.00  0.00    -0.025 A 
ATOM      8  C   UNL     1      75.500  84.319  66.642  1.00  0.00     0.160 A 
ATOM      9  C   UNL     1      76.613  84.556  67.475  1.00  0.00     0.157 A 
ATOM     10  C   UNL     1      74.244  84.853  66.998  1.00  0.00     0.056 A 
ATOM     11  C   UNL     1      76.459  85.308  68.656  1.00  0.00     0.050 A 
ATOM     12  C   UNL     1      75.204  85.848  68.997  1.00  0.00     0.009 A 
BRANCH   8  13
ATOM     13  O   UNL     1      75.631  83.532  65.526  1.00  0.00    -0.493 OA
ATOM     14  C   UNL     1      74.735  82.405  65.494  1.00  0.00     0.278 C 
ENDBRANCH   8  13
BRANCH   9  15
ATOM     15  O   UNL     1      77.839  84.067  67.154  1.00  0.00    -0.504 OA
ATOM     16  H   UNL     1      77.834  83.110  67.235  1.00  0.00     0.293 HD
ENDBRANCH   9  15
ENDBRANCH   6   7
ENDBRANCH   3   6
ENDBRANCH   1   2
BRANCH   1  17
ATOM     17  C   UNL     1      73.141  90.012  70.144  1.00  0.00     0.010 C 
BRANCH  17  18
ATOM     18  C   UNL     1      74.309  91.033  70.040  1.00  0.00     0.005 C 
BRANCH  18  19
ATOM     19  C   UNL     1      74.661  91.380  68.568  1.00  0.00     0.027 C 
BRANCH  19  20
ATOM     20  C   UNL     1      75.697  90.509  68.033  1.00  0.00    -0.031 C 
ATOM     21  C   UNL     1      75.597  89.844  66.868  1.00  0.00    -0.028 C 
BRANCH  21  22
ATOM     22  C   UNL     1      76.659  88.988  66.339  1.00  0.00     0.005 C 
ATOM     23  C   UNL     1      77.608  88.470  67.455  1.00  0.00     0.012 C 
ATOM     24  C   UNL     1      76.049  87.808  65.540  1.00  0.00     0.012 C 
ENDBRANCH  21  22
ENDBRANCH  19  20
ENDBRANCH  18  19
ENDBRANCH  17  18
ENDBRANCH   1  17
TORSDOF 10
ENDMDL
