MODEL 1
REMARK VINA RESULT:    -7.828      0.000      0.000
REMARK INTER + INTRA:          -9.557
REMARK INTER:                  -9.201
REMARK INTRA:                  -0.357
REMARK UNBOUND:                -0.357
REMARK SMILES O=C(/C=C/C=C/c1ccc2c(c1)OCO2)N1CCCCC1
REMARK SMILES IDX 3 1 4 2 2 3 1 4 16 5 17 6 21 7 18 8 20 9 19 10 5 11 6 12
REMARK SMILES IDX 7 13 12 14 8 15 11 16 9 17 13 18 10 19 14 20 15 21
REMARK H PARENT
REMARK Flexibility Score: inf
ROOT
ATOM      1  C   UNL     1      94.990  97.199  77.045  1.00  0.00     0.071 C 
ATOM      2  C   UNL     1      93.691  97.128  77.327  1.00  0.00     0.006 C 
ENDROOT
BRANCH   1   3
ATOM      3  C   UNL     1      95.648  98.518  77.132  1.00  0.00     0.246 C 
ATOM      4  O   UNL     1      95.559  99.264  76.156  1.00  0.00    -0.270 OA
ATOM      5  N   UNL     1      96.330  98.828  78.308  1.00  0.00    -0.339 N 
ATOM      6  C   UNL     1      96.998 100.128  78.422  1.00  0.00     0.120 C 
ATOM      7  C   UNL     1      96.495  97.947  79.474  1.00  0.00     0.120 C 
ATOM      8  C   UNL     1      96.570 100.865  79.686  1.00  0.00     0.022 C 
ATOM      9  C   UNL     1      96.079  98.653  80.764  1.00  0.00     0.022 C 
ATOM     10  C   UNL     1      96.782  99.998  80.923  1.00  0.00     0.004 C 
ENDBRANCH   1   3
BRANCH   2  11
ATOM     11  C   UNL     1      92.958  95.880  77.269  1.00  0.00     0.001 C 
ATOM     12  C   UNL     1      92.072  95.603  76.299  1.00  0.00     0.008 C 
BRANCH  12  13
ATOM     13  C   UNL     1      91.295  94.356  76.197  1.00  0.00    -0.022 A 
ATOM     14  C   UNL     1      91.232  93.697  74.977  1.00  0.00     0.058 A 
ATOM     15  C   UNL     1      90.641  93.870  77.333  1.00  0.00     0.012 A 
ATOM     16  C   UNL     1      90.493  92.533  74.931  1.00  0.00     0.166 A 
ATOM     17  C   UNL     1      89.900  92.689  77.258  1.00  0.00     0.051 A 
ATOM     18  O   UNL     1      90.309  91.747  73.835  1.00  0.00    -0.454 OA
ATOM     19  C   UNL     1      89.844  92.042  76.041  1.00  0.00     0.165 A 
ATOM     20  C   UNL     1      89.473  90.706  74.380  1.00  0.00     0.468 C 
ATOM     21  O   UNL     1      89.173  90.887  75.780  1.00  0.00    -0.454 OA
ENDBRANCH  12  13
ENDBRANCH   2  11
TORSDOF 3
ENDMDL
MODEL 2
REMARK VINA RESULT:    -7.576     29.147     34.353
REMARK INTER + INTRA:          -9.261
REMARK INTER:                  -8.932
REMARK INTRA:                  -0.329
REMARK UNBOUND:                -0.357
REMARK SMILES O=C(/C=C/C=C/c1ccc2c(c1)OCO2)N1CCCCC1
REMARK SMILES IDX 3 1 4 2 2 3 1 4 16 5 17 6 21 7 18 8 20 9 19 10 5 11 6 12
REMARK SMILES IDX 7 13 12 14 8 15 11 16 9 17 13 18 10 19 14 20 15 21
REMARK H PARENT
REMARK Flexibility Score: inf
ROOT
ATOM      1  C   UNL     1      78.750  64.832  69.661  1.00  0.00     0.071 C 
ATOM      2  C   UNL     1      80.075  64.838  69.793  1.00  0.00     0.006 C 
ENDROOT
BRANCH   1   3
ATOM      3  C   UNL     1      78.179  64.311  68.403  1.00  0.00     0.246 C 
ATOM      4  O   UNL     1      78.840  63.478  67.781  1.00  0.00    -0.270 OA
ATOM      5  N   UNL     1      76.937  64.798  68.002  1.00  0.00    -0.339 N 
ATOM      6  C   UNL     1      76.347  64.303  66.755  1.00  0.00     0.120 C 
ATOM      7  C   UNL     1      76.141  65.823  68.694  1.00  0.00     0.120 C 
ATOM      8  C   UNL     1      74.929  63.788  66.975  1.00  0.00     0.022 C 
ATOM      9  C   UNL     1      74.708  65.345  68.930  1.00  0.00     0.022 C 
ATOM     10  C   UNL     1      74.059  64.849  67.641  1.00  0.00     0.004 C 
ENDBRANCH   1   3
BRANCH   2  11
ATOM     11  C   UNL     1      80.727  65.330  70.988  1.00  0.00     0.001 C 
ATOM     12  C   UNL     1      81.914  65.958  70.962  1.00  0.00     0.008 C 
BRANCH  12  13
ATOM     13  C   UNL     1      82.624  66.470  72.146  1.00  0.00    -0.022 A 
ATOM     14  C   UNL     1      83.686  67.347  71.970  1.00  0.00     0.058 A 
ATOM     15  C   UNL     1      82.209  66.059  73.415  1.00  0.00     0.012 A 
ATOM     16  C   UNL     1      84.320  67.799  73.109  1.00  0.00     0.166 A 
ATOM     17  C   UNL     1      82.869  66.533  74.552  1.00  0.00     0.051 A 
ATOM     18  O   UNL     1      85.376  68.657  73.148  1.00  0.00    -0.454 OA
ATOM     19  C   UNL     1      83.922  67.403  74.366  1.00  0.00     0.165 A 
ATOM     20  C   UNL     1      85.598  68.756  74.569  1.00  0.00     0.468 C 
ATOM     21  O   UNL     1      84.679  67.963  75.348  1.00  0.00    -0.454 OA
ENDBRANCH  12  13
ENDBRANCH   2  11
TORSDOF 3
ENDMDL
MODEL 3
REMARK VINA RESULT:    -7.469      3.507      9.024
REMARK INTER + INTRA:          -9.136
REMARK INTER:                  -8.776
REMARK INTRA:                  -0.359
REMARK UNBOUND:                -0.357
REMARK SMILES O=C(/C=C/C=C/c1ccc2c(c1)OCO2)N1CCCCC1
REMARK SMILES IDX 3 1 4 2 2 3 1 4 16 5 17 6 21 7 18 8 20 9 19 10 5 11 6 12
REMARK SMILES IDX 7 13 12 14 8 15 11 16 9 17 13 18 10 19 14 20 15 21
REMARK H PARENT
REMARK Flexibility Score: inf
ROOT
ATOM      1  C   UNL     1      92.538  95.509  76.988  1.00  0.00     0.071 C 
ATOM      2  C   UNL     1      93.621  94.866  77.422  1.00  0.00     0.006 C 
ENDROOT
BRANCH   1   3
ATOM      3  C   UNL     1      91.907  95.042  75.737  1.00  0.00     0.246 C 
ATOM      4  O   UNL     1      92.402  95.420  74.674  1.00  0.00    -0.270 OA
ATOM      5  N   UNL     1      90.794  94.209  75.842  1.00  0.00    -0.339 N 
ATOM      6  C   UNL     1      90.143  93.734  74.618  1.00  0.00     0.120 C 
ATOM      7  C   UNL     1      90.150  93.773  77.090  1.00  0.00     0.120 C 
ATOM      8  C   UNL     1      89.999  92.216  74.617  1.00  0.00     0.022 C 
ATOM      9  C   UNL     1      89.984  92.254  77.126  1.00  0.00     0.022 C 
ATOM     10  C   UNL     1      89.283  91.734  75.874  1.00  0.00     0.004 C 
ENDBRANCH   1   3
BRANCH   2  11
ATOM     11  C   UNL     1      94.308  95.250  78.636  1.00  0.00     0.001 C 
ATOM     12  C   UNL     1      95.321  96.131  78.650  1.00  0.00     0.008 C 
BRANCH  12  13
ATOM     13  C   UNL     1      96.060  96.550  79.853  1.00  0.00    -0.022 A 
ATOM     14  C   UNL     1      96.727  95.592  80.604  1.00  0.00     0.058 A 
ATOM     15  C   UNL     1      96.068  97.902  80.206  1.00  0.00     0.012 A 
ATOM     16  C   UNL     1      97.404  96.033  81.722  1.00  0.00     0.166 A 
ATOM     17  C   UNL     1      96.763  98.321  81.343  1.00  0.00     0.051 A 
ATOM     18  O   UNL     1      98.114  95.254  82.584  1.00  0.00    -0.454 OA
ATOM     19  C   UNL     1      97.422  97.361  82.082  1.00  0.00     0.165 A 
ATOM     20  C   UNL     1      98.581  96.242  83.526  1.00  0.00     0.468 C 
ATOM     21  O   UNL     1      98.145  97.581  83.214  1.00  0.00    -0.454 OA
ENDBRANCH  12  13
ENDBRANCH   2  11
TORSDOF 3
ENDMDL
MODEL 4
REMARK VINA RESULT:    -7.351     13.346     15.830
REMARK INTER + INTRA:          -8.997
REMARK INTER:                  -8.632
REMARK INTRA:                  -0.365
REMARK UNBOUND:                -0.357
REMARK SMILES O=C(/C=C/C=C/c1ccc2c(c1)OCO2)N1CCCCC1
REMARK SMILES IDX 3 1 4 2 2 3 1 4 16 5 17 6 21 7 18 8 20 9 19 10 5 11 6 12
REMARK SMILES IDX 7 13 12 14 8 15 11 16 9 17 13 18 10 19 14 20 15 21
REMARK H PARENT
REMARK Flexibility Score: inf
ROOT
ATOM      1  C   UNL     1      95.559  82.304  83.149  1.00  0.00     0.071 C 
ATOM      2  C   UNL     1      96.815  82.459  82.735  1.00  0.00     0.006 C 
ENDROOT
BRANCH   1   3
ATOM      3  C   UNL     1      95.283  82.430  84.594  1.00  0.00     0.246 C 
ATOM      4  O   UNL     1      95.621  83.477  85.148  1.00  0.00    -0.270 OA
ATOM      5  N   UNL     1      94.665  81.357  85.234  1.00  0.00    -0.339 N 
ATOM      6  C   UNL     1      94.383  81.452  86.669  1.00  0.00     0.120 C 
ATOM      7  C   UNL     1      94.288  80.077  84.616  1.00  0.00     0.120 C 
ATOM      8  C   UNL     1      92.919  81.148  86.971  1.00  0.00     0.022 C 
ATOM      9  C   UNL     1      92.826  79.735  84.900  1.00  0.00     0.022 C 
ATOM     10  C   UNL     1      92.511  79.798  86.392  1.00  0.00     0.004 C 
ENDBRANCH   1   3
BRANCH   2  11
ATOM     11  C   UNL     1      97.183  82.353  81.339  1.00  0.00     0.001 C 
ATOM     12  C   UNL     1      96.899  83.307  80.438  1.00  0.00     0.008 C 
BRANCH  12  13
ATOM     13  C   UNL     1      97.243  83.246  79.007  1.00  0.00    -0.022 A 
ATOM     14  C   UNL     1      96.506  83.998  78.103  1.00  0.00     0.058 A 
ATOM     15  C   UNL     1      98.303  82.432  78.599  1.00  0.00     0.012 A 
ATOM     16  C   UNL     1      96.866  83.909  76.774  1.00  0.00     0.166 A 
ATOM     17  C   UNL     1      98.646  82.361  77.247  1.00  0.00     0.051 A 
ATOM     18  O   UNL     1      96.270  84.564  75.740  1.00  0.00    -0.454 OA
ATOM     19  C   UNL     1      97.908  83.112  76.357  1.00  0.00     0.165 A 
ATOM     20  C   UNL     1      97.053  84.089  74.626  1.00  0.00     0.468 C 
ATOM     21  O   UNL     1      98.094  83.168  75.010  1.00  0.00    -0.454 OA
ENDBRANCH  12  13
ENDBRANCH   2  11
TORSDOF 3
ENDMDL
MODEL 5
REMARK VINA RESULT:    -7.140      3.290      9.090
REMARK INTER + INTRA:          -8.749
REMARK INTER:                  -8.370
REMARK INTRA:                  -0.380
REMARK UNBOUND:                -0.357
REMARK SMILES O=C(/C=C/C=C/c1ccc2c(c1)OCO2)N1CCCCC1
REMARK SMILES IDX 3 1 4 2 2 3 1 4 16 5 17 6 21 7 18 8 20 9 19 10 5 11 6 12
REMARK SMILES IDX 7 13 12 14 8 15 11 16 9 17 13 18 10 19 14 20 15 21
REMARK H PARENT
REMARK Flexibility Score: inf
ROOT
ATOM      1  C   UNL     1      93.657  96.277  76.723  1.00  0.00     0.071 C 
ATOM      2  C   UNL     1      94.730  95.774  77.330  1.00  0.00     0.006 C 
ENDROOT
BRANCH   1   3
ATOM      3  C   UNL     1      93.046  95.495  75.631  1.00  0.00     0.246 C 
ATOM      4  O   UNL     1      93.680  95.393  74.580  1.00  0.00    -0.270 OA
ATOM      5  N   UNL     1      91.793  94.928  75.859  1.00  0.00    -0.339 N 
ATOM      6  C   UNL     1      91.158  94.150  74.791  1.00  0.00     0.120 C 
ATOM      7  C   UNL     1      90.987  95.065  77.082  1.00  0.00     0.120 C 
ATOM      8  C   UNL     1      90.736  92.770  75.283  1.00  0.00     0.022 C 
ATOM      9  C   UNL     1      90.540  93.700  77.605  1.00  0.00     0.022 C 
ATOM     10  C   UNL     1      89.850  92.878  76.521  1.00  0.00     0.004 C 
ENDBRANCH   1   3
BRANCH   2  11
ATOM     11  C   UNL     1      95.399  96.467  78.411  1.00  0.00     0.001 C 
ATOM     12  C   UNL     1      95.895  95.832  79.485  1.00  0.00     0.008 C 
BRANCH  12  13
ATOM     13  C   UNL     1      96.576  96.487  80.614  1.00  0.00    -0.022 A 
ATOM     14  C   UNL     1      96.326  97.829  80.866  1.00  0.00     0.058 A 
ATOM     15  C   UNL     1      97.455  95.740  81.401  1.00  0.00     0.012 A 
ATOM     16  C   UNL     1      96.987  98.399  81.935  1.00  0.00     0.166 A 
ATOM     17  C   UNL     1      98.111  96.342  82.477  1.00  0.00     0.051 A 
ATOM     18  O   UNL     1      96.878  99.694  82.343  1.00  0.00    -0.454 OA
ATOM     19  C   UNL     1      97.855  97.675  82.720  1.00  0.00     0.165 A 
ATOM     20  C   UNL     1      97.776  99.703  83.471  1.00  0.00     0.468 C 
ATOM     21  O   UNL     1      98.399  98.425  83.716  1.00  0.00    -0.454 OA
ENDBRANCH  12  13
ENDBRANCH   2  11
TORSDOF 3
ENDMDL
MODEL 6
REMARK VINA RESULT:    -7.020     13.106     15.283
REMARK INTER + INTRA:          -8.608
REMARK INTER:                  -8.266
REMARK INTRA:                  -0.342
REMARK UNBOUND:                -0.357
REMARK SMILES O=C(/C=C/C=C/c1ccc2c(c1)OCO2)N1CCCCC1
REMARK SMILES IDX 3 1 4 2 2 3 1 4 16 5 17 6 21 7 18 8 20 9 19 10 5 11 6 12
REMARK SMILES IDX 7 13 12 14 8 15 11 16 9 17 13 18 10 19 14 20 15 21
REMARK H PARENT
REMARK Flexibility Score: inf
ROOT
ATOM      1  C   UNL     1      95.934  82.222  82.829  1.00  0.00     0.071 C 
ATOM      2  C   UNL     1      97.043  82.553  82.170  1.00  0.00     0.006 C 
ENDROOT
BRANCH   1   3
ATOM      3  C   UNL     1      96.077  81.605  84.162  1.00  0.00     0.246 C 
ATOM      4  O   UNL     1      97.005  80.812  84.326  1.00  0.00    -0.270 OA
ATOM      5  N   UNL     1      95.151  81.956  85.143  1.00  0.00    -0.339 N 
ATOM      6  C   UNL     1      95.263  81.356  86.476  1.00  0.00     0.120 C 
ATOM      7  C   UNL     1      94.005  82.862  84.972  1.00  0.00     0.120 C 
ATOM      8  C   UNL     1      95.285  82.421  87.567  1.00  0.00     0.022 C 
ATOM      9  C   UNL     1      93.989  83.944  86.051  1.00  0.00     0.022 C 
ATOM     10  C   UNL     1      94.077  83.345  87.452  1.00  0.00     0.004 C 
ENDBRANCH   1   3
BRANCH   2  11
ATOM     11  C   UNL     1      97.005  83.162  80.857  1.00  0.00     0.001 C 
ATOM     12  C   UNL     1      97.473  82.549  79.758  1.00  0.00     0.008 C 
BRANCH  12  13
ATOM     13  C   UNL     1      97.466  83.124  78.402  1.00  0.00    -0.022 A 
ATOM     14  C   UNL     1      98.549  82.892  77.565  1.00  0.00     0.058 A 
ATOM     15  C   UNL     1      96.370  83.889  77.996  1.00  0.00     0.012 A 
ATOM     16  C   UNL     1      98.496  83.452  76.305  1.00  0.00     0.166 A 
ATOM     17  C   UNL     1      96.343  84.444  76.715  1.00  0.00     0.051 A 
ATOM     18  O   UNL     1      99.453  83.342  75.342  1.00  0.00    -0.454 OA
ATOM     19  C   UNL     1      97.423  84.207  75.891  1.00  0.00     0.165 A 
ATOM     20  C   UNL     1      98.861  84.113  74.277  1.00  0.00     0.468 C 
ATOM     21  O   UNL     1      97.573  84.665  74.618  1.00  0.00    -0.454 OA
ENDBRANCH  12  13
ENDBRANCH   2  11
TORSDOF 3
ENDMDL
MODEL 7
REMARK VINA RESULT:    -6.964     29.180     33.724
REMARK INTER + INTRA:          -8.542
REMARK INTER:                  -8.215
REMARK INTRA:                  -0.327
REMARK UNBOUND:                -0.357
REMARK SMILES O=C(/C=C/C=C/c1ccc2c(c1)OCO2)N1CCCCC1
REMARK SMILES IDX 3 1 4 2 2 3 1 4 16 5 17 6 21 7 18 8 20 9 19 10 5 11 6 12
REMARK SMILES IDX 7 13 12 14 8 15 11 16 9 17 13 18 10 19 14 20 15 21
REMARK H PARENT
REMARK Flexibility Score: inf
ROOT
ATOM      1  C   UNL     1      81.984  65.899  71.234  1.00  0.00     0.071 C 
ATOM      2  C   UNL     1      81.338  64.772  70.943  1.00  0.00     0.006 C 
ENDROOT
BRANCH   1   3
ATOM      3  C   UNL     1      83.345  65.794  71.796  1.00  0.00     0.246 C 
ATOM      4  O   UNL     1      83.950  64.734  71.628  1.00  0.00    -0.270 OA
ATOM      5  N   UNL     1      83.851  66.896  72.483  1.00  0.00    -0.339 N 
ATOM      6  C   UNL     1      85.198  66.819  73.058  1.00  0.00     0.120 C 
ATOM      7  C   UNL     1      83.144  68.159  72.743  1.00  0.00     0.120 C 
ATOM      8  C   UNL     1      86.063  67.993  72.610  1.00  0.00     0.022 C 
ATOM      9  C   UNL     1      83.981  69.362  72.310  1.00  0.00     0.022 C 
ATOM     10  C   UNL     1      85.381  69.323  72.917  1.00  0.00     0.004 C 
ENDBRANCH   1   3
BRANCH   2  11
ATOM     11  C   UNL     1      80.001  64.774  70.388  1.00  0.00     0.001 C 
ATOM     12  C   UNL     1      79.701  64.196  69.214  1.00  0.00     0.008 C 
BRANCH  12  13
ATOM     13  C   UNL     1      78.362  64.175  68.601  1.00  0.00    -0.022 A 
ATOM     14  C   UNL     1      77.368  64.992  69.120  1.00  0.00     0.058 A 
ATOM     15  C   UNL     1      78.129  63.331  67.511  1.00  0.00     0.012 A 
ATOM     16  C   UNL     1      76.130  64.938  68.512  1.00  0.00     0.166 A 
ATOM     17  C   UNL     1      76.866  63.296  66.915  1.00  0.00     0.051 A 
ATOM     18  O   UNL     1      75.032  65.657  68.872  1.00  0.00    -0.454 OA
ATOM     19  C   UNL     1      75.886  64.112  67.439  1.00  0.00     0.165 A 
ATOM     20  C   UNL     1      74.069  65.191  67.905  1.00  0.00     0.468 C 
ATOM     21  O   UNL     1      74.604  64.211  66.992  1.00  0.00    -0.454 OA
ENDBRANCH  12  13
ENDBRANCH   2  11
TORSDOF 3
ENDMDL
MODEL 8
REMARK VINA RESULT:    -6.899      2.619      3.634
REMARK INTER + INTRA:          -8.465
REMARK INTER:                  -8.124
REMARK INTRA:                  -0.341
REMARK UNBOUND:                -0.357
REMARK SMILES O=C(/C=C/C=C/c1ccc2c(c1)OCO2)N1CCCCC1
REMARK SMILES IDX 3 1 4 2 2 3 1 4 16 5 17 6 21 7 18 8 20 9 19 10 5 11 6 12
REMARK SMILES IDX 7 13 12 14 8 15 11 16 9 17 13 18 10 19 14 20 15 21
REMARK H PARENT
REMARK Flexibility Score: inf
ROOT
ATOM      1  C   UNL     1      94.140  97.991  75.376  1.00  0.00     0.071 C 
ATOM      2  C   UNL     1      94.443  96.810  75.910  1.00  0.00     0.006 C 
ENDROOT
BRANCH   1   3
ATOM      3  C   UNL     1      95.062  99.119  75.616  1.00  0.00     0.246 C 
ATOM      4  O   UNL     1      95.888  98.996  76.522  1.00  0.00    -0.270 OA
ATOM      5  N   UNL     1      94.934 100.246  74.806  1.00  0.00    -0.339 N 
ATOM      6  C   UNL     1      95.832 101.385  75.024  1.00  0.00     0.120 C 
ATOM      7  C   UNL     1      93.934 100.447  73.747  1.00  0.00     0.120 C 
ATOM      8  C   UNL     1      96.529 101.799  73.733  1.00  0.00     0.022 C 
ATOM      9  C   UNL     1      94.595 100.868  72.435  1.00  0.00     0.022 C 
ATOM     10  C   UNL     1      95.515 102.070  72.627  1.00  0.00     0.004 C 
ENDBRANCH   1   3
BRANCH   2  11
ATOM     11  C   UNL     1      93.601  95.646  75.731  1.00  0.00     0.001 C 
ATOM     12  C   UNL     1      92.449  95.473  76.399  1.00  0.00     0.008 C 
BRANCH  12  13
ATOM     13  C   UNL     1      91.560  94.307  76.261  1.00  0.00    -0.022 A 
ATOM     14  C   UNL     1      91.462  93.674  75.030  1.00  0.00     0.058 A 
ATOM     15  C   UNL     1      90.839  93.869  77.375  1.00  0.00     0.012 A 
ATOM     16  C   UNL     1      90.617  92.586  74.950  1.00  0.00     0.166 A 
ATOM     17  C   UNL     1      89.991  92.765  77.267  1.00  0.00     0.051 A 
ATOM     18  O   UNL     1      90.383  91.836  73.838  1.00  0.00    -0.454 OA
ATOM     19  C   UNL     1      89.901  92.143  76.039  1.00  0.00     0.165 A 
ATOM     20  C   UNL     1      89.440  90.872  74.350  1.00  0.00     0.468 C 
ATOM     21  O   UNL     1      89.130  91.061  75.746  1.00  0.00    -0.454 OA
ENDBRANCH  12  13
ENDBRANCH   2  11
TORSDOF 3
ENDMDL
MODEL 9
REMARK VINA RESULT:    -6.797     13.688     16.827
REMARK INTER + INTRA:          -8.346
REMARK INTER:                  -8.109
REMARK INTRA:                  -0.236
REMARK UNBOUND:                -0.357
REMARK SMILES O=C(/C=C/C=C/c1ccc2c(c1)OCO2)N1CCCCC1
REMARK SMILES IDX 3 1 4 2 2 3 1 4 16 5 17 6 21 7 18 8 20 9 19 10 5 11 6 12
REMARK SMILES IDX 7 13 12 14 8 15 11 16 9 17 13 18 10 19 14 20 15 21
REMARK H PARENT
REMARK Flexibility Score: inf
ROOT
ATOM      1  C   UNL     1      93.256  83.331  86.751  1.00  0.00     0.071 C 
ATOM      2  C   UNL     1      93.796  84.364  86.108  1.00  0.00     0.006 C 
ENDROOT
BRANCH   1   3
ATOM      3  C   UNL     1      93.525  81.974  86.234  1.00  0.00     0.246 C 
ATOM      4  O   UNL     1      94.425  81.328  86.773  1.00  0.00    -0.270 OA
ATOM      5  N   UNL     1      92.748  81.518  85.171  1.00  0.00    -0.339 N 
ATOM      6  C   UNL     1      92.996  80.177  84.633  1.00  0.00     0.120 C 
ATOM      7  C   UNL     1      91.698  82.276  84.474  1.00  0.00     0.120 C 
ATOM      8  C   UNL     1      91.715  79.351  84.584  1.00  0.00     0.022 C 
ATOM      9  C   UNL     1      90.396  81.478  84.401  1.00  0.00     0.022 C 
ATOM     10  C   UNL     1      90.619  80.086  83.818  1.00  0.00     0.004 C 
ENDBRANCH   1   3
BRANCH   2  11
ATOM     11  C   UNL     1      93.590  85.731  86.538  1.00  0.00     0.001 C 
ATOM     12  C   UNL     1      93.589  86.094  87.831  1.00  0.00     0.008 C 
BRANCH  12  13
ATOM     13  C   UNL     1      93.376  87.465  88.323  1.00  0.00    -0.022 A 
ATOM     14  C   UNL     1      94.220  88.478  87.887  1.00  0.00     0.058 A 
ATOM     15  C   UNL     1      92.330  87.710  89.215  1.00  0.00     0.012 A 
ATOM     16  C   UNL     1      93.981  89.746  88.376  1.00  0.00     0.166 A 
ATOM     17  C   UNL     1      92.110  89.003  89.694  1.00  0.00     0.051 A 
ATOM     18  O   UNL     1      94.693  90.866  88.072  1.00  0.00    -0.454 OA
ATOM     19  C   UNL     1      92.954  90.002  89.255  1.00  0.00     0.165 A 
ATOM     20  C   UNL     1      93.999  91.855  88.859  1.00  0.00     0.468 C 
ATOM     21  O   UNL     1      92.894  91.314  89.612  1.00  0.00    -0.454 OA
ENDBRANCH  12  13
ENDBRANCH   2  11
TORSDOF 3
ENDMDL
MODEL 10
REMARK VINA RESULT:    -6.679     16.667     20.010
REMARK INTER + INTRA:          -8.207
REMARK INTER:                  -7.835
REMARK INTRA:                  -0.373
REMARK UNBOUND:                -0.357
REMARK SMILES O=C(/C=C/C=C/c1ccc2c(c1)OCO2)N1CCCCC1
REMARK SMILES IDX 3 1 4 2 2 3 1 4 16 5 17 6 21 7 18 8 20 9 19 10 5 11 6 12
REMARK SMILES IDX 7 13 12 14 8 15 11 16 9 17 13 18 10 19 14 20 15 21
REMARK H PARENT
REMARK Flexibility Score: inf
ROOT
ATOM      1  C   UNL     1      90.575  80.275  83.750  1.00  0.00     0.071 C 
ATOM      2  C   UNL     1      91.006  79.267  84.505  1.00  0.00     0.006 C 
ENDROOT
BRANCH   1   3
ATOM      3  C   UNL     1      90.144  81.515  84.426  1.00  0.00     0.246 C 
ATOM      4  O   UNL     1      91.023  82.261  84.860  1.00  0.00    -0.270 OA
ATOM      5  N   UNL     1      88.775  81.755  84.534  1.00  0.00    -0.339 N 
ATOM      6  C   UNL     1      88.317  82.975  85.205  1.00  0.00     0.120 C 
ATOM      7  C   UNL     1      87.699  80.867  84.070  1.00  0.00     0.120 C 
ATOM      8  C   UNL     1      87.346  83.761  84.331  1.00  0.00     0.022 C 
ATOM      9  C   UNL     1      86.701  81.621  83.191  1.00  0.00     0.022 C 
ATOM     10  C   UNL     1      86.185  82.883  83.878  1.00  0.00     0.004 C 
ENDBRANCH   1   3
BRANCH   2  11
ATOM     11  C   UNL     1      91.449  78.013  83.934  1.00  0.00     0.001 C 
ATOM     12  C   UNL     1      90.683  76.910  83.921  1.00  0.00     0.008 C 
BRANCH  12  13
ATOM     13  C   UNL     1      91.086  75.608  83.362  1.00  0.00    -0.022 A 
ATOM     14  C   UNL     1      90.431  74.460  83.784  1.00  0.00     0.058 A 
ATOM     15  C   UNL     1      92.117  75.566  82.420  1.00  0.00     0.012 A 
ATOM     16  C   UNL     1      90.843  73.265  83.231  1.00  0.00     0.166 A 
ATOM     17  C   UNL     1      92.514  74.342  81.877  1.00  0.00     0.051 A 
ATOM     18  O   UNL     1      90.331  72.035  83.515  1.00  0.00    -0.454 OA
ATOM     19  C   UNL     1      91.857  73.207  82.303  1.00  0.00     0.165 A 
ATOM     20  C   UNL     1      91.136  71.198  82.660  1.00  0.00     0.468 C 
ATOM     21  O   UNL     1      92.107  71.935  81.888  1.00  0.00    -0.454 OA
ENDBRANCH  12  13
ENDBRANCH   2  11
TORSDOF 3
ENDMDL
