MODEL 1
REMARK VINA RESULT:    -7.021      0.000      0.000
REMARK INTER + INTRA:         -13.248
REMARK INTER:                 -12.357
REMARK INTRA:                  -0.891
REMARK UNBOUND:                -0.891
REMARK SMILES C=C(C)[C@]12C[C@@H](C)[C@@]34O[C@](Cc5ccccc5)(O[C@@H]1[C@@H]3C=C(COC(=O)Cc1ccc(O)c(OC)c1)C[C@]1(O)C(=O)C(C)=C[C@@H]41)O2
REMARK SMILES IDX 23 1 22 2 21 3 20 4 9 5 8 6 10 7 6 8 18 9 46 10 19 11 5 12
REMARK SMILES IDX 7 13 4 14 45 15 38 16 44 17 40 18 42 20 41 21 43 22 39 23
REMARK SMILES IDX 11 25 12 26 13 27 17 28 14 29 16 30 15 31 2 32 3 33 1 34
REMARK SMILES IDX 37 35 24 37 25 38 26 39 27 40 28 41 36 42 29 43 33 44 30 45
REMARK SMILES IDX 31 46 34 47 35 48 32 49
REMARK H PARENT 39 24 32 50
REMARK Flexibility Score: 90.00
ROOT
ATOM      1  C   UNL     1      96.096  81.700  83.697  1.00  0.00     0.264 C 
ENDROOT
BRANCH   1   2
ATOM      2  C   UNL     1      94.926  82.111  84.560  1.00  0.00    -0.033 C 
ATOM      3  C   UNL     1      93.808  81.357  84.558  1.00  0.00    -0.015 C 
BRANCH   3   4
ATOM      4  C   UNL     1      92.485  81.592  85.267  1.00  0.00     0.078 C 
ATOM      5  O   UNL     1      92.621  80.433  87.448  1.00  0.00    -0.319 OA
ATOM      6  C   UNL     1      92.493  81.752  86.833  1.00  0.00     0.095 C 
ATOM      7  C   UNL     1      91.822  79.394  86.851  1.00  0.00     0.289 C 
ATOM      8  C   UNL     1      91.107  82.394  87.257  1.00  0.00     0.023 C 
ATOM      9  O   UNL     1      92.119  79.246  85.465  1.00  0.00    -0.320 OA
ATOM     10  O   UNL     1      90.427  79.677  86.918  1.00  0.00    -0.313 OA
ATOM     11  C   UNL     1      91.504  80.436  84.947  1.00  0.00     0.170 C 
ATOM     12  C   UNL     1      89.951  81.930  86.318  1.00  0.00     0.049 C 
ATOM     13  C   UNL     1      90.697  82.172  88.722  1.00  0.00     0.011 C 
ATOM     14  C   UNL     1      90.196  80.523  85.773  1.00  0.00     0.122 C 
BRANCH   6  15
ATOM     15  C   UNL     1      93.759  82.524  87.302  1.00  0.00     0.086 C 
ATOM     16  C   UNL     1      94.166  83.744  86.450  1.00  0.00     0.140 CG0
ATOM     17  C   UNL     1      93.825  83.044  88.711  1.00  0.00    -0.010 C 
ATOM     18  C   UNL     1      94.732  84.692  87.487  1.00  0.00     0.190 C 
ATOM     19  G   UNL     1      95.185  83.381  85.372  1.00  0.00     0.000 G0
ATOM     20  C   UNL     1      94.391  84.247  88.852  1.00  0.00    -0.008 C 
ATOM     21  O   UNL     1      95.347  85.719  87.246  1.00  0.00    -0.291 OA
ATOM     22  C   UNL     1      94.696  85.019  90.074  1.00  0.00     0.048 C 
BRANCH  16  23
ATOM     23  O   UNL     1      93.067  84.456  85.905  1.00  0.00    -0.381 OA
ATOM     24  H   UNL     1      93.241  85.407  85.998  1.00  0.00     0.212 HD
ENDBRANCH  16  23
ENDBRANCH   6  15
BRANCH   7  25
ATOM     25  C   UNL     1      92.110  78.095  87.577  1.00  0.00     0.135 C 
BRANCH  25  26
ATOM     26  C   UNL     1      92.513  78.328  89.012  1.00  0.00    -0.040 A 
ATOM     27  C   UNL     1      91.539  78.590  89.976  1.00  0.00     0.004 A 
ATOM     28  C   UNL     1      93.858  78.279  89.376  1.00  0.00     0.004 A 
ATOM     29  C   UNL     1      91.911  78.805  91.303  1.00  0.00     0.000 A 
ATOM     30  C   UNL     1      94.231  78.494  90.704  1.00  0.00     0.000 A 
ATOM     31  C   UNL     1      93.256  78.757  91.667  1.00  0.00     0.000 A 
ENDBRANCH  25  26
ENDBRANCH   7  25
BRANCH  14  32
ATOM     32  C   UNL     1      89.022  79.986  85.021  1.00  0.00    -0.046 C 
ATOM     33  C   UNL     1      87.708  80.663  85.274  1.00  0.00     0.042 C 
ATOM     34  C   UNL     1      89.136  78.957  84.167  1.00  0.00     0.010 C 
ENDBRANCH  14  32
ENDBRANCH   3   4
BRANCH   2  35
ATOM     35  C   UNL     1      95.189  83.375  85.356  1.00  0.00     0.078 CG0
ATOM     36  G   UNL     1      94.178  83.739  86.443  1.00  0.00     0.000 G0
ENDBRANCH   2  35
ENDBRANCH   1   2
BRANCH   1  37
ATOM     37  O   UNL     1      95.662  80.758  82.739  1.00  0.00    -0.461 OA
BRANCH  37  38
ATOM     38  C   UNL     1      96.645  80.156  81.989  1.00  0.00     0.310 C 
ATOM     39  O   UNL     1      96.653  78.980  81.655  1.00  0.00    -0.252 OA
BRANCH  38  40
ATOM     40  C   UNL     1      97.710  81.171  81.645  1.00  0.00     0.158 C 
BRANCH  40  41
ATOM     41  C   UNL     1      98.091  81.152  80.187  1.00  0.00    -0.033 A 
ATOM     42  C   UNL     1      97.433  81.986  79.283  1.00  0.00     0.054 A 
ATOM     43  C   UNL     1      99.102  80.301  79.742  1.00  0.00     0.008 A 
ATOM     44  C   UNL     1      97.786  81.968  77.933  1.00  0.00     0.160 A 
ATOM     45  C   UNL     1      99.455  80.282  78.392  1.00  0.00     0.050 A 
ATOM     46  C   UNL     1      98.797  81.115  77.488  1.00  0.00     0.157 A 
BRANCH  44  47
ATOM     47  O   UNL     1      97.136  82.786  77.060  1.00  0.00    -0.493 OA
ATOM     48  C   UNL     1      95.961  82.268  76.437  1.00  0.00     0.278 C 
ENDBRANCH  44  47
BRANCH  46  49
ATOM     49  O   UNL     1      99.151  81.090  76.173  1.00  0.00    -0.504 OA
ATOM     50  H   UNL     1      98.762  80.303  75.756  1.00  0.00     0.293 HD
ENDBRANCH  46  49
ENDBRANCH  40  41
ENDBRANCH  38  40
ENDBRANCH  37  38
ENDBRANCH   1  37
TORSDOF 11
ENDMDL
MODEL 2
REMARK VINA RESULT:    -6.656      1.571      2.809
REMARK INTER + INTRA:         -12.605
REMARK INTER:                 -11.648
REMARK INTRA:                  -0.957
REMARK UNBOUND:                -0.891
REMARK SMILES C=C(C)[C@]12C[C@@H](C)[C@@]34O[C@](Cc5ccccc5)(O[C@@H]1[C@@H]3C=C(COC(=O)Cc1ccc(O)c(OC)c1)C[C@]1(O)C(=O)C(C)=C[C@@H]41)O2
REMARK SMILES IDX 23 1 22 2 21 3 20 4 9 5 8 6 10 7 6 8 18 9 46 10 19 11 5 12
REMARK SMILES IDX 7 13 4 14 45 15 38 16 44 17 40 18 42 20 41 21 43 22 39 23
REMARK SMILES IDX 11 25 12 26 13 27 17 28 14 29 16 30 15 31 2 32 3 33 1 34
REMARK SMILES IDX 37 35 24 37 25 38 26 39 27 40 28 41 36 42 29 43 33 44 30 45
REMARK SMILES IDX 31 46 34 47 35 48 32 49
REMARK H PARENT 39 24 32 50
REMARK Flexibility Score: 90.00
ROOT
ATOM      1  C   UNL     1      95.817  81.764  83.492  1.00  0.00     0.264 C 
ENDROOT
BRANCH   1   2
ATOM      2  C   UNL     1      94.732  82.056  84.503  1.00  0.00    -0.033 C 
ATOM      3  C   UNL     1      93.569  81.379  84.436  1.00  0.00    -0.015 C 
BRANCH   3   4
ATOM      4  C   UNL     1      92.310  81.538  85.274  1.00  0.00     0.078 C 
ATOM      5  O   UNL     1      92.506  79.965  87.174  1.00  0.00    -0.319 OA
ATOM      6  C   UNL     1      92.426  81.385  86.836  1.00  0.00     0.095 C 
ATOM      7  C   UNL     1      91.605  79.108  86.448  1.00  0.00     0.289 C 
ATOM      8  C   UNL     1      91.116  82.002  87.478  1.00  0.00     0.023 C 
ATOM      9  O   UNL     1      91.804  79.221  85.041  1.00  0.00    -0.320 OA
ATOM     10  O   UNL     1      90.239  79.445  86.671  1.00  0.00    -0.313 OA
ATOM     11  C   UNL     1      91.238  80.521  84.810  1.00  0.00     0.170 C 
ATOM     12  C   UNL     1      89.875  81.794  86.555  1.00  0.00     0.049 C 
ATOM     13  C   UNL     1      90.784  81.517  88.898  1.00  0.00     0.011 C 
ATOM     14  C   UNL     1      89.992  80.511  85.731  1.00  0.00     0.122 C 
BRANCH   6  15
ATOM     15  C   UNL     1      93.768  81.982  87.351  1.00  0.00     0.086 C 
ATOM     16  C   UNL     1      94.198  83.326  86.727  1.00  0.00     0.140 CG0
ATOM     17  C   UNL     1      93.958  82.204  88.825  1.00  0.00    -0.010 C 
ATOM     18  C   UNL     1      94.889  84.016  87.884  1.00  0.00     0.190 C 
ATOM     19  G   UNL     1      95.120  83.135  85.524  1.00  0.00     0.000 G0
ATOM     20  C   UNL     1      94.609  83.325  89.156  1.00  0.00    -0.008 C 
ATOM     21  O   UNL     1      95.553  85.039  87.804  1.00  0.00    -0.291 OA
ATOM     22  C   UNL     1      95.040  83.819  90.480  1.00  0.00     0.048 C 
BRANCH  16  23
ATOM     23  O   UNL     1      93.115  84.187  86.417  1.00  0.00    -0.381 OA
ATOM     24  H   UNL     1      93.231  85.016  86.911  1.00  0.00     0.212 HD
ENDBRANCH  16  23
ENDBRANCH   6  15
BRANCH   7  25
ATOM     25  C   UNL     1      91.852  77.678  86.886  1.00  0.00     0.135 C 
BRANCH  25  26
ATOM     26  C   UNL     1      91.525  76.688  85.796  1.00  0.00    -0.040 A 
ATOM     27  C   UNL     1      92.547  76.146  85.017  1.00  0.00     0.004 A 
ATOM     28  C   UNL     1      90.201  76.314  85.568  1.00  0.00     0.004 A 
ATOM     29  C   UNL     1      92.245  75.230  84.009  1.00  0.00     0.000 A 
ATOM     30  C   UNL     1      89.899  75.398  84.560  1.00  0.00     0.000 A 
ATOM     31  C   UNL     1      90.921  74.856  83.780  1.00  0.00     0.000 A 
ENDBRANCH  25  26
ENDBRANCH   7  25
BRANCH  14  32
ATOM     32  C   UNL     1      88.741  80.195  84.979  1.00  0.00    -0.046 C 
ATOM     33  C   UNL     1      87.496  80.891  85.443  1.00  0.00     0.042 C 
ATOM     34  C   UNL     1      88.730  79.338  83.947  1.00  0.00     0.010 C 
ENDBRANCH  14  32
ENDBRANCH   3   4
BRANCH   2  35
ATOM     35  C   UNL     1      95.128  83.121  85.509  1.00  0.00     0.078 CG0
ATOM     36  G   UNL     1      94.216  83.312  86.720  1.00  0.00     0.000 G0
ENDBRANCH   2  35
ENDBRANCH   1   2
BRANCH   1  37
ATOM     37  O   UNL     1      96.473  80.565  83.845  1.00  0.00    -0.461 OA
BRANCH  37  38
ATOM     38  C   UNL     1      96.871  79.761  82.803  1.00  0.00     0.310 C 
ATOM     39  O   UNL     1      96.328  78.714  82.477  1.00  0.00    -0.252 OA
BRANCH  38  40
ATOM     40  C   UNL     1      98.077  80.369  82.127  1.00  0.00     0.158 C 
BRANCH  40  41
ATOM     41  C   UNL     1      97.858  80.636  80.660  1.00  0.00    -0.033 A 
ATOM     42  C   UNL     1      98.323  79.727  79.709  1.00  0.00     0.054 A 
ATOM     43  C   UNL     1      97.190  81.790  80.253  1.00  0.00     0.008 A 
ATOM     44  C   UNL     1      98.120  79.973  78.351  1.00  0.00     0.160 A 
ATOM     45  C   UNL     1      96.987  82.036  78.895  1.00  0.00     0.050 A 
ATOM     46  C   UNL     1      97.452  81.129  77.944  1.00  0.00     0.157 A 
BRANCH  44  47
ATOM     47  O   UNL     1      98.579  79.079  77.432  1.00  0.00    -0.493 OA
ATOM     48  C   UNL     1      97.819  77.885  77.253  1.00  0.00     0.278 C 
ENDBRANCH  44  47
BRANCH  46  49
ATOM     49  O   UNL     1      97.247  81.379  76.622  1.00  0.00    -0.504 OA
ATOM     50  H   UNL     1      97.458  82.310  76.439  1.00  0.00     0.293 HD
ENDBRANCH  46  49
ENDBRANCH  40  41
ENDBRANCH  38  40
ENDBRANCH  37  38
ENDBRANCH   1  37
TORSDOF 11
ENDMDL
MODEL 3
REMARK VINA RESULT:    -6.060     26.348     30.806
REMARK INTER + INTRA:         -11.556
REMARK INTER:                 -10.753
REMARK INTRA:                  -0.802
REMARK UNBOUND:                -0.891
REMARK SMILES C=C(C)[C@]12C[C@@H](C)[C@@]34O[C@](Cc5ccccc5)(O[C@@H]1[C@@H]3C=C(COC(=O)Cc1ccc(O)c(OC)c1)C[C@]1(O)C(=O)C(C)=C[C@@H]41)O2
REMARK SMILES IDX 23 1 22 2 21 3 20 4 9 5 8 6 10 7 6 8 18 9 46 10 19 11 5 12
REMARK SMILES IDX 7 13 4 14 45 15 38 16 44 17 40 18 42 20 41 21 43 22 39 23
REMARK SMILES IDX 11 25 12 26 13 27 17 28 14 29 16 30 15 31 2 32 3 33 1 34
REMARK SMILES IDX 37 35 24 37 25 38 26 39 27 40 28 41 36 42 29 43 33 44 30 45
REMARK SMILES IDX 31 46 34 47 35 48 32 49
REMARK H PARENT 39 24 32 50
REMARK Flexibility Score: 90.00
ROOT
ATOM      1  C   UNL     1      68.901  85.504  69.042  1.00  0.00     0.264 C 
ENDROOT
BRANCH   1   2
ATOM      2  C   UNL     1      70.014  86.502  68.827  1.00  0.00    -0.033 C 
ATOM      3  C   UNL     1      71.266  86.054  68.599  1.00  0.00    -0.015 C 
BRANCH   3   4
ATOM      4  C   UNL     1      72.556  86.840  68.431  1.00  0.00     0.078 C 
ATOM      5  O   UNL     1      72.836  87.255  66.009  1.00  0.00    -0.319 OA
ATOM      6  C   UNL     1      72.629  87.923  67.291  1.00  0.00     0.095 C 
ATOM      7  C   UNL     1      73.795  86.180  66.022  1.00  0.00     0.289 C 
ATOM      8  C   UNL     1      73.870  88.860  67.599  1.00  0.00     0.023 C 
ATOM      9  O   UNL     1      73.436  85.178  66.969  1.00  0.00    -0.320 OA
ATOM     10  O   UNL     1      75.096  86.620  66.401  1.00  0.00    -0.313 OA
ATOM     11  C   UNL     1      73.737  85.868  68.192  1.00  0.00     0.170 C 
ATOM     12  C   UNL     1      75.026  88.071  68.286  1.00  0.00     0.049 C 
ATOM     13  C   UNL     1      74.426  89.636  66.394  1.00  0.00     0.011 C 
ATOM     14  C   UNL     1      75.053  86.607  67.843  1.00  0.00     0.122 C 
BRANCH   6  15
ATOM     15  C   UNL     1      71.263  88.652  67.133  1.00  0.00     0.086 C 
ATOM     16  C   UNL     1      70.543  89.036  68.442  1.00  0.00     0.140 CG0
ATOM     17  C   UNL     1      71.190  89.909  66.312  1.00  0.00    -0.010 C 
ATOM     18  C   UNL     1      69.863  90.337  68.070  1.00  0.00     0.190 C 
ATOM     19  G   UNL     1      69.550  87.965  68.890  1.00  0.00     0.000 G0
ATOM     20  C   UNL     1      70.390  90.864  66.797  1.00  0.00    -0.008 C 
ATOM     21  O   UNL     1      69.025  90.917  68.745  1.00  0.00    -0.291 OA
ATOM     22  C   UNL     1      70.016  92.174  66.224  1.00  0.00     0.048 C 
BRANCH  16  23
ATOM     23  O   UNL     1      71.420  89.402  69.494  1.00  0.00    -0.381 OA
ATOM     24  H   UNL     1      70.906  89.868  70.174  1.00  0.00     0.212 HD
ENDBRANCH  16  23
ENDBRANCH   6  15
BRANCH   7  25
ATOM     25  C   UNL     1      73.850  85.575  64.633  1.00  0.00     0.135 C 
BRANCH  25  26
ATOM     26  C   UNL     1      74.302  84.136  64.661  1.00  0.00    -0.040 A 
ATOM     27  C   UNL     1      73.418  83.121  64.291  1.00  0.00     0.004 A 
ATOM     28  C   UNL     1      75.601  83.820  65.055  1.00  0.00     0.004 A 
ATOM     29  C   UNL     1      73.835  81.790  64.316  1.00  0.00     0.000 A 
ATOM     30  C   UNL     1      76.018  82.488  65.080  1.00  0.00     0.000 A 
ATOM     31  C   UNL     1      75.135  81.474  64.711  1.00  0.00     0.000 A 
ENDBRANCH  25  26
ENDBRANCH   7  25
BRANCH  14  32
ATOM     32  C   UNL     1      76.256  85.878  68.344  1.00  0.00    -0.046 C 
ATOM     33  C   UNL     1      77.475  85.932  67.471  1.00  0.00     0.042 C 
ATOM     34  C   UNL     1      76.248  85.212  69.508  1.00  0.00     0.010 C 
ENDBRANCH  14  32
ENDBRANCH   3   4
BRANCH   2  35
ATOM     35  C   UNL     1      69.543  87.942  68.892  1.00  0.00     0.078 CG0
ATOM     36  G   UNL     1      70.530  89.021  68.448  1.00  0.00     0.000 G0
ENDBRANCH   2  35
ENDBRANCH   1   2
BRANCH   1  37
ATOM     37  O   UNL     1      67.730  86.188  69.436  1.00  0.00    -0.461 OA
BRANCH  37  38
ATOM     38  C   UNL     1      66.829  85.468  70.186  1.00  0.00     0.310 C 
ATOM     39  O   UNL     1      66.087  85.941  71.035  1.00  0.00    -0.252 OA
BRANCH  38  40
ATOM     40  C   UNL     1      66.899  84.010  69.797  1.00  0.00     0.158 C 
BRANCH  40  41
ATOM     41  C   UNL     1      65.554  83.330  69.824  1.00  0.00    -0.033 A 
ATOM     42  C   UNL     1      64.520  83.795  69.011  1.00  0.00     0.054 A 
ATOM     43  C   UNL     1      65.344  82.234  70.661  1.00  0.00     0.008 A 
ATOM     44  C   UNL     1      63.276  83.165  69.036  1.00  0.00     0.160 A 
ATOM     45  C   UNL     1      64.100  81.604  70.687  1.00  0.00     0.050 A 
ATOM     46  C   UNL     1      63.066  82.069  69.875  1.00  0.00     0.157 A 
BRANCH  44  47
ATOM     47  O   UNL     1      62.274  83.629  68.239  1.00  0.00    -0.493 OA
ATOM     48  C   UNL     1      62.345  84.996  67.837  1.00  0.00     0.278 C 
ENDBRANCH  44  47
BRANCH  46  49
ATOM     49  O   UNL     1      61.856  81.445  69.907  1.00  0.00    -0.504 OA
ATOM     50  H   UNL     1      61.170  82.069  69.615  1.00  0.00     0.293 HD
ENDBRANCH  46  49
ENDBRANCH  40  41
ENDBRANCH  38  40
ENDBRANCH  37  38
ENDBRANCH   1  37
TORSDOF 11
ENDMDL
MODEL 4
REMARK VINA RESULT:    -6.057     28.565     32.801
REMARK INTER + INTRA:         -11.552
REMARK INTER:                 -10.841
REMARK INTRA:                  -0.711
REMARK UNBOUND:                -0.891
REMARK SMILES C=C(C)[C@]12C[C@@H](C)[C@@]34O[C@](Cc5ccccc5)(O[C@@H]1[C@@H]3C=C(COC(=O)Cc1ccc(O)c(OC)c1)C[C@]1(O)C(=O)C(C)=C[C@@H]41)O2
REMARK SMILES IDX 23 1 22 2 21 3 20 4 9 5 8 6 10 7 6 8 18 9 46 10 19 11 5 12
REMARK SMILES IDX 7 13 4 14 45 15 38 16 44 17 40 18 42 20 41 21 43 22 39 23
REMARK SMILES IDX 11 25 12 26 13 27 17 28 14 29 16 30 15 31 2 32 3 33 1 34
REMARK SMILES IDX 37 35 24 37 25 38 26 39 27 40 28 41 36 42 29 43 33 44 30 45
REMARK SMILES IDX 31 46 34 47 35 48 32 49
REMARK H PARENT 39 24 32 50
REMARK Flexibility Score: 90.00
ROOT
ATOM      1  C   UNL     1      65.662  87.304  70.291  1.00  0.00     0.264 C 
ENDROOT
BRANCH   1   2
ATOM      2  C   UNL     1      64.689  87.260  71.446  1.00  0.00    -0.033 C 
ATOM      3  C   UNL     1      63.461  86.737  71.255  1.00  0.00    -0.015 C 
BRANCH   3   4
ATOM      4  C   UNL     1      62.290  86.647  72.219  1.00  0.00     0.078 C 
ATOM      5  O   UNL     1      62.461  84.459  73.360  1.00  0.00    -0.319 OA
ATOM      6  C   UNL     1      62.502  85.902  73.589  1.00  0.00     0.095 C 
ATOM      7  C   UNL     1      61.427  84.006  72.465  1.00  0.00     0.289 C 
ATOM      8  C   UNL     1      61.311  86.314  74.549  1.00  0.00     0.023 C 
ATOM      9  O   UNL     1      61.534  84.635  71.191  1.00  0.00    -0.320 OA
ATOM     10  O   UNL     1      60.122  84.323  72.942  1.00  0.00    -0.313 OA
ATOM     11  C   UNL     1      61.089  85.959  71.524  1.00  0.00     0.170 C 
ATOM     12  C   UNL     1      59.992  86.557  73.752  1.00  0.00     0.049 C 
ATOM     13  C   UNL     1      61.035  85.346  75.711  1.00  0.00     0.011 C 
ATOM     14  C   UNL     1      59.918  85.681  72.501  1.00  0.00     0.122 C 
BRANCH   6  15
ATOM     15  C   UNL     1      63.931  86.166  74.145  1.00  0.00     0.086 C 
ATOM     16  C   UNL     1      64.446  87.617  74.035  1.00  0.00     0.140 CG0
ATOM     17  C   UNL     1      64.251  85.788  75.564  1.00  0.00    -0.010 C 
ATOM     18  C   UNL     1      65.287  87.759  75.286  1.00  0.00     0.190 C 
ATOM     19  G   UNL     1      65.253  87.848  72.759  1.00  0.00     0.000 G0
ATOM     20  C   UNL     1      65.034  86.649  76.223  1.00  0.00    -0.008 C 
ATOM     21  O   UNL     1      66.042  88.689  75.530  1.00  0.00    -0.291 OA
ATOM     22  C   UNL     1      65.609  86.563  77.581  1.00  0.00     0.048 C 
BRANCH  16  23
ATOM     23  O   UNL     1      63.435  88.598  74.194  1.00  0.00    -0.381 OA
ATOM     24  H   UNL     1      63.540  89.010  75.067  1.00  0.00     0.212 HD
ENDBRANCH  16  23
ENDBRANCH   6  15
BRANCH   7  25
ATOM     25  C   UNL     1      61.558  82.505  72.309  1.00  0.00     0.135 C 
BRANCH  25  26
ATOM     26  C   UNL     1      62.548  82.133  71.233  1.00  0.00    -0.040 A 
ATOM     27  C   UNL     1      62.105  81.891  69.932  1.00  0.00     0.004 A 
ATOM     28  C   UNL     1      63.905  82.032  71.537  1.00  0.00     0.004 A 
ATOM     29  C   UNL     1      63.020  81.548  68.936  1.00  0.00     0.000 A 
ATOM     30  C   UNL     1      64.820  81.689  70.541  1.00  0.00     0.000 A 
ATOM     31  C   UNL     1      64.377  81.446  69.241  1.00  0.00     0.000 A 
ENDBRANCH  25  26
ENDBRANCH   7  25
BRANCH  14  32
ATOM     32  C   UNL     1      58.590  85.761  71.822  1.00  0.00    -0.046 C 
ATOM     33  C   UNL     1      58.479  85.063  70.499  1.00  0.00     0.042 C 
ATOM     34  C   UNL     1      57.555  86.420  72.364  1.00  0.00     0.010 C 
ENDBRANCH  14  32
ENDBRANCH   3   4
BRANCH   2  35
ATOM     35  C   UNL     1      65.261  87.834  72.728  1.00  0.00     0.078 CG0
ATOM     36  G   UNL     1      64.456  87.623  74.010  1.00  0.00     0.000 G0
ENDBRANCH   2  35
ENDBRANCH   1   2
BRANCH   1  37
ATOM     37  O   UNL     1      66.574  88.362  70.489  1.00  0.00    -0.461 OA
BRANCH  37  38
ATOM     38  C   UNL     1      67.900  88.074  70.262  1.00  0.00     0.310 C 
ATOM     39  O   UNL     1      68.720  88.855  69.801  1.00  0.00    -0.252 OA
BRANCH  38  40
ATOM     40  C   UNL     1      68.182  86.647  70.669  1.00  0.00     0.158 C 
BRANCH  40  41
ATOM     41  C   UNL     1      68.791  85.828  69.560  1.00  0.00    -0.033 A 
ATOM     42  C   UNL     1      70.016  86.204  69.008  1.00  0.00     0.054 A 
ATOM     43  C   UNL     1      68.131  84.695  69.086  1.00  0.00     0.008 A 
ATOM     44  C   UNL     1      70.580  85.447  67.981  1.00  0.00     0.160 A 
ATOM     45  C   UNL     1      68.695  83.938  68.059  1.00  0.00     0.050 A 
ATOM     46  C   UNL     1      69.919  84.313  67.506  1.00  0.00     0.157 A 
BRANCH  44  47
ATOM     47  O   UNL     1      71.776  85.824  67.449  1.00  0.00    -0.493 OA
ATOM     48  C   UNL     1      72.624  86.629  68.267  1.00  0.00     0.278 C 
ENDBRANCH  44  47
BRANCH  46  49
ATOM     49  O   UNL     1      70.460  83.565  66.505  1.00  0.00    -0.504 OA
ATOM     50  H   UNL     1      69.759  83.322  65.877  1.00  0.00     0.293 HD
ENDBRANCH  46  49
ENDBRANCH  40  41
ENDBRANCH  38  40
ENDBRANCH  37  38
ENDBRANCH   1  37
TORSDOF 11
ENDMDL
MODEL 5
REMARK VINA RESULT:    -6.010      4.164     11.101
REMARK INTER + INTRA:         -11.469
REMARK INTER:                  -9.916
REMARK INTRA:                  -1.553
REMARK UNBOUND:                -0.891
REMARK SMILES C=C(C)[C@]12C[C@@H](C)[C@@]34O[C@](Cc5ccccc5)(O[C@@H]1[C@@H]3C=C(COC(=O)Cc1ccc(O)c(OC)c1)C[C@]1(O)C(=O)C(C)=C[C@@H]41)O2
REMARK SMILES IDX 23 1 22 2 21 3 20 4 9 5 8 6 10 7 6 8 18 9 46 10 19 11 5 12
REMARK SMILES IDX 7 13 4 14 45 15 38 16 44 17 40 18 42 20 41 21 43 22 39 23
REMARK SMILES IDX 11 25 12 26 13 27 17 28 14 29 16 30 15 31 2 32 3 33 1 34
REMARK SMILES IDX 37 35 24 37 25 38 26 39 27 40 28 41 36 42 29 43 33 44 30 45
REMARK SMILES IDX 31 46 34 47 35 48 32 49
REMARK H PARENT 39 24 32 50
REMARK Flexibility Score: 90.00
ROOT
ATOM      1  C   UNL     1      97.005  77.023  84.006  1.00  0.00     0.264 C 
ENDROOT
BRANCH   1   2
ATOM      2  C   UNL     1      97.268  76.948  82.520  1.00  0.00    -0.033 C 
ATOM      3  C   UNL     1      97.562  78.077  81.845  1.00  0.00    -0.015 C 
BRANCH   3   4
ATOM      4  C   UNL     1      97.789  78.279  80.356  1.00  0.00     0.078 C 
ATOM      5  O   UNL     1     100.219  78.047  79.958  1.00  0.00    -0.319 OA
ATOM      6  C   UNL     1      98.923  77.446  79.651  1.00  0.00     0.095 C 
ATOM      7  C   UNL     1     100.262  79.485  79.898  1.00  0.00     0.289 C 
ATOM      8  C   UNL     1      98.671  77.517  78.088  1.00  0.00     0.023 C 
ATOM      9  O   UNL     1      99.304  80.068  80.779  1.00  0.00    -0.320 OA
ATOM     10  O   UNL     1      99.944  79.982  78.601  1.00  0.00    -0.313 OA
ATOM     11  C   UNL     1      98.093  79.770  80.067  1.00  0.00     0.170 C 
ATOM     12  C   UNL     1      98.048  78.885  77.672  1.00  0.00     0.049 C 
ATOM     13  C   UNL     1      99.897  77.224  77.208  1.00  0.00     0.011 C 
ATOM     14  C   UNL     1      98.502  80.017  78.593  1.00  0.00     0.122 C 
BRANCH   6  15
ATOM     15  C   UNL     1      99.008  76.012  80.250  1.00  0.00     0.086 C 
ATOM     16  C   UNL     1      97.663  75.304  80.513  1.00  0.00     0.140 CG0
ATOM     17  C   UNL     1      99.822  74.965  79.543  1.00  0.00    -0.010 C 
ATOM     18  C   UNL     1      97.995  73.855  80.228  1.00  0.00     0.190 C 
ATOM     19  G   UNL     1      97.166  75.520  81.942  1.00  0.00     0.000 G0
ATOM     20  C   UNL     1      99.293  73.737  79.536  1.00  0.00    -0.008 C 
ATOM     21  O   UNL     1      97.277  72.900  80.481  1.00  0.00    -0.291 OA
ATOM     22  C   UNL     1      99.842  72.467  79.017  1.00  0.00     0.048 C 
BRANCH  16  23
ATOM     23  O   UNL     1      96.656  75.614  79.563  1.00  0.00    -0.381 OA
ATOM     24  H   UNL     1      96.949  76.382  79.045  1.00  0.00     0.212 HD
ENDBRANCH  16  23
ENDBRANCH   6  15
BRANCH   7  25
ATOM     25  C   UNL     1     101.655  79.936  80.286  1.00  0.00     0.135 C 
BRANCH  25  26
ATOM     26  C   UNL     1     102.713  79.331  79.397  1.00  0.00    -0.040 A 
ATOM     27  C   UNL     1     103.772  78.619  79.960  1.00  0.00     0.004 A 
ATOM     28  C   UNL     1     102.632  79.482  78.013  1.00  0.00     0.004 A 
ATOM     29  C   UNL     1     104.751  78.059  79.138  1.00  0.00     0.000 A 
ATOM     30  C   UNL     1     103.610  78.922  77.191  1.00  0.00     0.000 A 
ATOM     31  C   UNL     1     104.670  78.210  77.755  1.00  0.00     0.000 A 
ENDBRANCH  25  26
ENDBRANCH   7  25
BRANCH  14  32
ATOM     32  C   UNL     1      98.067  81.361  78.108  1.00  0.00    -0.046 C 
ATOM     33  C   UNL     1      98.512  81.744  76.728  1.00  0.00     0.042 C 
ATOM     34  C   UNL     1      97.320  82.181  78.864  1.00  0.00     0.010 C 
ENDBRANCH  14  32
ENDBRANCH   3   4
BRANCH   2  35
ATOM     35  C   UNL     1      97.166  75.538  81.969  1.00  0.00     0.078 CG0
ATOM     36  G   UNL     1      97.665  75.308  80.543  1.00  0.00     0.000 G0
ENDBRANCH   2  35
ENDBRANCH   1   2
BRANCH   1  37
ATOM     37  O   UNL     1      95.764  77.657  84.229  1.00  0.00    -0.461 OA
BRANCH  37  38
ATOM     38  C   UNL     1      95.754  78.662  85.169  1.00  0.00     0.310 C 
ATOM     39  O   UNL     1      96.514  78.739  86.124  1.00  0.00    -0.252 OA
BRANCH  38  40
ATOM     40  C   UNL     1      94.661  79.651  84.838  1.00  0.00     0.158 C 
BRANCH  40  41
ATOM     41  C   UNL     1      95.193  80.991  84.400  1.00  0.00    -0.033 A 
ATOM     42  C   UNL     1      94.921  82.131  85.157  1.00  0.00     0.054 A 
ATOM     43  C   UNL     1      95.958  81.091  83.238  1.00  0.00     0.008 A 
ATOM     44  C   UNL     1      95.414  83.371  84.751  1.00  0.00     0.160 A 
ATOM     45  C   UNL     1      96.450  82.332  82.832  1.00  0.00     0.050 A 
ATOM     46  C   UNL     1      96.179  83.472  83.588  1.00  0.00     0.157 A 
BRANCH  44  47
ATOM     47  O   UNL     1      95.142  84.477  85.499  1.00  0.00    -0.493 OA
ATOM     48  C   UNL     1      93.862  84.536  86.127  1.00  0.00     0.278 C 
ENDBRANCH  44  47
BRANCH  46  49
ATOM     49  O   UNL     1      96.666  84.677  83.183  1.00  0.00    -0.504 OA
ATOM     50  H   UNL     1      97.621  84.595  83.023  1.00  0.00     0.293 HD
ENDBRANCH  46  49
ENDBRANCH  40  41
ENDBRANCH  38  40
ENDBRANCH  37  38
ENDBRANCH   1  37
TORSDOF 11
ENDMDL
MODEL 6
REMARK VINA RESULT:    -5.804     18.260     23.105
REMARK INTER + INTRA:         -11.106
REMARK INTER:                  -9.598
REMARK INTRA:                  -1.509
REMARK UNBOUND:                -0.891
REMARK SMILES C=C(C)[C@]12C[C@@H](C)[C@@]34O[C@](Cc5ccccc5)(O[C@@H]1[C@@H]3C=C(COC(=O)Cc1ccc(O)c(OC)c1)C[C@]1(O)C(=O)C(C)=C[C@@H]41)O2
REMARK SMILES IDX 23 1 22 2 21 3 20 4 9 5 8 6 10 7 6 8 18 9 46 10 19 11 5 12
REMARK SMILES IDX 7 13 4 14 45 15 38 16 44 17 40 18 42 20 41 21 43 22 39 23
REMARK SMILES IDX 11 25 12 26 13 27 17 28 14 29 16 30 15 31 2 32 3 33 1 34
REMARK SMILES IDX 37 35 24 37 25 38 26 39 27 40 28 41 36 42 29 43 33 44 30 45
REMARK SMILES IDX 31 46 34 47 35 48 32 49
REMARK H PARENT 39 24 32 50
REMARK Flexibility Score: 90.00
ROOT
ATOM      1  C   UNL     1      76.214  68.769  86.813  1.00  0.00     0.264 C 
ENDROOT
BRANCH   1   2
ATOM      2  C   UNL     1      75.807  70.159  87.241  1.00  0.00    -0.033 C 
ATOM      3  C   UNL     1      74.517  70.404  87.548  1.00  0.00    -0.015 C 
BRANCH   3   4
ATOM      4  C   UNL     1      73.847  71.715  87.926  1.00  0.00     0.078 C 
ATOM      5  O   UNL     1      73.904  71.868  90.394  1.00  0.00    -0.319 OA
ATOM      6  C   UNL     1      74.395  72.504  89.173  1.00  0.00     0.095 C 
ATOM      7  C   UNL     1      72.521  71.467  90.367  1.00  0.00     0.289 C 
ATOM      8  C   UNL     1      73.833  73.983  89.090  1.00  0.00     0.023 C 
ATOM      9  O   UNL     1      72.264  70.570  89.289  1.00  0.00    -0.320 OA
ATOM     10  O   UNL     1      71.641  72.570  90.167  1.00  0.00    -0.313 OA
ATOM     11  C   UNL     1      72.338  71.480  88.181  1.00  0.00     0.170 C 
ATOM     12  C   UNL     1      72.413  74.019  88.445  1.00  0.00     0.049 C 
ATOM     13  C   UNL     1      73.811  74.756  90.419  1.00  0.00     0.011 C 
ATOM     14  C   UNL     1      71.627  72.740  88.735  1.00  0.00     0.122 C 
BRANCH   6  15
ATOM     15  C   UNL     1      75.943  72.381  89.267  1.00  0.00     0.086 C 
ATOM     16  C   UNL     1      76.718  72.514  87.940  1.00  0.00     0.140 CG0
ATOM     17  C   UNL     1      76.698  73.283  90.204  1.00  0.00    -0.010 C 
ATOM     18  C   UNL     1      77.996  73.200  88.375  1.00  0.00     0.190 C 
ATOM     19  G   UNL     1      76.976  71.158  87.284  1.00  0.00     0.000 G0
ATOM     20  C   UNL     1      77.868  73.737  89.742  1.00  0.00    -0.008 C 
ATOM     21  O   UNL     1      78.992  73.346  87.683  1.00  0.00    -0.291 OA
ATOM     22  C   UNL     1      78.897  74.562  90.407  1.00  0.00     0.048 C 
BRANCH  16  23
ATOM     23  O   UNL     1      76.137  73.428  87.025  1.00  0.00    -0.381 OA
ATOM     24  H   UNL     1      75.648  72.923  86.354  1.00  0.00     0.212 HD
ENDBRANCH  16  23
ENDBRANCH   6  15
BRANCH   7  25
ATOM     25  C   UNL     1      72.196  70.791  91.683  1.00  0.00     0.135 C 
BRANCH  25  26
ATOM     26  C   UNL     1      73.223  71.098  92.745  1.00  0.00    -0.040 A 
ATOM     27  C   UNL     1      73.188  72.322  93.415  1.00  0.00     0.004 A 
ATOM     28  C   UNL     1      74.205  70.160  93.058  1.00  0.00     0.004 A 
ATOM     29  C   UNL     1      74.138  72.606  94.397  1.00  0.00     0.000 A 
ATOM     30  C   UNL     1      75.155  70.444  94.040  1.00  0.00     0.000 A 
ATOM     31  C   UNL     1      75.120  71.668  94.709  1.00  0.00     0.000 A 
ENDBRANCH  25  26
ENDBRANCH   7  25
BRANCH  14  32
ATOM     32  C   UNL     1      70.205  72.825  88.285  1.00  0.00    -0.046 C 
ATOM     33  C   UNL     1      69.972  73.442  86.938  1.00  0.00     0.042 C 
ATOM     34  C   UNL     1      69.193  72.376  89.043  1.00  0.00     0.010 C 
ENDBRANCH  14  32
ENDBRANCH   3   4
BRANCH   2  35
ATOM     35  C   UNL     1      76.968  71.135  87.273  1.00  0.00     0.078 CG0
ATOM     36  G   UNL     1      76.732  72.479  87.960  1.00  0.00     0.000 G0
ENDBRANCH   2  35
ENDBRANCH   1   2
BRANCH   1  37
ATOM     37  O   UNL     1      76.930  68.844  85.599  1.00  0.00    -0.461 OA
BRANCH  37  38
ATOM     38  C   UNL     1      76.320  68.290  84.497  1.00  0.00     0.310 C 
ATOM     39  O   UNL     1      76.126  68.868  83.437  1.00  0.00    -0.252 OA
BRANCH  38  40
ATOM     40  C   UNL     1      75.930  66.863  84.801  1.00  0.00     0.158 C 
BRANCH  40  41
ATOM     41  C   UNL     1      74.521  66.535  84.378  1.00  0.00    -0.033 A 
ATOM     42  C   UNL     1      73.440  67.059  85.089  1.00  0.00     0.054 A 
ATOM     43  C   UNL     1      74.297  65.710  83.277  1.00  0.00     0.008 A 
ATOM     44  C   UNL     1      72.136  66.756  84.697  1.00  0.00     0.160 A 
ATOM     45  C   UNL     1      72.993  65.407  82.885  1.00  0.00     0.050 A 
ATOM     46  C   UNL     1      71.913  65.930  83.595  1.00  0.00     0.157 A 
BRANCH  44  47
ATOM     47  O   UNL     1      71.089  67.273  85.399  1.00  0.00    -0.493 OA
ATOM     48  C   UNL     1      70.887  68.683  85.316  1.00  0.00     0.278 C 
ENDBRANCH  44  47
BRANCH  46  49
ATOM     49  O   UNL     1      70.644  65.628  83.203  1.00  0.00    -0.504 OA
ATOM     50  H   UNL     1      70.251  65.014  83.846  1.00  0.00     0.293 HD
ENDBRANCH  46  49
ENDBRANCH  40  41
ENDBRANCH  38  40
ENDBRANCH  37  38
ENDBRANCH   1  37
TORSDOF 11
ENDMDL
MODEL 7
REMARK VINA RESULT:    -5.534      4.660      7.950
REMARK INTER + INTRA:         -10.631
REMARK INTER:                  -9.310
REMARK INTRA:                  -1.321
REMARK UNBOUND:                -0.891
REMARK SMILES C=C(C)[C@]12C[C@@H](C)[C@@]34O[C@](Cc5ccccc5)(O[C@@H]1[C@@H]3C=C(COC(=O)Cc1ccc(O)c(OC)c1)C[C@]1(O)C(=O)C(C)=C[C@@H]41)O2
REMARK SMILES IDX 23 1 22 2 21 3 20 4 9 5 8 6 10 7 6 8 18 9 46 10 19 11 5 12
REMARK SMILES IDX 7 13 4 14 45 15 38 16 44 17 40 18 42 20 41 21 43 22 39 23
REMARK SMILES IDX 11 25 12 26 13 27 17 28 14 29 16 30 15 31 2 32 3 33 1 34
REMARK SMILES IDX 37 35 24 37 25 38 26 39 27 40 28 41 36 42 29 43 33 44 30 45
REMARK SMILES IDX 31 46 34 47 35 48 32 49
REMARK H PARENT 39 24 32 50
REMARK Flexibility Score: 90.00
ROOT
ATOM      1  C   UNL     1      95.220  74.412  82.544  1.00  0.00     0.264 C 
ENDROOT
BRANCH   1   2
ATOM      2  C   UNL     1      93.957  74.188  83.341  1.00  0.00    -0.033 C 
ATOM      3  C   UNL     1      93.522  75.156  84.173  1.00  0.00    -0.015 C 
BRANCH   3   4
ATOM      4  C   UNL     1      92.340  75.147  85.129  1.00  0.00     0.078 C 
ATOM      5  O   UNL     1      90.407  76.070  83.893  1.00  0.00    -0.319 OA
ATOM      6  C   UNL     1      90.907  74.862  84.545  1.00  0.00     0.095 C 
ATOM      7  C   UNL     1      90.644  77.298  84.605  1.00  0.00     0.289 C 
ATOM      8  C   UNL     1      89.958  74.492  85.759  1.00  0.00     0.023 C 
ATOM      9  O   UNL     1      92.035  77.493  84.850  1.00  0.00    -0.320 OA
ATOM     10  O   UNL     1      90.023  77.309  85.888  1.00  0.00    -0.313 OA
ATOM     11  C   UNL     1      92.252  76.504  85.869  1.00  0.00     0.170 C 
ATOM     12  C   UNL     1      90.361  75.263  87.054  1.00  0.00     0.049 C 
ATOM     13  C   UNL     1      88.454  74.675  85.502  1.00  0.00     0.011 C 
ATOM     14  C   UNL     1      90.972  76.627  86.732  1.00  0.00     0.122 C 
BRANCH   6  15
ATOM     15  C   UNL     1      90.976  73.805  83.404  1.00  0.00     0.086 C 
ATOM     16  C   UNL     1      91.906  72.599  83.650  1.00  0.00     0.140 CG0
ATOM     17  C   UNL     1      89.706  73.171  82.910  1.00  0.00    -0.010 C 
ATOM     18  C   UNL     1      91.173  71.473  82.952  1.00  0.00     0.190 C 
ATOM     19  G   UNL     1      93.307  72.826  83.083  1.00  0.00     0.000 G0
ATOM     20  C   UNL     1      89.791  71.869  82.620  1.00  0.00    -0.008 C 
ATOM     21  O   UNL     1      91.628  70.362  82.729  1.00  0.00    -0.291 OA
ATOM     22  C   UNL     1      88.784  70.954  82.043  1.00  0.00     0.048 C 
BRANCH  16  23
ATOM     23  O   UNL     1      91.957  72.180  85.004  1.00  0.00    -0.381 OA
ATOM     24  H   UNL     1      91.226  71.561  85.162  1.00  0.00     0.212 HD
ENDBRANCH  16  23
ENDBRANCH   6  15
BRANCH   7  25
ATOM     25  C   UNL     1      90.106  78.444  83.772  1.00  0.00     0.135 C 
BRANCH  25  26
ATOM     26  C   UNL     1      89.965  79.711  84.577  1.00  0.00    -0.040 A 
ATOM     27  C   UNL     1      88.779  79.971  85.265  1.00  0.00     0.004 A 
ATOM     28  C   UNL     1      91.019  80.622  84.636  1.00  0.00     0.004 A 
ATOM     29  C   UNL     1      88.648  81.144  86.010  1.00  0.00     0.000 A 
ATOM     30  C   UNL     1      90.888  81.794  85.381  1.00  0.00     0.000 A 
ATOM     31  C   UNL     1      89.702  82.055  86.068  1.00  0.00     0.000 A 
ENDBRANCH  25  26
ENDBRANCH   7  25
BRANCH  14  32
ATOM     32  C   UNL     1      91.197  77.458  87.954  1.00  0.00    -0.046 C 
ATOM     33  C   UNL     1      91.156  76.732  89.265  1.00  0.00     0.042 C 
ATOM     34  C   UNL     1      91.422  78.779  87.882  1.00  0.00     0.010 C 
ENDBRANCH  14  32
ENDBRANCH   3   4
BRANCH   2  35
ATOM     35  C   UNL     1      93.317  72.838  83.076  1.00  0.00     0.078 CG0
ATOM     36  G   UNL     1      91.922  72.600  83.652  1.00  0.00     0.000 G0
ENDBRANCH   2  35
ENDBRANCH   1   2
BRANCH   1  37
ATOM     37  O   UNL     1      95.469  75.797  82.442  1.00  0.00    -0.461 OA
BRANCH  37  38
ATOM     38  C   UNL     1      96.527  76.169  81.646  1.00  0.00     0.310 C 
ATOM     39  O   UNL     1      96.701  75.803  80.491  1.00  0.00    -0.252 OA
BRANCH  38  40
ATOM     40  C   UNL     1      97.438  77.094  82.418  1.00  0.00     0.158 C 
BRANCH  40  41
ATOM     41  C   UNL     1      97.075  78.547  82.255  1.00  0.00    -0.033 A 
ATOM     42  C   UNL     1      97.437  79.231  81.094  1.00  0.00     0.054 A 
ATOM     43  C   UNL     1      96.375  79.209  83.264  1.00  0.00     0.008 A 
ATOM     44  C   UNL     1      97.100  80.577  80.943  1.00  0.00     0.160 A 
ATOM     45  C   UNL     1      96.039  80.554  83.114  1.00  0.00     0.050 A 
ATOM     46  C   UNL     1      96.401  81.238  81.954  1.00  0.00     0.157 A 
BRANCH  44  47
ATOM     47  O   UNL     1      97.460  81.234  79.806  1.00  0.00    -0.493 OA
ATOM     48  C   UNL     1      98.696  80.856  79.202  1.00  0.00     0.278 C 
ENDBRANCH  44  47
BRANCH  46  49
ATOM     49  O   UNL     1      96.066  82.551  81.817  1.00  0.00    -0.504 OA
ATOM     50  H   UNL     1      96.798  83.021  81.383  1.00  0.00     0.293 HD
ENDBRANCH  46  49
ENDBRANCH  40  41
ENDBRANCH  38  40
ENDBRANCH  37  38
ENDBRANCH   1  37
TORSDOF 11
ENDMDL
MODEL 8
REMARK VINA RESULT:    -5.531     27.759     31.751
REMARK INTER + INTRA:         -10.625
REMARK INTER:                  -9.703
REMARK INTRA:                  -0.922
REMARK UNBOUND:                -0.891
REMARK SMILES C=C(C)[C@]12C[C@@H](C)[C@@]34O[C@](Cc5ccccc5)(O[C@@H]1[C@@H]3C=C(COC(=O)Cc1ccc(O)c(OC)c1)C[C@]1(O)C(=O)C(C)=C[C@@H]41)O2
REMARK SMILES IDX 23 1 22 2 21 3 20 4 9 5 8 6 10 7 6 8 18 9 46 10 19 11 5 12
REMARK SMILES IDX 7 13 4 14 45 15 38 16 44 17 40 18 42 20 41 21 43 22 39 23
REMARK SMILES IDX 11 25 12 26 13 27 17 28 14 29 16 30 15 31 2 32 3 33 1 34
REMARK SMILES IDX 37 35 24 37 25 38 26 39 27 40 28 41 36 42 29 43 33 44 30 45
REMARK SMILES IDX 31 46 34 47 35 48 32 49
REMARK H PARENT 39 24 32 50
REMARK Flexibility Score: 90.00
ROOT
ATOM      1  C   UNL     1      68.112  87.373  69.888  1.00  0.00     0.264 C 
ENDROOT
BRANCH   1   2
ATOM      2  C   UNL     1      66.852  87.504  70.710  1.00  0.00    -0.033 C 
ATOM      3  C   UNL     1      65.660  87.250  70.134  1.00  0.00    -0.015 C 
BRANCH   3   4
ATOM      4  C   UNL     1      64.261  87.382  70.714  1.00  0.00     0.078 C 
ATOM      5  O   UNL     1      63.656  85.173  71.649  1.00  0.00    -0.319 OA
ATOM      6  C   UNL     1      63.908  86.566  72.013  1.00  0.00     0.095 C 
ATOM      7  C   UNL     1      62.867  84.980  70.460  1.00  0.00     0.289 C 
ATOM      8  C   UNL     1      62.589  87.192  72.630  1.00  0.00     0.023 C 
ATOM      9  O   UNL     1      63.468  85.611  69.332  1.00  0.00    -0.320 OA
ATOM     10  O   UNL     1      61.567  85.552  70.574  1.00  0.00    -0.313 OA
ATOM     11  C   UNL     1      63.210  86.988  69.647  1.00  0.00     0.170 C 
ATOM     12  C   UNL     1      61.640  87.735  71.518  1.00  0.00     0.049 C 
ATOM     13  C   UNL     1      61.799  86.269  73.571  1.00  0.00     0.011 C 
ATOM     14  C   UNL     1      61.772  86.936  70.221  1.00  0.00     0.122 C 
BRANCH   6  15
ATOM     15  C   UNL     1      65.131  86.501  72.973  1.00  0.00     0.086 C 
ATOM     16  C   UNL     1      65.928  87.811  73.147  1.00  0.00     0.140 CG0
ATOM     17  C   UNL     1      64.935  86.022  74.384  1.00  0.00    -0.010 C 
ATOM     18  C   UNL     1      66.371  87.733  74.593  1.00  0.00     0.190 C 
ATOM     19  G   UNL     1      67.106  87.901  72.178  1.00  0.00     0.000 G0
ATOM     20  C   UNL     1      65.639  86.675  75.314  1.00  0.00    -0.008 C 
ATOM     21  O   UNL     1      67.187  88.471  75.124  1.00  0.00    -0.291 OA
ATOM     22  C   UNL     1      65.758  86.428  76.766  1.00  0.00     0.048 C 
BRANCH  16  23
ATOM     23  O   UNL     1      65.129  88.980  73.100  1.00  0.00    -0.381 OA
ATOM     24  H   UNL     1      64.392  88.874  73.725  1.00  0.00     0.212 HD
ENDBRANCH  16  23
ENDBRANCH   6  15
BRANCH   7  25
ATOM     25  C   UNL     1      62.744  83.491  70.208  1.00  0.00     0.135 C 
BRANCH  25  26
ATOM     26  C   UNL     1      62.525  82.717  71.484  1.00  0.00    -0.040 A 
ATOM     27  C   UNL     1      63.463  81.770  71.895  1.00  0.00     0.004 A 
ATOM     28  C   UNL     1      61.387  82.950  72.255  1.00  0.00     0.004 A 
ATOM     29  C   UNL     1      63.261  81.054  73.076  1.00  0.00     0.000 A 
ATOM     30  C   UNL     1      61.185  82.235  73.436  1.00  0.00     0.000 A 
ATOM     31  C   UNL     1      62.122  81.287  73.845  1.00  0.00     0.000 A 
ENDBRANCH  25  26
ENDBRANCH   7  25
BRANCH  14  32
ATOM     32  C   UNL     1      60.747  87.319  69.204  1.00  0.00    -0.046 C 
ATOM     33  C   UNL     1      59.317  87.263  69.651  1.00  0.00     0.042 C 
ATOM     34  C   UNL     1      61.086  87.691  67.961  1.00  0.00     0.010 C 
ENDBRANCH  14  32
ENDBRANCH   3   4
BRANCH   2  35
ATOM     35  C   UNL     1      67.118  87.918  72.145  1.00  0.00     0.078 CG0
ATOM     36  G   UNL     1      65.955  87.811  73.131  1.00  0.00     0.000 G0
ENDBRANCH   2  35
ENDBRANCH   1   2
BRANCH   1  37
ATOM     37  O   UNL     1      68.388  86.006  69.671  1.00  0.00    -0.461 OA
BRANCH  37  38
ATOM     38  C   UNL     1      69.656  85.703  69.233  1.00  0.00     0.310 C 
ATOM     39  O   UNL     1      70.143  84.581  69.210  1.00  0.00    -0.252 OA
BRANCH  38  40
ATOM     40  C   UNL     1      70.351  86.968  68.786  1.00  0.00     0.158 C 
BRANCH  40  41
ATOM     41  C   UNL     1      71.662  86.705  68.090  1.00  0.00    -0.033 A 
ATOM     42  C   UNL     1      72.830  86.554  68.839  1.00  0.00     0.054 A 
ATOM     43  C   UNL     1      71.707  86.611  66.700  1.00  0.00     0.008 A 
ATOM     44  C   UNL     1      74.044  86.310  68.195  1.00  0.00     0.160 A 
ATOM     45  C   UNL     1      72.921  86.367  66.056  1.00  0.00     0.050 A 
ATOM     46  C   UNL     1      74.089  86.217  66.803  1.00  0.00     0.157 A 
BRANCH  44  47
ATOM     47  O   UNL     1      75.177  86.165  68.935  1.00  0.00    -0.493 OA
ATOM     48  C   UNL     1      75.397  84.892  69.543  1.00  0.00     0.278 C 
ENDBRANCH  44  47
BRANCH  46  49
ATOM     49  O   UNL     1      75.267  85.978  66.164  1.00  0.00    -0.504 OA
ATOM     50  H   UNL     1      75.143  85.250  65.532  1.00  0.00     0.293 HD
ENDBRANCH  46  49
ENDBRANCH  40  41
ENDBRANCH  38  40
ENDBRANCH  37  38
ENDBRANCH   1  37
TORSDOF 11
ENDMDL
MODEL 9
REMARK VINA RESULT:    -5.163     10.897     16.197
REMARK INTER + INTRA:          -9.978
REMARK INTER:                  -8.992
REMARK INTRA:                  -0.986
REMARK UNBOUND:                -0.891
REMARK SMILES C=C(C)[C@]12C[C@@H](C)[C@@]34O[C@](Cc5ccccc5)(O[C@@H]1[C@@H]3C=C(COC(=O)Cc1ccc(O)c(OC)c1)C[C@]1(O)C(=O)C(C)=C[C@@H]41)O2
REMARK SMILES IDX 23 1 22 2 21 3 20 4 9 5 8 6 10 7 6 8 18 9 46 10 19 11 5 12
REMARK SMILES IDX 7 13 4 14 45 15 38 16 44 17 40 18 42 20 41 21 43 22 39 23
REMARK SMILES IDX 11 25 12 26 13 27 17 28 14 29 16 30 15 31 2 32 3 33 1 34
REMARK SMILES IDX 37 35 24 37 25 38 26 39 27 40 28 41 36 42 29 43 33 44 30 45
REMARK SMILES IDX 31 46 34 47 35 48 32 49
REMARK H PARENT 39 24 32 50
REMARK Flexibility Score: 90.00
ROOT
ATOM      1  C   UNL     1      94.801  96.653  90.105  1.00  0.00     0.264 C 
ENDROOT
BRANCH   1   2
ATOM      2  C   UNL     1      94.021  95.420  90.498  1.00  0.00    -0.033 C 
ATOM      3  C   UNL     1      94.601  94.208  90.383  1.00  0.00    -0.015 C 
BRANCH   3   4
ATOM      4  C   UNL     1      94.013  92.830  90.634  1.00  0.00     0.078 C 
ATOM      5  O   UNL     1      94.490  92.263  92.995  1.00  0.00    -0.319 OA
ATOM      6  C   UNL     1      93.403  92.523  92.053  1.00  0.00     0.095 C 
ATOM      7  C   UNL     1      95.555  91.435  92.493  1.00  0.00     0.289 C 
ATOM      8  C   UNL     1      92.505  91.225  91.919  1.00  0.00     0.023 C 
ATOM      9  O   UNL     1      96.137  91.995  91.319  1.00  0.00    -0.320 OA
ATOM     10  O   UNL     1      95.101  90.138  92.116  1.00  0.00    -0.313 OA
ATOM     11  C   UNL     1      95.087  91.744  90.373  1.00  0.00     0.170 C 
ATOM     12  C   UNL     1      93.083  90.237  90.859  1.00  0.00     0.049 C 
ATOM     13  C   UNL     1      92.238  90.469  93.230  1.00  0.00     0.011 C 
ATOM     14  C   UNL     1      94.607  90.327  90.774  1.00  0.00     0.122 C 
BRANCH   6  15
ATOM     15  C   UNL     1      92.684  93.778  92.627  1.00  0.00     0.086 C 
ATOM     16  C   UNL     1      91.821  94.582  91.632  1.00  0.00     0.140 CG0
ATOM     17  C   UNL     1      91.788  93.630  93.825  1.00  0.00    -0.010 C 
ATOM     18  C   UNL     1      90.687  95.074  92.506  1.00  0.00     0.190 C 
ATOM     19  G   UNL     1      92.601  95.726  90.986  1.00  0.00     0.000 G0
ATOM     20  C   UNL     1      90.672  94.366  93.800  1.00  0.00    -0.008 C 
ATOM     21  O   UNL     1      89.854  95.907  92.183  1.00  0.00    -0.291 OA
ATOM     22  C   UNL     1      89.620  94.533  94.823  1.00  0.00     0.048 C 
BRANCH  16  23
ATOM     23  O   UNL     1      91.174  93.782  90.656  1.00  0.00    -0.381 OA
ATOM     24  H   UNL     1      90.557  93.184  91.110  1.00  0.00     0.212 HD
ENDBRANCH  16  23
ENDBRANCH   6  15
BRANCH   7  25
ATOM     25  C   UNL     1      96.608  91.307  93.575  1.00  0.00     0.135 C 
BRANCH  25  26
ATOM     26  C   UNL     1      96.298  90.186  94.536  1.00  0.00    -0.040 A 
ATOM     27  C   UNL     1      95.332  90.364  95.526  1.00  0.00     0.004 A 
ATOM     28  C   UNL     1      96.976  88.971  94.434  1.00  0.00     0.004 A 
ATOM     29  C   UNL     1      95.044  89.327  96.415  1.00  0.00     0.000 A 
ATOM     30  C   UNL     1      96.689  87.935  95.322  1.00  0.00     0.000 A 
ATOM     31  C   UNL     1      95.723  88.113  96.313  1.00  0.00     0.000 A 
ENDBRANCH  25  26
ENDBRANCH   7  25
BRANCH  14  32
ATOM     32  C   UNL     1      95.197  89.267  89.901  1.00  0.00    -0.046 C 
ATOM     33  C   UNL     1      96.596  89.510  89.418  1.00  0.00     0.042 C 
ATOM     34  C   UNL     1      94.515  88.161  89.569  1.00  0.00     0.010 C 
ENDBRANCH  14  32
ENDBRANCH   3   4
BRANCH   2  35
ATOM     35  C   UNL     1      92.625  95.735  91.001  1.00  0.00     0.078 CG0
ATOM     36  G   UNL     1      91.826  94.584  91.612  1.00  0.00     0.000 G0
ENDBRANCH   2  35
ENDBRANCH   1   2
BRANCH   1  37
ATOM     37  O   UNL     1      94.891  97.522  91.214  1.00  0.00    -0.461 OA
BRANCH  37  38
ATOM     38  C   UNL     1      94.872  98.869  90.935  1.00  0.00     0.310 C 
ATOM     39  O   UNL     1      95.495  99.722  91.551  1.00  0.00    -0.252 OA
BRANCH  38  40
ATOM     40  C   UNL     1      93.966  99.127  89.754  1.00  0.00     0.158 C 
BRANCH  40  41
ATOM     41  C   UNL     1      92.552  99.457  90.159  1.00  0.00    -0.033 A 
ATOM     42  C   UNL     1      92.267 100.686  90.756  1.00  0.00     0.054 A 
ATOM     43  C   UNL     1      91.529  98.536  89.937  1.00  0.00     0.008 A 
ATOM     44  C   UNL     1      90.959 100.992  91.131  1.00  0.00     0.160 A 
ATOM     45  C   UNL     1      90.221  98.842  90.312  1.00  0.00     0.050 A 
ATOM     46  C   UNL     1      89.936 100.069  90.909  1.00  0.00     0.157 A 
BRANCH  44  47
ATOM     47  O   UNL     1      90.693 102.194  91.713  1.00  0.00    -0.493 OA
ATOM     48  C   UNL     1      91.651 102.689  92.647  1.00  0.00     0.278 C 
ENDBRANCH  44  47
BRANCH  46  49
ATOM     49  O   UNL     1      88.654 100.358  91.270  1.00  0.00    -0.504 OA
ATOM     50  H   UNL     1      88.566 101.319  91.381  1.00  0.00     0.293 HD
ENDBRANCH  46  49
ENDBRANCH  40  41
ENDBRANCH  38  40
ENDBRANCH  37  38
ENDBRANCH   1  37
TORSDOF 11
ENDMDL
MODEL 10
REMARK VINA RESULT:    -5.142     18.239     21.990
REMARK INTER + INTRA:          -9.941
REMARK INTER:                  -7.897
REMARK INTRA:                  -2.044
REMARK UNBOUND:                -0.891
REMARK SMILES C=C(C)[C@]12C[C@@H](C)[C@@]34O[C@](Cc5ccccc5)(O[C@@H]1[C@@H]3C=C(COC(=O)Cc1ccc(O)c(OC)c1)C[C@]1(O)C(=O)C(C)=C[C@@H]41)O2
REMARK SMILES IDX 23 1 22 2 21 3 20 4 9 5 8 6 10 7 6 8 18 9 46 10 19 11 5 12
REMARK SMILES IDX 7 13 4 14 45 15 38 16 44 17 40 18 42 20 41 21 43 22 39 23
REMARK SMILES IDX 11 25 12 26 13 27 17 28 14 29 16 30 15 31 2 32 3 33 1 34
REMARK SMILES IDX 37 35 24 37 25 38 26 39 27 40 28 41 36 42 29 43 33 44 30 45
REMARK SMILES IDX 31 46 34 47 35 48 32 49
REMARK H PARENT 39 24 32 50
REMARK Flexibility Score: 90.00
ROOT
ATOM      1  C   UNL     1      78.859  67.689  89.975  1.00  0.00     0.264 C 
ENDROOT
BRANCH   1   2
ATOM      2  C   UNL     1      77.541  67.909  89.268  1.00  0.00    -0.033 C 
ATOM      3  C   UNL     1      76.600  68.678  89.851  1.00  0.00    -0.015 C 
BRANCH   3   4
ATOM      4  C   UNL     1      75.185  68.987  89.390  1.00  0.00     0.078 C 
ATOM      5  O   UNL     1      75.299  71.070  88.059  1.00  0.00    -0.319 OA
ATOM      6  C   UNL     1      74.986  69.645  87.973  1.00  0.00     0.095 C 
ATOM      7  C   UNL     1      74.791  71.743  89.226  1.00  0.00     0.289 C 
ATOM      8  C   UNL     1      73.463  69.467  87.572  1.00  0.00     0.023 C 
ATOM      9  O   UNL     1      75.264  71.132  90.424  1.00  0.00    -0.320 OA
ATOM     10  O   UNL     1      73.369  71.692  89.304  1.00  0.00    -0.313 OA
ATOM     11  C   UNL     1      74.492  69.922  90.411  1.00  0.00     0.170 C 
ATOM     12  C   UNL     1      72.533  69.517  88.823  1.00  0.00     0.049 C 
ATOM     13  C   UNL     1      72.943  70.447  86.508  1.00  0.00     0.011 C 
ATOM     14  C   UNL     1      73.107  70.414  89.920  1.00  0.00     0.122 C 
BRANCH   6  15
ATOM     15  C   UNL     1      76.017  69.081  86.953  1.00  0.00     0.086 C 
ATOM     16  C   UNL     1      76.262  67.559  87.005  1.00  0.00     0.140 CG0
ATOM     17  C   UNL     1      75.827  69.355  85.487  1.00  0.00    -0.010 C 
ATOM     18  C   UNL     1      76.515  67.219  85.552  1.00  0.00     0.190 C 
ATOM     19  G   UNL     1      77.443  67.196  87.905  1.00  0.00     0.000 G0
ATOM     20  C   UNL     1      76.125  68.338  84.672  1.00  0.00    -0.008 C 
ATOM     21  O   UNL     1      76.936  66.150  85.137  1.00  0.00    -0.291 OA
ATOM     22  C   UNL     1      76.138  68.273  83.196  1.00  0.00     0.048 C 
BRANCH  16  23
ATOM     23  O   UNL     1      75.109  66.803  87.334  1.00  0.00    -0.381 OA
ATOM     24  H   UNL     1      74.640  66.585  86.512  1.00  0.00     0.212 HD
ENDBRANCH  16  23
ENDBRANCH   6  15
BRANCH   7  25
ATOM     25  C   UNL     1      75.244  73.189  89.176  1.00  0.00     0.135 C 
BRANCH  25  26
ATOM     26  C   UNL     1      75.084  73.878  90.508  1.00  0.00    -0.040 A 
ATOM     27  C   UNL     1      74.008  74.740  90.722  1.00  0.00     0.004 A 
ATOM     28  C   UNL     1      76.009  73.652  91.526  1.00  0.00     0.004 A 
ATOM     29  C   UNL     1      73.859  75.378  91.954  1.00  0.00     0.000 A 
ATOM     30  C   UNL     1      75.861  74.290  92.758  1.00  0.00     0.000 A 
ATOM     31  C   UNL     1      74.786  75.153  92.972  1.00  0.00     0.000 A 
ENDBRANCH  25  26
ENDBRANCH   7  25
BRANCH  14  32
ATOM     32  C   UNL     1      72.152  70.623  91.050  1.00  0.00    -0.046 C 
ATOM     33  C   UNL     1      71.649  69.384  91.729  1.00  0.00     0.042 C 
ATOM     34  C   UNL     1      71.766  71.849  91.435  1.00  0.00     0.010 C 
ENDBRANCH  14  32
ENDBRANCH   3   4
BRANCH   2  35
ATOM     35  C   UNL     1      77.460  67.202  87.928  1.00  0.00     0.078 CG0
ATOM     36  G   UNL     1      76.287  67.561  87.018  1.00  0.00     0.000 G0
ENDBRANCH   2  35
ENDBRANCH   1   2
BRANCH   1  37
ATOM     37  O   UNL     1      79.787  68.662  89.545  1.00  0.00    -0.461 OA
BRANCH  37  38
ATOM     38  C   UNL     1      79.735  69.878  90.187  1.00  0.00     0.310 C 
ATOM     39  O   UNL     1      79.128  70.098  91.226  1.00  0.00    -0.252 OA
BRANCH  38  40
ATOM     40  C   UNL     1      80.541  70.893  89.412  1.00  0.00     0.158 C 
BRANCH  40  41
ATOM     41  C   UNL     1      79.784  72.169  89.149  1.00  0.00    -0.033 A 
ATOM     42  C   UNL     1      79.216  72.397  87.894  1.00  0.00     0.054 A 
ATOM     43  C   UNL     1      79.649  73.121  90.159  1.00  0.00     0.008 A 
ATOM     44  C   UNL     1      78.515  73.578  87.651  1.00  0.00     0.160 A 
ATOM     45  C   UNL     1      78.948  74.302  89.915  1.00  0.00     0.050 A 
ATOM     46  C   UNL     1      78.381  74.531  88.662  1.00  0.00     0.157 A 
BRANCH  44  47
ATOM     47  O   UNL     1      77.966  73.790  86.423  1.00  0.00    -0.493 OA
ATOM     48  C   UNL     1      77.182  72.733  85.872  1.00  0.00     0.278 C 
ENDBRANCH  44  47
BRANCH  46  49
ATOM     49  O   UNL     1      77.698  75.687  88.436  1.00  0.00    -0.504 OA
ATOM     50  H   UNL     1      78.334  76.413  88.317  1.00  0.00     0.293 HD
ENDBRANCH  46  49
ENDBRANCH  40  41
ENDBRANCH  38  40
ENDBRANCH  37  38
ENDBRANCH   1  37
TORSDOF 11
ENDMDL
