MODEL 1
REMARK VINA RESULT:    -5.932      0.000      0.000
REMARK INTER + INTRA:         -10.759
REMARK INTER:                  -9.920
REMARK INTRA:                  -0.840
REMARK UNBOUND:                -0.840
REMARK SMILES COc1cc(CNC(=O)CCCCCCCC(C)C)ccc1O
REMARK SMILES IDX 11 1 10 2 8 3 9 4 7 5 6 7 5 8 4 9 20 10 3 11 21 12 22 13
REMARK SMILES IDX 2 14 1 15 23 16 12 18 13 19 14 20 15 21 16 22 17 23 18 24
REMARK SMILES IDX 19 25
REMARK H PARENT 7 6 23 17
REMARK Flexibility Score: inf
ROOT
ATOM      1  C   UNL     1      74.517  90.596  70.007  1.00  0.00     0.010 C 
ENDROOT
BRANCH   1   2
ATOM      2  C   UNL     1      73.607  90.295  71.196  1.00  0.00     0.100 C 
BRANCH   2   3
ATOM      3  C   UNL     1      73.390  91.512  72.081  1.00  0.00     0.220 C 
ATOM      4  O   UNL     1      72.503  91.580  72.927  1.00  0.00    -0.275 OA
ATOM      5  N   UNL     1      74.306  92.515  71.802  1.00  0.00    -0.352 N 
ATOM      6  H   UNL     1      75.001  92.372  71.074  1.00  0.00     0.163 HD
BRANCH   5   7
ATOM      7  C   UNL     1      74.315  93.782  72.496  1.00  0.00     0.151 C 
BRANCH   7   8
ATOM      8  C   UNL     1      75.403  93.849  73.528  1.00  0.00    -0.025 A 
ATOM      9  C   UNL     1      75.071  93.885  74.877  1.00  0.00     0.056 A 
ATOM     10  C   UNL     1      76.733  93.876  73.124  1.00  0.00     0.009 A 
ATOM     11  C   UNL     1      76.082  93.948  75.835  1.00  0.00     0.160 A 
ATOM     12  C   UNL     1      77.744  93.939  74.083  1.00  0.00     0.050 A 
ATOM     13  C   UNL     1      77.419  93.975  75.439  1.00  0.00     0.157 A 
BRANCH  11  14
ATOM     14  O   UNL     1      75.751  93.983  77.157  1.00  0.00    -0.493 OA
ATOM     15  C   UNL     1      74.914  92.935  77.644  1.00  0.00     0.278 C 
ENDBRANCH  11  14
BRANCH  13  16
ATOM     16  O   UNL     1      78.415  94.036  76.366  1.00  0.00    -0.504 OA
ATOM     17  H   UNL     1      78.020  94.122  77.250  1.00  0.00     0.293 HD
ENDBRANCH  13  16
ENDBRANCH   7   8
ENDBRANCH   5   7
ENDBRANCH   2   3
ENDBRANCH   1   2
BRANCH   1  18
ATOM     18  C   UNL     1      75.227  89.358  69.454  1.00  0.00     0.001 C 
BRANCH  18  19
ATOM     19  C   UNL     1      75.994  89.562  68.143  1.00  0.00     0.000 C 
BRANCH  19  20
ATOM     20  C   UNL     1      77.347  88.845  68.116  1.00  0.00     0.000 C 
BRANCH  20  21
ATOM     21  C   UNL     1      77.244  87.365  67.731  1.00  0.00     0.000 C 
BRANCH  21  22
ATOM     22  C   UNL     1      77.261  86.421  68.938  1.00  0.00     0.003 C 
BRANCH  22  23
ATOM     23  C   UNL     1      76.691  85.022  68.632  1.00  0.00    -0.017 C 
ATOM     24  C   UNL     1      77.341  84.465  67.363  1.00  0.00     0.007 C 
ATOM     25  C   UNL     1      75.171  85.032  68.469  1.00  0.00     0.007 C 
ENDBRANCH  22  23
ENDBRANCH  21  22
ENDBRANCH  20  21
ENDBRANCH  19  20
ENDBRANCH  18  19
ENDBRANCH   1  18
TORSDOF 12
ENDMDL
MODEL 2
REMARK VINA RESULT:    -5.853      1.801      2.639
REMARK INTER + INTRA:         -10.628
REMARK INTER:                  -9.352
REMARK INTRA:                  -1.275
REMARK UNBOUND:                -0.840
REMARK SMILES COc1cc(CNC(=O)CCCCCCCC(C)C)ccc1O
REMARK SMILES IDX 11 1 10 2 8 3 9 4 7 5 6 7 5 8 4 9 20 10 3 11 21 12 22 13
REMARK SMILES IDX 2 14 1 15 23 16 12 18 13 19 14 20 15 21 16 22 17 23 18 24
REMARK SMILES IDX 19 25
REMARK H PARENT 7 6 23 17
REMARK Flexibility Score: inf
ROOT
ATOM      1  C   UNL     1      75.454  90.007  69.410  1.00  0.00     0.010 C 
ENDROOT
BRANCH   1   2
ATOM      2  C   UNL     1      74.273  89.837  70.364  1.00  0.00     0.100 C 
BRANCH   2   3
ATOM      3  C   UNL     1      73.815  91.158  70.959  1.00  0.00     0.220 C 
ATOM      4  O   UNL     1      74.103  92.250  70.478  1.00  0.00    -0.275 OA
ATOM      5  N   UNL     1      73.050  90.964  72.100  1.00  0.00    -0.352 N 
ATOM      6  H   UNL     1      72.872  90.020  72.432  1.00  0.00     0.163 HD
BRANCH   5   7
ATOM      7  C   UNL     1      72.496  92.057  72.866  1.00  0.00     0.151 C 
BRANCH   7   8
ATOM      8  C   UNL     1      73.093  92.139  74.241  1.00  0.00    -0.025 A 
ATOM      9  C   UNL     1      74.152  93.005  74.480  1.00  0.00     0.056 A 
ATOM     10  C   UNL     1      72.580  91.347  75.261  1.00  0.00     0.009 A 
ATOM     11  C   UNL     1      74.707  93.081  75.757  1.00  0.00     0.160 A 
ATOM     12  C   UNL     1      73.135  91.422  76.538  1.00  0.00     0.050 A 
ATOM     13  C   UNL     1      74.199  92.289  76.787  1.00  0.00     0.157 A 
BRANCH  11  14
ATOM     14  O   UNL     1      75.747  93.932  75.988  1.00  0.00    -0.493 OA
ATOM     15  C   UNL     1      75.483  95.327  75.853  1.00  0.00     0.278 C 
ENDBRANCH  11  14
BRANCH  13  16
ATOM     16  O   UNL     1      74.732  92.354  78.039  1.00  0.00    -0.504 OA
ATOM     17  H   UNL     1      74.960  91.456  78.333  1.00  0.00     0.293 HD
ENDBRANCH  13  16
ENDBRANCH   7   8
ENDBRANCH   5   7
ENDBRANCH   2   3
ENDBRANCH   1   2
BRANCH   1  18
ATOM     18  C   UNL     1      75.147  89.570  67.976  1.00  0.00     0.001 C 
BRANCH  18  19
ATOM     19  C   UNL     1      76.367  89.314  67.084  1.00  0.00     0.000 C 
BRANCH  19  20
ATOM     20  C   UNL     1      77.463  88.501  67.778  1.00  0.00     0.000 C 
BRANCH  20  21
ATOM     21  C   UNL     1      77.201  86.991  67.767  1.00  0.00     0.000 C 
BRANCH  21  22
ATOM     22  C   UNL     1      77.085  86.386  69.171  1.00  0.00     0.003 C 
BRANCH  22  23
ATOM     23  C   UNL     1      75.694  85.792  69.469  1.00  0.00    -0.017 C 
ATOM     24  C   UNL     1      75.845  84.364  70.000  1.00  0.00     0.007 C 
ATOM     25  C   UNL     1      74.782  85.790  68.242  1.00  0.00     0.007 C 
ENDBRANCH  22  23
ENDBRANCH  21  22
ENDBRANCH  20  21
ENDBRANCH  19  20
ENDBRANCH  18  19
ENDBRANCH   1  18
TORSDOF 12
ENDMDL
MODEL 3
REMARK VINA RESULT:    -5.754     22.640     24.271
REMARK INTER + INTRA:         -10.462
REMARK INTER:                  -9.453
REMARK INTRA:                  -1.009
REMARK UNBOUND:                -0.840
REMARK SMILES COc1cc(CNC(=O)CCCCCCCC(C)C)ccc1O
REMARK SMILES IDX 11 1 10 2 8 3 9 4 7 5 6 7 5 8 4 9 20 10 3 11 21 12 22 13
REMARK SMILES IDX 2 14 1 15 23 16 12 18 13 19 14 20 15 21 16 22 17 23 18 24
REMARK SMILES IDX 19 25
REMARK H PARENT 7 6 23 17
REMARK Flexibility Score: inf
ROOT
ATOM      1  C   UNL     1      98.429  82.107  81.064  1.00  0.00     0.010 C 
ENDROOT
BRANCH   1   2
ATOM      2  C   UNL     1      97.069  81.696  81.623  1.00  0.00     0.100 C 
BRANCH   2   3
ATOM      3  C   UNL     1      96.816  82.266  83.009  1.00  0.00     0.220 C 
ATOM      4  O   UNL     1      97.454  81.929  84.003  1.00  0.00    -0.275 OA
ATOM      5  N   UNL     1      95.784  83.192  82.998  1.00  0.00    -0.352 N 
ATOM      6  H   UNL     1      95.304  83.400  82.126  1.00  0.00     0.163 HD
BRANCH   5   7
ATOM      7  C   UNL     1      95.336  83.879  84.188  1.00  0.00     0.151 C 
BRANCH   7   8
ATOM      8  C   UNL     1      94.400  83.036  85.004  1.00  0.00    -0.025 A 
ATOM      9  C   UNL     1      93.374  82.341  84.374  1.00  0.00     0.056 A 
ATOM     10  C   UNL     1      94.568  82.959  86.381  1.00  0.00     0.009 A 
ATOM     11  C   UNL     1      92.504  81.557  85.133  1.00  0.00     0.160 A 
ATOM     12  C   UNL     1      93.697  82.176  87.140  1.00  0.00     0.050 A 
ATOM     13  C   UNL     1      92.666  81.475  86.516  1.00  0.00     0.157 A 
BRANCH  11  14
ATOM     14  O   UNL     1      91.500  80.878  84.512  1.00  0.00    -0.493 OA
ATOM     15  C   UNL     1      90.363  81.636  84.100  1.00  0.00     0.278 C 
ENDBRANCH  11  14
BRANCH  13  16
ATOM     16  O   UNL     1      91.823  80.713  87.267  1.00  0.00    -0.504 OA
ATOM     17  H   UNL     1      92.270  79.880  87.497  1.00  0.00     0.293 HD
ENDBRANCH  13  16
ENDBRANCH   7   8
ENDBRANCH   5   7
ENDBRANCH   2   3
ENDBRANCH   1   2
BRANCH   1  18
ATOM     18  C   UNL     1      98.342  82.819  79.711  1.00  0.00     0.001 C 
BRANCH  18  19
ATOM     19  C   UNL     1      98.322  81.906  78.480  1.00  0.00     0.000 C 
BRANCH  19  20
ATOM     20  C   UNL     1      97.140  82.179  77.545  1.00  0.00     0.000 C 
BRANCH  20  21
ATOM     21  C   UNL     1      96.680  83.641  77.553  1.00  0.00     0.000 C 
BRANCH  21  22
ATOM     22  C   UNL     1      97.032  84.394  76.266  1.00  0.00     0.003 C 
BRANCH  22  23
ATOM     23  C   UNL     1      97.919  83.582  75.302  1.00  0.00    -0.017 C 
ATOM     24  C   UNL     1      99.372  84.049  75.419  1.00  0.00     0.007 C 
ATOM     25  C   UNL     1      97.459  83.693  73.848  1.00  0.00     0.007 C 
ENDBRANCH  22  23
ENDBRANCH  21  22
ENDBRANCH  20  21
ENDBRANCH  19  20
ENDBRANCH  18  19
ENDBRANCH   1  18
TORSDOF 12
ENDMDL
MODEL 4
REMARK VINA RESULT:    -5.681      1.425      2.455
REMARK INTER + INTRA:         -10.340
REMARK INTER:                  -9.417
REMARK INTRA:                  -0.924
REMARK UNBOUND:                -0.840
REMARK SMILES COc1cc(CNC(=O)CCCCCCCC(C)C)ccc1O
REMARK SMILES IDX 11 1 10 2 8 3 9 4 7 5 6 7 5 8 4 9 20 10 3 11 21 12 22 13
REMARK SMILES IDX 2 14 1 15 23 16 12 18 13 19 14 20 15 21 16 22 17 23 18 24
REMARK SMILES IDX 19 25
REMARK H PARENT 7 6 23 17
REMARK Flexibility Score: inf
ROOT
ATOM      1  C   UNL     1      74.338  90.657  70.815  1.00  0.00     0.010 C 
ENDROOT
BRANCH   1   2
ATOM      2  C   UNL     1      72.975  91.345  70.784  1.00  0.00     0.100 C 
BRANCH   2   3
ATOM      3  C   UNL     1      73.054  92.803  71.205  1.00  0.00     0.220 C 
ATOM      4  O   UNL     1      72.128  93.597  71.060  1.00  0.00    -0.275 OA
ATOM      5  N   UNL     1      74.289  93.109  71.755  1.00  0.00    -0.352 N 
ATOM      6  H   UNL     1      75.001  92.386  71.824  1.00  0.00     0.163 HD
BRANCH   5   7
ATOM      7  C   UNL     1      74.630  94.430  72.229  1.00  0.00     0.151 C 
BRANCH   7   8
ATOM      8  C   UNL     1      75.711  94.392  73.270  1.00  0.00    -0.025 A 
ATOM      9  C   UNL     1      76.892  95.094  73.061  1.00  0.00     0.056 A 
ATOM     10  C   UNL     1      75.521  93.654  74.431  1.00  0.00     0.009 A 
ATOM     11  C   UNL     1      77.897  95.058  74.028  1.00  0.00     0.160 A 
ATOM     12  C   UNL     1      76.526  93.617  75.398  1.00  0.00     0.050 A 
ATOM     13  C   UNL     1      77.714  94.319  75.197  1.00  0.00     0.157 A 
BRANCH  11  14
ATOM     14  O   UNL     1      79.053  95.748  73.819  1.00  0.00    -0.493 OA
ATOM     15  C   UNL     1      78.952  96.983  73.113  1.00  0.00     0.278 C 
ENDBRANCH  11  14
BRANCH  13  16
ATOM     16  O   UNL     1      78.688  94.276  76.148  1.00  0.00    -0.504 OA
ATOM     17  H   UNL     1      78.332  93.849  76.946  1.00  0.00     0.293 HD
ENDBRANCH  13  16
ENDBRANCH   7   8
ENDBRANCH   5   7
ENDBRANCH   2   3
ENDBRANCH   1   2
BRANCH   1  18
ATOM     18  C   UNL     1      74.545  89.659  69.672  1.00  0.00     0.001 C 
BRANCH  18  19
ATOM     19  C   UNL     1      75.961  89.599  69.090  1.00  0.00     0.000 C 
BRANCH  19  20
ATOM     20  C   UNL     1      75.986  89.604  67.559  1.00  0.00     0.000 C 
BRANCH  20  21
ATOM     21  C   UNL     1      76.818  88.465  66.959  1.00  0.00     0.000 C 
BRANCH  21  22
ATOM     22  C   UNL     1      77.281  87.440  67.998  1.00  0.00     0.003 C 
BRANCH  22  23
ATOM     23  C   UNL     1      76.545  86.089  67.900  1.00  0.00    -0.017 C 
ATOM     24  C   UNL     1      75.906  85.749  69.248  1.00  0.00     0.007 C 
ATOM     25  C   UNL     1      77.468  84.950  67.466  1.00  0.00     0.007 C 
ENDBRANCH  22  23
ENDBRANCH  21  22
ENDBRANCH  20  21
ENDBRANCH  19  20
ENDBRANCH  18  19
ENDBRANCH   1  18
TORSDOF 12
ENDMDL
MODEL 5
REMARK VINA RESULT:    -5.490     23.223     25.200
REMARK INTER + INTRA:         -10.021
REMARK INTER:                  -9.256
REMARK INTRA:                  -0.765
REMARK UNBOUND:                -0.840
REMARK SMILES COc1cc(CNC(=O)CCCCCCCC(C)C)ccc1O
REMARK SMILES IDX 11 1 10 2 8 3 9 4 7 5 6 7 5 8 4 9 20 10 3 11 21 12 22 13
REMARK SMILES IDX 2 14 1 15 23 16 12 18 13 19 14 20 15 21 16 22 17 23 18 24
REMARK SMILES IDX 19 25
REMARK H PARENT 7 6 23 17
REMARK Flexibility Score: inf
ROOT
ATOM      1  C   UNL     1      93.736  77.599  84.526  1.00  0.00     0.010 C 
ENDROOT
BRANCH   1   2
ATOM      2  C   UNL     1      94.914  78.408  85.064  1.00  0.00     0.100 C 
BRANCH   2   3
ATOM      3  C   UNL     1      96.151  78.280  84.190  1.00  0.00     0.220 C 
ATOM      4  O   UNL     1      97.221  77.836  84.598  1.00  0.00    -0.275 OA
ATOM      5  N   UNL     1      95.913  78.730  82.900  1.00  0.00    -0.352 N 
ATOM      6  H   UNL     1      94.995  79.093  82.657  1.00  0.00     0.163 HD
BRANCH   5   7
ATOM      7  C   UNL     1      96.926  78.726  81.870  1.00  0.00     0.151 C 
BRANCH   7   8
ATOM      8  C   UNL     1      97.160  80.098  81.307  1.00  0.00    -0.025 A 
ATOM      9  C   UNL     1      97.726  80.236  80.045  1.00  0.00     0.056 A 
ATOM     10  C   UNL     1      96.807  81.216  82.053  1.00  0.00     0.009 A 
ATOM     11  C   UNL     1      97.943  81.511  79.523  1.00  0.00     0.160 A 
ATOM     12  C   UNL     1      97.025  82.491  81.530  1.00  0.00     0.050 A 
ATOM     13  C   UNL     1      97.593  82.639  80.265  1.00  0.00     0.157 A 
BRANCH  11  14
ATOM     14  O   UNL     1      98.499  81.643  78.286  1.00  0.00    -0.493 OA
ATOM     15  C   UNL     1      97.603  81.764  77.182  1.00  0.00     0.278 C 
ENDBRANCH  11  14
BRANCH  13  16
ATOM     16  O   UNL     1      97.800  83.889  79.765  1.00  0.00    -0.504 OA
ATOM     17  H   UNL     1      97.898  84.513  80.505  1.00  0.00     0.293 HD
ENDBRANCH  13  16
ENDBRANCH   7   8
ENDBRANCH   5   7
ENDBRANCH   2   3
ENDBRANCH   1   2
BRANCH   1  18
ATOM     18  C   UNL     1      92.400  78.344  84.599  1.00  0.00     0.001 C 
BRANCH  18  19
ATOM     19  C   UNL     1      92.427  79.684  85.341  1.00  0.00     0.000 C 
BRANCH  19  20
ATOM     20  C   UNL     1      92.526  80.892  84.406  1.00  0.00     0.000 C 
BRANCH  20  21
ATOM     21  C   UNL     1      91.185  81.600  84.179  1.00  0.00     0.000 C 
BRANCH  21  22
ATOM     22  C   UNL     1      90.121  80.695  83.549  1.00  0.00     0.003 C 
BRANCH  22  23
ATOM     23  C   UNL     1      88.786  80.688  84.320  1.00  0.00    -0.017 C 
ATOM     24  C   UNL     1      87.628  80.450  83.348  1.00  0.00     0.007 C 
ATOM     25  C   UNL     1      88.550  81.985  85.094  1.00  0.00     0.007 C 
ENDBRANCH  22  23
ENDBRANCH  21  22
ENDBRANCH  20  21
ENDBRANCH  19  20
ENDBRANCH  18  19
ENDBRANCH   1  18
TORSDOF 12
ENDMDL
MODEL 6
REMARK VINA RESULT:    -5.433      7.037      8.455
REMARK INTER + INTRA:          -9.925
REMARK INTER:                  -7.994
REMARK INTRA:                  -1.931
REMARK UNBOUND:                -0.840
REMARK SMILES COc1cc(CNC(=O)CCCCCCCC(C)C)ccc1O
REMARK SMILES IDX 11 1 10 2 8 3 9 4 7 5 6 7 5 8 4 9 20 10 3 11 21 12 22 13
REMARK SMILES IDX 2 14 1 15 23 16 12 18 13 19 14 20 15 21 16 22 17 23 18 24
REMARK SMILES IDX 19 25
REMARK H PARENT 7 6 23 17
REMARK Flexibility Score: inf
ROOT
ATOM      1  C   UNL     1      76.542  88.672  66.306  1.00  0.00     0.010 C 
ENDROOT
BRANCH   1   2
ATOM      2  C   UNL     1      75.730  87.793  65.357  1.00  0.00     0.100 C 
BRANCH   2   3
ATOM      3  C   UNL     1      74.237  87.868  65.634  1.00  0.00     0.220 C 
ATOM      4  O   UNL     1      73.383  87.595  64.796  1.00  0.00    -0.275 OA
ATOM      5  N   UNL     1      73.980  88.287  66.931  1.00  0.00    -0.352 N 
ATOM      6  H   UNL     1      74.755  88.502  67.552  1.00  0.00     0.163 HD
BRANCH   5   7
ATOM      7  C   UNL     1      72.641  88.451  67.449  1.00  0.00     0.151 C 
BRANCH   7   8
ATOM      8  C   UNL     1      72.076  87.159  67.963  1.00  0.00    -0.025 A 
ATOM      9  C   UNL     1      70.751  87.105  68.379  1.00  0.00     0.056 A 
ATOM     10  C   UNL     1      72.884  86.030  68.019  1.00  0.00     0.009 A 
ATOM     11  C   UNL     1      70.226  85.904  68.857  1.00  0.00     0.160 A 
ATOM     12  C   UNL     1      72.359  84.829  68.497  1.00  0.00     0.050 A 
ATOM     13  C   UNL     1      71.030  84.766  68.916  1.00  0.00     0.157 A 
BRANCH  11  14
ATOM     14  O   UNL     1      68.927  85.856  69.264  1.00  0.00    -0.493 OA
ATOM     15  C   UNL     1      68.626  86.419  70.540  1.00  0.00     0.278 C 
ENDBRANCH  11  14
BRANCH  13  16
ATOM     16  O   UNL     1      70.529  83.588  69.380  1.00  0.00    -0.504 OA
ATOM     17  H   UNL     1      69.941  83.206  68.706  1.00  0.00     0.293 HD
ENDBRANCH  13  16
ENDBRANCH   7   8
ENDBRANCH   5   7
ENDBRANCH   2   3
ENDBRANCH   1   2
BRANCH   1  18
ATOM     18  C   UNL     1      77.351  87.876  67.334  1.00  0.00     0.001 C 
BRANCH  18  19
ATOM     19  C   UNL     1      76.838  87.941  68.777  1.00  0.00     0.000 C 
BRANCH  19  20
ATOM     20  C   UNL     1      76.202  86.632  69.252  1.00  0.00     0.000 C 
BRANCH  20  21
ATOM     21  C   UNL     1      77.032  85.391  68.909  1.00  0.00     0.000 C 
BRANCH  21  22
ATOM     22  C   UNL     1      76.229  84.306  68.183  1.00  0.00     0.003 C 
BRANCH  22  23
ATOM     23  C   UNL     1      76.322  84.397  66.647  1.00  0.00    -0.017 C 
ATOM     24  C   UNL     1      75.222  83.545  66.011  1.00  0.00     0.007 C 
ATOM     25  C   UNL     1      77.686  83.957  66.115  1.00  0.00     0.007 C 
ENDBRANCH  22  23
ENDBRANCH  21  22
ENDBRANCH  20  21
ENDBRANCH  19  20
ENDBRANCH  18  19
ENDBRANCH   1  18
TORSDOF 12
ENDMDL
MODEL 7
REMARK VINA RESULT:    -5.304     24.363     25.733
REMARK INTER + INTRA:          -9.710
REMARK INTER:                  -8.618
REMARK INTRA:                  -1.092
REMARK UNBOUND:                -0.840
REMARK SMILES COc1cc(CNC(=O)CCCCCCCC(C)C)ccc1O
REMARK SMILES IDX 11 1 10 2 8 3 9 4 7 5 6 7 5 8 4 9 20 10 3 11 21 12 22 13
REMARK SMILES IDX 2 14 1 15 23 16 12 18 13 19 14 20 15 21 16 22 17 23 18 24
REMARK SMILES IDX 19 25
REMARK H PARENT 7 6 23 17
REMARK Flexibility Score: inf
ROOT
ATOM      1  C   UNL     1      83.839  65.737  75.052  1.00  0.00     0.010 C 
ENDROOT
BRANCH   1   2
ATOM      2  C   UNL     1      85.258  66.158  74.678  1.00  0.00     0.100 C 
BRANCH   2   3
ATOM      3  C   UNL     1      85.594  67.558  75.166  1.00  0.00     0.220 C 
ATOM      4  O   UNL     1      84.757  68.330  75.625  1.00  0.00    -0.275 OA
ATOM      5  N   UNL     1      86.944  67.839  75.017  1.00  0.00    -0.352 N 
ATOM      6  H   UNL     1      87.561  67.139  74.616  1.00  0.00     0.163 HD
BRANCH   5   7
ATOM      7  C   UNL     1      87.526  69.106  75.396  1.00  0.00     0.151 C 
BRANCH   7   8
ATOM      8  C   UNL     1      88.105  69.066  76.780  1.00  0.00    -0.025 A 
ATOM      9  C   UNL     1      88.076  70.209  77.571  1.00  0.00     0.056 A 
ATOM     10  C   UNL     1      88.665  67.887  77.257  1.00  0.00     0.009 A 
ATOM     11  C   UNL     1      88.614  70.171  78.857  1.00  0.00     0.160 A 
ATOM     12  C   UNL     1      89.205  67.851  78.543  1.00  0.00     0.050 A 
ATOM     13  C   UNL     1      89.179  68.992  79.344  1.00  0.00     0.157 A 
BRANCH  11  14
ATOM     14  O   UNL     1      88.584  71.294  79.630  1.00  0.00    -0.493 OA
ATOM     15  C   UNL     1      89.582  72.281  79.376  1.00  0.00     0.278 C 
ENDBRANCH  11  14
BRANCH  13  16
ATOM     16  O   UNL     1      89.707  68.943  80.598  1.00  0.00    -0.504 OA
ATOM     17  H   UNL     1      89.154  68.367  81.152  1.00  0.00     0.293 HD
ENDBRANCH  13  16
ENDBRANCH   7   8
ENDBRANCH   5   7
ENDBRANCH   2   3
ENDBRANCH   1   2
BRANCH   1  18
ATOM     18  C   UNL     1      82.875  65.717  73.863  1.00  0.00     0.001 C 
BRANCH  18  19
ATOM     19  C   UNL     1      82.203  67.054  73.530  1.00  0.00     0.000 C 
BRANCH  19  20
ATOM     20  C   UNL     1      80.680  66.952  73.409  1.00  0.00     0.000 C 
BRANCH  20  21
ATOM     21  C   UNL     1      80.199  65.593  72.889  1.00  0.00     0.000 C 
BRANCH  21  22
ATOM     22  C   UNL     1      79.948  65.577  71.377  1.00  0.00     0.003 C 
BRANCH  22  23
ATOM     23  C   UNL     1      81.079  64.906  70.574  1.00  0.00    -0.017 C 
ATOM     24  C   UNL     1      81.802  65.954  69.724  1.00  0.00     0.007 C 
ATOM     25  C   UNL     1      80.570  63.778  69.675  1.00  0.00     0.007 C 
ENDBRANCH  22  23
ENDBRANCH  21  22
ENDBRANCH  20  21
ENDBRANCH  19  20
ENDBRANCH  18  19
ENDBRANCH   1  18
TORSDOF 12
ENDMDL
MODEL 8
REMARK VINA RESULT:    -5.289     21.034     24.030
REMARK INTER + INTRA:          -9.684
REMARK INTER:                  -9.104
REMARK INTRA:                  -0.580
REMARK UNBOUND:                -0.840
REMARK SMILES COc1cc(CNC(=O)CCCCCCCC(C)C)ccc1O
REMARK SMILES IDX 11 1 10 2 8 3 9 4 7 5 6 7 5 8 4 9 20 10 3 11 21 12 22 13
REMARK SMILES IDX 2 14 1 15 23 16 12 18 13 19 14 20 15 21 16 22 17 23 18 24
REMARK SMILES IDX 19 25
REMARK H PARENT 7 6 23 17
REMARK Flexibility Score: inf
ROOT
ATOM      1  C   UNL     1      92.146  75.734  83.054  1.00  0.00     0.010 C 
ENDROOT
BRANCH   1   2
ATOM      2  C   UNL     1      92.487  75.418  81.599  1.00  0.00     0.100 C 
BRANCH   2   3
ATOM      3  C   UNL     1      91.267  74.999  80.796  1.00  0.00     0.220 C 
ATOM      4  O   UNL     1      90.294  74.438  81.292  1.00  0.00    -0.275 OA
ATOM      5  N   UNL     1      91.404  75.322  79.454  1.00  0.00    -0.352 N 
ATOM      6  H   UNL     1      92.254  75.777  79.132  1.00  0.00     0.163 HD
BRANCH   5   7
ATOM      7  C   UNL     1      90.389  75.026  78.470  1.00  0.00     0.151 C 
BRANCH   7   8
ATOM      8  C   UNL     1      90.758  75.545  77.110  1.00  0.00    -0.025 A 
ATOM      9  C   UNL     1      92.022  75.286  76.595  1.00  0.00     0.056 A 
ATOM     10  C   UNL     1      89.831  76.280  76.381  1.00  0.00     0.009 A 
ATOM     11  C   UNL     1      92.364  75.769  75.331  1.00  0.00     0.160 A 
ATOM     12  C   UNL     1      90.174  76.763  75.118  1.00  0.00     0.050 A 
ATOM     13  C   UNL     1      91.440  76.508  74.593  1.00  0.00     0.157 A 
BRANCH  11  14
ATOM     14  O   UNL     1      93.605  75.513  74.830  1.00  0.00    -0.493 OA
ATOM     15  C   UNL     1      94.319  74.415  75.395  1.00  0.00     0.278 C 
ENDBRANCH  11  14
BRANCH  13  16
ATOM     16  O   UNL     1      91.762  76.984  73.358  1.00  0.00    -0.504 OA
ATOM     17  H   UNL     1      90.995  77.456  72.991  1.00  0.00     0.293 HD
ENDBRANCH  13  16
ENDBRANCH   7   8
ENDBRANCH   5   7
ENDBRANCH   2   3
ENDBRANCH   1   2
BRANCH   1  18
ATOM     18  C   UNL     1      91.813  77.208  83.296  1.00  0.00     0.001 C 
BRANCH  18  19
ATOM     19  C   UNL     1      92.623  77.900  84.397  1.00  0.00     0.000 C 
BRANCH  19  20
ATOM     20  C   UNL     1      91.822  78.955  85.165  1.00  0.00     0.000 C 
BRANCH  20  21
ATOM     21  C   UNL     1      91.631  80.262  84.387  1.00  0.00     0.000 C 
BRANCH  21  22
ATOM     22  C   UNL     1      90.344  80.289  83.555  1.00  0.00     0.003 C 
BRANCH  22  23
ATOM     23  C   UNL     1      89.107  80.747  84.352  1.00  0.00    -0.017 C 
ATOM     24  C   UNL     1      87.846  80.549  83.507  1.00  0.00     0.007 C 
ATOM     25  C   UNL     1      89.204  82.207  84.796  1.00  0.00     0.007 C 
ENDBRANCH  22  23
ENDBRANCH  21  22
ENDBRANCH  20  21
ENDBRANCH  19  20
ENDBRANCH  18  19
ENDBRANCH   1  18
TORSDOF 12
ENDMDL
MODEL 9
REMARK VINA RESULT:    -5.230      6.748      8.395
REMARK INTER + INTRA:          -9.586
REMARK INTER:                  -7.795
REMARK INTRA:                  -1.790
REMARK UNBOUND:                -0.840
REMARK SMILES COc1cc(CNC(=O)CCCCCCCC(C)C)ccc1O
REMARK SMILES IDX 11 1 10 2 8 3 9 4 7 5 6 7 5 8 4 9 20 10 3 11 21 12 22 13
REMARK SMILES IDX 2 14 1 15 23 16 12 18 13 19 14 20 15 21 16 22 17 23 18 24
REMARK SMILES IDX 19 25
REMARK H PARENT 7 6 23 17
REMARK Flexibility Score: inf
ROOT
ATOM      1  C   UNL     1      75.656  87.875  65.762  1.00  0.00     0.010 C 
ENDROOT
BRANCH   1   2
ATOM      2  C   UNL     1      74.643  89.008  65.614  1.00  0.00     0.100 C 
BRANCH   2   3
ATOM      3  C   UNL     1      73.772  89.171  66.848  1.00  0.00     0.220 C 
ATOM      4  O   UNL     1      74.139  89.765  67.859  1.00  0.00    -0.275 OA
ATOM      5  N   UNL     1      72.536  88.564  66.684  1.00  0.00    -0.352 N 
ATOM      6  H   UNL     1      72.325  88.084  65.813  1.00  0.00     0.163 HD
BRANCH   5   7
ATOM      7  C   UNL     1      71.520  88.564  67.711  1.00  0.00     0.151 C 
BRANCH   7   8
ATOM      8  C   UNL     1      71.220  87.178  68.203  1.00  0.00    -0.025 A 
ATOM      9  C   UNL     1      70.353  87.002  69.275  1.00  0.00     0.056 A 
ATOM     10  C   UNL     1      71.812  86.085  67.582  1.00  0.00     0.009 A 
ATOM     11  C   UNL     1      70.074  85.714  69.733  1.00  0.00     0.160 A 
ATOM     12  C   UNL     1      71.533  84.797  68.040  1.00  0.00     0.050 A 
ATOM     13  C   UNL     1      70.664  84.611  69.115  1.00  0.00     0.157 A 
BRANCH  11  14
ATOM     14  O   UNL     1      69.224  85.545  70.784  1.00  0.00    -0.493 OA
ATOM     15  C   UNL     1      68.087  86.406  70.843  1.00  0.00     0.278 C 
ENDBRANCH  11  14
BRANCH  13  16
ATOM     16  O   UNL     1      70.400  83.349  69.552  1.00  0.00    -0.504 OA
ATOM     17  H   UNL     1      69.437  83.211  69.557  1.00  0.00     0.293 HD
ENDBRANCH  13  16
ENDBRANCH   7   8
ENDBRANCH   5   7
ENDBRANCH   2   3
ENDBRANCH   1   2
BRANCH   1  18
ATOM     18  C   UNL     1      75.054  86.485  65.536  1.00  0.00     0.001 C 
BRANCH  18  19
ATOM     19  C   UNL     1      76.061  85.337  65.416  1.00  0.00     0.000 C 
BRANCH  19  20
ATOM     20  C   UNL     1      75.942  84.308  66.544  1.00  0.00     0.000 C 
BRANCH  20  21
ATOM     21  C   UNL     1      77.147  84.301  67.492  1.00  0.00     0.000 C 
BRANCH  21  22
ATOM     22  C   UNL     1      77.399  85.655  68.163  1.00  0.00     0.003 C 
BRANCH  22  23
ATOM     23  C   UNL     1      76.589  85.858  69.458  1.00  0.00    -0.017 C 
ATOM     24  C   UNL     1      76.211  84.498  70.051  1.00  0.00     0.007 C 
ATOM     25  C   UNL     1      75.326  86.691  69.235  1.00  0.00     0.007 C 
ENDBRANCH  22  23
ENDBRANCH  21  22
ENDBRANCH  20  21
ENDBRANCH  19  20
ENDBRANCH  18  19
ENDBRANCH   1  18
TORSDOF 12
ENDMDL
MODEL 10
REMARK VINA RESULT:    -5.164      1.990      2.649
REMARK INTER + INTRA:          -9.476
REMARK INTER:                  -8.668
REMARK INTRA:                  -0.808
REMARK UNBOUND:                -0.840
REMARK SMILES COc1cc(CNC(=O)CCCCCCCC(C)C)ccc1O
REMARK SMILES IDX 11 1 10 2 8 3 9 4 7 5 6 7 5 8 4 9 20 10 3 11 21 12 22 13
REMARK SMILES IDX 2 14 1 15 23 16 12 18 13 19 14 20 15 21 16 22 17 23 18 24
REMARK SMILES IDX 19 25
REMARK H PARENT 7 6 23 17
REMARK Flexibility Score: inf
ROOT
ATOM      1  C   UNL     1      74.137  90.663  69.857  1.00  0.00     0.010 C 
ENDROOT
BRANCH   1   2
ATOM      2  C   UNL     1      73.506  90.512  71.239  1.00  0.00     0.100 C 
BRANCH   2   3
ATOM      3  C   UNL     1      73.348  91.844  71.953  1.00  0.00     0.220 C 
ATOM      4  O   UNL     1      73.768  92.905  71.499  1.00  0.00    -0.275 OA
ATOM      5  N   UNL     1      72.686  91.699  73.163  1.00  0.00    -0.352 N 
ATOM      6  H   UNL     1      72.384  90.776  73.462  1.00  0.00     0.163 HD
BRANCH   5   7
ATOM      7  C   UNL     1      72.413  92.810  74.044  1.00  0.00     0.151 C 
BRANCH   7   8
ATOM      8  C   UNL     1      73.115  92.666  75.364  1.00  0.00    -0.025 A 
ATOM      9  C   UNL     1      72.508  91.954  76.391  1.00  0.00     0.056 A 
ATOM     10  C   UNL     1      74.364  93.247  75.544  1.00  0.00     0.009 A 
ATOM     11  C   UNL     1      73.160  91.820  77.617  1.00  0.00     0.160 A 
ATOM     12  C   UNL     1      75.015  93.114  76.771  1.00  0.00     0.050 A 
ATOM     13  C   UNL     1      74.414  92.401  77.807  1.00  0.00     0.157 A 
BRANCH  11  14
ATOM     14  O   UNL     1      72.561  91.121  78.622  1.00  0.00    -0.493 OA
ATOM     15  C   UNL     1      71.552  91.798  79.370  1.00  0.00     0.278 C 
ENDBRANCH  11  14
BRANCH  13  16
ATOM     16  O   UNL     1      75.061  92.277  78.999  1.00  0.00    -0.504 OA
ATOM     17  H   UNL     1      75.718  92.989  79.078  1.00  0.00     0.293 HD
ENDBRANCH  13  16
ENDBRANCH   7   8
ENDBRANCH   5   7
ENDBRANCH   2   3
ENDBRANCH   1   2
BRANCH   1  18
ATOM     18  C   UNL     1      75.481  89.943  69.717  1.00  0.00     0.001 C 
BRANCH  18  19
ATOM     19  C   UNL     1      75.475  88.690  68.834  1.00  0.00     0.000 C 
BRANCH  19  20
ATOM     20  C   UNL     1      76.646  88.638  67.850  1.00  0.00     0.000 C 
BRANCH  20  21
ATOM     21  C   UNL     1      77.288  87.251  67.740  1.00  0.00     0.000 C 
BRANCH  21  22
ATOM     22  C   UNL     1      77.225  86.448  69.043  1.00  0.00     0.003 C 
BRANCH  22  23
ATOM     23  C   UNL     1      76.756  84.993  68.847  1.00  0.00    -0.017 C 
ATOM     24  C   UNL     1      77.220  84.480  67.481  1.00  0.00     0.007 C 
ATOM     25  C   UNL     1      75.239  84.845  68.963  1.00  0.00     0.007 C 
ENDBRANCH  22  23
ENDBRANCH  21  22
ENDBRANCH  20  21
ENDBRANCH  19  20
ENDBRANCH  18  19
ENDBRANCH   1  18
TORSDOF 12
ENDMDL
