MODEL 1
REMARK VINA RESULT:    -6.178      0.000      0.000
REMARK INTER + INTRA:         -11.262
REMARK INTER:                 -10.150
REMARK INTRA:                  -1.112
REMARK UNBOUND:                -1.112
REMARK SMILES CCCCC[C@H](O)CC(=O)CCc1ccc(O)c(OC)c1
REMARK SMILES IDX 8 1 6 2 7 3 5 5 4 6 3 7 2 8 1 9 9 10 10 11 11 12 12 13 13 14
REMARK SMILES IDX 21 15 14 16 18 17 15 18 16 19 19 20 20 21 17 22
REMARK H PARENT 7 4 17 23
REMARK Flexibility Score: inf
ROOT
ATOM      1  C   UNL     1      91.145  95.493  76.581  1.00  0.00     0.107 C 
ENDROOT
BRANCH   1   2
ATOM      2  C   UNL     1      90.074  94.416  76.390  1.00  0.00     0.121 C 
BRANCH   2   3
ATOM      3  O   UNL     1      89.579  94.459  75.054  1.00  0.00    -0.393 OA
ATOM      4  H   UNL     1      89.785  95.337  74.688  1.00  0.00     0.210 HD
ENDBRANCH   2   3
BRANCH   2   5
ATOM      5  C   UNL     1      90.583  93.002  76.695  1.00  0.00     0.032 C 
BRANCH   5   6
ATOM      6  C   UNL     1      89.436  91.995  76.840  1.00  0.00     0.003 C 
BRANCH   6   7
ATOM      7  C   UNL     1      89.678  90.687  76.081  1.00  0.00    -0.000 C 
BRANCH   7   8
ATOM      8  C   UNL     1      89.199  90.722  74.631  1.00  0.00    -0.003 C 
ATOM      9  C   UNL     1      90.369  90.736  73.660  1.00  0.00     0.004 C 
ENDBRANCH   7   8
ENDBRANCH   6   7
ENDBRANCH   5   6
ENDBRANCH   2   5
ENDBRANCH   1   2
BRANCH   1  10
ATOM     10  C   UNL     1      92.366  95.281  75.700  1.00  0.00     0.135 C 
ATOM     11  O   UNL     1      92.270  95.289  74.473  1.00  0.00    -0.300 OA
BRANCH  10  12
ATOM     12  C   UNL     1      93.699  95.108  76.412  1.00  0.00     0.080 C 
BRANCH  12  13
ATOM     13  C   UNL     1      93.566  94.878  77.919  1.00  0.00     0.043 C 
BRANCH  13  14
ATOM     14  C   UNL     1      94.595  95.634  78.726  1.00  0.00    -0.044 A 
ATOM     15  C   UNL     1      94.754  97.007  78.544  1.00  0.00     0.054 A 
ATOM     16  C   UNL     1      95.388  94.956  79.653  1.00  0.00     0.008 A 
ATOM     17  C   UNL     1      95.705  97.704  79.290  1.00  0.00     0.160 A 
ATOM     18  C   UNL     1      96.338  95.653  80.400  1.00  0.00     0.050 A 
ATOM     19  C   UNL     1      96.497  97.027  80.218  1.00  0.00     0.157 A 
BRANCH  17  20
ATOM     20  O   UNL     1      95.851  99.045  79.103  1.00  0.00    -0.493 OA
ATOM     21  C   UNL     1      96.636  99.463  77.988  1.00  0.00     0.278 C 
ENDBRANCH  17  20
BRANCH  19  22
ATOM     22  O   UNL     1      97.428  97.696  80.952  1.00  0.00    -0.504 OA
ATOM     23  H   UNL     1      98.287  97.644  80.498  1.00  0.00     0.293 HD
ENDBRANCH  19  22
ENDBRANCH  13  14
ENDBRANCH  12  13
ENDBRANCH  10  12
ENDBRANCH   1  10
TORSDOF 12
ENDMDL
MODEL 2
REMARK VINA RESULT:    -5.892     12.901     14.732
REMARK INTER + INTRA:         -10.793
REMARK INTER:                 -10.002
REMARK INTRA:                  -0.791
REMARK UNBOUND:                -1.112
REMARK SMILES CCCCC[C@H](O)CC(=O)CCc1ccc(O)c(OC)c1
REMARK SMILES IDX 8 1 6 2 7 3 5 5 4 6 3 7 2 8 1 9 9 10 10 11 11 12 12 13 13 14
REMARK SMILES IDX 21 15 14 16 18 17 15 18 16 19 19 20 20 21 17 22
REMARK H PARENT 7 4 17 23
REMARK Flexibility Score: inf
ROOT
ATOM      1  C   UNL     1      94.128  82.111  83.996  1.00  0.00     0.107 C 
ENDROOT
BRANCH   1   2
ATOM      2  C   UNL     1      92.851  82.058  84.840  1.00  0.00     0.121 C 
BRANCH   2   3
ATOM      3  O   UNL     1      92.137  83.285  84.713  1.00  0.00    -0.393 OA
ATOM      4  H   UNL     1      92.759  84.011  84.890  1.00  0.00     0.210 HD
ENDBRANCH   2   3
BRANCH   2   5
ATOM      5  C   UNL     1      91.928  80.894  84.459  1.00  0.00     0.032 C 
BRANCH   5   6
ATOM      6  C   UNL     1      90.458  81.323  84.390  1.00  0.00     0.003 C 
BRANCH   6   7
ATOM      7  C   UNL     1      89.511  80.185  83.994  1.00  0.00    -0.000 C 
BRANCH   7   8
ATOM      8  C   UNL     1      88.035  80.511  84.216  1.00  0.00    -0.003 C 
ATOM      9  C   UNL     1      87.276  80.570  82.899  1.00  0.00     0.004 C 
ENDBRANCH   7   8
ENDBRANCH   6   7
ENDBRANCH   5   6
ENDBRANCH   2   5
ENDBRANCH   1   2
BRANCH   1  10
ATOM     10  C   UNL     1      95.248  82.895  84.660  1.00  0.00     0.135 C 
ATOM     11  O   UNL     1      95.134  83.308  85.814  1.00  0.00    -0.300 OA
BRANCH  10  12
ATOM     12  C   UNL     1      96.515  83.098  83.843  1.00  0.00     0.080 C 
BRANCH  12  13
ATOM     13  C   UNL     1      96.274  83.766  82.489  1.00  0.00     0.043 C 
BRANCH  13  14
ATOM     14  C   UNL     1      96.781  82.947  81.326  1.00  0.00    -0.044 A 
ATOM     15  C   UNL     1      97.030  83.559  80.097  1.00  0.00     0.054 A 
ATOM     16  C   UNL     1      97.001  81.578  81.481  1.00  0.00     0.008 A 
ATOM     17  C   UNL     1      97.500  82.802  79.024  1.00  0.00     0.160 A 
ATOM     18  C   UNL     1      97.471  80.821  80.407  1.00  0.00     0.050 A 
ATOM     19  C   UNL     1      97.720  81.433  79.179  1.00  0.00     0.157 A 
BRANCH  17  20
ATOM     20  O   UNL     1      97.740  83.411  77.829  1.00  0.00    -0.493 OA
ATOM     21  C   UNL     1      96.613  83.946  77.137  1.00  0.00     0.278 C 
ENDBRANCH  17  20
BRANCH  19  22
ATOM     22  O   UNL     1      98.178  80.683  78.138  1.00  0.00    -0.504 OA
ATOM     23  H   UNL     1      99.143  80.787  78.074  1.00  0.00     0.293 HD
ENDBRANCH  19  22
ENDBRANCH  13  14
ENDBRANCH  12  13
ENDBRANCH  10  12
ENDBRANCH   1  10
TORSDOF 12
ENDMDL
MODEL 3
REMARK VINA RESULT:    -5.750     12.750     14.538
REMARK INTER + INTRA:         -10.560
REMARK INTER:                  -9.669
REMARK INTRA:                  -0.891
REMARK UNBOUND:                -1.112
REMARK SMILES CCCCC[C@H](O)CC(=O)CCc1ccc(O)c(OC)c1
REMARK SMILES IDX 8 1 6 2 7 3 5 5 4 6 3 7 2 8 1 9 9 10 10 11 11 12 12 13 13 14
REMARK SMILES IDX 21 15 14 16 18 17 15 18 16 19 19 20 20 21 17 22
REMARK H PARENT 7 4 17 23
REMARK Flexibility Score: inf
ROOT
ATOM      1  C   UNL     1      90.505  80.738  83.301  1.00  0.00     0.107 C 
ENDROOT
BRANCH   1   2
ATOM      2  C   UNL     1      89.473  79.775  83.895  1.00  0.00     0.121 C 
BRANCH   2   3
ATOM      3  O   UNL     1      90.026  79.117  85.033  1.00  0.00    -0.393 OA
ATOM      4  H   UNL     1      90.995  79.187  84.976  1.00  0.00     0.210 HD
ENDBRANCH   2   3
BRANCH   2   5
ATOM      5  C   UNL     1      88.167  80.469  84.298  1.00  0.00     0.032 C 
BRANCH   5   6
ATOM      6  C   UNL     1      87.292  80.802  83.083  1.00  0.00     0.003 C 
BRANCH   6   7
ATOM      7  C   UNL     1      86.681  82.206  83.141  1.00  0.00    -0.000 C 
BRANCH   7   8
ATOM      8  C   UNL     1      86.461  82.719  84.563  1.00  0.00    -0.003 C 
ATOM      9  C   UNL     1      87.291  83.963  84.839  1.00  0.00     0.004 C 
ENDBRANCH   7   8
ENDBRANCH   6   7
ENDBRANCH   5   6
ENDBRANCH   2   5
ENDBRANCH   1   2
BRANCH   1  10
ATOM     10  C   UNL     1      91.388  81.388  84.353  1.00  0.00     0.135 C 
ATOM     11  O   UNL     1      90.906  82.113  85.223  1.00  0.00    -0.300 OA
BRANCH  10  12
ATOM     12  C   UNL     1      92.872  81.059  84.296  1.00  0.00     0.080 C 
BRANCH  12  13
ATOM     13  C   UNL     1      93.695  81.741  85.391  1.00  0.00     0.043 C 
BRANCH  13  14
ATOM     14  C   UNL     1      94.399  82.988  84.911  1.00  0.00    -0.044 A 
ATOM     15  C   UNL     1      94.171  84.208  85.549  1.00  0.00     0.054 A 
ATOM     16  C   UNL     1      95.278  82.920  83.830  1.00  0.00     0.008 A 
ATOM     17  C   UNL     1      94.823  85.358  85.106  1.00  0.00     0.160 A 
ATOM     18  C   UNL     1      95.930  84.071  83.387  1.00  0.00     0.050 A 
ATOM     19  C   UNL     1      95.702  85.290  84.025  1.00  0.00     0.157 A 
BRANCH  17  20
ATOM     20  O   UNL     1      94.592  86.544  85.736  1.00  0.00    -0.493 OA
ATOM     21  C   UNL     1      93.747  86.513  86.885  1.00  0.00     0.278 C 
ENDBRANCH  17  20
BRANCH  19  22
ATOM     22  O   UNL     1      96.345  86.407  83.583  1.00  0.00    -0.504 OA
ATOM     23  H   UNL     1      96.856  86.184  82.786  1.00  0.00     0.293 HD
ENDBRANCH  19  22
ENDBRANCH  13  14
ENDBRANCH  12  13
ENDBRANCH  10  12
ENDBRANCH   1  10
TORSDOF 12
ENDMDL
MODEL 4
REMARK VINA RESULT:    -5.706     12.273     13.838
REMARK INTER + INTRA:         -10.487
REMARK INTER:                  -9.545
REMARK INTRA:                  -0.942
REMARK UNBOUND:                -1.112
REMARK SMILES CCCCC[C@H](O)CC(=O)CCc1ccc(O)c(OC)c1
REMARK SMILES IDX 8 1 6 2 7 3 5 5 4 6 3 7 2 8 1 9 9 10 10 11 11 12 12 13 13 14
REMARK SMILES IDX 21 15 14 16 18 17 15 18 16 19 19 20 20 21 17 22
REMARK H PARENT 7 4 17 23
REMARK Flexibility Score: inf
ROOT
ATOM      1  C   UNL     1      97.407  81.658  79.948  1.00  0.00     0.107 C 
ENDROOT
BRANCH   1   2
ATOM      2  C   UNL     1      97.045  82.979  79.265  1.00  0.00     0.121 C 
BRANCH   2   3
ATOM      3  O   UNL     1      98.027  83.966  79.571  1.00  0.00    -0.393 OA
ATOM      4  H   UNL     1      98.109  84.554  78.800  1.00  0.00     0.210 HD
ENDBRANCH   2   3
BRANCH   2   5
ATOM      5  C   UNL     1      96.915  82.852  77.742  1.00  0.00     0.032 C 
BRANCH   5   6
ATOM      6  C   UNL     1      97.722  83.926  77.003  1.00  0.00     0.003 C 
BRANCH   6   7
ATOM      7  C   UNL     1      96.984  84.517  75.797  1.00  0.00    -0.000 C 
BRANCH   7   8
ATOM      8  C   UNL     1      97.327  83.833  74.475  1.00  0.00    -0.003 C 
ATOM      9  C   UNL     1      98.290  84.672  73.650  1.00  0.00     0.004 C 
ENDBRANCH   7   8
ENDBRANCH   6   7
ENDBRANCH   5   6
ENDBRANCH   2   5
ENDBRANCH   1   2
BRANCH   1  10
ATOM     10  C   UNL     1      98.413  81.826  81.075  1.00  0.00     0.135 C 
ATOM     11  O   UNL     1      99.584  82.123  80.840  1.00  0.00    -0.300 OA
BRANCH  10  12
ATOM     12  C   UNL     1      97.884  81.654  82.491  1.00  0.00     0.080 C 
BRANCH  12  13
ATOM     13  C   UNL     1      96.367  81.812  82.605  1.00  0.00     0.043 C 
BRANCH  13  14
ATOM     14  C   UNL     1      95.956  83.031  83.396  1.00  0.00    -0.044 A 
ATOM     15  C   UNL     1      95.277  82.882  84.605  1.00  0.00     0.054 A 
ATOM     16  C   UNL     1      96.257  84.306  82.917  1.00  0.00     0.008 A 
ATOM     17  C   UNL     1      94.899  84.009  85.335  1.00  0.00     0.160 A 
ATOM     18  C   UNL     1      95.879  85.433  83.647  1.00  0.00     0.050 A 
ATOM     19  C   UNL     1      95.199  85.284  84.856  1.00  0.00     0.157 A 
BRANCH  17  20
ATOM     20  O   UNL     1      94.235  83.851  86.514  1.00  0.00    -0.493 OA
ATOM     21  C   UNL     1      93.503  82.640  86.689  1.00  0.00     0.278 C 
ENDBRANCH  17  20
BRANCH  19  22
ATOM     22  O   UNL     1      94.835  86.392  85.560  1.00  0.00    -0.504 OA
ATOM     23  H   UNL     1      94.739  87.140  84.946  1.00  0.00     0.293 HD
ENDBRANCH  19  22
ENDBRANCH  13  14
ENDBRANCH  12  13
ENDBRANCH  10  12
ENDBRANCH   1  10
TORSDOF 12
ENDMDL
MODEL 5
REMARK VINA RESULT:    -5.480     13.472     15.181
REMARK INTER + INTRA:         -10.116
REMARK INTER:                  -8.899
REMARK INTRA:                  -1.216
REMARK UNBOUND:                -1.112
REMARK SMILES CCCCC[C@H](O)CC(=O)CCc1ccc(O)c(OC)c1
REMARK SMILES IDX 8 1 6 2 7 3 5 5 4 6 3 7 2 8 1 9 9 10 10 11 11 12 12 13 13 14
REMARK SMILES IDX 21 15 14 16 18 17 15 18 16 19 19 20 20 21 17 22
REMARK H PARENT 7 4 17 23
REMARK Flexibility Score: inf
ROOT
ATOM      1  C   UNL     1      90.457  80.749  83.374  1.00  0.00     0.107 C 
ENDROOT
BRANCH   1   2
ATOM      2  C   UNL     1      89.916  79.432  83.938  1.00  0.00     0.121 C 
BRANCH   2   3
ATOM      3  O   UNL     1      90.645  79.074  85.110  1.00  0.00    -0.393 OA
ATOM      4  H   UNL     1      90.874  78.131  85.041  1.00  0.00     0.210 HD
ENDBRANCH   2   3
BRANCH   2   5
ATOM      5  C   UNL     1      88.421  79.492  84.272  1.00  0.00     0.032 C 
BRANCH   5   6
ATOM      6  C   UNL     1      87.689  80.560  83.450  1.00  0.00     0.003 C 
BRANCH   6   7
ATOM      7  C   UNL     1      86.999  81.622  84.313  1.00  0.00    -0.000 C 
BRANCH   7   8
ATOM      8  C   UNL     1      87.302  83.054  83.879  1.00  0.00    -0.003 C 
ATOM      9  C   UNL     1      87.313  84.003  85.068  1.00  0.00     0.004 C 
ENDBRANCH   7   8
ENDBRANCH   6   7
ENDBRANCH   5   6
ENDBRANCH   2   5
ENDBRANCH   1   2
BRANCH   1  10
ATOM     10  C   UNL     1      91.046  81.657  84.440  1.00  0.00     0.135 C 
ATOM     11  O   UNL     1      90.358  82.065  85.375  1.00  0.00    -0.300 OA
BRANCH  10  12
ATOM     12  C   UNL     1      92.525  81.989  84.312  1.00  0.00     0.080 C 
BRANCH  12  13
ATOM     13  C   UNL     1      93.352  81.599  85.538  1.00  0.00     0.043 C 
BRANCH  13  14
ATOM     14  C   UNL     1      93.529  82.734  86.518  1.00  0.00    -0.044 A 
ATOM     15  C   UNL     1      93.642  84.045  86.054  1.00  0.00     0.054 A 
ATOM     16  C   UNL     1      93.580  82.472  87.887  1.00  0.00     0.008 A 
ATOM     17  C   UNL     1      93.805  85.093  86.960  1.00  0.00     0.160 A 
ATOM     18  C   UNL     1      93.743  83.520  88.793  1.00  0.00     0.050 A 
ATOM     19  C   UNL     1      93.856  84.831  88.329  1.00  0.00     0.157 A 
BRANCH  17  20
ATOM     20  O   UNL     1      93.915  86.369  86.495  1.00  0.00    -0.493 OA
ATOM     21  C   UNL     1      94.062  86.535  85.086  1.00  0.00     0.278 C 
ENDBRANCH  17  20
BRANCH  19  22
ATOM     22  O   UNL     1      94.015  85.846  89.223  1.00  0.00    -0.504 OA
ATOM     23  H   UNL     1      94.581  86.531  88.828  1.00  0.00     0.293 HD
ENDBRANCH  19  22
ENDBRANCH  13  14
ENDBRANCH  12  13
ENDBRANCH  10  12
ENDBRANCH   1  10
TORSDOF 12
ENDMDL
MODEL 6
REMARK VINA RESULT:    -5.422     13.329     15.143
REMARK INTER + INTRA:         -10.020
REMARK INTER:                  -9.184
REMARK INTRA:                  -0.837
REMARK UNBOUND:                -1.112
REMARK SMILES CCCCC[C@H](O)CC(=O)CCc1ccc(O)c(OC)c1
REMARK SMILES IDX 8 1 6 2 7 3 5 5 4 6 3 7 2 8 1 9 9 10 10 11 11 12 12 13 13 14
REMARK SMILES IDX 21 15 14 16 18 17 15 18 16 19 19 20 20 21 17 22
REMARK H PARENT 7 4 17 23
REMARK Flexibility Score: inf
ROOT
ATOM      1  C   UNL     1      93.727  81.800  84.049  1.00  0.00     0.107 C 
ENDROOT
BRANCH   1   2
ATOM      2  C   UNL     1      92.360  82.090  84.672  1.00  0.00     0.121 C 
BRANCH   2   3
ATOM      3  O   UNL     1      92.181  83.498  84.812  1.00  0.00    -0.393 OA
ATOM      4  H   UNL     1      91.236  83.692  84.681  1.00  0.00     0.210 HD
ENDBRANCH   2   3
BRANCH   2   5
ATOM      5  C   UNL     1      91.195  81.512  83.859  1.00  0.00     0.032 C 
BRANCH   5   6
ATOM      6  C   UNL     1      90.043  81.042  84.757  1.00  0.00     0.003 C 
BRANCH   6   7
ATOM      7  C   UNL     1      88.704  81.707  84.423  1.00  0.00    -0.000 C 
BRANCH   7   8
ATOM      8  C   UNL     1      87.674  80.746  83.832  1.00  0.00    -0.003 C 
ATOM      9  C   UNL     1      87.994  79.302  84.188  1.00  0.00     0.004 C 
ENDBRANCH   7   8
ENDBRANCH   6   7
ENDBRANCH   5   6
ENDBRANCH   2   5
ENDBRANCH   1   2
BRANCH   1  10
ATOM     10  C   UNL     1      94.793  82.804  84.458  1.00  0.00     0.135 C 
ATOM     11  O   UNL     1      95.039  83.017  85.645  1.00  0.00    -0.300 OA
BRANCH  10  12
ATOM     12  C   UNL     1      95.558  83.483  83.332  1.00  0.00     0.080 C 
BRANCH  12  13
ATOM     13  C   UNL     1      96.885  82.802  82.993  1.00  0.00     0.043 C 
BRANCH  13  14
ATOM     14  C   UNL     1      97.067  82.564  81.512  1.00  0.00    -0.044 A 
ATOM     15  C   UNL     1      97.493  81.318  81.053  1.00  0.00     0.054 A 
ATOM     16  C   UNL     1      96.808  83.592  80.605  1.00  0.00     0.008 A 
ATOM     17  C   UNL     1      97.660  81.100  79.685  1.00  0.00     0.160 A 
ATOM     18  C   UNL     1      96.974  83.373  79.237  1.00  0.00     0.050 A 
ATOM     19  C   UNL     1      97.400  82.127  78.777  1.00  0.00     0.157 A 
BRANCH  17  20
ATOM     20  O   UNL     1      98.077  79.879  79.248  1.00  0.00    -0.493 OA
ATOM     21  C   UNL     1      99.418  79.503  79.558  1.00  0.00     0.278 C 
ENDBRANCH  17  20
BRANCH  19  22
ATOM     22  O   UNL     1      97.559  81.925  77.440  1.00  0.00    -0.504 OA
ATOM     23  H   UNL     1      97.850  82.756  77.026  1.00  0.00     0.293 HD
ENDBRANCH  19  22
ENDBRANCH  13  14
ENDBRANCH  12  13
ENDBRANCH  10  12
ENDBRANCH   1  10
TORSDOF 12
ENDMDL
MODEL 7
REMARK VINA RESULT:    -5.416     13.421     15.844
REMARK INTER + INTRA:         -10.011
REMARK INTER:                  -9.252
REMARK INTRA:                  -0.759
REMARK UNBOUND:                -1.112
REMARK SMILES CCCCC[C@H](O)CC(=O)CCc1ccc(O)c(OC)c1
REMARK SMILES IDX 8 1 6 2 7 3 5 5 4 6 3 7 2 8 1 9 9 10 10 11 11 12 12 13 13 14
REMARK SMILES IDX 21 15 14 16 18 17 15 18 16 19 19 20 20 21 17 22
REMARK H PARENT 7 4 17 23
REMARK Flexibility Score: inf
ROOT
ATOM      1  C   UNL     1      97.719  81.564  80.628  1.00  0.00     0.107 C 
ENDROOT
BRANCH   1   2
ATOM      2  C   UNL     1      97.380  82.620  79.573  1.00  0.00     0.121 C 
BRANCH   2   3
ATOM      3  O   UNL     1      98.034  83.847  79.890  1.00  0.00    -0.393 OA
ATOM      4  H   UNL     1      97.748  84.513  79.239  1.00  0.00     0.210 HD
ENDBRANCH   2   3
BRANCH   2   5
ATOM      5  C   UNL     1      97.768  82.194  78.152  1.00  0.00     0.032 C 
BRANCH   5   6
ATOM      6  C   UNL     1      98.043  83.398  77.244  1.00  0.00     0.003 C 
BRANCH   6   7
ATOM      7  C   UNL     1      97.949  83.066  75.751  1.00  0.00    -0.000 C 
BRANCH   7   8
ATOM      8  C   UNL     1      97.311  84.175  74.916  1.00  0.00    -0.003 C 
ATOM      9  C   UNL     1      96.516  85.136  75.786  1.00  0.00     0.004 C 
ENDBRANCH   7   8
ENDBRANCH   6   7
ENDBRANCH   5   6
ENDBRANCH   2   5
ENDBRANCH   1   2
BRANCH   1  10
ATOM     10  C   UNL     1      97.041  81.819  81.965  1.00  0.00     0.135 C 
ATOM     11  O   UNL     1      97.075  82.932  82.490  1.00  0.00    -0.300 OA
BRANCH  10  12
ATOM     12  C   UNL     1      96.291  80.649  82.583  1.00  0.00     0.080 C 
BRANCH  12  13
ATOM     13  C   UNL     1      95.950  80.848  84.060  1.00  0.00     0.043 C 
BRANCH  13  14
ATOM     14  C   UNL     1      94.464  80.896  84.323  1.00  0.00    -0.044 A 
ATOM     15  C   UNL     1      93.771  79.724  84.628  1.00  0.00     0.054 A 
ATOM     16  C   UNL     1      93.783  82.112  84.261  1.00  0.00     0.008 A 
ATOM     17  C   UNL     1      92.398  79.769  84.872  1.00  0.00     0.160 A 
ATOM     18  C   UNL     1      92.410  82.157  84.505  1.00  0.00     0.050 A 
ATOM     19  C   UNL     1      91.718  80.985  84.810  1.00  0.00     0.157 A 
BRANCH  17  20
ATOM     20  O   UNL     1      91.733  78.618  85.168  1.00  0.00    -0.493 OA
ATOM     21  C   UNL     1      91.418  77.752  84.079  1.00  0.00     0.278 C 
ENDBRANCH  17  20
BRANCH  19  22
ATOM     22  O   UNL     1      90.378  81.042  85.046  1.00  0.00    -0.504 OA
ATOM     23  H   UNL     1      90.072  80.169  85.347  1.00  0.00     0.293 HD
ENDBRANCH  19  22
ENDBRANCH  13  14
ENDBRANCH  12  13
ENDBRANCH  10  12
ENDBRANCH   1  10
TORSDOF 12
ENDMDL
MODEL 8
REMARK VINA RESULT:    -5.273     13.996     15.894
REMARK INTER + INTRA:          -9.776
REMARK INTER:                  -7.931
REMARK INTRA:                  -1.844
REMARK UNBOUND:                -1.112
REMARK SMILES CCCCC[C@H](O)CC(=O)CCc1ccc(O)c(OC)c1
REMARK SMILES IDX 8 1 6 2 7 3 5 5 4 6 3 7 2 8 1 9 9 10 10 11 11 12 12 13 13 14
REMARK SMILES IDX 21 15 14 16 18 17 15 18 16 19 19 20 20 21 17 22
REMARK H PARENT 7 4 17 23
REMARK Flexibility Score: inf
ROOT
ATOM      1  C   UNL     1      93.105  79.608  84.748  1.00  0.00     0.107 C 
ENDROOT
BRANCH   1   2
ATOM      2  C   UNL     1      92.076  80.740  84.801  1.00  0.00     0.121 C 
BRANCH   2   3
ATOM      3  O   UNL     1      91.565  80.866  86.126  1.00  0.00    -0.393 OA
ATOM      4  H   UNL     1      91.586  79.985  86.538  1.00  0.00     0.210 HD
ENDBRANCH   2   3
BRANCH   2   5
ATOM      5  C   UNL     1      92.645  82.090  84.348  1.00  0.00     0.032 C 
BRANCH   5   6
ATOM      6  C   UNL     1      92.567  83.149  85.454  1.00  0.00     0.003 C 
BRANCH   6   7
ATOM      7  C   UNL     1      93.932  83.504  86.052  1.00  0.00    -0.000 C 
BRANCH   7   8
ATOM      8  C   UNL     1      94.636  84.652  85.331  1.00  0.00    -0.003 C 
ATOM      9  C   UNL     1      93.855  85.950  85.460  1.00  0.00     0.004 C 
ENDBRANCH   7   8
ENDBRANCH   6   7
ENDBRANCH   5   6
ENDBRANCH   2   5
ENDBRANCH   1   2
BRANCH   1  10
ATOM     10  C   UNL     1      94.264  79.811  85.710  1.00  0.00     0.135 C 
ATOM     11  O   UNL     1      94.135  79.585  86.913  1.00  0.00    -0.300 OA
BRANCH  10  12
ATOM     12  C   UNL     1      95.585  80.259  85.102  1.00  0.00     0.080 C 
BRANCH  12  13
ATOM     13  C   UNL     1      95.806  79.757  83.674  1.00  0.00     0.043 C 
BRANCH  13  14
ATOM     14  C   UNL     1      96.284  80.838  82.734  1.00  0.00    -0.044 A 
ATOM     15  C   UNL     1      96.867  80.495  81.515  1.00  0.00     0.054 A 
ATOM     16  C   UNL     1      96.142  82.181  83.086  1.00  0.00     0.008 A 
ATOM     17  C   UNL     1      97.308  81.494  80.647  1.00  0.00     0.160 A 
ATOM     18  C   UNL     1      96.583  83.180  82.219  1.00  0.00     0.050 A 
ATOM     19  C   UNL     1      97.166  82.837  80.999  1.00  0.00     0.157 A 
BRANCH  17  20
ATOM     20  O   UNL     1      97.876  81.146  79.459  1.00  0.00    -0.493 OA
ATOM     21  C   UNL     1      98.888  80.141  79.493  1.00  0.00     0.278 C 
ENDBRANCH  17  20
BRANCH  19  22
ATOM     22  O   UNL     1      97.592  83.821  80.160  1.00  0.00    -0.504 OA
ATOM     23  H   UNL     1      98.552  83.937  80.269  1.00  0.00     0.293 HD
ENDBRANCH  19  22
ENDBRANCH  13  14
ENDBRANCH  12  13
ENDBRANCH  10  12
ENDBRANCH   1  10
TORSDOF 12
ENDMDL
MODEL 9
REMARK VINA RESULT:    -5.255     20.254     22.862
REMARK INTER + INTRA:          -9.747
REMARK INTER:                  -8.749
REMARK INTRA:                  -0.998
REMARK UNBOUND:                -1.112
REMARK SMILES CCCCC[C@H](O)CC(=O)CCc1ccc(O)c(OC)c1
REMARK SMILES IDX 8 1 6 2 7 3 5 5 4 6 3 7 2 8 1 9 9 10 10 11 11 12 12 13 13 14
REMARK SMILES IDX 21 15 14 16 18 17 15 18 16 19 19 20 20 21 17 22
REMARK H PARENT 7 4 17 23
REMARK Flexibility Score: inf
ROOT
ATOM      1  C   UNL     1      76.345  84.925  66.647  1.00  0.00     0.107 C 
ENDROOT
BRANCH   1   2
ATOM      2  C   UNL     1      77.190  84.132  65.647  1.00  0.00     0.121 C 
BRANCH   2   3
ATOM      3  O   UNL     1      78.318  83.564  66.310  1.00  0.00    -0.393 OA
ATOM      4  H   UNL     1      78.721  82.915  65.707  1.00  0.00     0.210 HD
ENDBRANCH   2   3
BRANCH   2   5
ATOM      5  C   UNL     1      76.403  83.019  64.946  1.00  0.00     0.032 C 
BRANCH   5   6
ATOM      6  C   UNL     1      75.663  83.530  63.704  1.00  0.00     0.003 C 
BRANCH   6   7
ATOM      7  C   UNL     1      74.155  83.264  63.744  1.00  0.00    -0.000 C 
BRANCH   7   8
ATOM      8  C   UNL     1      73.675  82.659  65.061  1.00  0.00    -0.003 C 
ATOM      9  C   UNL     1      72.304  82.017  64.910  1.00  0.00     0.004 C 
ENDBRANCH   7   8
ENDBRANCH   6   7
ENDBRANCH   5   6
ENDBRANCH   2   5
ENDBRANCH   1   2
BRANCH   1  10
ATOM     10  C   UNL     1      77.129  86.018  67.355  1.00  0.00     0.135 C 
ATOM     11  O   UNL     1      77.990  85.741  68.190  1.00  0.00    -0.300 OA
BRANCH  10  12
ATOM     12  C   UNL     1      76.826  87.451  66.943  1.00  0.00     0.080 C 
BRANCH  12  13
ATOM     13  C   UNL     1      76.999  88.466  68.074  1.00  0.00     0.043 C 
BRANCH  13  14
ATOM     14  C   UNL     1      75.696  88.841  68.738  1.00  0.00    -0.044 A 
ATOM     15  C   UNL     1      74.546  88.090  68.493  1.00  0.00     0.054 A 
ATOM     16  C   UNL     1      75.642  89.940  69.596  1.00  0.00     0.008 A 
ATOM     17  C   UNL     1      73.343  88.437  69.108  1.00  0.00     0.160 A 
ATOM     18  C   UNL     1      74.438  90.288  70.210  1.00  0.00     0.050 A 
ATOM     19  C   UNL     1      73.289  89.536  69.966  1.00  0.00     0.157 A 
BRANCH  17  20
ATOM     20  O   UNL     1      72.227  87.696  68.861  1.00  0.00    -0.493 OA
ATOM     21  C   UNL     1      72.162  87.019  67.607  1.00  0.00     0.278 C 
ENDBRANCH  17  20
BRANCH  19  22
ATOM     22  O   UNL     1      72.120  89.885  70.571  1.00  0.00    -0.504 OA
ATOM     23  H   UNL     1      71.955  90.831  70.420  1.00  0.00     0.293 HD
ENDBRANCH  19  22
ENDBRANCH  13  14
ENDBRANCH  12  13
ENDBRANCH  10  12
ENDBRANCH   1  10
TORSDOF 12
ENDMDL
MODEL 10
REMARK VINA RESULT:    -5.165     13.555     15.430
REMARK INTER + INTRA:          -9.599
REMARK INTER:                  -8.457
REMARK INTRA:                  -1.142
REMARK UNBOUND:                -1.112
REMARK SMILES CCCCC[C@H](O)CC(=O)CCc1ccc(O)c(OC)c1
REMARK SMILES IDX 8 1 6 2 7 3 5 5 4 6 3 7 2 8 1 9 9 10 10 11 11 12 12 13 13 14
REMARK SMILES IDX 21 15 14 16 18 17 15 18 16 19 19 20 20 21 17 22
REMARK H PARENT 7 4 17 23
REMARK Flexibility Score: inf
ROOT
ATOM      1  C   UNL     1      94.652  83.093  85.987  1.00  0.00     0.107 C 
ENDROOT
BRANCH   1   2
ATOM      2  C   UNL     1      93.153  82.949  85.715  1.00  0.00     0.121 C 
BRANCH   2   3
ATOM      3  O   UNL     1      92.519  84.222  85.815  1.00  0.00    -0.393 OA
ATOM      4  H   UNL     1      92.205  84.327  86.730  1.00  0.00     0.210 HD
ENDBRANCH   2   3
BRANCH   2   5
ATOM      5  C   UNL     1      92.849  82.340  84.341  1.00  0.00     0.032 C 
BRANCH   5   6
ATOM      6  C   UNL     1      92.042  81.041  84.452  1.00  0.00     0.003 C 
BRANCH   6   7
ATOM      7  C   UNL     1      92.859  79.864  84.994  1.00  0.00    -0.000 C 
BRANCH   7   8
ATOM      8  C   UNL     1      92.232  78.500  84.709  1.00  0.00    -0.003 C 
ATOM      9  C   UNL     1      90.770  78.635  84.312  1.00  0.00     0.004 C 
ENDBRANCH   7   8
ENDBRANCH   6   7
ENDBRANCH   5   6
ENDBRANCH   2   5
ENDBRANCH   1   2
BRANCH   1  10
ATOM     10  C   UNL     1      95.274  84.287  85.280  1.00  0.00     0.135 C 
ATOM     11  O   UNL     1      95.019  85.437  85.637  1.00  0.00    -0.300 OA
BRANCH  10  12
ATOM     12  C   UNL     1      96.250  83.980  84.154  1.00  0.00     0.080 C 
BRANCH  12  13
ATOM     13  C   UNL     1      96.255  82.511  83.729  1.00  0.00     0.043 C 
BRANCH  13  14
ATOM     14  C   UNL     1      96.659  82.313  82.287  1.00  0.00    -0.044 A 
ATOM     15  C   UNL     1      96.975  81.038  81.819  1.00  0.00     0.054 A 
ATOM     16  C   UNL     1      96.716  83.408  81.423  1.00  0.00     0.008 A 
ATOM     17  C   UNL     1      97.347  80.857  80.487  1.00  0.00     0.160 A 
ATOM     18  C   UNL     1      97.088  83.227  80.091  1.00  0.00     0.050 A 
ATOM     19  C   UNL     1      97.404  81.951  79.623  1.00  0.00     0.157 A 
BRANCH  17  20
ATOM     20  O   UNL     1      97.654  79.607  80.041  1.00  0.00    -0.493 OA
ATOM     21  C   UNL     1      97.496  78.532  80.966  1.00  0.00     0.278 C 
ENDBRANCH  17  20
BRANCH  19  22
ATOM     22  O   UNL     1      97.766  81.787  78.320  1.00  0.00    -0.504 OA
ATOM     23  H   UNL     1      98.673  81.437  78.285  1.00  0.00     0.293 HD
ENDBRANCH  19  22
ENDBRANCH  13  14
ENDBRANCH  12  13
ENDBRANCH  10  12
ENDBRANCH   1  10
TORSDOF 12
ENDMDL
