MODEL 1
REMARK VINA RESULT:    -7.066      0.000      0.000
REMARK INTER + INTRA:          -8.648
REMARK INTER:                  -8.305
REMARK INTRA:                  -0.343
REMARK UNBOUND:                -0.343
REMARK SMILES O=C(/C=C/C=C/c1ccc2c(c1)OCO2)N1CCCCC1
REMARK SMILES IDX 3 1 4 2 2 3 1 4 16 5 17 6 21 7 18 8 20 9 19 10 5 11 6 12
REMARK SMILES IDX 7 13 12 14 8 15 11 16 9 17 13 18 10 19 14 20 15 21
REMARK H PARENT
REMARK Flexibility Score: inf
ROOT
ATOM      1  C   UNL     1      97.484  84.119  84.993  1.00  0.00     0.071 C 
ATOM      2  C   UNL     1      97.779  83.173  84.105  1.00  0.00     0.006 C 
ENDROOT
BRANCH   1   3
ATOM      3  C   UNL     1      97.608  83.789  86.427  1.00  0.00     0.246 C 
ATOM      4  O   UNL     1      98.727  83.495  86.848  1.00  0.00    -0.270 OA
ATOM      5  N   UNL     1      96.452  83.828  87.205  1.00  0.00    -0.339 N 
ATOM      6  C   UNL     1      96.543  83.499  88.631  1.00  0.00     0.120 C 
ATOM      7  C   UNL     1      95.094  84.130  86.729  1.00  0.00     0.120 C 
ATOM      8  C   UNL     1      95.929  84.596  89.495  1.00  0.00     0.022 C 
ATOM      9  C   UNL     1      94.442  85.224  87.574  1.00  0.00     0.022 C 
ATOM     10  C   UNL     1      94.497  84.895  89.064  1.00  0.00     0.004 C 
ENDBRANCH   1   3
BRANCH   2  11
ATOM     11  C   UNL     1      97.688  83.401  82.678  1.00  0.00     0.001 C 
ATOM     12  C   UNL     1      98.594  82.929  81.807  1.00  0.00     0.008 C 
BRANCH  12  13
ATOM     13  C   UNL     1      98.554  83.138  80.350  1.00  0.00    -0.022 A 
ATOM     14  C   UNL     1      99.704  82.920  79.604  1.00  0.00     0.058 A 
ATOM     15  C   UNL     1      97.357  83.550  79.758  1.00  0.00     0.012 A 
ATOM     16  C   UNL     1      99.617  83.129  78.243  1.00  0.00     0.166 A 
ATOM     17  C   UNL     1      97.297  83.753  78.377  1.00  0.00     0.051 A 
ATOM     18  O   UNL     1     100.628  82.972  77.345  1.00  0.00    -0.454 OA
ATOM     19  C   UNL     1      98.446  83.534  77.645  1.00  0.00     0.165 A 
ATOM     20  C   UNL     1      99.961  83.324  76.116  1.00  0.00     0.468 C 
ATOM     21  O   UNL     1      98.576  83.682  76.299  1.00  0.00    -0.454 OA
ENDBRANCH  12  13
ENDBRANCH   2  11
TORSDOF 3
ENDMDL
MODEL 2
REMARK VINA RESULT:    -6.986     24.034     25.563
REMARK INTER + INTRA:          -8.554
REMARK INTER:                  -8.114
REMARK INTRA:                  -0.440
REMARK UNBOUND:                -0.343
REMARK SMILES O=C(/C=C/C=C/c1ccc2c(c1)OCO2)N1CCCCC1
REMARK SMILES IDX 3 1 4 2 2 3 1 4 16 5 17 6 21 7 18 8 20 9 19 10 5 11 6 12
REMARK SMILES IDX 7 13 12 14 8 15 11 16 9 17 13 18 10 19 14 20 15 21
REMARK H PARENT
REMARK Flexibility Score: inf
ROOT
ATOM      1  C   UNL     1      75.565  91.655  70.827  1.00  0.00     0.071 C 
ATOM      2  C   UNL     1      74.843  90.680  71.376  1.00  0.00     0.006 C 
ENDROOT
BRANCH   1   3
ATOM      3  C   UNL     1      75.385  93.028  71.341  1.00  0.00     0.246 C 
ATOM      4  O   UNL     1      74.343  93.614  71.046  1.00  0.00    -0.270 OA
ATOM      5  N   UNL     1      76.406  93.568  72.121  1.00  0.00    -0.339 N 
ATOM      6  C   UNL     1      76.258  94.931  72.642  1.00  0.00     0.120 C 
ATOM      7  C   UNL     1      77.681  92.917  72.457  1.00  0.00     0.120 C 
ATOM      8  C   UNL     1      76.475  94.978  74.150  1.00  0.00     0.022 C 
ATOM      9  C   UNL     1      77.937  92.947  73.964  1.00  0.00     0.022 C 
ATOM     10  C   UNL     1      77.818  94.360  74.528  1.00  0.00     0.004 C 
ENDBRANCH   1   3
BRANCH   2  11
ATOM     11  C   UNL     1      74.949  89.305  70.940  1.00  0.00     0.001 C 
ATOM     12  C   UNL     1      76.057  88.808  70.366  1.00  0.00     0.008 C 
BRANCH  12  13
ATOM     13  C   UNL     1      76.216  87.421  69.897  1.00  0.00    -0.022 A 
ATOM     14  C   UNL     1      77.396  87.053  69.265  1.00  0.00     0.058 A 
ATOM     15  C   UNL     1      75.174  86.513  70.102  1.00  0.00     0.012 A 
ATOM     16  C   UNL     1      77.498  85.743  68.844  1.00  0.00     0.166 A 
ATOM     17  C   UNL     1      75.304  85.193  69.665  1.00  0.00     0.051 A 
ATOM     18  O   UNL     1      78.567  85.190  68.206  1.00  0.00    -0.454 OA
ATOM     19  C   UNL     1      76.480  84.837  69.038  1.00  0.00     0.165 A 
ATOM     20  C   UNL     1      78.107  83.836  68.022  1.00  0.00     0.468 C 
ATOM     21  O   UNL     1      76.784  83.605  68.548  1.00  0.00    -0.454 OA
ENDBRANCH  12  13
ENDBRANCH   2  11
TORSDOF 3
ENDMDL
MODEL 3
REMARK VINA RESULT:    -6.959      2.849      9.020
REMARK INTER + INTRA:          -8.522
REMARK INTER:                  -8.116
REMARK INTRA:                  -0.406
REMARK UNBOUND:                -0.343
REMARK SMILES O=C(/C=C/C=C/c1ccc2c(c1)OCO2)N1CCCCC1
REMARK SMILES IDX 3 1 4 2 2 3 1 4 16 5 17 6 21 7 18 8 20 9 19 10 5 11 6 12
REMARK SMILES IDX 7 13 12 14 8 15 11 16 9 17 13 18 10 19 14 20 15 21
REMARK H PARENT
REMARK Flexibility Score: inf
ROOT
ATOM      1  C   UNL     1      99.957  82.477  80.901  1.00  0.00     0.071 C 
ATOM      2  C   UNL     1      99.095  81.672  81.518  1.00  0.00     0.006 C 
ENDROOT
BRANCH   1   3
ATOM      3  C   UNL     1     100.462  82.069  79.575  1.00  0.00     0.246 C 
ATOM      4  O   UNL     1     101.389  81.258  79.544  1.00  0.00    -0.270 OA
ATOM      5  N   UNL     1      99.861  82.631  78.450  1.00  0.00    -0.339 N 
ATOM      6  C   UNL     1     100.345  82.248  77.120  1.00  0.00     0.120 C 
ATOM      7  C   UNL     1      98.786  83.633  78.448  1.00  0.00     0.120 C 
ATOM      8  C   UNL     1      99.203  81.774  76.227  1.00  0.00     0.022 C 
ATOM      9  C   UNL     1      97.622  83.195  77.560  1.00  0.00     0.022 C 
ATOM     10  C   UNL     1      98.093  82.817  76.158  1.00  0.00     0.004 C 
ENDBRANCH   1   3
BRANCH   2  11
ATOM     11  C   UNL     1      98.545  81.987  82.820  1.00  0.00     0.001 C 
ATOM     12  C   UNL     1      97.794  83.076  83.048  1.00  0.00     0.008 C 
BRANCH  12  13
ATOM     13  C   UNL     1      97.217  83.447  84.351  1.00  0.00    -0.022 A 
ATOM     14  C   UNL     1      97.017  84.790  84.644  1.00  0.00     0.058 A 
ATOM     15  C   UNL     1      96.887  82.437  85.258  1.00  0.00     0.012 A 
ATOM     16  C   UNL     1      96.475  85.087  85.877  1.00  0.00     0.166 A 
ATOM     17  C   UNL     1      96.339  82.767  86.500  1.00  0.00     0.051 A 
ATOM     18  O   UNL     1      96.205  86.335  86.350  1.00  0.00    -0.454 OA
ATOM     19  C   UNL     1      96.145  84.103  86.780  1.00  0.00     0.165 A 
ATOM     20  C   UNL     1      95.667  86.025  87.652  1.00  0.00     0.468 C 
ATOM     21  O   UNL     1      95.626  84.611  87.932  1.00  0.00    -0.454 OA
ENDBRANCH  12  13
ENDBRANCH   2  11
TORSDOF 3
ENDMDL
MODEL 4
REMARK VINA RESULT:    -6.945      1.877      2.947
REMARK INTER + INTRA:          -8.505
REMARK INTER:                  -8.194
REMARK INTRA:                  -0.311
REMARK UNBOUND:                -0.343
REMARK SMILES O=C(/C=C/C=C/c1ccc2c(c1)OCO2)N1CCCCC1
REMARK SMILES IDX 3 1 4 2 2 3 1 4 16 5 17 6 21 7 18 8 20 9 19 10 5 11 6 12
REMARK SMILES IDX 7 13 12 14 8 15 11 16 9 17 13 18 10 19 14 20 15 21
REMARK H PARENT
REMARK Flexibility Score: inf
ROOT
ATOM      1  C   UNL     1      97.542  82.551  85.022  1.00  0.00     0.071 C 
ATOM      2  C   UNL     1      97.189  83.602  84.284  1.00  0.00     0.006 C 
ENDROOT
BRANCH   1   3
ATOM      3  C   UNL     1      97.299  82.610  86.477  1.00  0.00     0.246 C 
ATOM      4  O   UNL     1      96.232  82.158  86.894  1.00  0.00    -0.270 OA
ATOM      5  N   UNL     1      98.288  83.177  87.278  1.00  0.00    -0.339 N 
ATOM      6  C   UNL     1      98.073  83.254  88.726  1.00  0.00     0.120 C 
ATOM      7  C   UNL     1      99.552  83.766  86.812  1.00  0.00     0.120 C 
ATOM      8  C   UNL     1      99.238  82.642  89.496  1.00  0.00     0.022 C 
ATOM      9  C   UNL     1     100.747  83.180  87.565  1.00  0.00     0.022 C 
ATOM     10  C   UNL     1     100.562  83.273  89.077  1.00  0.00     0.004 C 
ENDBRANCH   1   3
BRANCH   2  11
ATOM     11  C   UNL     1      97.388  83.638  82.851  1.00  0.00     0.001 C 
ATOM     12  C   UNL     1      98.408  83.011  82.243  1.00  0.00     0.008 C 
BRANCH  12  13
ATOM     13  C   UNL     1      98.661  83.022  80.792  1.00  0.00    -0.022 A 
ATOM     14  C   UNL     1      97.648  83.427  79.933  1.00  0.00     0.058 A 
ATOM     15  C   UNL     1      99.914  82.623  80.320  1.00  0.00     0.012 A 
ATOM     16  C   UNL     1      97.933  83.420  78.583  1.00  0.00     0.166 A 
ATOM     17  C   UNL     1     100.175  82.626  78.948  1.00  0.00     0.051 A 
ATOM     18  O   UNL     1      97.079  83.779  77.585  1.00  0.00    -0.454 OA
ATOM     19  C   UNL     1      99.163  83.030  78.103  1.00  0.00     0.165 A 
ATOM     20  C   UNL     1      97.910  83.571  76.424  1.00  0.00     0.468 C 
ATOM     21  O   UNL     1      99.233  83.096  76.746  1.00  0.00    -0.454 OA
ENDBRANCH  12  13
ENDBRANCH   2  11
TORSDOF 3
ENDMDL
MODEL 5
REMARK VINA RESULT:    -6.944      2.844      9.432
REMARK INTER + INTRA:          -8.504
REMARK INTER:                  -8.198
REMARK INTRA:                  -0.306
REMARK UNBOUND:                -0.343
REMARK SMILES O=C(/C=C/C=C/c1ccc2c(c1)OCO2)N1CCCCC1
REMARK SMILES IDX 3 1 4 2 2 3 1 4 16 5 17 6 21 7 18 8 20 9 19 10 5 11 6 12
REMARK SMILES IDX 7 13 12 14 8 15 11 16 9 17 13 18 10 19 14 20 15 21
REMARK H PARENT
REMARK Flexibility Score: inf
ROOT
ATOM      1  C   UNL     1      98.429  83.289  80.965  1.00  0.00     0.071 C 
ATOM      2  C   UNL     1      98.352  82.934  82.246  1.00  0.00     0.006 C 
ENDROOT
BRANCH   1   3
ATOM      3  C   UNL     1      99.381  82.564  80.100  1.00  0.00     0.246 C 
ATOM      4  O   UNL     1     100.149  81.767  80.641  1.00  0.00    -0.270 OA
ATOM      5  N   UNL     1      99.352  82.833  78.732  1.00  0.00    -0.339 N 
ATOM      6  C   UNL     1     100.289  82.133  77.849  1.00  0.00     0.120 C 
ATOM      7  C   UNL     1      98.483  83.809  78.057  1.00  0.00     0.120 C 
ATOM      8  C   UNL     1      99.563  81.458  76.690  1.00  0.00     0.022 C 
ATOM      9  C   UNL     1      97.740  83.170  76.885  1.00  0.00     0.022 C 
ATOM     10  C   UNL     1      98.695  82.457  75.932  1.00  0.00     0.004 C 
ENDBRANCH   1   3
BRANCH   2  11
ATOM     11  C   UNL     1      97.449  83.585  83.171  1.00  0.00     0.001 C 
ATOM     12  C   UNL     1      97.456  83.335  84.490  1.00  0.00     0.008 C 
BRANCH  12  13
ATOM     13  C   UNL     1      96.557  83.963  85.474  1.00  0.00    -0.022 A 
ATOM     14  C   UNL     1      95.679  83.163  86.193  1.00  0.00     0.058 A 
ATOM     15  C   UNL     1      96.612  85.347  85.656  1.00  0.00     0.012 A 
ATOM     16  C   UNL     1      94.857  83.796  87.102  1.00  0.00     0.166 A 
ATOM     17  C   UNL     1      95.768  85.962  86.583  1.00  0.00     0.051 A 
ATOM     18  O   UNL     1      93.933  83.191  87.898  1.00  0.00    -0.454 OA
ATOM     19  C   UNL     1      94.900  85.158  87.292  1.00  0.00     0.165 A 
ATOM     20  C   UNL     1      93.399  84.326  88.610  1.00  0.00     0.468 C 
ATOM     21  O   UNL     1      94.008  85.578  88.231  1.00  0.00    -0.454 OA
ENDBRANCH  12  13
ENDBRANCH   2  11
TORSDOF 3
ENDMDL
MODEL 6
REMARK VINA RESULT:    -6.943     25.102     27.427
REMARK INTER + INTRA:          -8.503
REMARK INTER:                  -8.118
REMARK INTRA:                  -0.386
REMARK UNBOUND:                -0.343
REMARK SMILES O=C(/C=C/C=C/c1ccc2c(c1)OCO2)N1CCCCC1
REMARK SMILES IDX 3 1 4 2 2 3 1 4 16 5 17 6 21 7 18 8 20 9 19 10 5 11 6 12
REMARK SMILES IDX 7 13 12 14 8 15 11 16 9 17 13 18 10 19 14 20 15 21
REMARK H PARENT
REMARK Flexibility Score: inf
ROOT
ATOM      1  C   UNL     1      76.783  85.673  68.370  1.00  0.00     0.071 C 
ATOM      2  C   UNL     1      77.514  86.611  68.969  1.00  0.00     0.006 C 
ENDROOT
BRANCH   1   3
ATOM      3  C   UNL     1      77.488  84.635  67.591  1.00  0.00     0.246 C 
ATOM      4  O   UNL     1      78.680  84.449  67.839  1.00  0.00    -0.270 OA
ATOM      5  N   UNL     1      76.760  83.942  66.625  1.00  0.00    -0.339 N 
ATOM      6  C   UNL     1      77.434  82.909  65.832  1.00  0.00     0.120 C 
ATOM      7  C   UNL     1      75.351  84.167  66.271  1.00  0.00     0.120 C 
ATOM      8  C   UNL     1      76.676  81.587  65.879  1.00  0.00     0.022 C 
ATOM      9  C   UNL     1      74.557  82.862  66.303  1.00  0.00     0.022 C 
ATOM     10  C   UNL     1      75.222  81.776  65.461  1.00  0.00     0.004 C 
ENDBRANCH   1   3
BRANCH   2  11
ATOM     11  C   UNL     1      76.915  87.670  69.753  1.00  0.00     0.001 C 
ATOM     12  C   UNL     1      75.598  87.726  70.012  1.00  0.00     0.008 C 
BRANCH  12  13
ATOM     13  C   UNL     1      74.936  88.782  70.796  1.00  0.00    -0.022 A 
ATOM     14  C   UNL     1      75.471  90.063  70.792  1.00  0.00     0.058 A 
ATOM     15  C   UNL     1      73.786  88.465  71.523  1.00  0.00     0.012 A 
ATOM     16  C   UNL     1      74.815  91.018  71.541  1.00  0.00     0.166 A 
ATOM     17  C   UNL     1      73.142  89.452  72.273  1.00  0.00     0.051 A 
ATOM     18  O   UNL     1      75.181  92.323  71.667  1.00  0.00    -0.454 OA
ATOM     19  C   UNL     1      73.681  90.721  72.262  1.00  0.00     0.165 A 
ATOM     20  C   UNL     1      74.150  92.814  72.548  1.00  0.00     0.468 C 
ATOM     21  O   UNL     1      73.195  91.802  72.930  1.00  0.00    -0.454 OA
ENDBRANCH  12  13
ENDBRANCH   2  11
TORSDOF 3
ENDMDL
MODEL 7
REMARK VINA RESULT:    -6.932      2.858      9.547
REMARK INTER + INTRA:          -8.490
REMARK INTER:                  -8.133
REMARK INTRA:                  -0.358
REMARK UNBOUND:                -0.343
REMARK SMILES O=C(/C=C/C=C/c1ccc2c(c1)OCO2)N1CCCCC1
REMARK SMILES IDX 3 1 4 2 2 3 1 4 16 5 17 6 21 7 18 8 20 9 19 10 5 11 6 12
REMARK SMILES IDX 7 13 12 14 8 15 11 16 9 17 13 18 10 19 14 20 15 21
REMARK H PARENT
REMARK Flexibility Score: inf
ROOT
ATOM      1  C   UNL     1      97.980  82.605  79.305  1.00  0.00     0.071 C 
ATOM      2  C   UNL     1      98.282  83.402  80.328  1.00  0.00     0.006 C 
ENDROOT
BRANCH   1   3
ATOM      3  C   UNL     1      98.018  83.176  77.944  1.00  0.00     0.246 C 
ATOM      4  O   UNL     1      97.015  83.772  77.549  1.00  0.00    -0.270 OA
ATOM      5  N   UNL     1      99.181  82.998  77.197  1.00  0.00    -0.339 N 
ATOM      6  C   UNL     1      99.246  83.550  75.840  1.00  0.00     0.120 C 
ATOM      7  C   UNL     1     100.379  82.255  77.617  1.00  0.00     0.120 C 
ATOM      8  C   UNL     1     100.483  84.422  75.652  1.00  0.00     0.022 C 
ATOM      9  C   UNL     1     101.642  83.097  77.440  1.00  0.00     0.022 C 
ATOM     10  C   UNL     1     101.751  83.661  76.026  1.00  0.00     0.004 C 
ENDBRANCH   1   3
BRANCH   2  11
ATOM     11  C   UNL     1      98.273  82.934  81.698  1.00  0.00     0.001 C 
ATOM     12  C   UNL     1      97.614  83.572  82.679  1.00  0.00     0.008 C 
BRANCH  12  13
ATOM     13  C   UNL     1      97.578  83.145  84.088  1.00  0.00    -0.022 A 
ATOM     14  C   UNL     1      97.472  84.107  85.083  1.00  0.00     0.058 A 
ATOM     15  C   UNL     1      97.651  81.781  84.384  1.00  0.00     0.012 A 
ATOM     16  C   UNL     1      97.441  83.657  86.387  1.00  0.00     0.166 A 
ATOM     17  C   UNL     1      97.618  81.354  85.714  1.00  0.00     0.051 A 
ATOM     18  O   UNL     1      97.343  84.438  87.498  1.00  0.00    -0.454 OA
ATOM     19  C   UNL     1      97.512  82.318  86.695  1.00  0.00     0.165 A 
ATOM     20  C   UNL     1      97.360  83.440  88.538  1.00  0.00     0.468 C 
ATOM     21  O   UNL     1      97.467  82.092  88.036  1.00  0.00    -0.454 OA
ENDBRANCH  12  13
ENDBRANCH   2  11
TORSDOF 3
ENDMDL
MODEL 8
REMARK VINA RESULT:    -6.859      1.465      2.021
REMARK INTER + INTRA:          -8.404
REMARK INTER:                  -8.076
REMARK INTRA:                  -0.328
REMARK UNBOUND:                -0.343
REMARK SMILES O=C(/C=C/C=C/c1ccc2c(c1)OCO2)N1CCCCC1
REMARK SMILES IDX 3 1 4 2 2 3 1 4 16 5 17 6 21 7 18 8 20 9 19 10 5 11 6 12
REMARK SMILES IDX 7 13 12 14 8 15 11 16 9 17 13 18 10 19 14 20 15 21
REMARK H PARENT
REMARK Flexibility Score: inf
ROOT
ATOM      1  C   UNL     1      96.706  83.426  85.233  1.00  0.00     0.071 C 
ATOM      2  C   UNL     1      97.674  82.903  84.483  1.00  0.00     0.006 C 
ENDROOT
BRANCH   1   3
ATOM      3  C   UNL     1      96.707  83.124  86.678  1.00  0.00     0.246 C 
ATOM      4  O   UNL     1      97.712  83.427  87.322  1.00  0.00    -0.270 OA
ATOM      5  N   UNL     1      95.575  82.512  87.214  1.00  0.00    -0.339 N 
ATOM      6  C   UNL     1      95.548  82.195  88.645  1.00  0.00     0.120 C 
ATOM      7  C   UNL     1      94.377  82.096  86.470  1.00  0.00     0.120 C 
ATOM      8  C   UNL     1      94.303  82.762  89.319  1.00  0.00     0.022 C 
ATOM      9  C   UNL     1      93.105  82.643  87.118  1.00  0.00     0.022 C 
ATOM     10  C   UNL     1      93.037  82.302  88.603  1.00  0.00     0.004 C 
ENDBRANCH   1   3
BRANCH   2  11
ATOM     11  C   UNL     1      97.757  83.142  83.058  1.00  0.00     0.001 C 
ATOM     12  C   UNL     1      98.724  82.617  82.288  1.00  0.00     0.008 C 
BRANCH  12  13
ATOM     13  C   UNL     1      98.860  82.833  80.838  1.00  0.00    -0.022 A 
ATOM     14  C   UNL     1      97.796  83.380  80.134  1.00  0.00     0.058 A 
ATOM     15  C   UNL     1     100.058  82.483  80.210  1.00  0.00     0.012 A 
ATOM     16  C   UNL     1      97.972  83.564  78.778  1.00  0.00     0.166 A 
ATOM     17  C   UNL     1     100.209  82.680  78.836  1.00  0.00     0.051 A 
ATOM     18  O   UNL     1      97.053  84.082  77.917  1.00  0.00    -0.454 OA
ATOM     19  C   UNL     1      99.146  83.224  78.145  1.00  0.00     0.165 A 
ATOM     20  C   UNL     1      97.780  84.029  76.673  1.00  0.00     0.468 C 
ATOM     21  O   UNL     1      99.109  83.486  76.811  1.00  0.00    -0.454 OA
ENDBRANCH  12  13
ENDBRANCH   2  11
TORSDOF 3
ENDMDL
MODEL 9
REMARK VINA RESULT:    -6.719     17.410     19.283
REMARK INTER + INTRA:          -8.240
REMARK INTER:                  -7.842
REMARK INTRA:                  -0.398
REMARK UNBOUND:                -0.343
REMARK SMILES O=C(/C=C/C=C/c1ccc2c(c1)OCO2)N1CCCCC1
REMARK SMILES IDX 3 1 4 2 2 3 1 4 16 5 17 6 21 7 18 8 20 9 19 10 5 11 6 12
REMARK SMILES IDX 7 13 12 14 8 15 11 16 9 17 13 18 10 19 14 20 15 21
REMARK H PARENT
REMARK Flexibility Score: inf
ROOT
ATOM      1  C   UNL     1      93.240  98.990  74.852  1.00  0.00     0.071 C 
ATOM      2  C   UNL     1      93.086 100.205  74.327  1.00  0.00     0.006 C 
ENDROOT
BRANCH   1   3
ATOM      3  C   UNL     1      94.164  98.839  75.993  1.00  0.00     0.246 C 
ATOM      4  O   UNL     1      94.513  99.862  76.583  1.00  0.00    -0.270 OA
ATOM      5  N   UNL     1      94.584  97.551  76.323  1.00  0.00    -0.339 N 
ATOM      6  C   UNL     1      95.506  97.369  77.448  1.00  0.00     0.120 C 
ATOM      7  C   UNL     1      94.225  96.312  75.615  1.00  0.00     0.120 C 
ATOM      8  C   UNL     1      94.974  96.345  78.445  1.00  0.00     0.022 C 
ATOM      9  C   UNL     1      93.690  95.257  76.583  1.00  0.00     0.022 C 
ATOM     10  C   UNL     1      94.645  95.027  77.751  1.00  0.00     0.004 C 
ENDBRANCH   1   3
BRANCH   2  11
ATOM     11  C   UNL     1      92.203 100.453  73.208  1.00  0.00     0.001 C 
ATOM     12  C   UNL     1      91.730  99.471  72.424  1.00  0.00     0.008 C 
BRANCH  12  13
ATOM     13  C   UNL     1      90.837  99.667  71.269  1.00  0.00    -0.022 A 
ATOM     14  C   UNL     1      90.008  98.628  70.871  1.00  0.00     0.058 A 
ATOM     15  C   UNL     1      90.849 100.897  70.606  1.00  0.00     0.012 A 
ATOM     16  C   UNL     1      89.190  98.860  69.785  1.00  0.00     0.166 A 
ATOM     17  C   UNL     1      90.010 101.105  69.508  1.00  0.00     0.051 A 
ATOM     18  O   UNL     1      88.311  97.972  69.243  1.00  0.00    -0.454 OA
ATOM     19  C   UNL     1      89.190 100.066  69.121  1.00  0.00     0.165 A 
ATOM     20  C   UNL     1      87.759  98.755  68.165  1.00  0.00     0.468 C 
ATOM     21  O   UNL     1      88.313 100.084  68.081  1.00  0.00    -0.454 OA
ENDBRANCH  12  13
ENDBRANCH   2  11
TORSDOF 3
ENDMDL
MODEL 10
REMARK VINA RESULT:    -6.331      8.020      9.467
REMARK INTER + INTRA:          -7.784
REMARK INTER:                  -7.434
REMARK INTRA:                  -0.351
REMARK UNBOUND:                -0.343
REMARK SMILES O=C(/C=C/C=C/c1ccc2c(c1)OCO2)N1CCCCC1
REMARK SMILES IDX 3 1 4 2 2 3 1 4 16 5 17 6 21 7 18 8 20 9 19 10 5 11 6 12
REMARK SMILES IDX 7 13 12 14 8 15 11 16 9 17 13 18 10 19 14 20 15 21
REMARK H PARENT
REMARK Flexibility Score: inf
ROOT
ATOM      1  C   UNL     1      94.990  86.977  90.157  1.00  0.00     0.071 C 
ATOM      2  C   UNL     1      94.648  86.411  89.001  1.00  0.00     0.006 C 
ENDROOT
BRANCH   1   3
ATOM      3  C   UNL     1      95.702  88.270  90.112  1.00  0.00     0.246 C 
ATOM      4  O   UNL     1      96.828  88.284  89.614  1.00  0.00    -0.270 OA
ATOM      5  N   UNL     1      95.054  89.386  90.641  1.00  0.00    -0.339 N 
ATOM      6  C   UNL     1      95.738  90.683  90.616  1.00  0.00     0.120 C 
ATOM      7  C   UNL     1      93.732  89.400  91.283  1.00  0.00     0.120 C 
ATOM      8  C   UNL     1      94.868  91.759  89.974  1.00  0.00     0.022 C 
ATOM      9  C   UNL     1      92.830  90.471  90.669  1.00  0.00     0.022 C 
ATOM     10  C   UNL     1      93.506  91.839  90.656  1.00  0.00     0.004 C 
ENDBRANCH   1   3
BRANCH   2  11
ATOM     11  C   UNL     1      93.949  85.144  88.943  1.00  0.00     0.001 C 
ATOM     12  C   UNL     1      93.182  84.786  87.901  1.00  0.00     0.008 C 
BRANCH  12  13
ATOM     13  C   UNL     1      92.444  83.516  87.793  1.00  0.00    -0.022 A 
ATOM     14  C   UNL     1      93.032  82.446  87.133  1.00  0.00     0.058 A 
ATOM     15  C   UNL     1      91.170  83.423  88.359  1.00  0.00     0.012 A 
ATOM     16  C   UNL     1      92.302  81.278  87.059  1.00  0.00     0.166 A 
ATOM     17  C   UNL     1      90.452  82.228  88.269  1.00  0.00     0.051 A 
ATOM     18  O   UNL     1      92.702  80.124  86.457  1.00  0.00    -0.454 OA
ATOM     19  C   UNL     1      91.047  81.171  87.612  1.00  0.00     0.165 A 
ATOM     20  C   UNL     1      91.557  79.280  86.693  1.00  0.00     0.468 C 
ATOM     21  O   UNL     1      90.503  79.938  87.425  1.00  0.00    -0.454 OA
ENDBRANCH  12  13
ENDBRANCH   2  11
TORSDOF 3
ENDMDL
