MODEL 1
REMARK VINA RESULT:    -5.301      0.000      0.000
REMARK INTER + INTRA:         -10.588
REMARK INTER:                  -8.554
REMARK INTRA:                  -2.034
REMARK UNBOUND:                -2.034
REMARK SMILES COc1cc(CNC(=O)CCCCCCC(C)C)ccc1O
REMARK SMILES IDX 11 1 10 2 8 3 7 4 9 6 6 7 5 8 3 9 21 10 4 11 20 12 19 13
REMARK SMILES IDX 2 14 1 15 22 16 12 18 13 19 14 20 15 21 16 22 17 23 18 24
REMARK H PARENT 7 5 22 17
REMARK Flexibility Score: inf
ROOT
ATOM      1  C   UNL     1      87.615  99.865  66.952  1.00  0.00     0.010 C 
ENDROOT
BRANCH   1   2
ATOM      2  C   UNL     1      88.724  98.811  66.683  1.00  0.00     0.100 C 
BRANCH   2   3
ATOM      3  C   UNL     1      89.439  98.388  67.908  1.00  0.00     0.220 C 
ATOM      4  N   UNL     1      89.161  98.978  69.106  1.00  0.00    -0.352 N 
ATOM      5  H   UNL     1      88.484  99.725  69.061  1.00  0.00     0.163 HD
ATOM      6  O   UNL     1      90.284  97.464  67.822  1.00  0.00    -0.275 OA
BRANCH   4   7
ATOM      7  C   UNL     1      89.745  98.613  70.362  1.00  0.00     0.151 C 
BRANCH   7   8
ATOM      8  C   UNL     1      90.557  99.703  70.970  1.00  0.00    -0.025 A 
ATOM      9  C   UNL     1      92.673 100.493  71.941  1.00  0.00     0.160 A 
ATOM     10  C   UNL     1      92.126 101.786  72.089  1.00  0.00     0.157 A 
ATOM     11  C   UNL     1      91.880  99.459  71.401  1.00  0.00     0.056 A 
ATOM     12  C   UNL     1      90.797 102.032  71.699  1.00  0.00     0.050 A 
ATOM     13  C   UNL     1      90.020 101.002  71.134  1.00  0.00     0.009 A 
BRANCH   9  14
ATOM     14  O   UNL     1      93.952 100.233  72.353  1.00  0.00    -0.493 OA
ATOM     15  C   UNL     1      94.028  99.346  73.484  1.00  0.00     0.278 C 
ENDBRANCH   9  14
BRANCH  10  16
ATOM     16  O   UNL     1      92.866 102.801  72.607  1.00  0.00    -0.504 OA
ATOM     17  H   UNL     1      93.628 102.439  73.065  1.00  0.00     0.293 HD
ENDBRANCH  10  16
ENDBRANCH   7   8
ENDBRANCH   4   7
ENDBRANCH   2   3
ENDBRANCH   1   2
BRANCH   1  18
ATOM     18  C   UNL     1      87.934 101.235  66.290  1.00  0.00     0.001 C 
BRANCH  18  19
ATOM     19  C   UNL     1      88.018 102.415  67.300  1.00  0.00     0.000 C 
BRANCH  19  20
ATOM     20  C   UNL     1      89.492 102.774  67.639  1.00  0.00     0.000 C 
BRANCH  20  21
ATOM     21  C   UNL     1      90.431 102.845  66.403  1.00  0.00     0.003 C 
BRANCH  21  22
ATOM     22  C   UNL     1      91.647 101.863  66.453  1.00  0.00    -0.017 C 
ATOM     23  C   UNL     1      91.514 100.777  65.348  1.00  0.00     0.007 C 
ATOM     24  C   UNL     1      91.859 101.201  67.846  1.00  0.00     0.007 C 
ENDBRANCH  21  22
ENDBRANCH  20  21
ENDBRANCH  19  20
ENDBRANCH  18  19
ENDBRANCH   1  18
TORSDOF 11
ENDMDL
MODEL 2
REMARK VINA RESULT:    -5.144     20.771     23.909
REMARK INTER + INTRA:         -10.335
REMARK INTER:                  -9.238
REMARK INTRA:                  -1.096
REMARK UNBOUND:                -2.034
REMARK SMILES COc1cc(CNC(=O)CCCCCCC(C)C)ccc1O
REMARK SMILES IDX 11 1 10 2 8 3 7 4 9 6 6 7 5 8 3 9 21 10 4 11 20 12 19 13
REMARK SMILES IDX 2 14 1 15 22 16 12 18 13 19 14 20 15 21 16 22 17 23 18 24
REMARK H PARENT 7 5 22 17
REMARK Flexibility Score: inf
ROOT
ATOM      1  C   UNL     1      76.931  85.051  67.269  1.00  0.00     0.010 C 
ENDROOT
BRANCH   1   2
ATOM      2  C   UNL     1      77.598  83.992  66.349  1.00  0.00     0.100 C 
BRANCH   2   3
ATOM      3  C   UNL     1      76.725  83.547  65.240  1.00  0.00     0.220 C 
ATOM      4  N   UNL     1      76.111  82.330  65.293  1.00  0.00    -0.352 N 
ATOM      5  H   UNL     1      76.341  81.776  66.105  1.00  0.00     0.163 HD
ATOM      6  O   UNL     1      76.546  84.321  64.268  1.00  0.00    -0.275 OA
BRANCH   4   7
ATOM      7  C   UNL     1      75.203  81.820  64.311  1.00  0.00     0.151 C 
BRANCH   7   8
ATOM      8  C   UNL     1      73.774  81.958  64.705  1.00  0.00    -0.025 A 
ATOM      9  C   UNL     1      71.968  83.266  65.744  1.00  0.00     0.160 A 
ATOM     10  C   UNL     1      71.043  82.249  65.421  1.00  0.00     0.157 A 
ATOM     11  C   UNL     1      73.327  83.104  65.401  1.00  0.00     0.056 A 
ATOM     12  C   UNL     1      71.483  81.086  64.763  1.00  0.00     0.050 A 
ATOM     13  C   UNL     1      72.835  80.944  64.398  1.00  0.00     0.009 A 
BRANCH   9  14
ATOM     14  O   UNL     1      71.558  84.383  66.418  1.00  0.00    -0.493 OA
ATOM     15  C   UNL     1      71.234  85.492  65.560  1.00  0.00     0.278 C 
ENDBRANCH   9  14
BRANCH  10  16
ATOM     16  O   UNL     1      69.728  82.376  65.740  1.00  0.00    -0.504 OA
ATOM     17  H   UNL     1      69.234  81.649  65.354  1.00  0.00     0.293 HD
ENDBRANCH  10  16
ENDBRANCH   7   8
ENDBRANCH   4   7
ENDBRANCH   2   3
ENDBRANCH   1   2
BRANCH   1  18
ATOM     18  C   UNL     1      75.949  84.408  68.289  1.00  0.00     0.001 C 
BRANCH  18  19
ATOM     19  C   UNL     1      75.080  85.441  69.060  1.00  0.00     0.000 C 
BRANCH  19  20
ATOM     20  C   UNL     1      74.625  86.607  68.138  1.00  0.00     0.000 C 
BRANCH  20  21
ATOM     21  C   UNL     1      74.384  87.951  68.881  1.00  0.00     0.003 C 
BRANCH  21  22
ATOM     22  C   UNL     1      75.196  89.161  68.314  1.00  0.00    -0.017 C 
ATOM     23  C   UNL     1      76.620  88.709  67.886  1.00  0.00     0.007 C 
ATOM     24  C   UNL     1      75.279  90.371  69.291  1.00  0.00     0.007 C 
ENDBRANCH  21  22
ENDBRANCH  20  21
ENDBRANCH  19  20
ENDBRANCH  18  19
ENDBRANCH   1  18
TORSDOF 11
ENDMDL
MODEL 3
REMARK VINA RESULT:    -4.872     19.323     22.202
REMARK INTER + INTRA:          -9.897
REMARK INTER:                  -9.004
REMARK INTRA:                  -0.893
REMARK UNBOUND:                -2.034
REMARK SMILES COc1cc(CNC(=O)CCCCCCC(C)C)ccc1O
REMARK SMILES IDX 11 1 10 2 8 3 7 4 9 6 6 7 5 8 3 9 21 10 4 11 20 12 19 13
REMARK SMILES IDX 2 14 1 15 22 16 12 18 13 19 14 20 15 21 16 22 17 23 18 24
REMARK H PARENT 7 5 22 17
REMARK Flexibility Score: inf
ROOT
ATOM      1  C   UNL     1      75.653  84.042  66.018  1.00  0.00     0.010 C 
ENDROOT
BRANCH   1   2
ATOM      2  C   UNL     1      77.156  84.227  66.366  1.00  0.00     0.100 C 
BRANCH   2   3
ATOM      3  C   UNL     1      77.431  85.463  67.133  1.00  0.00     0.220 C 
ATOM      4  N   UNL     1      77.102  86.682  66.616  1.00  0.00    -0.352 N 
ATOM      5  H   UNL     1      76.714  86.654  65.685  1.00  0.00     0.163 HD
ATOM      6  O   UNL     1      77.948  85.361  68.272  1.00  0.00    -0.275 OA
BRANCH   4   7
ATOM      7  C   UNL     1      77.266  87.935  67.288  1.00  0.00     0.151 C 
BRANCH   7   8
ATOM      8  C   UNL     1      76.055  88.361  68.042  1.00  0.00    -0.025 A 
ATOM      9  C   UNL     1      74.829  90.074  69.311  1.00  0.00     0.160 A 
ATOM     10  C   UNL     1      73.733  89.194  69.443  1.00  0.00     0.157 A 
ATOM     11  C   UNL     1      75.987  89.645  68.629  1.00  0.00     0.056 A 
ATOM     12  C   UNL     1      73.804  87.900  68.897  1.00  0.00     0.050 A 
ATOM     13  C   UNL     1      74.951  87.488  68.192  1.00  0.00     0.009 A 
BRANCH   9  14
ATOM     14  O   UNL     1      74.786  91.321  69.872  1.00  0.00    -0.493 OA
ATOM     15  C   UNL     1      74.893  92.391  68.916  1.00  0.00     0.278 C 
ENDBRANCH   9  14
BRANCH  10  16
ATOM     16  O   UNL     1      72.605  89.580  70.096  1.00  0.00    -0.504 OA
ATOM     17  H   UNL     1      72.109  90.189  69.544  1.00  0.00     0.293 HD
ENDBRANCH  10  16
ENDBRANCH   7   8
ENDBRANCH   4   7
ENDBRANCH   2   3
ENDBRANCH   1   2
BRANCH   1  18
ATOM     18  C   UNL     1      75.451  83.321  64.655  1.00  0.00     0.001 C 
BRANCH  18  19
ATOM     19  C   UNL     1      75.307  81.778  64.778  1.00  0.00     0.000 C 
BRANCH  19  20
ATOM     20  C   UNL     1      74.122  81.386  65.705  1.00  0.00     0.000 C 
BRANCH  20  21
ATOM     21  C   UNL     1      72.775  81.172  64.961  1.00  0.00     0.003 C 
BRANCH  21  22
ATOM     22  C   UNL     1      71.847  82.430  64.922  1.00  0.00    -0.017 C 
ATOM     23  C   UNL     1      70.457  82.099  65.535  1.00  0.00     0.007 C 
ATOM     24  C   UNL     1      71.683  83.041  63.499  1.00  0.00     0.007 C 
ENDBRANCH  21  22
ENDBRANCH  20  21
ENDBRANCH  19  20
ENDBRANCH  18  19
ENDBRANCH   1  18
TORSDOF 11
ENDMDL
MODEL 4
REMARK VINA RESULT:    -4.832      1.082      2.288
REMARK INTER + INTRA:          -9.832
REMARK INTER:                  -8.390
REMARK INTRA:                  -1.442
REMARK UNBOUND:                -2.034
REMARK SMILES COc1cc(CNC(=O)CCCCCCC(C)C)ccc1O
REMARK SMILES IDX 11 1 10 2 8 3 7 4 9 6 6 7 5 8 3 9 21 10 4 11 20 12 19 13
REMARK SMILES IDX 2 14 1 15 22 16 12 18 13 19 14 20 15 21 16 22 17 23 18 24
REMARK H PARENT 7 5 22 17
REMARK Flexibility Score: inf
ROOT
ATOM      1  C   UNL     1      89.171  99.690  66.314  1.00  0.00     0.010 C 
ENDROOT
BRANCH   1   2
ATOM      2  C   UNL     1      89.116  98.207  66.776  1.00  0.00     0.100 C 
BRANCH   2   3
ATOM      3  C   UNL     1      89.701  97.991  68.118  1.00  0.00     0.220 C 
ATOM      4  N   UNL     1      89.282  98.737  69.181  1.00  0.00    -0.352 N 
ATOM      5  H   UNL     1      88.599  99.445  68.955  1.00  0.00     0.163 HD
ATOM      6  O   UNL     1      90.569  97.095  68.259  1.00  0.00    -0.275 OA
BRANCH   4   7
ATOM      7  C   UNL     1      89.731  98.578  70.531  1.00  0.00     0.151 C 
BRANCH   7   8
ATOM      8  C   UNL     1      90.557  99.720  71.012  1.00  0.00    -0.025 A 
ATOM      9  C   UNL     1      92.722 100.617  71.757  1.00  0.00     0.160 A 
ATOM     10  C   UNL     1      92.148 101.900  71.889  1.00  0.00     0.157 A 
ATOM     11  C   UNL     1      91.920  99.534  71.339  1.00  0.00     0.056 A 
ATOM     12  C   UNL     1      90.784 102.089  71.604  1.00  0.00     0.050 A 
ATOM     13  C   UNL     1      89.995 101.010  71.159  1.00  0.00     0.009 A 
BRANCH   9  14
ATOM     14  O   UNL     1      94.039 100.414  72.069  1.00  0.00    -0.493 OA
ATOM     15  C   UNL     1      94.728  99.553  71.145  1.00  0.00     0.278 C 
ENDBRANCH   9  14
BRANCH  10  16
ATOM     16  O   UNL     1      92.897 102.960  72.291  1.00  0.00    -0.504 OA
ATOM     17  H   UNL     1      93.736 102.646  72.635  1.00  0.00     0.293 HD
ENDBRANCH  10  16
ENDBRANCH   7   8
ENDBRANCH   4   7
ENDBRANCH   2   3
ENDBRANCH   1   2
BRANCH   1  18
ATOM     18  C   UNL     1      90.629 100.223  66.224  1.00  0.00     0.001 C 
BRANCH  18  19
ATOM     19  C   UNL     1      90.898 101.466  67.117  1.00  0.00     0.000 C 
BRANCH  19  20
ATOM     20  C   UNL     1      89.573 102.130  67.588  1.00  0.00     0.000 C 
BRANCH  20  21
ATOM     21  C   UNL     1      89.058 103.259  66.652  1.00  0.00     0.003 C 
BRANCH  21  22
ATOM     22  C   UNL     1      87.510 103.478  66.687  1.00  0.00    -0.017 C 
ATOM     23  C   UNL     1      86.770 102.207  66.182  1.00  0.00     0.007 C 
ATOM     24  C   UNL     1      87.038 104.734  65.897  1.00  0.00     0.007 C 
ENDBRANCH  21  22
ENDBRANCH  20  21
ENDBRANCH  19  20
ENDBRANCH  18  19
ENDBRANCH   1  18
TORSDOF 11
ENDMDL
MODEL 5
REMARK VINA RESULT:    -4.810      3.789      8.683
REMARK INTER + INTRA:          -9.796
REMARK INTER:                  -9.138
REMARK INTRA:                  -0.659
REMARK UNBOUND:                -2.034
REMARK SMILES COc1cc(CNC(=O)CCCCCCC(C)C)ccc1O
REMARK SMILES IDX 11 1 10 2 8 3 7 4 9 6 6 7 5 8 3 9 21 10 4 11 20 12 19 13
REMARK SMILES IDX 2 14 1 15 22 16 12 18 13 19 14 20 15 21 16 22 17 23 18 24
REMARK H PARENT 7 5 22 17
REMARK Flexibility Score: inf
ROOT
ATOM      1  C   UNL     1      93.696  97.562  74.094  1.00  0.00     0.010 C 
ENDROOT
BRANCH   1   2
ATOM      2  C   UNL     1      93.962  99.064  73.800  1.00  0.00     0.100 C 
BRANCH   2   3
ATOM      3  C   UNL     1      94.143  99.355  72.359  1.00  0.00     0.220 C 
ATOM      4  N   UNL     1      93.086  99.771  71.603  1.00  0.00    -0.352 N 
ATOM      5  H   UNL     1      92.206  99.812  72.095  1.00  0.00     0.163 HD
ATOM      6  O   UNL     1      95.288  99.235  71.860  1.00  0.00    -0.275 OA
BRANCH   4   7
ATOM      7  C   UNL     1      93.153 100.135  70.220  1.00  0.00     0.151 C 
BRANCH   7   8
ATOM      8  C   UNL     1      91.817 100.207  69.567  1.00  0.00    -0.025 A 
ATOM      9  C   UNL     1      89.734  99.112  68.852  1.00  0.00     0.160 A 
ATOM     10  C   UNL     1      89.251 100.346  68.363  1.00  0.00     0.157 A 
ATOM     11  C   UNL     1      91.019  99.049  69.432  1.00  0.00     0.056 A 
ATOM     12  C   UNL     1      90.053 101.498  68.456  1.00  0.00     0.050 A 
ATOM     13  C   UNL     1      91.322 101.433  69.062  1.00  0.00     0.009 A 
BRANCH   9  14
ATOM     14  O   UNL     1      88.979  97.978  68.732  1.00  0.00    -0.493 OA
ATOM     15  C   UNL     1      89.754  96.787  68.502  1.00  0.00     0.278 C 
ENDBRANCH   9  14
BRANCH  10  16
ATOM     16  O   UNL     1      88.019 100.436  67.798  1.00  0.00    -0.504 OA
ATOM     17  H   UNL     1      87.684  99.554  67.619  1.00  0.00     0.293 HD
ENDBRANCH  10  16
ENDBRANCH   7   8
ENDBRANCH   4   7
ENDBRANCH   2   3
ENDBRANCH   1   2
BRANCH   1  18
ATOM     18  C   UNL     1      94.866  96.902  74.877  1.00  0.00     0.001 C 
BRANCH  18  19
ATOM     19  C   UNL     1      94.437  95.670  75.723  1.00  0.00     0.000 C 
BRANCH  19  20
ATOM     20  C   UNL     1      92.898  95.453  75.678  1.00  0.00     0.000 C 
BRANCH  20  21
ATOM     21  C   UNL     1      92.212  95.465  77.072  1.00  0.00     0.003 C 
BRANCH  21  22
ATOM     22  C   UNL     1      91.724  94.066  77.569  1.00  0.00    -0.017 C 
ATOM     23  C   UNL     1      92.863  93.330  78.329  1.00  0.00     0.007 C 
ATOM     24  C   UNL     1      91.154  93.163  76.435  1.00  0.00     0.007 C 
ENDBRANCH  21  22
ENDBRANCH  20  21
ENDBRANCH  19  20
ENDBRANCH  18  19
ENDBRANCH   1  18
TORSDOF 11
ENDMDL
MODEL 6
REMARK VINA RESULT:    -4.665      1.355      2.065
REMARK INTER + INTRA:          -9.563
REMARK INTER:                  -8.050
REMARK INTRA:                  -1.513
REMARK UNBOUND:                -2.034
REMARK SMILES COc1cc(CNC(=O)CCCCCCC(C)C)ccc1O
REMARK SMILES IDX 11 1 10 2 8 3 7 4 9 6 6 7 5 8 3 9 21 10 4 11 20 12 19 13
REMARK SMILES IDX 2 14 1 15 22 16 12 18 13 19 14 20 15 21 16 22 17 23 18 24
REMARK H PARENT 7 5 22 17
REMARK Flexibility Score: inf
ROOT
ATOM      1  C   UNL     1      87.971 101.120  66.318  1.00  0.00     0.010 C 
ENDROOT
BRANCH   1   2
ATOM      2  C   UNL     1      87.888  99.573  66.433  1.00  0.00     0.100 C 
BRANCH   2   3
ATOM      3  C   UNL     1      88.918  98.996  67.325  1.00  0.00     0.220 C 
ATOM      4  N   UNL     1      88.757  99.035  68.679  1.00  0.00    -0.352 N 
ATOM      5  H   UNL     1      87.926  99.516  68.991  1.00  0.00     0.163 HD
ATOM      6  O   UNL     1      89.924  98.451  66.808  1.00  0.00    -0.275 OA
BRANCH   4   7
ATOM      7  C   UNL     1      89.655  98.460  69.635  1.00  0.00     0.151 C 
BRANCH   7   8
ATOM      8  C   UNL     1      90.354  99.477  70.469  1.00  0.00    -0.025 A 
ATOM      9  C   UNL     1      92.332 100.190  71.743  1.00  0.00     0.160 A 
ATOM     10  C   UNL     1      91.710 101.426  72.022  1.00  0.00     0.157 A 
ATOM     11  C   UNL     1      91.644  99.219  70.986  1.00  0.00     0.056 A 
ATOM     12  C   UNL     1      90.410 101.679  71.546  1.00  0.00     0.050 A 
ATOM     13  C   UNL     1      89.740 100.716  70.765  1.00  0.00     0.009 A 
BRANCH   9  14
ATOM     14  O   UNL     1      93.580  99.919  72.235  1.00  0.00    -0.493 OA
ATOM     15  C   UNL     1      93.578  99.015  73.354  1.00  0.00     0.278 C 
ENDBRANCH   9  14
BRANCH  10  16
ATOM     16  O   UNL     1      92.349 102.379  72.750  1.00  0.00    -0.504 OA
ATOM     17  H   UNL     1      92.196 103.240  72.353  1.00  0.00     0.293 HD
ENDBRANCH  10  16
ENDBRANCH   7   8
ENDBRANCH   4   7
ENDBRANCH   2   3
ENDBRANCH   1   2
BRANCH   1  18
ATOM     18  C   UNL     1      86.570 101.773  66.146  1.00  0.00     0.001 C 
BRANCH  18  19
ATOM     19  C   UNL     1      86.599 103.327  66.140  1.00  0.00     0.000 C 
BRANCH  19  20
ATOM     20  C   UNL     1      88.032 103.873  66.396  1.00  0.00     0.000 C 
BRANCH  20  21
ATOM     21  C   UNL     1      88.204 104.597  67.760  1.00  0.00     0.003 C 
BRANCH  21  22
ATOM     22  C   UNL     1      89.176 103.884  68.756  1.00  0.00    -0.017 C 
ATOM     23  C   UNL     1      89.642 104.872  69.862  1.00  0.00     0.007 C 
ATOM     24  C   UNL     1      90.405 103.222  68.065  1.00  0.00     0.007 C 
ENDBRANCH  21  22
ENDBRANCH  20  21
ENDBRANCH  19  20
ENDBRANCH  18  19
ENDBRANCH   1  18
TORSDOF 11
ENDMDL
MODEL 7
REMARK VINA RESULT:    -4.550     19.523     22.319
REMARK INTER + INTRA:          -9.377
REMARK INTER:                  -8.184
REMARK INTRA:                  -1.193
REMARK UNBOUND:                -2.034
REMARK SMILES COc1cc(CNC(=O)CCCCCCC(C)C)ccc1O
REMARK SMILES IDX 11 1 10 2 8 3 7 4 9 6 6 7 5 8 3 9 21 10 4 11 20 12 19 13
REMARK SMILES IDX 2 14 1 15 22 16 12 18 13 19 14 20 15 21 16 22 17 23 18 24
REMARK H PARENT 7 5 22 17
REMARK Flexibility Score: inf
ROOT
ATOM      1  C   UNL     1      99.224  82.933  74.219  1.00  0.00     0.010 C 
ENDROOT
BRANCH   1   2
ATOM      2  C   UNL     1      97.720  83.193  73.931  1.00  0.00     0.100 C 
BRANCH   2   3
ATOM      3  C   UNL     1      96.883  83.201  75.152  1.00  0.00     0.220 C 
ATOM      4  N   UNL     1      97.232  82.444  76.232  1.00  0.00    -0.352 N 
ATOM      5  H   UNL     1      98.054  81.873  76.098  1.00  0.00     0.163 HD
ATOM      6  O   UNL     1      95.865  83.935  75.179  1.00  0.00    -0.275 OA
BRANCH   4   7
ATOM      7  C   UNL     1      96.535  82.417  77.482  1.00  0.00     0.151 C 
BRANCH   7   8
ATOM      8  C   UNL     1      97.284  81.708  78.556  1.00  0.00    -0.025 A 
ATOM      9  C   UNL     1      97.699  81.292  80.944  1.00  0.00     0.160 A 
ATOM     10  C   UNL     1      98.676  80.329  80.609  1.00  0.00     0.157 A 
ATOM     11  C   UNL     1      97.025  81.986  79.917  1.00  0.00     0.056 A 
ATOM     12  C   UNL     1      98.970  80.072  79.258  1.00  0.00     0.050 A 
ATOM     13  C   UNL     1      98.273  80.747  78.238  1.00  0.00     0.009 A 
BRANCH   9  14
ATOM     14  O   UNL     1      97.433  81.578  82.255  1.00  0.00    -0.493 OA
ATOM     15  C   UNL     1      96.654  82.775  82.441  1.00  0.00     0.278 C 
ENDBRANCH   9  14
BRANCH  10  16
ATOM     16  O   UNL     1      99.342  79.647  81.577  1.00  0.00    -0.504 OA
ATOM     17  H   UNL     1      98.709  79.222  82.161  1.00  0.00     0.293 HD
ENDBRANCH  10  16
ENDBRANCH   7   8
ENDBRANCH   4   7
ENDBRANCH   2   3
ENDBRANCH   1   2
BRANCH   1  18
ATOM     18  C   UNL     1     100.147  83.924  73.455  1.00  0.00     0.001 C 
BRANCH  18  19
ATOM     19  C   UNL     1     101.530  83.325  73.073  1.00  0.00     0.000 C 
BRANCH  19  20
ATOM     20  C   UNL     1     101.502  81.770  73.086  1.00  0.00     0.000 C 
BRANCH  20  21
ATOM     21  C   UNL     1     102.397  81.127  74.181  1.00  0.00     0.003 C 
BRANCH  21  22
ATOM     22  C   UNL     1     101.779  79.865  74.868  1.00  0.00    -0.017 C 
ATOM     23  C   UNL     1     100.410  79.511  74.223  1.00  0.00     0.007 C 
ATOM     24  C   UNL     1     101.634  80.002  76.413  1.00  0.00     0.007 C 
ENDBRANCH  21  22
ENDBRANCH  20  21
ENDBRANCH  19  20
ENDBRANCH  18  19
ENDBRANCH   1  18
TORSDOF 11
ENDMDL
MODEL 8
REMARK VINA RESULT:    -4.537     18.663     21.876
REMARK INTER + INTRA:          -9.356
REMARK INTER:                  -8.580
REMARK INTRA:                  -0.776
REMARK UNBOUND:                -2.034
REMARK SMILES COc1cc(CNC(=O)CCCCCCC(C)C)ccc1O
REMARK SMILES IDX 11 1 10 2 8 3 7 4 9 6 6 7 5 8 3 9 21 10 4 11 20 12 19 13
REMARK SMILES IDX 2 14 1 15 22 16 12 18 13 19 14 20 15 21 16 22 17 23 18 24
REMARK H PARENT 7 5 22 17
REMARK Flexibility Score: inf
ROOT
ATOM      1  C   UNL     1      76.557  89.601  66.741  1.00  0.00     0.010 C 
ENDROOT
BRANCH   1   2
ATOM      2  C   UNL     1      77.304  88.668  67.733  1.00  0.00     0.100 C 
BRANCH   2   3
ATOM      3  C   UNL     1      76.681  87.332  67.863  1.00  0.00     0.220 C 
ATOM      4  N   UNL     1      77.456  86.210  67.893  1.00  0.00    -0.352 N 
ATOM      5  H   UNL     1      78.444  86.378  67.777  1.00  0.00     0.163 HD
ATOM      6  O   UNL     1      75.432  87.259  67.968  1.00  0.00    -0.275 OA
BRANCH   4   7
ATOM      7  C   UNL     1      76.971  84.875  68.072  1.00  0.00     0.151 C 
BRANCH   7   8
ATOM      8  C   UNL     1      76.323  84.318  66.852  1.00  0.00    -0.025 A 
ATOM      9  C   UNL     1      74.303  83.567  65.668  1.00  0.00     0.160 A 
ATOM     10  C   UNL     1      75.075  83.297  64.517  1.00  0.00     0.157 A 
ATOM     11  C   UNL     1      74.934  84.056  66.831  1.00  0.00     0.056 A 
ATOM     12  C   UNL     1      76.464  83.516  64.539  1.00  0.00     0.050 A 
ATOM     13  C   UNL     1      77.084  84.033  65.694  1.00  0.00     0.009 A 
BRANCH   9  14
ATOM     14  O   UNL     1      72.957  83.320  65.671  1.00  0.00    -0.493 OA
ATOM     15  C   UNL     1      72.174  84.378  66.253  1.00  0.00     0.278 C 
ENDBRANCH   9  14
BRANCH  10  16
ATOM     16  O   UNL     1      74.493  82.823  63.384  1.00  0.00    -0.504 OA
ATOM     17  H   UNL     1      74.729  81.900  63.266  1.00  0.00     0.293 HD
ENDBRANCH  10  16
ENDBRANCH   7   8
ENDBRANCH   4   7
ENDBRANCH   2   3
ENDBRANCH   1   2
BRANCH   1  18
ATOM     18  C   UNL     1      75.729  90.695  67.473  1.00  0.00     0.001 C 
BRANCH  18  19
ATOM     19  C   UNL     1      75.759  90.571  69.023  1.00  0.00     0.000 C 
BRANCH  19  20
ATOM     20  C   UNL     1      74.380  90.919  69.651  1.00  0.00     0.000 C 
BRANCH  20  21
ATOM     21  C   UNL     1      73.397  89.719  69.733  1.00  0.00     0.003 C 
BRANCH  21  22
ATOM     22  C   UNL     1      72.173  89.944  70.680  1.00  0.00    -0.017 C 
ATOM     23  C   UNL     1      70.845  89.626  69.938  1.00  0.00     0.007 C 
ATOM     24  C   UNL     1      72.120  91.370  71.305  1.00  0.00     0.007 C 
ENDBRANCH  21  22
ENDBRANCH  20  21
ENDBRANCH  19  20
ENDBRANCH  18  19
ENDBRANCH   1  18
TORSDOF 11
ENDMDL
MODEL 9
REMARK VINA RESULT:    -4.532     19.670     22.435
REMARK INTER + INTRA:          -9.348
REMARK INTER:                  -8.348
REMARK INTRA:                  -1.000
REMARK UNBOUND:                -2.034
REMARK SMILES COc1cc(CNC(=O)CCCCCCC(C)C)ccc1O
REMARK SMILES IDX 11 1 10 2 8 3 7 4 9 6 6 7 5 8 3 9 21 10 4 11 20 12 19 13
REMARK SMILES IDX 2 14 1 15 22 16 12 18 13 19 14 20 15 21 16 22 17 23 18 24
REMARK H PARENT 7 5 22 17
REMARK Flexibility Score: inf
ROOT
ATOM      1  C   UNL     1      97.418  80.046  75.313  1.00  0.00     0.010 C 
ENDROOT
BRANCH   1   2
ATOM      2  C   UNL     1      96.625  80.574  76.541  1.00  0.00     0.100 C 
BRANCH   2   3
ATOM      3  C   UNL     1      97.495  81.095  77.619  1.00  0.00     0.220 C 
ATOM      4  N   UNL     1      97.762  80.332  78.718  1.00  0.00    -0.352 N 
ATOM      5  H   UNL     1      97.289  79.440  78.737  1.00  0.00     0.163 HD
ATOM      6  O   UNL     1      97.998  82.237  77.487  1.00  0.00    -0.275 OA
BRANCH   4   7
ATOM      7  C   UNL     1      98.631  80.706  79.792  1.00  0.00     0.151 C 
BRANCH   7   8
ATOM      8  C   UNL     1      97.901  81.080  81.035  1.00  0.00    -0.025 A 
ATOM      9  C   UNL     1      97.568  80.849  83.460  1.00  0.00     0.160 A 
ATOM     10  C   UNL     1      96.545  81.822  83.415  1.00  0.00     0.157 A 
ATOM     11  C   UNL     1      98.224  80.473  82.270  1.00  0.00     0.056 A 
ATOM     12  C   UNL     1      96.188  82.405  82.185  1.00  0.00     0.050 A 
ATOM     13  C   UNL     1      96.867  82.046  81.005  1.00  0.00     0.009 A 
BRANCH   9  14
ATOM     14  O   UNL     1      97.896  80.247  84.645  1.00  0.00    -0.493 OA
ATOM     15  C   UNL     1      99.314  80.156  84.876  1.00  0.00     0.278 C 
ENDBRANCH   9  14
BRANCH  10  16
ATOM     16  O   UNL     1      95.895  82.202  84.546  1.00  0.00    -0.504 OA
ATOM     17  H   UNL     1      95.681  83.137  84.492  1.00  0.00     0.293 HD
ENDBRANCH  10  16
ENDBRANCH   7   8
ENDBRANCH   4   7
ENDBRANCH   2   3
ENDBRANCH   1   2
BRANCH   1  18
ATOM     18  C   UNL     1      97.115  80.861  74.024  1.00  0.00     0.001 C 
BRANCH  18  19
ATOM     19  C   UNL     1      96.560  82.287  74.300  1.00  0.00     0.000 C 
BRANCH  19  20
ATOM     20  C   UNL     1      97.578  83.387  73.889  1.00  0.00     0.000 C 
BRANCH  20  21
ATOM     21  C   UNL     1      99.060  83.028  74.190  1.00  0.00     0.003 C 
BRANCH  21  22
ATOM     22  C   UNL     1     100.056  83.350  73.029  1.00  0.00    -0.017 C 
ATOM     23  C   UNL     1      99.709  84.719  72.379  1.00  0.00     0.007 C 
ATOM     24  C   UNL     1     100.132  82.235  71.944  1.00  0.00     0.007 C 
ENDBRANCH  21  22
ENDBRANCH  20  21
ENDBRANCH  19  20
ENDBRANCH  18  19
ENDBRANCH   1  18
TORSDOF 11
ENDMDL
MODEL 10
REMARK VINA RESULT:    -4.447     23.018     25.226
REMARK INTER + INTRA:          -9.211
REMARK INTER:                  -8.644
REMARK INTRA:                  -0.567
REMARK UNBOUND:                -2.034
REMARK SMILES COc1cc(CNC(=O)CCCCCCC(C)C)ccc1O
REMARK SMILES IDX 11 1 10 2 8 3 7 4 9 6 6 7 5 8 3 9 21 10 4 11 20 12 19 13
REMARK SMILES IDX 2 14 1 15 22 16 12 18 13 19 14 20 15 21 16 22 17 23 18 24
REMARK H PARENT 7 5 22 17
REMARK Flexibility Score: inf
ROOT
ATOM      1  C   UNL     1      94.509  84.781  87.329  1.00  0.00     0.010 C 
ENDROOT
BRANCH   1   2
ATOM      2  C   UNL     1      94.526  84.644  85.781  1.00  0.00     0.100 C 
BRANCH   2   3
ATOM      3  C   UNL     1      94.242  83.268  85.313  1.00  0.00     0.220 C 
ATOM      4  N   UNL     1      92.987  82.746  85.431  1.00  0.00    -0.352 N 
ATOM      5  H   UNL     1      92.320  83.350  85.889  1.00  0.00     0.163 HD
ATOM      6  O   UNL     1      95.171  82.608  84.787  1.00  0.00    -0.275 OA
BRANCH   4   7
ATOM      7  C   UNL     1      92.582  81.455  84.963  1.00  0.00     0.151 C 
BRANCH   7   8
ATOM      8  C   UNL     1      91.144  81.164  85.214  1.00  0.00    -0.025 A 
ATOM      9  C   UNL     1      89.101  79.903  84.679  1.00  0.00     0.160 A 
ATOM     10  C   UNL     1      88.414  80.572  85.715  1.00  0.00     0.157 A 
ATOM     11  C   UNL     1      90.453  80.217  84.424  1.00  0.00     0.056 A 
ATOM     12  C   UNL     1      89.080  81.545  86.482  1.00  0.00     0.050 A 
ATOM     13  C   UNL     1      90.438  81.832  86.242  1.00  0.00     0.009 A 
BRANCH   9  14
ATOM     14  O   UNL     1      88.452  78.983  83.901  1.00  0.00    -0.493 OA
ATOM     15  C   UNL     1      88.694  77.619  84.292  1.00  0.00     0.278 C 
ENDBRANCH   9  14
BRANCH  10  16
ATOM     16  O   UNL     1      87.112  80.291  85.982  1.00  0.00    -0.504 OA
ATOM     17  H   UNL     1      86.568  80.557  85.236  1.00  0.00     0.293 HD
ENDBRANCH  10  16
ENDBRANCH   7   8
ENDBRANCH   4   7
ENDBRANCH   2   3
ENDBRANCH   1   2
BRANCH   1  18
ATOM     18  C   UNL     1      95.844  85.356  87.882  1.00  0.00     0.001 C 
BRANCH  18  19
ATOM     19  C   UNL     1      95.684  86.139  89.216  1.00  0.00     0.000 C 
BRANCH  19  20
ATOM     20  C   UNL     1      96.339  87.547  89.135  1.00  0.00     0.000 C 
BRANCH  20  21
ATOM     21  C   UNL     1      95.410  88.649  88.554  1.00  0.00     0.003 C 
BRANCH  21  22
ATOM     22  C   UNL     1      94.921  89.704  89.599  1.00  0.00    -0.017 C 
ATOM     23  C   UNL     1      93.414  89.493  89.920  1.00  0.00     0.007 C 
ATOM     24  C   UNL     1      95.186  91.177  89.172  1.00  0.00     0.007 C 
ENDBRANCH  21  22
ENDBRANCH  20  21
ENDBRANCH  19  20
ENDBRANCH  18  19
ENDBRANCH   1  18
TORSDOF 11
ENDMDL
