MODEL 1
REMARK VINA RESULT:    -6.479      0.000      0.000
REMARK INTER + INTRA:         -10.824
REMARK INTER:                 -10.077
REMARK INTRA:                  -0.747
REMARK UNBOUND:                -0.747
REMARK SMILES COc1cc(CNC(=O)CCCC/C=C/C(C)C)ccc1O
REMARK SMILES IDX 10 1 8 2 7 3 9 5 6 6 5 7 3 8 21 9 4 10 20 11 19 12 2 13 1 14
REMARK SMILES IDX 22 15 11 17 12 18 13 19 14 20 15 21 16 22 17 23 18 24
REMARK H PARENT 7 4 22 16
REMARK Flexibility Score: inf
ROOT
ATOM      1  C   UNL     1      77.664  84.035  68.101  1.00  0.00     0.100 C 
ENDROOT
BRANCH   1   2
ATOM      2  C   UNL     1      77.765  83.472  66.740  1.00  0.00     0.220 C 
ATOM      3  N   UNL     1      76.927  82.475  66.341  1.00  0.00    -0.352 N 
ATOM      4  H   UNL     1      76.276  82.157  67.046  1.00  0.00     0.163 HD
ATOM      5  O   UNL     1      78.623  83.953  65.962  1.00  0.00    -0.275 OA
BRANCH   3   6
ATOM      6  C   UNL     1      76.922  81.886  65.040  1.00  0.00     0.151 C 
BRANCH   6   7
ATOM      7  C   UNL     1      75.550  81.480  64.629  1.00  0.00    -0.025 A 
ATOM      8  C   UNL     1      73.151  81.262  65.141  1.00  0.00     0.160 A 
ATOM      9  C   UNL     1      72.925  80.729  63.855  1.00  0.00     0.157 A 
ATOM     10  C   UNL     1      74.460  81.630  65.516  1.00  0.00     0.056 A 
ATOM     11  C   UNL     1      74.004  80.555  62.967  1.00  0.00     0.050 A 
ATOM     12  C   UNL     1      75.306  80.936  63.346  1.00  0.00     0.009 A 
BRANCH   8  13
ATOM     13  O   UNL     1      72.115  81.372  66.033  1.00  0.00    -0.493 OA
ATOM     14  C   UNL     1      71.912  82.705  66.535  1.00  0.00     0.278 C 
ENDBRANCH   8  13
BRANCH   9  15
ATOM     15  O   UNL     1      71.675  80.377  63.458  1.00  0.00    -0.504 OA
ATOM     16  H   UNL     1      71.104  81.149  63.472  1.00  0.00     0.293 HD
ENDBRANCH   9  15
ENDBRANCH   6   7
ENDBRANCH   3   6
ENDBRANCH   1   2
BRANCH   1  17
ATOM     17  C   UNL     1      78.241  85.475  68.169  1.00  0.00     0.010 C 
BRANCH  17  18
ATOM     18  C   UNL     1      77.828  86.231  69.463  1.00  0.00     0.005 C 
BRANCH  18  19
ATOM     19  C   UNL     1      76.502  85.693  70.064  1.00  0.00     0.027 C 
BRANCH  19  20
ATOM     20  C   UNL     1      75.567  86.764  70.373  1.00  0.00    -0.031 C 
ATOM     21  C   UNL     1      75.811  88.068  70.152  1.00  0.00    -0.028 C 
BRANCH  21  22
ATOM     22  C   UNL     1      74.847  89.127  70.452  1.00  0.00     0.005 C 
ATOM     23  C   UNL     1      73.780  88.676  71.487  1.00  0.00     0.012 C 
ATOM     24  C   UNL     1      75.585  90.401  70.938  1.00  0.00     0.012 C 
ENDBRANCH  21  22
ENDBRANCH  19  20
ENDBRANCH  18  19
ENDBRANCH  17  18
ENDBRANCH   1  17
TORSDOF 10
ENDMDL
MODEL 2
REMARK VINA RESULT:    -6.463     20.512     23.525
REMARK INTER + INTRA:         -10.799
REMARK INTER:                 -10.028
REMARK INTRA:                  -0.771
REMARK UNBOUND:                -0.747
REMARK SMILES COc1cc(CNC(=O)CCCC/C=C/C(C)C)ccc1O
REMARK SMILES IDX 10 1 8 2 7 3 9 5 6 6 5 7 3 8 21 9 4 10 20 11 19 12 2 13 1 14
REMARK SMILES IDX 22 15 11 17 12 18 13 19 14 20 15 21 16 22 17 23 18 24
REMARK H PARENT 7 4 22 16
REMARK Flexibility Score: inf
ROOT
ATOM      1  C   UNL     1      92.550 100.331  74.416  1.00  0.00     0.100 C 
ENDROOT
BRANCH   1   2
ATOM      2  C   UNL     1      93.518  99.499  75.157  1.00  0.00     0.220 C 
ATOM      3  N   UNL     1      93.478  98.140  75.059  1.00  0.00    -0.352 N 
ATOM      4  H   UNL     1      92.739  97.776  74.475  1.00  0.00     0.163 HD
ATOM      5  O   UNL     1      94.385 100.078  75.855  1.00  0.00    -0.275 OA
BRANCH   3   6
ATOM      6  C   UNL     1      94.387  97.249  75.708  1.00  0.00     0.151 C 
BRANCH   6   7
ATOM      7  C   UNL     1      93.677  96.321  76.630  1.00  0.00    -0.025 A 
ATOM      8  C   UNL     1      91.580  95.494  77.620  1.00  0.00     0.160 A 
ATOM      9  C   UNL     1      92.306  94.545  78.368  1.00  0.00     0.157 A 
ATOM     10  C   UNL     1      92.271  96.374  76.760  1.00  0.00     0.056 A 
ATOM     11  C   UNL     1      93.710  94.494  78.264  1.00  0.00     0.050 A 
ATOM     12  C   UNL     1      94.391  95.368  77.394  1.00  0.00     0.009 A 
BRANCH   8  13
ATOM     13  O   UNL     1      90.219  95.592  77.768  1.00  0.00    -0.493 OA
ATOM     14  C   UNL     1      89.468  94.814  76.818  1.00  0.00     0.278 C 
ENDBRANCH   8  13
BRANCH   9  15
ATOM     15  O   UNL     1      91.670  93.676  79.195  1.00  0.00    -0.504 OA
ATOM     16  H   UNL     1      90.733  93.663  78.987  1.00  0.00     0.293 HD
ENDBRANCH   9  15
ENDBRANCH   6   7
ENDBRANCH   3   6
ENDBRANCH   1   2
BRANCH   1  17
ATOM     17  C   UNL     1      92.158  99.684  73.061  1.00  0.00     0.010 C 
BRANCH  17  18
ATOM     18  C   UNL     1      91.734 100.730  71.992  1.00  0.00     0.005 C 
BRANCH  18  19
ATOM     19  C   UNL     1      90.208 100.696  71.705  1.00  0.00     0.027 C 
BRANCH  19  20
ATOM     20  C   UNL     1      89.773  99.399  71.208  1.00  0.00    -0.031 C 
ATOM     21  C   UNL     1      89.241  99.197  69.989  1.00  0.00    -0.028 C 
BRANCH  21  22
ATOM     22  C   UNL     1      88.828  97.881  69.502  1.00  0.00     0.005 C 
ATOM     23  C   UNL     1      88.820  97.802  67.951  1.00  0.00     0.012 C 
ATOM     24  C   UNL     1      89.736  96.777  70.107  1.00  0.00     0.012 C 
ENDBRANCH  21  22
ENDBRANCH  19  20
ENDBRANCH  18  19
ENDBRANCH  17  18
ENDBRANCH   1  17
TORSDOF 10
ENDMDL
MODEL 3
REMARK VINA RESULT:    -6.323     22.489     26.821
REMARK INTER + INTRA:         -10.582
REMARK INTER:                  -9.512
REMARK INTRA:                  -1.070
REMARK UNBOUND:                -0.747
REMARK SMILES COc1cc(CNC(=O)CCCC/C=C/C(C)C)ccc1O
REMARK SMILES IDX 10 1 8 2 7 3 9 5 6 6 5 7 3 8 21 9 4 10 20 11 19 12 2 13 1 14
REMARK SMILES IDX 22 15 11 17 12 18 13 19 14 20 15 21 16 22 17 23 18 24
REMARK H PARENT 7 4 22 16
REMARK Flexibility Score: inf
ROOT
ATOM      1  C   UNL     1      96.052  98.286  75.529  1.00  0.00     0.100 C 
ENDROOT
BRANCH   1   2
ATOM      2  C   UNL     1      96.761  98.705  76.754  1.00  0.00     0.220 C 
ATOM      3  N   UNL     1      96.536  98.066  77.936  1.00  0.00    -0.352 N 
ATOM      4  H   UNL     1      95.848  97.326  77.896  1.00  0.00     0.163 HD
ATOM      5  O   UNL     1      97.588  99.645  76.667  1.00  0.00    -0.275 OA
BRANCH   3   6
ATOM      6  C   UNL     1      97.192  98.372  79.167  1.00  0.00     0.151 C 
BRANCH   6   7
ATOM      7  C   UNL     1      96.499  97.747  80.326  1.00  0.00    -0.025 A 
ATOM      8  C   UNL     1      95.378  95.803  81.340  1.00  0.00     0.160 A 
ATOM      9  C   UNL     1      95.192  96.532  82.533  1.00  0.00     0.157 A 
ATOM     10  C   UNL     1      96.027  96.417  80.249  1.00  0.00     0.056 A 
ATOM     11  C   UNL     1      95.640  97.865  82.618  1.00  0.00     0.050 A 
ATOM     12  C   UNL     1      96.297  98.466  81.527  1.00  0.00     0.009 A 
BRANCH   8  13
ATOM     13  O   UNL     1      94.886  94.528  81.230  1.00  0.00    -0.493 OA
ATOM     14  C   UNL     1      95.459  93.769  80.150  1.00  0.00     0.278 C 
ENDBRANCH   8  13
BRANCH   9  15
ATOM     15  O   UNL     1      94.584  95.966  83.607  1.00  0.00    -0.504 OA
ATOM     16  H   UNL     1      93.902  96.556  83.937  1.00  0.00     0.293 HD
ENDBRANCH   9  15
ENDBRANCH   6   7
ENDBRANCH   3   6
ENDBRANCH   1   2
BRANCH   1  17
ATOM     17  C   UNL     1      94.629  97.754  75.845  1.00  0.00     0.010 C 
BRANCH  17  18
ATOM     18  C   UNL     1      94.498  96.218  75.643  1.00  0.00     0.005 C 
BRANCH  18  19
ATOM     19  C   UNL     1      94.325  95.459  76.986  1.00  0.00     0.027 C 
BRANCH  19  20
ATOM     20  C   UNL     1      93.150  94.601  76.982  1.00  0.00    -0.031 C 
ATOM     21  C   UNL     1      92.051  94.821  77.727  1.00  0.00    -0.028 C 
BRANCH  21  22
ATOM     22  C   UNL     1      90.872  93.956  77.692  1.00  0.00     0.005 C 
ATOM     23  C   UNL     1      89.555  94.761  77.514  1.00  0.00     0.012 C 
ATOM     24  C   UNL     1      91.023  92.889  76.577  1.00  0.00     0.012 C 
ENDBRANCH  21  22
ENDBRANCH  19  20
ENDBRANCH  18  19
ENDBRANCH  17  18
ENDBRANCH   1  17
TORSDOF 10
ENDMDL
MODEL 4
REMARK VINA RESULT:    -6.260     20.654     23.987
REMARK INTER + INTRA:         -10.484
REMARK INTER:                  -9.749
REMARK INTRA:                  -0.735
REMARK UNBOUND:                -0.747
REMARK SMILES COc1cc(CNC(=O)CCCC/C=C/C(C)C)ccc1O
REMARK SMILES IDX 10 1 8 2 7 3 9 5 6 6 5 7 3 8 21 9 4 10 20 11 19 12 2 13 1 14
REMARK SMILES IDX 22 15 11 17 12 18 13 19 14 20 15 21 16 22 17 23 18 24
REMARK H PARENT 7 4 22 16
REMARK Flexibility Score: inf
ROOT
ATOM      1  C   UNL     1      92.552 100.421  74.419  1.00  0.00     0.100 C 
ENDROOT
BRANCH   1   2
ATOM      2  C   UNL     1      93.468  99.641  75.274  1.00  0.00     0.220 C 
ATOM      3  N   UNL     1      93.497  98.281  75.195  1.00  0.00    -0.352 N 
ATOM      4  H   UNL     1      92.841  97.877  74.541  1.00  0.00     0.163 HD
ATOM      5  O   UNL     1      94.229 100.266  76.051  1.00  0.00    -0.275 OA
BRANCH   3   6
ATOM      6  C   UNL     1      94.366  97.438  75.953  1.00  0.00     0.151 C 
BRANCH   6   7
ATOM      7  C   UNL     1      93.600  96.468  76.782  1.00  0.00    -0.025 A 
ATOM      8  C   UNL     1      93.562  94.665  78.458  1.00  0.00     0.160 A 
ATOM      9  C   UNL     1      92.154  94.625  78.385  1.00  0.00     0.157 A 
ATOM     10  C   UNL     1      94.271  95.583  77.656  1.00  0.00     0.056 A 
ATOM     11  C   UNL     1      91.473  95.488  77.504  1.00  0.00     0.050 A 
ATOM     12  C   UNL     1      92.188  96.410  76.716  1.00  0.00     0.009 A 
BRANCH   8  13
ATOM     13  O   UNL     1      94.234  93.782  79.265  1.00  0.00    -0.493 OA
ATOM     14  C   UNL     1      94.774  94.373  80.461  1.00  0.00     0.278 C 
ENDBRANCH   8  13
BRANCH   9  15
ATOM     15  O   UNL     1      91.441  93.762  79.154  1.00  0.00    -0.504 OA
ATOM     16  H   UNL     1      90.653  93.487  78.680  1.00  0.00     0.293 HD
ENDBRANCH   9  15
ENDBRANCH   6   7
ENDBRANCH   3   6
ENDBRANCH   1   2
BRANCH   1  17
ATOM     17  C   UNL     1      92.257  99.691  73.081  1.00  0.00     0.010 C 
BRANCH  17  18
ATOM     18  C   UNL     1      91.823 100.661  71.946  1.00  0.00     0.005 C 
BRANCH  18  19
ATOM     19  C   UNL     1      90.287 100.653  71.718  1.00  0.00     0.027 C 
BRANCH  19  20
ATOM     20  C   UNL     1      89.819  99.379  71.192  1.00  0.00    -0.031 C 
ATOM     21  C   UNL     1      89.280  99.218  69.970  1.00  0.00    -0.028 C 
BRANCH  21  22
ATOM     22  C   UNL     1      88.833  97.924  69.454  1.00  0.00     0.005 C 
ATOM     23  C   UNL     1      88.843  97.873  67.901  1.00  0.00     0.012 C 
ATOM     24  C   UNL     1      89.698  96.782  70.050  1.00  0.00     0.012 C 
ENDBRANCH  21  22
ENDBRANCH  19  20
ENDBRANCH  18  19
ENDBRANCH  17  18
ENDBRANCH   1  17
TORSDOF 10
ENDMDL
MODEL 5
REMARK VINA RESULT:    -5.953     22.368     26.326
REMARK INTER + INTRA:         -10.006
REMARK INTER:                  -8.993
REMARK INTRA:                  -1.013
REMARK UNBOUND:                -0.747
REMARK SMILES COc1cc(CNC(=O)CCCC/C=C/C(C)C)ccc1O
REMARK SMILES IDX 10 1 8 2 7 3 9 5 6 6 5 7 3 8 21 9 4 10 20 11 19 12 2 13 1 14
REMARK SMILES IDX 22 15 11 17 12 18 13 19 14 20 15 21 16 22 17 23 18 24
REMARK H PARENT 7 4 22 16
REMARK Flexibility Score: inf
ROOT
ATOM      1  C   UNL     1      96.242  98.702  75.345  1.00  0.00     0.100 C 
ENDROOT
BRANCH   1   2
ATOM      2  C   UNL     1      96.459  98.774  76.802  1.00  0.00     0.220 C 
ATOM      3  N   UNL     1      95.997  97.787  77.620  1.00  0.00    -0.352 N 
ATOM      4  H   UNL     1      95.492  97.047  77.152  1.00  0.00     0.163 HD
ATOM      5  O   UNL     1      97.098  99.753  77.258  1.00  0.00    -0.275 OA
BRANCH   3   6
ATOM      6  C   UNL     1      96.183  97.746  79.035  1.00  0.00     0.151 C 
BRANCH   6   7
ATOM      7  C   UNL     1      95.905  96.391  79.585  1.00  0.00    -0.025 A 
ATOM      8  C   UNL     1      95.904  94.823  81.482  1.00  0.00     0.160 A 
ATOM      9  C   UNL     1      95.362  93.819  80.653  1.00  0.00     0.157 A 
ATOM     10  C   UNL     1      96.172  96.097  80.941  1.00  0.00     0.056 A 
ATOM     11  C   UNL     1      95.109  94.091  79.294  1.00  0.00     0.050 A 
ATOM     12  C   UNL     1      95.369  95.371  78.765  1.00  0.00     0.009 A 
BRANCH   8  13
ATOM     13  O   UNL     1      96.213  94.543  82.789  1.00  0.00    -0.493 OA
ATOM     14  C   UNL     1      97.517  94.999  83.194  1.00  0.00     0.278 C 
ENDBRANCH   8  13
BRANCH   9  15
ATOM     15  O   UNL     1      95.080  92.585  81.147  1.00  0.00    -0.504 OA
ATOM     16  H   UNL     1      95.452  91.916  80.568  1.00  0.00     0.293 HD
ENDBRANCH   9  15
ENDBRANCH   6   7
ENDBRANCH   3   6
ENDBRANCH   1   2
BRANCH   1  17
ATOM     17  C   UNL     1      94.736  98.548  74.998  1.00  0.00     0.010 C 
BRANCH  17  18
ATOM     18  C   UNL     1      94.194  97.119  75.280  1.00  0.00     0.005 C 
BRANCH  18  19
ATOM     19  C   UNL     1      92.855  97.140  76.065  1.00  0.00     0.027 C 
BRANCH  19  20
ATOM     20  C   UNL     1      92.475  95.816  76.535  1.00  0.00    -0.031 C 
ATOM     21  C   UNL     1      91.282  95.522  77.084  1.00  0.00    -0.028 C 
BRANCH  21  22
ATOM     22  C   UNL     1      90.914  94.178  77.531  1.00  0.00     0.005 C 
ATOM     23  C   UNL     1      91.379  93.078  76.537  1.00  0.00     0.012 C 
ATOM     24  C   UNL     1      91.477  93.914  78.951  1.00  0.00     0.012 C 
ENDBRANCH  21  22
ENDBRANCH  19  20
ENDBRANCH  18  19
ENDBRANCH  17  18
ENDBRANCH   1  17
TORSDOF 10
ENDMDL
MODEL 6
REMARK VINA RESULT:    -5.937      1.957      2.683
REMARK INTER + INTRA:          -9.980
REMARK INTER:                  -9.157
REMARK INTRA:                  -0.823
REMARK UNBOUND:                -0.747
REMARK SMILES COc1cc(CNC(=O)CCCC/C=C/C(C)C)ccc1O
REMARK SMILES IDX 10 1 8 2 7 3 9 5 6 6 5 7 3 8 21 9 4 10 20 11 19 12 2 13 1 14
REMARK SMILES IDX 22 15 11 17 12 18 13 19 14 20 15 21 16 22 17 23 18 24
REMARK H PARENT 7 4 22 16
REMARK Flexibility Score: inf
ROOT
ATOM      1  C   UNL     1      77.862  85.396  69.856  1.00  0.00     0.100 C 
ENDROOT
BRANCH   1   2
ATOM      2  C   UNL     1      77.990  85.265  68.392  1.00  0.00     0.220 C 
ATOM      3  N   UNL     1      78.239  84.051  67.826  1.00  0.00    -0.352 N 
ATOM      4  H   UNL     1      78.347  83.289  68.481  1.00  0.00     0.163 HD
ATOM      5  O   UNL     1      77.841  86.295  67.690  1.00  0.00    -0.275 OA
BRANCH   3   6
ATOM      6  C   UNL     1      78.349  83.814  66.422  1.00  0.00     0.151 C 
BRANCH   6   7
ATOM      7  C   UNL     1      77.088  83.254  65.863  1.00  0.00    -0.025 A 
ATOM      8  C   UNL     1      74.937  83.588  64.714  1.00  0.00     0.160 A 
ATOM      9  C   UNL     1      74.689  82.201  64.773  1.00  0.00     0.157 A 
ATOM     10  C   UNL     1      76.131  84.101  65.260  1.00  0.00     0.056 A 
ATOM     11  C   UNL     1      75.625  81.346  65.388  1.00  0.00     0.050 A 
ATOM     12  C   UNL     1      76.820  81.866  65.920  1.00  0.00     0.009 A 
BRANCH   8  13
ATOM     13  O   UNL     1      73.999  84.432  64.175  1.00  0.00    -0.493 OA
ATOM     14  C   UNL     1      74.526  85.703  63.753  1.00  0.00     0.278 C 
ENDBRANCH   8  13
BRANCH   9  15
ATOM     15  O   UNL     1      73.554  81.673  64.245  1.00  0.00    -0.504 OA
ATOM     16  H   UNL     1      73.482  80.750  64.498  1.00  0.00     0.293 HD
ENDBRANCH   9  15
ENDBRANCH   6   7
ENDBRANCH   3   6
ENDBRANCH   1   2
BRANCH   1  17
ATOM     17  C   UNL     1      77.020  84.242  70.463  1.00  0.00     0.010 C 
BRANCH  17  18
ATOM     18  C   UNL     1      75.704  84.737  71.126  1.00  0.00     0.005 C 
BRANCH  18  19
ATOM     19  C   UNL     1      74.816  85.548  70.144  1.00  0.00     0.027 C 
BRANCH  19  20
ATOM     20  C   UNL     1      74.899  86.980  70.387  1.00  0.00    -0.031 C 
ATOM     21  C   UNL     1      73.836  87.768  70.635  1.00  0.00    -0.028 C 
BRANCH  21  22
ATOM     22  C   UNL     1      73.945  89.203  70.896  1.00  0.00     0.005 C 
ATOM     23  C   UNL     1      73.330  89.601  72.266  1.00  0.00     0.012 C 
ATOM     24  C   UNL     1      75.426  89.654  70.802  1.00  0.00     0.012 C 
ENDBRANCH  21  22
ENDBRANCH  19  20
ENDBRANCH  18  19
ENDBRANCH  17  18
ENDBRANCH   1  17
TORSDOF 10
ENDMDL
MODEL 7
REMARK VINA RESULT:    -5.833      1.257      2.069
REMARK INTER + INTRA:          -9.819
REMARK INTER:                  -9.119
REMARK INTRA:                  -0.700
REMARK UNBOUND:                -0.747
REMARK SMILES COc1cc(CNC(=O)CCCC/C=C/C(C)C)ccc1O
REMARK SMILES IDX 10 1 8 2 7 3 9 5 6 6 5 7 3 8 21 9 4 10 20 11 19 12 2 13 1 14
REMARK SMILES IDX 22 15 11 17 12 18 13 19 14 20 15 21 16 22 17 23 18 24
REMARK H PARENT 7 4 22 16
REMARK Flexibility Score: inf
ROOT
ATOM      1  C   UNL     1      76.709  85.028  69.883  1.00  0.00     0.100 C 
ENDROOT
BRANCH   1   2
ATOM      2  C   UNL     1      77.364  84.466  68.687  1.00  0.00     0.220 C 
ATOM      3  N   UNL     1      76.674  83.655  67.837  1.00  0.00    -0.352 N 
ATOM      4  H   UNL     1      75.719  83.467  68.109  1.00  0.00     0.163 HD
ATOM      5  O   UNL     1      78.561  84.774  68.467  1.00  0.00    -0.275 OA
BRANCH   3   6
ATOM      6  C   UNL     1      77.205  83.087  66.639  1.00  0.00     0.151 C 
BRANCH   6   7
ATOM      7  C   UNL     1      76.163  82.347  65.877  1.00  0.00    -0.025 A 
ATOM      8  C   UNL     1      73.827  81.609  65.630  1.00  0.00     0.160 A 
ATOM      9  C   UNL     1      74.159  80.957  64.425  1.00  0.00     0.157 A 
ATOM     10  C   UNL     1      74.831  82.295  66.345  1.00  0.00     0.056 A 
ATOM     11  C   UNL     1      75.487  80.983  63.955  1.00  0.00     0.050 A 
ATOM     12  C   UNL     1      76.480  81.681  64.670  1.00  0.00     0.009 A 
BRANCH   8  13
ATOM     13  O   UNL     1      72.550  81.530  66.125  1.00  0.00    -0.493 OA
ATOM     14  C   UNL     1      71.957  82.807  66.426  1.00  0.00     0.278 C 
ENDBRANCH   8  13
BRANCH   9  15
ATOM     15  O   UNL     1      73.214  80.298  63.705  1.00  0.00    -0.504 OA
ATOM     16  H   UNL     1      72.374  80.336  64.169  1.00  0.00     0.293 HD
ENDBRANCH   9  15
ENDBRANCH   6   7
ENDBRANCH   3   6
ENDBRANCH   1   2
BRANCH   1  17
ATOM     17  C   UNL     1      75.189  85.244  69.655  1.00  0.00     0.010 C 
BRANCH  17  18
ATOM     18  C   UNL     1      74.724  86.686  70.003  1.00  0.00     0.005 C 
BRANCH  18  19
ATOM     19  C   UNL     1      75.868  87.726  69.863  1.00  0.00     0.027 C 
BRANCH  19  20
ATOM     20  C   UNL     1      75.384  89.093  69.984  1.00  0.00    -0.031 C 
ATOM     21  C   UNL     1      75.595  89.878  71.057  1.00  0.00    -0.028 C 
BRANCH  21  22
ATOM     22  C   UNL     1      75.115  91.256  71.149  1.00  0.00     0.005 C 
ATOM     23  C   UNL     1      73.922  91.401  72.134  1.00  0.00     0.012 C 
ATOM     24  C   UNL     1      76.277  92.203  71.545  1.00  0.00     0.012 C 
ENDBRANCH  21  22
ENDBRANCH  19  20
ENDBRANCH  18  19
ENDBRANCH  17  18
ENDBRANCH   1  17
TORSDOF 10
ENDMDL
MODEL 8
REMARK VINA RESULT:    -5.507     13.057     17.064
REMARK INTER + INTRA:          -9.313
REMARK INTER:                  -8.399
REMARK INTRA:                  -0.913
REMARK UNBOUND:                -0.747
REMARK SMILES COc1cc(CNC(=O)CCCC/C=C/C(C)C)ccc1O
REMARK SMILES IDX 10 1 8 2 7 3 9 5 6 6 5 7 3 8 21 9 4 10 20 11 19 12 2 13 1 14
REMARK SMILES IDX 22 15 11 17 12 18 13 19 14 20 15 21 16 22 17 23 18 24
REMARK H PARENT 7 4 22 16
REMARK Flexibility Score: inf
ROOT
ATOM      1  C   UNL     1      63.236  84.353  75.630  1.00  0.00     0.100 C 
ENDROOT
BRANCH   1   2
ATOM      2  C   UNL     1      64.435  84.001  76.415  1.00  0.00     0.220 C 
ATOM      3  N   UNL     1      65.047  84.933  77.197  1.00  0.00    -0.352 N 
ATOM      4  H   UNL     1      64.632  85.854  77.168  1.00  0.00     0.163 HD
ATOM      5  O   UNL     1      64.854  82.820  76.358  1.00  0.00    -0.275 OA
BRANCH   3   6
ATOM      6  C   UNL     1      66.190  84.686  78.018  1.00  0.00     0.151 C 
BRANCH   6   7
ATOM      7  C   UNL     1      65.798  84.344  79.412  1.00  0.00    -0.025 A 
ATOM      8  C   UNL     1      64.168  84.457  81.254  1.00  0.00     0.160 A 
ATOM      9  C   UNL     1      65.026  83.683  82.062  1.00  0.00     0.157 A 
ATOM     10  C   UNL     1      64.562  84.781  79.939  1.00  0.00     0.056 A 
ATOM     11  C   UNL     1      66.270  83.256  81.557  1.00  0.00     0.050 A 
ATOM     12  C   UNL     1      66.650  83.575  80.239  1.00  0.00     0.009 A 
BRANCH   8  13
ATOM     13  O   UNL     1      62.985  84.930  81.763  1.00  0.00    -0.493 OA
ATOM     14  C   UNL     1      63.002  86.335  82.078  1.00  0.00     0.278 C 
ENDBRANCH   8  13
BRANCH   9  15
ATOM     15  O   UNL     1      64.671  83.342  83.328  1.00  0.00    -0.504 OA
ATOM     16  H   UNL     1      63.989  82.668  83.299  1.00  0.00     0.293 HD
ENDBRANCH   9  15
ENDBRANCH   6   7
ENDBRANCH   3   6
ENDBRANCH   1   2
BRANCH   1  17
ATOM     17  C   UNL     1      62.184  83.212  75.649  1.00  0.00     0.010 C 
BRANCH  17  18
ATOM     18  C   UNL     1      61.854  82.669  74.230  1.00  0.00     0.005 C 
BRANCH  18  19
ATOM     19  C   UNL     1      62.553  81.314  73.938  1.00  0.00     0.027 C 
BRANCH  19  20
ATOM     20  C   UNL     1      63.408  81.381  72.762  1.00  0.00    -0.031 C 
ATOM     21  C   UNL     1      63.315  82.331  71.813  1.00  0.00    -0.028 C 
BRANCH  21  22
ATOM     22  C   UNL     1      64.198  82.390  70.649  1.00  0.00     0.005 C 
ATOM     23  C   UNL     1      65.501  81.570  70.855  1.00  0.00     0.012 C 
ATOM     24  C   UNL     1      63.443  81.919  69.379  1.00  0.00     0.012 C 
ENDBRANCH  21  22
ENDBRANCH  19  20
ENDBRANCH  18  19
ENDBRANCH  17  18
ENDBRANCH   1  17
TORSDOF 10
ENDMDL
MODEL 9
REMARK VINA RESULT:    -5.496     25.595     28.164
REMARK INTER + INTRA:          -9.295
REMARK INTER:                  -8.505
REMARK INTRA:                  -0.790
REMARK UNBOUND:                -0.747
REMARK SMILES COc1cc(CNC(=O)CCCC/C=C/C(C)C)ccc1O
REMARK SMILES IDX 10 1 8 2 7 3 9 5 6 6 5 7 3 8 21 9 4 10 20 11 19 12 2 13 1 14
REMARK SMILES IDX 22 15 11 17 12 18 13 19 14 20 15 21 16 22 17 23 18 24
REMARK H PARENT 7 4 22 16
REMARK Flexibility Score: inf
ROOT
ATOM      1  C   UNL     1      98.852  82.079  80.394  1.00  0.00     0.100 C 
ENDROOT
BRANCH   1   2
ATOM      2  C   UNL     1      99.048  82.531  81.785  1.00  0.00     0.220 C 
ATOM      3  N   UNL     1      98.025  83.108  82.475  1.00  0.00    -0.352 N 
ATOM      4  H   UNL     1      97.165  83.213  81.954  1.00  0.00     0.163 HD
ATOM      5  O   UNL     1     100.171  82.346  82.315  1.00  0.00    -0.275 OA
BRANCH   3   6
ATOM      6  C   UNL     1      98.103  83.549  83.831  1.00  0.00     0.151 C 
BRANCH   6   7
ATOM      7  C   UNL     1      97.361  82.638  84.745  1.00  0.00    -0.025 A 
ATOM      8  C   UNL     1      97.066  80.410  85.751  1.00  0.00     0.160 A 
ATOM      9  C   UNL     1      95.971  80.892  86.498  1.00  0.00     0.157 A 
ATOM     10  C   UNL     1      97.748  81.286  84.881  1.00  0.00     0.056 A 
ATOM     11  C   UNL     1      95.562  82.233  86.359  1.00  0.00     0.050 A 
ATOM     12  C   UNL     1      96.257  83.103  85.496  1.00  0.00     0.009 A 
BRANCH   8  13
ATOM     13  O   UNL     1      97.427  79.090  85.834  1.00  0.00    -0.493 OA
ATOM     14  C   UNL     1      98.247  78.636  84.741  1.00  0.00     0.278 C 
ENDBRANCH   8  13
BRANCH   9  15
ATOM     15  O   UNL     1      95.301  80.079  87.355  1.00  0.00    -0.504 OA
ATOM     16  H   UNL     1      94.919  80.604  88.062  1.00  0.00     0.293 HD
ENDBRANCH   9  15
ENDBRANCH   6   7
ENDBRANCH   3   6
ENDBRANCH   1   2
BRANCH   1  17
ATOM     17  C   UNL     1      98.879  83.268  79.396  1.00  0.00     0.010 C 
BRANCH  17  18
ATOM     18  C   UNL     1      97.467  83.644  78.865  1.00  0.00     0.005 C 
BRANCH  18  19
ATOM     19  C   UNL     1      97.408  83.670  77.314  1.00  0.00     0.027 C 
BRANCH  19  20
ATOM     20  C   UNL     1      98.730  83.580  76.714  1.00  0.00    -0.031 C 
ATOM     21  C   UNL     1      99.246  84.501  75.879  1.00  0.00    -0.028 C 
BRANCH  21  22
ATOM     22  C   UNL     1     100.587  84.400  75.303  1.00  0.00     0.005 C 
ATOM     23  C   UNL     1     100.923  85.603  74.379  1.00  0.00     0.012 C 
ATOM     24  C   UNL     1     101.644  84.253  76.427  1.00  0.00     0.012 C 
ENDBRANCH  21  22
ENDBRANCH  19  20
ENDBRANCH  18  19
ENDBRANCH  17  18
ENDBRANCH   1  17
TORSDOF 10
ENDMDL
MODEL 10
REMARK VINA RESULT:    -5.465     25.583     27.985
REMARK INTER + INTRA:          -9.247
REMARK INTER:                  -8.550
REMARK INTRA:                  -0.696
REMARK UNBOUND:                -0.747
REMARK SMILES COc1cc(CNC(=O)CCCC/C=C/C(C)C)ccc1O
REMARK SMILES IDX 10 1 8 2 7 3 9 5 6 6 5 7 3 8 21 9 4 10 20 11 19 12 2 13 1 14
REMARK SMILES IDX 22 15 11 17 12 18 13 19 14 20 15 21 16 22 17 23 18 24
REMARK H PARENT 7 4 22 16
REMARK Flexibility Score: inf
ROOT
ATOM      1  C   UNL     1      98.831  82.109  80.398  1.00  0.00     0.100 C 
ENDROOT
BRANCH   1   2
ATOM      2  C   UNL     1      99.032  82.590  81.779  1.00  0.00     0.220 C 
ATOM      3  N   UNL     1      97.997  83.134  82.479  1.00  0.00    -0.352 N 
ATOM      4  H   UNL     1      97.124  83.195  81.972  1.00  0.00     0.163 HD
ATOM      5  O   UNL     1     100.170  82.461  82.291  1.00  0.00    -0.275 OA
BRANCH   3   6
ATOM      6  C   UNL     1      98.079  83.599  83.827  1.00  0.00     0.151 C 
BRANCH   6   7
ATOM      7  C   UNL     1      97.333  82.709  84.758  1.00  0.00    -0.025 A 
ATOM      8  C   UNL     1      95.587  82.401  86.466  1.00  0.00     0.160 A 
ATOM      9  C   UNL     1      95.887  81.024  86.525  1.00  0.00     0.157 A 
ATOM     10  C   UNL     1      96.313  83.230  85.586  1.00  0.00     0.056 A 
ATOM     11  C   UNL     1      96.914  80.494  85.720  1.00  0.00     0.050 A 
ATOM     12  C   UNL     1      97.626  81.328  84.835  1.00  0.00     0.009 A 
BRANCH   8  13
ATOM     13  O   UNL     1      94.633  82.933  87.296  1.00  0.00    -0.493 OA
ATOM     14  C   UNL     1      94.724  84.361  87.455  1.00  0.00     0.278 C 
ENDBRANCH   8  13
BRANCH   9  15
ATOM     15  O   UNL     1      95.198  80.196  87.352  1.00  0.00    -0.504 OA
ATOM     16  H   UNL     1      95.194  79.308  86.987  1.00  0.00     0.293 HD
ENDBRANCH   9  15
ENDBRANCH   6   7
ENDBRANCH   3   6
ENDBRANCH   1   2
BRANCH   1  17
ATOM     17  C   UNL     1      98.912  83.269  79.370  1.00  0.00     0.010 C 
BRANCH  17  18
ATOM     18  C   UNL     1      97.530  83.634  78.759  1.00  0.00     0.005 C 
BRANCH  18  19
ATOM     19  C   UNL     1      97.540  83.593  77.207  1.00  0.00     0.027 C 
BRANCH  19  20
ATOM     20  C   UNL     1      98.889  83.667  76.667  1.00  0.00    -0.031 C 
ATOM     21  C   UNL     1      99.294  84.584  75.769  1.00  0.00    -0.028 C 
BRANCH  21  22
ATOM     22  C   UNL     1     100.662  84.653  75.254  1.00  0.00     0.005 C 
ATOM     23  C   UNL     1     101.183  83.268  74.779  1.00  0.00     0.012 C 
ATOM     24  C   UNL     1     100.752  85.699  74.113  1.00  0.00     0.012 C 
ENDBRANCH  21  22
ENDBRANCH  19  20
ENDBRANCH  18  19
ENDBRANCH  17  18
ENDBRANCH   1  17
TORSDOF 10
ENDMDL
