MODEL 1
REMARK VINA RESULT:    -7.488      0.000      0.000
REMARK INTER + INTRA:         -13.535
REMARK INTER:                 -12.741
REMARK INTRA:                  -0.795
REMARK UNBOUND:                -0.795
REMARK SMILES C=C(C)[C@]12C[C@@H](C)[C@@]34O[C@](Cc5ccccc5)(O[C@@H]1[C@@H]3C=C(COC(=O)Cc1ccc(O)cc1)C[C@]1(O)C(=O)C(C)=C[C@@H]41)O2
REMARK SMILES IDX 23 1 22 2 21 3 20 4 9 5 8 6 10 7 6 8 18 10 44 11 19 12 5 13
REMARK SMILES IDX 7 14 4 15 11 16 12 17 13 18 17 19 14 20 16 21 15 22 2 23
REMARK SMILES IDX 3 24 1 25 35 26 36 27 43 28 38 29 42 30 39 32 40 33 41 34
REMARK SMILES IDX 37 35 24 37 25 38 26 39 27 40 28 41 29 42 34 43 30 44 33 45
REMARK SMILES IDX 31 46 32 47
REMARK H PARENT 37 36 32 48
REMARK Flexibility Score: 90.00
ROOT
ATOM      1  C   UNL     1      90.483 100.102  71.605  1.00  0.00     0.264 C 
ENDROOT
BRANCH   1   2
ATOM      2  C   UNL     1      91.938 100.420  71.864  1.00  0.00    -0.033 C 
ATOM      3  C   UNL     1      92.449 100.208  73.095  1.00  0.00    -0.015 C 
BRANCH   3   4
ATOM      4  C   UNL     1      93.841 100.513  73.627  1.00  0.00     0.078 C 
ATOM      5  O   UNL     1      95.183  98.454  73.356  1.00  0.00    -0.319 OA
ATOM      6  C   UNL     1      95.076  99.845  72.919  1.00  0.00     0.095 CG0
ATOM      7  C   UNL     1      94.973  98.234  74.763  1.00  0.00     0.289 C 
ATOM      8  C   UNL     1      96.373 100.636  73.369  1.00  0.00     0.023 C 
ATOM      9  G   UNL     1      94.849  99.752  71.382  1.00  0.00     0.000 G0
ATOM     10  O   UNL     1      93.695  98.711  75.177  1.00  0.00    -0.320 OA
ATOM     11  O   UNL     1      95.922  98.927  75.569  1.00  0.00    -0.313 OA
ATOM     12  C   UNL     1      93.927 100.127  75.124  1.00  0.00     0.170 C 
ATOM     13  C   UNL     1      96.241 101.166  74.829  1.00  0.00     0.049 C 
ATOM     14  C   UNL     1      97.699  99.871  73.222  1.00  0.00     0.011 C 
ATOM     15  C   UNL     1      95.364 100.253  75.686  1.00  0.00     0.122 C 
BRANCH   7  16
ATOM     16  C   UNL     1      95.076  96.745  75.031  1.00  0.00     0.135 C 
BRANCH  16  17
ATOM     17  C   UNL     1      94.265  96.328  76.233  1.00  0.00    -0.040 A 
ATOM     18  C   UNL     1      94.805  96.445  77.513  1.00  0.00     0.004 A 
ATOM     19  C   UNL     1      92.975  95.826  76.063  1.00  0.00     0.004 A 
ATOM     20  C   UNL     1      94.054  96.060  78.625  1.00  0.00     0.000 A 
ATOM     21  C   UNL     1      92.225  95.441  77.174  1.00  0.00     0.000 A 
ATOM     22  C   UNL     1      92.765  95.558  78.455  1.00  0.00     0.000 A 
ENDBRANCH  16  17
ENDBRANCH   7  16
BRANCH  15  23
ATOM     23  C   UNL     1      95.371 100.639  77.130  1.00  0.00    -0.046 C 
ATOM     24  C   UNL     1      94.485 101.789  77.511  1.00  0.00     0.042 C 
ATOM     25  C   UNL     1      96.125  99.996  78.033  1.00  0.00     0.010 C 
ENDBRANCH  15  23
ENDBRANCH   3   4
BRANCH   2  26
ATOM     26  C   UNL     1      92.658 100.954  70.641  1.00  0.00     0.078 C 
BRANCH  26  27
ATOM     27  C   UNL     1      94.183 101.020  70.702  1.00  0.00     0.140 C 
ATOM     28  C   UNL     1      94.795  99.770  71.367  1.00  0.00     0.086 CG0
ATOM     29  C   UNL     1      94.820 101.002  69.328  1.00  0.00     0.190 C 
ATOM     30  C   UNL     1      95.924  99.400  70.445  1.00  0.00    -0.010 C 
ATOM     31  G   UNL     1      95.060  99.868  72.898  1.00  0.00     0.000 G0
ATOM     32  O   UNL     1      94.491 101.707  68.386  1.00  0.00    -0.291 OA
ATOM     33  C   UNL     1      95.949 100.054  69.280  1.00  0.00    -0.008 C 
ATOM     34  C   UNL     1      96.848  99.895  68.119  1.00  0.00     0.048 C 
BRANCH  27  35
ATOM     35  O   UNL     1      94.627 102.243  71.265  1.00  0.00    -0.381 OA
ATOM     36  H   UNL     1      93.881 102.653  71.734  1.00  0.00     0.212 HD
ENDBRANCH  27  35
ENDBRANCH  26  27
ENDBRANCH   2  26
ENDBRANCH   1   2
BRANCH   1  37
ATOM     37  O   UNL     1      90.240 100.132  70.215  1.00  0.00    -0.461 OA
BRANCH  37  38
ATOM     38  C   UNL     1      89.436  99.132  69.717  1.00  0.00     0.310 C 
ATOM     39  O   UNL     1      89.398  97.986  70.140  1.00  0.00    -0.252 OA
BRANCH  38  40
ATOM     40  C   UNL     1      88.613  99.672  68.572  1.00  0.00     0.158 C 
BRANCH  40  41
ATOM     41  C   UNL     1      89.232 100.882  67.922  1.00  0.00    -0.037 A 
ATOM     42  C   UNL     1      88.609 102.126  68.029  1.00  0.00     0.008 A 
ATOM     43  C   UNL     1      90.426 100.760  67.213  1.00  0.00     0.008 A 
ATOM     44  C   UNL     1      89.182 103.247  67.426  1.00  0.00     0.046 A 
ATOM     45  C   UNL     1      90.999 101.880  66.611  1.00  0.00     0.046 A 
ATOM     46  C   UNL     1      90.377 103.123  66.717  1.00  0.00     0.115 A 
BRANCH  46  47
ATOM     47  O   UNL     1      90.935 104.217  66.129  1.00  0.00    -0.508 OA
ATOM     48  H   UNL     1      90.513 105.017  66.488  1.00  0.00     0.293 HD
ENDBRANCH  46  47
ENDBRANCH  40  41
ENDBRANCH  38  40
ENDBRANCH  37  38
ENDBRANCH   1  37
TORSDOF 10
ENDMDL
MODEL 2
REMARK VINA RESULT:    -7.307     20.751     24.433
REMARK INTER + INTRA:         -13.228
REMARK INTER:                 -11.729
REMARK INTRA:                  -1.500
REMARK UNBOUND:                -0.795
REMARK SMILES C=C(C)[C@]12C[C@@H](C)[C@@]34O[C@](Cc5ccccc5)(O[C@@H]1[C@@H]3C=C(COC(=O)Cc1ccc(O)cc1)C[C@]1(O)C(=O)C(C)=C[C@@H]41)O2
REMARK SMILES IDX 23 1 22 2 21 3 20 4 9 5 8 6 10 7 6 8 18 10 44 11 19 12 5 13
REMARK SMILES IDX 7 14 4 15 11 16 12 17 13 18 17 19 14 20 16 21 15 22 2 23
REMARK SMILES IDX 3 24 1 25 35 26 36 27 43 28 38 29 42 30 39 32 40 33 41 34
REMARK SMILES IDX 37 35 24 37 25 38 26 39 27 40 28 41 29 42 34 43 30 44 33 45
REMARK SMILES IDX 31 46 32 47
REMARK H PARENT 37 36 32 48
REMARK Flexibility Score: 90.00
ROOT
ATOM      1  C   UNL     1      95.750  85.792  87.211  1.00  0.00     0.264 C 
ENDROOT
BRANCH   1   2
ATOM      2  C   UNL     1      94.565  85.341  88.035  1.00  0.00    -0.033 C 
ATOM      3  C   UNL     1      93.786  84.340  87.576  1.00  0.00    -0.015 C 
BRANCH   3   4
ATOM      4  C   UNL     1      92.511  83.761  88.168  1.00  0.00     0.078 C 
ATOM      5  O   UNL     1      93.178  81.840  89.575  1.00  0.00    -0.319 OA
ATOM      6  C   UNL     1      92.564  83.166  89.623  1.00  0.00     0.095 CG0
ATOM      7  C   UNL     1      92.747  81.002  88.485  1.00  0.00     0.289 C 
ATOM      8  C   UNL     1      91.073  83.034  90.142  1.00  0.00     0.023 C 
ATOM      9  G   UNL     1      93.516  84.001  90.528  1.00  0.00     0.000 G0
ATOM     10  O   UNL     1      92.987  81.625  87.227  1.00  0.00    -0.320 OA
ATOM     11  O   UNL     1      91.347  80.738  88.524  1.00  0.00    -0.313 OA
ATOM     12  C   UNL     1      91.968  82.638  87.250  1.00  0.00     0.170 C 
ATOM     13  C   UNL     1      90.089  82.706  88.978  1.00  0.00     0.049 C 
ATOM     14  C   UNL     1      90.858  82.032  91.289  1.00  0.00     0.011 C 
ATOM     15  C   UNL     1      90.766  81.889  87.877  1.00  0.00     0.122 C 
BRANCH   7  16
ATOM     16  C   UNL     1      93.509  79.694  88.563  1.00  0.00     0.135 C 
BRANCH  16  17
ATOM     17  C   UNL     1      92.860  78.610  87.738  1.00  0.00    -0.040 A 
ATOM     18  C   UNL     1      91.867  77.807  88.298  1.00  0.00     0.004 A 
ATOM     19  C   UNL     1      93.254  78.413  86.415  1.00  0.00     0.004 A 
ATOM     20  C   UNL     1      91.267  76.806  87.534  1.00  0.00     0.000 A 
ATOM     21  C   UNL     1      92.654  77.411  85.651  1.00  0.00     0.000 A 
ATOM     22  C   UNL     1      91.661  76.608  86.211  1.00  0.00     0.000 A 
ENDBRANCH  16  17
ENDBRANCH   7  16
BRANCH  15  23
ATOM     23  C   UNL     1      89.801  81.410  86.842  1.00  0.00    -0.046 C 
ATOM     24  C   UNL     1      90.385  80.620  85.708  1.00  0.00     0.042 C 
ATOM     25  C   UNL     1      88.488  81.671  86.922  1.00  0.00     0.010 C 
ENDBRANCH  15  23
ENDBRANCH   3   4
BRANCH   2  26
ATOM     26  C   UNL     1      94.415  86.111  89.333  1.00  0.00     0.078 C 
BRANCH  26  27
ATOM     27  C   UNL     1      93.436  85.555  90.366  1.00  0.00     0.140 C 
ATOM     28  C   UNL     1      93.542  84.022  90.504  1.00  0.00     0.086 CG0
ATOM     29  C   UNL     1      93.743  86.030  91.770  1.00  0.00     0.190 C 
ATOM     30  C   UNL     1      93.558  83.805  91.991  1.00  0.00    -0.010 C 
ATOM     31  G   UNL     1      92.571  83.186  89.621  1.00  0.00     0.000 G0
ATOM     32  O   UNL     1      93.952  87.189  92.096  1.00  0.00    -0.291 OA
ATOM     33  C   UNL     1      93.699  84.910  92.729  1.00  0.00    -0.008 C 
ATOM     34  C   UNL     1      93.835  85.066  94.192  1.00  0.00     0.048 C 
BRANCH  27  35
ATOM     35  O   UNL     1      92.117  86.019  90.132  1.00  0.00    -0.381 OA
ATOM     36  H   UNL     1      91.833  86.537  90.904  1.00  0.00     0.212 HD
ENDBRANCH  27  35
ENDBRANCH  26  27
ENDBRANCH   2  26
ENDBRANCH   1   2
BRANCH   1  37
ATOM     37  O   UNL     1      95.683  85.195  85.934  1.00  0.00    -0.461 OA
BRANCH  37  38
ATOM     38  C   UNL     1      96.887  84.954  85.312  1.00  0.00     0.310 C 
ATOM     39  O   UNL     1      97.938  85.523  85.572  1.00  0.00    -0.252 OA
BRANCH  38  40
ATOM     40  C   UNL     1      96.708  83.881  84.265  1.00  0.00     0.158 C 
BRANCH  40  41
ATOM     41  C   UNL     1      96.967  82.494  84.795  1.00  0.00    -0.037 A 
ATOM     42  C   UNL     1      96.174  81.979  85.820  1.00  0.00     0.008 A 
ATOM     43  C   UNL     1      98.000  81.725  84.260  1.00  0.00     0.008 A 
ATOM     44  C   UNL     1      96.415  80.696  86.311  1.00  0.00     0.046 A 
ATOM     45  C   UNL     1      98.240  80.441  84.750  1.00  0.00     0.046 A 
ATOM     46  C   UNL     1      97.448  79.926  85.775  1.00  0.00     0.115 A 
BRANCH  46  47
ATOM     47  O   UNL     1      97.683  78.675  86.254  1.00  0.00    -0.508 OA
ATOM     48  H   UNL     1      97.331  78.024  85.623  1.00  0.00     0.293 HD
ENDBRANCH  46  47
ENDBRANCH  40  41
ENDBRANCH  38  40
ENDBRANCH  37  38
ENDBRANCH   1  37
TORSDOF 10
ENDMDL
MODEL 3
REMARK VINA RESULT:    -7.216     18.509     23.168
REMARK INTER + INTRA:         -13.074
REMARK INTER:                 -12.719
REMARK INTRA:                  -0.354
REMARK UNBOUND:                -0.795
REMARK SMILES C=C(C)[C@]12C[C@@H](C)[C@@]34O[C@](Cc5ccccc5)(O[C@@H]1[C@@H]3C=C(COC(=O)Cc1ccc(O)cc1)C[C@]1(O)C(=O)C(C)=C[C@@H]41)O2
REMARK SMILES IDX 23 1 22 2 21 3 20 4 9 5 8 6 10 7 6 8 18 10 44 11 19 12 5 13
REMARK SMILES IDX 7 14 4 15 11 16 12 17 13 18 17 19 14 20 16 21 15 22 2 23
REMARK SMILES IDX 3 24 1 25 35 26 36 27 43 28 38 29 42 30 39 32 40 33 41 34
REMARK SMILES IDX 37 35 24 37 25 38 26 39 27 40 28 41 29 42 34 43 30 44 33 45
REMARK SMILES IDX 31 46 32 47
REMARK H PARENT 37 36 32 48
REMARK Flexibility Score: 90.00
ROOT
ATOM      1  C   UNL     1      97.599  83.279  83.646  1.00  0.00     0.264 C 
ENDROOT
BRANCH   1   2
ATOM      2  C   UNL     1      97.428  83.443  85.138  1.00  0.00    -0.033 C 
ATOM      3  C   UNL     1      96.243  83.135  85.703  1.00  0.00    -0.015 C 
BRANCH   3   4
ATOM      4  C   UNL     1      95.796  83.281  87.149  1.00  0.00     0.078 C 
ATOM      5  O   UNL     1      96.298  81.139  88.279  1.00  0.00    -0.319 OA
ATOM      6  C   UNL     1      96.635  82.561  88.268  1.00  0.00     0.095 CG0
ATOM      7  C   UNL     1      94.896  80.838  88.145  1.00  0.00     0.289 C 
ATOM      8  C   UNL     1      96.232  83.205  89.659  1.00  0.00     0.023 C 
ATOM      9  G   UNL     1      98.154  82.597  87.930  1.00  0.00     0.000 G0
ATOM     10  O   UNL     1      94.359  81.392  86.947  1.00  0.00    -0.320 OA
ATOM     11  O   UNL     1      94.119  81.389  89.206  1.00  0.00    -0.313 OA
ATOM     12  C   UNL     1      94.338  82.783  87.302  1.00  0.00     0.170 C 
ATOM     13  C   UNL     1      94.734  83.639  89.675  1.00  0.00     0.049 C 
ATOM     14  C   UNL     1      96.526  82.341  90.897  1.00  0.00     0.011 C 
ATOM     15  C   UNL     1      93.876  82.745  88.779  1.00  0.00     0.122 C 
BRANCH   7  16
ATOM     16  C   UNL     1      94.733  79.331  88.131  1.00  0.00     0.135 C 
BRANCH  16  17
ATOM     17  C   UNL     1      93.366  78.904  88.604  1.00  0.00    -0.040 A 
ATOM     18  C   UNL     1      92.333  78.731  87.684  1.00  0.00     0.004 A 
ATOM     19  C   UNL     1      93.136  78.683  89.961  1.00  0.00     0.004 A 
ATOM     20  C   UNL     1      91.068  78.336  88.121  1.00  0.00     0.000 A 
ATOM     21  C   UNL     1      91.871  78.288  90.399  1.00  0.00     0.000 A 
ATOM     22  C   UNL     1      90.838  78.115  89.479  1.00  0.00     0.000 A 
ENDBRANCH  16  17
ENDBRANCH   7  16
BRANCH  15  23
ATOM     23  C   UNL     1      92.415  83.027  88.919  1.00  0.00    -0.046 C 
ATOM     24  C   UNL     1      92.051  84.304  89.617  1.00  0.00     0.042 C 
ATOM     25  C   UNL     1      91.483  82.186  88.447  1.00  0.00     0.010 C 
ENDBRANCH  15  23
ENDBRANCH   3   4
BRANCH   2  26
ATOM     26  C   UNL     1      98.680  83.950  85.829  1.00  0.00     0.078 C 
BRANCH  26  27
ATOM     27  C   UNL     1      98.692  83.928  87.356  1.00  0.00     0.140 C 
ATOM     28  C   UNL     1      98.148  82.601  87.925  1.00  0.00     0.086 CG0
ATOM     29  C   UNL     1     100.094  83.976  87.926  1.00  0.00     0.190 C 
ATOM     30  C   UNL     1      99.150  82.239  88.986  1.00  0.00    -0.010 C 
ATOM     31  G   UNL     1      96.630  82.573  88.266  1.00  0.00     0.000 G0
ATOM     32  O   UNL     1     100.967  84.764  87.594  1.00  0.00    -0.291 OA
ATOM     33  C   UNL     1     100.266  82.973  88.994  1.00  0.00    -0.008 C 
ATOM     34  C   UNL     1     101.480  82.850  89.827  1.00  0.00     0.048 C 
BRANCH  27  35
ATOM     35  O   UNL     1      98.069  85.081  87.896  1.00  0.00    -0.381 OA
ATOM     36  H   UNL     1      97.302  84.797  88.422  1.00  0.00     0.212 HD
ENDBRANCH  27  35
ENDBRANCH  26  27
ENDBRANCH   2  26
ENDBRANCH   1   2
BRANCH   1  37
ATOM     37  O   UNL     1      98.963  83.055  83.354  1.00  0.00    -0.461 OA
BRANCH  37  38
ATOM     38  C   UNL     1      99.236  82.028  82.480  1.00  0.00     0.310 C 
ATOM     39  O   UNL     1      98.854  80.874  82.612  1.00  0.00    -0.252 OA
BRANCH  38  40
ATOM     40  C   UNL     1     100.078  82.548  81.340  1.00  0.00     0.158 C 
BRANCH  40  41
ATOM     41  C   UNL     1      99.265  82.889  80.118  1.00  0.00    -0.037 A 
ATOM     42  C   UNL     1      99.874  82.925  78.863  1.00  0.00     0.008 A 
ATOM     43  C   UNL     1      97.905  83.170  80.240  1.00  0.00     0.008 A 
ATOM     44  C   UNL     1      99.122  83.242  77.731  1.00  0.00     0.046 A 
ATOM     45  C   UNL     1      97.152  83.487  79.109  1.00  0.00     0.046 A 
ATOM     46  C   UNL     1      97.761  83.523  77.855  1.00  0.00     0.115 A 
BRANCH  46  47
ATOM     47  O   UNL     1      97.028  83.832  76.751  1.00  0.00    -0.508 OA
ATOM     48  H   UNL     1      97.595  84.304  76.117  1.00  0.00     0.293 HD
ENDBRANCH  46  47
ENDBRANCH  40  41
ENDBRANCH  38  40
ENDBRANCH  37  38
ENDBRANCH   1  37
TORSDOF 10
ENDMDL
MODEL 4
REMARK VINA RESULT:    -7.130     28.945     33.081
REMARK INTER + INTRA:         -12.927
REMARK INTER:                 -11.762
REMARK INTRA:                  -1.165
REMARK UNBOUND:                -0.795
REMARK SMILES C=C(C)[C@]12C[C@@H](C)[C@@]34O[C@](Cc5ccccc5)(O[C@@H]1[C@@H]3C=C(COC(=O)Cc1ccc(O)cc1)C[C@]1(O)C(=O)C(C)=C[C@@H]41)O2
REMARK SMILES IDX 23 1 22 2 21 3 20 4 9 5 8 6 10 7 6 8 18 10 44 11 19 12 5 13
REMARK SMILES IDX 7 14 4 15 11 16 12 17 13 18 17 19 14 20 16 21 15 22 2 23
REMARK SMILES IDX 3 24 1 25 35 26 36 27 43 28 38 29 42 30 39 32 40 33 41 34
REMARK SMILES IDX 37 35 24 37 25 38 26 39 27 40 28 41 29 42 34 43 30 44 33 45
REMARK SMILES IDX 31 46 32 47
REMARK H PARENT 37 36 32 48
REMARK Flexibility Score: 90.00
ROOT
ATOM      1  C   UNL     1      65.408  87.815  70.839  1.00  0.00     0.264 C 
ENDROOT
BRANCH   1   2
ATOM      2  C   UNL     1      65.175  86.401  71.319  1.00  0.00    -0.033 C 
ATOM      3  C   UNL     1      64.748  86.195  72.582  1.00  0.00    -0.015 C 
BRANCH   3   4
ATOM      4  C   UNL     1      64.515  84.887  73.321  1.00  0.00     0.078 C 
ATOM      5  O   UNL     1      62.133  84.301  73.014  1.00  0.00    -0.319 OA
ATOM      6  C   UNL     1      63.493  83.857  72.715  1.00  0.00     0.095 CG0
ATOM      7  C   UNL     1      61.926  84.796  74.351  1.00  0.00     0.289 C 
ATOM      8  C   UNL     1      63.752  82.458  73.412  1.00  0.00     0.023 C 
ATOM      9  G   UNL     1      63.567  83.853  71.160  1.00  0.00     0.000 G0
ATOM     10  O   UNL     1      62.800  85.883  74.641  1.00  0.00    -0.320 OA
ATOM     11  O   UNL     1      62.198  83.808  75.342  1.00  0.00    -0.313 OA
ATOM     12  C   UNL     1      64.045  85.178  74.768  1.00  0.00     0.170 C 
ATOM     13  C   UNL     1      64.217  82.632  74.890  1.00  0.00     0.049 C 
ATOM     14  C   UNL     1      62.578  81.466  73.360  1.00  0.00     0.011 C 
ATOM     15  C   UNL     1      63.627  83.893  75.524  1.00  0.00     0.122 C 
BRANCH   7  16
ATOM     16  C   UNL     1      60.485  85.249  74.472  1.00  0.00     0.135 C 
BRANCH  16  17
ATOM     17  C   UNL     1      59.902  85.646  73.138  1.00  0.00    -0.040 A 
ATOM     18  C   UNL     1      59.933  86.979  72.732  1.00  0.00     0.004 A 
ATOM     19  C   UNL     1      59.333  84.677  72.312  1.00  0.00     0.004 A 
ATOM     20  C   UNL     1      59.394  87.346  71.498  1.00  0.00     0.000 A 
ATOM     21  C   UNL     1      58.794  85.044  71.078  1.00  0.00     0.000 A 
ATOM     22  C   UNL     1      58.825  86.377  70.672  1.00  0.00     0.000 A 
ENDBRANCH  16  17
ENDBRANCH   7  16
BRANCH  15  23
ATOM     23  C   UNL     1      63.909  83.986  76.988  1.00  0.00    -0.046 C 
ATOM     24  C   UNL     1      62.718  84.154  77.883  1.00  0.00     0.042 C 
ATOM     25  C   UNL     1      65.158  83.922  77.475  1.00  0.00     0.010 C 
ENDBRANCH  15  23
ENDBRANCH   3   4
BRANCH   2  26
ATOM     26  C   UNL     1      65.461  85.357  70.256  1.00  0.00     0.078 C 
BRANCH  26  27
ATOM     27  C   UNL     1      65.037  83.920  70.557  1.00  0.00     0.140 C 
ATOM     28  C   UNL     1      63.610  83.843  71.138  1.00  0.00     0.086 CG0
ATOM     29  C   UNL     1      64.924  83.075  69.306  1.00  0.00     0.190 C 
ATOM     30  C   UNL     1      62.974  82.726  70.359  1.00  0.00    -0.010 C 
ATOM     31  G   UNL     1      63.501  83.849  72.691  1.00  0.00     0.000 G0
ATOM     32  O   UNL     1      65.767  82.999  68.425  1.00  0.00    -0.291 OA
ATOM     33  C   UNL     1      63.674  82.291  69.307  1.00  0.00    -0.008 C 
ATOM     34  C   UNL     1      63.328  81.282  68.285  1.00  0.00     0.048 C 
BRANCH  27  35
ATOM     35  O   UNL     1      66.010  83.244  71.335  1.00  0.00    -0.381 OA
ATOM     36  H   UNL     1      65.587  82.936  72.155  1.00  0.00     0.212 HD
ENDBRANCH  27  35
ENDBRANCH  26  27
ENDBRANCH   2  26
ENDBRANCH   1   2
BRANCH   1  37
ATOM     37  O   UNL     1      66.188  88.508  71.790  1.00  0.00    -0.461 OA
BRANCH  37  38
ATOM     38  C   UNL     1      67.483  88.791  71.423  1.00  0.00     0.310 C 
ATOM     39  O   UNL     1      67.808  89.549  70.521  1.00  0.00    -0.252 OA
BRANCH  38  40
ATOM     40  C   UNL     1      68.436  88.021  72.306  1.00  0.00     0.158 C 
BRANCH  40  41
ATOM     41  C   UNL     1      69.370  87.131  71.528  1.00  0.00    -0.037 A 
ATOM     42  C   UNL     1      68.988  85.829  71.208  1.00  0.00     0.008 A 
ATOM     43  C   UNL     1      70.618  87.609  71.128  1.00  0.00     0.008 A 
ATOM     44  C   UNL     1      69.853  85.004  70.488  1.00  0.00     0.046 A 
ATOM     45  C   UNL     1      71.483  86.785  70.408  1.00  0.00     0.046 A 
ATOM     46  C   UNL     1      71.101  85.483  70.088  1.00  0.00     0.115 A 
BRANCH  46  47
ATOM     47  O   UNL     1      71.945  84.679  69.386  1.00  0.00    -0.508 OA
ATOM     48  H   UNL     1      71.728  84.743  68.439  1.00  0.00     0.293 HD
ENDBRANCH  46  47
ENDBRANCH  40  41
ENDBRANCH  38  40
ENDBRANCH  37  38
ENDBRANCH   1  37
TORSDOF 10
ENDMDL
MODEL 5
REMARK VINA RESULT:    -7.129     18.755     23.379
REMARK INTER + INTRA:         -12.925
REMARK INTER:                 -12.640
REMARK INTRA:                  -0.285
REMARK UNBOUND:                -0.795
REMARK SMILES C=C(C)[C@]12C[C@@H](C)[C@@]34O[C@](Cc5ccccc5)(O[C@@H]1[C@@H]3C=C(COC(=O)Cc1ccc(O)cc1)C[C@]1(O)C(=O)C(C)=C[C@@H]41)O2
REMARK SMILES IDX 23 1 22 2 21 3 20 4 9 5 8 6 10 7 6 8 18 10 44 11 19 12 5 13
REMARK SMILES IDX 7 14 4 15 11 16 12 17 13 18 17 19 14 20 16 21 15 22 2 23
REMARK SMILES IDX 3 24 1 25 35 26 36 27 43 28 38 29 42 30 39 32 40 33 41 34
REMARK SMILES IDX 37 35 24 37 25 38 26 39 27 40 28 41 29 42 34 43 30 44 33 45
REMARK SMILES IDX 31 46 32 47
REMARK H PARENT 37 36 32 48
REMARK Flexibility Score: 90.00
ROOT
ATOM      1  C   UNL     1      97.711  82.591  85.619  1.00  0.00     0.264 C 
ENDROOT
BRANCH   1   2
ATOM      2  C   UNL     1      96.395  83.012  86.231  1.00  0.00    -0.033 C 
ATOM      3  C   UNL     1      95.335  82.180  86.154  1.00  0.00    -0.015 C 
BRANCH   3   4
ATOM      4  C   UNL     1      93.903  82.396  86.615  1.00  0.00     0.078 C 
ATOM      5  O   UNL     1      93.738  81.485  88.908  1.00  0.00    -0.319 OA
ATOM      6  C   UNL     1      93.645  82.720  88.132  1.00  0.00     0.095 CG0
ATOM      7  C   UNL     1      93.102  80.337  88.314  1.00  0.00     0.289 C 
ATOM      8  C   UNL     1      92.179  83.307  88.255  1.00  0.00     0.023 C 
ATOM      9  G   UNL     1      94.777  83.623  88.705  1.00  0.00     0.000 G0
ATOM     10  O   UNL     1      93.630  80.065  87.019  1.00  0.00    -0.320 OA
ATOM     11  O   UNL     1      91.702  80.528  88.127  1.00  0.00    -0.313 OA
ATOM     12  C   UNL     1      93.048  81.149  86.278  1.00  0.00     0.170 C 
ATOM     13  C   UNL     1      91.217  82.669  87.207  1.00  0.00     0.049 C 
ATOM     14  C   UNL     1      91.544  83.212  89.653  1.00  0.00     0.011 C 
ATOM     15  C   UNL     1      91.620  81.232  86.870  1.00  0.00     0.122 C 
BRANCH   7  16
ATOM     16  C   UNL     1      93.331  79.145  89.222  1.00  0.00     0.135 C 
BRANCH  16  17
ATOM     17  C   UNL     1      92.689  77.890  88.683  1.00  0.00    -0.040 A 
ATOM     18  C   UNL     1      93.409  77.046  87.839  1.00  0.00     0.004 A 
ATOM     19  C   UNL     1      91.376  77.577  89.030  1.00  0.00     0.004 A 
ATOM     20  C   UNL     1      92.815  75.885  87.341  1.00  0.00     0.000 A 
ATOM     21  C   UNL     1      90.782  76.416  88.532  1.00  0.00     0.000 A 
ATOM     22  C   UNL     1      91.502  75.571  87.688  1.00  0.00     0.000 A 
ENDBRANCH  16  17
ENDBRANCH   7  16
BRANCH  15  23
ATOM     23  C   UNL     1      90.614  80.541  86.009  1.00  0.00    -0.046 C 
ATOM     24  C   UNL     1      91.108  79.353  85.237  1.00  0.00     0.042 C 
ATOM     25  C   UNL     1      89.342  80.958  85.930  1.00  0.00     0.010 C 
ENDBRANCH  15  23
ENDBRANCH   3   4
BRANCH   2  26
ATOM     26  C   UNL     1      96.453  84.379  86.887  1.00  0.00     0.078 C 
BRANCH  26  27
ATOM     27  C   UNL     1      95.262  84.791  87.751  1.00  0.00     0.140 C 
ATOM     28  C   UNL     1      94.787  83.647  88.671  1.00  0.00     0.086 CG0
ATOM     29  C   UNL     1      95.614  85.881  88.741  1.00  0.00     0.190 C 
ATOM     30  C   UNL     1      94.608  84.322  90.003  1.00  0.00    -0.010 C 
ATOM     31  G   UNL     1      93.647  82.746  88.113  1.00  0.00     0.000 G0
ATOM     32  O   UNL     1      96.208  86.914  88.474  1.00  0.00    -0.291 OA
ATOM     33  C   UNL     1      95.088  85.567  90.083  1.00  0.00    -0.008 C 
ATOM     34  C   UNL     1      95.160  86.486  91.237  1.00  0.00     0.048 C 
BRANCH  27  35
ATOM     35  O   UNL     1      94.228  85.364  86.969  1.00  0.00    -0.381 OA
ATOM     36  H   UNL     1      94.184  84.888  86.122  1.00  0.00     0.212 HD
ENDBRANCH  27  35
ENDBRANCH  26  27
ENDBRANCH   2  26
ENDBRANCH   1   2
BRANCH   1  37
ATOM     37  O   UNL     1      97.682  82.844  84.231  1.00  0.00    -0.461 OA
BRANCH  37  38
ATOM     38  C   UNL     1      98.343  81.938  83.434  1.00  0.00     0.310 C 
ATOM     39  O   UNL     1      98.187  80.726  83.471  1.00  0.00    -0.252 OA
BRANCH  38  40
ATOM     40  C   UNL     1      99.287  82.672  82.513  1.00  0.00     0.158 C 
BRANCH  40  41
ATOM     41  C   UNL     1      98.695  82.934  81.152  1.00  0.00    -0.037 A 
ATOM     42  C   UNL     1      97.364  83.333  81.036  1.00  0.00     0.008 A 
ATOM     43  C   UNL     1      99.478  82.778  80.009  1.00  0.00     0.008 A 
ATOM     44  C   UNL     1      96.815  83.575  79.776  1.00  0.00     0.046 A 
ATOM     45  C   UNL     1      98.930  83.020  78.749  1.00  0.00     0.046 A 
ATOM     46  C   UNL     1      97.599  83.418  78.632  1.00  0.00     0.115 A 
BRANCH  46  47
ATOM     47  O   UNL     1      97.063  83.653  77.404  1.00  0.00    -0.508 OA
ATOM     48  H   UNL     1      97.110  84.607  77.217  1.00  0.00     0.293 HD
ENDBRANCH  46  47
ENDBRANCH  40  41
ENDBRANCH  38  40
ENDBRANCH  37  38
ENDBRANCH   1  37
TORSDOF 10
ENDMDL
MODEL 6
REMARK VINA RESULT:    -7.041     20.184     23.353
REMARK INTER + INTRA:         -12.775
REMARK INTER:                 -12.352
REMARK INTRA:                  -0.423
REMARK UNBOUND:                -0.795
REMARK SMILES C=C(C)[C@]12C[C@@H](C)[C@@]34O[C@](Cc5ccccc5)(O[C@@H]1[C@@H]3C=C(COC(=O)Cc1ccc(O)cc1)C[C@]1(O)C(=O)C(C)=C[C@@H]41)O2
REMARK SMILES IDX 23 1 22 2 21 3 20 4 9 5 8 6 10 7 6 8 18 10 44 11 19 12 5 13
REMARK SMILES IDX 7 14 4 15 11 16 12 17 13 18 17 19 14 20 16 21 15 22 2 23
REMARK SMILES IDX 3 24 1 25 35 26 36 27 43 28 38 29 42 30 39 32 40 33 41 34
REMARK SMILES IDX 37 35 24 37 25 38 26 39 27 40 28 41 29 42 34 43 30 44 33 45
REMARK SMILES IDX 31 46 32 47
REMARK H PARENT 37 36 32 48
REMARK Flexibility Score: 90.00
ROOT
ATOM      1  C   UNL     1      94.860  87.499  89.892  1.00  0.00     0.264 C 
ENDROOT
BRANCH   1   2
ATOM      2  C   UNL     1      94.667  86.198  89.148  1.00  0.00    -0.033 C 
ATOM      3  C   UNL     1      95.719  85.638  88.516  1.00  0.00    -0.015 C 
BRANCH   3   4
ATOM      4  C   UNL     1      95.771  84.391  87.646  1.00  0.00     0.078 C 
ATOM      5  O   UNL     1      96.351  82.501  89.131  1.00  0.00    -0.319 OA
ATOM      6  C   UNL     1      95.296  83.026  88.267  1.00  0.00     0.095 CG0
ATOM      7  C   UNL     1      97.688  82.611  88.606  1.00  0.00     0.289 C 
ATOM      8  C   UNL     1      95.048  82.017  87.071  1.00  0.00     0.023 C 
ATOM      9  G   UNL     1      94.085  83.243  89.220  1.00  0.00     0.000 G0
ATOM     10  O   UNL     1      98.019  83.964  88.309  1.00  0.00    -0.320 OA
ATOM     11  O   UNL     1      97.851  81.896  87.383  1.00  0.00    -0.313 OA
ATOM     12  C   UNL     1      97.215  84.166  87.135  1.00  0.00     0.170 C 
ATOM     13  C   UNL     1      96.036  82.273  85.891  1.00  0.00     0.049 C 
ATOM     14  C   UNL     1      95.081  80.525  87.447  1.00  0.00     0.011 C 
ATOM     15  C   UNL     1      97.375  82.822  86.384  1.00  0.00     0.122 C 
BRANCH   7  16
ATOM     16  C   UNL     1      98.651  82.063  89.641  1.00  0.00     0.135 C 
BRANCH  16  17
ATOM     17  C   UNL     1     100.058  81.962  89.108  1.00  0.00    -0.040 A 
ATOM     18  C   UNL     1     100.916  83.058  89.190  1.00  0.00     0.004 A 
ATOM     19  C   UNL     1     100.501  80.770  88.534  1.00  0.00     0.004 A 
ATOM     20  C   UNL     1     102.218  82.963  88.697  1.00  0.00     0.000 A 
ATOM     21  C   UNL     1     101.803  80.676  88.041  1.00  0.00     0.000 A 
ATOM     22  C   UNL     1     102.661  81.772  88.123  1.00  0.00     0.000 A 
ENDBRANCH  16  17
ENDBRANCH   7  16
BRANCH  15  23
ATOM     23  C   UNL     1      98.396  82.905  85.296  1.00  0.00    -0.046 C 
ATOM     24  C   UNL     1      97.875  83.193  83.919  1.00  0.00     0.042 C 
ATOM     25  C   UNL     1      99.704  82.732  85.536  1.00  0.00     0.010 C 
ENDBRANCH  15  23
ENDBRANCH   3   4
BRANCH   2  26
ATOM     26  C   UNL     1      93.246  85.673  89.225  1.00  0.00     0.078 C 
BRANCH  26  27
ATOM     27  C   UNL     1      92.996  84.256  88.711  1.00  0.00     0.140 C 
ATOM     28  C   UNL     1      94.062  83.258  89.209  1.00  0.00     0.086 CG0
ATOM     29  C   UNL     1      91.714  83.660  89.252  1.00  0.00     0.190 C 
ATOM     30  C   UNL     1      93.250  82.077  89.664  1.00  0.00    -0.010 C 
ATOM     31  G   UNL     1      95.280  83.029  88.268  1.00  0.00     0.000 G0
ATOM     32  O   UNL     1      90.624  84.212  89.258  1.00  0.00    -0.291 OA
ATOM     33  C   UNL     1      91.930  82.280  89.726  1.00  0.00    -0.008 C 
ATOM     34  C   UNL     1      90.852  81.388  90.199  1.00  0.00     0.048 C 
BRANCH  27  35
ATOM     35  O   UNL     1      92.810  84.241  87.305  1.00  0.00    -0.381 OA
ATOM     36  H   UNL     1      93.551  84.715  86.892  1.00  0.00     0.212 HD
ENDBRANCH  27  35
ENDBRANCH  26  27
ENDBRANCH   2  26
ENDBRANCH   1   2
BRANCH   1  37
ATOM     37  O   UNL     1      96.174  87.968  89.678  1.00  0.00    -0.461 OA
BRANCH  37  38
ATOM     38  C   UNL     1      96.290  89.249  89.190  1.00  0.00     0.310 C 
ATOM     39  O   UNL     1      96.284  89.553  88.005  1.00  0.00    -0.252 OA
BRANCH  38  40
ATOM     40  C   UNL     1      96.424  90.217  90.341  1.00  0.00     0.158 C 
BRANCH  40  41
ATOM     41  C   UNL     1      95.098  90.747  90.821  1.00  0.00    -0.037 A 
ATOM     42  C   UNL     1      94.421  90.101  91.856  1.00  0.00     0.008 A 
ATOM     43  C   UNL     1      94.545  91.883  90.231  1.00  0.00     0.008 A 
ATOM     44  C   UNL     1      93.193  90.591  92.300  1.00  0.00     0.046 A 
ATOM     45  C   UNL     1      93.317  92.375  90.674  1.00  0.00     0.046 A 
ATOM     46  C   UNL     1      92.641  91.729  91.709  1.00  0.00     0.115 A 
BRANCH  46  47
ATOM     47  O   UNL     1      91.443  92.206  92.141  1.00  0.00    -0.508 OA
ATOM     48  H   UNL     1      91.495  93.176  92.210  1.00  0.00     0.293 HD
ENDBRANCH  46  47
ENDBRANCH  40  41
ENDBRANCH  38  40
ENDBRANCH  37  38
ENDBRANCH   1  37
TORSDOF 10
ENDMDL
MODEL 7
REMARK VINA RESULT:    -7.038     18.511     23.200
REMARK INTER + INTRA:         -12.769
REMARK INTER:                 -12.494
REMARK INTRA:                  -0.275
REMARK UNBOUND:                -0.795
REMARK SMILES C=C(C)[C@]12C[C@@H](C)[C@@]34O[C@](Cc5ccccc5)(O[C@@H]1[C@@H]3C=C(COC(=O)Cc1ccc(O)cc1)C[C@]1(O)C(=O)C(C)=C[C@@H]41)O2
REMARK SMILES IDX 23 1 22 2 21 3 20 4 9 5 8 6 10 7 6 8 18 10 44 11 19 12 5 13
REMARK SMILES IDX 7 14 4 15 11 16 12 17 13 18 17 19 14 20 16 21 15 22 2 23
REMARK SMILES IDX 3 24 1 25 35 26 36 27 43 28 38 29 42 30 39 32 40 33 41 34
REMARK SMILES IDX 37 35 24 37 25 38 26 39 27 40 28 41 29 42 34 43 30 44 33 45
REMARK SMILES IDX 31 46 32 47
REMARK H PARENT 37 36 32 48
REMARK Flexibility Score: 90.00
ROOT
ATOM      1  C   UNL     1      98.455  82.889  83.663  1.00  0.00     0.264 C 
ENDROOT
BRANCH   1   2
ATOM      2  C   UNL     1      98.215  82.725  85.146  1.00  0.00    -0.033 C 
ATOM      3  C   UNL     1      96.999  83.013  85.653  1.00  0.00    -0.015 C 
BRANCH   3   4
ATOM      4  C   UNL     1      96.529  83.005  87.098  1.00  0.00     0.078 C 
ATOM      5  O   UNL     1      95.594  80.758  87.539  1.00  0.00    -0.319 OA
ATOM      6  C   UNL     1      96.668  81.672  87.923  1.00  0.00     0.095 CG0
ATOM      7  C   UNL     1      94.295  81.363  87.390  1.00  0.00     0.289 C 
ATOM      8  C   UNL     1      96.519  82.040  89.457  1.00  0.00     0.023 C 
ATOM      9  G   UNL     1      97.975  80.919  87.540  1.00  0.00     0.000 G0
ATOM     10  O   UNL     1      94.321  82.414  86.428  1.00  0.00    -0.320 OA
ATOM     11  O   UNL     1      93.832  81.959  88.599  1.00  0.00    -0.313 OA
ATOM     12  C   UNL     1      95.037  83.414  87.169  1.00  0.00     0.170 C 
ATOM     13  C   UNL     1      95.535  83.231  89.667  1.00  0.00     0.049 C 
ATOM     14  C   UNL     1      96.116  80.877  90.380  1.00  0.00     0.011 C 
ATOM     15  C   UNL     1      94.447  83.263  88.593  1.00  0.00     0.122 C 
BRANCH   7  16
ATOM     16  C   UNL     1      93.319  80.289  86.951  1.00  0.00     0.135 C 
BRANCH  16  17
ATOM     17  C   UNL     1      91.885  80.714  87.142  1.00  0.00    -0.040 A 
ATOM     18  C   UNL     1      91.265  81.525  86.192  1.00  0.00     0.004 A 
ATOM     19  C   UNL     1      91.180  80.296  88.270  1.00  0.00     0.004 A 
ATOM     20  C   UNL     1      89.937  81.918  86.370  1.00  0.00     0.000 A 
ATOM     21  C   UNL     1      89.852  80.689  88.448  1.00  0.00     0.000 A 
ATOM     22  C   UNL     1      89.232  81.500  87.498  1.00  0.00     0.000 A 
ENDBRANCH  16  17
ENDBRANCH   7  16
BRANCH  15  23
ATOM     23  C   UNL     1      93.392  84.283  88.875  1.00  0.00    -0.046 C 
ATOM     24  C   UNL     1      91.982  83.882  88.555  1.00  0.00     0.042 C 
ATOM     25  C   UNL     1      93.688  85.487  89.384  1.00  0.00     0.010 C 
ENDBRANCH  15  23
ENDBRANCH   3   4
BRANCH   2  26
ATOM     26  C   UNL     1      99.437  82.227  85.895  1.00  0.00     0.078 C 
BRANCH  26  27
ATOM     27  C   UNL     1      99.245  81.831  87.358  1.00  0.00     0.140 C 
ATOM     28  C   UNL     1      98.003  80.939  87.563  1.00  0.00     0.086 CG0
ATOM     29  C   UNL     1     100.365  80.952  87.872  1.00  0.00     0.190 C 
ATOM     30  C   UNL     1      98.507  79.836  88.452  1.00  0.00    -0.010 C 
ATOM     31  G   UNL     1      96.683  81.676  87.934  1.00  0.00     0.000 G0
ATOM     32  O   UNL     1     101.559  81.175  87.739  1.00  0.00    -0.291 OA
ATOM     33  C   UNL     1      99.832  79.799  88.623  1.00  0.00    -0.008 C 
ATOM     34  C   UNL     1     100.670  78.824  89.351  1.00  0.00     0.048 C 
BRANCH  27  35
ATOM     35  O   UNL     1      99.284  82.963  88.211  1.00  0.00    -0.381 OA
ATOM     36  H   UNL     1      98.547  82.897  88.842  1.00  0.00     0.212 HD
ENDBRANCH  27  35
ENDBRANCH  26  27
ENDBRANCH   2  26
ENDBRANCH   1   2
BRANCH   1  37
ATOM     37  O   UNL     1      99.681  82.279  83.318  1.00  0.00    -0.461 OA
BRANCH  37  38
ATOM     38  C   UNL     1      99.708  81.604  82.120  1.00  0.00     0.310 C 
ATOM     39  O   UNL     1      99.240  80.490  81.931  1.00  0.00    -0.252 OA
BRANCH  38  40
ATOM     40  C   UNL     1     100.402  82.450  81.080  1.00  0.00     0.158 C 
BRANCH  40  41
ATOM     41  C   UNL     1      99.497  82.839  79.939  1.00  0.00    -0.037 A 
ATOM     42  C   UNL     1      98.170  83.188  80.189  1.00  0.00     0.008 A 
ATOM     43  C   UNL     1      99.986  82.849  78.633  1.00  0.00     0.008 A 
ATOM     44  C   UNL     1      97.332  83.546  79.132  1.00  0.00     0.046 A 
ATOM     45  C   UNL     1      99.149  83.208  77.576  1.00  0.00     0.046 A 
ATOM     46  C   UNL     1      97.822  83.556  77.826  1.00  0.00     0.115 A 
BRANCH  46  47
ATOM     47  O   UNL     1      97.005  83.905  76.796  1.00  0.00    -0.508 OA
ATOM     48  H   UNL     1      97.401  84.655  76.319  1.00  0.00     0.293 HD
ENDBRANCH  46  47
ENDBRANCH  40  41
ENDBRANCH  38  40
ENDBRANCH  37  38
ENDBRANCH   1  37
TORSDOF 10
ENDMDL
MODEL 8
REMARK VINA RESULT:    -7.033     20.399     24.196
REMARK INTER + INTRA:         -12.761
REMARK INTER:                 -11.285
REMARK INTRA:                  -1.476
REMARK UNBOUND:                -0.795
REMARK SMILES C=C(C)[C@]12C[C@@H](C)[C@@]34O[C@](Cc5ccccc5)(O[C@@H]1[C@@H]3C=C(COC(=O)Cc1ccc(O)cc1)C[C@]1(O)C(=O)C(C)=C[C@@H]41)O2
REMARK SMILES IDX 23 1 22 2 21 3 20 4 9 5 8 6 10 7 6 8 18 10 44 11 19 12 5 13
REMARK SMILES IDX 7 14 4 15 11 16 12 17 13 18 17 19 14 20 16 21 15 22 2 23
REMARK SMILES IDX 3 24 1 25 35 26 36 27 43 28 38 29 42 30 39 32 40 33 41 34
REMARK SMILES IDX 37 35 24 37 25 38 26 39 27 40 28 41 29 42 34 43 30 44 33 45
REMARK SMILES IDX 31 46 32 47
REMARK H PARENT 37 36 32 48
REMARK Flexibility Score: 90.00
ROOT
ATOM      1  C   UNL     1      95.615  86.026  88.016  1.00  0.00     0.264 C 
ENDROOT
BRANCH   1   2
ATOM      2  C   UNL     1      94.353  85.463  88.627  1.00  0.00    -0.033 C 
ATOM      3  C   UNL     1      93.706  84.460  87.997  1.00  0.00    -0.015 C 
BRANCH   3   4
ATOM      4  C   UNL     1      92.395  83.780  88.357  1.00  0.00     0.078 C 
ATOM      5  O   UNL     1      92.961  81.819  89.754  1.00  0.00    -0.319 OA
ATOM      6  C   UNL     1      92.266  83.105  89.772  1.00  0.00     0.095 CG0
ATOM      7  C   UNL     1      92.751  81.024  88.571  1.00  0.00     0.289 C 
ATOM      8  C   UNL     1      90.725  82.865  90.050  1.00  0.00     0.023 C 
ATOM      9  G   UNL     1      93.018  83.937  90.852  1.00  0.00     0.000 G0
ATOM     10  O   UNL     1      93.138  81.731  87.397  1.00  0.00    -0.320 OA
ATOM     11  O   UNL     1      91.380  80.684  88.383  1.00  0.00    -0.313 OA
ATOM     12  C   UNL     1      92.067  82.684  87.313  1.00  0.00     0.170 C 
ATOM     13  C   UNL     1      89.949  82.552  88.734  1.00  0.00     0.049 C 
ATOM     14  C   UNL     1      90.403  81.788  91.100  1.00  0.00     0.011 C 
ATOM     15  C   UNL     1      90.833  81.838  87.711  1.00  0.00     0.122 C 
BRANCH   7  16
ATOM     16  C   UNL     1      93.572  79.756  88.701  1.00  0.00     0.135 C 
BRANCH  16  17
ATOM     17  C   UNL     1      94.985  79.943  88.205  1.00  0.00    -0.040 A 
ATOM     18  C   UNL     1      95.925  80.590  89.005  1.00  0.00     0.004 A 
ATOM     19  C   UNL     1      95.349  79.467  86.946  1.00  0.00     0.004 A 
ATOM     20  C   UNL     1      97.232  80.762  88.546  1.00  0.00     0.000 A 
ATOM     21  C   UNL     1      96.655  79.639  86.487  1.00  0.00     0.000 A 
ATOM     22  C   UNL     1      97.596  80.287  87.287  1.00  0.00     0.000 A 
ENDBRANCH  16  17
ENDBRANCH   7  16
BRANCH  15  23
ATOM     23  C   UNL     1      90.066  81.368  86.518  1.00  0.00    -0.046 C 
ATOM     24  C   UNL     1      90.792  80.444  85.586  1.00  0.00     0.042 C 
ATOM     25  C   UNL     1      88.800  81.750  86.293  1.00  0.00     0.010 C 
ENDBRANCH  15  23
ENDBRANCH   3   4
BRANCH   2  26
ATOM     26  C   UNL     1      93.973  86.132  89.935  1.00  0.00     0.078 C 
BRANCH  26  27
ATOM     27  C   UNL     1      92.859  85.483  90.753  1.00  0.00     0.140 C 
ATOM     28  C   UNL     1      93.023  83.952  90.852  1.00  0.00     0.086 CG0
ATOM     29  C   UNL     1      92.884  85.908  92.206  1.00  0.00     0.190 C 
ATOM     30  C   UNL     1      92.786  83.669  92.310  1.00  0.00    -0.010 C 
ATOM     31  G   UNL     1      92.272  83.111  89.779  1.00  0.00     0.000 G0
ATOM     32  O   UNL     1      92.967  87.060  92.606  1.00  0.00    -0.291 OA
ATOM     33  C   UNL     1      92.731  84.745  93.100  1.00  0.00    -0.008 C 
ATOM     34  C   UNL     1      92.596  84.841  94.569  1.00  0.00     0.048 C 
BRANCH  27  35
ATOM     35  O   UNL     1      91.579  85.894  90.302  1.00  0.00    -0.381 OA
ATOM     36  H   UNL     1      91.499  85.669  89.360  1.00  0.00     0.212 HD
ENDBRANCH  27  35
ENDBRANCH  26  27
ENDBRANCH   2  26
ENDBRANCH   1   2
BRANCH   1  37
ATOM     37  O   UNL     1      95.420  86.213  86.631  1.00  0.00    -0.461 OA
BRANCH  37  38
ATOM     38  C   UNL     1      96.394  85.701  85.805  1.00  0.00     0.310 C 
ATOM     39  O   UNL     1      97.302  86.349  85.304  1.00  0.00    -0.252 OA
BRANCH  38  40
ATOM     40  C   UNL     1      96.167  84.220  85.617  1.00  0.00     0.158 C 
BRANCH  40  41
ATOM     41  C   UNL     1      97.442  83.457  85.369  1.00  0.00    -0.037 A 
ATOM     42  C   UNL     1      98.547  83.655  86.197  1.00  0.00     0.008 A 
ATOM     43  C   UNL     1      97.519  82.552  84.311  1.00  0.00     0.008 A 
ATOM     44  C   UNL     1      99.729  82.950  85.967  1.00  0.00     0.046 A 
ATOM     45  C   UNL     1      98.700  81.846  84.080  1.00  0.00     0.046 A 
ATOM     46  C   UNL     1      99.805  82.045  84.907  1.00  0.00     0.115 A 
BRANCH  46  47
ATOM     47  O   UNL     1     100.957  81.357  84.682  1.00  0.00    -0.508 OA
ATOM     48  H   UNL     1     100.877  80.873  83.842  1.00  0.00     0.293 HD
ENDBRANCH  46  47
ENDBRANCH  40  41
ENDBRANCH  38  40
ENDBRANCH  37  38
ENDBRANCH   1  37
TORSDOF 10
ENDMDL
MODEL 9
REMARK VINA RESULT:    -6.944     20.649     24.474
REMARK INTER + INTRA:         -12.610
REMARK INTER:                 -11.847
REMARK INTRA:                  -0.762
REMARK UNBOUND:                -0.795
REMARK SMILES C=C(C)[C@]12C[C@@H](C)[C@@]34O[C@](Cc5ccccc5)(O[C@@H]1[C@@H]3C=C(COC(=O)Cc1ccc(O)cc1)C[C@]1(O)C(=O)C(C)=C[C@@H]41)O2
REMARK SMILES IDX 23 1 22 2 21 3 20 4 9 5 8 6 10 7 6 8 18 10 44 11 19 12 5 13
REMARK SMILES IDX 7 14 4 15 11 16 12 17 13 18 17 19 14 20 16 21 15 22 2 23
REMARK SMILES IDX 3 24 1 25 35 26 36 27 43 28 38 29 42 30 39 32 40 33 41 34
REMARK SMILES IDX 37 35 24 37 25 38 26 39 27 40 28 41 29 42 34 43 30 44 33 45
REMARK SMILES IDX 31 46 32 47
REMARK H PARENT 37 36 32 48
REMARK Flexibility Score: 90.00
ROOT
ATOM      1  C   UNL     1      94.795  85.504  87.556  1.00  0.00     0.264 C 
ENDROOT
BRANCH   1   2
ATOM      2  C   UNL     1      93.626  84.618  87.921  1.00  0.00    -0.033 C 
ATOM      3  C   UNL     1      93.518  83.401  87.350  1.00  0.00    -0.015 C 
BRANCH   3   4
ATOM      4  C   UNL     1      92.414  82.365  87.489  1.00  0.00     0.078 C 
ATOM      5  O   UNL     1      93.085  80.835  89.312  1.00  0.00    -0.319 OA
ATOM      6  C   UNL     1      92.076  81.818  88.924  1.00  0.00     0.095 CG0
ATOM      7  C   UNL     1      93.471  79.909  88.278  1.00  0.00     0.289 C 
ATOM      8  C   UNL     1      90.659  81.112  88.848  1.00  0.00     0.023 C 
ATOM      9  G   UNL     1      92.204  82.946  89.990  1.00  0.00     0.000 G0
ATOM     10  O   UNL     1      93.964  80.593  87.129  1.00  0.00    -0.320 OA
ATOM     11  O   UNL     1      92.375  79.122  87.817  1.00  0.00    -0.313 OA
ATOM     12  C   UNL     1      92.737  81.131  86.611  1.00  0.00     0.170 C 
ATOM     13  C   UNL     1      90.428  80.443  87.459  1.00  0.00     0.049 C 
ATOM     14  C   UNL     1      90.369  80.090  89.961  1.00  0.00     0.011 C 
ATOM     15  C   UNL     1      91.741  79.967  86.834  1.00  0.00     0.122 C 
BRANCH   7  16
ATOM     16  C   UNL     1      94.548  78.998  88.834  1.00  0.00     0.135 C 
BRANCH  16  17
ATOM     17  C   UNL     1      95.260  78.233  87.746  1.00  0.00    -0.040 A 
ATOM     18  C   UNL     1      94.828  76.955  87.395  1.00  0.00     0.004 A 
ATOM     19  C   UNL     1      96.351  78.806  87.092  1.00  0.00     0.004 A 
ATOM     20  C   UNL     1      95.487  76.248  86.388  1.00  0.00     0.000 A 
ATOM     21  C   UNL     1      97.010  78.099  86.086  1.00  0.00     0.000 A 
ATOM     22  C   UNL     1      96.578  76.821  85.734  1.00  0.00     0.000 A 
ENDBRANCH  16  17
ENDBRANCH   7  16
BRANCH  15  23
ATOM     23  C   UNL     1      91.528  79.164  85.592  1.00  0.00    -0.046 C 
ATOM     24  C   UNL     1      90.369  79.572  84.731  1.00  0.00     0.042 C 
ATOM     25  C   UNL     1      92.326  78.137  85.266  1.00  0.00     0.010 C 
ENDBRANCH  15  23
ENDBRANCH   3   4
BRANCH   2  26
ATOM     26  C   UNL     1      92.695  85.251  88.938  1.00  0.00     0.078 C 
BRANCH  26  27
ATOM     27  C   UNL     1      91.637  84.349  89.572  1.00  0.00     0.140 C 
ATOM     28  C   UNL     1      92.209  82.976  89.979  1.00  0.00     0.086 CG0
ATOM     29  C   UNL     1      91.126  84.892  90.889  1.00  0.00     0.190 C 
ATOM     30  C   UNL     1      91.666  82.768  91.366  1.00  0.00    -0.010 C 
ATOM     31  G   UNL     1      92.073  81.837  88.927  1.00  0.00     0.000 G0
ATOM     32  O   UNL     1      90.751  86.039  91.085  1.00  0.00    -0.291 OA
ATOM     33  C   UNL     1      91.077  83.834  91.916  1.00  0.00    -0.008 C 
ATOM     34  C   UNL     1      90.513  84.017  93.269  1.00  0.00     0.048 C 
BRANCH  27  35
ATOM     35  O   UNL     1      90.474  84.268  88.765  1.00  0.00    -0.381 OA
ATOM     36  H   UNL     1      90.733  83.947  87.885  1.00  0.00     0.212 HD
ENDBRANCH  27  35
ENDBRANCH  26  27
ENDBRANCH   2  26
ENDBRANCH   1   2
BRANCH   1  37
ATOM     37  O   UNL     1      95.526  85.817  88.722  1.00  0.00    -0.461 OA
BRANCH  37  38
ATOM     38  C   UNL     1      95.872  87.139  88.885  1.00  0.00     0.310 C 
ATOM     39  O   UNL     1      96.302  87.866  88.001  1.00  0.00    -0.252 OA
BRANCH  38  40
ATOM     40  C   UNL     1      95.639  87.548  90.319  1.00  0.00     0.158 C 
BRANCH  40  41
ATOM     41  C   UNL     1      94.637  88.664  90.457  1.00  0.00    -0.037 A 
ATOM     42  C   UNL     1      93.387  88.414  91.024  1.00  0.00     0.008 A 
ATOM     43  C   UNL     1      94.959  89.948  90.018  1.00  0.00     0.008 A 
ATOM     44  C   UNL     1      92.459  89.448  91.150  1.00  0.00     0.046 A 
ATOM     45  C   UNL     1      94.031  90.983  90.146  1.00  0.00     0.046 A 
ATOM     46  C   UNL     1      92.781  90.733  90.711  1.00  0.00     0.115 A 
BRANCH  46  47
ATOM     47  O   UNL     1      91.876  91.741  90.835  1.00  0.00    -0.508 OA
ATOM     48  H   UNL     1      91.239  91.509  91.533  1.00  0.00     0.293 HD
ENDBRANCH  46  47
ENDBRANCH  40  41
ENDBRANCH  38  40
ENDBRANCH  37  38
ENDBRANCH   1  37
TORSDOF 10
ENDMDL
MODEL 10
REMARK VINA RESULT:    -6.700     19.289     23.268
REMARK INTER + INTRA:         -12.194
REMARK INTER:                 -11.649
REMARK INTRA:                  -0.545
REMARK UNBOUND:                -0.795
REMARK SMILES C=C(C)[C@]12C[C@@H](C)[C@@]34O[C@](Cc5ccccc5)(O[C@@H]1[C@@H]3C=C(COC(=O)Cc1ccc(O)cc1)C[C@]1(O)C(=O)C(C)=C[C@@H]41)O2
REMARK SMILES IDX 23 1 22 2 21 3 20 4 9 5 8 6 10 7 6 8 18 10 44 11 19 12 5 13
REMARK SMILES IDX 7 14 4 15 11 16 12 17 13 18 17 19 14 20 16 21 15 22 2 23
REMARK SMILES IDX 3 24 1 25 35 26 36 27 43 28 38 29 42 30 39 32 40 33 41 34
REMARK SMILES IDX 37 35 24 37 25 38 26 39 27 40 28 41 29 42 34 43 30 44 33 45
REMARK SMILES IDX 31 46 32 47
REMARK H PARENT 37 36 32 48
REMARK Flexibility Score: 90.00
ROOT
ATOM      1  C   UNL     1      97.982  82.802  86.077  1.00  0.00     0.264 C 
ENDROOT
BRANCH   1   2
ATOM      2  C   UNL     1      96.651  83.343  86.543  1.00  0.00    -0.033 C 
ATOM      3  C   UNL     1      95.619  82.492  86.721  1.00  0.00    -0.015 C 
BRANCH   3   4
ATOM      4  C   UNL     1      94.178  82.789  87.105  1.00  0.00     0.078 C 
ATOM      5  O   UNL     1      94.039  82.623  89.568  1.00  0.00    -0.319 OA
ATOM      6  C   UNL     1      93.904  83.555  88.451  1.00  0.00     0.095 CG0
ATOM      7  C   UNL     1      93.447  81.326  89.362  1.00  0.00     0.289 C 
ATOM      8  C   UNL     1      92.417  84.099  88.399  1.00  0.00     0.023 C 
ATOM      9  G   UNL     1      95.001  84.630  88.708  1.00  0.00     0.000 G0
ATOM     10  O   UNL     1      93.988  80.687  88.209  1.00  0.00    -0.320 OA
ATOM     11  O   UNL     1      92.041  81.401  89.137  1.00  0.00    -0.313 OA
ATOM     12  C   UNL     1      93.370  81.470  87.175  1.00  0.00     0.170 C 
ATOM     13  C   UNL     1      91.483  83.135  87.606  1.00  0.00     0.049 C 
ATOM     14  C   UNL     1      91.782  84.417  89.763  1.00  0.00     0.011 C 
ATOM     15  C   UNL     1      91.938  81.680  87.725  1.00  0.00     0.122 C 
BRANCH   7  16
ATOM     16  C   UNL     1      93.716  80.480  90.591  1.00  0.00     0.135 C 
BRANCH  16  17
ATOM     17  C   UNL     1      92.466  80.246  91.402  1.00  0.00    -0.040 A 
ATOM     18  C   UNL     1      91.870  81.304  92.087  1.00  0.00     0.004 A 
ATOM     19  C   UNL     1      91.907  78.970  91.466  1.00  0.00     0.004 A 
ATOM     20  C   UNL     1      90.713  81.086  92.837  1.00  0.00     0.000 A 
ATOM     21  C   UNL     1      90.750  78.752  92.216  1.00  0.00     0.000 A 
ATOM     22  C   UNL     1      90.154  79.810  92.901  1.00  0.00     0.000 A 
ENDBRANCH  16  17
ENDBRANCH   7  16
BRANCH  15  23
ATOM     23  C   UNL     1      90.960  80.722  87.126  1.00  0.00    -0.046 C 
ATOM     24  C   UNL     1      90.140  79.922  88.095  1.00  0.00     0.042 C 
ATOM     25  C   UNL     1      90.823  80.585  85.799  1.00  0.00     0.010 C 
ENDBRANCH  15  23
ENDBRANCH   3   4
BRANCH   2  26
ATOM     26  C   UNL     1      96.662  84.844  86.764  1.00  0.00     0.078 C 
BRANCH  26  27
ATOM     27  C   UNL     1      95.446  85.457  87.457  1.00  0.00     0.140 C 
ATOM     28  C   UNL     1      95.000  84.638  88.686  1.00  0.00     0.086 CG0
ATOM     29  C   UNL     1      95.745  86.813  88.060  1.00  0.00     0.190 C 
ATOM     30  C   UNL     1      94.780  85.685  89.742  1.00  0.00    -0.010 C 
ATOM     31  G   UNL     1      93.901  83.565  88.433  1.00  0.00     0.000 G0
ATOM     32  O   UNL     1      96.305  87.735  87.487  1.00  0.00    -0.291 OA
ATOM     33  C   UNL     1      95.213  86.911  89.433  1.00  0.00    -0.008 C 
ATOM     34  C   UNL     1      95.237  88.145  90.244  1.00  0.00     0.048 C 
BRANCH  27  35
ATOM     35  O   UNL     1      94.402  85.719  86.534  1.00  0.00    -0.381 OA
ATOM     36  H   UNL     1      94.678  85.398  85.659  1.00  0.00     0.212 HD
ENDBRANCH  27  35
ENDBRANCH  26  27
ENDBRANCH   2  26
ENDBRANCH   1   2
BRANCH   1  37
ATOM     37  O   UNL     1      98.113  83.016  84.688  1.00  0.00    -0.461 OA
BRANCH  37  38
ATOM     38  C   UNL     1      98.408  81.908  83.927  1.00  0.00     0.310 C 
ATOM     39  O   UNL     1      97.812  80.842  83.979  1.00  0.00    -0.252 OA
BRANCH  38  40
ATOM     40  C   UNL     1      99.578  82.215  83.023  1.00  0.00     0.158 C 
BRANCH  40  41
ATOM     41  C   UNL     1      99.172  82.424  81.587  1.00  0.00    -0.037 A 
ATOM     42  C   UNL     1      98.043  83.185  81.285  1.00  0.00     0.008 A 
ATOM     43  C   UNL     1      99.925  81.856  80.560  1.00  0.00     0.008 A 
ATOM     44  C   UNL     1      97.666  83.377  79.955  1.00  0.00     0.046 A 
ATOM     45  C   UNL     1      99.550  82.049  79.230  1.00  0.00     0.046 A 
ATOM     46  C   UNL     1      98.420  82.809  78.928  1.00  0.00     0.115 A 
BRANCH  46  47
ATOM     47  O   UNL     1      98.053  82.996  77.631  1.00  0.00    -0.508 OA
ATOM     48  H   UNL     1      97.082  82.978  77.572  1.00  0.00     0.293 HD
ENDBRANCH  46  47
ENDBRANCH  40  41
ENDBRANCH  38  40
ENDBRANCH  37  38
ENDBRANCH   1  37
TORSDOF 10
ENDMDL
