MODEL 1
REMARK VINA RESULT:    -6.081      0.000      0.000
REMARK INTER + INTRA:         -10.589
REMARK INTER:                  -9.814
REMARK INTRA:                  -0.775
REMARK UNBOUND:                -0.775
REMARK SMILES COc1cc(CNC(=O)CCCCC/C=C/C(C)C)ccc1O
REMARK SMILES IDX 11 1 10 2 8 3 7 4 9 6 6 7 5 8 3 9 22 10 4 11 21 12 20 13
REMARK SMILES IDX 2 14 1 15 23 16 12 18 13 19 14 20 15 21 16 22 17 23 18 24
REMARK SMILES IDX 19 25
REMARK H PARENT 7 5 23 17
REMARK Flexibility Score: inf
ROOT
ATOM      1  C   UNL     1      83.787  68.205  72.457  1.00  0.00     0.010 C 
ENDROOT
BRANCH   1   2
ATOM      2  C   UNL     1      84.449  68.688  71.141  1.00  0.00     0.100 C 
BRANCH   2   3
ATOM      3  C   UNL     1      85.797  69.259  71.321  1.00  0.00     0.220 C 
ATOM      4  N   UNL     1      86.503  69.686  70.238  1.00  0.00    -0.352 N 
ATOM      5  H   UNL     1      86.060  69.506  69.348  1.00  0.00     0.163 HD
ATOM      6  O   UNL     1      86.244  69.373  72.487  1.00  0.00    -0.275 OA
BRANCH   4   7
ATOM      7  C   UNL     1      87.769  70.343  70.279  1.00  0.00     0.151 C 
BRANCH   7   8
ATOM      8  C   UNL     1      87.933  71.338  69.188  1.00  0.00    -0.025 A 
ATOM      9  C   UNL     1      89.186  73.183  68.150  1.00  0.00     0.160 A 
ATOM     10  C   UNL     1      88.211  73.270  67.132  1.00  0.00     0.157 A 
ATOM     11  C   UNL     1      89.035  72.225  69.174  1.00  0.00     0.056 A 
ATOM     12  C   UNL     1      87.120  72.382  67.127  1.00  0.00     0.050 A 
ATOM     13  C   UNL     1      86.988  71.416  68.142  1.00  0.00     0.009 A 
BRANCH   9  14
ATOM     14  O   UNL     1      90.296  73.984  68.116  1.00  0.00    -0.493 OA
ATOM     15  C   UNL     1      91.458  73.354  67.551  1.00  0.00     0.278 C 
ENDBRANCH   9  14
BRANCH  10  16
ATOM     16  O   UNL     1      88.304  74.197  66.146  1.00  0.00    -0.504 OA
ATOM     17  H   UNL     1      88.417  75.068  66.534  1.00  0.00     0.293 HD
ENDBRANCH  10  16
ENDBRANCH   7   8
ENDBRANCH   4   7
ENDBRANCH   2   3
ENDBRANCH   1   2
BRANCH   1  18
ATOM     18  C   UNL     1      82.241  68.209  72.339  1.00  0.00     0.001 C 
BRANCH  18  19
ATOM     19  C   UNL     1      81.723  67.864  70.920  1.00  0.00     0.004 C 
BRANCH  19  20
ATOM     20  C   UNL     1      80.469  66.948  70.982  1.00  0.00     0.027 C 
BRANCH  20  21
ATOM     21  C   UNL     1      80.160  66.470  72.319  1.00  0.00    -0.031 C 
ATOM     22  C   UNL     1      80.417  65.209  72.709  1.00  0.00    -0.028 C 
BRANCH  22  23
ATOM     23  C   UNL     1      80.123  64.700  74.046  1.00  0.00     0.005 C 
ATOM     24  C   UNL     1      79.721  63.202  73.975  1.00  0.00     0.012 C 
ATOM     25  C   UNL     1      81.332  64.942  74.991  1.00  0.00     0.012 C 
ENDBRANCH  22  23
ENDBRANCH  20  21
ENDBRANCH  19  20
ENDBRANCH  18  19
ENDBRANCH   1  18
TORSDOF 11
ENDMDL
MODEL 2
REMARK VINA RESULT:    -5.889      6.181      9.903
REMARK INTER + INTRA:         -10.279
REMARK INTER:                  -9.163
REMARK INTRA:                  -1.116
REMARK UNBOUND:                -0.775
REMARK SMILES COc1cc(CNC(=O)CCCCC/C=C/C(C)C)ccc1O
REMARK SMILES IDX 11 1 10 2 8 3 7 4 9 6 6 7 5 8 3 9 22 10 4 11 21 12 20 13
REMARK SMILES IDX 2 14 1 15 23 16 12 18 13 19 14 20 15 21 16 22 17 23 18 24
REMARK SMILES IDX 19 25
REMARK H PARENT 7 5 23 17
REMARK Flexibility Score: inf
ROOT
ATOM      1  C   UNL     1      85.387  63.325  78.151  1.00  0.00     0.010 C 
ENDROOT
BRANCH   1   2
ATOM      2  C   UNL     1      84.029  63.231  77.408  1.00  0.00     0.100 C 
BRANCH   2   3
ATOM      3  C   UNL     1      83.571  64.508  76.830  1.00  0.00     0.220 C 
ATOM      4  N   UNL     1      82.244  64.811  76.821  1.00  0.00    -0.352 N 
ATOM      5  H   UNL     1      81.641  64.075  77.161  1.00  0.00     0.163 HD
ATOM      6  O   UNL     1      84.433  65.307  76.393  1.00  0.00    -0.275 OA
BRANCH   4   7
ATOM      7  C   UNL     1      81.678  66.045  76.384  1.00  0.00     0.151 C 
BRANCH   7   8
ATOM      8  C   UNL     1      81.263  66.011  74.957  1.00  0.00    -0.025 A 
ATOM      9  C   UNL     1      81.203  67.040  72.724  1.00  0.00     0.160 A 
ATOM     10  C   UNL     1      80.421  65.964  72.250  1.00  0.00     0.157 A 
ATOM     11  C   UNL     1      81.609  67.060  74.074  1.00  0.00     0.056 A 
ATOM     12  C   UNL     1      80.085  64.906  73.115  1.00  0.00     0.050 A 
ATOM     13  C   UNL     1      80.512  64.924  74.456  1.00  0.00     0.009 A 
BRANCH   9  14
ATOM     14  O   UNL     1      81.609  68.030  71.869  1.00  0.00    -0.493 OA
ATOM     15  C   UNL     1      82.859  68.641  72.229  1.00  0.00     0.278 C 
ENDBRANCH   9  14
BRANCH  10  16
ATOM     16  O   UNL     1      79.986  65.921  70.966  1.00  0.00    -0.504 OA
ATOM     17  H   UNL     1      79.998  65.012  70.655  1.00  0.00     0.293 HD
ENDBRANCH  10  16
ENDBRANCH   7   8
ENDBRANCH   4   7
ENDBRANCH   2   3
ENDBRANCH   1   2
BRANCH   1  18
ATOM     18  C   UNL     1      85.184  63.713  79.638  1.00  0.00     0.001 C 
BRANCH  18  19
ATOM     19  C   UNL     1      86.074  64.895  80.101  1.00  0.00     0.004 C 
BRANCH  19  20
ATOM     20  C   UNL     1      86.792  65.568  78.898  1.00  0.00     0.027 C 
BRANCH  20  21
ATOM     21  C   UNL     1      86.784  67.020  78.951  1.00  0.00    -0.031 C 
ATOM     22  C   UNL     1      86.357  67.774  77.923  1.00  0.00    -0.028 C 
BRANCH  22  23
ATOM     23  C   UNL     1      86.331  69.235  77.947  1.00  0.00     0.005 C 
ATOM     24  C   UNL     1      86.987  69.763  79.250  1.00  0.00     0.012 C 
ATOM     25  C   UNL     1      87.011  69.804  76.672  1.00  0.00     0.012 C 
ENDBRANCH  22  23
ENDBRANCH  20  21
ENDBRANCH  19  20
ENDBRANCH  18  19
ENDBRANCH   1  18
TORSDOF 11
ENDMDL
MODEL 3
REMARK VINA RESULT:    -5.868     25.117     26.585
REMARK INTER + INTRA:         -10.245
REMARK INTER:                  -8.559
REMARK INTRA:                  -1.686
REMARK UNBOUND:                -0.775
REMARK SMILES COc1cc(CNC(=O)CCCCC/C=C/C(C)C)ccc1O
REMARK SMILES IDX 11 1 10 2 8 3 7 4 9 6 6 7 5 8 3 9 22 10 4 11 21 12 20 13
REMARK SMILES IDX 2 14 1 15 23 16 12 18 13 19 14 20 15 21 16 22 17 23 18 24
REMARK SMILES IDX 19 25
REMARK H PARENT 7 5 23 17
REMARK Flexibility Score: inf
ROOT
ATOM      1  C   UNL     1      81.834  88.479  91.774  1.00  0.00     0.010 C 
ENDROOT
BRANCH   1   2
ATOM      2  C   UNL     1      80.308  88.715  91.915  1.00  0.00     0.100 C 
BRANCH   2   3
ATOM      3  C   UNL     1      79.515  88.206  90.780  1.00  0.00     0.220 C 
ATOM      4  N   UNL     1      80.094  88.069  89.555  1.00  0.00    -0.352 N 
ATOM      5  H   UNL     1      81.044  88.409  89.498  1.00  0.00     0.163 HD
ATOM      6  O   UNL     1      78.325  87.871  90.988  1.00  0.00    -0.275 OA
BRANCH   4   7
ATOM      7  C   UNL     1      79.474  87.502  88.403  1.00  0.00     0.151 C 
BRANCH   7   8
ATOM      8  C   UNL     1      80.438  86.788  87.526  1.00  0.00    -0.025 A 
ATOM      9  C   UNL     1      81.134  86.019  85.296  1.00  0.00     0.160 A 
ATOM     10  C   UNL     1      82.255  85.379  85.868  1.00  0.00     0.157 A 
ATOM     11  C   UNL     1      80.230  86.710  86.129  1.00  0.00     0.056 A 
ATOM     12  C   UNL     1      82.481  85.465  87.254  1.00  0.00     0.050 A 
ATOM     13  C   UNL     1      81.585  86.173  88.076  1.00  0.00     0.009 A 
BRANCH   9  14
ATOM     14  O   UNL     1      80.952  86.015  83.939  1.00  0.00    -0.493 OA
ATOM     15  C   UNL     1      80.185  87.127  83.446  1.00  0.00     0.278 C 
ENDBRANCH   9  14
BRANCH  10  16
ATOM     16  O   UNL     1      83.133  84.680  85.105  1.00  0.00    -0.504 OA
ATOM     17  H   UNL     1      82.783  84.591  84.215  1.00  0.00     0.293 HD
ENDBRANCH  10  16
ENDBRANCH   7   8
ENDBRANCH   4   7
ENDBRANCH   2   3
ENDBRANCH   1   2
BRANCH   1  18
ATOM     18  C   UNL     1      82.572  89.795  91.418  1.00  0.00     0.001 C 
BRANCH  18  19
ATOM     19  C   UNL     1      83.349  89.730  90.079  1.00  0.00     0.004 C 
BRANCH  19  20
ATOM     20  C   UNL     1      82.552  90.406  88.928  1.00  0.00     0.027 C 
BRANCH  20  21
ATOM     21  C   UNL     1      82.972  89.986  87.602  1.00  0.00    -0.031 C 
ATOM     22  C   UNL     1      83.125  90.856  86.588  1.00  0.00    -0.028 C 
BRANCH  22  23
ATOM     23  C   UNL     1      83.551  90.468  85.245  1.00  0.00     0.005 C 
ATOM     24  C   UNL     1      85.081  90.675  85.085  1.00  0.00     0.012 C 
ATOM     25  C   UNL     1      83.119  89.006  84.948  1.00  0.00     0.012 C 
ENDBRANCH  22  23
ENDBRANCH  20  21
ENDBRANCH  19  20
ENDBRANCH  18  19
ENDBRANCH   1  18
TORSDOF 11
ENDMDL
MODEL 4
REMARK VINA RESULT:    -5.866     18.313     20.548
REMARK INTER + INTRA:         -10.241
REMARK INTER:                  -9.040
REMARK INTRA:                  -1.201
REMARK UNBOUND:                -0.775
REMARK SMILES COc1cc(CNC(=O)CCCCC/C=C/C(C)C)ccc1O
REMARK SMILES IDX 11 1 10 2 8 3 7 4 9 6 6 7 5 8 3 9 22 10 4 11 21 12 20 13
REMARK SMILES IDX 2 14 1 15 23 16 12 18 13 19 14 20 15 21 16 22 17 23 18 24
REMARK SMILES IDX 19 25
REMARK H PARENT 7 5 23 17
REMARK Flexibility Score: inf
ROOT
ATOM      1  C   UNL     1      74.350  80.941  64.533  1.00  0.00     0.010 C 
ENDROOT
BRANCH   1   2
ATOM      2  C   UNL     1      73.440  80.536  63.344  1.00  0.00     0.100 C 
BRANCH   2   3
ATOM      3  C   UNL     1      71.998  80.683  63.615  1.00  0.00     0.220 C 
ATOM      4  N   UNL     1      71.553  81.718  64.380  1.00  0.00    -0.352 N 
ATOM      5  H   UNL     1      72.284  82.291  64.780  1.00  0.00     0.163 HD
ATOM      6  O   UNL     1      71.207  79.862  63.093  1.00  0.00    -0.275 OA
BRANCH   4   7
ATOM      7  C   UNL     1      70.185  82.031  64.639  1.00  0.00     0.151 C 
BRANCH   7   8
ATOM      8  C   UNL     1      70.022  83.011  65.744  1.00  0.00    -0.025 A 
ATOM      9  C   UNL     1      70.742  85.050  66.915  1.00  0.00     0.160 A 
ATOM     10  C   UNL     1      69.738  84.846  67.886  1.00  0.00     0.157 A 
ATOM     11  C   UNL     1      70.883  84.127  65.859  1.00  0.00     0.056 A 
ATOM     12  C   UNL     1      68.865  83.749  67.773  1.00  0.00     0.050 A 
ATOM     13  C   UNL     1      68.999  82.843  66.704  1.00  0.00     0.009 A 
BRANCH   9  14
ATOM     14  O   UNL     1      71.540  86.162  66.967  1.00  0.00    -0.493 OA
ATOM     15  C   UNL     1      72.918  85.884  67.269  1.00  0.00     0.278 C 
ENDBRANCH   9  14
BRANCH  10  16
ATOM     16  O   UNL     1      69.588  85.695  68.934  1.00  0.00    -0.504 OA
ATOM     17  H   UNL     1      70.402  86.186  69.066  1.00  0.00     0.293 HD
ENDBRANCH  10  16
ENDBRANCH   7   8
ENDBRANCH   4   7
ENDBRANCH   2   3
ENDBRANCH   1   2
BRANCH   1  18
ATOM     18  C   UNL     1      75.848  80.832  64.153  1.00  0.00     0.001 C 
BRANCH  18  19
ATOM     19  C   UNL     1      76.450  82.152  63.609  1.00  0.00     0.004 C 
BRANCH  19  20
ATOM     20  C   UNL     1      75.779  83.393  64.261  1.00  0.00     0.027 C 
BRANCH  20  21
ATOM     21  C   UNL     1      76.463  83.869  65.451  1.00  0.00    -0.031 C 
ATOM     22  C   UNL     1      75.944  83.728  66.684  1.00  0.00    -0.028 C 
BRANCH  22  23
ATOM     23  C   UNL     1      76.608  84.192  67.900  1.00  0.00     0.005 C 
ATOM     24  C   UNL     1      77.247  85.586  67.665  1.00  0.00     0.012 C 
ATOM     25  C   UNL     1      75.611  84.192  69.090  1.00  0.00     0.012 C 
ENDBRANCH  22  23
ENDBRANCH  20  21
ENDBRANCH  19  20
ENDBRANCH  18  19
ENDBRANCH   1  18
TORSDOF 11
ENDMDL
MODEL 5
REMARK VINA RESULT:    -5.790      6.478     10.719
REMARK INTER + INTRA:         -10.119
REMARK INTER:                  -9.465
REMARK INTRA:                  -0.654
REMARK UNBOUND:                -0.775
REMARK SMILES COc1cc(CNC(=O)CCCCC/C=C/C(C)C)ccc1O
REMARK SMILES IDX 11 1 10 2 8 3 7 4 9 6 6 7 5 8 3 9 22 10 4 11 21 12 20 13
REMARK SMILES IDX 2 14 1 15 23 16 12 18 13 19 14 20 15 21 16 22 17 23 18 24
REMARK SMILES IDX 19 25
REMARK H PARENT 7 5 23 17
REMARK Flexibility Score: inf
ROOT
ATOM      1  C   UNL     1      85.446  63.394  78.073  1.00  0.00     0.010 C 
ENDROOT
BRANCH   1   2
ATOM      2  C   UNL     1      84.106  63.260  77.304  1.00  0.00     0.100 C 
BRANCH   2   3
ATOM      3  C   UNL     1      83.606  64.530  76.745  1.00  0.00     0.220 C 
ATOM      4  N   UNL     1      82.277  64.820  76.804  1.00  0.00    -0.352 N 
ATOM      5  H   UNL     1      81.700  64.080  77.179  1.00  0.00     0.163 HD
ATOM      6  O   UNL     1      84.436  65.335  76.260  1.00  0.00    -0.275 OA
BRANCH   4   7
ATOM      7  C   UNL     1      81.677  66.046  76.391  1.00  0.00     0.151 C 
BRANCH   7   8
ATOM      8  C   UNL     1      81.252  66.024  74.967  1.00  0.00    -0.025 A 
ATOM      9  C   UNL     1      81.133  67.095  72.756  1.00  0.00     0.160 A 
ATOM     10  C   UNL     1      80.391  65.998  72.266  1.00  0.00     0.157 A 
ATOM     11  C   UNL     1      81.549  67.104  74.103  1.00  0.00     0.056 A 
ATOM     12  C   UNL     1      80.104  64.911  73.112  1.00  0.00     0.050 A 
ATOM     13  C   UNL     1      80.540  64.919  74.449  1.00  0.00     0.009 A 
BRANCH   9  14
ATOM     14  O   UNL     1      81.493  68.117  71.919  1.00  0.00    -0.493 OA
ATOM     15  C   UNL     1      82.858  68.543  72.064  1.00  0.00     0.278 C 
ENDBRANCH   9  14
BRANCH  10  16
ATOM     16  O   UNL     1      79.947  65.964  70.984  1.00  0.00    -0.504 OA
ATOM     17  H   UNL     1      80.161  66.794  70.550  1.00  0.00     0.293 HD
ENDBRANCH  10  16
ENDBRANCH   7   8
ENDBRANCH   4   7
ENDBRANCH   2   3
ENDBRANCH   1   2
BRANCH   1  18
ATOM     18  C   UNL     1      85.216  63.378  79.606  1.00  0.00     0.001 C 
BRANCH  18  19
ATOM     19  C   UNL     1      85.787  64.621  80.335  1.00  0.00     0.004 C 
BRANCH  19  20
ATOM     20  C   UNL     1      85.544  64.540  81.868  1.00  0.00     0.027 C 
BRANCH  20  21
ATOM     21  C   UNL     1      86.101  65.659  82.608  1.00  0.00    -0.031 C 
ATOM     22  C   UNL     1      85.709  65.961  83.858  1.00  0.00    -0.028 C 
BRANCH  22  23
ATOM     23  C   UNL     1      86.253  67.076  84.630  1.00  0.00     0.005 C 
ATOM     24  C   UNL     1      87.703  67.389  84.174  1.00  0.00     0.012 C 
ATOM     25  C   UNL     1      85.320  68.312  84.519  1.00  0.00     0.012 C 
ENDBRANCH  22  23
ENDBRANCH  20  21
ENDBRANCH  19  20
ENDBRANCH  18  19
ENDBRANCH   1  18
TORSDOF 11
ENDMDL
MODEL 6
REMARK VINA RESULT:    -5.684     21.925     24.141
REMARK INTER + INTRA:          -9.948
REMARK INTER:                  -8.784
REMARK INTRA:                  -1.163
REMARK UNBOUND:                -0.775
REMARK SMILES COc1cc(CNC(=O)CCCCC/C=C/C(C)C)ccc1O
REMARK SMILES IDX 11 1 10 2 8 3 7 4 9 6 6 7 5 8 3 9 22 10 4 11 21 12 20 13
REMARK SMILES IDX 2 14 1 15 23 16 12 18 13 19 14 20 15 21 16 22 17 23 18 24
REMARK SMILES IDX 19 25
REMARK H PARENT 7 5 23 17
REMARK Flexibility Score: inf
ROOT
ATOM      1  C   UNL     1      74.869  90.654  66.985  1.00  0.00     0.010 C 
ENDROOT
BRANCH   1   2
ATOM      2  C   UNL     1      75.778  90.208  65.811  1.00  0.00     0.100 C 
BRANCH   2   3
ATOM      3  C   UNL     1      76.465  91.320  65.128  1.00  0.00     0.220 C 
ATOM      4  N   UNL     1      76.170  92.607  65.463  1.00  0.00    -0.352 N 
ATOM      5  H   UNL     1      75.420  92.707  66.132  1.00  0.00     0.163 HD
ATOM      6  O   UNL     1      77.341  91.045  64.274  1.00  0.00    -0.275 OA
BRANCH   4   7
ATOM      7  C   UNL     1      76.825  93.767  64.953  1.00  0.00     0.151 C 
BRANCH   7   8
ATOM      8  C   UNL     1      77.695  94.424  65.962  1.00  0.00    -0.025 A 
ATOM      9  C   UNL     1      78.072  95.235  68.253  1.00  0.00     0.160 A 
ATOM     10  C   UNL     1      79.339  95.725  67.870  1.00  0.00     0.157 A 
ATOM     11  C   UNL     1      77.257  94.597  67.296  1.00  0.00     0.056 A 
ATOM     12  C   UNL     1      79.793  95.543  66.551  1.00  0.00     0.050 A 
ATOM     13  C   UNL     1      78.981  94.887  65.607  1.00  0.00     0.009 A 
BRANCH   9  14
ATOM     14  O   UNL     1      77.657  95.329  69.556  1.00  0.00    -0.493 OA
ATOM     15  C   UNL     1      76.586  96.265  69.765  1.00  0.00     0.278 C 
ENDBRANCH   9  14
BRANCH  10  16
ATOM     16  O   UNL     1      80.142  96.370  68.754  1.00  0.00    -0.504 OA
ATOM     17  H   UNL     1      79.690  96.448  69.598  1.00  0.00     0.293 HD
ENDBRANCH  10  16
ENDBRANCH   7   8
ENDBRANCH   4   7
ENDBRANCH   2   3
ENDBRANCH   1   2
BRANCH   1  18
ATOM     18  C   UNL     1      75.388  90.100  68.336  1.00  0.00     0.001 C 
BRANCH  18  19
ATOM     19  C   UNL     1      74.373  89.184  69.066  1.00  0.00     0.004 C 
BRANCH  19  20
ATOM     20  C   UNL     1      73.958  87.978  68.178  1.00  0.00     0.027 C 
BRANCH  20  21
ATOM     21  C   UNL     1      74.878  86.856  68.248  1.00  0.00    -0.031 C 
ATOM     22  C   UNL     1      75.741  86.571  67.257  1.00  0.00    -0.028 C 
BRANCH  22  23
ATOM     23  C   UNL     1      76.683  85.455  67.300  1.00  0.00     0.005 C 
ATOM     24  C   UNL     1      78.119  85.973  67.574  1.00  0.00     0.012 C 
ATOM     25  C   UNL     1      76.224  84.406  68.349  1.00  0.00     0.012 C 
ENDBRANCH  22  23
ENDBRANCH  20  21
ENDBRANCH  19  20
ENDBRANCH  18  19
ENDBRANCH   1  18
TORSDOF 11
ENDMDL
MODEL 7
REMARK VINA RESULT:    -5.675      2.305      4.281
REMARK INTER + INTRA:          -9.934
REMARK INTER:                  -8.696
REMARK INTRA:                  -1.238
REMARK UNBOUND:                -0.775
REMARK SMILES COc1cc(CNC(=O)CCCCC/C=C/C(C)C)ccc1O
REMARK SMILES IDX 11 1 10 2 8 3 7 4 9 6 6 7 5 8 3 9 22 10 4 11 21 12 20 13
REMARK SMILES IDX 2 14 1 15 23 16 12 18 13 19 14 20 15 21 16 22 17 23 18 24
REMARK SMILES IDX 19 25
REMARK H PARENT 7 5 23 17
REMARK Flexibility Score: inf
ROOT
ATOM      1  C   UNL     1      82.603  66.492  75.776  1.00  0.00     0.010 C 
ENDROOT
BRANCH   1   2
ATOM      2  C   UNL     1      83.442  66.393  74.475  1.00  0.00     0.100 C 
BRANCH   2   3
ATOM      3  C   UNL     1      84.236  67.600  74.180  1.00  0.00     0.220 C 
ATOM      4  N   UNL     1      84.351  68.039  72.896  1.00  0.00    -0.352 N 
ATOM      5  H   UNL     1      83.924  67.437  72.205  1.00  0.00     0.163 HD
ATOM      6  O   UNL     1      84.757  68.220  75.138  1.00  0.00    -0.275 OA
BRANCH   4   7
ATOM      7  C   UNL     1      85.004  69.239  72.485  1.00  0.00     0.151 C 
BRANCH   7   8
ATOM      8  C   UNL     1      85.810  69.057  71.250  1.00  0.00    -0.025 A 
ATOM      9  C   UNL     1      87.025  70.005  69.332  1.00  0.00     0.160 A 
ATOM     10  C   UNL     1      87.302  68.701  68.865  1.00  0.00     0.157 A 
ATOM     11  C   UNL     1      86.275  70.172  70.514  1.00  0.00     0.056 A 
ATOM     12  C   UNL     1      86.859  67.585  69.597  1.00  0.00     0.050 A 
ATOM     13  C   UNL     1      86.128  67.761  70.786  1.00  0.00     0.009 A 
BRANCH   9  14
ATOM     14  O   UNL     1      87.525  71.097  68.675  1.00  0.00    -0.493 OA
ATOM     15  C   UNL     1      86.596  71.714  67.768  1.00  0.00     0.278 C 
ENDBRANCH   9  14
BRANCH  10  16
ATOM     16  O   UNL     1      87.995  68.497  67.717  1.00  0.00    -0.504 OA
ATOM     17  H   UNL     1      87.572  67.802  67.207  1.00  0.00     0.293 HD
ENDBRANCH  10  16
ENDBRANCH   7   8
ENDBRANCH   4   7
ENDBRANCH   2   3
ENDBRANCH   1   2
BRANCH   1  18
ATOM     18  C   UNL     1      81.712  65.238  75.963  1.00  0.00     0.001 C 
BRANCH  18  19
ATOM     19  C   UNL     1      81.666  64.314  74.720  1.00  0.00     0.004 C 
BRANCH  19  20
ATOM     20  C   UNL     1      80.254  64.305  74.072  1.00  0.00     0.027 C 
BRANCH  20  21
ATOM     21  C   UNL     1      80.201  64.962  72.777  1.00  0.00    -0.031 C 
ATOM     22  C   UNL     1      80.272  66.299  72.646  1.00  0.00    -0.028 C 
BRANCH  22  23
ATOM     23  C   UNL     1      80.227  66.990  71.360  1.00  0.00     0.005 C 
ATOM     24  C   UNL     1      81.555  67.753  71.112  1.00  0.00     0.012 C 
ATOM     25  C   UNL     1      79.905  65.984  70.221  1.00  0.00     0.012 C 
ENDBRANCH  22  23
ENDBRANCH  20  21
ENDBRANCH  19  20
ENDBRANCH  18  19
ENDBRANCH   1  18
TORSDOF 11
ENDMDL
MODEL 8
REMARK VINA RESULT:    -5.636     25.633     27.905
REMARK INTER + INTRA:          -9.871
REMARK INTER:                  -9.182
REMARK INTRA:                  -0.689
REMARK UNBOUND:                -0.775
REMARK SMILES COc1cc(CNC(=O)CCCCC/C=C/C(C)C)ccc1O
REMARK SMILES IDX 11 1 10 2 8 3 7 4 9 6 6 7 5 8 3 9 22 10 4 11 21 12 20 13
REMARK SMILES IDX 2 14 1 15 23 16 12 18 13 19 14 20 15 21 16 22 17 23 18 24
REMARK SMILES IDX 19 25
REMARK H PARENT 7 5 23 17
REMARK Flexibility Score: inf
ROOT
ATOM      1  C   UNL     1      62.483  82.097  70.876  1.00  0.00     0.010 C 
ENDROOT
BRANCH   1   2
ATOM      2  C   UNL     1      63.336  81.254  71.858  1.00  0.00     0.100 C 
BRANCH   2   3
ATOM      3  C   UNL     1      62.914  81.363  73.267  1.00  0.00     0.220 C 
ATOM      4  N   UNL     1      63.813  81.742  74.217  1.00  0.00    -0.352 N 
ATOM      5  H   UNL     1      64.759  81.855  73.880  1.00  0.00     0.163 HD
ATOM      6  O   UNL     1      61.712  81.140  73.548  1.00  0.00    -0.275 OA
BRANCH   4   7
ATOM      7  C   UNL     1      63.516  81.980  75.592  1.00  0.00     0.151 C 
BRANCH   7   8
ATOM      8  C   UNL     1      63.229  83.410  75.876  1.00  0.00    -0.025 A 
ATOM      9  C   UNL     1      64.008  85.711  76.257  1.00  0.00     0.160 A 
ATOM     10  C   UNL     1      62.676  86.126  76.472  1.00  0.00     0.157 A 
ATOM     11  C   UNL     1      64.275  84.357  75.970  1.00  0.00     0.056 A 
ATOM     12  C   UNL     1      61.626  85.196  76.364  1.00  0.00     0.050 A 
ATOM     13  C   UNL     1      61.899  83.850  76.058  1.00  0.00     0.009 A 
BRANCH   9  14
ATOM     14  O   UNL     1      65.029  86.624  76.273  1.00  0.00    -0.493 OA
ATOM     15  C   UNL     1      66.207  86.201  75.567  1.00  0.00     0.278 C 
ENDBRANCH   9  14
BRANCH  10  16
ATOM     16  O   UNL     1      62.380  87.414  76.778  1.00  0.00    -0.504 OA
ATOM     17  H   UNL     1      62.948  87.711  77.493  1.00  0.00     0.293 HD
ENDBRANCH  10  16
ENDBRANCH   7   8
ENDBRANCH   4   7
ENDBRANCH   2   3
ENDBRANCH   1   2
BRANCH   1  18
ATOM     18  C   UNL     1      62.629  81.580  69.422  1.00  0.00     0.001 C 
BRANCH  18  19
ATOM     19  C   UNL     1      62.702  82.710  68.364  1.00  0.00     0.004 C 
BRANCH  19  20
ATOM     20  C   UNL     1      61.304  83.001  67.749  1.00  0.00     0.027 C 
BRANCH  20  21
ATOM     21  C   UNL     1      61.350  83.840  66.563  1.00  0.00    -0.031 C 
ATOM     22  C   UNL     1      61.959  85.039  66.555  1.00  0.00    -0.028 C 
BRANCH  22  23
ATOM     23  C   UNL     1      62.028  85.903  65.379  1.00  0.00     0.005 C 
ATOM     24  C   UNL     1      61.483  85.158  64.131  1.00  0.00     0.012 C 
ATOM     25  C   UNL     1      61.275  87.234  65.646  1.00  0.00     0.012 C 
ENDBRANCH  22  23
ENDBRANCH  20  21
ENDBRANCH  19  20
ENDBRANCH  18  19
ENDBRANCH   1  18
TORSDOF 11
ENDMDL
MODEL 9
REMARK VINA RESULT:    -5.497     27.874     29.544
REMARK INTER + INTRA:          -9.646
REMARK INTER:                  -8.736
REMARK INTRA:                  -0.910
REMARK UNBOUND:                -0.775
REMARK SMILES COc1cc(CNC(=O)CCCCC/C=C/C(C)C)ccc1O
REMARK SMILES IDX 11 1 10 2 8 3 7 4 9 6 6 7 5 8 3 9 22 10 4 11 21 12 20 13
REMARK SMILES IDX 2 14 1 15 23 16 12 18 13 19 14 20 15 21 16 22 17 23 18 24
REMARK SMILES IDX 19 25
REMARK H PARENT 7 5 23 17
REMARK Flexibility Score: inf
ROOT
ATOM      1  C   UNL     1      82.484  93.602  88.644  1.00  0.00     0.010 C 
ENDROOT
BRANCH   1   2
ATOM      2  C   UNL     1      82.726  92.146  89.120  1.00  0.00     0.100 C 
BRANCH   2   3
ATOM      3  C   UNL     1      83.240  91.249  88.068  1.00  0.00     0.220 C 
ATOM      4  N   UNL     1      82.585  91.153  86.878  1.00  0.00    -0.352 N 
ATOM      5  H   UNL     1      81.719  91.672  86.831  1.00  0.00     0.163 HD
ATOM      6  O   UNL     1      84.303  90.622  88.288  1.00  0.00    -0.275 OA
BRANCH   4   7
ATOM      7  C   UNL     1      83.024  90.402  85.747  1.00  0.00     0.151 C 
BRANCH   7   8
ATOM      8  C   UNL     1      82.090  89.302  85.393  1.00  0.00    -0.025 A 
ATOM      9  C   UNL     1      81.187  87.051  85.800  1.00  0.00     0.160 A 
ATOM     10  C   UNL     1      80.342  87.188  84.677  1.00  0.00     0.157 A 
ATOM     11  C   UNL     1      82.059  88.104  86.144  1.00  0.00     0.056 A 
ATOM     12  C   UNL     1      80.351  88.382  83.933  1.00  0.00     0.050 A 
ATOM     13  C   UNL     1      81.211  89.436  84.294  1.00  0.00     0.009 A 
BRANCH   9  14
ATOM     14  O   UNL     1      81.123  85.929  86.583  1.00  0.00    -0.493 OA
ATOM     15  C   UNL     1      81.208  86.190  87.993  1.00  0.00     0.278 C 
ENDBRANCH   9  14
BRANCH  10  16
ATOM     16  O   UNL     1      79.509  86.187  84.296  1.00  0.00    -0.504 OA
ATOM     17  H   UNL     1      80.010  85.515  83.828  1.00  0.00     0.293 HD
ENDBRANCH  10  16
ENDBRANCH   7   8
ENDBRANCH   4   7
ENDBRANCH   2   3
ENDBRANCH   1   2
BRANCH   1  18
ATOM     18  C   UNL     1      83.793  94.243  88.118  1.00  0.00     0.001 C 
BRANCH  18  19
ATOM     19  C   UNL     1      83.571  95.566  87.342  1.00  0.00     0.004 C 
BRANCH  19  20
ATOM     20  C   UNL     1      82.080  96.002  87.381  1.00  0.00     0.027 C 
BRANCH  20  21
ATOM     21  C   UNL     1      81.863  97.284  88.030  1.00  0.00    -0.031 C 
ATOM     22  C   UNL     1      82.863  97.981  88.597  1.00  0.00    -0.028 C 
BRANCH  22  23
ATOM     23  C   UNL     1      82.679  99.273  89.253  1.00  0.00     0.005 C 
ATOM     24  C   UNL     1      82.464 100.387  88.195  1.00  0.00     0.012 C 
ATOM     25  C   UNL     1      81.511  99.196  90.273  1.00  0.00     0.012 C 
ENDBRANCH  22  23
ENDBRANCH  20  21
ENDBRANCH  19  20
ENDBRANCH  18  19
ENDBRANCH   1  18
TORSDOF 11
ENDMDL
MODEL 10
REMARK VINA RESULT:    -5.480     17.909     20.401
REMARK INTER + INTRA:          -9.618
REMARK INTER:                  -7.529
REMARK INTRA:                  -2.089
REMARK UNBOUND:                -0.775
REMARK SMILES COc1cc(CNC(=O)CCCCC/C=C/C(C)C)ccc1O
REMARK SMILES IDX 11 1 10 2 8 3 7 4 9 6 6 7 5 8 3 9 22 10 4 11 21 12 20 13
REMARK SMILES IDX 2 14 1 15 23 16 12 18 13 19 14 20 15 21 16 22 17 23 18 24
REMARK SMILES IDX 19 25
REMARK H PARENT 7 5 23 17
REMARK Flexibility Score: inf
ROOT
ATOM      1  C   UNL     1      77.464  87.412  66.993  1.00  0.00     0.010 C 
ENDROOT
BRANCH   1   2
ATOM      2  C   UNL     1      78.009  88.045  65.686  1.00  0.00     0.100 C 
BRANCH   2   3
ATOM      3  C   UNL     1      77.133  87.852  64.515  1.00  0.00     0.220 C 
ATOM      4  N   UNL     1      76.012  87.087  64.626  1.00  0.00    -0.352 N 
ATOM      5  H   UNL     1      75.899  86.632  65.521  1.00  0.00     0.163 HD
ATOM      6  O   UNL     1      77.429  88.439  63.448  1.00  0.00    -0.275 OA
BRANCH   4   7
ATOM      7  C   UNL     1      75.033  86.898  63.605  1.00  0.00     0.151 C 
BRANCH   7   8
ATOM      8  C   UNL     1      74.002  85.895  63.980  1.00  0.00    -0.025 A 
ATOM      9  C   UNL     1      72.491  84.908  65.650  1.00  0.00     0.160 A 
ATOM     10  C   UNL     1      72.075  83.946  64.704  1.00  0.00     0.157 A 
ATOM     11  C   UNL     1      73.457  85.868  65.285  1.00  0.00     0.056 A 
ATOM     12  C   UNL     1      72.598  83.975  63.398  1.00  0.00     0.050 A 
ATOM     13  C   UNL     1      73.547  84.949  63.036  1.00  0.00     0.009 A 
BRANCH   9  14
ATOM     14  O   UNL     1      71.924  84.943  66.897  1.00  0.00    -0.493 OA
ATOM     15  C   UNL     1      72.303  86.086  67.682  1.00  0.00     0.278 C 
ENDBRANCH   9  14
BRANCH  10  16
ATOM     16  O   UNL     1      71.170  82.988  65.024  1.00  0.00    -0.504 OA
ATOM     17  H   UNL     1      70.447  83.007  64.391  1.00  0.00     0.293 HD
ENDBRANCH  10  16
ENDBRANCH   7   8
ENDBRANCH   4   7
ENDBRANCH   2   3
ENDBRANCH   1   2
BRANCH   1  18
ATOM     18  C   UNL     1      78.311  86.185  67.415  1.00  0.00     0.001 C 
BRANCH  18  19
ATOM     19  C   UNL     1      78.204  84.987  66.437  1.00  0.00     0.004 C 
BRANCH  19  20
ATOM     20  C   UNL     1      76.822  84.285  66.550  1.00  0.00     0.027 C 
BRANCH  20  21
ATOM     21  C   UNL     1      76.443  83.546  65.358  1.00  0.00    -0.031 C 
ATOM     22  C   UNL     1      75.785  82.375  65.417  1.00  0.00    -0.028 C 
BRANCH  22  23
ATOM     23  C   UNL     1      75.385  81.611  64.238  1.00  0.00     0.005 C 
ATOM     24  C   UNL     1      76.547  80.692  63.773  1.00  0.00     0.012 C 
ATOM     25  C   UNL     1      74.084  80.815  64.529  1.00  0.00     0.012 C 
ENDBRANCH  22  23
ENDBRANCH  20  21
ENDBRANCH  19  20
ENDBRANCH  18  19
ENDBRANCH   1  18
TORSDOF 11
ENDMDL
