MODEL 1
REMARK VINA RESULT:    -6.571      0.000      0.000
REMARK INTER + INTRA:         -11.391
REMARK INTER:                 -10.221
REMARK INTRA:                  -1.170
REMARK UNBOUND:                -1.170
REMARK SMILES COc1cc(CNC(=O)CCCCCC(C)C)ccc1O
REMARK SMILES IDX 10 1 8 2 7 3 9 5 6 6 5 7 3 8 20 9 4 10 19 11 18 12 2 13 1 14
REMARK SMILES IDX 21 15 11 17 12 18 13 19 14 20 15 21 16 22 17 23
REMARK H PARENT 7 4 21 16
REMARK Flexibility Score: inf
ROOT
ATOM      1  C   UNL     1      90.101  91.367  71.518  1.00  0.00     0.100 C 
ENDROOT
BRANCH   1   2
ATOM      2  C   UNL     1      89.909  92.468  72.485  1.00  0.00     0.220 C 
ATOM      3  N   UNL     1      90.815  92.644  73.487  1.00  0.00    -0.352 N 
ATOM      4  H   UNL     1      91.501  91.908  73.575  1.00  0.00     0.163 HD
ATOM      5  O   UNL     1      88.935  93.245  72.336  1.00  0.00    -0.275 OA
BRANCH   3   6
ATOM      6  C   UNL     1      90.848  93.760  74.378  1.00  0.00     0.151 C 
BRANCH   6   7
ATOM      7  C   UNL     1      92.010  93.732  75.307  1.00  0.00    -0.025 A 
ATOM      8  C   UNL     1      94.440  93.776  75.684  1.00  0.00     0.160 A 
ATOM      9  C   UNL     1      94.222  93.746  77.077  1.00  0.00     0.157 A 
ATOM     10  C   UNL     1      93.334  93.750  74.807  1.00  0.00     0.056 A 
ATOM     11  C   UNL     1      92.910  93.700  77.584  1.00  0.00     0.050 A 
ATOM     12  C   UNL     1      91.813  93.699  76.707  1.00  0.00     0.009 A 
BRANCH   8  13
ATOM     13  O   UNL     1      95.710  93.801  75.169  1.00  0.00    -0.493 OA
ATOM     14  C   UNL     1      96.164  95.118  74.802  1.00  0.00     0.278 C 
ENDBRANCH   8  13
BRANCH   9  15
ATOM     15  O   UNL     1      95.278  93.768  77.929  1.00  0.00    -0.504 OA
ATOM     16  H   UNL     1      95.601  94.668  78.015  1.00  0.00     0.293 HD
ENDBRANCH   9  15
ENDBRANCH   6   7
ENDBRANCH   3   6
ENDBRANCH   1   2
BRANCH   1  17
ATOM     17  C   UNL     1      89.985  89.947  72.136  1.00  0.00     0.010 C 
BRANCH  17  18
ATOM     18  C   UNL     1      88.972  89.916  73.313  1.00  0.00     0.001 C 
BRANCH  18  19
ATOM     19  C   UNL     1      89.435  89.032  74.502  1.00  0.00     0.000 C 
BRANCH  19  20
ATOM     20  C   UNL     1      90.628  89.665  75.276  1.00  0.00     0.003 C 
BRANCH  20  21
ATOM     21  C   UNL     1      90.282  90.189  76.707  1.00  0.00    -0.017 C 
ATOM     22  C   UNL     1      89.864  89.017  77.643  1.00  0.00     0.007 C 
ATOM     23  C   UNL     1      89.176  91.285  76.699  1.00  0.00     0.007 C 
ENDBRANCH  20  21
ENDBRANCH  19  20
ENDBRANCH  18  19
ENDBRANCH  17  18
ENDBRANCH   1  17
TORSDOF 10
ENDMDL
MODEL 2
REMARK VINA RESULT:    -5.919      1.938      2.846
REMARK INTER + INTRA:         -10.376
REMARK INTER:                  -9.270
REMARK INTRA:                  -1.106
REMARK UNBOUND:                -1.170
REMARK SMILES COc1cc(CNC(=O)CCCCCC(C)C)ccc1O
REMARK SMILES IDX 10 1 8 2 7 3 9 5 6 6 5 7 3 8 20 9 4 10 19 11 18 12 2 13 1 14
REMARK SMILES IDX 21 15 11 17 12 18 13 19 14 20 15 21 16 22 17 23
REMARK H PARENT 7 4 21 16
REMARK Flexibility Score: inf
ROOT
ATOM      1  C   UNL     1      91.607  91.767  73.435  1.00  0.00     0.100 C 
ENDROOT
BRANCH   1   2
ATOM      2  C   UNL     1      91.943  92.429  74.713  1.00  0.00     0.220 C 
ATOM      3  N   UNL     1      92.089  93.784  74.747  1.00  0.00    -0.352 N 
ATOM      4  H   UNL     1      92.085  94.234  73.843  1.00  0.00     0.163 HD
ATOM      5  O   UNL     1      92.045  91.732  75.752  1.00  0.00    -0.275 OA
BRANCH   3   6
ATOM      6  C   UNL     1      92.240  94.565  75.933  1.00  0.00     0.151 C 
BRANCH   6   7
ATOM      7  C   UNL     1      93.662  94.759  76.326  1.00  0.00    -0.025 A 
ATOM      8  C   UNL     1      95.918  95.600  75.824  1.00  0.00     0.160 A 
ATOM      9  C   UNL     1      96.352  95.191  77.103  1.00  0.00     0.157 A 
ATOM     10  C   UNL     1      94.581  95.365  75.437  1.00  0.00     0.056 A 
ATOM     11  C   UNL     1      95.453  94.564  77.985  1.00  0.00     0.050 A 
ATOM     12  C   UNL     1      94.118  94.355  77.603  1.00  0.00     0.009 A 
BRANCH   8  13
ATOM     13  O   UNL     1      96.782  96.194  74.942  1.00  0.00    -0.493 OA
ATOM     14  C   UNL     1      96.304  97.445  74.412  1.00  0.00     0.278 C 
ENDBRANCH   8  13
BRANCH   9  15
ATOM     15  O   UNL     1      97.636  95.410  77.484  1.00  0.00    -0.504 OA
ATOM     16  H   UNL     1      98.098  94.571  77.550  1.00  0.00     0.293 HD
ENDBRANCH   9  15
ENDBRANCH   6   7
ENDBRANCH   3   6
ENDBRANCH   1   2
BRANCH   1  17
ATOM     17  C   UNL     1      90.445  92.438  72.655  1.00  0.00     0.010 C 
BRANCH  17  18
ATOM     18  C   UNL     1      90.004  91.581  71.436  1.00  0.00     0.001 C 
BRANCH  18  19
ATOM     19  C   UNL     1      89.309  90.253  71.835  1.00  0.00     0.000 C 
BRANCH  19  20
ATOM     20  C   UNL     1      88.233  90.461  72.941  1.00  0.00     0.003 C 
BRANCH  20  21
ATOM     21  C   UNL     1      88.522  89.725  74.290  1.00  0.00    -0.017 C 
ATOM     22  C   UNL     1      88.634  90.741  75.464  1.00  0.00     0.007 C 
ATOM     23  C   UNL     1      89.798  88.835  74.231  1.00  0.00     0.007 C 
ENDBRANCH  20  21
ENDBRANCH  19  20
ENDBRANCH  18  19
ENDBRANCH  17  18
ENDBRANCH   1  17
TORSDOF 10
ENDMDL
MODEL 3
REMARK VINA RESULT:    -5.692      2.347      3.924
REMARK INTER + INTRA:         -10.024
REMARK INTER:                  -9.390
REMARK INTRA:                  -0.634
REMARK UNBOUND:                -1.170
REMARK SMILES COc1cc(CNC(=O)CCCCCC(C)C)ccc1O
REMARK SMILES IDX 10 1 8 2 7 3 9 5 6 6 5 7 3 8 20 9 4 10 19 11 18 12 2 13 1 14
REMARK SMILES IDX 21 15 11 17 12 18 13 19 14 20 15 21 16 22 17 23
REMARK H PARENT 7 4 21 16
REMARK Flexibility Score: inf
ROOT
ATOM      1  C   UNL     1      91.307  91.272  75.836  1.00  0.00     0.100 C 
ENDROOT
BRANCH   1   2
ATOM      2  C   UNL     1      91.712  92.261  76.856  1.00  0.00     0.220 C 
ATOM      3  N   UNL     1      92.817  93.030  76.642  1.00  0.00    -0.352 N 
ATOM      4  H   UNL     1      93.367  92.769  75.836  1.00  0.00     0.163 HD
ATOM      5  O   UNL     1      91.004  92.401  77.883  1.00  0.00    -0.275 OA
BRANCH   3   6
ATOM      6  C   UNL     1      93.220  94.133  77.454  1.00  0.00     0.151 C 
BRANCH   6   7
ATOM      7  C   UNL     1      94.617  94.572  77.191  1.00  0.00    -0.025 A 
ATOM      8  C   UNL     1      96.348  95.360  75.631  1.00  0.00     0.160 A 
ATOM      9  C   UNL     1      97.259  95.471  76.703  1.00  0.00     0.157 A 
ATOM     10  C   UNL     1      95.039  94.893  75.879  1.00  0.00     0.056 A 
ATOM     11  C   UNL     1      96.859  95.129  78.007  1.00  0.00     0.050 A 
ATOM     12  C   UNL     1      95.547  94.689  78.251  1.00  0.00     0.009 A 
BRANCH   8  13
ATOM     13  O   UNL     1      96.724  95.669  74.351  1.00  0.00    -0.493 OA
ATOM     14  C   UNL     1      96.219  96.935  73.886  1.00  0.00     0.278 C 
ENDBRANCH   8  13
BRANCH   9  15
ATOM     15  O   UNL     1      98.520  95.917  76.475  1.00  0.00    -0.504 OA
ATOM     16  H   UNL     1      99.143  95.198  76.607  1.00  0.00     0.293 HD
ENDBRANCH   9  15
ENDBRANCH   6   7
ENDBRANCH   3   6
ENDBRANCH   1   2
BRANCH   1  17
ATOM     17  C   UNL     1      89.848  91.437  75.331  1.00  0.00     0.010 C 
BRANCH  17  18
ATOM     18  C   UNL     1      89.030  90.128  75.508  1.00  0.00     0.001 C 
BRANCH  18  19
ATOM     19  C   UNL     1      88.904  89.300  74.202  1.00  0.00     0.000 C 
BRANCH  19  20
ATOM     20  C   UNL     1      89.922  89.754  73.116  1.00  0.00     0.003 C 
BRANCH  20  21
ATOM     21  C   UNL     1      89.282  90.341  71.816  1.00  0.00    -0.017 C 
ATOM     22  C   UNL     1      90.267  91.314  71.103  1.00  0.00     0.007 C 
ATOM     23  C   UNL     1      87.924  91.054  72.079  1.00  0.00     0.007 C 
ENDBRANCH  20  21
ENDBRANCH  19  20
ENDBRANCH  18  19
ENDBRANCH  17  18
ENDBRANCH   1  17
TORSDOF 10
ENDMDL
MODEL 4
REMARK VINA RESULT:    -5.503     14.326     17.318
REMARK INTER + INTRA:          -9.730
REMARK INTER:                  -8.319
REMARK INTRA:                  -1.410
REMARK UNBOUND:                -1.170
REMARK SMILES COc1cc(CNC(=O)CCCCCC(C)C)ccc1O
REMARK SMILES IDX 10 1 8 2 7 3 9 5 6 6 5 7 3 8 20 9 4 10 19 11 18 12 2 13 1 14
REMARK SMILES IDX 21 15 11 17 12 18 13 19 14 20 15 21 16 22 17 23
REMARK H PARENT 7 4 21 16
REMARK Flexibility Score: inf
ROOT
ATOM      1  C   UNL     1      84.818  90.609  85.814  1.00  0.00     0.100 C 
ENDROOT
BRANCH   1   2
ATOM      2  C   UNL     1      84.025  90.725  87.056  1.00  0.00     0.220 C 
ATOM      3  N   UNL     1      83.889  89.638  87.867  1.00  0.00    -0.352 N 
ATOM      4  H   UNL     1      84.243  88.774  87.483  1.00  0.00     0.163 HD
ATOM      5  O   UNL     1      83.527  91.836  87.359  1.00  0.00    -0.275 OA
BRANCH   3   6
ATOM      6  C   UNL     1      83.303  89.653  89.169  1.00  0.00     0.151 C 
BRANCH   6   7
ATOM      7  C   UNL     1      81.930  89.080  89.198  1.00  0.00    -0.025 A 
ATOM      8  C   UNL     1      80.252  87.615  90.240  1.00  0.00     0.160 A 
ATOM      9  C   UNL     1      79.296  88.040  89.294  1.00  0.00     0.157 A 
ATOM     10  C   UNL     1      81.567  88.123  90.175  1.00  0.00     0.056 A 
ATOM     11  C   UNL     1      79.653  88.972  88.301  1.00  0.00     0.050 A 
ATOM     12  C   UNL     1      80.958  89.492  88.257  1.00  0.00     0.009 A 
BRANCH   8  13
ATOM     13  O   UNL     1      79.931  86.694  91.202  1.00  0.00    -0.493 OA
ATOM     14  C   UNL     1      79.742  87.262  92.512  1.00  0.00     0.278 C 
ENDBRANCH   8  13
BRANCH   9  15
ATOM     15  O   UNL     1      78.030  87.556  89.346  1.00  0.00    -0.504 OA
ATOM     16  H   UNL     1      77.941  86.825  88.731  1.00  0.00     0.293 HD
ENDBRANCH   9  15
ENDBRANCH   6   7
ENDBRANCH   3   6
ENDBRANCH   1   2
BRANCH   1  17
ATOM     17  C   UNL     1      83.967  90.508  84.520  1.00  0.00     0.010 C 
BRANCH  17  18
ATOM     18  C   UNL     1      82.834  89.454  84.660  1.00  0.00     0.001 C 
BRANCH  18  19
ATOM     19  C   UNL     1      81.411  90.060  84.539  1.00  0.00     0.000 C 
BRANCH  19  20
ATOM     20  C   UNL     1      80.301  88.971  84.604  1.00  0.00     0.003 C 
BRANCH  20  21
ATOM     21  C   UNL     1      80.798  87.507  84.371  1.00  0.00    -0.017 C 
ATOM     22  C   UNL     1      80.345  86.982  82.976  1.00  0.00     0.007 C 
ATOM     23  C   UNL     1      80.334  86.526  85.487  1.00  0.00     0.007 C 
ENDBRANCH  20  21
ENDBRANCH  19  20
ENDBRANCH  18  19
ENDBRANCH  17  18
ENDBRANCH   1  17
TORSDOF 10
ENDMDL
MODEL 5
REMARK VINA RESULT:    -5.443     25.858     28.567
REMARK INTER + INTRA:          -9.636
REMARK INTER:                  -8.855
REMARK INTRA:                  -0.780
REMARK UNBOUND:                -1.170
REMARK SMILES COc1cc(CNC(=O)CCCCCC(C)C)ccc1O
REMARK SMILES IDX 10 1 8 2 7 3 9 5 6 6 5 7 3 8 20 9 4 10 19 11 18 12 2 13 1 14
REMARK SMILES IDX 21 15 11 17 12 18 13 19 14 20 15 21 16 22 17 23
REMARK H PARENT 7 4 21 16
REMARK Flexibility Score: inf
ROOT
ATOM      1  C   UNL     1      82.167  64.897  75.591  1.00  0.00     0.100 C 
ENDROOT
BRANCH   1   2
ATOM      2  C   UNL     1      83.456  64.401  76.118  1.00  0.00     0.220 C 
ATOM      3  N   UNL     1      83.511  63.888  77.379  1.00  0.00    -0.352 N 
ATOM      4  H   UNL     1      82.669  64.008  77.924  1.00  0.00     0.163 HD
ATOM      5  O   UNL     1      84.467  64.425  75.374  1.00  0.00    -0.275 OA
BRANCH   3   6
ATOM      6  C   UNL     1      84.639  63.222  77.947  1.00  0.00     0.151 C 
BRANCH   6   7
ATOM      7  C   UNL     1      85.194  63.924  79.136  1.00  0.00    -0.025 A 
ATOM      8  C   UNL     1      86.445  65.802  80.112  1.00  0.00     0.160 A 
ATOM      9  C   UNL     1      86.194  65.295  81.405  1.00  0.00     0.157 A 
ATOM     10  C   UNL     1      85.960  65.104  78.986  1.00  0.00     0.056 A 
ATOM     11  C   UNL     1      85.456  64.108  81.565  1.00  0.00     0.050 A 
ATOM     12  C   UNL     1      84.955  63.430  80.440  1.00  0.00     0.009 A 
BRANCH   8  13
ATOM     13  O   UNL     1      87.178  66.946  79.934  1.00  0.00    -0.493 OA
ATOM     14  C   UNL     1      86.684  67.796  78.882  1.00  0.00     0.278 C 
ENDBRANCH   8  13
BRANCH   9  15
ATOM     15  O   UNL     1      86.658  65.957  82.494  1.00  0.00    -0.504 OA
ATOM     16  H   UNL     1      87.367  65.452  82.898  1.00  0.00     0.293 HD
ENDBRANCH   9  15
ENDBRANCH   6   7
ENDBRANCH   3   6
ENDBRANCH   1   2
BRANCH   1  17
ATOM     17  C   UNL     1      81.601  64.069  74.406  1.00  0.00     0.010 C 
BRANCH  17  18
ATOM     18  C   UNL     1      80.332  64.729  73.801  1.00  0.00     0.001 C 
BRANCH  18  19
ATOM     19  C   UNL     1      80.234  66.252  74.085  1.00  0.00     0.000 C 
BRANCH  19  20
ATOM     20  C   UNL     1      80.341  67.101  72.785  1.00  0.00     0.003 C 
BRANCH  20  21
ATOM     21  C   UNL     1      80.805  66.313  71.518  1.00  0.00    -0.017 C 
ATOM     22  C   UNL     1      82.174  66.847  71.002  1.00  0.00     0.007 C 
ATOM     23  C   UNL     1      79.755  66.341  70.370  1.00  0.00     0.007 C 
ENDBRANCH  20  21
ENDBRANCH  19  20
ENDBRANCH  18  19
ENDBRANCH  17  18
ENDBRANCH   1  17
TORSDOF 10
ENDMDL
MODEL 6
REMARK VINA RESULT:    -5.384     15.124     16.868
REMARK INTER + INTRA:          -9.545
REMARK INTER:                  -8.906
REMARK INTRA:                  -0.639
REMARK UNBOUND:                -1.170
REMARK SMILES COc1cc(CNC(=O)CCCCCC(C)C)ccc1O
REMARK SMILES IDX 10 1 8 2 7 3 9 5 6 6 5 7 3 8 20 9 4 10 19 11 18 12 2 13 1 14
REMARK SMILES IDX 21 15 11 17 12 18 13 19 14 20 15 21 16 22 17 23
REMARK H PARENT 7 4 21 16
REMARK Flexibility Score: inf
ROOT
ATOM      1  C   UNL     1      77.617  90.318  62.951  1.00  0.00     0.100 C 
ENDROOT
BRANCH   1   2
ATOM      2  C   UNL     1      76.925  91.469  63.566  1.00  0.00     0.220 C 
ATOM      3  N   UNL     1      77.648  92.562  63.944  1.00  0.00    -0.352 N 
ATOM      4  H   UNL     1      78.650  92.446  63.893  1.00  0.00     0.163 HD
ATOM      5  O   UNL     1      75.676  91.434  63.689  1.00  0.00    -0.275 OA
BRANCH   3   6
ATOM      6  C   UNL     1      77.093  93.801  64.386  1.00  0.00     0.151 C 
BRANCH   6   7
ATOM      7  C   UNL     1      77.866  94.424  65.494  1.00  0.00    -0.025 A 
ATOM      8  C   UNL     1      78.066  95.056  67.862  1.00  0.00     0.160 A 
ATOM      9  C   UNL     1      79.365  95.551  67.618  1.00  0.00     0.157 A 
ATOM     10  C   UNL     1      77.318  94.513  66.796  1.00  0.00     0.056 A 
ATOM     11  C   UNL     1      79.909  95.492  66.322  1.00  0.00     0.050 A 
ATOM     12  C   UNL     1      79.169  94.928  65.269  1.00  0.00     0.009 A 
BRANCH   8  13
ATOM     13  O   UNL     1      77.510  95.122  69.113  1.00  0.00    -0.493 OA
ATOM     14  C   UNL     1      76.277  94.387  69.241  1.00  0.00     0.278 C 
ENDBRANCH   8  13
BRANCH   9  15
ATOM     15  O   UNL     1      80.091  96.077  68.636  1.00  0.00    -0.504 OA
ATOM     16  H   UNL     1      79.635  95.924  69.467  1.00  0.00     0.293 HD
ENDBRANCH   9  15
ENDBRANCH   6   7
ENDBRANCH   3   6
ENDBRANCH   1   2
BRANCH   1  17
ATOM     17  C   UNL     1      77.290  88.951  63.610  1.00  0.00     0.010 C 
BRANCH  17  18
ATOM     18  C   UNL     1      77.984  88.800  64.992  1.00  0.00     0.001 C 
BRANCH  18  19
ATOM     19  C   UNL     1      77.230  87.851  65.960  1.00  0.00     0.000 C 
BRANCH  19  20
ATOM     20  C   UNL     1      78.190  87.148  66.963  1.00  0.00     0.003 C 
BRANCH  20  21
ATOM     21  C   UNL     1      78.144  85.586  66.935  1.00  0.00    -0.017 C 
ATOM     22  C   UNL     1      78.261  85.052  65.477  1.00  0.00     0.007 C 
ATOM     23  C   UNL     1      76.870  85.006  67.616  1.00  0.00     0.007 C 
ENDBRANCH  20  21
ENDBRANCH  19  20
ENDBRANCH  18  19
ENDBRANCH  17  18
ENDBRANCH   1  17
TORSDOF 10
ENDMDL
MODEL 7
REMARK VINA RESULT:    -5.382     14.401     17.069
REMARK INTER + INTRA:          -9.541
REMARK INTER:                  -7.634
REMARK INTRA:                  -1.907
REMARK UNBOUND:                -1.170
REMARK SMILES COc1cc(CNC(=O)CCCCCC(C)C)ccc1O
REMARK SMILES IDX 10 1 8 2 7 3 9 5 6 6 5 7 3 8 20 9 4 10 19 11 18 12 2 13 1 14
REMARK SMILES IDX 21 15 11 17 12 18 13 19 14 20 15 21 16 22 17 23
REMARK H PARENT 7 4 21 16
REMARK Flexibility Score: inf
ROOT
ATOM      1  C   UNL     1      82.214  88.921  84.148  1.00  0.00     0.100 C 
ENDROOT
BRANCH   1   2
ATOM      2  C   UNL     1      83.099  88.940  85.331  1.00  0.00     0.220 C 
ATOM      3  N   UNL     1      82.929  89.905  86.279  1.00  0.00    -0.352 N 
ATOM      4  H   UNL     1      82.276  90.634  86.030  1.00  0.00     0.163 HD
ATOM      5  O   UNL     1      83.964  88.040  85.459  1.00  0.00    -0.275 OA
BRANCH   3   6
ATOM      6  C   UNL     1      83.591  89.940  87.543  1.00  0.00     0.151 C 
BRANCH   6   7
ATOM      7  C   UNL     1      82.664  89.758  88.693  1.00  0.00    -0.025 A 
ATOM      8  C   UNL     1      80.396  89.849  89.639  1.00  0.00     0.160 A 
ATOM      9  C   UNL     1      80.889  89.348  90.862  1.00  0.00     0.157 A 
ATOM     10  C   UNL     1      81.289  90.068  88.568  1.00  0.00     0.056 A 
ATOM     11  C   UNL     1      82.259  89.062  91.006  1.00  0.00     0.050 A 
ATOM     12  C   UNL     1      83.139  89.260  89.929  1.00  0.00     0.009 A 
BRANCH   8  13
ATOM     13  O   UNL     1      79.069  90.153  89.484  1.00  0.00    -0.493 OA
ATOM     14  C   UNL     1      78.803  91.565  89.385  1.00  0.00     0.278 C 
ENDBRANCH   8  13
BRANCH   9  15
ATOM     15  O   UNL     1      80.039  89.136  91.898  1.00  0.00    -0.504 OA
ATOM     16  H   UNL     1      80.421  88.493  92.499  1.00  0.00     0.293 HD
ENDBRANCH   9  15
ENDBRANCH   6   7
ENDBRANCH   3   6
ENDBRANCH   1   2
BRANCH   1  17
ATOM     17  C   UNL     1      80.832  89.591  84.373  1.00  0.00     0.010 C 
BRANCH  17  18
ATOM     18  C   UNL     1      79.800  88.591  84.963  1.00  0.00     0.001 C 
BRANCH  18  19
ATOM     19  C   UNL     1      79.978  87.141  84.438  1.00  0.00     0.000 C 
BRANCH  19  20
ATOM     20  C   UNL     1      80.130  86.111  85.595  1.00  0.00     0.003 C 
BRANCH  20  21
ATOM     21  C   UNL     1      80.746  86.684  86.912  1.00  0.00    -0.017 C 
ATOM     22  C   UNL     1      82.019  85.886  87.323  1.00  0.00     0.007 C 
ATOM     23  C   UNL     1      79.731  86.714  88.091  1.00  0.00     0.007 C 
ENDBRANCH  20  21
ENDBRANCH  19  20
ENDBRANCH  18  19
ENDBRANCH  17  18
ENDBRANCH   1  17
TORSDOF 10
ENDMDL
MODEL 8
REMARK VINA RESULT:    -5.357     13.797     16.057
REMARK INTER + INTRA:          -9.502
REMARK INTER:                  -8.469
REMARK INTRA:                  -1.033
REMARK UNBOUND:                -1.170
REMARK SMILES COc1cc(CNC(=O)CCCCCC(C)C)ccc1O
REMARK SMILES IDX 10 1 8 2 7 3 9 5 6 6 5 7 3 8 20 9 4 10 19 11 18 12 2 13 1 14
REMARK SMILES IDX 21 15 11 17 12 18 13 19 14 20 15 21 16 22 17 23
REMARK H PARENT 7 4 21 16
REMARK Flexibility Score: inf
ROOT
ATOM      1  C   UNL     1      83.980  90.109  87.351  1.00  0.00     0.100 C 
ENDROOT
BRANCH   1   2
ATOM      2  C   UNL     1      83.175  91.042  88.165  1.00  0.00     0.220 C 
ATOM      3  N   UNL     1      83.803  91.895  89.024  1.00  0.00    -0.352 N 
ATOM      4  H   UNL     1      84.793  91.730  89.138  1.00  0.00     0.163 HD
ATOM      5  O   UNL     1      81.929  91.059  88.018  1.00  0.00    -0.275 OA
BRANCH   3   6
ATOM      6  C   UNL     1      83.169  92.957  89.737  1.00  0.00     0.151 C 
BRANCH   6   7
ATOM      7  C   UNL     1      82.846  94.127  88.876  1.00  0.00    -0.025 A 
ATOM      8  C   UNL     1      81.381  96.021  88.314  1.00  0.00     0.160 A 
ATOM      9  C   UNL     1      82.265  96.394  87.280  1.00  0.00     0.157 A 
ATOM     10  C   UNL     1      81.667  94.879  89.093  1.00  0.00     0.056 A 
ATOM     11  C   UNL     1      83.427  95.638  87.038  1.00  0.00     0.050 A 
ATOM     12  C   UNL     1      83.718  94.517  87.833  1.00  0.00     0.009 A 
BRANCH   8  13
ATOM     13  O   UNL     1      80.235  96.732  88.553  1.00  0.00    -0.493 OA
ATOM     14  C   UNL     1      80.335  97.640  89.667  1.00  0.00     0.278 C 
ENDBRANCH   8  13
BRANCH   9  15
ATOM     15  O   UNL     1      81.998  97.489  86.523  1.00  0.00    -0.504 OA
ATOM     16  H   UNL     1      82.523  97.458  85.720  1.00  0.00     0.293 HD
ENDBRANCH   9  15
ENDBRANCH   6   7
ENDBRANCH   3   6
ENDBRANCH   1   2
BRANCH   1  17
ATOM     17  C   UNL     1      84.648  90.759  86.109  1.00  0.00     0.010 C 
BRANCH  17  18
ATOM     18  C   UNL     1      83.992  90.274  84.786  1.00  0.00     0.001 C 
BRANCH  18  19
ATOM     19  C   UNL     1      82.848  89.248  85.006  1.00  0.00     0.000 C 
BRANCH  19  20
ATOM     20  C   UNL     1      81.463  89.810  84.571  1.00  0.00     0.003 C 
BRANCH  20  21
ATOM     21  C   UNL     1      80.231  89.108  85.229  1.00  0.00    -0.017 C 
ATOM     22  C   UNL     1      80.664  88.273  86.470  1.00  0.00     0.007 C 
ATOM     23  C   UNL     1      79.443  88.210  84.231  1.00  0.00     0.007 C 
ENDBRANCH  20  21
ENDBRANCH  19  20
ENDBRANCH  18  19
ENDBRANCH  17  18
ENDBRANCH   1  17
TORSDOF 10
ENDMDL
MODEL 9
REMARK VINA RESULT:    -5.286     24.985     27.438
REMARK INTER + INTRA:          -9.391
REMARK INTER:                  -7.580
REMARK INTRA:                  -1.812
REMARK UNBOUND:                -1.170
REMARK SMILES COc1cc(CNC(=O)CCCCCC(C)C)ccc1O
REMARK SMILES IDX 10 1 8 2 7 3 9 5 6 6 5 7 3 8 20 9 4 10 19 11 18 12 2 13 1 14
REMARK SMILES IDX 21 15 11 17 12 18 13 19 14 20 15 21 16 22 17 23
REMARK H PARENT 7 4 21 16
REMARK Flexibility Score: inf
ROOT
ATOM      1  C   UNL     1      80.444  65.076  72.828  1.00  0.00     0.100 C 
ENDROOT
BRANCH   1   2
ATOM      2  C   UNL     1      80.610  65.505  74.232  1.00  0.00     0.220 C 
ATOM      3  N   UNL     1      81.303  64.712  75.097  1.00  0.00    -0.352 N 
ATOM      4  H   UNL     1      81.547  63.801  74.736  1.00  0.00     0.163 HD
ATOM      5  O   UNL     1      80.144  66.614  74.589  1.00  0.00    -0.275 OA
BRANCH   3   6
ATOM      6  C   UNL     1      81.685  65.079  76.423  1.00  0.00     0.151 C 
BRANCH   6   7
ATOM      7  C   UNL     1      83.002  65.770  76.481  1.00  0.00    -0.025 A 
ATOM      8  C   UNL     1      85.458  65.689  76.400  1.00  0.00     0.160 A 
ATOM      9  C   UNL     1      85.506  67.093  76.525  1.00  0.00     0.157 A 
ATOM     10  C   UNL     1      84.207  65.035  76.398  1.00  0.00     0.056 A 
ATOM     11  C   UNL     1      84.314  67.832  76.634  1.00  0.00     0.050 A 
ATOM     12  C   UNL     1      83.071  67.177  76.607  1.00  0.00     0.009 A 
BRANCH   8  13
ATOM     13  O   UNL     1      86.608  64.949  76.312  1.00  0.00    -0.493 OA
ATOM     14  C   UNL     1      86.788  64.303  75.037  1.00  0.00     0.278 C 
ENDBRANCH   8  13
BRANCH   9  15
ATOM     15  O   UNL     1      86.703  67.732  76.530  1.00  0.00    -0.504 OA
ATOM     16  H   UNL     1      87.040  67.773  77.428  1.00  0.00     0.293 HD
ENDBRANCH   9  15
ENDBRANCH   6   7
ENDBRANCH   3   6
ENDBRANCH   1   2
BRANCH   1  17
ATOM     17  C   UNL     1      80.205  66.240  71.829  1.00  0.00     0.010 C 
BRANCH  17  18
ATOM     18  C   UNL     1      81.394  66.398  70.840  1.00  0.00     0.001 C 
BRANCH  18  19
ATOM     19  C   UNL     1      82.091  67.781  70.931  1.00  0.00     0.000 C 
BRANCH  19  20
ATOM     20  C   UNL     1      82.245  68.267  72.401  1.00  0.00     0.003 C 
BRANCH  20  21
ATOM     21  C   UNL     1      83.692  68.155  72.984  1.00  0.00    -0.017 C 
ATOM     22  C   UNL     1      84.675  69.082  72.212  1.00  0.00     0.007 C 
ATOM     23  C   UNL     1      84.229  66.694  72.992  1.00  0.00     0.007 C 
ENDBRANCH  20  21
ENDBRANCH  19  20
ENDBRANCH  18  19
ENDBRANCH  17  18
ENDBRANCH   1  17
TORSDOF 10
ENDMDL
MODEL 10
REMARK VINA RESULT:    -5.275      2.659      4.683
REMARK INTER + INTRA:          -9.374
REMARK INTER:                  -8.708
REMARK INTRA:                  -0.666
REMARK UNBOUND:                -1.170
REMARK SMILES COc1cc(CNC(=O)CCCCCC(C)C)ccc1O
REMARK SMILES IDX 10 1 8 2 7 3 9 5 6 6 5 7 3 8 20 9 4 10 19 11 18 12 2 13 1 14
REMARK SMILES IDX 21 15 11 17 12 18 13 19 14 20 15 21 16 22 17 23
REMARK H PARENT 7 4 21 16
REMARK Flexibility Score: inf
ROOT
ATOM      1  C   UNL     1      91.789  91.949  75.588  1.00  0.00     0.100 C 
ENDROOT
BRANCH   1   2
ATOM      2  C   UNL     1      92.567  92.923  76.382  1.00  0.00     0.220 C 
ATOM      3  N   UNL     1      93.658  93.521  75.825  1.00  0.00    -0.352 N 
ATOM      4  H   UNL     1      93.938  93.146  74.930  1.00  0.00     0.163 HD
ATOM      5  O   UNL     1      92.181  93.211  77.541  1.00  0.00    -0.275 OA
BRANCH   3   6
ATOM      6  C   UNL     1      94.392  94.598  76.409  1.00  0.00     0.151 C 
BRANCH   6   7
ATOM      7  C   UNL     1      94.956  95.535  75.401  1.00  0.00    -0.025 A 
ATOM      8  C   UNL     1      94.638  97.289  73.707  1.00  0.00     0.160 A 
ATOM      9  C   UNL     1      96.035  97.367  73.528  1.00  0.00     0.157 A 
ATOM     10  C   UNL     1      94.106  96.361  74.628  1.00  0.00     0.056 A 
ATOM     11  C   UNL     1      96.888  96.531  74.272  1.00  0.00     0.050 A 
ATOM     12  C   UNL     1      96.354  95.626  75.205  1.00  0.00     0.009 A 
BRANCH   8  13
ATOM     13  O   UNL     1      93.789  98.080  72.978  1.00  0.00    -0.493 OA
ATOM     14  C   UNL     1      93.483  99.340  73.606  1.00  0.00     0.278 C 
ENDBRANCH   8  13
BRANCH   9  15
ATOM     15  O   UNL     1      96.556  98.254  72.644  1.00  0.00    -0.504 OA
ATOM     16  H   UNL     1      96.938  97.780  71.902  1.00  0.00     0.293 HD
ENDBRANCH   9  15
ENDBRANCH   6   7
ENDBRANCH   3   6
ENDBRANCH   1   2
BRANCH   1  17
ATOM     17  C   UNL     1      90.279  92.287  75.465  1.00  0.00     0.010 C 
BRANCH  17  18
ATOM     18  C   UNL     1      89.388  91.120  75.975  1.00  0.00     0.001 C 
BRANCH  18  19
ATOM     19  C   UNL     1      88.582  90.423  74.848  1.00  0.00     0.000 C 
BRANCH  19  20
ATOM     20  C   UNL     1      89.459  90.118  73.599  1.00  0.00     0.003 C 
BRANCH  20  21
ATOM     21  C   UNL     1      88.900  90.674  72.248  1.00  0.00    -0.017 C 
ATOM     22  C   UNL     1      89.890  90.390  71.079  1.00  0.00     0.007 C 
ATOM     23  C   UNL     1      88.569  92.193  72.310  1.00  0.00     0.007 C 
ENDBRANCH  20  21
ENDBRANCH  19  20
ENDBRANCH  18  19
ENDBRANCH  17  18
ENDBRANCH   1  17
TORSDOF 10
ENDMDL
