MODEL 1
REMARK VINA RESULT:    -6.100      0.000      0.000
REMARK INTER + INTRA:         -10.447
REMARK INTER:                  -9.845
REMARK INTRA:                  -0.603
REMARK UNBOUND:                -0.603
REMARK SMILES COc1cc(CNC(=O)CCCCCCC(C)C)ccc1O
REMARK SMILES IDX 11 1 10 2 8 3 7 4 9 6 6 7 5 8 3 9 21 10 4 11 20 12 19 13
REMARK SMILES IDX 2 14 1 15 22 16 12 18 13 19 14 20 15 21 16 22 17 23 18 24
REMARK H PARENT 7 5 22 17
REMARK Flexibility Score: inf
ROOT
ATOM      1  C   UNL     1      97.369  84.989  85.185  1.00  0.00     0.010 C 
ENDROOT
BRANCH   1   2
ATOM      2  C   UNL     1      96.034  85.339  85.899  1.00  0.00     0.100 C 
BRANCH   2   3
ATOM      3  C   UNL     1      95.585  84.293  86.845  1.00  0.00     0.220 C 
ATOM      4  N   UNL     1      94.255  84.083  87.060  1.00  0.00    -0.352 N 
ATOM      5  H   UNL     1      93.643  84.716  86.566  1.00  0.00     0.163 HD
ATOM      6  O   UNL     1      96.452  83.592  87.422  1.00  0.00    -0.275 OA
BRANCH   4   7
ATOM      7  C   UNL     1      93.704  83.067  87.905  1.00  0.00     0.151 C 
BRANCH   7   8
ATOM      8  C   UNL     1      92.788  82.140  87.186  1.00  0.00    -0.025 A 
ATOM      9  C   UNL     1      90.586  81.661  86.200  1.00  0.00     0.160 A 
ATOM     10  C   UNL     1      91.048  80.396  85.777  1.00  0.00     0.157 A 
ATOM     11  C   UNL     1      91.452  82.514  86.916  1.00  0.00     0.056 A 
ATOM     12  C   UNL     1      92.363  79.995  86.074  1.00  0.00     0.050 A 
ATOM     13  C   UNL     1      93.231  80.864  86.764  1.00  0.00     0.009 A 
BRANCH   9  14
ATOM     14  O   UNL     1      89.296  82.044  85.951  1.00  0.00    -0.493 OA
ATOM     15  C   UNL     1      88.365  81.647  86.974  1.00  0.00     0.278 C 
ENDBRANCH   9  14
BRANCH  10  16
ATOM     16  O   UNL     1      90.235  79.553  85.087  1.00  0.00    -0.504 OA
ATOM     17  H   UNL     1      89.657  80.063  84.515  1.00  0.00     0.293 HD
ENDBRANCH  10  16
ENDBRANCH   7   8
ENDBRANCH   4   7
ENDBRANCH   2   3
ENDBRANCH   1   2
BRANCH   1  18
ATOM     18  C   UNL     1      97.170  83.951  84.044  1.00  0.00     0.001 C 
BRANCH  18  19
ATOM     19  C   UNL     1      98.279  82.862  83.987  1.00  0.00     0.000 C 
BRANCH  19  20
ATOM     20  C   UNL     1      98.420  82.264  82.559  1.00  0.00     0.000 C 
BRANCH  20  21
ATOM     21  C   UNL     1      98.604  83.326  81.439  1.00  0.00     0.003 C 
BRANCH  21  22
ATOM     22  C   UNL     1      98.389  82.784  79.988  1.00  0.00    -0.017 C 
ATOM     23  C   UNL     1      99.694  82.928  79.155  1.00  0.00     0.007 C 
ATOM     24  C   UNL     1      97.192  83.446  79.244  1.00  0.00     0.007 C 
ENDBRANCH  21  22
ENDBRANCH  20  21
ENDBRANCH  19  20
ENDBRANCH  18  19
ENDBRANCH   1  18
TORSDOF 11
ENDMDL
MODEL 2
REMARK VINA RESULT:    -5.908     21.307     24.308
REMARK INTER + INTRA:         -10.138
REMARK INTER:                  -8.676
REMARK INTRA:                  -1.462
REMARK UNBOUND:                -0.603
REMARK SMILES COc1cc(CNC(=O)CCCCCCC(C)C)ccc1O
REMARK SMILES IDX 11 1 10 2 8 3 7 4 9 6 6 7 5 8 3 9 21 10 4 11 20 12 19 13
REMARK SMILES IDX 2 14 1 15 22 16 12 18 13 19 14 20 15 21 16 22 17 23 18 24
REMARK H PARENT 7 5 22 17
REMARK Flexibility Score: inf
ROOT
ATOM      1  C   UNL     1      89.960  97.318  70.019  1.00  0.00     0.010 C 
ENDROOT
BRANCH   1   2
ATOM      2  C   UNL     1      89.171  98.250  70.980  1.00  0.00     0.100 C 
BRANCH   2   3
ATOM      3  C   UNL     1      89.812  99.571  71.171  1.00  0.00     0.220 C 
ATOM      4  N   UNL     1      91.152  99.723  70.964  1.00  0.00    -0.352 N 
ATOM      5  H   UNL     1      91.641  98.873  70.725  1.00  0.00     0.163 HD
ATOM      6  O   UNL     1      89.094 100.546  71.502  1.00  0.00    -0.275 OA
BRANCH   4   7
ATOM      7  C   UNL     1      91.868 100.959  71.062  1.00  0.00     0.151 C 
BRANCH   7   8
ATOM      8  C   UNL     1      93.232 100.895  70.469  1.00  0.00    -0.025 A 
ATOM      9  C   UNL     1      95.518  99.988  70.479  1.00  0.00     0.160 A 
ATOM     10  C   UNL     1      95.822 100.733  69.319  1.00  0.00     0.157 A 
ATOM     11  C   UNL     1      94.235 100.088  71.055  1.00  0.00     0.056 A 
ATOM     12  C   UNL     1      94.845 101.570  68.749  1.00  0.00     0.050 A 
ATOM     13  C   UNL     1      93.556 101.643  69.312  1.00  0.00     0.009 A 
BRANCH   9  14
ATOM     14  O   UNL     1      96.473  99.202  71.064  1.00  0.00    -0.493 OA
ATOM     15  C   UNL     1      96.274  97.792  70.853  1.00  0.00     0.278 C 
ENDBRANCH   9  14
BRANCH  10  16
ATOM     16  O   UNL     1      97.051 100.657  68.744  1.00  0.00    -0.504 OA
ATOM     17  H   UNL     1      97.719 100.917  69.382  1.00  0.00     0.293 HD
ENDBRANCH  10  16
ENDBRANCH   7   8
ENDBRANCH   4   7
ENDBRANCH   2   3
ENDBRANCH   1   2
BRANCH   1  18
ATOM     18  C   UNL     1      89.460  97.431  68.551  1.00  0.00     0.001 C 
BRANCH  18  19
ATOM     19  C   UNL     1      88.081  98.135  68.411  1.00  0.00     0.000 C 
BRANCH  19  20
ATOM     20  C   UNL     1      88.236  99.605  67.926  1.00  0.00     0.000 C 
BRANCH  20  21
ATOM     21  C   UNL     1      89.662  99.963  67.425  1.00  0.00     0.003 C 
BRANCH  21  22
ATOM     22  C   UNL     1      90.094 101.442  67.694  1.00  0.00    -0.017 C 
ATOM     23  C   UNL     1      88.844 102.346  67.887  1.00  0.00     0.007 C 
ATOM     24  C   UNL     1      91.028 102.031  66.596  1.00  0.00     0.007 C 
ENDBRANCH  21  22
ENDBRANCH  20  21
ENDBRANCH  19  20
ENDBRANCH  18  19
ENDBRANCH   1  18
TORSDOF 11
ENDMDL
MODEL 3
REMARK VINA RESULT:    -5.905     24.450     27.250
REMARK INTER + INTRA:         -10.133
REMARK INTER:                  -9.158
REMARK INTRA:                  -0.975
REMARK UNBOUND:                -0.603
REMARK SMILES COc1cc(CNC(=O)CCCCCCC(C)C)ccc1O
REMARK SMILES IDX 11 1 10 2 8 3 7 4 9 6 6 7 5 8 3 9 21 10 4 11 20 12 19 13
REMARK SMILES IDX 2 14 1 15 22 16 12 18 13 19 14 20 15 21 16 22 17 23 18 24
REMARK H PARENT 7 5 22 17
REMARK Flexibility Score: inf
ROOT
ATOM      1  C   UNL     1      75.021  81.830  64.010  1.00  0.00     0.010 C 
ENDROOT
BRANCH   1   2
ATOM      2  C   UNL     1      76.110  81.505  65.070  1.00  0.00     0.100 C 
BRANCH   2   3
ATOM      3  C   UNL     1      77.007  82.647  65.356  1.00  0.00     0.220 C 
ATOM      4  N   UNL     1      77.564  82.793  66.593  1.00  0.00    -0.352 N 
ATOM      5  H   UNL     1      77.276  82.100  67.268  1.00  0.00     0.163 HD
ATOM      6  O   UNL     1      77.260  83.458  64.432  1.00  0.00    -0.275 OA
BRANCH   4   7
ATOM      7  C   UNL     1      78.488  83.820  66.967  1.00  0.00     0.151 C 
BRANCH   7   8
ATOM      8  C   UNL     1      77.869  84.893  67.793  1.00  0.00    -0.025 A 
ATOM      9  C   UNL     1      76.493  85.576  69.713  1.00  0.00     0.160 A 
ATOM     10  C   UNL     1      76.722  86.933  69.398  1.00  0.00     0.157 A 
ATOM     11  C   UNL     1      77.051  84.568  68.899  1.00  0.00     0.056 A 
ATOM     12  C   UNL     1      77.502  87.269  68.277  1.00  0.00     0.050 A 
ATOM     13  C   UNL     1      78.080  86.258  67.485  1.00  0.00     0.009 A 
BRANCH   9  14
ATOM     14  O   UNL     1      75.703  85.238  70.779  1.00  0.00    -0.493 OA
ATOM     15  C   UNL     1      76.089  84.008  71.419  1.00  0.00     0.278 C 
ENDBRANCH   9  14
BRANCH  10  16
ATOM     16  O   UNL     1      76.195  87.924  70.164  1.00  0.00    -0.504 OA
ATOM     17  H   UNL     1      76.522  87.841  71.063  1.00  0.00     0.293 HD
ENDBRANCH  10  16
ENDBRANCH   7   8
ENDBRANCH   4   7
ENDBRANCH   2   3
ENDBRANCH   1   2
BRANCH   1  18
ATOM     18  C   UNL     1      73.974  80.688  63.875  1.00  0.00     0.001 C 
BRANCH  18  19
ATOM     19  C   UNL     1      72.755  81.057  62.984  1.00  0.00     0.000 C 
BRANCH  19  20
ATOM     20  C   UNL     1      71.523  81.465  63.840  1.00  0.00     0.000 C 
BRANCH  20  21
ATOM     21  C   UNL     1      71.682  82.822  64.580  1.00  0.00     0.003 C 
BRANCH  21  22
ATOM     22  C   UNL     1      71.974  82.698  66.111  1.00  0.00    -0.017 C 
ATOM     23  C   UNL     1      70.672  82.348  66.886  1.00  0.00     0.007 C 
ATOM     24  C   UNL     1      72.649  83.960  66.724  1.00  0.00     0.007 C 
ENDBRANCH  21  22
ENDBRANCH  20  21
ENDBRANCH  19  20
ENDBRANCH  18  19
ENDBRANCH   1  18
TORSDOF 11
ENDMDL
MODEL 4
REMARK VINA RESULT:    -5.812      4.180      9.571
REMARK INTER + INTRA:          -9.983
REMARK INTER:                  -9.200
REMARK INTRA:                  -0.783
REMARK UNBOUND:                -0.603
REMARK SMILES COc1cc(CNC(=O)CCCCCCC(C)C)ccc1O
REMARK SMILES IDX 11 1 10 2 8 3 7 4 9 6 6 7 5 8 3 9 21 10 4 11 20 12 19 13
REMARK SMILES IDX 2 14 1 15 22 16 12 18 13 19 14 20 15 21 16 22 17 23 18 24
REMARK H PARENT 7 5 22 17
REMARK Flexibility Score: inf
ROOT
ATOM      1  C   UNL     1      96.682  82.432  85.427  1.00  0.00     0.010 C 
ENDROOT
BRANCH   1   2
ATOM      2  C   UNL     1      97.402  83.366  84.416  1.00  0.00     0.100 C 
BRANCH   2   3
ATOM      3  C   UNL     1      98.134  82.632  83.360  1.00  0.00     0.220 C 
ATOM      4  N   UNL     1      98.812  83.313  82.391  1.00  0.00    -0.352 N 
ATOM      5  H   UNL     1      98.726  84.317  82.444  1.00  0.00     0.163 HD
ATOM      6  O   UNL     1      98.136  81.377  83.391  1.00  0.00    -0.275 OA
BRANCH   4   7
ATOM      7  C   UNL     1      99.599  82.713  81.357  1.00  0.00     0.151 C 
BRANCH   7   8
ATOM      8  C   UNL     1      99.098  83.015  79.988  1.00  0.00    -0.025 A 
ATOM      9  C   UNL     1      99.482  83.154  77.563  1.00  0.00     0.160 A 
ATOM     10  C   UNL     1      98.139  83.546  77.371  1.00  0.00     0.157 A 
ATOM     11  C   UNL     1      99.955  82.911  78.869  1.00  0.00     0.056 A 
ATOM     12  C   UNL     1      97.287  83.692  78.480  1.00  0.00     0.050 A 
ATOM     13  C   UNL     1      97.758  83.418  79.779  1.00  0.00     0.009 A 
BRANCH   9  14
ATOM     14  O   UNL     1     100.330  83.048  76.494  1.00  0.00    -0.493 OA
ATOM     15  C   UNL     1     101.437  83.967  76.539  1.00  0.00     0.278 C 
ENDBRANCH   9  14
BRANCH  10  16
ATOM     16  O   UNL     1      97.656  83.789  76.124  1.00  0.00    -0.504 OA
ATOM     17  H   UNL     1      97.324  82.972  75.745  1.00  0.00     0.293 HD
ENDBRANCH  10  16
ENDBRANCH   7   8
ENDBRANCH   4   7
ENDBRANCH   2   3
ENDBRANCH   1   2
BRANCH   1  18
ATOM     18  C   UNL     1      95.520  83.153  86.169  1.00  0.00     0.001 C 
BRANCH  18  19
ATOM     19  C   UNL     1      94.680  82.214  87.081  1.00  0.00     0.000 C 
BRANCH  19  20
ATOM     20  C   UNL     1      93.596  83.002  87.868  1.00  0.00     0.000 C 
BRANCH  20  21
ATOM     21  C   UNL     1      93.567  84.525  87.563  1.00  0.00     0.003 C 
BRANCH  21  22
ATOM     22  C   UNL     1      94.001  85.436  88.757  1.00  0.00    -0.017 C 
ATOM     23  C   UNL     1      95.376  86.099  88.464  1.00  0.00     0.007 C 
ATOM     24  C   UNL     1      94.033  84.697  90.128  1.00  0.00     0.007 C 
ENDBRANCH  21  22
ENDBRANCH  20  21
ENDBRANCH  19  20
ENDBRANCH  18  19
ENDBRANCH   1  18
TORSDOF 11
ENDMDL
MODEL 5
REMARK VINA RESULT:    -5.748     23.023     24.537
REMARK INTER + INTRA:          -9.879
REMARK INTER:                  -8.922
REMARK INTRA:                  -0.957
REMARK UNBOUND:                -0.603
REMARK SMILES COc1cc(CNC(=O)CCCCCCC(C)C)ccc1O
REMARK SMILES IDX 11 1 10 2 8 3 7 4 9 6 6 7 5 8 3 9 21 10 4 11 20 12 19 13
REMARK SMILES IDX 2 14 1 15 22 16 12 18 13 19 14 20 15 21 16 22 17 23 18 24
REMARK H PARENT 7 5 22 17
REMARK Flexibility Score: inf
ROOT
ATOM      1  C   UNL     1      75.292  87.493  70.376  1.00  0.00     0.010 C 
ENDROOT
BRANCH   1   2
ATOM      2  C   UNL     1      74.146  88.139  71.202  1.00  0.00     0.100 C 
BRANCH   2   3
ATOM      3  C   UNL     1      74.186  89.619  71.202  1.00  0.00     0.220 C 
ATOM      4  N   UNL     1      75.364  90.276  70.997  1.00  0.00    -0.352 N 
ATOM      5  H   UNL     1      76.170  89.675  70.897  1.00  0.00     0.163 HD
ATOM      6  O   UNL     1      73.114  90.250  71.369  1.00  0.00    -0.275 OA
BRANCH   4   7
ATOM      7  C   UNL     1      75.515  91.697  70.918  1.00  0.00     0.151 C 
BRANCH   7   8
ATOM      8  C   UNL     1      76.144  92.289  72.130  1.00  0.00    -0.025 A 
ATOM      9  C   UNL     1      75.956  93.115  74.439  1.00  0.00     0.160 A 
ATOM     10  C   UNL     1      77.343  93.376  74.461  1.00  0.00     0.157 A 
ATOM     11  C   UNL     1      75.365  92.592  73.270  1.00  0.00     0.056 A 
ATOM     12  C   UNL     1      78.123  93.115  73.320  1.00  0.00     0.050 A 
ATOM     13  C   UNL     1      77.531  92.566  72.166  1.00  0.00     0.009 A 
BRANCH   9  14
ATOM     14  O   UNL     1      75.182  93.402  75.530  1.00  0.00    -0.493 OA
ATOM     15  C   UNL     1      74.169  92.414  75.799  1.00  0.00     0.278 C 
ENDBRANCH   9  14
BRANCH  10  16
ATOM     16  O   UNL     1      77.939  93.881  75.573  1.00  0.00    -0.504 OA
ATOM     17  H   UNL     1      78.878  93.681  75.551  1.00  0.00     0.293 HD
ENDBRANCH  10  16
ENDBRANCH   7   8
ENDBRANCH   4   7
ENDBRANCH   2   3
ENDBRANCH   1   2
BRANCH   1  18
ATOM     18  C   UNL     1      75.046  85.980  70.115  1.00  0.00     0.001 C 
BRANCH  18  19
ATOM     19  C   UNL     1      76.344  85.124  70.127  1.00  0.00     0.000 C 
BRANCH  19  20
ATOM     20  C   UNL     1      77.614  86.009  69.985  1.00  0.00     0.000 C 
BRANCH  20  21
ATOM     21  C   UNL     1      78.287  85.939  68.586  1.00  0.00     0.003 C 
BRANCH  21  22
ATOM     22  C   UNL     1      77.546  85.029  67.553  1.00  0.00    -0.017 C 
ATOM     23  C   UNL     1      78.414  83.789  67.199  1.00  0.00     0.007 C 
ATOM     24  C   UNL     1      77.112  85.778  66.259  1.00  0.00     0.007 C 
ENDBRANCH  21  22
ENDBRANCH  20  21
ENDBRANCH  19  20
ENDBRANCH  18  19
ENDBRANCH   1  18
TORSDOF 11
ENDMDL
MODEL 6
REMARK VINA RESULT:    -5.672      6.293      9.791
REMARK INTER + INTRA:          -9.756
REMARK INTER:                  -8.215
REMARK INTRA:                  -1.541
REMARK UNBOUND:                -0.603
REMARK SMILES COc1cc(CNC(=O)CCCCCCC(C)C)ccc1O
REMARK SMILES IDX 11 1 10 2 8 3 7 4 9 6 6 7 5 8 3 9 21 10 4 11 20 12 19 13
REMARK SMILES IDX 2 14 1 15 22 16 12 18 13 19 14 20 15 21 16 22 17 23 18 24
REMARK H PARENT 7 5 22 17
REMARK Flexibility Score: inf
ROOT
ATOM      1  C   UNL     1     101.570  79.758  81.124  1.00  0.00     0.010 C 
ENDROOT
BRANCH   1   2
ATOM      2  C   UNL     1     100.594  78.558  80.984  1.00  0.00     0.100 C 
BRANCH   2   3
ATOM      3  C   UNL     1      99.531  78.784  79.979  1.00  0.00     0.220 C 
ATOM      4  N   UNL     1      99.606  79.843  79.122  1.00  0.00    -0.352 N 
ATOM      5  H   UNL     1     100.398  80.450  79.271  1.00  0.00     0.163 HD
ATOM      6  O   UNL     1      98.578  77.969  79.918  1.00  0.00    -0.275 OA
BRANCH   4   7
ATOM      7  C   UNL     1      98.671  80.127  78.076  1.00  0.00     0.151 C 
BRANCH   7   8
ATOM      8  C   UNL     1      98.431  81.583  77.883  1.00  0.00    -0.025 A 
ATOM      9  C   UNL     1      98.806  83.653  76.609  1.00  0.00     0.160 A 
ATOM     10  C   UNL     1      97.943  84.350  77.483  1.00  0.00     0.157 A 
ATOM     11  C   UNL     1      99.057  82.282  76.826  1.00  0.00     0.056 A 
ATOM     12  C   UNL     1      97.345  83.675  78.562  1.00  0.00     0.050 A 
ATOM     13  C   UNL     1      97.577  82.299  78.756  1.00  0.00     0.009 A 
BRANCH   9  14
ATOM     14  O   UNL     1      99.424  84.309  75.579  1.00  0.00    -0.493 OA
ATOM     15  C   UNL     1     100.721  83.779  75.249  1.00  0.00     0.278 C 
ENDBRANCH   9  14
BRANCH  10  16
ATOM     16  O   UNL     1      97.684  85.672  77.298  1.00  0.00    -0.504 OA
ATOM     17  H   UNL     1      98.505  86.135  77.113  1.00  0.00     0.293 HD
ENDBRANCH  10  16
ENDBRANCH   7   8
ENDBRANCH   4   7
ENDBRANCH   2   3
ENDBRANCH   1   2
BRANCH   1  18
ATOM     18  C   UNL     1     101.493  80.417  82.531  1.00  0.00     0.001 C 
BRANCH  18  19
ATOM     19  C   UNL     1     101.349  81.964  82.492  1.00  0.00     0.000 C 
BRANCH  19  20
ATOM     20  C   UNL     1     100.255  82.411  81.482  1.00  0.00     0.000 C 
BRANCH  20  21
ATOM     21  C   UNL     1      98.806  82.051  81.912  1.00  0.00     0.003 C 
BRANCH  21  22
ATOM     22  C   UNL     1      98.477  82.355  83.411  1.00  0.00    -0.017 C 
ATOM     23  C   UNL     1      97.974  81.071  84.128  1.00  0.00     0.007 C 
ATOM     24  C   UNL     1      97.464  83.521  83.604  1.00  0.00     0.007 C 
ENDBRANCH  21  22
ENDBRANCH  20  21
ENDBRANCH  19  20
ENDBRANCH  18  19
ENDBRANCH   1  18
TORSDOF 11
ENDMDL
MODEL 7
REMARK VINA RESULT:    -5.363     25.316     27.804
REMARK INTER + INTRA:          -9.257
REMARK INTER:                  -8.261
REMARK INTRA:                  -0.996
REMARK UNBOUND:                -0.603
REMARK SMILES COc1cc(CNC(=O)CCCCCCC(C)C)ccc1O
REMARK SMILES IDX 11 1 10 2 8 3 7 4 9 6 6 7 5 8 3 9 21 10 4 11 20 12 19 13
REMARK SMILES IDX 2 14 1 15 22 16 12 18 13 19 14 20 15 21 16 22 17 23 18 24
REMARK H PARENT 7 5 22 17
REMARK Flexibility Score: inf
ROOT
ATOM      1  C   UNL     1      76.993  86.666  65.304  1.00  0.00     0.010 C 
ENDROOT
BRANCH   1   2
ATOM      2  C   UNL     1      75.674  87.482  65.394  1.00  0.00     0.100 C 
BRANCH   2   3
ATOM      3  C   UNL     1      74.538  86.837  64.699  1.00  0.00     0.220 C 
ATOM      4  N   UNL     1      74.763  85.888  63.744  1.00  0.00    -0.352 N 
ATOM      5  H   UNL     1      75.737  85.718  63.542  1.00  0.00     0.163 HD
ATOM      6  O   UNL     1      73.370  87.163  65.025  1.00  0.00    -0.275 OA
BRANCH   4   7
ATOM      7  C   UNL     1      73.747  85.158  63.050  1.00  0.00     0.151 C 
BRANCH   7   8
ATOM      8  C   UNL     1      73.418  83.855  63.692  1.00  0.00    -0.025 A 
ATOM      9  C   UNL     1      74.016  82.024  65.221  1.00  0.00     0.160 A 
ATOM     10  C   UNL     1      72.780  81.395  64.953  1.00  0.00     0.157 A 
ATOM     11  C   UNL     1      74.333  83.237  64.575  1.00  0.00     0.056 A 
ATOM     12  C   UNL     1      71.878  81.980  64.047  1.00  0.00     0.050 A 
ATOM     13  C   UNL     1      72.189  83.206  63.428  1.00  0.00     0.009 A 
BRANCH   9  14
ATOM     14  O   UNL     1      74.917  81.443  66.071  1.00  0.00    -0.493 OA
ATOM     15  C   UNL     1      76.283  81.814  65.809  1.00  0.00     0.278 C 
ENDBRANCH   9  14
BRANCH  10  16
ATOM     16  O   UNL     1      72.449  80.224  65.560  1.00  0.00    -0.504 OA
ATOM     17  H   UNL     1      72.067  80.408  66.421  1.00  0.00     0.293 HD
ENDBRANCH  10  16
ENDBRANCH   7   8
ENDBRANCH   4   7
ENDBRANCH   2   3
ENDBRANCH   1   2
BRANCH   1  18
ATOM     18  C   UNL     1      77.514  86.235  66.704  1.00  0.00     0.001 C 
BRANCH  18  19
ATOM     19  C   UNL     1      77.322  87.316  67.804  1.00  0.00     0.000 C 
BRANCH  19  20
ATOM     20  C   UNL     1      77.608  86.747  69.222  1.00  0.00     0.000 C 
BRANCH  20  21
ATOM     21  C   UNL     1      76.334  86.360  70.023  1.00  0.00     0.003 C 
BRANCH  21  22
ATOM     22  C   UNL     1      76.013  84.830  70.036  1.00  0.00    -0.017 C 
ATOM     23  C   UNL     1      75.875  84.315  71.496  1.00  0.00     0.007 C 
ATOM     24  C   UNL     1      77.044  83.968  69.249  1.00  0.00     0.007 C 
ENDBRANCH  21  22
ENDBRANCH  20  21
ENDBRANCH  19  20
ENDBRANCH  18  19
ENDBRANCH   1  18
TORSDOF 11
ENDMDL
MODEL 8
REMARK VINA RESULT:    -5.310      4.995      9.251
REMARK INTER + INTRA:          -9.172
REMARK INTER:                  -8.111
REMARK INTRA:                  -1.061
REMARK UNBOUND:                -0.603
REMARK SMILES COc1cc(CNC(=O)CCCCCCC(C)C)ccc1O
REMARK SMILES IDX 11 1 10 2 8 3 7 4 9 6 6 7 5 8 3 9 21 10 4 11 20 12 19 13
REMARK SMILES IDX 2 14 1 15 22 16 12 18 13 19 14 20 15 21 16 22 17 23 18 24
REMARK H PARENT 7 5 22 17
REMARK Flexibility Score: inf
ROOT
ATOM      1  C   UNL     1      97.821  81.143  84.299  1.00  0.00     0.010 C 
ENDROOT
BRANCH   1   2
ATOM      2  C   UNL     1      99.002  82.128  84.075  1.00  0.00     0.100 C 
BRANCH   2   3
ATOM      3  C   UNL     1      99.702  81.918  82.788  1.00  0.00     0.220 C 
ATOM      4  N   UNL     1      99.001  81.573  81.670  1.00  0.00    -0.352 N 
ATOM      5  H   UNL     1      98.012  81.438  81.818  1.00  0.00     0.163 HD
ATOM      6  O   UNL     1     100.946  82.087  82.746  1.00  0.00    -0.275 OA
BRANCH   4   7
ATOM      7  C   UNL     1      99.562  81.401  80.364  1.00  0.00     0.151 C 
BRANCH   7   8
ATOM      8  C   UNL     1      98.957  82.300  79.343  1.00  0.00    -0.025 A 
ATOM      9  C   UNL     1      98.843  83.119  77.027  1.00  0.00     0.160 A 
ATOM     10  C   UNL     1      97.781  83.979  77.381  1.00  0.00     0.157 A 
ATOM     11  C   UNL     1      99.434  82.301  78.013  1.00  0.00     0.056 A 
ATOM     12  C   UNL     1      97.323  84.015  78.711  1.00  0.00     0.050 A 
ATOM     13  C   UNL     1      97.898  83.175  79.683  1.00  0.00     0.009 A 
BRANCH   9  14
ATOM     14  O   UNL     1      99.322  83.105  75.745  1.00  0.00    -0.493 OA
ATOM     15  C   UNL     1     100.452  83.972  75.539  1.00  0.00     0.278 C 
ENDBRANCH   9  14
BRANCH  10  16
ATOM     16  O   UNL     1      97.193  84.779  76.453  1.00  0.00    -0.504 OA
ATOM     17  H   UNL     1      96.654  84.244  75.865  1.00  0.00     0.293 HD
ENDBRANCH  10  16
ENDBRANCH   7   8
ENDBRANCH   4   7
ENDBRANCH   2   3
ENDBRANCH   1   2
BRANCH   1  18
ATOM     18  C   UNL     1      97.830  80.532  85.730  1.00  0.00     0.001 C 
BRANCH  18  19
ATOM     19  C   UNL     1      96.425  80.468  86.392  1.00  0.00     0.000 C 
BRANCH  19  20
ATOM     20  C   UNL     1      96.069  81.801  87.108  1.00  0.00     0.000 C 
BRANCH  20  21
ATOM     21  C   UNL     1      95.343  82.835  86.203  1.00  0.00     0.003 C 
BRANCH  21  22
ATOM     22  C   UNL     1      95.925  84.285  86.275  1.00  0.00    -0.017 C 
ATOM     23  C   UNL     1      97.394  84.256  86.782  1.00  0.00     0.007 C 
ATOM     24  C   UNL     1      95.070  85.260  87.137  1.00  0.00     0.007 C 
ENDBRANCH  21  22
ENDBRANCH  20  21
ENDBRANCH  19  20
ENDBRANCH  18  19
ENDBRANCH   1  18
TORSDOF 11
ENDMDL
MODEL 9
REMARK VINA RESULT:    -5.262     23.186     24.677
REMARK INTER + INTRA:          -9.094
REMARK INTER:                  -8.372
REMARK INTRA:                  -0.723
REMARK UNBOUND:                -0.603
REMARK SMILES COc1cc(CNC(=O)CCCCCCC(C)C)ccc1O
REMARK SMILES IDX 11 1 10 2 8 3 7 4 9 6 6 7 5 8 3 9 21 10 4 11 20 12 19 13
REMARK SMILES IDX 2 14 1 15 22 16 12 18 13 19 14 20 15 21 16 22 17 23 18 24
REMARK H PARENT 7 5 22 17
REMARK Flexibility Score: inf
ROOT
ATOM      1  C   UNL     1      76.616  87.938  70.013  1.00  0.00     0.010 C 
ENDROOT
BRANCH   1   2
ATOM      2  C   UNL     1      75.124  88.327  70.208  1.00  0.00     0.100 C 
BRANCH   2   3
ATOM      3  C   UNL     1      74.909  89.788  70.307  1.00  0.00     0.220 C 
ATOM      4  N   UNL     1      74.531  90.350  71.492  1.00  0.00    -0.352 N 
ATOM      5  H   UNL     1      74.378  89.691  72.241  1.00  0.00     0.163 HD
ATOM      6  O   UNL     1      75.105  90.496  69.289  1.00  0.00    -0.275 OA
BRANCH   4   7
ATOM      7  C   UNL     1      74.351  91.752  71.721  1.00  0.00     0.151 C 
BRANCH   7   8
ATOM      8  C   UNL     1      75.333  92.320  72.685  1.00  0.00    -0.025 A 
ATOM      9  C   UNL     1      77.592  93.158  73.178  1.00  0.00     0.160 A 
ATOM     10  C   UNL     1      77.198  93.444  74.504  1.00  0.00     0.157 A 
ATOM     11  C   UNL     1      76.663  92.582  72.286  1.00  0.00     0.056 A 
ATOM     12  C   UNL     1      75.888  93.151  74.924  1.00  0.00     0.050 A 
ATOM     13  C   UNL     1      74.958  92.603  74.019  1.00  0.00     0.009 A 
BRANCH   9  14
ATOM     14  O   UNL     1      78.875  93.402  72.770  1.00  0.00    -0.493 OA
ATOM     15  C   UNL     1      79.052  94.690  72.153  1.00  0.00     0.278 C 
ENDBRANCH   9  14
BRANCH  10  16
ATOM     16  O   UNL     1      78.072  93.997  75.385  1.00  0.00    -0.504 OA
ATOM     17  H   UNL     1      78.936  93.594  75.274  1.00  0.00     0.293 HD
ENDBRANCH  10  16
ENDBRANCH   7   8
ENDBRANCH   4   7
ENDBRANCH   2   3
ENDBRANCH   1   2
BRANCH   1  18
ATOM     18  C   UNL     1      76.784  86.715  69.066  1.00  0.00     0.001 C 
BRANCH  18  19
ATOM     19  C   UNL     1      77.549  85.525  69.710  1.00  0.00     0.000 C 
BRANCH  19  20
ATOM     20  C   UNL     1      76.813  84.176  69.473  1.00  0.00     0.000 C 
BRANCH  20  21
ATOM     21  C   UNL     1      76.328  83.963  68.013  1.00  0.00     0.003 C 
BRANCH  21  22
ATOM     22  C   UNL     1      77.328  83.175  67.104  1.00  0.00    -0.017 C 
ATOM     23  C   UNL     1      78.323  84.152  66.416  1.00  0.00     0.007 C 
ATOM     24  C   UNL     1      76.631  82.271  66.045  1.00  0.00     0.007 C 
ENDBRANCH  21  22
ENDBRANCH  20  21
ENDBRANCH  19  20
ENDBRANCH  18  19
ENDBRANCH   1  18
TORSDOF 11
ENDMDL
MODEL 10
REMARK VINA RESULT:    -5.232      1.578      2.128
REMARK INTER + INTRA:          -9.047
REMARK INTER:                  -8.178
REMARK INTRA:                  -0.869
REMARK UNBOUND:                -0.603
REMARK SMILES COc1cc(CNC(=O)CCCCCCC(C)C)ccc1O
REMARK SMILES IDX 11 1 10 2 8 3 7 4 9 6 6 7 5 8 3 9 21 10 4 11 20 12 19 13
REMARK SMILES IDX 2 14 1 15 22 16 12 18 13 19 14 20 15 21 16 22 17 23 18 24
REMARK H PARENT 7 5 22 17
REMARK Flexibility Score: inf
ROOT
ATOM      1  C   UNL     1      97.824  81.401  83.906  1.00  0.00     0.010 C 
ENDROOT
BRANCH   1   2
ATOM      2  C   UNL     1      97.917  82.869  84.406  1.00  0.00     0.100 C 
BRANCH   2   3
ATOM      3  C   UNL     1      96.681  83.340  85.070  1.00  0.00     0.220 C 
ATOM      4  N   UNL     1      96.004  82.521  85.926  1.00  0.00    -0.352 N 
ATOM      5  H   UNL     1      96.391  81.593  86.016  1.00  0.00     0.163 HD
ATOM      6  O   UNL     1      96.287  84.511  84.847  1.00  0.00    -0.275 OA
BRANCH   4   7
ATOM      7  C   UNL     1      94.834  82.886  86.667  1.00  0.00     0.151 C 
BRANCH   7   8
ATOM      8  C   UNL     1      93.864  81.768  86.820  1.00  0.00    -0.025 A 
ATOM      9  C   UNL     1      91.546  80.974  87.037  1.00  0.00     0.160 A 
ATOM     10  C   UNL     1      92.004  79.639  87.067  1.00  0.00     0.157 A 
ATOM     11  C   UNL     1      92.479  82.027  86.932  1.00  0.00     0.056 A 
ATOM     12  C   UNL     1      93.383  79.370  86.995  1.00  0.00     0.050 A 
ATOM     13  C   UNL     1      94.306  80.424  86.861  1.00  0.00     0.009 A 
BRANCH   9  14
ATOM     14  O   UNL     1      90.210  81.249  87.146  1.00  0.00    -0.493 OA
ATOM     15  C   UNL     1      89.676  81.985  86.030  1.00  0.00     0.278 C 
ENDBRANCH   9  14
BRANCH  10  16
ATOM     16  O   UNL     1      91.128  78.605  87.168  1.00  0.00    -0.504 OA
ATOM     17  H   UNL     1      90.662  78.498  86.336  1.00  0.00     0.293 HD
ENDBRANCH  10  16
ENDBRANCH   7   8
ENDBRANCH   4   7
ENDBRANCH   2   3
ENDBRANCH   1   2
BRANCH   1  18
ATOM     18  C   UNL     1      99.183  80.880  83.358  1.00  0.00     0.001 C 
BRANCH  18  19
ATOM     19  C   UNL     1     100.163  82.011  82.935  1.00  0.00     0.000 C 
BRANCH  19  20
ATOM     20  C   UNL     1     100.298  82.102  81.388  1.00  0.00     0.000 C 
BRANCH  20  21
ATOM     21  C   UNL     1      99.342  83.132  80.725  1.00  0.00     0.003 C 
BRANCH  21  22
ATOM     22  C   UNL     1      98.306  82.512  79.732  1.00  0.00    -0.017 C 
ATOM     23  C   UNL     1      99.031  81.898  78.502  1.00  0.00     0.007 C 
ATOM     24  C   UNL     1      97.205  83.513  79.271  1.00  0.00     0.007 C 
ENDBRANCH  21  22
ENDBRANCH  20  21
ENDBRANCH  19  20
ENDBRANCH  18  19
ENDBRANCH   1  18
TORSDOF 11
ENDMDL
