MODEL 1
REMARK VINA RESULT:    -6.692      0.000      0.000
REMARK INTER + INTRA:         -12.778
REMARK INTER:                 -11.778
REMARK INTRA:                  -1.000
REMARK UNBOUND:                -1.000
REMARK SMILES C=C(C)[C@]12C[C@@H](C)[C@@]34O[C@](Cc5ccccc5)(O[C@@H]1[C@@H]3C=C(COC(=O)Cc1ccc(O)c(OC)c1)C[C@]1(O)C(=O)C(C)=C[C@@H]41)O2
REMARK SMILES IDX 23 1 22 2 21 3 20 4 9 5 8 6 10 7 6 8 18 9 46 10 19 11 5 12
REMARK SMILES IDX 7 13 4 14 45 15 38 16 44 17 40 18 42 20 41 21 43 22 39 23
REMARK SMILES IDX 11 25 12 26 13 27 17 28 14 29 16 30 15 31 2 32 3 33 1 34
REMARK SMILES IDX 37 35 24 37 25 38 26 39 27 40 28 41 36 42 29 43 33 44 30 45
REMARK SMILES IDX 31 46 34 47 35 48 32 49
REMARK H PARENT 39 24 32 50
REMARK Flexibility Score: 90.00
ROOT
ATOM      1  C   UNL     1      94.989  93.728  75.943  1.00  0.00     0.264 C 
ENDROOT
BRANCH   1   2
ATOM      2  C   UNL     1      96.040  94.813  75.929  1.00  0.00    -0.033 C 
ATOM      3  C   UNL     1      96.448  95.320  74.748  1.00  0.00    -0.015 C 
BRANCH   3   4
ATOM      4  C   UNL     1      97.531  96.348  74.463  1.00  0.00     0.078 C 
ATOM      5  O   UNL     1      96.427  98.561  74.407  1.00  0.00    -0.319 OA
ATOM      6  C   UNL     1      97.413  97.767  75.136  1.00  0.00     0.095 C 
ATOM      7  C   UNL     1      96.498  98.467  72.972  1.00  0.00     0.289 C 
ATOM      8  C   UNL     1      98.831  98.467  75.030  1.00  0.00     0.023 C 
ATOM      9  O   UNL     1      96.361  97.117  72.535  1.00  0.00    -0.320 OA
ATOM     10  O   UNL     1      97.752  98.911  72.462  1.00  0.00    -0.313 OA
ATOM     11  C   UNL     1      97.636  96.592  72.937  1.00  0.00     0.170 C 
ATOM     12  C   UNL     1      99.577  98.053  73.724  1.00  0.00     0.049 C 
ATOM     13  C   UNL     1      98.820 100.000  75.149  1.00  0.00     0.011 C 
ATOM     14  C   UNL     1      98.601  97.752  72.586  1.00  0.00     0.122 C 
BRANCH   6  15
ATOM     15  C   UNL     1      96.832  97.648  76.574  1.00  0.00     0.086 C 
ATOM     16  C   UNL     1      97.377  96.490  77.435  1.00  0.00     0.140 CG0
ATOM     17  C   UNL     1      96.901  98.833  77.496  1.00  0.00    -0.010 C 
ATOM     18  C   UNL     1      97.370  97.087  78.827  1.00  0.00     0.190 C 
ATOM     19  G   UNL     1      96.511  95.236  77.332  1.00  0.00     0.000 G0
ATOM     20  C   UNL     1      97.174  98.549  78.774  1.00  0.00    -0.008 C 
ATOM     21  O   UNL     1      97.551  96.468  79.864  1.00  0.00    -0.291 OA
ATOM     22  C   UNL     1      97.238  99.436  79.954  1.00  0.00     0.048 C 
BRANCH  16  23
ATOM     23  O   UNL     1      98.745  96.196  77.201  1.00  0.00    -0.381 OA
ATOM     24  H   UNL     1      99.029  96.671  76.403  1.00  0.00     0.212 HD
ENDBRANCH  16  23
ENDBRANCH   6  15
BRANCH   7  25
ATOM     25  C   UNL     1      95.384  99.310  72.384  1.00  0.00     0.135 C 
BRANCH  25  26
ATOM     26  C   UNL     1      94.722 100.178  73.426  1.00  0.00    -0.040 A 
ATOM     27  C   UNL     1      95.482 101.090  74.159  1.00  0.00     0.004 A 
ATOM     28  C   UNL     1      93.351 100.069  73.656  1.00  0.00     0.004 A 
ATOM     29  C   UNL     1      94.870 101.892  75.123  1.00  0.00     0.000 A 
ATOM     30  C   UNL     1      92.739 100.871  74.619  1.00  0.00     0.000 A 
ATOM     31  C   UNL     1      93.499 101.783  75.353  1.00  0.00     0.000 A 
ENDBRANCH  25  26
ENDBRANCH   7  25
BRANCH  14  32
ATOM     32  C   UNL     1      99.292  97.532  71.280  1.00  0.00    -0.046 C 
ATOM     33  C   UNL     1      99.304  98.695  70.333  1.00  0.00     0.042 C 
ATOM     34  C   UNL     1      99.868  96.360  70.971  1.00  0.00     0.010 C 
ENDBRANCH  14  32
ENDBRANCH   3   4
BRANCH   2  35
ATOM     35  C   UNL     1      96.508  95.206  77.318  1.00  0.00     0.078 CG0
ATOM     36  G   UNL     1      97.356  96.471  77.437  1.00  0.00     0.000 G0
ENDBRANCH   2  35
ENDBRANCH   1   2
BRANCH   1  37
ATOM     37  O   UNL     1      93.825  94.213  76.576  1.00  0.00    -0.461 OA
BRANCH  37  38
ATOM     38  C   UNL     1      92.786  94.570  75.747  1.00  0.00     0.310 C 
ATOM     39  O   UNL     1      92.911  94.987  74.604  1.00  0.00    -0.252 OA
BRANCH  38  40
ATOM     40  C   UNL     1      91.474  94.368  76.468  1.00  0.00     0.158 C 
BRANCH  40  41
ATOM     41  C   UNL     1      90.804  93.066  76.115  1.00  0.00    -0.033 A 
ATOM     42  C   UNL     1      90.173  92.919  74.879  1.00  0.00     0.054 A 
ATOM     43  C   UNL     1      90.815  92.007  77.022  1.00  0.00     0.008 A 
ATOM     44  C   UNL     1      89.552  91.713  74.552  1.00  0.00     0.160 A 
ATOM     45  C   UNL     1      90.194  90.801  76.696  1.00  0.00     0.050 A 
ATOM     46  C   UNL     1      89.563  90.654  75.461  1.00  0.00     0.157 A 
BRANCH  44  47
ATOM     47  O   UNL     1      88.939  91.581  73.343  1.00  0.00    -0.493 OA
ATOM     48  C   UNL     1      89.779  91.547  72.190  1.00  0.00     0.278 C 
ENDBRANCH  44  47
BRANCH  46  49
ATOM     49  O   UNL     1      88.962  89.471  75.152  1.00  0.00    -0.504 OA
ATOM     50  H   UNL     1      88.481  89.147  75.933  1.00  0.00     0.293 HD
ENDBRANCH  46  49
ENDBRANCH  40  41
ENDBRANCH  38  40
ENDBRANCH  37  38
ENDBRANCH   1  37
TORSDOF 11
ENDMDL
MODEL 2
REMARK VINA RESULT:    -6.342     15.670     20.532
REMARK INTER + INTRA:         -12.163
REMARK INTER:                 -11.085
REMARK INTRA:                  -1.077
REMARK UNBOUND:                -1.000
REMARK SMILES C=C(C)[C@]12C[C@@H](C)[C@@]34O[C@](Cc5ccccc5)(O[C@@H]1[C@@H]3C=C(COC(=O)Cc1ccc(O)c(OC)c1)C[C@]1(O)C(=O)C(C)=C[C@@H]41)O2
REMARK SMILES IDX 23 1 22 2 21 3 20 4 9 5 8 6 10 7 6 8 18 9 46 10 19 11 5 12
REMARK SMILES IDX 7 13 4 14 45 15 38 16 44 17 40 18 42 20 41 21 43 22 39 23
REMARK SMILES IDX 11 25 12 26 13 27 17 28 14 29 16 30 15 31 2 32 3 33 1 34
REMARK SMILES IDX 37 35 24 37 25 38 26 39 27 40 28 41 36 42 29 43 33 44 30 45
REMARK SMILES IDX 31 46 34 47 35 48 32 49
REMARK H PARENT 39 24 32 50
REMARK Flexibility Score: 90.00
ROOT
ATOM      1  C   UNL     1      94.589  84.492  85.830  1.00  0.00     0.264 C 
ENDROOT
BRANCH   1   2
ATOM      2  C   UNL     1      93.319  83.952  86.445  1.00  0.00    -0.033 C 
ATOM      3  C   UNL     1      92.709  82.894  85.876  1.00  0.00    -0.015 C 
BRANCH   3   4
ATOM      4  C   UNL     1      91.398  82.220  86.250  1.00  0.00     0.078 C 
ATOM      5  O   UNL     1      91.956  80.368  87.792  1.00  0.00    -0.319 OA
ATOM      6  C   UNL     1      91.243  81.640  87.705  1.00  0.00     0.095 C 
ATOM      7  C   UNL     1      91.788  79.489  86.663  1.00  0.00     0.289 C 
ATOM      8  C   UNL     1      89.699  81.394  87.962  1.00  0.00     0.023 C 
ATOM      9  O   UNL     1      92.194  80.121  85.452  1.00  0.00    -0.320 OA
ATOM     10  O   UNL     1      90.427  79.116  86.466  1.00  0.00    -0.313 OA
ATOM     11  C   UNL     1      91.113  81.049  85.277  1.00  0.00     0.170 C 
ATOM     12  C   UNL     1      88.961  80.981  86.651  1.00  0.00     0.049 C 
ATOM     13  C   UNL     1      89.367  80.388  89.075  1.00  0.00     0.011 C 
ATOM     14  C   UNL     1      89.881  80.212  85.703  1.00  0.00     0.122 C 
BRANCH   6  15
ATOM     15  C   UNL     1      91.956  82.556  88.743  1.00  0.00     0.086 C 
ATOM     16  C   UNL     1      91.753  84.075  88.561  1.00  0.00     0.140 CG0
ATOM     17  C   UNL     1      91.704  82.342  90.209  1.00  0.00    -0.010 C 
ATOM     18  C   UNL     1      91.745  84.576  89.990  1.00  0.00     0.190 C 
ATOM     19  G   UNL     1      92.863  84.709  87.725  1.00  0.00     0.000 G0
ATOM     20  C   UNL     1      91.609  83.457  90.942  1.00  0.00    -0.008 C 
ATOM     21  O   UNL     1      91.793  85.748  90.330  1.00  0.00    -0.291 OA
ATOM     22  C   UNL     1      91.450  83.625  92.401  1.00  0.00     0.048 C 
BRANCH  16  23
ATOM     23  O   UNL     1      90.470  84.428  88.072  1.00  0.00    -0.381 OA
ATOM     24  H   UNL     1      89.889  84.603  88.831  1.00  0.00     0.212 HD
ENDBRANCH  16  23
ENDBRANCH   6  15
BRANCH   7  25
ATOM     25  C   UNL     1      92.624  78.248  86.899  1.00  0.00     0.135 C 
BRANCH  25  26
ATOM     26  C   UNL     1      91.781  76.998  86.941  1.00  0.00    -0.040 A 
ATOM     27  C   UNL     1      91.702  76.172  85.819  1.00  0.00     0.004 A 
ATOM     28  C   UNL     1      91.082  76.666  88.101  1.00  0.00     0.004 A 
ATOM     29  C   UNL     1      90.922  75.016  85.858  1.00  0.00     0.000 A 
ATOM     30  C   UNL     1      90.302  75.510  88.140  1.00  0.00     0.000 A 
ATOM     31  C   UNL     1      90.222  74.685  87.018  1.00  0.00     0.000 A 
ENDBRANCH  25  26
ENDBRANCH   7  25
BRANCH  14  32
ATOM     32  C   UNL     1      89.152  79.649  84.526  1.00  0.00    -0.046 C 
ATOM     33  C   UNL     1      87.969  80.433  84.043  1.00  0.00     0.042 C 
ATOM     34  C   UNL     1      89.533  78.506  83.936  1.00  0.00     0.010 C 
ENDBRANCH  14  32
ENDBRANCH   3   4
BRANCH   2  35
ATOM     35  C   UNL     1      92.891  84.712  87.687  1.00  0.00     0.078 CG0
ATOM     36  G   UNL     1      91.788  84.088  88.542  1.00  0.00     0.000 G0
ENDBRANCH   2  35
ENDBRANCH   1   2
BRANCH   1  37
ATOM     37  O   UNL     1      94.935  83.707  84.709  1.00  0.00    -0.461 OA
BRANCH  37  38
ATOM     38  C   UNL     1      96.251  83.758  84.313  1.00  0.00     0.310 C 
ATOM     39  O   UNL     1      97.213  83.760  85.069  1.00  0.00    -0.252 OA
BRANCH  38  40
ATOM     40  C   UNL     1      96.322  83.813  82.805  1.00  0.00     0.158 C 
BRANCH  40  41
ATOM     41  C   UNL     1      97.033  82.627  82.206  1.00  0.00    -0.033 A 
ATOM     42  C   UNL     1      97.952  82.813  81.172  1.00  0.00     0.054 A 
ATOM     43  C   UNL     1      96.774  81.343  82.686  1.00  0.00     0.008 A 
ATOM     44  C   UNL     1      98.610  81.715  80.618  1.00  0.00     0.160 A 
ATOM     45  C   UNL     1      97.433  80.245  82.132  1.00  0.00     0.050 A 
ATOM     46  C   UNL     1      98.350  80.431  81.098  1.00  0.00     0.157 A 
BRANCH  44  47
ATOM     47  O   UNL     1      99.504  81.909  79.609  1.00  0.00    -0.493 OA
ATOM     48  C   UNL     1      98.972  82.117  78.302  1.00  0.00     0.278 C 
ENDBRANCH  44  47
BRANCH  46  49
ATOM     49  O   UNL     1      98.988  79.351  80.566  1.00  0.00    -0.504 OA
ATOM     50  H   UNL     1      98.898  79.376  79.599  1.00  0.00     0.293 HD
ENDBRANCH  46  49
ENDBRANCH  40  41
ENDBRANCH  38  40
ENDBRANCH  37  38
ENDBRANCH   1  37
TORSDOF 11
ENDMDL
MODEL 3
REMARK VINA RESULT:    -6.330      1.918      3.070
REMARK INTER + INTRA:         -12.140
REMARK INTER:                 -11.185
REMARK INTRA:                  -0.955
REMARK UNBOUND:                -1.000
REMARK SMILES C=C(C)[C@]12C[C@@H](C)[C@@]34O[C@](Cc5ccccc5)(O[C@@H]1[C@@H]3C=C(COC(=O)Cc1ccc(O)c(OC)c1)C[C@]1(O)C(=O)C(C)=C[C@@H]41)O2
REMARK SMILES IDX 23 1 22 2 21 3 20 4 9 5 8 6 10 7 6 8 18 9 46 10 19 11 5 12
REMARK SMILES IDX 7 13 4 14 45 15 38 16 44 17 40 18 42 20 41 21 43 22 39 23
REMARK SMILES IDX 11 25 12 26 13 27 17 28 14 29 16 30 15 31 2 32 3 33 1 34
REMARK SMILES IDX 37 35 24 37 25 38 26 39 27 40 28 41 36 42 29 43 33 44 30 45
REMARK SMILES IDX 31 46 34 47 35 48 32 49
REMARK H PARENT 39 24 32 50
REMARK Flexibility Score: 90.00
ROOT
ATOM      1  C   UNL     1      95.266  95.025  75.397  1.00  0.00     0.264 C 
ENDROOT
BRANCH   1   2
ATOM      2  C   UNL     1      96.169  96.173  75.011  1.00  0.00    -0.033 C 
ATOM      3  C   UNL     1      96.890  96.092  73.875  1.00  0.00    -0.015 C 
BRANCH   3   4
ATOM      4  C   UNL     1      97.915  97.063  73.311  1.00  0.00     0.078 C 
ATOM      5  O   UNL     1      96.704  98.582  71.780  1.00  0.00    -0.319 OA
ATOM      6  C   UNL     1      97.466  98.544  73.026  1.00  0.00     0.095 C 
ATOM      7  C   UNL     1      97.242  97.790  70.704  1.00  0.00     0.289 C 
ATOM      8  C   UNL     1      98.776  99.420  72.864  1.00  0.00     0.023 C 
ATOM      9  O   UNL     1      97.369  96.422  71.083  1.00  0.00    -0.320 OA
ATOM     10  O   UNL     1      98.551  98.208  70.327  1.00  0.00    -0.313 OA
ATOM     11  C   UNL     1      98.486  96.512  71.981  1.00  0.00     0.170 C 
ATOM     12  C   UNL     1      99.936  98.600  72.221  1.00  0.00     0.049 C 
ATOM     13  C   UNL     1      98.597 100.740  72.097  1.00  0.00     0.011 C 
ATOM     14  C   UNL     1      99.409  97.529  71.265  1.00  0.00     0.122 C 
BRANCH   6  15
ATOM     15  C   UNL     1      96.463  99.035  74.110  1.00  0.00     0.086 C 
ATOM     16  C   UNL     1      96.801  98.662  75.568  1.00  0.00     0.140 CG0
ATOM     17  C   UNL     1      96.125 100.497  74.193  1.00  0.00    -0.010 C 
ATOM     18  C   UNL     1      96.291  99.861  76.339  1.00  0.00     0.190 C 
ATOM     19  G   UNL     1      96.130  97.360  76.001  1.00  0.00     0.000 G0
ATOM     20  C   UNL     1      95.995 100.986  75.431  1.00  0.00    -0.008 C 
ATOM     21  O   UNL     1      96.182  99.928  77.553  1.00  0.00    -0.291 OA
ATOM     22  C   UNL     1      95.594 102.333  75.885  1.00  0.00     0.048 C 
BRANCH  16  23
ATOM     23  O   UNL     1      98.191  98.645  75.849  1.00  0.00    -0.381 OA
ATOM     24  H   UNL     1      98.340  98.093  76.634  1.00  0.00     0.212 HD
ENDBRANCH  16  23
ENDBRANCH   6  15
BRANCH   7  25
ATOM     25  C   UNL     1      96.310  97.908  69.515  1.00  0.00     0.135 C 
BRANCH  25  26
ATOM     26  C   UNL     1      95.256  98.966  69.725  1.00  0.00    -0.040 A 
ATOM     27  C   UNL     1      95.434 100.243  69.190  1.00  0.00     0.004 A 
ATOM     28  C   UNL     1      94.104  98.669  70.452  1.00  0.00     0.004 A 
ATOM     29  C   UNL     1      94.459 101.222  69.384  1.00  0.00     0.000 A 
ATOM     30  C   UNL     1      93.129  99.649  70.646  1.00  0.00     0.000 A 
ATOM     31  C   UNL     1      93.308 100.925  70.112  1.00  0.00     0.000 A 
ENDBRANCH  25  26
ENDBRANCH   7  25
BRANCH  14  32
ATOM     32  C   UNL     1     100.501  96.854  70.501  1.00  0.00    -0.046 C 
ATOM     33  C   UNL     1     101.679  96.384  71.303  1.00  0.00     0.042 C 
ATOM     34  C   UNL     1     100.433  96.677  69.173  1.00  0.00     0.010 C 
ENDBRANCH  14  32
ENDBRANCH   3   4
BRANCH   2  35
ATOM     35  C   UNL     1      96.131  97.319  76.004  1.00  0.00     0.078 CG0
ATOM     36  G   UNL     1      96.772  98.638  75.574  1.00  0.00     0.000 G0
ENDBRANCH   2  35
ENDBRANCH   1   2
BRANCH   1  37
ATOM     37  O   UNL     1      93.924  95.463  75.388  1.00  0.00    -0.461 OA
BRANCH  37  38
ATOM     38  C   UNL     1      92.986  94.558  75.829  1.00  0.00     0.310 C 
ATOM     39  O   UNL     1      92.156  94.776  76.701  1.00  0.00    -0.252 OA
BRANCH  38  40
ATOM     40  C   UNL     1      93.142  93.261  75.071  1.00  0.00     0.158 C 
BRANCH  40  41
ATOM     41  C   UNL     1      91.822  92.617  74.732  1.00  0.00    -0.033 A 
ATOM     42  C   UNL     1      91.493  91.374  75.274  1.00  0.00     0.054 A 
ATOM     43  C   UNL     1      90.931  93.262  73.876  1.00  0.00     0.008 A 
ATOM     44  C   UNL     1      90.271  90.778  74.960  1.00  0.00     0.160 A 
ATOM     45  C   UNL     1      89.709  92.666  73.561  1.00  0.00     0.050 A 
ATOM     46  C   UNL     1      89.380  91.424  74.102  1.00  0.00     0.157 A 
BRANCH  44  47
ATOM     47  O   UNL     1      89.961  89.565  75.495  1.00  0.00    -0.493 OA
ATOM     48  C   UNL     1      90.435  89.297  76.814  1.00  0.00     0.278 C 
ENDBRANCH  44  47
BRANCH  46  49
ATOM     49  O   UNL     1      88.184  90.852  73.789  1.00  0.00    -0.504 OA
ATOM     50  H   UNL     1      87.794  90.472  74.594  1.00  0.00     0.293 HD
ENDBRANCH  46  49
ENDBRANCH  40  41
ENDBRANCH  38  40
ENDBRANCH  37  38
ENDBRANCH   1  37
TORSDOF 11
ENDMDL
MODEL 4
REMARK VINA RESULT:    -6.303      2.777      5.199
REMARK INTER + INTRA:         -12.094
REMARK INTER:                 -11.119
REMARK INTRA:                  -0.975
REMARK UNBOUND:                -1.000
REMARK SMILES C=C(C)[C@]12C[C@@H](C)[C@@]34O[C@](Cc5ccccc5)(O[C@@H]1[C@@H]3C=C(COC(=O)Cc1ccc(O)c(OC)c1)C[C@]1(O)C(=O)C(C)=C[C@@H]41)O2
REMARK SMILES IDX 23 1 22 2 21 3 20 4 9 5 8 6 10 7 6 8 18 9 46 10 19 11 5 12
REMARK SMILES IDX 7 13 4 14 45 15 38 16 44 17 40 18 42 20 41 21 43 22 39 23
REMARK SMILES IDX 11 25 12 26 13 27 17 28 14 29 16 30 15 31 2 32 3 33 1 34
REMARK SMILES IDX 37 35 24 37 25 38 26 39 27 40 28 41 36 42 29 43 33 44 30 45
REMARK SMILES IDX 31 46 34 47 35 48 32 49
REMARK H PARENT 39 24 32 50
REMARK Flexibility Score: 90.00
ROOT
ATOM      1  C   UNL     1      94.331  95.546  75.130  1.00  0.00     0.264 C 
ENDROOT
BRANCH   1   2
ATOM      2  C   UNL     1      94.974  96.737  74.458  1.00  0.00    -0.033 C 
ATOM      3  C   UNL     1      96.260  96.654  74.060  1.00  0.00    -0.015 C 
BRANCH   3   4
ATOM      4  C   UNL     1      97.148  97.720  73.440  1.00  0.00     0.078 C 
ATOM      5  O   UNL     1      96.949  97.485  70.986  1.00  0.00    -0.319 OA
ATOM      6  C   UNL     1      96.681  98.395  72.097  1.00  0.00     0.095 C 
ATOM      7  C   UNL     1      98.223  96.815  71.031  1.00  0.00     0.289 C 
ATOM      8  C   UNL     1      97.530  99.720  71.905  1.00  0.00     0.023 C 
ATOM      9  O   UNL     1      98.372  96.069  72.236  1.00  0.00    -0.320 OA
ATOM     10  O   UNL     1      99.316  97.729  71.007  1.00  0.00    -0.313 OA
ATOM     11  C   UNL     1      98.559  97.140  73.174  1.00  0.00     0.170 C 
ATOM     12  C   UNL     1      98.971  99.563  72.482  1.00  0.00     0.049 C 
ATOM     13  C   UNL     1      97.611 100.249  70.464  1.00  0.00     0.011 C 
ATOM     14  C   UNL     1      99.465  98.119  72.387  1.00  0.00     0.122 C 
BRANCH   6  15
ATOM     15  C   UNL     1      95.137  98.583  72.082  1.00  0.00     0.086 C 
ATOM     16  C   UNL     1      94.500  99.088  73.394  1.00  0.00     0.140 CG0
ATOM     17  C   UNL     1      94.511  99.457  71.031  1.00  0.00    -0.010 C 
ATOM     18  C   UNL     1      93.356  99.944  72.893  1.00  0.00     0.190 C 
ATOM     19  G   UNL     1      94.025  97.940  74.283  1.00  0.00     0.000 G0
ATOM     20  C   UNL     1      93.491 100.214  71.449  1.00  0.00    -0.008 C 
ATOM     21  O   UNL     1      92.460 100.404  73.584  1.00  0.00    -0.291 OA
ATOM     22  C   UNL     1      92.601 101.115  70.688  1.00  0.00     0.048 C 
BRANCH  16  23
ATOM     23  O   UNL     1      95.314  99.998  74.114  1.00  0.00    -0.381 OA
ATOM     24  H   UNL     1      94.754 100.476  74.748  1.00  0.00     0.212 HD
ENDBRANCH  16  23
ENDBRANCH   6  15
BRANCH   7  25
ATOM     25  C   UNL     1      98.314  95.885  69.838  1.00  0.00     0.135 C 
BRANCH  25  26
ATOM     26  C   UNL     1      98.742  96.611  68.587  1.00  0.00    -0.040 A 
ATOM     27  C   UNL     1      97.791  97.255  67.795  1.00  0.00     0.004 A 
ATOM     28  C   UNL     1     100.087  96.641  68.222  1.00  0.00     0.004 A 
ATOM     29  C   UNL     1      98.186  97.927  66.637  1.00  0.00     0.000 A 
ATOM     30  C   UNL     1     100.483  97.312  67.065  1.00  0.00     0.000 A 
ATOM     31  C   UNL     1      99.531  97.955  66.273  1.00  0.00     0.000 A 
ENDBRANCH  25  26
ENDBRANCH   7  25
BRANCH  14  32
ATOM     32  C   UNL     1     100.904  97.979  72.764  1.00  0.00    -0.046 C 
ATOM     33  C   UNL     1     101.193  97.137  73.971  1.00  0.00     0.042 C 
ATOM     34  C   UNL     1     101.882  98.572  72.062  1.00  0.00     0.010 C 
ENDBRANCH  14  32
ENDBRANCH   3   4
BRANCH   2  35
ATOM     35  C   UNL     1      94.033  97.917  74.310  1.00  0.00     0.078 CG0
ATOM     36  G   UNL     1      94.494  99.072  73.423  1.00  0.00     0.000 G0
ENDBRANCH   2  35
ENDBRANCH   1   2
BRANCH   1  37
ATOM     37  O   UNL     1      92.963  95.497  74.783  1.00  0.00    -0.461 OA
BRANCH  37  38
ATOM     38  C   UNL     1      92.116  94.962  75.725  1.00  0.00     0.310 C 
ATOM     39  O   UNL     1      91.119  95.515  76.169  1.00  0.00    -0.252 OA
BRANCH  38  40
ATOM     40  C   UNL     1      92.606  93.590  76.124  1.00  0.00     0.158 C 
BRANCH  40  41
ATOM     41  C   UNL     1      91.802  92.475  75.505  1.00  0.00    -0.033 A 
ATOM     42  C   UNL     1      91.822  92.285  74.123  1.00  0.00     0.054 A 
ATOM     43  C   UNL     1      91.039  91.634  76.314  1.00  0.00     0.008 A 
ATOM     44  C   UNL     1      91.078  91.253  73.551  1.00  0.00     0.160 A 
ATOM     45  C   UNL     1      90.295  90.602  75.742  1.00  0.00     0.050 A 
ATOM     46  C   UNL     1      90.314  90.411  74.361  1.00  0.00     0.157 A 
BRANCH  44  47
ATOM     47  O   UNL     1      91.104  91.077  72.200  1.00  0.00    -0.493 OA
ATOM     48  C   UNL     1      90.115  91.766  71.437  1.00  0.00     0.278 C 
ENDBRANCH  44  47
BRANCH  46  49
ATOM     49  O   UNL     1      89.584  89.400  73.813  1.00  0.00    -0.504 OA
ATOM     50  H   UNL     1      88.795  89.774  73.386  1.00  0.00     0.293 HD
ENDBRANCH  46  49
ENDBRANCH  40  41
ENDBRANCH  38  40
ENDBRANCH  37  38
ENDBRANCH   1  37
TORSDOF 11
ENDMDL
MODEL 5
REMARK VINA RESULT:    -6.256      2.394      3.197
REMARK INTER + INTRA:         -12.011
REMARK INTER:                 -11.225
REMARK INTRA:                  -0.786
REMARK UNBOUND:                -1.000
REMARK SMILES C=C(C)[C@]12C[C@@H](C)[C@@]34O[C@](Cc5ccccc5)(O[C@@H]1[C@@H]3C=C(COC(=O)Cc1ccc(O)c(OC)c1)C[C@]1(O)C(=O)C(C)=C[C@@H]41)O2
REMARK SMILES IDX 23 1 22 2 21 3 20 4 9 5 8 6 10 7 6 8 18 9 46 10 19 11 5 12
REMARK SMILES IDX 7 13 4 14 45 15 38 16 44 17 40 18 42 20 41 21 43 22 39 23
REMARK SMILES IDX 11 25 12 26 13 27 17 28 14 29 16 30 15 31 2 32 3 33 1 34
REMARK SMILES IDX 37 35 24 37 25 38 26 39 27 40 28 41 36 42 29 43 33 44 30 45
REMARK SMILES IDX 31 46 34 47 35 48 32 49
REMARK H PARENT 39 24 32 50
REMARK Flexibility Score: 90.00
ROOT
ATOM      1  C   UNL     1      95.406  95.063  75.372  1.00  0.00     0.264 C 
ENDROOT
BRANCH   1   2
ATOM      2  C   UNL     1      95.905  96.448  75.033  1.00  0.00    -0.033 C 
ATOM      3  C   UNL     1      95.708  96.934  73.791  1.00  0.00    -0.015 C 
BRANCH   3   4
ATOM      4  C   UNL     1      96.174  98.247  73.183  1.00  0.00     0.078 C 
ATOM      5  O   UNL     1      94.357  99.888  73.535  1.00  0.00    -0.319 OA
ATOM      6  C   UNL     1      95.744  99.590  73.883  1.00  0.00     0.095 C 
ATOM      7  C   UNL     1      94.007  99.671  72.155  1.00  0.00     0.289 C 
ATOM      8  C   UNL     1      96.682 100.741  73.330  1.00  0.00     0.023 C 
ATOM      9  O   UNL     1      94.262  98.324  71.763  1.00  0.00    -0.320 OA
ATOM     10  O   UNL     1      94.773 100.482  71.269  1.00  0.00    -0.313 OA
ATOM     11  C   UNL     1      95.697  98.345  71.713  1.00  0.00     0.170 C 
ATOM     12  C   UNL     1      97.081 100.487  71.844  1.00  0.00     0.049 C 
ATOM     13  C   UNL     1      96.130 102.169  73.474  1.00  0.00     0.011 C 
ATOM     14  C   UNL     1      95.990  99.730  71.086  1.00  0.00     0.122 C 
BRANCH   6  15
ATOM     15  C   UNL     1      95.729  99.425  75.431  1.00  0.00     0.086 C 
ATOM     16  C   UNL     1      96.910  98.642  76.042  1.00  0.00     0.140 CG0
ATOM     17  C   UNL     1      95.633 100.648  76.301  1.00  0.00    -0.010 C 
ATOM     18  C   UNL     1      97.113  99.342  77.369  1.00  0.00     0.190 C 
ATOM     19  G   UNL     1      96.592  97.157  76.207  1.00  0.00     0.000 G0
ATOM     20  C   UNL     1      96.377 100.620  77.411  1.00  0.00    -0.008 C 
ATOM     21  O   UNL     1      97.828  98.945  78.277  1.00  0.00    -0.291 OA
ATOM     22  C   UNL     1      96.468 101.592  78.520  1.00  0.00     0.048 C 
BRANCH  16  23
ATOM     23  O   UNL     1      98.140  98.837  75.365  1.00  0.00    -0.381 OA
ATOM     24  H   UNL     1      98.514  99.688  75.646  1.00  0.00     0.212 HD
ENDBRANCH  16  23
ENDBRANCH   6  15
BRANCH   7  25
ATOM     25  C   UNL     1      92.534  99.983  71.983  1.00  0.00     0.135 C 
BRANCH  25  26
ATOM     26  C   UNL     1      92.213 100.435  70.580  1.00  0.00    -0.040 A 
ATOM     27  C   UNL     1      91.884  99.495  69.603  1.00  0.00     0.004 A 
ATOM     28  C   UNL     1      92.242 101.792  70.260  1.00  0.00     0.004 A 
ATOM     29  C   UNL     1      91.587  99.913  68.305  1.00  0.00     0.000 A 
ATOM     30  C   UNL     1      91.945 102.210  68.963  1.00  0.00     0.000 A 
ATOM     31  C   UNL     1      91.617 101.270  67.986  1.00  0.00     0.000 A 
ENDBRANCH  25  26
ENDBRANCH   7  25
BRANCH  14  32
ATOM     32  C   UNL     1      96.269  99.636  69.621  1.00  0.00    -0.046 C 
ATOM     33  C   UNL     1      95.513 100.585  68.740  1.00  0.00     0.042 C 
ATOM     34  C   UNL     1      97.145  98.751  69.121  1.00  0.00     0.010 C 
ENDBRANCH  14  32
ENDBRANCH   3   4
BRANCH   2  35
ATOM     35  C   UNL     1      96.588  97.136  76.199  1.00  0.00     0.078 CG0
ATOM     36  G   UNL     1      96.903  98.624  76.046  1.00  0.00     0.000 G0
ENDBRANCH   2  35
ENDBRANCH   1   2
BRANCH   1  37
ATOM     37  O   UNL     1      94.218  95.166  76.126  1.00  0.00    -0.461 OA
BRANCH  37  38
ATOM     38  C   UNL     1      93.044  95.206  75.410  1.00  0.00     0.310 C 
ATOM     39  O   UNL     1      92.964  95.382  74.202  1.00  0.00    -0.252 OA
BRANCH  38  40
ATOM     40  C   UNL     1      91.875  95.000  76.344  1.00  0.00     0.158 C 
BRANCH  40  41
ATOM     41  C   UNL     1      91.070  93.769  76.015  1.00  0.00    -0.033 A 
ATOM     42  C   UNL     1      90.522  93.614  74.741  1.00  0.00     0.054 A 
ATOM     43  C   UNL     1      90.873  92.785  76.983  1.00  0.00     0.008 A 
ATOM     44  C   UNL     1      89.776  92.475  74.436  1.00  0.00     0.160 A 
ATOM     45  C   UNL     1      90.127  91.646  76.679  1.00  0.00     0.050 A 
ATOM     46  C   UNL     1      89.579  91.491  75.406  1.00  0.00     0.157 A 
BRANCH  44  47
ATOM     47  O   UNL     1      89.246  92.335  73.190  1.00  0.00    -0.493 OA
ATOM     48  C   UNL     1      90.160  92.110  72.118  1.00  0.00     0.278 C 
ENDBRANCH  44  47
BRANCH  46  49
ATOM     49  O   UNL     1      88.854  90.374  75.120  1.00  0.00    -0.504 OA
ATOM     50  H   UNL     1      89.145  89.650  75.700  1.00  0.00     0.293 HD
ENDBRANCH  46  49
ENDBRANCH  40  41
ENDBRANCH  38  40
ENDBRANCH  37  38
ENDBRANCH   1  37
TORSDOF 11
ENDMDL
MODEL 6
REMARK VINA RESULT:    -6.226      5.622      9.288
REMARK INTER + INTRA:         -11.958
REMARK INTER:                 -10.923
REMARK INTRA:                  -1.035
REMARK UNBOUND:                -1.000
REMARK SMILES C=C(C)[C@]12C[C@@H](C)[C@@]34O[C@](Cc5ccccc5)(O[C@@H]1[C@@H]3C=C(COC(=O)Cc1ccc(O)c(OC)c1)C[C@]1(O)C(=O)C(C)=C[C@@H]41)O2
REMARK SMILES IDX 23 1 22 2 21 3 20 4 9 5 8 6 10 7 6 8 18 9 46 10 19 11 5 12
REMARK SMILES IDX 7 13 4 14 45 15 38 16 44 17 40 18 42 20 41 21 43 22 39 23
REMARK SMILES IDX 11 25 12 26 13 27 17 28 14 29 16 30 15 31 2 32 3 33 1 34
REMARK SMILES IDX 37 35 24 37 25 38 26 39 27 40 28 41 36 42 29 43 33 44 30 45
REMARK SMILES IDX 31 46 34 47 35 48 32 49
REMARK H PARENT 39 24 32 50
REMARK Flexibility Score: 90.00
ROOT
ATOM      1  C   UNL     1      95.241  98.474  70.349  1.00  0.00     0.264 C 
ENDROOT
BRANCH   1   2
ATOM      2  C   UNL     1      94.125  99.403  69.932  1.00  0.00    -0.033 C 
ATOM      3  C   UNL     1      94.390 100.714  69.756  1.00  0.00    -0.015 C 
BRANCH   3   4
ATOM      4  C   UNL     1      93.441 101.852  69.418  1.00  0.00     0.078 C 
ATOM      5  O   UNL     1      93.442 102.085  66.956  1.00  0.00    -0.319 OA
ATOM      6  C   UNL     1      92.592 101.752  68.096  1.00  0.00     0.095 C 
ATOM      7  C   UNL     1      94.317 103.213  67.147  1.00  0.00     0.289 C 
ATOM      8  C   UNL     1      91.417 102.811  68.199  1.00  0.00     0.023 C 
ATOM      9  O   UNL     1      95.172 103.019  68.271  1.00  0.00    -0.320 OA
ATOM     10  O   UNL     1      93.600 104.415  67.411  1.00  0.00    -0.313 OA
ATOM     11  C   UNL     1      94.226 103.185  69.338  1.00  0.00     0.170 C 
ATOM     12  C   UNL     1      91.858 104.077  68.996  1.00  0.00     0.049 C 
ATOM     13  C   UNL     1      90.796 103.239  66.860  1.00  0.00     0.011 C 
ATOM     14  C   UNL     1      93.352 104.359  68.831  1.00  0.00     0.122 C 
BRANCH   6  15
ATOM     15  C   UNL     1      92.148 100.284  67.835  1.00  0.00     0.086 C 
ATOM     16  C   UNL     1      91.648  99.496  69.064  1.00  0.00     0.140 CG0
ATOM     17  C   UNL     1      91.103 100.005  66.792  1.00  0.00    -0.010 C 
ATOM     18  C   UNL     1      90.576  98.608  68.468  1.00  0.00     0.190 C 
ATOM     19  G   UNL     1      92.767  98.696  69.730  1.00  0.00     0.000 G0
ATOM     20  C   UNL     1      90.221  99.049  67.106  1.00  0.00    -0.008 C 
ATOM     21  O   UNL     1      90.029  97.678  69.040  1.00  0.00    -0.291 OA
ATOM     22  C   UNL     1      89.127  98.464  66.304  1.00  0.00     0.048 C 
BRANCH  16  23
ATOM     23  O   UNL     1      90.946 100.288  70.007  1.00  0.00    -0.381 OA
ATOM     24  H   UNL     1      91.332 100.135  70.885  1.00  0.00     0.212 HD
ENDBRANCH  16  23
ENDBRANCH   6  15
BRANCH   7  25
ATOM     25  C   UNL     1      95.151 103.386  65.893  1.00  0.00     0.135 C 
BRANCH  25  26
ATOM     26  C   UNL     1      96.517 102.760  66.032  1.00  0.00    -0.040 A 
ATOM     27  C   UNL     1      96.691 101.401  65.764  1.00  0.00     0.004 A 
ATOM     28  C   UNL     1      97.604 103.538  66.426  1.00  0.00     0.004 A 
ATOM     29  C   UNL     1      97.954 100.822  65.891  1.00  0.00     0.000 A 
ATOM     30  C   UNL     1      98.867 102.958  66.554  1.00  0.00     0.000 A 
ATOM     31  C   UNL     1      99.041 101.600  66.286  1.00  0.00     0.000 A 
ENDBRANCH  25  26
ENDBRANCH   7  25
BRANCH  14  32
ATOM     32  C   UNL     1      93.760 105.663  69.433  1.00  0.00    -0.046 C 
ATOM     33  C   UNL     1      93.722 106.854  68.521  1.00  0.00     0.042 C 
ATOM     34  C   UNL     1      94.140 105.765  70.715  1.00  0.00     0.010 C 
ENDBRANCH  14  32
ENDBRANCH   3   4
BRANCH   2  35
ATOM     35  C   UNL     1      92.796  98.694  69.753  1.00  0.00     0.078 CG0
ATOM     36  G   UNL     1      91.668  99.482  69.090  1.00  0.00     0.000 G0
ENDBRANCH   2  35
ENDBRANCH   1   2
BRANCH   1  37
ATOM     37  O   UNL     1      94.935  97.912  71.607  1.00  0.00    -0.461 OA
BRANCH  37  38
ATOM     38  C   UNL     1      95.211  98.693  72.706  1.00  0.00     0.310 C 
ATOM     39  O   UNL     1      95.985  99.641  72.718  1.00  0.00    -0.252 OA
BRANCH  38  40
ATOM     40  C   UNL     1      94.411  98.201  73.889  1.00  0.00     0.158 C 
BRANCH  40  41
ATOM     41  C   UNL     1      94.932  96.903  74.451  1.00  0.00    -0.033 A 
ATOM     42  C   UNL     1      94.041  95.889  74.806  1.00  0.00     0.054 A 
ATOM     43  C   UNL     1      96.304  96.714  74.614  1.00  0.00     0.008 A 
ATOM     44  C   UNL     1      94.522  94.688  75.326  1.00  0.00     0.160 A 
ATOM     45  C   UNL     1      96.786  95.512  75.134  1.00  0.00     0.050 A 
ATOM     46  C   UNL     1      95.895  94.500  75.491  1.00  0.00     0.157 A 
BRANCH  44  47
ATOM     47  O   UNL     1      93.643  93.707  75.670  1.00  0.00    -0.493 OA
ATOM     48  C   UNL     1      92.636  94.043  76.624  1.00  0.00     0.278 C 
ENDBRANCH  44  47
BRANCH  46  49
ATOM     49  O   UNL     1      96.377  93.331  75.996  1.00  0.00    -0.504 OA
ATOM     50  H   UNL     1      96.626  92.746  75.260  1.00  0.00     0.293 HD
ENDBRANCH  46  49
ENDBRANCH  40  41
ENDBRANCH  38  40
ENDBRANCH  37  38
ENDBRANCH   1  37
TORSDOF 11
ENDMDL
MODEL 7
REMARK VINA RESULT:    -5.990     15.048     18.083
REMARK INTER + INTRA:         -11.543
REMARK INTER:                  -9.408
REMARK INTRA:                  -2.135
REMARK UNBOUND:                -1.000
REMARK SMILES C=C(C)[C@]12C[C@@H](C)[C@@]34O[C@](Cc5ccccc5)(O[C@@H]1[C@@H]3C=C(COC(=O)Cc1ccc(O)c(OC)c1)C[C@]1(O)C(=O)C(C)=C[C@@H]41)O2
REMARK SMILES IDX 23 1 22 2 21 3 20 4 9 5 8 6 10 7 6 8 18 9 46 10 19 11 5 12
REMARK SMILES IDX 7 13 4 14 45 15 38 16 44 17 40 18 42 20 41 21 43 22 39 23
REMARK SMILES IDX 11 25 12 26 13 27 17 28 14 29 16 30 15 31 2 32 3 33 1 34
REMARK SMILES IDX 37 35 24 37 25 38 26 39 27 40 28 41 36 42 29 43 33 44 30 45
REMARK SMILES IDX 31 46 34 47 35 48 32 49
REMARK H PARENT 39 24 32 50
REMARK Flexibility Score: 90.00
ROOT
ATOM      1  C   UNL     1     102.977  80.180  81.171  1.00  0.00     0.264 C 
ENDROOT
BRANCH   1   2
ATOM      2  C   UNL     1     102.259  79.741  79.917  1.00  0.00    -0.033 C 
ATOM      3  C   UNL     1     101.356  80.568  79.351  1.00  0.00    -0.015 C 
BRANCH   3   4
ATOM      4  C   UNL     1     100.456  80.335  78.148  1.00  0.00     0.078 C 
ATOM      5  O   UNL     1     101.671  81.178  76.165  1.00  0.00    -0.319 OA
ATOM      6  C   UNL     1     101.126  79.966  76.772  1.00  0.00     0.095 C 
ATOM      7  C   UNL     1     100.827  82.342  76.248  1.00  0.00     0.289 C 
ATOM      8  C   UNL     1      99.996  79.373  75.833  1.00  0.00     0.023 C 
ATOM      9  O   UNL     1     100.506  82.653  77.601  1.00  0.00    -0.320 OA
ATOM     10  O   UNL     1      99.578  82.152  75.589  1.00  0.00    -0.313 OA
ATOM     11  C   UNL     1      99.586  81.590  77.892  1.00  0.00     0.170 C 
ATOM     12  C   UNL     1      98.614  80.040  76.110  1.00  0.00     0.049 C 
ATOM     13  C   UNL     1     100.296  79.425  74.326  1.00  0.00     0.011 C 
ATOM     14  C   UNL     1      98.768  81.487  76.581  1.00  0.00     0.122 C 
BRANCH   6  15
ATOM     15  C   UNL     1     102.364  79.049  76.989  1.00  0.00     0.086 C 
ATOM     16  C   UNL     1     102.199  77.917  78.025  1.00  0.00     0.140 CG0
ATOM     17  C   UNL     1     102.983  78.355  75.808  1.00  0.00    -0.010 C 
ATOM     18  C   UNL     1     103.044  76.809  77.434  1.00  0.00     0.190 C 
ATOM     19  G   UNL     1     102.671  78.335  79.417  1.00  0.00     0.000 G0
ATOM     20  C   UNL     1     103.400  77.105  76.033  1.00  0.00    -0.008 C 
ATOM     21  O   UNL     1     103.358  75.776  78.006  1.00  0.00    -0.291 OA
ATOM     22  C   UNL     1     104.117  76.167  75.145  1.00  0.00     0.048 C 
BRANCH  16  23
ATOM     23  O   UNL     1     100.894  77.363  78.066  1.00  0.00    -0.381 OA
ATOM     24  H   UNL     1     100.284  78.039  78.402  1.00  0.00     0.212 HD
ENDBRANCH  16  23
ENDBRANCH   6  15
BRANCH   7  25
ATOM     25  C   UNL     1     101.561  83.507  75.615  1.00  0.00     0.135 C 
BRANCH  25  26
ATOM     26  C   UNL     1     101.992  83.203  74.202  1.00  0.00    -0.040 A 
ATOM     27  C   UNL     1     103.174  82.498  73.970  1.00  0.00     0.004 A 
ATOM     28  C   UNL     1     101.210  83.625  73.127  1.00  0.00     0.004 A 
ATOM     29  C   UNL     1     103.573  82.217  72.663  1.00  0.00     0.000 A 
ATOM     30  C   UNL     1     101.609  83.343  71.820  1.00  0.00     0.000 A 
ATOM     31  C   UNL     1     102.791  82.639  71.589  1.00  0.00     0.000 A 
ENDBRANCH  25  26
ENDBRANCH   7  25
BRANCH  14  32
ATOM     32  C   UNL     1      97.460  82.202  76.677  1.00  0.00    -0.046 C 
ATOM     33  C   UNL     1      97.321  83.444  75.847  1.00  0.00     0.042 C 
ATOM     34  C   UNL     1      96.466  81.760  77.462  1.00  0.00     0.010 C 
ENDBRANCH  14  32
ENDBRANCH   3   4
BRANCH   2  35
ATOM     35  C   UNL     1     102.681  78.365  79.440  1.00  0.00     0.078 CG0
ATOM     36  G   UNL     1     102.208  77.929  78.054  1.00  0.00     0.000 G0
ENDBRANCH   2  35
ENDBRANCH   1   2
BRANCH   1  37
ATOM     37  O   UNL     1     102.460  79.471  82.277  1.00  0.00    -0.461 OA
BRANCH  37  38
ATOM     38  C   UNL     1     101.761  80.212  83.202  1.00  0.00     0.310 C 
ATOM     39  O   UNL     1     102.207  81.172  83.815  1.00  0.00    -0.252 OA
BRANCH  38  40
ATOM     40  C   UNL     1     100.364  79.656  83.340  1.00  0.00     0.158 C 
BRANCH  40  41
ATOM     41  C   UNL     1      99.323  80.504  82.654  1.00  0.00    -0.033 A 
ATOM     42  C   UNL     1      99.025  81.775  83.145  1.00  0.00     0.054 A 
ATOM     43  C   UNL     1      98.659  80.018  81.529  1.00  0.00     0.008 A 
ATOM     44  C   UNL     1      98.062  82.560  82.510  1.00  0.00     0.160 A 
ATOM     45  C   UNL     1      97.696  80.802  80.894  1.00  0.00     0.050 A 
ATOM     46  C   UNL     1      97.397  82.073  81.384  1.00  0.00     0.157 A 
BRANCH  44  47
ATOM     47  O   UNL     1      97.779  83.799  82.999  1.00  0.00    -0.493 OA
ATOM     48  C   UNL     1      96.751  83.889  83.984  1.00  0.00     0.278 C 
ENDBRANCH  44  47
BRANCH  46  49
ATOM     49  O   UNL     1      96.456  82.830  80.755  1.00  0.00    -0.504 OA
ATOM     50  H   UNL     1      95.597  82.693  81.190  1.00  0.00     0.293 HD
ENDBRANCH  46  49
ENDBRANCH  40  41
ENDBRANCH  38  40
ENDBRANCH  37  38
ENDBRANCH   1  37
TORSDOF 11
ENDMDL
MODEL 8
REMARK VINA RESULT:    -5.973     15.534     19.028
REMARK INTER + INTRA:         -11.513
REMARK INTER:                  -9.538
REMARK INTRA:                  -1.975
REMARK UNBOUND:                -1.000
REMARK SMILES C=C(C)[C@]12C[C@@H](C)[C@@]34O[C@](Cc5ccccc5)(O[C@@H]1[C@@H]3C=C(COC(=O)Cc1ccc(O)c(OC)c1)C[C@]1(O)C(=O)C(C)=C[C@@H]41)O2
REMARK SMILES IDX 23 1 22 2 21 3 20 4 9 5 8 6 10 7 6 8 18 9 46 10 19 11 5 12
REMARK SMILES IDX 7 13 4 14 45 15 38 16 44 17 40 18 42 20 41 21 43 22 39 23
REMARK SMILES IDX 11 25 12 26 13 27 17 28 14 29 16 30 15 31 2 32 3 33 1 34
REMARK SMILES IDX 37 35 24 37 25 38 26 39 27 40 28 41 36 42 29 43 33 44 30 45
REMARK SMILES IDX 31 46 34 47 35 48 32 49
REMARK H PARENT 39 24 32 50
REMARK Flexibility Score: 90.00
ROOT
ATOM      1  C   UNL     1     102.372  79.382  81.602  1.00  0.00     0.264 C 
ENDROOT
BRANCH   1   2
ATOM      2  C   UNL     1     101.287  80.313  81.114  1.00  0.00    -0.033 C 
ATOM      3  C   UNL     1     101.018  80.378  79.794  1.00  0.00    -0.015 C 
BRANCH   3   4
ATOM      4  C   UNL     1     100.043  81.277  79.051  1.00  0.00     0.078 C 
ATOM      5  O   UNL     1      97.910  80.036  78.873  1.00  0.00    -0.319 OA
ATOM      6  C   UNL     1      98.522  81.228  79.456  1.00  0.00     0.095 C 
ATOM      7  C   UNL     1      98.286  79.752  77.512  1.00  0.00     0.289 C 
ATOM      8  C   UNL     1      97.825  82.520  78.857  1.00  0.00     0.023 C 
ATOM      9  O   UNL     1      99.699  79.610  77.385  1.00  0.00    -0.320 OA
ATOM     10  O   UNL     1      97.924  80.803  76.620  1.00  0.00    -0.313 OA
ATOM     11  C   UNL     1     100.105  80.979  77.533  1.00  0.00     0.170 C 
ATOM     12  C   UNL     1      98.473  82.944  77.504  1.00  0.00     0.049 C 
ATOM     13  C   UNL     1      96.300  82.427  78.688  1.00  0.00     0.011 C 
ATOM     14  C   UNL     1      99.016  81.739  76.734  1.00  0.00     0.122 C 
BRANCH   6  15
ATOM     15  C   UNL     1      98.365  81.035  80.992  1.00  0.00     0.086 C 
ATOM     16  C   UNL     1      99.318  81.860  81.882  1.00  0.00     0.140 CG0
ATOM     17  C   UNL     1      97.020  81.247  81.627  1.00  0.00    -0.010 C 
ATOM     18  C   UNL     1      98.457  82.158  83.091  1.00  0.00     0.190 C 
ATOM     19  G   UNL     1     100.586  81.088  82.242  1.00  0.00     0.000 G0
ATOM     20  C   UNL     1      97.040  81.851  82.820  1.00  0.00    -0.008 C 
ATOM     21  O   UNL     1      98.854  82.637  84.143  1.00  0.00    -0.291 OA
ATOM     22  C   UNL     1      95.935  82.144  83.757  1.00  0.00     0.048 C 
BRANCH  16  23
ATOM     23  O   UNL     1      99.623  83.143  81.360  1.00  0.00    -0.381 OA
ATOM     24  H   UNL     1      98.830  83.493  80.921  1.00  0.00     0.212 HD
ENDBRANCH  16  23
ENDBRANCH   6  15
BRANCH   7  25
ATOM     25  C   UNL     1      97.602  78.469  77.087  1.00  0.00     0.135 C 
BRANCH  25  26
ATOM     26  C   UNL     1      98.440  77.253  77.394  1.00  0.00    -0.040 A 
ATOM     27  C   UNL     1      98.998  76.510  76.353  1.00  0.00     0.004 A 
ATOM     28  C   UNL     1      98.658  76.872  78.717  1.00  0.00     0.004 A 
ATOM     29  C   UNL     1      99.773  75.385  76.637  1.00  0.00     0.000 A 
ATOM     30  C   UNL     1      99.433  75.747  79.001  1.00  0.00     0.000 A 
ATOM     31  C   UNL     1      99.990  75.004  77.960  1.00  0.00     0.000 A 
ENDBRANCH  25  26
ENDBRANCH   7  25
BRANCH  14  32
ATOM     32  C   UNL     1      99.476  82.096  75.358  1.00  0.00    -0.046 C 
ATOM     33  C   UNL     1      99.274  83.522  74.942  1.00  0.00     0.042 C 
ATOM     34  C   UNL     1     100.037  81.191  74.541  1.00  0.00     0.010 C 
ENDBRANCH  14  32
ENDBRANCH   3   4
BRANCH   2  35
ATOM     35  C   UNL     1     100.611  81.079  82.236  1.00  0.00     0.078 CG0
ATOM     36  G   UNL     1      99.336  81.846  81.889  1.00  0.00     0.000 G0
ENDBRANCH   2  35
ENDBRANCH   1   2
BRANCH   1  37
ATOM     37  O   UNL     1     102.115  78.078  81.128  1.00  0.00    -0.461 OA
BRANCH  37  38
ATOM     38  C   UNL     1     103.214  77.337  80.760  1.00  0.00     0.310 C 
ATOM     39  O   UNL     1     103.266  76.115  80.749  1.00  0.00    -0.252 OA
BRANCH  38  40
ATOM     40  C   UNL     1     104.343  78.265  80.376  1.00  0.00     0.158 C 
BRANCH  40  41
ATOM     41  C   UNL     1     104.351  78.604  78.908  1.00  0.00    -0.033 A 
ATOM     42  C   UNL     1     104.323  77.584  77.956  1.00  0.00     0.054 A 
ATOM     43  C   UNL     1     104.385  79.937  78.500  1.00  0.00     0.008 A 
ATOM     44  C   UNL     1     104.330  77.898  76.597  1.00  0.00     0.160 A 
ATOM     45  C   UNL     1     104.392  80.251  77.141  1.00  0.00     0.050 A 
ATOM     46  C   UNL     1     104.365  79.232  76.189  1.00  0.00     0.157 A 
BRANCH  44  47
ATOM     47  O   UNL     1     104.304  76.893  75.677  1.00  0.00    -0.493 OA
ATOM     48  C   UNL     1     103.048  76.253  75.452  1.00  0.00     0.278 C 
ENDBRANCH  44  47
BRANCH  46  49
ATOM     49  O   UNL     1     104.371  79.551  74.865  1.00  0.00    -0.504 OA
ATOM     50  H   UNL     1     103.763  80.294  74.716  1.00  0.00     0.293 HD
ENDBRANCH  46  49
ENDBRANCH  40  41
ENDBRANCH  38  40
ENDBRANCH  37  38
ENDBRANCH   1  37
TORSDOF 11
ENDMDL
MODEL 9
REMARK VINA RESULT:    -5.933     17.370     20.766
REMARK INTER + INTRA:         -11.441
REMARK INTER:                 -10.235
REMARK INTRA:                  -1.207
REMARK UNBOUND:                -1.000
REMARK SMILES C=C(C)[C@]12C[C@@H](C)[C@@]34O[C@](Cc5ccccc5)(O[C@@H]1[C@@H]3C=C(COC(=O)Cc1ccc(O)c(OC)c1)C[C@]1(O)C(=O)C(C)=C[C@@H]41)O2
REMARK SMILES IDX 23 1 22 2 21 3 20 4 9 5 8 6 10 7 6 8 18 9 46 10 19 11 5 12
REMARK SMILES IDX 7 13 4 14 45 15 38 16 44 17 40 18 42 20 41 21 43 22 39 23
REMARK SMILES IDX 11 25 12 26 13 27 17 28 14 29 16 30 15 31 2 32 3 33 1 34
REMARK SMILES IDX 37 35 24 37 25 38 26 39 27 40 28 41 36 42 29 43 33 44 30 45
REMARK SMILES IDX 31 46 34 47 35 48 32 49
REMARK H PARENT 39 24 32 50
REMARK Flexibility Score: 90.00
ROOT
ATOM      1  C   UNL     1      82.658  90.736  88.412  1.00  0.00     0.264 C 
ENDROOT
BRANCH   1   2
ATOM      2  C   UNL     1      83.027  91.804  89.415  1.00  0.00    -0.033 C 
ATOM      3  C   UNL     1      82.557  93.056  89.248  1.00  0.00    -0.015 C 
BRANCH   3   4
ATOM      4  C   UNL     1      82.839  94.309  90.061  1.00  0.00     0.078 C 
ATOM      5  O   UNL     1      81.080  94.457  91.793  1.00  0.00    -0.319 OA
ATOM      6  C   UNL     1      82.519  94.291  91.602  1.00  0.00     0.095 C 
ATOM      7  C   UNL     1      80.457  95.450  90.957  1.00  0.00     0.289 C 
ATOM      8  C   UNL     1      83.279  95.513  92.265  1.00  0.00     0.023 C 
ATOM      9  O   UNL     1      80.672  95.172  89.576  1.00  0.00    -0.320 OA
ATOM     10  O   UNL     1      80.992  96.753  91.174  1.00  0.00    -0.313 OA
ATOM     11  C   UNL     1      82.063  95.509  89.464  1.00  0.00     0.170 C 
ATOM     12  C   UNL     1      83.368  96.727  91.290  1.00  0.00     0.049 C 
ATOM     13  C   UNL     1      82.720  95.982  93.618  1.00  0.00     0.011 C 
ATOM     14  C   UNL     1      82.170  96.781  90.342  1.00  0.00     0.122 C 
BRANCH   6  15
ATOM     15  C   UNL     1      82.833  92.895  92.214  1.00  0.00     0.086 C 
ATOM     16  C   UNL     1      84.136  92.221  91.736  1.00  0.00     0.140 CG0
ATOM     17  C   UNL     1      82.889  92.742  93.708  1.00  0.00    -0.010 C 
ATOM     18  C   UNL     1      84.595  91.481  92.975  1.00  0.00     0.190 C 
ATOM     19  G   UNL     1      83.901  91.287  90.550  1.00  0.00     0.000 G0
ATOM     20  C   UNL     1      83.849  91.932  94.166  1.00  0.00    -0.008 C 
ATOM     21  O   UNL     1      85.494  90.656  93.015  1.00  0.00    -0.291 OA
ATOM     22  C   UNL     1      84.144  91.489  95.544  1.00  0.00     0.048 C 
BRANCH  16  23
ATOM     23  O   UNL     1      85.192  93.132  91.476  1.00  0.00    -0.381 OA
ATOM     24  H   UNL     1      85.167  93.831  92.150  1.00  0.00     0.212 HD
ENDBRANCH  16  23
ENDBRANCH   6  15
BRANCH   7  25
ATOM     25  C   UNL     1      78.971  95.457  91.253  1.00  0.00     0.135 C 
BRANCH  25  26
ATOM     26  C   UNL     1      78.628  96.371  92.403  1.00  0.00    -0.040 A 
ATOM     27  C   UNL     1      78.847  95.952  93.715  1.00  0.00     0.004 A 
ATOM     28  C   UNL     1      78.093  97.635  92.155  1.00  0.00     0.004 A 
ATOM     29  C   UNL     1      78.530  96.796  94.780  1.00  0.00     0.000 A 
ATOM     30  C   UNL     1      77.776  98.480  93.219  1.00  0.00     0.000 A 
ATOM     31  C   UNL     1      77.995  98.060  94.531  1.00  0.00     0.000 A 
ENDBRANCH  25  26
ENDBRANCH   7  25
BRANCH  14  32
ATOM     32  C   UNL     1      82.140  98.031  89.526  1.00  0.00    -0.046 C 
ATOM     33  C   UNL     1      81.343  99.171  90.088  1.00  0.00     0.042 C 
ATOM     34  C   UNL     1      82.788  98.130  88.355  1.00  0.00     0.010 C 
ENDBRANCH  14  32
ENDBRANCH   3   4
BRANCH   2  35
ATOM     35  C   UNL     1      83.915  91.289  90.532  1.00  0.00     0.078 CG0
ATOM     36  G   UNL     1      84.137  92.212  91.730  1.00  0.00     0.000 G0
ENDBRANCH   2  35
ENDBRANCH   1   2
BRANCH   1  37
ATOM     37  O   UNL     1      82.801  91.253  87.107  1.00  0.00    -0.461 OA
BRANCH  37  38
ATOM     38  C   UNL     1      83.788  90.688  86.333  1.00  0.00     0.310 C 
ATOM     39  O   UNL     1      84.908  90.393  86.729  1.00  0.00    -0.252 OA
BRANCH  38  40
ATOM     40  C   UNL     1      83.277  90.491  84.926  1.00  0.00     0.158 C 
BRANCH  40  41
ATOM     41  C   UNL     1      82.272  89.373  84.817  1.00  0.00    -0.033 A 
ATOM     42  C   UNL     1      82.629  88.076  85.188  1.00  0.00     0.054 A 
ATOM     43  C   UNL     1      80.986  89.635  84.346  1.00  0.00     0.008 A 
ATOM     44  C   UNL     1      81.699  87.041  85.087  1.00  0.00     0.160 A 
ATOM     45  C   UNL     1      80.056  88.600  84.245  1.00  0.00     0.050 A 
ATOM     46  C   UNL     1      80.412  87.303  84.615  1.00  0.00     0.157 A 
BRANCH  44  47
ATOM     47  O   UNL     1      82.059  85.779  85.452  1.00  0.00    -0.493 OA
ATOM     48  C   UNL     1      82.364  85.565  86.829  1.00  0.00     0.278 C 
ENDBRANCH  44  47
BRANCH  46  49
ATOM     49  O   UNL     1      79.495  86.301  84.514  1.00  0.00    -0.504 OA
ATOM     50  H   UNL     1      78.603  86.688  84.499  1.00  0.00     0.293 HD
ENDBRANCH  46  49
ENDBRANCH  40  41
ENDBRANCH  38  40
ENDBRANCH  37  38
ENDBRANCH   1  37
TORSDOF 11
ENDMDL
MODEL 10
REMARK VINA RESULT:    -5.770     14.934     19.857
REMARK INTER + INTRA:         -11.155
REMARK INTER:                 -10.070
REMARK INTRA:                  -1.085
REMARK UNBOUND:                -1.000
REMARK SMILES C=C(C)[C@]12C[C@@H](C)[C@@]34O[C@](Cc5ccccc5)(O[C@@H]1[C@@H]3C=C(COC(=O)Cc1ccc(O)c(OC)c1)C[C@]1(O)C(=O)C(C)=C[C@@H]41)O2
REMARK SMILES IDX 23 1 22 2 21 3 20 4 9 5 8 6 10 7 6 8 18 9 46 10 19 11 5 12
REMARK SMILES IDX 7 13 4 14 45 15 38 16 44 17 40 18 42 20 41 21 43 22 39 23
REMARK SMILES IDX 11 25 12 26 13 27 17 28 14 29 16 30 15 31 2 32 3 33 1 34
REMARK SMILES IDX 37 35 24 37 25 38 26 39 27 40 28 41 36 42 29 43 33 44 30 45
REMARK SMILES IDX 31 46 34 47 35 48 32 49
REMARK H PARENT 39 24 32 50
REMARK Flexibility Score: 90.00
ROOT
ATOM      1  C   UNL     1      99.036  80.852  84.017  1.00  0.00     0.264 C 
ENDROOT
BRANCH   1   2
ATOM      2  C   UNL     1      97.616  81.294  84.283  1.00  0.00    -0.033 C 
ATOM      3  C   UNL     1      96.703  80.380  84.668  1.00  0.00    -0.015 C 
BRANCH   3   4
ATOM      4  C   UNL     1      95.213  80.552  84.919  1.00  0.00     0.078 C 
ATOM      5  O   UNL     1      94.943  81.076  87.321  1.00  0.00    -0.319 OA
ATOM      6  C   UNL     1      94.751  81.620  85.979  1.00  0.00     0.095 C 
ATOM      7  C   UNL     1      94.552  79.701  87.491  1.00  0.00     0.289 C 
ATOM      8  C   UNL     1      93.208  81.895  85.742  1.00  0.00     0.023 C 
ATOM      9  O   UNL     1      95.248  78.849  86.585  1.00  0.00    -0.320 OA
ATOM     10  O   UNL     1      93.167  79.495  87.225  1.00  0.00    -0.313 OA
ATOM     11  C   UNL     1      94.594  79.201  85.355  1.00  0.00     0.170 C 
ATOM     12  C   UNL     1      92.470  80.614  85.244  1.00  0.00     0.049 C 
ATOM     13  C   UNL     1      92.452  82.488  86.941  1.00  0.00     0.011 C 
ATOM     14  C   UNL     1      93.115  79.340  85.792  1.00  0.00     0.122 C 
BRANCH   6  15
ATOM     15  C   UNL     1      95.668  82.876  85.933  1.00  0.00     0.086 C 
ATOM     16  C   UNL     1      96.072  83.372  84.529  1.00  0.00     0.140 CG0
ATOM     17  C   UNL     1      95.234  84.131  86.636  1.00  0.00    -0.010 C 
ATOM     18  C   UNL     1      96.137  84.873  84.720  1.00  0.00     0.190 C 
ATOM     19  G   UNL     1      97.405  82.783  84.070  1.00  0.00     0.000 G0
ATOM     20  C   UNL     1      95.508  85.272  85.993  1.00  0.00    -0.008 C 
ATOM     21  O   UNL     1      96.597  85.670  83.916  1.00  0.00    -0.291 OA
ATOM     22  C   UNL     1      95.305  86.673  86.414  1.00  0.00     0.048 C 
BRANCH  16  23
ATOM     23  O   UNL     1      95.064  83.199  83.547  1.00  0.00    -0.381 OA
ATOM     24  H   UNL     1      95.046  82.263  83.287  1.00  0.00     0.212 HD
ENDBRANCH  16  23
ENDBRANCH   6  15
BRANCH   7  25
ATOM     25  C   UNL     1      94.860  79.291  88.917  1.00  0.00     0.135 C 
BRANCH  25  26
ATOM     26  C   UNL     1      95.282  77.846  89.012  1.00  0.00    -0.040 A 
ATOM     27  C   UNL     1      96.637  77.519  89.074  1.00  0.00     0.004 A 
ATOM     28  C   UNL     1      94.319  76.838  89.039  1.00  0.00     0.004 A 
ATOM     29  C   UNL     1      97.028  76.182  89.162  1.00  0.00     0.000 A 
ATOM     30  C   UNL     1      94.711  75.501  89.126  1.00  0.00     0.000 A 
ATOM     31  C   UNL     1      96.066  75.175  89.188  1.00  0.00     0.000 A 
ENDBRANCH  25  26
ENDBRANCH   7  25
BRANCH  14  32
ATOM     32  C   UNL     1      92.320  78.115  85.480  1.00  0.00    -0.046 C 
ATOM     33  C   UNL     1      90.918  78.339  84.995  1.00  0.00     0.042 C 
ATOM     34  C   UNL     1      92.830  76.882  85.625  1.00  0.00     0.010 C 
ENDBRANCH  14  32
ENDBRANCH   3   4
BRANCH   2  35
ATOM     35  C   UNL     1      97.408  82.782  84.075  1.00  0.00     0.078 CG0
ATOM     36  G   UNL     1      96.069  83.369  84.519  1.00  0.00     0.000 G0
ENDBRANCH   2  35
ENDBRANCH   1   2
BRANCH   1  37
ATOM     37  O   UNL     1      99.439  81.313  82.745  1.00  0.00    -0.461 OA
BRANCH  37  38
ATOM     38  C   UNL     1      99.579  80.356  81.767  1.00  0.00     0.310 C 
ATOM     39  O   UNL     1     100.647  79.912  81.367  1.00  0.00    -0.252 OA
BRANCH  38  40
ATOM     40  C   UNL     1      98.216  79.941  81.267  1.00  0.00     0.158 C 
BRANCH  40  41
ATOM     41  C   UNL     1      97.810  80.655  80.004  1.00  0.00    -0.033 A 
ATOM     42  C   UNL     1      98.140  80.114  78.760  1.00  0.00     0.054 A 
ATOM     43  C   UNL     1      97.106  81.857  80.077  1.00  0.00     0.008 A 
ATOM     44  C   UNL     1      97.764  80.775  77.591  1.00  0.00     0.160 A 
ATOM     45  C   UNL     1      96.731  82.518  78.907  1.00  0.00     0.050 A 
ATOM     46  C   UNL     1      97.060  81.978  77.664  1.00  0.00     0.157 A 
BRANCH  44  47
ATOM     47  O   UNL     1      98.092  80.238  76.383  1.00  0.00    -0.493 OA
ATOM     48  C   UNL     1      99.389  80.537  75.870  1.00  0.00     0.278 C 
ENDBRANCH  44  47
BRANCH  46  49
ATOM     49  O   UNL     1      96.687  82.632  76.529  1.00  0.00    -0.504 OA
ATOM     50  H   UNL     1      96.630  81.992  75.800  1.00  0.00     0.293 HD
ENDBRANCH  46  49
ENDBRANCH  40  41
ENDBRANCH  38  40
ENDBRANCH  37  38
ENDBRANCH   1  37
TORSDOF 11
ENDMDL
